{
	 "smiles": "COC1=CC=C(C=C1)C(=O)NC(C(O)=O)C1=CC=CC=C1", 
	 "Tm": 461.15, 
	 "num_atms": 36, 
	 "gaussian": { 
		 "optdone": 1, 
		 "sigma_profile": "yes", 
		 "theory": "DFT", 
		 "functional": "B3LYP", 
		 "basiset": "6-31G**", 
		 "properties": { 
			 "R2extent": 8464.5712, 
			 "electric_dipole_moment_norm": 7.7879344386, 
			 "electric_quadrupole_moment_norm": 21.8694647504, 
			 "total_energy": -974.409841463, 
			 "HOMO_LUMO_gap": 0.19057, 
			 "cosmo_polarized_energy": -22.05, 
			 "cosmo_cavitation_energy": 40.27, 
			 "cosmo_dispersion_energy": -28.52, 
			 "cosmo_repulsion_energy": 2.17, 
			 "cosmo_total_nonelectrostatic_energy": 13.93, 
			 "SMD_solvation_energy": 8.55 
		},
		"coords": [
			{
				"x": -3.5127936293,
				"y": 1.3040191648,
				"z": 5.1825619907,
				"element": "C" 
			},
			{
				"x": -3.6731455415,
				"y": 0.6697056365,
				"z": 3.9193137892,
				"element": "O" 
			},
			{
				"x": -2.596399917,
				"y": 0.5730326822,
				"z": 3.0993228192,
				"element": "C" 
			},
			{
				"x": -1.3164341257,
				"y": 1.0619077793,
				"z": 3.4005697356,
				"element": "C" 
			},
			{
				"x": -0.2862915083,
				"y": 0.9037897495,
				"z": 2.4777674811,
				"element": "C" 
			},
			{
				"x": -0.5037655584,
				"y": 0.2750912389,
				"z": 1.2458488335,
				"element": "C" 
			},
			{
				"x": -1.7885084124,
				"y": -0.2241311517,
				"z": 0.9634908537,
				"element": "C" 
			},
			{
				"x": -2.8226219616,
				"y": -0.078127879,
				"z": 1.8744163918,
				"element": "C" 
			},
			{
				"x": 0.6509992477,
				"y": 0.152205378,
				"z": 0.3158604274,
				"element": "C" 
			},
			{
				"x": 1.8214666294,
				"y": 0.2340447182,
				"z": 0.7328763049,
				"element": "O" 
			},
			{
				"x": 0.3752245822,
				"y": -0.0247697438,
				"z": -1.0037862076,
				"element": "N" 
			},
			{
				"x": 1.3496749656,
				"y": -0.414209145,
				"z": -2.0468474532,
				"element": "C" 
			},
			{
				"x": 2.4125550058,
				"y": 0.6691061035,
				"z": -2.3666473233,
				"element": "C" 
			},
			{
				"x": 3.0670937901,
				"y": 1.2061894534,
				"z": -1.335887088,
				"element": "O" 
			},
			{
				"x": 2.6378460568,
				"y": 0.9752052326,
				"z": -3.5154531048,
				"element": "O" 
			},
			{
				"x": 1.9460322728,
				"y": -1.7992297449,
				"z": -1.7891232164,
				"element": "C" 
			},
			{
				"x": 1.1596897777,
				"y": -2.9223762753,
				"z": -2.082960137,
				"element": "C" 
			},
			{
				"x": 1.6422761258,
				"y": -4.2105863479,
				"z": -1.8612514671,
				"element": "C" 
			},
			{
				"x": 2.9276817734,
				"y": -4.3936561796,
				"z": -1.3461186339,
				"element": "C" 
			},
			{
				"x": 3.7198087699,
				"y": -3.2826934306,
				"z": -1.0582076759,
				"element": "C" 
			},
			{
				"x": 3.2335360216,
				"y": -1.9918034535,
				"z": -1.2757211521,
				"element": "C" 
			},
			{
				"x": -3.2057490918,
				"y": 2.3509936869,
				"z": 5.0705264148,
				"element": "H" 
			},
			{
				"x": -2.781487063,
				"y": 0.7766721875,
				"z": 5.8070763541,
				"element": "H" 
			},
			{
				"x": -4.4912907629,
				"y": 1.2649868049,
				"z": 5.6624147457,
				"element": "H" 
			},
			{
				"x": -1.116885788,
				"y": 1.5606965958,
				"z": 4.3411498294,
				"element": "H" 
			},
			{
				"x": 0.7100294923,
				"y": 1.2697908881,
				"z": 2.7007832918,
				"element": "H" 
			},
			{
				"x": -1.9803849019,
				"y": -0.7678528311,
				"z": 0.0426194202,
				"element": "H" 
			},
			{
				"x": -3.8138937168,
				"y": -0.4691641145,
				"z": 1.6719387985,
				"element": "H" 
			},
			{
				"x": -0.5825963227,
				"y": 0.0791207007,
				"z": -1.3004822174,
				"element": "H" 
			},
			{
				"x": 0.7645371438,
				"y": -0.472432502,
				"z": -2.9660413128,
				"element": "H" 
			},
			{
				"x": 2.7163866546,
				"y": 0.8427943908,
				"z": -0.4726702433,
				"element": "H" 
			},
			{
				"x": 0.161795164,
				"y": -2.785925339,
				"z": -2.4938666374,
				"element": "H" 
			},
			{
				"x": 1.0207998093,
				"y": -5.0693035935,
				"z": -2.0985830234,
				"element": "H" 
			},
			{
				"x": 3.3097975042,
				"y": -5.3961258521,
				"z": -1.1765390518,
				"element": "H" 
			},
			{
				"x": 4.7220257027,
				"y": -3.4159725716,
				"z": -0.6615940702,
				"element": "H" 
			},
			{
				"x": 3.8624918112,
				"y": -1.1383922364,
				"z": -1.0500574659,
				"element": "H" 
			}
		],
		 "valence_orbital": [ 
			{
				"type": "occ",
				"energy": -0.27378,
				"method": "rhf"
			},
			{
				"type": "occ",
				"energy": -0.25466,
				"method": "rhf"
			},
			{
				"type": "occ",
				"energy": -0.25187,
				"method": "rhf"
			},
			{
				"type": "occ",
				"energy": -0.24614,
				"method": "rhf"
			},
			{
				"type": "occ",
				"energy": -0.23907,
				"method": "rhf"
			},
			{
				"type": "unocc",
				"energy": -0.0485,
				"method": "rhf"
			},
			{
				"type": "unocc",
				"energy": -0.02402,
				"method": "rhf"
			},
			{
				"type": "unocc",
				"energy": -0.01374,
				"method": "rhf"
			},
			{
				"type": "unocc",
				"energy": -0.00461,
				"method": "rhf"
			},
			{
				"type": "unocc",
				"energy": 0.0262,
				"method": "rhf"
			}
		],
		"cosmo_sigma_profile": { 
			"-0.025": 0.0,
			"-0.024": 0.0,
			"-0.023": 0.0,
			"-0.022": 0.0,
			"-0.021": 0.0,
			"-0.02": 0.0,
			"-0.019": 0.0,
			"-0.018": 0.0,
			"-0.017": 0.0,
			"-0.016": 0.886776264282,
			"-0.015": 1.29091134669,
			"-0.014": 1.79647179477,
			"-0.013": 1.42420026288,
			"-0.012": 1.38500882956,
			"-0.011": 1.45558744914,
			"-0.01": 1.92809093821,
			"-0.009": 2.16288141621,
			"-0.008": 3.36397004099,
			"-0.007": 7.89505414147,
			"-0.006": 21.4040066789,
			"-0.005": 25.3137629627,
			"-0.004": 27.9994423158,
			"-0.003": 25.2573819801,
			"-0.002": 19.5573415101,
			"-0.001": 16.071962343,
			"0.0": 17.7818393124,
			"0.001": 18.7933373408,
			"0.002": 19.7317075309,
			"0.003": 25.082776481,
			"0.004": 20.2993495149,
			"0.005": 14.5553573685,
			"0.006": 6.11759737367,
			"0.007": 5.57372197217,
			"0.008": 5.61927180771,
			"0.009": 5.48871795128,
			"0.01": 5.51952018181,
			"0.011": 7.0600935054,
			"0.012": 7.64859328855,
			"0.013": 3.00784718391,
			"0.014": 0.300005093197,
			"0.015": 0.0,
			"0.016": 0.0,
			"0.017": 0.0,
			"0.018": 0.0,
			"0.019": 0.0,
			"0.02": 0.0,
			"0.021": 0.0,
			"0.022": 0.0,
			"0.023": 0.0,
			"0.024": 0.0,
			"0.025": 0.0
		}
	}
}
