{
	 "smiles": "FC(Cl)C(F)(F)Cl", 
	 "Tm": 195.15, 
	 "num_atms": 8, 
	 "gaussian": { 
		 "optdone": 1, 
		 "sigma_profile": "yes", 
		 "theory": "DFT", 
		 "functional": "B3LYP", 
		 "basiset": "6-31G**", 
		 "properties": { 
			 "R2extent": 1467.9076, 
			 "electric_dipole_moment_norm": 1.28671058129, 
			 "electric_quadrupole_moment_norm": 0.559412870785, 
			 "total_energy": -1296.69578955, 
			 "HOMO_LUMO_gap": 0.31747, 
			 "cosmo_polarized_energy": -3.47, 
			 "cosmo_cavitation_energy": 17.03, 
			 "cosmo_dispersion_energy": -12.47, 
			 "cosmo_repulsion_energy": 1.01, 
			 "cosmo_total_nonelectrostatic_energy": 5.57, 
			 "SMD_solvation_energy": 3.56 
		},
		"coords": [
			{
				"x": -0.7131461294,
				"y": 1.038562024,
				"z": -1.1237697006,
				"element": "F" 
			},
			{
				"x": 0.2092767473,
				"y": 0.254394513,
				"z": -0.5061548075,
				"element": "C" 
			},
			{
				"x": 1.6006393246,
				"y": 1.2520738049,
				"z": 0.0007952674,
				"element": "Cl" 
			},
			{
				"x": 0.6170826948,
				"y": -0.8388005667,
				"z": -1.516390839,
				"element": "C" 
			},
			{
				"x": -0.5124427202,
				"y": -1.4437270522,
				"z": -1.9296656839,
				"element": "F" 
			},
			{
				"x": 1.2243433422,
				"y": -0.3051904207,
				"z": -2.582214573,
				"element": "F" 
			},
			{
				"x": 1.6831841553,
				"y": -2.0675634334,
				"z": -0.7650512455,
				"element": "Cl" 
			},
			{
				"x": -0.2253374147,
				"y": -0.2021488689,
				"z": 0.3850515821,
				"element": "H" 
			}
		],
		 "valence_orbital": [ 
			{
				"type": "occ",
				"energy": -0.38514,
				"method": "rhf"
			},
			{
				"type": "occ",
				"energy": -0.35537,
				"method": "rhf"
			},
			{
				"type": "occ",
				"energy": -0.34829,
				"method": "rhf"
			},
			{
				"type": "occ",
				"energy": -0.33375,
				"method": "rhf"
			},
			{
				"type": "occ",
				"energy": -0.331,
				"method": "rhf"
			},
			{
				"type": "unocc",
				"energy": -0.01353,
				"method": "rhf"
			},
			{
				"type": "unocc",
				"energy": -0.00335,
				"method": "rhf"
			},
			{
				"type": "unocc",
				"energy": 0.07602,
				"method": "rhf"
			},
			{
				"type": "unocc",
				"energy": 0.09153,
				"method": "rhf"
			},
			{
				"type": "unocc",
				"energy": 0.13978,
				"method": "rhf"
			}
		],
		"cosmo_sigma_profile": { 
			"-0.025": 0.0,
			"-0.024": 0.0,
			"-0.023": 0.0,
			"-0.022": 0.0,
			"-0.021": 0.0,
			"-0.02": 0.0,
			"-0.019": 0.0,
			"-0.018": 0.0,
			"-0.017": 0.0,
			"-0.016": 0.0,
			"-0.015": 0.0,
			"-0.014": 0.0,
			"-0.013": 0.322444507885,
			"-0.012": 2.79104993592,
			"-0.011": 2.55890205984,
			"-0.01": 1.59872596819,
			"-0.009": 1.2805294614,
			"-0.008": 0.815302035269,
			"-0.007": 1.25121564623,
			"-0.006": 1.42879028169,
			"-0.005": 1.17023422998,
			"-0.004": 3.63858710581,
			"-0.003": 4.8953846505,
			"-0.002": 6.57108251562,
			"-0.001": 9.60541203654,
			"0.0": 14.9842024881,
			"0.001": 27.9884664595,
			"0.002": 35.9035450771,
			"0.003": 22.1580927593,
			"0.004": 1.94309523022,
			"0.005": 0.0,
			"0.006": 0.0,
			"0.007": 0.0,
			"0.008": 0.0,
			"0.009": 0.0,
			"0.01": 0.0,
			"0.011": 0.0,
			"0.012": 0.0,
			"0.013": 0.0,
			"0.014": 0.0,
			"0.015": 0.0,
			"0.016": 0.0,
			"0.017": 0.0,
			"0.018": 0.0,
			"0.019": 0.0,
			"0.02": 0.0,
			"0.021": 0.0,
			"0.022": 0.0,
			"0.023": 0.0,
			"0.024": 0.0,
			"0.025": 0.0
		}
	}
}
