{
	 "smiles": "BrC1=CC(Br)=CC(Br)=C1", 
	 "Tm": 396.15, 
	 "num_atms": 12, 
	 "gaussian": { 
		 "optdone": 1, 
		 "sigma_profile": "yes", 
		 "theory": "DFT", 
		 "functional": "B3LYP", 
		 "basiset": "6-31G**", 
		 "properties": { 
			 "R2extent": 8258.8015, 
			 "electric_dipole_moment_norm": 0.000141421356237, 
			 "electric_quadrupole_moment_norm": 2.31716306289, 
			 "total_energy": -7944.65495747, 
			 "HOMO_LUMO_gap": 0.21893, 
			 "cosmo_polarized_energy": -3.34, 
			 "cosmo_cavitation_energy": 23.67, 
			 "cosmo_dispersion_energy": -18.74, 
			 "cosmo_repulsion_energy": 1.54, 
			 "cosmo_total_nonelectrostatic_energy": 6.46, 
			 "SMD_solvation_energy": 0.62 
		},
		"coords": [
			{
				"x": -3.2822976079,
				"y": -4.5250641926,
				"z": 1.2270192495,
				"element": "Br" 
			},
			{
				"x": -1.8264631657,
				"y": -3.3315004185,
				"z": 0.9259577383,
				"element": "C" 
			},
			{
				"x": -0.5872917975,
				"y": -3.6189096057,
				"z": 1.4959755124,
				"element": "C" 
			},
			{
				"x": 0.4630416574,
				"y": -2.732687941,
				"z": 1.2625585317,
				"element": "C" 
			},
			{
				"x": 2.1698865604,
				"y": -3.0988184382,
				"z": 2.0289398417,
				"element": "Br" 
			},
			{
				"x": 0.3023074165,
				"y": -1.5866985055,
				"z": 0.4854264006,
				"element": "C" 
			},
			{
				"x": -0.9541719321,
				"y": -1.3387614123,
				"z": -0.0649021307,
				"element": "C" 
			},
			{
				"x": -1.205092274,
				"y": 0.2207327679,
				"z": -1.1324164451,
				"element": "Br" 
			},
			{
				"x": -2.0326151948,
				"y": -2.1973196381,
				"z": 0.1422393611,
				"element": "C" 
			},
			{
				"x": -0.4449084591,
				"y": -4.5038629707,
				"z": 2.1017801535,
				"element": "H" 
			},
			{
				"x": 1.1285117332,
				"y": -0.9095276086,
				"z": 0.3144498501,
				"element": "H" 
			},
			{
				"x": -3.0012069362,
				"y": -1.9894820366,
				"z": -0.2925280632,
				"element": "H" 
			}
		],
		 "valence_orbital": [ 
			{
				"type": "occ",
				"energy": -0.30554,
				"method": "rhf"
			},
			{
				"type": "occ",
				"energy": -0.29757,
				"method": "rhf"
			},
			{
				"type": "occ",
				"energy": -0.29499,
				"method": "rhf"
			},
			{
				"type": "occ",
				"energy": -0.25965,
				"method": "rhf"
			},
			{
				"type": "occ",
				"energy": -0.25965,
				"method": "rhf"
			},
			{
				"type": "unocc",
				"energy": -0.04072,
				"method": "rhf"
			},
			{
				"type": "unocc",
				"energy": -0.03944,
				"method": "rhf"
			},
			{
				"type": "unocc",
				"energy": -0.03944,
				"method": "rhf"
			},
			{
				"type": "unocc",
				"energy": 0.01469,
				"method": "rhf"
			},
			{
				"type": "unocc",
				"energy": 0.0147,
				"method": "rhf"
			}
		],
		"cosmo_sigma_profile": { 
			"-0.025": 0.0,
			"-0.024": 0.0,
			"-0.023": 0.0,
			"-0.022": 0.0,
			"-0.021": 0.0,
			"-0.02": 0.0,
			"-0.019": 0.0,
			"-0.018": 0.0,
			"-0.017": 0.0,
			"-0.016": 0.0,
			"-0.015": 0.0,
			"-0.014": 0.0,
			"-0.013": 0.0,
			"-0.012": 0.0,
			"-0.011": 0.0,
			"-0.01": 0.0,
			"-0.009": 0.896181874964,
			"-0.008": 4.36375044465,
			"-0.007": 3.30286252151,
			"-0.006": 5.53683086522,
			"-0.005": 7.88587827823,
			"-0.004": 10.8266652329,
			"-0.003": 9.17716628145,
			"-0.002": 12.4287004171,
			"-0.001": 16.478050282,
			"0.0": 32.5970604429,
			"0.001": 27.551450721,
			"0.002": 17.494253573,
			"0.003": 26.5153531417,
			"0.004": 25.2998745736,
			"0.005": 0.596523768689,
			"0.006": 0.0,
			"0.007": 0.0,
			"0.008": 0.0,
			"0.009": 0.0,
			"0.01": 0.0,
			"0.011": 0.0,
			"0.012": 0.0,
			"0.013": 0.0,
			"0.014": 0.0,
			"0.015": 0.0,
			"0.016": 0.0,
			"0.017": 0.0,
			"0.018": 0.0,
			"0.019": 0.0,
			"0.02": 0.0,
			"0.021": 0.0,
			"0.022": 0.0,
			"0.023": 0.0,
			"0.024": 0.0,
			"0.025": 0.0
		}
	}
}
