{
	 "smiles": "NC(CC(=O)NC1=CC=CC=C1)=NO", 
	 "Tm": 430.15, 
	 "num_atms": 25, 
	 "gaussian": { 
		 "optdone": 1, 
		 "sigma_profile": "yes", 
		 "theory": "DFT", 
		 "functional": "B3LYP", 
		 "basiset": "6-31G**", 
		 "properties": { 
			 "R2extent": 3372.0333, 
			 "electric_dipole_moment_norm": 2.6321740121, 
			 "electric_quadrupole_moment_norm": 7.39502135967, 
			 "total_energy": -664.258358296, 
			 "HOMO_LUMO_gap": 0.1873, 
			 "cosmo_polarized_energy": -14.75, 
			 "cosmo_cavitation_energy": 29.03, 
			 "cosmo_dispersion_energy": -21.22, 
			 "cosmo_repulsion_energy": 1.7, 
			 "cosmo_total_nonelectrostatic_energy": 9.5, 
			 "SMD_solvation_energy": 5.53 
		},
		"coords": [
			{
				"x": 0.6571281553,
				"y": 3.5755315389,
				"z": -0.4718668438,
				"element": "N" 
			},
			{
				"x": -0.0059705005,
				"y": 2.4345587719,
				"z": -0.8357586433,
				"element": "C" 
			},
			{
				"x": -0.83767532,
				"y": 1.7567345051,
				"z": 0.2288655006,
				"element": "C" 
			},
			{
				"x": 0.0431229113,
				"y": 1.3034255369,
				"z": 1.3896595349,
				"element": "C" 
			},
			{
				"x": 0.6217726596,
				"y": 2.1330152861,
				"z": 2.0901226821,
				"element": "O" 
			},
			{
				"x": 0.1664511942,
				"y": -0.0341069635,
				"z": 1.6687665855,
				"element": "N" 
			},
			{
				"x": -0.2940662953,
				"y": -1.1930992193,
				"z": 0.9892863527,
				"element": "C" 
			},
			{
				"x": -0.7485376149,
				"y": -2.2705814901,
				"z": 1.7632794892,
				"element": "C" 
			},
			{
				"x": -1.1653960633,
				"y": -3.449558954,
				"z": 1.1491613858,
				"element": "C" 
			},
			{
				"x": -1.1489672678,
				"y": -3.5612190023,
				"z": -0.2427423422,
				"element": "C" 
			},
			{
				"x": -0.6943210431,
				"y": -2.4890292371,
				"z": -1.0113667994,
				"element": "C" 
			},
			{
				"x": -0.2492695335,
				"y": -1.3121670623,
				"z": -0.4070793479,
				"element": "C" 
			},
			{
				"x": -0.0156051409,
				"y": 1.900981352,
				"z": -2.0127619282,
				"element": "N" 
			},
			{
				"x": 0.8311319198,
				"y": 2.663392822,
				"z": -2.8762948935,
				"element": "O" 
			},
			{
				"x": 1.37117898,
				"y": 3.8765906379,
				"z": -1.1202499303,
				"element": "H" 
			},
			{
				"x": 0.8807231204,
				"y": 3.6352546383,
				"z": 0.5153337989,
				"element": "H" 
			},
			{
				"x": -1.4149025289,
				"y": 0.9525764982,
				"z": -0.2221202335,
				"element": "H" 
			},
			{
				"x": -1.528971162,
				"y": 2.4924684216,
				"z": 0.6558547318,
				"element": "H" 
			},
			{
				"x": 0.6859304845,
				"y": -0.1882989747,
				"z": 2.5254602876,
				"element": "H" 
			},
			{
				"x": -0.7806078292,
				"y": -2.1741532808,
				"z": 2.8452607268,
				"element": "H" 
			},
			{
				"x": -1.5132276226,
				"y": -4.2771584301,
				"z": 1.7604629097,
				"element": "H" 
			},
			{
				"x": -1.4818978431,
				"y": -4.4766905867,
				"z": -0.7221091371,
				"element": "H" 
			},
			{
				"x": -0.6648023585,
				"y": -2.5689900562,
				"z": -2.0940819874,
				"element": "H" 
			},
			{
				"x": 0.1304832753,
				"y": -0.4998607628,
				"z": -1.0185237239,
				"element": "H" 
			},
			{
				"x": 0.736695423,
				"y": 2.1922840111,
				"z": -3.712458175,
				"element": "H" 
			}
		],
		 "valence_orbital": [ 
			{
				"type": "occ",
				"energy": -0.27221,
				"method": "rhf"
			},
			{
				"type": "occ",
				"energy": -0.26609,
				"method": "rhf"
			},
			{
				"type": "occ",
				"energy": -0.26003,
				"method": "rhf"
			},
			{
				"type": "occ",
				"energy": -0.23423,
				"method": "rhf"
			},
			{
				"type": "occ",
				"energy": -0.20861,
				"method": "rhf"
			},
			{
				"type": "unocc",
				"energy": -0.02131,
				"method": "rhf"
			},
			{
				"type": "unocc",
				"energy": -0.01179,
				"method": "rhf"
			},
			{
				"type": "unocc",
				"energy": 0.01852,
				"method": "rhf"
			},
			{
				"type": "unocc",
				"energy": 0.04818,
				"method": "rhf"
			},
			{
				"type": "unocc",
				"energy": 0.0785,
				"method": "rhf"
			}
		],
		"cosmo_sigma_profile": { 
			"-0.025": 0.0,
			"-0.024": 0.0,
			"-0.023": 0.0,
			"-0.022": 0.0,
			"-0.021": 0.0,
			"-0.02": 0.0,
			"-0.019": 0.0,
			"-0.018": 0.0,
			"-0.017": 0.234273047981,
			"-0.016": 0.721835872587,
			"-0.015": 1.25967787794,
			"-0.014": 2.05150572566,
			"-0.013": 2.13625746462,
			"-0.012": 1.35135454601,
			"-0.011": 1.79732963774,
			"-0.01": 3.1164995227,
			"-0.009": 4.61426733748,
			"-0.008": 3.71274564531,
			"-0.007": 5.95008204716,
			"-0.006": 11.1456645576,
			"-0.005": 13.5546182099,
			"-0.004": 17.8454342243,
			"-0.003": 14.4310274375,
			"-0.002": 14.695455649,
			"-0.001": 13.1565642841,
			"0.0": 14.281292941,
			"0.001": 12.7764838225,
			"0.002": 12.5085791229,
			"0.003": 12.2961891859,
			"0.004": 12.5898419826,
			"0.005": 14.2977872116,
			"0.006": 7.61073608165,
			"0.007": 5.16322379134,
			"0.008": 5.53864330085,
			"0.009": 4.75671266815,
			"0.01": 4.81281299842,
			"0.011": 4.00325787232,
			"0.012": 3.76678437923,
			"0.013": 3.48781204063,
			"0.014": 0.805803409148,
			"0.015": 0.0522752882863,
			"0.016": 0.0,
			"0.017": 0.0,
			"0.018": 0.0,
			"0.019": 0.0,
			"0.02": 0.0,
			"0.021": 0.0,
			"0.022": 0.0,
			"0.023": 0.0,
			"0.024": 0.0,
			"0.025": 0.0
		}
	}
}
