{
	 "smiles": "CS(=O)(=O)CCS(=O)(=O)C1=CC=C(N)C=C1", 
	 "Tm": 483.15, 
	 "num_atms": 29, 
	 "gaussian": { 
		 "optdone": 1, 
		 "sigma_profile": "yes", 
		 "theory": "DFT", 
		 "functional": "B3LYP", 
		 "basiset": "6-31G**", 
		 "properties": { 
			 "R2extent": 5571.0005, 
			 "electric_dipole_moment_norm": 4.90964712989, 
			 "electric_quadrupole_moment_norm": 33.4150066726, 
			 "total_energy": -1502.69643103, 
			 "HOMO_LUMO_gap": 0.1998, 
			 "cosmo_polarized_energy": -26.11, 
			 "cosmo_cavitation_energy": 34.31, 
			 "cosmo_dispersion_energy": -25.72, 
			 "cosmo_repulsion_energy": 1.9, 
			 "cosmo_total_nonelectrostatic_energy": 10.49, 
			 "SMD_solvation_energy": 5.01 
		},
		"coords": [
			{
				"x": 0.152018106,
				"y": 3.7641794348,
				"z": 0.2515043323,
				"element": "C" 
			},
			{
				"x": 1.3801397172,
				"y": 2.4489235963,
				"z": 0.1667133074,
				"element": "S" 
			},
			{
				"x": 0.9664107313,
				"y": 1.3710378546,
				"z": 1.0886989591,
				"element": "O" 
			},
			{
				"x": 2.7118655636,
				"y": 3.0617277988,
				"z": 0.3029965709,
				"element": "O" 
			},
			{
				"x": 1.2894242181,
				"y": 1.7875007324,
				"z": -1.5586530225,
				"element": "C" 
			},
			{
				"x": 0.6842060945,
				"y": 0.3904486086,
				"z": -1.6332807658,
				"element": "C" 
			},
			{
				"x": -1.1424056282,
				"y": 0.417188783,
				"z": -1.8415964698,
				"element": "S" 
			},
			{
				"x": -1.6222579744,
				"y": 1.6547859965,
				"z": -1.191726957,
				"element": "O" 
			},
			{
				"x": -1.4382049742,
				"y": 0.1811852641,
				"z": -3.2653182313,
				"element": "O" 
			},
			{
				"x": -1.7115773401,
				"y": -0.9851052314,
				"z": -0.9039574179,
				"element": "C" 
			},
			{
				"x": -2.2823714026,
				"y": -2.0700102451,
				"z": -1.5741972762,
				"element": "C" 
			},
			{
				"x": -2.7508106351,
				"y": -3.1571427587,
				"z": -0.8482087075,
				"element": "C" 
			},
			{
				"x": -2.6522128211,
				"y": -3.1762715244,
				"z": 0.5575484182,
				"element": "C" 
			},
			{
				"x": -3.1574745052,
				"y": -4.2363505378,
				"z": 1.2847949891,
				"element": "N" 
			},
			{
				"x": -2.0703490291,
				"y": -2.0707141814,
				"z": 1.2146778258,
				"element": "C" 
			},
			{
				"x": -1.6089392445,
				"y": -0.97998163,
				"z": 0.4935983493,
				"element": "C" 
			},
			{
				"x": 0.1805737615,
				"y": 4.1264391555,
				"z": 1.2808915123,
				"element": "H" 
			},
			{
				"x": -0.8218613362,
				"y": 3.3481320396,
				"z": -0.0027358872,
				"element": "H" 
			},
			{
				"x": 0.4451454823,
				"y": 4.5596855492,
				"z": -0.4355111828,
				"element": "H" 
			},
			{
				"x": 2.3394699528,
				"y": 1.7602439608,
				"z": -1.8601827156,
				"element": "H" 
			},
			{
				"x": 0.765949951,
				"y": 2.52045097,
				"z": -2.177210488,
				"element": "H" 
			},
			{
				"x": 0.9023080991,
				"y": -0.1662430063,
				"z": -0.7195582619,
				"element": "H" 
			},
			{
				"x": 1.065389678,
				"y": -0.1590509461,
				"z": -2.497063312,
				"element": "H" 
			},
			{
				"x": -2.3585568895,
				"y": -2.048226562,
				"z": -2.6559849661,
				"element": "H" 
			},
			{
				"x": -3.2023603634,
				"y": -3.9995739524,
				"z": -1.3652622099,
				"element": "H" 
			},
			{
				"x": -2.8260308194,
				"y": -4.3481246157,
				"z": 2.2311230662,
				"element": "H" 
			},
			{
				"x": -3.3027973196,
				"y": -5.1064692776,
				"z": 0.7952916954,
				"element": "H" 
			},
			{
				"x": -1.9920203689,
				"y": -2.0731140897,
				"z": 2.2985093168,
				"element": "H" 
			},
			{
				"x": -1.1578707038,
				"y": -0.1367511858,
				"z": 1.0082995287,
				"element": "H" 
			}
		],
		 "valence_orbital": [ 
			{
				"type": "occ",
				"energy": -0.29392,
				"method": "rhf"
			},
			{
				"type": "occ",
				"energy": -0.28817,
				"method": "rhf"
			},
			{
				"type": "occ",
				"energy": -0.28616,
				"method": "rhf"
			},
			{
				"type": "occ",
				"energy": -0.26924,
				"method": "rhf"
			},
			{
				"type": "occ",
				"energy": -0.22599,
				"method": "rhf"
			},
			{
				"type": "unocc",
				"energy": -0.02619,
				"method": "rhf"
			},
			{
				"type": "unocc",
				"energy": -0.01769,
				"method": "rhf"
			},
			{
				"type": "unocc",
				"energy": 0.04629,
				"method": "rhf"
			},
			{
				"type": "unocc",
				"energy": 0.05487,
				"method": "rhf"
			},
			{
				"type": "unocc",
				"energy": 0.05957,
				"method": "rhf"
			}
		],
		"cosmo_sigma_profile": { 
			"-0.025": 0.0,
			"-0.024": 0.0,
			"-0.023": 0.0,
			"-0.022": 0.0,
			"-0.021": 0.0,
			"-0.02": 0.0,
			"-0.019": 0.0,
			"-0.018": 0.0,
			"-0.017": 0.0,
			"-0.016": 0.0,
			"-0.015": 0.0,
			"-0.014": 0.561947036754,
			"-0.013": 2.74831170247,
			"-0.012": 3.11857335055,
			"-0.011": 4.10689756645,
			"-0.01": 4.86118783696,
			"-0.009": 11.0633744457,
			"-0.008": 14.6431321469,
			"-0.007": 13.6375396799,
			"-0.006": 17.1796623625,
			"-0.005": 16.2023062837,
			"-0.004": 14.6917138307,
			"-0.003": 13.3661853958,
			"-0.002": 10.4654619276,
			"-0.001": 9.17247879789,
			"0.0": 10.4916982627,
			"0.001": 11.3305431673,
			"0.002": 13.6812997835,
			"0.003": 15.7040906394,
			"0.004": 17.5712445172,
			"0.005": 6.66742066298,
			"0.006": 4.88932863707,
			"0.007": 4.71985339745,
			"0.008": 5.25758010964,
			"0.009": 7.49527724819,
			"0.01": 8.39040779956,
			"0.011": 13.3088601383,
			"0.012": 14.803672813,
			"0.013": 2.21048324273,
			"0.014": 0.0,
			"0.015": 0.0,
			"0.016": 0.0,
			"0.017": 0.0,
			"0.018": 0.0,
			"0.019": 0.0,
			"0.02": 0.0,
			"0.021": 0.0,
			"0.022": 0.0,
			"0.023": 0.0,
			"0.024": 0.0,
			"0.025": 0.0
		}
	}
}
