{
	 "smiles": "CC1=C(O)C(C(O)=O)=C(CO)C=N1", 
	 "Tm": 521.15, 
	 "num_atms": 22, 
	 "gaussian": { 
		 "optdone": 1, 
		 "sigma_profile": "yes", 
		 "theory": "DFT", 
		 "functional": "B3LYP", 
		 "basiset": "6-31G**", 
		 "properties": { 
			 "R2extent": 2596.6115, 
			 "electric_dipole_moment_norm": 6.18556335753, 
			 "electric_quadrupole_moment_norm": 11.2585720915, 
			 "total_energy": -665.923572891, 
			 "HOMO_LUMO_gap": 0.17806, 
			 "cosmo_polarized_energy": -18.82, 
			 "cosmo_cavitation_energy": 25.29, 
			 "cosmo_dispersion_energy": -19.4, 
			 "cosmo_repulsion_energy": 1.52, 
			 "cosmo_total_nonelectrostatic_energy": 7.4, 
			 "SMD_solvation_energy": 4.07 
		},
		"coords": [
			{
				"x": -2.3055752795,
				"y": 2.5959329829,
				"z": 2.1757550941,
				"element": "C" 
			},
			{
				"x": -1.314051529,
				"y": 2.1493680936,
				"z": 1.1282075257,
				"element": "C" 
			},
			{
				"x": -1.33123345,
				"y": 0.8359238891,
				"z": 0.6281160486,
				"element": "C" 
			},
			{
				"x": -2.268070068,
				"y": -0.063582998,
				"z": 1.0869610088,
				"element": "O" 
			},
			{
				"x": -0.400510032,
				"y": 0.4126001324,
				"z": -0.3375533219,
				"element": "C" 
			},
			{
				"x": -0.3851370511,
				"y": -0.9956700698,
				"z": -0.8868157721,
				"element": "C" 
			},
			{
				"x": -1.4670000434,
				"y": -1.7619307365,
				"z": -0.6972131018,
				"element": "O" 
			},
			{
				"x": 0.5578927418,
				"y": -1.4477246439,
				"z": -1.5104275294,
				"element": "O" 
			},
			{
				"x": 0.5379196576,
				"y": 1.3725779843,
				"z": -0.7878992547,
				"element": "C" 
			},
			{
				"x": 1.6104733168,
				"y": 1.1098311762,
				"z": -1.8379326497,
				"element": "C" 
			},
			{
				"x": 2.6600163505,
				"y": 0.2862441259,
				"z": -1.3770648128,
				"element": "O" 
			},
			{
				"x": 0.4623468314,
				"y": 2.6531810901,
				"z": -0.2328373539,
				"element": "C" 
			},
			{
				"x": -0.4222922005,
				"y": 3.0389745904,
				"z": 0.6916719424,
				"element": "N" 
			},
			{
				"x": -2.2264717631,
				"y": 2.0060478996,
				"z": 3.0985504513,
				"element": "H" 
			},
			{
				"x": -3.3440361558,
				"y": 2.5350300165,
				"z": 1.8204088104,
				"element": "H" 
			},
			{
				"x": -2.1025494966,
				"y": 3.6381104806,
				"z": 2.4239810231,
				"element": "H" 
			},
			{
				"x": -2.9003613948,
				"y": 0.3756594026,
				"z": 1.6701620989,
				"element": "H" 
			},
			{
				"x": -2.1043146226,
				"y": -1.3209110911,
				"z": -0.1052979293,
				"element": "H" 
			},
			{
				"x": 1.141030729,
				"y": 0.7015144291,
				"z": -2.7436678849,
				"element": "H" 
			},
			{
				"x": 2.0595248435,
				"y": 2.0717785139,
				"z": -2.1051442101,
				"element": "H" 
			},
			{
				"x": 2.2733364971,
				"y": -0.6046767414,
				"z": -1.3539536328,
				"element": "H" 
			},
			{
				"x": 1.1683621186,
				"y": 3.4140214736,
				"z": -0.5587065498,
				"element": "H" 
			}
		],
		 "valence_orbital": [ 
			{
				"type": "occ",
				"energy": -0.2952,
				"method": "rhf"
			},
			{
				"type": "occ",
				"energy": -0.28854,
				"method": "rhf"
			},
			{
				"type": "occ",
				"energy": -0.28008,
				"method": "rhf"
			},
			{
				"type": "occ",
				"energy": -0.25882,
				"method": "rhf"
			},
			{
				"type": "occ",
				"energy": -0.25073,
				"method": "rhf"
			},
			{
				"type": "unocc",
				"energy": -0.07267,
				"method": "rhf"
			},
			{
				"type": "unocc",
				"energy": -0.02379,
				"method": "rhf"
			},
			{
				"type": "unocc",
				"energy": 0.02801,
				"method": "rhf"
			},
			{
				"type": "unocc",
				"energy": 0.0328,
				"method": "rhf"
			},
			{
				"type": "unocc",
				"energy": 0.104,
				"method": "rhf"
			}
		],
		"cosmo_sigma_profile": { 
			"-0.025": 0.0,
			"-0.024": 0.0,
			"-0.023": 0.0,
			"-0.022": 0.0,
			"-0.021": 0.0,
			"-0.02": 0.0,
			"-0.019": 0.3002051278,
			"-0.018": 0.71979066746,
			"-0.017": 0.953039221047,
			"-0.016": 0.601363237518,
			"-0.015": 0.858852910226,
			"-0.014": 1.46373120348,
			"-0.013": 1.30323803697,
			"-0.012": 1.29639221034,
			"-0.011": 1.39074970127,
			"-0.01": 1.68012681435,
			"-0.009": 3.44821763519,
			"-0.008": 3.000230833,
			"-0.007": 5.95495194253,
			"-0.006": 8.4965693781,
			"-0.005": 12.6636549153,
			"-0.004": 15.5769224049,
			"-0.003": 16.3440230563,
			"-0.002": 18.4376626666,
			"-0.001": 16.656522555,
			"0.0": 12.441778763,
			"0.001": 9.35317846058,
			"0.002": 8.14330357879,
			"0.003": 6.53272245302,
			"0.004": 5.03858525973,
			"0.005": 6.24282456176,
			"0.006": 4.77783830667,
			"0.007": 4.62501861132,
			"0.008": 4.8218210747,
			"0.009": 5.40157961545,
			"0.01": 5.12218064993,
			"0.011": 5.44090314484,
			"0.012": 4.31837849103,
			"0.013": 2.67897860554,
			"0.014": 2.9051165291,
			"0.015": 1.98888811022,
			"0.016": 0.0,
			"0.017": 0.0,
			"0.018": 0.0,
			"0.019": 0.0,
			"0.02": 0.0,
			"0.021": 0.0,
			"0.022": 0.0,
			"0.023": 0.0,
			"0.024": 0.0,
			"0.025": 0.0
		}
	}
}
