{
	 "smiles": "COC(=O)C1=CC2=C(NC(=O)CN2)C=C1", 
	 "Tm": 526.15, 
	 "num_atms": 25, 
	 "gaussian": { 
		 "optdone": 1, 
		 "sigma_profile": "yes", 
		 "theory": "DFT", 
		 "functional": "B3LYP", 
		 "basiset": "6-31G**", 
		 "properties": { 
			 "R2extent": 4264.2159, 
			 "electric_dipole_moment_norm": 1.89369371071, 
			 "electric_quadrupole_moment_norm": 13.815319967, 
			 "total_energy": -722.296064956, 
			 "HOMO_LUMO_gap": 0.16229, 
			 "cosmo_polarized_energy": -17.29, 
			 "cosmo_cavitation_energy": 29.47, 
			 "cosmo_dispersion_energy": -22.02, 
			 "cosmo_repulsion_energy": 1.71, 
			 "cosmo_total_nonelectrostatic_energy": 9.16, 
			 "SMD_solvation_energy": 6.0 
		},
		"coords": [
			{
				"x": -3.9898279218,
				"y": 2.6355616155,
				"z": 2.1342573409,
				"element": "C" 
			},
			{
				"x": -3.0552189307,
				"y": 2.0539422251,
				"z": 1.2141891838,
				"element": "O" 
			},
			{
				"x": -2.3671180841,
				"y": 0.9884400941,
				"z": 1.6894981211,
				"element": "C" 
			},
			{
				"x": -2.5236555047,
				"y": 0.5499749858,
				"z": 2.8141738171,
				"element": "O" 
			},
			{
				"x": -1.4174070279,
				"y": 0.4316175691,
				"z": 0.6911356792,
				"element": "C" 
			},
			{
				"x": -0.6533027141,
				"y": -0.6780965614,
				"z": 1.0790312798,
				"element": "C" 
			},
			{
				"x": 0.2559013239,
				"y": -1.260644681,
				"z": 0.1992449878,
				"element": "C" 
			},
			{
				"x": 0.4033634169,
				"y": -0.7052019623,
				"z": -1.0922382491,
				"element": "C" 
			},
			{
				"x": 1.2995376573,
				"y": -1.3278276457,
				"z": -1.9725449495,
				"element": "N" 
			},
			{
				"x": 2.2531368653,
				"y": -2.2523661305,
				"z": -1.6105228394,
				"element": "C" 
			},
			{
				"x": 3.0308679039,
				"y": -2.739390482,
				"z": -2.4124712438,
				"element": "O" 
			},
			{
				"x": 2.298991497,
				"y": -2.5614318969,
				"z": -0.1168997029,
				"element": "C" 
			},
			{
				"x": 0.9845415744,
				"y": -2.4124734973,
				"z": 0.4950541767,
				"element": "N" 
			},
			{
				"x": -0.349159566,
				"y": 0.4063722092,
				"z": -1.4736188939,
				"element": "C" 
			},
			{
				"x": -1.2627108903,
				"y": 0.9761588843,
				"z": -0.5898519042,
				"element": "C" 
			},
			{
				"x": -4.746204148,
				"y": 1.9042514717,
				"z": 2.4305941055,
				"element": "H" 
			},
			{
				"x": -3.4776192421,
				"y": 2.992222798,
				"z": 3.031599962,
				"element": "H" 
			},
			{
				"x": -4.4501091246,
				"y": 3.4671214491,
				"z": 1.6004051462,
				"element": "H" 
			},
			{
				"x": -0.7935904315,
				"y": -1.0809338812,
				"z": 2.0774248203,
				"element": "H" 
			},
			{
				"x": 1.3122152657,
				"y": -1.0537388443,
				"z": -2.9469151001,
				"element": "H" 
			},
			{
				"x": 3.0686219518,
				"y": -1.9032088412,
				"z": 0.3267838561,
				"element": "H" 
			},
			{
				"x": 2.6445763611,
				"y": -3.5915035224,
				"z": -0.0114334874,
				"element": "H" 
			},
			{
				"x": 0.9423379109,
				"y": -2.6952606989,
				"z": 1.4652208044,
				"element": "H" 
			},
			{
				"x": -0.2183830162,
				"y": 0.8205725563,
				"z": -2.469868016,
				"element": "H" 
			},
			{
				"x": -1.8491851262,
				"y": 1.8365427869,
				"z": -0.8868488946,
				"element": "H" 
			}
		],
		 "valence_orbital": [ 
			{
				"type": "occ",
				"energy": -0.29925,
				"method": "rhf"
			},
			{
				"type": "occ",
				"energy": -0.27169,
				"method": "rhf"
			},
			{
				"type": "occ",
				"energy": -0.26662,
				"method": "rhf"
			},
			{
				"type": "occ",
				"energy": -0.24119,
				"method": "rhf"
			},
			{
				"type": "occ",
				"energy": -0.20709,
				"method": "rhf"
			},
			{
				"type": "unocc",
				"energy": -0.0448,
				"method": "rhf"
			},
			{
				"type": "unocc",
				"energy": -0.00387,
				"method": "rhf"
			},
			{
				"type": "unocc",
				"energy": 0.01287,
				"method": "rhf"
			},
			{
				"type": "unocc",
				"energy": 0.06872,
				"method": "rhf"
			},
			{
				"type": "unocc",
				"energy": 0.07326,
				"method": "rhf"
			}
		],
		"cosmo_sigma_profile": { 
			"-0.025": 0.0,
			"-0.024": 0.0,
			"-0.023": 0.0,
			"-0.022": 0.0,
			"-0.021": 0.0,
			"-0.02": 0.0,
			"-0.019": 0.0,
			"-0.018": 0.0,
			"-0.017": 0.0,
			"-0.016": 0.279234982505,
			"-0.015": 0.879596824767,
			"-0.014": 1.98915806746,
			"-0.013": 2.57117869134,
			"-0.012": 3.05926366392,
			"-0.011": 2.34631422937,
			"-0.01": 2.72171874584,
			"-0.009": 2.82864259158,
			"-0.008": 2.71773328446,
			"-0.007": 6.80868696289,
			"-0.006": 13.9211697744,
			"-0.005": 17.550762368,
			"-0.004": 16.6431610469,
			"-0.003": 16.4753241728,
			"-0.002": 13.0932826185,
			"-0.001": 12.0393338877,
			"0.0": 11.975677356,
			"0.001": 12.7791989,
			"0.002": 16.1172630101,
			"0.003": 14.9265746381,
			"0.004": 16.1454394828,
			"0.005": 6.47705868497,
			"0.006": 6.3179434662,
			"0.007": 3.62106195038,
			"0.008": 2.34353958847,
			"0.009": 3.77233773165,
			"0.01": 3.76704110041,
			"0.011": 4.32797022179,
			"0.012": 9.03010330012,
			"0.013": 6.08496452728,
			"0.014": 0.865664458264,
			"0.015": 0.0,
			"0.016": 0.0,
			"0.017": 0.0,
			"0.018": 0.0,
			"0.019": 0.0,
			"0.02": 0.0,
			"0.021": 0.0,
			"0.022": 0.0,
			"0.023": 0.0,
			"0.024": 0.0,
			"0.025": 0.0
		}
	}
}
