{
	 "smiles": "NNC1=C(Cl)C=CC(Cl)=C1", 
	 "Tm": 376.15, 
	 "num_atms": 16, 
	 "gaussian": { 
		 "optdone": 1, 
		 "sigma_profile": "yes", 
		 "theory": "DFT", 
		 "functional": "B3LYP", 
		 "basiset": "6-31G**", 
		 "properties": { 
			 "R2extent": 2945.4371, 
			 "electric_dipole_moment_norm": 0.96897351873, 
			 "electric_quadrupole_moment_norm": 5.18082070719, 
			 "total_energy": -1262.10246364, 
			 "HOMO_LUMO_gap": 0.1996, 
			 "cosmo_polarized_energy": -8.68, 
			 "cosmo_cavitation_energy": 23.44, 
			 "cosmo_dispersion_energy": -17.73, 
			 "cosmo_repulsion_energy": 1.44, 
			 "cosmo_total_nonelectrostatic_energy": 7.15, 
			 "SMD_solvation_energy": 3.73 
		},
		"coords": [
			{
				"x": -0.3116602727,
				"y": 3.3493015675,
				"z": 0.0510699433,
				"element": "N" 
			},
			{
				"x": 0.7476321549,
				"y": 2.4638358166,
				"z": -0.2978976311,
				"element": "N" 
			},
			{
				"x": 0.9444017681,
				"y": 1.2699831175,
				"z": 0.410668234,
				"element": "C" 
			},
			{
				"x": -0.05241861,
				"y": 0.2853315033,
				"z": 0.5714853985,
				"element": "C" 
			},
			{
				"x": -1.6456508072,
				"y": 0.4780833833,
				"z": -0.1529762703,
				"element": "Cl" 
			},
			{
				"x": 0.2072141991,
				"y": -0.8992759116,
				"z": 1.2572542583,
				"element": "C" 
			},
			{
				"x": 1.4726700443,
				"y": -1.162968109,
				"z": 1.7774795147,
				"element": "C" 
			},
			{
				"x": 2.4720001716,
				"y": -0.2084954108,
				"z": 1.5969203845,
				"element": "C" 
			},
			{
				"x": 4.0807668207,
				"y": -0.5072759537,
				"z": 2.2362738804,
				"element": "Cl" 
			},
			{
				"x": 2.2172484555,
				"y": 0.9911211001,
				"z": 0.9431856971,
				"element": "C" 
			},
			{
				"x": -0.5157360697,
				"y": 3.2820199137,
				"z": 1.0488303241,
				"element": "H" 
			},
			{
				"x": -1.1454828733,
				"y": 3.0578558505,
				"z": -0.4491018467,
				"element": "H" 
			},
			{
				"x": 1.6039728721,
				"y": 2.9978750336,
				"z": -0.379365802,
				"element": "H" 
			},
			{
				"x": -0.5864647539,
				"y": -1.6309465564,
				"z": 1.3616204779,
				"element": "H" 
			},
			{
				"x": 1.6772411957,
				"y": -2.0894350774,
				"z": 2.3003080281,
				"element": "H" 
			},
			{
				"x": 3.0056657046,
				"y": 1.7307897325,
				"z": 0.8457454091,
				"element": "H" 
			}
		],
		 "valence_orbital": [ 
			{
				"type": "occ",
				"energy": -0.31884,
				"method": "rhf"
			},
			{
				"type": "occ",
				"energy": -0.30482,
				"method": "rhf"
			},
			{
				"type": "occ",
				"energy": -0.26981,
				"method": "rhf"
			},
			{
				"type": "occ",
				"energy": -0.25325,
				"method": "rhf"
			},
			{
				"type": "occ",
				"energy": -0.22525,
				"method": "rhf"
			},
			{
				"type": "unocc",
				"energy": -0.02565,
				"method": "rhf"
			},
			{
				"type": "unocc",
				"energy": -0.01933,
				"method": "rhf"
			},
			{
				"type": "unocc",
				"energy": 0.01347,
				"method": "rhf"
			},
			{
				"type": "unocc",
				"energy": 0.03273,
				"method": "rhf"
			},
			{
				"type": "unocc",
				"energy": 0.08928,
				"method": "rhf"
			}
		],
		"cosmo_sigma_profile": { 
			"-0.025": 0.0,
			"-0.024": 0.0,
			"-0.023": 0.0,
			"-0.022": 0.0,
			"-0.021": 0.0,
			"-0.02": 0.0,
			"-0.019": 0.0,
			"-0.018": 0.0,
			"-0.017": 0.0,
			"-0.016": 0.0,
			"-0.015": 0.0,
			"-0.014": 0.0114999668476,
			"-0.013": 1.01918216053,
			"-0.012": 1.68467207568,
			"-0.011": 2.58763085531,
			"-0.01": 2.54683384963,
			"-0.009": 3.0739402217,
			"-0.008": 5.62340049958,
			"-0.007": 8.56109575181,
			"-0.006": 8.15322933238,
			"-0.005": 7.46923498105,
			"-0.004": 6.99183005672,
			"-0.003": 7.90922581116,
			"-0.002": 9.82653510129,
			"-0.001": 10.3899170044,
			"0.0": 11.932822619,
			"0.001": 15.2864398507,
			"0.002": 25.0541948833,
			"0.003": 21.6170655422,
			"0.004": 18.4222745264,
			"0.005": 10.4001769479,
			"0.006": 1.4855753685,
			"0.007": 2.17984017884,
			"0.008": 1.88686979687,
			"0.009": 1.17544219965,
			"0.01": 0.866229258624,
			"0.011": 1.39685268257,
			"0.012": 0.944905132622,
			"0.013": 0.458152941427,
			"0.014": 0.748700861458,
			"0.015": 0.863584816181,
			"0.016": 0.329844729651,
			"0.017": 0.430408261919,
			"0.018": 0.0,
			"0.019": 0.0,
			"0.02": 0.0,
			"0.021": 0.0,
			"0.022": 0.0,
			"0.023": 0.0,
			"0.024": 0.0,
			"0.025": 0.0
		}
	}
}
