{
	 "smiles": "ClC(=O)C1=CSC(=N1)C1=CC=CC(Cl)=C1", 
	 "Tm": 359.15, 
	 "num_atms": 20, 
	 "gaussian": { 
		 "optdone": 1, 
		 "sigma_profile": "yes", 
		 "theory": "DFT", 
		 "functional": "B3LYP", 
		 "basiset": "6-31G**", 
		 "properties": { 
			 "R2extent": 6829.3187, 
			 "electric_dipole_moment_norm": 5.69308010132, 
			 "electric_quadrupole_moment_norm": 13.5380443373, 
			 "total_energy": -1832.62480994, 
			 "HOMO_LUMO_gap": 0.16584, 
			 "cosmo_polarized_energy": -10.65, 
			 "cosmo_cavitation_energy": 31.1, 
			 "cosmo_dispersion_energy": -23.49, 
			 "cosmo_repulsion_energy": 1.79, 
			 "cosmo_total_nonelectrostatic_energy": 9.41, 
			 "SMD_solvation_energy": 4.36 
		},
		"coords": [
			{
				"x": -2.7798502161,
				"y": -3.6287372117,
				"z": -4.1228094336,
				"element": "Cl" 
			},
			{
				"x": -1.4262516212,
				"y": -2.4611612238,
				"z": -3.7112862246,
				"element": "C" 
			},
			{
				"x": -0.7081910707,
				"y": -2.0571290747,
				"z": -4.5693018641,
				"element": "O" 
			},
			{
				"x": -1.3620937679,
				"y": -2.1223662021,
				"z": -2.2753012041,
				"element": "C" 
			},
			{
				"x": -2.19212833,
				"y": -2.5894255682,
				"z": -1.2841570369,
				"element": "C" 
			},
			{
				"x": -1.7350335025,
				"y": -1.9200974745,
				"z": 0.23035239,
				"element": "S" 
			},
			{
				"x": -0.4255016068,
				"y": -1.0336283757,
				"z": -0.5874616909,
				"element": "C" 
			},
			{
				"x": -0.378042821,
				"y": -1.2521111578,
				"z": -1.8691842018,
				"element": "N" 
			},
			{
				"x": 0.4979964922,
				"y": -0.1484393173,
				"z": 0.1357053338,
				"element": "C" 
			},
			{
				"x": 0.4066559066,
				"y": 0.0559156923,
				"z": 1.5206101382,
				"element": "C" 
			},
			{
				"x": 1.3046590683,
				"y": 0.9046735539,
				"z": 2.1635794444,
				"element": "C" 
			},
			{
				"x": 2.3029112499,
				"y": 1.5604430415,
				"z": 1.4427671336,
				"element": "C" 
			},
			{
				"x": 2.3860008816,
				"y": 1.3508045681,
				"z": 0.0645660357,
				"element": "C" 
			},
			{
				"x": 3.6380352737,
				"y": 2.1706240701,
				"z": -0.8530067673,
				"element": "Cl" 
			},
			{
				"x": 1.5009525576,
				"y": 0.5085166066,
				"z": -0.5979466426,
				"element": "C" 
			},
			{
				"x": -3.0220525613,
				"y": -3.2732757435,
				"z": -1.3766081049,
				"element": "H" 
			},
			{
				"x": -0.3625251489,
				"y": -0.4441609394,
				"z": 2.1018262632,
				"element": "H" 
			},
			{
				"x": 1.229102132,
				"y": 1.0589427295,
				"z": 3.2353726529,
				"element": "H" 
			},
			{
				"x": 3.0055944682,
				"y": 2.2225857252,
				"z": 1.9358369217,
				"element": "H" 
			},
			{
				"x": 1.5714626162,
				"y": 0.3507263014,
				"z": -1.6672531429,
				"element": "H" 
			}
		],
		 "valence_orbital": [ 
			{
				"type": "occ",
				"energy": -0.30552,
				"method": "rhf"
			},
			{
				"type": "occ",
				"energy": -0.30391,
				"method": "rhf"
			},
			{
				"type": "occ",
				"energy": -0.29742,
				"method": "rhf"
			},
			{
				"type": "occ",
				"energy": -0.26653,
				"method": "rhf"
			},
			{
				"type": "occ",
				"energy": -0.25231,
				"method": "rhf"
			},
			{
				"type": "unocc",
				"energy": -0.08647,
				"method": "rhf"
			},
			{
				"type": "unocc",
				"energy": -0.06929,
				"method": "rhf"
			},
			{
				"type": "unocc",
				"energy": -0.02931,
				"method": "rhf"
			},
			{
				"type": "unocc",
				"energy": -0.01039,
				"method": "rhf"
			},
			{
				"type": "unocc",
				"energy": 0.01367,
				"method": "rhf"
			}
		],
		"cosmo_sigma_profile": { 
			"-0.025": 0.0,
			"-0.024": 0.0,
			"-0.023": 0.0,
			"-0.022": 0.0,
			"-0.021": 0.0,
			"-0.02": 0.0,
			"-0.019": 0.0,
			"-0.018": 0.0,
			"-0.017": 0.0,
			"-0.016": 0.0,
			"-0.015": 0.0,
			"-0.014": 0.0,
			"-0.013": 0.0,
			"-0.012": 0.176856037807,
			"-0.011": 1.40182255456,
			"-0.01": 1.59168606581,
			"-0.009": 1.44633917462,
			"-0.008": 4.99841119887,
			"-0.007": 8.91081044145,
			"-0.006": 9.20494490342,
			"-0.005": 11.0081385778,
			"-0.004": 12.9244002768,
			"-0.003": 17.033423475,
			"-0.002": 21.125790097,
			"-0.001": 24.5680044309,
			"0.0": 23.1866221109,
			"0.001": 27.1277044399,
			"0.002": 26.4244390905,
			"0.003": 17.0564836079,
			"0.004": 20.6993557256,
			"0.005": 9.66329208082,
			"0.006": 3.21598378373,
			"0.007": 4.13341934081,
			"0.008": 5.52774286654,
			"0.009": 4.0796493802,
			"0.01": 1.46348098756,
			"0.011": 1.4745856626,
			"0.012": 0.378459583814,
			"0.013": 0.0,
			"0.014": 0.0,
			"0.015": 0.0,
			"0.016": 0.0,
			"0.017": 0.0,
			"0.018": 0.0,
			"0.019": 0.0,
			"0.02": 0.0,
			"0.021": 0.0,
			"0.022": 0.0,
			"0.023": 0.0,
			"0.024": 0.0,
			"0.025": 0.0
		}
	}
}
