{
	 "smiles": "COC1=CC=C2C[C@]3(CC2=C1)CC[C@@H](CC3)C1=CC=C(C=C1)C(C)(C)C", 
	 "Tm": 357.65, 
	 "num_atms": 58, 
	 "gaussian": { 
		 "optdone": 1, 
		 "sigma_profile": "yes", 
		 "theory": "DFT", 
		 "functional": "B3LYP", 
		 "basiset": "6-31G**", 
		 "properties": { 
			 "R2extent": 18066.7857, 
			 "electric_dipole_moment_norm": 1.37046971875, 
			 "electric_quadrupole_moment_norm": 14.2676148714, 
			 "total_energy": -1047.1933184, 
			 "HOMO_LUMO_gap": 0.20676, 
			 "cosmo_polarized_energy": -8.28, 
			 "cosmo_cavitation_energy": 55.1, 
			 "cosmo_dispersion_energy": -38.45, 
			 "cosmo_repulsion_energy": 2.88, 
			 "cosmo_total_nonelectrostatic_energy": 19.53, 
			 "SMD_solvation_energy": 8.75 
		},
		"coords": [
			{
				"x": -6.0468354274,
				"y": -2.9336756072,
				"z": -5.1486628924,
				"element": "C" 
			},
			{
				"x": -4.8793469731,
				"y": -3.7271814929,
				"z": -5.0312089793,
				"element": "O" 
			},
			{
				"x": -3.7261260002,
				"y": -3.1228106265,
				"z": -4.6088336363,
				"element": "C" 
			},
			{
				"x": -2.6060188215,
				"y": -3.9651847078,
				"z": -4.5140870138,
				"element": "C" 
			},
			{
				"x": -1.3788156406,
				"y": -3.4623791789,
				"z": -4.0892403008,
				"element": "C" 
			},
			{
				"x": -1.2655967408,
				"y": -2.1120459883,
				"z": -3.7529585415,
				"element": "C" 
			},
			{
				"x": -0.0598732127,
				"y": -1.3213368954,
				"z": -3.2949282137,
				"element": "C" 
			},
			{
				"x": -0.6750698167,
				"y": -0.0295430534,
				"z": -2.6652511505,
				"element": "C" 
			},
			{
				"x": -2.0082404474,
				"y": 0.1342488517,
				"z": -3.4613307617,
				"element": "C" 
			},
			{
				"x": -2.3827383951,
				"y": -1.2779863259,
				"z": -3.8499994522,
				"element": "C" 
			},
			{
				"x": -3.6199154519,
				"y": -1.7652665922,
				"z": -4.275637586,
				"element": "C" 
			},
			{
				"x": 0.2354548088,
				"y": 1.2213791942,
				"z": -2.7990055502,
				"element": "C" 
			},
			{
				"x": 1.0772511405,
				"y": 1.4773691922,
				"z": -1.5430750323,
				"element": "C" 
			},
			{
				"x": 0.1671994185,
				"y": 1.8745215847,
				"z": -0.350746256,
				"element": "C" 
			},
			{
				"x": -1.1345167628,
				"y": 1.0073206463,
				"z": -0.3514649753,
				"element": "C" 
			},
			{
				"x": -0.9908807185,
				"y": -0.2879425079,
				"z": -1.1627591723,
				"element": "C" 
			},
			{
				"x": 0.9274041118,
				"y": 1.8560306149,
				"z": 0.9651746901,
				"element": "C" 
			},
			{
				"x": 1.3133326095,
				"y": 3.0525794583,
				"z": 1.5836933623,
				"element": "C" 
			},
			{
				"x": 2.0292426404,
				"y": 3.0560272732,
				"z": 2.7789727673,
				"element": "C" 
			},
			{
				"x": 2.3970078184,
				"y": 1.8625916029,
				"z": 3.4211831794,
				"element": "C" 
			},
			{
				"x": 2.0095154512,
				"y": 0.6669929936,
				"z": 2.8004054462,
				"element": "C" 
			},
			{
				"x": 1.2939224071,
				"y": 0.6636117097,
				"z": 1.6013609258,
				"element": "C" 
			},
			{
				"x": 3.1848182301,
				"y": 1.9070158871,
				"z": 4.7432495476,
				"element": "C" 
			},
			{
				"x": 4.5270303693,
				"y": 2.6437200502,
				"z": 4.5196615008,
				"element": "C" 
			},
			{
				"x": 2.3584912043,
				"y": 2.6635953037,
				"z": 5.8105392295,
				"element": "C" 
			},
			{
				"x": 3.4957202138,
				"y": 0.4995131536,
				"z": 5.2867889531,
				"element": "C" 
			},
			{
				"x": -6.3442290758,
				"y": -2.5006545459,
				"z": -4.1842472265,
				"element": "H" 
			},
			{
				"x": -6.8347327706,
				"y": -3.6036684928,
				"z": -5.4973003973,
				"element": "H" 
			},
			{
				"x": -5.9167210278,
				"y": -2.1222213344,
				"z": -5.8770980902,
				"element": "H" 
			},
			{
				"x": -2.7286940767,
				"y": -5.0115972025,
				"z": -4.774061851,
				"element": "H" 
			},
			{
				"x": -0.5217632334,
				"y": -4.1275676419,
				"z": -4.0178245157,
				"element": "H" 
			},
			{
				"x": 0.5721524275,
				"y": -1.0603893445,
				"z": -4.1570290005,
				"element": "H" 
			},
			{
				"x": 0.5797008094,
				"y": -1.8690694727,
				"z": -2.592907917,
				"element": "H" 
			},
			{
				"x": -1.8403982036,
				"y": 0.7423876621,
				"z": -4.3627618875,
				"element": "H" 
			},
			{
				"x": -2.7805592632,
				"y": 0.6490090395,
				"z": -2.8767309477,
				"element": "H" 
			},
			{
				"x": -4.4756977565,
				"y": -1.1023022656,
				"z": -4.3387419058,
				"element": "H" 
			},
			{
				"x": 0.8767966883,
				"y": 1.1216088626,
				"z": -3.6827289228,
				"element": "H" 
			},
			{
				"x": -0.3881613892,
				"y": 2.1084783349,
				"z": -2.9781725211,
				"element": "H" 
			},
			{
				"x": 1.6555837368,
				"y": 0.5803242098,
				"z": -1.2883971524,
				"element": "H" 
			},
			{
				"x": 1.8112481403,
				"y": 2.2714442053,
				"z": -1.7200679588,
				"element": "H" 
			},
			{
				"x": -0.1358793687,
				"y": 2.9151493091,
				"z": -0.5231953554,
				"element": "H" 
			},
			{
				"x": -1.9567734059,
				"y": 1.60010614,
				"z": -0.7715550912,
				"element": "H" 
			},
			{
				"x": -1.4281428965,
				"y": 0.773330361,
				"z": 0.676932021,
				"element": "H" 
			},
			{
				"x": -1.9009435381,
				"y": -0.8923551215,
				"z": -1.0762766921,
				"element": "H" 
			},
			{
				"x": -0.1878709389,
				"y": -0.8950625017,
				"z": -0.7274294333,
				"element": "H" 
			},
			{
				"x": 1.0453152281,
				"y": 4.0005643397,
				"z": 1.1220208137,
				"element": "H" 
			},
			{
				"x": 2.3010649433,
				"y": 4.0122342342,
				"z": 3.2175661181,
				"element": "H" 
			},
			{
				"x": 2.2631505643,
				"y": -0.2871605874,
				"z": 3.24873144,
				"element": "H" 
			},
			{
				"x": 1.0177835654,
				"y": -0.2914921704,
				"z": 1.1620425342,
				"element": "H" 
			},
			{
				"x": 5.1379813386,
				"y": 2.125594891,
				"z": 3.7731254252,
				"element": "H" 
			},
			{
				"x": 4.3749292387,
				"y": 3.6697063857,
				"z": 4.1715569172,
				"element": "H" 
			},
			{
				"x": 5.0982733849,
				"y": 2.69008293,
				"z": 5.453983262,
				"element": "H" 
			},
			{
				"x": 1.404436149,
				"y": 2.159326157,
				"z": 5.9963283562,
				"element": "H" 
			},
			{
				"x": 2.9083259992,
				"y": 2.7111278953,
				"z": 6.7575832832,
				"element": "H" 
			},
			{
				"x": 2.1381387928,
				"y": 3.6898086661,
				"z": 5.501839297,
				"element": "H" 
			},
			{
				"x": 2.5826445418,
				"y": -0.0672005073,
				"z": 5.4969197115,
				"element": "H" 
			},
			{
				"x": 4.0560231086,
				"y": 0.5810972349,
				"z": 6.2239959539,
				"element": "H" 
			},
			{
				"x": 4.1057022732,
				"y": -0.0818042093,
				"z": 4.5874616452,
				"element": "H" 
			}
		],
		 "valence_orbital": [ 
			{
				"type": "occ",
				"energy": -0.28699,
				"method": "rhf"
			},
			{
				"type": "occ",
				"energy": -0.24056,
				"method": "rhf"
			},
			{
				"type": "occ",
				"energy": -0.23824,
				"method": "rhf"
			},
			{
				"type": "occ",
				"energy": -0.22521,
				"method": "rhf"
			},
			{
				"type": "occ",
				"energy": -0.20348,
				"method": "rhf"
			},
			{
				"type": "unocc",
				"energy": 0.00328,
				"method": "rhf"
			},
			{
				"type": "unocc",
				"energy": 0.00474,
				"method": "rhf"
			},
			{
				"type": "unocc",
				"energy": 0.01043,
				"method": "rhf"
			},
			{
				"type": "unocc",
				"energy": 0.02115,
				"method": "rhf"
			},
			{
				"type": "unocc",
				"energy": 0.07836,
				"method": "rhf"
			}
		],
		"cosmo_sigma_profile": { 
			"-0.025": 0.0,
			"-0.024": 0.0,
			"-0.023": 0.0,
			"-0.022": 0.0,
			"-0.021": 0.0,
			"-0.02": 0.0,
			"-0.019": 0.0,
			"-0.018": 0.0,
			"-0.017": 0.0,
			"-0.016": 0.0,
			"-0.015": 0.0,
			"-0.014": 0.0,
			"-0.013": 0.0,
			"-0.012": 0.0,
			"-0.011": 0.0,
			"-0.01": 0.0,
			"-0.009": 0.0,
			"-0.008": 0.0,
			"-0.007": 0.0,
			"-0.006": 2.45803489167,
			"-0.005": 15.7446698166,
			"-0.004": 25.2842379236,
			"-0.003": 46.4311717406,
			"-0.002": 71.3121339264,
			"-0.001": 56.3621296188,
			"0.0": 53.2080412168,
			"0.001": 48.1628959622,
			"0.002": 28.6427738869,
			"0.003": 15.5718252606,
			"0.004": 15.7086762723,
			"0.005": 16.7495896194,
			"0.006": 16.3726322587,
			"0.007": 11.1230621158,
			"0.008": 1.83587620064,
			"0.009": 1.37997408234,
			"0.01": 1.50947315679,
			"0.011": 1.25326130993,
			"0.012": 0.0,
			"0.013": 0.0,
			"0.014": 0.0,
			"0.015": 0.0,
			"0.016": 0.0,
			"0.017": 0.0,
			"0.018": 0.0,
			"0.019": 0.0,
			"0.02": 0.0,
			"0.021": 0.0,
			"0.022": 0.0,
			"0.023": 0.0,
			"0.024": 0.0,
			"0.025": 0.0
		}
	}
}
