{
	 "smiles": "OC1CS(=O)(=O)CC1S(Cl)(=O)=O", 
	 "Tm": 385.15, 
	 "num_atms": 19, 
	 "gaussian": { 
		 "optdone": 1, 
		 "sigma_profile": "yes", 
		 "theory": "DFT", 
		 "functional": "B3LYP", 
		 "basiset": "6-31G**", 
		 "properties": { 
			 "R2extent": 3261.1551, 
			 "electric_dipole_moment_norm": 4.61291120335, 
			 "electric_quadrupole_moment_norm": 20.9455366749, 
			 "total_energy": -1789.17820762, 
			 "HOMO_LUMO_gap": 0.20129, 
			 "cosmo_polarized_energy": -25.52, 
			 "cosmo_cavitation_energy": 26.87, 
			 "cosmo_dispersion_energy": -20.61, 
			 "cosmo_repulsion_energy": 1.54, 
			 "cosmo_total_nonelectrostatic_energy": 7.81, 
			 "SMD_solvation_energy": 2.3 
		},
		"coords": [
			{
				"x": 1.5237589756,
				"y": -1.9194263954,
				"z": 1.1498902348,
				"element": "O" 
			},
			{
				"x": 1.5695334596,
				"y": -1.3665541824,
				"z": -0.1461897703,
				"element": "C" 
			},
			{
				"x": 2.675455743,
				"y": -0.3008257427,
				"z": -0.2804036007,
				"element": "C" 
			},
			{
				"x": 1.974181355,
				"y": 1.261805607,
				"z": 0.4079983256,
				"element": "S" 
			},
			{
				"x": 1.9364891491,
				"y": 2.2547656832,
				"z": -0.674699247,
				"element": "O" 
			},
			{
				"x": 2.5647284617,
				"y": 1.5765896567,
				"z": 1.7120783733,
				"element": "O" 
			},
			{
				"x": 0.2696241727,
				"y": 0.5910132695,
				"z": 0.6247766672,
				"element": "C" 
			},
			{
				"x": 0.2518482776,
				"y": -0.5874529514,
				"z": -0.3479314821,
				"element": "C" 
			},
			{
				"x": -1.3086531121,
				"y": -1.5397216843,
				"z": -0.1230986715,
				"element": "S" 
			},
			{
				"x": -0.9084287688,
				"y": -3.2197556671,
				"z": -1.3807201223,
				"element": "Cl" 
			},
			{
				"x": -1.4517864397,
				"y": -2.033253877,
				"z": 1.2364330912,
				"element": "O" 
			},
			{
				"x": -2.3600490894,
				"y": -0.768469921,
				"z": -0.7750465325,
				"element": "O" 
			},
			{
				"x": 2.2789488825,
				"y": -2.5078476118,
				"z": 1.2747766468,
				"element": "H" 
			},
			{
				"x": 1.6830782282,
				"y": -2.1344619033,
				"z": -0.9206315146,
				"element": "H" 
			},
			{
				"x": 2.9360216807,
				"y": -0.0900165428,
				"z": -1.3198991193,
				"element": "H" 
			},
			{
				"x": 3.5689605179,
				"y": -0.5580466678,
				"z": 0.2912313532,
				"element": "H" 
			},
			{
				"x": 0.1653365192,
				"y": 0.2613741731,
				"z": 1.6591258719,
				"element": "H" 
			},
			{
				"x": -0.4358120788,
				"y": 1.384742608,
				"z": 0.3798074536,
				"element": "H" 
			},
			{
				"x": 0.178364066,
				"y": -0.2412578508,
				"z": -1.3826979573,
				"element": "H" 
			}
		],
		 "valence_orbital": [ 
			{
				"type": "occ",
				"energy": -0.33146,
				"method": "rhf"
			},
			{
				"type": "occ",
				"energy": -0.32977,
				"method": "rhf"
			},
			{
				"type": "occ",
				"energy": -0.32684,
				"method": "rhf"
			},
			{
				"type": "occ",
				"energy": -0.31784,
				"method": "rhf"
			},
			{
				"type": "occ",
				"energy": -0.30193,
				"method": "rhf"
			},
			{
				"type": "unocc",
				"energy": -0.10064,
				"method": "rhf"
			},
			{
				"type": "unocc",
				"energy": 0.00914,
				"method": "rhf"
			},
			{
				"type": "unocc",
				"energy": 0.01512,
				"method": "rhf"
			},
			{
				"type": "unocc",
				"energy": 0.02664,
				"method": "rhf"
			},
			{
				"type": "unocc",
				"energy": 0.03756,
				"method": "rhf"
			}
		],
		"cosmo_sigma_profile": { 
			"-0.025": 0.0,
			"-0.024": 0.0,
			"-0.023": 0.0,
			"-0.022": 0.0,
			"-0.021": 0.0,
			"-0.02": 0.0,
			"-0.019": 0.0,
			"-0.018": 0.739860670324,
			"-0.017": 1.60481202751,
			"-0.016": 1.20280065009,
			"-0.015": 1.35107893796,
			"-0.014": 1.00240109276,
			"-0.013": 2.09601076605,
			"-0.012": 3.57339488872,
			"-0.011": 4.41114285189,
			"-0.01": 8.11466476145,
			"-0.009": 10.9421972945,
			"-0.008": 10.7544522369,
			"-0.007": 10.6119046235,
			"-0.006": 8.34018963344,
			"-0.005": 5.39706847358,
			"-0.004": 5.72920731422,
			"-0.003": 5.9469757261,
			"-0.002": 6.49716575526,
			"-0.001": 7.47981318503,
			"0.0": 7.94591664067,
			"0.001": 8.76356445378,
			"0.002": 12.5025064316,
			"0.003": 15.0672934989,
			"0.004": 6.41265470523,
			"0.005": 5.44796770193,
			"0.006": 5.71945190568,
			"0.007": 10.0220364052,
			"0.008": 14.4294896027,
			"0.009": 7.35486768985,
			"0.01": 10.6238152761,
			"0.011": 12.1229888475,
			"0.012": 2.73980071046,
			"0.013": 0.004712996095,
			"0.014": 0.0,
			"0.015": 0.0,
			"0.016": 0.0,
			"0.017": 0.0,
			"0.018": 0.0,
			"0.019": 0.0,
			"0.02": 0.0,
			"0.021": 0.0,
			"0.022": 0.0,
			"0.023": 0.0,
			"0.024": 0.0,
			"0.025": 0.0
		}
	}
}
