{
	 "smiles": "ClC1=CC=C(OS(=O)(=O)C2=CC=C(Cl)C=C2)C=C1", 
	 "Tm": 359.65, 
	 "num_atms": 26, 
	 "gaussian": { 
		 "optdone": 1, 
		 "sigma_profile": "yes", 
		 "theory": "DFT", 
		 "functional": "B3LYP", 
		 "basiset": "6-31G**", 
		 "properties": { 
			 "R2extent": 7761.5905, 
			 "electric_dipole_moment_norm": 3.03765050985, 
			 "electric_quadrupole_moment_norm": 16.1482326265, 
			 "total_energy": -2006.26621195, 
			 "HOMO_LUMO_gap": 0.18836, 
			 "cosmo_polarized_energy": -11.79, 
			 "cosmo_cavitation_energy": 36.49, 
			 "cosmo_dispersion_energy": -26.17, 
			 "cosmo_repulsion_energy": 2.0, 
			 "cosmo_total_nonelectrostatic_energy": 12.33, 
			 "SMD_solvation_energy": 4.66 
		},
		"coords": [
			{
				"x": 4.0563367115,
				"y": -1.9233775901,
				"z": 1.754339801,
				"element": "Cl" 
			},
			{
				"x": 2.5489318598,
				"y": -1.5519918938,
				"z": 0.9337789738,
				"element": "C" 
			},
			{
				"x": 1.3431966215,
				"y": -1.9894780943,
				"z": 1.484341541,
				"element": "C" 
			},
			{
				"x": 0.1456094395,
				"y": -1.7007274648,
				"z": 0.8320244394,
				"element": "C" 
			},
			{
				"x": 0.1752341657,
				"y": -0.969989826,
				"z": -0.3562947093,
				"element": "C" 
			},
			{
				"x": -0.998249317,
				"y": -0.7262888438,
				"z": -1.0747219198,
				"element": "O" 
			},
			{
				"x": -2.1155116535,
				"y": 0.3723373182,
				"z": -0.4888788129,
				"element": "S" 
			},
			{
				"x": -3.2595952028,
				"y": 0.1714573502,
				"z": -1.3625027024,
				"element": "O" 
			},
			{
				"x": -2.1986136228,
				"y": 0.2290152632,
				"z": 0.9608315208,
				"element": "O" 
			},
			{
				"x": -1.3490537488,
				"y": 1.939013551,
				"z": -0.8658332575,
				"element": "C" 
			},
			{
				"x": -0.6069249561,
				"y": 2.5946408845,
				"z": 0.1184276115,
				"element": "C" 
			},
			{
				"x": -0.0012319722,
				"y": 3.8127602161,
				"z": -0.18498312,
				"element": "C" 
			},
			{
				"x": -0.1510979252,
				"y": 4.3481455659,
				"z": -1.4656106529,
				"element": "C" 
			},
			{
				"x": 0.6093581848,
				"y": 5.877805853,
				"z": -1.8475530087,
				"element": "Cl" 
			},
			{
				"x": -0.8992717254,
				"y": 3.694680868,
				"z": -2.4486716291,
				"element": "C" 
			},
			{
				"x": -1.5041770418,
				"y": 2.4777344967,
				"z": -2.1457169484,
				"element": "C" 
			},
			{
				"x": 1.380058958,
				"y": -0.5323193978,
				"z": -0.9054557766,
				"element": "C" 
			},
			{
				"x": 2.5793328319,
				"y": -0.8286507863,
				"z": -0.2587980458,
				"element": "C" 
			},
			{
				"x": 1.3417273569,
				"y": -2.5549965717,
				"z": 2.4092492609,
				"element": "H" 
			},
			{
				"x": -0.8029541979,
				"y": -2.0303964742,
				"z": 1.2376927426,
				"element": "H" 
			},
			{
				"x": -0.5197530023,
				"y": 2.1645403526,
				"z": 1.1096576017,
				"element": "H" 
			},
			{
				"x": 0.5764377231,
				"y": 4.3438447903,
				"z": 0.5628277721,
				"element": "H" 
			},
			{
				"x": -1.0091964251,
				"y": 4.13725322,
				"z": -3.4320752653,
				"element": "H" 
			},
			{
				"x": -2.1026404268,
				"y": 1.9573044067,
				"z": -2.8853225962,
				"element": "H" 
			},
			{
				"x": 1.3718097407,
				"y": 0.0230616727,
				"z": -1.836940387,
				"element": "H" 
			},
			{
				"x": 3.5258376241,
				"y": -0.5024788662,
				"z": -0.6747124329,
				"element": "H" 
			}
		],
		 "valence_orbital": [ 
			{
				"type": "occ",
				"energy": -0.32125,
				"method": "rhf"
			},
			{
				"type": "occ",
				"energy": -0.29522,
				"method": "rhf"
			},
			{
				"type": "occ",
				"energy": -0.28075,
				"method": "rhf"
			},
			{
				"type": "occ",
				"energy": -0.27603,
				"method": "rhf"
			},
			{
				"type": "occ",
				"energy": -0.25355,
				"method": "rhf"
			},
			{
				"type": "unocc",
				"energy": -0.06519,
				"method": "rhf"
			},
			{
				"type": "unocc",
				"energy": -0.0449,
				"method": "rhf"
			},
			{
				"type": "unocc",
				"energy": -0.0296,
				"method": "rhf"
			},
			{
				"type": "unocc",
				"energy": -0.02806,
				"method": "rhf"
			},
			{
				"type": "unocc",
				"energy": 0.00711,
				"method": "rhf"
			}
		],
		"cosmo_sigma_profile": { 
			"-0.025": 0.0,
			"-0.024": 0.0,
			"-0.023": 0.0,
			"-0.022": 0.0,
			"-0.021": 0.0,
			"-0.02": 0.0,
			"-0.019": 0.0,
			"-0.018": 0.0,
			"-0.017": 0.0,
			"-0.016": 0.0,
			"-0.015": 0.0,
			"-0.014": 0.0,
			"-0.013": 0.0,
			"-0.012": 0.0,
			"-0.011": 0.0,
			"-0.01": 0.0,
			"-0.009": 2.33824227735,
			"-0.008": 11.4528295226,
			"-0.007": 14.6720342903,
			"-0.006": 13.6963759738,
			"-0.005": 12.265604568,
			"-0.004": 13.0303218588,
			"-0.003": 14.7653913857,
			"-0.002": 18.6940515441,
			"-0.001": 24.8280392793,
			"0.0": 33.5342342226,
			"0.001": 34.5592041243,
			"0.002": 25.4438381583,
			"0.003": 20.7742076885,
			"0.004": 21.0498140064,
			"0.005": 7.78380496774,
			"0.006": 3.99331126514,
			"0.007": 5.18989864746,
			"0.008": 7.0726281967,
			"0.009": 8.33957305019,
			"0.01": 5.49165711347,
			"0.011": 0.0114696213755,
			"0.012": 0.0,
			"0.013": 0.0,
			"0.014": 0.0,
			"0.015": 0.0,
			"0.016": 0.0,
			"0.017": 0.0,
			"0.018": 0.0,
			"0.019": 0.0,
			"0.02": 0.0,
			"0.021": 0.0,
			"0.022": 0.0,
			"0.023": 0.0,
			"0.024": 0.0,
			"0.025": 0.0
		}
	}
}
