{
	 "smiles": "CSC1=C(Cl)C=C(N)C=C1", 
	 "Tm": 348.15, 
	 "num_atms": 18, 
	 "gaussian": { 
		 "optdone": 1, 
		 "sigma_profile": "yes", 
		 "theory": "DFT", 
		 "functional": "B3LYP", 
		 "basiset": "6-31G**", 
		 "properties": { 
			 "R2extent": 2646.5224, 
			 "electric_dipole_moment_norm": 4.30869178986, 
			 "electric_quadrupole_moment_norm": 8.99877046157, 
			 "total_energy": -1184.69901524, 
			 "HOMO_LUMO_gap": 0.1958, 
			 "cosmo_polarized_energy": -10.85, 
			 "cosmo_cavitation_energy": 24.86, 
			 "cosmo_dispersion_energy": -18.82, 
			 "cosmo_repulsion_energy": 1.49, 
			 "cosmo_total_nonelectrostatic_energy": 7.53, 
			 "SMD_solvation_energy": 4.11 
		},
		"coords": [
			{
				"x": -0.9002457626,
				"y": -0.8527876643,
				"z": -3.8976139878,
				"element": "C" 
			},
			{
				"x": -0.2135654476,
				"y": -2.141393186,
				"z": -2.7872388135,
				"element": "S" 
			},
			{
				"x": -0.6217718577,
				"y": -1.4930750726,
				"z": -1.1740888679,
				"element": "C" 
			},
			{
				"x": 0.054832175,
				"y": -0.4278452701,
				"z": -0.5524615837,
				"element": "C" 
			},
			{
				"x": 1.3513415698,
				"y": 0.4251929481,
				"z": -1.3792224631,
				"element": "Cl" 
			},
			{
				"x": -0.2698331055,
				"y": 0.0065765469,
				"z": 0.7289310269,
				"element": "C" 
			},
			{
				"x": -1.2868536705,
				"y": -0.6317383956,
				"z": 1.4587086441,
				"element": "C" 
			},
			{
				"x": -1.5711100598,
				"y": -0.2405743342,
				"z": 2.7611534121,
				"element": "N" 
			},
			{
				"x": -1.9672012599,
				"y": -1.7061030226,
				"z": 0.8597124015,
				"element": "C" 
			},
			{
				"x": -1.6365500914,
				"y": -2.1134276876,
				"z": -0.4260839077,
				"element": "C" 
			},
			{
				"x": -0.3908451092,
				"y": 0.1012462465,
				"z": -3.7514588634,
				"element": "H" 
			},
			{
				"x": -1.9748853395,
				"y": -0.7370877572,
				"z": -3.742357915,
				"element": "H" 
			},
			{
				"x": -0.7197224648,
				"y": -1.202759061,
				"z": -4.9170629623,
				"element": "H" 
			},
			{
				"x": 0.2780679666,
				"y": 0.835040887,
				"z": 1.1659308277,
				"element": "H" 
			},
			{
				"x": -2.4864857775,
				"y": -0.4896870356,
				"z": 3.1073700409,
				"element": "H" 
			},
			{
				"x": -1.300485843,
				"y": 0.699150286,
				"z": 3.0132454537,
				"element": "H" 
			},
			{
				"x": -2.7547813109,
				"y": -2.2182843928,
				"z": 1.4058988764,
				"element": "H" 
			},
			{
				"x": -2.1739046114,
				"y": -2.9398440349,
				"z": -0.8801613188,
				"element": "H" 
			}
		],
		 "valence_orbital": [ 
			{
				"type": "occ",
				"energy": -0.30748,
				"method": "rhf"
			},
			{
				"type": "occ",
				"energy": -0.29671,
				"method": "rhf"
			},
			{
				"type": "occ",
				"energy": -0.24821,
				"method": "rhf"
			},
			{
				"type": "occ",
				"energy": -0.22702,
				"method": "rhf"
			},
			{
				"type": "occ",
				"energy": -0.2082,
				"method": "rhf"
			},
			{
				"type": "unocc",
				"energy": -0.0124,
				"method": "rhf"
			},
			{
				"type": "unocc",
				"energy": -0.00746,
				"method": "rhf"
			},
			{
				"type": "unocc",
				"energy": 0.02617,
				"method": "rhf"
			},
			{
				"type": "unocc",
				"energy": 0.0667,
				"method": "rhf"
			},
			{
				"type": "unocc",
				"energy": 0.06935,
				"method": "rhf"
			}
		],
		"cosmo_sigma_profile": { 
			"-0.025": 0.0,
			"-0.024": 0.0,
			"-0.023": 0.0,
			"-0.022": 0.0,
			"-0.021": 0.0,
			"-0.02": 0.0,
			"-0.019": 0.0,
			"-0.018": 0.0,
			"-0.017": 0.0,
			"-0.016": 0.0,
			"-0.015": 0.0,
			"-0.014": 0.0690785932496,
			"-0.013": 1.88780274485,
			"-0.012": 3.05126452093,
			"-0.011": 3.69124721147,
			"-0.01": 3.16368252707,
			"-0.009": 2.76247762242,
			"-0.008": 3.43761247156,
			"-0.007": 4.50597310636,
			"-0.006": 7.86763962732,
			"-0.005": 9.20928921403,
			"-0.004": 9.45620497287,
			"-0.003": 9.33728485517,
			"-0.002": 12.4763610332,
			"-0.001": 15.3127335313,
			"0.0": 13.0705492429,
			"0.001": 13.2956421052,
			"0.002": 17.1191111236,
			"0.003": 16.4527200244,
			"0.004": 22.3741293678,
			"0.005": 12.6830041781,
			"0.006": 4.66590167088,
			"0.007": 3.94875118707,
			"0.008": 4.25041650229,
			"0.009": 2.6196821947,
			"0.01": 2.86944951144,
			"0.011": 1.03655523083,
			"0.012": 0.419222141181,
			"0.013": 0.466982961508,
			"0.014": 0.0741944864204,
			"0.015": 0.0,
			"0.016": 0.0,
			"0.017": 0.0,
			"0.018": 0.0,
			"0.019": 0.0,
			"0.02": 0.0,
			"0.021": 0.0,
			"0.022": 0.0,
			"0.023": 0.0,
			"0.024": 0.0,
			"0.025": 0.0
		}
	}
}
