{
	 "smiles": "CS(=O)(=O)CC1=CC(N)=CC=C1", 
	 "Tm": 395.15, 
	 "num_atms": 23, 
	 "gaussian": { 
		 "optdone": 1, 
		 "sigma_profile": "yes", 
		 "theory": "DFT", 
		 "functional": "B3LYP", 
		 "basiset": "6-31G**", 
		 "properties": { 
			 "R2extent": 3313.986, 
			 "electric_dipole_moment_norm": 6.45008039485, 
			 "electric_quadrupole_moment_norm": 10.7584244711, 
			 "total_energy": -914.814435724, 
			 "HOMO_LUMO_gap": 0.19546, 
			 "cosmo_polarized_energy": -20.03, 
			 "cosmo_cavitation_energy": 27.79, 
			 "cosmo_dispersion_energy": -20.34, 
			 "cosmo_repulsion_energy": 1.58, 
			 "cosmo_total_nonelectrostatic_energy": 9.03, 
			 "SMD_solvation_energy": 4.26 
		},
		"coords": [
			{
				"x": -1.5637270614,
				"y": -0.1821521907,
				"z": 0.5413233079,
				"element": "C" 
			},
			{
				"x": -0.891913336,
				"y": 1.0669511017,
				"z": 1.66140958,
				"element": "S" 
			},
			{
				"x": -1.5915333421,
				"y": 2.3343521689,
				"z": 1.394330887,
				"element": "O" 
			},
			{
				"x": -0.872235614,
				"y": 0.5029816411,
				"z": 3.0211645332,
				"element": "O" 
			},
			{
				"x": 0.8610210478,
				"y": 1.2514316559,
				"z": 1.1413960006,
				"element": "C" 
			},
			{
				"x": 1.0670060583,
				"y": 1.5734558709,
				"z": -0.3140591346,
				"element": "C" 
			},
			{
				"x": 1.6407723881,
				"y": 0.6147568537,
				"z": -1.1561783321,
				"element": "C" 
			},
			{
				"x": 1.8514820832,
				"y": 0.8778770924,
				"z": -2.5203784214,
				"element": "C" 
			},
			{
				"x": 2.3779546442,
				"y": -0.1040946413,
				"z": -3.3600634485,
				"element": "N" 
			},
			{
				"x": 1.4661301227,
				"y": 2.1302343159,
				"z": -3.0281280254,
				"element": "C" 
			},
			{
				"x": 0.8914879327,
				"y": 3.0815086833,
				"z": -2.1886611342,
				"element": "C" 
			},
			{
				"x": 0.6886322562,
				"y": 2.8194085523,
				"z": -0.8338570186,
				"element": "C" 
			},
			{
				"x": -2.6129233701,
				"y": -0.2955505817,
				"z": 0.8197861971,
				"element": "H" 
			},
			{
				"x": -1.4758463027,
				"y": 0.1694404532,
				"z": -0.4866973847,
				"element": "H" 
			},
			{
				"x": -1.0310501827,
				"y": -1.1230710451,
				"z": 0.6871356244,
				"element": "H" 
			},
			{
				"x": 1.2076761662,
				"y": 2.0520383745,
				"z": 1.8028087948,
				"element": "H" 
			},
			{
				"x": 1.3545032653,
				"y": 0.3235456894,
				"z": 1.4406534639,
				"element": "H" 
			},
			{
				"x": 1.9376064333,
				"y": -0.3505241406,
				"z": -0.750500381,
				"element": "H" 
			},
			{
				"x": 2.9475405448,
				"y": -0.8040765278,
				"z": -2.9052061029,
				"element": "H" 
			},
			{
				"x": 2.8074331104,
				"y": 0.2390784617,
				"z": -4.2080217556,
				"element": "H" 
			},
			{
				"x": 1.6183415034,
				"y": 2.351260656,
				"z": -4.0816707412,
				"element": "H" 
			},
			{
				"x": 0.601366614,
				"y": 4.0447916243,
				"z": -2.5984247436,
				"element": "H" 
			},
			{
				"x": 0.2265750381,
				"y": 3.557955932,
				"z": -0.1884617652,
				"element": "H" 
			}
		],
		 "valence_orbital": [ 
			{
				"type": "occ",
				"energy": -0.30365,
				"method": "rhf"
			},
			{
				"type": "occ",
				"energy": -0.28654,
				"method": "rhf"
			},
			{
				"type": "occ",
				"energy": -0.28525,
				"method": "rhf"
			},
			{
				"type": "occ",
				"energy": -0.25103,
				"method": "rhf"
			},
			{
				"type": "occ",
				"energy": -0.21305,
				"method": "rhf"
			},
			{
				"type": "unocc",
				"energy": -0.01759,
				"method": "rhf"
			},
			{
				"type": "unocc",
				"energy": 0.00279,
				"method": "rhf"
			},
			{
				"type": "unocc",
				"energy": 0.06818,
				"method": "rhf"
			},
			{
				"type": "unocc",
				"energy": 0.07366,
				"method": "rhf"
			},
			{
				"type": "unocc",
				"energy": 0.07542,
				"method": "rhf"
			}
		],
		"cosmo_sigma_profile": { 
			"-0.025": 0.0,
			"-0.024": 0.0,
			"-0.023": 0.0,
			"-0.022": 0.0,
			"-0.021": 0.0,
			"-0.02": 0.0,
			"-0.019": 0.0,
			"-0.018": 0.0,
			"-0.017": 0.0,
			"-0.016": 0.0,
			"-0.015": 0.0,
			"-0.014": 0.0,
			"-0.013": 0.336201924523,
			"-0.012": 2.81346862995,
			"-0.011": 2.66329340126,
			"-0.01": 3.75806524112,
			"-0.009": 7.25157033365,
			"-0.008": 11.5206200848,
			"-0.007": 10.6728638649,
			"-0.006": 14.3913069049,
			"-0.005": 13.6491705127,
			"-0.004": 16.1549554914,
			"-0.003": 15.2766185433,
			"-0.002": 10.470896223,
			"-0.001": 9.25983697617,
			"0.0": 7.10392579038,
			"0.001": 7.97527304492,
			"0.002": 7.74552728093,
			"0.003": 8.50306665752,
			"0.004": 8.46389976603,
			"0.005": 10.9067422009,
			"0.006": 10.5848844476,
			"0.007": 3.4670633176,
			"0.008": 3.03929345348,
			"0.009": 4.23462003458,
			"0.01": 4.09095820881,
			"0.011": 8.30299510772,
			"0.012": 11.9165164866,
			"0.013": 4.43532538919,
			"0.014": 0.433953294763,
			"0.015": 0.174301339189,
			"0.016": 0.0,
			"0.017": 0.0,
			"0.018": 0.0,
			"0.019": 0.0,
			"0.02": 0.0,
			"0.021": 0.0,
			"0.022": 0.0,
			"0.023": 0.0,
			"0.024": 0.0,
			"0.025": 0.0
		}
	}
}
