{
	 "smiles": "NNC(=O)C1=NC=C2C=CSC2=C1", 
	 "Tm": 478.15, 
	 "num_atms": 20, 
	 "gaussian": { 
		 "optdone": 1, 
		 "sigma_profile": "yes", 
		 "theory": "DFT", 
		 "functional": "B3LYP", 
		 "basiset": "6-31G**", 
		 "properties": { 
			 "R2extent": 3128.9366, 
			 "electric_dipole_moment_norm": 4.71908365257, 
			 "electric_quadrupole_moment_norm": 23.8178713614, 
			 "total_energy": -946.696831925, 
			 "HOMO_LUMO_gap": 0.18171, 
			 "cosmo_polarized_energy": -21.04, 
			 "cosmo_cavitation_energy": 26.61, 
			 "cosmo_dispersion_energy": -20.18, 
			 "cosmo_repulsion_energy": 1.57, 
			 "cosmo_total_nonelectrostatic_energy": 8.01, 
			 "SMD_solvation_energy": 4.45 
		},
		"coords": [
			{
				"x": 0.7002748463,
				"y": 3.4172721218,
				"z": -1.0389478902,
				"element": "N" 
			},
			{
				"x": -0.2228585382,
				"y": 2.7600104398,
				"z": -1.8696586664,
				"element": "N" 
			},
			{
				"x": -1.0901568759,
				"y": 1.7901905156,
				"z": -1.3937373358,
				"element": "C" 
			},
			{
				"x": -2.1047800153,
				"y": 1.5244230276,
				"z": -2.0172721541,
				"element": "O" 
			},
			{
				"x": -0.7003202297,
				"y": 1.0387990069,
				"z": -0.1430699018,
				"element": "C" 
			},
			{
				"x": -1.7304873132,
				"y": 0.7570132102,
				"z": 0.684842354,
				"element": "N" 
			},
			{
				"x": -1.4945139199,
				"y": 0.021697249,
				"z": 1.762055662,
				"element": "C" 
			},
			{
				"x": -0.2263520065,
				"y": -0.5034152695,
				"z": 2.0757606453,
				"element": "C" 
			},
			{
				"x": 0.2002655867,
				"y": -1.3240954696,
				"z": 3.177893745,
				"element": "C" 
			},
			{
				"x": 1.5233258203,
				"y": -1.6248899072,
				"z": 3.1193940378,
				"element": "C" 
			},
			{
				"x": 2.332522322,
				"y": -0.9322063345,
				"z": 1.7261607328,
				"element": "S" 
			},
			{
				"x": 0.8330520278,
				"y": -0.2009635799,
				"z": 1.1886467949,
				"element": "C" 
			},
			{
				"x": 0.604047611,
				"y": 0.5909121752,
				"z": 0.0637548991,
				"element": "C" 
			},
			{
				"x": 0.3453652639,
				"y": 4.3280505695,
				"z": -0.752999553,
				"element": "H" 
			},
			{
				"x": 1.5705763074,
				"y": 3.5519319798,
				"z": -1.5449497101,
				"element": "H" 
			},
			{
				"x": -0.6102368539,
				"y": 3.2503177203,
				"z": -2.6724933807,
				"element": "H" 
			},
			{
				"x": -2.3440932759,
				"y": -0.1725717657,
				"z": 2.4161408471,
				"element": "H" 
			},
			{
				"x": -0.4594048654,
				"y": -1.6658979259,
				"z": 3.9671326375,
				"element": "H" 
			},
			{
				"x": 2.0980295086,
				"y": -2.2213095112,
				"z": 3.815278014,
				"element": "H" 
			},
			{
				"x": 1.3960445998,
				"y": 0.8515317477,
				"z": -0.6269317772,
				"element": "H" 
			}
		],
		 "valence_orbital": [ 
			{
				"type": "occ",
				"energy": -0.2634,
				"method": "rhf"
			},
			{
				"type": "occ",
				"energy": -0.26085,
				"method": "rhf"
			},
			{
				"type": "occ",
				"energy": -0.25631,
				"method": "rhf"
			},
			{
				"type": "occ",
				"energy": -0.24231,
				"method": "rhf"
			},
			{
				"type": "occ",
				"energy": -0.22748,
				"method": "rhf"
			},
			{
				"type": "unocc",
				"energy": -0.04577,
				"method": "rhf"
			},
			{
				"type": "unocc",
				"energy": -0.02096,
				"method": "rhf"
			},
			{
				"type": "unocc",
				"energy": 0.0113,
				"method": "rhf"
			},
			{
				"type": "unocc",
				"energy": 0.0171,
				"method": "rhf"
			},
			{
				"type": "unocc",
				"energy": 0.05648,
				"method": "rhf"
			}
		],
		"cosmo_sigma_profile": { 
			"-0.025": 0.0,
			"-0.024": 0.0,
			"-0.023": 0.0,
			"-0.022": 0.0,
			"-0.021": 0.0,
			"-0.02": 0.0,
			"-0.019": 0.0,
			"-0.018": 0.0,
			"-0.017": 0.0,
			"-0.016": 0.0,
			"-0.015": 0.0,
			"-0.014": 0.113650936359,
			"-0.013": 1.30624147069,
			"-0.012": 3.66175455121,
			"-0.011": 5.17749332258,
			"-0.01": 5.10677768741,
			"-0.009": 6.9493863901,
			"-0.008": 8.42666898658,
			"-0.007": 11.4388300961,
			"-0.006": 8.82815425004,
			"-0.005": 9.22977448952,
			"-0.004": 9.24606211047,
			"-0.003": 8.5079325548,
			"-0.002": 9.37086655043,
			"-0.001": 8.66919374552,
			"0.0": 13.3137214974,
			"0.001": 24.4534886263,
			"0.002": 18.7804632764,
			"0.003": 13.0074196738,
			"0.004": 9.54407205215,
			"0.005": 3.67852451696,
			"0.006": 2.94835721782,
			"0.007": 2.77561084772,
			"0.008": 3.21292902244,
			"0.009": 2.10248722612,
			"0.01": 2.56552566195,
			"0.011": 3.44267008,
			"0.012": 3.70772347446,
			"0.013": 5.87863292331,
			"0.014": 4.53235291374,
			"0.015": 1.97474900585,
			"0.016": 1.92302640723,
			"0.017": 1.23917981973,
			"0.018": 0.0662113649131,
			"0.019": 0.0,
			"0.02": 0.0,
			"0.021": 0.0,
			"0.022": 0.0,
			"0.023": 0.0,
			"0.024": 0.0,
			"0.025": 0.0
		}
	}
}
