{
	 "smiles": "COC(=O)CC(=O)OC", 
	 "Tm": 211.15, 
	 "num_atms": 17, 
	 "gaussian": { 
		 "optdone": 1, 
		 "sigma_profile": "yes", 
		 "theory": "DFT", 
		 "functional": "B3LYP", 
		 "basiset": "6-31G**", 
		 "properties": { 
			 "R2extent": 1451.7537, 
			 "electric_dipole_moment_norm": 1.68655611528, 
			 "electric_quadrupole_moment_norm": 12.4324570882, 
			 "total_energy": -496.258399775, 
			 "HOMO_LUMO_gap": 0.26664, 
			 "cosmo_polarized_energy": -10.62, 
			 "cosmo_cavitation_energy": 22.0, 
			 "cosmo_dispersion_energy": -15.54, 
			 "cosmo_repulsion_energy": 1.33, 
			 "cosmo_total_nonelectrostatic_energy": 7.8, 
			 "SMD_solvation_energy": 7.18 
		},
		"coords": [
			{
				"x": 1.1189930194,
				"y": 1.9911845624,
				"z": 1.9457263804,
				"element": "C" 
			},
			{
				"x": 0.0574534237,
				"y": 1.4027416219,
				"z": 1.1737079957,
				"element": "O" 
			},
			{
				"x": -0.560057972,
				"y": 0.3502470672,
				"z": 1.7495892068,
				"element": "C" 
			},
			{
				"x": -0.2844415585,
				"y": -0.082706762,
				"z": 2.844684367,
				"element": "O" 
			},
			{
				"x": -1.6643268373,
				"y": -0.1818842296,
				"z": 0.8495511828,
				"element": "C" 
			},
			{
				"x": -1.2077869471,
				"y": -0.464677646,
				"z": -0.573208778,
				"element": "C" 
			},
			{
				"x": -1.7653455795,
				"y": -0.0769620392,
				"z": -1.573933047,
				"element": "O" 
			},
			{
				"x": -0.1048939464,
				"y": -1.2420513855,
				"z": -0.5734147051,
				"element": "O" 
			},
			{
				"x": 0.4104274258,
				"y": -1.5786434165,
				"z": -1.8735335677,
				"element": "C" 
			},
			{
				"x": 0.7371848802,
				"y": 2.3665249949,
				"z": 2.8982714524,
				"element": "H" 
			},
			{
				"x": 1.5050654063,
				"y": 2.8091755777,
				"z": 1.3381200459,
				"element": "H" 
			},
			{
				"x": 1.9016667607,
				"y": 1.2548803122,
				"z": 2.1434585745,
				"element": "H" 
			},
			{
				"x": -2.0411346841,
				"y": -1.1013490743,
				"z": 1.3036064596,
				"element": "H" 
			},
			{
				"x": -2.4755106231,
				"y": 0.5477656859,
				"z": 0.7933495081,
				"element": "H" 
			},
			{
				"x": 1.2906315171,
				"y": -2.1941782352,
				"z": -1.6899458849,
				"element": "H" 
			},
			{
				"x": -0.3343106637,
				"y": -2.1341639597,
				"z": -2.4486494872,
				"element": "H" 
			},
			{
				"x": 0.6802863785,
				"y": -0.6742030742,
				"z": -2.4239797033,
				"element": "H" 
			}
		],
		 "valence_orbital": [ 
			{
				"type": "occ",
				"energy": -0.36267,
				"method": "rhf"
			},
			{
				"type": "occ",
				"energy": -0.31069,
				"method": "rhf"
			},
			{
				"type": "occ",
				"energy": -0.3062,
				"method": "rhf"
			},
			{
				"type": "occ",
				"energy": -0.2929,
				"method": "rhf"
			},
			{
				"type": "occ",
				"energy": -0.26796,
				"method": "rhf"
			},
			{
				"type": "unocc",
				"energy": -0.00132,
				"method": "rhf"
			},
			{
				"type": "unocc",
				"energy": 0.00901,
				"method": "rhf"
			},
			{
				"type": "unocc",
				"energy": 0.09739,
				"method": "rhf"
			},
			{
				"type": "unocc",
				"energy": 0.11262,
				"method": "rhf"
			},
			{
				"type": "unocc",
				"energy": 0.11579,
				"method": "rhf"
			}
		],
		"cosmo_sigma_profile": { 
			"-0.025": 0.0,
			"-0.024": 0.0,
			"-0.023": 0.0,
			"-0.022": 0.0,
			"-0.021": 0.0,
			"-0.02": 0.0,
			"-0.019": 0.0,
			"-0.018": 0.0,
			"-0.017": 0.0,
			"-0.016": 0.0,
			"-0.015": 0.0,
			"-0.014": 0.0,
			"-0.013": 0.0,
			"-0.012": 0.0,
			"-0.011": 0.0,
			"-0.01": 0.0,
			"-0.009": 0.88632507033,
			"-0.008": 4.56748836107,
			"-0.007": 5.73190943897,
			"-0.006": 15.294554673,
			"-0.005": 17.623477413,
			"-0.004": 21.4452970079,
			"-0.003": 16.5995296852,
			"-0.002": 10.059943845,
			"-0.001": 7.73395478111,
			"0.0": 5.18930712788,
			"0.001": 7.76552078167,
			"0.002": 5.52905829355,
			"0.003": 7.62005146574,
			"0.004": 6.82480585409,
			"0.005": 5.42743730091,
			"0.006": 4.61118771942,
			"0.007": 4.74077426167,
			"0.008": 3.33734733747,
			"0.009": 3.50637512432,
			"0.01": 4.52526793795,
			"0.011": 9.03001766778,
			"0.012": 5.4587484702,
			"0.013": 0.214429781736,
			"0.014": 0.0,
			"0.015": 0.0,
			"0.016": 0.0,
			"0.017": 0.0,
			"0.018": 0.0,
			"0.019": 0.0,
			"0.02": 0.0,
			"0.021": 0.0,
			"0.022": 0.0,
			"0.023": 0.0,
			"0.024": 0.0,
			"0.025": 0.0
		}
	}
}
