{
	 "smiles": "CC1=CC(=CC(C)=C1F)S(Cl)(=O)=O", 
	 "Tm": 362.15, 
	 "num_atms": 21, 
	 "gaussian": { 
		 "optdone": 1, 
		 "sigma_profile": "yes", 
		 "theory": "DFT", 
		 "functional": "B3LYP", 
		 "basiset": "6-31G**", 
		 "properties": { 
			 "R2extent": 4621.5874, 
			 "electric_dipole_moment_norm": 5.11309876396, 
			 "electric_quadrupole_moment_norm": 19.0184706964, 
			 "total_energy": -1418.28388922, 
			 "HOMO_LUMO_gap": 0.18552, 
			 "cosmo_polarized_energy": -8.55, 
			 "cosmo_cavitation_energy": 28.91, 
			 "cosmo_dispersion_energy": -21.18, 
			 "cosmo_repulsion_energy": 1.63, 
			 "cosmo_total_nonelectrostatic_energy": 9.36, 
			 "SMD_solvation_energy": 4.16 
		},
		"coords": [
			{
				"x": 1.8293178344,
				"y": 0.1430940102,
				"z": 2.5536015017,
				"element": "C" 
			},
			{
				"x": 1.5303364254,
				"y": 0.215763486,
				"z": 1.0786978587,
				"element": "C" 
			},
			{
				"x": 1.5646954534,
				"y": 1.4118744865,
				"z": 0.359056798,
				"element": "C" 
			},
			{
				"x": 1.2822835516,
				"y": 1.3953991987,
				"z": -1.0071871204,
				"element": "C" 
			},
			{
				"x": 0.9612905256,
				"y": 0.2250059309,
				"z": -1.6955241611,
				"element": "C" 
			},
			{
				"x": 0.9192295977,
				"y": -0.9862266845,
				"z": -1.00207751,
				"element": "C" 
			},
			{
				"x": 0.5891372217,
				"y": -2.296228283,
				"z": -1.6691171643,
				"element": "C" 
			},
			{
				"x": 1.204915538,
				"y": -0.9418719841,
				"z": 0.3656966198,
				"element": "C" 
			},
			{
				"x": 1.168201626,
				"y": -2.1058899544,
				"z": 1.0488717561,
				"element": "F" 
			},
			{
				"x": 1.3436690017,
				"y": 2.9291727886,
				"z": -1.9112492329,
				"element": "S" 
			},
			{
				"x": -0.6718167321,
				"y": 3.6213747607,
				"z": -1.7195556333,
				"element": "Cl" 
			},
			{
				"x": 1.5372453189,
				"y": 2.6515516142,
				"z": -3.329215821,
				"element": "O" 
			},
			{
				"x": 2.166323772,
				"y": 3.8896387214,
				"z": -1.1860451026,
				"element": "O" 
			},
			{
				"x": 2.6793485562,
				"y": -0.5179475425,
				"z": 2.7518017622,
				"element": "H" 
			},
			{
				"x": 0.9758392294,
				"y": -0.2593004407,
				"z": 3.1089920795,
				"element": "H" 
			},
			{
				"x": 2.0631277782,
				"y": 1.1324823701,
				"z": 2.9522155486,
				"element": "H" 
			},
			{
				"x": 1.8184693731,
				"y": 2.3435631932,
				"z": 0.8525746265,
				"element": "H" 
			},
			{
				"x": 0.7574512419,
				"y": 0.2566004497,
				"z": -2.7601623142,
				"element": "H" 
			},
			{
				"x": 1.4117003865,
				"y": -3.0110919246,
				"z": -1.5634670293,
				"element": "H" 
			},
			{
				"x": 0.3936399129,
				"y": -2.1521258697,
				"z": -2.733760131,
				"element": "H" 
			},
			{
				"x": -0.2945056125,
				"y": -2.7572383267,
				"z": -1.2158473308,
				"element": "H" 
			}
		],
		 "valence_orbital": [ 
			{
				"type": "occ",
				"energy": -0.33386,
				"method": "rhf"
			},
			{
				"type": "occ",
				"energy": -0.32734,
				"method": "rhf"
			},
			{
				"type": "occ",
				"energy": -0.31073,
				"method": "rhf"
			},
			{
				"type": "occ",
				"energy": -0.27873,
				"method": "rhf"
			},
			{
				"type": "occ",
				"energy": -0.27318,
				"method": "rhf"
			},
			{
				"type": "unocc",
				"energy": -0.08766,
				"method": "rhf"
			},
			{
				"type": "unocc",
				"energy": -0.0389,
				"method": "rhf"
			},
			{
				"type": "unocc",
				"energy": -0.03524,
				"method": "rhf"
			},
			{
				"type": "unocc",
				"energy": 0.05299,
				"method": "rhf"
			},
			{
				"type": "unocc",
				"energy": 0.07651,
				"method": "rhf"
			}
		],
		"cosmo_sigma_profile": { 
			"-0.025": 0.0,
			"-0.024": 0.0,
			"-0.023": 0.0,
			"-0.022": 0.0,
			"-0.021": 0.0,
			"-0.02": 0.0,
			"-0.019": 0.0,
			"-0.018": 0.0,
			"-0.017": 0.0,
			"-0.016": 0.0,
			"-0.015": 0.0,
			"-0.014": 0.0,
			"-0.013": 0.0,
			"-0.012": 0.0,
			"-0.011": 0.0,
			"-0.01": 0.0,
			"-0.009": 0.175650152873,
			"-0.008": 3.32056113705,
			"-0.007": 4.10764517555,
			"-0.006": 6.95394937575,
			"-0.005": 15.2002864981,
			"-0.004": 14.8724817633,
			"-0.003": 18.6819282971,
			"-0.002": 23.5653849176,
			"-0.001": 31.3052562223,
			"0.0": 23.5809829953,
			"0.001": 17.2060555262,
			"0.002": 10.8501359418,
			"0.003": 19.0823524749,
			"0.004": 16.7673977665,
			"0.005": 3.84898280675,
			"0.006": 2.72743070337,
			"0.007": 5.67429940462,
			"0.008": 9.92793819295,
			"0.009": 5.34819878657,
			"0.01": 0.0668587704858,
			"0.011": 0.0,
			"0.012": 0.0,
			"0.013": 0.0,
			"0.014": 0.0,
			"0.015": 0.0,
			"0.016": 0.0,
			"0.017": 0.0,
			"0.018": 0.0,
			"0.019": 0.0,
			"0.02": 0.0,
			"0.021": 0.0,
			"0.022": 0.0,
			"0.023": 0.0,
			"0.024": 0.0,
			"0.025": 0.0
		}
	}
}
