{
	 "smiles": "SC1=NC2=C(C=CC=C2)C(=O)N1C1CC1", 
	 "Tm": 290.15, 
	 "num_atms": 25, 
	 "gaussian": { 
		 "optdone": 1, 
		 "sigma_profile": "yes", 
		 "theory": "DFT", 
		 "functional": "B3LYP", 
		 "basiset": "6-31G**", 
		 "properties": { 
			 "R2extent": 4469.1551, 
			 "electric_dipole_moment_norm": 1.38592193142, 
			 "electric_quadrupole_moment_norm": 10.0448657831, 
			 "total_energy": -1008.09949565, 
			 "HOMO_LUMO_gap": 0.17957, 
			 "cosmo_polarized_energy": -10.22, 
			 "cosmo_cavitation_energy": 29.83, 
			 "cosmo_dispersion_energy": -22.53, 
			 "cosmo_repulsion_energy": 1.7, 
			 "cosmo_total_nonelectrostatic_energy": 9.0, 
			 "SMD_solvation_energy": 3.23 
		},
		"coords": [
			{
				"x": -0.3429350943,
				"y": 4.2367960994,
				"z": -1.656784767,
				"element": "S" 
			},
			{
				"x": -0.4934377317,
				"y": 2.5679905988,
				"z": -1.0264056497,
				"element": "C" 
			},
			{
				"x": -1.2315403925,
				"y": 2.3727531299,
				"z": 0.0154731906,
				"element": "N" 
			},
			{
				"x": -1.3883958827,
				"y": 1.072222313,
				"z": 0.4653442506,
				"element": "C" 
			},
			{
				"x": -0.8177155125,
				"y": -0.0253041376,
				"z": -0.2134083334,
				"element": "C" 
			},
			{
				"x": -1.0206313882,
				"y": -1.3346352257,
				"z": 0.2527252756,
				"element": "C" 
			},
			{
				"x": -1.7746365533,
				"y": -1.5522198665,
				"z": 1.3954126195,
				"element": "C" 
			},
			{
				"x": -2.3418083158,
				"y": -0.4603535811,
				"z": 2.0784900739,
				"element": "C" 
			},
			{
				"x": -2.1569771615,
				"y": 0.8356833881,
				"z": 1.6223467844,
				"element": "C" 
			},
			{
				"x": -0.0222390952,
				"y": 0.2047777275,
				"z": -1.4222921735,
				"element": "C" 
			},
			{
				"x": 0.4514422391,
				"y": -0.6729307193,
				"z": -2.1275489653,
				"element": "O" 
			},
			{
				"x": 0.1849173911,
				"y": 1.5836734969,
				"z": -1.7308450933,
				"element": "N" 
			},
			{
				"x": 0.9792665776,
				"y": 1.9089829778,
				"z": -2.9008718571,
				"element": "C" 
			},
			{
				"x": 2.3543424417,
				"y": 1.322092738,
				"z": -3.0428657246,
				"element": "C" 
			},
			{
				"x": 2.2076769672,
				"y": 2.7883383833,
				"z": -2.7560109931,
				"element": "C" 
			},
			{
				"x": -1.2171045657,
				"y": 4.7033303429,
				"z": -0.7455800358,
				"element": "H" 
			},
			{
				"x": -0.5722901601,
				"y": -2.1523796706,
				"z": -0.3015911364,
				"element": "H" 
			},
			{
				"x": -1.9298454742,
				"y": -2.5618171866,
				"z": 1.763087783,
				"element": "H" 
			},
			{
				"x": -2.9343542461,
				"y": -0.6350535164,
				"z": 2.9721895687,
				"element": "H" 
			},
			{
				"x": -2.5927214858,
				"y": 1.6881770816,
				"z": 2.1326541374,
				"element": "H" 
			},
			{
				"x": 0.3882489242,
				"y": 2.013912621,
				"z": -3.8074829392,
				"element": "H" 
			},
			{
				"x": 2.7042793405,
				"y": 0.6804906521,
				"z": -2.2434416495,
				"element": "H" 
			},
			{
				"x": 2.6449384305,
				"y": 0.9966789336,
				"z": -4.0360778194,
				"element": "H" 
			},
			{
				"x": 2.391249151,
				"y": 3.5136007775,
				"z": -3.5423623807,
				"element": "H" 
			},
			{
				"x": 2.4629715967,
				"y": 3.1332926421,
				"z": -1.7597541657,
				"element": "H" 
			}
		],
		 "valence_orbital": [ 
			{
				"type": "occ",
				"energy": -0.27631,
				"method": "rhf"
			},
			{
				"type": "occ",
				"energy": -0.27342,
				"method": "rhf"
			},
			{
				"type": "occ",
				"energy": -0.26282,
				"method": "rhf"
			},
			{
				"type": "occ",
				"energy": -0.25843,
				"method": "rhf"
			},
			{
				"type": "occ",
				"energy": -0.22209,
				"method": "rhf"
			},
			{
				"type": "unocc",
				"energy": -0.04252,
				"method": "rhf"
			},
			{
				"type": "unocc",
				"energy": -0.03333,
				"method": "rhf"
			},
			{
				"type": "unocc",
				"energy": 0.00947,
				"method": "rhf"
			},
			{
				"type": "unocc",
				"energy": 0.02824,
				"method": "rhf"
			},
			{
				"type": "unocc",
				"energy": 0.0638,
				"method": "rhf"
			}
		],
		"cosmo_sigma_profile": { 
			"-0.025": 0.0,
			"-0.024": 0.0,
			"-0.023": 0.0,
			"-0.022": 0.0,
			"-0.021": 0.0,
			"-0.02": 0.0,
			"-0.019": 0.0,
			"-0.018": 0.0,
			"-0.017": 0.0,
			"-0.016": 0.0,
			"-0.015": 0.0,
			"-0.014": 0.0,
			"-0.013": 0.0,
			"-0.012": 0.0627911438253,
			"-0.011": 1.13040196885,
			"-0.01": 1.32395054061,
			"-0.009": 1.6155098001,
			"-0.008": 0.859385447242,
			"-0.007": 4.13923895309,
			"-0.006": 15.3103581729,
			"-0.005": 22.2771632189,
			"-0.004": 20.9706103527,
			"-0.003": 17.5917586778,
			"-0.002": 15.7835052377,
			"-0.001": 16.4602634838,
			"0.0": 15.8251161434,
			"0.001": 16.5393368411,
			"0.002": 21.0071323942,
			"0.003": 21.4197918612,
			"0.004": 15.5828680078,
			"0.005": 5.39085141531,
			"0.006": 6.08257699976,
			"0.007": 3.15266321666,
			"0.008": 2.23692575117,
			"0.009": 2.51408432537,
			"0.01": 3.05275092353,
			"0.011": 3.15755626331,
			"0.012": 4.09008540583,
			"0.013": 3.12805913753,
			"0.014": 0.0500207972862,
			"0.015": 0.0,
			"0.016": 0.0,
			"0.017": 0.0,
			"0.018": 0.0,
			"0.019": 0.0,
			"0.02": 0.0,
			"0.021": 0.0,
			"0.022": 0.0,
			"0.023": 0.0,
			"0.024": 0.0,
			"0.025": 0.0
		}
	}
}
