{
	 "smiles": "NC(=NO)C1=CC=C(C=C1)N1CCCCC1", 
	 "Tm": 443.15, 
	 "num_atms": 33, 
	 "gaussian": { 
		 "optdone": 1, 
		 "sigma_profile": "yes", 
		 "theory": "DFT", 
		 "functional": "B3LYP", 
		 "basiset": "6-31G**", 
		 "properties": { 
			 "R2extent": 5750.0263, 
			 "electric_dipole_moment_norm": 3.79448800499, 
			 "electric_quadrupole_moment_norm": 11.0849748547, 
			 "total_energy": -706.941984716, 
			 "HOMO_LUMO_gap": 0.17852, 
			 "cosmo_polarized_energy": -15.11, 
			 "cosmo_cavitation_energy": 34.16, 
			 "cosmo_dispersion_energy": -25.48, 
			 "cosmo_repulsion_energy": 2.01, 
			 "cosmo_total_nonelectrostatic_energy": 10.69, 
			 "SMD_solvation_energy": 4.13 
		},
		"coords": [
			{
				"x": -2.0370714511,
				"y": -4.8202575557,
				"z": 0.6519275189,
				"element": "N" 
			},
			{
				"x": -1.0240373705,
				"y": -4.0245306434,
				"z": 1.190298945,
				"element": "C" 
			},
			{
				"x": -0.4724723091,
				"y": -4.4751838278,
				"z": 2.2684675538,
				"element": "N" 
			},
			{
				"x": 0.516717541,
				"y": -3.5918540872,
				"z": 2.7830701094,
				"element": "O" 
			},
			{
				"x": -0.7514301519,
				"y": -2.744791067,
				"z": 0.4878341239,
				"element": "C" 
			},
			{
				"x": -0.5845055019,
				"y": -1.5345603576,
				"z": 1.1794827549,
				"element": "C" 
			},
			{
				"x": -0.3700452812,
				"y": -0.3389638082,
				"z": 0.5079111343,
				"element": "C" 
			},
			{
				"x": -0.28688252,
				"y": -0.2915312078,
				"z": -0.9044332979,
				"element": "C" 
			},
			{
				"x": -0.4388802956,
				"y": -1.5141611795,
				"z": -1.5988284095,
				"element": "C" 
			},
			{
				"x": -0.6722451138,
				"y": -2.6998161049,
				"z": -0.9125250247,
				"element": "C" 
			},
			{
				"x": -0.0651427026,
				"y": 0.8982260313,
				"z": -1.576260945,
				"element": "N" 
			},
			{
				"x": -0.3022657027,
				"y": 1.0076088823,
				"z": -3.0153516927,
				"element": "C" 
			},
			{
				"x": -0.6670720168,
				"y": 2.4471882761,
				"z": -3.3941946595,
				"element": "C" 
			},
			{
				"x": 0.4520547121,
				"y": 3.4478073398,
				"z": -3.0339444302,
				"element": "C" 
			},
			{
				"x": 1.269744952,
				"y": 2.9550056675,
				"z": -1.8207861523,
				"element": "C" 
			},
			{
				"x": 0.4374153508,
				"y": 2.0809412378,
				"z": -0.8759594725,
				"element": "C" 
			},
			{
				"x": -1.9948871284,
				"y": -5.7891377171,
				"z": 0.9394977164,
				"element": "H" 
			},
			{
				"x": -2.2247663005,
				"y": -4.6883908179,
				"z": -0.329765545,
				"element": "H" 
			},
			{
				"x": 0.8315711006,
				"y": -4.0960756167,
				"z": 3.5432805653,
				"element": "H" 
			},
			{
				"x": -0.6356315291,
				"y": -1.5342675048,
				"z": 2.2611788543,
				"element": "H" 
			},
			{
				"x": -0.2938911851,
				"y": 0.5733784057,
				"z": 1.0877363768,
				"element": "H" 
			},
			{
				"x": -0.3385489801,
				"y": -1.5470273548,
				"z": -2.6772267849,
				"element": "H" 
			},
			{
				"x": -0.7526192163,
				"y": -3.617993813,
				"z": -1.4902247463,
				"element": "H" 
			},
			{
				"x": 0.5714372111,
				"y": 0.6723736627,
				"z": -3.6005876544,
				"element": "H" 
			},
			{
				"x": -1.1331075796,
				"y": 0.3467892645,
				"z": -3.2823879876,
				"element": "H" 
			},
			{
				"x": -0.8980502282,
				"y": 2.4896443202,
				"z": -4.4639405237,
				"element": "H" 
			},
			{
				"x": -1.5898317987,
				"y": 2.711093033,
				"z": -2.864351654,
				"element": "H" 
			},
			{
				"x": 0.0077347222,
				"y": 4.4266254545,
				"z": -2.8215490864,
				"element": "H" 
			},
			{
				"x": 1.1229092015,
				"y": 3.5926793084,
				"z": -3.8881176992,
				"element": "H" 
			},
			{
				"x": 2.1255761642,
				"y": 2.3611395026,
				"z": -2.1625103729,
				"element": "H" 
			},
			{
				"x": 1.6808940892,
				"y": 3.8004497049,
				"z": -1.258951084,
				"element": "H" 
			},
			{
				"x": -0.3829137554,
				"y": 2.673674972,
				"z": -0.4364663711,
				"element": "H" 
			},
			{
				"x": 1.0694430737,
				"y": 1.7518176,
				"z": -0.0455220594,
				"element": "H" 
			}
		],
		 "valence_orbital": [ 
			{
				"type": "occ",
				"energy": -0.27385,
				"method": "rhf"
			},
			{
				"type": "occ",
				"energy": -0.24885,
				"method": "rhf"
			},
			{
				"type": "occ",
				"energy": -0.24016,
				"method": "rhf"
			},
			{
				"type": "occ",
				"energy": -0.19732,
				"method": "rhf"
			},
			{
				"type": "occ",
				"energy": -0.17767,
				"method": "rhf"
			},
			{
				"type": "unocc",
				"energy": 0.00085,
				"method": "rhf"
			},
			{
				"type": "unocc",
				"energy": 0.00737,
				"method": "rhf"
			},
			{
				"type": "unocc",
				"energy": 0.07048,
				"method": "rhf"
			},
			{
				"type": "unocc",
				"energy": 0.07468,
				"method": "rhf"
			},
			{
				"type": "unocc",
				"energy": 0.08635,
				"method": "rhf"
			}
		],
		"cosmo_sigma_profile": { 
			"-0.025": 0.0,
			"-0.024": 0.0,
			"-0.023": 0.0,
			"-0.022": 0.0,
			"-0.021": 0.0,
			"-0.02": 0.0,
			"-0.019": 0.0,
			"-0.018": 0.0,
			"-0.017": 0.0,
			"-0.016": 0.602149113844,
			"-0.015": 0.984230725152,
			"-0.014": 0.793918630835,
			"-0.013": 1.00267523379,
			"-0.012": 2.50304727548,
			"-0.011": 3.05648087301,
			"-0.01": 2.18943959128,
			"-0.009": 4.05969197778,
			"-0.008": 3.08038025827,
			"-0.007": 3.1227579217,
			"-0.006": 3.71180188217,
			"-0.005": 8.87011301398,
			"-0.004": 15.4573108692,
			"-0.003": 31.2147133841,
			"-0.002": 40.3581909492,
			"-0.001": 28.6847399155,
			"0.0": 19.3298965356,
			"0.001": 14.0627480522,
			"0.002": 9.34238039704,
			"0.003": 8.82336637977,
			"0.004": 10.2951779599,
			"0.005": 10.8498162934,
			"0.006": 11.6368969622,
			"0.007": 7.58074794465,
			"0.008": 5.29076345655,
			"0.009": 4.85648713346,
			"0.01": 4.34406673112,
			"0.011": 3.65217387528,
			"0.012": 2.78352592748,
			"0.013": 2.56805573544,
			"0.014": 1.53758289824,
			"0.015": 0.531535119865,
			"0.016": 0.0891406525284,
			"0.017": 0.0,
			"0.018": 0.0,
			"0.019": 0.0,
			"0.02": 0.0,
			"0.021": 0.0,
			"0.022": 0.0,
			"0.023": 0.0,
			"0.024": 0.0,
			"0.025": 0.0
		}
	}
}
