{
	 "smiles": "CN(C)C1=NC(CC#N)=NC(=N)N1", 
	 "Tm": 413.15, 
	 "num_atms": 23, 
	 "gaussian": { 
		 "optdone": 1, 
		 "sigma_profile": "yes", 
		 "theory": "DFT", 
		 "functional": "B3LYP", 
		 "basiset": "6-31G**", 
		 "properties": { 
			 "R2extent": 3506.1316, 
			 "electric_dipole_moment_norm": 5.76847132436, 
			 "electric_quadrupole_moment_norm": 21.4838244268, 
			 "total_energy": -601.268379864, 
			 "HOMO_LUMO_gap": 0.18895, 
			 "cosmo_polarized_energy": -21.35, 
			 "cosmo_cavitation_energy": 28.11, 
			 "cosmo_dispersion_energy": -19.82, 
			 "cosmo_repulsion_energy": 1.59, 
			 "cosmo_total_nonelectrostatic_energy": 9.88, 
			 "SMD_solvation_energy": 3.1 
		},
		"coords": [
			{
				"x": -1.1225514332,
				"y": -1.4649483185,
				"z": 0.388007751,
				"element": "C" 
			},
			{
				"x": -0.4872043398,
				"y": -0.3250741886,
				"z": -0.272345751,
				"element": "N" 
			},
			{
				"x": -1.0538289655,
				"y": 0.1428095245,
				"z": -1.5304509666,
				"element": "C" 
			},
			{
				"x": 0.5448044261,
				"y": 0.3234062196,
				"z": 0.3181024723,
				"element": "C" 
			},
			{
				"x": 1.0515496578,
				"y": -0.1209710016,
				"z": 1.4632277816,
				"element": "N" 
			},
			{
				"x": 2.0700898122,
				"y": 0.6181914341,
				"z": 1.9694592553,
				"element": "C" 
			},
			{
				"x": 2.6601625162,
				"y": 0.095081204,
				"z": 3.2728328092,
				"element": "C" 
			},
			{
				"x": 1.6535700268,
				"y": -0.3586320487,
				"z": 4.2352665562,
				"element": "C" 
			},
			{
				"x": 0.8731801724,
				"y": -0.7158773769,
				"z": 5.0158965934,
				"element": "N" 
			},
			{
				"x": 2.6342155533,
				"y": 1.6895894564,
				"z": 1.4745964172,
				"element": "N" 
			},
			{
				"x": 2.1424088647,
				"y": 2.1590806509,
				"z": 0.2663914614,
				"element": "C" 
			},
			{
				"x": 2.5453118896,
				"y": 3.1698591125,
				"z": -0.403243626,
				"element": "N" 
			},
			{
				"x": 1.052972492,
				"y": 1.4312904174,
				"z": -0.2832834393,
				"element": "N" 
			},
			{
				"x": -0.601803784,
				"y": -1.6615355394,
				"z": 1.3223811812,
				"element": "H" 
			},
			{
				"x": -1.0695825859,
				"y": -2.3500616732,
				"z": -0.2552006601,
				"element": "H" 
			},
			{
				"x": -2.1744135072,
				"y": -1.2417749236,
				"z": 0.5987953275,
				"element": "H" 
			},
			{
				"x": -1.5556436376,
				"y": 1.113724645,
				"z": -1.4235320354,
				"element": "H" 
			},
			{
				"x": -1.794983936,
				"y": -0.5826114504,
				"z": -1.8662956892,
				"element": "H" 
			},
			{
				"x": -0.2891287281,
				"y": 0.2198238449,
				"z": -2.3124857403,
				"element": "H" 
			},
			{
				"x": 3.317335831,
				"y": -0.7532691248,
				"z": 3.0403867414,
				"element": "H" 
			},
			{
				"x": 3.2789194248,
				"y": 0.8780223044,
				"z": 3.7179402021,
				"element": "H" 
			},
			{
				"x": 3.3182143909,
				"y": 3.6041252355,
				"z": 0.1008378734,
				"element": "H" 
			},
			{
				"x": 0.6856058597,
				"y": 1.8099515965,
				"z": -1.1445845157,
				"element": "H" 
			}
		],
		 "valence_orbital": [ 
			{
				"type": "occ",
				"energy": -0.30852,
				"method": "rhf"
			},
			{
				"type": "occ",
				"energy": -0.2725,
				"method": "rhf"
			},
			{
				"type": "occ",
				"energy": -0.26514,
				"method": "rhf"
			},
			{
				"type": "occ",
				"energy": -0.26479,
				"method": "rhf"
			},
			{
				"type": "occ",
				"energy": -0.22488,
				"method": "rhf"
			},
			{
				"type": "unocc",
				"energy": -0.03593,
				"method": "rhf"
			},
			{
				"type": "unocc",
				"energy": 0.01372,
				"method": "rhf"
			},
			{
				"type": "unocc",
				"energy": 0.04363,
				"method": "rhf"
			},
			{
				"type": "unocc",
				"energy": 0.04744,
				"method": "rhf"
			},
			{
				"type": "unocc",
				"energy": 0.05565,
				"method": "rhf"
			}
		],
		"cosmo_sigma_profile": { 
			"-0.025": 0.0,
			"-0.024": 0.0,
			"-0.023": 0.0,
			"-0.022": 0.0,
			"-0.021": 0.0,
			"-0.02": 0.0,
			"-0.019": 0.0,
			"-0.018": 0.0,
			"-0.017": 0.0,
			"-0.016": 0.0,
			"-0.015": 0.303203148303,
			"-0.014": 1.17370854173,
			"-0.013": 1.07516993905,
			"-0.012": 1.05116794358,
			"-0.011": 1.17822375107,
			"-0.01": 3.01881777883,
			"-0.009": 5.44855125679,
			"-0.008": 8.34377654668,
			"-0.007": 9.21682711003,
			"-0.006": 15.462258897,
			"-0.005": 18.1877503941,
			"-0.004": 18.1722332163,
			"-0.003": 20.9700047019,
			"-0.002": 15.8825257572,
			"-0.001": 8.93421823992,
			"0.0": 9.01201030824,
			"0.001": 6.54429073599,
			"0.002": 6.10468222543,
			"0.003": 6.56846654835,
			"0.004": 7.40603235905,
			"0.005": 5.89078598437,
			"0.006": 6.83477502312,
			"0.007": 6.88151631164,
			"0.008": 8.76429561377,
			"0.009": 6.86235510885,
			"0.01": 5.72661965753,
			"0.011": 4.63437148974,
			"0.012": 4.51252129246,
			"0.013": 3.53028903519,
			"0.014": 2.31888881517,
			"0.015": 1.39099770978,
			"0.016": 0.661655390111,
			"0.017": 1.47933920873,
			"0.018": 0.597505711397,
			"0.019": 0.0714995376647,
			"0.02": 0.0,
			"0.021": 0.0,
			"0.022": 0.0,
			"0.023": 0.0,
			"0.024": 0.0,
			"0.025": 0.0
		}
	}
}
