{
	 "smiles": "O=C1OC(=O)C2=CC=CC=C12", 
	 "Tm": 404.15, 
	 "num_atms": 15, 
	 "gaussian": { 
		 "optdone": 1, 
		 "sigma_profile": "yes", 
		 "theory": "DFT", 
		 "functional": "B3LYP", 
		 "basiset": "6-31G**", 
		 "properties": { 
			 "R2extent": 2059.2433, 
			 "electric_dipole_moment_norm": 5.71674126054, 
			 "electric_quadrupole_moment_norm": 10.9171133579, 
			 "total_energy": -532.948164317, 
			 "HOMO_LUMO_gap": 0.19404, 
			 "cosmo_polarized_energy": -11.04, 
			 "cosmo_cavitation_energy": 20.62, 
			 "cosmo_dispersion_energy": -15.35, 
			 "cosmo_repulsion_energy": 1.22, 
			 "cosmo_total_nonelectrostatic_energy": 6.49, 
			 "SMD_solvation_energy": 5.51 
		},
		"coords": [
			{
				"x": -3.650802987,
				"y": 0.4441851789,
				"z": 0.1377374339,
				"element": "O" 
			},
			{
				"x": -2.7178611854,
				"y": -0.3073194021,
				"z": 0.0894673018,
				"element": "C" 
			},
			{
				"x": -2.7469654651,
				"y": -1.5740067577,
				"z": 0.6842688453,
				"element": "O" 
			},
			{
				"x": -1.5315699857,
				"y": -2.2362342414,
				"z": 0.4760056376,
				"element": "C" 
			},
			{
				"x": -1.3236061461,
				"y": -3.3397812868,
				"z": 0.8960176416,
				"element": "O" 
			},
			{
				"x": -0.6655966611,
				"y": -1.3220660708,
				"z": -0.3088370941,
				"element": "C" 
			},
			{
				"x": 0.6316946673,
				"y": -1.4886955616,
				"z": -0.7787251626,
				"element": "C" 
			},
			{
				"x": 1.1882250943,
				"y": -0.4276403223,
				"z": -1.5008109253,
				"element": "C" 
			},
			{
				"x": 0.4633350058,
				"y": 0.7509579174,
				"z": -1.7370973408,
				"element": "C" 
			},
			{
				"x": -0.8420318354,
				"y": 0.9074870334,
				"z": -1.2590823436,
				"element": "C" 
			},
			{
				"x": -1.3846120933,
				"y": -0.1529912435,
				"z": -0.5431699234,
				"element": "C" 
			},
			{
				"x": 1.1828153465,
				"y": -2.4040156823,
				"z": -0.5902344915,
				"element": "H" 
			},
			{
				"x": 2.1992894838,
				"y": -0.514266893,
				"z": -1.8869242571,
				"element": "H" 
			},
			{
				"x": 0.9271400312,
				"y": 1.5541162148,
				"z": -2.3015981443,
				"element": "H" 
			},
			{
				"x": -1.4113532699,
				"y": 1.8139711172,
				"z": -1.4358171777,
				"element": "H" 
			}
		],
		 "valence_orbital": [ 
			{
				"type": "occ",
				"energy": -0.3327,
				"method": "rhf"
			},
			{
				"type": "occ",
				"energy": -0.31274,
				"method": "rhf"
			},
			{
				"type": "occ",
				"energy": -0.29468,
				"method": "rhf"
			},
			{
				"type": "occ",
				"energy": -0.29401,
				"method": "rhf"
			},
			{
				"type": "occ",
				"energy": -0.28985,
				"method": "rhf"
			},
			{
				"type": "unocc",
				"energy": -0.09581,
				"method": "rhf"
			},
			{
				"type": "unocc",
				"energy": -0.06082,
				"method": "rhf"
			},
			{
				"type": "unocc",
				"energy": 0.01666,
				"method": "rhf"
			},
			{
				"type": "unocc",
				"energy": 0.05309,
				"method": "rhf"
			},
			{
				"type": "unocc",
				"energy": 0.0738,
				"method": "rhf"
			}
		],
		"cosmo_sigma_profile": { 
			"-0.025": 0.0,
			"-0.024": 0.0,
			"-0.023": 0.0,
			"-0.022": 0.0,
			"-0.021": 0.0,
			"-0.02": 0.0,
			"-0.019": 0.0,
			"-0.018": 0.0,
			"-0.017": 0.0,
			"-0.016": 0.0,
			"-0.015": 0.0,
			"-0.014": 0.0,
			"-0.013": 0.0,
			"-0.012": 0.0,
			"-0.011": 0.0,
			"-0.01": 0.0,
			"-0.009": 1.49363216635,
			"-0.008": 8.0673831122,
			"-0.007": 12.8647329748,
			"-0.006": 10.9171223429,
			"-0.005": 9.00750887,
			"-0.004": 9.46973983373,
			"-0.003": 10.4868811631,
			"-0.002": 11.914926659,
			"-0.001": 11.9625895677,
			"0.0": 14.1422947391,
			"0.001": 13.3284724298,
			"0.002": 5.50743517363,
			"0.003": 3.28180395348,
			"0.004": 2.94588929046,
			"0.005": 4.01973698588,
			"0.006": 5.27186705181,
			"0.007": 7.07633470109,
			"0.008": 6.62390238408,
			"0.009": 8.91756599349,
			"0.01": 8.83914430162,
			"0.011": 1.28893936788,
			"0.012": 0.0,
			"0.013": 0.0,
			"0.014": 0.0,
			"0.015": 0.0,
			"0.016": 0.0,
			"0.017": 0.0,
			"0.018": 0.0,
			"0.019": 0.0,
			"0.02": 0.0,
			"0.021": 0.0,
			"0.022": 0.0,
			"0.023": 0.0,
			"0.024": 0.0,
			"0.025": 0.0
		}
	}
}
