{
	 "smiles": "CC1=C(I)C(C)=NO1", 
	 "Tm": 327.15, 
	 "num_atms": 14, 
	 "gaussian": { 
		 "optdone": 1, 
		 "sigma_profile": "no", 
		 "theory": "DFT", 
		 "functional": "B3LYP", 
		 "basiset": "6-31G**", 
		 "properties": { 
			 "R2extent": 1211.1031, 
			 "electric_dipole_moment_norm": 1.94287996799, 
			 "electric_quadrupole_moment_norm": 8.30639095275, 
			 "total_energy": -335.465923517, 
			 "HOMO_LUMO_gap": 0.20254, 
			 "cosmo_polarized_energy": -82176.96, 
			 "cosmo_cavitation_energy": 21.26, 
			 "cosmo_dispersion_energy": -16.86, 
			 "cosmo_repulsion_energy": 1.37, 
			 "cosmo_total_nonelectrostatic_energy": 5.77, 
			 "SMD_solvation_energy": 3.05 
		},
		"coords": [
			{
				"x": 0.6485364809,
				"y": -1.9569464177,
				"z": 0.7117157669,
				"element": "C" 
			},
			{
				"x": -0.2812051211,
				"y": -0.7960871423,
				"z": 0.6370543956,
				"element": "C" 
			},
			{
				"x": -0.8551858345,
				"y": -0.1015068885,
				"z": -0.3899700425,
				"element": "C" 
			},
			{
				"x": -0.6143706271,
				"y": -0.4484957461,
				"z": -2.4270824553,
				"element": "I" 
			},
			{
				"x": -1.6505815467,
				"y": 0.9071668342,
				"z": 0.2394780107,
				"element": "C" 
			},
			{
				"x": -2.5036731285,
				"y": 1.9595167176,
				"z": -0.3916357429,
				"element": "C" 
			},
			{
				"x": -1.556720558,
				"y": 0.819318996,
				"z": 1.5474990635,
				"element": "N" 
			},
			{
				"x": -0.6923319049,
				"y": -0.2558035218,
				"z": 1.8016285311,
				"element": "O" 
			},
			{
				"x": 0.85840445,
				"y": -2.1962700517,
				"z": 1.7558453497,
				"element": "H" 
			},
			{
				"x": 0.2134010205,
				"y": -2.8374351556,
				"z": 0.2281251906,
				"element": "H" 
			},
			{
				"x": 1.5924374018,
				"y": -1.7345348353,
				"z": 0.2037319368,
				"element": "H" 
			},
			{
				"x": -1.9049738818,
				"y": 2.6096079867,
				"z": -1.0377986183,
				"element": "H" 
			},
			{
				"x": -3.2832349033,
				"y": 1.50709406,
				"z": -1.0130728907,
				"element": "H" 
			},
			{
				"x": -2.9752018474,
				"y": 2.5663751645,
				"z": 0.3832815048,
				"element": "H" 
			}
		],
		 "valence_orbital": [ 
			{
				"type": "occ",
				"energy": -0.32018,
				"method": "rhf"
			},
			{
				"type": "occ",
				"energy": -0.31082,
				"method": "rhf"
			},
			{
				"type": "occ",
				"energy": -0.2818,
				"method": "rhf"
			},
			{
				"type": "occ",
				"energy": -0.27824,
				"method": "rhf"
			},
			{
				"type": "occ",
				"energy": -0.24291,
				"method": "rhf"
			},
			{
				"type": "unocc",
				"energy": -0.04037,
				"method": "rhf"
			},
			{
				"type": "unocc",
				"energy": -0.01309,
				"method": "rhf"
			},
			{
				"type": "unocc",
				"energy": 0.03367,
				"method": "rhf"
			},
			{
				"type": "unocc",
				"energy": 0.04052,
				"method": "rhf"
			},
			{
				"type": "unocc",
				"energy": 0.04381,
				"method": "rhf"
			}
		],
		"cosmo_sigma_profile": { 
			"0.0": 0.0,
			"0.0": 0.0,
			"0.0": 0.0,
			"0.0": 0.0,
			"0.0": 0.0,
			"0.0": 0.0,
			"0.0": 0.0,
			"0.0": 0.0,
			"0.0": 0.0,
			"0.0": 0.0,
			"0.0": 0.0,
			"0.0": 0.0,
			"0.0": 0.0,
			"0.0": 0.0,
			"0.0": 0.0,
			"0.0": 0.0,
			"0.0": 0.0,
			"0.0": 0.0,
			"0.0": 0.0,
			"0.0": 0.0,
			"0.0": 0.0,
			"0.0": 0.0,
			"0.0": 0.0,
			"0.0": 0.0,
			"0.0": 0.0,
			"0.0": 0.0,
			"0.0": 0.0,
			"0.0": 0.0,
			"0.0": 0.0,
			"0.0": 0.0,
			"0.0": 0.0,
			"0.0": 0.0,
			"0.0": 0.0,
			"0.0": 0.0,
			"0.0": 0.0,
			"0.0": 0.0,
			"0.0": 0.0,
			"0.0": 0.0,
			"0.0": 0.0,
			"0.0": 0.0,
			"0.0": 0.0,
			"0.0": 0.0,
			"0.0": 0.0,
			"0.0": 0.0,
			"0.0": 0.0,
			"0.0": 0.0,
			"0.0": 0.0,
			"0.0": 0.0,
			"0.0": 0.0,
			"0.0": 0.0,
			"0.0": 0.0
		}
	}
}
