{
	 "smiles": "O=N(=O)C1CCCCC1", 
	 "Tm": 239.15, 
	 "num_atms": 20, 
	 "gaussian": { 
		 "optdone": 1, 
		 "sigma_profile": "yes", 
		 "theory": "DFT", 
		 "functional": "B3LYP", 
		 "basiset": "6-31G**", 
		 "properties": { 
			 "R2extent": 1386.2262, 
			 "electric_dipole_moment_norm": 4.06958755404, 
			 "electric_quadrupole_moment_norm": 7.10711325715, 
			 "total_energy": -440.379879041, 
			 "HOMO_LUMO_gap": 0.22338, 
			 "cosmo_polarized_energy": -7.05, 
			 "cosmo_cavitation_energy": 21.84, 
			 "cosmo_dispersion_energy": -16.22, 
			 "cosmo_repulsion_energy": 1.34, 
			 "cosmo_total_nonelectrostatic_energy": 6.96, 
			 "SMD_solvation_energy": 5.05 
		},
		"coords": [
			{
				"x": 0.4679385215,
				"y": -1.8946613938,
				"z": -1.1312868922,
				"element": "O" 
			},
			{
				"x": -0.4382281518,
				"y": -1.1283894957,
				"z": -1.4507381413,
				"element": "N" 
			},
			{
				"x": -1.0960291449,
				"y": -1.2012642529,
				"z": -2.4846848272,
				"element": "O" 
			},
			{
				"x": -0.8065742813,
				"y": -0.0290562785,
				"z": -0.4702262791,
				"element": "C" 
			},
			{
				"x": 0.4432897332,
				"y": 0.786231341,
				"z": -0.0782377133,
				"element": "C" 
			},
			{
				"x": 0.3141959729,
				"y": 1.3839910017,
				"z": 1.3422983202,
				"element": "C" 
			},
			{
				"x": -1.146371303,
				"y": 1.7141399064,
				"z": 1.6779538517,
				"element": "C" 
			},
			{
				"x": -2.0167293544,
				"y": 0.4333763518,
				"z": 1.6950409093,
				"element": "C" 
			},
			{
				"x": -1.4723409526,
				"y": -0.6681258328,
				"z": 0.7546925925,
				"element": "C" 
			},
			{
				"x": -1.529560257,
				"y": 0.5716056213,
				"z": -1.0242505036,
				"element": "H" 
			},
			{
				"x": 0.5915574521,
				"y": 1.5829348788,
				"z": -0.8151719405,
				"element": "H" 
			},
			{
				"x": 1.3129101277,
				"y": 0.1258873347,
				"z": -0.1290821561,
				"element": "H" 
			},
			{
				"x": 0.7006434937,
				"y": 0.6715367318,
				"z": 2.0815790114,
				"element": "H" 
			},
			{
				"x": 0.9426680258,
				"y": 2.2771121673,
				"z": 1.4195377539,
				"element": "H" 
			},
			{
				"x": -1.2151966971,
				"y": 2.2281027672,
				"z": 2.6423171709,
				"element": "H" 
			},
			{
				"x": -1.5322927884,
				"y": 2.4182583996,
				"z": 0.929005381,
				"element": "H" 
			},
			{
				"x": -3.0457859462,
				"y": 0.6839517105,
				"z": 1.4147808667,
				"element": "H" 
			},
			{
				"x": -2.0640863767,
				"y": 0.0255069477,
				"z": 2.7106947539,
				"element": "H" 
			},
			{
				"x": -0.7233927278,
				"y": -1.283165227,
				"z": 1.2639855161,
				"element": "H" 
			},
			{
				"x": -2.2790153458,
				"y": -1.3382726792,
				"z": 0.4406923259,
				"element": "H" 
			}
		],
		 "valence_orbital": [ 
			{
				"type": "occ",
				"energy": -0.323,
				"method": "rhf"
			},
			{
				"type": "occ",
				"energy": -0.32209,
				"method": "rhf"
			},
			{
				"type": "occ",
				"energy": -0.30572,
				"method": "rhf"
			},
			{
				"type": "occ",
				"energy": -0.29278,
				"method": "rhf"
			},
			{
				"type": "occ",
				"energy": -0.28387,
				"method": "rhf"
			},
			{
				"type": "unocc",
				"energy": -0.06049,
				"method": "rhf"
			},
			{
				"type": "unocc",
				"energy": 0.06398,
				"method": "rhf"
			},
			{
				"type": "unocc",
				"energy": 0.08289,
				"method": "rhf"
			},
			{
				"type": "unocc",
				"energy": 0.11617,
				"method": "rhf"
			},
			{
				"type": "unocc",
				"energy": 0.12542,
				"method": "rhf"
			}
		],
		"cosmo_sigma_profile": { 
			"-0.025": 0.0,
			"-0.024": 0.0,
			"-0.023": 0.0,
			"-0.022": 0.0,
			"-0.021": 0.0,
			"-0.02": 0.0,
			"-0.019": 0.0,
			"-0.018": 0.0,
			"-0.017": 0.0,
			"-0.016": 0.0,
			"-0.015": 0.0,
			"-0.014": 0.0,
			"-0.013": 0.0,
			"-0.012": 0.0,
			"-0.011": 0.0,
			"-0.01": 0.0,
			"-0.009": 0.0,
			"-0.008": 0.0,
			"-0.007": 0.635773199694,
			"-0.006": 4.48373853032,
			"-0.005": 8.43821220482,
			"-0.004": 13.5890844577,
			"-0.003": 26.5199342458,
			"-0.002": 26.283048981,
			"-0.001": 23.942280505,
			"0.0": 17.1656360838,
			"0.001": 7.97789973006,
			"0.002": 2.88751620411,
			"0.003": 2.39819898508,
			"0.004": 2.49689488458,
			"0.005": 3.05785475248,
			"0.006": 2.74330550844,
			"0.007": 5.9923896084,
			"0.008": 10.5149108703,
			"0.009": 6.39230077153,
			"0.01": 3.24076945161,
			"0.011": 0.453859027311,
			"0.012": 0.0,
			"0.013": 0.0,
			"0.014": 0.0,
			"0.015": 0.0,
			"0.016": 0.0,
			"0.017": 0.0,
			"0.018": 0.0,
			"0.019": 0.0,
			"0.02": 0.0,
			"0.021": 0.0,
			"0.022": 0.0,
			"0.023": 0.0,
			"0.024": 0.0,
			"0.025": 0.0
		}
	}
}
