{
	 "smiles": "CC(C)(C)C1=CC=C(OC(C)(C)C(O)=O)C=C1", 
	 "Tm": 370.65, 
	 "num_atms": 37, 
	 "gaussian": { 
		 "optdone": 1, 
		 "sigma_profile": "yes", 
		 "theory": "DFT", 
		 "functional": "B3LYP", 
		 "basiset": "6-31G**", 
		 "properties": { 
			 "R2extent": 6385.3398, 
			 "electric_dipole_moment_norm": 2.31697187294, 
			 "electric_quadrupole_moment_norm": 13.7475624963, 
			 "total_energy": -771.237519115, 
			 "HOMO_LUMO_gap": 0.22217, 
			 "cosmo_polarized_energy": -11.37, 
			 "cosmo_cavitation_energy": 38.15, 
			 "cosmo_dispersion_energy": -26.22, 
			 "cosmo_repulsion_energy": 2.03, 
			 "cosmo_total_nonelectrostatic_energy": 13.96, 
			 "SMD_solvation_energy": 7.9 
		},
		"coords": [
			{
				"x": -1.3799690434,
				"y": -0.0809936014,
				"z": -3.2521092367,
				"element": "C" 
			},
			{
				"x": -0.7245132824,
				"y": -1.2987352624,
				"z": -2.5579113552,
				"element": "C" 
			},
			{
				"x": -1.6870538045,
				"y": -2.4952595532,
				"z": -2.6804134444,
				"element": "C" 
			},
			{
				"x": 0.5882403547,
				"y": -1.6602658662,
				"z": -3.292996452,
				"element": "C" 
			},
			{
				"x": -0.41275983,
				"y": -0.9469948624,
				"z": -1.0915830482,
				"element": "C" 
			},
			{
				"x": -0.949393326,
				"y": -1.6514217586,
				"z": -0.0052572365,
				"element": "C" 
			},
			{
				"x": -0.6487224465,
				"y": -1.3165779768,
				"z": 1.3183014846,
				"element": "C" 
			},
			{
				"x": 0.2008399076,
				"y": -0.2423827467,
				"z": 1.583459736,
				"element": "C" 
			},
			{
				"x": 0.5960928506,
				"y": 0.0972174063,
				"z": 2.8677492193,
				"element": "O" 
			},
			{
				"x": -0.2948936832,
				"y": 0.7750735993,
				"z": 3.7608650966,
				"element": "C" 
			},
			{
				"x": -1.1930752028,
				"y": 1.7962309158,
				"z": 3.0469075487,
				"element": "C" 
			},
			{
				"x": 0.6335555102,
				"y": 1.4662676946,
				"z": 4.7740735972,
				"element": "C" 
			},
			{
				"x": -1.152561134,
				"y": -0.2539066787,
				"z": 4.5260526626,
				"element": "C" 
			},
			{
				"x": -1.9975532035,
				"y": 0.3626811913,
				"z": 5.3915371552,
				"element": "O" 
			},
			{
				"x": -1.0984342737,
				"y": -1.457874228,
				"z": 4.428928585,
				"element": "O" 
			},
			{
				"x": 0.7566932599,
				"y": 0.4722036939,
				"z": 0.5180144676,
				"element": "C" 
			},
			{
				"x": 0.45300835,
				"y": 0.1199648123,
				"z": -0.7939103722,
				"element": "C" 
			},
			{
				"x": -1.6016311881,
				"y": -0.3113811632,
				"z": -4.3005265916,
				"element": "H" 
			},
			{
				"x": -2.3186284705,
				"y": 0.1921709028,
				"z": -2.7586628262,
				"element": "H" 
			},
			{
				"x": -0.727156143,
				"y": 0.7969194122,
				"z": -3.2356531216,
				"element": "H" 
			},
			{
				"x": -2.6512521022,
				"y": -2.2933873912,
				"z": -2.2022319504,
				"element": "H" 
			},
			{
				"x": -1.2675499083,
				"y": -3.4030363685,
				"z": -2.2345237512,
				"element": "H" 
			},
			{
				"x": -1.8808293421,
				"y": -2.7063005913,
				"z": -3.7372110326,
				"element": "H" 
			},
			{
				"x": 0.3840828421,
				"y": -1.9085031055,
				"z": -4.3409127764,
				"element": "H" 
			},
			{
				"x": 1.0720168295,
				"y": -2.5247662215,
				"z": -2.826699988,
				"element": "H" 
			},
			{
				"x": 1.3030798197,
				"y": -0.8320597736,
				"z": -3.2808766711,
				"element": "H" 
			},
			{
				"x": -1.6121890191,
				"y": -2.4922220177,
				"z": -0.1761524796,
				"element": "H" 
			},
			{
				"x": -1.0499423568,
				"y": -1.8920147526,
				"z": 2.1435037898,
				"element": "H" 
			},
			{
				"x": -1.8010067267,
				"y": 2.3340139167,
				"z": 3.7767163584,
				"element": "H" 
			},
			{
				"x": -0.5687840929,
				"y": 2.5133200039,
				"z": 2.506661446,
				"element": "H" 
			},
			{
				"x": -1.8589763325,
				"y": 1.3130628252,
				"z": 2.3277212369,
				"element": "H" 
			},
			{
				"x": 1.3024587473,
				"y": 0.730852134,
				"z": 5.2292089517,
				"element": "H" 
			},
			{
				"x": 1.2432509086,
				"y": 2.2065841869,
				"z": 4.2496306423,
				"element": "H" 
			},
			{
				"x": 0.0580752271,
				"y": 1.961448098,
				"z": 5.5587225987,
				"element": "H" 
			},
			{
				"x": -2.4778837886,
				"y": -0.3484448025,
				"z": 5.848529811,
				"element": "H" 
			},
			{
				"x": 1.4336808782,
				"y": 1.2932498634,
				"z": 0.733176367,
				"element": "H" 
			},
			{
				"x": 0.9028832153,
				"y": 0.6930680653,
				"z": -1.5996284206,
				"element": "H" 
			}
		],
		 "valence_orbital": [ 
			{
				"type": "occ",
				"energy": -0.31288,
				"method": "rhf"
			},
			{
				"type": "occ",
				"energy": -0.28438,
				"method": "rhf"
			},
			{
				"type": "occ",
				"energy": -0.26817,
				"method": "rhf"
			},
			{
				"type": "occ",
				"energy": -0.24304,
				"method": "rhf"
			},
			{
				"type": "occ",
				"energy": -0.22247,
				"method": "rhf"
			},
			{
				"type": "unocc",
				"energy": -0.0003,
				"method": "rhf"
			},
			{
				"type": "unocc",
				"energy": 0.00628,
				"method": "rhf"
			},
			{
				"type": "unocc",
				"energy": 0.01044,
				"method": "rhf"
			},
			{
				"type": "unocc",
				"energy": 0.06936,
				"method": "rhf"
			},
			{
				"type": "unocc",
				"energy": 0.08292,
				"method": "rhf"
			}
		],
		"cosmo_sigma_profile": { 
			"-0.025": 0.0,
			"-0.024": 0.0,
			"-0.023": 0.0,
			"-0.022": 0.0,
			"-0.021": 0.0,
			"-0.02": 0.0,
			"-0.019": 0.112542566224,
			"-0.018": 0.847771733472,
			"-0.017": 0.988983423695,
			"-0.016": 0.748361073525,
			"-0.015": 0.895855278118,
			"-0.014": 0.840668713862,
			"-0.013": 0.104743904251,
			"-0.012": 1.04524178433,
			"-0.011": 1.14358917417,
			"-0.01": 0.559858947916,
			"-0.009": 0.240719840392,
			"-0.008": 0.521260122483,
			"-0.007": 1.23133852148,
			"-0.006": 1.87169664928,
			"-0.005": 8.3878889984,
			"-0.004": 21.812013633,
			"-0.003": 33.0669760131,
			"-0.002": 37.9373540058,
			"-0.001": 36.8341232725,
			"0.0": 32.584411207,
			"0.001": 31.442855953,
			"0.002": 19.1811928279,
			"0.003": 9.77898873657,
			"0.004": 12.6356855799,
			"0.005": 12.1585271234,
			"0.006": 9.05869907781,
			"0.007": 3.70748688081,
			"0.008": 3.46578660481,
			"0.009": 2.7574896556,
			"0.01": 3.39281435273,
			"0.011": 5.52048866649,
			"0.012": 2.49655403267,
			"0.013": 0.198546828384,
			"0.014": 0.0,
			"0.015": 0.0,
			"0.016": 0.0,
			"0.017": 0.0,
			"0.018": 0.0,
			"0.019": 0.0,
			"0.02": 0.0,
			"0.021": 0.0,
			"0.022": 0.0,
			"0.023": 0.0,
			"0.024": 0.0,
			"0.025": 0.0
		}
	}
}
