{
	 "smiles": "[O-][N+](=O)C1=CC(Br)=C(C=C1)S(Cl)(=O)=O", 
	 "Tm": 344.15, 
	 "num_atms": 17, 
	 "gaussian": { 
		 "optdone": 1, 
		 "sigma_profile": "yes", 
		 "theory": "DFT", 
		 "functional": "B3LYP", 
		 "basiset": "6-31G**", 
		 "properties": { 
			 "R2extent": 5423.831, 
			 "electric_dipole_moment_norm": 0.986479650069, 
			 "electric_quadrupole_moment_norm": 23.1089509877, 
			 "total_energy": -4015.68710688, 
			 "HOMO_LUMO_gap": 0.16236, 
			 "cosmo_polarized_energy": -11.32, 
			 "cosmo_cavitation_energy": 28.27, 
			 "cosmo_dispersion_energy": -21.53, 
			 "cosmo_repulsion_energy": 1.63, 
			 "cosmo_total_nonelectrostatic_energy": 8.37, 
			 "SMD_solvation_energy": 4.95 
		},
		"coords": [
			{
				"x": 3.4835939602,
				"y": -1.3382111326,
				"z": 0.0633584166,
				"element": "O" 
			},
			{
				"x": 2.7274057542,
				"y": -0.3990456856,
				"z": 0.2935062559,
				"element": "N" 
			},
			{
				"x": 3.0743356249,
				"y": 0.7432277602,
				"z": 0.5790442614,
				"element": "O" 
			},
			{
				"x": 1.2739154752,
				"y": -0.67026371,
				"z": 0.2196911066,
				"element": "C" 
			},
			{
				"x": 0.3943893494,
				"y": 0.3756807845,
				"z": 0.4729685044,
				"element": "C" 
			},
			{
				"x": -0.9789749042,
				"y": 0.1390783197,
				"z": 0.4093408315,
				"element": "C" 
			},
			{
				"x": -2.1282164846,
				"y": 1.6064558083,
				"z": 0.741943604,
				"element": "Br" 
			},
			{
				"x": -1.430301344,
				"y": -1.1519592096,
				"z": 0.0899172422,
				"element": "C" 
			},
			{
				"x": -0.5251242001,
				"y": -2.1876437562,
				"z": -0.1666341424,
				"element": "C" 
			},
			{
				"x": 0.8442675159,
				"y": -1.9530373153,
				"z": -0.1011181978,
				"element": "C" 
			},
			{
				"x": -3.1745956769,
				"y": -1.6290289028,
				"z": 0.02886867,
				"element": "S" 
			},
			{
				"x": -3.8136421293,
				"y": -0.6308779623,
				"z": -1.7220518719,
				"element": "Cl" 
			},
			{
				"x": -3.2310101711,
				"y": -3.0535563906,
				"z": -0.2710742503,
				"element": "O" 
			},
			{
				"x": -3.8958450248,
				"y": -1.0539909484,
				"z": 1.1525099357,
				"element": "O" 
			},
			{
				"x": 0.7797648227,
				"y": 1.3572411072,
				"z": 0.7145923781,
				"element": "H" 
			},
			{
				"x": -0.9065815942,
				"y": -3.1710868727,
				"z": -0.4131286121,
				"element": "H" 
			},
			{
				"x": 1.5673190267,
				"y": -2.7353818937,
				"z": -0.291834132,
				"element": "H" 
			}
		],
		 "valence_orbital": [ 
			{
				"type": "occ",
				"energy": -0.33051,
				"method": "rhf"
			},
			{
				"type": "occ",
				"energy": -0.32332,
				"method": "rhf"
			},
			{
				"type": "occ",
				"energy": -0.32145,
				"method": "rhf"
			},
			{
				"type": "occ",
				"energy": -0.31625,
				"method": "rhf"
			},
			{
				"type": "occ",
				"energy": -0.29211,
				"method": "rhf"
			},
			{
				"type": "unocc",
				"energy": -0.12975,
				"method": "rhf"
			},
			{
				"type": "unocc",
				"energy": -0.09665,
				"method": "rhf"
			},
			{
				"type": "unocc",
				"energy": -0.07003,
				"method": "rhf"
			},
			{
				"type": "unocc",
				"energy": -0.05037,
				"method": "rhf"
			},
			{
				"type": "unocc",
				"energy": -0.03208,
				"method": "rhf"
			}
		],
		"cosmo_sigma_profile": { 
			"-0.025": 0.0,
			"-0.024": 0.0,
			"-0.023": 0.0,
			"-0.022": 0.0,
			"-0.021": 0.0,
			"-0.02": 0.0,
			"-0.019": 0.0,
			"-0.018": 0.0,
			"-0.017": 0.0,
			"-0.016": 0.0,
			"-0.015": 0.0,
			"-0.014": 0.0,
			"-0.013": 0.0,
			"-0.012": 0.0,
			"-0.011": 0.011878420693,
			"-0.01": 2.05092390755,
			"-0.009": 4.98251806366,
			"-0.008": 6.14031863298,
			"-0.007": 7.78037585087,
			"-0.006": 9.15048293476,
			"-0.005": 11.6707620737,
			"-0.004": 18.7507846096,
			"-0.003": 23.5313357722,
			"-0.002": 16.5988287606,
			"-0.001": 11.3975218997,
			"0.0": 12.7807174921,
			"0.001": 14.1554425629,
			"0.002": 23.3954236488,
			"0.003": 14.791879665,
			"0.004": 7.0306134986,
			"0.005": 7.31353919889,
			"0.006": 12.5909405153,
			"0.007": 15.9409680172,
			"0.008": 11.6257690323,
			"0.009": 2.4758961633,
			"0.01": 0.0286386823356,
			"0.011": 0.0,
			"0.012": 0.0,
			"0.013": 0.0,
			"0.014": 0.0,
			"0.015": 0.0,
			"0.016": 0.0,
			"0.017": 0.0,
			"0.018": 0.0,
			"0.019": 0.0,
			"0.02": 0.0,
			"0.021": 0.0,
			"0.022": 0.0,
			"0.023": 0.0,
			"0.024": 0.0,
			"0.025": 0.0
		}
	}
}
