{
	 "smiles": "CN(C)C1=CC=C(C=C(/C#N)C2=NC(=CS2)C2=C3C=CC=CC3=CC=C2)C=C1", 
	 "Tm": 401.15, 
	 "num_atms": 47, 
	 "gaussian": { 
		 "optdone": 1, 
		 "sigma_profile": "yes", 
		 "theory": "DFT", 
		 "functional": "B3LYP", 
		 "basiset": "6-31G**", 
		 "properties": { 
			 "R2extent": 17416.446, 
			 "electric_dipole_moment_norm": 6.30759526761, 
			 "electric_quadrupole_moment_norm": 50.3236343488, 
			 "total_energy": -1488.42775519, 
			 "HOMO_LUMO_gap": 0.11831, 
			 "cosmo_polarized_energy": -16.71, 
			 "cosmo_cavitation_energy": 53.19, 
			 "cosmo_dispersion_energy": -37.58, 
			 "cosmo_repulsion_energy": 2.73, 
			 "cosmo_total_nonelectrostatic_energy": 18.34, 
			 "SMD_solvation_energy": 8.42 
		},
		"coords": [
			{
				"x": 3.6397061314,
				"y": -6.121466885,
				"z": -1.1514178806,
				"element": "C" 
			},
			{
				"x": 2.5519749436,
				"y": -6.0839312389,
				"z": -0.1864183621,
				"element": "N" 
			},
			{
				"x": 2.1541865439,
				"y": -7.3067323789,
				"z": 0.4949346141,
				"element": "C" 
			},
			{
				"x": 1.9124983848,
				"y": -4.8983174936,
				"z": 0.0876699061,
				"element": "C" 
			},
			{
				"x": 2.2836280689,
				"y": -3.6910606115,
				"z": -0.5573467053,
				"element": "C" 
			},
			{
				"x": 1.6286325174,
				"y": -2.5081759355,
				"z": -0.2690232822,
				"element": "C" 
			},
			{
				"x": 0.5715389508,
				"y": -2.4330043123,
				"z": 0.6677381155,
				"element": "C" 
			},
			{
				"x": -0.0331146765,
				"y": -1.1421147276,
				"z": 0.884637226,
				"element": "C" 
			},
			{
				"x": -1.0468481221,
				"y": -0.7262394249,
				"z": 1.7094441077,
				"element": "C" 
			},
			{
				"x": -1.751165168,
				"y": -1.5921830173,
				"z": 2.6004316142,
				"element": "C" 
			},
			{
				"x": -2.3445297077,
				"y": -2.2717272532,
				"z": 3.3386514734,
				"element": "N" 
			},
			{
				"x": -1.4573892831,
				"y": 0.683936377,
				"z": 1.7071680949,
				"element": "C" 
			},
			{
				"x": -0.9421486453,
				"y": 1.5983982483,
				"z": 0.9274980244,
				"element": "N" 
			},
			{
				"x": -1.4966538977,
				"y": 2.8417498757,
				"z": 1.1478400589,
				"element": "C" 
			},
			{
				"x": -2.4717733749,
				"y": 2.866571505,
				"z": 2.1177701237,
				"element": "C" 
			},
			{
				"x": -2.7048531593,
				"y": 1.2938901284,
				"z": 2.7964275612,
				"element": "S" 
			},
			{
				"x": -1.031418642,
				"y": 4.0413957123,
				"z": 0.4118147277,
				"element": "C" 
			},
			{
				"x": -0.8093396795,
				"y": 4.040932706,
				"z": -1.009450331,
				"element": "C" 
			},
			{
				"x": -1.0271891215,
				"y": 2.9025630072,
				"z": -1.8348145758,
				"element": "C" 
			},
			{
				"x": -0.8141243738,
				"y": 2.958481408,
				"z": -3.1947255018,
				"element": "C" 
			},
			{
				"x": -0.3719007174,
				"y": 4.1539874592,
				"z": -3.8081433462,
				"element": "C" 
			},
			{
				"x": -0.1591907263,
				"y": 5.2765969751,
				"z": -3.0425727715,
				"element": "C" 
			},
			{
				"x": -0.3747948254,
				"y": 5.2574930278,
				"z": -1.6376725302,
				"element": "C" 
			},
			{
				"x": -0.178361336,
				"y": 6.4251160735,
				"z": -0.8532150025,
				"element": "C" 
			},
			{
				"x": -0.404265504,
				"y": 6.4027583812,
				"z": 0.5023843789,
				"element": "C" 
			},
			{
				"x": -0.825858603,
				"y": 5.2098511992,
				"z": 1.1290646906,
				"element": "C" 
			},
			{
				"x": 0.206261018,
				"y": -3.6417117855,
				"z": 1.3072427639,
				"element": "C" 
			},
			{
				"x": 0.8513596508,
				"y": -4.8321677559,
				"z": 1.0293739655,
				"element": "C" 
			},
			{
				"x": 4.4757269307,
				"y": -5.4767328687,
				"z": -0.8494399862,
				"element": "H" 
			},
			{
				"x": 4.0143356348,
				"y": -7.1421542444,
				"z": -1.2303454356,
				"element": "H" 
			},
			{
				"x": 3.3097506776,
				"y": -5.8046466499,
				"z": -2.1495569591,
				"element": "H" 
			},
			{
				"x": 1.1060482177,
				"y": -7.5629677365,
				"z": 0.2930654042,
				"element": "H" 
			},
			{
				"x": 2.2816216167,
				"y": -7.2279806184,
				"z": 1.5825197018,
				"element": "H" 
			},
			{
				"x": 2.774801769,
				"y": -8.1309087324,
				"z": 0.1428026918,
				"element": "H" 
			},
			{
				"x": 3.085929896,
				"y": -3.6809487862,
				"z": -1.2842995986,
				"element": "H" 
			},
			{
				"x": 1.9387626326,
				"y": -1.6009142621,
				"z": -0.7813354418,
				"element": "H" 
			},
			{
				"x": 0.3868231634,
				"y": -0.3356297189,
				"z": 0.2872901045,
				"element": "H" 
			},
			{
				"x": -3.0693949429,
				"y": 3.7073558304,
				"z": 2.4379802692,
				"element": "H" 
			},
			{
				"x": -1.3516553487,
				"y": 1.977688388,
				"z": -1.3754576929,
				"element": "H" 
			},
			{
				"x": -0.9886940665,
				"y": 2.0754296522,
				"z": -3.8030215832,
				"element": "H" 
			},
			{
				"x": -0.2057615948,
				"y": 4.1831105412,
				"z": -4.8812749909,
				"element": "H" 
			},
			{
				"x": 0.1738566257,
				"y": 6.2035775768,
				"z": -3.5026514267,
				"element": "H" 
			},
			{
				"x": 0.1539160854,
				"y": 7.3356569901,
				"z": -1.3452045933,
				"element": "H" 
			},
			{
				"x": -0.2483851681,
				"y": 7.2950873894,
				"z": 1.1015547163,
				"element": "H" 
			},
			{
				"x": -0.9689618091,
				"y": 5.197304618,
				"z": 2.2053042761,
				"element": "H" 
			},
			{
				"x": -0.5958113311,
				"y": -3.6527982712,
				"z": 2.0346936369,
				"element": "H" 
			},
			{
				"x": 0.5291243653,
				"y": -5.7255183613,
				"z": 1.5494857497,
				"element": "H" 
			}
		],
		 "valence_orbital": [ 
			{
				"type": "occ",
				"energy": -0.26066,
				"method": "rhf"
			},
			{
				"type": "occ",
				"energy": -0.23934,
				"method": "rhf"
			},
			{
				"type": "occ",
				"energy": -0.23773,
				"method": "rhf"
			},
			{
				"type": "occ",
				"energy": -0.20767,
				"method": "rhf"
			},
			{
				"type": "occ",
				"energy": -0.19128,
				"method": "rhf"
			},
			{
				"type": "unocc",
				"energy": -0.07297,
				"method": "rhf"
			},
			{
				"type": "unocc",
				"energy": -0.0408,
				"method": "rhf"
			},
			{
				"type": "unocc",
				"energy": -0.00869,
				"method": "rhf"
			},
			{
				"type": "unocc",
				"energy": -0.00532,
				"method": "rhf"
			},
			{
				"type": "unocc",
				"energy": -0.00414,
				"method": "rhf"
			}
		],
		"cosmo_sigma_profile": { 
			"-0.025": 0.0,
			"-0.024": 0.0,
			"-0.023": 0.0,
			"-0.022": 0.0,
			"-0.021": 0.0,
			"-0.02": 0.0,
			"-0.019": 0.0,
			"-0.018": 0.0,
			"-0.017": 0.0,
			"-0.016": 0.0,
			"-0.015": 0.0,
			"-0.014": 0.0,
			"-0.013": 0.0,
			"-0.012": 0.0,
			"-0.011": 0.0,
			"-0.01": 0.0110527853592,
			"-0.009": 1.13610589017,
			"-0.008": 3.7161005022,
			"-0.007": 6.77235557251,
			"-0.006": 21.6545448751,
			"-0.005": 34.0689731242,
			"-0.004": 36.2117863151,
			"-0.003": 33.5146147452,
			"-0.002": 34.7806023937,
			"-0.001": 29.8459402191,
			"0.0": 29.8870836061,
			"0.001": 35.6137161326,
			"0.002": 40.5709423231,
			"0.003": 33.3636745068,
			"0.004": 38.1658138277,
			"0.005": 23.1464458242,
			"0.006": 5.85871797064,
			"0.007": 3.56442673675,
			"0.008": 4.24321325521,
			"0.009": 3.32353529598,
			"0.01": 3.83795549037,
			"0.011": 2.73197015787,
			"0.012": 2.45671102821,
			"0.013": 1.55889902592,
			"0.014": 0.0620970019039,
			"0.015": 0.0,
			"0.016": 0.0,
			"0.017": 0.0,
			"0.018": 0.0,
			"0.019": 0.0,
			"0.02": 0.0,
			"0.021": 0.0,
			"0.022": 0.0,
			"0.023": 0.0,
			"0.024": 0.0,
			"0.025": 0.0
		}
	}
}
