{
	 "smiles": "O=C1NC=CN(C2CC2)C1=O", 
	 "Tm": 435.15, 
	 "num_atms": 19, 
	 "gaussian": { 
		 "optdone": 1, 
		 "sigma_profile": "yes", 
		 "theory": "DFT", 
		 "functional": "B3LYP", 
		 "basiset": "6-31G**", 
		 "properties": { 
			 "R2extent": 2453.9276, 
			 "electric_dipole_moment_norm": 6.43986577112, 
			 "electric_quadrupole_moment_norm": 23.2816082417, 
			 "total_energy": -531.482983756, 
			 "HOMO_LUMO_gap": 0.17517, 
			 "cosmo_polarized_energy": -21.36, 
			 "cosmo_cavitation_energy": 23.07, 
			 "cosmo_dispersion_energy": -17.0, 
			 "cosmo_repulsion_energy": 1.37, 
			 "cosmo_total_nonelectrostatic_energy": 7.45, 
			 "SMD_solvation_energy": 5.55 
		},
		"coords": [
			{
				"x": -2.362626164,
				"y": 1.5519036094,
				"z": -3.4331149083,
				"element": "O" 
			},
			{
				"x": -1.6816936398,
				"y": 0.6819554159,
				"z": -2.9225062126,
				"element": "C" 
			},
			{
				"x": -0.7985406559,
				"y": -0.0947504448,
				"z": -3.6481771614,
				"element": "N" 
			},
			{
				"x": 0.0008877075,
				"y": -1.0957826759,
				"z": -3.1076660388,
				"element": "C" 
			},
			{
				"x": -0.0395774869,
				"y": -1.3391494967,
				"z": -1.7879101912,
				"element": "C" 
			},
			{
				"x": -0.8695114533,
				"y": -0.5952272299,
				"z": -0.943540923,
				"element": "N" 
			},
			{
				"x": -0.9367421457,
				"y": -0.9171161746,
				"z": 0.4680766074,
				"element": "C" 
			},
			{
				"x": -0.5171209717,
				"y": 0.1123974742,
				"z": 1.4756491134,
				"element": "C" 
			},
			{
				"x": 0.3443281084,
				"y": -1.1041304812,
				"z": 1.2426327889,
				"element": "C" 
			},
			{
				"x": -1.7587931645,
				"y": 0.368170546,
				"z": -1.4233158401,
				"element": "C" 
			},
			{
				"x": -2.5536923785,
				"y": 0.9445753503,
				"z": -0.7044574205,
				"element": "O" 
			},
			{
				"x": -0.7650827101,
				"y": 0.1107902534,
				"z": -4.6385342191,
				"element": "H" 
			},
			{
				"x": 0.632546171,
				"y": -1.6480220104,
				"z": -3.7887946267,
				"element": "H" 
			},
			{
				"x": 0.5584076624,
				"y": -2.105559762,
				"z": -1.3175395504,
				"element": "H" 
			},
			{
				"x": -1.7854076246,
				"y": -1.5457728605,
				"z": 0.7281716732,
				"element": "H" 
			},
			{
				"x": -0.1607149934,
				"y": 1.0621746442,
				"z": 1.0926972828,
				"element": "H" 
			},
			{
				"x": -1.1005799096,
				"y": 0.1844872763,
				"z": 2.387212539,
				"element": "H" 
			},
			{
				"x": 1.2838962589,
				"y": -0.9570960727,
				"z": 0.7186592393,
				"element": "H" 
			},
			{
				"x": 0.3673173897,
				"y": -1.889147361,
				"z": 1.9919578479,
				"element": "H" 
			}
		],
		 "valence_orbital": [ 
			{
				"type": "occ",
				"energy": -0.31552,
				"method": "rhf"
			},
			{
				"type": "occ",
				"energy": -0.29204,
				"method": "rhf"
			},
			{
				"type": "occ",
				"energy": -0.27618,
				"method": "rhf"
			},
			{
				"type": "occ",
				"energy": -0.24885,
				"method": "rhf"
			},
			{
				"type": "occ",
				"energy": -0.21016,
				"method": "rhf"
			},
			{
				"type": "unocc",
				"energy": -0.03499,
				"method": "rhf"
			},
			{
				"type": "unocc",
				"energy": 0.00405,
				"method": "rhf"
			},
			{
				"type": "unocc",
				"energy": 0.06306,
				"method": "rhf"
			},
			{
				"type": "unocc",
				"energy": 0.08755,
				"method": "rhf"
			},
			{
				"type": "unocc",
				"energy": 0.10163,
				"method": "rhf"
			}
		],
		"cosmo_sigma_profile": { 
			"-0.025": 0.0,
			"-0.024": 0.0,
			"-0.023": 0.0,
			"-0.022": 0.0,
			"-0.021": 0.0,
			"-0.02": 0.0,
			"-0.019": 0.0,
			"-0.018": 0.0,
			"-0.017": 0.27123411734,
			"-0.016": 1.23854786288,
			"-0.015": 1.65485907586,
			"-0.014": 0.721244664249,
			"-0.013": 0.886013800346,
			"-0.012": 1.3689608569,
			"-0.011": 1.25446271173,
			"-0.01": 1.49411039577,
			"-0.009": 3.71364390327,
			"-0.008": 4.71148396267,
			"-0.007": 5.52417940671,
			"-0.006": 9.68747693284,
			"-0.005": 16.8411249729,
			"-0.004": 15.2023250989,
			"-0.003": 15.3474115517,
			"-0.002": 13.4454103342,
			"-0.001": 13.1587844454,
			"0.0": 10.3993678867,
			"0.001": 9.65353218604,
			"0.002": 5.70747049608,
			"0.003": 6.40682209575,
			"0.004": 3.94387710071,
			"0.005": 1.92779407604,
			"0.006": 1.86823707678,
			"0.007": 2.75684992428,
			"0.008": 1.83855754737,
			"0.009": 1.80354794939,
			"0.01": 2.92057370977,
			"0.011": 4.21713532143,
			"0.012": 6.09067843234,
			"0.013": 10.1711654654,
			"0.014": 3.61571664591,
			"0.015": 1.9494618322,
			"0.016": 1.37900540015,
			"0.017": 0.368205001896,
			"0.018": 0.0,
			"0.019": 0.0,
			"0.02": 0.0,
			"0.021": 0.0,
			"0.022": 0.0,
			"0.023": 0.0,
			"0.024": 0.0,
			"0.025": 0.0
		}
	}
}
