{
	 "smiles": "S=C=NC1=C2C=CC=NC2=CC=C1", 
	 "Tm": 334.15, 
	 "num_atms": 19, 
	 "gaussian": { 
		 "optdone": 1, 
		 "sigma_profile": "yes", 
		 "theory": "DFT", 
		 "functional": "B3LYP", 
		 "basiset": "6-31G**", 
		 "properties": { 
			 "R2extent": 3745.1222, 
			 "electric_dipole_moment_norm": 1.71620487705, 
			 "electric_quadrupole_moment_norm": 20.2523578857, 
			 "total_energy": -892.369992656, 
			 "HOMO_LUMO_gap": 0.15152, 
			 "cosmo_polarized_energy": -7.72, 
			 "cosmo_cavitation_energy": 26.59, 
			 "cosmo_dispersion_energy": -19.9, 
			 "cosmo_repulsion_energy": 1.52, 
			 "cosmo_total_nonelectrostatic_energy": 8.2, 
			 "SMD_solvation_energy": 3.45 
		},
		"coords": [
			{
				"x": 3.944842308,
				"y": -3.7711001321,
				"z": -1.353211187,
				"element": "S" 
			},
			{
				"x": 2.9582629288,
				"y": -2.8156862287,
				"z": -0.5450929316,
				"element": "C" 
			},
			{
				"x": 2.2233242098,
				"y": -2.0999198656,
				"z": 0.0531601803,
				"element": "N" 
			},
			{
				"x": 1.3693784329,
				"y": -1.2923689998,
				"z": 0.759895476,
				"element": "C" 
			},
			{
				"x": 0.4273820623,
				"y": -0.476408064,
				"z": 0.0522281589,
				"element": "C" 
			},
			{
				"x": 0.3162148778,
				"y": -0.4480971737,
				"z": -1.3590817021,
				"element": "C" 
			},
			{
				"x": -0.6237300634,
				"y": 0.3722182352,
				"z": -1.9374772134,
				"element": "C" 
			},
			{
				"x": -1.449931809,
				"y": 1.1621531266,
				"z": -1.0994645557,
				"element": "C" 
			},
			{
				"x": -1.3802445181,
				"y": 1.1665957253,
				"z": 0.2162344676,
				"element": "N" 
			},
			{
				"x": -0.4533352067,
				"y": 0.3588889405,
				"z": 0.8098199087,
				"element": "C" 
			},
			{
				"x": -0.3738599258,
				"y": 0.3597775223,
				"z": 2.2276654181,
				"element": "C" 
			},
			{
				"x": 0.5446287291,
				"y": -0.4376273698,
				"z": 2.8738665184,
				"element": "C" 
			},
			{
				"x": 1.4221638133,
				"y": -1.2684643039,
				"z": 2.1453700304,
				"element": "C" 
			},
			{
				"x": 0.9686166172,
				"y": -1.0688697346,
				"z": -1.9648632035,
				"element": "H" 
			},
			{
				"x": -0.739864711,
				"y": 0.4221076383,
				"z": -3.0152332602,
				"element": "H" 
			},
			{
				"x": -2.1983765166,
				"y": 1.8160429239,
				"z": -1.5456446557,
				"element": "H" 
			},
			{
				"x": -1.0569358912,
				"y": 1.0052586985,
				"z": 2.7688556741,
				"element": "H" 
			},
			{
				"x": 0.6032609901,
				"y": -0.435033617,
				"z": 3.9578059878,
				"element": "H" 
			},
			{
				"x": 2.1441036725,
				"y": -1.8946673214,
				"z": 2.657966889,
				"element": "H" 
			}
		],
		 "valence_orbital": [ 
			{
				"type": "occ",
				"energy": -0.27834,
				"method": "rhf"
			},
			{
				"type": "occ",
				"energy": -0.26889,
				"method": "rhf"
			},
			{
				"type": "occ",
				"energy": -0.26846,
				"method": "rhf"
			},
			{
				"type": "occ",
				"energy": -0.25656,
				"method": "rhf"
			},
			{
				"type": "occ",
				"energy": -0.22784,
				"method": "rhf"
			},
			{
				"type": "unocc",
				"energy": -0.07632,
				"method": "rhf"
			},
			{
				"type": "unocc",
				"energy": -0.03171,
				"method": "rhf"
			},
			{
				"type": "unocc",
				"energy": -0.02241,
				"method": "rhf"
			},
			{
				"type": "unocc",
				"energy": -0.00175,
				"method": "rhf"
			},
			{
				"type": "unocc",
				"energy": 0.04648,
				"method": "rhf"
			}
		],
		"cosmo_sigma_profile": { 
			"-0.025": 0.0,
			"-0.024": 0.0,
			"-0.023": 0.0,
			"-0.022": 0.0,
			"-0.021": 0.0,
			"-0.02": 0.0,
			"-0.019": 0.0,
			"-0.018": 0.0,
			"-0.017": 0.0,
			"-0.016": 0.0,
			"-0.015": 0.0,
			"-0.014": 0.0,
			"-0.013": 0.0,
			"-0.012": 0.0,
			"-0.011": 0.0,
			"-0.01": 0.0,
			"-0.009": 0.0,
			"-0.008": 1.82642991388,
			"-0.007": 10.4460077781,
			"-0.006": 14.5339123264,
			"-0.005": 14.3158224761,
			"-0.004": 10.4337140356,
			"-0.003": 11.9824233538,
			"-0.002": 14.1243401967,
			"-0.001": 18.5292261608,
			"0.0": 24.0168319988,
			"0.001": 24.356997718,
			"0.002": 19.9181874351,
			"0.003": 13.2427324467,
			"0.004": 8.27925667223,
			"0.005": 10.5939042598,
			"0.006": 13.2780818863,
			"0.007": 1.8215232098,
			"0.008": 1.23547986117,
			"0.009": 0.662415276355,
			"0.01": 1.35354778147,
			"0.011": 0.763653654726,
			"0.012": 1.08201632852,
			"0.013": 0.706288447941,
			"0.014": 0.932694938382,
			"0.015": 0.536318319413,
			"0.016": 0.364880087959,
			"0.017": 0.0,
			"0.018": 0.0,
			"0.019": 0.0,
			"0.02": 0.0,
			"0.021": 0.0,
			"0.022": 0.0,
			"0.023": 0.0,
			"0.024": 0.0,
			"0.025": 0.0
		}
	}
}
