{
	 "smiles": "CC1=CC=C(F)C=C1CO", 
	 "Tm": 311.15, 
	 "num_atms": 19, 
	 "gaussian": { 
		 "optdone": 1, 
		 "sigma_profile": "yes", 
		 "theory": "DFT", 
		 "functional": "B3LYP", 
		 "basiset": "6-31G**", 
		 "properties": { 
			 "R2extent": 1629.5846, 
			 "electric_dipole_moment_norm": 0.490052446173, 
			 "electric_quadrupole_moment_norm": 7.39153364533, 
			 "total_energy": -485.329423576, 
			 "HOMO_LUMO_gap": 0.21931, 
			 "cosmo_polarized_energy": -7.02, 
			 "cosmo_cavitation_energy": 22.66, 
			 "cosmo_dispersion_energy": -16.5, 
			 "cosmo_repulsion_energy": 1.32, 
			 "cosmo_total_nonelectrostatic_energy": 7.47, 
			 "SMD_solvation_energy": 4.54 
		},
		"coords": [
			{
				"x": 2.8433262073,
				"y": 0.1807542803,
				"z": -0.2325542761,
				"element": "C" 
			},
			{
				"x": 1.3985264456,
				"y": 0.617778167,
				"z": -0.3112172155,
				"element": "C" 
			},
			{
				"x": 1.0711487547,
				"y": 1.9775108831,
				"z": -0.3505484957,
				"element": "C" 
			},
			{
				"x": -0.2510028329,
				"y": 2.4191210634,
				"z": -0.4403285751,
				"element": "C" 
			},
			{
				"x": -1.2583943389,
				"y": 1.4680424736,
				"z": -0.4907497139,
				"element": "C" 
			},
			{
				"x": -2.5461787316,
				"y": 1.8682151017,
				"z": -0.5768025851,
				"element": "F" 
			},
			{
				"x": -0.9771900134,
				"y": 0.1072704041,
				"z": -0.4495196423,
				"element": "C" 
			},
			{
				"x": 0.3490775538,
				"y": -0.3280723248,
				"z": -0.3611985931,
				"element": "C" 
			},
			{
				"x": 0.6311242094,
				"y": -1.81538533,
				"z": -0.2898261557,
				"element": "C" 
			},
			{
				"x": 1.1845289775,
				"y": -2.2257865137,
				"z": 0.9612646386,
				"element": "O" 
			},
			{
				"x": 3.5008357909,
				"y": 1.033339216,
				"z": -0.0430531497,
				"element": "H" 
			},
			{
				"x": 3.1706172199,
				"y": -0.2836454245,
				"z": -1.1719814589,
				"element": "H" 
			},
			{
				"x": 2.9874036436,
				"y": -0.56111944,
				"z": 0.5567488936,
				"element": "H" 
			},
			{
				"x": 1.8699117365,
				"y": 2.7135941211,
				"z": -0.3121053841,
				"element": "H" 
			},
			{
				"x": -0.5003913739,
				"y": 3.4742666223,
				"z": -0.470613401,
				"element": "H" 
			},
			{
				"x": -1.7972411485,
				"y": -0.6036311647,
				"z": -0.4901177402,
				"element": "H" 
			},
			{
				"x": 1.3752558091,
				"y": -2.1054635596,
				"z": -1.0390758208,
				"element": "H" 
			},
			{
				"x": -0.2899837799,
				"y": -2.3734930325,
				"z": -0.5145871026,
				"element": "H" 
			},
			{
				"x": 0.5940258707,
				"y": -1.9033955428,
				"z": 1.6551657776,
				"element": "H" 
			}
		],
		 "valence_orbital": [ 
			{
				"type": "occ",
				"energy": -0.34446,
				"method": "rhf"
			},
			{
				"type": "occ",
				"energy": -0.3279,
				"method": "rhf"
			},
			{
				"type": "occ",
				"energy": -0.27645,
				"method": "rhf"
			},
			{
				"type": "occ",
				"energy": -0.25703,
				"method": "rhf"
			},
			{
				"type": "occ",
				"energy": -0.23496,
				"method": "rhf"
			},
			{
				"type": "unocc",
				"energy": -0.01565,
				"method": "rhf"
			},
			{
				"type": "unocc",
				"energy": 0.0009,
				"method": "rhf"
			},
			{
				"type": "unocc",
				"energy": 0.08461,
				"method": "rhf"
			},
			{
				"type": "unocc",
				"energy": 0.09297,
				"method": "rhf"
			},
			{
				"type": "unocc",
				"energy": 0.11254,
				"method": "rhf"
			}
		],
		"cosmo_sigma_profile": { 
			"-0.025": 0.0,
			"-0.024": 0.0,
			"-0.023": 0.0,
			"-0.022": 0.0,
			"-0.021": 0.0,
			"-0.02": 0.0,
			"-0.019": 0.0,
			"-0.018": 0.0,
			"-0.017": 0.0,
			"-0.016": 0.0641897733678,
			"-0.015": 0.705783086657,
			"-0.014": 1.11834276965,
			"-0.013": 0.774605224758,
			"-0.012": 0.535166898748,
			"-0.011": 0.647749352356,
			"-0.01": 1.20419151574,
			"-0.009": 0.691616751749,
			"-0.008": 1.3893723905,
			"-0.007": 2.46085372574,
			"-0.006": 6.65023670225,
			"-0.005": 11.7239659831,
			"-0.004": 15.235989172,
			"-0.003": 11.697450872,
			"-0.002": 13.9192795869,
			"-0.001": 12.5612499183,
			"0.0": 13.417710303,
			"0.001": 16.2790448613,
			"0.002": 13.9240102022,
			"0.003": 12.5790592997,
			"0.004": 17.8097226717,
			"0.005": 12.6210842659,
			"0.006": 1.35244905861,
			"0.007": 1.0549624266,
			"0.008": 1.22601667724,
			"0.009": 0.795726781252,
			"0.01": 1.32368662418,
			"0.011": 1.04059365735,
			"0.012": 1.5385361048,
			"0.013": 0.997470457103,
			"0.014": 1.70991687886,
			"0.015": 0.122397903329,
			"0.016": 0.0,
			"0.017": 0.0,
			"0.018": 0.0,
			"0.019": 0.0,
			"0.02": 0.0,
			"0.021": 0.0,
			"0.022": 0.0,
			"0.023": 0.0,
			"0.024": 0.0,
			"0.025": 0.0
		}
	}
}
