{
	 "smiles": "FC(F)(F)C1=C(Cl)C=C(Cl)C=C1", 
	 "Tm": 247.15, 
	 "num_atms": 15, 
	 "gaussian": { 
		 "optdone": 1, 
		 "sigma_profile": "yes", 
		 "theory": "DFT", 
		 "functional": "B3LYP", 
		 "basiset": "6-31G**", 
		 "properties": { 
			 "R2extent": 3047.9094, 
			 "electric_dipole_moment_norm": 1.86600691853, 
			 "electric_quadrupole_moment_norm": 4.90050680032, 
			 "total_energy": -1488.4600889, 
			 "HOMO_LUMO_gap": 0.21902, 
			 "cosmo_polarized_energy": -4.09, 
			 "cosmo_cavitation_energy": 24.35, 
			 "cosmo_dispersion_energy": -17.86, 
			 "cosmo_repulsion_energy": 1.36, 
			 "cosmo_total_nonelectrostatic_energy": 7.85, 
			 "SMD_solvation_energy": 4.78 
		},
		"coords": [
			{
				"x": 1.3748689544,
				"y": 1.4872693694,
				"z": 1.816627199,
				"element": "F" 
			},
			{
				"x": 0.1960675979,
				"y": 1.2704837218,
				"z": 1.199817775,
				"element": "C" 
			},
			{
				"x": -0.7447167325,
				"y": 1.1656199145,
				"z": 2.1647118971,
				"element": "F" 
			},
			{
				"x": -0.0942033509,
				"y": 2.3729416652,
				"z": 0.4805406327,
				"element": "F" 
			},
			{
				"x": 0.2327188164,
				"y": 0.0293691043,
				"z": 0.3368197433,
				"element": "C" 
			},
			{
				"x": 1.1255563716,
				"y": -0.110331426,
				"z": -0.7375224011,
				"element": "C" 
			},
			{
				"x": 2.2654351417,
				"y": 1.1498348076,
				"z": -1.1557345658,
				"element": "Cl" 
			},
			{
				"x": 1.1358679914,
				"y": -1.2671119195,
				"z": -1.5156492177,
				"element": "C" 
			},
			{
				"x": 0.2430900121,
				"y": -2.2944473375,
				"z": -1.2149662711,
				"element": "C" 
			},
			{
				"x": 0.2578280136,
				"y": -3.7458698533,
				"z": -2.193339313,
				"element": "Cl" 
			},
			{
				"x": -0.6545251803,
				"y": -2.1846771404,
				"z": -0.155212914,
				"element": "C" 
			},
			{
				"x": -0.6486384754,
				"y": -1.0213144292,
				"z": 0.6094806247,
				"element": "C" 
			},
			{
				"x": 1.8302392012,
				"y": -1.3608030964,
				"z": -2.3413116608,
				"element": "H" 
			},
			{
				"x": -1.3428763175,
				"y": -2.9915661264,
				"z": 0.0667938829,
				"element": "H" 
			},
			{
				"x": -1.3403120437,
				"y": -0.9200972541,
				"z": 1.4371445887,
				"element": "H" 
			}
		],
		 "valence_orbital": [ 
			{
				"type": "occ",
				"energy": -0.34053,
				"method": "rhf"
			},
			{
				"type": "occ",
				"energy": -0.3347,
				"method": "rhf"
			},
			{
				"type": "occ",
				"energy": -0.3268,
				"method": "rhf"
			},
			{
				"type": "occ",
				"energy": -0.28043,
				"method": "rhf"
			},
			{
				"type": "occ",
				"energy": -0.26949,
				"method": "rhf"
			},
			{
				"type": "unocc",
				"energy": -0.05047,
				"method": "rhf"
			},
			{
				"type": "unocc",
				"energy": -0.04105,
				"method": "rhf"
			},
			{
				"type": "unocc",
				"energy": -0.00493,
				"method": "rhf"
			},
			{
				"type": "unocc",
				"energy": 0.03669,
				"method": "rhf"
			},
			{
				"type": "unocc",
				"energy": 0.09909,
				"method": "rhf"
			}
		],
		"cosmo_sigma_profile": { 
			"-0.025": 0.0,
			"-0.024": 0.0,
			"-0.023": 0.0,
			"-0.022": 0.0,
			"-0.021": 0.0,
			"-0.02": 0.0,
			"-0.019": 0.0,
			"-0.018": 0.0,
			"-0.017": 0.0,
			"-0.016": 0.0,
			"-0.015": 0.0,
			"-0.014": 0.0,
			"-0.013": 0.0,
			"-0.012": 0.0,
			"-0.011": 0.0,
			"-0.01": 0.0,
			"-0.009": 1.62191210043,
			"-0.008": 5.25554053899,
			"-0.007": 5.22772583315,
			"-0.006": 4.4135932364,
			"-0.005": 5.36315915913,
			"-0.004": 6.4138118632,
			"-0.003": 9.96596990187,
			"-0.002": 11.4938076652,
			"-0.001": 21.1869964271,
			"0.0": 29.5639634477,
			"0.001": 20.0413953145,
			"0.002": 31.464219235,
			"0.003": 34.3830287972,
			"0.004": 14.5511647426,
			"0.005": 0.0590704965432,
			"0.006": 0.0,
			"0.007": 0.0,
			"0.008": 0.0,
			"0.009": 0.0,
			"0.01": 0.0,
			"0.011": 0.0,
			"0.012": 0.0,
			"0.013": 0.0,
			"0.014": 0.0,
			"0.015": 0.0,
			"0.016": 0.0,
			"0.017": 0.0,
			"0.018": 0.0,
			"0.019": 0.0,
			"0.02": 0.0,
			"0.021": 0.0,
			"0.022": 0.0,
			"0.023": 0.0,
			"0.024": 0.0,
			"0.025": 0.0
		}
	}
}
