{
	 "smiles": "O[C@H]1O[C@@H]2COC(O[C@@H]2[C@H](O)[C@H]1O)C1=CC=CC=C1", 
	 "Tm": 447.15, 
	 "num_atms": 35, 
	 "gaussian": { 
		 "optdone": 1, 
		 "sigma_profile": "yes", 
		 "theory": "DFT", 
		 "functional": "B3LYP", 
		 "basiset": "6-31G**", 
		 "properties": { 
			 "R2extent": 6300.1097, 
			 "electric_dipole_moment_norm": 2.15014379054, 
			 "electric_quadrupole_moment_norm": 14.6763868207, 
			 "total_energy": -956.323518708, 
			 "HOMO_LUMO_gap": 0.23684, 
			 "cosmo_polarized_energy": -18.35, 
			 "cosmo_cavitation_energy": 36.2, 
			 "cosmo_dispersion_energy": -26.31, 
			 "cosmo_repulsion_energy": 2.03, 
			 "cosmo_total_nonelectrostatic_energy": 11.93, 
			 "SMD_solvation_energy": 5.48 
		},
		"coords": [
			{
				"x": 3.6342707506,
				"y": -0.1391010824,
				"z": -0.182091683,
				"element": "O" 
			},
			{
				"x": 2.7455126961,
				"y": 0.3540664269,
				"z": 0.7855156175,
				"element": "C" 
			},
			{
				"x": 2.0994008379,
				"y": 1.5526244037,
				"z": 0.3575976433,
				"element": "O" 
			},
			{
				"x": 1.345381278,
				"y": 1.404030301,
				"z": -0.857117406,
				"element": "C" 
			},
			{
				"x": 0.7001816524,
				"y": 2.7595909986,
				"z": -1.1713226721,
				"element": "C" 
			},
			{
				"x": -0.6667484446,
				"y": 2.8240226051,
				"z": -0.7552385584,
				"element": "O" 
			},
			{
				"x": -0.8995100907,
				"y": 2.1118499166,
				"z": 0.4384800799,
				"element": "C" 
			},
			{
				"x": -0.7781791316,
				"y": 0.7060512747,
				"z": 0.1984121814,
				"element": "O" 
			},
			{
				"x": 0.2612318137,
				"y": 0.3265610791,
				"z": -0.7195698113,
				"element": "C" 
			},
			{
				"x": 0.8513052532,
				"y": -0.9805653637,
				"z": -0.1839604656,
				"element": "C" 
			},
			{
				"x": -0.1595601194,
				"y": -1.9395601332,
				"z": 0.1032163439,
				"element": "O" 
			},
			{
				"x": 1.6841165579,
				"y": -0.7089362919,
				"z": 1.0745551015,
				"element": "C" 
			},
			{
				"x": 2.291082509,
				"y": -1.8885238612,
				"z": 1.5531109254,
				"element": "O" 
			},
			{
				"x": -2.298862736,
				"y": 2.3952458367,
				"z": 0.9208219169,
				"element": "C" 
			},
			{
				"x": -3.4006509803,
				"y": 1.9785071353,
				"z": 0.1645245043,
				"element": "C" 
			},
			{
				"x": -4.6940864361,
				"y": 2.2602976509,
				"z": 0.5992459289,
				"element": "C" 
			},
			{
				"x": -4.8966618055,
				"y": 2.9581917337,
				"z": 1.7938259867,
				"element": "C" 
			},
			{
				"x": -3.8011796996,
				"y": 3.37315263,
				"z": 2.551362769,
				"element": "C" 
			},
			{
				"x": -2.5050873425,
				"y": 3.0911782506,
				"z": 2.1138420128,
				"element": "C" 
			},
			{
				"x": 4.3714799885,
				"y": 0.4817418333,
				"z": -0.2513794071,
				"element": "H" 
			},
			{
				"x": 3.2703555771,
				"y": 0.6369250813,
				"z": 1.7059982214,
				"element": "H" 
			},
			{
				"x": 2.0268403475,
				"y": 1.1092272513,
				"z": -1.664607784,
				"element": "H" 
			},
			{
				"x": 0.6861613857,
				"y": 2.9357794666,
				"z": -2.2503926184,
				"element": "H" 
			},
			{
				"x": 1.2924376714,
				"y": 3.550525051,
				"z": -0.6911844304,
				"element": "H" 
			},
			{
				"x": -0.1557138838,
				"y": 2.4053596771,
				"z": 1.1946287509,
				"element": "H" 
			},
			{
				"x": -0.1906129718,
				"y": 0.1570220113,
				"z": -1.7070944677,
				"element": "H" 
			},
			{
				"x": 1.5012770985,
				"y": -1.4289935777,
				"z": -0.9419198836,
				"element": "H" 
			},
			{
				"x": -0.859431798,
				"y": -1.4517169009,
				"z": 0.5659556399,
				"element": "H" 
			},
			{
				"x": 1.0142553823,
				"y": -0.2714297668,
				"z": 1.8323471267,
				"element": "H" 
			},
			{
				"x": 1.6083815252,
				"y": -2.5729365773,
				"z": 1.4843496822,
				"element": "H" 
			},
			{
				"x": -3.2342479227,
				"y": 1.432266742,
				"z": -0.758102508,
				"element": "H" 
			},
			{
				"x": -5.546137042,
				"y": 1.9353545196,
				"z": 0.0088743277,
				"element": "H" 
			},
			{
				"x": -5.9058948311,
				"y": 3.1750030415,
				"z": 2.1323905472,
				"element": "H" 
			},
			{
				"x": -3.9533852104,
				"y": 3.9131872148,
				"z": 3.4814114024,
				"element": "H" 
			},
			{
				"x": -1.6501218784,
				"y": 3.4133014224,
				"z": 2.7031149859,
				"element": "H" 
			}
		],
		 "valence_orbital": [ 
			{
				"type": "occ",
				"energy": -0.27636,
				"method": "rhf"
			},
			{
				"type": "occ",
				"energy": -0.26794,
				"method": "rhf"
			},
			{
				"type": "occ",
				"energy": -0.25188,
				"method": "rhf"
			},
			{
				"type": "occ",
				"energy": -0.25029,
				"method": "rhf"
			},
			{
				"type": "occ",
				"energy": -0.24685,
				"method": "rhf"
			},
			{
				"type": "unocc",
				"energy": -0.01001,
				"method": "rhf"
			},
			{
				"type": "unocc",
				"energy": -0.00165,
				"method": "rhf"
			},
			{
				"type": "unocc",
				"energy": 0.06502,
				"method": "rhf"
			},
			{
				"type": "unocc",
				"energy": 0.08156,
				"method": "rhf"
			},
			{
				"type": "unocc",
				"energy": 0.08511,
				"method": "rhf"
			}
		],
		"cosmo_sigma_profile": { 
			"-0.025": 0.0,
			"-0.024": 0.0,
			"-0.023": 0.0,
			"-0.022": 0.0,
			"-0.021": 0.0,
			"-0.02": 0.0,
			"-0.019": 0.0,
			"-0.018": 0.0,
			"-0.017": 0.628064836663,
			"-0.016": 1.16726750088,
			"-0.015": 0.836176519328,
			"-0.014": 1.11788622652,
			"-0.013": 1.05520235949,
			"-0.012": 1.71591691075,
			"-0.011": 1.89737710005,
			"-0.01": 2.066679937,
			"-0.009": 2.1756388387,
			"-0.008": 2.1693858046,
			"-0.007": 6.84195724443,
			"-0.006": 22.8327700805,
			"-0.005": 22.2357641656,
			"-0.004": 26.5500734799,
			"-0.003": 22.9252786476,
			"-0.002": 16.8284162689,
			"-0.001": 14.1463695647,
			"0.0": 12.4427895223,
			"0.001": 15.5789815567,
			"0.002": 12.753005065,
			"0.003": 13.9629390509,
			"0.004": 13.8977385398,
			"0.005": 19.082716923,
			"0.006": 9.81541509892,
			"0.007": 5.54474970068,
			"0.008": 5.32616487067,
			"0.009": 5.43885080595,
			"0.01": 5.3919055926,
			"0.011": 4.31345783432,
			"0.012": 4.36097029152,
			"0.013": 4.0853603425,
			"0.014": 2.52124580068,
			"0.015": 1.13654248457,
			"0.016": 0.610174568183,
			"0.017": 0.0,
			"0.018": 0.0,
			"0.019": 0.0,
			"0.02": 0.0,
			"0.021": 0.0,
			"0.022": 0.0,
			"0.023": 0.0,
			"0.024": 0.0,
			"0.025": 0.0
		}
	}
}
