{
	 "smiles": "NC(CC1=CC=C(F)C=C1F)C(O)=O", 
	 "Tm": 498.15, 
	 "num_atms": 23, 
	 "gaussian": { 
		 "optdone": 1, 
		 "sigma_profile": "yes", 
		 "theory": "DFT", 
		 "functional": "B3LYP", 
		 "basiset": "6-31G**", 
		 "properties": { 
			 "R2extent": 3479.4312, 
			 "electric_dipole_moment_norm": 3.26747144747, 
			 "electric_quadrupole_moment_norm": 8.34598831895, 
			 "total_energy": -753.260716353, 
			 "HOMO_LUMO_gap": 0.21839, 
			 "cosmo_polarized_energy": -14.15, 
			 "cosmo_cavitation_energy": 28.6, 
			 "cosmo_dispersion_energy": -19.51, 
			 "cosmo_repulsion_energy": 1.52, 
			 "cosmo_total_nonelectrostatic_energy": 10.6, 
			 "SMD_solvation_energy": 5.67 
		},
		"coords": [
			{
				"x": -1.1601588126,
				"y": -2.1128541295,
				"z": -0.9476561283,
				"element": "N" 
			},
			{
				"x": -0.4145986102,
				"y": -1.0436589014,
				"z": -0.2828150766,
				"element": "C" 
			},
			{
				"x": 0.4356219827,
				"y": -0.1585779198,
				"z": -1.2409292504,
				"element": "C" 
			},
			{
				"x": 1.2211412014,
				"y": 0.9326150932,
				"z": -0.5536168278,
				"element": "C" 
			},
			{
				"x": 0.8429070689,
				"y": 2.2804361553,
				"z": -0.5968565673,
				"element": "C" 
			},
			{
				"x": 1.5726145662,
				"y": 3.2738223377,
				"z": 0.0578902331,
				"element": "C" 
			},
			{
				"x": 2.7047156773,
				"y": 2.9016407533,
				"z": 0.7728902729,
				"element": "C" 
			},
			{
				"x": 3.4228694016,
				"y": 3.8467143999,
				"z": 1.4098216587,
				"element": "F" 
			},
			{
				"x": 3.1264236477,
				"y": 1.5785851708,
				"z": 0.8529899775,
				"element": "C" 
			},
			{
				"x": 2.3669378224,
				"y": 0.6274612908,
				"z": 0.1864491105,
				"element": "C" 
			},
			{
				"x": 2.7595411852,
				"y": -0.6663765504,
				"z": 0.2532300407,
				"element": "F" 
			},
			{
				"x": -1.4025756712,
				"y": -0.1944287943,
				"z": 0.5077170707,
				"element": "C" 
			},
			{
				"x": -2.3494418732,
				"y": 0.3441250982,
				"z": -0.3072255429,
				"element": "O" 
			},
			{
				"x": -1.3767270862,
				"y": 0.0092707167,
				"z": 1.6979163773,
				"element": "O" 
			},
			{
				"x": -0.5149904284,
				"y": -2.7473424874,
				"z": -1.4111961883,
				"element": "H" 
			},
			{
				"x": -1.7674990999,
				"y": -1.7189041201,
				"z": -1.6622255628,
				"element": "H" 
			},
			{
				"x": 0.2479337735,
				"y": -1.4953245859,
				"z": 0.4591982542,
				"element": "H" 
			},
			{
				"x": 1.1194141932,
				"y": -0.8320630541,
				"z": -1.7706833542,
				"element": "H" 
			},
			{
				"x": -0.2313380054,
				"y": 0.2844741441,
				"z": -1.9877493262,
				"element": "H" 
			},
			{
				"x": -0.0446331415,
				"y": 2.5555989112,
				"z": -1.1595717985,
				"element": "H" 
			},
			{
				"x": 1.2789196013,
				"y": 4.3165394992,
				"z": 0.0205592036,
				"element": "H" 
			},
			{
				"x": 4.0095581523,
				"y": 1.2990376758,
				"z": 1.4141492971,
				"element": "H" 
			},
			{
				"x": -2.9490355453,
				"y": 0.8453092966,
				"z": 0.270714127,
				"element": "H" 
			}
		],
		 "valence_orbital": [ 
			{
				"type": "occ",
				"energy": -0.32173,
				"method": "rhf"
			},
			{
				"type": "occ",
				"energy": -0.27983,
				"method": "rhf"
			},
			{
				"type": "occ",
				"energy": -0.26429,
				"method": "rhf"
			},
			{
				"type": "occ",
				"energy": -0.25648,
				"method": "rhf"
			},
			{
				"type": "occ",
				"energy": -0.23478,
				"method": "rhf"
			},
			{
				"type": "unocc",
				"energy": -0.01639,
				"method": "rhf"
			},
			{
				"type": "unocc",
				"energy": -0.00603,
				"method": "rhf"
			},
			{
				"type": "unocc",
				"energy": 0.00656,
				"method": "rhf"
			},
			{
				"type": "unocc",
				"energy": 0.06294,
				"method": "rhf"
			},
			{
				"type": "unocc",
				"energy": 0.07647,
				"method": "rhf"
			}
		],
		"cosmo_sigma_profile": { 
			"-0.025": 0.0,
			"-0.024": 0.0,
			"-0.023": 0.0,
			"-0.022": 0.0,
			"-0.021": 0.0,
			"-0.02": 0.0,
			"-0.019": 0.0,
			"-0.018": 0.778235172931,
			"-0.017": 1.05689462944,
			"-0.016": 0.976225912303,
			"-0.015": 0.639963487739,
			"-0.014": 0.619884715877,
			"-0.013": 0.141796570843,
			"-0.012": 1.04598263126,
			"-0.011": 2.10096731553,
			"-0.01": 2.85071434352,
			"-0.009": 3.24518860708,
			"-0.008": 5.76137528447,
			"-0.007": 7.76915129732,
			"-0.006": 9.18192263766,
			"-0.005": 12.9886498909,
			"-0.004": 11.6571467756,
			"-0.003": 11.0685819048,
			"-0.002": 12.5075920802,
			"-0.001": 14.0660306096,
			"0.0": 16.8883319603,
			"0.001": 19.2493859591,
			"0.002": 18.6140140762,
			"0.003": 17.6301592974,
			"0.004": 22.914868843,
			"0.005": 5.59383117968,
			"0.006": 3.07844760152,
			"0.007": 3.36059601198,
			"0.008": 3.23043730298,
			"0.009": 2.44116704892,
			"0.01": 2.31190752056,
			"0.011": 4.96867199534,
			"0.012": 4.30379345858,
			"0.013": 0.893866794627,
			"0.014": 0.421519358122,
			"0.015": 0.748114047283,
			"0.016": 0.53047206901,
			"0.017": 0.534109018495,
			"0.018": 0.305160299654,
			"0.019": 0.0,
			"0.02": 0.0,
			"0.021": 0.0,
			"0.022": 0.0,
			"0.023": 0.0,
			"0.024": 0.0,
			"0.025": 0.0
		}
	}
}
