{
	 "smiles": "OC(=O)C1=CN(N=C1)C1=CC=C(C=C1)[N+]([O-])=O", 
	 "Tm": 532.15, 
	 "num_atms": 24, 
	 "gaussian": { 
		 "optdone": 1, 
		 "sigma_profile": "yes", 
		 "theory": "DFT", 
		 "functional": "B3LYP", 
		 "basiset": "6-31G**", 
		 "properties": { 
			 "R2extent": 6729.0131, 
			 "electric_dipole_moment_norm": 2.05715385424, 
			 "electric_quadrupole_moment_norm": 45.5632424047, 
			 "total_energy": -850.313396893, 
			 "HOMO_LUMO_gap": 0.1613, 
			 "cosmo_polarized_energy": -24.47, 
			 "cosmo_cavitation_energy": 30.77, 
			 "cosmo_dispersion_energy": -22.6, 
			 "cosmo_repulsion_energy": 1.71, 
			 "cosmo_total_nonelectrostatic_energy": 9.87, 
			 "SMD_solvation_energy": 8.49 
		},
		"coords": [
			{
				"x": -3.1462601608,
				"y": 0.4659557379,
				"z": -2.4608669474,
				"element": "O" 
			},
			{
				"x": -3.2960601712,
				"y": 1.1159451663,
				"z": -1.2746891046,
				"element": "C" 
			},
			{
				"x": -4.3373638196,
				"y": 1.6723376375,
				"z": -1.0179539471,
				"element": "O" 
			},
			{
				"x": -2.149671361,
				"y": 1.1066957074,
				"z": -0.3406037305,
				"element": "C" 
			},
			{
				"x": -0.8894612975,
				"y": 0.5422995912,
				"z": -0.4316147722,
				"element": "C" 
			},
			{
				"x": -0.2315186103,
				"y": 0.8444556555,
				"z": 0.7249198346,
				"element": "N" 
			},
			{
				"x": -1.0114529458,
				"y": 1.5842987677,
				"z": 1.5693013236,
				"element": "N" 
			},
			{
				"x": -2.1559209231,
				"y": 1.7403793095,
				"z": 0.932619396,
				"element": "C" 
			},
			{
				"x": 1.0850797123,
				"y": 0.494956416,
				"z": 1.1144432367,
				"element": "C" 
			},
			{
				"x": 1.9081117609,
				"y": -0.2608626613,
				"z": 0.266544034,
				"element": "C" 
			},
			{
				"x": 3.1963436527,
				"y": -0.5934986686,
				"z": 0.6670578748,
				"element": "C" 
			},
			{
				"x": 3.6505873627,
				"y": -0.1670195475,
				"z": 1.9127818584,
				"element": "C" 
			},
			{
				"x": 2.8445397573,
				"y": 0.5846368248,
				"z": 2.7660686488,
				"element": "C" 
			},
			{
				"x": 1.5568974395,
				"y": 0.9173097018,
				"z": 2.3662418743,
				"element": "C" 
			},
			{
				"x": 5.0123416891,
				"y": -0.5193731502,
				"z": 2.3345154947,
				"element": "N" 
			},
			{
				"x": 5.6953133988,
				"y": -1.1841803429,
				"z": 1.5554231507,
				"element": "O" 
			},
			{
				"x": 5.3849386769,
				"y": -0.1281765702,
				"z": 3.439820312,
				"element": "O" 
			},
			{
				"x": -2.2690143906,
				"y": 0.0675226868,
				"z": -2.5350679568,
				"element": "H" 
			},
			{
				"x": -0.419981386,
				"y": -0.0378382625,
				"z": -1.2111806913,
				"element": "H" 
			},
			{
				"x": -2.969224256,
				"y": 2.2960442539,
				"z": 1.3774708918,
				"element": "H" 
			},
			{
				"x": 1.5601612374,
				"y": -0.5949882772,
				"z": -0.7035157217,
				"element": "H" 
			},
			{
				"x": 3.8516807637,
				"y": -1.1756556278,
				"z": 0.0317844793,
				"element": "H" 
			},
			{
				"x": 3.2331586867,
				"y": 0.8978842417,
				"z": 3.7268665294,
				"element": "H" 
			},
			{
				"x": 0.9053751839,
				"y": 1.4993714103,
				"z": 3.0042339326,
				"element": "H" 
			}
		],
		 "valence_orbital": [ 
			{
				"type": "occ",
				"energy": -0.30045,
				"method": "rhf"
			},
			{
				"type": "occ",
				"energy": -0.29999,
				"method": "rhf"
			},
			{
				"type": "occ",
				"energy": -0.29247,
				"method": "rhf"
			},
			{
				"type": "occ",
				"energy": -0.28765,
				"method": "rhf"
			},
			{
				"type": "occ",
				"energy": -0.26592,
				"method": "rhf"
			},
			{
				"type": "unocc",
				"energy": -0.10462,
				"method": "rhf"
			},
			{
				"type": "unocc",
				"energy": -0.05683,
				"method": "rhf"
			},
			{
				"type": "unocc",
				"energy": -0.04535,
				"method": "rhf"
			},
			{
				"type": "unocc",
				"energy": -0.02309,
				"method": "rhf"
			},
			{
				"type": "unocc",
				"energy": 0.01539,
				"method": "rhf"
			}
		],
		"cosmo_sigma_profile": { 
			"-0.025": 0.0,
			"-0.024": 0.0,
			"-0.023": 0.0,
			"-0.022": 0.0,
			"-0.021": 0.0,
			"-0.02": 0.802192690332,
			"-0.019": 1.57202805911,
			"-0.018": 0.898994789961,
			"-0.017": 0.811308303859,
			"-0.016": 1.43327891503,
			"-0.015": 1.16922169545,
			"-0.014": 1.61340926706,
			"-0.013": 3.20668937081,
			"-0.012": 1.95196985353,
			"-0.011": 2.03313410534,
			"-0.01": 2.48573615232,
			"-0.009": 2.84375456344,
			"-0.008": 7.23855574024,
			"-0.007": 9.38901872378,
			"-0.006": 8.60931223071,
			"-0.005": 9.49277062703,
			"-0.004": 10.3451922533,
			"-0.003": 13.6880049673,
			"-0.002": 17.5491380625,
			"-0.001": 20.4353399443,
			"0.0": 26.5357903141,
			"0.001": 16.9744497087,
			"0.002": 8.23657333864,
			"0.003": 6.06712656229,
			"0.004": 6.39695482792,
			"0.005": 6.98925217538,
			"0.006": 7.11911705121,
			"0.007": 11.8123862801,
			"0.008": 11.6659728601,
			"0.009": 8.76872276118,
			"0.01": 8.75913019643,
			"0.011": 5.45977771724,
			"0.012": 4.90302690611,
			"0.013": 1.33668196733,
			"0.014": 0.024753737863,
			"0.015": 0.0,
			"0.016": 0.0,
			"0.017": 0.0,
			"0.018": 0.0,
			"0.019": 0.0,
			"0.02": 0.0,
			"0.021": 0.0,
			"0.022": 0.0,
			"0.023": 0.0,
			"0.024": 0.0,
			"0.025": 0.0
		}
	}
}
