{
	 "smiles": "CNC1=C(N=CC=C1)N1CCCC1", 
	 "Tm": 379.15, 
	 "num_atms": 28, 
	 "gaussian": { 
		 "optdone": 1, 
		 "sigma_profile": "yes", 
		 "theory": "DFT", 
		 "functional": "B3LYP", 
		 "basiset": "6-31G**", 
		 "properties": { 
			 "R2extent": 2764.7321, 
			 "electric_dipole_moment_norm": 2.11964211602, 
			 "electric_quadrupole_moment_norm": 7.4553947595, 
			 "total_energy": -554.349292465, 
			 "HOMO_LUMO_gap": 0.18555, 
			 "cosmo_polarized_energy": -7.75, 
			 "cosmo_cavitation_energy": 28.83, 
			 "cosmo_dispersion_energy": -21.21, 
			 "cosmo_repulsion_energy": 1.69, 
			 "cosmo_total_nonelectrostatic_energy": 9.31, 
			 "SMD_solvation_energy": 3.0 
		},
		"coords": [
			{
				"x": 1.1558492542,
				"y": -0.0596901801,
				"z": 2.9119404154,
				"element": "C" 
			},
			{
				"x": 1.163730885,
				"y": -0.8143806155,
				"z": 1.6510812177,
				"element": "N" 
			},
			{
				"x": -0.0872428238,
				"y": -1.0214482023,
				"z": 1.0250308906,
				"element": "C" 
			},
			{
				"x": -0.8783081562,
				"y": 0.0644689508,
				"z": 0.534845157,
				"element": "C" 
			},
			{
				"x": -2.1041823941,
				"y": -0.1287751676,
				"z": 0.0325638707,
				"element": "N" 
			},
			{
				"x": -2.5808720335,
				"y": -1.3744480628,
				"z": -0.0876131204,
				"element": "C" 
			},
			{
				"x": -1.8526932185,
				"y": -2.5027109232,
				"z": 0.2653915035,
				"element": "C" 
			},
			{
				"x": -0.5968084198,
				"y": -2.3068120094,
				"z": 0.8450004071,
				"element": "C" 
			},
			{
				"x": -0.4247513117,
				"y": 1.3864112355,
				"z": 0.6046023215,
				"element": "N" 
			},
			{
				"x": -1.3518427974,
				"y": 2.4535322165,
				"z": 0.2105257772,
				"element": "C" 
			},
			{
				"x": -0.511090037,
				"y": 3.7317972701,
				"z": 0.3799216703,
				"element": "C" 
			},
			{
				"x": 0.9643603693,
				"y": 3.26684751,
				"z": 0.2183045881,
				"element": "C" 
			},
			{
				"x": 0.8803704981,
				"y": 1.7421515597,
				"z": 0.0150610728,
				"element": "C" 
			},
			{
				"x": 2.1857595594,
				"y": 0.0575113534,
				"z": 3.2611298508,
				"element": "H" 
			},
			{
				"x": 0.7305048152,
				"y": 0.9303208595,
				"z": 2.7364014883,
				"element": "H" 
			},
			{
				"x": 0.5676773151,
				"y": -0.5474337662,
				"z": 3.7046483313,
				"element": "H" 
			},
			{
				"x": 1.6361990658,
				"y": -1.7032606798,
				"z": 1.7785555491,
				"element": "H" 
			},
			{
				"x": -3.5837099098,
				"y": -1.4632387626,
				"z": -0.5017096998,
				"element": "H" 
			},
			{
				"x": -2.2593617214,
				"y": -3.4991713295,
				"z": 0.1271736203,
				"element": "H" 
			},
			{
				"x": -0.013954053,
				"y": -3.1576844838,
				"z": 1.1929659304,
				"element": "H" 
			},
			{
				"x": -2.248950765,
				"y": 2.4273493321,
				"z": 0.8326869012,
				"element": "H" 
			},
			{
				"x": -1.6803078007,
				"y": 2.3262857164,
				"z": -0.8323320188,
				"element": "H" 
			},
			{
				"x": -0.6676804859,
				"y": 4.1640103303,
				"z": 1.3725723196,
				"element": "H" 
			},
			{
				"x": -0.7939732866,
				"y": 4.4922767963,
				"z": -0.3532866518,
				"element": "H" 
			},
			{
				"x": 1.5437881271,
				"y": 3.5057522913,
				"z": 1.1150808518,
				"element": "H" 
			},
			{
				"x": 1.4652297419,
				"y": 3.7476185446,
				"z": -0.626767423,
				"element": "H" 
			},
			{
				"x": 0.8899218869,
				"y": 1.4948113309,
				"z": -1.0600792575,
				"element": "H" 
			},
			{
				"x": 1.6887376966,
				"y": 1.1839088852,
				"z": 0.4882044365,
				"element": "H" 
			}
		],
		 "valence_orbital": [ 
			{
				"type": "occ",
				"energy": -0.28945,
				"method": "rhf"
			},
			{
				"type": "occ",
				"energy": -0.27661,
				"method": "rhf"
			},
			{
				"type": "occ",
				"energy": -0.24398,
				"method": "rhf"
			},
			{
				"type": "occ",
				"energy": -0.22546,
				"method": "rhf"
			},
			{
				"type": "occ",
				"energy": -0.18914,
				"method": "rhf"
			},
			{
				"type": "unocc",
				"energy": -0.00359,
				"method": "rhf"
			},
			{
				"type": "unocc",
				"energy": 0.01173,
				"method": "rhf"
			},
			{
				"type": "unocc",
				"energy": 0.08374,
				"method": "rhf"
			},
			{
				"type": "unocc",
				"energy": 0.09184,
				"method": "rhf"
			},
			{
				"type": "unocc",
				"energy": 0.11327,
				"method": "rhf"
			}
		],
		"cosmo_sigma_profile": { 
			"-0.025": 0.0,
			"-0.024": 0.0,
			"-0.023": 0.0,
			"-0.022": 0.0,
			"-0.021": 0.0,
			"-0.02": 0.0,
			"-0.019": 0.0,
			"-0.018": 0.0,
			"-0.017": 0.0,
			"-0.016": 0.0,
			"-0.015": 0.0,
			"-0.014": 0.0,
			"-0.013": 0.0,
			"-0.012": 0.474272461789,
			"-0.011": 1.60666098483,
			"-0.01": 1.71408784927,
			"-0.009": 1.50365663178,
			"-0.008": 1.51768832555,
			"-0.007": 2.25916376184,
			"-0.006": 3.81846994055,
			"-0.005": 6.48657339946,
			"-0.004": 9.93682986926,
			"-0.003": 21.0308721977,
			"-0.002": 29.7191103955,
			"-0.001": 36.8805042936,
			"0.0": 29.2775738471,
			"0.001": 15.9600070233,
			"0.002": 10.7813579589,
			"0.003": 11.2267146932,
			"0.004": 11.8369360825,
			"0.005": 10.4658903496,
			"0.006": 5.57376194487,
			"0.007": 3.19758568361,
			"0.008": 2.18560247568,
			"0.009": 2.52541707692,
			"0.01": 2.01965721313,
			"0.011": 1.32562701658,
			"0.012": 0.688766943032,
			"0.013": 0.963342228486,
			"0.014": 0.689105227693,
			"0.015": 0.398837130128,
			"0.016": 0.0,
			"0.017": 0.0,
			"0.018": 0.0,
			"0.019": 0.0,
			"0.02": 0.0,
			"0.021": 0.0,
			"0.022": 0.0,
			"0.023": 0.0,
			"0.024": 0.0,
			"0.025": 0.0
		}
	}
}
