{
	 "smiles": "CC(C)(C)CCS(N)(=O)=O", 
	 "Tm": 365.15, 
	 "num_atms": 25, 
	 "gaussian": { 
		 "optdone": 1, 
		 "sigma_profile": "yes", 
		 "theory": "DFT", 
		 "functional": "B3LYP", 
		 "basiset": "6-31G**", 
		 "properties": { 
			 "R2extent": 2591.9188, 
			 "electric_dipole_moment_norm": 3.2332033821, 
			 "electric_quadrupole_moment_norm": 13.361528334, 
			 "total_energy": -841.02240808, 
			 "HOMO_LUMO_gap": 0.34253, 
			 "cosmo_polarized_energy": -14.33, 
			 "cosmo_cavitation_energy": 27.86, 
			 "cosmo_dispersion_energy": -20.19, 
			 "cosmo_repulsion_energy": 1.6, 
			 "cosmo_total_nonelectrostatic_energy": 9.27, 
			 "SMD_solvation_energy": 4.27 
		},
		"coords": [
			{
				"x": -1.201086963,
				"y": -1.9975880871,
				"z": -0.6241724015,
				"element": "C" 
			},
			{
				"x": -0.5018671756,
				"y": -1.2261195207,
				"z": 0.512025282,
				"element": "C" 
			},
			{
				"x": -1.5387025901,
				"y": -0.8094486784,
				"z": 1.5733974285,
				"element": "C" 
			},
			{
				"x": 0.5466926466,
				"y": -2.1451962429,
				"z": 1.1701839829,
				"element": "C" 
			},
			{
				"x": 0.254315407,
				"y": 0.0124078567,
				"z": -0.0413202156,
				"element": "C" 
			},
			{
				"x": -0.6210063109,
				"y": 1.0556205283,
				"z": -0.7420748008,
				"element": "C" 
			},
			{
				"x": 0.3849241537,
				"y": 2.4386705233,
				"z": -1.3326799061,
				"element": "S" 
			},
			{
				"x": -0.7891997827,
				"y": 3.4345816391,
				"z": -2.0530258957,
				"element": "N" 
			},
			{
				"x": 0.917877244,
				"y": 3.1548916504,
				"z": -0.167631388,
				"element": "O" 
			},
			{
				"x": 1.2650197119,
				"y": 1.9490498861,
				"z": -2.4004031481,
				"element": "O" 
			},
			{
				"x": -1.6600004444,
				"y": -2.9149948422,
				"z": -0.2396893836,
				"element": "H" 
			},
			{
				"x": -1.997778396,
				"y": -1.4094730167,
				"z": -1.0923794522,
				"element": "H" 
			},
			{
				"x": -0.4889768477,
				"y": -2.2837869405,
				"z": -1.4064803184,
				"element": "H" 
			},
			{
				"x": -1.070930655,
				"y": -0.2354315594,
				"z": 2.3813021441,
				"element": "H" 
			},
			{
				"x": -2.0067940942,
				"y": -1.693220915,
				"z": 2.020492331,
				"element": "H" 
			},
			{
				"x": -2.342257132,
				"y": -0.1987821266,
				"z": 1.1476746965,
				"element": "H" 
			},
			{
				"x": 0.073837001,
				"y": -3.0431281589,
				"z": 1.5828596042,
				"element": "H" 
			},
			{
				"x": 1.0648742359,
				"y": -1.6331421236,
				"z": 1.9886233962,
				"element": "H" 
			},
			{
				"x": 1.3023751032,
				"y": -2.467598062,
				"z": 0.4452199476,
				"element": "H" 
			},
			{
				"x": 1.0196061611,
				"y": -0.3260393536,
				"z": -0.7494272396,
				"element": "H" 
			},
			{
				"x": 0.7815788936,
				"y": 0.5042954591,
				"z": 0.7843171098,
				"element": "H" 
			},
			{
				"x": -1.3677883155,
				"y": 1.4984363566,
				"z": -0.0787909977,
				"element": "H" 
			},
			{
				"x": -1.1259918285,
				"y": 0.6612307484,
				"z": -1.6270405356,
				"element": "H" 
			},
			{
				"x": -0.7910756751,
				"y": 4.3344637643,
				"z": -1.5789611179,
				"element": "H" 
			},
			{
				"x": -0.5641443473,
				"y": 3.5463012156,
				"z": -3.0386191222,
				"element": "H" 
			}
		],
		 "valence_orbital": [ 
			{
				"type": "occ",
				"energy": -0.326,
				"method": "rhf"
			},
			{
				"type": "occ",
				"energy": -0.31299,
				"method": "rhf"
			},
			{
				"type": "occ",
				"energy": -0.30285,
				"method": "rhf"
			},
			{
				"type": "occ",
				"energy": -0.29776,
				"method": "rhf"
			},
			{
				"type": "occ",
				"energy": -0.28982,
				"method": "rhf"
			},
			{
				"type": "unocc",
				"energy": 0.05271,
				"method": "rhf"
			},
			{
				"type": "unocc",
				"energy": 0.06474,
				"method": "rhf"
			},
			{
				"type": "unocc",
				"energy": 0.08437,
				"method": "rhf"
			},
			{
				"type": "unocc",
				"energy": 0.08969,
				"method": "rhf"
			},
			{
				"type": "unocc",
				"energy": 0.09935,
				"method": "rhf"
			}
		],
		"cosmo_sigma_profile": { 
			"-0.025": 0.0,
			"-0.024": 0.0,
			"-0.023": 0.0,
			"-0.022": 0.0,
			"-0.021": 0.0,
			"-0.02": 0.0,
			"-0.019": 0.0,
			"-0.018": 0.0,
			"-0.017": 0.0,
			"-0.016": 0.0,
			"-0.015": 0.64943308084,
			"-0.014": 2.11842210448,
			"-0.013": 2.66504661651,
			"-0.012": 2.27034597394,
			"-0.011": 1.99990160384,
			"-0.01": 2.07973442741,
			"-0.009": 1.41247275448,
			"-0.008": 2.60272738547,
			"-0.007": 4.67573489132,
			"-0.006": 5.47907960851,
			"-0.005": 6.91736167967,
			"-0.004": 8.43932822227,
			"-0.003": 23.0405811696,
			"-0.002": 29.1428190104,
			"-0.001": 21.1862454397,
			"0.0": 19.1627626602,
			"0.001": 23.1272449987,
			"0.002": 11.8982431059,
			"0.003": 3.61043522134,
			"0.004": 2.88412865487,
			"0.005": 2.38077937026,
			"0.006": 2.05578176586,
			"0.007": 2.88295415537,
			"0.008": 3.07437155057,
			"0.009": 4.36184649321,
			"0.01": 4.2161140015,
			"0.011": 11.0739829149,
			"0.012": 8.95735613933,
			"0.013": 0.704165501633,
			"0.014": 0.0,
			"0.015": 0.0,
			"0.016": 0.0,
			"0.017": 0.0,
			"0.018": 0.0,
			"0.019": 0.0,
			"0.02": 0.0,
			"0.021": 0.0,
			"0.022": 0.0,
			"0.023": 0.0,
			"0.024": 0.0,
			"0.025": 0.0
		}
	}
}
