{
	 "smiles": "CC1=NN(C(C)=C1)C1=NC(Cl)=CN=C1", 
	 "Tm": 362.15, 
	 "num_atms": 23, 
	 "gaussian": { 
		 "optdone": 1, 
		 "sigma_profile": "yes", 
		 "theory": "DFT", 
		 "functional": "B3LYP", 
		 "basiset": "6-31G**", 
		 "properties": { 
			 "R2extent": 4103.767, 
			 "electric_dipole_moment_norm": 2.22463716817, 
			 "electric_quadrupole_moment_norm": 4.83758806535, 
			 "total_energy": -1027.56270383, 
			 "HOMO_LUMO_gap": 0.17636, 
			 "cosmo_polarized_energy": -6.71, 
			 "cosmo_cavitation_energy": 29.33, 
			 "cosmo_dispersion_energy": -21.49, 
			 "cosmo_repulsion_energy": 1.69, 
			 "cosmo_total_nonelectrostatic_energy": 9.53, 
			 "SMD_solvation_energy": 2.33 
		},
		"coords": [
			{
				"x": -1.9438408471,
				"y": -3.0323159388,
				"z": -0.4247736718,
				"element": "C" 
			},
			{
				"x": -0.7785423358,
				"y": -2.112039889,
				"z": -0.21256063,
				"element": "C" 
			},
			{
				"x": -0.9653121996,
				"y": -0.8277040777,
				"z": 0.048662732,
				"element": "N" 
			},
			{
				"x": 0.2941717515,
				"y": -0.2993505832,
				"z": 0.1817712023,
				"element": "N" 
			},
			{
				"x": 1.28305499,
				"y": -1.2556154807,
				"z": 0.0036152942,
				"element": "C" 
			},
			{
				"x": 2.758702915,
				"y": -1.025218792,
				"z": 0.0793742075,
				"element": "C" 
			},
			{
				"x": 0.6068599926,
				"y": -2.4272159466,
				"z": -0.2508991049,
				"element": "C" 
			},
			{
				"x": 0.3981254323,
				"y": 1.068261987,
				"z": 0.4658236229,
				"element": "C" 
			},
			{
				"x": 1.619721656,
				"y": 1.5888676649,
				"z": 0.5968605086,
				"element": "N" 
			},
			{
				"x": 1.6893708964,
				"y": 2.880458499,
				"z": 0.8646170222,
				"element": "C" 
			},
			{
				"x": 3.2915392069,
				"y": 3.579924972,
				"z": 1.0400038078,
				"element": "Cl" 
			},
			{
				"x": 0.5643320843,
				"y": 3.6918938339,
				"z": 1.0101793723,
				"element": "C" 
			},
			{
				"x": -0.6581056619,
				"y": 3.1641291044,
				"z": 0.8776334055,
				"element": "N" 
			},
			{
				"x": -0.7576892503,
				"y": 1.8654042452,
				"z": 0.6078452217,
				"element": "C" 
			},
			{
				"x": -2.5569040285,
				"y": -2.7015989285,
				"z": -1.269159067,
				"element": "H" 
			},
			{
				"x": -1.601457893,
				"y": -4.049690385,
				"z": -0.6282036437,
				"element": "H" 
			},
			{
				"x": -2.5899667846,
				"y": -3.0581701397,
				"z": 0.4584381578,
				"element": "H" 
			},
			{
				"x": 3.2684026009,
				"y": -1.9739177316,
				"z": -0.1063023481,
				"element": "H" 
			},
			{
				"x": 3.0645399923,
				"y": -0.646278879,
				"z": 1.0580648732,
				"element": "H" 
			},
			{
				"x": 3.0974505471,
				"y": -0.2927811337,
				"z": -0.65803283,
				"element": "H" 
			},
			{
				"x": 1.0562631691,
				"y": -3.3913271386,
				"z": -0.4410670493,
				"element": "H" 
			},
			{
				"x": 0.6492676683,
				"y": 4.7511517997,
				"z": 1.2303044858,
				"element": "H" 
			},
			{
				"x": -1.7426839018,
				"y": 1.429232938,
				"z": 0.4988044309,
				"element": "H" 
			}
		],
		 "valence_orbital": [ 
			{
				"type": "occ",
				"energy": -0.29613,
				"method": "rhf"
			},
			{
				"type": "occ",
				"energy": -0.28739,
				"method": "rhf"
			},
			{
				"type": "occ",
				"energy": -0.26784,
				"method": "rhf"
			},
			{
				"type": "occ",
				"energy": -0.24687,
				"method": "rhf"
			},
			{
				"type": "occ",
				"energy": -0.23858,
				"method": "rhf"
			},
			{
				"type": "unocc",
				"energy": -0.06222,
				"method": "rhf"
			},
			{
				"type": "unocc",
				"energy": -0.04478,
				"method": "rhf"
			},
			{
				"type": "unocc",
				"energy": 0.02188,
				"method": "rhf"
			},
			{
				"type": "unocc",
				"energy": 0.02597,
				"method": "rhf"
			},
			{
				"type": "unocc",
				"energy": 0.06671,
				"method": "rhf"
			}
		],
		"cosmo_sigma_profile": { 
			"-0.025": 0.0,
			"-0.024": 0.0,
			"-0.023": 0.0,
			"-0.022": 0.0,
			"-0.021": 0.0,
			"-0.02": 0.0,
			"-0.019": 0.0,
			"-0.018": 0.0,
			"-0.017": 0.0,
			"-0.016": 0.0,
			"-0.015": 0.0,
			"-0.014": 0.0,
			"-0.013": 0.0,
			"-0.012": 0.0,
			"-0.011": 0.0,
			"-0.01": 0.0,
			"-0.009": 0.716133915076,
			"-0.008": 1.79087135064,
			"-0.007": 2.84066735367,
			"-0.006": 5.13956673209,
			"-0.005": 12.7815996036,
			"-0.004": 18.1828785773,
			"-0.003": 22.9876235267,
			"-0.002": 29.3813916482,
			"-0.001": 29.0982100894,
			"0.0": 22.9610588605,
			"0.001": 15.283051035,
			"0.002": 16.1502447885,
			"0.003": 18.2173909033,
			"0.004": 16.0381329609,
			"0.005": 7.01879974224,
			"0.006": 4.8943047109,
			"0.007": 2.38251642094,
			"0.008": 1.6142517236,
			"0.009": 3.0930426679,
			"0.01": 2.52760450559,
			"0.011": 2.28950274311,
			"0.012": 0.609554348684,
			"0.013": 0.873457209404,
			"0.014": 0.592342757939,
			"0.015": 0.00030395182084,
			"0.016": 0.0,
			"0.017": 0.0,
			"0.018": 0.0,
			"0.019": 0.0,
			"0.02": 0.0,
			"0.021": 0.0,
			"0.022": 0.0,
			"0.023": 0.0,
			"0.024": 0.0,
			"0.025": 0.0
		}
	}
}
