{
	 "smiles": "COC1=CC(NC(=O)CCl)=CC(OC)=C1OC", 
	 "Tm": 378.15, 
	 "num_atms": 31, 
	 "gaussian": { 
		 "optdone": 1, 
		 "sigma_profile": "yes", 
		 "theory": "DFT", 
		 "functional": "B3LYP", 
		 "basiset": "6-31G**", 
		 "properties": { 
			 "R2extent": 5553.8053, 
			 "electric_dipole_moment_norm": 5.29188144331, 
			 "electric_quadrupole_moment_norm": 12.5750757369, 
			 "total_energy": -1243.40336886, 
			 "HOMO_LUMO_gap": 0.1941, 
			 "cosmo_polarized_energy": -14.87, 
			 "cosmo_cavitation_energy": 36.66, 
			 "cosmo_dispersion_energy": -25.18, 
			 "cosmo_repulsion_energy": 2.0, 
			 "cosmo_total_nonelectrostatic_energy": 13.49, 
			 "SMD_solvation_energy": 9.06 
		},
		"coords": [
			{
				"x": 2.9322269419,
				"y": -1.3457657467,
				"z": -0.759734309,
				"element": "C" 
			},
			{
				"x": 2.2099268202,
				"y": -1.1777545207,
				"z": 0.4665175426,
				"element": "O" 
			},
			{
				"x": 1.1737062231,
				"y": -0.2776775235,
				"z": 0.4234099308,
				"element": "C" 
			},
			{
				"x": -0.1261221712,
				"y": -0.7563490675,
				"z": 0.6041250264,
				"element": "C" 
			},
			{
				"x": -1.1978652118,
				"y": 0.1431368274,
				"z": 0.6379939627,
				"element": "C" 
			},
			{
				"x": -2.5345596237,
				"y": -0.2831054077,
				"z": 0.8480681666,
				"element": "N" 
			},
			{
				"x": -3.270955894,
				"y": -1.3142833177,
				"z": 0.306726136,
				"element": "C" 
			},
			{
				"x": -4.4372771812,
				"y": -1.4835111442,
				"z": 0.6252527324,
				"element": "O" 
			},
			{
				"x": -2.611000908,
				"y": -2.2037603277,
				"z": -0.7433692379,
				"element": "C" 
			},
			{
				"x": -2.0445089999,
				"y": -3.7651838895,
				"z": -0.0140008833,
				"element": "Cl" 
			},
			{
				"x": -0.9590362796,
				"y": 1.5164916609,
				"z": 0.5027119541,
				"element": "C" 
			},
			{
				"x": 0.3424965666,
				"y": 1.9968033358,
				"z": 0.3527093202,
				"element": "C" 
			},
			{
				"x": 0.5280925518,
				"y": 3.3539851949,
				"z": 0.3129084226,
				"element": "O" 
			},
			{
				"x": 1.0922556903,
				"y": 3.8825154234,
				"z": -0.8939197143,
				"element": "C" 
			},
			{
				"x": 1.4247911947,
				"y": 1.0997819164,
				"z": 0.30752363,
				"element": "C" 
			},
			{
				"x": 2.7118053522,
				"y": 1.5697419808,
				"z": 0.1633309173,
				"element": "O" 
			},
			{
				"x": 3.4283286918,
				"y": 1.6815402352,
				"z": 1.4024932472,
				"element": "C" 
			},
			{
				"x": 2.271971861,
				"y": -1.7281363233,
				"z": -1.5483260015,
				"element": "H" 
			},
			{
				"x": 3.3893277676,
				"y": -0.4067254566,
				"z": -1.0844804021,
				"element": "H" 
			},
			{
				"x": 3.7094587576,
				"y": -2.0841473044,
				"z": -0.5541152964,
				"element": "H" 
			},
			{
				"x": -0.2681788692,
				"y": -1.8193404613,
				"z": 0.7578747672,
				"element": "H" 
			},
			{
				"x": -3.110628227,
				"y": 0.311819287,
				"z": 1.4320926938,
				"element": "H" 
			},
			{
				"x": -3.3763133592,
				"y": -2.4643384621,
				"z": -1.4724916594,
				"element": "H" 
			},
			{
				"x": -1.7506992371,
				"y": -1.7448437952,
				"z": -1.2281964882,
				"element": "H" 
			},
			{
				"x": -1.7755630387,
				"y": 2.2308847551,
				"z": 0.5176110808,
				"element": "H" 
			},
			{
				"x": 2.090023257,
				"y": 3.4774236195,
				"z": -1.0795700518,
				"element": "H" 
			},
			{
				"x": 0.4406954909,
				"y": 3.6690571012,
				"z": -1.7508111521,
				"element": "H" 
			},
			{
				"x": 1.1511503794,
				"y": 4.9629347631,
				"z": -0.749131926,
				"element": "H" 
			},
			{
				"x": 4.4213575316,
				"y": 2.0586848168,
				"z": 1.1498104597,
				"element": "H" 
			},
			{
				"x": 3.5178891422,
				"y": 0.7044068595,
				"z": 1.8882194259,
				"element": "H" 
			},
			{
				"x": 2.9293047808,
				"y": 2.3876149712,
				"z": 2.0757677055,
				"element": "H" 
			}
		],
		 "valence_orbital": [ 
			{
				"type": "occ",
				"energy": -0.27826,
				"method": "rhf"
			},
			{
				"type": "occ",
				"energy": -0.2703,
				"method": "rhf"
			},
			{
				"type": "occ",
				"energy": -0.26202,
				"method": "rhf"
			},
			{
				"type": "occ",
				"energy": -0.24218,
				"method": "rhf"
			},
			{
				"type": "occ",
				"energy": -0.2272,
				"method": "rhf"
			},
			{
				"type": "unocc",
				"energy": -0.0331,
				"method": "rhf"
			},
			{
				"type": "unocc",
				"energy": -0.01004,
				"method": "rhf"
			},
			{
				"type": "unocc",
				"energy": -0.00386,
				"method": "rhf"
			},
			{
				"type": "unocc",
				"energy": 0.05716,
				"method": "rhf"
			},
			{
				"type": "unocc",
				"energy": 0.06697,
				"method": "rhf"
			}
		],
		"cosmo_sigma_profile": { 
			"-0.025": 0.0,
			"-0.024": 0.0,
			"-0.023": 0.0,
			"-0.022": 0.0,
			"-0.021": 0.0,
			"-0.02": 0.0,
			"-0.019": 0.0,
			"-0.018": 0.0,
			"-0.017": 0.0,
			"-0.016": 0.0,
			"-0.015": 0.35307417139,
			"-0.014": 1.20687465073,
			"-0.013": 1.14295212923,
			"-0.012": 1.02228424062,
			"-0.011": 1.0360276987,
			"-0.01": 1.37855785363,
			"-0.009": 1.94883866387,
			"-0.008": 4.28955316848,
			"-0.007": 7.10192231085,
			"-0.006": 10.3159107306,
			"-0.005": 16.0274160368,
			"-0.004": 22.0517695899,
			"-0.003": 33.1373727704,
			"-0.002": 29.3157674438,
			"-0.001": 21.6072445064,
			"0.0": 18.8404861603,
			"0.001": 19.1782419739,
			"0.002": 20.1601992953,
			"0.003": 19.4714206269,
			"0.004": 12.6957730505,
			"0.005": 13.2656104609,
			"0.006": 7.28816470541,
			"0.007": 4.04866281775,
			"0.008": 3.63214343458,
			"0.009": 3.91168173586,
			"0.01": 3.84801333806,
			"0.011": 4.5269428661,
			"0.012": 4.76997389718,
			"0.013": 4.60449154256,
			"0.014": 0.562942601223,
			"0.015": 0.0,
			"0.016": 0.0,
			"0.017": 0.0,
			"0.018": 0.0,
			"0.019": 0.0,
			"0.02": 0.0,
			"0.021": 0.0,
			"0.022": 0.0,
			"0.023": 0.0,
			"0.024": 0.0,
			"0.025": 0.0
		}
	}
}
