{
	 "smiles": "CCN1CCCC1CNC(=O)C1CCNCC1", 
	 "Tm": 465.15, 
	 "num_atms": 42, 
	 "gaussian": { 
		 "optdone": 1, 
		 "sigma_profile": "yes", 
		 "theory": "DFT", 
		 "functional": "B3LYP", 
		 "basiset": "6-31G**", 
		 "properties": { 
			 "R2extent": 7131.2636, 
			 "electric_dipole_moment_norm": 3.21417331984, 
			 "electric_quadrupole_moment_norm": 4.35162796434, 
			 "total_energy": -749.934569391, 
			 "HOMO_LUMO_gap": 0.23203, 
			 "cosmo_polarized_energy": -14.73, 
			 "cosmo_cavitation_energy": 40.26, 
			 "cosmo_dispersion_energy": -28.52, 
			 "cosmo_repulsion_energy": 2.25, 
			 "cosmo_total_nonelectrostatic_energy": 13.99, 
			 "SMD_solvation_energy": 1.32 
		},
		"coords": [
			{
				"x": -0.4025191324,
				"y": 0.0887511274,
				"z": -4.3136177244,
				"element": "C" 
			},
			{
				"x": -1.8769947728,
				"y": 0.0657568534,
				"z": -3.9080506254,
				"element": "C" 
			},
			{
				"x": -2.1257201418,
				"y": 0.736053719,
				"z": -2.6295327128,
				"element": "N" 
			},
			{
				"x": -3.5475861248,
				"y": 1.0417113065,
				"z": -2.3683327015,
				"element": "C" 
			},
			{
				"x": -4.0338209626,
				"y": -0.0287824759,
				"z": -1.3816590276,
				"element": "C" 
			},
			{
				"x": -2.8028500116,
				"y": -0.1945136115,
				"z": -0.4799396019,
				"element": "C" 
			},
			{
				"x": -1.6026802607,
				"y": 0.0092747156,
				"z": -1.4456230266,
				"element": "C" 
			},
			{
				"x": -0.4463143172,
				"y": 0.8021198563,
				"z": -0.8082091541,
				"element": "C" 
			},
			{
				"x": 0.133822528,
				"y": 0.1521647333,
				"z": 0.3617995496,
				"element": "N" 
			},
			{
				"x": -0.1086811645,
				"y": 0.556811313,
				"z": 1.645038736,
				"element": "C" 
			},
			{
				"x": -0.8674983497,
				"y": 1.4862890762,
				"z": 1.9140287325,
				"element": "O" 
			},
			{
				"x": 0.6818158443,
				"y": -0.1913523167,
				"z": 2.7236887352,
				"element": "C" 
			},
			{
				"x": 1.9400909783,
				"y": 0.6438972905,
				"z": 3.1164395927,
				"element": "C" 
			},
			{
				"x": 1.6268302453,
				"y": 1.6153297126,
				"z": 4.2544807492,
				"element": "C" 
			},
			{
				"x": 1.3124310719,
				"y": 0.8637291269,
				"z": 5.4856517299,
				"element": "N" 
			},
			{
				"x": 0.6377163002,
				"y": -0.4251898466,
				"z": 5.2509426817,
				"element": "C" 
			},
			{
				"x": -0.203200718,
				"y": -0.4530483244,
				"z": 3.9676961648,
				"element": "C" 
			},
			{
				"x": -0.2724930793,
				"y": -0.3640634179,
				"z": -5.302377405,
				"element": "H" 
			},
			{
				"x": -0.0322591727,
				"y": 1.1179527311,
				"z": -4.3482269842,
				"element": "H" 
			},
			{
				"x": 0.2232111719,
				"y": -0.4738943215,
				"z": -3.6126456493,
				"element": "H" 
			},
			{
				"x": -2.4534743348,
				"y": 0.5959816364,
				"z": -4.6738443177,
				"element": "H" 
			},
			{
				"x": -2.2362741806,
				"y": -0.9830541337,
				"z": -3.9118538525,
				"element": "H" 
			},
			{
				"x": -3.6325816374,
				"y": 2.0366118944,
				"z": -1.9089418625,
				"element": "H" 
			},
			{
				"x": -4.1134727532,
				"y": 1.0679940849,
				"z": -3.3043277925,
				"element": "H" 
			},
			{
				"x": -4.2556254276,
				"y": -0.9620459805,
				"z": -1.9139156204,
				"element": "H" 
			},
			{
				"x": -4.9336117547,
				"y": 0.2646122912,
				"z": -0.8317875601,
				"element": "H" 
			},
			{
				"x": -2.7887306695,
				"y": 0.5762167425,
				"z": 0.2979468438,
				"element": "H" 
			},
			{
				"x": -2.7636032197,
				"y": -1.164578539,
				"z": 0.0234276613,
				"element": "H" 
			},
			{
				"x": -1.2210064133,
				"y": -0.9747812181,
				"z": -1.7632524698,
				"element": "H" 
			},
			{
				"x": 0.3399071232,
				"y": 0.9698877145,
				"z": -1.5519747498,
				"element": "H" 
			},
			{
				"x": -0.8133833308,
				"y": 1.7774029355,
				"z": -0.4823708634,
				"element": "H" 
			},
			{
				"x": 0.7503061455,
				"y": -0.6337809965,
				"z": 0.2192947728,
				"element": "H" 
			},
			{
				"x": 1.026906932,
				"y": -1.1488229402,
				"z": 2.3118494012,
				"element": "H" 
			},
			{
				"x": 2.7382343181,
				"y": -0.0350985765,
				"z": 3.4385162929,
				"element": "H" 
			},
			{
				"x": 2.3225744746,
				"y": 1.1910221645,
				"z": 2.2481471228,
				"element": "H" 
			},
			{
				"x": 0.8026266406,
				"y": 2.2676974605,
				"z": 3.9273006044,
				"element": "H" 
			},
			{
				"x": 2.4949032621,
				"y": 2.2596266821,
				"z": 4.4447930293,
				"element": "H" 
			},
			{
				"x": 0.7274378208,
				"y": 1.4414927867,
				"z": 6.0803126738,
				"element": "H" 
			},
			{
				"x": 1.3914708995,
				"y": -1.2255715572,
				"z": 5.2072988913,
				"element": "H" 
			},
			{
				"x": 0.0126963363,
				"y": -0.6496226046,
				"z": 6.1216733367,
				"element": "H" 
			},
			{
				"x": -0.7240680777,
				"y": -1.4128684118,
				"z": 3.8680204891,
				"element": "H" 
			},
			{
				"x": -0.9683320856,
				"y": 0.3287813177,
				"z": 4.0143359104,
				"element": "H" 
			}
		],
		 "valence_orbital": [ 
			{
				"type": "occ",
				"energy": -0.3059,
				"method": "rhf"
			},
			{
				"type": "occ",
				"energy": -0.24899,
				"method": "rhf"
			},
			{
				"type": "occ",
				"energy": -0.24194,
				"method": "rhf"
			},
			{
				"type": "occ",
				"energy": -0.20383,
				"method": "rhf"
			},
			{
				"type": "occ",
				"energy": -0.20194,
				"method": "rhf"
			},
			{
				"type": "unocc",
				"energy": 0.03009,
				"method": "rhf"
			},
			{
				"type": "unocc",
				"energy": 0.06741,
				"method": "rhf"
			},
			{
				"type": "unocc",
				"energy": 0.08214,
				"method": "rhf"
			},
			{
				"type": "unocc",
				"energy": 0.08926,
				"method": "rhf"
			},
			{
				"type": "unocc",
				"energy": 0.10242,
				"method": "rhf"
			}
		],
		"cosmo_sigma_profile": { 
			"-0.025": 0.0,
			"-0.024": 0.0,
			"-0.023": 0.0,
			"-0.022": 0.0,
			"-0.021": 0.0,
			"-0.02": 0.0,
			"-0.019": 0.0,
			"-0.018": 0.0,
			"-0.017": 0.0,
			"-0.016": 0.0,
			"-0.015": 0.0,
			"-0.014": 0.498907273289,
			"-0.013": 1.42275010534,
			"-0.012": 0.954118749914,
			"-0.011": 1.22632347489,
			"-0.01": 1.80460746993,
			"-0.009": 2.20992778223,
			"-0.008": 3.16335052492,
			"-0.007": 3.25705324059,
			"-0.006": 3.25414158413,
			"-0.005": 3.99820309042,
			"-0.004": 13.0559126681,
			"-0.003": 32.7041047407,
			"-0.002": 49.483601145,
			"-0.001": 55.4502079411,
			"0.0": 45.0075207848,
			"0.001": 28.3259806853,
			"0.002": 13.8157950684,
			"0.003": 6.7977802056,
			"0.004": 4.43980964838,
			"0.005": 4.48537329036,
			"0.006": 3.80827877506,
			"0.007": 4.05099019522,
			"0.008": 3.71599328393,
			"0.009": 3.33952241916,
			"0.01": 2.35860931704,
			"0.011": 2.7538734537,
			"0.012": 2.75667788322,
			"0.013": 2.4701405701,
			"0.014": 4.89312235441,
			"0.015": 2.05519182931,
			"0.016": 0.320363659811,
			"0.017": 0.915987329821,
			"0.018": 0.232485053793,
			"0.019": 0.499456502744,
			"0.02": 0.0847935102655,
			"0.021": 0.0,
			"0.022": 0.0,
			"0.023": 0.0,
			"0.024": 0.0,
			"0.025": 0.0
		}
	}
}
