{
	 "smiles": "O=C1C=CC2=CC=CC3=C2C1=CC=C3", 
	 "Tm": 427.15, 
	 "num_atms": 22, 
	 "gaussian": { 
		 "optdone": 1, 
		 "sigma_profile": "yes", 
		 "theory": "DFT", 
		 "functional": "B3LYP", 
		 "basiset": "6-31G**", 
		 "properties": { 
			 "R2extent": 2621.7907, 
			 "electric_dipole_moment_norm": 4.34971205139, 
			 "electric_quadrupole_moment_norm": 13.5481693306, 
			 "total_energy": -575.442265455, 
			 "HOMO_LUMO_gap": 0.13071, 
			 "cosmo_polarized_energy": -10.7, 
			 "cosmo_cavitation_energy": 25.72, 
			 "cosmo_dispersion_energy": -19.35, 
			 "cosmo_repulsion_energy": 1.45, 
			 "cosmo_total_nonelectrostatic_energy": 7.82, 
			 "SMD_solvation_energy": 4.41 
		},
		"coords": [
			{
				"x": 0.3309721569,
				"y": 1.757041768,
				"z": -2.5373190981,
				"element": "O" 
			},
			{
				"x": 0.2516155302,
				"y": 0.969032636,
				"z": -1.5941484341,
				"element": "C" 
			},
			{
				"x": 1.3855604801,
				"y": 0.1196052205,
				"z": -1.1950132492,
				"element": "C" 
			},
			{
				"x": 1.3001884251,
				"y": -0.7462500955,
				"z": -0.1599484944,
				"element": "C" 
			},
			{
				"x": 0.0891868892,
				"y": -0.8988366178,
				"z": 0.6276197314,
				"element": "C" 
			},
			{
				"x": 0.0074059477,
				"y": -1.78996051,
				"z": 1.6898104696,
				"element": "C" 
			},
			{
				"x": -1.1804370822,
				"y": -1.9208448903,
				"z": 2.4406824965,
				"element": "C" 
			},
			{
				"x": -2.2874326537,
				"y": -1.1602628423,
				"z": 2.1294356364,
				"element": "C" 
			},
			{
				"x": -2.2522679581,
				"y": -0.2340503757,
				"z": 1.0506387971,
				"element": "C" 
			},
			{
				"x": -1.0497766665,
				"y": -0.1030435512,
				"z": 0.2922367468,
				"element": "C" 
			},
			{
				"x": -0.9970969915,
				"y": 0.8185303816,
				"z": -0.7900939391,
				"element": "C" 
			},
			{
				"x": -2.1134170599,
				"y": 1.582067204,
				"z": -1.1000131342,
				"element": "C" 
			},
			{
				"x": -3.3012774106,
				"y": 1.4562517155,
				"z": -0.3549609803,
				"element": "C" 
			},
			{
				"x": -3.3700063136,
				"y": 0.5660044321,
				"z": 0.6996102073,
				"element": "C" 
			},
			{
				"x": 2.2932494752,
				"y": 0.2292017506,
				"z": -1.7799372501,
				"element": "H" 
			},
			{
				"x": 2.1556839825,
				"y": -1.3614157495,
				"z": 0.1117922996,
				"element": "H" 
			},
			{
				"x": 0.8738539779,
				"y": -2.3950113892,
				"z": 1.9445475666,
				"element": "H" 
			},
			{
				"x": -1.2174556958,
				"y": -2.6250949326,
				"z": 3.2661341011,
				"element": "H" 
			},
			{
				"x": -3.2030713727,
				"y": -1.2595979836,
				"z": 2.7064373094,
				"element": "H" 
			},
			{
				"x": -2.040393342,
				"y": 2.2759154199,
				"z": -1.9317588876,
				"element": "H" 
			},
			{
				"x": -4.1650439108,
				"y": 2.0620244704,
				"z": -0.6118950962,
				"element": "H" 
			},
			{
				"x": -4.2863404076,
				"y": 0.4673939394,
				"z": 1.2761432017,
				"element": "H" 
			}
		],
		 "valence_orbital": [ 
			{
				"type": "occ",
				"energy": -0.31045,
				"method": "rhf"
			},
			{
				"type": "occ",
				"energy": -0.26735,
				"method": "rhf"
			},
			{
				"type": "occ",
				"energy": -0.25855,
				"method": "rhf"
			},
			{
				"type": "occ",
				"energy": -0.23933,
				"method": "rhf"
			},
			{
				"type": "occ",
				"energy": -0.22279,
				"method": "rhf"
			},
			{
				"type": "unocc",
				"energy": -0.09208,
				"method": "rhf"
			},
			{
				"type": "unocc",
				"energy": -0.02186,
				"method": "rhf"
			},
			{
				"type": "unocc",
				"energy": -0.00811,
				"method": "rhf"
			},
			{
				"type": "unocc",
				"energy": 0.00521,
				"method": "rhf"
			},
			{
				"type": "unocc",
				"energy": 0.08504,
				"method": "rhf"
			}
		],
		"cosmo_sigma_profile": { 
			"-0.025": 0.0,
			"-0.024": 0.0,
			"-0.023": 0.0,
			"-0.022": 0.0,
			"-0.021": 0.0,
			"-0.02": 0.0,
			"-0.019": 0.0,
			"-0.018": 0.0,
			"-0.017": 0.0,
			"-0.016": 0.0,
			"-0.015": 0.0,
			"-0.014": 0.0,
			"-0.013": 0.0,
			"-0.012": 0.0,
			"-0.011": 0.0,
			"-0.01": 0.0,
			"-0.009": 0.0,
			"-0.008": 1.50732453415,
			"-0.007": 12.4390665073,
			"-0.006": 15.6250240078,
			"-0.005": 16.4029238207,
			"-0.004": 13.1145847829,
			"-0.003": 9.6951928107,
			"-0.002": 10.358324558,
			"-0.001": 12.2677869133,
			"0.0": 14.8740263495,
			"0.001": 20.2053733804,
			"0.002": 35.1173688325,
			"0.003": 20.6904415224,
			"0.004": 4.08335204484,
			"0.005": 1.79464405023,
			"0.006": 1.34582722913,
			"0.007": 2.10243656357,
			"0.008": 0.999412615064,
			"0.009": 1.37087315335,
			"0.01": 1.71575104958,
			"0.011": 2.10810338423,
			"0.012": 2.57703315731,
			"0.013": 4.92416595897,
			"0.014": 2.06332704638,
			"0.015": 0.306397901739,
			"0.016": 0.0,
			"0.017": 0.0,
			"0.018": 0.0,
			"0.019": 0.0,
			"0.02": 0.0,
			"0.021": 0.0,
			"0.022": 0.0,
			"0.023": 0.0,
			"0.024": 0.0,
			"0.025": 0.0
		}
	}
}
