{
	 "smiles": "NC1=CC(Br)=CNC1=S", 
	 "Tm": 464.15, 
	 "num_atms": 14, 
	 "gaussian": { 
		 "optdone": 1, 
		 "sigma_profile": "yes", 
		 "theory": "DFT", 
		 "functional": "B3LYP", 
		 "basiset": "6-31G**", 
		 "properties": { 
			 "R2extent": 2649.4716, 
			 "electric_dipole_moment_norm": 2.8675005231, 
			 "electric_quadrupole_moment_norm": 19.2661009963, 
			 "total_energy": -3272.64554309, 
			 "HOMO_LUMO_gap": 0.13948, 
			 "cosmo_polarized_energy": -16.17, 
			 "cosmo_cavitation_energy": 22.06, 
			 "cosmo_dispersion_energy": -17.67, 
			 "cosmo_repulsion_energy": 1.4, 
			 "cosmo_total_nonelectrostatic_energy": 5.79, 
			 "SMD_solvation_energy": 1.92 
		},
		"coords": [
			{
				"x": 0.3808672968,
				"y": -1.6861587039,
				"z": -1.9043622467,
				"element": "N" 
			},
			{
				"x": 0.183523412,
				"y": -0.839026822,
				"z": -0.8564424229,
				"element": "C" 
			},
			{
				"x": 0.6526848037,
				"y": 0.4673566269,
				"z": -0.8320430592,
				"element": "C" 
			},
			{
				"x": 0.3733313947,
				"y": 1.3081321021,
				"z": 0.2671659952,
				"element": "C" 
			},
			{
				"x": 1.0169878624,
				"y": 3.097132018,
				"z": 0.2833854778,
				"element": "Br" 
			},
			{
				"x": -0.3604477492,
				"y": 0.8442269732,
				"z": 1.3218922038,
				"element": "C" 
			},
			{
				"x": -0.8026324166,
				"y": -0.4508034335,
				"z": 1.2740725089,
				"element": "N" 
			},
			{
				"x": -0.5876534197,
				"y": -1.3538709861,
				"z": 0.2672716895,
				"element": "C" 
			},
			{
				"x": -1.1774824086,
				"y": -2.9311197562,
				"z": 0.3661866954,
				"element": "S" 
			},
			{
				"x": 1.0965194537,
				"y": -1.4810784583,
				"z": -2.582297699,
				"element": "H" 
			},
			{
				"x": 0.1307761144,
				"y": -2.6548238529,
				"z": -1.7384403734,
				"element": "H" 
			},
			{
				"x": 1.2312873252,
				"y": 0.853073802,
				"z": -1.6645812411,
				"element": "H" 
			},
			{
				"x": -0.6178992021,
				"y": 1.4247308784,
				"z": 2.1960420768,
				"element": "H" 
			},
			{
				"x": -1.3392624667,
				"y": -0.8161703877,
				"z": 2.0528503949,
				"element": "H" 
			}
		],
		 "valence_orbital": [ 
			{
				"type": "occ",
				"energy": -0.30353,
				"method": "rhf"
			},
			{
				"type": "occ",
				"energy": -0.28281,
				"method": "rhf"
			},
			{
				"type": "occ",
				"energy": -0.25176,
				"method": "rhf"
			},
			{
				"type": "occ",
				"energy": -0.21591,
				"method": "rhf"
			},
			{
				"type": "occ",
				"energy": -0.19509,
				"method": "rhf"
			},
			{
				"type": "unocc",
				"energy": -0.05561,
				"method": "rhf"
			},
			{
				"type": "unocc",
				"energy": -0.01774,
				"method": "rhf"
			},
			{
				"type": "unocc",
				"energy": -0.01009,
				"method": "rhf"
			},
			{
				"type": "unocc",
				"energy": 0.0654,
				"method": "rhf"
			},
			{
				"type": "unocc",
				"energy": 0.08089,
				"method": "rhf"
			}
		],
		"cosmo_sigma_profile": { 
			"-0.025": 0.0,
			"-0.024": 0.0,
			"-0.023": 0.0,
			"-0.022": 0.0,
			"-0.021": 0.0,
			"-0.02": 0.0,
			"-0.019": 0.0,
			"-0.018": 0.0874870633379,
			"-0.017": 1.12427577382,
			"-0.016": 1.37188727894,
			"-0.015": 0.972906843438,
			"-0.014": 2.14375998772,
			"-0.013": 2.45192247371,
			"-0.012": 3.02171856285,
			"-0.011": 3.61235968023,
			"-0.01": 4.58351984478,
			"-0.009": 4.64542653731,
			"-0.008": 5.40867389237,
			"-0.007": 4.43143676965,
			"-0.006": 3.96858564511,
			"-0.005": 5.52817264873,
			"-0.004": 5.58693624155,
			"-0.003": 5.63396689802,
			"-0.002": 9.50352850319,
			"-0.001": 11.3131889448,
			"0.0": 13.7883185107,
			"0.001": 17.3293571764,
			"0.002": 11.811073687,
			"0.003": 11.0405575027,
			"0.004": 13.0397684824,
			"0.005": 4.26609528726,
			"0.006": 4.67336656348,
			"0.007": 5.39371100135,
			"0.008": 4.21762315642,
			"0.009": 5.35176427208,
			"0.01": 5.59943892478,
			"0.011": 6.88446390784,
			"0.012": 3.70914533726,
			"0.013": 0.122709500734,
			"0.014": 0.0,
			"0.015": 0.0,
			"0.016": 0.0,
			"0.017": 0.0,
			"0.018": 0.0,
			"0.019": 0.0,
			"0.02": 0.0,
			"0.021": 0.0,
			"0.022": 0.0,
			"0.023": 0.0,
			"0.024": 0.0,
			"0.025": 0.0
		}
	}
}
