{
	 "smiles": "NC1=NN(C=C1)C1=CC=C(Cl)C=C1", 
	 "Tm": 380.65, 
	 "num_atms": 21, 
	 "gaussian": { 
		 "optdone": 1, 
		 "sigma_profile": "yes", 
		 "theory": "DFT", 
		 "functional": "B3LYP", 
		 "basiset": "6-31G**", 
		 "properties": { 
			 "R2extent": 4962.7871, 
			 "electric_dipole_moment_norm": 3.24701133352, 
			 "electric_quadrupole_moment_norm": 10.9535507357, 
			 "total_energy": -972.206393263, 
			 "HOMO_LUMO_gap": 0.1745, 
			 "cosmo_polarized_energy": -11.57, 
			 "cosmo_cavitation_energy": 27.33, 
			 "cosmo_dispersion_energy": -20.58, 
			 "cosmo_repulsion_energy": 1.62, 
			 "cosmo_total_nonelectrostatic_energy": 8.37, 
			 "SMD_solvation_energy": 3.97 
		},
		"coords": [
			{
				"x": -0.7626547545,
				"y": 3.5819568722,
				"z": -1.7589392241,
				"element": "N" 
			},
			{
				"x": -0.9110368067,
				"y": 2.2753787781,
				"z": -1.3070630928,
				"element": "C" 
			},
			{
				"x": -0.8233731897,
				"y": 1.9868262083,
				"z": -0.0131599837,
				"element": "N" 
			},
			{
				"x": -1.0917254741,
				"y": 0.6448274185,
				"z": 0.0674183055,
				"element": "N" 
			},
			{
				"x": -1.3343327194,
				"y": 0.1092598166,
				"z": -1.1656059926,
				"element": "C" 
			},
			{
				"x": -1.2271055547,
				"y": 1.1251929921,
				"z": -2.0853456429,
				"element": "C" 
			},
			{
				"x": -1.1054059141,
				"y": 0.0050227903,
				"z": 1.3244213605,
				"element": "C" 
			},
			{
				"x": -1.1488496694,
				"y": 0.7797632144,
				"z": 2.4914804034,
				"element": "C" 
			},
			{
				"x": -1.1697345953,
				"y": 0.1636420086,
				"z": 3.7391964708,
				"element": "C" 
			},
			{
				"x": -1.1530690186,
				"y": -1.228401271,
				"z": 3.823982172,
				"element": "C" 
			},
			{
				"x": -1.1857448721,
				"y": -2.0069771559,
				"z": 5.4002329241,
				"element": "Cl" 
			},
			{
				"x": -1.1045138677,
				"y": -2.009475957,
				"z": 2.6706759967,
				"element": "C" 
			},
			{
				"x": -1.0727009686,
				"y": -1.3925425595,
				"z": 1.4221077933,
				"element": "C" 
			},
			{
				"x": -0.3381998472,
				"y": 4.1836757526,
				"z": -1.0639302503,
				"element": "H" 
			},
			{
				"x": -0.2955705531,
				"y": 3.6589193091,
				"z": -2.652689078,
				"element": "H" 
			},
			{
				"x": -1.5883440353,
				"y": -0.9308317238,
				"z": -1.2982430457,
				"element": "H" 
			},
			{
				"x": -1.3765151506,
				"y": 1.0625867688,
				"z": -3.1527691432,
				"element": "H" 
			},
			{
				"x": -1.1640426994,
				"y": 1.8584116681,
				"z": 2.4020994107,
				"element": "H" 
			},
			{
				"x": -1.2046835245,
				"y": 0.7625396649,
				"z": 4.6425150451,
				"element": "H" 
			},
			{
				"x": -1.079326965,
				"y": -3.0908248474,
				"z": 2.7456782496,
				"element": "H" 
			},
			{
				"x": -1.0049698203,
				"y": -2.0091497481,
				"z": 0.5328373218,
				"element": "H" 
			}
		],
		 "valence_orbital": [ 
			{
				"type": "occ",
				"energy": -0.29109,
				"method": "rhf"
			},
			{
				"type": "occ",
				"energy": -0.26616,
				"method": "rhf"
			},
			{
				"type": "occ",
				"energy": -0.26227,
				"method": "rhf"
			},
			{
				"type": "occ",
				"energy": -0.24156,
				"method": "rhf"
			},
			{
				"type": "occ",
				"energy": -0.20067,
				"method": "rhf"
			},
			{
				"type": "unocc",
				"energy": -0.02617,
				"method": "rhf"
			},
			{
				"type": "unocc",
				"energy": -0.01496,
				"method": "rhf"
			},
			{
				"type": "unocc",
				"energy": 0.03172,
				"method": "rhf"
			},
			{
				"type": "unocc",
				"energy": 0.03867,
				"method": "rhf"
			},
			{
				"type": "unocc",
				"energy": 0.07232,
				"method": "rhf"
			}
		],
		"cosmo_sigma_profile": { 
			"-0.025": 0.0,
			"-0.024": 0.0,
			"-0.023": 0.0,
			"-0.022": 0.0,
			"-0.021": 0.0,
			"-0.02": 0.0,
			"-0.019": 0.0,
			"-0.018": 0.0,
			"-0.017": 0.0,
			"-0.016": 0.0,
			"-0.015": 0.0,
			"-0.014": 0.0,
			"-0.013": 0.719725351445,
			"-0.012": 2.318411903,
			"-0.011": 2.97362611388,
			"-0.01": 4.12197217981,
			"-0.009": 4.56970915097,
			"-0.008": 5.4451563796,
			"-0.007": 9.77831540022,
			"-0.006": 10.2908083676,
			"-0.005": 11.2968047322,
			"-0.004": 9.76273799081,
			"-0.003": 8.9274959581,
			"-0.002": 9.93533848297,
			"-0.001": 10.1858068813,
			"0.0": 12.8674374675,
			"0.001": 16.9359242853,
			"0.002": 19.438598278,
			"0.003": 26.2120780777,
			"0.004": 20.3793120195,
			"0.005": 14.9355531792,
			"0.006": 4.57885488009,
			"0.007": 3.05595086667,
			"0.008": 2.45032583165,
			"0.009": 2.30919778544,
			"0.01": 2.53685983118,
			"0.011": 1.70179730417,
			"0.012": 1.48985731103,
			"0.013": 1.50173781356,
			"0.014": 0.555384949862,
			"0.015": 0.374544869081,
			"0.016": 0.00367881517977,
			"0.017": 0.0,
			"0.018": 0.0,
			"0.019": 0.0,
			"0.02": 0.0,
			"0.021": 0.0,
			"0.022": 0.0,
			"0.023": 0.0,
			"0.024": 0.0,
			"0.025": 0.0
		}
	}
}
