{
	 "smiles": "CCCCCCOC1=C(C=CC=C1)C(N)=O", 
	 "Tm": 344.15, 
	 "num_atms": 35, 
	 "gaussian": { 
		 "optdone": 1, 
		 "sigma_profile": "yes", 
		 "theory": "DFT", 
		 "functional": "B3LYP", 
		 "basiset": "6-31G**", 
		 "properties": { 
			 "R2extent": 5603.7753, 
			 "electric_dipole_moment_norm": 2.82222813571, 
			 "electric_quadrupole_moment_norm": 11.8643777401, 
			 "total_energy": -712.057070187, 
			 "HOMO_LUMO_gap": 0.21149, 
			 "cosmo_polarized_energy": -13.11, 
			 "cosmo_cavitation_energy": 37.47, 
			 "cosmo_dispersion_energy": -26.29, 
			 "cosmo_repulsion_energy": 2.12, 
			 "cosmo_total_nonelectrostatic_energy": 13.3, 
			 "SMD_solvation_energy": 6.67 
		},
		"coords": [
			{
				"x": -1.2427531789,
				"y": -5.6189871492,
				"z": 1.9499193056,
				"element": "C" 
			},
			{
				"x": -0.9938247083,
				"y": -4.3111160767,
				"z": 1.1912587931,
				"element": "C" 
			},
			{
				"x": -0.25800858,
				"y": -3.2599155426,
				"z": 2.0348737288,
				"element": "C" 
			},
			{
				"x": -0.049954234,
				"y": -1.9032842199,
				"z": 1.3434469363,
				"element": "C" 
			},
			{
				"x": 0.8910678652,
				"y": -1.9510986672,
				"z": 0.1306154223,
				"element": "C" 
			},
			{
				"x": 1.1954827315,
				"y": -0.580736569,
				"z": -0.4565933546,
				"element": "C" 
			},
			{
				"x": -0.0452952732,
				"y": -0.0092299791,
				"z": -0.9280956493,
				"element": "O" 
			},
			{
				"x": 0.0480329812,
				"y": 1.2337928598,
				"z": -1.4956946727,
				"element": "C" 
			},
			{
				"x": -0.1686763071,
				"y": 2.4011315925,
				"z": -0.7361797668,
				"element": "C" 
			},
			{
				"x": -0.1600166666,
				"y": 3.6441726617,
				"z": -1.3873541654,
				"element": "C" 
			},
			{
				"x": 0.0763057146,
				"y": 3.7392441935,
				"z": -2.757896599,
				"element": "C" 
			},
			{
				"x": 0.2887442909,
				"y": 2.5774023331,
				"z": -3.5020120064,
				"element": "C" 
			},
			{
				"x": 0.2697653607,
				"y": 1.3332906935,
				"z": -2.8731367926,
				"element": "C" 
			},
			{
				"x": -0.382547799,
				"y": 2.3298978179,
				"z": 0.7514726332,
				"element": "C" 
			},
			{
				"x": -1.389114388,
				"y": 3.1382559614,
				"z": 1.2205831248,
				"element": "N" 
			},
			{
				"x": 0.3084744904,
				"y": 1.6572113391,
				"z": 1.5064851917,
				"element": "O" 
			},
			{
				"x": -1.7704197078,
				"y": -6.350669324,
				"z": 1.3289101407,
				"element": "H" 
			},
			{
				"x": -1.8474123799,
				"y": -5.4470896635,
				"z": 2.8480073961,
				"element": "H" 
			},
			{
				"x": -0.2996789903,
				"y": -6.0756991717,
				"z": 2.2720888529,
				"element": "H" 
			},
			{
				"x": -1.9530053344,
				"y": -3.8935112883,
				"z": 0.8550694245,
				"element": "H" 
			},
			{
				"x": -0.4220281449,
				"y": -4.5274096081,
				"z": 0.2799526197,
				"element": "H" 
			},
			{
				"x": -0.8251819528,
				"y": -3.0974291417,
				"z": 2.9618679777,
				"element": "H" 
			},
			{
				"x": 0.7160793442,
				"y": -3.6654361879,
				"z": 2.346741557,
				"element": "H" 
			},
			{
				"x": -1.017875914,
				"y": -1.4988259467,
				"z": 1.024542879,
				"element": "H" 
			},
			{
				"x": 0.3495758382,
				"y": -1.1837258819,
				"z": 2.0682408836,
				"element": "H" 
			},
			{
				"x": 1.8501918301,
				"y": -2.4022902685,
				"z": 0.4219326861,
				"element": "H" 
			},
			{
				"x": 0.4724043238,
				"y": -2.5865536901,
				"z": -0.6591456305,
				"element": "H" 
			},
			{
				"x": 1.8948664648,
				"y": -0.6655146779,
				"z": -1.3010453569,
				"element": "H" 
			},
			{
				"x": 1.621759097,
				"y": 0.0876145449,
				"z": 0.2983992075,
				"element": "H" 
			},
			{
				"x": -0.3151086965,
				"y": 4.5450811441,
				"z": -0.8006554416,
				"element": "H" 
			},
			{
				"x": 0.0931779769,
				"y": 4.7117743247,
				"z": -3.2402715888,
				"element": "H" 
			},
			{
				"x": 0.4640146847,
				"y": 2.6379645603,
				"z": -4.5723630857,
				"element": "H" 
			},
			{
				"x": 0.4070344374,
				"y": 0.4163564803,
				"z": -3.4378406712,
				"element": "H" 
			},
			{
				"x": -2.1128454801,
				"y": 3.4646432971,
				"z": 0.5994995101,
				"element": "H" 
			},
			{
				"x": -1.6129296958,
				"y": 3.04978925,
				"z": 2.2014765107,
				"element": "H" 
			}
		],
		 "valence_orbital": [ 
			{
				"type": "occ",
				"energy": -0.2718,
				"method": "rhf"
			},
			{
				"type": "occ",
				"energy": -0.26232,
				"method": "rhf"
			},
			{
				"type": "occ",
				"energy": -0.25891,
				"method": "rhf"
			},
			{
				"type": "occ",
				"energy": -0.24963,
				"method": "rhf"
			},
			{
				"type": "occ",
				"energy": -0.23853,
				"method": "rhf"
			},
			{
				"type": "unocc",
				"energy": -0.02704,
				"method": "rhf"
			},
			{
				"type": "unocc",
				"energy": -0.0052,
				"method": "rhf"
			},
			{
				"type": "unocc",
				"energy": 0.04589,
				"method": "rhf"
			},
			{
				"type": "unocc",
				"energy": 0.08439,
				"method": "rhf"
			},
			{
				"type": "unocc",
				"energy": 0.09742,
				"method": "rhf"
			}
		],
		"cosmo_sigma_profile": { 
			"-0.025": 0.0,
			"-0.024": 0.0,
			"-0.023": 0.0,
			"-0.022": 0.0,
			"-0.021": 0.0,
			"-0.02": 0.0,
			"-0.019": 0.0,
			"-0.018": 0.0,
			"-0.017": 0.0,
			"-0.016": 0.0,
			"-0.015": 0.0,
			"-0.014": 1.47183023538,
			"-0.013": 2.08590374254,
			"-0.012": 1.93883504909,
			"-0.011": 2.81846784183,
			"-0.01": 2.07972220229,
			"-0.009": 1.63571768705,
			"-0.008": 2.58893372213,
			"-0.007": 2.37921874287,
			"-0.006": 8.32333045218,
			"-0.005": 10.5133114473,
			"-0.004": 12.207730372,
			"-0.003": 17.4414982543,
			"-0.002": 33.4153206254,
			"-0.001": 36.8130742933,
			"0.0": 37.6845734567,
			"0.001": 32.3131678792,
			"0.002": 21.2872423034,
			"0.003": 14.2148868733,
			"0.004": 14.8771785808,
			"0.005": 7.86180885793,
			"0.006": 4.14295188117,
			"0.007": 5.00001952427,
			"0.008": 4.60806291071,
			"0.009": 3.2201397257,
			"0.01": 2.8688926065,
			"0.011": 2.74560250655,
			"0.012": 2.18958767211,
			"0.013": 2.64692703347,
			"0.014": 1.27218200045,
			"0.015": 0.132143921122,
			"0.016": 0.0,
			"0.017": 0.0,
			"0.018": 0.0,
			"0.019": 0.0,
			"0.02": 0.0,
			"0.021": 0.0,
			"0.022": 0.0,
			"0.023": 0.0,
			"0.024": 0.0,
			"0.025": 0.0
		}
	}
}
