{
	 "smiles": "CNC1=C(N)C=C(C=C1)C(=O)OC", 
	 "Tm": 379.15, 
	 "num_atms": 25, 
	 "gaussian": { 
		 "optdone": 1, 
		 "sigma_profile": "yes", 
		 "theory": "DFT", 
		 "functional": "B3LYP", 
		 "basiset": "6-31G**", 
		 "properties": { 
			 "R2extent": 3731.0555, 
			 "electric_dipole_moment_norm": 3.99508769115, 
			 "electric_quadrupole_moment_norm": 14.9222939865, 
			 "total_energy": -610.157691702, 
			 "HOMO_LUMO_gap": 0.17005, 
			 "cosmo_polarized_energy": -13.85, 
			 "cosmo_cavitation_energy": 28.68, 
			 "cosmo_dispersion_energy": -21.2, 
			 "cosmo_repulsion_energy": 1.69, 
			 "cosmo_total_nonelectrostatic_energy": 9.16, 
			 "SMD_solvation_energy": 5.92 
		},
		"coords": [
			{
				"x": -0.6538246134,
				"y": -4.0241199417,
				"z": -0.333455565,
				"element": "C" 
			},
			{
				"x": -0.3209145793,
				"y": -2.8177856793,
				"z": -1.069526476,
				"element": "N" 
			},
			{
				"x": 0.3000394226,
				"y": -1.7456295243,
				"z": -0.4403746607,
				"element": "C" 
			},
			{
				"x": 0.771405991,
				"y": -0.6888026615,
				"z": -1.2685281566,
				"element": "C" 
			},
			{
				"x": 0.6005028225,
				"y": -0.8370100108,
				"z": -2.6664854056,
				"element": "N" 
			},
			{
				"x": 1.4139890794,
				"y": 0.4001190497,
				"z": -0.6967401651,
				"element": "C" 
			},
			{
				"x": 1.5952488556,
				"y": 0.4822120509,
				"z": 0.6960599723,
				"element": "C" 
			},
			{
				"x": 1.0993998731,
				"y": -0.5404254393,
				"z": 1.51033984,
				"element": "C" 
			},
			{
				"x": 0.4616282467,
				"y": -1.6435555385,
				"z": 0.9496023978,
				"element": "C" 
			},
			{
				"x": 2.2769238444,
				"y": 1.6256841221,
				"z": 1.3426282359,
				"element": "C" 
			},
			{
				"x": 2.4408901222,
				"y": 1.7555094268,
				"z": 2.5424737949,
				"element": "O" 
			},
			{
				"x": 2.717830309,
				"y": 2.5471327211,
				"z": 0.4441473583,
				"element": "O" 
			},
			{
				"x": 3.3865039211,
				"y": 3.6779086544,
				"z": 1.015627021,
				"element": "C" 
			},
			{
				"x": 0.2092493422,
				"y": -4.4796293645,
				"z": 0.1768965386,
				"element": "H" 
			},
			{
				"x": -1.0711419021,
				"y": -4.7560199395,
				"z": -1.028819483,
				"element": "H" 
			},
			{
				"x": -1.4177181763,
				"y": -3.8096162417,
				"z": 0.4210204618,
				"element": "H" 
			},
			{
				"x": 0.057489857,
				"y": -2.9789892489,
				"z": -1.9965376238,
				"element": "H" 
			},
			{
				"x": -0.3724953275,
				"y": -0.9996497199,
				"z": -2.9145608088,
				"element": "H" 
			},
			{
				"x": 0.9471611766,
				"y": -0.0369899104,
				"z": -3.1830635794,
				"element": "H" 
			},
			{
				"x": 1.7754198794,
				"y": 1.2042356454,
				"z": -1.3297879546,
				"element": "H" 
			},
			{
				"x": 1.2337424323,
				"y": -0.4630411719,
				"z": 2.583594159,
				"element": "H" 
			},
			{
				"x": 0.1025600938,
				"y": -2.4381748468,
				"z": 1.5940013302,
				"element": "H" 
			},
			{
				"x": 3.6719149686,
				"y": 4.3097699171,
				"z": 0.1738108879,
				"element": "H" 
			},
			{
				"x": 2.722109727,
				"y": 4.2209496572,
				"z": 1.6931864395,
				"element": "H" 
			},
			{
				"x": 4.2717846341,
				"y": 3.3639179944,
				"z": 1.5750914411,
				"element": "H" 
			}
		],
		 "valence_orbital": [ 
			{
				"type": "occ",
				"energy": -0.29288,
				"method": "rhf"
			},
			{
				"type": "occ",
				"energy": -0.28598,
				"method": "rhf"
			},
			{
				"type": "occ",
				"energy": -0.25734,
				"method": "rhf"
			},
			{
				"type": "occ",
				"energy": -0.22759,
				"method": "rhf"
			},
			{
				"type": "occ",
				"energy": -0.19239,
				"method": "rhf"
			},
			{
				"type": "unocc",
				"energy": -0.02234,
				"method": "rhf"
			},
			{
				"type": "unocc",
				"energy": 0.01308,
				"method": "rhf"
			},
			{
				"type": "unocc",
				"energy": 0.07032,
				"method": "rhf"
			},
			{
				"type": "unocc",
				"energy": 0.08447,
				"method": "rhf"
			},
			{
				"type": "unocc",
				"energy": 0.09618,
				"method": "rhf"
			}
		],
		"cosmo_sigma_profile": { 
			"-0.025": 0.0,
			"-0.024": 0.0,
			"-0.023": 0.0,
			"-0.022": 0.0,
			"-0.021": 0.0,
			"-0.02": 0.0,
			"-0.019": 0.0,
			"-0.018": 0.0,
			"-0.017": 0.0,
			"-0.016": 0.0,
			"-0.015": 0.0,
			"-0.014": 0.0,
			"-0.013": 0.0,
			"-0.012": 1.27883279004,
			"-0.011": 2.85940197235,
			"-0.01": 4.11321279072,
			"-0.009": 4.30743652414,
			"-0.008": 3.14964590392,
			"-0.007": 5.04292577017,
			"-0.006": 7.11055480459,
			"-0.005": 16.315001345,
			"-0.004": 17.9952309324,
			"-0.003": 23.4783003308,
			"-0.002": 17.6546923774,
			"-0.001": 15.8336876702,
			"0.0": 10.9146356784,
			"0.001": 9.71258900631,
			"0.002": 10.5058924198,
			"0.003": 12.8574483436,
			"0.004": 14.9827687966,
			"0.005": 14.5594183549,
			"0.006": 9.79581759107,
			"0.007": 4.80853818609,
			"0.008": 2.37606762232,
			"0.009": 2.79832361551,
			"0.01": 2.87021641456,
			"0.011": 2.10141349141,
			"0.012": 4.28658995799,
			"0.013": 4.49319743015,
			"0.014": 0.278124179599,
			"0.015": 0.0,
			"0.016": 0.0,
			"0.017": 0.0,
			"0.018": 0.0,
			"0.019": 0.0,
			"0.02": 0.0,
			"0.021": 0.0,
			"0.022": 0.0,
			"0.023": 0.0,
			"0.024": 0.0,
			"0.025": 0.0
		}
	}
}
