{
	 "smiles": "OC(=O)C(SC1=CC(Cl)=C(F)C=C1)C1=CC=CC=C1", 
	 "Tm": 348.15, 
	 "num_atms": 29, 
	 "gaussian": { 
		 "optdone": 1, 
		 "sigma_profile": "yes", 
		 "theory": "DFT", 
		 "functional": "B3LYP", 
		 "basiset": "6-31G**", 
		 "properties": { 
			 "R2extent": 7287.5985, 
			 "electric_dipole_moment_norm": 4.4311526198, 
			 "electric_quadrupole_moment_norm": 13.423726702, 
			 "total_energy": -1648.17827301, 
			 "HOMO_LUMO_gap": 0.19584, 
			 "cosmo_polarized_energy": -14.79, 
			 "cosmo_cavitation_energy": 37.31, 
			 "cosmo_dispersion_energy": -25.51, 
			 "cosmo_repulsion_energy": 1.93, 
			 "cosmo_total_nonelectrostatic_energy": 13.73, 
			 "SMD_solvation_energy": 6.92 
		},
		"coords": [
			{
				"x": 1.8858681186,
				"y": -2.9411603074,
				"z": 0.1434565163,
				"element": "O" 
			},
			{
				"x": 1.9900131252,
				"y": -1.8742786688,
				"z": 0.9633465874,
				"element": "C" 
			},
			{
				"x": 2.4449194037,
				"y": -1.9783538412,
				"z": 2.0741069573,
				"element": "O" 
			},
			{
				"x": 1.5727967194,
				"y": -0.5176799639,
				"z": 0.3488915949,
				"element": "C" 
			},
			{
				"x": 0.2362934697,
				"y": -0.7073331082,
				"z": -0.9649522975,
				"element": "S" 
			},
			{
				"x": -1.2393051758,
				"y": -1.064109668,
				"z": -0.0111530947,
				"element": "C" 
			},
			{
				"x": -1.5024318771,
				"y": -2.3596813109,
				"z": 0.4567780533,
				"element": "C" 
			},
			{
				"x": -2.6816958667,
				"y": -2.6209065175,
				"z": 1.1519600176,
				"element": "C" 
			},
			{
				"x": -3.0306420837,
				"y": -4.2225446614,
				"z": 1.7442183988,
				"element": "Cl" 
			},
			{
				"x": -3.5990396578,
				"y": -1.5880082198,
				"z": 1.3669081942,
				"element": "C" 
			},
			{
				"x": -4.7358804662,
				"y": -1.8384760118,
				"z": 2.0273733324,
				"element": "F" 
			},
			{
				"x": -3.3492604678,
				"y": -0.3021407837,
				"z": 0.9029089204,
				"element": "C" 
			},
			{
				"x": -2.1662647888,
				"y": -0.0380488097,
				"z": 0.2158051975,
				"element": "C" 
			},
			{
				"x": 1.2912097368,
				"y": 0.5791469976,
				"z": 1.3438213484,
				"element": "C" 
			},
			{
				"x": 0.5872659732,
				"y": 0.342206322,
				"z": 2.5327725431,
				"element": "C" 
			},
			{
				"x": 0.3080656588,
				"y": 1.3921566833,
				"z": 3.4076039118,
				"element": "C" 
			},
			{
				"x": 0.7243208662,
				"y": 2.6904104227,
				"z": 3.1085343498,
				"element": "C" 
			},
			{
				"x": 1.4268826164,
				"y": 2.9354695584,
				"z": 1.9271813943,
				"element": "C" 
			},
			{
				"x": 1.7066874491,
				"y": 1.886030754,
				"z": 1.0533243158,
				"element": "C" 
			},
			{
				"x": 1.4373965181,
				"y": -2.6576988264,
				"z": -0.6774258882,
				"element": "H" 
			},
			{
				"x": 2.4183447668,
				"y": -0.2162452741,
				"z": -0.2834488341,
				"element": "H" 
			},
			{
				"x": -0.7963787354,
				"y": -3.1656722178,
				"z": 0.2942428787,
				"element": "H" 
			},
			{
				"x": -4.0838254561,
				"y": 0.4733062004,
				"z": 1.090729478,
				"element": "H" 
			},
			{
				"x": -1.9593650931,
				"y": 0.9628454156,
				"z": -0.1454369742,
				"element": "H" 
			},
			{
				"x": 0.2799416781,
				"y": -0.6653132442,
				"z": 2.7875785746,
				"element": "H" 
			},
			{
				"x": -0.2309937634,
				"y": 1.1916880687,
				"z": 4.3288836489,
				"element": "H" 
			},
			{
				"x": 0.508827501,
				"y": 3.5045513305,
				"z": 3.7944183873,
				"element": "H" 
			},
			{
				"x": 1.7618177006,
				"y": 3.9406024284,
				"z": 1.6881271854,
				"element": "H" 
			},
			{
				"x": 2.25263213,
				"y": 2.0830372533,
				"z": 0.1337453024,
				"element": "H" 
			}
		],
		 "valence_orbital": [ 
			{
				"type": "occ",
				"energy": -0.27895,
				"method": "rhf"
			},
			{
				"type": "occ",
				"energy": -0.26604,
				"method": "rhf"
			},
			{
				"type": "occ",
				"energy": -0.26415,
				"method": "rhf"
			},
			{
				"type": "occ",
				"energy": -0.25513,
				"method": "rhf"
			},
			{
				"type": "occ",
				"energy": -0.24663,
				"method": "rhf"
			},
			{
				"type": "unocc",
				"energy": -0.05079,
				"method": "rhf"
			},
			{
				"type": "unocc",
				"energy": -0.03823,
				"method": "rhf"
			},
			{
				"type": "unocc",
				"energy": -0.02025,
				"method": "rhf"
			},
			{
				"type": "unocc",
				"energy": -0.00979,
				"method": "rhf"
			},
			{
				"type": "unocc",
				"energy": -0.00311,
				"method": "rhf"
			}
		],
		"cosmo_sigma_profile": { 
			"-0.025": 0.0,
			"-0.024": 0.0,
			"-0.023": 0.0,
			"-0.022": 0.0,
			"-0.021": 0.0,
			"-0.02": 0.0,
			"-0.019": 0.0,
			"-0.018": 0.0,
			"-0.017": 0.0,
			"-0.016": 0.0,
			"-0.015": 0.0,
			"-0.014": 0.0591035424281,
			"-0.013": 0.905974924639,
			"-0.012": 1.73573153479,
			"-0.011": 2.72312471968,
			"-0.01": 3.89811534159,
			"-0.009": 4.54791834634,
			"-0.008": 6.36725748973,
			"-0.007": 7.42151886316,
			"-0.006": 14.0194866314,
			"-0.005": 14.9774527872,
			"-0.004": 18.2223121659,
			"-0.003": 17.8366136467,
			"-0.002": 19.3865623246,
			"-0.001": 23.5280776324,
			"0.0": 26.0619369917,
			"0.001": 21.8906034905,
			"0.002": 21.5026985887,
			"0.003": 30.2232423085,
			"0.004": 24.8930120117,
			"0.005": 12.9430218581,
			"0.006": 4.67626993327,
			"0.007": 3.8438090751,
			"0.008": 3.71035927437,
			"0.009": 3.73864035088,
			"0.01": 5.64074124168,
			"0.011": 5.30641076095,
			"0.012": 3.11821980666,
			"0.013": 0.259982307358,
			"0.014": 0.0,
			"0.015": 0.0,
			"0.016": 0.0,
			"0.017": 0.0,
			"0.018": 0.0,
			"0.019": 0.0,
			"0.02": 0.0,
			"0.021": 0.0,
			"0.022": 0.0,
			"0.023": 0.0,
			"0.024": 0.0,
			"0.025": 0.0
		}
	}
}
