{
	 "smiles": "O=C(NC1=CC=C(C=C1)N=NC1=CC=C(C=C1)N=NC1=CC=C(NC(=O)C2=CC=CC=C2)C=C1)C1=CC=CC=C1", 
	 "Tm": 609.15, 
	 "num_atms": 64, 
	 "gaussian": { 
		 "optdone": 1, 
		 "sigma_profile": "yes", 
		 "theory": "DFT", 
		 "functional": "B3LYP", 
		 "basiset": "6-31G**", 
		 "properties": { 
			 "R2extent": 50088.2155, 
			 "electric_dipole_moment_norm": 4.08649266854, 
			 "electric_quadrupole_moment_norm": 61.1018192301, 
			 "total_energy": -1712.75992813, 
			 "HOMO_LUMO_gap": 0.10939, 
			 "cosmo_polarized_energy": -29.28, 
			 "cosmo_cavitation_energy": 71.84, 
			 "cosmo_dispersion_energy": -50.05, 
			 "cosmo_repulsion_energy": 3.67, 
			 "cosmo_total_nonelectrostatic_energy": 25.47, 
			 "SMD_solvation_energy": 9.56 
		},
		"coords": [
			{
				"x": 8.2450602245,
				"y": 0.9066898864,
				"z": -0.1695894675,
				"element": "O" 
			},
			{
				"x": 7.5725070469,
				"y": 1.1769335349,
				"z": 0.8185326396,
				"element": "C" 
			},
			{
				"x": 6.4349503133,
				"y": 0.4790731131,
				"z": 1.1812592523,
				"element": "N" 
			},
			{
				"x": 5.8570443774,
				"y": -0.6430459108,
				"z": 0.5646016225,
				"element": "C" 
			},
			{
				"x": 6.4397975048,
				"y": -1.320297906,
				"z": -0.5209167288,
				"element": "C" 
			},
			{
				"x": 5.8077678951,
				"y": -2.4445139746,
				"z": -1.0397410682,
				"element": "C" 
			},
			{
				"x": 4.5688900252,
				"y": -2.8815947276,
				"z": -0.5498249539,
				"element": "C" 
			},
			{
				"x": 3.9982327891,
				"y": -2.2125001132,
				"z": 0.5461100685,
				"element": "C" 
			},
			{
				"x": 4.6438429674,
				"y": -1.1168036305,
				"z": 1.098827933,
				"element": "C" 
			},
			{
				"x": 4.0734541894,
				"y": -4.099427665,
				"z": -1.1077513799,
				"element": "N" 
			},
			{
				"x": 2.8598377533,
				"y": -4.3542135241,
				"z": -1.2753819598,
				"element": "N" 
			},
			{
				"x": 1.8051980981,
				"y": -3.3993640843,
				"z": -1.161179166,
				"element": "C" 
			},
			{
				"x": 0.6454192606,
				"y": -3.8029994866,
				"z": -0.4728719137,
				"element": "C" 
			},
			{
				"x": -0.4693388386,
				"y": -2.9812585807,
				"z": -0.4333144676,
				"element": "C" 
			},
			{
				"x": -0.4660922409,
				"y": -1.759205142,
				"z": -1.1334208757,
				"element": "C" 
			},
			{
				"x": 0.6731819012,
				"y": -1.3862440837,
				"z": -1.8638582757,
				"element": "C" 
			},
			{
				"x": 1.8058262505,
				"y": -2.1905878174,
				"z": -1.8762241539,
				"element": "C" 
			},
			{
				"x": -1.5472526351,
				"y": -0.8527200659,
				"z": -1.1825265962,
				"element": "N" 
			},
			{
				"x": -2.5624268397,
				"y": -1.2000690537,
				"z": -0.5133302968,
				"element": "N" 
			},
			{
				"x": -3.6442674341,
				"y": -0.296295544,
				"z": -0.5638315516,
				"element": "C" 
			},
			{
				"x": -4.7775461447,
				"y": -0.6547407033,
				"z": 0.1800752434,
				"element": "C" 
			},
			{
				"x": -5.9027639004,
				"y": 0.1606154525,
				"z": 0.2147144968,
				"element": "C" 
			},
			{
				"x": -5.922195123,
				"y": 1.352724182,
				"z": -0.5260974043,
				"element": "C" 
			},
			{
				"x": -7.0150727254,
				"y": 2.2425229677,
				"z": -0.5221949407,
				"element": "N" 
			},
			{
				"x": -8.3594576871,
				"y": 2.0619709224,
				"z": -0.2106667211,
				"element": "C" 
			},
			{
				"x": -9.0139435321,
				"y": 3.0220617478,
				"z": 0.1773974035,
				"element": "O" 
			},
			{
				"x": -8.9988659065,
				"y": 0.7272695933,
				"z": -0.4399251717,
				"element": "C" 
			},
			{
				"x": -10.0847432479,
				"y": 0.382399409,
				"z": 0.3771410817,
				"element": "C" 
			},
			{
				"x": -10.7700197491,
				"y": -0.812169168,
				"z": 0.1670852721,
				"element": "C" 
			},
			{
				"x": -10.3946929832,
				"y": -1.6580010931,
				"z": -0.8798710667,
				"element": "C" 
			},
			{
				"x": -9.3322227613,
				"y": -1.3057029885,
				"z": -1.7153287709,
				"element": "C" 
			},
			{
				"x": -8.6314649797,
				"y": -0.1205408585,
				"z": -1.4950371853,
				"element": "C" 
			},
			{
				"x": -4.7818789576,
				"y": 1.7171848193,
				"z": -1.2704691711,
				"element": "C" 
			},
			{
				"x": -3.6563244113,
				"y": 0.9105185178,
				"z": -1.287495962,
				"element": "C" 
			},
			{
				"x": 7.9257733514,
				"y": 2.3258064329,
				"z": 1.7210112989,
				"element": "C" 
			},
			{
				"x": 7.5421417615,
				"y": 2.4062834111,
				"z": 3.0681359312,
				"element": "C" 
			},
			{
				"x": 7.9208973228,
				"y": 3.5018996146,
				"z": 3.8441633527,
				"element": "C" 
			},
			{
				"x": 8.685128084,
				"y": 4.5260838296,
				"z": 3.2823572774,
				"element": "C" 
			},
			{
				"x": 9.0833437019,
				"y": 4.4446273785,
				"z": 1.945319891,
				"element": "C" 
			},
			{
				"x": 8.7131886167,
				"y": 3.3475189295,
				"z": 1.171819152,
				"element": "C" 
			},
			{
				"x": 5.8939157719,
				"y": 0.8765773208,
				"z": 1.9350114221,
				"element": "H" 
			},
			{
				"x": 7.3765435039,
				"y": -0.9677017147,
				"z": -0.9269842329,
				"element": "H" 
			},
			{
				"x": 6.265535174,
				"y": -3.0006470097,
				"z": -1.851884267,
				"element": "H" 
			},
			{
				"x": 3.0671691298,
				"y": -2.5602137827,
				"z": 0.9778955749,
				"element": "H" 
			},
			{
				"x": 4.2035549825,
				"y": -0.6162738557,
				"z": 1.9584323533,
				"element": "H" 
			},
			{
				"x": 0.6475264014,
				"y": -4.7658068796,
				"z": 0.0290949071,
				"element": "H" 
			},
			{
				"x": -1.3605795041,
				"y": -3.2672496775,
				"z": 0.1130948779,
				"element": "H" 
			},
			{
				"x": 0.6451331196,
				"y": -0.4505550356,
				"z": -2.4132943174,
				"element": "H" 
			},
			{
				"x": 2.6839466805,
				"y": -1.8973448733,
				"z": -2.4411477243,
				"element": "H" 
			},
			{
				"x": -4.7465463597,
				"y": -1.5801323748,
				"z": 0.7463049621,
				"element": "H" 
			},
			{
				"x": -6.75714744,
				"y": -0.1192581634,
				"z": 0.8185964217,
				"element": "H" 
			},
			{
				"x": -6.7784761745,
				"y": 3.2281345867,
				"z": -0.5185900541,
				"element": "H" 
			},
			{
				"x": -10.3805511338,
				"y": 1.0668528422,
				"z": 1.1651891947,
				"element": "H" 
			},
			{
				"x": -11.6020263762,
				"y": -1.0792356293,
				"z": 0.811962963,
				"element": "H" 
			},
			{
				"x": -10.9337748522,
				"y": -2.5857036759,
				"z": -1.0493659874,
				"element": "H" 
			},
			{
				"x": -9.050179672,
				"y": -1.9528033676,
				"z": -2.5405767318,
				"element": "H" 
			},
			{
				"x": -7.8113036958,
				"y": 0.1517753648,
				"z": -2.1506171122,
				"element": "H" 
			},
			{
				"x": -4.7992166582,
				"y": 2.6405576681,
				"z": -1.8437002709,
				"element": "H" 
			},
			{
				"x": -2.7782420553,
				"y": 1.1856461806,
				"z": -1.8601836142,
				"element": "H" 
			},
			{
				"x": 6.9837213295,
				"y": 1.5995380636,
				"z": 3.5357634254,
				"element": "H" 
			},
			{
				"x": 7.6278893233,
				"y": 3.5496869973,
				"z": 4.8887281072,
				"element": "H" 
			},
			{
				"x": 8.9771330318,
				"y": 5.3798244634,
				"z": 3.8868961577,
				"element": "H" 
			},
			{
				"x": 9.6850115522,
				"y": 5.2357438099,
				"z": 1.5077243271,
				"element": "H" 
			},
			{
				"x": 9.0234505841,
				"y": 3.2574011217,
				"z": 0.1364469506,
				"element": "H" 
			}
		],
		 "valence_orbital": [ 
			{
				"type": "occ",
				"energy": -0.253,
				"method": "rhf"
			},
			{
				"type": "occ",
				"energy": -0.24043,
				"method": "rhf"
			},
			{
				"type": "occ",
				"energy": -0.22915,
				"method": "rhf"
			},
			{
				"type": "occ",
				"energy": -0.22447,
				"method": "rhf"
			},
			{
				"type": "occ",
				"energy": -0.20251,
				"method": "rhf"
			},
			{
				"type": "unocc",
				"energy": -0.09312,
				"method": "rhf"
			},
			{
				"type": "unocc",
				"energy": -0.06763,
				"method": "rhf"
			},
			{
				"type": "unocc",
				"energy": -0.04722,
				"method": "rhf"
			},
			{
				"type": "unocc",
				"energy": -0.04282,
				"method": "rhf"
			},
			{
				"type": "unocc",
				"energy": -0.02002,
				"method": "rhf"
			}
		],
		"cosmo_sigma_profile": { 
			"-0.025": 0.0,
			"-0.024": 0.0,
			"-0.023": 0.0,
			"-0.022": 0.0,
			"-0.021": 0.0,
			"-0.02": 0.0,
			"-0.019": 0.0,
			"-0.018": 0.0,
			"-0.017": 0.0,
			"-0.016": 0.288282846418,
			"-0.015": 1.53521905852,
			"-0.014": 2.29628763462,
			"-0.013": 2.51357892051,
			"-0.012": 3.05156539985,
			"-0.011": 2.28398339213,
			"-0.01": 2.12370450355,
			"-0.009": 3.11954842671,
			"-0.008": 4.05290395454,
			"-0.007": 12.0594953956,
			"-0.006": 39.1243666547,
			"-0.005": 42.6941638111,
			"-0.004": 43.0044151516,
			"-0.003": 33.7756431611,
			"-0.002": 32.4974854842,
			"-0.001": 35.3131783846,
			"0.0": 36.5395510383,
			"0.001": 46.1815237343,
			"0.002": 62.1686074575,
			"0.003": 63.5152383972,
			"0.004": 39.2807122583,
			"0.005": 13.224846389,
			"0.006": 8.8039485268,
			"0.007": 8.41430908278,
			"0.008": 5.41414187712,
			"0.009": 4.795295673,
			"0.01": 5.54325485812,
			"0.011": 6.82891609879,
			"0.012": 9.57501903484,
			"0.013": 7.46518511275,
			"0.014": 1.17294611852,
			"0.015": 0.0,
			"0.016": 0.0,
			"0.017": 0.0,
			"0.018": 0.0,
			"0.019": 0.0,
			"0.02": 0.0,
			"0.021": 0.0,
			"0.022": 0.0,
			"0.023": 0.0,
			"0.024": 0.0,
			"0.025": 0.0
		}
	}
}
