{
	 "smiles": "CC(=NOCC1=CC(=CC=C1)C(O)=O)C1=CC(Cl)=C(Cl)C=C1", 
	 "Tm": 449.15, 
	 "num_atms": 35, 
	 "gaussian": { 
		 "optdone": 1, 
		 "sigma_profile": "yes", 
		 "theory": "DFT", 
		 "functional": "B3LYP", 
		 "basiset": "6-31G**", 
		 "properties": { 
			 "R2extent": 11583.2279, 
			 "electric_dipole_moment_norm": 1.16876768436, 
			 "electric_quadrupole_moment_norm": 19.0994265427, 
			 "total_energy": -1818.30684839, 
			 "HOMO_LUMO_gap": 0.17996, 
			 "cosmo_polarized_energy": -14.46, 
			 "cosmo_cavitation_energy": 44.52, 
			 "cosmo_dispersion_energy": -30.65, 
			 "cosmo_repulsion_energy": 2.38, 
			 "cosmo_total_nonelectrostatic_energy": 16.25, 
			 "SMD_solvation_energy": 8.08 
		},
		"coords": [
			{
				"x": -0.4243751767,
				"y": 1.2554167054,
				"z": 3.3867601211,
				"element": "C" 
			},
			{
				"x": -0.6266815719,
				"y": 1.1547257161,
				"z": 1.890617589,
				"element": "C" 
			},
			{
				"x": -0.996330434,
				"y": -0.0216517479,
				"z": 1.5097606692,
				"element": "N" 
			},
			{
				"x": -1.2586438871,
				"y": -0.1441943754,
				"z": 0.1447371758,
				"element": "O" 
			},
			{
				"x": -1.5875964553,
				"y": -1.5162394271,
				"z": -0.1443797077,
				"element": "C" 
			},
			{
				"x": -0.3676345881,
				"y": -2.4033699989,
				"z": -0.2274076898,
				"element": "C" 
			},
			{
				"x": 0.0895834388,
				"y": -3.093247596,
				"z": 0.8973537371,
				"element": "C" 
			},
			{
				"x": 1.2394300423,
				"y": -3.889617324,
				"z": 0.8271384586,
				"element": "C" 
			},
			{
				"x": 1.943883784,
				"y": -3.9992826832,
				"z": -0.3797231673,
				"element": "C" 
			},
			{
				"x": 1.4927339567,
				"y": -3.3124763258,
				"z": -1.5054522851,
				"element": "C" 
			},
			{
				"x": 0.3457123395,
				"y": -2.521207307,
				"z": -1.4285456503,
				"element": "C" 
			},
			{
				"x": 1.6680240923,
				"y": -4.6007775725,
				"z": 2.0611272379,
				"element": "C" 
			},
			{
				"x": 2.7928652762,
				"y": -5.3399633534,
				"z": 1.885562843,
				"element": "O" 
			},
			{
				"x": 1.0937809086,
				"y": -4.5475246516,
				"z": 3.1308664624,
				"element": "O" 
			},
			{
				"x": -0.3900962199,
				"y": 2.3646779643,
				"z": 1.0585118049,
				"element": "C" 
			},
			{
				"x": -0.0232138094,
				"y": 2.2957898233,
				"z": -0.2967163095,
				"element": "C" 
			},
			{
				"x": 0.2351360237,
				"y": 3.4515242441,
				"z": -1.0307538655,
				"element": "C" 
			},
			{
				"x": 0.7016815157,
				"y": 3.2850680053,
				"z": -2.7079875544,
				"element": "Cl" 
			},
			{
				"x": 0.1197757901,
				"y": 4.7124700005,
				"z": -0.4307797003,
				"element": "C" 
			},
			{
				"x": 0.4184974796,
				"y": 6.1845536926,
				"z": -1.3178191735,
				"element": "Cl" 
			},
			{
				"x": -0.2421673751,
				"y": 4.7936182405,
				"z": 0.9147978709,
				"element": "C" 
			},
			{
				"x": -0.4830278323,
				"y": 3.6383577929,
				"z": 1.6491111549,
				"element": "C" 
			},
			{
				"x": -1.1787069348,
				"y": 1.9002680923,
				"z": 3.8523366774,
				"element": "H" 
			},
			{
				"x": -0.5119086909,
				"y": 0.2618037535,
				"z": 3.8277610331,
				"element": "H" 
			},
			{
				"x": 0.5599375241,
				"y": 1.6710806297,
				"z": 3.6264736759,
				"element": "H" 
			},
			{
				"x": -2.1001142317,
				"y": -1.4662074951,
				"z": -1.1091455736,
				"element": "H" 
			},
			{
				"x": -2.2872409256,
				"y": -1.8765632229,
				"z": 0.6156763712,
				"element": "H" 
			},
			{
				"x": -0.4354663186,
				"y": -3.0178183862,
				"z": 1.8434997824,
				"element": "H" 
			},
			{
				"x": 2.8315453634,
				"y": -4.6194084916,
				"z": -0.4292167894,
				"element": "H" 
			},
			{
				"x": 2.0323533267,
				"y": -3.3963745258,
				"z": -2.4439713014,
				"element": "H" 
			},
			{
				"x": -0.0026450798,
				"y": -1.9897940025,
				"z": -2.311064116,
				"element": "H" 
			},
			{
				"x": 2.9727006539,
				"y": -5.7521307257,
				"z": 2.74636912,
				"element": "H" 
			},
			{
				"x": 0.0674226843,
				"y": 1.337214537,
				"z": -0.7843175829,
				"element": "H" 
			},
			{
				"x": -0.3291570863,
				"y": 5.7695296552,
				"z": 1.3792392573,
				"element": "H" 
			},
			{
				"x": -0.7547575822,
				"y": 3.7383503602,
				"z": 2.6932794248,
				"element": "H" 
			}
		],
		 "valence_orbital": [ 
			{
				"type": "occ",
				"energy": -0.27495,
				"method": "rhf"
			},
			{
				"type": "occ",
				"energy": -0.2644,
				"method": "rhf"
			},
			{
				"type": "occ",
				"energy": -0.26149,
				"method": "rhf"
			},
			{
				"type": "occ",
				"energy": -0.25896,
				"method": "rhf"
			},
			{
				"type": "occ",
				"energy": -0.2352,
				"method": "rhf"
			},
			{
				"type": "unocc",
				"energy": -0.05524,
				"method": "rhf"
			},
			{
				"type": "unocc",
				"energy": -0.05008,
				"method": "rhf"
			},
			{
				"type": "unocc",
				"energy": -0.02479,
				"method": "rhf"
			},
			{
				"type": "unocc",
				"energy": -0.01796,
				"method": "rhf"
			},
			{
				"type": "unocc",
				"energy": 0.00202,
				"method": "rhf"
			}
		],
		"cosmo_sigma_profile": { 
			"-0.025": 0.0,
			"-0.024": 0.0,
			"-0.023": 0.0,
			"-0.022": 0.0,
			"-0.021": 0.0,
			"-0.02": 0.0,
			"-0.019": 0.0199638646311,
			"-0.018": 0.842944191259,
			"-0.017": 0.85520310797,
			"-0.016": 1.06454938576,
			"-0.015": 0.597923552515,
			"-0.014": 0.635059046463,
			"-0.013": 0.143266508345,
			"-0.012": 0.866774379888,
			"-0.011": 1.30746784122,
			"-0.01": 0.761641244088,
			"-0.009": 0.280626238466,
			"-0.008": 3.49189306918,
			"-0.007": 10.2562287349,
			"-0.006": 16.5068808212,
			"-0.005": 19.0351366413,
			"-0.004": 20.944128966,
			"-0.003": 23.7191282341,
			"-0.002": 22.8281333779,
			"-0.001": 30.8350462998,
			"0.0": 33.1054808525,
			"0.001": 36.087257896,
			"0.002": 33.5216956374,
			"0.003": 33.8306795016,
			"0.004": 27.1477073471,
			"0.005": 13.0864767901,
			"0.006": 7.3552394069,
			"0.007": 4.7118730277,
			"0.008": 3.36308951225,
			"0.009": 2.87618324,
			"0.01": 2.91658549919,
			"0.011": 3.42469413625,
			"0.012": 4.1791817965,
			"0.013": 0.126266977427,
			"0.014": 0.0,
			"0.015": 0.0,
			"0.016": 0.0,
			"0.017": 0.0,
			"0.018": 0.0,
			"0.019": 0.0,
			"0.02": 0.0,
			"0.021": 0.0,
			"0.022": 0.0,
			"0.023": 0.0,
			"0.024": 0.0,
			"0.025": 0.0
		}
	}
}
