{
	 "smiles": "CC1=CC=C(NCC(=O)NN)C=C1", 
	 "Tm": 428.15, 
	 "num_atms": 26, 
	 "gaussian": { 
		 "optdone": 1, 
		 "sigma_profile": "yes", 
		 "theory": "DFT", 
		 "functional": "B3LYP", 
		 "basiset": "6-31G**", 
		 "properties": { 
			 "R2extent": 3842.5719, 
			 "electric_dipole_moment_norm": 5.03843068822, 
			 "electric_quadrupole_moment_norm": 22.3011607846, 
			 "total_energy": -590.247784983, 
			 "HOMO_LUMO_gap": 0.19602, 
			 "cosmo_polarized_energy": -18.0, 
			 "cosmo_cavitation_energy": 29.58, 
			 "cosmo_dispersion_energy": -21.65, 
			 "cosmo_repulsion_energy": 1.76, 
			 "cosmo_total_nonelectrostatic_energy": 9.69, 
			 "SMD_solvation_energy": 5.41 
		},
		"coords": [
			{
				"x": 1.1777462892,
				"y": -3.6264455581,
				"z": 3.7599172125,
				"element": "C" 
			},
			{
				"x": 0.6926781573,
				"y": -2.7264601056,
				"z": 2.6475514549,
				"element": "C" 
			},
			{
				"x": -0.0259384179,
				"y": -3.2423627461,
				"z": 1.5568152712,
				"element": "C" 
			},
			{
				"x": -0.4620185095,
				"y": -2.4266433149,
				"z": 0.5217630978,
				"element": "C" 
			},
			{
				"x": -0.2027080477,
				"y": -1.0403558607,
				"z": 0.5286104364,
				"element": "C" 
			},
			{
				"x": -0.6301763108,
				"y": -0.273050764,
				"z": -0.5607848135,
				"element": "N" 
			},
			{
				"x": -0.6771787381,
				"y": 1.1743376389,
				"z": -0.4674921849,
				"element": "C" 
			},
			{
				"x": -0.9137700237,
				"y": 1.8841558403,
				"z": -1.801660288,
				"element": "C" 
			},
			{
				"x": -0.2483999633,
				"y": 2.8521745657,
				"z": -2.1377748792,
				"element": "O" 
			},
			{
				"x": -1.933223387,
				"y": 1.4491045527,
				"z": -2.6189438765,
				"element": "N" 
			},
			{
				"x": -2.855041913,
				"y": 0.4535659479,
				"z": -2.2660875722,
				"element": "N" 
			},
			{
				"x": 0.5053910096,
				"y": -0.5151170793,
				"z": 1.621405105,
				"element": "C" 
			},
			{
				"x": 0.9435664246,
				"y": -1.3526292237,
				"z": 2.6504514241,
				"element": "C" 
			},
			{
				"x": 1.9652910205,
				"y": -4.3087935913,
				"z": 3.4157861275,
				"element": "H" 
			},
			{
				"x": 0.3685550498,
				"y": -4.2489015232,
				"z": 4.1595396592,
				"element": "H" 
			},
			{
				"x": 1.589261896,
				"y": -3.044882234,
				"z": 4.5902154688,
				"element": "H" 
			},
			{
				"x": -0.2473683589,
				"y": -4.3069618714,
				"z": 1.5173447604,
				"element": "H" 
			},
			{
				"x": -1.0064271442,
				"y": -2.8581599808,
				"z": -0.3154293055,
				"element": "H" 
			},
			{
				"x": -1.4670536693,
				"y": -0.633654316,
				"z": -1.0031598745,
				"element": "H" 
			},
			{
				"x": 0.2880655032,
				"y": 1.5578512101,
				"z": -0.1345774054,
				"element": "H" 
			},
			{
				"x": -1.4358116511,
				"y": 1.5399025667,
				"z": 0.2509778264,
				"element": "H" 
			},
			{
				"x": -2.0814296818,
				"y": 2.0234315122,
				"z": -3.4432276009,
				"element": "H" 
			},
			{
				"x": -2.9320238499,
				"y": -0.2237565608,
				"z": -3.0208634001,
				"element": "H" 
			},
			{
				"x": -3.7746114453,
				"y": 0.8563980802,
				"z": -2.0954679009,
				"element": "H" 
			},
			{
				"x": 0.7176799331,
				"y": 0.5463227578,
				"z": 1.6839603285,
				"element": "H" 
			},
			{
				"x": 1.4902458285,
				"y": -0.9133699423,
				"z": 3.482030929,
				"element": "H" 
			}
		],
		 "valence_orbital": [ 
			{
				"type": "occ",
				"energy": -0.28182,
				"method": "rhf"
			},
			{
				"type": "occ",
				"energy": -0.2657,
				"method": "rhf"
			},
			{
				"type": "occ",
				"energy": -0.25046,
				"method": "rhf"
			},
			{
				"type": "occ",
				"energy": -0.23577,
				"method": "rhf"
			},
			{
				"type": "occ",
				"energy": -0.18431,
				"method": "rhf"
			},
			{
				"type": "unocc",
				"energy": 0.01171,
				"method": "rhf"
			},
			{
				"type": "unocc",
				"energy": 0.02002,
				"method": "rhf"
			},
			{
				"type": "unocc",
				"energy": 0.02913,
				"method": "rhf"
			},
			{
				"type": "unocc",
				"energy": 0.04795,
				"method": "rhf"
			},
			{
				"type": "unocc",
				"energy": 0.09316,
				"method": "rhf"
			}
		],
		"cosmo_sigma_profile": { 
			"-0.025": 0.0,
			"-0.024": 0.0,
			"-0.023": 0.0,
			"-0.022": 0.0,
			"-0.021": 0.0,
			"-0.02": 0.0,
			"-0.019": 0.0,
			"-0.018": 0.0,
			"-0.017": 0.0,
			"-0.016": 0.0,
			"-0.015": 0.0,
			"-0.014": 0.53388069015,
			"-0.013": 1.9404052917,
			"-0.012": 4.67100144902,
			"-0.011": 6.00162279208,
			"-0.01": 5.11973735202,
			"-0.009": 4.54161939143,
			"-0.008": 3.00562348187,
			"-0.007": 3.72331271059,
			"-0.006": 5.37954924799,
			"-0.005": 11.2703675131,
			"-0.004": 15.6967797416,
			"-0.003": 20.9011212086,
			"-0.002": 16.7721347361,
			"-0.001": 16.7113891192,
			"0.0": 16.3872242839,
			"0.001": 14.4722173749,
			"0.002": 11.021738796,
			"0.003": 10.7297301576,
			"0.004": 10.4470717862,
			"0.005": 8.34070339725,
			"0.006": 11.1929642649,
			"0.007": 10.2339814146,
			"0.008": 5.5020355127,
			"0.009": 1.69569219153,
			"0.01": 1.87664864242,
			"0.011": 1.54028814519,
			"0.012": 2.91986883436,
			"0.013": 4.98170111863,
			"0.014": 4.46459751959,
			"0.015": 0.657886504796,
			"0.016": 0.0,
			"0.017": 0.0,
			"0.018": 0.0,
			"0.019": 0.0,
			"0.02": 0.0,
			"0.021": 0.0,
			"0.022": 0.0,
			"0.023": 0.0,
			"0.024": 0.0,
			"0.025": 0.0
		}
	}
}
