{
	 "smiles": "ClC(Cl)C(=O)NCCCCCCCCNC(=O)C(Cl)Cl", 
	 "Tm": 392.15, 
	 "num_atms": 40, 
	 "gaussian": { 
		 "optdone": 1, 
		 "sigma_profile": "yes", 
		 "theory": "DFT", 
		 "functional": "B3LYP", 
		 "basiset": "6-31G**", 
		 "properties": { 
			 "R2extent": 13757.6288, 
			 "electric_dipole_moment_norm": 3.36766746874, 
			 "electric_quadrupole_moment_norm": 31.5221914977, 
			 "total_energy": -2570.07574995, 
			 "HOMO_LUMO_gap": 0.22342, 
			 "cosmo_polarized_energy": -21.16, 
			 "cosmo_cavitation_energy": 49.77, 
			 "cosmo_dispersion_energy": -31.99, 
			 "cosmo_repulsion_energy": 2.56, 
			 "cosmo_total_nonelectrostatic_energy": 20.34, 
			 "SMD_solvation_energy": 6.94 
		},
		"coords": [
			{
				"x": 0.2504395181,
				"y": -6.3530093019,
				"z": 1.7900768214,
				"element": "Cl" 
			},
			{
				"x": 0.0206966472,
				"y": -5.432003098,
				"z": 0.2872767401,
				"element": "C" 
			},
			{
				"x": -0.8602341636,
				"y": -6.4083423553,
				"z": -0.9611982463,
				"element": "Cl" 
			},
			{
				"x": -0.7655316734,
				"y": -4.1224246782,
				"z": 0.5469434449,
				"element": "C" 
			},
			{
				"x": -1.4742007317,
				"y": -3.9810001734,
				"z": 1.5267706085,
				"element": "O" 
			},
			{
				"x": -0.5834898123,
				"y": -3.1384767265,
				"z": -0.3822462399,
				"element": "N" 
			},
			{
				"x": 0.053455612,
				"y": -3.1851208647,
				"z": -1.700525271,
				"element": "C" 
			},
			{
				"x": 0.443624739,
				"y": -1.786391272,
				"z": -2.1986805383,
				"element": "C" 
			},
			{
				"x": 1.6936248809,
				"y": -1.1538235749,
				"z": -1.5582236837,
				"element": "C" 
			},
			{
				"x": 1.6122588376,
				"y": -0.7628090434,
				"z": -0.0716724216,
				"element": "C" 
			},
			{
				"x": 0.5644161919,
				"y": 0.3118068755,
				"z": 0.2541544503,
				"element": "C" 
			},
			{
				"x": 0.6368487604,
				"y": 0.7644317751,
				"z": 1.7194031655,
				"element": "C" 
			},
			{
				"x": -0.4810703533,
				"y": 1.7061868097,
				"z": 2.1963195535,
				"element": "C" 
			},
			{
				"x": -0.5822530188,
				"y": 3.0628271073,
				"z": 1.4735752043,
				"element": "C" 
			},
			{
				"x": -1.3729178346,
				"y": 3.0268435002,
				"z": 0.2435726564,
				"element": "N" 
			},
			{
				"x": -0.8712522682,
				"y": 3.3180305615,
				"z": -0.9756713992,
				"element": "C" 
			},
			{
				"x": 0.2998461798,
				"y": 3.5669990632,
				"z": -1.2288505249,
				"element": "O" 
			},
			{
				"x": -1.877916484,
				"y": 3.2973809018,
				"z": -2.1457611845,
				"element": "C" 
			},
			{
				"x": -3.3181271071,
				"y": 4.3395740893,
				"z": -1.837990463,
				"element": "Cl" 
			},
			{
				"x": -2.3815917172,
				"y": 1.6054810274,
				"z": -2.5327211034,
				"element": "Cl" 
			},
			{
				"x": 1.0109821491,
				"y": -5.245850566,
				"z": -0.1230204218,
				"element": "H" 
			},
			{
				"x": -1.1823195116,
				"y": -2.3413846874,
				"z": -0.2021996719,
				"element": "H" 
			},
			{
				"x": 0.9497491369,
				"y": -3.8124088819,
				"z": -1.6492747598,
				"element": "H" 
			},
			{
				"x": -0.6211882722,
				"y": -3.657664158,
				"z": -2.4266601926,
				"element": "H" 
			},
			{
				"x": -0.4210068527,
				"y": -1.1155912597,
				"z": -2.1064834067,
				"element": "H" 
			},
			{
				"x": 0.6254530105,
				"y": -1.8781561561,
				"z": -3.2761631485,
				"element": "H" 
			},
			{
				"x": 1.9446735383,
				"y": -0.256579546,
				"z": -2.1388662077,
				"element": "H" 
			},
			{
				"x": 2.5368465825,
				"y": -1.8449519714,
				"z": -1.6954164032,
				"element": "H" 
			},
			{
				"x": 2.600025627,
				"y": -0.3864403059,
				"z": 0.227159477,
				"element": "H" 
			},
			{
				"x": 1.4274429735,
				"y": -1.6511207675,
				"z": 0.5440683876,
				"element": "H" 
			},
			{
				"x": 0.7162150398,
				"y": 1.1711448776,
				"z": -0.4095453605,
				"element": "H" 
			},
			{
				"x": -0.4461311789,
				"y": -0.065562002,
				"z": 0.0447489366,
				"element": "H" 
			},
			{
				"x": 0.6245969277,
				"y": -0.1225271848,
				"z": 2.3668938225,
				"element": "H" 
			},
			{
				"x": 1.6069273556,
				"y": 1.2510494097,
				"z": 1.8929186189,
				"element": "H" 
			},
			{
				"x": -0.3186936472,
				"y": 1.9149791021,
				"z": 3.2610076042,
				"element": "H" 
			},
			{
				"x": -1.4528265628,
				"y": 1.19666177,
				"z": 2.1370863324,
				"element": "H" 
			},
			{
				"x": -1.0399577353,
				"y": 3.8010431777,
				"z": 2.1430462775,
				"element": "H" 
			},
			{
				"x": 0.405954398,
				"y": 3.4377282891,
				"z": 1.1962799568,
				"element": "H" 
			},
			{
				"x": -2.3686360972,
				"y": 2.8717755943,
				"z": 0.323319579,
				"element": "H" 
			},
			{
				"x": -1.3728330836,
				"y": 3.6889946434,
				"z": -3.0240509889,
				"element": "H" 
			}
		],
		 "valence_orbital": [ 
			{
				"type": "occ",
				"energy": -0.30813,
				"method": "rhf"
			},
			{
				"type": "occ",
				"energy": -0.278,
				"method": "rhf"
			},
			{
				"type": "occ",
				"energy": -0.2739,
				"method": "rhf"
			},
			{
				"type": "occ",
				"energy": -0.26887,
				"method": "rhf"
			},
			{
				"type": "occ",
				"energy": -0.26247,
				"method": "rhf"
			},
			{
				"type": "unocc",
				"energy": -0.03905,
				"method": "rhf"
			},
			{
				"type": "unocc",
				"energy": -0.03259,
				"method": "rhf"
			},
			{
				"type": "unocc",
				"energy": -0.02782,
				"method": "rhf"
			},
			{
				"type": "unocc",
				"energy": 0.00158,
				"method": "rhf"
			},
			{
				"type": "unocc",
				"energy": 0.05012,
				"method": "rhf"
			}
		],
		"cosmo_sigma_profile": { 
			"-0.025": 0.0,
			"-0.024": 0.0,
			"-0.023": 0.0,
			"-0.022": 0.0,
			"-0.021": 0.0,
			"-0.02": 0.0,
			"-0.019": 0.0,
			"-0.018": 0.0,
			"-0.017": 0.0,
			"-0.016": 0.0,
			"-0.015": 0.0529987731057,
			"-0.014": 0.631833592949,
			"-0.013": 1.43169965839,
			"-0.012": 2.92330576225,
			"-0.011": 5.04563471882,
			"-0.01": 6.71218466012,
			"-0.009": 6.18564070745,
			"-0.008": 5.15067724542,
			"-0.007": 5.47913545804,
			"-0.006": 6.99491833049,
			"-0.005": 10.4191844409,
			"-0.004": 19.4491868663,
			"-0.003": 30.8692351251,
			"-0.002": 41.0496877586,
			"-0.001": 45.8441826972,
			"0.0": 45.2221000693,
			"0.001": 34.5771786156,
			"0.002": 27.0366125464,
			"0.003": 27.2564625559,
			"0.004": 31.9090429058,
			"0.005": 7.07475758441,
			"0.006": 4.17327510016,
			"0.007": 2.64794335348,
			"0.008": 2.22246369102,
			"0.009": 3.29752827443,
			"0.01": 3.82147109874,
			"0.011": 3.27410151243,
			"0.012": 8.9703490795,
			"0.013": 7.4082045108,
			"0.014": 0.92040886489,
			"0.015": 0.0,
			"0.016": 0.0,
			"0.017": 0.0,
			"0.018": 0.0,
			"0.019": 0.0,
			"0.02": 0.0,
			"0.021": 0.0,
			"0.022": 0.0,
			"0.023": 0.0,
			"0.024": 0.0,
			"0.025": 0.0
		}
	}
}
