{
	 "smiles": "CC1=NN=C(O1)C1=CC(=CC=C1)[N+]([O-])=O", 
	 "Tm": 432.15, 
	 "num_atms": 22, 
	 "gaussian": { 
		 "optdone": 1, 
		 "sigma_profile": "yes", 
		 "theory": "DFT", 
		 "functional": "B3LYP", 
		 "basiset": "6-31G**", 
		 "properties": { 
			 "R2extent": 4251.5517, 
			 "electric_dipole_moment_norm": 1.46434898163, 
			 "electric_quadrupole_moment_norm": 33.9375972597, 
			 "total_energy": -736.982985736, 
			 "HOMO_LUMO_gap": 0.16083, 
			 "cosmo_polarized_energy": -13.64, 
			 "cosmo_cavitation_energy": 28.36, 
			 "cosmo_dispersion_energy": -20.83, 
			 "cosmo_repulsion_energy": 1.62, 
			 "cosmo_total_nonelectrostatic_energy": 9.14, 
			 "SMD_solvation_energy": 5.82 
		},
		"coords": [
			{
				"x": 0.0549439681,
				"y": 1.5053431822,
				"z": 3.892693951,
				"element": "C" 
			},
			{
				"x": 0.1893262648,
				"y": 1.5090978839,
				"z": 2.4151214457,
				"element": "C" 
			},
			{
				"x": 0.8322268029,
				"y": 2.3428943247,
				"z": 1.657418544,
				"element": "N" 
			},
			{
				"x": 0.6508150122,
				"y": 1.9103840244,
				"z": 0.3460792147,
				"element": "N" 
			},
			{
				"x": -0.0900258883,
				"y": 0.8445339365,
				"z": 0.4072319337,
				"element": "C" 
			},
			{
				"x": -0.4251498685,
				"y": 0.5249629051,
				"z": 1.6923755225,
				"element": "O" 
			},
			{
				"x": -0.5667672792,
				"y": 0.0111438987,
				"z": -0.6914092744,
				"element": "C" 
			},
			{
				"x": -1.3639834526,
				"y": -1.1128985717,
				"z": -0.4481322883,
				"element": "C" 
			},
			{
				"x": -1.7902896035,
				"y": -1.8718506018,
				"z": -1.5332414501,
				"element": "C" 
			},
			{
				"x": -1.4541688255,
				"y": -1.5553503243,
				"z": -2.8476261329,
				"element": "C" 
			},
			{
				"x": -0.6587843248,
				"y": -0.4318894334,
				"z": -3.0760019099,
				"element": "C" 
			},
			{
				"x": -0.2160689394,
				"y": 0.3482412846,
				"z": -2.0109479436,
				"element": "C" 
			},
			{
				"x": -2.6303930418,
				"y": -3.0564974233,
				"z": -1.2782219894,
				"element": "N" 
			},
			{
				"x": -2.9964112711,
				"y": -3.7134402246,
				"z": -2.2512582974,
				"element": "O" 
			},
			{
				"x": -2.9124962124,
				"y": -3.3132670339,
				"z": -0.1089104609,
				"element": "O" 
			},
			{
				"x": 0.4567696769,
				"y": 0.5807884038,
				"z": 4.3193188399,
				"element": "H" 
			},
			{
				"x": -0.9957718934,
				"y": 1.5828831838,
				"z": 4.1897712847,
				"element": "H" 
			},
			{
				"x": 0.6054236012,
				"y": 2.3554764615,
				"z": 4.2966054728,
				"element": "H" 
			},
			{
				"x": -1.6522769191,
				"y": -1.4005712837,
				"z": 0.5544159984,
				"element": "H" 
			},
			{
				"x": -1.8134979403,
				"y": -2.1811410674,
				"z": -3.6546978076,
				"element": "H" 
			},
			{
				"x": -0.3838740932,
				"y": -0.16521872,
				"z": -4.0912866119,
				"element": "H" 
			},
			{
				"x": 0.4025542273,
				"y": 1.2231751948,
				"z": -2.179098041,
				"element": "H" 
			}
		],
		 "valence_orbital": [ 
			{
				"type": "occ",
				"energy": -0.31499,
				"method": "rhf"
			},
			{
				"type": "occ",
				"energy": -0.29908,
				"method": "rhf"
			},
			{
				"type": "occ",
				"energy": -0.29269,
				"method": "rhf"
			},
			{
				"type": "occ",
				"energy": -0.28673,
				"method": "rhf"
			},
			{
				"type": "occ",
				"energy": -0.25886,
				"method": "rhf"
			},
			{
				"type": "unocc",
				"energy": -0.09803,
				"method": "rhf"
			},
			{
				"type": "unocc",
				"energy": -0.06771,
				"method": "rhf"
			},
			{
				"type": "unocc",
				"energy": -0.01601,
				"method": "rhf"
			},
			{
				"type": "unocc",
				"energy": 0.00395,
				"method": "rhf"
			},
			{
				"type": "unocc",
				"energy": 0.04929,
				"method": "rhf"
			}
		],
		"cosmo_sigma_profile": { 
			"-0.025": 0.0,
			"-0.024": 0.0,
			"-0.023": 0.0,
			"-0.022": 0.0,
			"-0.021": 0.0,
			"-0.02": 0.0,
			"-0.019": 0.0,
			"-0.018": 0.0,
			"-0.017": 0.0,
			"-0.016": 0.0,
			"-0.015": 0.0,
			"-0.014": 0.0,
			"-0.013": 0.0,
			"-0.012": 0.0,
			"-0.011": 0.0,
			"-0.01": 0.0,
			"-0.009": 0.181806251163,
			"-0.008": 4.23582194725,
			"-0.007": 12.5365437741,
			"-0.006": 15.1730569982,
			"-0.005": 15.7767588418,
			"-0.004": 18.4281890862,
			"-0.003": 22.9776456269,
			"-0.002": 21.8755521329,
			"-0.001": 19.189738745,
			"0.0": 18.6474090457,
			"0.001": 11.3612572725,
			"0.002": 6.94534944839,
			"0.003": 5.44846583333,
			"0.004": 4.37702192174,
			"0.005": 4.81717086596,
			"0.006": 6.1294607492,
			"0.007": 11.7920936166,
			"0.008": 7.81180069828,
			"0.009": 5.81789879827,
			"0.01": 3.55361191473,
			"0.011": 3.74158789266,
			"0.012": 3.08489619426,
			"0.013": 2.4686941841,
			"0.014": 1.53905663605,
			"0.015": 0.764799958099,
			"0.016": 0.0755613664657,
			"0.017": 0.0,
			"0.018": 0.0,
			"0.019": 0.0,
			"0.02": 0.0,
			"0.021": 0.0,
			"0.022": 0.0,
			"0.023": 0.0,
			"0.024": 0.0,
			"0.025": 0.0
		}
	}
}
