{
	 "smiles": "O=C1CCCCCCCCCCCCCC1", 
	 "Tm": 337.15, 
	 "num_atms": 44, 
	 "gaussian": { 
		 "optdone": 1, 
		 "sigma_profile": "yes", 
		 "theory": "DFT", 
		 "functional": "B3LYP", 
		 "basiset": "6-31G**", 
		 "properties": { 
			 "R2extent": 4784.5551, 
			 "electric_dipole_moment_norm": 2.73098027455, 
			 "electric_quadrupole_moment_norm": 11.4848521488, 
			 "total_energy": -663.724152699, 
			 "HOMO_LUMO_gap": 0.22274, 
			 "cosmo_polarized_energy": -6.93, 
			 "cosmo_cavitation_energy": 39.91, 
			 "cosmo_dispersion_energy": -27.05, 
			 "cosmo_repulsion_energy": 2.1, 
			 "cosmo_total_nonelectrostatic_energy": 14.95, 
			 "SMD_solvation_energy": 5.04 
		},
		"coords": [
			{
				"x": 0.2652252186,
				"y": -1.9184019595,
				"z": -3.3045871974,
				"element": "O" 
			},
			{
				"x": 0.5482762085,
				"y": -0.819143996,
				"z": -2.8616608581,
				"element": "C" 
			},
			{
				"x": -0.5362130139,
				"y": 0.0592189062,
				"z": -2.22869721,
				"element": "C" 
			},
			{
				"x": -1.1764474952,
				"y": -0.6606410179,
				"z": -1.02518861,
				"element": "C" 
			},
			{
				"x": -2.3818632852,
				"y": 0.046322518,
				"z": -0.3853679022,
				"element": "C" 
			},
			{
				"x": -2.1486765309,
				"y": 1.4645496693,
				"z": 0.1733179886,
				"element": "C" 
			},
			{
				"x": -0.9618089002,
				"y": 1.643436843,
				"z": 1.1377360068,
				"element": "C" 
			},
			{
				"x": -0.9124399044,
				"y": 0.6848103807,
				"z": 2.3369223209,
				"element": "C" 
			},
			{
				"x": 0.2462255794,
				"y": 1.0014599333,
				"z": 3.3192137558,
				"element": "C" 
			},
			{
				"x": 0.9979498266,
				"y": -0.2304519522,
				"z": 3.8766713674,
				"element": "C" 
			},
			{
				"x": 2.2233648686,
				"y": -0.6608911805,
				"z": 3.0450016839,
				"element": "C" 
			},
			{
				"x": 1.9225003511,
				"y": -1.0017761609,
				"z": 1.5803885266,
				"element": "C" 
			},
			{
				"x": 3.1540228263,
				"y": -1.3615478419,
				"z": 0.7351324765,
				"element": "C" 
			},
			{
				"x": 2.8309075498,
				"y": -1.5071382718,
				"z": -0.7648812725,
				"element": "C" 
			},
			{
				"x": 2.5954923426,
				"y": -0.1624921455,
				"z": -1.4764789021,
				"element": "C" 
			},
			{
				"x": 1.9787365765,
				"y": -0.2948243762,
				"z": -2.8875336258,
				"element": "C" 
			},
			{
				"x": -0.1327180842,
				"y": 1.0356846088,
				"z": -1.9413557736,
				"element": "H" 
			},
			{
				"x": -1.3003063177,
				"y": 0.2328319848,
				"z": -2.9978447386,
				"element": "H" 
			},
			{
				"x": -1.4877588256,
				"y": -1.6532712094,
				"z": -1.3679511856,
				"element": "H" 
			},
			{
				"x": -0.4060645526,
				"y": -0.8304021005,
				"z": -0.2646545469,
				"element": "H" 
			},
			{
				"x": -3.1964396468,
				"y": 0.0998813257,
				"z": -1.1203562086,
				"element": "H" 
			},
			{
				"x": -2.7523873669,
				"y": -0.5997366003,
				"z": 0.4208737664,
				"element": "H" 
			},
			{
				"x": -2.0183601461,
				"y": 2.1678695202,
				"z": -0.6598584592,
				"element": "H" 
			},
			{
				"x": -3.0708968495,
				"y": 1.7775783929,
				"z": 0.6813069724,
				"element": "H" 
			},
			{
				"x": -0.9746957868,
				"y": 2.6780694069,
				"z": 1.5068919143,
				"element": "H" 
			},
			{
				"x": -0.0194451956,
				"y": 1.5465680578,
				"z": 0.5801166527,
				"element": "H" 
			},
			{
				"x": -0.8162908646,
				"y": -0.3440350565,
				"z": 1.9742254,
				"element": "H" 
			},
			{
				"x": -1.8697031121,
				"y": 0.7178120183,
				"z": 2.874294851,
				"element": "H" 
			},
			{
				"x": 0.9757337458,
				"y": 1.657220907,
				"z": 2.8233797999,
				"element": "H" 
			},
			{
				"x": -0.1509382755,
				"y": 1.5913603238,
				"z": 4.1534990408,
				"element": "H" 
			},
			{
				"x": 0.2993484452,
				"y": -1.0730975277,
				"z": 3.9737428518,
				"element": "H" 
			},
			{
				"x": 1.3462108368,
				"y": -0.0127970103,
				"z": 4.8939019548,
				"element": "H" 
			},
			{
				"x": 2.9636335784,
				"y": 0.1519875361,
				"z": 3.0723031318,
				"element": "H" 
			},
			{
				"x": 2.7022485841,
				"y": -1.5220904392,
				"z": 3.530788173,
				"element": "H" 
			},
			{
				"x": 1.2063865865,
				"y": -1.8347320111,
				"z": 1.5364763152,
				"element": "H" 
			},
			{
				"x": 1.4196756789,
				"y": -0.1446718863,
				"z": 1.1205044081,
				"element": "H" 
			},
			{
				"x": 3.9298754918,
				"y": -0.5935975982,
				"z": 0.8683760699,
				"element": "H" 
			},
			{
				"x": 3.5881761682,
				"y": -2.29833896,
				"z": 1.1074707814,
				"element": "H" 
			},
			{
				"x": 3.6503496852,
				"y": -2.0315272148,
				"z": -1.2724496041,
				"element": "H" 
			},
			{
				"x": 1.9492119823,
				"y": -2.1511387336,
				"z": -0.8811834621,
				"element": "H" 
			},
			{
				"x": 3.5507978885,
				"y": 0.3701249968,
				"z": -1.5621563211,
				"element": "H" 
			},
			{
				"x": 1.9509063006,
				"y": 0.4816144578,
				"z": -0.8662115748,
				"element": "H" 
			},
			{
				"x": 2.571234621,
				"y": -0.9762745804,
				"z": -3.5058227358,
				"element": "H" 
			},
			{
				"x": 1.9777632127,
				"y": 0.6928180432,
				"z": -3.3685960215,
				"element": "H" 
			}
		],
		 "valence_orbital": [ 
			{
				"type": "occ",
				"energy": -0.31159,
				"method": "rhf"
			},
			{
				"type": "occ",
				"energy": -0.30882,
				"method": "rhf"
			},
			{
				"type": "occ",
				"energy": -0.30079,
				"method": "rhf"
			},
			{
				"type": "occ",
				"energy": -0.2966,
				"method": "rhf"
			},
			{
				"type": "occ",
				"energy": -0.23517,
				"method": "rhf"
			},
			{
				"type": "unocc",
				"energy": -0.01243,
				"method": "rhf"
			},
			{
				"type": "unocc",
				"energy": 0.06116,
				"method": "rhf"
			},
			{
				"type": "unocc",
				"energy": 0.08868,
				"method": "rhf"
			},
			{
				"type": "unocc",
				"energy": 0.09086,
				"method": "rhf"
			},
			{
				"type": "unocc",
				"energy": 0.09819,
				"method": "rhf"
			}
		],
		"cosmo_sigma_profile": { 
			"-0.025": 0.0,
			"-0.024": 0.0,
			"-0.023": 0.0,
			"-0.022": 0.0,
			"-0.021": 0.0,
			"-0.02": 0.0,
			"-0.019": 0.0,
			"-0.018": 0.0,
			"-0.017": 0.0,
			"-0.016": 0.0,
			"-0.015": 0.0,
			"-0.014": 0.0,
			"-0.013": 0.0,
			"-0.012": 0.0,
			"-0.011": 0.0,
			"-0.01": 0.0,
			"-0.009": 0.0,
			"-0.008": 0.0,
			"-0.007": 0.0,
			"-0.006": 0.0237187494578,
			"-0.005": 3.93814093979,
			"-0.004": 14.4487143396,
			"-0.003": 18.6294251338,
			"-0.002": 44.3614023849,
			"-0.001": 72.2671334686,
			"0.0": 65.3264437703,
			"0.001": 44.943479694,
			"0.002": 16.555176844,
			"0.003": 1.884428078,
			"0.004": 2.26544685586,
			"0.005": 1.3288389598,
			"0.006": 1.94747182214,
			"0.007": 1.45029023714,
			"0.008": 1.92553145896,
			"0.009": 1.50471472579,
			"0.01": 1.7269689475,
			"0.011": 1.91844829927,
			"0.012": 4.12052178846,
			"0.013": 3.51728061985,
			"0.014": 0.85794030257,
			"0.015": 0.00359740916873,
			"0.016": 0.0,
			"0.017": 0.0,
			"0.018": 0.0,
			"0.019": 0.0,
			"0.02": 0.0,
			"0.021": 0.0,
			"0.022": 0.0,
			"0.023": 0.0,
			"0.024": 0.0,
			"0.025": 0.0
		}
	}
}
