{
	 "smiles": "OCC1=NN=C(O1)C1=C(Cl)C=CC=C1", 
	 "Tm": 375.15, 
	 "num_atms": 21, 
	 "gaussian": { 
		 "optdone": 1, 
		 "sigma_profile": "yes", 
		 "theory": "DFT", 
		 "functional": "B3LYP", 
		 "basiset": "6-31G**", 
		 "properties": { 
			 "R2extent": 3811.9875, 
			 "electric_dipole_moment_norm": 3.59064283242, 
			 "electric_quadrupole_moment_norm": 16.9331354784, 
			 "total_energy": -1067.27289432, 
			 "HOMO_LUMO_gap": 0.18655, 
			 "cosmo_polarized_energy": -13.52, 
			 "cosmo_cavitation_energy": 28.0, 
			 "cosmo_dispersion_energy": -20.62, 
			 "cosmo_repulsion_energy": 1.62, 
			 "cosmo_total_nonelectrostatic_energy": 9.0, 
			 "SMD_solvation_energy": 3.09 
		},
		"coords": [
			{
				"x": 3.2601869008,
				"y": -2.932738285,
				"z": -0.7025300366,
				"element": "O" 
			},
			{
				"x": 3.0481420101,
				"y": -2.0825634036,
				"z": 0.4105907843,
				"element": "C" 
			},
			{
				"x": 1.6206622646,
				"y": -1.6587084998,
				"z": 0.5493469245,
				"element": "C" 
			},
			{
				"x": 0.8120222662,
				"y": -1.7804939921,
				"z": 1.5534328008,
				"element": "N" 
			},
			{
				"x": -0.3921604407,
				"y": -1.2096966674,
				"z": 1.1584209979,
				"element": "N" 
			},
			{
				"x": -0.2280399188,
				"y": -0.789569012,
				"z": -0.0653647876,
				"element": "C" 
			},
			{
				"x": 1.0354289022,
				"y": -1.0373254969,
				"z": -0.5154715822,
				"element": "O" 
			},
			{
				"x": -1.2491637074,
				"y": -0.1502555535,
				"z": -0.897019578,
				"element": "C" 
			},
			{
				"x": -1.0519011659,
				"y": 0.435980808,
				"z": -2.1619685577,
				"element": "C" 
			},
			{
				"x": 0.5174131441,
				"y": 0.4982346084,
				"z": -2.950769353,
				"element": "Cl" 
			},
			{
				"x": -2.1167073474,
				"y": 1.017581797,
				"z": -2.8543724811,
				"element": "C" 
			},
			{
				"x": -3.392960368,
				"y": 1.0291662139,
				"z": -2.2996311052,
				"element": "C" 
			},
			{
				"x": -3.6103607628,
				"y": 0.4577801752,
				"z": -1.0435080691,
				"element": "C" 
			},
			{
				"x": -2.5529289946,
				"y": -0.1223596998,
				"z": -0.3580172307,
				"element": "C" 
			},
			{
				"x": 3.0609752943,
				"y": -2.4295459491,
				"z": -1.5033991429,
				"element": "H" 
			},
			{
				"x": 3.3136155536,
				"y": -2.6437160376,
				"z": 1.3084825564,
				"element": "H" 
			},
			{
				"x": 3.6888083451,
				"y": -1.1877410724,
				"z": 0.3684344342,
				"element": "H" 
			},
			{
				"x": -1.9301747765,
				"y": 1.4600606008,
				"z": -3.8262804827,
				"element": "H" 
			},
			{
				"x": -4.2116283909,
				"y": 1.4839765862,
				"z": -2.8487723499,
				"element": "H" 
			},
			{
				"x": -4.6014429948,
				"y": 0.4615231423,
				"z": -0.6014349496,
				"element": "H" 
			},
			{
				"x": -2.7018858132,
				"y": -0.5731902624,
				"z": 0.6166312084,
				"element": "H" 
			}
		],
		 "valence_orbital": [ 
			{
				"type": "occ",
				"energy": -0.31336,
				"method": "rhf"
			},
			{
				"type": "occ",
				"energy": -0.29319,
				"method": "rhf"
			},
			{
				"type": "occ",
				"energy": -0.28183,
				"method": "rhf"
			},
			{
				"type": "occ",
				"energy": -0.26489,
				"method": "rhf"
			},
			{
				"type": "occ",
				"energy": -0.24971,
				"method": "rhf"
			},
			{
				"type": "unocc",
				"energy": -0.06316,
				"method": "rhf"
			},
			{
				"type": "unocc",
				"energy": -0.02681,
				"method": "rhf"
			},
			{
				"type": "unocc",
				"energy": 0.00177,
				"method": "rhf"
			},
			{
				"type": "unocc",
				"energy": 0.01614,
				"method": "rhf"
			},
			{
				"type": "unocc",
				"energy": 0.04542,
				"method": "rhf"
			}
		],
		"cosmo_sigma_profile": { 
			"-0.025": 0.0,
			"-0.024": 0.0,
			"-0.023": 0.0,
			"-0.022": 0.0,
			"-0.021": 0.0,
			"-0.02": 0.0,
			"-0.019": 0.0,
			"-0.018": 0.0,
			"-0.017": 0.0,
			"-0.016": 0.277877901266,
			"-0.015": 0.779342078266,
			"-0.014": 0.809384674668,
			"-0.013": 0.93274819954,
			"-0.012": 1.2640651027,
			"-0.011": 0.954517301649,
			"-0.01": 0.459200709186,
			"-0.009": 0.966170426234,
			"-0.008": 4.64461498051,
			"-0.007": 13.5439663832,
			"-0.006": 14.423461445,
			"-0.005": 13.4796910652,
			"-0.004": 13.0739117712,
			"-0.003": 12.5818109202,
			"-0.002": 13.4691696819,
			"-0.001": 14.10321891,
			"0.0": 17.2352019598,
			"0.001": 20.9262135918,
			"0.002": 20.2925783993,
			"0.003": 15.2581749073,
			"0.004": 11.5358197494,
			"0.005": 4.57770537907,
			"0.006": 2.97890455359,
			"0.007": 3.24101292049,
			"0.008": 3.16587519914,
			"0.009": 3.27495095505,
			"0.01": 3.26571657798,
			"0.011": 5.41541606311,
			"0.012": 4.73179983243,
			"0.013": 3.73090194162,
			"0.014": 1.48135994831,
			"0.015": 0.34546844886,
			"0.016": 0.0,
			"0.017": 0.0,
			"0.018": 0.0,
			"0.019": 0.0,
			"0.02": 0.0,
			"0.021": 0.0,
			"0.022": 0.0,
			"0.023": 0.0,
			"0.024": 0.0,
			"0.025": 0.0
		}
	}
}
