{
	 "smiles": "[O-][N+](=O)C1=CC=CC2=C1C(=O)OC2=O", 
	 "Tm": 435.15, 
	 "num_atms": 17, 
	 "gaussian": { 
		 "optdone": 1, 
		 "sigma_profile": "yes", 
		 "theory": "DFT", 
		 "functional": "B3LYP", 
		 "basiset": "6-31G**", 
		 "properties": { 
			 "R2extent": 2824.4177, 
			 "electric_dipole_moment_norm": 6.09528433873, 
			 "electric_quadrupole_moment_norm": 13.9072610661, 
			 "total_energy": -737.425866148, 
			 "HOMO_LUMO_gap": 0.17744, 
			 "cosmo_polarized_energy": -16.4, 
			 "cosmo_cavitation_energy": 23.88, 
			 "cosmo_dispersion_energy": -17.5, 
			 "cosmo_repulsion_energy": 1.35, 
			 "cosmo_total_nonelectrostatic_energy": 7.73, 
			 "SMD_solvation_energy": 8.21 
		},
		"coords": [
			{
				"x": -1.2049073745,
				"y": 0.8969388921,
				"z": 2.6579756871,
				"element": "O" 
			},
			{
				"x": -1.5938963626,
				"y": 0.231328309,
				"z": 1.7079445268,
				"element": "N" 
			},
			{
				"x": -2.7442719436,
				"y": -0.1595279956,
				"z": 1.5160091471,
				"element": "O" 
			},
			{
				"x": -0.6008804125,
				"y": -0.1045248147,
				"z": 0.6700363497,
				"element": "C" 
			},
			{
				"x": -1.045564934,
				"y": -0.1790771551,
				"z": -0.6505259643,
				"element": "C" 
			},
			{
				"x": -0.1432330693,
				"y": -0.4206932659,
				"z": -1.6924864997,
				"element": "C" 
			},
			{
				"x": 1.2149930568,
				"y": -0.6087052905,
				"z": -1.4287051939,
				"element": "C" 
			},
			{
				"x": 1.6228910546,
				"y": -0.5577850436,
				"z": -0.1005151232,
				"element": "C" 
			},
			{
				"x": 0.7494668444,
				"y": -0.3060762131,
				"z": 0.9560833422,
				"element": "C" 
			},
			{
				"x": 1.5450010369,
				"y": -0.4166103461,
				"z": 2.2224982146,
				"element": "C" 
			},
			{
				"x": 1.2231414442,
				"y": -0.3834791244,
				"z": 3.3712776904,
				"element": "O" 
			},
			{
				"x": 2.8751888148,
				"y": -0.6440845671,
				"z": 1.840692528,
				"element": "O" 
			},
			{
				"x": 2.9845875484,
				"y": -0.7458501098,
				"z": 0.4597371629,
				"element": "C" 
			},
			{
				"x": 4.0248148507,
				"y": -0.9496328689,
				"z": -0.099989571,
				"element": "O" 
			},
			{
				"x": -2.1019882948,
				"y": -0.0397788255,
				"z": -0.8469311382,
				"element": "H" 
			},
			{
				"x": -0.5111773658,
				"y": -0.4600688329,
				"z": -2.7124583684,
				"element": "H" 
			},
			{
				"x": 1.9335351063,
				"y": -0.796872748,
				"z": -2.2192427902,
				"element": "H" 
			}
		],
		 "valence_orbital": [ 
			{
				"type": "occ",
				"energy": -0.33064,
				"method": "rhf"
			},
			{
				"type": "occ",
				"energy": -0.32201,
				"method": "rhf"
			},
			{
				"type": "occ",
				"energy": -0.31735,
				"method": "rhf"
			},
			{
				"type": "occ",
				"energy": -0.30863,
				"method": "rhf"
			},
			{
				"type": "occ",
				"energy": -0.29961,
				"method": "rhf"
			},
			{
				"type": "unocc",
				"energy": -0.12217,
				"method": "rhf"
			},
			{
				"type": "unocc",
				"energy": -0.10917,
				"method": "rhf"
			},
			{
				"type": "unocc",
				"energy": -0.05475,
				"method": "rhf"
			},
			{
				"type": "unocc",
				"energy": -0.00425,
				"method": "rhf"
			},
			{
				"type": "unocc",
				"energy": 0.03661,
				"method": "rhf"
			}
		],
		"cosmo_sigma_profile": { 
			"-0.025": 0.0,
			"-0.024": 0.0,
			"-0.023": 0.0,
			"-0.022": 0.0,
			"-0.021": 0.0,
			"-0.02": 0.0,
			"-0.019": 0.0,
			"-0.018": 0.0,
			"-0.017": 0.0,
			"-0.016": 0.0,
			"-0.015": 0.0,
			"-0.014": 0.0,
			"-0.013": 0.0,
			"-0.012": 0.00220008990461,
			"-0.011": 0.611866885076,
			"-0.01": 3.5321552144,
			"-0.009": 10.8705097787,
			"-0.008": 11.3673161059,
			"-0.007": 8.44168242561,
			"-0.006": 8.7928962647,
			"-0.005": 11.5395862016,
			"-0.004": 12.9442399372,
			"-0.003": 13.8752307224,
			"-0.002": 12.0763694305,
			"-0.001": 9.7707595146,
			"0.0": 4.88306047566,
			"0.001": 4.61885925521,
			"0.002": 4.79378003412,
			"0.003": 5.38522592638,
			"0.004": 6.28560504562,
			"0.005": 8.51168576179,
			"0.006": 11.8910175361,
			"0.007": 14.9045646774,
			"0.008": 12.1217853272,
			"0.009": 12.8593744618,
			"0.01": 4.0602145489,
			"0.011": 0.0720679531614,
			"0.012": 0.0,
			"0.013": 0.0,
			"0.014": 0.0,
			"0.015": 0.0,
			"0.016": 0.0,
			"0.017": 0.0,
			"0.018": 0.0,
			"0.019": 0.0,
			"0.02": 0.0,
			"0.021": 0.0,
			"0.022": 0.0,
			"0.023": 0.0,
			"0.024": 0.0,
			"0.025": 0.0
		}
	}
}
