{
	 "smiles": "CC(=O)C1=CC=CC(=C1)C#N", 
	 "Tm": 371.65, 
	 "num_atms": 18, 
	 "gaussian": { 
		 "optdone": 1, 
		 "sigma_profile": "yes", 
		 "theory": "DFT", 
		 "functional": "B3LYP", 
		 "basiset": "6-31G**", 
		 "properties": { 
			 "R2extent": 2467.7855, 
			 "electric_dipole_moment_norm": 1.70316006588, 
			 "electric_quadrupole_moment_norm": 23.0784738898, 
			 "total_energy": -477.137744725, 
			 "HOMO_LUMO_gap": 0.18737, 
			 "cosmo_polarized_energy": -12.08, 
			 "cosmo_cavitation_energy": 23.77, 
			 "cosmo_dispersion_energy": -16.65, 
			 "cosmo_repulsion_energy": 1.33, 
			 "cosmo_total_nonelectrostatic_energy": 8.45, 
			 "SMD_solvation_energy": 6.27 
		},
		"coords": [
			{
				"x": 0.7619353748,
				"y": 1.2843312876,
				"z": 1.0439705967,
				"element": "C" 
			},
			{
				"x": -0.6733937712,
				"y": 0.7987281287,
				"z": 1.1202135968,
				"element": "C" 
			},
			{
				"x": -1.5325418667,
				"y": 1.460427853,
				"z": 1.679649944,
				"element": "O" 
			},
			{
				"x": -1.0302955605,
				"y": -0.5218666266,
				"z": 0.4919031534,
				"element": "C" 
			},
			{
				"x": -2.3640810115,
				"y": -0.9528314395,
				"z": 0.5736928618,
				"element": "C" 
			},
			{
				"x": -2.7542059441,
				"y": -2.1652446863,
				"z": 0.0115403111,
				"element": "C" 
			},
			{
				"x": -1.8198285752,
				"y": -2.9679450812,
				"z": -0.6416921441,
				"element": "C" 
			},
			{
				"x": -0.4824932505,
				"y": -2.54723171,
				"z": -0.7298488912,
				"element": "C" 
			},
			{
				"x": -0.0906110029,
				"y": -1.3240686144,
				"z": -0.1622975991,
				"element": "C" 
			},
			{
				"x": 0.4866635625,
				"y": -3.3660407302,
				"z": -1.3999718911,
				"element": "C" 
			},
			{
				"x": 1.2743532917,
				"y": -4.0278106675,
				"z": -1.9426165008,
				"element": "N" 
			},
			{
				"x": 0.8308298201,
				"y": 2.2486000046,
				"z": 1.5476285987,
				"element": "H" 
			},
			{
				"x": 1.0853551853,
				"y": 1.3944524439,
				"z": 0.0028898335,
				"element": "H" 
			},
			{
				"x": 1.4437450266,
				"y": 0.5739821991,
				"z": 1.5247198308,
				"element": "H" 
			},
			{
				"x": -3.0742945289,
				"y": -0.312798321,
				"z": 1.0863158635,
				"element": "H" 
			},
			{
				"x": -3.7877425646,
				"y": -2.4898925282,
				"z": 0.0799283494,
				"element": "H" 
			},
			{
				"x": -2.1128509088,
				"y": -3.9145763644,
				"z": -1.0833486579,
				"element": "H" 
			},
			{
				"x": 0.9464567239,
				"y": -1.0188151476,
				"z": -0.2419772554,
				"element": "H" 
			}
		],
		 "valence_orbital": [ 
			{
				"type": "occ",
				"energy": -0.35048,
				"method": "rhf"
			},
			{
				"type": "occ",
				"energy": -0.33979,
				"method": "rhf"
			},
			{
				"type": "occ",
				"energy": -0.28742,
				"method": "rhf"
			},
			{
				"type": "occ",
				"energy": -0.27542,
				"method": "rhf"
			},
			{
				"type": "occ",
				"energy": -0.26531,
				"method": "rhf"
			},
			{
				"type": "unocc",
				"energy": -0.07794,
				"method": "rhf"
			},
			{
				"type": "unocc",
				"energy": -0.05669,
				"method": "rhf"
			},
			{
				"type": "unocc",
				"energy": 0.00921,
				"method": "rhf"
			},
			{
				"type": "unocc",
				"energy": 0.02817,
				"method": "rhf"
			},
			{
				"type": "unocc",
				"energy": 0.07167,
				"method": "rhf"
			}
		],
		"cosmo_sigma_profile": { 
			"-0.025": 0.0,
			"-0.024": 0.0,
			"-0.023": 0.0,
			"-0.022": 0.0,
			"-0.021": 0.0,
			"-0.02": 0.0,
			"-0.019": 0.0,
			"-0.018": 0.0,
			"-0.017": 0.0,
			"-0.016": 0.0,
			"-0.015": 0.0,
			"-0.014": 0.0,
			"-0.013": 0.0,
			"-0.012": 0.0,
			"-0.011": 0.0,
			"-0.01": 0.0,
			"-0.009": 1.19564808941,
			"-0.008": 6.17436267841,
			"-0.007": 12.9812106703,
			"-0.006": 13.9940101355,
			"-0.005": 12.3234175255,
			"-0.004": 11.3885854078,
			"-0.003": 12.7709485345,
			"-0.002": 15.7688378783,
			"-0.001": 16.4763644382,
			"0.0": 16.3480803549,
			"0.001": 15.7010236494,
			"0.002": 8.17060608743,
			"0.003": 3.71404286317,
			"0.004": 3.1213821343,
			"0.005": 5.03262160389,
			"0.006": 3.31917400813,
			"0.007": 4.10864651756,
			"0.008": 5.10463669466,
			"0.009": 5.67304831351,
			"0.01": 5.63279560881,
			"0.011": 5.87024587685,
			"0.012": 5.05110388454,
			"0.013": 1.82897529695,
			"0.014": 0.0,
			"0.015": 0.0,
			"0.016": 0.0,
			"0.017": 0.0,
			"0.018": 0.0,
			"0.019": 0.0,
			"0.02": 0.0,
			"0.021": 0.0,
			"0.022": 0.0,
			"0.023": 0.0,
			"0.024": 0.0,
			"0.025": 0.0
		}
	}
}
