{
	 "smiles": "CCCCCCC(O)CC", 
	 "Tm": 295.15, 
	 "num_atms": 30, 
	 "gaussian": { 
		 "optdone": 1, 
		 "sigma_profile": "yes", 
		 "theory": "DFT", 
		 "functional": "B3LYP", 
		 "basiset": "6-31G**", 
		 "properties": { 
			 "R2extent": 2666.0523, 
			 "electric_dipole_moment_norm": 1.44018256134, 
			 "electric_quadrupole_moment_norm": 5.70020470685, 
			 "total_energy": -430.256349475, 
			 "HOMO_LUMO_gap": 0.33131, 
			 "cosmo_polarized_energy": -5.66, 
			 "cosmo_cavitation_energy": 30.48, 
			 "cosmo_dispersion_energy": -21.22, 
			 "cosmo_repulsion_energy": 1.79, 
			 "cosmo_total_nonelectrostatic_energy": 11.05, 
			 "SMD_solvation_energy": 4.65 
		},
		"coords": [
			{
				"x": 0.729235494,
				"y": -0.5223087005,
				"z": 3.9676448868,
				"element": "C" 
			},
			{
				"x": -0.1874921949,
				"y": 0.1286112543,
				"z": 2.926951967,
				"element": "C" 
			},
			{
				"x": -0.3140552928,
				"y": -0.686781741,
				"z": 1.633264932,
				"element": "C" 
			},
			{
				"x": -1.2299198053,
				"y": -0.0321946357,
				"z": 0.5898750215,
				"element": "C" 
			},
			{
				"x": -1.4648634706,
				"y": -0.8637379609,
				"z": -0.682811978,
				"element": "C" 
			},
			{
				"x": -0.2162622439,
				"y": -1.1681898683,
				"z": -1.5299516764,
				"element": "C" 
			},
			{
				"x": 0.4970335607,
				"y": 0.068149767,
				"z": -2.0832055449,
				"element": "C" 
			},
			{
				"x": -0.4856497363,
				"y": 0.8107909258,
				"z": -2.8098749334,
				"element": "O" 
			},
			{
				"x": 1.6898398446,
				"y": -0.2725264669,
				"z": -2.9911910109,
				"element": "C" 
			},
			{
				"x": 2.8633974734,
				"y": -0.9584928022,
				"z": -2.2834305697,
				"element": "C" 
			},
			{
				"x": 1.7455923866,
				"y": -0.6492032099,
				"z": 3.5770104878,
				"element": "H" 
			},
			{
				"x": 0.3613863269,
				"y": -1.5142346101,
				"z": 4.2544477836,
				"element": "H" 
			},
			{
				"x": 0.7968633279,
				"y": 0.0825442894,
				"z": 4.8780276031,
				"element": "H" 
			},
			{
				"x": -1.1864251914,
				"y": 0.2760535687,
				"z": 3.3597289601,
				"element": "H" 
			},
			{
				"x": 0.1876059093,
				"y": 1.1327712202,
				"z": 2.6856319371,
				"element": "H" 
			},
			{
				"x": -0.6966817624,
				"y": -1.6896611715,
				"z": 1.8738821417,
				"element": "H" 
			},
			{
				"x": 0.6889873698,
				"y": -0.8401676206,
				"z": 1.2119229174,
				"element": "H" 
			},
			{
				"x": -2.2062667075,
				"y": 0.1641583109,
				"z": 1.0537675255,
				"element": "H" 
			},
			{
				"x": -0.8294767823,
				"y": 0.9538761808,
				"z": 0.318772806,
				"element": "H" 
			},
			{
				"x": -2.1875297727,
				"y": -0.339636698,
				"z": -1.3162287563,
				"element": "H" 
			},
			{
				"x": -1.928490344,
				"y": -1.8190567838,
				"z": -0.4011241668,
				"element": "H" 
			},
			{
				"x": 0.5020406433,
				"y": -1.7563317559,
				"z": -0.9476354993,
				"element": "H" 
			},
			{
				"x": -0.5145825347,
				"y": -1.7931591082,
				"z": -2.3821734082,
				"element": "H" 
			},
			{
				"x": 0.8718383476,
				"y": 0.673148598,
				"z": -1.2385604173,
				"element": "H" 
			},
			{
				"x": -0.0609820219,
				"y": 1.6071453881,
				"z": -3.1535527429,
				"element": "H" 
			},
			{
				"x": 1.3273843118,
				"y": -0.8919393442,
				"z": -3.8213176098,
				"element": "H" 
			},
			{
				"x": 2.0477486077,
				"y": 0.6653703478,
				"z": -3.4411516006,
				"element": "H" 
			},
			{
				"x": 2.5911565687,
				"y": -1.9504631091,
				"z": -1.9100733426,
				"element": "H" 
			},
			{
				"x": 3.7095705992,
				"y": -1.0863312183,
				"z": -2.9657655324,
				"element": "H" 
			},
			{
				"x": 3.214397089,
				"y": -0.3669030457,
				"z": -1.4296801804,
				"element": "H" 
			}
		],
		 "valence_orbital": [ 
			{
				"type": "occ",
				"energy": -0.31716,
				"method": "rhf"
			},
			{
				"type": "occ",
				"energy": -0.30905,
				"method": "rhf"
			},
			{
				"type": "occ",
				"energy": -0.30169,
				"method": "rhf"
			},
			{
				"type": "occ",
				"energy": -0.29611,
				"method": "rhf"
			},
			{
				"type": "occ",
				"energy": -0.25899,
				"method": "rhf"
			},
			{
				"type": "unocc",
				"energy": 0.07232,
				"method": "rhf"
			},
			{
				"type": "unocc",
				"energy": 0.09256,
				"method": "rhf"
			},
			{
				"type": "unocc",
				"energy": 0.10087,
				"method": "rhf"
			},
			{
				"type": "unocc",
				"energy": 0.11275,
				"method": "rhf"
			},
			{
				"type": "unocc",
				"energy": 0.11976,
				"method": "rhf"
			}
		],
		"cosmo_sigma_profile": { 
			"-0.025": 0.0,
			"-0.024": 0.0,
			"-0.023": 0.0,
			"-0.022": 0.0,
			"-0.021": 0.0,
			"-0.02": 0.0,
			"-0.019": 0.0,
			"-0.018": 0.0,
			"-0.017": 0.0,
			"-0.016": 0.0,
			"-0.015": 0.188170657275,
			"-0.014": 1.16259625091,
			"-0.013": 0.766461985583,
			"-0.012": 0.821976279614,
			"-0.011": 0.974008012779,
			"-0.01": 1.08210479353,
			"-0.009": 0.961975214509,
			"-0.008": 0.965132409738,
			"-0.007": 1.03845805363,
			"-0.006": 1.02689198757,
			"-0.005": 1.23150380588,
			"-0.004": 1.78831628444,
			"-0.003": 8.49962958623,
			"-0.002": 33.9302873002,
			"-0.001": 46.6419928504,
			"0.0": 48.0085627294,
			"0.001": 42.3659227866,
			"0.002": 22.3255774013,
			"0.003": 2.35614418029,
			"0.004": 1.68829264109,
			"0.005": 1.76119535351,
			"0.006": 1.51951533824,
			"0.007": 1.02017914195,
			"0.008": 1.74555670188,
			"0.009": 1.78698691825,
			"0.01": 1.24709323976,
			"0.011": 1.56327103141,
			"0.012": 1.32608714341,
			"0.013": 1.55627050472,
			"0.014": 1.04582643196,
			"0.015": 0.461054274684,
			"0.016": 0.0353531863509,
			"0.017": 0.0,
			"0.018": 0.0,
			"0.019": 0.0,
			"0.02": 0.0,
			"0.021": 0.0,
			"0.022": 0.0,
			"0.023": 0.0,
			"0.024": 0.0,
			"0.025": 0.0
		}
	}
}
