{
	 "smiles": "CCCCCCCCCCCCCC1=CC=CC=C1", 
	 "Tm": 283.15, 
	 "num_atms": 51, 
	 "gaussian": { 
		 "optdone": 1, 
		 "sigma_profile": "yes", 
		 "theory": "DFT", 
		 "functional": "B3LYP", 
		 "basiset": "6-31G**", 
		 "properties": { 
			 "R2extent": 11070.1664, 
			 "electric_dipole_moment_norm": 0.465921044813, 
			 "electric_quadrupole_moment_norm": 4.28675352452, 
			 "total_energy": -743.353087968, 
			 "HOMO_LUMO_gap": 0.23938, 
			 "cosmo_polarized_energy": -3.63, 
			 "cosmo_cavitation_energy": 50.6, 
			 "cosmo_dispersion_energy": -34.38, 
			 "cosmo_repulsion_energy": 2.77, 
			 "cosmo_total_nonelectrostatic_energy": 18.98, 
			 "SMD_solvation_energy": 6.74 
		},
		"coords": [
			{
				"x": 4.2082451893,
				"y": 2.5449228343,
				"z": -3.0361662887,
				"element": "C" 
			},
			{
				"x": 3.9505793227,
				"y": 1.6550040415,
				"z": -4.258179781,
				"element": "C" 
			},
			{
				"x": 2.4720649506,
				"y": 1.3002480697,
				"z": -4.4882798543,
				"element": "C" 
			},
			{
				"x": 1.84536912,
				"y": 0.4185515284,
				"z": -3.3990220138,
				"element": "C" 
			},
			{
				"x": 0.3902525389,
				"y": 0.0324313823,
				"z": -3.695330821,
				"element": "C" 
			},
			{
				"x": -0.2450462718,
				"y": -0.8496218248,
				"z": -2.6126023915,
				"element": "C" 
			},
			{
				"x": -1.6941519742,
				"y": -1.2489894461,
				"z": -2.9327802026,
				"element": "C" 
			},
			{
				"x": -2.3783189764,
				"y": -2.1709445491,
				"z": -1.8993048026,
				"element": "C" 
			},
			{
				"x": -3.1536652715,
				"y": -1.4660683042,
				"z": -0.7684601475,
				"element": "C" 
			},
			{
				"x": -2.3482188834,
				"y": -0.6139137796,
				"z": 0.2285808378,
				"element": "C" 
			},
			{
				"x": -1.3364509808,
				"y": -1.4062918883,
				"z": 1.0694609203,
				"element": "C" 
			},
			{
				"x": -0.5337040636,
				"y": -0.5605823597,
				"z": 2.0721854378,
				"element": "C" 
			},
			{
				"x": -1.3716451756,
				"y": 0.0400682483,
				"z": 3.2211425131,
				"element": "C" 
			},
			{
				"x": -0.5318254704,
				"y": 0.8120929871,
				"z": 4.2164222168,
				"element": "C" 
			},
			{
				"x": 0.0565810535,
				"y": 0.1682767179,
				"z": 5.3139658171,
				"element": "C" 
			},
			{
				"x": 0.8618549932,
				"y": 0.8696714386,
				"z": 6.2123839496,
				"element": "C" 
			},
			{
				"x": 1.0939038797,
				"y": 2.2339945551,
				"z": 6.0277932619,
				"element": "C" 
			},
			{
				"x": 0.5135369247,
				"y": 2.8889154395,
				"z": 4.9399834096,
				"element": "C" 
			},
			{
				"x": -0.2913007151,
				"y": 2.182423174,
				"z": 4.0450394859,
				"element": "C" 
			},
			{
				"x": 5.2688779861,
				"y": 2.804920502,
				"z": -2.9545751711,
				"element": "H" 
			},
			{
				"x": 3.9198980332,
				"y": 2.0517395778,
				"z": -2.102260388,
				"element": "H" 
			},
			{
				"x": 3.6416664374,
				"y": 3.4811807354,
				"z": -3.1043466834,
				"element": "H" 
			},
			{
				"x": 4.3325558297,
				"y": 2.1623064978,
				"z": -5.1534592635,
				"element": "H" 
			},
			{
				"x": 4.5331802592,
				"y": 0.72805642,
				"z": -4.1644738818,
				"element": "H" 
			},
			{
				"x": 1.8890811956,
				"y": 2.2279492642,
				"z": -4.583405999,
				"element": "H" 
			},
			{
				"x": 2.3790586128,
				"y": 0.7850880346,
				"z": -5.4542408355,
				"element": "H" 
			},
			{
				"x": 1.8877781888,
				"y": 0.933043302,
				"z": -2.4299092771,
				"element": "H" 
			},
			{
				"x": 2.4469922138,
				"y": -0.494951234,
				"z": -3.2842015794,
				"element": "H" 
			},
			{
				"x": 0.3425459342,
				"y": -0.4891985614,
				"z": -4.6622111381,
				"element": "H" 
			},
			{
				"x": -0.2094995511,
				"y": 0.9460863731,
				"z": -3.8164414832,
				"element": "H" 
			},
			{
				"x": 0.3566071734,
				"y": -1.7618965194,
				"z": -2.4908177595,
				"element": "H" 
			},
			{
				"x": -0.1958421455,
				"y": -0.3257425517,
				"z": -1.6499661298,
				"element": "H" 
			},
			{
				"x": -2.3022443394,
				"y": -0.3433529985,
				"z": -3.0719561661,
				"element": "H" 
			},
			{
				"x": -1.691881447,
				"y": -1.7549471051,
				"z": -3.9076183201,
				"element": "H" 
			},
			{
				"x": -3.1003402783,
				"y": -2.8064107589,
				"z": -2.4275038575,
				"element": "H" 
			},
			{
				"x": -1.6357170653,
				"y": -2.8621227339,
				"z": -1.4787990708,
				"element": "H" 
			},
			{
				"x": -3.9212177793,
				"y": -0.8282884885,
				"z": -1.2281315342,
				"element": "H" 
			},
			{
				"x": -3.702190464,
				"y": -2.2317301501,
				"z": -0.2018651574,
				"element": "H" 
			},
			{
				"x": -3.064772763,
				"y": -0.1169078609,
				"z": 0.8948815731,
				"element": "H" 
			},
			{
				"x": -1.8276753761,
				"y": 0.1944692763,
				"z": -0.3019477968,
				"element": "H" 
			},
			{
				"x": -0.6262499699,
				"y": -1.9114008051,
				"z": 0.4034620026,
				"element": "H" 
			},
			{
				"x": -1.8646291032,
				"y": -2.2057551267,
				"z": 1.6097007238,
				"element": "H" 
			},
			{
				"x": 0.2585865682,
				"y": -1.180201917,
				"z": 2.5109099925,
				"element": "H" 
			},
			{
				"x": -0.0205382953,
				"y": 0.25299118,
				"z": 1.5414642518,
				"element": "H" 
			},
			{
				"x": -1.8987801722,
				"y": -0.7734590155,
				"z": 3.7364897876,
				"element": "H" 
			},
			{
				"x": -2.1437088272,
				"y": 0.7003263401,
				"z": 2.8099909078,
				"element": "H" 
			},
			{
				"x": -0.1234078175,
				"y": -0.8934758431,
				"z": 5.4676106102,
				"element": "H" 
			},
			{
				"x": 1.3042701591,
				"y": 0.3517194644,
				"z": 7.0590363878,
				"element": "H" 
			},
			{
				"x": 1.717619553,
				"y": 2.7826691268,
				"z": 6.7277638882,
				"element": "H" 
			},
			{
				"x": 0.6834845977,
				"y": 3.9517090861,
				"z": 4.7902814476,
				"element": "H" 
			},
			{
				"x": -0.7441675376,
				"y": 2.7010982245,
				"z": 3.202908372,
				"element": "H" 
			}
		],
		 "valence_orbital": [ 
			{
				"type": "occ",
				"energy": -0.30312,
				"method": "rhf"
			},
			{
				"type": "occ",
				"energy": -0.30171,
				"method": "rhf"
			},
			{
				"type": "occ",
				"energy": -0.29105,
				"method": "rhf"
			},
			{
				"type": "occ",
				"energy": -0.24343,
				"method": "rhf"
			},
			{
				"type": "occ",
				"energy": -0.23455,
				"method": "rhf"
			},
			{
				"type": "unocc",
				"energy": 0.00483,
				"method": "rhf"
			},
			{
				"type": "unocc",
				"energy": 0.00576,
				"method": "rhf"
			},
			{
				"type": "unocc",
				"energy": 0.08001,
				"method": "rhf"
			},
			{
				"type": "unocc",
				"energy": 0.09138,
				"method": "rhf"
			},
			{
				"type": "unocc",
				"energy": 0.09434,
				"method": "rhf"
			}
		],
		"cosmo_sigma_profile": { 
			"-0.025": 0.0,
			"-0.024": 0.0,
			"-0.023": 0.0,
			"-0.022": 0.0,
			"-0.021": 0.0,
			"-0.02": 0.0,
			"-0.019": 0.0,
			"-0.018": 0.0,
			"-0.017": 0.0,
			"-0.016": 0.0,
			"-0.015": 0.0,
			"-0.014": 0.0,
			"-0.013": 0.0,
			"-0.012": 0.0,
			"-0.011": 0.0,
			"-0.01": 0.0,
			"-0.009": 0.0,
			"-0.008": 0.0,
			"-0.007": 0.0,
			"-0.006": 0.84969570675,
			"-0.005": 8.0379283504,
			"-0.004": 11.782204736,
			"-0.003": 19.1823190315,
			"-0.002": 44.1596503546,
			"-0.001": 82.9270547398,
			"0.0": 84.0878210017,
			"0.001": 66.5853788284,
			"0.002": 33.7879746122,
			"0.003": 9.1460837388,
			"0.004": 8.41432598622,
			"0.005": 7.64090795581,
			"0.006": 8.42443835913,
			"0.007": 5.30649898877,
			"0.008": 0.0549636988167,
			"0.009": 0.0,
			"0.01": 0.0,
			"0.011": 0.0,
			"0.012": 0.0,
			"0.013": 0.0,
			"0.014": 0.0,
			"0.015": 0.0,
			"0.016": 0.0,
			"0.017": 0.0,
			"0.018": 0.0,
			"0.019": 0.0,
			"0.02": 0.0,
			"0.021": 0.0,
			"0.022": 0.0,
			"0.023": 0.0,
			"0.024": 0.0,
			"0.025": 0.0
		}
	}
}
