{
	 "smiles": "COC1=CC=C2C=CC=CC2=C1Br", 
	 "Tm": 353.15, 
	 "num_atms": 22, 
	 "gaussian": { 
		 "optdone": 1, 
		 "sigma_profile": "yes", 
		 "theory": "DFT", 
		 "functional": "B3LYP", 
		 "basiset": "6-31G**", 
		 "properties": { 
			 "R2extent": 3388.4532, 
			 "electric_dipole_moment_norm": 2.17347739119, 
			 "electric_quadrupole_moment_norm": 8.65688444881, 
			 "total_energy": -3071.21452667, 
			 "HOMO_LUMO_gap": 0.16986, 
			 "cosmo_polarized_energy": -6.53, 
			 "cosmo_cavitation_energy": 27.57, 
			 "cosmo_dispersion_energy": -20.7, 
			 "cosmo_repulsion_energy": 1.6, 
			 "cosmo_total_nonelectrostatic_energy": 8.47, 
			 "SMD_solvation_energy": 4.22 
		},
		"coords": [
			{
				"x": 2.10886446,
				"y": -2.1946092114,
				"z": 0.3229815481,
				"element": "C" 
			},
			{
				"x": 1.9807843051,
				"y": -0.8381371849,
				"z": 0.7568850056,
				"element": "O" 
			},
			{
				"x": 0.9455142554,
				"y": -0.1461259439,
				"z": 0.1823239416,
				"element": "C" 
			},
			{
				"x": 1.1793970795,
				"y": 0.5299942663,
				"z": -1.0420317833,
				"element": "C" 
			},
			{
				"x": 0.1901676702,
				"y": 1.2792903609,
				"z": -1.6279773643,
				"element": "C" 
			},
			{
				"x": -1.0894782029,
				"y": 1.3947003735,
				"z": -1.0235766264,
				"element": "C" 
			},
			{
				"x": -2.1226605903,
				"y": 2.1681442181,
				"z": -1.6168931033,
				"element": "C" 
			},
			{
				"x": -3.358589556,
				"y": 2.2780427666,
				"z": -1.0228388522,
				"element": "C" 
			},
			{
				"x": -3.6128175289,
				"y": 1.6134865061,
				"z": 0.1998353238,
				"element": "C" 
			},
			{
				"x": -2.6354244437,
				"y": 0.8553969951,
				"z": 0.805102583,
				"element": "C" 
			},
			{
				"x": -1.3484604316,
				"y": 0.7202972427,
				"z": 0.2187040079,
				"element": "C" 
			},
			{
				"x": -0.2926597786,
				"y": -0.0501615275,
				"z": 0.7908173445,
				"element": "C" 
			},
			{
				"x": -0.5567578922,
				"y": -0.9734232919,
				"z": 2.4438122599,
				"element": "Br" 
			},
			{
				"x": 2.261818113,
				"y": -2.2528424901,
				"z": -0.7624213485,
				"element": "H" 
			},
			{
				"x": 1.2247286792,
				"y": -2.7821619705,
				"z": 0.5962037493,
				"element": "H" 
			},
			{
				"x": 2.984613155,
				"y": -2.5988016164,
				"z": 0.8338923624,
				"element": "H" 
			},
			{
				"x": 2.1671014676,
				"y": 0.4473937532,
				"z": -1.4845234553,
				"element": "H" 
			},
			{
				"x": 0.3771888087,
				"y": 1.8003512657,
				"z": -2.5628154017,
				"element": "H" 
			},
			{
				"x": -1.9141949052,
				"y": 2.6744730885,
				"z": -2.5558259364,
				"element": "H" 
			},
			{
				"x": -4.1389347547,
				"y": 2.8727123896,
				"z": -1.4883123535,
				"element": "H" 
			},
			{
				"x": -4.589406835,
				"y": 1.7021826647,
				"z": 0.6667560436,
				"element": "H" 
			},
			{
				"x": -2.8374930747,
				"y": 0.3491973456,
				"z": 1.7416020553,
				"element": "H" 
			}
		],
		 "valence_orbital": [ 
			{
				"type": "occ",
				"energy": -0.28398,
				"method": "rhf"
			},
			{
				"type": "occ",
				"energy": -0.27559,
				"method": "rhf"
			},
			{
				"type": "occ",
				"energy": -0.26786,
				"method": "rhf"
			},
			{
				"type": "occ",
				"energy": -0.24554,
				"method": "rhf"
			},
			{
				"type": "occ",
				"energy": -0.21603,
				"method": "rhf"
			},
			{
				"type": "unocc",
				"energy": -0.04617,
				"method": "rhf"
			},
			{
				"type": "unocc",
				"energy": -0.01527,
				"method": "rhf"
			},
			{
				"type": "unocc",
				"energy": 0.01227,
				"method": "rhf"
			},
			{
				"type": "unocc",
				"energy": 0.02597,
				"method": "rhf"
			},
			{
				"type": "unocc",
				"energy": 0.08908,
				"method": "rhf"
			}
		],
		"cosmo_sigma_profile": { 
			"-0.025": 0.0,
			"-0.024": 0.0,
			"-0.023": 0.0,
			"-0.022": 0.0,
			"-0.021": 0.0,
			"-0.02": 0.0,
			"-0.019": 0.0,
			"-0.018": 0.0,
			"-0.017": 0.0,
			"-0.016": 0.0,
			"-0.015": 0.0,
			"-0.014": 0.0,
			"-0.013": 0.0,
			"-0.012": 0.0,
			"-0.011": 0.0,
			"-0.01": 0.0,
			"-0.009": 0.0,
			"-0.008": 0.0,
			"-0.007": 3.1152888094,
			"-0.006": 12.3812563555,
			"-0.005": 16.494786213,
			"-0.004": 20.220006912,
			"-0.003": 21.2448691182,
			"-0.002": 15.1803284304,
			"-0.001": 13.6101752359,
			"0.0": 12.171755954,
			"0.001": 15.9686118298,
			"0.002": 27.7706432854,
			"0.003": 25.7319547228,
			"0.004": 20.112556191,
			"0.005": 9.49256795541,
			"0.006": 2.00558802551,
			"0.007": 2.10944423448,
			"0.008": 1.21017941159,
			"0.009": 1.26584638353,
			"0.01": 1.92192088362,
			"0.011": 1.50787327118,
			"0.012": 0.486230872207,
			"0.013": 0.0,
			"0.014": 0.0,
			"0.015": 0.0,
			"0.016": 0.0,
			"0.017": 0.0,
			"0.018": 0.0,
			"0.019": 0.0,
			"0.02": 0.0,
			"0.021": 0.0,
			"0.022": 0.0,
			"0.023": 0.0,
			"0.024": 0.0,
			"0.025": 0.0
		}
	}
}
