{
	 "smiles": "CC(C)(C)SSC(C)(C)C", 
	 "Tm": 268.15, 
	 "num_atms": 28, 
	 "gaussian": { 
		 "optdone": 1, 
		 "sigma_profile": "yes", 
		 "theory": "DFT", 
		 "functional": "B3LYP", 
		 "basiset": "6-31G**", 
		 "properties": { 
			 "R2extent": 2662.6212, 
			 "electric_dipole_moment_norm": 1.98571757559, 
			 "electric_quadrupole_moment_norm": 9.58359293637, 
			 "total_energy": -1112.10777507, 
			 "HOMO_LUMO_gap": 0.20507, 
			 "cosmo_polarized_energy": -4.96, 
			 "cosmo_cavitation_energy": 30.53, 
			 "cosmo_dispersion_energy": -21.9, 
			 "cosmo_repulsion_energy": 1.66, 
			 "cosmo_total_nonelectrostatic_energy": 10.3, 
			 "SMD_solvation_energy": 4.55 
		},
		"coords": [
			{
				"x": 0.8272562429,
				"y": 3.4632924143,
				"z": 0.3878609313,
				"element": "C" 
			},
			{
				"x": -0.2696997464,
				"y": 2.5105127746,
				"z": -0.1160079641,
				"element": "C" 
			},
			{
				"x": 0.0198792984,
				"y": 2.0572951122,
				"z": -1.5477693872,
				"element": "C" 
			},
			{
				"x": -1.6489065316,
				"y": 3.1744704344,
				"z": -0.0241785802,
				"element": "C" 
			},
			{
				"x": -0.1746881273,
				"y": 1.0801517684,
				"z": 1.116372306,
				"element": "S" 
			},
			{
				"x": -1.6707514999,
				"y": -0.2711227323,
				"z": 0.5799183209,
				"element": "S" 
			},
			{
				"x": -0.7970478234,
				"y": -1.8147270358,
				"z": -0.0740904382,
				"element": "C" 
			},
			{
				"x": 0.0903247652,
				"y": -2.4062998227,
				"z": 1.0277531837,
				"element": "C" 
			},
			{
				"x": 0.0221057077,
				"y": -1.5233112277,
				"z": -1.332378945,
				"element": "C" 
			},
			{
				"x": -1.9702657698,
				"y": -2.7568481328,
				"z": -0.3919200127,
				"element": "C" 
			},
			{
				"x": 0.6454909061,
				"y": 3.7765939196,
				"z": 1.4206173615,
				"element": "H" 
			},
			{
				"x": 0.8401534369,
				"y": 4.3624341289,
				"z": -0.2389792808,
				"element": "H" 
			},
			{
				"x": 1.8179785731,
				"y": 3.0011561043,
				"z": 0.3351170792,
				"element": "H" 
			},
			{
				"x": 1.0140700157,
				"y": 1.6099861842,
				"z": -1.6342764366,
				"element": "H" 
			},
			{
				"x": -0.7214338771,
				"y": 1.3292422978,
				"z": -1.8872203946,
				"element": "H" 
			},
			{
				"x": -0.0253545506,
				"y": 2.9208510375,
				"z": -2.2230467007,
				"element": "H" 
			},
			{
				"x": -2.4403582663,
				"y": 2.4802582663,
				"z": -0.3213979874,
				"element": "H" 
			},
			{
				"x": -1.690229613,
				"y": 4.0404545228,
				"z": -0.6967224686,
				"element": "H" 
			},
			{
				"x": -1.8564452475,
				"y": 3.5178681246,
				"z": 0.9930937593,
				"element": "H" 
			},
			{
				"x": -0.4912434716,
				"y": -2.6342523359,
				"z": 1.9253428739,
				"element": "H" 
			},
			{
				"x": 0.8906827668,
				"y": -1.7132006147,
				"z": 1.3028816118,
				"element": "H" 
			},
			{
				"x": 0.5556358145,
				"y": -3.334222791,
				"z": 0.6722571887,
				"element": "H" 
			},
			{
				"x": 0.4927336355,
				"y": -2.4487289061,
				"z": -1.6871721714,
				"element": "H" 
			},
			{
				"x": -0.6048512954,
				"y": -1.1304776214,
				"z": -2.1377268618,
				"element": "H" 
			},
			{
				"x": 0.8174714321,
				"y": -0.8024938525,
				"z": -1.1257701099,
				"element": "H" 
			},
			{
				"x": -2.579755752,
				"y": -2.954561774,
				"z": 0.495332985,
				"element": "H" 
			},
			{
				"x": -1.5768210902,
				"y": -3.7152500662,
				"z": -0.7500054309,
				"element": "H" 
			},
			{
				"x": -2.6177299329,
				"y": -2.345270177,
				"z": -1.1724844311,
				"element": "H" 
			}
		],
		 "valence_orbital": [ 
			{
				"type": "occ",
				"energy": -0.32806,
				"method": "rhf"
			},
			{
				"type": "occ",
				"energy": -0.31728,
				"method": "rhf"
			},
			{
				"type": "occ",
				"energy": -0.3011,
				"method": "rhf"
			},
			{
				"type": "occ",
				"energy": -0.24142,
				"method": "rhf"
			},
			{
				"type": "occ",
				"energy": -0.21633,
				"method": "rhf"
			},
			{
				"type": "unocc",
				"energy": -0.01126,
				"method": "rhf"
			},
			{
				"type": "unocc",
				"energy": 0.03108,
				"method": "rhf"
			},
			{
				"type": "unocc",
				"energy": 0.05411,
				"method": "rhf"
			},
			{
				"type": "unocc",
				"energy": 0.07699,
				"method": "rhf"
			},
			{
				"type": "unocc",
				"energy": 0.10133,
				"method": "rhf"
			}
		],
		"cosmo_sigma_profile": { 
			"-0.025": 0.0,
			"-0.024": 0.0,
			"-0.023": 0.0,
			"-0.022": 0.0,
			"-0.021": 0.0,
			"-0.02": 0.0,
			"-0.019": 0.0,
			"-0.018": 0.0,
			"-0.017": 0.0,
			"-0.016": 0.0,
			"-0.015": 0.0,
			"-0.014": 0.0,
			"-0.013": 0.0,
			"-0.012": 0.0,
			"-0.011": 0.0,
			"-0.01": 0.0,
			"-0.009": 0.0,
			"-0.008": 0.0,
			"-0.007": 0.0,
			"-0.006": 0.0,
			"-0.005": 0.30136202642,
			"-0.004": 16.3392866959,
			"-0.003": 32.6396035303,
			"-0.002": 31.6013893574,
			"-0.001": 35.1065524733,
			"0.0": 46.1375787064,
			"0.001": 30.0753958426,
			"0.002": 8.7974015482,
			"0.003": 6.57779831053,
			"0.004": 5.36981230194,
			"0.005": 6.1416208592,
			"0.006": 7.38883348256,
			"0.007": 5.37430691714,
			"0.008": 3.29641601488,
			"0.009": 2.19394079569,
			"0.01": 1.32600512745,
			"0.011": 0.0321000550584,
			"0.012": 0.0,
			"0.013": 0.0,
			"0.014": 0.0,
			"0.015": 0.0,
			"0.016": 0.0,
			"0.017": 0.0,
			"0.018": 0.0,
			"0.019": 0.0,
			"0.02": 0.0,
			"0.021": 0.0,
			"0.022": 0.0,
			"0.023": 0.0,
			"0.024": 0.0,
			"0.025": 0.0
		}
	}
}
