{
	 "smiles": "CC(C)(C)OC(=O)NCC1=CC(CO)=CC=C1", 
	 "Tm": 326.15, 
	 "num_atms": 36, 
	 "gaussian": { 
		 "optdone": 1, 
		 "sigma_profile": "yes", 
		 "theory": "DFT", 
		 "functional": "B3LYP", 
		 "basiset": "6-31G**", 
		 "properties": { 
			 "R2extent": 7570.1224, 
			 "electric_dipole_moment_norm": 1.14834645469, 
			 "electric_quadrupole_moment_norm": 14.3552312587, 
			 "total_energy": -787.292303142, 
			 "HOMO_LUMO_gap": 0.22919, 
			 "cosmo_polarized_energy": -13.49, 
			 "cosmo_cavitation_energy": 38.64, 
			 "cosmo_dispersion_energy": -26.9, 
			 "cosmo_repulsion_energy": 2.13, 
			 "cosmo_total_nonelectrostatic_energy": 13.87, 
			 "SMD_solvation_energy": 6.76 
		},
		"coords": [
			{
				"x": -3.2133232904,
				"y": -1.8752252016,
				"z": -1.2046379388,
				"element": "C" 
			},
			{
				"x": -2.1675140884,
				"y": -1.7590029517,
				"z": -0.0904846785,
				"element": "C" 
			},
			{
				"x": -2.7126675571,
				"y": -1.0316380117,
				"z": 1.1435172464,
				"element": "C" 
			},
			{
				"x": -1.6226883639,
				"y": -3.1385048018,
				"z": 0.289467498,
				"element": "C" 
			},
			{
				"x": -0.9694887384,
				"y": -1.0710432226,
				"z": -0.5944517784,
				"element": "O" 
			},
			{
				"x": -1.0357614163,
				"y": 0.2062292468,
				"z": -1.0438417587,
				"element": "C" 
			},
			{
				"x": -2.0331648702,
				"y": 0.9138439871,
				"z": -1.0719429624,
				"element": "O" 
			},
			{
				"x": 0.1981195108,
				"y": 0.5914260652,
				"z": -1.4902760195,
				"element": "N" 
			},
			{
				"x": 0.4725882437,
				"y": 1.9679394904,
				"z": -1.8862067653,
				"element": "C" 
			},
			{
				"x": 1.0588552573,
				"y": 2.8251244744,
				"z": -0.7772960371,
				"element": "C" 
			},
			{
				"x": 2.3848594747,
				"y": 3.2614812303,
				"z": -0.8376355385,
				"element": "C" 
			},
			{
				"x": 2.9398519318,
				"y": 4.0450262736,
				"z": 0.1829514878,
				"element": "C" 
			},
			{
				"x": 4.3912947688,
				"y": 4.4814703556,
				"z": 0.1084470502,
				"element": "C" 
			},
			{
				"x": 4.8674463069,
				"y": 4.6658275946,
				"z": -1.2176454287,
				"element": "O" 
			},
			{
				"x": 2.1416133814,
				"y": 4.3939457237,
				"z": 1.276080909,
				"element": "C" 
			},
			{
				"x": 0.81598936,
				"y": 3.9585715265,
				"z": 1.3501935428,
				"element": "C" 
			},
			{
				"x": 0.2733742898,
				"y": 3.1799579543,
				"z": 0.3298873537,
				"element": "C" 
			},
			{
				"x": -4.054936255,
				"y": -2.483688265,
				"z": -0.8577238575,
				"element": "H" 
			},
			{
				"x": -3.5844575815,
				"y": -0.8919155387,
				"z": -1.4945287536,
				"element": "H" 
			},
			{
				"x": -2.7796220148,
				"y": -2.3644654614,
				"z": -2.0826030683,
				"element": "H" 
			},
			{
				"x": -3.0855849421,
				"y": -0.0418236887,
				"z": 0.879666112,
				"element": "H" 
			},
			{
				"x": -1.9278979156,
				"y": -0.9263366517,
				"z": 1.8994692881,
				"element": "H" 
			},
			{
				"x": -3.5303581261,
				"y": -1.6131496746,
				"z": 1.5818033063,
				"element": "H" 
			},
			{
				"x": -2.42758473,
				"y": -3.7645679728,
				"z": 0.6859029407,
				"element": "H" 
			},
			{
				"x": -1.1930881856,
				"y": -3.6377986118,
				"z": -0.583897441,
				"element": "H" 
			},
			{
				"x": -0.8445657577,
				"y": -3.0495993332,
				"z": 1.0532660895,
				"element": "H" 
			},
			{
				"x": 0.9708384027,
				"y": -0.0188778753,
				"z": -1.2677329849,
				"element": "H" 
			},
			{
				"x": 1.1527110853,
				"y": 1.9530471933,
				"z": -2.7445014224,
				"element": "H" 
			},
			{
				"x": -0.4820111052,
				"y": 2.3803544145,
				"z": -2.2219917011,
				"element": "H" 
			},
			{
				"x": 3.0067386617,
				"y": 3.0029537343,
				"z": -1.6911218542,
				"element": "H" 
			},
			{
				"x": 4.5351206144,
				"y": 5.3865006682,
				"z": 0.7198419317,
				"element": "H" 
			},
			{
				"x": 5.0391669424,
				"y": 3.7069956436,
				"z": 0.5370586883,
				"element": "H" 
			},
			{
				"x": 4.2990864458,
				"y": 5.324419581,
				"z": -1.6392447537,
				"element": "H" 
			},
			{
				"x": 2.5544447244,
				"y": 5.012836044,
				"z": 2.0697131676,
				"element": "H" 
			},
			{
				"x": 0.2012112413,
				"y": 4.241250615,
				"z": 2.2003106724,
				"element": "H" 
			},
			{
				"x": -0.7602957051,
				"y": 2.8490354461,
				"z": 0.376787458,
				"element": "H" 
			}
		],
		 "valence_orbital": [ 
			{
				"type": "occ",
				"energy": -0.27949,
				"method": "rhf"
			},
			{
				"type": "occ",
				"energy": -0.26564,
				"method": "rhf"
			},
			{
				"type": "occ",
				"energy": -0.25359,
				"method": "rhf"
			},
			{
				"type": "occ",
				"energy": -0.24628,
				"method": "rhf"
			},
			{
				"type": "occ",
				"energy": -0.23791,
				"method": "rhf"
			},
			{
				"type": "unocc",
				"energy": -0.00872,
				"method": "rhf"
			},
			{
				"type": "unocc",
				"energy": -0.00256,
				"method": "rhf"
			},
			{
				"type": "unocc",
				"energy": 0.05631,
				"method": "rhf"
			},
			{
				"type": "unocc",
				"energy": 0.08496,
				"method": "rhf"
			},
			{
				"type": "unocc",
				"energy": 0.08637,
				"method": "rhf"
			}
		],
		"cosmo_sigma_profile": { 
			"-0.025": 0.0,
			"-0.024": 0.0,
			"-0.023": 0.0,
			"-0.022": 0.0,
			"-0.021": 0.0,
			"-0.02": 0.0,
			"-0.019": 0.0,
			"-0.018": 0.0,
			"-0.017": 0.0,
			"-0.016": 0.0192438359707,
			"-0.015": 1.09599840384,
			"-0.014": 1.08949965155,
			"-0.013": 1.74553286123,
			"-0.012": 1.86810253975,
			"-0.011": 2.17232668027,
			"-0.01": 1.46579625409,
			"-0.009": 1.34350753056,
			"-0.008": 1.78908013904,
			"-0.007": 2.18180581223,
			"-0.006": 5.43263798204,
			"-0.005": 14.736515422,
			"-0.004": 26.6404710323,
			"-0.003": 30.6419534413,
			"-0.002": 27.933891181,
			"-0.001": 27.3322962608,
			"0.0": 33.8925896948,
			"0.001": 29.7728175933,
			"0.002": 15.4011628251,
			"0.003": 13.4559256095,
			"0.004": 13.489054675,
			"0.005": 12.4577511391,
			"0.006": 10.9736122706,
			"0.007": 5.28713795965,
			"0.008": 3.18545813821,
			"0.009": 2.49192733204,
			"0.01": 2.14901872788,
			"0.011": 2.71900606571,
			"0.012": 2.69927123849,
			"0.013": 4.08354483431,
			"0.014": 2.66409016085,
			"0.015": 0.151100477568,
			"0.016": 0.0,
			"0.017": 0.0,
			"0.018": 0.0,
			"0.019": 0.0,
			"0.02": 0.0,
			"0.021": 0.0,
			"0.022": 0.0,
			"0.023": 0.0,
			"0.024": 0.0,
			"0.025": 0.0
		}
	}
}
