{
	 "smiles": "CC1=CC=C(C=C1)C(O)C1=CC=CC=C1", 
	 "Tm": 325.15, 
	 "num_atms": 29, 
	 "gaussian": { 
		 "optdone": 1, 
		 "sigma_profile": "yes", 
		 "theory": "DFT", 
		 "functional": "B3LYP", 
		 "basiset": "6-31G**", 
		 "properties": { 
			 "R2extent": 4027.699, 
			 "electric_dipole_moment_norm": 1.40966731536, 
			 "electric_quadrupole_moment_norm": 7.02749461899, 
			 "total_energy": -617.153057433, 
			 "HOMO_LUMO_gap": 0.2147, 
			 "cosmo_polarized_energy": -8.91, 
			 "cosmo_cavitation_energy": 32.31, 
			 "cosmo_dispersion_energy": -22.91, 
			 "cosmo_repulsion_energy": 1.81, 
			 "cosmo_total_nonelectrostatic_energy": 11.2, 
			 "SMD_solvation_energy": 5.44 
		},
		"coords": [
			{
				"x": 3.6512892899,
				"y": -1.9890803245,
				"z": 0.3202898943,
				"element": "C" 
			},
			{
				"x": 2.30624914,
				"y": -1.3074834273,
				"z": 0.4151770298,
				"element": "C" 
			},
			{
				"x": 1.1340490094,
				"y": -2.0359400361,
				"z": 0.6378873476,
				"element": "C" 
			},
			{
				"x": -0.112397092,
				"y": -1.4075485512,
				"z": 0.7078625896,
				"element": "C" 
			},
			{
				"x": -0.2157814677,
				"y": -0.0238439443,
				"z": 0.5536070116,
				"element": "C" 
			},
			{
				"x": 0.955089169,
				"y": 0.7147312706,
				"z": 0.3344484834,
				"element": "C" 
			},
			{
				"x": 2.1932824243,
				"y": 0.0836493794,
				"z": 0.2675367932,
				"element": "C" 
			},
			{
				"x": -1.559302485,
				"y": 0.6917528812,
				"z": 0.6318875457,
				"element": "C" 
			},
			{
				"x": -2.550723692,
				"y": -0.2666372416,
				"z": 0.9962427764,
				"element": "O" 
			},
			{
				"x": -1.9254555354,
				"y": 1.3906675898,
				"z": -0.6729577237,
				"element": "C" 
			},
			{
				"x": -1.9473732318,
				"y": 2.7861633927,
				"z": -0.7595395854,
				"element": "C" 
			},
			{
				"x": -2.2879113605,
				"y": 3.4206607559,
				"z": -1.9575046058,
				"element": "C" 
			},
			{
				"x": -2.6200843316,
				"y": 2.6607082798,
				"z": -3.0785452895,
				"element": "C" 
			},
			{
				"x": -2.6098916844,
				"y": 1.2644033168,
				"z": -2.9975745321,
				"element": "C" 
			},
			{
				"x": -2.2640414532,
				"y": 0.6340637704,
				"z": -1.8043397664,
				"element": "C" 
			},
			{
				"x": 4.0135425399,
				"y": -2.0152051796,
				"z": -0.7150201145,
				"element": "H" 
			},
			{
				"x": 4.409724969,
				"y": -1.464747507,
				"z": 0.9118113306,
				"element": "H" 
			},
			{
				"x": 3.6016555328,
				"y": -3.0218746983,
				"z": 0.67689771,
				"element": "H" 
			},
			{
				"x": 1.1926479913,
				"y": -3.1147398295,
				"z": 0.763331256,
				"element": "H" 
			},
			{
				"x": -1.008602786,
				"y": -1.9880349976,
				"z": 0.8923154223,
				"element": "H" 
			},
			{
				"x": 0.8964542184,
				"y": 1.7934210435,
				"z": 0.210000815,
				"element": "H" 
			},
			{
				"x": 3.0880892323,
				"y": 0.6785795108,
				"z": 0.0986088569,
				"element": "H" 
			},
			{
				"x": -1.4824787522,
				"y": 1.4656861212,
				"z": 1.4142453197,
				"element": "H" 
			},
			{
				"x": -3.4110483209,
				"y": 0.1613092818,
				"z": 0.9014557272,
				"element": "H" 
			},
			{
				"x": -1.7006896571,
				"y": 3.3814993837,
				"z": 0.1168146067,
				"element": "H" 
			},
			{
				"x": -2.2999925095,
				"y": 4.5057393438,
				"z": -2.0103338014,
				"element": "H" 
			},
			{
				"x": -2.8884676454,
				"y": 3.1507796266,
				"z": -4.0101149924,
				"element": "H" 
			},
			{
				"x": -2.8697051853,
				"y": 0.6682432839,
				"z": -3.8679861502,
				"element": "H" 
			},
			{
				"x": -2.253726326,
				"y": -0.4498224949,
				"z": -1.7371039546,
				"element": "H" 
			}
		],
		 "valence_orbital": [ 
			{
				"type": "occ",
				"energy": -0.28163,
				"method": "rhf"
			},
			{
				"type": "occ",
				"energy": -0.25177,
				"method": "rhf"
			},
			{
				"type": "occ",
				"energy": -0.24498,
				"method": "rhf"
			},
			{
				"type": "occ",
				"energy": -0.23917,
				"method": "rhf"
			},
			{
				"type": "occ",
				"energy": -0.224,
				"method": "rhf"
			},
			{
				"type": "unocc",
				"energy": -0.0093,
				"method": "rhf"
			},
			{
				"type": "unocc",
				"energy": -0.00492,
				"method": "rhf"
			},
			{
				"type": "unocc",
				"energy": 0.0081,
				"method": "rhf"
			},
			{
				"type": "unocc",
				"energy": 0.01405,
				"method": "rhf"
			},
			{
				"type": "unocc",
				"energy": 0.09032,
				"method": "rhf"
			}
		],
		"cosmo_sigma_profile": { 
			"-0.025": 0.0,
			"-0.024": 0.0,
			"-0.023": 0.0,
			"-0.022": 0.0,
			"-0.021": 0.0,
			"-0.02": 0.0,
			"-0.019": 0.0,
			"-0.018": 0.0,
			"-0.017": 0.0,
			"-0.016": 0.27606993214,
			"-0.015": 0.608357826851,
			"-0.014": 0.900135681954,
			"-0.013": 0.869515717125,
			"-0.012": 0.943569590471,
			"-0.011": 0.700726799199,
			"-0.01": 0.562365315233,
			"-0.009": 0.442816153004,
			"-0.008": 1.07051435885,
			"-0.007": 1.3247382214,
			"-0.006": 5.48462712182,
			"-0.005": 17.0071733424,
			"-0.004": 26.6653843327,
			"-0.003": 27.7138390697,
			"-0.002": 20.7377667325,
			"-0.001": 20.5421852518,
			"0.0": 19.0527906196,
			"0.001": 19.4886563319,
			"0.002": 13.8442426418,
			"0.003": 15.3456770045,
			"0.004": 15.7457876995,
			"0.005": 18.2929742287,
			"0.006": 16.5146414633,
			"0.007": 5.01146763466,
			"0.008": 1.73957600933,
			"0.009": 1.0070769875,
			"0.01": 1.80561480718,
			"0.011": 1.16964813219,
			"0.012": 0.754623644007,
			"0.013": 0.534934226161,
			"0.014": 0.0827274244891,
			"0.015": 0.0,
			"0.016": 0.0,
			"0.017": 0.0,
			"0.018": 0.0,
			"0.019": 0.0,
			"0.02": 0.0,
			"0.021": 0.0,
			"0.022": 0.0,
			"0.023": 0.0,
			"0.024": 0.0,
			"0.025": 0.0
		}
	}
}
