{
	 "smiles": "OC(=O)CCC(F)(F)C(F)(F)C(F)(F)F", 
	 "Tm": 311.65, 
	 "num_atms": 20, 
	 "gaussian": { 
		 "optdone": 1, 
		 "sigma_profile": "yes", 
		 "theory": "DFT", 
		 "functional": "B3LYP", 
		 "basiset": "6-31G**", 
		 "properties": { 
			 "R2extent": 2924.8267, 
			 "electric_dipole_moment_norm": 4.09779397481, 
			 "electric_quadrupole_moment_norm": 15.3312266401, 
			 "total_energy": -1080.98098348, 
			 "HOMO_LUMO_gap": 0.27537, 
			 "cosmo_polarized_energy": -12.59, 
			 "cosmo_cavitation_energy": 26.08, 
			 "cosmo_dispersion_energy": -18.04, 
			 "cosmo_repulsion_energy": 1.28, 
			 "cosmo_total_nonelectrostatic_energy": 9.32, 
			 "SMD_solvation_energy": 7.67 
		},
		"coords": [
			{
				"x": -2.9664163453,
				"y": -1.4806397171,
				"z": 0.7651375888,
				"element": "O" 
			},
			{
				"x": -2.8224136347,
				"y": -0.3346278569,
				"z": 1.4699205824,
				"element": "C" 
			},
			{
				"x": -3.1867585008,
				"y": -0.2647195388,
				"z": 2.6169270077,
				"element": "O" 
			},
			{
				"x": -2.1921010824,
				"y": 0.8533390574,
				"z": 0.7361267782,
				"element": "C" 
			},
			{
				"x": -0.6999194083,
				"y": 1.0460546463,
				"z": 1.0671765391,
				"element": "C" 
			},
			{
				"x": 0.2489448316,
				"y": -0.0397565818,
				"z": 0.5842243011,
				"element": "C" 
			},
			{
				"x": -0.0774136166,
				"y": -1.2362069497,
				"z": 1.1589944926,
				"element": "F" 
			},
			{
				"x": 1.5164417101,
				"y": 0.2766939151,
				"z": 0.9757126684,
				"element": "F" 
			},
			{
				"x": 0.3304147319,
				"y": -0.3359989266,
				"z": -0.9378748245,
				"element": "C" 
			},
			{
				"x": 1.2676834305,
				"y": -1.2820705392,
				"z": -1.1409451913,
				"element": "F" 
			},
			{
				"x": -0.8776057245,
				"y": -0.8352149019,
				"z": -1.3615662991,
				"element": "F" 
			},
			{
				"x": 0.6621257941,
				"y": 0.858684418,
				"z": -1.8600808724,
				"element": "C" 
			},
			{
				"x": 0.8012701868,
				"y": 0.431242459,
				"z": -3.1172312729,
				"element": "F" 
			},
			{
				"x": 1.792443803,
				"y": 1.4564053096,
				"z": -1.4704306444,
				"element": "F" 
			},
			{
				"x": -0.3372278104,
				"y": 1.7623636631,
				"z": -1.8230873887,
				"element": "F" 
			},
			{
				"x": -2.5092668073,
				"y": -1.4156623371,
				"z": -0.0855168948,
				"element": "H" 
			},
			{
				"x": -2.3462023496,
				"y": 0.7951743473,
				"z": -0.3438276141,
				"element": "H" 
			},
			{
				"x": -2.7204177418,
				"y": 1.738929013,
				"z": 1.0962906239,
				"element": "H" 
			},
			{
				"x": -0.5698878717,
				"y": 1.0786977004,
				"z": 2.1535871309,
				"element": "H" 
			},
			{
				"x": -0.3524935947,
				"y": 2.0013128199,
				"z": 0.666563289,
				"element": "H" 
			}
		],
		 "valence_orbital": [ 
			{
				"type": "occ",
				"energy": -0.39091,
				"method": "rhf"
			},
			{
				"type": "occ",
				"energy": -0.37198,
				"method": "rhf"
			},
			{
				"type": "occ",
				"energy": -0.35932,
				"method": "rhf"
			},
			{
				"type": "occ",
				"energy": -0.31635,
				"method": "rhf"
			},
			{
				"type": "occ",
				"energy": -0.27453,
				"method": "rhf"
			},
			{
				"type": "unocc",
				"energy": 0.00084,
				"method": "rhf"
			},
			{
				"type": "unocc",
				"energy": 0.02159,
				"method": "rhf"
			},
			{
				"type": "unocc",
				"energy": 0.04537,
				"method": "rhf"
			},
			{
				"type": "unocc",
				"energy": 0.08749,
				"method": "rhf"
			},
			{
				"type": "unocc",
				"energy": 0.09311,
				"method": "rhf"
			}
		],
		"cosmo_sigma_profile": { 
			"-0.025": 0.0,
			"-0.024": 0.0,
			"-0.023": 0.0,
			"-0.022": 0.0,
			"-0.021": 0.0,
			"-0.02": 0.0,
			"-0.019": 0.0,
			"-0.018": 0.0,
			"-0.017": 0.0,
			"-0.016": 0.0,
			"-0.015": 0.243697170692,
			"-0.014": 1.00873597815,
			"-0.013": 0.964461065716,
			"-0.012": 1.45453243123,
			"-0.011": 1.36780527902,
			"-0.01": 0.856611712741,
			"-0.009": 1.57793215608,
			"-0.008": 5.00211644468,
			"-0.007": 9.12060953278,
			"-0.006": 8.77026982178,
			"-0.005": 11.1667261108,
			"-0.004": 10.2194284817,
			"-0.003": 8.14642438995,
			"-0.002": 9.95527707652,
			"-0.001": 14.3043822442,
			"0.0": 22.7896067993,
			"0.001": 38.3646449856,
			"0.002": 20.2594271955,
			"0.003": 10.7024462393,
			"0.004": 2.59141833781,
			"0.005": 1.92736467666,
			"0.006": 1.87552932016,
			"0.007": 2.79400752757,
			"0.008": 2.37981771122,
			"0.009": 3.33828362352,
			"0.01": 4.89164207413,
			"0.011": 5.04174744492,
			"0.012": 4.92532636545,
			"0.013": 1.57804972883,
			"0.014": 0.00430333294233,
			"0.015": 0.0,
			"0.016": 0.0,
			"0.017": 0.0,
			"0.018": 0.0,
			"0.019": 0.0,
			"0.02": 0.0,
			"0.021": 0.0,
			"0.022": 0.0,
			"0.023": 0.0,
			"0.024": 0.0,
			"0.025": 0.0
		}
	}
}
