{
	 "smiles": "FC(F)S(=O)(=O)C1=CC=C(F)C=C1", 
	 "Tm": 325.15, 
	 "num_atms": 18, 
	 "gaussian": { 
		 "optdone": 1, 
		 "sigma_profile": "yes", 
		 "theory": "DFT", 
		 "functional": "B3LYP", 
		 "basiset": "6-31G**", 
		 "properties": { 
			 "R2extent": 3301.0888, 
			 "electric_dipole_moment_norm": 4.42645726513, 
			 "electric_quadrupole_moment_norm": 12.5382153678, 
			 "total_energy": -1117.81364904, 
			 "HOMO_LUMO_gap": 0.22694, 
			 "cosmo_polarized_energy": -12.68, 
			 "cosmo_cavitation_energy": 25.64, 
			 "cosmo_dispersion_energy": -18.54, 
			 "cosmo_repulsion_energy": 1.36, 
			 "cosmo_total_nonelectrostatic_energy": 8.46, 
			 "SMD_solvation_energy": 5.18 
		},
		"coords": [
			{
				"x": 3.9249901336,
				"y": -0.5267821874,
				"z": -1.937362595,
				"element": "F" 
			},
			{
				"x": 2.8713279981,
				"y": -0.6719214701,
				"z": -1.1163613772,
				"element": "C" 
			},
			{
				"x": 3.3025693948,
				"y": -0.7841724559,
				"z": 0.1591849354,
				"element": "F" 
			},
			{
				"x": 1.8423364939,
				"y": 0.8819343538,
				"z": -1.2603979614,
				"element": "S" 
			},
			{
				"x": 2.700697305,
				"y": 2.0056797535,
				"z": -0.872844473,
				"element": "O" 
			},
			{
				"x": 1.193775057,
				"y": 0.7991634021,
				"z": -2.5763445331,
				"element": "O" 
			},
			{
				"x": 0.5991687466,
				"y": 0.6387887849,
				"z": 0.0021334974,
				"element": "C" 
			},
			{
				"x": 0.8920548587,
				"y": 0.9789612653,
				"z": 1.3273706904,
				"element": "C" 
			},
			{
				"x": -0.0779397434,
				"y": 0.7905909622,
				"z": 2.3071019715,
				"element": "C" 
			},
			{
				"x": -1.3149691933,
				"y": 0.2698470422,
				"z": 1.9319107924,
				"element": "C" 
			},
			{
				"x": -2.2509959552,
				"y": 0.0892191146,
				"z": 2.8771456467,
				"element": "F" 
			},
			{
				"x": -1.6206404405,
				"y": -0.0646112997,
				"z": 0.6152342399,
				"element": "C" 
			},
			{
				"x": -0.6474184673,
				"y": 0.1225164085,
				"z": -0.3635737674,
				"element": "C" 
			},
			{
				"x": 2.2724422588,
				"y": -1.5440597814,
				"z": -1.4010943731,
				"element": "H" 
			},
			{
				"x": 1.8597457165,
				"y": 1.398437125,
				"z": 1.5784199386,
				"element": "H" 
			},
			{
				"x": 0.1037839626,
				"y": 1.0438306418,
				"z": 3.3455250677,
				"element": "H" 
			},
			{
				"x": -2.6034242904,
				"y": -0.4546205987,
				"z": 0.3753877226,
				"element": "H" 
			},
			{
				"x": -0.8511038354,
				"y": -0.1065010606,
				"z": -1.4039354223,
				"element": "H" 
			}
		],
		 "valence_orbital": [ 
			{
				"type": "occ",
				"energy": -0.33305,
				"method": "rhf"
			},
			{
				"type": "occ",
				"energy": -0.31775,
				"method": "rhf"
			},
			{
				"type": "occ",
				"energy": -0.29868,
				"method": "rhf"
			},
			{
				"type": "occ",
				"energy": -0.29349,
				"method": "rhf"
			},
			{
				"type": "occ",
				"energy": -0.28235,
				"method": "rhf"
			},
			{
				"type": "unocc",
				"energy": -0.05541,
				"method": "rhf"
			},
			{
				"type": "unocc",
				"energy": -0.04286,
				"method": "rhf"
			},
			{
				"type": "unocc",
				"energy": 0.0394,
				"method": "rhf"
			},
			{
				"type": "unocc",
				"energy": 0.05207,
				"method": "rhf"
			},
			{
				"type": "unocc",
				"energy": 0.06073,
				"method": "rhf"
			}
		],
		"cosmo_sigma_profile": { 
			"-0.025": 0.0,
			"-0.024": 0.0,
			"-0.023": 0.0,
			"-0.022": 0.0,
			"-0.021": 0.0,
			"-0.02": 0.0,
			"-0.019": 0.0,
			"-0.018": 0.0,
			"-0.017": 0.0,
			"-0.016": 0.0,
			"-0.015": 0.0,
			"-0.014": 0.0,
			"-0.013": 0.169404407516,
			"-0.012": 3.77949846277,
			"-0.011": 2.82086780149,
			"-0.01": 1.5265244078,
			"-0.009": 3.49452121335,
			"-0.008": 6.79485524092,
			"-0.007": 9.31858678885,
			"-0.006": 8.55987392458,
			"-0.005": 6.47844058766,
			"-0.004": 7.9690676897,
			"-0.003": 7.56434765296,
			"-0.002": 11.3041981819,
			"-0.001": 16.5947735672,
			"0.0": 19.8127699151,
			"0.001": 21.8825139304,
			"0.002": 24.228639201,
			"0.003": 16.3775105984,
			"0.004": 6.15045895252,
			"0.005": 1.91638697779,
			"0.006": 3.48401667451,
			"0.007": 3.20091585496,
			"0.008": 3.70285825008,
			"0.009": 5.0805411642,
			"0.01": 9.87253910144,
			"0.011": 4.48877987093,
			"0.012": 0.0148306050994,
			"0.013": 0.0,
			"0.014": 0.0,
			"0.015": 0.0,
			"0.016": 0.0,
			"0.017": 0.0,
			"0.018": 0.0,
			"0.019": 0.0,
			"0.02": 0.0,
			"0.021": 0.0,
			"0.022": 0.0,
			"0.023": 0.0,
			"0.024": 0.0,
			"0.025": 0.0
		}
	}
}
