{
	 "smiles": "NS(=O)(=O)CC1=CN=C(Cl)C=C1", 
	 "Tm": 416.15, 
	 "num_atms": 19, 
	 "gaussian": { 
		 "optdone": 1, 
		 "sigma_profile": "yes", 
		 "theory": "DFT", 
		 "functional": "B3LYP", 
		 "basiset": "6-31G**", 
		 "properties": { 
			 "R2extent": 4743.1729, 
			 "electric_dipole_moment_norm": 4.40785234213, 
			 "electric_quadrupole_moment_norm": 16.3235878645, 
			 "total_energy": -1351.12102423, 
			 "HOMO_LUMO_gap": 0.21611, 
			 "cosmo_polarized_energy": -19.46, 
			 "cosmo_cavitation_energy": 26.84, 
			 "cosmo_dispersion_energy": -20.12, 
			 "cosmo_repulsion_energy": 1.58, 
			 "cosmo_total_nonelectrostatic_energy": 8.29, 
			 "SMD_solvation_energy": 2.35 
		},
		"coords": [
			{
				"x": -1.0839890557,
				"y": -1.5749330561,
				"z": -0.5365689536,
				"element": "N" 
			},
			{
				"x": -0.0048958458,
				"y": -1.6735226428,
				"z": 0.7685189117,
				"element": "S" 
			},
			{
				"x": -0.7607885511,
				"y": -2.0311938428,
				"z": 1.9715933584,
				"element": "O" 
			},
			{
				"x": 1.1523948424,
				"y": -2.4497086977,
				"z": 0.3157553868,
				"element": "O" 
			},
			{
				"x": 0.5472561194,
				"y": 0.0596020614,
				"z": 0.9459168651,
				"element": "C" 
			},
			{
				"x": -0.5599073553,
				"y": 1.0191188181,
				"z": 1.2658483385,
				"element": "C" 
			},
			{
				"x": -0.9832036718,
				"y": 1.2164439621,
				"z": 2.5851038639,
				"element": "C" 
			},
			{
				"x": -1.9673805882,
				"y": 2.0539733861,
				"z": 2.9330715086,
				"element": "N" 
			},
			{
				"x": -2.5677381844,
				"y": 2.7219041936,
				"z": 1.9649576498,
				"element": "C" 
			},
			{
				"x": -3.8566753756,
				"y": 3.8218254429,
				"z": 2.4412672929,
				"element": "Cl" 
			},
			{
				"x": -2.2480833595,
				"y": 2.6142424438,
				"z": 0.6082216525,
				"element": "C" 
			},
			{
				"x": -1.2239207679,
				"y": 1.7397327707,
				"z": 0.2640185622,
				"element": "C" 
			},
			{
				"x": -0.7893232265,
				"y": -2.2350925693,
				"z": -1.2519176368,
				"element": "H" 
			},
			{
				"x": -2.0281208773,
				"y": -1.7768968537,
				"z": -0.2173649636,
				"element": "H" 
			},
			{
				"x": 1.0570332894,
				"y": 0.2993917737,
				"z": 0.0104758238,
				"element": "H" 
			},
			{
				"x": 1.2923970879,
				"y": 0.0053400701,
				"z": 1.7449029168,
				"element": "H" 
			},
			{
				"x": -0.5102382218,
				"y": 0.6729110166,
				"z": 3.4000224101,
				"element": "H" 
			},
			{
				"x": -2.7807634913,
				"y": 3.1935269756,
				"z": -0.1362107856,
				"element": "H" 
			},
			{
				"x": -0.9410527668,
				"y": 1.6143347478,
				"z": -0.7769122015,
				"element": "H" 
			}
		],
		 "valence_orbital": [ 
			{
				"type": "occ",
				"energy": -0.3156,
				"method": "rhf"
			},
			{
				"type": "occ",
				"energy": -0.31235,
				"method": "rhf"
			},
			{
				"type": "occ",
				"energy": -0.30031,
				"method": "rhf"
			},
			{
				"type": "occ",
				"energy": -0.28275,
				"method": "rhf"
			},
			{
				"type": "occ",
				"energy": -0.26454,
				"method": "rhf"
			},
			{
				"type": "unocc",
				"energy": -0.04843,
				"method": "rhf"
			},
			{
				"type": "unocc",
				"energy": -0.04214,
				"method": "rhf"
			},
			{
				"type": "unocc",
				"energy": 0.02686,
				"method": "rhf"
			},
			{
				"type": "unocc",
				"energy": 0.04368,
				"method": "rhf"
			},
			{
				"type": "unocc",
				"energy": 0.07298,
				"method": "rhf"
			}
		],
		"cosmo_sigma_profile": { 
			"-0.025": 0.0,
			"-0.024": 0.0,
			"-0.023": 0.0,
			"-0.022": 0.0,
			"-0.021": 0.0,
			"-0.02": 0.0,
			"-0.019": 0.0,
			"-0.018": 0.0,
			"-0.017": 0.0,
			"-0.016": 0.0,
			"-0.015": 1.20296787689,
			"-0.014": 2.16458472602,
			"-0.013": 2.87945267328,
			"-0.012": 2.77593307765,
			"-0.011": 1.95284244344,
			"-0.01": 3.07746620555,
			"-0.009": 7.74933781907,
			"-0.008": 11.1326073618,
			"-0.007": 11.1824593718,
			"-0.006": 9.32091171079,
			"-0.005": 7.68483905883,
			"-0.004": 7.49011357688,
			"-0.003": 7.84975662147,
			"-0.002": 8.63750151176,
			"-0.001": 14.6757413214,
			"0.0": 16.3172938134,
			"0.001": 12.7234428015,
			"0.002": 9.53746460725,
			"0.003": 11.1712195912,
			"0.004": 13.0045326791,
			"0.005": 8.33308808272,
			"0.006": 5.34117805346,
			"0.007": 5.56798351145,
			"0.008": 4.59182922853,
			"0.009": 4.52176058732,
			"0.01": 8.03691011719,
			"0.011": 11.773050878,
			"0.012": 4.07445301426,
			"0.013": 0.933397347642,
			"0.014": 0.659164190109,
			"0.015": 0.0185096811675,
			"0.016": 0.0,
			"0.017": 0.0,
			"0.018": 0.0,
			"0.019": 0.0,
			"0.02": 0.0,
			"0.021": 0.0,
			"0.022": 0.0,
			"0.023": 0.0,
			"0.024": 0.0,
			"0.025": 0.0
		}
	}
}
