{
	 "smiles": "OC(=O)C1=CC2=C(C=CN2)C=C1", 
	 "Tm": 524.15, 
	 "num_atms": 19, 
	 "gaussian": { 
		 "optdone": 1, 
		 "sigma_profile": "yes", 
		 "theory": "DFT", 
		 "functional": "B3LYP", 
		 "basiset": "6-31G**", 
		 "properties": { 
			 "R2extent": 3340.6287, 
			 "electric_dipole_moment_norm": 5.37221280573, 
			 "electric_quadrupole_moment_norm": 29.9417761137, 
			 "total_energy": -552.388427715, 
			 "HOMO_LUMO_gap": 0.17672, 
			 "cosmo_polarized_energy": -17.67, 
			 "cosmo_cavitation_energy": 23.49, 
			 "cosmo_dispersion_energy": -17.78, 
			 "cosmo_repulsion_energy": 1.39, 
			 "cosmo_total_nonelectrostatic_energy": 7.11, 
			 "SMD_solvation_energy": 5.13 
		},
		"coords": [
			{
				"x": 1.2887469374,
				"y": 2.3637270379,
				"z": 1.5876572863,
				"element": "O" 
			},
			{
				"x": 1.9059264358,
				"y": 2.1952020535,
				"z": 0.3849091232,
				"element": "C" 
			},
			{
				"x": 2.9087003862,
				"y": 2.8255251313,
				"z": 0.1346332383,
				"element": "O" 
			},
			{
				"x": 1.2785957671,
				"y": 1.2256836232,
				"z": -0.5651130032,
				"element": "C" 
			},
			{
				"x": 1.6589769375,
				"y": 1.3237397039,
				"z": -1.904811656,
				"element": "C" 
			},
			{
				"x": 1.0827023195,
				"y": 0.4381807478,
				"z": -2.8112400495,
				"element": "C" 
			},
			{
				"x": 0.1434846772,
				"y": -0.5606544976,
				"z": -2.4174152658,
				"element": "C" 
			},
			{
				"x": -0.2258267118,
				"y": -1.277314339,
				"z": -3.6025733664,
				"element": "C" 
			},
			{
				"x": 0.4704777961,
				"y": -0.7161386511,
				"z": -4.6431239652,
				"element": "C" 
			},
			{
				"x": 1.2581046304,
				"y": 0.3155871009,
				"z": -4.1747151768,
				"element": "N" 
			},
			{
				"x": -0.2061018055,
				"y": -0.6555633423,
				"z": -1.0584092192,
				"element": "C" 
			},
			{
				"x": 0.357344638,
				"y": 0.2298556652,
				"z": -0.1524777584,
				"element": "C" 
			},
			{
				"x": 0.4250362549,
				"y": 1.9288883435,
				"z": 1.5779302246,
				"element": "H" 
			},
			{
				"x": 2.3816030538,
				"y": 2.0791106034,
				"z": -2.195031686,
				"element": "H" 
			},
			{
				"x": -0.9187451359,
				"y": -2.1029881629,
				"z": -3.6754886465,
				"element": "H" 
			},
			{
				"x": 0.4701897149,
				"y": -0.9706032626,
				"z": -5.6934976346,
				"element": "H" 
			},
			{
				"x": 1.8709527386,
				"y": 0.8837066593,
				"z": -4.7367135191,
				"element": "H" 
			},
			{
				"x": -0.8997091195,
				"y": -1.4195950253,
				"z": -0.7200757127,
				"element": "H" 
			},
			{
				"x": 0.1153404855,
				"y": 0.114550611,
				"z": 0.9012567868,
				"element": "H" 
			}
		],
		 "valence_orbital": [ 
			{
				"type": "occ",
				"energy": -0.30641,
				"method": "rhf"
			},
			{
				"type": "occ",
				"energy": -0.28964,
				"method": "rhf"
			},
			{
				"type": "occ",
				"energy": -0.26323,
				"method": "rhf"
			},
			{
				"type": "occ",
				"energy": -0.23967,
				"method": "rhf"
			},
			{
				"type": "occ",
				"energy": -0.21928,
				"method": "rhf"
			},
			{
				"type": "unocc",
				"energy": -0.04256,
				"method": "rhf"
			},
			{
				"type": "unocc",
				"energy": -0.00693,
				"method": "rhf"
			},
			{
				"type": "unocc",
				"energy": 0.04457,
				"method": "rhf"
			},
			{
				"type": "unocc",
				"energy": 0.0676,
				"method": "rhf"
			},
			{
				"type": "unocc",
				"energy": 0.07108,
				"method": "rhf"
			}
		],
		"cosmo_sigma_profile": { 
			"-0.025": 0.0,
			"-0.024": 0.0,
			"-0.023": 0.0,
			"-0.022": 0.0,
			"-0.021": 0.0,
			"-0.02": 0.0,
			"-0.019": 0.0,
			"-0.018": 0.413559288767,
			"-0.017": 0.900610763522,
			"-0.016": 1.74505654578,
			"-0.015": 2.62622406361,
			"-0.014": 2.49695176564,
			"-0.013": 2.04192331431,
			"-0.012": 2.34021113328,
			"-0.011": 2.67033420064,
			"-0.01": 2.28196790073,
			"-0.009": 3.33368582809,
			"-0.008": 5.21541348945,
			"-0.007": 5.58368536767,
			"-0.006": 7.63848108769,
			"-0.005": 8.25512175557,
			"-0.004": 9.81041447178,
			"-0.003": 10.3444273544,
			"-0.002": 7.62296824828,
			"-0.001": 7.55899162759,
			"0.0": 9.45238888225,
			"0.001": 9.41397717432,
			"0.002": 9.75858964692,
			"0.003": 13.5907610212,
			"0.004": 18.3137908181,
			"0.005": 13.8874189532,
			"0.006": 4.80333125498,
			"0.007": 2.35791171213,
			"0.008": 2.98764598847,
			"0.009": 2.86166894657,
			"0.01": 4.03476945927,
			"0.011": 4.62921758783,
			"0.012": 6.12985930992,
			"0.013": 2.99581699809,
			"0.014": 0.614898717911,
			"0.015": 0.0,
			"0.016": 0.0,
			"0.017": 0.0,
			"0.018": 0.0,
			"0.019": 0.0,
			"0.02": 0.0,
			"0.021": 0.0,
			"0.022": 0.0,
			"0.023": 0.0,
			"0.024": 0.0,
			"0.025": 0.0
		}
	}
}
