{
	 "smiles": "COC(=O)C1=C(N)OC2=C(C1C1=CC=CC=C1)C(=O)NC(C)=C2", 
	 "Tm": 504.15, 
	 "num_atms": 39, 
	 "gaussian": { 
		 "optdone": 1, 
		 "sigma_profile": "yes", 
		 "theory": "DFT", 
		 "functional": "B3LYP", 
		 "basiset": "6-31G**", 
		 "properties": { 
			 "R2extent": 7050.4649, 
			 "electric_dipole_moment_norm": 5.01547167373, 
			 "electric_quadrupole_moment_norm": 22.925266687, 
			 "total_energy": -1067.88229986, 
			 "HOMO_LUMO_gap": 0.16945, 
			 "cosmo_polarized_energy": -21.35, 
			 "cosmo_cavitation_energy": 42.46, 
			 "cosmo_dispersion_energy": -29.6, 
			 "cosmo_repulsion_energy": 2.29, 
			 "cosmo_total_nonelectrostatic_energy": 15.14, 
			 "SMD_solvation_energy": 9.28 
		},
		"coords": [
			{
				"x": 2.1574503747,
				"y": 0.5123669336,
				"z": -3.9179026749,
				"element": "C" 
			},
			{
				"x": 1.3411503806,
				"y": 0.5067493484,
				"z": -2.7408248348,
				"element": "O" 
			},
			{
				"x": 0.2786264996,
				"y": -0.3334039269,
				"z": -2.7699627937,
				"element": "C" 
			},
			{
				"x": 0.0360632343,
				"y": -1.0275426742,
				"z": -3.7620936584,
				"element": "O" 
			},
			{
				"x": -0.4948378711,
				"y": -0.2886057117,
				"z": -1.540157871,
				"element": "C" 
			},
			{
				"x": -1.6284292617,
				"y": -1.0577632096,
				"z": -1.4608313647,
				"element": "C" 
			},
			{
				"x": -2.0552538035,
				"y": -1.9624208305,
				"z": -2.3715577757,
				"element": "N" 
			},
			{
				"x": -2.4800316156,
				"y": -1.0136981931,
				"z": -0.3883508656,
				"element": "O" 
			},
			{
				"x": -2.3369802229,
				"y": 0.0095879818,
				"z": 0.5231511192,
				"element": "C" 
			},
			{
				"x": -1.2240744898,
				"y": 0.8021187826,
				"z": 0.5515919209,
				"element": "C" 
			},
			{
				"x": -0.0419917613,
				"y": 0.555171501,
				"z": -0.3614016264,
				"element": "C" 
			},
			{
				"x": 1.1324290718,
				"y": -0.0598433108,
				"z": 0.4205288046,
				"element": "C" 
			},
			{
				"x": 2.1391091186,
				"y": 0.7667064308,
				"z": 0.9355093653,
				"element": "C" 
			},
			{
				"x": 3.1992098483,
				"y": 0.226515661,
				"z": 1.6648832286,
				"element": "C" 
			},
			{
				"x": 3.2680334308,
				"y": -1.1490989776,
				"z": 1.8930206096,
				"element": "C" 
			},
			{
				"x": 2.2664623496,
				"y": -1.9800642266,
				"z": 1.3877414884,
				"element": "C" 
			},
			{
				"x": 1.2076910116,
				"y": -1.4379212633,
				"z": 0.6576926452,
				"element": "C" 
			},
			{
				"x": -1.1802927908,
				"y": 1.9138542992,
				"z": 1.4849433145,
				"element": "C" 
			},
			{
				"x": -0.281971265,
				"y": 2.749001431,
				"z": 1.5779476243,
				"element": "O" 
			},
			{
				"x": -2.3011832456,
				"y": 2.0025591551,
				"z": 2.3355555523,
				"element": "N" 
			},
			{
				"x": -3.3957192754,
				"y": 1.1790594335,
				"z": 2.324195268,
				"element": "C" 
			},
			{
				"x": -4.4747081954,
				"y": 1.4640706852,
				"z": 3.3281615693,
				"element": "C" 
			},
			{
				"x": -3.4411607277,
				"y": 0.1666744644,
				"z": 1.4091979253,
				"element": "C" 
			},
			{
				"x": 2.966622813,
				"y": 1.2125066768,
				"z": -3.7089082149,
				"element": "H" 
			},
			{
				"x": 1.5834455669,
				"y": 0.8403924041,
				"z": -4.7888028704,
				"element": "H" 
			},
			{
				"x": 2.5568448554,
				"y": -0.4852261272,
				"z": -4.1179443396,
				"element": "H" 
			},
			{
				"x": -1.5304155517,
				"y": -1.9512857649,
				"z": -3.2442973592,
				"element": "H" 
			},
			{
				"x": -3.0332350584,
				"y": -2.2077235814,
				"z": -2.3600740639,
				"element": "H" 
			},
			{
				"x": 0.2993644293,
				"y": 1.5280190962,
				"z": -0.727503222,
				"element": "H" 
			},
			{
				"x": 2.0732023568,
				"y": 1.8381976237,
				"z": 0.7781618283,
				"element": "H" 
			},
			{
				"x": 3.9731677625,
				"y": 0.8824801474,
				"z": 2.0544316707,
				"element": "H" 
			},
			{
				"x": 4.09496034,
				"y": -1.5702129458,
				"z": 2.4582677586,
				"element": "H" 
			},
			{
				"x": 2.3104190152,
				"y": -3.0526306391,
				"z": 1.5576337338,
				"element": "H" 
			},
			{
				"x": 0.4410543753,
				"y": -2.0957124604,
				"z": 0.2577993881,
				"element": "H" 
			},
			{
				"x": -2.2502542246,
				"y": 2.7719808704,
				"z": 2.9923330556,
				"element": "H" 
			},
			{
				"x": -4.0887633623,
				"y": 1.3897608587,
				"z": 4.3516615913,
				"element": "H" 
			},
			{
				"x": -4.8770233035,
				"y": 2.4757965252,
				"z": 3.1992233854,
				"element": "H" 
			},
			{
				"x": -5.2964043513,
				"y": 0.7539790306,
				"z": 3.2215044941,
				"element": "H" 
			},
			{
				"x": -4.288176457,
				"y": -0.5033954978,
				"z": 1.3461761936,
				"element": "H" 
			}
		],
		 "valence_orbital": [ 
			{
				"type": "occ",
				"energy": -0.25142,
				"method": "rhf"
			},
			{
				"type": "occ",
				"energy": -0.23378,
				"method": "rhf"
			},
			{
				"type": "occ",
				"energy": -0.22756,
				"method": "rhf"
			},
			{
				"type": "occ",
				"energy": -0.21209,
				"method": "rhf"
			},
			{
				"type": "occ",
				"energy": -0.20823,
				"method": "rhf"
			},
			{
				"type": "unocc",
				"energy": -0.03878,
				"method": "rhf"
			},
			{
				"type": "unocc",
				"energy": -0.00138,
				"method": "rhf"
			},
			{
				"type": "unocc",
				"energy": 0.01416,
				"method": "rhf"
			},
			{
				"type": "unocc",
				"energy": 0.01742,
				"method": "rhf"
			},
			{
				"type": "unocc",
				"energy": 0.02021,
				"method": "rhf"
			}
		],
		"cosmo_sigma_profile": { 
			"-0.025": 0.0,
			"-0.024": 0.0,
			"-0.023": 0.0,
			"-0.022": 0.0,
			"-0.021": 0.0,
			"-0.02": 0.0,
			"-0.019": 0.0,
			"-0.018": 0.0,
			"-0.017": 0.0,
			"-0.016": 0.00637646049983,
			"-0.015": 1.54523987633,
			"-0.014": 1.76642425475,
			"-0.013": 2.14572595139,
			"-0.012": 2.05534997335,
			"-0.011": 2.65532418969,
			"-0.01": 2.14999803445,
			"-0.009": 3.12622497611,
			"-0.008": 2.64931988587,
			"-0.007": 7.17091231691,
			"-0.006": 14.7082421168,
			"-0.005": 21.3921439983,
			"-0.004": 23.7626804196,
			"-0.003": 30.7091366212,
			"-0.002": 26.6620921507,
			"-0.001": 24.2245968712,
			"0.0": 25.7900643448,
			"0.001": 26.2233864947,
			"0.002": 21.4651057673,
			"0.003": 17.3531441046,
			"0.004": 14.5225369429,
			"0.005": 13.4079188589,
			"0.006": 15.0786869651,
			"0.007": 9.61669665335,
			"0.008": 5.01019343923,
			"0.009": 3.51146474588,
			"0.01": 3.26514177427,
			"0.011": 3.31627799392,
			"0.012": 4.04648012068,
			"0.013": 3.21142916754,
			"0.014": 3.84767851736,
			"0.015": 1.4540512993,
			"0.016": 0.0,
			"0.017": 0.0,
			"0.018": 0.0,
			"0.019": 0.0,
			"0.02": 0.0,
			"0.021": 0.0,
			"0.022": 0.0,
			"0.023": 0.0,
			"0.024": 0.0,
			"0.025": 0.0
		}
	}
}
