{
	 "smiles": "CC(C)C1=NN(C=C1C=O)C1=CC=CC=C1", 
	 "Tm": 333.15, 
	 "num_atms": 30, 
	 "gaussian": { 
		 "optdone": 1, 
		 "sigma_profile": "yes", 
		 "theory": "DFT", 
		 "functional": "B3LYP", 
		 "basiset": "6-31G**", 
		 "properties": { 
			 "R2extent": 4492.7791, 
			 "electric_dipole_moment_norm": 2.93793007745, 
			 "electric_quadrupole_moment_norm": 19.6641293344, 
			 "total_energy": -688.533883205, 
			 "HOMO_LUMO_gap": 0.18115, 
			 "cosmo_polarized_energy": -10.85, 
			 "cosmo_cavitation_energy": 34.12, 
			 "cosmo_dispersion_energy": -23.8, 
			 "cosmo_repulsion_energy": 1.85, 
			 "cosmo_total_nonelectrostatic_energy": 12.18, 
			 "SMD_solvation_energy": 6.52 
		},
		"coords": [
			{
				"x": 0.0083253771,
				"y": 1.242503312,
				"z": -3.2194336999,
				"element": "C" 
			},
			{
				"x": -0.988323852,
				"y": 0.2850057672,
				"z": -2.5491219332,
				"element": "C" 
			},
			{
				"x": -2.4071367489,
				"y": 0.8922846801,
				"z": -2.5150868275,
				"element": "C" 
			},
			{
				"x": -0.5503575807,
				"y": -0.1102806274,
				"z": -1.1579772673,
				"element": "C" 
			},
			{
				"x": 0.1721096488,
				"y": 0.7121871503,
				"z": -0.4088488316,
				"element": "N" 
			},
			{
				"x": 0.3419816402,
				"y": 0.069096486,
				"z": 0.7881548572,
				"element": "N" 
			},
			{
				"x": -0.2556354591,
				"y": -1.1439699653,
				"z": 0.7987837205,
				"element": "C" 
			},
			{
				"x": -0.8566662449,
				"y": -1.3118069436,
				"z": -0.441285768,
				"element": "C" 
			},
			{
				"x": -1.6020699079,
				"y": -2.4907929725,
				"z": -0.8677531113,
				"element": "C" 
			},
			{
				"x": -1.8081778389,
				"y": -3.4659838185,
				"z": -0.1620230561,
				"element": "O" 
			},
			{
				"x": 1.0971275365,
				"y": 0.6874926859,
				"z": 1.8227355617,
				"element": "C" 
			},
			{
				"x": 2.007597501,
				"y": 1.6977653898,
				"z": 1.4956290328,
				"element": "C" 
			},
			{
				"x": 2.7560654404,
				"y": 2.296767087,
				"z": 2.506725371,
				"element": "C" 
			},
			{
				"x": 2.6086300078,
				"y": 1.8933537725,
				"z": 3.8356343643,
				"element": "C" 
			},
			{
				"x": 1.6932656146,
				"y": 0.8883130819,
				"z": 4.1522136287,
				"element": "C" 
			},
			{
				"x": 0.9288652134,
				"y": 0.2876395959,
				"z": 3.1528851987,
				"element": "C" 
			},
			{
				"x": 1.0064677829,
				"y": 0.7990680759,
				"z": -3.2809806604,
				"element": "H" 
			},
			{
				"x": 0.0924852324,
				"y": 2.1740266142,
				"z": -2.6531768289,
				"element": "H" 
			},
			{
				"x": -0.3240713715,
				"y": 1.4837767552,
				"z": -4.234099785,
				"element": "H" 
			},
			{
				"x": -1.0347287299,
				"y": -0.6342950198,
				"z": -3.1480405932,
				"element": "H" 
			},
			{
				"x": -3.1301389894,
				"y": 0.2032694713,
				"z": -2.067322033,
				"element": "H" 
			},
			{
				"x": -2.4131309236,
				"y": 1.8156679651,
				"z": -1.9267211314,
				"element": "H" 
			},
			{
				"x": -2.7466897325,
				"y": 1.1298119917,
				"z": -3.5287303011,
				"element": "H" 
			},
			{
				"x": -0.2037504613,
				"y": -1.8213441581,
				"z": 1.6364846871,
				"element": "H" 
			},
			{
				"x": -1.9870649278,
				"y": -2.4569031043,
				"z": -1.9098703605,
				"element": "H" 
			},
			{
				"x": 2.1110546928,
				"y": 1.9970997366,
				"z": 0.4602308943,
				"element": "H" 
			},
			{
				"x": 3.4629122759,
				"y": 3.0804281591,
				"z": 2.2507820881,
				"element": "H" 
			},
			{
				"x": 3.1972962261,
				"y": 2.3617908511,
				"z": 4.618321164,
				"element": "H" 
			},
			{
				"x": 1.5599212142,
				"y": 0.5755091778,
				"z": 5.1834066627,
				"element": "H" 
			},
			{
				"x": 0.1957373642,
				"y": -0.4683811974,
				"z": 3.4126849572,
				"element": "H" 
			}
		],
		 "valence_orbital": [ 
			{
				"type": "occ",
				"energy": -0.29203,
				"method": "rhf"
			},
			{
				"type": "occ",
				"energy": -0.2663,
				"method": "rhf"
			},
			{
				"type": "occ",
				"energy": -0.25985,
				"method": "rhf"
			},
			{
				"type": "occ",
				"energy": -0.24625,
				"method": "rhf"
			},
			{
				"type": "occ",
				"energy": -0.23378,
				"method": "rhf"
			},
			{
				"type": "unocc",
				"energy": -0.05263,
				"method": "rhf"
			},
			{
				"type": "unocc",
				"energy": -0.01889,
				"method": "rhf"
			},
			{
				"type": "unocc",
				"energy": -0.01442,
				"method": "rhf"
			},
			{
				"type": "unocc",
				"energy": 0.02861,
				"method": "rhf"
			},
			{
				"type": "unocc",
				"energy": 0.07876,
				"method": "rhf"
			}
		],
		"cosmo_sigma_profile": { 
			"-0.025": 0.0,
			"-0.024": 0.0,
			"-0.023": 0.0,
			"-0.022": 0.0,
			"-0.021": 0.0,
			"-0.02": 0.0,
			"-0.019": 0.0,
			"-0.018": 0.0,
			"-0.017": 0.0,
			"-0.016": 0.0,
			"-0.015": 0.0,
			"-0.014": 0.0,
			"-0.013": 0.0,
			"-0.012": 0.0,
			"-0.011": 0.563688674077,
			"-0.01": 2.09552538917,
			"-0.009": 1.84981885928,
			"-0.008": 2.45620784832,
			"-0.007": 3.89026688713,
			"-0.006": 12.9175559439,
			"-0.005": 16.2896986744,
			"-0.004": 18.7689275298,
			"-0.003": 22.5334380805,
			"-0.002": 25.1104006091,
			"-0.001": 25.6853922822,
			"0.0": 26.1336579616,
			"0.001": 30.1154502296,
			"0.002": 17.705103446,
			"0.003": 14.2048459522,
			"0.004": 16.500600589,
			"0.005": 7.91885884471,
			"0.006": 3.39614083502,
			"0.007": 2.92327807233,
			"0.008": 3.57692409633,
			"0.009": 2.97362281099,
			"0.01": 2.41063012739,
			"0.011": 3.83411535692,
			"0.012": 5.01621248562,
			"0.013": 1.93144880255,
			"0.014": 0.543396699824,
			"0.015": 0.0,
			"0.016": 0.0,
			"0.017": 0.0,
			"0.018": 0.0,
			"0.019": 0.0,
			"0.02": 0.0,
			"0.021": 0.0,
			"0.022": 0.0,
			"0.023": 0.0,
			"0.024": 0.0,
			"0.025": 0.0
		}
	}
}
