{
	 "smiles": "COC1=CC=C(C[C@H](N)C(O)=O)C=C1OC", 
	 "Tm": 528.65, 
	 "num_atms": 31, 
	 "gaussian": { 
		 "optdone": 1, 
		 "sigma_profile": "yes", 
		 "theory": "DFT", 
		 "functional": "B3LYP", 
		 "basiset": "6-31G**", 
		 "properties": { 
			 "R2extent": 4769.8668, 
			 "electric_dipole_moment_norm": 1.61855469169, 
			 "electric_quadrupole_moment_norm": 9.27751054217, 
			 "total_energy": -783.838682198, 
			 "HOMO_LUMO_gap": 0.22128, 
			 "cosmo_polarized_energy": -15.05, 
			 "cosmo_cavitation_energy": 34.94, 
			 "cosmo_dispersion_energy": -23.7, 
			 "cosmo_repulsion_energy": 1.9, 
			 "cosmo_total_nonelectrostatic_energy": 13.14, 
			 "SMD_solvation_energy": 7.1 
		},
		"coords": [
			{
				"x": -1.0054273568,
				"y": 3.3643467913,
				"z": -2.86036798,
				"element": "C" 
			},
			{
				"x": -1.3340243397,
				"y": 3.1848575234,
				"z": -1.4776707454,
				"element": "O" 
			},
			{
				"x": -1.0700069303,
				"y": 1.9265448623,
				"z": -0.9809938504,
				"element": "C" 
			},
			{
				"x": -2.1344437071,
				"y": 1.1012977499,
				"z": -0.6195311556,
				"element": "C" 
			},
			{
				"x": -1.9017473791,
				"y": -0.1703260145,
				"z": -0.0938955882,
				"element": "C" 
			},
			{
				"x": -0.5954631129,
				"y": -0.6476100967,
				"z": 0.0723996352,
				"element": "C" 
			},
			{
				"x": -0.3315180686,
				"y": -2.0198507046,
				"z": 0.6531486634,
				"element": "C" 
			},
			{
				"x": -0.0757647354,
				"y": -2.0283839119,
				"z": 2.1798473619,
				"element": "C" 
			},
			{
				"x": 0.2378445958,
				"y": -3.3948786922,
				"z": 2.6016536262,
				"element": "N" 
			},
			{
				"x": -1.30592688,
				"y": -1.479564534,
				"z": 2.9041237485,
				"element": "C" 
			},
			{
				"x": -1.087547212,
				"y": -0.2844945685,
				"z": 3.4933954843,
				"element": "O" 
			},
			{
				"x": -2.3720117681,
				"y": -2.0583168275,
				"z": 2.9641977245,
				"element": "O" 
			},
			{
				"x": 0.4696811597,
				"y": 0.1915268861,
				"z": -0.2811718849,
				"element": "C" 
			},
			{
				"x": 0.2486274462,
				"y": 1.4687057668,
				"z": -0.7946620521,
				"element": "C" 
			},
			{
				"x": 1.3351428807,
				"y": 2.2372515103,
				"z": -1.1534048936,
				"element": "O" 
			},
			{
				"x": 1.5444295078,
				"y": 3.3967867981,
				"z": -0.3387758103,
				"element": "C" 
			},
			{
				"x": -1.5950598556,
				"y": 2.6862796792,
				"z": -3.4902652025,
				"element": "H" 
			},
			{
				"x": 0.0603642176,
				"y": 3.1950976341,
				"z": -3.0426438117,
				"element": "H" 
			},
			{
				"x": -1.2626512216,
				"y": 4.3971915342,
				"z": -3.1046242922,
				"element": "H" 
			},
			{
				"x": -3.1438252395,
				"y": 1.473486836,
				"z": -0.7654526565,
				"element": "H" 
			},
			{
				"x": -2.7427931245,
				"y": -0.8013837412,
				"z": 0.1798672577,
				"element": "H" 
			},
			{
				"x": 0.5471428583,
				"y": -2.4783625674,
				"z": 0.1894940845,
				"element": "H" 
			},
			{
				"x": -1.1849002967,
				"y": -2.6791359121,
				"z": 0.4566899974,
				"element": "H" 
			},
			{
				"x": 0.7790424752,
				"y": -1.384604583,
				"z": 2.4064806713,
				"element": "H" 
			},
			{
				"x": -0.6149649722,
				"y": -3.950573439,
				"z": 2.551659265,
				"element": "H" 
			},
			{
				"x": 0.5241987695,
				"y": -3.4017632137,
				"z": 3.5781912864,
				"element": "H" 
			},
			{
				"x": -1.9299539646,
				"y": -0.0215041927,
				"z": 3.903646299,
				"element": "H" 
			},
			{
				"x": 1.4994212885,
				"y": -0.1364351712,
				"z": -0.1668306085,
				"element": "H" 
			},
			{
				"x": 0.6842520208,
				"y": 4.0722861378,
				"z": -0.3769386694,
				"element": "H" 
			},
			{
				"x": 2.4266619188,
				"y": 3.8984733359,
				"z": -0.7419058697,
				"element": "H" 
			},
			{
				"x": 1.7362210257,
				"y": 3.1092551247,
				"z": 0.7027399658,
				"element": "H" 
			}
		],
		 "valence_orbital": [ 
			{
				"type": "occ",
				"energy": -0.28373,
				"method": "rhf"
			},
			{
				"type": "occ",
				"energy": -0.26235,
				"method": "rhf"
			},
			{
				"type": "occ",
				"energy": -0.24794,
				"method": "rhf"
			},
			{
				"type": "occ",
				"energy": -0.23975,
				"method": "rhf"
			},
			{
				"type": "occ",
				"energy": -0.22431,
				"method": "rhf"
			},
			{
				"type": "unocc",
				"energy": -0.00303,
				"method": "rhf"
			},
			{
				"type": "unocc",
				"energy": 0.00146,
				"method": "rhf"
			},
			{
				"type": "unocc",
				"energy": 0.00857,
				"method": "rhf"
			},
			{
				"type": "unocc",
				"energy": 0.07667,
				"method": "rhf"
			},
			{
				"type": "unocc",
				"energy": 0.0863,
				"method": "rhf"
			}
		],
		"cosmo_sigma_profile": { 
			"-0.025": 0.0,
			"-0.024": 0.0,
			"-0.023": 0.0,
			"-0.022": 0.0,
			"-0.021": 0.0,
			"-0.02": 0.0,
			"-0.019": 0.0,
			"-0.018": 0.867677358045,
			"-0.017": 0.829069662741,
			"-0.016": 1.04354564047,
			"-0.015": 0.847179460674,
			"-0.014": 0.366121190201,
			"-0.013": 0.389790088473,
			"-0.012": 0.706997369468,
			"-0.011": 2.2652683266,
			"-0.01": 2.55618612643,
			"-0.009": 3.12336592629,
			"-0.008": 3.4410756177,
			"-0.007": 4.22278362397,
			"-0.006": 8.25487389052,
			"-0.005": 17.8373214706,
			"-0.004": 24.359144297,
			"-0.003": 28.2260994741,
			"-0.002": 25.6641936186,
			"-0.001": 20.4358532024,
			"0.0": 17.8942608516,
			"0.001": 14.060309814,
			"0.002": 13.8579872992,
			"0.003": 14.6673279976,
			"0.004": 12.7369755691,
			"0.005": 12.3777158784,
			"0.006": 6.83227122482,
			"0.007": 5.41017313841,
			"0.008": 5.93041080819,
			"0.009": 4.62741786734,
			"0.01": 5.35492767223,
			"0.011": 5.05624375778,
			"0.012": 6.20618740867,
			"0.013": 1.19953442842,
			"0.014": 0.240097659704,
			"0.015": 0.743317171672,
			"0.016": 0.66717285127,
			"0.017": 0.520522191198,
			"0.018": 0.32340258638,
			"0.019": 0.0532485548394,
			"0.02": 0.0,
			"0.021": 0.0,
			"0.022": 0.0,
			"0.023": 0.0,
			"0.024": 0.0,
			"0.025": 0.0
		}
	}
}
