{
	 "smiles": "NC1=CC=C(C=C1)C1=CSC(=N1)N1CCOCC1", 
	 "Tm": 448.15, 
	 "num_atms": 33, 
	 "gaussian": { 
		 "optdone": 1, 
		 "sigma_profile": "yes", 
		 "theory": "DFT", 
		 "functional": "B3LYP", 
		 "basiset": "6-31G**", 
		 "properties": { 
			 "R2extent": 8008.5187, 
			 "electric_dipole_moment_norm": 1.63409910654, 
			 "electric_quadrupole_moment_norm": 15.9590620392, 
			 "total_energy": -1142.0695745, 
			 "HOMO_LUMO_gap": 0.16497, 
			 "cosmo_polarized_energy": -15.63, 
			 "cosmo_cavitation_energy": 36.89, 
			 "cosmo_dispersion_energy": -27.94, 
			 "cosmo_repulsion_energy": 2.11, 
			 "cosmo_total_nonelectrostatic_energy": 11.05, 
			 "SMD_solvation_energy": 4.21 
		},
		"coords": [
			{
				"x": -1.019007488,
				"y": 5.2314585829,
				"z": 0.8092056522,
				"element": "N" 
			},
			{
				"x": -1.1210466337,
				"y": 3.8943816299,
				"z": 0.4202803531,
				"element": "C" 
			},
			{
				"x": -0.1142193061,
				"y": 2.9683478349,
				"z": 0.7402409594,
				"element": "C" 
			},
			{
				"x": -0.1936086714,
				"y": 1.6515796077,
				"z": 0.3023142022,
				"element": "C" 
			},
			{
				"x": -1.2770970143,
				"y": 1.199888595,
				"z": -0.4690988528,
				"element": "C" 
			},
			{
				"x": -2.2767857335,
				"y": 2.133635909,
				"z": -0.7908479598,
				"element": "C" 
			},
			{
				"x": -2.2062890552,
				"y": 3.4510460345,
				"z": -0.3570672659,
				"element": "C" 
			},
			{
				"x": -1.3414352445,
				"y": -0.2052623331,
				"z": -0.9088658837,
				"element": "C" 
			},
			{
				"x": -2.4019740499,
				"y": -0.8140846178,
				"z": -1.5253642697,
				"element": "C" 
			},
			{
				"x": -2.0415954002,
				"y": -2.4885457899,
				"z": -1.8689137075,
				"element": "S" 
			},
			{
				"x": -0.4488680969,
				"y": -2.2352686113,
				"z": -1.1205156969,
				"element": "C" 
			},
			{
				"x": -0.2431980006,
				"y": -1.0234346719,
				"z": -0.6828704744,
				"element": "N" 
			},
			{
				"x": 0.4555774424,
				"y": -3.2520488147,
				"z": -1.0389408174,
				"element": "N" 
			},
			{
				"x": 0.1761708427,
				"y": -4.5766842872,
				"z": -1.5827135043,
				"element": "C" 
			},
			{
				"x": 1.2558116024,
				"y": -5.546580561,
				"z": -1.1079839744,
				"element": "C" 
			},
			{
				"x": 2.5623107469,
				"y": -5.15150375,
				"z": -1.4976347927,
				"element": "O" 
			},
			{
				"x": 2.8179425027,
				"y": -3.7457210993,
				"z": -1.4181191855,
				"element": "C" 
			},
			{
				"x": 1.8114206051,
				"y": -2.9917410341,
				"z": -0.5534895109,
				"element": "C" 
			},
			{
				"x": -0.4364318974,
				"y": 5.39881796,
				"z": 1.6180950431,
				"element": "H" 
			},
			{
				"x": -1.8964924892,
				"y": 5.729653792,
				"z": 0.8685391336,
				"element": "H" 
			},
			{
				"x": 0.7378046345,
				"y": 3.2891700664,
				"z": 1.3354022846,
				"element": "H" 
			},
			{
				"x": 0.5886632425,
				"y": 0.9460534494,
				"z": 0.5585919555,
				"element": "H" 
			},
			{
				"x": -3.1251859312,
				"y": 1.8325815929,
				"z": -1.3985604343,
				"element": "H" 
			},
			{
				"x": -2.9920499455,
				"y": 4.1521638658,
				"z": -0.6284792368,
				"element": "H" 
			},
			{
				"x": -3.3689919135,
				"y": -0.4092581676,
				"z": -1.7811603642,
				"element": "H" 
			},
			{
				"x": -0.8037815012,
				"y": -4.9284959138,
				"z": -1.2319489386,
				"element": "H" 
			},
			{
				"x": 0.1470512219,
				"y": -4.5570033684,
				"z": -2.6833167987,
				"element": "H" 
			},
			{
				"x": 1.1887030178,
				"y": -5.6549304525,
				"z": -0.0139882524,
				"element": "H" 
			},
			{
				"x": 1.0842453498,
				"y": -6.5325101676,
				"z": -1.5496810536,
				"element": "H" 
			},
			{
				"x": 2.8094386712,
				"y": -3.3222316521,
				"z": -2.4329656808,
				"element": "H" 
			},
			{
				"x": 3.8267203615,
				"y": -3.6174334665,
				"z": -1.0085863206,
				"element": "H" 
			},
			{
				"x": 1.9935015959,
				"y": -1.9168489084,
				"z": -0.6113835564,
				"element": "H" 
			},
			{
				"x": 1.910396535,
				"y": -3.2852912532,
				"z": 0.5010269487,
				"element": "H" 
			}
		],
		 "valence_orbital": [ 
			{
				"type": "occ",
				"energy": -0.26171,
				"method": "rhf"
			},
			{
				"type": "occ",
				"energy": -0.25519,
				"method": "rhf"
			},
			{
				"type": "occ",
				"energy": -0.24011,
				"method": "rhf"
			},
			{
				"type": "occ",
				"energy": -0.20784,
				"method": "rhf"
			},
			{
				"type": "occ",
				"energy": -0.17578,
				"method": "rhf"
			},
			{
				"type": "unocc",
				"energy": -0.01081,
				"method": "rhf"
			},
			{
				"type": "unocc",
				"energy": 0.01037,
				"method": "rhf"
			},
			{
				"type": "unocc",
				"energy": 0.02421,
				"method": "rhf"
			},
			{
				"type": "unocc",
				"energy": 0.03083,
				"method": "rhf"
			},
			{
				"type": "unocc",
				"energy": 0.07787,
				"method": "rhf"
			}
		],
		"cosmo_sigma_profile": { 
			"-0.025": 0.0,
			"-0.024": 0.0,
			"-0.023": 0.0,
			"-0.022": 0.0,
			"-0.021": 0.0,
			"-0.02": 0.0,
			"-0.019": 0.0,
			"-0.018": 0.0,
			"-0.017": 0.0,
			"-0.016": 0.0,
			"-0.015": 0.0,
			"-0.014": 0.0,
			"-0.013": 0.405116812753,
			"-0.012": 2.50511735299,
			"-0.011": 2.65906767358,
			"-0.01": 2.54189564222,
			"-0.009": 3.52995365095,
			"-0.008": 4.20970797762,
			"-0.007": 5.39034382211,
			"-0.006": 13.461575017,
			"-0.005": 27.6908898769,
			"-0.004": 30.4361135711,
			"-0.003": 24.9553245957,
			"-0.002": 17.881725588,
			"-0.001": 13.8024110964,
			"0.0": 13.047004908,
			"0.001": 11.9827396108,
			"0.002": 14.0554470045,
			"0.003": 16.8419936389,
			"0.004": 17.3643974502,
			"0.005": 22.5618183236,
			"0.006": 20.2698457801,
			"0.007": 9.3685257397,
			"0.008": 4.95974372309,
			"0.009": 4.1349048098,
			"0.01": 2.27695067597,
			"0.011": 1.64342658678,
			"0.012": 2.84576476784,
			"0.013": 2.31048206742,
			"0.014": 0.861373560279,
			"0.015": 0.12543429186,
			"0.016": 0.0,
			"0.017": 0.0,
			"0.018": 0.0,
			"0.019": 0.0,
			"0.02": 0.0,
			"0.021": 0.0,
			"0.022": 0.0,
			"0.023": 0.0,
			"0.024": 0.0,
			"0.025": 0.0
		}
	}
}
