{
	 "smiles": "NCCOS(O)(=O)=O", 
	 "Tm": 551.15, 
	 "num_atms": 15, 
	 "gaussian": { 
		 "optdone": 1, 
		 "sigma_profile": "yes", 
		 "theory": "DFT", 
		 "functional": "B3LYP", 
		 "basiset": "6-31G**", 
		 "properties": { 
			 "R2extent": 1254.7462, 
			 "electric_dipole_moment_norm": 8.06155348429, 
			 "electric_quadrupole_moment_norm": 6.40473631698, 
			 "total_energy": -834.191361783, 
			 "HOMO_LUMO_gap": 0.31806, 
			 "cosmo_polarized_energy": -19.21, 
			 "cosmo_cavitation_energy": 18.94, 
			 "cosmo_dispersion_energy": -15.67, 
			 "cosmo_repulsion_energy": 1.26, 
			 "cosmo_total_nonelectrostatic_energy": 4.54, 
			 "SMD_solvation_energy": 1.92 
		},
		"coords": [
			{
				"x": -1.2413818926,
				"y": 1.0812191538,
				"z": 0.26476516,
				"element": "N" 
			},
			{
				"x": -1.1610874397,
				"y": 0.0876159351,
				"z": 1.3573309381,
				"element": "C" 
			},
			{
				"x": 0.2576274173,
				"y": -0.4842486628,
				"z": 1.4857096172,
				"element": "C" 
			},
			{
				"x": 0.9487868531,
				"y": -0.65467388,
				"z": 0.2317812705,
				"element": "O" 
			},
			{
				"x": 0.2568451744,
				"y": -1.6171054433,
				"z": -0.9220379851,
				"element": "S" 
			},
			{
				"x": -0.5594012822,
				"y": -0.5192263731,
				"z": -1.7293350926,
				"element": "O" 
			},
			{
				"x": -0.6458740575,
				"y": -2.5408427003,
				"z": -0.2421422691,
				"element": "O" 
			},
			{
				"x": 1.3386207417,
				"y": -2.095563922,
				"z": -1.7519034813,
				"element": "O" 
			},
			{
				"x": -0.5796481487,
				"y": 1.8421915398,
				"z": 0.4066000847,
				"element": "H" 
			},
			{
				"x": -2.1715099279,
				"y": 1.4908517881,
				"z": 0.2260516962,
				"element": "H" 
			},
			{
				"x": -1.8592943536,
				"y": -0.7164571029,
				"z": 1.1139579744,
				"element": "H" 
			},
			{
				"x": -1.4481624346,
				"y": 0.4992833409,
				"z": 2.3351219824,
				"element": "H" 
			},
			{
				"x": 0.2181430019,
				"y": -1.4322915254,
				"z": 2.0298074803,
				"element": "H" 
			},
			{
				"x": 0.9085280437,
				"y": 0.207263748,
				"z": 2.0285853784,
				"element": "H" 
			},
			{
				"x": -0.8857916954,
				"y": 0.193584104,
				"z": -1.0558927543,
				"element": "H" 
			}
		],
		 "valence_orbital": [ 
			{
				"type": "occ",
				"energy": -0.33938,
				"method": "rhf"
			},
			{
				"type": "occ",
				"energy": -0.32501,
				"method": "rhf"
			},
			{
				"type": "occ",
				"energy": -0.30945,
				"method": "rhf"
			},
			{
				"type": "occ",
				"energy": -0.30146,
				"method": "rhf"
			},
			{
				"type": "occ",
				"energy": -0.28728,
				"method": "rhf"
			},
			{
				"type": "unocc",
				"energy": 0.03078,
				"method": "rhf"
			},
			{
				"type": "unocc",
				"energy": 0.0535,
				"method": "rhf"
			},
			{
				"type": "unocc",
				"energy": 0.07828,
				"method": "rhf"
			},
			{
				"type": "unocc",
				"energy": 0.09065,
				"method": "rhf"
			},
			{
				"type": "unocc",
				"energy": 0.09568,
				"method": "rhf"
			}
		],
		"cosmo_sigma_profile": { 
			"-0.025": 0.0,
			"-0.024": 0.0,
			"-0.023": 0.0,
			"-0.022": 0.0,
			"-0.021": 0.0,
			"-0.02": 0.0,
			"-0.019": 0.0,
			"-0.018": 0.0,
			"-0.017": 0.0,
			"-0.016": 0.0,
			"-0.015": 0.0,
			"-0.014": 0.0861219810053,
			"-0.013": 2.1476537075,
			"-0.012": 3.9120026475,
			"-0.011": 3.54474231587,
			"-0.01": 3.81462409769,
			"-0.009": 2.77175256968,
			"-0.008": 4.57115564353,
			"-0.007": 7.94187921835,
			"-0.006": 13.4418754157,
			"-0.005": 10.3690706172,
			"-0.004": 8.90319668698,
			"-0.003": 7.50638669586,
			"-0.002": 4.09894098019,
			"-0.001": 3.94749122126,
			"0.0": 3.57614936663,
			"0.001": 2.94499355412,
			"0.002": 4.59226672807,
			"0.003": 4.03071413581,
			"0.004": 3.91837221637,
			"0.005": 5.22483063932,
			"0.006": 6.22960312158,
			"0.007": 5.76461399576,
			"0.008": 7.88702376884,
			"0.009": 13.5903758625,
			"0.01": 12.8781942426,
			"0.011": 1.25685715312,
			"0.012": 0.0,
			"0.013": 0.0,
			"0.014": 0.0,
			"0.015": 0.0,
			"0.016": 0.0,
			"0.017": 0.0,
			"0.018": 0.0,
			"0.019": 0.0,
			"0.02": 0.0,
			"0.021": 0.0,
			"0.022": 0.0,
			"0.023": 0.0,
			"0.024": 0.0,
			"0.025": 0.0
		}
	}
}
