{
	 "smiles": "CC(C)(C)C(=O)C=CC1=CC=CC=C1", 
	 "Tm": 316.15, 
	 "num_atms": 30, 
	 "gaussian": { 
		 "optdone": 1, 
		 "sigma_profile": "yes", 
		 "theory": "DFT", 
		 "functional": "B3LYP", 
		 "basiset": "6-31G**", 
		 "properties": { 
			 "R2extent": 4604.9714, 
			 "electric_dipole_moment_norm": 3.05300222568, 
			 "electric_quadrupole_moment_norm": 12.8469149834, 
			 "total_energy": -580.250917423, 
			 "HOMO_LUMO_gap": 0.16328, 
			 "cosmo_polarized_energy": -9.06, 
			 "cosmo_cavitation_energy": 32.83, 
			 "cosmo_dispersion_energy": -23.05, 
			 "cosmo_repulsion_energy": 1.81, 
			 "cosmo_total_nonelectrostatic_energy": 11.59, 
			 "SMD_solvation_energy": 6.31 
		},
		"coords": [
			{
				"x": -3.2259628548,
				"y": 2.8464191071,
				"z": 1.4386934295,
				"element": "C" 
			},
			{
				"x": -2.3076858407,
				"y": 1.6279850019,
				"z": 1.2592084057,
				"element": "C" 
			},
			{
				"x": -3.1189565776,
				"y": 0.4488362413,
				"z": 0.6740235388,
				"element": "C" 
			},
			{
				"x": -1.708323898,
				"y": 1.2243661073,
				"z": 2.6262371557,
				"element": "C" 
			},
			{
				"x": -1.1628571199,
				"y": 1.9912165093,
				"z": 0.2873532965,
				"element": "C" 
			},
			{
				"x": -1.0885469062,
				"y": 3.1077283037,
				"z": -0.2111442546,
				"element": "O" 
			},
			{
				"x": -0.1528922832,
				"y": 0.9430144745,
				"z": -0.0247543825,
				"element": "C" 
			},
			{
				"x": 0.8659272325,
				"y": 1.2092660627,
				"z": -0.8662564393,
				"element": "C" 
			},
			{
				"x": 1.9449734058,
				"y": 0.3178201059,
				"z": -1.2904375658,
				"element": "C" 
			},
			{
				"x": 2.9146188932,
				"y": 0.8128602546,
				"z": -2.182476259,
				"element": "C" 
			},
			{
				"x": 3.9659615182,
				"y": 0.0106202764,
				"z": -2.6215393367,
				"element": "C" 
			},
			{
				"x": 4.0696877675,
				"y": -1.3078513618,
				"z": -2.176215493,
				"element": "C" 
			},
			{
				"x": 3.1146550003,
				"y": -1.8169057761,
				"z": -1.2893978581,
				"element": "C" 
			},
			{
				"x": 2.0656545534,
				"y": -1.0158484592,
				"z": -0.8514460416,
				"element": "C" 
			},
			{
				"x": -4.0431171095,
				"y": 2.602901816,
				"z": 2.1261827771,
				"element": "H" 
			},
			{
				"x": -2.6743340984,
				"y": 3.699632872,
				"z": 1.8417860171,
				"element": "H" 
			},
			{
				"x": -3.6558416251,
				"y": 3.1599481395,
				"z": 0.4838971893,
				"element": "H" 
			},
			{
				"x": -2.5131029924,
				"y": -0.4537822151,
				"z": 0.547912006,
				"element": "H" 
			},
			{
				"x": -3.9471508829,
				"y": 0.1987997735,
				"z": 1.3463541007,
				"element": "H" 
			},
			{
				"x": -3.5451075257,
				"y": 0.7079088289,
				"z": -0.3008291723,
				"element": "H" 
			},
			{
				"x": -2.5146267311,
				"y": 0.9864319416,
				"z": 3.3288870031,
				"element": "H" 
			},
			{
				"x": -1.0621926863,
				"y": 0.3439001809,
				"z": 2.5559253339,
				"element": "H" 
			},
			{
				"x": -1.1193884912,
				"y": 2.0413607889,
				"z": 3.0560612371,
				"element": "H" 
			},
			{
				"x": -0.2605182532,
				"y": -0.0312973621,
				"z": 0.4410599641,
				"element": "H" 
			},
			{
				"x": 0.8860457024,
				"y": 2.2164751247,
				"z": -1.2811457939,
				"element": "H" 
			},
			{
				"x": 2.8348016674,
				"y": 1.8395475669,
				"z": -2.5299373769,
				"element": "H" 
			},
			{
				"x": 4.7027648025,
				"y": 0.413966352,
				"z": -3.3100228705,
				"element": "H" 
			},
			{
				"x": 4.8874250333,
				"y": -1.9367929978,
				"z": -2.51583487,
				"element": "H" 
			},
			{
				"x": 3.1911052228,
				"y": -2.8426102775,
				"z": -0.9401252225,
				"element": "H" 
			},
			{
				"x": 1.3332850769,
				"y": -1.4268173799,
				"z": -0.163518518,
				"element": "H" 
			}
		],
		 "valence_orbital": [ 
			{
				"type": "occ",
				"energy": -0.32467,
				"method": "rhf"
			},
			{
				"type": "occ",
				"energy": -0.30196,
				"method": "rhf"
			},
			{
				"type": "occ",
				"energy": -0.26008,
				"method": "rhf"
			},
			{
				"type": "occ",
				"energy": -0.23596,
				"method": "rhf"
			},
			{
				"type": "occ",
				"energy": -0.23198,
				"method": "rhf"
			},
			{
				"type": "unocc",
				"energy": -0.0687,
				"method": "rhf"
			},
			{
				"type": "unocc",
				"energy": -0.00902,
				"method": "rhf"
			},
			{
				"type": "unocc",
				"energy": 0.01235,
				"method": "rhf"
			},
			{
				"type": "unocc",
				"energy": 0.07685,
				"method": "rhf"
			},
			{
				"type": "unocc",
				"energy": 0.08105,
				"method": "rhf"
			}
		],
		"cosmo_sigma_profile": { 
			"-0.025": 0.0,
			"-0.024": 0.0,
			"-0.023": 0.0,
			"-0.022": 0.0,
			"-0.021": 0.0,
			"-0.02": 0.0,
			"-0.019": 0.0,
			"-0.018": 0.0,
			"-0.017": 0.0,
			"-0.016": 0.0,
			"-0.015": 0.0,
			"-0.014": 0.0,
			"-0.013": 0.0,
			"-0.012": 0.0,
			"-0.011": 0.0,
			"-0.01": 0.0,
			"-0.009": 0.0,
			"-0.008": 0.930785105064,
			"-0.007": 3.96183171359,
			"-0.006": 13.1965732478,
			"-0.005": 13.3547303406,
			"-0.004": 17.6299677665,
			"-0.003": 27.2295747568,
			"-0.002": 25.7269390193,
			"-0.001": 23.5044681003,
			"0.0": 27.7564351865,
			"0.001": 27.0684964293,
			"0.002": 18.4042319107,
			"0.003": 17.0570406659,
			"0.004": 14.8210592831,
			"0.005": 9.88668702614,
			"0.006": 2.28165723362,
			"0.007": 1.80833304476,
			"0.008": 1.27051797854,
			"0.009": 1.73799285691,
			"0.01": 1.99041515601,
			"0.011": 2.2421221211,
			"0.012": 3.2338880009,
			"0.013": 3.3259811825,
			"0.014": 0.344377104158,
			"0.015": 0.0,
			"0.016": 0.0,
			"0.017": 0.0,
			"0.018": 0.0,
			"0.019": 0.0,
			"0.02": 0.0,
			"0.021": 0.0,
			"0.022": 0.0,
			"0.023": 0.0,
			"0.024": 0.0,
			"0.025": 0.0
		}
	}
}
