{
	 "smiles": "CNC1=NN=C(S)S1", 
	 "Tm": 465.15, 
	 "num_atms": 13, 
	 "gaussian": { 
		 "optdone": 1, 
		 "sigma_profile": "yes", 
		 "theory": "DFT", 
		 "functional": "B3LYP", 
		 "basiset": "6-31G**", 
		 "properties": { 
			 "R2extent": 2487.1066, 
			 "electric_dipole_moment_norm": 4.78102011918, 
			 "electric_quadrupole_moment_norm": 14.8882924256, 
			 "total_energy": -1077.91627671, 
			 "HOMO_LUMO_gap": 0.19417, 
			 "cosmo_polarized_energy": -14.09, 
			 "cosmo_cavitation_energy": 20.69, 
			 "cosmo_dispersion_energy": -16.62, 
			 "cosmo_repulsion_energy": 1.3, 
			 "cosmo_total_nonelectrostatic_energy": 5.36, 
			 "SMD_solvation_energy": 0.54 
		},
		"coords": [
			{
				"x": 1.1905568548,
				"y": 0.8347769073,
				"z": 1.0466471342,
				"element": "C" 
			},
			{
				"x": 0.2553848048,
				"y": 1.7498115359,
				"z": 0.4174250293,
				"element": "N" 
			},
			{
				"x": -0.7581920259,
				"y": 1.344357204,
				"z": -0.3918662683,
				"element": "C" 
			},
			{
				"x": -1.3998177591,
				"y": 2.1686697162,
				"z": -1.1942268974,
				"element": "N" 
			},
			{
				"x": -2.4280725051,
				"y": 1.5672988604,
				"z": -1.8514868502,
				"element": "N" 
			},
			{
				"x": -2.5718897735,
				"y": 0.3065490515,
				"z": -1.581516322,
				"element": "C" 
			},
			{
				"x": -3.7490183733,
				"y": -0.7430954614,
				"z": -2.384366801,
				"element": "S" 
			},
			{
				"x": -1.3660777654,
				"y": -0.3065439171,
				"z": -0.4234861313,
				"element": "S" 
			},
			{
				"x": 1.7791423657,
				"y": 0.256961015,
				"z": 0.3201983324,
				"element": "H" 
			},
			{
				"x": 1.8749410707,
				"y": 1.4105759078,
				"z": 1.6721722231,
				"element": "H" 
			},
			{
				"x": 0.656157022,
				"y": 0.1333470725,
				"z": 1.6962148864,
				"element": "H" 
			},
			{
				"x": 0.5639300063,
				"y": 2.6929425017,
				"z": 0.2225080244,
				"element": "H" 
			},
			{
				"x": -4.5290439219,
				"y": -0.9759503939,
				"z": -1.3058163594,
				"element": "H" 
			}
		],
		 "valence_orbital": [ 
			{
				"type": "occ",
				"energy": -0.30438,
				"method": "rhf"
			},
			{
				"type": "occ",
				"energy": -0.29417,
				"method": "rhf"
			},
			{
				"type": "occ",
				"energy": -0.26938,
				"method": "rhf"
			},
			{
				"type": "occ",
				"energy": -0.25689,
				"method": "rhf"
			},
			{
				"type": "occ",
				"energy": -0.22597,
				"method": "rhf"
			},
			{
				"type": "unocc",
				"energy": -0.0318,
				"method": "rhf"
			},
			{
				"type": "unocc",
				"energy": -0.00583,
				"method": "rhf"
			},
			{
				"type": "unocc",
				"energy": 0.02456,
				"method": "rhf"
			},
			{
				"type": "unocc",
				"energy": 0.04135,
				"method": "rhf"
			},
			{
				"type": "unocc",
				"energy": 0.05554,
				"method": "rhf"
			}
		],
		"cosmo_sigma_profile": { 
			"-0.025": 0.0,
			"-0.024": 0.0,
			"-0.023": 0.0,
			"-0.022": 0.0,
			"-0.021": 0.0,
			"-0.02": 0.0,
			"-0.019": 0.0,
			"-0.018": 0.0,
			"-0.017": 0.0,
			"-0.016": 0.0,
			"-0.015": 0.621340438842,
			"-0.014": 1.12289837113,
			"-0.013": 1.19880927884,
			"-0.012": 1.62535817385,
			"-0.011": 3.36470449383,
			"-0.01": 3.14427567498,
			"-0.009": 2.77986962855,
			"-0.008": 2.79082418087,
			"-0.007": 3.57254670438,
			"-0.006": 7.07586139287,
			"-0.005": 10.7101560215,
			"-0.004": 11.3818832565,
			"-0.003": 13.8353621579,
			"-0.002": 10.7154890996,
			"-0.001": 12.3083323447,
			"0.0": 12.6494297476,
			"0.001": 10.4597565775,
			"0.002": 9.62555072164,
			"0.003": 8.78177950325,
			"0.004": 5.4132893923,
			"0.005": 5.00127528779,
			"0.006": 5.03229292129,
			"0.007": 3.87400137923,
			"0.008": 3.54204746512,
			"0.009": 3.11214908897,
			"0.01": 2.53802110224,
			"0.011": 2.95474962591,
			"0.012": 3.90093857769,
			"0.013": 2.82059973753,
			"0.014": 2.29107947601,
			"0.015": 1.49994293987,
			"0.016": 0.0379575857586,
			"0.017": 0.0,
			"0.018": 0.0,
			"0.019": 0.0,
			"0.02": 0.0,
			"0.021": 0.0,
			"0.022": 0.0,
			"0.023": 0.0,
			"0.024": 0.0,
			"0.025": 0.0
		}
	}
}
