{
	 "smiles": "CC1(COC(=O)OC1)C(O)=O", 
	 "Tm": 433.15, 
	 "num_atms": 19, 
	 "gaussian": { 
		 "optdone": 1, 
		 "sigma_profile": "yes", 
		 "theory": "DFT", 
		 "functional": "B3LYP", 
		 "basiset": "6-31G**", 
		 "properties": { 
			 "R2extent": 1736.9859, 
			 "electric_dipole_moment_norm": 5.67367235043, 
			 "electric_quadrupole_moment_norm": 16.4585271562, 
			 "total_energy": -609.589591419, 
			 "HOMO_LUMO_gap": 0.26183, 
			 "cosmo_polarized_energy": -17.88, 
			 "cosmo_cavitation_energy": 22.62, 
			 "cosmo_dispersion_energy": -16.7, 
			 "cosmo_repulsion_energy": 1.35, 
			 "cosmo_total_nonelectrostatic_energy": 7.27, 
			 "SMD_solvation_energy": 6.84 
		},
		"coords": [
			{
				"x": 0.1292540515,
				"y": -0.9089588622,
				"z": -1.7476146986,
				"element": "C" 
			},
			{
				"x": 0.2764584984,
				"y": -0.1445441418,
				"z": -0.4135316846,
				"element": "C" 
			},
			{
				"x": -0.8162740311,
				"y": 0.9215799711,
				"z": -0.2535777505,
				"element": "C" 
			},
			{
				"x": -2.1117721176,
				"y": 0.3216623572,
				"z": -0.1026318985,
				"element": "O" 
			},
			{
				"x": -2.3021412793,
				"y": -0.8584067088,
				"z": 0.5422800177,
				"element": "C" 
			},
			{
				"x": -3.4100238149,
				"y": -1.2708153325,
				"z": 0.745833911,
				"element": "O" 
			},
			{
				"x": -1.2133896743,
				"y": -1.5830303905,
				"z": 0.893927625,
				"element": "O" 
			},
			{
				"x": 0.1266151531,
				"y": -1.0697630147,
				"z": 0.7955606431,
				"element": "C" 
			},
			{
				"x": 1.6507187535,
				"y": 0.5107254029,
				"z": -0.3554340423,
				"element": "C" 
			},
			{
				"x": 1.7718349425,
				"y": 1.5061197671,
				"z": -1.2632455346,
				"element": "O" 
			},
			{
				"x": 2.5464767955,
				"y": 0.1902035692,
				"z": 0.3936720853,
				"element": "O" 
			},
			{
				"x": 0.9046975512,
				"y": -1.6754907146,
				"z": -1.8383674707,
				"element": "H" 
			},
			{
				"x": -0.8427793399,
				"y": -1.4038697607,
				"z": -1.8010677784,
				"element": "H" 
			},
			{
				"x": 0.2165966091,
				"y": -0.2245383055,
				"z": -2.5946310282,
				"element": "H" 
			},
			{
				"x": -0.8889264789,
				"y": 1.5655877162,
				"z": -1.1313416139,
				"element": "H" 
			},
			{
				"x": -0.6167027116,
				"y": 1.5506885422,
				"z": 0.623351082,
				"element": "H" 
			},
			{
				"x": 0.3753037524,
				"y": -0.5391979469,
				"z": 1.7205660278,
				"element": "H" 
			},
			{
				"x": 0.7736740451,
				"y": -1.9451928202,
				"z": 0.7233580026,
				"element": "H" 
			},
			{
				"x": 2.6739792953,
				"y": 1.8581406726,
				"z": -1.1722058943,
				"element": "H" 
			}
		],
		 "valence_orbital": [ 
			{
				"type": "occ",
				"energy": -0.33163,
				"method": "rhf"
			},
			{
				"type": "occ",
				"energy": -0.32114,
				"method": "rhf"
			},
			{
				"type": "occ",
				"energy": -0.30323,
				"method": "rhf"
			},
			{
				"type": "occ",
				"energy": -0.29404,
				"method": "rhf"
			},
			{
				"type": "occ",
				"energy": -0.28493,
				"method": "rhf"
			},
			{
				"type": "unocc",
				"energy": -0.0231,
				"method": "rhf"
			},
			{
				"type": "unocc",
				"energy": 0.03045,
				"method": "rhf"
			},
			{
				"type": "unocc",
				"energy": 0.04916,
				"method": "rhf"
			},
			{
				"type": "unocc",
				"energy": 0.07127,
				"method": "rhf"
			},
			{
				"type": "unocc",
				"energy": 0.10134,
				"method": "rhf"
			}
		],
		"cosmo_sigma_profile": { 
			"-0.025": 0.0,
			"-0.024": 0.0,
			"-0.023": 0.0,
			"-0.022": 0.0,
			"-0.021": 0.0,
			"-0.02": 0.0,
			"-0.019": 0.534994898617,
			"-0.018": 0.904006550077,
			"-0.017": 1.33798755957,
			"-0.016": 0.298619957737,
			"-0.015": 0.726672405684,
			"-0.014": 1.20989031918,
			"-0.013": 0.298077792886,
			"-0.012": 0.498387741156,
			"-0.011": 1.81868576603,
			"-0.01": 2.38834594336,
			"-0.009": 2.75437466378,
			"-0.008": 4.80213216392,
			"-0.007": 10.6601831749,
			"-0.006": 11.604224911,
			"-0.005": 13.2256649883,
			"-0.004": 11.8577072227,
			"-0.003": 12.5410994631,
			"-0.002": 10.1554133063,
			"-0.001": 11.6931305624,
			"0.0": 6.8243874568,
			"0.001": 5.23440033525,
			"0.002": 5.23730799371,
			"0.003": 4.45692219294,
			"0.004": 4.26590094118,
			"0.005": 5.00265706648,
			"0.006": 5.01320909375,
			"0.007": 5.43017636278,
			"0.008": 4.44503856969,
			"0.009": 6.80843297697,
			"0.01": 7.48479079773,
			"0.011": 9.73848664698,
			"0.012": 6.94310620569,
			"0.013": 1.65178492025,
			"0.014": 0.0,
			"0.015": 0.0,
			"0.016": 0.0,
			"0.017": 0.0,
			"0.018": 0.0,
			"0.019": 0.0,
			"0.02": 0.0,
			"0.021": 0.0,
			"0.022": 0.0,
			"0.023": 0.0,
			"0.024": 0.0,
			"0.025": 0.0
		}
	}
}
