{
	 "smiles": "NC1=C(Cl)C=C(CC2=CC(Cl)=C(N)C=C2)C=C1", 
	 "Tm": 383.15, 
	 "num_atms": 29, 
	 "gaussian": { 
		 "optdone": 1, 
		 "sigma_profile": "yes", 
		 "theory": "DFT", 
		 "functional": "B3LYP", 
		 "basiset": "6-31G**", 
		 "properties": { 
			 "R2extent": 7758.3391, 
			 "electric_dipole_moment_norm": 2.51213757187, 
			 "electric_quadrupole_moment_norm": 16.4346797918, 
			 "total_energy": -1532.5222451, 
			 "HOMO_LUMO_gap": 0.18935, 
			 "cosmo_polarized_energy": -13.29, 
			 "cosmo_cavitation_energy": 36.47, 
			 "cosmo_dispersion_energy": -26.46, 
			 "cosmo_repulsion_energy": 2.08, 
			 "cosmo_total_nonelectrostatic_energy": 12.08, 
			 "SMD_solvation_energy": 5.1 
		},
		"coords": [
			{
				"x": -1.0097257791,
				"y": -4.5214033324,
				"z": 3.0579951169,
				"element": "N" 
			},
			{
				"x": -0.9624493021,
				"y": -3.2965187114,
				"z": 2.407743612,
				"element": "C" 
			},
			{
				"x": -2.1144350955,
				"y": -2.6673030033,
				"z": 1.9058619511,
				"element": "C" 
			},
			{
				"x": -3.6681515746,
				"y": -3.5006891807,
				"z": 2.0267441422,
				"element": "Cl" 
			},
			{
				"x": -2.0690541117,
				"y": -1.4105744584,
				"z": 1.3058567525,
				"element": "C" 
			},
			{
				"x": -0.8611111131,
				"y": -0.721497371,
				"z": 1.1768768881,
				"element": "C" 
			},
			{
				"x": -0.811884575,
				"y": 0.6600236341,
				"z": 0.5455136857,
				"element": "C" 
			},
			{
				"x": 0.1548642684,
				"y": 0.7883061674,
				"z": -0.6198014407,
				"element": "C" 
			},
			{
				"x": 1.1631386722,
				"y": 1.7547455573,
				"z": -0.61545102,
				"element": "C" 
			},
			{
				"x": 2.0346760426,
				"y": 1.8834238463,
				"z": -1.6949888791,
				"element": "C" 
			},
			{
				"x": 3.2849135298,
				"y": 3.1309697872,
				"z": -1.6397305967,
				"element": "Cl" 
			},
			{
				"x": 1.9467444904,
				"y": 1.0561543936,
				"z": -2.8275473137,
				"element": "C" 
			},
			{
				"x": 2.848301684,
				"y": 1.1400851932,
				"z": -3.8792224833,
				"element": "N" 
			},
			{
				"x": 0.9245534897,
				"y": 0.0862574053,
				"z": -2.8193757341,
				"element": "C" 
			},
			{
				"x": 0.0557988082,
				"y": -0.0443016501,
				"z": -1.7448565725,
				"element": "C" 
			},
			{
				"x": 0.2982512498,
				"y": -1.3419627702,
				"z": 1.666441318,
				"element": "C" 
			},
			{
				"x": 0.2500030798,
				"y": -2.5925046299,
				"z": 2.2665081871,
				"element": "C" 
			},
			{
				"x": -0.1460525701,
				"y": -5.044412637,
				"z": 3.0579740264,
				"element": "H" 
			},
			{
				"x": -1.8213036267,
				"y": -5.0897902938,
				"z": 2.8600815773,
				"element": "H" 
			},
			{
				"x": -2.9923314695,
				"y": -0.9732248798,
				"z": 0.9383829098,
				"element": "H" 
			},
			{
				"x": -1.8233108119,
				"y": 0.9287205245,
				"z": 0.2147557036,
				"element": "H" 
			},
			{
				"x": -0.54065344,
				"y": 1.4019405496,
				"z": 1.3074565349,
				"element": "H" 
			},
			{
				"x": 1.2762847027,
				"y": 2.4258157157,
				"z": 0.2304648202,
				"element": "H" 
			},
			{
				"x": 3.3408744633,
				"y": 2.0184236118,
				"z": -3.9622347611,
				"element": "H" 
			},
			{
				"x": 2.5143524591,
				"y": 0.7848970659,
				"z": -4.7634644937,
				"element": "H" 
			},
			{
				"x": 0.8297569219,
				"y": -0.5750543596,
				"z": -3.6772417187,
				"element": "H" 
			},
			{
				"x": -0.7125816308,
				"y": -0.8120116177,
				"z": -1.7751269944,
				"element": "H" 
			},
			{
				"x": 1.2560019732,
				"y": -0.8383733968,
				"z": 1.5680880993,
				"element": "H" 
			},
			{
				"x": 1.1618292648,
				"y": -3.04804116,
				"z": 2.6449966831,
				"element": "H" 
			}
		],
		 "valence_orbital": [ 
			{
				"type": "occ",
				"energy": -0.30153,
				"method": "rhf"
			},
			{
				"type": "occ",
				"energy": -0.24515,
				"method": "rhf"
			},
			{
				"type": "occ",
				"energy": -0.24398,
				"method": "rhf"
			},
			{
				"type": "occ",
				"energy": -0.20899,
				"method": "rhf"
			},
			{
				"type": "occ",
				"energy": -0.19913,
				"method": "rhf"
			},
			{
				"type": "unocc",
				"energy": -0.00978,
				"method": "rhf"
			},
			{
				"type": "unocc",
				"energy": -0.00313,
				"method": "rhf"
			},
			{
				"type": "unocc",
				"energy": 0.00573,
				"method": "rhf"
			},
			{
				"type": "unocc",
				"energy": 0.01377,
				"method": "rhf"
			},
			{
				"type": "unocc",
				"energy": 0.03338,
				"method": "rhf"
			}
		],
		"cosmo_sigma_profile": { 
			"-0.025": 0.0,
			"-0.024": 0.0,
			"-0.023": 0.0,
			"-0.022": 0.0,
			"-0.021": 0.0,
			"-0.02": 0.0,
			"-0.019": 0.0,
			"-0.018": 0.0,
			"-0.017": 0.0,
			"-0.016": 0.0,
			"-0.015": 0.0,
			"-0.014": 0.00598573672356,
			"-0.013": 1.84827724865,
			"-0.012": 2.79004595759,
			"-0.011": 4.79055594948,
			"-0.01": 5.12501281431,
			"-0.009": 5.8539942472,
			"-0.008": 4.56620291867,
			"-0.007": 7.01692061141,
			"-0.006": 10.5200694007,
			"-0.005": 13.2590260518,
			"-0.004": 17.1623598077,
			"-0.003": 16.8577974873,
			"-0.002": 17.0693628677,
			"-0.001": 18.0818671667,
			"0.0": 17.9988185896,
			"0.001": 20.3002218619,
			"0.002": 17.7852945682,
			"0.003": 28.2690610784,
			"0.004": 31.8900972568,
			"0.005": 33.933185161,
			"0.006": 8.96391003045,
			"0.007": 2.02588577083,
			"0.008": 1.39716131736,
			"0.009": 1.52466366692,
			"0.01": 1.32383615326,
			"0.011": 1.35938189055,
			"0.012": 1.31386130946,
			"0.013": 0.94251185642,
			"0.014": 0.480912554948,
			"0.015": 0.0,
			"0.016": 0.0,
			"0.017": 0.0,
			"0.018": 0.0,
			"0.019": 0.0,
			"0.02": 0.0,
			"0.021": 0.0,
			"0.022": 0.0,
			"0.023": 0.0,
			"0.024": 0.0,
			"0.025": 0.0
		}
	}
}
