{
	 "smiles": "CS(=O)(=O)CCC(CC1=CC(Br)=CC=C1)C(O)=O", 
	 "Tm": 335.15, 
	 "num_atms": 33, 
	 "gaussian": { 
		 "optdone": 1, 
		 "sigma_profile": "yes", 
		 "theory": "DFT", 
		 "functional": "B3LYP", 
		 "basiset": "6-31G**", 
		 "properties": { 
			 "R2extent": 8561.831, 
			 "electric_dipole_moment_norm": 4.48892433663, 
			 "electric_quadrupole_moment_norm": 28.9706561244, 
			 "total_energy": -3736.75728337, 
			 "HOMO_LUMO_gap": 0.2212, 
			 "cosmo_polarized_energy": -26.79, 
			 "cosmo_cavitation_energy": 39.06, 
			 "cosmo_dispersion_energy": -26.6, 
			 "cosmo_repulsion_energy": 1.99, 
			 "cosmo_total_nonelectrostatic_energy": 14.45, 
			 "SMD_solvation_energy": 5.59 
		},
		"coords": [
			{
				"x": -2.9109673331,
				"y": 3.8221810961,
				"z": -0.7044485435,
				"element": "C" 
			},
			{
				"x": -3.2355099052,
				"y": 2.0465198463,
				"z": -0.6385582726,
				"element": "S" 
			},
			{
				"x": -3.2723066549,
				"y": 1.6515525051,
				"z": 0.7848921884,
				"element": "O" 
			},
			{
				"x": -4.3867046092,
				"y": 1.7534681086,
				"z": -1.508446695,
				"element": "O" 
			},
			{
				"x": -1.7386027617,
				"y": 1.3121426335,
				"z": -1.3677609246,
				"element": "C" 
			},
			{
				"x": -1.7793339702,
				"y": -0.2153479783,
				"z": -1.17923946,
				"element": "C" 
			},
			{
				"x": -0.4228529409,
				"y": -0.9262671737,
				"z": -0.9998285748,
				"element": "C" 
			},
			{
				"x": 0.2483533074,
				"y": -0.7226453737,
				"z": 0.4001562614,
				"element": "C" 
			},
			{
				"x": 0.8816433397,
				"y": 0.6255810125,
				"z": 0.6949263097,
				"element": "C" 
			},
			{
				"x": 0.1936378553,
				"y": 1.5800818399,
				"z": 1.4598044326,
				"element": "C" 
			},
			{
				"x": 0.7889719081,
				"y": 2.8132572937,
				"z": 1.7202615785,
				"element": "C" 
			},
			{
				"x": -0.1794533963,
				"y": 4.1214552355,
				"z": 2.7277670113,
				"element": "Br" 
			},
			{
				"x": 2.06605143,
				"y": 3.1227010724,
				"z": 1.2566074922,
				"element": "C" 
			},
			{
				"x": 2.7515611272,
				"y": 2.1668468326,
				"z": 0.5063730687,
				"element": "C" 
			},
			{
				"x": 2.1679082779,
				"y": 0.9313386564,
				"z": 0.2272816515,
				"element": "C" 
			},
			{
				"x": 0.5418004671,
				"y": -0.6516038655,
				"z": -2.1544705082,
				"element": "C" 
			},
			{
				"x": 1.6499277581,
				"y": -1.4456520475,
				"z": -2.1951043971,
				"element": "O" 
			},
			{
				"x": 0.3873366727,
				"y": 0.1927987024,
				"z": -3.0010879512,
				"element": "O" 
			},
			{
				"x": -2.0667092553,
				"y": 4.0608591809,
				"z": -0.055523547,
				"element": "H" 
			},
			{
				"x": -3.81765501,
				"y": 4.3056107244,
				"z": -0.3358330952,
				"element": "H" 
			},
			{
				"x": -2.7225779802,
				"y": 4.1188046935,
				"z": -1.737703621,
				"element": "H" 
			},
			{
				"x": -0.8980515745,
				"y": 1.7744938625,
				"z": -0.8504592525,
				"element": "H" 
			},
			{
				"x": -1.7007491479,
				"y": 1.5953576768,
				"z": -2.4194696663,
				"element": "H" 
			},
			{
				"x": -2.2993332374,
				"y": -0.6567371728,
				"z": -2.033424753,
				"element": "H" 
			},
			{
				"x": -2.3767225807,
				"y": -0.449530403,
				"z": -0.2915189826,
				"element": "H" 
			},
			{
				"x": -0.648371234,
				"y": -2.0026310678,
				"z": -1.0460394819,
				"element": "H" 
			},
			{
				"x": -0.5187222047,
				"y": -0.9365278699,
				"z": 1.1510523495,
				"element": "H" 
			},
			{
				"x": 1.0151955304,
				"y": -1.4974275784,
				"z": 0.5311951055,
				"element": "H" 
			},
			{
				"x": -0.8098206112,
				"y": 1.3772426352,
				"z": 1.8206040321,
				"element": "H" 
			},
			{
				"x": 2.5114949535,
				"y": 4.0859784386,
				"z": 1.4766139964,
				"element": "H" 
			},
			{
				"x": 3.7483965084,
				"y": 2.3900761245,
				"z": 0.1381369819,
				"element": "H" 
			},
			{
				"x": 2.7151413671,
				"y": 0.2025705063,
				"z": -0.36319677,
				"element": "H" 
			},
			{
				"x": 1.6188239047,
				"y": -2.107748147,
				"z": -1.4899579633,
				"element": "H" 
			}
		],
		 "valence_orbital": [ 
			{
				"type": "occ",
				"energy": -0.28968,
				"method": "rhf"
			},
			{
				"type": "occ",
				"energy": -0.2873,
				"method": "rhf"
			},
			{
				"type": "occ",
				"energy": -0.27813,
				"method": "rhf"
			},
			{
				"type": "occ",
				"energy": -0.26706,
				"method": "rhf"
			},
			{
				"type": "occ",
				"energy": -0.25204,
				"method": "rhf"
			},
			{
				"type": "unocc",
				"energy": -0.03084,
				"method": "rhf"
			},
			{
				"type": "unocc",
				"energy": -0.02761,
				"method": "rhf"
			},
			{
				"type": "unocc",
				"energy": -0.00621,
				"method": "rhf"
			},
			{
				"type": "unocc",
				"energy": -0.00047,
				"method": "rhf"
			},
			{
				"type": "unocc",
				"energy": 0.02786,
				"method": "rhf"
			}
		],
		"cosmo_sigma_profile": { 
			"-0.025": 0.0,
			"-0.024": 0.0,
			"-0.023": 0.0,
			"-0.022": 0.0,
			"-0.021": 0.0,
			"-0.02": 0.0,
			"-0.019": 0.55521938214,
			"-0.018": 1.06709449277,
			"-0.017": 1.50881436716,
			"-0.016": 1.15738690485,
			"-0.015": 1.13545468831,
			"-0.014": 0.982607928054,
			"-0.013": 0.970332593873,
			"-0.012": 1.39128137431,
			"-0.011": 1.93982326429,
			"-0.01": 2.14623694273,
			"-0.009": 4.44412484462,
			"-0.008": 7.6939235928,
			"-0.007": 11.4941596143,
			"-0.006": 19.3365897766,
			"-0.005": 23.446088325,
			"-0.004": 22.6200816931,
			"-0.003": 22.6695608568,
			"-0.002": 17.8355776647,
			"-0.001": 14.5631849565,
			"0.0": 15.5057411219,
			"0.001": 16.3208686235,
			"0.002": 19.0243684842,
			"0.003": 20.4261016143,
			"0.004": 19.2715897564,
			"0.005": 9.53796014818,
			"0.006": 3.4964097528,
			"0.007": 4.35357945136,
			"0.008": 4.90962357751,
			"0.009": 5.93214240376,
			"0.01": 7.99895732216,
			"0.011": 10.8902251882,
			"0.012": 11.9017144082,
			"0.013": 5.4145042802,
			"0.014": 0.00861130437869,
			"0.015": 0.0,
			"0.016": 0.0,
			"0.017": 0.0,
			"0.018": 0.0,
			"0.019": 0.0,
			"0.02": 0.0,
			"0.021": 0.0,
			"0.022": 0.0,
			"0.023": 0.0,
			"0.024": 0.0,
			"0.025": 0.0
		}
	}
}
