{
	 "smiles": "N#CCCC1=CC=CC=C1", 
	 "Tm": 271.65, 
	 "num_atms": 19, 
	 "gaussian": { 
		 "optdone": 1, 
		 "sigma_profile": "yes", 
		 "theory": "DFT", 
		 "functional": "B3LYP", 
		 "basiset": "6-31G**", 
		 "properties": { 
			 "R2extent": 1926.1498, 
			 "electric_dipole_moment_norm": 3.68711210299, 
			 "electric_quadrupole_moment_norm": 15.7173300945, 
			 "total_energy": -403.121939786, 
			 "HOMO_LUMO_gap": 0.24029, 
			 "cosmo_polarized_energy": -10.57, 
			 "cosmo_cavitation_energy": 23.54, 
			 "cosmo_dispersion_energy": -16.34, 
			 "cosmo_repulsion_energy": 1.34, 
			 "cosmo_total_nonelectrostatic_energy": 8.54, 
			 "SMD_solvation_energy": 5.16 
		},
		"coords": [
			{
				"x": -3.206342872,
				"y": 0.2891881184,
				"z": -1.0816680815,
				"element": "N" 
			},
			{
				"x": -2.0955158228,
				"y": 0.6175509361,
				"z": -1.0058860616,
				"element": "C" 
			},
			{
				"x": -0.6877890434,
				"y": 1.0187391651,
				"z": -0.9352544444,
				"element": "C" 
			},
			{
				"x": 0.2965477274,
				"y": -0.1500231055,
				"z": -1.2111039035,
				"element": "C" 
			},
			{
				"x": 0.2774206637,
				"y": -1.2252772913,
				"z": -0.145927815,
				"element": "C" 
			},
			{
				"x": 1.1502893834,
				"y": -1.1554215665,
				"z": 0.9483370732,
				"element": "C" 
			},
			{
				"x": 1.1215041823,
				"y": -2.1267842187,
				"z": 1.9496000307,
				"element": "C" 
			},
			{
				"x": 0.2154535056,
				"y": -3.1858372081,
				"z": 1.8694701138,
				"element": "C" 
			},
			{
				"x": -0.6579024787,
				"y": -3.2667681295,
				"z": 0.7834500477,
				"element": "C" 
			},
			{
				"x": -0.6258943443,
				"y": -2.294478535,
				"z": -0.2170362234,
				"element": "C" 
			},
			{
				"x": -0.4969823233,
				"y": 1.4422137862,
				"z": 0.0572955611,
				"element": "H" 
			},
			{
				"x": -0.5276485101,
				"y": 1.820720022,
				"z": -1.6655135466,
				"element": "H" 
			},
			{
				"x": 0.0645174826,
				"y": -0.5782832335,
				"z": -2.1917767165,
				"element": "H" 
			},
			{
				"x": 1.2988768465,
				"y": 0.2857445296,
				"z": -1.2815300431,
				"element": "H" 
			},
			{
				"x": 1.8634021307,
				"y": -0.3363282991,
				"z": 1.0133105439,
				"element": "H" 
			},
			{
				"x": 1.8087621589,
				"y": -2.0589022203,
				"z": 2.7882011779,
				"element": "H" 
			},
			{
				"x": 0.1926523483,
				"y": -3.9446414434,
				"z": 2.6462743743,
				"element": "H" 
			},
			{
				"x": -1.3646220701,
				"y": -4.0885267286,
				"z": 0.7124822469,
				"element": "H" 
			},
			{
				"x": -1.3110289647,
				"y": -2.3628845779,
				"z": -1.0575243338,
				"element": "H" 
			}
		],
		 "valence_orbital": [ 
			{
				"type": "occ",
				"energy": -0.34218,
				"method": "rhf"
			},
			{
				"type": "occ",
				"energy": -0.3214,
				"method": "rhf"
			},
			{
				"type": "occ",
				"energy": -0.31922,
				"method": "rhf"
			},
			{
				"type": "occ",
				"energy": -0.25316,
				"method": "rhf"
			},
			{
				"type": "occ",
				"energy": -0.24862,
				"method": "rhf"
			},
			{
				"type": "unocc",
				"energy": -0.00833,
				"method": "rhf"
			},
			{
				"type": "unocc",
				"energy": -0.00586,
				"method": "rhf"
			},
			{
				"type": "unocc",
				"energy": 0.03403,
				"method": "rhf"
			},
			{
				"type": "unocc",
				"energy": 0.04199,
				"method": "rhf"
			},
			{
				"type": "unocc",
				"energy": 0.0867,
				"method": "rhf"
			}
		],
		"cosmo_sigma_profile": { 
			"-0.025": 0.0,
			"-0.024": 0.0,
			"-0.023": 0.0,
			"-0.022": 0.0,
			"-0.021": 0.0,
			"-0.02": 0.0,
			"-0.019": 0.0,
			"-0.018": 0.0,
			"-0.017": 0.0,
			"-0.016": 0.0,
			"-0.015": 0.0,
			"-0.014": 0.0,
			"-0.013": 0.0,
			"-0.012": 0.0,
			"-0.011": 0.0,
			"-0.01": 0.0,
			"-0.009": 0.0829833440751,
			"-0.008": 3.43426078542,
			"-0.007": 5.50265130394,
			"-0.006": 10.7291768119,
			"-0.005": 26.4514317513,
			"-0.004": 18.9341889315,
			"-0.003": 15.3579855266,
			"-0.002": 11.4103966979,
			"-0.001": 10.0250865639,
			"0.0": 7.06584738957,
			"0.001": 9.27852824878,
			"0.002": 8.50278451846,
			"0.003": 8.48122496189,
			"0.004": 10.6280231047,
			"0.005": 11.2775140066,
			"0.006": 10.4818590297,
			"0.007": 2.78196408333,
			"0.008": 2.61040550056,
			"0.009": 3.74450343343,
			"0.01": 2.66611049971,
			"0.011": 3.20929624128,
			"0.012": 2.49408012174,
			"0.013": 2.31358612833,
			"0.014": 0.556676528427,
			"0.015": 0.0,
			"0.016": 0.0,
			"0.017": 0.0,
			"0.018": 0.0,
			"0.019": 0.0,
			"0.02": 0.0,
			"0.021": 0.0,
			"0.022": 0.0,
			"0.023": 0.0,
			"0.024": 0.0,
			"0.025": 0.0
		}
	}
}
