{
	 "smiles": "CC(N)=NO", 
	 "Tm": 392.15, 
	 "num_atms": 11, 
	 "gaussian": { 
		 "optdone": 1, 
		 "sigma_profile": "yes", 
		 "theory": "DFT", 
		 "functional": "B3LYP", 
		 "basiset": "6-31G**", 
		 "properties": { 
			 "R2extent": 1170.0093, 
			 "electric_dipole_moment_norm": 1.83642595821, 
			 "electric_quadrupole_moment_norm": 8.82112755661, 
			 "total_energy": -264.507035694, 
			 "HOMO_LUMO_gap": 0.25227, 
			 "cosmo_polarized_energy": -10.61, 
			 "cosmo_cavitation_energy": 14.59, 
			 "cosmo_dispersion_energy": -11.13, 
			 "cosmo_repulsion_energy": 1.02, 
			 "cosmo_total_nonelectrostatic_energy": 4.47, 
			 "SMD_solvation_energy": 2.9 
		},
		"coords": [
			{
				"x": 1.9164034893,
				"y": -2.2736520733,
				"z": -1.2077675281,
				"element": "C" 
			},
			{
				"x": 1.9700919092,
				"y": -0.7808594955,
				"z": -1.0581860647,
				"element": "C" 
			},
			{
				"x": 1.5192853474,
				"y": -0.0105968444,
				"z": -2.1092328846,
				"element": "N" 
			},
			{
				"x": 2.4878603678,
				"y": -0.3068550865,
				"z": 0.0240942046,
				"element": "N" 
			},
			{
				"x": 2.4458351272,
				"y": 1.1236834896,
				"z": -0.0201997109,
				"element": "O" 
			},
			{
				"x": 2.4788919744,
				"y": -2.5944635705,
				"z": -2.0915959767,
				"element": "H" 
			},
			{
				"x": 2.3435915185,
				"y": -2.7442438155,
				"z": -0.3218156661,
				"element": "H" 
			},
			{
				"x": 0.8820359524,
				"y": -2.619296254,
				"z": -1.3266843173,
				"element": "H" 
			},
			{
				"x": 0.8095226351,
				"y": -0.4175463326,
				"z": -2.6995079148,
				"element": "H" 
			},
			{
				"x": 1.3844740608,
				"y": 0.9651389841,
				"z": -1.8819803354,
				"element": "H" 
			},
			{
				"x": 2.808207618,
				"y": 1.3557909987,
				"z": 0.8426761939,
				"element": "H" 
			}
		],
		 "valence_orbital": [ 
			{
				"type": "occ",
				"energy": -0.3894,
				"method": "rhf"
			},
			{
				"type": "occ",
				"energy": -0.37237,
				"method": "rhf"
			},
			{
				"type": "occ",
				"energy": -0.30301,
				"method": "rhf"
			},
			{
				"type": "occ",
				"energy": -0.26425,
				"method": "rhf"
			},
			{
				"type": "occ",
				"energy": -0.20672,
				"method": "rhf"
			},
			{
				"type": "unocc",
				"energy": 0.04555,
				"method": "rhf"
			},
			{
				"type": "unocc",
				"energy": 0.07692,
				"method": "rhf"
			},
			{
				"type": "unocc",
				"energy": 0.09736,
				"method": "rhf"
			},
			{
				"type": "unocc",
				"energy": 0.13643,
				"method": "rhf"
			},
			{
				"type": "unocc",
				"energy": 0.15069,
				"method": "rhf"
			}
		],
		"cosmo_sigma_profile": { 
			"-0.025": 0.0,
			"-0.024": 0.0,
			"-0.023": 0.0,
			"-0.022": 0.0,
			"-0.021": 0.0,
			"-0.02": 0.0,
			"-0.019": 0.0,
			"-0.018": 0.0,
			"-0.017": 0.0,
			"-0.016": 1.15333396968,
			"-0.015": 0.628622477115,
			"-0.014": 0.63161748197,
			"-0.013": 2.25100011304,
			"-0.012": 1.87837798877,
			"-0.011": 2.85629775763,
			"-0.01": 2.89891176401,
			"-0.009": 2.4889916671,
			"-0.008": 3.27455993814,
			"-0.007": 1.91526556171,
			"-0.006": 3.79833195263,
			"-0.005": 6.18644309057,
			"-0.004": 6.91780361725,
			"-0.003": 7.80142715183,
			"-0.002": 7.28280330341,
			"-0.001": 8.9435180794,
			"0.0": 6.14600015635,
			"0.001": 3.24591612431,
			"0.002": 3.21317886684,
			"0.003": 2.62727117182,
			"0.004": 3.89438574202,
			"0.005": 3.48989325721,
			"0.006": 3.59539671736,
			"0.007": 3.55138066756,
			"0.008": 4.94875197105,
			"0.009": 5.05787381357,
			"0.01": 4.38163738956,
			"0.011": 2.48500346178,
			"0.012": 2.406083622,
			"0.013": 1.63144723972,
			"0.014": 0.893694099624,
			"0.015": 1.02903158563,
			"0.016": 0.387965686336,
			"0.017": 0.0,
			"0.018": 0.0,
			"0.019": 0.0,
			"0.02": 0.0,
			"0.021": 0.0,
			"0.022": 0.0,
			"0.023": 0.0,
			"0.024": 0.0,
			"0.025": 0.0
		}
	}
}
