{
	 "smiles": "ClC1=CC=NC2=C1C=CC(Cl)=C2S(Cl)(=O)=O", 
	 "Tm": 429.15, 
	 "num_atms": 20, 
	 "gaussian": { 
		 "optdone": 1, 
		 "sigma_profile": "yes", 
		 "theory": "DFT", 
		 "functional": "B3LYP", 
		 "basiset": "6-31G**", 
		 "properties": { 
			 "R2extent": 6135.56, 
			 "electric_dipole_moment_norm": 6.3022445216, 
			 "electric_quadrupole_moment_norm": 17.151531766, 
			 "total_energy": -2329.24290758, 
			 "HOMO_LUMO_gap": 0.16883, 
			 "cosmo_polarized_energy": -13.17, 
			 "cosmo_cavitation_energy": 31.22, 
			 "cosmo_dispersion_energy": -23.72, 
			 "cosmo_repulsion_energy": 1.78, 
			 "cosmo_total_nonelectrostatic_energy": 9.28, 
			 "SMD_solvation_energy": 3.05 
		},
		"coords": [
			{
				"x": 2.4136814206,
				"y": -2.4065317637,
				"z": 0.2253095904,
				"element": "Cl" 
			},
			{
				"x": 0.9109702699,
				"y": -1.5168287602,
				"z": 0.1311711764,
				"element": "C" 
			},
			{
				"x": -0.2187451897,
				"y": -2.1461676145,
				"z": -0.3332538052,
				"element": "C" 
			},
			{
				"x": -1.4158010839,
				"y": -1.3972329504,
				"z": -0.3877533781,
				"element": "C" 
			},
			{
				"x": -1.5174805992,
				"y": -0.1345331382,
				"z": -0.0311012082,
				"element": "N" 
			},
			{
				"x": -0.4093756205,
				"y": 0.500409815,
				"z": 0.418763506,
				"element": "C" 
			},
			{
				"x": 0.860586022,
				"y": -0.153391439,
				"z": 0.5341710405,
				"element": "C" 
			},
			{
				"x": 1.9697736885,
				"y": 0.5726584768,
				"z": 1.0305626213,
				"element": "C" 
			},
			{
				"x": 1.8342512241,
				"y": 1.8845778982,
				"z": 1.3988452919,
				"element": "C" 
			},
			{
				"x": 0.5879556104,
				"y": 2.557942248,
				"z": 1.2937438116,
				"element": "C" 
			},
			{
				"x": 0.6259137827,
				"y": 4.2219084367,
				"z": 1.8005531634,
				"element": "Cl" 
			},
			{
				"x": -0.5241208103,
				"y": 1.8821724229,
				"z": 0.8064922662,
				"element": "C" 
			},
			{
				"x": -2.1412651465,
				"y": 2.6781227954,
				"z": 0.5491879665,
				"element": "S" 
			},
			{
				"x": -3.3784634225,
				"y": 1.5823205949,
				"z": 1.8893967072,
				"element": "Cl" 
			},
			{
				"x": -2.5923827321,
				"y": 2.428088301,
				"z": -0.8100043367,
				"element": "O" 
			},
			{
				"x": -2.1225577469,
				"y": 4.0261364132,
				"z": 1.0937554229,
				"element": "O" 
			},
			{
				"x": -0.1980135704,
				"y": -3.1837235682,
				"z": -0.6443448373,
				"element": "H" 
			},
			{
				"x": -2.3273757088,
				"y": -1.8743463425,
				"z": -0.7426638464,
				"element": "H" 
			},
			{
				"x": 2.9322518852,
				"y": 0.0824140674,
				"z": 1.1187450118,
				"element": "H" 
			},
			{
				"x": 2.6822977272,
				"y": 2.4416041071,
				"z": 1.7791238359,
				"element": "H" 
			}
		],
		 "valence_orbital": [ 
			{
				"type": "occ",
				"energy": -0.31168,
				"method": "rhf"
			},
			{
				"type": "occ",
				"energy": -0.30518,
				"method": "rhf"
			},
			{
				"type": "occ",
				"energy": -0.28487,
				"method": "rhf"
			},
			{
				"type": "occ",
				"energy": -0.28221,
				"method": "rhf"
			},
			{
				"type": "occ",
				"energy": -0.27423,
				"method": "rhf"
			},
			{
				"type": "unocc",
				"energy": -0.1054,
				"method": "rhf"
			},
			{
				"type": "unocc",
				"energy": -0.07648,
				"method": "rhf"
			},
			{
				"type": "unocc",
				"energy": -0.06039,
				"method": "rhf"
			},
			{
				"type": "unocc",
				"energy": -0.03174,
				"method": "rhf"
			},
			{
				"type": "unocc",
				"energy": -0.00214,
				"method": "rhf"
			}
		],
		"cosmo_sigma_profile": { 
			"-0.025": 0.0,
			"-0.024": 0.0,
			"-0.023": 0.0,
			"-0.022": 0.0,
			"-0.021": 0.0,
			"-0.02": 0.0,
			"-0.019": 0.0,
			"-0.018": 0.0,
			"-0.017": 0.0,
			"-0.016": 0.0,
			"-0.015": 0.0,
			"-0.014": 0.0,
			"-0.013": 0.0,
			"-0.012": 0.0,
			"-0.011": 0.0,
			"-0.01": 0.290520407573,
			"-0.009": 4.69401139721,
			"-0.008": 9.6771243508,
			"-0.007": 8.05613012583,
			"-0.006": 6.78105764854,
			"-0.005": 8.05794888352,
			"-0.004": 11.560795029,
			"-0.003": 25.7296282836,
			"-0.002": 29.2819660007,
			"-0.001": 26.9357402065,
			"0.0": 19.9356766479,
			"0.001": 15.652710889,
			"0.002": 20.7910690523,
			"0.003": 21.8346982682,
			"0.004": 10.0886713175,
			"0.005": 5.5492359183,
			"0.006": 5.79598422956,
			"0.007": 6.33529293617,
			"0.008": 11.6357671973,
			"0.009": 6.62218956477,
			"0.01": 1.92657360495,
			"0.011": 1.22479694043,
			"0.012": 0.999339327011,
			"0.013": 0.265814825391,
			"0.014": 0.0,
			"0.015": 0.0,
			"0.016": 0.0,
			"0.017": 0.0,
			"0.018": 0.0,
			"0.019": 0.0,
			"0.02": 0.0,
			"0.021": 0.0,
			"0.022": 0.0,
			"0.023": 0.0,
			"0.024": 0.0,
			"0.025": 0.0
		}
	}
}
