{
	 "smiles": "COC1=C(Br)C=CC(=C1)S(=O)(=O)NC1=CC2=NNC=C2C=C1", 
	 "Tm": 473.15, 
	 "num_atms": 34, 
	 "gaussian": { 
		 "optdone": 1, 
		 "sigma_profile": "yes", 
		 "theory": "DFT", 
		 "functional": "B3LYP", 
		 "basiset": "6-31G**", 
		 "properties": { 
			 "R2extent": 10873.2737, 
			 "electric_dipole_moment_norm": 4.73975956669, 
			 "electric_quadrupole_moment_norm": 33.7128148073, 
			 "total_energy": -3900.12791966, 
			 "HOMO_LUMO_gap": 0.16701, 
			 "cosmo_polarized_energy": -23.95, 
			 "cosmo_cavitation_energy": 42.81, 
			 "cosmo_dispersion_energy": -30.57, 
			 "cosmo_repulsion_energy": 2.32, 
			 "cosmo_total_nonelectrostatic_energy": 14.55, 
			 "SMD_solvation_energy": 5.09 
		},
		"coords": [
			{
				"x": -1.2713701484,
				"y": 4.7843287985,
				"z": 1.4900742493,
				"element": "C" 
			},
			{
				"x": -0.7094672609,
				"y": 4.406927652,
				"z": 0.2381520447,
				"element": "O" 
			},
			{
				"x": -0.8334292902,
				"y": 3.1206206683,
				"z": -0.1624816797,
				"element": "C" 
			},
			{
				"x": -0.2767239337,
				"y": 2.777731759,
				"z": -1.4137348278,
				"element": "C" 
			},
			{
				"x": 0.6046894161,
				"y": 4.1121576556,
				"z": -2.4415827189,
				"element": "Br" 
			},
			{
				"x": -0.3688236667,
				"y": 1.4833203867,
				"z": -1.9112117035,
				"element": "C" 
			},
			{
				"x": -1.0144527937,
				"y": 0.4872135059,
				"z": -1.1746519594,
				"element": "C" 
			},
			{
				"x": -1.5519566663,
				"y": 0.8268010839,
				"z": 0.0622311569,
				"element": "C" 
			},
			{
				"x": -1.4764588482,
				"y": 2.1231013412,
				"z": 0.5766325883,
				"element": "C" 
			},
			{
				"x": -2.3894046489,
				"y": -0.4254848606,
				"z": 1.033465751,
				"element": "S" 
			},
			{
				"x": -2.7051335163,
				"y": -1.539252726,
				"z": 0.1357310419,
				"element": "O" 
			},
			{
				"x": -3.4248316965,
				"y": 0.2232845109,
				"z": 1.8465419448,
				"element": "O" 
			},
			{
				"x": -1.2041165206,
				"y": -0.8815772321,
				"z": 2.1847920416,
				"element": "N" 
			},
			{
				"x": -0.2826786854,
				"y": -1.9343688194,
				"z": 1.8649953812,
				"element": "C" 
			},
			{
				"x": 0.8966223916,
				"y": -1.6133043329,
				"z": 1.2303416463,
				"element": "C" 
			},
			{
				"x": 1.7906661281,
				"y": -2.6698342119,
				"z": 0.9234622122,
				"element": "C" 
			},
			{
				"x": 2.9865443819,
				"y": -2.5801965916,
				"z": 0.305672307,
				"element": "N" 
			},
			{
				"x": 3.4171397601,
				"y": -3.8548878705,
				"z": 0.2883847627,
				"element": "N" 
			},
			{
				"x": 2.5841847745,
				"y": -4.7601347695,
				"z": 0.853309273,
				"element": "C" 
			},
			{
				"x": 1.4816614043,
				"y": -4.0248687793,
				"z": 1.2950627224,
				"element": "C" 
			},
			{
				"x": 0.2639429299,
				"y": -4.320036694,
				"z": 1.9603223465,
				"element": "C" 
			},
			{
				"x": -0.5996458141,
				"y": -3.2856205068,
				"z": 2.2235256704,
				"element": "C" 
			},
			{
				"x": -2.3566490981,
				"y": 4.6282562358,
				"z": 1.5057012581,
				"element": "H" 
			},
			{
				"x": -1.0563477949,
				"y": 5.847405798,
				"z": 1.6007180284,
				"element": "H" 
			},
			{
				"x": -0.8119235406,
				"y": 4.2317720385,
				"z": 2.3185637394,
				"element": "H" 
			},
			{
				"x": 0.0628845821,
				"y": 1.2562844325,
				"z": -2.8791523598,
				"element": "H" 
			},
			{
				"x": -1.1087761874,
				"y": -0.5224181227,
				"z": -1.555402662,
				"element": "H" 
			},
			{
				"x": -1.9342725449,
				"y": 2.3396307794,
				"z": 1.5330490736,
				"element": "H" 
			},
			{
				"x": -1.7131038901,
				"y": -1.0198618393,
				"z": 3.0555046015,
				"element": "H" 
			},
			{
				"x": 1.141020409,
				"y": -0.5865193703,
				"z": 0.984880651,
				"element": "H" 
			},
			{
				"x": 4.312635656,
				"y": -4.0479586568,
				"z": -0.1365007663,
				"element": "H" 
			},
			{
				"x": 2.8240757033,
				"y": -5.811919356,
				"z": 0.8953714405,
				"element": "H" 
			},
			{
				"x": 0.0121151748,
				"y": -5.3375820694,
				"z": 2.243121553,
				"element": "H" 
			},
			{
				"x": -1.5531161659,
				"y": -3.4799098372,
				"z": 2.7055111917,
				"element": "H" 
			}
		],
		 "valence_orbital": [ 
			{
				"type": "occ",
				"energy": -0.2836,
				"method": "rhf"
			},
			{
				"type": "occ",
				"energy": -0.26031,
				"method": "rhf"
			},
			{
				"type": "occ",
				"energy": -0.24605,
				"method": "rhf"
			},
			{
				"type": "occ",
				"energy": -0.23704,
				"method": "rhf"
			},
			{
				"type": "occ",
				"energy": -0.2151,
				"method": "rhf"
			},
			{
				"type": "unocc",
				"energy": -0.04809,
				"method": "rhf"
			},
			{
				"type": "unocc",
				"energy": -0.03965,
				"method": "rhf"
			},
			{
				"type": "unocc",
				"energy": -0.01239,
				"method": "rhf"
			},
			{
				"type": "unocc",
				"energy": 0.00414,
				"method": "rhf"
			},
			{
				"type": "unocc",
				"energy": 0.01224,
				"method": "rhf"
			}
		],
		"cosmo_sigma_profile": { 
			"-0.025": 0.0,
			"-0.024": 0.0,
			"-0.023": 0.0,
			"-0.022": 0.0,
			"-0.021": 0.0,
			"-0.02": 0.0,
			"-0.019": 0.0,
			"-0.018": 0.121582051628,
			"-0.017": 1.77939857786,
			"-0.016": 1.662786611,
			"-0.015": 1.73658488594,
			"-0.014": 2.41558490861,
			"-0.013": 1.68270112612,
			"-0.012": 1.74242310585,
			"-0.011": 2.55712274728,
			"-0.01": 3.13923640757,
			"-0.009": 5.03806313042,
			"-0.008": 7.38088543677,
			"-0.007": 13.2710613891,
			"-0.006": 20.9750364675,
			"-0.005": 18.5562104059,
			"-0.004": 20.5285194167,
			"-0.003": 16.671470763,
			"-0.002": 15.9222316746,
			"-0.001": 17.8135350654,
			"0.0": 25.5441846908,
			"0.001": 27.2174120418,
			"0.002": 23.4196983357,
			"0.003": 25.5046393019,
			"0.004": 24.5224576082,
			"0.005": 11.6779551679,
			"0.006": 6.99894010762,
			"0.007": 8.08260770746,
			"0.008": 7.73789282386,
			"0.009": 8.12234130141,
			"0.01": 10.1361206477,
			"0.011": 9.05107405709,
			"0.012": 1.6718218682,
			"0.013": 0.923587248463,
			"0.014": 1.32035333865,
			"0.015": 1.04774087732,
			"0.016": 0.613323972778,
			"0.017": 0.0541090408069,
			"0.018": 0.0,
			"0.019": 0.0,
			"0.02": 0.0,
			"0.021": 0.0,
			"0.022": 0.0,
			"0.023": 0.0,
			"0.024": 0.0,
			"0.025": 0.0
		}
	}
}
