{
	 "smiles": "CC(=O)C1=NN(C(S1)=NC(=O)C1=CC=CC=C1)C1=CC=CC(=C1)[N+]([O-])=O", 
	 "Tm": 469.15, 
	 "num_atms": 38, 
	 "gaussian": { 
		 "optdone": 1, 
		 "sigma_profile": "yes", 
		 "theory": "DFT", 
		 "functional": "B3LYP", 
		 "basiset": "6-31G**", 
		 "properties": { 
			 "R2extent": 12246.2168, 
			 "electric_dipole_moment_norm": 4.64469704287, 
			 "electric_quadrupole_moment_norm": 31.2737143531, 
			 "total_energy": -1573.01661527, 
			 "HOMO_LUMO_gap": 0.14417, 
			 "cosmo_polarized_energy": -17.43, 
			 "cosmo_cavitation_energy": 46.49, 
			 "cosmo_dispersion_energy": -32.62, 
			 "cosmo_repulsion_energy": 2.36, 
			 "cosmo_total_nonelectrostatic_energy": 16.23, 
			 "SMD_solvation_energy": 10.21 
		},
		"coords": [
			{
				"x": -4.2659228658,
				"y": -2.0021832173,
				"z": -2.2829938152,
				"element": "C" 
			},
			{
				"x": -4.0254157162,
				"y": -2.2463934137,
				"z": -0.8113624947,
				"element": "C" 
			},
			{
				"x": -4.7947471822,
				"y": -2.8638256172,
				"z": -0.0959868547,
				"element": "O" 
			},
			{
				"x": -2.7733719121,
				"y": -1.699171562,
				"z": -0.2118102421,
				"element": "C" 
			},
			{
				"x": -1.9058948029,
				"y": -1.0267172687,
				"z": -0.8995665575,
				"element": "N" 
			},
			{
				"x": -0.8639924126,
				"y": -0.6292943015,
				"z": -0.1169285032,
				"element": "N" 
			},
			{
				"x": -0.9121181111,
				"y": -1.0115897144,
				"z": 1.2221789166,
				"element": "C" 
			},
			{
				"x": -2.410402778,
				"y": -1.9364538339,
				"z": 1.4948357869,
				"element": "S" 
			},
			{
				"x": 0.0152468506,
				"y": -0.7174104896,
				"z": 2.0721905405,
				"element": "N" 
			},
			{
				"x": -0.1512153515,
				"y": -1.1822299194,
				"z": 3.3792799585,
				"element": "C" 
			},
			{
				"x": -1.1356274426,
				"y": -1.8398384769,
				"z": 3.7302264297,
				"element": "O" 
			},
			{
				"x": 0.9374927709,
				"y": -0.8301950708,
				"z": 4.3290692591,
				"element": "C" 
			},
			{
				"x": 0.8384680201,
				"y": -1.2907325345,
				"z": 5.6517931247,
				"element": "C" 
			},
			{
				"x": 1.8303043925,
				"y": -0.9805807924,
				"z": 6.5771239982,
				"element": "C" 
			},
			{
				"x": 2.9283877925,
				"y": -0.2053894197,
				"z": 6.1909055117,
				"element": "C" 
			},
			{
				"x": 3.031505485,
				"y": 0.2571109489,
				"z": 4.8770416671,
				"element": "C" 
			},
			{
				"x": 2.0420424468,
				"y": -0.0543074461,
				"z": 3.9457150509,
				"element": "C" 
			},
			{
				"x": 0.2027009154,
				"y": 0.0693786183,
				"z": -0.764232789,
				"element": "C" 
			},
			{
				"x": 0.407999333,
				"y": -0.1410086375,
				"z": -2.1356490136,
				"element": "C" 
			},
			{
				"x": 1.4303267712,
				"y": 0.5348492892,
				"z": -2.799281507,
				"element": "C" 
			},
			{
				"x": 2.2658210063,
				"y": 1.4143110036,
				"z": -2.1133082194,
				"element": "C" 
			},
			{
				"x": 2.0376954667,
				"y": 1.5993891371,
				"z": -0.7529204091,
				"element": "C" 
			},
			{
				"x": 1.0165150138,
				"y": 0.9579194238,
				"z": -0.0593144255,
				"element": "C" 
			},
			{
				"x": 2.9169920895,
				"y": 2.5146819333,
				"z": -0.0014572647,
				"element": "N" 
			},
			{
				"x": 2.7559005449,
				"y": 2.5924908963,
				"z": 1.2161119821,
				"element": "O" 
			},
			{
				"x": 3.7609366309,
				"y": 3.1410833719,
				"z": -0.639115047,
				"element": "O" 
			},
			{
				"x": -4.2557667836,
				"y": -0.9299440452,
				"z": -2.5014717956,
				"element": "H" 
			},
			{
				"x": -3.4676846963,
				"y": -2.4565759696,
				"z": -2.8789499243,
				"element": "H" 
			},
			{
				"x": -5.2278701656,
				"y": -2.434288338,
				"z": -2.5596593126,
				"element": "H" 
			},
			{
				"x": -0.0240729074,
				"y": -1.8871123702,
				"z": 5.9291162952,
				"element": "H" 
			},
			{
				"x": 1.7498029999,
				"y": -1.3396934232,
				"z": 7.5989504497,
				"element": "H" 
			},
			{
				"x": 3.7015260658,
				"y": 0.0386000342,
				"z": 6.9141875042,
				"element": "H" 
			},
			{
				"x": 3.8808736479,
				"y": 0.8631005511,
				"z": 4.5763575796,
				"element": "H" 
			},
			{
				"x": 2.1214893926,
				"y": 0.3048825452,
				"z": 2.926743493,
				"element": "H" 
			},
			{
				"x": -0.2369925593,
				"y": -0.8272400286,
				"z": -2.6693758332,
				"element": "H" 
			},
			{
				"x": 1.5816154141,
				"y": 0.3635865333,
				"z": -3.8599511651,
				"element": "H" 
			},
			{
				"x": 3.0752871071,
				"y": 1.9426158482,
				"z": -2.6001365347,
				"element": "H" 
			},
			{
				"x": 0.8769655295,
				"y": 1.1392757559,
				"z": 0.9941441606,
				"element": "H" 
			}
		],
		 "valence_orbital": [ 
			{
				"type": "occ",
				"energy": -0.28057,
				"method": "rhf"
			},
			{
				"type": "occ",
				"energy": -0.26179,
				"method": "rhf"
			},
			{
				"type": "occ",
				"energy": -0.2593,
				"method": "rhf"
			},
			{
				"type": "occ",
				"energy": -0.25363,
				"method": "rhf"
			},
			{
				"type": "occ",
				"energy": -0.24491,
				"method": "rhf"
			},
			{
				"type": "unocc",
				"energy": -0.10074,
				"method": "rhf"
			},
			{
				"type": "unocc",
				"energy": -0.09149,
				"method": "rhf"
			},
			{
				"type": "unocc",
				"energy": -0.07286,
				"method": "rhf"
			},
			{
				"type": "unocc",
				"energy": -0.03579,
				"method": "rhf"
			},
			{
				"type": "unocc",
				"energy": -0.01613,
				"method": "rhf"
			}
		],
		"cosmo_sigma_profile": { 
			"-0.025": 0.0,
			"-0.024": 0.0,
			"-0.023": 0.0,
			"-0.022": 0.0,
			"-0.021": 0.0,
			"-0.02": 0.0,
			"-0.019": 0.0,
			"-0.018": 0.0,
			"-0.017": 0.0,
			"-0.016": 0.0,
			"-0.015": 0.0,
			"-0.014": 0.0,
			"-0.013": 0.0,
			"-0.012": 0.0,
			"-0.011": 0.0,
			"-0.01": 0.0,
			"-0.009": 0.0736989382189,
			"-0.008": 3.90982927023,
			"-0.007": 13.5949366128,
			"-0.006": 22.9215649297,
			"-0.005": 27.7571910977,
			"-0.004": 27.9238255174,
			"-0.003": 28.1074877585,
			"-0.002": 32.0359058962,
			"-0.001": 32.078649109,
			"0.0": 31.1759115002,
			"0.001": 29.4478429865,
			"0.002": 25.6200810715,
			"0.003": 20.2245329062,
			"0.004": 21.5305803554,
			"0.005": 10.1585723744,
			"0.006": 9.19416188938,
			"0.007": 10.7969547496,
			"0.008": 9.59194642402,
			"0.009": 7.17850575578,
			"0.01": 8.01635447033,
			"0.011": 4.20946371261,
			"0.012": 1.78149038249,
			"0.013": 0.000992955047974,
			"0.014": 0.0,
			"0.015": 0.0,
			"0.016": 0.0,
			"0.017": 0.0,
			"0.018": 0.0,
			"0.019": 0.0,
			"0.02": 0.0,
			"0.021": 0.0,
			"0.022": 0.0,
			"0.023": 0.0,
			"0.024": 0.0,
			"0.025": 0.0
		}
	}
}
