{
	 "smiles": "COC1=CC=C2NC(=O)CSC2=C1", 
	 "Tm": 458.15, 
	 "num_atms": 22, 
	 "gaussian": { 
		 "optdone": 1, 
		 "sigma_profile": "yes", 
		 "theory": "DFT", 
		 "functional": "B3LYP", 
		 "basiset": "6-31G**", 
		 "properties": { 
			 "R2extent": 3269.6267, 
			 "electric_dipole_moment_norm": 3.45777314612, 
			 "electric_quadrupole_moment_norm": 9.59601275166, 
			 "total_energy": -951.772729041, 
			 "HOMO_LUMO_gap": 0.18157, 
			 "cosmo_polarized_energy": -13.13, 
			 "cosmo_cavitation_energy": 27.18, 
			 "cosmo_dispersion_energy": -20.88, 
			 "cosmo_repulsion_energy": 1.59, 
			 "cosmo_total_nonelectrostatic_energy": 7.9, 
			 "SMD_solvation_energy": 5.48 
		},
		"coords": [
			{
				"x": -3.504534386,
				"y": 0.7567612981,
				"z": -2.1810206207,
				"element": "C" 
			},
			{
				"x": -2.8055382566,
				"y": 1.8450260307,
				"z": -1.5976579931,
				"element": "O" 
			},
			{
				"x": -1.5930040742,
				"y": 1.5994209216,
				"z": -1.0219179938,
				"element": "C" 
			},
			{
				"x": -0.9490567462,
				"y": 2.7094114844,
				"z": -0.4541873495,
				"element": "C" 
			},
			{
				"x": 0.2924824479,
				"y": 2.5607912371,
				"z": 0.1454493894,
				"element": "C" 
			},
			{
				"x": 0.9141013544,
				"y": 1.3055373364,
				"z": 0.2194008954,
				"element": "C" 
			},
			{
				"x": 2.1440782542,
				"y": 1.1724402107,
				"z": 0.8941056766,
				"element": "N" 
			},
			{
				"x": 3.0805143526,
				"y": 0.174272036,
				"z": 0.7612058325,
				"element": "C" 
			},
			{
				"x": 4.1168350433,
				"y": 0.1708162562,
				"z": 1.4065029913,
				"element": "O" 
			},
			{
				"x": 2.7572660154,
				"y": -0.8917025441,
				"z": -0.2767101289,
				"element": "C" 
			},
			{
				"x": 1.0039627732,
				"y": -1.4177950329,
				"z": -0.2278789239,
				"element": "S" 
			},
			{
				"x": 0.2714051393,
				"y": 0.1976713329,
				"z": -0.354023798,
				"element": "C" 
			},
			{
				"x": -0.9721698109,
				"y": 0.3481280543,
				"z": -0.9832092105,
				"element": "C" 
			},
			{
				"x": -4.4383658346,
				"y": 1.1696603173,
				"z": -2.5652445616,
				"element": "H" 
			},
			{
				"x": -2.9401892493,
				"y": 0.3102724596,
				"z": -3.0100735411,
				"element": "H" 
			},
			{
				"x": -3.7316124971,
				"y": -0.0219020055,
				"z": -1.4413799332,
				"element": "H" 
			},
			{
				"x": -1.4356725775,
				"y": 3.6772165851,
				"z": -0.503840683,
				"element": "H" 
			},
			{
				"x": 0.7913420628,
				"y": 3.4261539549,
				"z": 0.5742136457,
				"element": "H" 
			},
			{
				"x": 2.4186914257,
				"y": 1.9092255168,
				"z": 1.5311582307,
				"element": "H" 
			},
			{
				"x": 3.371568657,
				"y": -1.7660778192,
				"z": -0.0625426678,
				"element": "H" 
			},
			{
				"x": 3.0053919984,
				"y": -0.5205927497,
				"z": -1.27743811,
				"element": "H" 
			},
			{
				"x": -1.4336960917,
				"y": -0.5215348809,
				"z": -1.4347111465,
				"element": "H" 
			}
		],
		 "valence_orbital": [ 
			{
				"type": "occ",
				"energy": -0.29706,
				"method": "rhf"
			},
			{
				"type": "occ",
				"energy": -0.28305,
				"method": "rhf"
			},
			{
				"type": "occ",
				"energy": -0.26075,
				"method": "rhf"
			},
			{
				"type": "occ",
				"energy": -0.23112,
				"method": "rhf"
			},
			{
				"type": "occ",
				"energy": -0.20572,
				"method": "rhf"
			},
			{
				"type": "unocc",
				"energy": -0.02415,
				"method": "rhf"
			},
			{
				"type": "unocc",
				"energy": -0.01361,
				"method": "rhf"
			},
			{
				"type": "unocc",
				"energy": 0.02746,
				"method": "rhf"
			},
			{
				"type": "unocc",
				"energy": 0.03867,
				"method": "rhf"
			},
			{
				"type": "unocc",
				"energy": 0.07281,
				"method": "rhf"
			}
		],
		"cosmo_sigma_profile": { 
			"-0.025": 0.0,
			"-0.024": 0.0,
			"-0.023": 0.0,
			"-0.022": 0.0,
			"-0.021": 0.0,
			"-0.02": 0.0,
			"-0.019": 0.0,
			"-0.018": 0.0,
			"-0.017": 0.0,
			"-0.016": 0.0162662050749,
			"-0.015": 0.770562610028,
			"-0.014": 1.3032680599,
			"-0.013": 1.08123642105,
			"-0.012": 1.03382475704,
			"-0.011": 1.32868142471,
			"-0.01": 1.2701921648,
			"-0.009": 1.54455614979,
			"-0.008": 4.99196236465,
			"-0.007": 8.211825113,
			"-0.006": 13.8837309975,
			"-0.005": 18.0072302025,
			"-0.004": 16.4991048556,
			"-0.003": 16.2343016337,
			"-0.002": 11.0068971865,
			"-0.001": 9.88137039173,
			"0.0": 10.260052982,
			"0.001": 12.3472925983,
			"0.002": 12.4457137397,
			"0.003": 18.0237258572,
			"0.004": 17.9964963366,
			"0.005": 8.28761362769,
			"0.006": 6.38310829375,
			"0.007": 3.94013415383,
			"0.008": 2.7463563523,
			"0.009": 3.52355432642,
			"0.01": 3.18663542907,
			"0.011": 2.07026753448,
			"0.012": 3.39675068592,
			"0.013": 5.65150633479,
			"0.014": 1.21681397848,
			"0.015": 0.0,
			"0.016": 0.0,
			"0.017": 0.0,
			"0.018": 0.0,
			"0.019": 0.0,
			"0.02": 0.0,
			"0.021": 0.0,
			"0.022": 0.0,
			"0.023": 0.0,
			"0.024": 0.0,
			"0.025": 0.0
		}
	}
}
