{
	 "smiles": "BrCCCCCCN1C(=O)C2=CC=CC=C2C1=O", 
	 "Tm": 330.15, 
	 "num_atms": 34, 
	 "gaussian": { 
		 "optdone": 1, 
		 "sigma_profile": "yes", 
		 "theory": "DFT", 
		 "functional": "B3LYP", 
		 "basiset": "6-31G**", 
		 "properties": { 
			 "R2extent": 7996.0619, 
			 "electric_dipole_moment_norm": 3.26863467827, 
			 "electric_quadrupole_moment_norm": 22.7970892206, 
			 "total_energy": -3319.78681362, 
			 "HOMO_LUMO_gap": 0.18086, 
			 "cosmo_polarized_energy": -13.01, 
			 "cosmo_cavitation_energy": 39.77, 
			 "cosmo_dispersion_energy": -26.97, 
			 "cosmo_repulsion_energy": 2.13, 
			 "cosmo_total_nonelectrostatic_energy": 14.94, 
			 "SMD_solvation_energy": 5.95 
		},
		"coords": [
			{
				"x": -3.0648186832,
				"y": 3.2163390882,
				"z": 1.6393724802,
				"element": "Br" 
			},
			{
				"x": -2.2919309029,
				"y": 1.6815934791,
				"z": 0.6477872871,
				"element": "C" 
			},
			{
				"x": -1.7048518652,
				"y": 0.6376423453,
				"z": 1.5855002296,
				"element": "C" 
			},
			{
				"x": -1.1277665289,
				"y": -0.5547169081,
				"z": 0.8017233922,
				"element": "C" 
			},
			{
				"x": -0.5345897123,
				"y": -1.6558033215,
				"z": 1.7026761,
				"element": "C" 
			},
			{
				"x": 0.7832807129,
				"y": -1.2992779495,
				"z": 2.4244199701,
				"element": "C" 
			},
			{
				"x": 2.0682491193,
				"y": -1.6535667169,
				"z": 1.6597722686,
				"element": "C" 
			},
			{
				"x": 2.2545968076,
				"y": -0.9343957928,
				"z": 0.4024340322,
				"element": "N" 
			},
			{
				"x": 2.7671478425,
				"y": 0.3708308986,
				"z": 0.3231784927,
				"element": "C" 
			},
			{
				"x": 3.0754214584,
				"y": 1.0607950266,
				"z": 1.2752868802,
				"element": "O" 
			},
			{
				"x": 2.8431633491,
				"y": 0.6875475684,
				"z": -1.1348689749,
				"element": "C" 
			},
			{
				"x": 3.2652429328,
				"y": 1.840199966,
				"z": -1.7811849799,
				"element": "C" 
			},
			{
				"x": 3.2278479955,
				"y": 1.8437569149,
				"z": -3.1822378664,
				"element": "C" 
			},
			{
				"x": 2.7822522327,
				"y": 0.7242407053,
				"z": -3.8968704279,
				"element": "C" 
			},
			{
				"x": 2.3590114119,
				"y": -0.4358842473,
				"z": -3.2341236783,
				"element": "C" 
			},
			{
				"x": 2.3986479305,
				"y": -0.4286396905,
				"z": -1.8473875393,
				"element": "C" 
			},
			{
				"x": 2.0227253516,
				"y": -1.4910335759,
				"z": -0.8666142376,
				"element": "C" 
			},
			{
				"x": 1.6010500171,
				"y": -2.6116172422,
				"z": -1.0784873501,
				"element": "O" 
			},
			{
				"x": -3.1131465195,
				"y": 1.2878674865,
				"z": 0.0479588689,
				"element": "H" 
			},
			{
				"x": -1.540716777,
				"y": 2.1179390019,
				"z": -0.0112862388,
				"element": "H" 
			},
			{
				"x": -2.4844745488,
				"y": 0.2857970824,
				"z": 2.2712589481,
				"element": "H" 
			},
			{
				"x": -0.9309539296,
				"y": 1.1066996408,
				"z": 2.2023616308,
				"element": "H" 
			},
			{
				"x": -1.9264500735,
				"y": -0.9978469487,
				"z": 0.1926174526,
				"element": "H" 
			},
			{
				"x": -0.371315345,
				"y": -0.1954288554,
				"z": 0.0937200869,
				"element": "H" 
			},
			{
				"x": -1.2897005313,
				"y": -1.9200786992,
				"z": 2.4540123906,
				"element": "H" 
			},
			{
				"x": -0.3769056541,
				"y": -2.5578812351,
				"z": 1.0995392862,
				"element": "H" 
			},
			{
				"x": 0.83579944,
				"y": -1.8508016273,
				"z": 3.3712686909,
				"element": "H" 
			},
			{
				"x": 0.812597332,
				"y": -0.2377034222,
				"z": 2.6939013743,
				"element": "H" 
			},
			{
				"x": 2.9375260628,
				"y": -1.4350145246,
				"z": 2.2873325401,
				"element": "H" 
			},
			{
				"x": 2.0792902944,
				"y": -2.7171358127,
				"z": 1.4055751208,
				"element": "H" 
			},
			{
				"x": 3.6099893123,
				"y": 2.7009653648,
				"z": -1.2173121143,
				"element": "H" 
			},
			{
				"x": 3.5496231297,
				"y": 2.7276304848,
				"z": -3.7248324382,
				"element": "H" 
			},
			{
				"x": 2.765940399,
				"y": 0.757922934,
				"z": -4.9821279568,
				"element": "H" 
			},
			{
				"x": 2.013417939,
				"y": -1.3095414178,
				"z": -3.7772637207,
				"element": "H" 
			}
		],
		 "valence_orbital": [ 
			{
				"type": "occ",
				"energy": -0.28108,
				"method": "rhf"
			},
			{
				"type": "occ",
				"energy": -0.27043,
				"method": "rhf"
			},
			{
				"type": "occ",
				"energy": -0.26794,
				"method": "rhf"
			},
			{
				"type": "occ",
				"energy": -0.2663,
				"method": "rhf"
			},
			{
				"type": "occ",
				"energy": -0.26578,
				"method": "rhf"
			},
			{
				"type": "unocc",
				"energy": -0.08492,
				"method": "rhf"
			},
			{
				"type": "unocc",
				"energy": -0.04409,
				"method": "rhf"
			},
			{
				"type": "unocc",
				"energy": 0.00612,
				"method": "rhf"
			},
			{
				"type": "unocc",
				"energy": 0.02483,
				"method": "rhf"
			},
			{
				"type": "unocc",
				"energy": 0.06772,
				"method": "rhf"
			}
		],
		"cosmo_sigma_profile": { 
			"-0.025": 0.0,
			"-0.024": 0.0,
			"-0.023": 0.0,
			"-0.022": 0.0,
			"-0.021": 0.0,
			"-0.02": 0.0,
			"-0.019": 0.0,
			"-0.018": 0.0,
			"-0.017": 0.0,
			"-0.016": 0.0,
			"-0.015": 0.0,
			"-0.014": 0.0,
			"-0.013": 0.0,
			"-0.012": 0.0,
			"-0.011": 0.0,
			"-0.01": 0.0,
			"-0.009": 0.0,
			"-0.008": 1.49900004088,
			"-0.007": 8.87901393274,
			"-0.006": 14.3967545282,
			"-0.005": 20.5572340615,
			"-0.004": 26.2177067654,
			"-0.003": 37.216825039,
			"-0.002": 33.477099327,
			"-0.001": 29.8611647815,
			"0.0": 26.3103874502,
			"0.001": 20.0049045208,
			"0.002": 21.7884976559,
			"0.003": 12.8548834247,
			"0.004": 8.1759344835,
			"0.005": 10.060518637,
			"0.006": 12.5173940469,
			"0.007": 9.77534002967,
			"0.008": 3.41887314686,
			"0.009": 3.57131478863,
			"0.01": 3.72311555107,
			"0.011": 8.72857744646,
			"0.012": 4.56308183848,
			"0.013": 0.0516795317999,
			"0.014": 0.0,
			"0.015": 0.0,
			"0.016": 0.0,
			"0.017": 0.0,
			"0.018": 0.0,
			"0.019": 0.0,
			"0.02": 0.0,
			"0.021": 0.0,
			"0.022": 0.0,
			"0.023": 0.0,
			"0.024": 0.0,
			"0.025": 0.0
		}
	}
}
