{
	 "smiles": "O=C1NC=NC2=C1CCCN2", 
	 "Tm": 532.15, 
	 "num_atms": 20, 
	 "gaussian": { 
		 "optdone": 1, 
		 "sigma_profile": "yes", 
		 "theory": "DFT", 
		 "functional": "B3LYP", 
		 "basiset": "6-31G**", 
		 "properties": { 
			 "R2extent": 1730.5228, 
			 "electric_dipole_moment_norm": 3.17033259139, 
			 "electric_quadrupole_moment_norm": 14.5410578171, 
			 "total_energy": -511.676459731, 
			 "HOMO_LUMO_gap": 0.1795, 
			 "cosmo_polarized_energy": -15.66, 
			 "cosmo_cavitation_energy": 22.66, 
			 "cosmo_dispersion_energy": -17.61, 
			 "cosmo_repulsion_energy": 1.42, 
			 "cosmo_total_nonelectrostatic_energy": 6.47, 
			 "SMD_solvation_energy": 2.18 
		},
		"coords": [
			{
				"x": -1.4452879546,
				"y": -2.0956039998,
				"z": 2.3181310522,
				"element": "O" 
			},
			{
				"x": -0.5289958314,
				"y": -1.6263331235,
				"z": 1.6465871188,
				"element": "C" 
			},
			{
				"x": 0.7995017674,
				"y": -2.1069401635,
				"z": 1.8467954592,
				"element": "N" 
			},
			{
				"x": 1.8684198749,
				"y": -1.6505505606,
				"z": 1.1532148497,
				"element": "C" 
			},
			{
				"x": 1.8089756345,
				"y": -0.7291497356,
				"z": 0.2416077461,
				"element": "N" 
			},
			{
				"x": 0.5530481794,
				"y": -0.2079825489,
				"z": -0.0115804054,
				"element": "C" 
			},
			{
				"x": -0.6059767622,
				"y": -0.6115633428,
				"z": 0.6361714053,
				"element": "C" 
			},
			{
				"x": -1.9407335973,
				"y": 0.0119440332,
				"z": 0.3104629268,
				"element": "C" 
			},
			{
				"x": -1.7572829291,
				"y": 1.3755963709,
				"z": -0.3741819914,
				"element": "C" 
			},
			{
				"x": -0.7138838648,
				"y": 1.2909643677,
				"z": -1.495501055,
				"element": "C" 
			},
			{
				"x": 0.5366641136,
				"y": 0.7737255841,
				"z": -0.9607123321,
				"element": "N" 
			},
			{
				"x": 0.8993584725,
				"y": -2.8293362087,
				"z": 2.5491147881,
				"element": "H" 
			},
			{
				"x": 2.829916162,
				"y": -2.1013982223,
				"z": 1.3922750542,
				"element": "H" 
			},
			{
				"x": -2.5242523282,
				"y": 0.1133064758,
				"z": 1.2315341479,
				"element": "H" 
			},
			{
				"x": -2.5248081213,
				"y": -0.6579182211,
				"z": -0.3368216159,
				"element": "H" 
			},
			{
				"x": -2.7061983684,
				"y": 1.7323151347,
				"z": -0.7874933359,
				"element": "H" 
			},
			{
				"x": -1.4207583361,
				"y": 2.1161993123,
				"z": 0.3604761294,
				"element": "H" 
			},
			{
				"x": -0.5248509843,
				"y": 2.2807377171,
				"z": -1.9236912827,
				"element": "H" 
			},
			{
				"x": -1.0926127213,
				"y": 0.6491296177,
				"z": -2.3073370702,
				"element": "H" 
			},
			{
				"x": 1.3969575946,
				"y": 0.8934575132,
				"z": -1.4744515891,
				"element": "H" 
			}
		],
		 "valence_orbital": [ 
			{
				"type": "occ",
				"energy": -0.31755,
				"method": "rhf"
			},
			{
				"type": "occ",
				"energy": -0.28241,
				"method": "rhf"
			},
			{
				"type": "occ",
				"energy": -0.25055,
				"method": "rhf"
			},
			{
				"type": "occ",
				"energy": -0.24216,
				"method": "rhf"
			},
			{
				"type": "occ",
				"energy": -0.20031,
				"method": "rhf"
			},
			{
				"type": "unocc",
				"energy": -0.02081,
				"method": "rhf"
			},
			{
				"type": "unocc",
				"energy": 0.01899,
				"method": "rhf"
			},
			{
				"type": "unocc",
				"energy": 0.07733,
				"method": "rhf"
			},
			{
				"type": "unocc",
				"energy": 0.08676,
				"method": "rhf"
			},
			{
				"type": "unocc",
				"energy": 0.10942,
				"method": "rhf"
			}
		],
		"cosmo_sigma_profile": { 
			"-0.025": 0.0,
			"-0.024": 0.0,
			"-0.023": 0.0,
			"-0.022": 0.0,
			"-0.021": 0.0,
			"-0.02": 0.0,
			"-0.019": 0.0,
			"-0.018": 0.0,
			"-0.017": 0.0,
			"-0.016": 0.843848869615,
			"-0.015": 1.73316227137,
			"-0.014": 1.52615821016,
			"-0.013": 1.90681645164,
			"-0.012": 2.375924481,
			"-0.011": 1.59343359204,
			"-0.01": 3.48876696916,
			"-0.009": 3.76261746384,
			"-0.008": 3.14708083618,
			"-0.007": 3.58687661074,
			"-0.006": 3.28666341291,
			"-0.005": 4.90184307908,
			"-0.004": 9.60849196845,
			"-0.003": 18.0683772169,
			"-0.002": 19.8849894478,
			"-0.001": 18.2322609728,
			"0.0": 14.3901447985,
			"0.001": 9.7321226767,
			"0.002": 8.98720356383,
			"0.003": 7.17065236321,
			"0.004": 4.77576713515,
			"0.005": 2.7214203337,
			"0.006": 4.09904250057,
			"0.007": 3.15961910859,
			"0.008": 3.42686243614,
			"0.009": 2.06325741445,
			"0.01": 1.80365701029,
			"0.011": 1.66113132034,
			"0.012": 2.70029300465,
			"0.013": 2.59737995209,
			"0.014": 5.02705972024,
			"0.015": 6.0133305959,
			"0.016": 0.402594283908,
			"0.017": 0.0,
			"0.018": 0.0,
			"0.019": 0.0,
			"0.02": 0.0,
			"0.021": 0.0,
			"0.022": 0.0,
			"0.023": 0.0,
			"0.024": 0.0,
			"0.025": 0.0
		}
	}
}
