{
	 "smiles": "CCOC(=O)C1=CC=C(O)C(OC)=C1", 
	 "Tm": 317.15, 
	 "num_atms": 26, 
	 "gaussian": { 
		 "optdone": 1, 
		 "sigma_profile": "yes", 
		 "theory": "DFT", 
		 "functional": "B3LYP", 
		 "basiset": "6-31G**", 
		 "properties": { 
			 "R2extent": 3971.1467, 
			 "electric_dipole_moment_norm": 2.53734240102, 
			 "electric_quadrupole_moment_norm": 14.8224304046, 
			 "total_energy": -689.187187752, 
			 "HOMO_LUMO_gap": 0.17932, 
			 "cosmo_polarized_energy": -12.81, 
			 "cosmo_cavitation_energy": 30.13, 
			 "cosmo_dispersion_energy": -22.14, 
			 "cosmo_repulsion_energy": 1.76, 
			 "cosmo_total_nonelectrostatic_energy": 9.75, 
			 "SMD_solvation_energy": 7.4 
		},
		"coords": [
			{
				"x": 0.0105879933,
				"y": -3.520276221,
				"z": -3.8038117118,
				"element": "C" 
			},
			{
				"x": 0.5076239157,
				"y": -2.0821309845,
				"z": -3.7852435828,
				"element": "C" 
			},
			{
				"x": 0.3219585014,
				"y": -1.4771069526,
				"z": -2.4858150613,
				"element": "O" 
			},
			{
				"x": -0.8926510883,
				"y": -0.9278166603,
				"z": -2.2439988741,
				"element": "C" 
			},
			{
				"x": -1.7988026636,
				"y": -0.9202021943,
				"z": -3.0578958806,
				"element": "O" 
			},
			{
				"x": -0.9883990974,
				"y": -0.3363911276,
				"z": -0.8837992708,
				"element": "C" 
			},
			{
				"x": -2.1938772479,
				"y": 0.2698796117,
				"z": -0.5115780205,
				"element": "C" 
			},
			{
				"x": -2.3093774767,
				"y": 0.829902834,
				"z": 0.7527009112,
				"element": "C" 
			},
			{
				"x": -1.2490535582,
				"y": 0.803355796,
				"z": 1.6678770543,
				"element": "C" 
			},
			{
				"x": -1.3815849239,
				"y": 1.3613296047,
				"z": 2.9126585153,
				"element": "O" 
			},
			{
				"x": -0.0280057402,
				"y": 0.1924986984,
				"z": 1.3006518008,
				"element": "C" 
			},
			{
				"x": 1.1005889256,
				"y": 0.0757016133,
				"z": 2.0588400933,
				"element": "O" 
			},
			{
				"x": 1.1957107301,
				"y": 0.5824638959,
				"z": 3.3890027976,
				"element": "C" 
			},
			{
				"x": 0.0746552087,
				"y": -0.3671339487,
				"z": 0.0240654509,
				"element": "C" 
			},
			{
				"x": 0.4997447579,
				"y": -4.1118046904,
				"z": -3.0242119917,
				"element": "H" 
			},
			{
				"x": 0.2324848843,
				"y": -3.9782783466,
				"z": -4.7736637954,
				"element": "H" 
			},
			{
				"x": -1.0703584755,
				"y": -3.5530194963,
				"z": -3.6480191967,
				"element": "H" 
			},
			{
				"x": -0.0111237961,
				"y": -1.4778676002,
				"z": -4.5332409316,
				"element": "H" 
			},
			{
				"x": 1.5854052274,
				"y": -2.0291500201,
				"z": -3.9583244907,
				"element": "H" 
			},
			{
				"x": -3.0165918254,
				"y": 0.2925581852,
				"z": -1.2165606511,
				"element": "H" 
			},
			{
				"x": -3.2415095243,
				"y": 1.3047677976,
				"z": 1.0545228994,
				"element": "H" 
			},
			{
				"x": -2.271329237,
				"y": 1.7290866025,
				"z": 2.9898630681,
				"element": "H" 
			},
			{
				"x": 0.4716093083,
				"y": 0.1104203725,
				"z": 4.0585776391,
				"element": "H" 
			},
			{
				"x": 1.059437852,
				"y": 1.6667611152,
				"z": 3.4236226222,
				"element": "H" 
			},
			{
				"x": 2.2082730879,
				"y": 0.3318069916,
				"z": 3.712004935,
				"element": "H" 
			},
			{
				"x": 1.0151842617,
				"y": -0.8320548761,
				"z": -0.2448243281,
				"element": "H" 
			}
		],
		 "valence_orbital": [ 
			{
				"type": "occ",
				"energy": -0.31442,
				"method": "rhf"
			},
			{
				"type": "occ",
				"energy": -0.28938,
				"method": "rhf"
			},
			{
				"type": "occ",
				"energy": -0.26433,
				"method": "rhf"
			},
			{
				"type": "occ",
				"energy": -0.24273,
				"method": "rhf"
			},
			{
				"type": "occ",
				"energy": -0.21042,
				"method": "rhf"
			},
			{
				"type": "unocc",
				"energy": -0.0311,
				"method": "rhf"
			},
			{
				"type": "unocc",
				"energy": 0.00182,
				"method": "rhf"
			},
			{
				"type": "unocc",
				"energy": 0.05718,
				"method": "rhf"
			},
			{
				"type": "unocc",
				"energy": 0.07408,
				"method": "rhf"
			},
			{
				"type": "unocc",
				"energy": 0.09306,
				"method": "rhf"
			}
		],
		"cosmo_sigma_profile": { 
			"-0.025": 0.0,
			"-0.024": 0.0,
			"-0.023": 0.0,
			"-0.022": 0.0,
			"-0.021": 0.0,
			"-0.02": 0.0,
			"-0.019": 0.13163035049,
			"-0.018": 1.0148576148,
			"-0.017": 1.19954130732,
			"-0.016": 0.980040830923,
			"-0.015": 1.12395410138,
			"-0.014": 0.700402534293,
			"-0.013": 0.912575156197,
			"-0.012": 1.05811520484,
			"-0.011": 0.972180079624,
			"-0.01": 1.47037223681,
			"-0.009": 0.890712358503,
			"-0.008": 1.16045613466,
			"-0.007": 1.71013150565,
			"-0.006": 4.53505726361,
			"-0.005": 11.8413453023,
			"-0.004": 19.8648679618,
			"-0.003": 22.6937574602,
			"-0.002": 21.5618043778,
			"-0.001": 17.9846191382,
			"0.0": 19.3510263265,
			"0.001": 18.3260946431,
			"0.002": 18.1250339176,
			"0.003": 18.5240697323,
			"0.004": 15.9528239606,
			"0.005": 8.30379013122,
			"0.006": 7.69123888193,
			"0.007": 4.1323628312,
			"0.008": 3.10959672385,
			"0.009": 2.6540063751,
			"0.01": 3.36520520318,
			"0.011": 2.03945264195,
			"0.012": 4.0094239594,
			"0.013": 1.16688429768,
			"0.014": 0.0,
			"0.015": 0.0,
			"0.016": 0.0,
			"0.017": 0.0,
			"0.018": 0.0,
			"0.019": 0.0,
			"0.02": 0.0,
			"0.021": 0.0,
			"0.022": 0.0,
			"0.023": 0.0,
			"0.024": 0.0,
			"0.025": 0.0
		}
	}
}
