{
	 "smiles": "CC12CCC3C(CCC4CC(=O)CCC34C)C1=CCC2=O", 
	 "Tm": 424.15, 
	 "num_atms": 47, 
	 "gaussian": { 
		 "optdone": 1, 
		 "sigma_profile": "yes", 
		 "theory": "DFT", 
		 "functional": "B3LYP", 
		 "basiset": "6-31G**", 
		 "properties": { 
			 "R2extent": 7274.9957, 
			 "electric_dipole_moment_norm": 2.71749731555, 
			 "electric_quadrupole_moment_norm": 25.1499482445, 
			 "total_energy": -890.139269248, 
			 "HOMO_LUMO_gap": 0.21773, 
			 "cosmo_polarized_energy": -13.47, 
			 "cosmo_cavitation_energy": 41.71, 
			 "cosmo_dispersion_energy": -29.41, 
			 "cosmo_repulsion_energy": 2.19, 
			 "cosmo_total_nonelectrostatic_energy": 14.48, 
			 "SMD_solvation_energy": 7.01 
		},
		"coords": [
			{
				"x": 0.2224077669,
				"y": 2.7478336004,
				"z": -3.2162304029,
				"element": "C" 
			},
			{
				"x": -0.8808093554,
				"y": 2.3008574524,
				"z": -2.2248130911,
				"element": "C" 
			},
			{
				"x": -0.5244397015,
				"y": 2.7213718343,
				"z": -0.7786408662,
				"element": "C" 
			},
			{
				"x": 0.5005221802,
				"y": 1.7599166581,
				"z": -0.1499075583,
				"element": "C" 
			},
			{
				"x": -0.0230775791,
				"y": 0.30392748,
				"z": -0.1102497382,
				"element": "C" 
			},
			{
				"x": -0.3489858502,
				"y": -0.2008715603,
				"z": -1.5566838945,
				"element": "C" 
			},
			{
				"x": 0.928235333,
				"y": -0.5757656053,
				"z": -2.3506865944,
				"element": "C" 
			},
			{
				"x": 1.8481590146,
				"y": -1.5333548398,
				"z": -1.5755718379,
				"element": "C" 
			},
			{
				"x": 2.1732260619,
				"y": -0.9658213273,
				"z": -0.1860156788,
				"element": "C" 
			},
			{
				"x": 3.2259882261,
				"y": -1.7667518013,
				"z": 0.5908984288,
				"element": "C" 
			},
			{
				"x": 3.6441785833,
				"y": -1.0622786415,
				"z": 1.8825706131,
				"element": "C" 
			},
			{
				"x": 4.6064425394,
				"y": -1.422160493,
				"z": 2.5322737731,
				"element": "O" 
			},
			{
				"x": 2.7673485042,
				"y": 0.1161004342,
				"z": 2.2884943733,
				"element": "C" 
			},
			{
				"x": 1.2723766195,
				"y": -0.2008343786,
				"z": 2.091744514,
				"element": "C" 
			},
			{
				"x": 0.8838772047,
				"y": -0.7174509756,
				"z": 0.6584930485,
				"element": "C" 
			},
			{
				"x": 0.0818904187,
				"y": -2.0252263948,
				"z": 0.8756934765,
				"element": "C" 
			},
			{
				"x": -1.2198600649,
				"y": 0.8158790587,
				"z": -2.2532836959,
				"element": "C" 
			},
			{
				"x": -2.4214013696,
				"y": 0.5847142988,
				"z": -2.8038605163,
				"element": "C" 
			},
			{
				"x": -3.1243530766,
				"y": 1.8394192128,
				"z": -3.2464175667,
				"element": "C" 
			},
			{
				"x": -2.1998543565,
				"y": 2.9428223956,
				"z": -2.7132492407,
				"element": "C" 
			},
			{
				"x": -2.4482618176,
				"y": 4.1275741372,
				"z": -2.6803977001,
				"element": "O" 
			},
			{
				"x": 0.212472168,
				"y": 3.8400080407,
				"z": -3.2907538757,
				"element": "H" 
			},
			{
				"x": 0.0548606003,
				"y": 2.3316495071,
				"z": -4.2146855688,
				"element": "H" 
			},
			{
				"x": 1.2179606239,
				"y": 2.4391307027,
				"z": -2.8877882798,
				"element": "H" 
			},
			{
				"x": -1.4359755371,
				"y": 2.7167289032,
				"z": -0.1672423052,
				"element": "H" 
			},
			{
				"x": -0.1494181715,
				"y": 3.7504044988,
				"z": -0.7723168519,
				"element": "H" 
			},
			{
				"x": 1.4451186676,
				"y": 1.8197277135,
				"z": -0.7031255748,
				"element": "H" 
			},
			{
				"x": 0.7237164488,
				"y": 2.1084432457,
				"z": 0.8637720941,
				"element": "H" 
			},
			{
				"x": -0.9812264035,
				"y": 0.3403504928,
				"z": 0.4304775831,
				"element": "H" 
			},
			{
				"x": -0.946417383,
				"y": -1.1157074646,
				"z": -1.4671731611,
				"element": "H" 
			},
			{
				"x": 1.4980318249,
				"y": 0.3264794493,
				"z": -2.5973040308,
				"element": "H" 
			},
			{
				"x": 0.6314493159,
				"y": -1.0180824529,
				"z": -3.3086647096,
				"element": "H" 
			},
			{
				"x": 2.7791322129,
				"y": -1.6793287438,
				"z": -2.1377462941,
				"element": "H" 
			},
			{
				"x": 1.3875522377,
				"y": -2.5253378937,
				"z": -1.4893735582,
				"element": "H" 
			},
			{
				"x": 2.6227409963,
				"y": 0.0204554769,
				"z": -0.3690615153,
				"element": "H" 
			},
			{
				"x": 2.8609482798,
				"y": -2.7676576567,
				"z": 0.8579861359,
				"element": "H" 
			},
			{
				"x": 4.1293290465,
				"y": -1.9311042724,
				"z": -0.0083243728,
				"element": "H" 
			},
			{
				"x": 3.0610216168,
				"y": 0.9782067512,
				"z": 1.6730422097,
				"element": "H" 
			},
			{
				"x": 2.9929731253,
				"y": 0.3728121486,
				"z": 3.3269242842,
				"element": "H" 
			},
			{
				"x": 0.6756074291,
				"y": 0.6764756171,
				"z": 2.3608325761,
				"element": "H" 
			},
			{
				"x": 1.0028537753,
				"y": -0.9681789755,
				"z": 2.8260286041,
				"element": "H" 
			},
			{
				"x": -0.798490948,
				"y": -1.8176385572,
				"z": 1.4943415233,
				"element": "H" 
			},
			{
				"x": 0.6785301393,
				"y": -2.7732839847,
				"z": 1.4073487511,
				"element": "H" 
			},
			{
				"x": -0.2707729499,
				"y": -2.4872604061,
				"z": -0.047956336,
				"element": "H" 
			},
			{
				"x": -2.8769759977,
				"y": -0.3988540843,
				"z": -2.8816774189,
				"element": "H" 
			},
			{
				"x": -3.2228985206,
				"y": 1.9393009111,
				"z": -4.3373669343,
				"element": "H" 
			},
			{
				"x": -4.1365318779,
				"y": 1.9548604881,
				"z": -2.8381528197,
				"element": "H" 
			}
		],
		 "valence_orbital": [ 
			{
				"type": "occ",
				"energy": -0.29717,
				"method": "rhf"
			},
			{
				"type": "occ",
				"energy": -0.29488,
				"method": "rhf"
			},
			{
				"type": "occ",
				"energy": -0.24346,
				"method": "rhf"
			},
			{
				"type": "occ",
				"energy": -0.23847,
				"method": "rhf"
			},
			{
				"type": "occ",
				"energy": -0.23601,
				"method": "rhf"
			},
			{
				"type": "unocc",
				"energy": -0.01828,
				"method": "rhf"
			},
			{
				"type": "unocc",
				"energy": -0.01312,
				"method": "rhf"
			},
			{
				"type": "unocc",
				"energy": 0.01079,
				"method": "rhf"
			},
			{
				"type": "unocc",
				"energy": 0.06507,
				"method": "rhf"
			},
			{
				"type": "unocc",
				"energy": 0.073,
				"method": "rhf"
			}
		],
		"cosmo_sigma_profile": { 
			"-0.025": 0.0,
			"-0.024": 0.0,
			"-0.023": 0.0,
			"-0.022": 0.0,
			"-0.021": 0.0,
			"-0.02": 0.0,
			"-0.019": 0.0,
			"-0.018": 0.0,
			"-0.017": 0.0,
			"-0.016": 0.0,
			"-0.015": 0.0,
			"-0.014": 0.0,
			"-0.013": 0.0,
			"-0.012": 0.0,
			"-0.011": 0.0,
			"-0.01": 0.0,
			"-0.009": 0.00282669715994,
			"-0.008": 0.0344777659241,
			"-0.007": 0.147748583494,
			"-0.006": 4.44623810491,
			"-0.005": 15.7447462819,
			"-0.004": 29.2020218817,
			"-0.003": 43.1314702469,
			"-0.002": 52.8933426994,
			"-0.001": 48.7151938136,
			"0.0": 38.19838891,
			"0.001": 24.8061323413,
			"0.002": 10.2643504038,
			"0.003": 5.57172626287,
			"0.004": 5.12987050217,
			"0.005": 5.19947956099,
			"0.006": 3.03429389305,
			"0.007": 3.2210023467,
			"0.008": 3.02819547001,
			"0.009": 3.99273675055,
			"0.01": 3.62888813463,
			"0.011": 5.92050850665,
			"0.012": 8.98453631389,
			"0.013": 5.73805567414,
			"0.014": 1.16762693033,
			"0.015": 0.0,
			"0.016": 0.0,
			"0.017": 0.0,
			"0.018": 0.0,
			"0.019": 0.0,
			"0.02": 0.0,
			"0.021": 0.0,
			"0.022": 0.0,
			"0.023": 0.0,
			"0.024": 0.0,
			"0.025": 0.0
		}
	}
}
