{
	 "smiles": "OC(=O)C(F)(F)C1=CC(Cl)=C(Cl)C=C1", 
	 "Tm": 383.15, 
	 "num_atms": 18, 
	 "gaussian": { 
		 "optdone": 1, 
		 "sigma_profile": "yes", 
		 "theory": "DFT", 
		 "functional": "B3LYP", 
		 "basiset": "6-31G**", 
		 "properties": { 
			 "R2extent": 4970.2585, 
			 "electric_dipole_moment_norm": 1.44625418582, 
			 "electric_quadrupole_moment_norm": 13.2427220733, 
			 "total_energy": -1577.7729883, 
			 "HOMO_LUMO_gap": 0.20676, 
			 "cosmo_polarized_energy": -10.16, 
			 "cosmo_cavitation_energy": 28.06, 
			 "cosmo_dispersion_energy": -20.01, 
			 "cosmo_repulsion_energy": 1.56, 
			 "cosmo_total_nonelectrostatic_energy": 9.6, 
			 "SMD_solvation_energy": 6.31 
		},
		"coords": [
			{
				"x": 2.7974910363,
				"y": -2.99727056,
				"z": -1.1247892247,
				"element": "O" 
			},
			{
				"x": 2.9023783424,
				"y": -1.6896984956,
				"z": -0.8371006114,
				"element": "C" 
			},
			{
				"x": 3.8614859623,
				"y": -1.1607224508,
				"z": -0.3343803999,
				"element": "O" 
			},
			{
				"x": 1.5940665712,
				"y": -0.9385409302,
				"z": -1.1715007668,
				"element": "C" 
			},
			{
				"x": 1.9281191806,
				"y": 0.357389317,
				"z": -1.4201441076,
				"element": "F" 
			},
			{
				"x": 1.0539874296,
				"y": -1.466007512,
				"z": -2.3095825403,
				"element": "F" 
			},
			{
				"x": 0.6069479557,
				"y": -1.0138683055,
				"z": -0.0288314554,
				"element": "C" 
			},
			{
				"x": -0.4000439703,
				"y": -1.9779148817,
				"z": -0.0393561983,
				"element": "C" 
			},
			{
				"x": -1.2945135306,
				"y": -2.0633957958,
				"z": 1.0282603823,
				"element": "C" 
			},
			{
				"x": -2.5472581936,
				"y": -3.2761894269,
				"z": 0.9746433232,
				"element": "Cl" 
			},
			{
				"x": -1.1733219624,
				"y": -1.1822593667,
				"z": 2.1127696068,
				"element": "C" 
			},
			{
				"x": -2.2668550695,
				"y": -1.2529290406,
				"z": 3.4685271769,
				"element": "Cl" 
			},
			{
				"x": -0.156766891,
				"y": -0.2226596037,
				"z": 2.117174814,
				"element": "C" 
			},
			{
				"x": 0.7335825446,
				"y": -0.136908429,
				"z": 1.0524917231,
				"element": "C" 
			},
			{
				"x": 3.6306103892,
				"y": -3.41400684,
				"z": -0.8449660345,
				"element": "H" 
			},
			{
				"x": -0.4995745914,
				"y": -2.6579249972,
				"z": -0.8763314604,
				"element": "H" 
			},
			{
				"x": -0.0755081053,
				"y": 0.4532728213,
				"z": 2.9608482433,
				"element": "H" 
			},
			{
				"x": 1.5199729021,
				"y": 0.6093344975,
				"z": 1.0567675298,
				"element": "H" 
			}
		],
		 "valence_orbital": [ 
			{
				"type": "occ",
				"energy": -0.33817,
				"method": "rhf"
			},
			{
				"type": "occ",
				"energy": -0.3191,
				"method": "rhf"
			},
			{
				"type": "occ",
				"energy": -0.30225,
				"method": "rhf"
			},
			{
				"type": "occ",
				"energy": -0.27678,
				"method": "rhf"
			},
			{
				"type": "occ",
				"energy": -0.26334,
				"method": "rhf"
			},
			{
				"type": "unocc",
				"energy": -0.05658,
				"method": "rhf"
			},
			{
				"type": "unocc",
				"energy": -0.03795,
				"method": "rhf"
			},
			{
				"type": "unocc",
				"energy": -0.00983,
				"method": "rhf"
			},
			{
				"type": "unocc",
				"energy": -0.00513,
				"method": "rhf"
			},
			{
				"type": "unocc",
				"energy": 0.05063,
				"method": "rhf"
			}
		],
		"cosmo_sigma_profile": { 
			"-0.025": 0.0,
			"-0.024": 0.0,
			"-0.023": 0.0,
			"-0.022": 0.0,
			"-0.021": 0.0,
			"-0.02": 0.435572844658,
			"-0.019": 1.10411270465,
			"-0.018": 1.09496310828,
			"-0.017": 0.744347670789,
			"-0.016": 0.639535033742,
			"-0.015": 0.893343010586,
			"-0.014": 0.549899892054,
			"-0.013": 0.948160446034,
			"-0.012": 0.830003191241,
			"-0.011": 0.685040149487,
			"-0.01": 0.379362881881,
			"-0.009": 2.05866916745,
			"-0.008": 5.32463768593,
			"-0.007": 5.49535193275,
			"-0.006": 5.70830484977,
			"-0.005": 6.6179513333,
			"-0.004": 7.69057358458,
			"-0.003": 10.215051087,
			"-0.002": 13.8545431931,
			"-0.001": 21.0252616754,
			"0.0": 30.5136683941,
			"0.001": 20.7552129925,
			"0.002": 20.0139432792,
			"0.003": 31.8454866855,
			"0.004": 16.6406148738,
			"0.005": 5.65779468442,
			"0.006": 3.49830864386,
			"0.007": 3.11839727928,
			"0.008": 2.37835282254,
			"0.009": 2.93114509939,
			"0.01": 5.00782569065,
			"0.011": 1.35707342908,
			"0.012": 0.0,
			"0.013": 0.0,
			"0.014": 0.0,
			"0.015": 0.0,
			"0.016": 0.0,
			"0.017": 0.0,
			"0.018": 0.0,
			"0.019": 0.0,
			"0.02": 0.0,
			"0.021": 0.0,
			"0.022": 0.0,
			"0.023": 0.0,
			"0.024": 0.0,
			"0.025": 0.0
		}
	}
}
