{
	 "smiles": "CNC1=NC2=C(C=CC=C2)C(=C1)C(O)=O", 
	 "Tm": 620.15, 
	 "num_atms": 25, 
	 "gaussian": { 
		 "optdone": 1, 
		 "sigma_profile": "yes", 
		 "theory": "DFT", 
		 "functional": "B3LYP", 
		 "basiset": "6-31G**", 
		 "properties": { 
			 "R2extent": 3414.8903, 
			 "electric_dipole_moment_norm": 4.76795624246, 
			 "electric_quadrupole_moment_norm": 20.715497596, 
			 "total_energy": -685.168584927, 
			 "HOMO_LUMO_gap": 0.14511, 
			 "cosmo_polarized_energy": -18.82, 
			 "cosmo_cavitation_energy": 29.19, 
			 "cosmo_dispersion_energy": -21.63, 
			 "cosmo_repulsion_energy": 1.69, 
			 "cosmo_total_nonelectrostatic_energy": 9.25, 
			 "SMD_solvation_energy": 4.29 
		},
		"coords": [
			{
				"x": -3.1375271596,
				"y": -0.9966867795,
				"z": 1.5820692397,
				"element": "C" 
			},
			{
				"x": -1.7083822079,
				"y": -1.2498547153,
				"z": 1.6190240826,
				"element": "N" 
			},
			{
				"x": -0.8241651177,
				"y": -0.5120725798,
				"z": 0.874085246,
				"element": "C" 
			},
			{
				"x": -1.3086832849,
				"y": 0.346345606,
				"z": -0.0056349795,
				"element": "N" 
			},
			{
				"x": -0.4343117315,
				"y": 1.0368901278,
				"z": -0.7940067395,
				"element": "C" 
			},
			{
				"x": 0.9895397381,
				"y": 0.8875737446,
				"z": -0.7154673752,
				"element": "C" 
			},
			{
				"x": 1.8160512852,
				"y": 1.650471758,
				"z": -1.5799463954,
				"element": "C" 
			},
			{
				"x": 1.2570759976,
				"y": 2.5282581976,
				"z": -2.4850623286,
				"element": "C" 
			},
			{
				"x": -0.146206547,
				"y": 2.6797698657,
				"z": -2.561355764,
				"element": "C" 
			},
			{
				"x": -0.9739169713,
				"y": 1.9511502917,
				"z": -1.735332593,
				"element": "C" 
			},
			{
				"x": 1.4782957199,
				"y": -0.0250744774,
				"z": 0.278112487,
				"element": "C" 
			},
			{
				"x": 0.5824584447,
				"y": -0.7154679683,
				"z": 1.0600337418,
				"element": "C" 
			},
			{
				"x": 2.9514090533,
				"y": -0.2800139027,
				"z": 0.4590767159,
				"element": "C" 
			},
			{
				"x": 3.355390409,
				"y": -0.4590582517,
				"z": 1.7462729758,
				"element": "O" 
			},
			{
				"x": 3.7524723312,
				"y": -0.3526303529,
				"z": -0.4409372033,
				"element": "O" 
			},
			{
				"x": -3.6438409001,
				"y": -1.7680943087,
				"z": 2.1665800157,
				"element": "H" 
			},
			{
				"x": -3.4945323675,
				"y": -1.038500366,
				"z": 0.550752292,
				"element": "H" 
			},
			{
				"x": -3.4008919967,
				"y": -0.00933042,
				"z": 1.9843701348,
				"element": "H" 
			},
			{
				"x": -1.3396128421,
				"y": -1.7358842325,
				"z": 2.4207042711,
				"element": "H" 
			},
			{
				"x": 2.8898336149,
				"y": 1.5191164097,
				"z": -1.5325331245,
				"element": "H" 
			},
			{
				"x": 1.8989220991,
				"y": 3.1038856504,
				"z": -3.1450498208,
				"element": "H" 
			},
			{
				"x": -0.5734745307,
				"y": 3.3751422653,
				"z": -3.2785138956,
				"element": "H" 
			},
			{
				"x": -2.0537346447,
				"y": 2.0488183952,
				"z": -1.7755175325,
				"element": "H" 
			},
			{
				"x": 0.9239384042,
				"y": -1.4525781539,
				"z": 1.782809362,
				"element": "H" 
			},
			{
				"x": 2.6297932043,
				"y": -0.2323758033,
				"z": 2.3455671874,
				"element": "H" 
			}
		],
		 "valence_orbital": [ 
			{
				"type": "occ",
				"energy": -0.28634,
				"method": "rhf"
			},
			{
				"type": "occ",
				"energy": -0.28062,
				"method": "rhf"
			},
			{
				"type": "occ",
				"energy": -0.25919,
				"method": "rhf"
			},
			{
				"type": "occ",
				"energy": -0.23947,
				"method": "rhf"
			},
			{
				"type": "occ",
				"energy": -0.21126,
				"method": "rhf"
			},
			{
				"type": "unocc",
				"energy": -0.06615,
				"method": "rhf"
			},
			{
				"type": "unocc",
				"energy": -0.01153,
				"method": "rhf"
			},
			{
				"type": "unocc",
				"energy": -0.00169,
				"method": "rhf"
			},
			{
				"type": "unocc",
				"energy": 0.04681,
				"method": "rhf"
			},
			{
				"type": "unocc",
				"energy": 0.06315,
				"method": "rhf"
			}
		],
		"cosmo_sigma_profile": { 
			"-0.025": 0.0,
			"-0.024": 0.0,
			"-0.023": 0.0,
			"-0.022": 0.0,
			"-0.021": 0.0,
			"-0.02": 0.0,
			"-0.019": 0.0417868902305,
			"-0.018": 0.690590715472,
			"-0.017": 0.912439204403,
			"-0.016": 0.948099914252,
			"-0.015": 1.28079884849,
			"-0.014": 2.51141913647,
			"-0.013": 3.07583187842,
			"-0.012": 2.67587476713,
			"-0.011": 2.56988974326,
			"-0.01": 3.75297838153,
			"-0.009": 3.18114352352,
			"-0.008": 2.641964204,
			"-0.007": 2.77551572934,
			"-0.006": 7.0945222965,
			"-0.005": 11.1050240342,
			"-0.004": 15.6149932192,
			"-0.003": 16.4368531844,
			"-0.002": 16.4079295029,
			"-0.001": 15.8838700178,
			"0.0": 13.9932243939,
			"0.001": 13.3136470176,
			"0.002": 13.2148659973,
			"0.003": 13.6658392373,
			"0.004": 18.7040937507,
			"0.005": 13.2233324586,
			"0.006": 4.73072951061,
			"0.007": 5.59378208915,
			"0.008": 4.66346344649,
			"0.009": 5.82245164292,
			"0.01": 6.53407156086,
			"0.011": 5.98001736358,
			"0.012": 3.24904730071,
			"0.013": 0.967030589306,
			"0.014": 0.0316067622136,
			"0.015": 0.0,
			"0.016": 0.0,
			"0.017": 0.0,
			"0.018": 0.0,
			"0.019": 0.0,
			"0.02": 0.0,
			"0.021": 0.0,
			"0.022": 0.0,
			"0.023": 0.0,
			"0.024": 0.0,
			"0.025": 0.0
		}
	}
}
