{
	 "smiles": "CCC(Br)C(=O)C1=CC=C(NC(C)=O)C=C1", 
	 "Tm": 381.15, 
	 "num_atms": 30, 
	 "gaussian": { 
		 "optdone": 1, 
		 "sigma_profile": "yes", 
		 "theory": "DFT", 
		 "functional": "B3LYP", 
		 "basiset": "6-31G**", 
		 "properties": { 
			 "R2extent": 8684.6983, 
			 "electric_dipole_moment_norm": 2.02734803623, 
			 "electric_quadrupole_moment_norm": 22.5845546974, 
			 "total_energy": -3242.34279726, 
			 "HOMO_LUMO_gap": 0.16279, 
			 "cosmo_polarized_energy": -15.47, 
			 "cosmo_cavitation_energy": 35.54, 
			 "cosmo_dispersion_energy": -25.45, 
			 "cosmo_repulsion_energy": 1.99, 
			 "cosmo_total_nonelectrostatic_energy": 12.08, 
			 "SMD_solvation_energy": 6.21 
		},
		"coords": [
			{
				"x": 2.2801643425,
				"y": 2.8985769883,
				"z": -1.878879826,
				"element": "C" 
			},
			{
				"x": 0.9450507597,
				"y": 3.1037472409,
				"z": -2.6108094951,
				"element": "C" 
			},
			{
				"x": -0.1800847778,
				"y": 3.4807969504,
				"z": -1.6427693506,
				"element": "C" 
			},
			{
				"x": -1.8564919612,
				"y": 3.9288099604,
				"z": -2.6431292847,
				"element": "Br" 
			},
			{
				"x": -0.4648047327,
				"y": 2.4684513577,
				"z": -0.5226700779,
				"element": "C" 
			},
			{
				"x": -0.2436703854,
				"y": 2.8471699651,
				"z": 0.6204497297,
				"element": "O" 
			},
			{
				"x": -0.8939940173,
				"y": 1.0675028949,
				"z": -0.7911386982,
				"element": "C" 
			},
			{
				"x": -0.9019545734,
				"y": 0.1808684187,
				"z": 0.2981179025,
				"element": "C" 
			},
			{
				"x": -1.2645500952,
				"y": -1.1519734523,
				"z": 0.1620273734,
				"element": "C" 
			},
			{
				"x": -1.644640499,
				"y": -1.6537183739,
				"z": -1.0976387612,
				"element": "C" 
			},
			{
				"x": -2.0309483914,
				"y": -2.9702606239,
				"z": -1.3681782796,
				"element": "N" 
			},
			{
				"x": -2.1629631864,
				"y": -4.1514650565,
				"z": -0.6390287984,
				"element": "C" 
			},
			{
				"x": -1.8416731971,
				"y": -4.1746350151,
				"z": 0.8385189361,
				"element": "C" 
			},
			{
				"x": -2.5409240501,
				"y": -5.1489922788,
				"z": -1.2336768901,
				"element": "O" 
			},
			{
				"x": -1.6472760786,
				"y": -0.7646258324,
				"z": -2.1923986302,
				"element": "C" 
			},
			{
				"x": -1.2820654101,
				"y": 0.5641923727,
				"z": -2.0455249429,
				"element": "C" 
			},
			{
				"x": 3.074524311,
				"y": 2.6850371641,
				"z": -2.6002175245,
				"element": "H" 
			},
			{
				"x": 2.5676987212,
				"y": 3.7921054415,
				"z": -1.3154112702,
				"element": "H" 
			},
			{
				"x": 2.2338480919,
				"y": 2.0617122195,
				"z": -1.1753578283,
				"element": "H" 
			},
			{
				"x": 1.0417868699,
				"y": 3.9104832017,
				"z": -3.3443640796,
				"element": "H" 
			},
			{
				"x": 0.6822002045,
				"y": 2.2003233588,
				"z": -3.1681863893,
				"element": "H" 
			},
			{
				"x": 0.0535211609,
				"y": 4.4127025665,
				"z": -1.1297731413,
				"element": "H" 
			},
			{
				"x": -0.6110006579,
				"y": 0.5661889423,
				"z": 1.2694098583,
				"element": "H" 
			},
			{
				"x": -1.2487878654,
				"y": -1.7837635306,
				"z": 1.0370015442,
				"element": "H" 
			},
			{
				"x": -2.2854399536,
				"y": -3.1474480676,
				"z": -2.3333248155,
				"element": "H" 
			},
			{
				"x": -2.4926012345,
				"y": -3.4969270797,
				"z": 1.3993904929,
				"element": "H" 
			},
			{
				"x": -2.0017681619,
				"y": -5.1944431909,
				"z": 1.1870606914,
				"element": "H" 
			},
			{
				"x": -0.8029014131,
				"y": -3.8874886682,
				"z": 1.0277735416,
				"element": "H" 
			},
			{
				"x": -1.950375474,
				"y": -1.1298667649,
				"z": -3.1703532073,
				"element": "H" 
			},
			{
				"x": -1.3319783454,
				"y": 1.2146388913,
				"z": -2.9097187796,
				"element": "H" 
			}
		],
		 "valence_orbital": [ 
			{
				"type": "occ",
				"energy": -0.27998,
				"method": "rhf"
			},
			{
				"type": "occ",
				"energy": -0.27256,
				"method": "rhf"
			},
			{
				"type": "occ",
				"energy": -0.26965,
				"method": "rhf"
			},
			{
				"type": "occ",
				"energy": -0.25602,
				"method": "rhf"
			},
			{
				"type": "occ",
				"energy": -0.23485,
				"method": "rhf"
			},
			{
				"type": "unocc",
				"energy": -0.07206,
				"method": "rhf"
			},
			{
				"type": "unocc",
				"energy": -0.02249,
				"method": "rhf"
			},
			{
				"type": "unocc",
				"energy": -0.01907,
				"method": "rhf"
			},
			{
				"type": "unocc",
				"energy": 0.01158,
				"method": "rhf"
			},
			{
				"type": "unocc",
				"energy": 0.05305,
				"method": "rhf"
			}
		],
		"cosmo_sigma_profile": { 
			"-0.025": 0.0,
			"-0.024": 0.0,
			"-0.023": 0.0,
			"-0.022": 0.0,
			"-0.021": 0.0,
			"-0.02": 0.0,
			"-0.019": 0.0,
			"-0.018": 0.0,
			"-0.017": 0.0,
			"-0.016": 0.0,
			"-0.015": 0.394741859844,
			"-0.014": 0.933715260725,
			"-0.013": 1.42521338756,
			"-0.012": 1.13002597914,
			"-0.011": 0.841269361515,
			"-0.01": 1.21118649943,
			"-0.009": 1.11362230015,
			"-0.008": 2.60322316705,
			"-0.007": 10.2408227098,
			"-0.006": 14.6222739074,
			"-0.005": 16.8839803922,
			"-0.004": 20.1828602643,
			"-0.003": 23.2298870469,
			"-0.002": 27.0035636229,
			"-0.001": 23.1571074103,
			"0.0": 23.5608055796,
			"0.001": 18.828967505,
			"0.002": 18.4925436438,
			"0.003": 21.7621476503,
			"0.004": 11.0797780957,
			"0.005": 10.4158310404,
			"0.006": 5.56045044322,
			"0.007": 2.79337626241,
			"0.008": 2.61576787277,
			"0.009": 3.48489582223,
			"0.01": 3.52257161909,
			"0.011": 5.4023963667,
			"0.012": 6.78042449502,
			"0.013": 4.42353855075,
			"0.014": 1.05410927982,
			"0.015": 0.0,
			"0.016": 0.0,
			"0.017": 0.0,
			"0.018": 0.0,
			"0.019": 0.0,
			"0.02": 0.0,
			"0.021": 0.0,
			"0.022": 0.0,
			"0.023": 0.0,
			"0.024": 0.0,
			"0.025": 0.0
		}
	}
}
