{
	 "smiles": "ClC1=CC(C2=CC=CC=C12)C1=CC=CC=C1", 
	 "Tm": 354.15, 
	 "num_atms": 27, 
	 "gaussian": { 
		 "optdone": 1, 
		 "sigma_profile": "yes", 
		 "theory": "DFT", 
		 "functional": "B3LYP", 
		 "basiset": "6-31G**", 
		 "properties": { 
			 "R2extent": 4257.4727, 
			 "electric_dipole_moment_norm": 1.90987973967, 
			 "electric_quadrupole_moment_norm": 5.28055571697, 
			 "total_energy": -1038.41093005, 
			 "HOMO_LUMO_gap": 0.18713, 
			 "cosmo_polarized_energy": -6.02, 
			 "cosmo_cavitation_energy": 32.61, 
			 "cosmo_dispersion_energy": -23.16, 
			 "cosmo_repulsion_energy": 1.81, 
			 "cosmo_total_nonelectrostatic_energy": 11.26, 
			 "SMD_solvation_energy": 4.81 
		},
		"coords": [
			{
				"x": -1.4849752777,
				"y": -3.1991744714,
				"z": -1.0848473084,
				"element": "Cl" 
			},
			{
				"x": -1.1108998569,
				"y": -1.5331727535,
				"z": -0.7361314504,
				"element": "C" 
			},
			{
				"x": -0.9104155666,
				"y": -0.5599427727,
				"z": -1.6415384272,
				"element": "C" 
			},
			{
				"x": -0.6304783915,
				"y": 0.7546152697,
				"z": -0.9328461995,
				"element": "C" 
			},
			{
				"x": -0.6738350135,
				"y": 0.3456119761,
				"z": 0.5353611943,
				"element": "C" 
			},
			{
				"x": -0.4770809562,
				"y": 1.1039249367,
				"z": 1.6815003231,
				"element": "C" 
			},
			{
				"x": -0.5960628887,
				"y": 0.4793683081,
				"z": 2.9301807119,
				"element": "C" 
			},
			{
				"x": -0.9080082583,
				"y": -0.8812238513,
				"z": 3.0230845648,
				"element": "C" 
			},
			{
				"x": -1.1039348524,
				"y": -1.6513662136,
				"z": 1.8726412308,
				"element": "C" 
			},
			{
				"x": -0.9799597477,
				"y": -1.0255337831,
				"z": 0.6341409056,
				"element": "C" 
			},
			{
				"x": 0.6521733353,
				"y": 1.4499369641,
				"z": -1.3720625513,
				"element": "C" 
			},
			{
				"x": 1.8832535012,
				"y": 0.780140802,
				"z": -1.3182926082,
				"element": "C" 
			},
			{
				"x": 3.0561901458,
				"y": 1.4195756559,
				"z": -1.7139697983,
				"element": "C" 
			},
			{
				"x": 3.0185979426,
				"y": 2.7404835129,
				"z": -2.1706324189,
				"element": "C" 
			},
			{
				"x": 1.7995920259,
				"y": 3.4146425818,
				"z": -2.2281560708,
				"element": "C" 
			},
			{
				"x": 0.6243356062,
				"y": 2.7708451882,
				"z": -1.8314981209,
				"element": "C" 
			},
			{
				"x": -0.9443573102,
				"y": -0.6641613157,
				"z": -2.7180435386,
				"element": "H" 
			},
			{
				"x": -1.4665561861,
				"y": 1.4424619923,
				"z": -1.1315013001,
				"element": "H" 
			},
			{
				"x": -0.2272397294,
				"y": 2.1592328942,
				"z": 1.6135792143,
				"element": "H" 
			},
			{
				"x": -0.4423924947,
				"y": 1.0579815095,
				"z": 3.8364343927,
				"element": "H" 
			},
			{
				"x": -0.9967866946,
				"y": -1.3457173405,
				"z": 4.0008844353,
				"element": "H" 
			},
			{
				"x": -1.3446318126,
				"y": -2.7078608159,
				"z": 1.9391526611,
				"element": "H" 
			},
			{
				"x": 1.9166917032,
				"y": -0.2465826274,
				"z": -0.9643363438,
				"element": "H" 
			},
			{
				"x": 4.0020306401,
				"y": 0.8871544331,
				"z": -1.6669213665,
				"element": "H" 
			},
			{
				"x": 3.9335715971,
				"y": 3.2376119052,
				"z": -2.4796274487,
				"element": "H" 
			},
			{
				"x": 1.758802368,
				"y": 4.440721443,
				"z": -2.582799084,
				"element": "H" 
			},
			{
				"x": -0.3239238282,
				"y": 3.3008265724,
				"z": -1.8818555983,
				"element": "H" 
			}
		],
		 "valence_orbital": [ 
			{
				"type": "occ",
				"energy": -0.28059,
				"method": "rhf"
			},
			{
				"type": "occ",
				"energy": -0.25612,
				"method": "rhf"
			},
			{
				"type": "occ",
				"energy": -0.25192,
				"method": "rhf"
			},
			{
				"type": "occ",
				"energy": -0.24399,
				"method": "rhf"
			},
			{
				"type": "occ",
				"energy": -0.22004,
				"method": "rhf"
			},
			{
				"type": "unocc",
				"energy": -0.03291,
				"method": "rhf"
			},
			{
				"type": "unocc",
				"energy": -0.00976,
				"method": "rhf"
			},
			{
				"type": "unocc",
				"energy": -0.00641,
				"method": "rhf"
			},
			{
				"type": "unocc",
				"energy": 0.00085,
				"method": "rhf"
			},
			{
				"type": "unocc",
				"energy": 0.04404,
				"method": "rhf"
			}
		],
		"cosmo_sigma_profile": { 
			"-0.025": 0.0,
			"-0.024": 0.0,
			"-0.023": 0.0,
			"-0.022": 0.0,
			"-0.021": 0.0,
			"-0.02": 0.0,
			"-0.019": 0.0,
			"-0.018": 0.0,
			"-0.017": 0.0,
			"-0.016": 0.0,
			"-0.015": 0.0,
			"-0.014": 0.0,
			"-0.013": 0.0,
			"-0.012": 0.0,
			"-0.011": 0.0,
			"-0.01": 0.0,
			"-0.009": 0.0,
			"-0.008": 0.600785257244,
			"-0.007": 2.76363734747,
			"-0.006": 11.4219982499,
			"-0.005": 21.8020123156,
			"-0.004": 21.5500319113,
			"-0.003": 23.3626077142,
			"-0.002": 18.7187667883,
			"-0.001": 17.7929476978,
			"0.0": 18.5265920337,
			"0.001": 22.9320471187,
			"0.002": 22.5548159787,
			"0.003": 25.4601529367,
			"0.004": 24.5099595935,
			"0.005": 21.8395995767,
			"0.006": 9.83558667601,
			"0.007": 0.279071694184,
			"0.008": 0.0,
			"0.009": 0.0,
			"0.01": 0.0,
			"0.011": 0.0,
			"0.012": 0.0,
			"0.013": 0.0,
			"0.014": 0.0,
			"0.015": 0.0,
			"0.016": 0.0,
			"0.017": 0.0,
			"0.018": 0.0,
			"0.019": 0.0,
			"0.02": 0.0,
			"0.021": 0.0,
			"0.022": 0.0,
			"0.023": 0.0,
			"0.024": 0.0,
			"0.025": 0.0
		}
	}
}
