{
	 "smiles": "[O-][N+](=O)C1=CC=CS1", 
	 "Tm": 318.35, 
	 "num_atms": 11, 
	 "gaussian": { 
		 "optdone": 1, 
		 "sigma_profile": "yes", 
		 "theory": "DFT", 
		 "functional": "B3LYP", 
		 "basiset": "6-31G**", 
		 "properties": { 
			 "R2extent": 1469.8565, 
			 "electric_dipole_moment_norm": 4.8847975608, 
			 "electric_quadrupole_moment_norm": 7.62841646346, 
			 "total_energy": -757.494034262, 
			 "HOMO_LUMO_gap": 0.17403, 
			 "cosmo_polarized_energy": -8.69, 
			 "cosmo_cavitation_energy": 17.73, 
			 "cosmo_dispersion_energy": -13.84, 
			 "cosmo_repulsion_energy": 1.1, 
			 "cosmo_total_nonelectrostatic_energy": 4.99, 
			 "SMD_solvation_energy": 5.64 
		},
		"coords": [
			{
				"x": -0.3054014118,
				"y": -1.7827216852,
				"z": -2.6145740138,
				"element": "O" 
			},
			{
				"x": -0.8718729759,
				"y": -0.953071785,
				"z": -1.8964833356,
				"element": "N" 
			},
			{
				"x": -1.5914815737,
				"y": -0.0354683775,
				"z": -2.2928097449,
				"element": "O" 
			},
			{
				"x": -0.6729824862,
				"y": -1.0703799444,
				"z": -0.4798182311,
				"element": "C" 
			},
			{
				"x": -1.2073885708,
				"y": -0.2576297113,
				"z": 0.4876984053,
				"element": "C" 
			},
			{
				"x": -0.8001662489,
				"y": -0.6649708509,
				"z": 1.785089231,
				"element": "C" 
			},
			{
				"x": 0.0234726649,
				"y": -1.7649875659,
				"z": 1.7585337668,
				"element": "C" 
			},
			{
				"x": 0.3281144652,
				"y": -2.3377684211,
				"z": 0.1564413422,
				"element": "S" 
			},
			{
				"x": -1.8533975803,
				"y": 0.5788809355,
				"z": 0.2562432586,
				"element": "H" 
			},
			{
				"x": -1.102667206,
				"y": -0.1668404599,
				"z": 2.6983896539,
				"element": "H" 
			},
			{
				"x": 0.4721709237,
				"y": -2.2750421343,
				"z": 2.6004896676,
				"element": "H" 
			}
		],
		 "valence_orbital": [ 
			{
				"type": "occ",
				"energy": -0.31202,
				"method": "rhf"
			},
			{
				"type": "occ",
				"energy": -0.31151,
				"method": "rhf"
			},
			{
				"type": "occ",
				"energy": -0.29419,
				"method": "rhf"
			},
			{
				"type": "occ",
				"energy": -0.28394,
				"method": "rhf"
			},
			{
				"type": "occ",
				"energy": -0.27143,
				"method": "rhf"
			},
			{
				"type": "unocc",
				"energy": -0.0974,
				"method": "rhf"
			},
			{
				"type": "unocc",
				"energy": -0.01291,
				"method": "rhf"
			},
			{
				"type": "unocc",
				"energy": 0.00539,
				"method": "rhf"
			},
			{
				"type": "unocc",
				"energy": 0.04781,
				"method": "rhf"
			},
			{
				"type": "unocc",
				"energy": 0.07895,
				"method": "rhf"
			}
		],
		"cosmo_sigma_profile": { 
			"-0.025": 0.0,
			"-0.024": 0.0,
			"-0.023": 0.0,
			"-0.022": 0.0,
			"-0.021": 0.0,
			"-0.02": 0.0,
			"-0.019": 0.0,
			"-0.018": 0.0,
			"-0.017": 0.0,
			"-0.016": 0.0,
			"-0.015": 0.0,
			"-0.014": 0.0,
			"-0.013": 0.0,
			"-0.012": 0.0,
			"-0.011": 0.0662165771957,
			"-0.01": 2.50634192359,
			"-0.009": 3.85707381713,
			"-0.008": 5.47995313725,
			"-0.007": 5.32136963762,
			"-0.006": 7.63781122197,
			"-0.005": 7.08745830145,
			"-0.004": 6.5304169058,
			"-0.003": 6.82284654448,
			"-0.002": 7.98110956348,
			"-0.001": 11.5705826808,
			"0.0": 16.2013982446,
			"0.001": 15.7242844511,
			"0.002": 11.2414374894,
			"0.003": 3.33041577284,
			"0.004": 2.48720795863,
			"0.005": 2.89554489066,
			"0.006": 3.95365119704,
			"0.007": 7.62887235146,
			"0.008": 9.30069101011,
			"0.009": 4.54015540408,
			"0.01": 2.89752537072,
			"0.011": 0.233009327547,
			"0.012": 0.0,
			"0.013": 0.0,
			"0.014": 0.0,
			"0.015": 0.0,
			"0.016": 0.0,
			"0.017": 0.0,
			"0.018": 0.0,
			"0.019": 0.0,
			"0.02": 0.0,
			"0.021": 0.0,
			"0.022": 0.0,
			"0.023": 0.0,
			"0.024": 0.0,
			"0.025": 0.0
		}
	}
}
