{
	 "smiles": "COC(=O)C1=C(Cl)C(C)=CS1", 
	 "Tm": 350.15, 
	 "num_atms": 18, 
	 "gaussian": { 
		 "optdone": 1, 
		 "sigma_profile": "yes", 
		 "theory": "DFT", 
		 "functional": "B3LYP", 
		 "basiset": "6-31G**", 
		 "properties": { 
			 "R2extent": 2662.2246, 
			 "electric_dipole_moment_norm": 2.72081746723, 
			 "electric_quadrupole_moment_norm": 13.1419749775, 
			 "total_energy": -1279.78772644, 
			 "HOMO_LUMO_gap": 0.18953, 
			 "cosmo_polarized_energy": -8.58, 
			 "cosmo_cavitation_energy": 25.68, 
			 "cosmo_dispersion_energy": -19.44, 
			 "cosmo_repulsion_energy": 1.53, 
			 "cosmo_total_nonelectrostatic_energy": 7.76, 
			 "SMD_solvation_energy": 5.82 
		},
		"coords": [
			{
				"x": -4.0039965894,
				"y": 0.1067690764,
				"z": -0.9336092241,
				"element": "C" 
			},
			{
				"x": -2.6220505184,
				"y": -0.0096466175,
				"z": -1.3039719627,
				"element": "O" 
			},
			{
				"x": -1.7836641813,
				"y": -0.3740203767,
				"z": -0.3001538997,
				"element": "C" 
			},
			{
				"x": -2.1514299539,
				"y": -0.5910052215,
				"z": 0.8353478941,
				"element": "O" 
			},
			{
				"x": -0.3983770534,
				"y": -0.4625824024,
				"z": -0.7890946083,
				"element": "C" 
			},
			{
				"x": 0.7466165179,
				"y": -0.7988653094,
				"z": -0.0948362886,
				"element": "C" 
			},
			{
				"x": 0.792851217,
				"y": -1.2097386138,
				"z": 1.5916435037,
				"element": "Cl" 
			},
			{
				"x": 1.9455126515,
				"y": -0.7888201687,
				"z": -0.8798380249,
				"element": "C" 
			},
			{
				"x": 3.3105938856,
				"y": -1.1187281759,
				"z": -0.348472245,
				"element": "C" 
			},
			{
				"x": 1.6646341795,
				"y": -0.4368368129,
				"z": -2.1753301565,
				"element": "C" 
			},
			{
				"x": -0.0083691225,
				"y": -0.1211715918,
				"z": -2.4563262786,
				"element": "S" 
			},
			{
				"x": -4.3849286629,
				"y": -0.8484866628,
				"z": -0.5636888454,
				"element": "H" 
			},
			{
				"x": -4.1311372762,
				"y": 0.8625893799,
				"z": -0.1544853989,
				"element": "H" 
			},
			{
				"x": -4.5272260266,
				"y": 0.4018343215,
				"z": -1.842892695,
				"element": "H" 
			},
			{
				"x": 3.342246045,
				"y": -2.1353560137,
				"z": 0.05758122,
				"element": "H" 
			},
			{
				"x": 4.0624832894,
				"y": -1.0413452255,
				"z": -1.1374901295,
				"element": "H" 
			},
			{
				"x": 3.5938221863,
				"y": -0.4406043472,
				"z": 0.4635305827,
				"element": "H" 
			},
			{
				"x": 2.3723194126,
				"y": -0.346985238,
				"z": -2.9890134434,
				"element": "H" 
			}
		],
		 "valence_orbital": [ 
			{
				"type": "occ",
				"energy": -0.31533,
				"method": "rhf"
			},
			{
				"type": "occ",
				"energy": -0.30342,
				"method": "rhf"
			},
			{
				"type": "occ",
				"energy": -0.27303,
				"method": "rhf"
			},
			{
				"type": "occ",
				"energy": -0.2513,
				"method": "rhf"
			},
			{
				"type": "occ",
				"energy": -0.24638,
				"method": "rhf"
			},
			{
				"type": "unocc",
				"energy": -0.05685,
				"method": "rhf"
			},
			{
				"type": "unocc",
				"energy": 0.00842,
				"method": "rhf"
			},
			{
				"type": "unocc",
				"energy": 0.02678,
				"method": "rhf"
			},
			{
				"type": "unocc",
				"energy": 0.05201,
				"method": "rhf"
			},
			{
				"type": "unocc",
				"energy": 0.0839,
				"method": "rhf"
			}
		],
		"cosmo_sigma_profile": { 
			"-0.025": 0.0,
			"-0.024": 0.0,
			"-0.023": 0.0,
			"-0.022": 0.0,
			"-0.021": 0.0,
			"-0.02": 0.0,
			"-0.019": 0.0,
			"-0.018": 0.0,
			"-0.017": 0.0,
			"-0.016": 0.0,
			"-0.015": 0.0,
			"-0.014": 0.0,
			"-0.013": 0.0,
			"-0.012": 0.0,
			"-0.011": 0.0,
			"-0.01": 0.433201343801,
			"-0.009": 2.49465202953,
			"-0.008": 1.99707447174,
			"-0.007": 3.69327790587,
			"-0.006": 7.56477840922,
			"-0.005": 12.8967277597,
			"-0.004": 16.2620247372,
			"-0.003": 18.4006344502,
			"-0.002": 16.1052993011,
			"-0.001": 19.5328227985,
			"0.0": 19.2451151526,
			"0.001": 21.6569184471,
			"0.002": 19.7051604225,
			"0.003": 16.0833385915,
			"0.004": 7.95732854909,
			"0.005": 4.87933524037,
			"0.006": 4.11633094195,
			"0.007": 2.14775048836,
			"0.008": 1.81634909502,
			"0.009": 1.39289143354,
			"0.01": 2.68347386633,
			"0.011": 3.92855214006,
			"0.012": 4.12622142579,
			"0.013": 0.0442174559011,
			"0.014": 0.0,
			"0.015": 0.0,
			"0.016": 0.0,
			"0.017": 0.0,
			"0.018": 0.0,
			"0.019": 0.0,
			"0.02": 0.0,
			"0.021": 0.0,
			"0.022": 0.0,
			"0.023": 0.0,
			"0.024": 0.0,
			"0.025": 0.0
		}
	}
}
