{
	 "smiles": "NC1CCCCC1O", 
	 "Tm": 436.15, 
	 "num_atms": 21, 
	 "gaussian": { 
		 "optdone": 1, 
		 "sigma_profile": "yes", 
		 "theory": "DFT", 
		 "functional": "B3LYP", 
		 "basiset": "6-31G**", 
		 "properties": { 
			 "R2extent": 1050.1364, 
			 "electric_dipole_moment_norm": 2.47800753227, 
			 "electric_quadrupole_moment_norm": 6.4790369431, 
			 "total_energy": -366.450926292, 
			 "HOMO_LUMO_gap": 0.30034, 
			 "cosmo_polarized_energy": -9.01, 
			 "cosmo_cavitation_energy": 21.19, 
			 "cosmo_dispersion_energy": -16.2, 
			 "cosmo_repulsion_energy": 1.36, 
			 "cosmo_total_nonelectrostatic_energy": 6.35, 
			 "SMD_solvation_energy": 2.41 
		},
		"coords": [
			{
				"x": 1.416206737,
				"y": -0.6064160107,
				"z": -1.3956268323,
				"element": "N" 
			},
			{
				"x": 1.6370050297,
				"y": -0.0047490417,
				"z": -0.0762789049,
				"element": "C" 
			},
			{
				"x": 1.4431922231,
				"y": -1.0579487317,
				"z": 1.0280176075,
				"element": "C" 
			},
			{
				"x": -0.0103005833,
				"y": -1.5462238616,
				"z": 1.1241118086,
				"element": "C" 
			},
			{
				"x": -0.9721358508,
				"y": -0.3658477864,
				"z": 1.3296160261,
				"element": "C" 
			},
			{
				"x": -0.799210884,
				"y": 0.6896638209,
				"z": 0.2265737498,
				"element": "C" 
			},
			{
				"x": 0.6492487028,
				"y": 1.1700994913,
				"z": 0.111952802,
				"element": "C" 
			},
			{
				"x": 0.9518199522,
				"y": 1.8946118208,
				"z": 1.304566147,
				"element": "O" 
			},
			{
				"x": 2.0585716876,
				"y": -1.3821623926,
				"z": -1.5363031437,
				"element": "H" 
			},
			{
				"x": 1.611562875,
				"y": 0.0701284905,
				"z": -2.1301520886,
				"element": "H" 
			},
			{
				"x": 2.6589098672,
				"y": 0.415186802,
				"z": 0.0301950274,
				"element": "H" 
			},
			{
				"x": 2.1265447995,
				"y": -1.9002147053,
				"z": 0.8539413001,
				"element": "H" 
			},
			{
				"x": 1.7393221085,
				"y": -0.6022977737,
				"z": 1.9801195143,
				"element": "H" 
			},
			{
				"x": -0.1055618151,
				"y": -2.2637098331,
				"z": 1.9481882341,
				"element": "H" 
			},
			{
				"x": -0.2750378354,
				"y": -2.0774238742,
				"z": 0.2024233027,
				"element": "H" 
			},
			{
				"x": -2.010123594,
				"y": -0.7190375435,
				"z": 1.3453028589,
				"element": "H" 
			},
			{
				"x": -0.7788737812,
				"y": 0.0994086289,
				"z": 2.3036864948,
				"element": "H" 
			},
			{
				"x": -1.087795723,
				"y": 0.2658083125,
				"z": -0.7413533721,
				"element": "H" 
			},
			{
				"x": -1.4401852641,
				"y": 1.5579086843,
				"z": 0.4163360936,
				"element": "H" 
			},
			{
				"x": 0.7350452846,
				"y": 1.8392155117,
				"z": -0.7633706744,
				"element": "H" 
			},
			{
				"x": 1.8813960637,
				"y": 2.1559999917,
				"z": 1.2660540493,
				"element": "H" 
			}
		],
		 "valence_orbital": [ 
			{
				"type": "occ",
				"energy": -0.3137,
				"method": "rhf"
			},
			{
				"type": "occ",
				"energy": -0.30295,
				"method": "rhf"
			},
			{
				"type": "occ",
				"energy": -0.29121,
				"method": "rhf"
			},
			{
				"type": "occ",
				"energy": -0.2591,
				"method": "rhf"
			},
			{
				"type": "occ",
				"energy": -0.23324,
				"method": "rhf"
			},
			{
				"type": "unocc",
				"energy": 0.0671,
				"method": "rhf"
			},
			{
				"type": "unocc",
				"energy": 0.08646,
				"method": "rhf"
			},
			{
				"type": "unocc",
				"energy": 0.1239,
				"method": "rhf"
			},
			{
				"type": "unocc",
				"energy": 0.12706,
				"method": "rhf"
			},
			{
				"type": "unocc",
				"energy": 0.13603,
				"method": "rhf"
			}
		],
		"cosmo_sigma_profile": { 
			"-0.025": 0.0,
			"-0.024": 0.0,
			"-0.023": 0.0,
			"-0.022": 0.0,
			"-0.021": 0.0,
			"-0.02": 0.0,
			"-0.019": 0.0,
			"-0.018": 0.0,
			"-0.017": 0.0,
			"-0.016": 0.0,
			"-0.015": 0.387932520464,
			"-0.014": 0.785840706444,
			"-0.013": 1.04304085223,
			"-0.012": 1.19883433072,
			"-0.011": 0.662180916513,
			"-0.01": 1.2387696752,
			"-0.009": 3.51552915822,
			"-0.008": 3.58168879322,
			"-0.007": 3.26504992798,
			"-0.006": 5.59764800904,
			"-0.005": 4.64348356272,
			"-0.004": 4.49961870619,
			"-0.003": 7.98155604427,
			"-0.002": 14.1379016643,
			"-0.001": 20.9677947421,
			"0.0": 23.367946413,
			"0.001": 23.4354831951,
			"0.002": 10.7563737496,
			"0.003": 3.92543618564,
			"0.004": 3.25855683279,
			"0.005": 2.2911980353,
			"0.006": 2.04349347662,
			"0.007": 2.60679916594,
			"0.008": 2.18344358851,
			"0.009": 2.01081026475,
			"0.01": 2.10687882225,
			"0.011": 2.24234559942,
			"0.012": 2.29380485527,
			"0.013": 1.6708984057,
			"0.014": 1.9027313648,
			"0.015": 1.03862639099,
			"0.016": 0.471923351643,
			"0.017": 0.360276855079,
			"0.018": 0.0,
			"0.019": 0.0,
			"0.02": 0.0,
			"0.021": 0.0,
			"0.022": 0.0,
			"0.023": 0.0,
			"0.024": 0.0,
			"0.025": 0.0
		}
	}
}
