{
	 "smiles": "COC1=C(C(O)=O)C(F)=CC=C1F", 
	 "Tm": 356.15, 
	 "num_atms": 19, 
	 "gaussian": { 
		 "optdone": 1, 
		 "sigma_profile": "yes", 
		 "theory": "DFT", 
		 "functional": "B3LYP", 
		 "basiset": "6-31G**", 
		 "properties": { 
			 "R2extent": 2930.1746, 
			 "electric_dipole_moment_norm": 5.63577300022, 
			 "electric_quadrupole_moment_norm": 14.6758612204, 
			 "total_energy": -733.791782174, 
			 "HOMO_LUMO_gap": 0.19675, 
			 "cosmo_polarized_energy": -13.9, 
			 "cosmo_cavitation_energy": 24.36, 
			 "cosmo_dispersion_energy": -17.72, 
			 "cosmo_repulsion_energy": 1.35, 
			 "cosmo_total_nonelectrostatic_energy": 7.99, 
			 "SMD_solvation_energy": 7.02 
		},
		"coords": [
			{
				"x": 1.6198460786,
				"y": -1.7043161546,
				"z": 0.8418763439,
				"element": "C" 
			},
			{
				"x": 1.0101595154,
				"y": -0.7903284535,
				"z": -0.0963118089,
				"element": "O" 
			},
			{
				"x": -0.1527449283,
				"y": -1.2251036537,
				"z": -0.698856986,
				"element": "C" 
			},
			{
				"x": -1.3754454236,
				"y": -0.5667784486,
				"z": -0.4403641005,
				"element": "C" 
			},
			{
				"x": -1.5249253515,
				"y": 0.5520992397,
				"z": 0.5718063939,
				"element": "C" 
			},
			{
				"x": -0.3881034021,
				"y": 1.1404465343,
				"z": 0.989657864,
				"element": "O" 
			},
			{
				"x": -2.5995638898,
				"y": 0.9090182995,
				"z": 0.991176062,
				"element": "O" 
			},
			{
				"x": -2.4995359858,
				"y": -1.0164714878,
				"z": -1.159879886,
				"element": "C" 
			},
			{
				"x": -3.6868513343,
				"y": -0.4257668883,
				"z": -0.9977149917,
				"element": "F" 
			},
			{
				"x": -2.437437344,
				"y": -2.0674377197,
				"z": -2.0683908111,
				"element": "C" 
			},
			{
				"x": -1.2243165808,
				"y": -2.7123400113,
				"z": -2.2939758093,
				"element": "C" 
			},
			{
				"x": -0.097444751,
				"y": -2.2792273092,
				"z": -1.6139976665,
				"element": "C" 
			},
			{
				"x": 1.0908791995,
				"y": -2.8812494474,
				"z": -1.8368298859,
				"element": "F" 
			},
			{
				"x": 2.5053236342,
				"y": -1.1935177014,
				"z": 1.2210209542,
				"element": "H" 
			},
			{
				"x": 1.9104661032,
				"y": -2.6271896961,
				"z": 0.3373684951,
				"element": "H" 
			},
			{
				"x": 0.9323407043,
				"y": -1.9198704627,
				"z": 1.6662329933,
				"element": "H" 
			},
			{
				"x": 0.3817550312,
				"y": 0.6801764907,
				"z": 0.5987648561,
				"element": "H" 
			},
			{
				"x": -3.3413474397,
				"y": -2.3610623723,
				"z": -2.5890940138,
				"element": "H" 
			},
			{
				"x": -1.1374538354,
				"y": -3.5324807577,
				"z": -2.9978880025,
				"element": "H" 
			}
		],
		 "valence_orbital": [ 
			{
				"type": "occ",
				"energy": -0.32319,
				"method": "rhf"
			},
			{
				"type": "occ",
				"energy": -0.3067,
				"method": "rhf"
			},
			{
				"type": "occ",
				"energy": -0.28022,
				"method": "rhf"
			},
			{
				"type": "occ",
				"energy": -0.26653,
				"method": "rhf"
			},
			{
				"type": "occ",
				"energy": -0.25701,
				"method": "rhf"
			},
			{
				"type": "unocc",
				"energy": -0.06026,
				"method": "rhf"
			},
			{
				"type": "unocc",
				"energy": -0.02092,
				"method": "rhf"
			},
			{
				"type": "unocc",
				"energy": 0.04174,
				"method": "rhf"
			},
			{
				"type": "unocc",
				"energy": 0.04963,
				"method": "rhf"
			},
			{
				"type": "unocc",
				"energy": 0.08751,
				"method": "rhf"
			}
		],
		"cosmo_sigma_profile": { 
			"-0.025": 0.0,
			"-0.024": 0.0,
			"-0.023": 0.0,
			"-0.022": 0.0,
			"-0.021": 0.0,
			"-0.02": 0.0,
			"-0.019": 0.0,
			"-0.018": 0.0,
			"-0.017": 0.0,
			"-0.016": 0.0,
			"-0.015": 0.0,
			"-0.014": 0.0,
			"-0.013": 0.0,
			"-0.012": 0.0,
			"-0.011": 0.0,
			"-0.01": 0.264594747841,
			"-0.009": 3.23009455096,
			"-0.008": 6.89001243608,
			"-0.007": 9.29811850232,
			"-0.006": 12.6156104882,
			"-0.005": 14.2989680248,
			"-0.004": 16.6213445732,
			"-0.003": 10.7730498329,
			"-0.002": 11.4528615215,
			"-0.001": 18.9040221355,
			"0.0": 13.5528262051,
			"0.001": 10.9292724565,
			"0.002": 7.46316700587,
			"0.003": 13.9607179019,
			"0.004": 10.2192988918,
			"0.005": 3.69072952024,
			"0.006": 3.0798543275,
			"0.007": 3.05693938187,
			"0.008": 3.67801969977,
			"0.009": 3.45749262852,
			"0.01": 4.04569706393,
			"0.011": 6.63423236938,
			"0.012": 5.91321364958,
			"0.013": 1.96405030252,
			"0.014": 0.100238043159,
			"0.015": 0.0,
			"0.016": 0.0,
			"0.017": 0.0,
			"0.018": 0.0,
			"0.019": 0.0,
			"0.02": 0.0,
			"0.021": 0.0,
			"0.022": 0.0,
			"0.023": 0.0,
			"0.024": 0.0,
			"0.025": 0.0
		}
	}
}
