{
	 "smiles": "CC1=C(O)C(C=O)=CC(Br)=C1", 
	 "Tm": 342.15, 
	 "num_atms": 18, 
	 "gaussian": { 
		 "optdone": 1, 
		 "sigma_profile": "yes", 
		 "theory": "DFT", 
		 "functional": "B3LYP", 
		 "basiset": "6-31G**", 
		 "properties": { 
			 "R2extent": 3157.6693, 
			 "electric_dipole_moment_norm": 5.62478409363, 
			 "electric_quadrupole_moment_norm": 10.1483543168, 
			 "total_energy": -3030.91447776, 
			 "HOMO_LUMO_gap": 0.16728, 
			 "cosmo_polarized_energy": -12.26, 
			 "cosmo_cavitation_energy": 24.75, 
			 "cosmo_dispersion_energy": -18.56, 
			 "cosmo_repulsion_energy": 1.48, 
			 "cosmo_total_nonelectrostatic_energy": 7.67, 
			 "SMD_solvation_energy": 4.43 
		},
		"coords": [
			{
				"x": -0.584227843,
				"y": -2.403645621,
				"z": 1.6316243509,
				"element": "C" 
			},
			{
				"x": -0.4033358176,
				"y": -1.0114001411,
				"z": 1.0744924898,
				"element": "C" 
			},
			{
				"x": 0.7288483488,
				"y": -0.2470489565,
				"z": 1.421211137,
				"element": "C" 
			},
			{
				"x": 1.6882732222,
				"y": -0.7300879614,
				"z": 2.2603409515,
				"element": "O" 
			},
			{
				"x": 0.9053217293,
				"y": 1.0508567579,
				"z": 0.9068517108,
				"element": "C" 
			},
			{
				"x": 2.0893329104,
				"y": 1.8706628366,
				"z": 1.2595877094,
				"element": "C" 
			},
			{
				"x": 2.2746253782,
				"y": 2.9971167158,
				"z": 0.8335467772,
				"element": "O" 
			},
			{
				"x": -0.0566526047,
				"y": 1.5895550596,
				"z": 0.0392784317,
				"element": "C" 
			},
			{
				"x": -1.1688216336,
				"y": 0.8403410526,
				"z": -0.302155125,
				"element": "C" 
			},
			{
				"x": -2.4879197064,
				"y": 1.5605742514,
				"z": -1.4831914963,
				"element": "Br" 
			},
			{
				"x": -1.3427442676,
				"y": -0.4488710195,
				"z": 0.2096652106,
				"element": "C" 
			},
			{
				"x": 0.2360309806,
				"y": -3.0732922194,
				"z": 1.3394939064,
				"element": "H" 
			},
			{
				"x": -1.509153889,
				"y": -2.8528221031,
				"z": 1.2640000742,
				"element": "H" 
			},
			{
				"x": -0.6413869461,
				"y": -2.4034227793,
				"z": 2.7285899155,
				"element": "H" 
			},
			{
				"x": 1.4565033795,
				"y": -1.6229977852,
				"z": 2.5447194407,
				"element": "H" 
			},
			{
				"x": 2.812547535,
				"y": 1.3936888184,
				"z": 1.9465104202,
				"element": "H" 
			},
			{
				"x": 0.1038425132,
				"y": 2.5913135602,
				"z": -0.3423869182,
				"element": "H" 
			},
			{
				"x": -2.220783289,
				"y": -1.0223204659,
				"z": -0.0685789865,
				"element": "H" 
			}
		],
		 "valence_orbital": [ 
			{
				"type": "occ",
				"energy": -0.29974,
				"method": "rhf"
			},
			{
				"type": "occ",
				"energy": -0.28972,
				"method": "rhf"
			},
			{
				"type": "occ",
				"energy": -0.26901,
				"method": "rhf"
			},
			{
				"type": "occ",
				"energy": -0.25255,
				"method": "rhf"
			},
			{
				"type": "occ",
				"energy": -0.23333,
				"method": "rhf"
			},
			{
				"type": "unocc",
				"energy": -0.06605,
				"method": "rhf"
			},
			{
				"type": "unocc",
				"energy": -0.01431,
				"method": "rhf"
			},
			{
				"type": "unocc",
				"energy": 0.00418,
				"method": "rhf"
			},
			{
				"type": "unocc",
				"energy": 0.03218,
				"method": "rhf"
			},
			{
				"type": "unocc",
				"energy": 0.04298,
				"method": "rhf"
			}
		],
		"cosmo_sigma_profile": { 
			"-0.025": 0.0,
			"-0.024": 0.0,
			"-0.023": 0.0,
			"-0.022": 0.0,
			"-0.021": 0.0,
			"-0.02": 0.0,
			"-0.019": 0.0,
			"-0.018": 0.0150631491037,
			"-0.017": 0.453272634579,
			"-0.016": 1.13141941444,
			"-0.015": 0.943787475185,
			"-0.014": 0.692543988712,
			"-0.013": 1.07968576549,
			"-0.012": 1.32911907223,
			"-0.011": 1.60808077681,
			"-0.01": 1.00063876838,
			"-0.009": 1.16943757928,
			"-0.008": 2.27082366356,
			"-0.007": 5.28035889618,
			"-0.006": 8.19850953066,
			"-0.005": 9.37250413058,
			"-0.004": 10.6514264866,
			"-0.003": 13.4868692387,
			"-0.002": 14.8533678256,
			"-0.001": 15.5334780157,
			"0.0": 16.5044768587,
			"0.001": 18.6294073202,
			"0.002": 21.780258302,
			"0.003": 10.4364082379,
			"0.004": 13.405741714,
			"0.005": 9.57364246577,
			"0.006": 2.93582121764,
			"0.007": 3.35282642731,
			"0.008": 3.33962946241,
			"0.009": 1.84657177126,
			"0.01": 2.18366590465,
			"0.011": 4.2865292853,
			"0.012": 2.84194555286,
			"0.013": 0.898892353882,
			"0.014": 0.00420427725077,
			"0.015": 0.0,
			"0.016": 0.0,
			"0.017": 0.0,
			"0.018": 0.0,
			"0.019": 0.0,
			"0.02": 0.0,
			"0.021": 0.0,
			"0.022": 0.0,
			"0.023": 0.0,
			"0.024": 0.0,
			"0.025": 0.0
		}
	}
}
