{
	 "smiles": "O=C(NC1=NC=CC=C1)C1CCNCC1", 
	 "Tm": 387.15, 
	 "num_atms": 30, 
	 "gaussian": { 
		 "optdone": 1, 
		 "sigma_profile": "yes", 
		 "theory": "DFT", 
		 "functional": "B3LYP", 
		 "basiset": "6-31G**", 
		 "properties": { 
			 "R2extent": 4438.7943, 
			 "electric_dipole_moment_norm": 4.86013221322, 
			 "electric_quadrupole_moment_norm": 12.4608055638, 
			 "total_energy": -667.684689644, 
			 "HOMO_LUMO_gap": 0.19629, 
			 "cosmo_polarized_energy": -21.1, 
			 "cosmo_cavitation_energy": 32.07, 
			 "cosmo_dispersion_energy": -23.33, 
			 "cosmo_repulsion_energy": 1.83, 
			 "cosmo_total_nonelectrostatic_energy": 10.57, 
			 "SMD_solvation_energy": 2.12 
		},
		"coords": [
			{
				"x": 1.4852591652,
				"y": -1.9066227525,
				"z": 1.9837637172,
				"element": "O" 
			},
			{
				"x": 0.7118589366,
				"y": -1.432777859,
				"z": 1.1762666047,
				"element": "C" 
			},
			{
				"x": 0.3434348181,
				"y": -0.0868594274,
				"z": 1.1352185837,
				"element": "N" 
			},
			{
				"x": 0.7426983603,
				"y": 0.9671728257,
				"z": 1.9748268759,
				"element": "C" 
			},
			{
				"x": 1.1941424565,
				"y": 0.6829005063,
				"z": 3.1967634519,
				"element": "N" 
			},
			{
				"x": 1.5528118716,
				"y": 1.7087962785,
				"z": 3.9773894254,
				"element": "C" 
			},
			{
				"x": 1.4640370135,
				"y": 3.0476438226,
				"z": 3.6024054447,
				"element": "C" 
			},
			{
				"x": 0.9747296932,
				"y": 3.3328010816,
				"z": 2.3251728501,
				"element": "C" 
			},
			{
				"x": 0.6129882551,
				"y": 2.2837813386,
				"z": 1.4908554384,
				"element": "C" 
			},
			{
				"x": 0.0971318712,
				"y": -2.2830029627,
				"z": 0.0545146848,
				"element": "C" 
			},
			{
				"x": 0.9482822994,
				"y": -2.1508629814,
				"z": -1.2377078776,
				"element": "C" 
			},
			{
				"x": 0.1846967733,
				"y": -2.7413846755,
				"z": -2.4289298523,
				"element": "C" 
			},
			{
				"x": -1.1047727397,
				"y": -2.0680346774,
				"z": -2.6856711987,
				"element": "N" 
			},
			{
				"x": -1.6226054794,
				"y": -1.2739004842,
				"z": -1.5701840352,
				"element": "C" 
			},
			{
				"x": -1.4096760591,
				"y": -2.0243868585,
				"z": -0.2517138373,
				"element": "C" 
			},
			{
				"x": -0.2022905122,
				"y": 0.1957678776,
				"z": 0.3335418605,
				"element": "H" 
			},
			{
				"x": 1.9235921227,
				"y": 1.4379270095,
				"z": 4.9646406553,
				"element": "H" 
			},
			{
				"x": 1.7636024378,
				"y": 3.8356672062,
				"z": 4.2850630014,
				"element": "H" 
			},
			{
				"x": 0.8838401022,
				"y": 4.3588159083,
				"z": 1.9802097021,
				"element": "H" 
			},
			{
				"x": 0.2455836743,
				"y": 2.4703883614,
				"z": 0.4853529889,
				"element": "H" 
			},
			{
				"x": 0.2093788685,
				"y": -3.3064227407,
				"z": 0.4221864829,
				"element": "H" 
			},
			{
				"x": 1.1798226623,
				"y": -1.0965539664,
				"z": -1.4381591971,
				"element": "H" 
			},
			{
				"x": 1.907082907,
				"y": -2.6601644092,
				"z": -1.0985783383,
				"element": "H" 
			},
			{
				"x": 0.0059827541,
				"y": -3.8093753256,
				"z": -2.2342289709,
				"element": "H" 
			},
			{
				"x": 0.7970353914,
				"y": -2.6946537309,
				"z": -3.3358721367,
				"element": "H" 
			},
			{
				"x": -1.0421866707,
				"y": -1.4935679902,
				"z": -3.518340237,
				"element": "H" 
			},
			{
				"x": -2.6929858787,
				"y": -1.0963961399,
				"z": -1.7300093744,
				"element": "H" 
			},
			{
				"x": -1.1581070678,
				"y": -0.2672804787,
				"z": -1.5015113618,
				"element": "H" 
			},
			{
				"x": -1.9238507852,
				"y": -2.9877498351,
				"z": -0.3323315819,
				"element": "H" 
			},
			{
				"x": -1.8901172418,
				"y": -1.4842649208,
				"z": 0.5707662314,
				"element": "H" 
			}
		],
		 "valence_orbital": [ 
			{
				"type": "occ",
				"energy": -0.28433,
				"method": "rhf"
			},
			{
				"type": "occ",
				"energy": -0.26544,
				"method": "rhf"
			},
			{
				"type": "occ",
				"energy": -0.22955,
				"method": "rhf"
			},
			{
				"type": "occ",
				"energy": -0.22896,
				"method": "rhf"
			},
			{
				"type": "occ",
				"energy": -0.21859,
				"method": "rhf"
			},
			{
				"type": "unocc",
				"energy": -0.0223,
				"method": "rhf"
			},
			{
				"type": "unocc",
				"energy": -0.014,
				"method": "rhf"
			},
			{
				"type": "unocc",
				"energy": 0.04202,
				"method": "rhf"
			},
			{
				"type": "unocc",
				"energy": 0.04912,
				"method": "rhf"
			},
			{
				"type": "unocc",
				"energy": 0.08171,
				"method": "rhf"
			}
		],
		"cosmo_sigma_profile": { 
			"-0.025": 0.0,
			"-0.024": 0.0,
			"-0.023": 0.0,
			"-0.022": 0.0,
			"-0.021": 0.0,
			"-0.02": 0.0,
			"-0.019": 0.0,
			"-0.018": 0.0,
			"-0.017": 0.0,
			"-0.016": 0.0,
			"-0.015": 0.0,
			"-0.014": 0.0,
			"-0.013": 0.636462831863,
			"-0.012": 1.84070777037,
			"-0.011": 1.57760422378,
			"-0.01": 2.45809907703,
			"-0.009": 3.86754788506,
			"-0.008": 3.64463200532,
			"-0.007": 7.61900040201,
			"-0.006": 10.673887659,
			"-0.005": 12.8418236543,
			"-0.004": 20.3373157426,
			"-0.003": 29.3622688166,
			"-0.002": 28.1745781367,
			"-0.001": 24.5249089938,
			"0.0": 16.7902564419,
			"0.001": 12.1396171212,
			"0.002": 13.93185142,
			"0.003": 14.8111635698,
			"0.004": 6.41519719428,
			"0.005": 3.12735240971,
			"0.006": 2.84906449453,
			"0.007": 3.04408072521,
			"0.008": 2.73690794469,
			"0.009": 2.38609707366,
			"0.01": 2.63874799676,
			"0.011": 2.4046318292,
			"0.012": 3.33249277698,
			"0.013": 5.91419755922,
			"0.014": 3.89098703675,
			"0.015": 1.66594978321,
			"0.016": 1.7330232429,
			"0.017": 1.61069669602,
			"0.018": 1.79582207371,
			"0.019": 0.792089888615,
			"0.02": 0.448242608618,
			"0.021": 0.0389343545655,
			"0.022": 0.0,
			"0.023": 0.0,
			"0.024": 0.0,
			"0.025": 0.0
		}
	}
}
