{
	 "smiles": "CC1=CC(=C(C=C1N(=O)=O)N(=O)=O)N(=O)=O", 
	 "Tm": 377.15, 
	 "num_atms": 21, 
	 "gaussian": { 
		 "optdone": 1, 
		 "sigma_profile": "yes", 
		 "theory": "DFT", 
		 "functional": "B3LYP", 
		 "basiset": "6-31G**", 
		 "properties": { 
			 "R2extent": 4246.0072, 
			 "electric_dipole_moment_norm": 4.50371504649, 
			 "electric_quadrupole_moment_norm": 20.840823561, 
			 "total_energy": -885.027853268, 
			 "HOMO_LUMO_gap": 0.17043, 
			 "cosmo_polarized_energy": -15.19, 
			 "cosmo_cavitation_energy": 28.17, 
			 "cosmo_dispersion_energy": -19.99, 
			 "cosmo_repulsion_energy": 1.54, 
			 "cosmo_total_nonelectrostatic_energy": 9.72, 
			 "SMD_solvation_energy": 11.68 
		},
		"coords": [
			{
				"x": -1.1049176892,
				"y": -0.0383871212,
				"z": -1.8855135755,
				"element": "C" 
			},
			{
				"x": -0.4476394228,
				"y": 0.234599725,
				"z": -0.5573079275,
				"element": "C" 
			},
			{
				"x": -1.1904399583,
				"y": 0.0157413087,
				"z": 0.6147305333,
				"element": "C" 
			},
			{
				"x": -0.66299151,
				"y": 0.2418610911,
				"z": 1.8771764608,
				"element": "C" 
			},
			{
				"x": 0.6578643713,
				"y": 0.6742109489,
				"z": 2.0205982296,
				"element": "C" 
			},
			{
				"x": 1.4249997614,
				"y": 0.8989935157,
				"z": 0.8903945391,
				"element": "C" 
			},
			{
				"x": 0.8714736323,
				"y": 0.6907134582,
				"z": -0.3721804849,
				"element": "C" 
			},
			{
				"x": 1.7691592132,
				"y": 0.9688106825,
				"z": -1.5155577363,
				"element": "N" 
			},
			{
				"x": 2.9701819055,
				"y": 1.0602943587,
				"z": -1.2776105845,
				"element": "O" 
			},
			{
				"x": 1.2588888376,
				"y": 1.1017004683,
				"z": -2.6256284018,
				"element": "O" 
			},
			{
				"x": 1.3163390049,
				"y": 0.8015987678,
				"z": 3.333019671,
				"element": "N" 
			},
			{
				"x": 0.9623864998,
				"y": 0.0182134376,
				"z": 4.2064482412,
				"element": "O" 
			},
			{
				"x": 2.1968153536,
				"y": 1.6500344414,
				"z": 3.4288194169,
				"element": "O" 
			},
			{
				"x": -1.5870711031,
				"y": 0.105874542,
				"z": 3.0219640413,
				"element": "N" 
			},
			{
				"x": -1.5998287694,
				"y": 1.0275645071,
				"z": 3.8267554613,
				"element": "O" 
			},
			{
				"x": -2.3058710489,
				"y": -0.886986966,
				"z": 3.0311437333,
				"element": "O" 
			},
			{
				"x": -2.0671044906,
				"y": -0.5301476869,
				"z": -1.7274481848,
				"element": "H" 
			},
			{
				"x": -1.2658295679,
				"y": 0.88980529,
				"z": -2.4398164318,
				"element": "H" 
			},
			{
				"x": -0.4813065413,
				"y": -0.6701041417,
				"z": -2.5217756294,
				"element": "H" 
			},
			{
				"x": -2.213985267,
				"y": -0.3339741167,
				"z": 0.5444113482,
				"element": "H" 
			},
			{
				"x": 2.4527767887,
				"y": 1.2231834894,
				"z": 0.9861772803,
				"element": "H" 
			}
		],
		 "valence_orbital": [ 
			{
				"type": "occ",
				"energy": -0.33156,
				"method": "rhf"
			},
			{
				"type": "occ",
				"energy": -0.32975,
				"method": "rhf"
			},
			{
				"type": "occ",
				"energy": -0.3221,
				"method": "rhf"
			},
			{
				"type": "occ",
				"energy": -0.3126,
				"method": "rhf"
			},
			{
				"type": "occ",
				"energy": -0.30629,
				"method": "rhf"
			},
			{
				"type": "unocc",
				"energy": -0.13586,
				"method": "rhf"
			},
			{
				"type": "unocc",
				"energy": -0.11171,
				"method": "rhf"
			},
			{
				"type": "unocc",
				"energy": -0.09223,
				"method": "rhf"
			},
			{
				"type": "unocc",
				"energy": -0.05687,
				"method": "rhf"
			},
			{
				"type": "unocc",
				"energy": -0.03375,
				"method": "rhf"
			}
		],
		"cosmo_sigma_profile": { 
			"-0.025": 0.0,
			"-0.024": 0.0,
			"-0.023": 0.0,
			"-0.022": 0.0,
			"-0.021": 0.0,
			"-0.02": 0.0,
			"-0.019": 0.0,
			"-0.018": 0.0,
			"-0.017": 0.0,
			"-0.016": 0.0,
			"-0.015": 0.0,
			"-0.014": 0.0,
			"-0.013": 0.0,
			"-0.012": 0.0,
			"-0.011": 0.381602292049,
			"-0.01": 3.87946488824,
			"-0.009": 6.16915820233,
			"-0.008": 7.09422915824,
			"-0.007": 6.85040233007,
			"-0.006": 13.7637851105,
			"-0.005": 20.0118406116,
			"-0.004": 20.6648019359,
			"-0.003": 16.2347080775,
			"-0.002": 12.5705398341,
			"-0.001": 8.73918717404,
			"0.0": 7.05587237131,
			"0.001": 6.91833558079,
			"0.002": 8.2267088231,
			"0.003": 6.89427114672,
			"0.004": 9.24405766805,
			"0.005": 14.6199141274,
			"0.006": 25.8142609161,
			"0.007": 17.0432805748,
			"0.008": 10.6180038919,
			"0.009": 3.69178799814,
			"0.01": 0.00307461804694,
			"0.011": 0.0,
			"0.012": 0.0,
			"0.013": 0.0,
			"0.014": 0.0,
			"0.015": 0.0,
			"0.016": 0.0,
			"0.017": 0.0,
			"0.018": 0.0,
			"0.019": 0.0,
			"0.02": 0.0,
			"0.021": 0.0,
			"0.022": 0.0,
			"0.023": 0.0,
			"0.024": 0.0,
			"0.025": 0.0
		}
	}
}
