{
	 "smiles": "CCNC(=O)C1=NC=CC(Cl)=C1", 
	 "Tm": 334.15, 
	 "num_atms": 21, 
	 "gaussian": { 
		 "optdone": 1, 
		 "sigma_profile": "yes", 
		 "theory": "DFT", 
		 "functional": "B3LYP", 
		 "basiset": "6-31G**", 
		 "properties": { 
			 "R2extent": 4477.3885, 
			 "electric_dipole_moment_norm": 3.4559090179, 
			 "electric_quadrupole_moment_norm": 10.8210507623, 
			 "total_energy": -955.208003134, 
			 "HOMO_LUMO_gap": 0.18913, 
			 "cosmo_polarized_energy": -10.13, 
			 "cosmo_cavitation_energy": 26.9, 
			 "cosmo_dispersion_energy": -19.74, 
			 "cosmo_repulsion_energy": 1.6, 
			 "cosmo_total_nonelectrostatic_energy": 8.76, 
			 "SMD_solvation_energy": 4.55 
		},
		"coords": [
			{
				"x": -1.3004245382,
				"y": 0.2057539179,
				"z": -1.5777841631,
				"element": "C" 
			},
			{
				"x": -1.5044058836,
				"y": -0.4742435953,
				"z": -0.2225939362,
				"element": "C" 
			},
			{
				"x": -0.3160593576,
				"y": -1.18478136,
				"z": 0.2537920037,
				"element": "N" 
			},
			{
				"x": 0.7029334587,
				"y": -0.8394302723,
				"z": 1.0910322772,
				"element": "C" 
			},
			{
				"x": 1.57372589,
				"y": -1.6581021812,
				"z": 1.3883918147,
				"element": "O" 
			},
			{
				"x": 0.7848826016,
				"y": 0.5548972049,
				"z": 1.681610064,
				"element": "C" 
			},
			{
				"x": 0.0726406093,
				"y": 1.5645101242,
				"z": 1.1622146195,
				"element": "N" 
			},
			{
				"x": 0.2243835179,
				"y": 2.7773904408,
				"z": 1.705393783,
				"element": "C" 
			},
			{
				"x": 1.0725537735,
				"y": 3.0490442367,
				"z": 2.7781289168,
				"element": "C" 
			},
			{
				"x": 1.8049871002,
				"y": 1.9844541537,
				"z": 3.3020464746,
				"element": "C" 
			},
			{
				"x": 2.8912161512,
				"y": 2.2512281391,
				"z": 4.6480490941,
				"element": "Cl" 
			},
			{
				"x": 1.6745741284,
				"y": 0.7157453686,
				"z": 2.7522729405,
				"element": "C" 
			},
			{
				"x": -2.2345624298,
				"y": 0.6691262681,
				"z": -1.9137973941,
				"element": "H" 
			},
			{
				"x": -0.9855077723,
				"y": -0.5144692341,
				"z": -2.3402916038,
				"element": "H" 
			},
			{
				"x": -0.538031368,
				"y": 0.9837473168,
				"z": -1.4939379591,
				"element": "H" 
			},
			{
				"x": -2.3072344822,
				"y": -1.21790646,
				"z": -0.2908553568,
				"element": "H" 
			},
			{
				"x": -1.7993372522,
				"y": 0.2620372401,
				"z": 0.5229656274,
				"element": "H" 
			},
			{
				"x": -0.1921798316,
				"y": -2.1334532244,
				"z": -0.0778482875,
				"element": "H" 
			},
			{
				"x": -0.3606987545,
				"y": 3.5805505556,
				"z": 1.262113501,
				"element": "H" 
			},
			{
				"x": 1.160159474,
				"y": 4.0492482024,
				"z": 3.1860222972,
				"element": "H" 
			},
			{
				"x": 2.2348849651,
				"y": -0.1389468415,
				"z": 3.108375287,
				"element": "H" 
			}
		],
		 "valence_orbital": [ 
			{
				"type": "occ",
				"energy": -0.28376,
				"method": "rhf"
			},
			{
				"type": "occ",
				"energy": -0.2825,
				"method": "rhf"
			},
			{
				"type": "occ",
				"energy": -0.27781,
				"method": "rhf"
			},
			{
				"type": "occ",
				"energy": -0.25233,
				"method": "rhf"
			},
			{
				"type": "occ",
				"energy": -0.24678,
				"method": "rhf"
			},
			{
				"type": "unocc",
				"energy": -0.05765,
				"method": "rhf"
			},
			{
				"type": "unocc",
				"energy": -0.03774,
				"method": "rhf"
			},
			{
				"type": "unocc",
				"energy": 0.01782,
				"method": "rhf"
			},
			{
				"type": "unocc",
				"energy": 0.05188,
				"method": "rhf"
			},
			{
				"type": "unocc",
				"energy": 0.0877,
				"method": "rhf"
			}
		],
		"cosmo_sigma_profile": { 
			"-0.025": 0.0,
			"-0.024": 0.0,
			"-0.023": 0.0,
			"-0.022": 0.0,
			"-0.021": 0.0,
			"-0.02": 0.0,
			"-0.019": 0.0,
			"-0.018": 0.0,
			"-0.017": 0.0,
			"-0.016": 0.0,
			"-0.015": 0.0,
			"-0.014": 0.178016621076,
			"-0.013": 0.967572767172,
			"-0.012": 1.31908017809,
			"-0.011": 0.611400019905,
			"-0.01": 1.06437614164,
			"-0.009": 1.89091041517,
			"-0.008": 4.3136042385,
			"-0.007": 7.01814393243,
			"-0.006": 5.49607525622,
			"-0.005": 6.91036299812,
			"-0.004": 9.53906850369,
			"-0.003": 15.6293701282,
			"-0.002": 19.8671091174,
			"-0.001": 26.7004113525,
			"0.0": 30.020955791,
			"0.001": 21.4044952298,
			"0.002": 15.2762710235,
			"0.003": 14.0026186129,
			"0.004": 10.9446296075,
			"0.005": 2.90739943913,
			"0.006": 2.42256339421,
			"0.007": 2.20231595105,
			"0.008": 1.78108362327,
			"0.009": 1.38886593317,
			"0.01": 1.5823739914,
			"0.011": 1.08119764599,
			"0.012": 2.00753150095,
			"0.013": 3.91705637975,
			"0.014": 3.78941775414,
			"0.015": 0.325985641194,
			"0.016": 0.0,
			"0.017": 0.0,
			"0.018": 0.0,
			"0.019": 0.0,
			"0.02": 0.0,
			"0.021": 0.0,
			"0.022": 0.0,
			"0.023": 0.0,
			"0.024": 0.0,
			"0.025": 0.0
		}
	}
}
