{
	 "smiles": "OC(=O)CC(=CC(O)=O)C(O)=O", 
	 "Tm": 462.15, 
	 "num_atms": 18, 
	 "gaussian": { 
		 "optdone": 1, 
		 "sigma_profile": "yes", 
		 "theory": "DFT", 
		 "functional": "B3LYP", 
		 "basiset": "6-31G**", 
		 "properties": { 
			 "R2extent": 2888.614, 
			 "electric_dipole_moment_norm": 3.10675096363, 
			 "electric_quadrupole_moment_norm": 25.0504985443, 
			 "total_energy": -683.592657103, 
			 "HOMO_LUMO_gap": 0.18728, 
			 "cosmo_polarized_energy": -29.81, 
			 "cosmo_cavitation_energy": 24.22, 
			 "cosmo_dispersion_energy": -17.02, 
			 "cosmo_repulsion_energy": 1.4, 
			 "cosmo_total_nonelectrostatic_energy": 8.6, 
			 "SMD_solvation_energy": 7.96 
		},
		"coords": [
			{
				"x": -0.192824578,
				"y": 2.0870592941,
				"z": 1.0886049355,
				"element": "O" 
			},
			{
				"x": -0.2613124662,
				"y": 1.3304186973,
				"z": -0.0259672281,
				"element": "C" 
			},
			{
				"x": -0.2454947596,
				"y": 1.7766676012,
				"z": -1.1465403006,
				"element": "O" 
			},
			{
				"x": -0.4662185984,
				"y": -0.1499149417,
				"z": 0.3004319114,
				"element": "C" 
			},
			{
				"x": 0.2326610565,
				"y": -0.60906451,
				"z": 1.5578704941,
				"element": "C" 
			},
			{
				"x": -0.3647132237,
				"y": -0.9835276555,
				"z": 2.7053617518,
				"element": "C" 
			},
			{
				"x": -1.8320204661,
				"y": -1.0371817187,
				"z": 3.002315709,
				"element": "C" 
			},
			{
				"x": -2.6389507218,
				"y": -1.6288625929,
				"z": 2.0812603668,
				"element": "O" 
			},
			{
				"x": -2.2876330062,
				"y": -0.5926605084,
				"z": 4.0252330593,
				"element": "O" 
			},
			{
				"x": 1.7370451302,
				"y": -0.5015160166,
				"z": 1.4758049019,
				"element": "C" 
			},
			{
				"x": 2.4735369612,
				"y": -1.2338747979,
				"z": 2.3430626336,
				"element": "O" 
			},
			{
				"x": 2.2757012628,
				"y": 0.2069287808,
				"z": 0.6588500922,
				"element": "O" 
			},
			{
				"x": -0.0795194699,
				"y": 3.0056871285,
				"z": 0.7915806557,
				"element": "H" 
			},
			{
				"x": -0.1084049355,
				"y": -0.6999197665,
				"z": -0.5732090936,
				"element": "H" 
			},
			{
				"x": -1.5475663489,
				"y": -0.2937104349,
				"z": 0.3783137501,
				"element": "H" 
			},
			{
				"x": 0.2322257687,
				"y": -1.1425056267,
				"z": 3.6007762052,
				"element": "H" 
			},
			{
				"x": -2.1058204645,
				"y": -2.0739005441,
				"z": 1.4071103413,
				"element": "H" 
			},
			{
				"x": 1.9160088593,
				"y": -1.865322388,
				"z": 2.8184398144,
				"element": "H" 
			}
		],
		 "valence_orbital": [ 
			{
				"type": "occ",
				"energy": -0.32978,
				"method": "rhf"
			},
			{
				"type": "occ",
				"energy": -0.32384,
				"method": "rhf"
			},
			{
				"type": "occ",
				"energy": -0.31116,
				"method": "rhf"
			},
			{
				"type": "occ",
				"energy": -0.28971,
				"method": "rhf"
			},
			{
				"type": "occ",
				"energy": -0.28408,
				"method": "rhf"
			},
			{
				"type": "unocc",
				"energy": -0.0968,
				"method": "rhf"
			},
			{
				"type": "unocc",
				"energy": -0.00614,
				"method": "rhf"
			},
			{
				"type": "unocc",
				"energy": 0.00322,
				"method": "rhf"
			},
			{
				"type": "unocc",
				"energy": 0.03382,
				"method": "rhf"
			},
			{
				"type": "unocc",
				"energy": 0.04438,
				"method": "rhf"
			}
		],
		"cosmo_sigma_profile": { 
			"-0.025": 0.0,
			"-0.024": 0.0,
			"-0.023": 0.0,
			"-0.022": 0.0,
			"-0.021": 0.0165453921509,
			"-0.02": 0.598209138829,
			"-0.019": 2.18378090759,
			"-0.018": 3.3976354322,
			"-0.017": 2.65985421561,
			"-0.016": 2.12132686686,
			"-0.015": 2.69427856401,
			"-0.014": 3.79047728336,
			"-0.013": 3.66086523956,
			"-0.012": 3.21223318274,
			"-0.011": 2.4102142011,
			"-0.01": 2.96979683027,
			"-0.009": 4.71422404844,
			"-0.008": 9.99959716657,
			"-0.007": 8.7851683814,
			"-0.006": 7.03528859065,
			"-0.005": 6.09087571153,
			"-0.004": 4.16627176518,
			"-0.003": 6.17440209201,
			"-0.002": 4.40044224734,
			"-0.001": 6.39986407089,
			"0.0": 4.96416777068,
			"0.001": 4.56540639979,
			"0.002": 6.56885343626,
			"0.003": 4.9773788171,
			"0.004": 6.78700104893,
			"0.005": 7.99228491396,
			"0.006": 7.72191151045,
			"0.007": 9.06379711246,
			"0.008": 9.4118726891,
			"0.009": 11.1091994234,
			"0.01": 12.3964863278,
			"0.011": 13.6404503625,
			"0.012": 5.73715509941,
			"0.013": 0.172926511804,
			"0.014": 0.0,
			"0.015": 0.0,
			"0.016": 0.0,
			"0.017": 0.0,
			"0.018": 0.0,
			"0.019": 0.0,
			"0.02": 0.0,
			"0.021": 0.0,
			"0.022": 0.0,
			"0.023": 0.0,
			"0.024": 0.0,
			"0.025": 0.0
		}
	}
}
