{
	 "smiles": "CC1=CNC(=O)N1C1=CC(F)=C(F)C=C1", 
	 "Tm": 524.15, 
	 "num_atms": 23, 
	 "gaussian": { 
		 "optdone": 1, 
		 "sigma_profile": "yes", 
		 "theory": "DFT", 
		 "functional": "B3LYP", 
		 "basiset": "6-31G**", 
		 "properties": { 
			 "R2extent": 3698.2618, 
			 "electric_dipole_moment_norm": 4.58314117828, 
			 "electric_quadrupole_moment_norm": 11.7436878377, 
			 "total_energy": -770.286343313, 
			 "HOMO_LUMO_gap": 0.17817, 
			 "cosmo_polarized_energy": -13.76, 
			 "cosmo_cavitation_energy": 28.42, 
			 "cosmo_dispersion_energy": -20.3, 
			 "cosmo_repulsion_energy": 1.54, 
			 "cosmo_total_nonelectrostatic_energy": 9.67, 
			 "SMD_solvation_energy": 6.99 
		},
		"coords": [
			{
				"x": -0.9761684824,
				"y": 1.6804667388,
				"z": -1.6515766502,
				"element": "C" 
			},
			{
				"x": -1.6615593244,
				"y": 0.7826674358,
				"z": -0.675923769,
				"element": "C" 
			},
			{
				"x": -2.9118323126,
				"y": 0.8797124612,
				"z": -0.1696588296,
				"element": "C" 
			},
			{
				"x": -3.0808051242,
				"y": -0.1355944772,
				"z": 0.7710055045,
				"element": "N" 
			},
			{
				"x": -1.9311922379,
				"y": -0.8914282874,
				"z": 0.9037160675,
				"element": "C" 
			},
			{
				"x": -1.7282083509,
				"y": -1.8359395414,
				"z": 1.6523341956,
				"element": "O" 
			},
			{
				"x": -1.0435528251,
				"y": -0.3154769532,
				"z": -0.0309185606,
				"element": "N" 
			},
			{
				"x": 0.2609215923,
				"y": -0.8274618636,
				"z": -0.2513991939,
				"element": "C" 
			},
			{
				"x": 0.720941373,
				"y": -1.0522699964,
				"z": -1.5562928075,
				"element": "C" 
			},
			{
				"x": 2.0038645502,
				"y": -1.5420785687,
				"z": -1.751987311,
				"element": "C" 
			},
			{
				"x": 2.4607696859,
				"y": -1.7512299494,
				"z": -2.9990418136,
				"element": "F" 
			},
			{
				"x": 2.8246525111,
				"y": -1.843437694,
				"z": -0.6671241781,
				"element": "C" 
			},
			{
				"x": 4.0595886924,
				"y": -2.3240316224,
				"z": -0.8918836766,
				"element": "F" 
			},
			{
				"x": 2.3611535588,
				"y": -1.6505378729,
				"z": 0.6272560913,
				"element": "C" 
			},
			{
				"x": 1.0828049366,
				"y": -1.1366558831,
				"z": 0.8398970251,
				"element": "C" 
			},
			{
				"x": -0.0103296355,
				"y": 2.0277015484,
				"z": -1.268325753,
				"element": "H" 
			},
			{
				"x": -0.7886761813,
				"y": 1.2051508645,
				"z": -2.6206033316,
				"element": "H" 
			},
			{
				"x": -1.6036922961,
				"y": 2.5573056637,
				"z": -1.8306063803,
				"element": "H" 
			},
			{
				"x": -3.6829100689,
				"y": 1.6018211762,
				"z": -0.3853541338,
				"element": "H" 
			},
			{
				"x": -3.8956722616,
				"y": -0.315352603,
				"z": 1.3335094999,
				"element": "H" 
			},
			{
				"x": 0.0931259051,
				"y": -0.8751908135,
				"z": -2.4204825753,
				"element": "H" 
			},
			{
				"x": 3.0119786759,
				"y": -1.8990936927,
				"z": 1.4584360774,
				"element": "H" 
			},
			{
				"x": 0.7102976197,
				"y": -0.9945460698,
				"z": 1.8458245027,
				"element": "H" 
			}
		],
		 "valence_orbital": [ 
			{
				"type": "occ",
				"energy": -0.31092,
				"method": "rhf"
			},
			{
				"type": "occ",
				"energy": -0.2677,
				"method": "rhf"
			},
			{
				"type": "occ",
				"energy": -0.25735,
				"method": "rhf"
			},
			{
				"type": "occ",
				"energy": -0.24382,
				"method": "rhf"
			},
			{
				"type": "occ",
				"energy": -0.19697,
				"method": "rhf"
			},
			{
				"type": "unocc",
				"energy": -0.0188,
				"method": "rhf"
			},
			{
				"type": "unocc",
				"energy": -0.00911,
				"method": "rhf"
			},
			{
				"type": "unocc",
				"energy": 0.03723,
				"method": "rhf"
			},
			{
				"type": "unocc",
				"energy": 0.06371,
				"method": "rhf"
			},
			{
				"type": "unocc",
				"energy": 0.06843,
				"method": "rhf"
			}
		],
		"cosmo_sigma_profile": { 
			"-0.025": 0.0,
			"-0.024": 0.0,
			"-0.023": 0.0,
			"-0.022": 0.0,
			"-0.021": 0.0,
			"-0.02": 0.0,
			"-0.019": 0.0,
			"-0.018": 0.0,
			"-0.017": 0.0246704401287,
			"-0.016": 0.83873352381,
			"-0.015": 1.76736668213,
			"-0.014": 0.867904319153,
			"-0.013": 0.724723811969,
			"-0.012": 1.12686436045,
			"-0.011": 0.825810909716,
			"-0.01": 1.00678886675,
			"-0.009": 2.53978879239,
			"-0.008": 7.63895126199,
			"-0.007": 6.01056591357,
			"-0.006": 8.99041384959,
			"-0.005": 11.6780218064,
			"-0.004": 10.4805115832,
			"-0.003": 11.8280662931,
			"-0.002": 14.1483175806,
			"-0.001": 21.6725273499,
			"0.0": 22.2431689109,
			"0.001": 19.9751658776,
			"0.002": 15.9598285732,
			"0.003": 22.3590044765,
			"0.004": 21.0541548735,
			"0.005": 3.61834709453,
			"0.006": 1.8117039272,
			"0.007": 0.976423999537,
			"0.008": 1.55726132684,
			"0.009": 1.1702757179,
			"0.01": 1.45269830543,
			"0.011": 1.261578391,
			"0.012": 2.0726846934,
			"0.013": 2.25958824039,
			"0.014": 6.00484212293,
			"0.015": 2.03167107863,
			"0.016": 0.00462024179504,
			"0.017": 0.0,
			"0.018": 0.0,
			"0.019": 0.0,
			"0.02": 0.0,
			"0.021": 0.0,
			"0.022": 0.0,
			"0.023": 0.0,
			"0.024": 0.0,
			"0.025": 0.0
		}
	}
}
