{
	 "smiles": "OCCOC1CCNCC1", 
	 "Tm": 335.15, 
	 "num_atms": 25, 
	 "gaussian": { 
		 "optdone": 1, 
		 "sigma_profile": "yes", 
		 "theory": "DFT", 
		 "functional": "B3LYP", 
		 "basiset": "6-31G**", 
		 "properties": { 
			 "R2extent": 2040.5583, 
			 "electric_dipole_moment_norm": 2.05271610068, 
			 "electric_quadrupole_moment_norm": 9.39826225799, 
			 "total_energy": -480.959640088, 
			 "HOMO_LUMO_gap": 0.28597, 
			 "cosmo_polarized_energy": -10.69, 
			 "cosmo_cavitation_energy": 25.72, 
			 "cosmo_dispersion_energy": -19.08, 
			 "cosmo_repulsion_energy": 1.6, 
			 "cosmo_total_nonelectrostatic_energy": 8.24, 
			 "SMD_solvation_energy": 1.74 
		},
		"coords": [
			{
				"x": 2.1395740398,
				"y": 2.5323129413,
				"z": -0.5960495576,
				"element": "O" 
			},
			{
				"x": 2.4934686396,
				"y": 2.5402922395,
				"z": 0.7831599484,
				"element": "C" 
			},
			{
				"x": 1.4317905325,
				"y": 1.7872484183,
				"z": 1.5726505515,
				"element": "C" 
			},
			{
				"x": 1.4859351877,
				"y": 0.3867776699,
				"z": 1.3724341537,
				"element": "O" 
			},
			{
				"x": 0.6801930217,
				"y": -0.1266305551,
				"z": 0.3037499661,
				"element": "C" 
			},
			{
				"x": -0.7511822994,
				"y": -0.4182009394,
				"z": 0.7760776494,
				"element": "C" 
			},
			{
				"x": -1.5476830782,
				"y": -1.1268070761,
				"z": -0.3268070987,
				"element": "C" 
			},
			{
				"x": -0.8564567262,
				"y": -2.3577154296,
				"z": -0.7127145867,
				"element": "N" 
			},
			{
				"x": 0.474776497,
				"y": -2.0906257216,
				"z": -1.2598557646,
				"element": "C" 
			},
			{
				"x": 1.3443665514,
				"y": -1.410056462,
				"z": -0.1959149261,
				"element": "C" 
			},
			{
				"x": 2.8995781198,
				"y": 2.8359592117,
				"z": -1.1066660513,
				"element": "H" 
			},
			{
				"x": 3.4636787003,
				"y": 2.050707904,
				"z": 0.9533203471,
				"element": "H" 
			},
			{
				"x": 2.5590838942,
				"y": 3.5711978846,
				"z": 1.1716430163,
				"element": "H" 
			},
			{
				"x": 1.6080740758,
				"y": 1.963609564,
				"z": 2.6411800085,
				"element": "H" 
			},
			{
				"x": 0.4411482565,
				"y": 2.1967603163,
				"z": 1.3270227655,
				"element": "H" 
			},
			{
				"x": 0.6565875881,
				"y": 0.60216915,
				"z": -0.5170204251,
				"element": "H" 
			},
			{
				"x": -1.2582035417,
				"y": 0.510263466,
				"z": 1.0655231261,
				"element": "H" 
			},
			{
				"x": -0.7005858465,
				"y": -1.0629550096,
				"z": 1.6607436405,
				"element": "H" 
			},
			{
				"x": -2.5484208083,
				"y": -1.3853747149,
				"z": 0.0368718292,
				"element": "H" 
			},
			{
				"x": -1.6819586002,
				"y": -0.4283957414,
				"z": -1.1775674299,
				"element": "H" 
			},
			{
				"x": -1.4131484485,
				"y": -2.8679181227,
				"z": -1.3926592325,
				"element": "H" 
			},
			{
				"x": 0.4423705272,
				"y": -1.4457844708,
				"z": -2.1611873894,
				"element": "H" 
			},
			{
				"x": 0.9268814689,
				"y": -3.0418568378,
				"z": -1.5621140256,
				"element": "H" 
			},
			{
				"x": 2.3346828133,
				"y": -1.1760689495,
				"z": -0.6016349258,
				"element": "H" 
			},
			{
				"x": 1.4806494351,
				"y": -2.0896087354,
				"z": 0.6532144109,
				"element": "H" 
			}
		],
		 "valence_orbital": [ 
			{
				"type": "occ",
				"energy": -0.31348,
				"method": "rhf"
			},
			{
				"type": "occ",
				"energy": -0.29114,
				"method": "rhf"
			},
			{
				"type": "occ",
				"energy": -0.27047,
				"method": "rhf"
			},
			{
				"type": "occ",
				"energy": -0.23582,
				"method": "rhf"
			},
			{
				"type": "occ",
				"energy": -0.21362,
				"method": "rhf"
			},
			{
				"type": "unocc",
				"energy": 0.07235,
				"method": "rhf"
			},
			{
				"type": "unocc",
				"energy": 0.08703,
				"method": "rhf"
			},
			{
				"type": "unocc",
				"energy": 0.11147,
				"method": "rhf"
			},
			{
				"type": "unocc",
				"energy": 0.12714,
				"method": "rhf"
			},
			{
				"type": "unocc",
				"energy": 0.13336,
				"method": "rhf"
			}
		],
		"cosmo_sigma_profile": { 
			"-0.025": 0.0,
			"-0.024": 0.0,
			"-0.023": 0.0,
			"-0.022": 0.0,
			"-0.021": 0.0,
			"-0.02": 0.0,
			"-0.019": 0.0,
			"-0.018": 0.0,
			"-0.017": 0.0,
			"-0.016": 0.267025195399,
			"-0.015": 1.16935526491,
			"-0.014": 1.24329514342,
			"-0.013": 0.586488462128,
			"-0.012": 0.903353936821,
			"-0.011": 1.0115255456,
			"-0.01": 1.45839535346,
			"-0.009": 2.10682776821,
			"-0.008": 2.16351908566,
			"-0.007": 2.02665811129,
			"-0.006": 2.01643481623,
			"-0.005": 4.37032268352,
			"-0.004": 14.2623454241,
			"-0.003": 24.041243866,
			"-0.002": 27.0505311838,
			"-0.001": 32.544670366,
			"0.0": 19.3377674779,
			"0.001": 10.2856497732,
			"0.002": 6.07562866829,
			"0.003": 5.51032443208,
			"0.004": 4.40886169018,
			"0.005": 3.69349972518,
			"0.006": 2.96919516869,
			"0.007": 4.66580442509,
			"0.008": 5.24089800018,
			"0.009": 2.99573480935,
			"0.01": 2.9076169114,
			"0.011": 2.60433752527,
			"0.012": 2.89762045102,
			"0.013": 2.74722928829,
			"0.014": 1.6639996234,
			"0.015": 0.527082102022,
			"0.016": 0.538124195072,
			"0.017": 0.801213391369,
			"0.018": 0.282219861155,
			"0.019": 0.118496549275,
			"0.02": 0.0,
			"0.021": 0.0,
			"0.022": 0.0,
			"0.023": 0.0,
			"0.024": 0.0,
			"0.025": 0.0
		}
	}
}
