{
	 "smiles": "CC1=CC=C(O)C=C1C", 
	 "Tm": 339.65, 
	 "num_atms": 19, 
	 "gaussian": { 
		 "optdone": 1, 
		 "sigma_profile": "yes", 
		 "theory": "DFT", 
		 "functional": "B3LYP", 
		 "basiset": "6-31G**", 
		 "properties": { 
			 "R2extent": 1341.7249, 
			 "electric_dipole_moment_norm": 1.67457063751, 
			 "electric_quadrupole_moment_norm": 8.97714674716, 
			 "total_energy": -386.111048678, 
			 "HOMO_LUMO_gap": 0.21423, 
			 "cosmo_polarized_energy": -7.71, 
			 "cosmo_cavitation_energy": 21.92, 
			 "cosmo_dispersion_energy": -16.26, 
			 "cosmo_repulsion_energy": 1.32, 
			 "cosmo_total_nonelectrostatic_energy": 6.98, 
			 "SMD_solvation_energy": 4.17 
		},
		"coords": [
			{
				"x": -1.5346380125,
				"y": 0.9072830714,
				"z": -1.9132870893,
				"element": "C" 
			},
			{
				"x": -0.8216344275,
				"y": 0.2010446073,
				"z": -0.7840715207,
				"element": "C" 
			},
			{
				"x": 0.0119039719,
				"y": -0.893488981,
				"z": -1.043898654,
				"element": "C" 
			},
			{
				"x": 0.6860820209,
				"y": -1.5704931058,
				"z": -0.0303924609,
				"element": "C" 
			},
			{
				"x": 0.5281804068,
				"y": -1.1468186184,
				"z": 1.2898335626,
				"element": "C" 
			},
			{
				"x": 1.2027273201,
				"y": -1.830766905,
				"z": 2.2654162545,
				"element": "O" 
			},
			{
				"x": -0.2995406765,
				"y": -0.0558945745,
				"z": 1.5714401722,
				"element": "C" 
			},
			{
				"x": -0.9761241523,
				"y": 0.6232739014,
				"z": 0.5527686123,
				"element": "C" 
			},
			{
				"x": -1.8620930362,
				"y": 1.7979489633,
				"z": 0.8947702626,
				"element": "C" 
			},
			{
				"x": -1.254286801,
				"y": 1.9662253144,
				"z": -1.9771434774,
				"element": "H" 
			},
			{
				"x": -2.6248421928,
				"y": 0.8782408009,
				"z": -1.7922468447,
				"element": "H" 
			},
			{
				"x": -1.2974115537,
				"y": 0.4449270985,
				"z": -2.8753315731,
				"element": "H" 
			},
			{
				"x": 0.137426234,
				"y": -1.2265509684,
				"z": -2.0714220022,
				"element": "H" 
			},
			{
				"x": 1.3294770622,
				"y": -2.4175171039,
				"z": -0.2437578371,
				"element": "H" 
			},
			{
				"x": 1.002406505,
				"y": -1.4325772149,
				"z": 3.1222135726,
				"element": "H" 
			},
			{
				"x": -0.4210550157,
				"y": 0.2727959372,
				"z": 2.6028963437,
				"element": "H" 
			},
			{
				"x": -2.8983246821,
				"y": 1.6272938196,
				"z": 0.5784405624,
				"element": "H" 
			},
			{
				"x": -1.5284075412,
				"y": 2.7144584933,
				"z": 0.3931432424,
				"element": "H" 
			},
			{
				"x": -1.8698454298,
				"y": 1.9911154644,
				"z": 1.9708288741,
				"element": "H" 
			}
		],
		 "valence_orbital": [ 
			{
				"type": "occ",
				"energy": -0.34155,
				"method": "rhf"
			},
			{
				"type": "occ",
				"energy": -0.32688,
				"method": "rhf"
			},
			{
				"type": "occ",
				"energy": -0.31254,
				"method": "rhf"
			},
			{
				"type": "occ",
				"energy": -0.23897,
				"method": "rhf"
			},
			{
				"type": "occ",
				"energy": -0.2074,
				"method": "rhf"
			},
			{
				"type": "unocc",
				"energy": 0.00683,
				"method": "rhf"
			},
			{
				"type": "unocc",
				"energy": 0.02104,
				"method": "rhf"
			},
			{
				"type": "unocc",
				"energy": 0.07532,
				"method": "rhf"
			},
			{
				"type": "unocc",
				"energy": 0.09459,
				"method": "rhf"
			},
			{
				"type": "unocc",
				"energy": 0.10999,
				"method": "rhf"
			}
		],
		"cosmo_sigma_profile": { 
			"-0.025": 0.0,
			"-0.024": 0.0,
			"-0.023": 0.0,
			"-0.022": 0.0,
			"-0.021": 0.0,
			"-0.02": 0.0,
			"-0.019": 0.0,
			"-0.018": 0.0278625166293,
			"-0.017": 0.896095717195,
			"-0.016": 0.857928220999,
			"-0.015": 0.75127375237,
			"-0.014": 1.59685627863,
			"-0.013": 0.889978941926,
			"-0.012": 0.578972318864,
			"-0.011": 0.566911567905,
			"-0.01": 1.06564141004,
			"-0.009": 1.75554031421,
			"-0.008": 1.06282731718,
			"-0.007": 0.719480909611,
			"-0.006": 1.8687794605,
			"-0.005": 6.1236182762,
			"-0.004": 13.9642135207,
			"-0.003": 17.6633483926,
			"-0.002": 15.3789848881,
			"-0.001": 15.1878027636,
			"0.0": 19.3408221925,
			"0.001": 13.5121657986,
			"0.002": 8.36726822398,
			"0.003": 7.24054914527,
			"0.004": 9.27139100845,
			"0.005": 10.2228721732,
			"0.006": 9.6776900874,
			"0.007": 5.57701158835,
			"0.008": 1.43030819362,
			"0.009": 1.82921127038,
			"0.01": 1.47383683052,
			"0.011": 1.92744275645,
			"0.012": 1.61581966106,
			"0.013": 0.0653986869165,
			"0.014": 0.0,
			"0.015": 0.0,
			"0.016": 0.0,
			"0.017": 0.0,
			"0.018": 0.0,
			"0.019": 0.0,
			"0.02": 0.0,
			"0.021": 0.0,
			"0.022": 0.0,
			"0.023": 0.0,
			"0.024": 0.0,
			"0.025": 0.0
		}
	}
}
