{
	 "smiles": "CN1C(=O)C(C2=NNC(=O)C2=N/NC2=CC=C(I)C=C2)=C(O)C2=CC=CC=C12", 
	 "Tm": 535.15, 
	 "num_atms": 42, 
	 "gaussian": { 
		 "optdone": 1, 
		 "sigma_profile": "no", 
		 "theory": "DFT", 
		 "functional": "B3LYP", 
		 "basiset": "6-31G**", 
		 "properties": { 
			 "R2extent": 14815.2574, 
			 "electric_dipole_moment_norm": 1.92438980199, 
			 "electric_quadrupole_moment_norm": 24.7308241476, 
			 "total_energy": -1243.25415355, 
			 "HOMO_LUMO_gap": 0.10207, 
			 "cosmo_polarized_energy": -104378.99, 
			 "cosmo_cavitation_energy": 49.76, 
			 "cosmo_dispersion_energy": -37.53, 
			 "cosmo_repulsion_energy": 2.72, 
			 "cosmo_total_nonelectrostatic_energy": 14.96, 
			 "SMD_solvation_energy": 7.26 
		},
		"coords": [
			{
				"x": 0.1956855947,
				"y": -2.5740392411,
				"z": 4.2717269926,
				"element": "C" 
			},
			{
				"x": 0.2538064523,
				"y": -1.7398474502,
				"z": 3.0719370908,
				"element": "N" 
			},
			{
				"x": 0.4306087752,
				"y": -0.3509587038,
				"z": 3.274016004,
				"element": "C" 
			},
			{
				"x": 0.4851908811,
				"y": 0.0912326775,
				"z": 4.4158476349,
				"element": "O" 
			},
			{
				"x": 0.5241919737,
				"y": 0.4914199495,
				"z": 2.0622781795,
				"element": "C" 
			},
			{
				"x": 0.8702967364,
				"y": 1.9101884873,
				"z": 2.2703248518,
				"element": "C" 
			},
			{
				"x": 1.6222511009,
				"y": 2.2904585297,
				"z": 3.2786943315,
				"element": "N" 
			},
			{
				"x": 1.7331269875,
				"y": 3.6707572276,
				"z": 3.2328710988,
				"element": "N" 
			},
			{
				"x": 1.0416664132,
				"y": 4.2571526728,
				"z": 2.2172493795,
				"element": "C" 
			},
			{
				"x": 0.9371447168,
				"y": 5.4555594382,
				"z": 1.9195961957,
				"element": "O" 
			},
			{
				"x": 0.4593748379,
				"y": 3.0931965031,
				"z": 1.5130458869,
				"element": "C" 
			},
			{
				"x": -0.2264290744,
				"y": 3.1492266139,
				"z": 0.400902019,
				"element": "N" 
			},
			{
				"x": -0.491051823,
				"y": 4.3310340284,
				"z": -0.1221847762,
				"element": "N" 
			},
			{
				"x": -1.2109107654,
				"y": 4.4714567332,
				"z": -1.3133479886,
				"element": "C" 
			},
			{
				"x": -1.7393996783,
				"y": 3.3712563332,
				"z": -2.0036929247,
				"element": "C" 
			},
			{
				"x": -2.4486304038,
				"y": 3.5738274465,
				"z": -3.1842282975,
				"element": "C" 
			},
			{
				"x": -2.6355790449,
				"y": 4.8685043167,
				"z": -3.67716437,
				"element": "C" 
			},
			{
				"x": -3.7163772873,
				"y": 5.1646378981,
				"z": -5.4722261239,
				"element": "I" 
			},
			{
				"x": -2.1136771127,
				"y": 5.9675796503,
				"z": -2.9913254364,
				"element": "C" 
			},
			{
				"x": -1.4025600959,
				"y": 5.7681167028,
				"z": -1.8114303607,
				"element": "C" 
			},
			{
				"x": 0.2918572334,
				"y": -0.0705714405,
				"z": 0.8211920086,
				"element": "C" 
			},
			{
				"x": 0.2663631578,
				"y": 0.6011352626,
				"z": -0.3445531189,
				"element": "O" 
			},
			{
				"x": 0.0992236345,
				"y": -1.4975717658,
				"z": 0.6703710889,
				"element": "C" 
			},
			{
				"x": -0.078505563,
				"y": -2.0791865767,
				"z": -0.5991652499,
				"element": "C" 
			},
			{
				"x": -0.2358534485,
				"y": -3.4485649714,
				"z": -0.7399093919,
				"element": "C" 
			},
			{
				"x": -0.2208289006,
				"y": -4.2605939226,
				"z": 0.4020201078,
				"element": "C" 
			},
			{
				"x": -0.0538684609,
				"y": -3.7115257473,
				"z": 1.6662547929,
				"element": "C" 
			},
			{
				"x": 0.1068221115,
				"y": -2.3192581416,
				"z": 1.8230180644,
				"element": "C" 
			},
			{
				"x": 0.3017744251,
				"y": -1.9114950357,
				"z": 5.1271573636,
				"element": "H" 
			},
			{
				"x": 1.0077717607,
				"y": -3.3081371301,
				"z": 4.2709375854,
				"element": "H" 
			},
			{
				"x": -0.7627101883,
				"y": -3.0996831442,
				"z": 4.3302447822,
				"element": "H" 
			},
			{
				"x": 2.2469774991,
				"y": 4.1393213546,
				"z": 3.9632712197,
				"element": "H" 
			},
			{
				"x": -0.1311993736,
				"y": 5.150614463,
				"z": 0.3850341775,
				"element": "H" 
			},
			{
				"x": -1.5993272158,
				"y": 2.3668957626,
				"z": -1.6222312817,
				"element": "H" 
			},
			{
				"x": -2.8549097549,
				"y": 2.7197721816,
				"z": -3.7140646179,
				"element": "H" 
			},
			{
				"x": -2.2558229943,
				"y": 6.9737977549,
				"z": -3.3684424011,
				"element": "H" 
			},
			{
				"x": -0.9939487789,
				"y": 6.6211153763,
				"z": -1.2767124584,
				"element": "H" 
			},
			{
				"x": 0.1008478927,
				"y": 1.5613326809,
				"z": -0.2063683297,
				"element": "H" 
			},
			{
				"x": -0.0843611953,
				"y": -1.4272779643,
				"z": -1.4641750447,
				"element": "H" 
			},
			{
				"x": -0.3695340792,
				"y": -3.8863414449,
				"z": -1.7238427059,
				"element": "H" 
			},
			{
				"x": -0.3429078274,
				"y": -5.3356925466,
				"z": 0.3058278921,
				"element": "H" 
			},
			{
				"x": -0.0491891183,
				"y": -4.3616448187,
				"z": 2.5312461299,
				"element": "H" 
			}
		],
		 "valence_orbital": [ 
			{
				"type": "occ",
				"energy": -0.26325,
				"method": "rhf"
			},
			{
				"type": "occ",
				"energy": -0.24379,
				"method": "rhf"
			},
			{
				"type": "occ",
				"energy": -0.23053,
				"method": "rhf"
			},
			{
				"type": "occ",
				"energy": -0.22189,
				"method": "rhf"
			},
			{
				"type": "occ",
				"energy": -0.20812,
				"method": "rhf"
			},
			{
				"type": "unocc",
				"energy": -0.10605,
				"method": "rhf"
			},
			{
				"type": "unocc",
				"energy": -0.05029,
				"method": "rhf"
			},
			{
				"type": "unocc",
				"energy": -0.04639,
				"method": "rhf"
			},
			{
				"type": "unocc",
				"energy": -0.03136,
				"method": "rhf"
			},
			{
				"type": "unocc",
				"energy": -0.0143,
				"method": "rhf"
			}
		],
		"cosmo_sigma_profile": { 
			"0.0": 0.0,
			"0.0": 0.0,
			"0.0": 0.0,
			"0.0": 0.0,
			"0.0": 0.0,
			"0.0": 0.0,
			"0.0": 0.0,
			"0.0": 0.0,
			"0.0": 0.0,
			"0.0": 0.0,
			"0.0": 0.0,
			"0.0": 0.0,
			"0.0": 0.0,
			"0.0": 0.0,
			"0.0": 0.0,
			"0.0": 0.0,
			"0.0": 0.0,
			"0.0": 0.0,
			"0.0": 0.0,
			"0.0": 0.0,
			"0.0": 0.0,
			"0.0": 0.0,
			"0.0": 0.0,
			"0.0": 0.0,
			"0.0": 0.0,
			"0.0": 0.0,
			"0.0": 0.0,
			"0.0": 0.0,
			"0.0": 0.0,
			"0.0": 0.0,
			"0.0": 0.0,
			"0.0": 0.0,
			"0.0": 0.0,
			"0.0": 0.0,
			"0.0": 0.0,
			"0.0": 0.0,
			"0.0": 0.0,
			"0.0": 0.0,
			"0.0": 0.0,
			"0.0": 0.0,
			"0.0": 0.0,
			"0.0": 0.0,
			"0.0": 0.0,
			"0.0": 0.0,
			"0.0": 0.0,
			"0.0": 0.0,
			"0.0": 0.0,
			"0.0": 0.0,
			"0.0": 0.0,
			"0.0": 0.0,
			"0.0": 0.0
		}
	}
}
