{
	 "smiles": "COC1=CC=CC(=C1)C(=O)NNC(=O)C1=CC=CC2=C1C=CC=C2", 
	 "Tm": 463.15, 
	 "num_atms": 40, 
	 "gaussian": { 
		 "optdone": 1, 
		 "sigma_profile": "yes", 
		 "theory": "DFT", 
		 "functional": "B3LYP", 
		 "basiset": "6-31G**", 
		 "properties": { 
			 "R2extent": 8710.5259, 
			 "electric_dipole_moment_norm": 7.42536824272, 
			 "electric_quadrupole_moment_norm": 13.9753066099, 
			 "total_energy": -1068.82948511, 
			 "HOMO_LUMO_gap": 0.16592, 
			 "cosmo_polarized_energy": -21.09, 
			 "cosmo_cavitation_energy": 44.87, 
			 "cosmo_dispersion_energy": -30.19, 
			 "cosmo_repulsion_energy": 2.3, 
			 "cosmo_total_nonelectrostatic_energy": 16.99, 
			 "SMD_solvation_energy": 9.46 
		},
		"coords": [
			{
				"x": -4.923969462,
				"y": -0.5298749576,
				"z": -2.043150121,
				"element": "C" 
			},
			{
				"x": -3.5407476471,
				"y": -0.223142511,
				"z": -1.9500503159,
				"element": "O" 
			},
			{
				"x": -2.6773550923,
				"y": -1.2222251054,
				"z": -1.6119983625,
				"element": "C" 
			},
			{
				"x": -3.0491639644,
				"y": -2.5495159344,
				"z": -1.3652380134,
				"element": "C" 
			},
			{
				"x": -2.0713102475,
				"y": -3.484065314,
				"z": -1.0072017056,
				"element": "C" 
			},
			{
				"x": -0.7353601417,
				"y": -3.1176059752,
				"z": -0.8986615179,
				"element": "C" 
			},
			{
				"x": -0.362524643,
				"y": -1.7908088514,
				"z": -1.1634255142,
				"element": "C" 
			},
			{
				"x": -1.3306430482,
				"y": -0.8455360372,
				"z": -1.5090864979,
				"element": "C" 
			},
			{
				"x": 1.0876708982,
				"y": -1.4415323955,
				"z": -1.0382994546,
				"element": "C" 
			},
			{
				"x": 1.882024831,
				"y": -2.0925264215,
				"z": -0.3726581314,
				"element": "O" 
			},
			{
				"x": 1.4918728176,
				"y": -0.323088356,
				"z": -1.753766027,
				"element": "N" 
			},
			{
				"x": 2.8465999593,
				"y": -0.0423465705,
				"z": -1.8193450698,
				"element": "N" 
			},
			{
				"x": 3.4186595109,
				"y": 1.0987123911,
				"z": -1.2761792384,
				"element": "C" 
			},
			{
				"x": 4.6326734567,
				"y": 1.211724378,
				"z": -1.252913847,
				"element": "O" 
			},
			{
				"x": 2.4870492237,
				"y": 2.2036972931,
				"z": -0.8437731491,
				"element": "C" 
			},
			{
				"x": 2.4439274738,
				"y": 3.343569244,
				"z": -1.6224016574,
				"element": "C" 
			},
			{
				"x": 1.6388047711,
				"y": 4.4453818362,
				"z": -1.252337976,
				"element": "C" 
			},
			{
				"x": 0.9048361515,
				"y": 4.4035226064,
				"z": -0.0897328356,
				"element": "C" 
			},
			{
				"x": 0.9464234313,
				"y": 3.2630508941,
				"z": 0.7564816466,
				"element": "C" 
			},
			{
				"x": 1.7504380644,
				"y": 2.1359116922,
				"z": 0.380194834,
				"element": "C" 
			},
			{
				"x": 1.7963299362,
				"y": 1.0108351717,
				"z": 1.2492251701,
				"element": "C" 
			},
			{
				"x": 1.0771061249,
				"y": 0.99790965,
				"z": 2.4234087525,
				"element": "C" 
			},
			{
				"x": 0.2778543753,
				"y": 2.1072040101,
				"z": 2.7912575318,
				"element": "C" 
			},
			{
				"x": 0.2160225827,
				"y": 3.2129105653,
				"z": 1.9749572609,
				"element": "C" 
			},
			{
				"x": -5.421255152,
				"y": 0.4038795114,
				"z": -2.3090799088,
				"element": "H" 
			},
			{
				"x": -5.1216433079,
				"y": -1.2777599521,
				"z": -2.8217573173,
				"element": "H" 
			},
			{
				"x": -5.32301291,
				"y": -0.8919027589,
				"z": -1.087102534,
				"element": "H" 
			},
			{
				"x": -4.084397723,
				"y": -2.8604276039,
				"z": -1.439522684,
				"element": "H" 
			},
			{
				"x": -2.3686490008,
				"y": -4.5100611939,
				"z": -0.8110056894,
				"element": "H" 
			},
			{
				"x": 0.0296909122,
				"y": -3.8299087241,
				"z": -0.612223889,
				"element": "H" 
			},
			{
				"x": -1.0815775138,
				"y": 0.199234829,
				"z": -1.662593253,
				"element": "H" 
			},
			{
				"x": 0.9631375619,
				"y": -0.0730574821,
				"z": -2.57998246,
				"element": "H" 
			},
			{
				"x": 3.4630666009,
				"y": -0.8457401324,
				"z": -1.8963055308,
				"element": "H" 
			},
			{
				"x": 3.03901511,
				"y": 3.3924120696,
				"z": -2.5295760148,
				"element": "H" 
			},
			{
				"x": 1.6110731445,
				"y": 5.3251231281,
				"z": -1.8883957181,
				"element": "H" 
			},
			{
				"x": 0.2874578846,
				"y": 5.248703375,
				"z": 0.2037935556,
				"element": "H" 
			},
			{
				"x": 2.4004970267,
				"y": 0.1499725569,
				"z": 0.9813302838,
				"element": "H" 
			},
			{
				"x": 1.1238147533,
				"y": 0.1289365677,
				"z": 3.0730205139,
				"element": "H" 
			},
			{
				"x": -0.2832922446,
				"y": 2.0825013684,
				"z": 3.7209264337,
				"element": "H" 
			},
			{
				"x": -0.3908445045,
				"y": 4.0710331387,
				"z": 2.2526684508,
				"element": "H" 
			}
		],
		 "valence_orbital": [ 
			{
				"type": "occ",
				"energy": -0.26213,
				"method": "rhf"
			},
			{
				"type": "occ",
				"energy": -0.24696,
				"method": "rhf"
			},
			{
				"type": "occ",
				"energy": -0.24366,
				"method": "rhf"
			},
			{
				"type": "occ",
				"energy": -0.23371,
				"method": "rhf"
			},
			{
				"type": "occ",
				"energy": -0.21445,
				"method": "rhf"
			},
			{
				"type": "unocc",
				"energy": -0.04853,
				"method": "rhf"
			},
			{
				"type": "unocc",
				"energy": -0.04091,
				"method": "rhf"
			},
			{
				"type": "unocc",
				"energy": -0.0091,
				"method": "rhf"
			},
			{
				"type": "unocc",
				"energy": -0.00705,
				"method": "rhf"
			},
			{
				"type": "unocc",
				"energy": 0.01173,
				"method": "rhf"
			}
		],
		"cosmo_sigma_profile": { 
			"-0.025": 0.0,
			"-0.024": 0.0,
			"-0.023": 0.0,
			"-0.022": 0.0,
			"-0.021": 0.0,
			"-0.02": 0.0,
			"-0.019": 0.0,
			"-0.018": 0.0,
			"-0.017": 0.0,
			"-0.016": 0.225347093881,
			"-0.015": 1.05312817871,
			"-0.014": 1.30278581492,
			"-0.013": 1.52439825603,
			"-0.012": 1.97014874544,
			"-0.011": 2.31266260594,
			"-0.01": 2.09945412115,
			"-0.009": 2.41198432534,
			"-0.008": 2.4681296352,
			"-0.007": 6.5591221762,
			"-0.006": 26.5074952477,
			"-0.005": 29.5143403154,
			"-0.004": 30.7262005442,
			"-0.003": 26.4992337856,
			"-0.002": 19.3265024829,
			"-0.001": 17.5988971701,
			"0.0": 17.883888657,
			"0.001": 21.2571780398,
			"0.002": 25.9295898674,
			"0.003": 36.6588007549,
			"0.004": 31.6102415885,
			"0.005": 12.5753910047,
			"0.006": 5.52244615672,
			"0.007": 4.03067388119,
			"0.008": 4.52698431199,
			"0.009": 3.74897767632,
			"0.01": 3.67534877197,
			"0.011": 4.61427653276,
			"0.012": 7.98146345341,
			"0.013": 6.12072114029,
			"0.014": 0.676509923273,
			"0.015": 0.0,
			"0.016": 0.0,
			"0.017": 0.0,
			"0.018": 0.0,
			"0.019": 0.0,
			"0.02": 0.0,
			"0.021": 0.0,
			"0.022": 0.0,
			"0.023": 0.0,
			"0.024": 0.0,
			"0.025": 0.0
		}
	}
}
