{
	 "smiles": "CCOC(=O)C(C)C", 
	 "Tm": 185.05, 
	 "num_atms": 20, 
	 "gaussian": { 
		 "optdone": 1, 
		 "sigma_profile": "yes", 
		 "theory": "DFT", 
		 "functional": "B3LYP", 
		 "basiset": "6-31G**", 
		 "properties": { 
			 "R2extent": 1530.1365, 
			 "electric_dipole_moment_norm": 1.81970547342, 
			 "electric_quadrupole_moment_norm": 10.1809738296, 
			 "total_energy": -386.344357583, 
			 "HOMO_LUMO_gap": 0.27764, 
			 "cosmo_polarized_energy": -5.87, 
			 "cosmo_cavitation_energy": 22.73, 
			 "cosmo_dispersion_energy": -16.04, 
			 "cosmo_repulsion_energy": 1.38, 
			 "cosmo_total_nonelectrostatic_energy": 8.07, 
			 "SMD_solvation_energy": 5.28 
		},
		"coords": [
			{
				"x": 1.98547149,
				"y": -3.1695145051,
				"z": 0.3563989335,
				"element": "C" 
			},
			{
				"x": 0.8672524937,
				"y": -2.4223644481,
				"z": 1.0676645321,
				"element": "C" 
			},
			{
				"x": 0.5962093983,
				"y": -1.1501081048,
				"z": 0.4334058741,
				"element": "O" 
			},
			{
				"x": 1.3676389404,
				"y": -0.1035737489,
				"z": 0.8158179296,
				"element": "C" 
			},
			{
				"x": 2.2483506612,
				"y": -0.1864086798,
				"z": 1.6461956685,
				"element": "O" 
			},
			{
				"x": 0.9807045936,
				"y": 1.1707799447,
				"z": 0.0769219043,
				"element": "C" 
			},
			{
				"x": 1.2029721607,
				"y": 1.0178178228,
				"z": -1.438326292,
				"element": "C" 
			},
			{
				"x": -0.4690588676,
				"y": 1.5758382462,
				"z": 0.3974761592,
				"element": "C" 
			},
			{
				"x": 2.1174951406,
				"y": -4.1590513552,
				"z": 0.8067928237,
				"element": "H" 
			},
			{
				"x": 1.7520357621,
				"y": -3.3035167284,
				"z": -0.7040827767,
				"element": "H" 
			},
			{
				"x": 2.9278444143,
				"y": -2.6238534198,
				"z": 0.4464395747,
				"element": "H" 
			},
			{
				"x": -0.079245197,
				"y": -2.9651722312,
				"z": 1.0056643904,
				"element": "H" 
			},
			{
				"x": 1.1178610977,
				"y": -2.2465438219,
				"z": 2.1165640731,
				"element": "H" 
			},
			{
				"x": 1.6616656012,
				"y": 1.9350097243,
				"z": 0.4646770042,
				"element": "H" 
			},
			{
				"x": 0.5510783376,
				"y": 0.2422323139,
				"z": -1.8501627638,
				"element": "H" 
			},
			{
				"x": 2.2396943665,
				"y": 0.7497228409,
				"z": -1.6658208605,
				"element": "H" 
			},
			{
				"x": 0.9797328275,
				"y": 1.9606886873,
				"z": -1.9479225345,
				"element": "H" 
			},
			{
				"x": -0.6203072367,
				"y": 1.702421066,
				"z": 1.4742475036,
				"element": "H" 
			},
			{
				"x": -0.710515017,
				"y": 2.5258251899,
				"z": -0.0902047933,
				"element": "H" 
			},
			{
				"x": -1.1721809672,
				"y": 0.8180712072,
				"z": 0.0403536499,
				"element": "H" 
			}
		],
		 "valence_orbital": [ 
			{
				"type": "occ",
				"energy": -0.34208,
				"method": "rhf"
			},
			{
				"type": "occ",
				"energy": -0.34104,
				"method": "rhf"
			},
			{
				"type": "occ",
				"energy": -0.33273,
				"method": "rhf"
			},
			{
				"type": "occ",
				"energy": -0.29364,
				"method": "rhf"
			},
			{
				"type": "occ",
				"energy": -0.26091,
				"method": "rhf"
			},
			{
				"type": "unocc",
				"energy": 0.01673,
				"method": "rhf"
			},
			{
				"type": "unocc",
				"energy": 0.0901,
				"method": "rhf"
			},
			{
				"type": "unocc",
				"energy": 0.1113,
				"method": "rhf"
			},
			{
				"type": "unocc",
				"energy": 0.13197,
				"method": "rhf"
			},
			{
				"type": "unocc",
				"energy": 0.1421,
				"method": "rhf"
			}
		],
		"cosmo_sigma_profile": { 
			"-0.025": 0.0,
			"-0.024": 0.0,
			"-0.023": 0.0,
			"-0.022": 0.0,
			"-0.021": 0.0,
			"-0.02": 0.0,
			"-0.019": 0.0,
			"-0.018": 0.0,
			"-0.017": 0.0,
			"-0.016": 0.0,
			"-0.015": 0.0,
			"-0.014": 0.0,
			"-0.013": 0.0,
			"-0.012": 0.0,
			"-0.011": 0.0,
			"-0.01": 0.0,
			"-0.009": 0.0,
			"-0.008": 0.0,
			"-0.007": 0.0,
			"-0.006": 0.833830879949,
			"-0.005": 4.18930389692,
			"-0.004": 17.5000259105,
			"-0.003": 27.6113625739,
			"-0.002": 25.764313556,
			"-0.001": 24.2195861794,
			"0.0": 24.9184256506,
			"0.001": 16.1774057704,
			"0.002": 5.12057518422,
			"0.003": 3.79598665276,
			"0.004": 3.72499689512,
			"0.005": 3.39831817105,
			"0.006": 3.22462855124,
			"0.007": 2.76692052754,
			"0.008": 1.21895349722,
			"0.009": 1.2257276597,
			"0.01": 1.98371002066,
			"0.011": 2.52891314159,
			"0.012": 4.1425981381,
			"0.013": 2.05205434039,
			"0.014": 0.225687320706,
			"0.015": 0.0,
			"0.016": 0.0,
			"0.017": 0.0,
			"0.018": 0.0,
			"0.019": 0.0,
			"0.02": 0.0,
			"0.021": 0.0,
			"0.022": 0.0,
			"0.023": 0.0,
			"0.024": 0.0,
			"0.025": 0.0
		}
	}
}
