{
	 "smiles": "ClC1=NC=CC2=C1C=C(Br)C=C2", 
	 "Tm": 397.15, 
	 "num_atms": 17, 
	 "gaussian": { 
		 "optdone": 1, 
		 "sigma_profile": "yes", 
		 "theory": "DFT", 
		 "functional": "B3LYP", 
		 "basiset": "6-31G**", 
		 "properties": { 
			 "R2extent": 4078.7647, 
			 "electric_dipole_moment_norm": 3.5576930292, 
			 "electric_quadrupole_moment_norm": 6.72855657775, 
			 "total_energy": -3432.32440624, 
			 "HOMO_LUMO_gap": 0.16771, 
			 "cosmo_polarized_energy": -7.13, 
			 "cosmo_cavitation_energy": 25.43, 
			 "cosmo_dispersion_energy": -19.61, 
			 "cosmo_repulsion_energy": 1.54, 
			 "cosmo_total_nonelectrostatic_energy": 7.36, 
			 "SMD_solvation_energy": 1.39 
		},
		"coords": [
			{
				"x": 1.660240862,
				"y": -3.0161155286,
				"z": -0.2507013684,
				"element": "Cl" 
			},
			{
				"x": 0.9817402415,
				"y": -1.6626162611,
				"z": 0.6615674233,
				"element": "C" 
			},
			{
				"x": 0.9865327901,
				"y": -1.7855541463,
				"z": 1.9549947701,
				"element": "N" 
			},
			{
				"x": 0.4741186036,
				"y": -0.768676244,
				"z": 2.7013928622,
				"element": "C" 
			},
			{
				"x": -0.0460645796,
				"y": 0.377295369,
				"z": 2.1535933403,
				"element": "C" 
			},
			{
				"x": -0.0580567315,
				"y": 0.5256806043,
				"z": 0.7427153527,
				"element": "C" 
			},
			{
				"x": 0.4764443921,
				"y": -0.5328598294,
				"z": -0.0581008867,
				"element": "C" 
			},
			{
				"x": 0.4788603707,
				"y": -0.4145080092,
				"z": -1.470709615,
				"element": "C" 
			},
			{
				"x": -0.0346004071,
				"y": 0.7202976446,
				"z": -2.0531806453,
				"element": "C" 
			},
			{
				"x": -0.0378289672,
				"y": 0.8932765446,
				"z": -3.9534329475,
				"element": "Br" 
			},
			{
				"x": -0.5676935759,
				"y": 1.7780304917,
				"z": -1.2792000983,
				"element": "C" 
			},
			{
				"x": -0.5763764004,
				"y": 1.676643357,
				"z": 0.0920534682,
				"element": "C" 
			},
			{
				"x": 0.5011920383,
				"y": -0.9196135217,
				"z": 3.7768831168,
				"element": "H" 
			},
			{
				"x": -0.4448191473,
				"y": 1.1638788017,
				"z": 2.7867587666,
				"element": "H" 
			},
			{
				"x": 0.8830963638,
				"y": -1.2147893935,
				"z": -2.076502668,
				"element": "H" 
			},
			{
				"x": -0.9634764989,
				"y": 2.6568321267,
				"z": -1.7751735762,
				"element": "H" 
			},
			{
				"x": -0.983409354,
				"y": 2.4831979942,
				"z": 0.6951427051,
				"element": "H" 
			}
		],
		 "valence_orbital": [ 
			{
				"type": "occ",
				"energy": -0.29873,
				"method": "rhf"
			},
			{
				"type": "occ",
				"energy": -0.29388,
				"method": "rhf"
			},
			{
				"type": "occ",
				"energy": -0.27955,
				"method": "rhf"
			},
			{
				"type": "occ",
				"energy": -0.27437,
				"method": "rhf"
			},
			{
				"type": "occ",
				"energy": -0.23963,
				"method": "rhf"
			},
			{
				"type": "unocc",
				"energy": -0.07192,
				"method": "rhf"
			},
			{
				"type": "unocc",
				"energy": -0.04448,
				"method": "rhf"
			},
			{
				"type": "unocc",
				"energy": -0.00418,
				"method": "rhf"
			},
			{
				"type": "unocc",
				"energy": 0.00527,
				"method": "rhf"
			},
			{
				"type": "unocc",
				"energy": 0.03041,
				"method": "rhf"
			}
		],
		"cosmo_sigma_profile": { 
			"-0.025": 0.0,
			"-0.024": 0.0,
			"-0.023": 0.0,
			"-0.022": 0.0,
			"-0.021": 0.0,
			"-0.02": 0.0,
			"-0.019": 0.0,
			"-0.018": 0.0,
			"-0.017": 0.0,
			"-0.016": 0.0,
			"-0.015": 0.0,
			"-0.014": 0.0,
			"-0.013": 0.0,
			"-0.012": 0.0,
			"-0.011": 0.0,
			"-0.01": 0.0,
			"-0.009": 0.168973185885,
			"-0.008": 5.83848335556,
			"-0.007": 8.89057748218,
			"-0.006": 9.4924618179,
			"-0.005": 8.87443528561,
			"-0.004": 8.48171396492,
			"-0.003": 9.17400935165,
			"-0.002": 13.8218105642,
			"-0.001": 20.2242771136,
			"0.0": 26.1832998704,
			"0.001": 31.2022051293,
			"0.002": 19.3516775127,
			"0.003": 14.7206884384,
			"0.004": 17.6287784271,
			"0.005": 5.93449672232,
			"0.006": 2.62805648381,
			"0.007": 1.24241170183,
			"0.008": 1.48311580257,
			"0.009": 1.27831109366,
			"0.01": 0.977993994631,
			"0.011": 1.24988284595,
			"0.012": 0.927165541358,
			"0.013": 0.895818693468,
			"0.014": 0.63467897388,
			"0.015": 0.0681645269931,
			"0.016": 0.0,
			"0.017": 0.0,
			"0.018": 0.0,
			"0.019": 0.0,
			"0.02": 0.0,
			"0.021": 0.0,
			"0.022": 0.0,
			"0.023": 0.0,
			"0.024": 0.0,
			"0.025": 0.0
		}
	}
}
