{
	 "smiles": "CCN1C=C(C(=O)NC(C(C)C)C(=O)OC)C(=O)C2=CC=C(C)N=C12", 
	 "Tm": 428.15, 
	 "num_atms": 48, 
	 "gaussian": { 
		 "optdone": 1, 
		 "sigma_profile": "yes", 
		 "theory": "DFT", 
		 "functional": "B3LYP", 
		 "basiset": "6-31G**", 
		 "properties": { 
			 "R2extent": 12020.5364, 
			 "electric_dipole_moment_norm": 3.99152621186, 
			 "electric_quadrupole_moment_norm": 27.0784173836, 
			 "total_energy": -1165.00726041, 
			 "HOMO_LUMO_gap": 0.16635, 
			 "cosmo_polarized_energy": -19.63, 
			 "cosmo_cavitation_energy": 50.81, 
			 "cosmo_dispersion_energy": -34.19, 
			 "cosmo_repulsion_energy": 2.61, 
			 "cosmo_total_nonelectrostatic_energy": 19.23, 
			 "SMD_solvation_energy": 10.15 
		},
		"coords": [
			{
				"x": 1.70782389,
				"y": -2.8504836296,
				"z": -4.5128600096,
				"element": "C" 
			},
			{
				"x": 1.9449064475,
				"y": -3.1932547054,
				"z": -3.042358274,
				"element": "C" 
			},
			{
				"x": 0.9526425622,
				"y": -2.5696799055,
				"z": -2.1436127147,
				"element": "N" 
			},
			{
				"x": 1.2250811342,
				"y": -1.3801481885,
				"z": -1.5492089873,
				"element": "C" 
			},
			{
				"x": 0.3695361777,
				"y": -0.6945260774,
				"z": -0.7263940194,
				"element": "C" 
			},
			{
				"x": 0.8989784667,
				"y": 0.6017301531,
				"z": -0.1845866106,
				"element": "C" 
			},
			{
				"x": 2.0265613862,
				"y": 1.0058096205,
				"z": -0.4889701189,
				"element": "O" 
			},
			{
				"x": 0.0517004096,
				"y": 1.2770724599,
				"z": 0.63519059,
				"element": "N" 
			},
			{
				"x": 0.4471648511,
				"y": 2.5077225934,
				"z": 1.2860177318,
				"element": "C" 
			},
			{
				"x": -0.2249367746,
				"y": 3.7769079305,
				"z": 0.6734791861,
				"element": "C" 
			},
			{
				"x": 0.2265158288,
				"y": 3.9810003671,
				"z": -0.778282814,
				"element": "C" 
			},
			{
				"x": -1.756132811,
				"y": 3.7269766212,
				"z": 0.7784806876,
				"element": "C" 
			},
			{
				"x": 0.1421553567,
				"y": 2.4103834678,
				"z": 2.77761002,
				"element": "C" 
			},
			{
				"x": -0.597212202,
				"y": 1.602272671,
				"z": 3.2957590275,
				"element": "O" 
			},
			{
				"x": 0.7872670116,
				"y": 3.3811214146,
				"z": 3.4614148907,
				"element": "O" 
			},
			{
				"x": 0.5325307748,
				"y": 3.4095212568,
				"z": 4.8756157386,
				"element": "C" 
			},
			{
				"x": -0.9509227311,
				"y": -1.2379118774,
				"z": -0.4398225846,
				"element": "C" 
			},
			{
				"x": -1.8020124499,
				"y": -0.6990552861,
				"z": 0.2893119007,
				"element": "O" 
			},
			{
				"x": -1.2281947731,
				"y": -2.5296587584,
				"z": -1.1003232135,
				"element": "C" 
			},
			{
				"x": -2.4572892918,
				"y": -3.1824166486,
				"z": -0.9183530502,
				"element": "C" 
			},
			{
				"x": -2.6934082024,
				"y": -4.3895638757,
				"z": -1.5482349975,
				"element": "C" 
			},
			{
				"x": -1.6861589567,
				"y": -4.9431096405,
				"z": -2.3674239943,
				"element": "C" 
			},
			{
				"x": -1.9018087555,
				"y": -6.2564500182,
				"z": -3.0754532418,
				"element": "C" 
			},
			{
				"x": -0.5110361102,
				"y": -4.3389518385,
				"z": -2.5540753059,
				"element": "N" 
			},
			{
				"x": -0.2890574568,
				"y": -3.1681540456,
				"z": -1.9351078548,
				"element": "C" 
			},
			{
				"x": 2.4830721393,
				"y": -3.3154610285,
				"z": -5.1302096295,
				"element": "H" 
			},
			{
				"x": 0.7362232049,
				"y": -3.2261953593,
				"z": -4.8420596499,
				"element": "H" 
			},
			{
				"x": 1.7427153374,
				"y": -1.769268648,
				"z": -4.6782208563,
				"element": "H" 
			},
			{
				"x": 1.8922759935,
				"y": -4.2712320841,
				"z": -2.8885209411,
				"element": "H" 
			},
			{
				"x": 2.9269839494,
				"y": -2.8445082139,
				"z": -2.7131801452,
				"element": "H" 
			},
			{
				"x": 2.2013327294,
				"y": -0.9483912195,
				"z": -1.7447278686,
				"element": "H" 
			},
			{
				"x": -0.8210643305,
				"y": 0.8118568884,
				"z": 0.888327129,
				"element": "H" 
			},
			{
				"x": 1.5293561685,
				"y": 2.6054901281,
				"z": 1.1606460861,
				"element": "H" 
			},
			{
				"x": 0.1394339677,
				"y": 4.6221499228,
				"z": 1.2709813354,
				"element": "H" 
			},
			{
				"x": -0.1262837282,
				"y": 3.1640677719,
				"z": -1.4156998532,
				"element": "H" 
			},
			{
				"x": 1.3167907387,
				"y": 4.0180392618,
				"z": -0.8602451346,
				"element": "H" 
			},
			{
				"x": -0.1819795512,
				"y": 4.9163685074,
				"z": -1.1758297824,
				"element": "H" 
			},
			{
				"x": -2.0972206362,
				"y": 3.6268450122,
				"z": 1.8141379534,
				"element": "H" 
			},
			{
				"x": -2.158945934,
				"y": 2.8799629338,
				"z": 0.2125321471,
				"element": "H" 
			},
			{
				"x": -2.1972254854,
				"y": 4.6412902374,
				"z": 0.3682414043,
				"element": "H" 
			},
			{
				"x": 1.1216306661,
				"y": 4.2399461881,
				"z": 5.2646000732,
				"element": "H" 
			},
			{
				"x": -0.5308779928,
				"y": 3.566974019,
				"z": 5.073109144,
				"element": "H" 
			},
			{
				"x": 0.8405428366,
				"y": 2.4695066017,
				"z": 5.3400693569,
				"element": "H" 
			},
			{
				"x": -3.1914413515,
				"y": -2.7062094105,
				"z": -0.2763691376,
				"element": "H" 
			},
			{
				"x": -3.6360926787,
				"y": -4.9128085454,
				"z": -1.4227618874,
				"element": "H" 
			},
			{
				"x": -1.0121127613,
				"y": -6.5246102389,
				"z": -3.6467346605,
				"element": "H" 
			},
			{
				"x": -2.1177891716,
				"y": -7.0568980323,
				"z": -2.358945733,
				"element": "H" 
			},
			{
				"x": -2.7565178925,
				"y": -6.1970687527,
				"z": -3.7588513317,
				"element": "H" 
			}
		],
		 "valence_orbital": [ 
			{
				"type": "occ",
				"energy": -0.26592,
				"method": "rhf"
			},
			{
				"type": "occ",
				"energy": -0.24908,
				"method": "rhf"
			},
			{
				"type": "occ",
				"energy": -0.23803,
				"method": "rhf"
			},
			{
				"type": "occ",
				"energy": -0.23528,
				"method": "rhf"
			},
			{
				"type": "occ",
				"energy": -0.2257,
				"method": "rhf"
			},
			{
				"type": "unocc",
				"energy": -0.05935,
				"method": "rhf"
			},
			{
				"type": "unocc",
				"energy": -0.03937,
				"method": "rhf"
			},
			{
				"type": "unocc",
				"energy": -0.00335,
				"method": "rhf"
			},
			{
				"type": "unocc",
				"energy": 0.01749,
				"method": "rhf"
			},
			{
				"type": "unocc",
				"energy": 0.03632,
				"method": "rhf"
			}
		],
		"cosmo_sigma_profile": { 
			"-0.025": 0.0,
			"-0.024": 0.0,
			"-0.023": 0.0,
			"-0.022": 0.0,
			"-0.021": 0.0,
			"-0.02": 0.0,
			"-0.019": 0.0,
			"-0.018": 0.0,
			"-0.017": 0.0,
			"-0.016": 0.0,
			"-0.015": 0.0,
			"-0.014": 0.0,
			"-0.013": 0.0,
			"-0.012": 0.0,
			"-0.011": 0.0,
			"-0.01": 0.583792888133,
			"-0.009": 1.80897675561,
			"-0.008": 2.03633699593,
			"-0.007": 5.45418450994,
			"-0.006": 12.8762584353,
			"-0.005": 23.6972770401,
			"-0.004": 34.8370979266,
			"-0.003": 45.3578594119,
			"-0.002": 43.8975057484,
			"-0.001": 47.6639835087,
			"0.0": 47.0415616739,
			"0.001": 37.4709160856,
			"0.002": 16.9162178083,
			"0.003": 10.826993862,
			"0.004": 9.39428429388,
			"0.005": 8.04983884734,
			"0.006": 7.59722019616,
			"0.007": 8.2353533595,
			"0.008": 6.01797251148,
			"0.009": 5.26483149213,
			"0.01": 4.39018627413,
			"0.011": 6.95819204717,
			"0.012": 5.80069985669,
			"0.013": 4.81879375634,
			"0.014": 3.71317158459,
			"0.015": 0.0664001170691,
			"0.016": 0.0,
			"0.017": 0.0,
			"0.018": 0.0,
			"0.019": 0.0,
			"0.02": 0.0,
			"0.021": 0.0,
			"0.022": 0.0,
			"0.023": 0.0,
			"0.024": 0.0,
			"0.025": 0.0
		}
	}
}
