{
	 "smiles": "NC1=C(N=CC=C1)C(O)=O", 
	 "Tm": 492.15, 
	 "num_atms": 16, 
	 "gaussian": { 
		 "optdone": 1, 
		 "sigma_profile": "yes", 
		 "theory": "DFT", 
		 "functional": "B3LYP", 
		 "basiset": "6-31G**", 
		 "properties": { 
			 "R2extent": 1722.3975, 
			 "electric_dipole_moment_norm": 4.99618822804, 
			 "electric_quadrupole_moment_norm": 12.7564886203, 
			 "total_energy": -492.214563957, 
			 "HOMO_LUMO_gap": 0.16918, 
			 "cosmo_polarized_energy": -17.84, 
			 "cosmo_cavitation_energy": 20.47, 
			 "cosmo_dispersion_energy": -15.69, 
			 "cosmo_repulsion_energy": 1.28, 
			 "cosmo_total_nonelectrostatic_energy": 6.06, 
			 "SMD_solvation_energy": 3.62 
		},
		"coords": [
			{
				"x": 0.818814897,
				"y": 1.277395704,
				"z": -0.0034390036,
				"element": "N" 
			},
			{
				"x": 0.9694110294,
				"y": -0.0467602487,
				"z": -0.3215281556,
				"element": "C" 
			},
			{
				"x": 0.663933687,
				"y": -1.1322633941,
				"z": 0.5510862485,
				"element": "C" 
			},
			{
				"x": 0.8812822911,
				"y": -2.4149468085,
				"z": 0.2086186278,
				"element": "N" 
			},
			{
				"x": 1.387909698,
				"y": -2.7056144924,
				"z": -0.9788939683,
				"element": "C" 
			},
			{
				"x": 1.7154917013,
				"y": -1.7137743882,
				"z": -1.9173004218,
				"element": "C" 
			},
			{
				"x": 1.5061241762,
				"y": -0.3910261333,
				"z": -1.5851496021,
				"element": "C" 
			},
			{
				"x": 0.0775574164,
				"y": -0.9879314592,
				"z": 1.9175640186,
				"element": "C" 
			},
			{
				"x": -0.2554052762,
				"y": 0.3064819196,
				"z": 2.2415815463,
				"element": "O" 
			},
			{
				"x": -0.1182053008,
				"y": -1.8845702914,
				"z": 2.7040654677,
				"element": "O" 
			},
			{
				"x": 0.2765995091,
				"y": 1.5160551649,
				"z": 0.8119723269,
				"element": "H" 
			},
			{
				"x": 0.8520094471,
				"y": 1.9470281747,
				"z": -0.7553717914,
				"element": "H" 
			},
			{
				"x": 1.5397858127,
				"y": -3.7592642638,
				"z": -1.2028711606,
				"element": "H" 
			},
			{
				"x": 2.1264286637,
				"y": -1.9834378153,
				"z": -2.8856889688,
				"element": "H" 
			},
			{
				"x": 1.7549225246,
				"y": 0.4035414401,
				"z": -2.2844875157,
				"element": "H" 
			},
			{
				"x": -0.6196602767,
				"y": 0.2546868916,
				"z": 3.140542352,
				"element": "H" 
			}
		],
		 "valence_orbital": [ 
			{
				"type": "occ",
				"energy": -0.31716,
				"method": "rhf"
			},
			{
				"type": "occ",
				"energy": -0.28089,
				"method": "rhf"
			},
			{
				"type": "occ",
				"energy": -0.27133,
				"method": "rhf"
			},
			{
				"type": "occ",
				"energy": -0.25306,
				"method": "rhf"
			},
			{
				"type": "occ",
				"energy": -0.21891,
				"method": "rhf"
			},
			{
				"type": "unocc",
				"energy": -0.04973,
				"method": "rhf"
			},
			{
				"type": "unocc",
				"energy": -0.00476,
				"method": "rhf"
			},
			{
				"type": "unocc",
				"energy": 0.05688,
				"method": "rhf"
			},
			{
				"type": "unocc",
				"energy": 0.07117,
				"method": "rhf"
			},
			{
				"type": "unocc",
				"energy": 0.08802,
				"method": "rhf"
			}
		],
		"cosmo_sigma_profile": { 
			"-0.025": 0.0,
			"-0.024": 0.0,
			"-0.023": 0.0,
			"-0.022": 0.0,
			"-0.021": 0.0,
			"-0.02": 0.0,
			"-0.019": 0.0764194177668,
			"-0.018": 0.830279342147,
			"-0.017": 0.939326979989,
			"-0.016": 0.94669381085,
			"-0.015": 0.219699515831,
			"-0.014": 1.61756606589,
			"-0.013": 1.89295239652,
			"-0.012": 2.25851662699,
			"-0.011": 2.89349224349,
			"-0.01": 2.68252944045,
			"-0.009": 2.99141258442,
			"-0.008": 3.60171662241,
			"-0.007": 6.5483658608,
			"-0.006": 7.81127627136,
			"-0.005": 8.31404328731,
			"-0.004": 6.81749259289,
			"-0.003": 7.55783793261,
			"-0.002": 8.48733294824,
			"-0.001": 10.0035368025,
			"0.0": 9.64102160225,
			"0.001": 14.0016539588,
			"0.002": 13.8590866332,
			"0.003": 10.4308146234,
			"0.004": 5.09843287,
			"0.005": 3.53538475422,
			"0.006": 2.84946713375,
			"0.007": 1.87469270918,
			"0.008": 3.32259138157,
			"0.009": 2.97830869478,
			"0.01": 2.46014536316,
			"0.011": 3.54563329641,
			"0.012": 4.98096748585,
			"0.013": 2.37624309527,
			"0.014": 1.47447368133,
			"0.015": 1.27129800668,
			"0.016": 0.884928635257,
			"0.017": 1.14996308103,
			"0.018": 1.07704553319,
			"0.019": 0.421121433125,
			"0.02": 0.0,
			"0.021": 0.0,
			"0.022": 0.0,
			"0.023": 0.0,
			"0.024": 0.0,
			"0.025": 0.0
		}
	}
}
