{
	 "smiles": "C(C1=CC=CC=C1)C1=CC=C2C3=CC=CC=C3C3=CC=CC=C3C2=C1CC1=CC=CC=C1", 
	 "Tm": 451.15, 
	 "num_atms": 56, 
	 "gaussian": { 
		 "optdone": 1, 
		 "sigma_profile": "yes", 
		 "theory": "DFT", 
		 "functional": "B3LYP", 
		 "basiset": "6-31G**", 
		 "properties": { 
			 "R2extent": 14491.9045, 
			 "electric_dipole_moment_norm": 0.297324755108, 
			 "electric_quadrupole_moment_norm": 10.2121506677, 
			 "total_energy": -1233.90838555, 
			 "HOMO_LUMO_gap": 0.17343, 
			 "cosmo_polarized_energy": -10.41, 
			 "cosmo_cavitation_energy": 55.96, 
			 "cosmo_dispersion_energy": -38.14, 
			 "cosmo_repulsion_energy": 2.78, 
			 "cosmo_total_nonelectrostatic_energy": 20.6, 
			 "SMD_solvation_energy": 8.06 
		},
		"coords": [
			{
				"x": 0.0968865742,
				"y": -2.1892401383,
				"z": 1.4171999937,
				"element": "C" 
			},
			{
				"x": -1.1359356662,
				"y": -2.5332773806,
				"z": 2.2496763789,
				"element": "C" 
			},
			{
				"x": -2.3439983454,
				"y": -2.9206737382,
				"z": 1.6531359253,
				"element": "C" 
			},
			{
				"x": -3.442632543,
				"y": -3.2812418436,
				"z": 2.4343990989,
				"element": "C" 
			},
			{
				"x": -3.3547252843,
				"y": -3.2593693805,
				"z": 3.8277561402,
				"element": "C" 
			},
			{
				"x": -2.1588932157,
				"y": -2.8712087214,
				"z": 4.4335334743,
				"element": "C" 
			},
			{
				"x": -1.0616969907,
				"y": -2.5100760945,
				"z": 3.6495937776,
				"element": "C" 
			},
			{
				"x": -0.170466727,
				"y": -1.4159055426,
				"z": 0.1353200306,
				"element": "C" 
			},
			{
				"x": -0.2239123644,
				"y": -2.1358974239,
				"z": -1.0669007087,
				"element": "C" 
			},
			{
				"x": -0.622843422,
				"y": -1.5274271203,
				"z": -2.2393782332,
				"element": "C" 
			},
			{
				"x": -0.9056836542,
				"y": -0.1504399036,
				"z": -2.2850559788,
				"element": "C" 
			},
			{
				"x": -1.5249473824,
				"y": 0.4463913388,
				"z": -3.4765512661,
				"element": "C" 
			},
			{
				"x": -1.9060608769,
				"y": -0.3403815133,
				"z": -4.58713641,
				"element": "C" 
			},
			{
				"x": -2.5980389236,
				"y": 0.1964075839,
				"z": -5.6590815046,
				"element": "C" 
			},
			{
				"x": -2.9521964036,
				"y": 1.5519549713,
				"z": -5.6487924195,
				"element": "C" 
			},
			{
				"x": -2.5774357743,
				"y": 2.3469584031,
				"z": -4.5798194116,
				"element": "C" 
			},
			{
				"x": -1.8422176417,
				"y": 1.8284288031,
				"z": -3.491284506,
				"element": "C" 
			},
			{
				"x": -1.3421924002,
				"y": 2.6844213756,
				"z": -2.4132921893,
				"element": "C" 
			},
			{
				"x": -1.3945942809,
				"y": 4.0907617067,
				"z": -2.5243977322,
				"element": "C" 
			},
			{
				"x": -0.8126116563,
				"y": 4.9228246784,
				"z": -1.5837208256,
				"element": "C" 
			},
			{
				"x": -0.1109852065,
				"y": 4.3578840818,
				"z": -0.5139558533,
				"element": "C" 
			},
			{
				"x": -0.0568326512,
				"y": 2.9799374413,
				"z": -0.3762720529,
				"element": "C" 
			},
			{
				"x": -0.7100671841,
				"y": 2.1052469076,
				"z": -1.2756813185,
				"element": "C" 
			},
			{
				"x": -0.6625514571,
				"y": 0.6382366999,
				"z": -1.1204069213,
				"element": "C" 
			},
			{
				"x": -0.3933134775,
				"y": -0.0266761238,
				"z": 0.1208360331,
				"element": "C" 
			},
			{
				"x": -0.483110678,
				"y": 0.6696207906,
				"z": 1.4733106714,
				"element": "C" 
			},
			{
				"x": 0.8167022923,
				"y": 0.980297121,
				"z": 2.2123639803,
				"element": "C" 
			},
			{
				"x": 2.0817720422,
				"y": 0.8302043414,
				"z": 1.6300751025,
				"element": "C" 
			},
			{
				"x": 3.2424756752,
				"y": 1.1373458461,
				"z": 2.3465059024,
				"element": "C" 
			},
			{
				"x": 3.1574967444,
				"y": 1.5999204386,
				"z": 3.6587785517,
				"element": "C" 
			},
			{
				"x": 1.9011701278,
				"y": 1.7528588086,
				"z": 4.2522278852,
				"element": "C" 
			},
			{
				"x": 0.7461948824,
				"y": 1.4452040186,
				"z": 3.5356522802,
				"element": "C" 
			},
			{
				"x": 0.8067363121,
				"y": -1.6511702817,
				"z": 2.0513943669,
				"element": "H" 
			},
			{
				"x": 0.5962150688,
				"y": -3.1274281742,
				"z": 1.1413243338,
				"element": "H" 
			},
			{
				"x": -2.425865343,
				"y": -2.9335302365,
				"z": 0.570208343,
				"element": "H" 
			},
			{
				"x": -4.3703631224,
				"y": -3.5777517877,
				"z": 1.9525790775,
				"element": "H" 
			},
			{
				"x": -4.2110915608,
				"y": -3.538462347,
				"z": 4.4349806709,
				"element": "H" 
			},
			{
				"x": -2.0794081803,
				"y": -2.8444258566,
				"z": 5.5169063809,
				"element": "H" 
			},
			{
				"x": -0.134414776,
				"y": -2.2041779554,
				"z": 4.1283097802,
				"element": "H" 
			},
			{
				"x": -0.0023185354,
				"y": -3.2000880705,
				"z": -1.0607868055,
				"element": "H" 
			},
			{
				"x": -0.7247483219,
				"y": -2.1369427914,
				"z": -3.128555482,
				"element": "H" 
			},
			{
				"x": -1.6787200914,
				"y": -1.3991077187,
				"z": -4.6060007976,
				"element": "H" 
			},
			{
				"x": -2.8798276444,
				"y": -0.4388416465,
				"z": -6.4937275462,
				"element": "H" 
			},
			{
				"x": -3.5183811714,
				"y": 1.9790389453,
				"z": -6.4713085649,
				"element": "H" 
			},
			{
				"x": -2.8693442715,
				"y": 3.3904353943,
				"z": -4.5845431655,
				"element": "H" 
			},
			{
				"x": -1.8659880798,
				"y": 4.5422241323,
				"z": -3.3889981196,
				"element": "H" 
			},
			{
				"x": -0.8655315881,
				"y": 6.0009813113,
				"z": -1.7038048683,
				"element": "H" 
			},
			{
				"x": 0.4115002771,
				"y": 4.9892051203,
				"z": 0.1987904742,
				"element": "H" 
			},
			{
				"x": 0.5533871917,
				"y": 2.5771136044,
				"z": 0.4177375571,
				"element": "H" 
			},
			{
				"x": -1.0617580672,
				"y": 1.592272454,
				"z": 1.3756788326,
				"element": "H" 
			},
			{
				"x": -1.0827862101,
				"y": 0.0268408275,
				"z": 2.1276849179,
				"element": "H" 
			},
			{
				"x": 2.158209113,
				"y": 0.466276453,
				"z": 0.6094881369,
				"element": "H" 
			},
			{
				"x": 4.2128830866,
				"y": 1.0130221892,
				"z": 1.8738278278,
				"element": "H" 
			},
			{
				"x": 4.0588737739,
				"y": 1.8381526555,
				"z": 4.2160656206,
				"element": "H" 
			},
			{
				"x": 1.8219524531,
				"y": 2.110805924,
				"z": 5.2751333061,
				"element": "H" 
			},
			{
				"x": -0.2274644436,
				"y": 1.565067423,
				"z": 4.0055778281,
				"element": "H" 
			}
		],
		 "valence_orbital": [ 
			{
				"type": "occ",
				"energy": -0.24355,
				"method": "rhf"
			},
			{
				"type": "occ",
				"energy": -0.23554,
				"method": "rhf"
			},
			{
				"type": "occ",
				"energy": -0.22974,
				"method": "rhf"
			},
			{
				"type": "occ",
				"energy": -0.21338,
				"method": "rhf"
			},
			{
				"type": "occ",
				"energy": -0.2096,
				"method": "rhf"
			},
			{
				"type": "unocc",
				"energy": -0.03617,
				"method": "rhf"
			},
			{
				"type": "unocc",
				"energy": -0.03423,
				"method": "rhf"
			},
			{
				"type": "unocc",
				"energy": -0.02347,
				"method": "rhf"
			},
			{
				"type": "unocc",
				"energy": -0.00417,
				"method": "rhf"
			},
			{
				"type": "unocc",
				"energy": 0.00097,
				"method": "rhf"
			}
		],
		"cosmo_sigma_profile": { 
			"-0.025": 0.0,
			"-0.024": 0.0,
			"-0.023": 0.0,
			"-0.022": 0.0,
			"-0.021": 0.0,
			"-0.02": 0.0,
			"-0.019": 0.0,
			"-0.018": 0.0,
			"-0.017": 0.0,
			"-0.016": 0.0,
			"-0.015": 0.0,
			"-0.014": 0.0,
			"-0.013": 0.0,
			"-0.012": 0.0,
			"-0.011": 0.0,
			"-0.01": 0.0,
			"-0.009": 0.197014628854,
			"-0.008": 2.44279020068,
			"-0.007": 3.5063917699,
			"-0.006": 14.1474650516,
			"-0.005": 34.8631282817,
			"-0.004": 40.2515047993,
			"-0.003": 42.473986122,
			"-0.002": 35.1256182458,
			"-0.001": 37.1855376175,
			"0.0": 31.8305352541,
			"0.001": 32.1677687729,
			"0.002": 35.3068036806,
			"0.003": 42.8487725425,
			"0.004": 41.7409771709,
			"0.005": 36.1307346016,
			"0.006": 17.4345699735,
			"0.007": 2.09588739254,
			"0.008": 0.0,
			"0.009": 0.0,
			"0.01": 0.0,
			"0.011": 0.0,
			"0.012": 0.0,
			"0.013": 0.0,
			"0.014": 0.0,
			"0.015": 0.0,
			"0.016": 0.0,
			"0.017": 0.0,
			"0.018": 0.0,
			"0.019": 0.0,
			"0.02": 0.0,
			"0.021": 0.0,
			"0.022": 0.0,
			"0.023": 0.0,
			"0.024": 0.0,
			"0.025": 0.0
		}
	}
}
