{
	 "smiles": "CC1=C(SC=C1)C(O)=O", 
	 "Tm": 420.15, 
	 "num_atms": 15, 
	 "gaussian": { 
		 "optdone": 1, 
		 "sigma_profile": "yes", 
		 "theory": "DFT", 
		 "functional": "B3LYP", 
		 "basiset": "6-31G**", 
		 "properties": { 
			 "R2extent": 1824.5925, 
			 "electric_dipole_moment_norm": 5.57756881625, 
			 "electric_quadrupole_moment_norm": 9.20303416706, 
			 "total_energy": -780.885897967, 
			 "HOMO_LUMO_gap": 0.19317, 
			 "cosmo_polarized_energy": -14.37, 
			 "cosmo_cavitation_energy": 20.5, 
			 "cosmo_dispersion_energy": -15.94, 
			 "cosmo_repulsion_energy": 1.24, 
			 "cosmo_total_nonelectrostatic_energy": 5.8, 
			 "SMD_solvation_energy": 4.7 
		},
		"coords": [
			{
				"x": -0.1065183317,
				"y": 2.6465523326,
				"z": -0.0603550937,
				"element": "C" 
			},
			{
				"x": -0.9702898955,
				"y": 1.6103770809,
				"z": 0.6186633807,
				"element": "C" 
			},
			{
				"x": -0.5478133067,
				"y": 0.3934693588,
				"z": 1.1345517704,
				"element": "C" 
			},
			{
				"x": -1.8640762271,
				"y": -0.488402459,
				"z": 1.8659625782,
				"element": "S" 
			},
			{
				"x": -2.9771682657,
				"y": 0.7603091864,
				"z": 1.46285515,
				"element": "C" 
			},
			{
				"x": -2.3701630958,
				"y": 1.8039445367,
				"z": 0.8143547322,
				"element": "C" 
			},
			{
				"x": 0.7771851048,
				"y": -0.2607077399,
				"z": 1.2053163823,
				"element": "C" 
			},
			{
				"x": 1.7971943196,
				"y": 0.3043235177,
				"z": 0.5045448894,
				"element": "O" 
			},
			{
				"x": 0.9766695022,
				"y": -1.2633744441,
				"z": 1.854548578,
				"element": "O" 
			},
			{
				"x": 0.1885176453,
				"y": 2.3407593316,
				"z": -1.074046563,
				"element": "H" 
			},
			{
				"x": -0.6530738123,
				"y": 3.5861630905,
				"z": -0.1704414933,
				"element": "H" 
			},
			{
				"x": 0.8008912791,
				"y": 2.8690869357,
				"z": 0.5120417244,
				"element": "H" 
			},
			{
				"x": -4.0215942019,
				"y": 0.6653699126,
				"z": 1.7279086794,
				"element": "H" 
			},
			{
				"x": -2.89609234,
				"y": 2.6935709443,
				"z": 0.4850303241,
				"element": "H" 
			},
			{
				"x": 1.4786316256,
				"y": 1.0242584151,
				"z": -0.0549350392,
				"element": "H" 
			}
		],
		 "valence_orbital": [ 
			{
				"type": "occ",
				"energy": -0.35455,
				"method": "rhf"
			},
			{
				"type": "occ",
				"energy": -0.31453,
				"method": "rhf"
			},
			{
				"type": "occ",
				"energy": -0.27473,
				"method": "rhf"
			},
			{
				"type": "occ",
				"energy": -0.26236,
				"method": "rhf"
			},
			{
				"type": "occ",
				"energy": -0.251,
				"method": "rhf"
			},
			{
				"type": "unocc",
				"energy": -0.05783,
				"method": "rhf"
			},
			{
				"type": "unocc",
				"energy": 0.01916,
				"method": "rhf"
			},
			{
				"type": "unocc",
				"energy": 0.02836,
				"method": "rhf"
			},
			{
				"type": "unocc",
				"energy": 0.06485,
				"method": "rhf"
			},
			{
				"type": "unocc",
				"energy": 0.08177,
				"method": "rhf"
			}
		],
		"cosmo_sigma_profile": { 
			"-0.025": 0.0,
			"-0.024": 0.0,
			"-0.023": 0.0,
			"-0.022": 0.0,
			"-0.021": 0.0,
			"-0.02": 0.0,
			"-0.019": 0.0,
			"-0.018": 0.0,
			"-0.017": 0.0,
			"-0.016": 0.0200997185785,
			"-0.015": 0.916993271157,
			"-0.014": 1.22885041569,
			"-0.013": 1.36292189775,
			"-0.012": 1.06970014641,
			"-0.011": 1.06677770981,
			"-0.01": 1.50306158734,
			"-0.009": 4.02542500613,
			"-0.008": 3.13218941947,
			"-0.007": 8.20605775498,
			"-0.006": 9.51810799748,
			"-0.005": 10.1516496742,
			"-0.004": 9.13106340702,
			"-0.003": 9.45976321956,
			"-0.002": 11.993846773,
			"-0.001": 8.12418098608,
			"0.0": 7.41978048576,
			"0.001": 8.78465553314,
			"0.002": 16.0347623429,
			"0.003": 14.0529177272,
			"0.004": 7.62643733642,
			"0.005": 2.71654056742,
			"0.006": 2.06472660923,
			"0.007": 3.06116766846,
			"0.008": 2.84374744142,
			"0.009": 3.03492528053,
			"0.01": 4.63419970522,
			"0.011": 5.19138256334,
			"0.012": 5.31706873753,
			"0.013": 2.06433222217,
			"0.014": 0.237328524691,
			"0.015": 0.0,
			"0.016": 0.0,
			"0.017": 0.0,
			"0.018": 0.0,
			"0.019": 0.0,
			"0.02": 0.0,
			"0.021": 0.0,
			"0.022": 0.0,
			"0.023": 0.0,
			"0.024": 0.0,
			"0.025": 0.0
		}
	}
}
