{
	 "smiles": "OC(=O)CN1C(SC(F)F)=NC2=C1C=CC=C2", 
	 "Tm": 469.15, 
	 "num_atms": 25, 
	 "gaussian": { 
		 "optdone": 1, 
		 "sigma_profile": "yes", 
		 "theory": "DFT", 
		 "functional": "B3LYP", 
		 "basiset": "6-31G**", 
		 "properties": { 
			 "R2extent": 4512.6276, 
			 "electric_dipole_moment_norm": 3.87725259043, 
			 "electric_quadrupole_moment_norm": 13.4369458342, 
			 "total_energy": -1243.70172332, 
			 "HOMO_LUMO_gap": 0.19174, 
			 "cosmo_polarized_energy": -18.69, 
			 "cosmo_cavitation_energy": 32.57, 
			 "cosmo_dispersion_energy": -22.9, 
			 "cosmo_repulsion_energy": 1.72, 
			 "cosmo_total_nonelectrostatic_energy": 11.39, 
			 "SMD_solvation_energy": 4.93 
		},
		"coords": [
			{
				"x": 2.2472071806,
				"y": 0.8622974991,
				"z": 2.6394246844,
				"element": "O" 
			},
			{
				"x": 1.0031908715,
				"y": 0.9058328314,
				"z": 2.1125206853,
				"element": "C" 
			},
			{
				"x": 0.0425436283,
				"y": 1.3609700787,
				"z": 2.6822194386,
				"element": "O" 
			},
			{
				"x": 1.0142525053,
				"y": 0.3203848461,
				"z": 0.703553386,
				"element": "C" 
			},
			{
				"x": -0.3089758686,
				"y": 0.1985082785,
				"z": 0.143484513,
				"element": "N" 
			},
			{
				"x": -1.0538065337,
				"y": 1.1790770227,
				"z": -0.503532741,
				"element": "C" 
			},
			{
				"x": -0.435801028,
				"y": 2.8148089434,
				"z": -0.7879471487,
				"element": "S" 
			},
			{
				"x": 0.5194260792,
				"y": 2.535951497,
				"z": -2.3240656228,
				"element": "C" 
			},
			{
				"x": 1.6453701972,
				"y": 1.7911138149,
				"z": -2.0919750547,
				"element": "F" 
			},
			{
				"x": -0.2030967177,
				"y": 1.8778323706,
				"z": -3.2546773243,
				"element": "F" 
			},
			{
				"x": -2.2673294323,
				"y": 0.7985656067,
				"z": -0.8132639558,
				"element": "N" 
			},
			{
				"x": -2.3621576948,
				"y": -0.5018018487,
				"z": -0.3498278666,
				"element": "C" 
			},
			{
				"x": -1.1494505988,
				"y": -0.896231483,
				"z": 0.2633260662,
				"element": "C" 
			},
			{
				"x": -0.9724048642,
				"y": -2.1663238832,
				"z": 0.8207811173,
				"element": "C" 
			},
			{
				"x": -2.053952476,
				"y": -3.0380246966,
				"z": 0.7430297367,
				"element": "C" 
			},
			{
				"x": -3.2691021898,
				"y": -2.6609366206,
				"z": 0.1318982904,
				"element": "C" 
			},
			{
				"x": -3.438796627,
				"y": -1.3972300882,
				"z": -0.4189445756,
				"element": "C" 
			},
			{
				"x": 2.1902695261,
				"y": 1.2697057644,
				"z": 3.5202079194,
				"element": "H" 
			},
			{
				"x": 1.4941499737,
				"y": -0.662060538,
				"z": 0.7248588269,
				"element": "H" 
			},
			{
				"x": 1.6292709329,
				"y": 0.9567549714,
				"z": 0.0639423668,
				"element": "H" 
			},
			{
				"x": 0.8213138997,
				"y": 3.5176738969,
				"z": -2.7046699818,
				"element": "H" 
			},
			{
				"x": -0.045209685,
				"y": -2.4658323864,
				"z": 1.2995265384,
				"element": "H" 
			},
			{
				"x": -1.961424122,
				"y": -4.0337178862,
				"z": 1.1664800474,
				"element": "H" 
			},
			{
				"x": -4.0848270489,
				"y": -3.3766030922,
				"z": 0.0959225241,
				"element": "H" 
			},
			{
				"x": -4.368359908,
				"y": -1.0960148988,
				"z": -0.8903718698,
				"element": "H" 
			}
		],
		 "valence_orbital": [ 
			{
				"type": "occ",
				"energy": -0.29349,
				"method": "rhf"
			},
			{
				"type": "occ",
				"energy": -0.28197,
				"method": "rhf"
			},
			{
				"type": "occ",
				"energy": -0.27011,
				"method": "rhf"
			},
			{
				"type": "occ",
				"energy": -0.2333,
				"method": "rhf"
			},
			{
				"type": "occ",
				"energy": -0.23078,
				"method": "rhf"
			},
			{
				"type": "unocc",
				"energy": -0.03904,
				"method": "rhf"
			},
			{
				"type": "unocc",
				"energy": -0.00752,
				"method": "rhf"
			},
			{
				"type": "unocc",
				"energy": 0.01042,
				"method": "rhf"
			},
			{
				"type": "unocc",
				"energy": 0.02038,
				"method": "rhf"
			},
			{
				"type": "unocc",
				"energy": 0.04137,
				"method": "rhf"
			}
		],
		"cosmo_sigma_profile": { 
			"-0.025": 0.0,
			"-0.024": 0.0,
			"-0.023": 0.0,
			"-0.022": 0.0,
			"-0.021": 0.0,
			"-0.02": 0.0,
			"-0.019": 0.584835099999,
			"-0.018": 0.814463869208,
			"-0.017": 1.14572428876,
			"-0.016": 1.00376614241,
			"-0.015": 0.397783763409,
			"-0.014": 0.625854948169,
			"-0.013": 0.544879177452,
			"-0.012": 2.59780260095,
			"-0.011": 4.06475971041,
			"-0.01": 5.38927009965,
			"-0.009": 4.91108451754,
			"-0.008": 5.14279819161,
			"-0.007": 7.88326267183,
			"-0.006": 11.307739673,
			"-0.005": 13.4924441724,
			"-0.004": 13.0683805205,
			"-0.003": 13.9589193328,
			"-0.002": 13.8056951673,
			"-0.001": 13.5883403636,
			"0.0": 12.2169465748,
			"0.001": 17.0958252121,
			"0.002": 18.6572142137,
			"0.003": 31.0780932928,
			"0.004": 20.798955775,
			"0.005": 13.5199439051,
			"0.006": 7.40532089151,
			"0.007": 5.29332871619,
			"0.008": 4.58946895172,
			"0.009": 4.06145187969,
			"0.01": 3.86896122644,
			"0.011": 5.43797988805,
			"0.012": 1.33204085657,
			"0.013": 1.02544079278,
			"0.014": 0.697724730387,
			"0.015": 1.0917035018,
			"0.016": 0.722410012592,
			"0.017": 0.0706015738338,
			"0.018": 0.0,
			"0.019": 0.0,
			"0.02": 0.0,
			"0.021": 0.0,
			"0.022": 0.0,
			"0.023": 0.0,
			"0.024": 0.0,
			"0.025": 0.0
		}
	}
}
