{
	 "smiles": "CN(C1CCCCC1)C(=O)C1=CC=C(N)C=C1", 
	 "Tm": 450.15, 
	 "num_atms": 37, 
	 "gaussian": { 
		 "optdone": 1, 
		 "sigma_profile": "yes", 
		 "theory": "DFT", 
		 "functional": "B3LYP", 
		 "basiset": "6-31G**", 
		 "properties": { 
			 "R2extent": 6602.2709, 
			 "electric_dipole_moment_norm": 4.56391404827, 
			 "electric_quadrupole_moment_norm": 24.7951537692, 
			 "total_energy": -730.30399247, 
			 "HOMO_LUMO_gap": 0.19319, 
			 "cosmo_polarized_energy": -15.59, 
			 "cosmo_cavitation_energy": 37.23, 
			 "cosmo_dispersion_energy": -26.79, 
			 "cosmo_repulsion_energy": 2.08, 
			 "cosmo_total_nonelectrostatic_energy": 12.52, 
			 "SMD_solvation_energy": 5.6 
		},
		"coords": [
			{
				"x": 1.7671879131,
				"y": -1.0491723129,
				"z": 1.050788933,
				"element": "C" 
			},
			{
				"x": 0.7428767445,
				"y": -0.2672285593,
				"z": 0.3655132083,
				"element": "N" 
			},
			{
				"x": -0.5298586629,
				"y": -0.0325100327,
				"z": 1.0754194045,
				"element": "C" 
			},
			{
				"x": -1.1397234106,
				"y": -1.3379809823,
				"z": 1.6124077441,
				"element": "C" 
			},
			{
				"x": -2.4994465259,
				"y": -1.0701202613,
				"z": 2.2792911348,
				"element": "C" 
			},
			{
				"x": -2.3838340031,
				"y": -0.0169412811,
				"z": 3.3918886708,
				"element": "C" 
			},
			{
				"x": -1.7589727299,
				"y": 1.2834702484,
				"z": 2.8646114133,
				"element": "C" 
			},
			{
				"x": -0.4030441779,
				"y": 1.0281983372,
				"z": 2.1862794318,
				"element": "C" 
			},
			{
				"x": 1.0022309602,
				"y": 0.5443374211,
				"z": -0.7242515306,
				"element": "C" 
			},
			{
				"x": 0.2589604423,
				"y": 1.4854023595,
				"z": -1.0116591863,
				"element": "O" 
			},
			{
				"x": 2.1854459513,
				"y": 0.2413182632,
				"z": -1.5950244613,
				"element": "C" 
			},
			{
				"x": 2.8363146504,
				"y": 1.3225237827,
				"z": -2.2095271324,
				"element": "C" 
			},
			{
				"x": 3.8886537721,
				"y": 1.1240062586,
				"z": -3.091631966,
				"element": "C" 
			},
			{
				"x": 4.310416617,
				"y": -0.1786042407,
				"z": -3.4208397761,
				"element": "C" 
			},
			{
				"x": 5.3237881877,
				"y": -0.3839770119,
				"z": -4.3506034837,
				"element": "N" 
			},
			{
				"x": 3.6384600106,
				"y": -1.2667929979,
				"z": -2.8355763328,
				"element": "C" 
			},
			{
				"x": 2.5980732705,
				"y": -1.0551597129,
				"z": -1.9371769314,
				"element": "C" 
			},
			{
				"x": 2.7480481199,
				"y": -0.8338187447,
				"z": 0.6303708399,
				"element": "H" 
			},
			{
				"x": 1.5883858703,
				"y": -2.1290455546,
				"z": 0.9780267029,
				"element": "H" 
			},
			{
				"x": 1.7944228774,
				"y": -0.7845891311,
				"z": 2.113967375,
				"element": "H" 
			},
			{
				"x": -1.2028496787,
				"y": 0.3765779984,
				"z": 0.3167505497,
				"element": "H" 
			},
			{
				"x": -1.2484500665,
				"y": -2.058405161,
				"z": 0.7926618806,
				"element": "H" 
			},
			{
				"x": -0.4688757003,
				"y": -1.7953186385,
				"z": 2.3524276378,
				"element": "H" 
			},
			{
				"x": -3.2111043618,
				"y": -0.7173711787,
				"z": 1.5198788334,
				"element": "H" 
			},
			{
				"x": -2.9087954707,
				"y": -2.005608551,
				"z": 2.6788282164,
				"element": "H" 
			},
			{
				"x": -1.7592905653,
				"y": -0.4168963517,
				"z": 4.2038787499,
				"element": "H" 
			},
			{
				"x": -3.369994348,
				"y": 0.1834963049,
				"z": 3.8276583064,
				"element": "H" 
			},
			{
				"x": -1.6409467723,
				"y": 2.0086382914,
				"z": 3.6785799678,
				"element": "H" 
			},
			{
				"x": -2.4420920153,
				"y": 1.742617256,
				"z": 2.1365240736,
				"element": "H" 
			},
			{
				"x": -0.013836286,
				"y": 1.9506829732,
				"z": 1.7447128498,
				"element": "H" 
			},
			{
				"x": 0.3216370232,
				"y": 0.6937207549,
				"z": 2.9424867562,
				"element": "H" 
			},
			{
				"x": 2.4928082405,
				"y": 2.326867886,
				"z": -1.9844854135,
				"element": "H" 
			},
			{
				"x": 4.3850027722,
				"y": 1.9775056903,
				"z": -3.5472237618,
				"element": "H" 
			},
			{
				"x": 5.9614391072,
				"y": 0.3873689435,
				"z": -4.486391425,
				"element": "H" 
			},
			{
				"x": 5.7952043739,
				"y": -1.2758395066,
				"z": -4.3027210001,
				"element": "H" 
			},
			{
				"x": 3.9288518173,
				"y": -2.2805779119,
				"z": -3.1004596449,
				"element": "H" 
			},
			{
				"x": 2.0853060536,
				"y": -1.9151746463,
				"z": -1.5173806339,
				"element": "H" 
			}
		],
		 "valence_orbital": [ 
			{
				"type": "occ",
				"energy": -0.29829,
				"method": "rhf"
			},
			{
				"type": "occ",
				"energy": -0.24975,
				"method": "rhf"
			},
			{
				"type": "occ",
				"energy": -0.23769,
				"method": "rhf"
			},
			{
				"type": "occ",
				"energy": -0.22061,
				"method": "rhf"
			},
			{
				"type": "occ",
				"energy": -0.20323,
				"method": "rhf"
			},
			{
				"type": "unocc",
				"energy": -0.01004,
				"method": "rhf"
			},
			{
				"type": "unocc",
				"energy": 0.00149,
				"method": "rhf"
			},
			{
				"type": "unocc",
				"energy": 0.06639,
				"method": "rhf"
			},
			{
				"type": "unocc",
				"energy": 0.08055,
				"method": "rhf"
			},
			{
				"type": "unocc",
				"energy": 0.08538,
				"method": "rhf"
			}
		],
		"cosmo_sigma_profile": { 
			"-0.025": 0.0,
			"-0.024": 0.0,
			"-0.023": 0.0,
			"-0.022": 0.0,
			"-0.021": 0.0,
			"-0.02": 0.0,
			"-0.019": 0.0,
			"-0.018": 0.0,
			"-0.017": 0.0,
			"-0.016": 0.0,
			"-0.015": 0.0,
			"-0.014": 0.0,
			"-0.013": 0.957496011264,
			"-0.012": 2.70188155527,
			"-0.011": 3.26323453723,
			"-0.01": 3.00029297068,
			"-0.009": 3.45602923842,
			"-0.008": 2.53959156211,
			"-0.007": 2.68290998805,
			"-0.006": 5.02666458901,
			"-0.005": 10.1574816728,
			"-0.004": 15.959721514,
			"-0.003": 20.6240015564,
			"-0.002": 40.2972959292,
			"-0.001": 38.9164019059,
			"0.0": 36.2739316357,
			"0.001": 27.672902807,
			"0.002": 14.1367388761,
			"0.003": 8.56673045877,
			"0.004": 8.18587313453,
			"0.005": 11.6453236681,
			"0.006": 9.31590219167,
			"0.007": 3.19738296608,
			"0.008": 2.61139660595,
			"0.009": 2.54270638403,
			"0.01": 2.15772105972,
			"0.011": 2.42577168763,
			"0.012": 2.3946263638,
			"0.013": 2.56458169851,
			"0.014": 3.82735554935,
			"0.015": 2.97361755497,
			"0.016": 0.210923407857,
			"0.017": 0.0,
			"0.018": 0.0,
			"0.019": 0.0,
			"0.02": 0.0,
			"0.021": 0.0,
			"0.022": 0.0,
			"0.023": 0.0,
			"0.024": 0.0,
			"0.025": 0.0
		}
	}
}
