{
	 "smiles": "COC1=CC(=CC=C1N)C1=CC=C(N)C(OC)=C1", 
	 "Tm": 409.15, 
	 "num_atms": 34, 
	 "gaussian": { 
		 "optdone": 1, 
		 "sigma_profile": "yes", 
		 "theory": "DFT", 
		 "functional": "B3LYP", 
		 "basiset": "6-31G**", 
		 "properties": { 
			 "R2extent": 6236.3779, 
			 "electric_dipole_moment_norm": 1.76333947384, 
			 "electric_quadrupole_moment_norm": 18.722181578, 
			 "total_energy": -803.070087492, 
			 "HOMO_LUMO_gap": 0.16926, 
			 "cosmo_polarized_energy": -15.39, 
			 "cosmo_cavitation_energy": 37.35, 
			 "cosmo_dispersion_energy": -26.77, 
			 "cosmo_repulsion_energy": 2.09, 
			 "cosmo_total_nonelectrostatic_energy": 12.67, 
			 "SMD_solvation_energy": 7.33 
		},
		"coords": [
			{
				"x": 4.0234574721,
				"y": 1.7529813992,
				"z": -0.683695119,
				"element": "C" 
			},
			{
				"x": 2.7836001982,
				"y": 2.236862441,
				"z": -1.2047066999,
				"element": "O" 
			},
			{
				"x": 1.8469684772,
				"y": 1.2381753031,
				"z": -1.4371257495,
				"element": "C" 
			},
			{
				"x": 0.9729742578,
				"y": 0.8394395325,
				"z": -0.4340029757,
				"element": "C" 
			},
			{
				"x": -0.0131735195,
				"y": -0.1359707267,
				"z": -0.6680585602,
				"element": "C" 
			},
			{
				"x": -0.0768498388,
				"y": -0.686558771,
				"z": -1.9595581045,
				"element": "C" 
			},
			{
				"x": 0.7890610755,
				"y": -0.280245726,
				"z": -2.9717016989,
				"element": "C" 
			},
			{
				"x": 1.7726005178,
				"y": 0.6899340357,
				"z": -2.7328225465,
				"element": "C" 
			},
			{
				"x": 2.6921515214,
				"y": 1.0956467797,
				"z": -3.7025033765,
				"element": "N" 
			},
			{
				"x": -0.9483686652,
				"y": -0.5595248366,
				"z": 0.4011097302,
				"element": "C" 
			},
			{
				"x": -2.2804114605,
				"y": -0.8886168082,
				"z": 0.1213406694,
				"element": "C" 
			},
			{
				"x": -3.1539220425,
				"y": -1.2858126414,
				"z": 1.1341690234,
				"element": "C" 
			},
			{
				"x": -2.7342140606,
				"y": -1.3664848111,
				"z": 2.4645595016,
				"element": "C" 
			},
			{
				"x": -3.5957780264,
				"y": -1.70405193,
				"z": 3.5082264717,
				"element": "N" 
			},
			{
				"x": -1.3881851285,
				"y": -1.0375697013,
				"z": 2.752597573,
				"element": "C" 
			},
			{
				"x": -1.0472597346,
				"y": -1.169534818,
				"z": 4.0789892659,
				"element": "O" 
			},
			{
				"x": 0.2839885954,
				"y": -0.8727655345,
				"z": 4.4601711332,
				"element": "C" 
			},
			{
				"x": -0.5184697723,
				"y": -0.6455494499,
				"z": 1.7419666792,
				"element": "C" 
			},
			{
				"x": 4.6711412927,
				"y": 2.6235513442,
				"z": -0.5548400067,
				"element": "H" 
			},
			{
				"x": 3.8804613464,
				"y": 1.2625477726,
				"z": 0.287616422,
				"element": "H" 
			},
			{
				"x": 4.4975611586,
				"y": 1.0435278608,
				"z": -1.3735478408,
				"element": "H" 
			},
			{
				"x": 1.0436043565,
				"y": 1.3345785362,
				"z": 0.5298200827,
				"element": "H" 
			},
			{
				"x": -0.8071478906,
				"y": -1.4613782317,
				"z": -2.1723516626,
				"element": "H" 
			},
			{
				"x": 0.7163425252,
				"y": -0.730381188,
				"z": -3.9590327105,
				"element": "H" 
			},
			{
				"x": 2.3703581971,
				"y": 0.9932913098,
				"z": -4.6556054519,
				"element": "H" 
			},
			{
				"x": 3.0620941832,
				"y": 2.0204741,
				"z": -3.5198763862,
				"element": "H" 
			},
			{
				"x": -2.65271841,
				"y": -0.8059390223,
				"z": -0.8949617782,
				"element": "H" 
			},
			{
				"x": -4.1884625738,
				"y": -1.5207916075,
				"z": 0.8954577575,
				"element": "H" 
			},
			{
				"x": -4.3609350078,
				"y": -2.3102737964,
				"z": 3.2474058245,
				"element": "H" 
			},
			{
				"x": -3.1184068893,
				"y": -2.0114270357,
				"z": 4.3445679635,
				"element": "H" 
			},
			{
				"x": 0.5447249162,
				"y": 0.1697405246,
				"z": 4.2361342909,
				"element": "H" 
			},
			{
				"x": 0.3349485083,
				"y": -1.0310777955,
				"z": 5.5389429236,
				"element": "H" 
			},
			{
				"x": 1.0055261373,
				"y": -1.5349068914,
				"z": 3.9634629271,
				"element": "H" 
			},
			{
				"x": 0.5179382835,
				"y": -0.431789616,
				"z": 1.9747524281,
				"element": "H" 
			}
		],
		 "valence_orbital": [ 
			{
				"type": "occ",
				"energy": -0.26788,
				"method": "rhf"
			},
			{
				"type": "occ",
				"energy": -0.23362,
				"method": "rhf"
			},
			{
				"type": "occ",
				"energy": -0.2241,
				"method": "rhf"
			},
			{
				"type": "occ",
				"energy": -0.20526,
				"method": "rhf"
			},
			{
				"type": "occ",
				"energy": -0.17048,
				"method": "rhf"
			},
			{
				"type": "unocc",
				"energy": -0.00122,
				"method": "rhf"
			},
			{
				"type": "unocc",
				"energy": 0.01014,
				"method": "rhf"
			},
			{
				"type": "unocc",
				"energy": 0.02055,
				"method": "rhf"
			},
			{
				"type": "unocc",
				"energy": 0.05608,
				"method": "rhf"
			},
			{
				"type": "unocc",
				"energy": 0.08683,
				"method": "rhf"
			}
		],
		"cosmo_sigma_profile": { 
			"-0.025": 0.0,
			"-0.024": 0.0,
			"-0.023": 0.0,
			"-0.022": 0.0,
			"-0.021": 0.0,
			"-0.02": 0.0,
			"-0.019": 0.0,
			"-0.018": 0.0,
			"-0.017": 0.0,
			"-0.016": 0.0,
			"-0.015": 0.0,
			"-0.014": 0.0,
			"-0.013": 0.260136801194,
			"-0.012": 2.31089294984,
			"-0.011": 3.00887484294,
			"-0.01": 4.47836520994,
			"-0.009": 4.97814204402,
			"-0.008": 4.83780809164,
			"-0.007": 4.93102989016,
			"-0.006": 8.17146317991,
			"-0.005": 22.4058252017,
			"-0.004": 28.0877974468,
			"-0.003": 29.7393712104,
			"-0.002": 23.9251379284,
			"-0.001": 15.9386815603,
			"0.0": 13.7491118113,
			"0.001": 11.4779605813,
			"0.002": 14.1067538405,
			"0.003": 14.2300084727,
			"0.004": 17.0280463999,
			"0.005": 20.9391226045,
			"0.006": 21.774075529,
			"0.007": 12.0611711862,
			"0.008": 4.42920006975,
			"0.009": 2.35387905008,
			"0.01": 1.90356502073,
			"0.011": 3.09292269486,
			"0.012": 2.3626454036,
			"0.013": 1.19146344613,
			"0.014": 1.29679226631,
			"0.015": 0.473435270852,
			"0.016": 0.0,
			"0.017": 0.0,
			"0.018": 0.0,
			"0.019": 0.0,
			"0.02": 0.0,
			"0.021": 0.0,
			"0.022": 0.0,
			"0.023": 0.0,
			"0.024": 0.0,
			"0.025": 0.0
		}
	}
}
