{
	 "smiles": "OC(=O)C1=CC=NC2=NC=NN12", 
	 "Tm": 533.15, 
	 "num_atms": 16, 
	 "gaussian": { 
		 "optdone": 1, 
		 "sigma_profile": "yes", 
		 "theory": "DFT", 
		 "functional": "B3LYP", 
		 "basiset": "6-31G**", 
		 "properties": { 
			 "R2extent": 1795.0186, 
			 "electric_dipole_moment_norm": 4.53839726556, 
			 "electric_quadrupole_moment_norm": 7.76364573767, 
			 "total_energy": -600.476612135, 
			 "HOMO_LUMO_gap": 0.16448, 
			 "cosmo_polarized_energy": -18.54, 
			 "cosmo_cavitation_energy": 21.65, 
			 "cosmo_dispersion_energy": -16.46, 
			 "cosmo_repulsion_energy": 1.28, 
			 "cosmo_total_nonelectrostatic_energy": 6.48, 
			 "SMD_solvation_energy": 1.21 
		},
		"coords": [
			{
				"x": 0.3147635555,
				"y": 2.6977807199,
				"z": 0.6341266405,
				"element": "O" 
			},
			{
				"x": 0.145522644,
				"y": 1.4270950109,
				"z": 1.0769913091,
				"element": "C" 
			},
			{
				"x": -0.070965241,
				"y": 1.1493072215,
				"z": 2.2310216963,
				"element": "O" 
			},
			{
				"x": 0.2652145081,
				"y": 0.4587692763,
				"z": -0.0573438551,
				"element": "C" 
			},
			{
				"x": 0.5141856908,
				"y": 0.8451919609,
				"z": -1.3572243496,
				"element": "C" 
			},
			{
				"x": 0.6131207244,
				"y": -0.1354736005,
				"z": -2.3744901947,
				"element": "C" 
			},
			{
				"x": 0.4807345632,
				"y": -1.4320443862,
				"z": -2.1651241003,
				"element": "N" 
			},
			{
				"x": 0.2384121198,
				"y": -1.8141488963,
				"z": -0.9024785006,
				"element": "C" 
			},
			{
				"x": 0.0647139665,
				"y": -3.0405834383,
				"z": -0.4175983536,
				"element": "N" 
			},
			{
				"x": -0.1409069567,
				"y": -2.818793597,
				"z": 0.8948149828,
				"element": "C" 
			},
			{
				"x": -0.1168764111,
				"y": -1.5474059275,
				"z": 1.3141253388,
				"element": "N" 
			},
			{
				"x": 0.1274417309,
				"y": -0.8866035099,
				"z": 0.162476898,
				"element": "N" 
			},
			{
				"x": 0.2244592116,
				"y": 3.2665641082,
				"z": 1.4165314044,
				"element": "H" 
			},
			{
				"x": 0.6310507181,
				"y": 1.8958551501,
				"z": -1.5834853029,
				"element": "H" 
			},
			{
				"x": 0.8096464127,
				"y": 0.1742219179,
				"z": -3.3985112957,
				"element": "H" 
			},
			{
				"x": -0.3204172367,
				"y": -3.6165320099,
				"z": 1.6033676825,
				"element": "H" 
			}
		],
		 "valence_orbital": [ 
			{
				"type": "occ",
				"energy": -0.31246,
				"method": "rhf"
			},
			{
				"type": "occ",
				"energy": -0.29313,
				"method": "rhf"
			},
			{
				"type": "occ",
				"energy": -0.28336,
				"method": "rhf"
			},
			{
				"type": "occ",
				"energy": -0.2785,
				"method": "rhf"
			},
			{
				"type": "occ",
				"energy": -0.26641,
				"method": "rhf"
			},
			{
				"type": "unocc",
				"energy": -0.10193,
				"method": "rhf"
			},
			{
				"type": "unocc",
				"energy": -0.03457,
				"method": "rhf"
			},
			{
				"type": "unocc",
				"energy": 0.01174,
				"method": "rhf"
			},
			{
				"type": "unocc",
				"energy": 0.05538,
				"method": "rhf"
			},
			{
				"type": "unocc",
				"energy": 0.05594,
				"method": "rhf"
			}
		],
		"cosmo_sigma_profile": { 
			"-0.025": 0.0,
			"-0.024": 0.0,
			"-0.023": 0.0,
			"-0.022": 0.0,
			"-0.021": 0.0,
			"-0.02": 0.059347075006,
			"-0.019": 0.981203045239,
			"-0.018": 1.09946574194,
			"-0.017": 0.583978573054,
			"-0.016": 1.01426775996,
			"-0.015": 1.14830824658,
			"-0.014": 0.175777501799,
			"-0.013": 0.379014665933,
			"-0.012": 1.03752940854,
			"-0.011": 0.749729615609,
			"-0.01": 1.82086894664,
			"-0.009": 7.50657156983,
			"-0.008": 5.52449566463,
			"-0.007": 10.1730931279,
			"-0.006": 10.0712105611,
			"-0.005": 10.271039781,
			"-0.004": 10.3455355025,
			"-0.003": 10.5478322252,
			"-0.002": 12.923370253,
			"-0.001": 9.37275433012,
			"0.0": 7.47326478857,
			"0.001": 6.40713143573,
			"0.002": 5.86742729766,
			"0.003": 5.09272304339,
			"0.004": 5.10083673665,
			"0.005": 5.4023430386,
			"0.006": 4.96544185811,
			"0.007": 4.28708872974,
			"0.008": 4.92269457723,
			"0.009": 4.20967227579,
			"0.01": 7.16320926368,
			"0.011": 5.02565884259,
			"0.012": 3.64611365241,
			"0.013": 4.36630911578,
			"0.014": 2.75298469173,
			"0.015": 2.06620364402,
			"0.016": 1.04565861362,
			"0.017": 0.074208475171,
			"0.018": 0.0,
			"0.019": 0.0,
			"0.02": 0.0,
			"0.021": 0.0,
			"0.022": 0.0,
			"0.023": 0.0,
			"0.024": 0.0,
			"0.025": 0.0
		}
	}
}
