{
	 "smiles": "CN1C(=O)N(C)C(=O)C(C(=O)CCl)=C1N", 
	 "Tm": 459.15, 
	 "num_atms": 25, 
	 "gaussian": { 
		 "optdone": 1, 
		 "sigma_profile": "yes", 
		 "theory": "DFT", 
		 "functional": "B3LYP", 
		 "basiset": "6-31G**", 
		 "properties": { 
			 "R2extent": 5154.1611, 
			 "electric_dipole_moment_norm": 5.4253982287, 
			 "electric_quadrupole_moment_norm": 25.8090601828, 
			 "total_energy": -1161.05056212, 
			 "HOMO_LUMO_gap": 0.18544, 
			 "cosmo_polarized_energy": -18.41, 
			 "cosmo_cavitation_energy": 29.69, 
			 "cosmo_dispersion_energy": -22.31, 
			 "cosmo_repulsion_energy": 1.72, 
			 "cosmo_total_nonelectrostatic_energy": 9.1, 
			 "SMD_solvation_energy": 6.43 
		},
		"coords": [
			{
				"x": 3.1650743568,
				"y": 0.3065427472,
				"z": 1.5430978962,
				"element": "C" 
			},
			{
				"x": 1.7848547384,
				"y": -0.1528339924,
				"z": 1.3751646535,
				"element": "N" 
			},
			{
				"x": 0.7653089239,
				"y": 0.7751727781,
				"z": 1.6872839772,
				"element": "C" 
			},
			{
				"x": 1.035227665,
				"y": 1.8952601831,
				"z": 2.091611098,
				"element": "O" 
			},
			{
				"x": -0.5247711111,
				"y": 0.3418647399,
				"z": 1.4958674423,
				"element": "N" 
			},
			{
				"x": -1.5764428635,
				"y": 1.3219586427,
				"z": 1.7978644342,
				"element": "C" 
			},
			{
				"x": -0.9065641766,
				"y": -0.9460210224,
				"z": 1.0260969113,
				"element": "C" 
			},
			{
				"x": -2.0993539955,
				"y": -1.1756055907,
				"z": 0.8591438864,
				"element": "O" 
			},
			{
				"x": 0.1833927948,
				"y": -1.8785586513,
				"z": 0.7779804226,
				"element": "C" 
			},
			{
				"x": -0.0516355421,
				"y": -3.2578408775,
				"z": 0.3705936489,
				"element": "C" 
			},
			{
				"x": 0.8685699619,
				"y": -4.0334359038,
				"z": 0.0494466095,
				"element": "O" 
			},
			{
				"x": -1.4572024469,
				"y": -3.8487070902,
				"z": 0.3435363559,
				"element": "C" 
			},
			{
				"x": -1.9553749202,
				"y": -4.3100495777,
				"z": 2.0307539595,
				"element": "Cl" 
			},
			{
				"x": 1.5167981882,
				"y": -1.4267948392,
				"z": 0.9331615903,
				"element": "C" 
			},
			{
				"x": 2.55599014,
				"y": -2.22161449,
				"z": 0.655903433,
				"element": "N" 
			},
			{
				"x": 3.117635805,
				"y": 1.338453778,
				"z": 1.8821284283,
				"element": "H" 
			},
			{
				"x": 3.7044481096,
				"y": 0.261435274,
				"z": 0.5915098858,
				"element": "H" 
			},
			{
				"x": 3.6854084687,
				"y": -0.2944551748,
				"z": 2.296315487,
				"element": "H" 
			},
			{
				"x": -1.4672005542,
				"y": 2.1972746078,
				"z": 1.1539225662,
				"element": "H" 
			},
			{
				"x": -2.5311331757,
				"y": 0.8342201776,
				"z": 1.6205283221,
				"element": "H" 
			},
			{
				"x": -1.4931597626,
				"y": 1.6435991045,
				"z": 2.8376729479,
				"element": "H" 
			},
			{
				"x": -1.4147367257,
				"y": -4.7706299737,
				"z": -0.2335922769,
				"element": "H" 
			},
			{
				"x": -2.2068639269,
				"y": -3.1516377871,
				"z": -0.0176976106,
				"element": "H" 
			},
			{
				"x": 2.2871532994,
				"y": -3.1631668654,
				"z": 0.333869812,
				"element": "H" 
			},
			{
				"x": 3.5061767492,
				"y": -1.9429301969,
				"z": 0.8270361193,
				"element": "H" 
			}
		],
		 "valence_orbital": [ 
			{
				"type": "occ",
				"energy": -0.28875,
				"method": "rhf"
			},
			{
				"type": "occ",
				"energy": -0.27581,
				"method": "rhf"
			},
			{
				"type": "occ",
				"energy": -0.26612,
				"method": "rhf"
			},
			{
				"type": "occ",
				"energy": -0.26157,
				"method": "rhf"
			},
			{
				"type": "occ",
				"energy": -0.24199,
				"method": "rhf"
			},
			{
				"type": "unocc",
				"energy": -0.05655,
				"method": "rhf"
			},
			{
				"type": "unocc",
				"energy": -0.01649,
				"method": "rhf"
			},
			{
				"type": "unocc",
				"energy": 0.01031,
				"method": "rhf"
			},
			{
				"type": "unocc",
				"energy": 0.05374,
				"method": "rhf"
			},
			{
				"type": "unocc",
				"energy": 0.05591,
				"method": "rhf"
			}
		],
		"cosmo_sigma_profile": { 
			"-0.025": 0.0,
			"-0.024": 0.0,
			"-0.023": 0.0,
			"-0.022": 0.0,
			"-0.021": 0.0,
			"-0.02": 0.0,
			"-0.019": 0.0,
			"-0.018": 0.0,
			"-0.017": 0.00239319962087,
			"-0.016": 0.585804201961,
			"-0.015": 1.07359497415,
			"-0.014": 0.897557092928,
			"-0.013": 1.61449741672,
			"-0.012": 2.07443697499,
			"-0.011": 1.07064034877,
			"-0.01": 2.43595397421,
			"-0.009": 2.32666660564,
			"-0.008": 4.80239022235,
			"-0.007": 6.9581679801,
			"-0.006": 9.69396886784,
			"-0.005": 18.519145313,
			"-0.004": 22.9496549324,
			"-0.003": 19.4797675991,
			"-0.002": 16.8775295911,
			"-0.001": 14.8774045838,
			"0.0": 13.5829504233,
			"0.001": 10.335267889,
			"0.002": 10.6845254198,
			"0.003": 9.06927780907,
			"0.004": 8.90046441154,
			"0.005": 12.1949042912,
			"0.006": 12.0555460681,
			"0.007": 5.69038511198,
			"0.008": 4.50310393023,
			"0.009": 4.84245538206,
			"0.01": 5.50400931457,
			"0.011": 7.09122939964,
			"0.012": 6.9266034603,
			"0.013": 1.02437925554,
			"0.014": 0.0,
			"0.015": 0.0,
			"0.016": 0.0,
			"0.017": 0.0,
			"0.018": 0.0,
			"0.019": 0.0,
			"0.02": 0.0,
			"0.021": 0.0,
			"0.022": 0.0,
			"0.023": 0.0,
			"0.024": 0.0,
			"0.025": 0.0
		}
	}
}
