{
	 "smiles": "COC1=CC=C(C=C1)C#N", 
	 "Tm": 333.35, 
	 "num_atms": 17, 
	 "gaussian": { 
		 "optdone": 1, 
		 "sigma_profile": "yes", 
		 "theory": "DFT", 
		 "functional": "B3LYP", 
		 "basiset": "6-31G**", 
		 "properties": { 
			 "R2extent": 1984.281, 
			 "electric_dipole_moment_norm": 5.79339821003, 
			 "electric_quadrupole_moment_norm": 13.5216504277, 
			 "total_energy": -439.017812391, 
			 "HOMO_LUMO_gap": 0.19929, 
			 "cosmo_polarized_energy": -10.6, 
			 "cosmo_cavitation_energy": 22.26, 
			 "cosmo_dispersion_energy": -15.97, 
			 "cosmo_repulsion_energy": 1.29, 
			 "cosmo_total_nonelectrostatic_energy": 7.58, 
			 "SMD_solvation_energy": 6.13 
		},
		"coords": [
			{
				"x": -1.8430363764,
				"y": 2.905455909,
				"z": -0.1116676838,
				"element": "C" 
			},
			{
				"x": -2.182891524,
				"y": 1.537765001,
				"z": -0.3032411796,
				"element": "O" 
			},
			{
				"x": -1.2014639319,
				"y": 0.6650252886,
				"z": -0.6448752429,
				"element": "C" 
			},
			{
				"x": -1.609459526,
				"y": -0.6692225043,
				"z": -0.8180966458,
				"element": "C" 
			},
			{
				"x": -0.6876870779,
				"y": -1.6412351511,
				"z": -1.1674077194,
				"element": "C" 
			},
			{
				"x": 0.6676606806,
				"y": -1.3018245335,
				"z": -1.3523982545,
				"element": "C" 
			},
			{
				"x": 1.0689460112,
				"y": 0.0306942525,
				"z": -1.1782072035,
				"element": "C" 
			},
			{
				"x": 0.1452179728,
				"y": 1.0121290799,
				"z": -0.8267941156,
				"element": "C" 
			},
			{
				"x": 1.6233950063,
				"y": -2.3044645285,
				"z": -1.713707739,
				"element": "C" 
			},
			{
				"x": 2.4002231639,
				"y": -3.1199625579,
				"z": -2.0075169557,
				"element": "N" 
			},
			{
				"x": -1.4364567926,
				"y": 3.3510555284,
				"z": -1.0278457908,
				"element": "H" 
			},
			{
				"x": -1.1199630759,
				"y": 3.0299352876,
				"z": 0.7037639306,
				"element": "H" 
			},
			{
				"x": -2.7732009975,
				"y": 3.4098620729,
				"z": 0.1518987933,
				"element": "H" 
			},
			{
				"x": -2.656203059,
				"y": -0.9127640128,
				"z": -0.6718082686,
				"element": "H" 
			},
			{
				"x": -1.0048446553,
				"y": -2.6701421977,
				"z": -1.3005636712,
				"element": "H" 
			},
			{
				"x": 2.1110608281,
				"y": 0.2977750889,
				"z": -1.3192983554,
				"element": "H" 
			},
			{
				"x": 0.4810033534,
				"y": 2.033717977,
				"z": -0.6984338982,
				"element": "H" 
			}
		],
		 "valence_orbital": [ 
			{
				"type": "occ",
				"energy": -0.34734,
				"method": "rhf"
			},
			{
				"type": "occ",
				"energy": -0.32292,
				"method": "rhf"
			},
			{
				"type": "occ",
				"energy": -0.31828,
				"method": "rhf"
			},
			{
				"type": "occ",
				"energy": -0.27544,
				"method": "rhf"
			},
			{
				"type": "occ",
				"energy": -0.23768,
				"method": "rhf"
			},
			{
				"type": "unocc",
				"energy": -0.03839,
				"method": "rhf"
			},
			{
				"type": "unocc",
				"energy": -0.02294,
				"method": "rhf"
			},
			{
				"type": "unocc",
				"energy": 0.04284,
				"method": "rhf"
			},
			{
				"type": "unocc",
				"energy": 0.07504,
				"method": "rhf"
			},
			{
				"type": "unocc",
				"energy": 0.08746,
				"method": "rhf"
			}
		],
		"cosmo_sigma_profile": { 
			"-0.025": 0.0,
			"-0.024": 0.0,
			"-0.023": 0.0,
			"-0.022": 0.0,
			"-0.021": 0.0,
			"-0.02": 0.0,
			"-0.019": 0.0,
			"-0.018": 0.0,
			"-0.017": 0.0,
			"-0.016": 0.0,
			"-0.015": 0.0,
			"-0.014": 0.0,
			"-0.013": 0.0,
			"-0.012": 0.0,
			"-0.011": 0.0,
			"-0.01": 0.0,
			"-0.009": 0.0,
			"-0.008": 2.95581333756,
			"-0.007": 9.7074000175,
			"-0.006": 16.5464025167,
			"-0.005": 14.9097248718,
			"-0.004": 14.2401336521,
			"-0.003": 12.8788676701,
			"-0.002": 8.34813367663,
			"-0.001": 10.2864111159,
			"0.0": 11.3626035516,
			"0.001": 12.2500675236,
			"0.002": 16.3869904725,
			"0.003": 12.194035541,
			"0.004": 4.50656810943,
			"0.005": 3.3664406828,
			"0.006": 4.14577284881,
			"0.007": 3.7576385153,
			"0.008": 4.59143879875,
			"0.009": 4.70437154249,
			"0.01": 3.90953630412,
			"0.011": 2.91301769136,
			"0.012": 2.65348235132,
			"0.013": 2.16772673101,
			"0.014": 0.529212404633,
			"0.015": 0.0,
			"0.016": 0.0,
			"0.017": 0.0,
			"0.018": 0.0,
			"0.019": 0.0,
			"0.02": 0.0,
			"0.021": 0.0,
			"0.022": 0.0,
			"0.023": 0.0,
			"0.024": 0.0,
			"0.025": 0.0
		}
	}
}
