{
	 "smiles": "CCOC(=O)C1=C(N)N(N=C1)C1=CC=CC=C1", 
	 "Tm": 372.65, 
	 "num_atms": 30, 
	 "gaussian": { 
		 "optdone": 1, 
		 "sigma_profile": "yes", 
		 "theory": "DFT", 
		 "functional": "B3LYP", 
		 "basiset": "6-31G**", 
		 "properties": { 
			 "R2extent": 6157.596, 
			 "electric_dipole_moment_norm": 1.66275743871, 
			 "electric_quadrupole_moment_norm": 15.2345382513, 
			 "total_energy": -779.823143477, 
			 "HOMO_LUMO_gap": 0.1906, 
			 "cosmo_polarized_energy": -12.27, 
			 "cosmo_cavitation_energy": 34.23, 
			 "cosmo_dispersion_energy": -25.16, 
			 "cosmo_repulsion_energy": 1.96, 
			 "cosmo_total_nonelectrostatic_energy": 11.04, 
			 "SMD_solvation_energy": 6.18 
		},
		"coords": [
			{
				"x": -4.4191689787,
				"y": -2.4270362022,
				"z": -3.3877694804,
				"element": "C" 
			},
			{
				"x": -2.9353636642,
				"y": -2.194645549,
				"z": -3.1730053903,
				"element": "C" 
			},
			{
				"x": -2.7828862489,
				"y": -1.5222685696,
				"z": -1.9042553437,
				"element": "O" 
			},
			{
				"x": -1.5157612259,
				"y": -1.2207290834,
				"z": -1.5427051898,
				"element": "C" 
			},
			{
				"x": -0.5398701804,
				"y": -1.4932169862,
				"z": -2.2394588157,
				"element": "O" 
			},
			{
				"x": -1.4365192453,
				"y": -0.5605823103,
				"z": -0.2558774157,
				"element": "C" 
			},
			{
				"x": -0.2289012324,
				"y": -0.1639568038,
				"z": 0.3345328174,
				"element": "C" 
			},
			{
				"x": 1.0304804551,
				"y": -0.2422026274,
				"z": -0.1959966675,
				"element": "N" 
			},
			{
				"x": -0.5479078786,
				"y": 0.3626754497,
				"z": 1.55339739,
				"element": "N" 
			},
			{
				"x": -1.913378315,
				"y": 0.302532295,
				"z": 1.7964063214,
				"element": "N" 
			},
			{
				"x": -2.4264506403,
				"y": -0.2367926263,
				"z": 0.7108064853,
				"element": "C" 
			},
			{
				"x": 0.3137043079,
				"y": 0.8745488038,
				"z": 2.5592438814,
				"element": "C" 
			},
			{
				"x": -0.0201957249,
				"y": 0.6703863718,
				"z": 3.9038502557,
				"element": "C" 
			},
			{
				"x": 0.8109269571,
				"y": 1.1731577125,
				"z": 4.9017243145,
				"element": "C" 
			},
			{
				"x": 1.9768253585,
				"y": 1.8697886096,
				"z": 4.572287519,
				"element": "C" 
			},
			{
				"x": 2.2980486179,
				"y": 2.0776023658,
				"z": 3.2309070687,
				"element": "C" 
			},
			{
				"x": 1.4674288469,
				"y": 1.5927330587,
				"z": 2.2190730174,
				"element": "C" 
			},
			{
				"x": -4.9644269587,
				"y": -1.4790040907,
				"z": -3.4068376006,
				"element": "H" 
			},
			{
				"x": -4.8372197007,
				"y": -3.0483504584,
				"z": -2.5904502372,
				"element": "H" 
			},
			{
				"x": -4.5811983255,
				"y": -2.9369213748,
				"z": -4.3426004595,
				"element": "H" 
			},
			{
				"x": -2.4990593361,
				"y": -1.5719820939,
				"z": -3.9606069939,
				"element": "H" 
			},
			{
				"x": -2.3723598185,
				"y": -3.1333456342,
				"z": -3.1486671678,
				"element": "H" 
			},
			{
				"x": 1.7932475542,
				"y": -0.387988291,
				"z": 0.4513042515,
				"element": "H" 
			},
			{
				"x": 1.0386211749,
				"y": -0.8164287827,
				"z": -1.0356617204,
				"element": "H" 
			},
			{
				"x": -3.4945152408,
				"y": -0.3883744333,
				"z": 0.6343873896,
				"element": "H" 
			},
			{
				"x": -0.9300927124,
				"y": 0.1328831458,
				"z": 4.1418036224,
				"element": "H" 
			},
			{
				"x": 0.5480891173,
				"y": 1.0140335234,
				"z": 5.9434339075,
				"element": "H" 
			},
			{
				"x": 2.6241374775,
				"y": 2.2534715464,
				"z": 5.3549786096,
				"element": "H" 
			},
			{
				"x": 3.1909564086,
				"y": 2.6350077519,
				"z": 2.9633334562,
				"element": "H" 
			},
			{
				"x": 1.6963091512,
				"y": 1.793105283,
				"z": 1.1784221747,
				"element": "H" 
			}
		],
		 "valence_orbital": [ 
			{
				"type": "occ",
				"energy": -0.28999,
				"method": "rhf"
			},
			{
				"type": "occ",
				"energy": -0.26844,
				"method": "rhf"
			},
			{
				"type": "occ",
				"energy": -0.25996,
				"method": "rhf"
			},
			{
				"type": "occ",
				"energy": -0.23188,
				"method": "rhf"
			},
			{
				"type": "occ",
				"energy": -0.21428,
				"method": "rhf"
			},
			{
				"type": "unocc",
				"energy": -0.02368,
				"method": "rhf"
			},
			{
				"type": "unocc",
				"energy": -0.01236,
				"method": "rhf"
			},
			{
				"type": "unocc",
				"energy": -0.0019,
				"method": "rhf"
			},
			{
				"type": "unocc",
				"energy": 0.03957,
				"method": "rhf"
			},
			{
				"type": "unocc",
				"energy": 0.08651,
				"method": "rhf"
			}
		],
		"cosmo_sigma_profile": { 
			"-0.025": 0.0,
			"-0.024": 0.0,
			"-0.023": 0.0,
			"-0.022": 0.0,
			"-0.021": 0.0,
			"-0.02": 0.0,
			"-0.019": 0.0,
			"-0.018": 0.0,
			"-0.017": 0.0,
			"-0.016": 0.0,
			"-0.015": 0.0,
			"-0.014": 0.196542082022,
			"-0.013": 1.20592758479,
			"-0.012": 1.03156596803,
			"-0.011": 1.22855037541,
			"-0.01": 2.20900372219,
			"-0.009": 2.48918095192,
			"-0.008": 2.73302294726,
			"-0.007": 4.21388950453,
			"-0.006": 10.4705887992,
			"-0.005": 17.0414721317,
			"-0.004": 24.725391634,
			"-0.003": 22.5440985406,
			"-0.002": 21.2998810285,
			"-0.001": 21.2198737151,
			"0.0": 22.1649880282,
			"0.001": 19.909971018,
			"0.002": 20.2180423402,
			"0.003": 17.1980885322,
			"0.004": 18.6417150072,
			"0.005": 11.1739578872,
			"0.006": 6.49671659636,
			"0.007": 5.52973399015,
			"0.008": 4.08200806735,
			"0.009": 3.0608872449,
			"0.01": 2.36391822668,
			"0.011": 3.32737733099,
			"0.012": 3.52846059537,
			"0.013": 1.77001886751,
			"0.014": 0.781347336886,
			"0.015": 0.164270824619,
			"0.016": 0.0,
			"0.017": 0.0,
			"0.018": 0.0,
			"0.019": 0.0,
			"0.02": 0.0,
			"0.021": 0.0,
			"0.022": 0.0,
			"0.023": 0.0,
			"0.024": 0.0,
			"0.025": 0.0
		}
	}
}
