{
	 "smiles": "CC(N)CC(O)=O", 
	 "Tm": 466.15, 
	 "num_atms": 16, 
	 "gaussian": { 
		 "optdone": 1, 
		 "sigma_profile": "yes", 
		 "theory": "DFT", 
		 "functional": "B3LYP", 
		 "basiset": "6-31G**", 
		 "properties": { 
			 "R2extent": 942.4205, 
			 "electric_dipole_moment_norm": 4.54748087736, 
			 "electric_quadrupole_moment_norm": 8.55371495141, 
			 "total_energy": -363.056790429, 
			 "HOMO_LUMO_gap": 0.24662, 
			 "cosmo_polarized_energy": -17.73, 
			 "cosmo_cavitation_energy": 19.22, 
			 "cosmo_dispersion_energy": -14.03, 
			 "cosmo_repulsion_energy": 1.21, 
			 "cosmo_total_nonelectrostatic_energy": 6.41, 
			 "SMD_solvation_energy": 3.49 
		},
		"coords": [
			{
				"x": 0.207601029,
				"y": -0.6257273022,
				"z": -2.1374478767,
				"element": "C" 
			},
			{
				"x": 0.9036437646,
				"y": -0.225169379,
				"z": -0.8349552816,
				"element": "C" 
			},
			{
				"x": 2.1232044231,
				"y": -1.0238732264,
				"z": -0.6778663074,
				"element": "N" 
			},
			{
				"x": -0.0534321639,
				"y": -0.3239942484,
				"z": 0.375184465,
				"element": "C" 
			},
			{
				"x": -1.1735885947,
				"y": 0.7104732306,
				"z": 0.3765982986,
				"element": "C" 
			},
			{
				"x": -2.1286349367,
				"y": 0.5360320878,
				"z": 1.3323346071,
				"element": "O" 
			},
			{
				"x": -1.2441256536,
				"y": 1.6514205307,
				"z": -0.3740671778,
				"element": "O" 
			},
			{
				"x": -0.1271313878,
				"y": -1.6708923269,
				"z": -2.0943823043,
				"element": "H" 
			},
			{
				"x": 0.9032453474,
				"y": -0.5307156889,
				"z": -2.974710502,
				"element": "H" 
			},
			{
				"x": -0.6617275915,
				"y": 0.0082030671,
				"z": -2.3246688811,
				"element": "H" 
			},
			{
				"x": 1.2090136042,
				"y": 0.8238898052,
				"z": -0.9187351236,
				"element": "H" 
			},
			{
				"x": 1.8876312668,
				"y": -2.0100140395,
				"z": -0.5804012381,
				"element": "H" 
			},
			{
				"x": 2.6219451181,
				"y": -0.7581475634,
				"z": 0.1683286277,
				"element": "H" 
			},
			{
				"x": -0.4894147927,
				"y": -1.3327812927,
				"z": 0.428950822,
				"element": "H" 
			},
			{
				"x": 0.5145585634,
				"y": -0.1852706721,
				"z": 1.306929988,
				"element": "H" 
			},
			{
				"x": -1.9400879956,
				"y": -0.2590329818,
				"z": 1.8508078844,
				"element": "H" 
			}
		],
		 "valence_orbital": [ 
			{
				"type": "occ",
				"energy": -0.35272,
				"method": "rhf"
			},
			{
				"type": "occ",
				"energy": -0.34234,
				"method": "rhf"
			},
			{
				"type": "occ",
				"energy": -0.31743,
				"method": "rhf"
			},
			{
				"type": "occ",
				"energy": -0.27661,
				"method": "rhf"
			},
			{
				"type": "occ",
				"energy": -0.24007,
				"method": "rhf"
			},
			{
				"type": "unocc",
				"energy": 0.00655,
				"method": "rhf"
			},
			{
				"type": "unocc",
				"energy": 0.05201,
				"method": "rhf"
			},
			{
				"type": "unocc",
				"energy": 0.06927,
				"method": "rhf"
			},
			{
				"type": "unocc",
				"energy": 0.11786,
				"method": "rhf"
			},
			{
				"type": "unocc",
				"energy": 0.12646,
				"method": "rhf"
			}
		],
		"cosmo_sigma_profile": { 
			"-0.025": 0.0,
			"-0.024": 0.0,
			"-0.023": 0.0,
			"-0.022": 0.0,
			"-0.021": 0.0,
			"-0.02": 0.0,
			"-0.019": 0.354584905364,
			"-0.018": 1.10607771422,
			"-0.017": 0.733953163777,
			"-0.016": 1.1858570161,
			"-0.015": 1.26599607629,
			"-0.014": 1.30387747788,
			"-0.013": 1.03057097956,
			"-0.012": 0.729101679108,
			"-0.011": 0.960473667162,
			"-0.01": 2.43350808139,
			"-0.009": 3.96523478215,
			"-0.008": 5.13069849096,
			"-0.007": 7.58303232839,
			"-0.006": 9.6723896735,
			"-0.005": 7.29867458978,
			"-0.004": 5.36331968076,
			"-0.003": 9.64165509842,
			"-0.002": 8.82818688919,
			"-0.001": 8.90357223147,
			"0.0": 8.21161890513,
			"0.001": 9.90304448017,
			"0.002": 5.72696053186,
			"0.003": 3.66695511071,
			"0.004": 3.51381775481,
			"0.005": 3.05444770879,
			"0.006": 3.74143756083,
			"0.007": 2.50270824551,
			"0.008": 3.34872962135,
			"0.009": 4.0460415009,
			"0.01": 5.02718398103,
			"0.011": 6.06079736545,
			"0.012": 6.36666895707,
			"0.013": 2.77778435664,
			"0.014": 0.493793587414,
			"0.015": 0.175623029077,
			"0.016": 0.647749232695,
			"0.017": 0.763962911239,
			"0.018": 0.580606097814,
			"0.019": 0.547187958035,
			"0.02": 0.193907912016,
			"0.021": 0.0,
			"0.022": 0.0,
			"0.023": 0.0,
			"0.024": 0.0,
			"0.025": 0.0
		}
	}
}
