{
	 "smiles": "CN1C(C=O)=NC2=C1C=CC(=C2)C(F)(F)F", 
	 "Tm": 385.15, 
	 "num_atms": 23, 
	 "gaussian": { 
		 "optdone": 1, 
		 "sigma_profile": "yes", 
		 "theory": "DFT", 
		 "functional": "B3LYP", 
		 "basiset": "6-31G**", 
		 "properties": { 
			 "R2extent": 4464.2149, 
			 "electric_dipole_moment_norm": 3.16445623291, 
			 "electric_quadrupole_moment_norm": 15.1456368707, 
			 "total_energy": -869.539484699, 
			 "HOMO_LUMO_gap": 0.16416, 
			 "cosmo_polarized_energy": -9.82, 
			 "cosmo_cavitation_energy": 29.32, 
			 "cosmo_dispersion_energy": -20.9, 
			 "cosmo_repulsion_energy": 1.53, 
			 "cosmo_total_nonelectrostatic_energy": 9.96, 
			 "SMD_solvation_energy": 5.26 
		},
		"coords": [
			{
				"x": 2.1037617322,
				"y": 1.9999284966,
				"z": 1.5346215105,
				"element": "C" 
			},
			{
				"x": 1.0416322374,
				"y": 1.0055928963,
				"z": 1.4137000245,
				"element": "N" 
			},
			{
				"x": 0.2385439013,
				"y": 0.4725675983,
				"z": 2.4100779377,
				"element": "C" 
			},
			{
				"x": 0.2926477781,
				"y": 0.8098427644,
				"z": 3.8410387899,
				"element": "C" 
			},
			{
				"x": 1.0536859046,
				"y": 1.609400026,
				"z": 4.3592649364,
				"element": "O" 
			},
			{
				"x": -0.6346963826,
				"y": -0.4149816142,
				"z": 1.9615828621,
				"element": "N" 
			},
			{
				"x": -0.4088698211,
				"y": -0.4807235029,
				"z": 0.6093532831,
				"element": "C" 
			},
			{
				"x": 0.6400099103,
				"y": 0.4036449867,
				"z": 0.2447803384,
				"element": "C" 
			},
			{
				"x": 1.0784967429,
				"y": 0.5376225276,
				"z": -1.0802721162,
				"element": "C" 
			},
			{
				"x": 0.4363891375,
				"y": -0.2395006705,
				"z": -2.0301744947,
				"element": "C" 
			},
			{
				"x": -0.6129423763,
				"y": -1.1269106435,
				"z": -1.6791365965,
				"element": "C" 
			},
			{
				"x": -1.0468006502,
				"y": -1.2598383665,
				"z": -0.3692775289,
				"element": "C" 
			},
			{
				"x": -1.2465258173,
				"y": -1.9290078897,
				"z": -2.7825453858,
				"element": "C" 
			},
			{
				"x": -0.3386902735,
				"y": -2.7167998444,
				"z": -3.4064574721,
				"element": "F" 
			},
			{
				"x": -1.7754575992,
				"y": -1.1269160746,
				"z": -3.7369919528,
				"element": "F" 
			},
			{
				"x": -2.2352912296,
				"y": -2.7298047217,
				"z": -2.3352564368,
				"element": "F" 
			},
			{
				"x": 2.1880921558,
				"y": 2.2890420985,
				"z": 2.5794966123,
				"element": "H" 
			},
			{
				"x": 1.8638847942,
				"y": 2.8775440607,
				"z": 0.9264939229,
				"element": "H" 
			},
			{
				"x": 3.0523051388,
				"y": 1.5761677745,
				"z": 1.1907017131,
				"element": "H" 
			},
			{
				"x": -0.4570971828,
				"y": 0.2420555347,
				"z": 4.4235105588,
				"element": "H" 
			},
			{
				"x": 1.8801060245,
				"y": 1.2138442898,
				"z": -1.3576091042,
				"element": "H" 
			},
			{
				"x": 0.7384857997,
				"y": -0.1722826077,
				"z": -3.0701858606,
				"element": "H" 
			},
			{
				"x": -1.8482699247,
				"y": -1.9376871184,
				"z": -0.1020155409,
				"element": "H" 
			}
		],
		 "valence_orbital": [ 
			{
				"type": "occ",
				"energy": -0.32308,
				"method": "rhf"
			},
			{
				"type": "occ",
				"energy": -0.29999,
				"method": "rhf"
			},
			{
				"type": "occ",
				"energy": -0.27602,
				"method": "rhf"
			},
			{
				"type": "occ",
				"energy": -0.25583,
				"method": "rhf"
			},
			{
				"type": "occ",
				"energy": -0.2517,
				"method": "rhf"
			},
			{
				"type": "unocc",
				"energy": -0.08754,
				"method": "rhf"
			},
			{
				"type": "unocc",
				"energy": -0.02047,
				"method": "rhf"
			},
			{
				"type": "unocc",
				"energy": -0.0072,
				"method": "rhf"
			},
			{
				"type": "unocc",
				"energy": 0.07178,
				"method": "rhf"
			},
			{
				"type": "unocc",
				"energy": 0.08303,
				"method": "rhf"
			}
		],
		"cosmo_sigma_profile": { 
			"-0.025": 0.0,
			"-0.024": 0.0,
			"-0.023": 0.0,
			"-0.022": 0.0,
			"-0.021": 0.0,
			"-0.02": 0.0,
			"-0.019": 0.0,
			"-0.018": 0.0,
			"-0.017": 0.0,
			"-0.016": 0.0,
			"-0.015": 0.0,
			"-0.014": 0.0,
			"-0.013": 0.0,
			"-0.012": 0.0,
			"-0.011": 0.0,
			"-0.01": 0.0,
			"-0.009": 0.0,
			"-0.008": 2.64349062429,
			"-0.007": 12.9621386888,
			"-0.006": 13.8695167385,
			"-0.005": 13.9515696885,
			"-0.004": 17.9930304296,
			"-0.003": 17.4660816413,
			"-0.002": 15.3243994116,
			"-0.001": 12.5248636051,
			"0.0": 14.3484509334,
			"0.001": 20.6069224165,
			"0.002": 29.124267817,
			"0.003": 34.1160893377,
			"0.004": 6.27967245589,
			"0.005": 2.81764591333,
			"0.006": 2.90073314758,
			"0.007": 2.61610696914,
			"0.008": 2.91394125531,
			"0.009": 3.59231984608,
			"0.01": 3.16278965833,
			"0.011": 2.99365509532,
			"0.012": 1.78877448147,
			"0.013": 0.630355958467,
			"0.014": 0.860210139531,
			"0.015": 0.601457623589,
			"0.016": 0.190082856676,
			"0.017": 0.0,
			"0.018": 0.0,
			"0.019": 0.0,
			"0.02": 0.0,
			"0.021": 0.0,
			"0.022": 0.0,
			"0.023": 0.0,
			"0.024": 0.0,
			"0.025": 0.0
		}
	}
}
