{
	 "smiles": "FC(F)(F)C1=NN(C(=O)C1=NNC1=CC=C(Cl)C=C1)C1=CC=CC=C1", 
	 "Tm": 453.15, 
	 "num_atms": 35, 
	 "gaussian": { 
		 "optdone": 1, 
		 "sigma_profile": "yes", 
		 "theory": "DFT", 
		 "functional": "B3LYP", 
		 "basiset": "6-31G**", 
		 "properties": { 
			 "R2extent": 14293.9804, 
			 "electric_dipole_moment_norm": 2.23814399447, 
			 "electric_quadrupole_moment_norm": 11.7060053528, 
			 "total_energy": -1669.61972654, 
			 "HOMO_LUMO_gap": 0.11197, 
			 "cosmo_polarized_energy": -14.31, 
			 "cosmo_cavitation_energy": 44.43, 
			 "cosmo_dispersion_energy": -31.49, 
			 "cosmo_repulsion_energy": 2.29, 
			 "cosmo_total_nonelectrostatic_energy": 15.23, 
			 "SMD_solvation_energy": 7.63 
		},
		"coords": [
			{
				"x": -1.6273095462,
				"y": 3.117273515,
				"z": 0.862850102,
				"element": "F" 
			},
			{
				"x": -1.4813141904,
				"y": 2.2140863623,
				"z": 1.8646377621,
				"element": "C" 
			},
			{
				"x": -1.3689918953,
				"y": 2.8712789686,
				"z": 3.0150840973,
				"element": "F" 
			},
			{
				"x": -2.6598385562,
				"y": 1.5130168968,
				"z": 1.8919765145,
				"element": "F" 
			},
			{
				"x": -0.3356261799,
				"y": 1.2948000581,
				"z": 1.5943328077,
				"element": "C" 
			},
			{
				"x": 0.7115347783,
				"y": 1.332154139,
				"z": 2.3689500965,
				"element": "N" 
			},
			{
				"x": 1.6441542307,
				"y": 0.4557565726,
				"z": 1.8947707618,
				"element": "N" 
			},
			{
				"x": 1.2106436265,
				"y": -0.2001299527,
				"z": 0.7163011949,
				"element": "C" 
			},
			{
				"x": 1.8224612966,
				"y": -1.0257418249,
				"z": 0.0641566999,
				"element": "O" 
			},
			{
				"x": -0.1525386735,
				"y": 0.3607784637,
				"z": 0.4983948194,
				"element": "C" 
			},
			{
				"x": -0.8518636223,
				"y": -0.0513747924,
				"z": -0.5243383854,
				"element": "N" 
			},
			{
				"x": -2.0690331507,
				"y": 0.3644331082,
				"z": -0.7598989125,
				"element": "N" 
			},
			{
				"x": -2.7886232461,
				"y": -0.095089283,
				"z": -1.8777800691,
				"element": "C" 
			},
			{
				"x": -2.219943814,
				"y": -0.9858625146,
				"z": -2.7974258592,
				"element": "C" 
			},
			{
				"x": -2.9682779371,
				"y": -1.4129456991,
				"z": -3.8891668462,
				"element": "C" 
			},
			{
				"x": -4.2755904971,
				"y": -0.9513971753,
				"z": -4.0612904445,
				"element": "C" 
			},
			{
				"x": -5.2115978213,
				"y": -1.4944986454,
				"z": -5.4418243018,
				"element": "Cl" 
			},
			{
				"x": -4.8457875227,
				"y": -0.063456049,
				"z": -3.149492691,
				"element": "C" 
			},
			{
				"x": -4.099029476,
				"y": 0.3650800175,
				"z": -2.0554495363,
				"element": "C" 
			},
			{
				"x": 2.8786444903,
				"y": 0.3150418386,
				"z": 2.5929152377,
				"element": "C" 
			},
			{
				"x": 3.8711927137,
				"y": -0.5539862776,
				"z": 2.1187220836,
				"element": "C" 
			},
			{
				"x": 5.0682492307,
				"y": -0.669120158,
				"z": 2.826196208,
				"element": "C" 
			},
			{
				"x": 5.2888693302,
				"y": 0.0648858791,
				"z": 3.9912938976,
				"element": "C" 
			},
			{
				"x": 4.292218286,
				"y": 0.926915491,
				"z": 4.4529320507,
				"element": "C" 
			},
			{
				"x": 3.0892307715,
				"y": 1.0572626909,
				"z": 3.763405495,
				"element": "C" 
			},
			{
				"x": -2.5518125289,
				"y": 0.9853787392,
				"z": -0.1136531379,
				"element": "H" 
			},
			{
				"x": -1.2048541813,
				"y": -1.3328214358,
				"z": -2.6469806876,
				"element": "H" 
			},
			{
				"x": -2.5389276602,
				"y": -2.1028845424,
				"z": -4.606908772,
				"element": "H" 
			},
			{
				"x": -5.860864244,
				"y": 0.2888834951,
				"z": -3.2926531257,
				"element": "H" 
			},
			{
				"x": -4.5378642883,
				"y": 1.0575881705,
				"z": -1.3419020292,
				"element": "H" 
			},
			{
				"x": 3.7021661622,
				"y": -1.1240241342,
				"z": 1.2161886256,
				"element": "H" 
			},
			{
				"x": 5.8337298963,
				"y": -1.3439918226,
				"z": 2.4542596051,
				"element": "H" 
			},
			{
				"x": 6.2244901808,
				"y": -0.0327058755,
				"z": 4.5334824063,
				"element": "H" 
			},
			{
				"x": 4.4473353965,
				"y": 1.5057986309,
				"z": 5.3588289911,
				"element": "H" 
			},
			{
				"x": 2.3152686414,
				"y": 1.7248171454,
				"z": 4.1197853418,
				"element": "H" 
			}
		],
		 "valence_orbital": [ 
			{
				"type": "occ",
				"energy": -0.282,
				"method": "rhf"
			},
			{
				"type": "occ",
				"energy": -0.26644,
				"method": "rhf"
			},
			{
				"type": "occ",
				"energy": -0.25184,
				"method": "rhf"
			},
			{
				"type": "occ",
				"energy": -0.23539,
				"method": "rhf"
			},
			{
				"type": "occ",
				"energy": -0.21979,
				"method": "rhf"
			},
			{
				"type": "unocc",
				"energy": -0.10782,
				"method": "rhf"
			},
			{
				"type": "unocc",
				"energy": -0.03227,
				"method": "rhf"
			},
			{
				"type": "unocc",
				"energy": -0.02744,
				"method": "rhf"
			},
			{
				"type": "unocc",
				"energy": -0.01186,
				"method": "rhf"
			},
			{
				"type": "unocc",
				"energy": -0.00164,
				"method": "rhf"
			}
		],
		"cosmo_sigma_profile": { 
			"-0.025": 0.0,
			"-0.024": 0.0,
			"-0.023": 0.0,
			"-0.022": 0.0,
			"-0.021": 0.0,
			"-0.02": 0.0,
			"-0.019": 0.0,
			"-0.018": 0.0,
			"-0.017": 0.0,
			"-0.016": 0.0,
			"-0.015": 0.442242203932,
			"-0.014": 0.766705308474,
			"-0.013": 0.777515842992,
			"-0.012": 0.859388421405,
			"-0.011": 1.49049279307,
			"-0.01": 1.10807056776,
			"-0.009": 2.04841297382,
			"-0.008": 5.61072736332,
			"-0.007": 8.56189854389,
			"-0.006": 14.5131044215,
			"-0.005": 18.1239264777,
			"-0.004": 24.5167592993,
			"-0.003": 22.2102486376,
			"-0.002": 24.6081323047,
			"-0.001": 26.1373327493,
			"0.0": 29.4823154326,
			"0.001": 43.2657064219,
			"0.002": 48.8232205493,
			"0.003": 25.1323559211,
			"0.004": 23.3991039469,
			"0.005": 17.6419095789,
			"0.006": 4.26506584386,
			"0.007": 3.41215813747,
			"0.008": 2.00514851502,
			"0.009": 2.16000233228,
			"0.01": 2.30112788771,
			"0.011": 3.60942352039,
			"0.012": 3.33859207179,
			"0.013": 1.40193463222,
			"0.014": 0.0053401886764,
			"0.015": 0.0,
			"0.016": 0.0,
			"0.017": 0.0,
			"0.018": 0.0,
			"0.019": 0.0,
			"0.02": 0.0,
			"0.021": 0.0,
			"0.022": 0.0,
			"0.023": 0.0,
			"0.024": 0.0,
			"0.025": 0.0
		}
	}
}
