{
	 "smiles": "CCOC1=C(C=C(N)C=C1)S(=O)(=O)N(C)C", 
	 "Tm": 290.15, 
	 "num_atms": 32, 
	 "gaussian": { 
		 "optdone": 1, 
		 "sigma_profile": "yes", 
		 "theory": "DFT", 
		 "functional": "B3LYP", 
		 "basiset": "6-31G**", 
		 "properties": { 
			 "R2extent": 4397.9899, 
			 "electric_dipole_moment_norm": 5.69031638224, 
			 "electric_quadrupole_moment_norm": 22.3394704548, 
			 "total_energy": -1123.98793786, 
			 "HOMO_LUMO_gap": 0.18094, 
			 "cosmo_polarized_energy": -17.9, 
			 "cosmo_cavitation_energy": 35.28, 
			 "cosmo_dispersion_energy": -24.89, 
			 "cosmo_repulsion_energy": 1.91, 
			 "cosmo_total_nonelectrostatic_energy": 12.3, 
			 "SMD_solvation_energy": 5.01 
		},
		"coords": [
			{
				"x": -1.8353178252,
				"y": -1.7885352549,
				"z": -2.0618844163,
				"element": "C" 
			},
			{
				"x": -0.79290522,
				"y": -0.7125811234,
				"z": -1.8251366617,
				"element": "C" 
			},
			{
				"x": -0.3611722728,
				"y": -0.8085097766,
				"z": -0.4489368804,
				"element": "O" 
			},
			{
				"x": 0.6457130564,
				"y": 0.057093162,
				"z": -0.0942605569,
				"element": "C" 
			},
			{
				"x": 0.3892631095,
				"y": 1.2420758918,
				"z": 0.6148328964,
				"element": "C" 
			},
			{
				"x": 1.4338811227,
				"y": 2.0771608782,
				"z": 1.0158787151,
				"element": "C" 
			},
			{
				"x": 2.7660424864,
				"y": 1.7585357817,
				"z": 0.7107633801,
				"element": "C" 
			},
			{
				"x": 3.8019721756,
				"y": 2.6279112017,
				"z": 1.0505599826,
				"element": "N" 
			},
			{
				"x": 3.020534775,
				"y": 0.5702223896,
				"z": 0.0041329431,
				"element": "C" 
			},
			{
				"x": 1.9757811052,
				"y": -0.2597936539,
				"z": -0.38736625,
				"element": "C" 
			},
			{
				"x": -1.2890110303,
				"y": 1.7555684881,
				"z": 1.0655050656,
				"element": "S" 
			},
			{
				"x": -2.1779135119,
				"y": 1.5348163644,
				"z": -0.0776274025,
				"element": "O" 
			},
			{
				"x": -1.1490193021,
				"y": 3.0877866735,
				"z": 1.6624725933,
				"element": "O" 
			},
			{
				"x": -1.8280969109,
				"y": 0.7530890171,
				"z": 2.3056044967,
				"element": "N" 
			},
			{
				"x": -2.3459875878,
				"y": -0.5733108616,
				"z": 1.9632229613,
				"element": "C" 
			},
			{
				"x": -1.0930927523,
				"y": 0.8332003094,
				"z": 3.56794399,
				"element": "C" 
			},
			{
				"x": -2.7068384257,
				"y": -1.6273998123,
				"z": -1.4216939183,
				"element": "H" 
			},
			{
				"x": -1.4265333437,
				"y": -2.7814698804,
				"z": -1.851630884,
				"element": "H" 
			},
			{
				"x": -2.1673325684,
				"y": -1.7628695417,
				"z": -3.1045426846,
				"element": "H" 
			},
			{
				"x": -1.2078157077,
				"y": 0.2860721112,
				"z": -1.9954885722,
				"element": "H" 
			},
			{
				"x": 0.0751703953,
				"y": -0.8533810872,
				"z": -2.4838945354,
				"element": "H" 
			},
			{
				"x": 1.1913387893,
				"y": 2.9911404783,
				"z": 1.5475595943,
				"element": "H" 
			},
			{
				"x": 4.7139558119,
				"y": 2.2034509389,
				"z": 1.1446962117,
				"element": "H" 
			},
			{
				"x": 3.6002283829,
				"y": 3.2708036977,
				"z": 1.8033671927,
				"element": "H" 
			},
			{
				"x": 4.044590635,
				"y": 0.298922888,
				"z": -0.2397279072,
				"element": "H" 
			},
			{
				"x": 2.1797173878,
				"y": -1.1835312117,
				"z": -0.9203758553,
				"element": "H" 
			},
			{
				"x": -2.9027724104,
				"y": -0.5104440871,
				"z": 1.0303668819,
				"element": "H" 
			},
			{
				"x": -3.0292982549,
				"y": -0.876889565,
				"z": 2.7631022742,
				"element": "H" 
			},
			{
				"x": -1.5550245615,
				"y": -1.3267572136,
				"z": 1.858914063,
				"element": "H" 
			},
			{
				"x": -0.8479646632,
				"y": 1.8736838246,
				"z": 3.7803134267,
				"element": "H" 
			},
			{
				"x": -1.7451377253,
				"y": 0.4625553902,
				"z": 4.3646205601,
				"element": "H" 
			},
			{
				"x": -0.172355159,
				"y": 0.2299835831,
				"z": 3.5618092961,
				"element": "H" 
			}
		],
		 "valence_orbital": [ 
			{
				"type": "occ",
				"energy": -0.28917,
				"method": "rhf"
			},
			{
				"type": "occ",
				"energy": -0.2755,
				"method": "rhf"
			},
			{
				"type": "occ",
				"energy": -0.26502,
				"method": "rhf"
			},
			{
				"type": "occ",
				"energy": -0.24481,
				"method": "rhf"
			},
			{
				"type": "occ",
				"energy": -0.20937,
				"method": "rhf"
			},
			{
				"type": "unocc",
				"energy": -0.02843,
				"method": "rhf"
			},
			{
				"type": "unocc",
				"energy": 0.00167,
				"method": "rhf"
			},
			{
				"type": "unocc",
				"energy": 0.06408,
				"method": "rhf"
			},
			{
				"type": "unocc",
				"energy": 0.07227,
				"method": "rhf"
			},
			{
				"type": "unocc",
				"energy": 0.0885,
				"method": "rhf"
			}
		],
		"cosmo_sigma_profile": { 
			"-0.025": 0.0,
			"-0.024": 0.0,
			"-0.023": 0.0,
			"-0.022": 0.0,
			"-0.021": 0.0,
			"-0.02": 0.0,
			"-0.019": 0.0,
			"-0.018": 0.0,
			"-0.017": 0.0,
			"-0.016": 0.0,
			"-0.015": 0.0,
			"-0.014": 0.0,
			"-0.013": 1.07375929415,
			"-0.012": 3.2103252063,
			"-0.011": 3.30021680235,
			"-0.01": 3.27440375427,
			"-0.009": 3.72705927167,
			"-0.008": 2.92233465878,
			"-0.007": 3.98463710117,
			"-0.006": 9.36395146811,
			"-0.005": 13.0092450045,
			"-0.004": 23.7991926707,
			"-0.003": 28.8390607187,
			"-0.002": 31.16890148,
			"-0.001": 21.7439727339,
			"0.0": 19.1060423293,
			"0.001": 14.1561729995,
			"0.002": 13.1891209525,
			"0.003": 15.6231287201,
			"0.004": 13.6121166742,
			"0.005": 7.61293165184,
			"0.006": 7.64205580878,
			"0.007": 5.70334445499,
			"0.008": 5.73931849936,
			"0.009": 5.16188821519,
			"0.01": 6.01506595238,
			"0.011": 7.2645818102,
			"0.012": 6.12197109897,
			"0.013": 0.838307240248,
			"0.014": 0.370730906609,
			"0.015": 0.0,
			"0.016": 0.0,
			"0.017": 0.0,
			"0.018": 0.0,
			"0.019": 0.0,
			"0.02": 0.0,
			"0.021": 0.0,
			"0.022": 0.0,
			"0.023": 0.0,
			"0.024": 0.0,
			"0.025": 0.0
		}
	}
}
