{
	 "smiles": "CCOC1=CC(=CC=C1)C1=CC=CC=C1", 
	 "Tm": 308.15, 
	 "num_atms": 29, 
	 "gaussian": { 
		 "optdone": 1, 
		 "sigma_profile": "yes", 
		 "theory": "DFT", 
		 "functional": "B3LYP", 
		 "basiset": "6-31G**", 
		 "properties": { 
			 "R2extent": 4714.9334, 
			 "electric_dipole_moment_norm": 1.34976342742, 
			 "electric_quadrupole_moment_norm": 9.6583376872, 
			 "total_energy": -617.154381631, 
			 "HOMO_LUMO_gap": 0.18643, 
			 "cosmo_polarized_energy": -6.95, 
			 "cosmo_cavitation_energy": 32.06, 
			 "cosmo_dispersion_energy": -23.19, 
			 "cosmo_repulsion_energy": 1.82, 
			 "cosmo_total_nonelectrostatic_energy": 10.69, 
			 "SMD_solvation_energy": 5.62 
		},
		"coords": [
			{
				"x": -0.4319001757,
				"y": -1.2024420272,
				"z": -2.8123897434,
				"element": "C" 
			},
			{
				"x": -0.4383569429,
				"y": 0.2503996829,
				"z": -3.2779557282,
				"element": "C" 
			},
			{
				"x": -1.5242453611,
				"y": 0.9989841788,
				"z": -2.7279656334,
				"element": "O" 
			},
			{
				"x": -1.436187073,
				"y": 1.5071993904,
				"z": -1.4624181745,
				"element": "C" 
			},
			{
				"x": -0.3223425467,
				"y": 1.3894635154,
				"z": -0.6246379543,
				"element": "C" 
			},
			{
				"x": -0.3302915475,
				"y": 1.9620654602,
				"z": 0.6610345298,
				"element": "C" 
			},
			{
				"x": -1.472551607,
				"y": 2.6486937526,
				"z": 1.0949262144,
				"element": "C" 
			},
			{
				"x": -2.5830502606,
				"y": 2.7592053299,
				"z": 0.255102921,
				"element": "C" 
			},
			{
				"x": -2.5741943952,
				"y": 2.195965403,
				"z": -1.0153114641,
				"element": "C" 
			},
			{
				"x": 0.8607649618,
				"y": 1.833062387,
				"z": 1.5410891589,
				"element": "C" 
			},
			{
				"x": 0.7161964596,
				"y": 1.6161229079,
				"z": 2.9221974205,
				"element": "C" 
			},
			{
				"x": 1.8315026196,
				"y": 1.4965003751,
				"z": 3.750199176,
				"element": "C" 
			},
			{
				"x": 3.1181148523,
				"y": 1.5896013556,
				"z": 3.2158926316,
				"element": "C" 
			},
			{
				"x": 3.2781203891,
				"y": 1.8048906097,
				"z": 1.8457930942,
				"element": "C" 
			},
			{
				"x": 2.1621722976,
				"y": 1.9259507895,
				"z": 1.0186045104,
				"element": "C" 
			},
			{
				"x": 0.3734294065,
				"y": -1.7528090746,
				"z": -3.3105771085,
				"element": "H" 
			},
			{
				"x": -1.3826500912,
				"y": -1.6825607858,
				"z": -3.0610670803,
				"element": "H" 
			},
			{
				"x": -0.2827063453,
				"y": -1.2815456403,
				"z": -1.7322936845,
				"element": "H" 
			},
			{
				"x": -0.5946831831,
				"y": 0.2994703597,
				"z": -4.3595176563,
				"element": "H" 
			},
			{
				"x": 0.5161620811,
				"y": 0.7476897207,
				"z": -3.0631657884,
				"element": "H" 
			},
			{
				"x": 0.5499991939,
				"y": 0.8296718414,
				"z": -0.9382717124,
				"element": "H" 
			},
			{
				"x": -1.4813757454,
				"y": 3.1177393775,
				"z": 2.073367126,
				"element": "H" 
			},
			{
				"x": -3.462580336,
				"y": 3.3001007367,
				"z": 0.5930762116,
				"element": "H" 
			},
			{
				"x": -3.4275429782,
				"y": 2.2749056048,
				"z": -1.6806002242,
				"element": "H" 
			},
			{
				"x": -0.2799253916,
				"y": 1.5162292596,
				"z": 3.3429664808,
				"element": "H" 
			},
			{
				"x": 1.6949262204,
				"y": 1.3211080122,
				"z": 4.8137138817,
				"element": "H" 
			},
			{
				"x": 3.987112038,
				"y": 1.4958499161,
				"z": 3.8607432506,
				"element": "H" 
			},
			{
				"x": 4.2743636885,
				"y": 1.888835557,
				"z": 1.4203611562,
				"element": "H" 
			},
			{
				"x": 2.2976197721,
				"y": 2.1218520045,
				"z": -0.0410958115,
				"element": "H" 
			}
		],
		 "valence_orbital": [ 
			{
				"type": "occ",
				"energy": -0.31414,
				"method": "rhf"
			},
			{
				"type": "occ",
				"energy": -0.26606,
				"method": "rhf"
			},
			{
				"type": "occ",
				"energy": -0.24853,
				"method": "rhf"
			},
			{
				"type": "occ",
				"energy": -0.22935,
				"method": "rhf"
			},
			{
				"type": "occ",
				"energy": -0.21043,
				"method": "rhf"
			},
			{
				"type": "unocc",
				"energy": -0.024,
				"method": "rhf"
			},
			{
				"type": "unocc",
				"energy": -0.00032,
				"method": "rhf"
			},
			{
				"type": "unocc",
				"energy": 0.01144,
				"method": "rhf"
			},
			{
				"type": "unocc",
				"energy": 0.03477,
				"method": "rhf"
			},
			{
				"type": "unocc",
				"energy": 0.09068,
				"method": "rhf"
			}
		],
		"cosmo_sigma_profile": { 
			"-0.025": 0.0,
			"-0.024": 0.0,
			"-0.023": 0.0,
			"-0.022": 0.0,
			"-0.021": 0.0,
			"-0.02": 0.0,
			"-0.019": 0.0,
			"-0.018": 0.0,
			"-0.017": 0.0,
			"-0.016": 0.0,
			"-0.015": 0.0,
			"-0.014": 0.0,
			"-0.013": 0.0,
			"-0.012": 0.0,
			"-0.011": 0.0,
			"-0.01": 0.0,
			"-0.009": 0.0,
			"-0.008": 0.0,
			"-0.007": 0.348326129681,
			"-0.006": 7.78362396662,
			"-0.005": 22.7009074482,
			"-0.004": 26.9705388103,
			"-0.003": 30.0992694035,
			"-0.002": 21.1789334766,
			"-0.001": 18.8303524035,
			"0.0": 18.8632991881,
			"0.001": 15.7708053532,
			"0.002": 14.4080729159,
			"0.003": 17.6727126618,
			"0.004": 19.5817179922,
			"0.005": 20.1740239445,
			"0.006": 15.1050803927,
			"0.007": 1.25058526251,
			"0.008": 1.15360513878,
			"0.009": 1.35101125876,
			"0.01": 1.33528780022,
			"0.011": 0.760408498093,
			"0.012": 0.0,
			"0.013": 0.0,
			"0.014": 0.0,
			"0.015": 0.0,
			"0.016": 0.0,
			"0.017": 0.0,
			"0.018": 0.0,
			"0.019": 0.0,
			"0.02": 0.0,
			"0.021": 0.0,
			"0.022": 0.0,
			"0.023": 0.0,
			"0.024": 0.0,
			"0.025": 0.0
		}
	}
}
