{
	 "smiles": "CNC(=S)NCC1=CC=CC=C1", 
	 "Tm": 348.15, 
	 "num_atms": 24, 
	 "gaussian": { 
		 "optdone": 1, 
		 "sigma_profile": "yes", 
		 "theory": "DFT", 
		 "functional": "B3LYP", 
		 "basiset": "6-31G**", 
		 "properties": { 
			 "R2extent": 3716.7704, 
			 "electric_dipole_moment_norm": 5.26239675623, 
			 "electric_quadrupole_moment_norm": 22.4781199111, 
			 "total_energy": -857.889207361, 
			 "HOMO_LUMO_gap": 0.17834, 
			 "cosmo_polarized_energy": -16.18, 
			 "cosmo_cavitation_energy": 29.14, 
			 "cosmo_dispersion_energy": -21.21, 
			 "cosmo_repulsion_energy": 1.65, 
			 "cosmo_total_nonelectrostatic_energy": 9.59, 
			 "SMD_solvation_energy": 2.8 
		},
		"coords": [
			{
				"x": -0.6533070489,
				"y": -3.5062658116,
				"z": -2.0571788525,
				"element": "C" 
			},
			{
				"x": -0.5333590983,
				"y": -3.8199183585,
				"z": -0.6327137746,
				"element": "N" 
			},
			{
				"x": -1.1046512659,
				"y": -3.0960367319,
				"z": 0.3763121793,
				"element": "C" 
			},
			{
				"x": -1.6602312883,
				"y": -3.8335972709,
				"z": 1.7861799037,
				"element": "S" 
			},
			{
				"x": -1.203743066,
				"y": -1.7461604638,
				"z": 0.1809402734,
				"element": "N" 
			},
			{
				"x": -0.1978575686,
				"y": -0.918342012,
				"z": -0.5044398794,
				"element": "C" 
			},
			{
				"x": 0.1947769193,
				"y": 0.2845118298,
				"z": 0.3308356094,
				"element": "C" 
			},
			{
				"x": 0.1596988042,
				"y": 1.5709539171,
				"z": -0.2179479347,
				"element": "C" 
			},
			{
				"x": 0.5451640877,
				"y": 2.6787065063,
				"z": 0.5400345341,
				"element": "C" 
			},
			{
				"x": 0.96227364,
				"y": 2.5101341276,
				"z": 1.8605363656,
				"element": "C" 
			},
			{
				"x": 0.9936555813,
				"y": 1.2296356259,
				"z": 2.4191343399,
				"element": "C" 
			},
			{
				"x": 0.6143263075,
				"y": 0.1234544005,
				"z": 1.6598251909,
				"element": "C" 
			},
			{
				"x": 0.2442705993,
				"y": -3.0257035109,
				"z": -2.4618192542,
				"element": "H" 
			},
			{
				"x": -0.8157608483,
				"y": -4.4354673574,
				"z": -2.6087066735,
				"element": "H" 
			},
			{
				"x": -1.5105489555,
				"y": -2.850281299,
				"z": -2.2330430518,
				"element": "H" 
			},
			{
				"x": -0.4765819809,
				"y": -4.8003020636,
				"z": -0.3963581604,
				"element": "H" 
			},
			{
				"x": -1.6844716811,
				"y": -1.28791799,
				"z": 0.9438478174,
				"element": "H" 
			},
			{
				"x": 0.6820731785,
				"y": -1.5445553745,
				"z": -0.6884875687,
				"element": "H" 
			},
			{
				"x": -0.5653570042,
				"y": -0.5801873171,
				"z": -1.4811468463,
				"element": "H" 
			},
			{
				"x": -0.1729449086,
				"y": 1.7073400774,
				"z": -1.244123285,
				"element": "H" 
			},
			{
				"x": 0.5117052602,
				"y": 3.671533479,
				"z": 0.1006392084,
				"element": "H" 
			},
			{
				"x": 1.2579452537,
				"y": 3.3707941407,
				"z": 2.4534121939,
				"element": "H" 
			},
			{
				"x": 1.3153001182,
				"y": 1.0917440282,
				"z": 3.4473557129,
				"element": "H" 
			},
			{
				"x": 0.6367249647,
				"y": -0.8700725713,
				"z": 2.1005119523,
				"element": "H" 
			}
		],
		 "valence_orbital": [ 
			{
				"type": "occ",
				"energy": -0.26743,
				"method": "rhf"
			},
			{
				"type": "occ",
				"energy": -0.25892,
				"method": "rhf"
			},
			{
				"type": "occ",
				"energy": -0.25188,
				"method": "rhf"
			},
			{
				"type": "occ",
				"energy": -0.2107,
				"method": "rhf"
			},
			{
				"type": "occ",
				"energy": -0.19561,
				"method": "rhf"
			},
			{
				"type": "unocc",
				"energy": -0.01727,
				"method": "rhf"
			},
			{
				"type": "unocc",
				"energy": -0.0117,
				"method": "rhf"
			},
			{
				"type": "unocc",
				"energy": 0.00044,
				"method": "rhf"
			},
			{
				"type": "unocc",
				"energy": 0.06745,
				"method": "rhf"
			},
			{
				"type": "unocc",
				"energy": 0.08001,
				"method": "rhf"
			}
		],
		"cosmo_sigma_profile": { 
			"-0.025": 0.0,
			"-0.024": 0.0,
			"-0.023": 0.0,
			"-0.022": 0.0,
			"-0.021": 0.0,
			"-0.02": 0.0,
			"-0.019": 0.0,
			"-0.018": 0.0,
			"-0.017": 0.0,
			"-0.016": 0.0,
			"-0.015": 0.021684915824,
			"-0.014": 0.671415866175,
			"-0.013": 0.639767231625,
			"-0.012": 1.61805917938,
			"-0.011": 1.7416355488,
			"-0.01": 1.6254604688,
			"-0.009": 1.87841008761,
			"-0.008": 1.80911695041,
			"-0.007": 3.2450082271,
			"-0.006": 13.7426401034,
			"-0.005": 23.0001502127,
			"-0.004": 25.2165582108,
			"-0.003": 23.9341124515,
			"-0.002": 17.083485593,
			"-0.001": 13.1534350133,
			"0.0": 10.5214382673,
			"0.001": 9.37877090849,
			"0.002": 9.9117401706,
			"0.003": 10.6312906427,
			"0.004": 11.5051931793,
			"0.005": 13.4916950154,
			"0.006": 8.10162115901,
			"0.007": 2.6079983447,
			"0.008": 3.08400327049,
			"0.009": 4.46833172862,
			"0.01": 4.11092564812,
			"0.011": 7.09422566931,
			"0.012": 6.53711959781,
			"0.013": 2.63003782386,
			"0.014": 0.111730871836,
			"0.015": 0.0,
			"0.016": 0.0,
			"0.017": 0.0,
			"0.018": 0.0,
			"0.019": 0.0,
			"0.02": 0.0,
			"0.021": 0.0,
			"0.022": 0.0,
			"0.023": 0.0,
			"0.024": 0.0,
			"0.025": 0.0
		}
	}
}
