{
	 "smiles": "CC1=CC(=CC(Br)=C1N)[N+]([O-])=O", 
	 "Tm": 453.15, 
	 "num_atms": 19, 
	 "gaussian": { 
		 "optdone": 1, 
		 "sigma_profile": "yes", 
		 "theory": "DFT", 
		 "functional": "B3LYP", 
		 "basiset": "6-31G**", 
		 "properties": { 
			 "R2extent": 3530.6687, 
			 "electric_dipole_moment_norm": 6.68350252637, 
			 "electric_quadrupole_moment_norm": 6.44905946631, 
			 "total_energy": -3102.23371545, 
			 "HOMO_LUMO_gap": 0.1542, 
			 "cosmo_polarized_energy": -13.15, 
			 "cosmo_cavitation_energy": 25.67, 
			 "cosmo_dispersion_energy": -19.47, 
			 "cosmo_repulsion_energy": 1.54, 
			 "cosmo_total_nonelectrostatic_energy": 7.74, 
			 "SMD_solvation_energy": 5.51 
		},
		"coords": [
			{
				"x": 0.560208283,
				"y": 2.5019989462,
				"z": -1.2927062545,
				"element": "C" 
			},
			{
				"x": 0.3281674107,
				"y": 1.1147710748,
				"z": -0.7479775766,
				"element": "C" 
			},
			{
				"x": 0.5957845383,
				"y": 0.8140862758,
				"z": 0.5799927094,
				"element": "C" 
			},
			{
				"x": 0.366948988,
				"y": -0.4701064862,
				"z": 1.0772655271,
				"element": "C" 
			},
			{
				"x": -0.1333315142,
				"y": -1.4827753073,
				"z": 0.2619970852,
				"element": "C" 
			},
			{
				"x": -0.3991199434,
				"y": -1.1882474072,
				"z": -1.0632858537,
				"element": "C" 
			},
			{
				"x": -1.0773661887,
				"y": -2.5763321175,
				"z": -2.196340721,
				"element": "Br" 
			},
			{
				"x": -0.1832609775,
				"y": 0.1000043182,
				"z": -1.6061173266,
				"element": "C" 
			},
			{
				"x": -0.4897329875,
				"y": 0.3860105501,
				"z": -2.9096749304,
				"element": "N" 
			},
			{
				"x": 0.6554138709,
				"y": -0.762924407,
				"z": 2.4755190453,
				"element": "N" 
			},
			{
				"x": 0.4392043028,
				"y": -1.9075333469,
				"z": 2.8808286919,
				"element": "O" 
			},
			{
				"x": 1.1000944465,
				"y": 0.1520212412,
				"z": 3.1734390595,
				"element": "O" 
			},
			{
				"x": 0.9209445776,
				"y": 3.1711864844,
				"z": -0.5089993229,
				"element": "H" 
			},
			{
				"x": 1.3104092489,
				"y": 2.5068616297,
				"z": -2.095649374,
				"element": "H" 
			},
			{
				"x": -0.3617846264,
				"y": 2.9323433072,
				"z": -1.7033342442,
				"element": "H" 
			},
			{
				"x": 0.9840529286,
				"y": 1.5708611468,
				"z": 1.250820144,
				"element": "H" 
			},
			{
				"x": -0.3002336334,
				"y": -2.4710346315,
				"z": 0.6686976568,
				"element": "H" 
			},
			{
				"x": -0.0871473966,
				"y": 1.2060885453,
				"z": -3.3324942623,
				"element": "H" 
			},
			{
				"x": -0.6817513277,
				"y": -0.388579816,
				"z": -3.5274800532,
				"element": "H" 
			}
		],
		 "valence_orbital": [ 
			{
				"type": "occ",
				"energy": -0.29885,
				"method": "rhf"
			},
			{
				"type": "occ",
				"energy": -0.29721,
				"method": "rhf"
			},
			{
				"type": "occ",
				"energy": -0.28029,
				"method": "rhf"
			},
			{
				"type": "occ",
				"energy": -0.26256,
				"method": "rhf"
			},
			{
				"type": "occ",
				"energy": -0.23175,
				"method": "rhf"
			},
			{
				"type": "unocc",
				"energy": -0.07755,
				"method": "rhf"
			},
			{
				"type": "unocc",
				"energy": -0.02676,
				"method": "rhf"
			},
			{
				"type": "unocc",
				"energy": -0.00911,
				"method": "rhf"
			},
			{
				"type": "unocc",
				"energy": 0.01257,
				"method": "rhf"
			},
			{
				"type": "unocc",
				"energy": 0.05737,
				"method": "rhf"
			}
		],
		"cosmo_sigma_profile": { 
			"-0.025": 0.0,
			"-0.024": 0.0,
			"-0.023": 0.0,
			"-0.022": 0.0,
			"-0.021": 0.0,
			"-0.02": 0.0,
			"-0.019": 0.0,
			"-0.018": 0.0,
			"-0.017": 0.0,
			"-0.016": 0.0,
			"-0.015": 0.0238525274803,
			"-0.014": 0.809750035374,
			"-0.013": 1.5651857411,
			"-0.012": 2.41068254666,
			"-0.011": 2.02583763496,
			"-0.01": 2.4434928153,
			"-0.009": 2.58673319398,
			"-0.008": 2.49260868858,
			"-0.007": 4.87680160096,
			"-0.006": 5.95420969762,
			"-0.005": 11.4038252497,
			"-0.004": 11.3539989988,
			"-0.003": 13.201270529,
			"-0.002": 13.7490280334,
			"-0.001": 19.2700073225,
			"0.0": 20.3123380011,
			"0.001": 23.8050312484,
			"0.002": 14.1519835534,
			"0.003": 10.6858903621,
			"0.004": 9.40955738722,
			"0.005": 3.6667625069,
			"0.006": 3.87588865692,
			"0.007": 4.351972185,
			"0.008": 9.79529005906,
			"0.009": 6.96139392366,
			"0.01": 4.37624769991,
			"0.011": 2.45545239652,
			"0.012": 0.0182591323934,
			"0.013": 0.0,
			"0.014": 0.0,
			"0.015": 0.0,
			"0.016": 0.0,
			"0.017": 0.0,
			"0.018": 0.0,
			"0.019": 0.0,
			"0.02": 0.0,
			"0.021": 0.0,
			"0.022": 0.0,
			"0.023": 0.0,
			"0.024": 0.0,
			"0.025": 0.0
		}
	}
}
