{
	 "smiles": "O=S1(=O)CCNC(C1)C1=CC=CC=C1", 
	 "Tm": 398.15, 
	 "num_atms": 27, 
	 "gaussian": { 
		 "optdone": 1, 
		 "sigma_profile": "yes", 
		 "theory": "DFT", 
		 "functional": "B3LYP", 
		 "basiset": "6-31G**", 
		 "properties": { 
			 "R2extent": 3253.2898, 
			 "electric_dipole_moment_norm": 4.51044674617, 
			 "electric_quadrupole_moment_norm": 14.1183033612, 
			 "total_energy": -992.209336916, 
			 "HOMO_LUMO_gap": 0.22457, 
			 "cosmo_polarized_energy": -16.38, 
			 "cosmo_cavitation_energy": 29.29, 
			 "cosmo_dispersion_energy": -22.09, 
			 "cosmo_repulsion_energy": 1.66, 
			 "cosmo_total_nonelectrostatic_energy": 8.86, 
			 "SMD_solvation_energy": 2.11 
		},
		"coords": [
			{
				"x": 1.0552606284,
				"y": 2.9906709325,
				"z": -0.940681904,
				"element": "O" 
			},
			{
				"x": 1.7714923118,
				"y": 1.7064313985,
				"z": -0.8879424269,
				"element": "S" 
			},
			{
				"x": 3.1938206555,
				"y": 1.6213918997,
				"z": -1.274308279,
				"element": "O" 
			},
			{
				"x": 0.8747761981,
				"y": 0.4741689398,
				"z": -1.8577325999,
				"element": "C" 
			},
			{
				"x": 1.4845816525,
				"y": -0.9366914373,
				"z": -1.6538740511,
				"element": "C" 
			},
			{
				"x": 2.0984395737,
				"y": -1.1886086468,
				"z": -0.342939978,
				"element": "N" 
			},
			{
				"x": 1.4388891131,
				"y": -0.5372514374,
				"z": 0.79902462,
				"element": "C" 
			},
			{
				"x": 1.6310732231,
				"y": 1.0103912438,
				"z": 0.797533298,
				"element": "C" 
			},
			{
				"x": -0.0043742642,
				"y": -1.0346921434,
				"z": 0.9265424815,
				"element": "C" 
			},
			{
				"x": -0.204487248,
				"y": -2.4250535523,
				"z": 0.954245515,
				"element": "C" 
			},
			{
				"x": -1.4808166527,
				"y": -2.9629658983,
				"z": 1.0990662269,
				"element": "C" 
			},
			{
				"x": -2.5895867543,
				"y": -2.1200014287,
				"z": 1.2171717299,
				"element": "C" 
			},
			{
				"x": -2.405366812,
				"y": -0.7396791529,
				"z": 1.187065742,
				"element": "C" 
			},
			{
				"x": -1.1222778377,
				"y": -0.200816726,
				"z": 1.0433849307,
				"element": "C" 
			},
			{
				"x": 0.9356895778,
				"y": 0.8098436559,
				"z": -2.896319786,
				"element": "H" 
			},
			{
				"x": -0.1665137779,
				"y": 0.5298763231,
				"z": -1.5321802773,
				"element": "H" 
			},
			{
				"x": 2.2555057061,
				"y": -1.1143259314,
				"z": -2.4064157455,
				"element": "H" 
			},
			{
				"x": 0.6849309361,
				"y": -1.6656451572,
				"z": -1.8247876053,
				"element": "H" 
			},
			{
				"x": 3.0708284398,
				"y": -0.8937721984,
				"z": -0.3699878125,
				"element": "H" 
			},
			{
				"x": 1.9667436522,
				"y": -0.8964090079,
				"z": 1.6917133836,
				"element": "H" 
			},
			{
				"x": 2.5929036421,
				"y": 1.26854625,
				"z": 1.2482955055,
				"element": "H" 
			},
			{
				"x": 0.849590654,
				"y": 1.561566643,
				"z": 1.321270331,
				"element": "H" 
			},
			{
				"x": 0.6567066149,
				"y": -3.0780130332,
				"z": 0.8493243227,
				"element": "H" 
			},
			{
				"x": -1.6114309755,
				"y": -4.0412427366,
				"z": 1.1202966779,
				"element": "H" 
			},
			{
				"x": -3.5857946958,
				"y": -2.5373507204,
				"z": 1.3307223187,
				"element": "H" 
			},
			{
				"x": -3.2578976042,
				"y": -0.0723462108,
				"z": 1.274237603,
				"element": "H" 
			},
			{
				"x": -1.017585957,
				"y": 0.8791781327,
				"z": 1.0192757793,
				"element": "H" 
			}
		],
		 "valence_orbital": [ 
			{
				"type": "occ",
				"energy": -0.29192,
				"method": "rhf"
			},
			{
				"type": "occ",
				"energy": -0.27995,
				"method": "rhf"
			},
			{
				"type": "occ",
				"energy": -0.26187,
				"method": "rhf"
			},
			{
				"type": "occ",
				"energy": -0.25807,
				"method": "rhf"
			},
			{
				"type": "occ",
				"energy": -0.24342,
				"method": "rhf"
			},
			{
				"type": "unocc",
				"energy": -0.01885,
				"method": "rhf"
			},
			{
				"type": "unocc",
				"energy": -0.01387,
				"method": "rhf"
			},
			{
				"type": "unocc",
				"energy": 0.05771,
				"method": "rhf"
			},
			{
				"type": "unocc",
				"energy": 0.06462,
				"method": "rhf"
			},
			{
				"type": "unocc",
				"energy": 0.07618,
				"method": "rhf"
			}
		],
		"cosmo_sigma_profile": { 
			"-0.025": 0.0,
			"-0.024": 0.0,
			"-0.023": 0.0,
			"-0.022": 0.0,
			"-0.021": 0.0,
			"-0.02": 0.0,
			"-0.019": 0.0,
			"-0.018": 0.0,
			"-0.017": 0.0,
			"-0.016": 0.0,
			"-0.015": 0.0,
			"-0.014": 0.0,
			"-0.013": 0.0,
			"-0.012": 0.0,
			"-0.011": 0.0592970681461,
			"-0.01": 1.13791604546,
			"-0.009": 3.46463812296,
			"-0.008": 8.76568032451,
			"-0.007": 10.3319125182,
			"-0.006": 16.7691402536,
			"-0.005": 23.247080101,
			"-0.004": 23.6053384385,
			"-0.003": 16.2078626905,
			"-0.002": 13.6993038985,
			"-0.001": 11.2948618145,
			"0.0": 10.4565134275,
			"0.001": 8.36011757329,
			"0.002": 10.8097142583,
			"0.003": 9.41817361749,
			"0.004": 9.75631697459,
			"0.005": 10.2015432976,
			"0.006": 7.22457928797,
			"0.007": 2.3432952362,
			"0.008": 2.29507280525,
			"0.009": 3.30639526908,
			"0.01": 5.37669542826,
			"0.011": 7.66970339881,
			"0.012": 10.9229836435,
			"0.013": 4.37280503317,
			"0.014": 0.115855834992,
			"0.015": 0.0,
			"0.016": 0.0,
			"0.017": 0.0,
			"0.018": 0.0,
			"0.019": 0.0,
			"0.02": 0.0,
			"0.021": 0.0,
			"0.022": 0.0,
			"0.023": 0.0,
			"0.024": 0.0,
			"0.025": 0.0
		}
	}
}
