{
	 "smiles": "OC(=O)CCC(NC(=O)NC1=CC=C(C=C1)C#N)C(O)=O", 
	 "Tm": 443.15, 
	 "num_atms": 34, 
	 "gaussian": { 
		 "optdone": 1, 
		 "sigma_profile": "yes", 
		 "theory": "DFT", 
		 "functional": "B3LYP", 
		 "basiset": "6-31G**", 
		 "properties": { 
			 "R2extent": 10352.0059, 
			 "electric_dipole_moment_norm": 8.76067303864, 
			 "electric_quadrupole_moment_norm": 25.8212103115, 
			 "total_energy": -1043.64184456, 
			 "HOMO_LUMO_gap": 0.18764, 
			 "cosmo_polarized_energy": -30.99, 
			 "cosmo_cavitation_energy": 39.76, 
			 "cosmo_dispersion_energy": -28.14, 
			 "cosmo_repulsion_energy": 2.14, 
			 "cosmo_total_nonelectrostatic_energy": 13.75, 
			 "SMD_solvation_energy": 9.77 
		},
		"coords": [
			{
				"x": 3.7770914668,
				"y": 1.3236155009,
				"z": 2.596824757,
				"element": "O" 
			},
			{
				"x": 2.7260816745,
				"y": 1.4058821472,
				"z": 1.757606655,
				"element": "C" 
			},
			{
				"x": 2.3097436756,
				"y": 0.383584494,
				"z": 1.2445515938,
				"element": "O" 
			},
			{
				"x": 2.153441564,
				"y": 2.7963932688,
				"z": 1.5503869684,
				"element": "C" 
			},
			{
				"x": 1.1910591041,
				"y": 2.9713100908,
				"z": 0.3594838584,
				"element": "C" 
			},
			{
				"x": -0.2643652195,
				"y": 2.5080882369,
				"z": 0.538271567,
				"element": "C" 
			},
			{
				"x": -0.3392366586,
				"y": 1.0509878791,
				"z": 0.6690895087,
				"element": "N" 
			},
			{
				"x": -1.4664969701,
				"y": 0.3612121188,
				"z": 0.3529211392,
				"element": "C" 
			},
			{
				"x": -2.5603406009,
				"y": 0.9249143732,
				"z": 0.1687598947,
				"element": "O" 
			},
			{
				"x": -1.2907767108,
				"y": -1.0061577684,
				"z": 0.260977628,
				"element": "N" 
			},
			{
				"x": -2.2574224782,
				"y": -2.0053584667,
				"z": 0.0649395467,
				"element": "C" 
			},
			{
				"x": -3.6241514528,
				"y": -1.7427361621,
				"z": -0.1323785901,
				"element": "C" 
			},
			{
				"x": -4.506385781,
				"y": -2.8003844018,
				"z": -0.3180229673,
				"element": "C" 
			},
			{
				"x": -4.0564474313,
				"y": -4.1310673858,
				"z": -0.3161175985,
				"element": "C" 
			},
			{
				"x": -2.6886299271,
				"y": -4.388011222,
				"z": -0.1210700115,
				"element": "C" 
			},
			{
				"x": -1.8041519172,
				"y": -3.3372656416,
				"z": 0.0671994747,
				"element": "C" 
			},
			{
				"x": -4.9755699535,
				"y": -5.2112373029,
				"z": -0.5117567407,
				"element": "C" 
			},
			{
				"x": -5.7208590848,
				"y": -6.0908246997,
				"z": -0.6711266531,
				"element": "N" 
			},
			{
				"x": -0.9779950133,
				"y": 3.2457126325,
				"z": 1.703449327,
				"element": "C" 
			},
			{
				"x": -2.2597513737,
				"y": 2.9333525035,
				"z": 1.8721010467,
				"element": "O" 
			},
			{
				"x": -0.4189618111,
				"y": 4.0748838494,
				"z": 2.3926301236,
				"element": "O" 
			},
			{
				"x": 4.0087902456,
				"y": 2.1983453533,
				"z": 2.9414668808,
				"element": "H" 
			},
			{
				"x": 2.9989243115,
				"y": 3.4837604179,
				"z": 1.416289863,
				"element": "H" 
			},
			{
				"x": 1.6511291981,
				"y": 3.1148785316,
				"z": 2.4714896649,
				"element": "H" 
			},
			{
				"x": 1.1486905135,
				"y": 4.0414494675,
				"z": 0.1426792049,
				"element": "H" 
			},
			{
				"x": 1.6041237153,
				"y": 2.4783825978,
				"z": -0.5269854095,
				"element": "H" 
			},
			{
				"x": -0.8149692924,
				"y": 2.7884627017,
				"z": -0.3709849609,
				"element": "H" 
			},
			{
				"x": 0.5533497982,
				"y": 0.5788151552,
				"z": 0.819349439,
				"element": "H" 
			},
			{
				"x": -0.3446383398,
				"y": -1.3432756223,
				"z": 0.3755390318,
				"element": "H" 
			},
			{
				"x": -3.9758132817,
				"y": -0.7216044005,
				"z": -0.1407763254,
				"element": "H" 
			},
			{
				"x": -5.5608332238,
				"y": -2.5946365764,
				"z": -0.4692327978,
				"element": "H" 
			},
			{
				"x": -2.3270681453,
				"y": -5.4106281724,
				"z": -0.1169652659,
				"element": "H" 
			},
			{
				"x": -0.748513305,
				"y": -3.5478198067,
				"z": 0.2199533672,
				"element": "H" 
			},
			{
				"x": -2.5408472953,
				"y": 2.244976309,
				"z": 1.21035678,
				"element": "H" 
			}
		],
		 "valence_orbital": [ 
			{
				"type": "occ",
				"energy": -0.30639,
				"method": "rhf"
			},
			{
				"type": "occ",
				"energy": -0.29413,
				"method": "rhf"
			},
			{
				"type": "occ",
				"energy": -0.27736,
				"method": "rhf"
			},
			{
				"type": "occ",
				"energy": -0.26442,
				"method": "rhf"
			},
			{
				"type": "occ",
				"energy": -0.23702,
				"method": "rhf"
			},
			{
				"type": "unocc",
				"energy": -0.04938,
				"method": "rhf"
			},
			{
				"type": "unocc",
				"energy": -0.02748,
				"method": "rhf"
			},
			{
				"type": "unocc",
				"energy": -0.02538,
				"method": "rhf"
			},
			{
				"type": "unocc",
				"energy": 0.00133,
				"method": "rhf"
			},
			{
				"type": "unocc",
				"energy": 0.02527,
				"method": "rhf"
			}
		],
		"cosmo_sigma_profile": { 
			"-0.025": 0.0,
			"-0.024": 0.0,
			"-0.023": 0.0,
			"-0.022": 0.0,
			"-0.021": 0.0,
			"-0.02": 0.255700527194,
			"-0.019": 1.38103587542,
			"-0.018": 0.775303216791,
			"-0.017": 1.37266006413,
			"-0.016": 1.36111304335,
			"-0.015": 2.56228654935,
			"-0.014": 2.87547833154,
			"-0.013": 2.60034297782,
			"-0.012": 3.39382476017,
			"-0.011": 2.80643725702,
			"-0.01": 2.01555635139,
			"-0.009": 4.42442601891,
			"-0.008": 8.58943624799,
			"-0.007": 14.5639472381,
			"-0.006": 16.4432156794,
			"-0.005": 18.7730770983,
			"-0.004": 17.3823028095,
			"-0.003": 17.1181689604,
			"-0.002": 19.2892243834,
			"-0.001": 18.4136659168,
			"0.0": 17.9148868806,
			"0.001": 19.188607127,
			"0.002": 21.2801494591,
			"0.003": 13.9681381031,
			"0.004": 7.69146840261,
			"0.005": 7.92589350205,
			"0.006": 8.83006902743,
			"0.007": 8.14379045925,
			"0.008": 8.99139371901,
			"0.009": 11.5038000849,
			"0.01": 11.858431705,
			"0.011": 11.4079064428,
			"0.012": 8.02066793006,
			"0.013": 4.37510328657,
			"0.014": 0.710132392613,
			"0.015": 0.0,
			"0.016": 0.0,
			"0.017": 0.0,
			"0.018": 0.0,
			"0.019": 0.0,
			"0.02": 0.0,
			"0.021": 0.0,
			"0.022": 0.0,
			"0.023": 0.0,
			"0.024": 0.0,
			"0.025": 0.0
		}
	}
}
