{
	 "smiles": "CCCCCC#CCCCC", 
	 "Tm": 199.05, 
	 "num_atms": 31, 
	 "gaussian": { 
		 "optdone": 1, 
		 "sigma_profile": "yes", 
		 "theory": "DFT", 
		 "functional": "B3LYP", 
		 "basiset": "6-31G**", 
		 "properties": { 
			 "R2extent": 3666.6738, 
			 "electric_dipole_moment_norm": 0.181110656782, 
			 "electric_quadrupole_moment_norm": 4.35950257484, 
			 "total_energy": -431.190524269, 
			 "HOMO_LUMO_gap": 0.2963, 
			 "cosmo_polarized_energy": -3.09, 
			 "cosmo_cavitation_energy": 32.9, 
			 "cosmo_dispersion_energy": -22.3, 
			 "cosmo_repulsion_energy": 1.88, 
			 "cosmo_total_nonelectrostatic_energy": 12.48, 
			 "SMD_solvation_energy": 5.18 
		},
		"coords": [
			{
				"x": -0.2898726749,
				"y": -2.85462242,
				"z": -1.2092793339,
				"element": "C" 
			},
			{
				"x": 0.898128996,
				"y": -2.2560183613,
				"z": -0.4481280227,
				"element": "C" 
			},
			{
				"x": 0.8337917183,
				"y": -2.4487672856,
				"z": 1.0771293873,
				"element": "C" 
			},
			{
				"x": -0.3463067233,
				"y": -1.7949983189,
				"z": 1.8173564285,
				"element": "C" 
			},
			{
				"x": -0.35389339,
				"y": -0.2466258044,
				"z": 1.8318379708,
				"element": "C" 
			},
			{
				"x": -0.8038435905,
				"y": 0.3982644718,
				"z": 0.5944703576,
				"element": "C" 
			},
			{
				"x": -1.2119502627,
				"y": 0.9498912638,
				"z": -0.403546175,
				"element": "C" 
			},
			{
				"x": -1.6784847963,
				"y": 1.6137355728,
				"z": -1.6226721438,
				"element": "C" 
			},
			{
				"x": -0.6658248909,
				"y": 1.5519848338,
				"z": -2.7854991444,
				"element": "C" 
			},
			{
				"x": -1.1706650655,
				"y": 2.2575963876,
				"z": -4.0493395353,
				"element": "C" 
			},
			{
				"x": -0.1708234151,
				"y": 2.1989750071,
				"z": -5.2085334992,
				"element": "C" 
			},
			{
				"x": -0.1468360303,
				"y": -2.7652498598,
				"z": -2.2916237765,
				"element": "H" 
			},
			{
				"x": -0.4153057218,
				"y": -3.9196977495,
				"z": -0.9793370298,
				"element": "H" 
			},
			{
				"x": -1.2249513732,
				"y": -2.3437335137,
				"z": -0.9602899235,
				"element": "H" 
			},
			{
				"x": 1.8253906375,
				"y": -2.7218368494,
				"z": -0.8071580638,
				"element": "H" 
			},
			{
				"x": 0.9776512642,
				"y": -1.1893711734,
				"z": -0.6845421003,
				"element": "H" 
			},
			{
				"x": 0.8098495956,
				"y": -3.5265772093,
				"z": 1.2914105463,
				"element": "H" 
			},
			{
				"x": 1.7681483635,
				"y": -2.0759255398,
				"z": 1.5199690417,
				"element": "H" 
			},
			{
				"x": -0.3103877002,
				"y": -2.1276466316,
				"z": 2.8623600203,
				"element": "H" 
			},
			{
				"x": -1.3010892011,
				"y": -2.1532205827,
				"z": 1.4160394533,
				"element": "H" 
			},
			{
				"x": 0.6520048737,
				"y": 0.1142984386,
				"z": 2.0901198915,
				"element": "H" 
			},
			{
				"x": -1.0080185372,
				"y": 0.089405735,
				"z": 2.6478894818,
				"element": "H" 
			},
			{
				"x": -2.627181665,
				"y": 1.1623483737,
				"z": -1.9455636559,
				"element": "H" 
			},
			{
				"x": -1.9083301854,
				"y": 2.6653106163,
				"z": -1.3997617211,
				"element": "H" 
			},
			{
				"x": -0.444406161,
				"y": 0.5009255032,
				"z": -3.0095035458,
				"element": "H" 
			},
			{
				"x": 0.2794648488,
				"y": 2.003431754,
				"z": -2.4591580343,
				"element": "H" 
			},
			{
				"x": -1.3971266854,
				"y": 3.3064657843,
				"z": -3.8132324709,
				"element": "H" 
			},
			{
				"x": -2.1216393821,
				"y": 1.8049586326,
				"z": -4.3622186743,
				"element": "H" 
			},
			{
				"x": -0.5573291209,
				"y": 2.7102212407,
				"z": -6.0962110179,
				"element": "H" 
			},
			{
				"x": 0.7784126674,
				"y": 2.6747853654,
				"z": -4.9372941276,
				"element": "H" 
			},
			{
				"x": 0.048623608,
				"y": 1.1628923184,
				"z": -5.4902905832,
				"element": "H" 
			}
		],
		 "valence_orbital": [ 
			{
				"type": "occ",
				"energy": -0.31959,
				"method": "rhf"
			},
			{
				"type": "occ",
				"energy": -0.31388,
				"method": "rhf"
			},
			{
				"type": "occ",
				"energy": -0.31229,
				"method": "rhf"
			},
			{
				"type": "occ",
				"energy": -0.23902,
				"method": "rhf"
			},
			{
				"type": "occ",
				"energy": -0.23667,
				"method": "rhf"
			},
			{
				"type": "unocc",
				"energy": 0.05963,
				"method": "rhf"
			},
			{
				"type": "unocc",
				"energy": 0.06451,
				"method": "rhf"
			},
			{
				"type": "unocc",
				"energy": 0.08723,
				"method": "rhf"
			},
			{
				"type": "unocc",
				"energy": 0.10233,
				"method": "rhf"
			},
			{
				"type": "unocc",
				"energy": 0.11803,
				"method": "rhf"
			}
		],
		"cosmo_sigma_profile": { 
			"-0.025": 0.0,
			"-0.024": 0.0,
			"-0.023": 0.0,
			"-0.022": 0.0,
			"-0.021": 0.0,
			"-0.02": 0.0,
			"-0.019": 0.0,
			"-0.018": 0.0,
			"-0.017": 0.0,
			"-0.016": 0.0,
			"-0.015": 0.0,
			"-0.014": 0.0,
			"-0.013": 0.0,
			"-0.012": 0.0,
			"-0.011": 0.0,
			"-0.01": 0.0,
			"-0.009": 0.0,
			"-0.008": 0.0,
			"-0.007": 0.0,
			"-0.006": 0.0,
			"-0.005": 1.88264286378,
			"-0.004": 8.18855770053,
			"-0.003": 18.2884412001,
			"-0.002": 42.1490384783,
			"-0.001": 46.7743137143,
			"0.0": 46.1879807554,
			"0.001": 41.9160929666,
			"0.002": 20.2669502466,
			"0.003": 7.22265334694,
			"0.004": 5.4881377858,
			"0.005": 5.07091626585,
			"0.006": 3.12160764661,
			"0.007": 4.30528853599,
			"0.008": 3.60263129401,
			"0.009": 0.00237485320373,
			"0.01": 0.0,
			"0.011": 0.0,
			"0.012": 0.0,
			"0.013": 0.0,
			"0.014": 0.0,
			"0.015": 0.0,
			"0.016": 0.0,
			"0.017": 0.0,
			"0.018": 0.0,
			"0.019": 0.0,
			"0.02": 0.0,
			"0.021": 0.0,
			"0.022": 0.0,
			"0.023": 0.0,
			"0.024": 0.0,
			"0.025": 0.0
		}
	}
}
