{
	 "smiles": "COC1=C(C=C)C=CC=C1", 
	 "Tm": 302.15, 
	 "num_atms": 20, 
	 "gaussian": { 
		 "optdone": 1, 
		 "sigma_profile": "yes", 
		 "theory": "DFT", 
		 "functional": "B3LYP", 
		 "basiset": "6-31G**", 
		 "properties": { 
			 "R2extent": 1502.0731, 
			 "electric_dipole_moment_norm": 1.29604426622, 
			 "electric_quadrupole_moment_norm": 7.70847038588, 
			 "total_energy": -424.172491186, 
			 "HOMO_LUMO_gap": 0.19097, 
			 "cosmo_polarized_energy": -5.24, 
			 "cosmo_cavitation_energy": 23.58, 
			 "cosmo_dispersion_energy": -16.93, 
			 "cosmo_repulsion_energy": 1.37, 
			 "cosmo_total_nonelectrostatic_energy": 8.02, 
			 "SMD_solvation_energy": 5.41 
		},
		"coords": [
			{
				"x": 1.98507656,
				"y": 0.5088353799,
				"z": -1.6154389488,
				"element": "C" 
			},
			{
				"x": 1.390490242,
				"y": -0.6666347449,
				"z": -1.0664731741,
				"element": "O" 
			},
			{
				"x": 0.1794196171,
				"y": -0.4521446518,
				"z": -0.4348388956,
				"element": "C" 
			},
			{
				"x": 0.1467120933,
				"y": -0.197863574,
				"z": 0.9525406995,
				"element": "C" 
			},
			{
				"x": 1.4056020559,
				"y": -0.1465149515,
				"z": 1.7134186979,
				"element": "C" 
			},
			{
				"x": 1.5818766941,
				"y": 0.4022954355,
				"z": 2.9220535595,
				"element": "C" 
			},
			{
				"x": -1.1153059676,
				"y": -0.0342033146,
				"z": 1.5519784698,
				"element": "C" 
			},
			{
				"x": -2.2888704462,
				"y": -0.0988215936,
				"z": 0.806636382,
				"element": "C" 
			},
			{
				"x": -2.2317482427,
				"y": -0.3478173895,
				"z": -0.567740787,
				"element": "C" 
			},
			{
				"x": -0.9953081437,
				"y": -0.526047343,
				"z": -1.185584329,
				"element": "C" 
			},
			{
				"x": 2.9133933607,
				"y": 0.1940037758,
				"z": -2.0970364449,
				"element": "H" 
			},
			{
				"x": 2.2124038155,
				"y": 1.2447940913,
				"z": -0.833260823,
				"element": "H" 
			},
			{
				"x": 1.329566932,
				"y": 0.9761221373,
				"z": -2.3619412808,
				"element": "H" 
			},
			{
				"x": 2.2563900503,
				"y": -0.6015739856,
				"z": 1.2123464086,
				"element": "H" 
			},
			{
				"x": 2.5502266373,
				"y": 0.3743201432,
				"z": 3.411292424,
				"element": "H" 
			},
			{
				"x": 0.7823589017,
				"y": 0.9021976436,
				"z": 3.4618650913,
				"element": "H" 
			},
			{
				"x": -1.1710373022,
				"y": 0.1246255166,
				"z": 2.6247757872,
				"element": "H" 
			},
			{
				"x": -3.2487822279,
				"y": 0.0272769778,
				"z": 1.2987161596,
				"element": "H" 
			},
			{
				"x": -3.1448976511,
				"y": -0.412707683,
				"z": -1.1521746943,
				"element": "H" 
			},
			{
				"x": -0.9204669787,
				"y": -0.7359418695,
				"z": -2.248234302,
				"element": "H" 
			}
		],
		 "valence_orbital": [ 
			{
				"type": "occ",
				"energy": -0.33212,
				"method": "rhf"
			},
			{
				"type": "occ",
				"energy": -0.29477,
				"method": "rhf"
			},
			{
				"type": "occ",
				"energy": -0.2694,
				"method": "rhf"
			},
			{
				"type": "occ",
				"energy": -0.24276,
				"method": "rhf"
			},
			{
				"type": "occ",
				"energy": -0.22088,
				"method": "rhf"
			},
			{
				"type": "unocc",
				"energy": -0.02991,
				"method": "rhf"
			},
			{
				"type": "unocc",
				"energy": 0.00298,
				"method": "rhf"
			},
			{
				"type": "unocc",
				"energy": 0.05515,
				"method": "rhf"
			},
			{
				"type": "unocc",
				"energy": 0.096,
				"method": "rhf"
			},
			{
				"type": "unocc",
				"energy": 0.11015,
				"method": "rhf"
			}
		],
		"cosmo_sigma_profile": { 
			"-0.025": 0.0,
			"-0.024": 0.0,
			"-0.023": 0.0,
			"-0.022": 0.0,
			"-0.021": 0.0,
			"-0.02": 0.0,
			"-0.019": 0.0,
			"-0.018": 0.0,
			"-0.017": 0.0,
			"-0.016": 0.0,
			"-0.015": 0.0,
			"-0.014": 0.0,
			"-0.013": 0.0,
			"-0.012": 0.0,
			"-0.011": 0.0,
			"-0.01": 0.0,
			"-0.009": 0.0,
			"-0.008": 0.0,
			"-0.007": 0.192157133008,
			"-0.006": 7.14191579421,
			"-0.005": 14.5778837077,
			"-0.004": 18.4742053569,
			"-0.003": 22.7916030021,
			"-0.002": 18.3518910385,
			"-0.001": 15.7586828391,
			"0.0": 12.2815743131,
			"0.001": 10.4917128359,
			"0.002": 11.3819342257,
			"0.003": 13.4513176089,
			"0.004": 15.5571968175,
			"0.005": 14.0444565243,
			"0.006": 6.27548923908,
			"0.007": 1.69908077673,
			"0.008": 0.702139253787,
			"0.009": 1.12357472772,
			"0.01": 1.39607688775,
			"0.011": 1.10167269047,
			"0.012": 1.02573845473,
			"0.013": 0.0422712158443,
			"0.014": 0.0,
			"0.015": 0.0,
			"0.016": 0.0,
			"0.017": 0.0,
			"0.018": 0.0,
			"0.019": 0.0,
			"0.02": 0.0,
			"0.021": 0.0,
			"0.022": 0.0,
			"0.023": 0.0,
			"0.024": 0.0,
			"0.025": 0.0
		}
	}
}
