{
	 "smiles": "COCCNC(=O)C1=CN=C(Cl)C=C1", 
	 "Tm": 386.15, 
	 "num_atms": 25, 
	 "gaussian": { 
		 "optdone": 1, 
		 "sigma_profile": "yes", 
		 "theory": "DFT", 
		 "functional": "B3LYP", 
		 "basiset": "6-31G**", 
		 "properties": { 
			 "R2extent": 5863.5025, 
			 "electric_dipole_moment_norm": 4.54325674929, 
			 "electric_quadrupole_moment_norm": 13.9830819385, 
			 "total_energy": -1069.72245447, 
			 "HOMO_LUMO_gap": 0.19808, 
			 "cosmo_polarized_energy": -13.94, 
			 "cosmo_cavitation_energy": 31.31, 
			 "cosmo_dispersion_energy": -22.74, 
			 "cosmo_repulsion_energy": 1.84, 
			 "cosmo_total_nonelectrostatic_energy": 10.4, 
			 "SMD_solvation_energy": 4.14 
		},
		"coords": [
			{
				"x": -0.4511162714,
				"y": -3.5161642823,
				"z": -2.2270035532,
				"element": "C" 
			},
			{
				"x": -0.8523443507,
				"y": -2.2997765147,
				"z": -1.6264434448,
				"element": "O" 
			},
			{
				"x": -0.107848976,
				"y": -1.9752923039,
				"z": -0.4680077198,
				"element": "C" 
			},
			{
				"x": -0.5760308912,
				"y": -0.6030076735,
				"z": 0.0062549808,
				"element": "C" 
			},
			{
				"x": -0.4068695756,
				"y": 0.3869639589,
				"z": -1.0508990605,
				"element": "N" 
			},
			{
				"x": 0.3609866935,
				"y": 1.5215977889,
				"z": -1.0629403701,
				"element": "C" 
			},
			{
				"x": 0.7504549819,
				"y": 2.0220468373,
				"z": -2.1146100389,
				"element": "O" 
			},
			{
				"x": 0.6862108778,
				"y": 2.1876562413,
				"z": 0.2457951181,
				"element": "C" 
			},
			{
				"x": -0.1912521609,
				"y": 2.2592174634,
				"z": 1.3317995413,
				"element": "C" 
			},
			{
				"x": 0.0783419087,
				"y": 2.926672261,
				"z": 2.4633525052,
				"element": "N" 
			},
			{
				"x": 1.2422602867,
				"y": 3.5445299593,
				"z": 2.5379813904,
				"element": "C" 
			},
			{
				"x": 1.5929063584,
				"y": 4.3915225565,
				"z": 4.0408253576,
				"element": "Cl" 
			},
			{
				"x": 2.196269247,
				"y": 3.5769910925,
				"z": 1.5139176449,
				"element": "C" 
			},
			{
				"x": 1.8949234989,
				"y": 2.8923908834,
				"z": 0.3453531506,
				"element": "C" 
			},
			{
				"x": -1.0780317067,
				"y": -3.6634091455,
				"z": -3.1090612961,
				"element": "H" 
			},
			{
				"x": 0.6041165048,
				"y": -3.48684096,
				"z": -2.5383707488,
				"element": "H" 
			},
			{
				"x": -0.5887195245,
				"y": -4.3690384893,
				"z": -1.545182818,
				"element": "H" 
			},
			{
				"x": 0.9709131751,
				"y": -1.9499373846,
				"z": -0.6947554359,
				"element": "H" 
			},
			{
				"x": -0.2702717771,
				"y": -2.7204792773,
				"z": 0.3283616106,
				"element": "H" 
			},
			{
				"x": 0.0012878863,
				"y": -0.3123340271,
				"z": 0.8857833831,
				"element": "H" 
			},
			{
				"x": -1.6309067734,
				"y": -0.6718321393,
				"z": 0.3021429405,
				"element": "H" 
			},
			{
				"x": -0.6018442415,
				"y": 0.0360239061,
				"z": -1.9823129246,
				"element": "H" 
			},
			{
				"x": -1.1686509165,
				"y": 1.7850734923,
				"z": 1.2902112257,
				"element": "H" 
			},
			{
				"x": 3.1227896936,
				"y": 4.1248764579,
				"z": 1.6363015443,
				"element": "H" 
			},
			{
				"x": 2.5717260528,
				"y": 2.8980492989,
				"z": -0.5026929824,
				"element": "H" 
			}
		],
		 "valence_orbital": [ 
			{
				"type": "occ",
				"energy": -0.28663,
				"method": "rhf"
			},
			{
				"type": "occ",
				"energy": -0.27663,
				"method": "rhf"
			},
			{
				"type": "occ",
				"energy": -0.26735,
				"method": "rhf"
			},
			{
				"type": "occ",
				"energy": -0.26102,
				"method": "rhf"
			},
			{
				"type": "occ",
				"energy": -0.24922,
				"method": "rhf"
			},
			{
				"type": "unocc",
				"energy": -0.05114,
				"method": "rhf"
			},
			{
				"type": "unocc",
				"energy": -0.04054,
				"method": "rhf"
			},
			{
				"type": "unocc",
				"energy": 0.03018,
				"method": "rhf"
			},
			{
				"type": "unocc",
				"energy": 0.03934,
				"method": "rhf"
			},
			{
				"type": "unocc",
				"energy": 0.07583,
				"method": "rhf"
			}
		],
		"cosmo_sigma_profile": { 
			"-0.025": 0.0,
			"-0.024": 0.0,
			"-0.023": 0.0,
			"-0.022": 0.0,
			"-0.021": 0.0,
			"-0.02": 0.0,
			"-0.019": 0.0,
			"-0.018": 0.0,
			"-0.017": 0.0,
			"-0.016": 0.0,
			"-0.015": 0.0,
			"-0.014": 0.0,
			"-0.013": 0.0,
			"-0.012": 0.0,
			"-0.011": 0.174837766152,
			"-0.01": 0.485093750665,
			"-0.009": 0.908459776899,
			"-0.008": 4.0763801504,
			"-0.007": 7.96159427806,
			"-0.006": 10.4313940586,
			"-0.005": 18.1975022189,
			"-0.004": 27.8163954919,
			"-0.003": 24.7965645844,
			"-0.002": 24.5826350346,
			"-0.001": 22.8340385496,
			"0.0": 16.649982545,
			"0.001": 13.4748787831,
			"0.002": 11.9738970519,
			"0.003": 11.0244381361,
			"0.004": 13.2860964433,
			"0.005": 6.95956596084,
			"0.006": 4.84524754259,
			"0.007": 4.2362674584,
			"0.008": 3.56077217988,
			"0.009": 2.84154965027,
			"0.01": 3.11878141236,
			"0.011": 3.36743400258,
			"0.012": 3.68289957819,
			"0.013": 5.95362727515,
			"0.014": 3.53120276032,
			"0.015": 0.0935390850842,
			"0.016": 0.0,
			"0.017": 0.0,
			"0.018": 0.0,
			"0.019": 0.0,
			"0.02": 0.0,
			"0.021": 0.0,
			"0.022": 0.0,
			"0.023": 0.0,
			"0.024": 0.0,
			"0.025": 0.0
		}
	}
}
