{
	 "smiles": "N#CSCSC#N", 
	 "Tm": 379.15, 
	 "num_atms": 9, 
	 "gaussian": { 
		 "optdone": 1, 
		 "sigma_profile": "yes", 
		 "theory": "DFT", 
		 "functional": "B3LYP", 
		 "basiset": "6-31G**", 
		 "properties": { 
			 "R2extent": 1662.4463, 
			 "electric_dipole_moment_norm": 3.45797382726, 
			 "electric_quadrupole_moment_norm": 17.646031848, 
			 "total_energy": -1021.3270943, 
			 "HOMO_LUMO_gap": 0.21447, 
			 "cosmo_polarized_energy": -13.57, 
			 "cosmo_cavitation_energy": 19.33, 
			 "cosmo_dispersion_energy": -13.89, 
			 "cosmo_repulsion_energy": 1.1, 
			 "cosmo_total_nonelectrostatic_energy": 6.54, 
			 "SMD_solvation_energy": 6.93 
		},
		"coords": [
			{
				"x": -0.1414124174,
				"y": -0.2113637565,
				"z": -4.1446770985,
				"element": "N" 
			},
			{
				"x": 0.452648557,
				"y": -0.7577135177,
				"z": -3.3039443191,
				"element": "C" 
			},
			{
				"x": 1.3631643732,
				"y": -1.5989414877,
				"z": -2.135260209,
				"element": "S" 
			},
			{
				"x": 0.4909231083,
				"y": -1.0877418146,
				"z": -0.6113132241,
				"element": "C" 
			},
			{
				"x": 0.9635701355,
				"y": 0.6422691434,
				"z": -0.1278943311,
				"element": "S" 
			},
			{
				"x": -0.0511477977,
				"y": 0.7960682446,
				"z": 1.2291716687,
				"element": "C" 
			},
			{
				"x": -0.7386633242,
				"y": 0.9164528804,
				"z": 2.1636130141,
				"element": "N" 
			},
			{
				"x": 0.8211284083,
				"y": -1.7878592831,
				"z": 0.1578514205,
				"element": "H" 
			},
			{
				"x": -0.588011043,
				"y": -1.1563704086,
				"z": -0.7461469215,
				"element": "H" 
			}
		],
		 "valence_orbital": [ 
			{
				"type": "occ",
				"energy": -0.38169,
				"method": "rhf"
			},
			{
				"type": "occ",
				"energy": -0.36147,
				"method": "rhf"
			},
			{
				"type": "occ",
				"energy": -0.35008,
				"method": "rhf"
			},
			{
				"type": "occ",
				"energy": -0.29694,
				"method": "rhf"
			},
			{
				"type": "occ",
				"energy": -0.2876,
				"method": "rhf"
			},
			{
				"type": "unocc",
				"energy": -0.07313,
				"method": "rhf"
			},
			{
				"type": "unocc",
				"energy": -0.03874,
				"method": "rhf"
			},
			{
				"type": "unocc",
				"energy": -0.00068,
				"method": "rhf"
			},
			{
				"type": "unocc",
				"energy": 0.00936,
				"method": "rhf"
			},
			{
				"type": "unocc",
				"energy": 0.01192,
				"method": "rhf"
			}
		],
		"cosmo_sigma_profile": { 
			"-0.025": 0.0,
			"-0.024": 0.0,
			"-0.023": 0.0,
			"-0.022": 0.0,
			"-0.021": 0.0,
			"-0.02": 0.0,
			"-0.019": 0.0,
			"-0.018": 0.0,
			"-0.017": 0.0,
			"-0.016": 0.0,
			"-0.015": 0.0,
			"-0.014": 0.0,
			"-0.013": 0.881674073174,
			"-0.012": 3.56250871986,
			"-0.011": 5.09154102877,
			"-0.01": 4.69362268736,
			"-0.009": 3.89789797002,
			"-0.008": 4.57281734017,
			"-0.007": 4.61880749882,
			"-0.006": 5.27711767114,
			"-0.005": 6.79919908106,
			"-0.004": 7.71097985083,
			"-0.003": 9.09040368708,
			"-0.002": 10.9505356276,
			"-0.001": 12.8548031814,
			"0.0": 10.786887794,
			"0.001": 9.38119286649,
			"0.002": 7.37824272096,
			"0.003": 6.77346861452,
			"0.004": 4.35968141317,
			"0.005": 5.27406819481,
			"0.006": 6.19695432088,
			"0.007": 6.03436241876,
			"0.008": 7.07015008304,
			"0.009": 5.75206940225,
			"0.01": 5.65731317865,
			"0.011": 4.77405360423,
			"0.012": 2.40756884948,
			"0.013": 0.0322233865705,
			"0.014": 0.0,
			"0.015": 0.0,
			"0.016": 0.0,
			"0.017": 0.0,
			"0.018": 0.0,
			"0.019": 0.0,
			"0.02": 0.0,
			"0.021": 0.0,
			"0.022": 0.0,
			"0.023": 0.0,
			"0.024": 0.0,
			"0.025": 0.0
		}
	}
}
