{
	 "smiles": "NC(=O)C1=C(C=CC(Cl)=C1)[N+]([O-])=O", 
	 "Tm": 430.15, 
	 "num_atms": 18, 
	 "gaussian": { 
		 "optdone": 1, 
		 "sigma_profile": "yes", 
		 "theory": "DFT", 
		 "functional": "B3LYP", 
		 "basiset": "6-31G**", 
		 "properties": { 
			 "R2extent": 2897.0535, 
			 "electric_dipole_moment_norm": 4.26251167858, 
			 "electric_quadrupole_moment_norm": 13.1371171796, 
			 "total_energy": -1065.03050824, 
			 "HOMO_LUMO_gap": 0.16275, 
			 "cosmo_polarized_energy": -16.42, 
			 "cosmo_cavitation_energy": 25.91, 
			 "cosmo_dispersion_energy": -18.64, 
			 "cosmo_repulsion_energy": 1.5, 
			 "cosmo_total_nonelectrostatic_energy": 8.77, 
			 "SMD_solvation_energy": 6.97 
		},
		"coords": [
			{
				"x": -0.6598401813,
				"y": 1.3879980513,
				"z": -2.1357379729,
				"element": "N" 
			},
			{
				"x": 0.3343728325,
				"y": 1.246315504,
				"z": -1.2089171746,
				"element": "C" 
			},
			{
				"x": 1.3144305708,
				"y": 1.9648624951,
				"z": -1.1384325619,
				"element": "O" 
			},
			{
				"x": 0.2384571045,
				"y": -0.0085890215,
				"z": -0.3521658349,
				"element": "C" 
			},
			{
				"x": -0.1222677573,
				"y": -0.0132168214,
				"z": 1.0011517253,
				"element": "C" 
			},
			{
				"x": -0.0328054149,
				"y": -1.1622962049,
				"z": 1.7855709629,
				"element": "C" 
			},
			{
				"x": 0.4107244599,
				"y": -2.3511840181,
				"z": 1.2178961255,
				"element": "C" 
			},
			{
				"x": 0.7601885836,
				"y": -2.3629466539,
				"z": -0.1339440615,
				"element": "C" 
			},
			{
				"x": 1.3101617027,
				"y": -3.8524782381,
				"z": -0.8657478635,
				"element": "Cl" 
			},
			{
				"x": 0.6838125015,
				"y": -1.208411324,
				"z": -0.9140760257,
				"element": "C" 
			},
			{
				"x": -0.6627310158,
				"y": 1.2003405197,
				"z": 1.6307225457,
				"element": "N" 
			},
			{
				"x": -1.0573410429,
				"y": 2.0968532254,
				"z": 0.8847723857,
				"element": "O" 
			},
			{
				"x": -0.7107143456,
				"y": 1.2349215963,
				"z": 2.8581474022,
				"element": "O" 
			},
			{
				"x": -1.5591542191,
				"y": 0.9654555807,
				"z": -1.9576416471,
				"element": "H" 
			},
			{
				"x": -0.6661713951,
				"y": 2.2666407998,
				"z": -2.6370736813,
				"element": "H" 
			},
			{
				"x": -0.3192658576,
				"y": -1.108293395,
				"z": 2.8285074332,
				"element": "H" 
			},
			{
				"x": 0.4797073036,
				"y": -3.2564032686,
				"z": 1.8096200555,
				"element": "H" 
			},
			{
				"x": 0.9821361704,
				"y": -1.2370688269,
				"z": -1.9559518127,
				"element": "H" 
			}
		],
		 "valence_orbital": [ 
			{
				"type": "occ",
				"energy": -0.30443,
				"method": "rhf"
			},
			{
				"type": "occ",
				"energy": -0.30056,
				"method": "rhf"
			},
			{
				"type": "occ",
				"energy": -0.28815,
				"method": "rhf"
			},
			{
				"type": "occ",
				"energy": -0.28002,
				"method": "rhf"
			},
			{
				"type": "occ",
				"energy": -0.26399,
				"method": "rhf"
			},
			{
				"type": "unocc",
				"energy": -0.10124,
				"method": "rhf"
			},
			{
				"type": "unocc",
				"energy": -0.04765,
				"method": "rhf"
			},
			{
				"type": "unocc",
				"energy": -0.02038,
				"method": "rhf"
			},
			{
				"type": "unocc",
				"energy": 0.00196,
				"method": "rhf"
			},
			{
				"type": "unocc",
				"energy": 0.01701,
				"method": "rhf"
			}
		],
		"cosmo_sigma_profile": { 
			"-0.025": 0.0,
			"-0.024": 0.0,
			"-0.023": 0.0,
			"-0.022": 0.0,
			"-0.021": 0.0,
			"-0.02": 0.0,
			"-0.019": 0.0,
			"-0.018": 0.0,
			"-0.017": 0.0,
			"-0.016": 0.014582661759,
			"-0.015": 0.814113140454,
			"-0.014": 2.44486182724,
			"-0.013": 2.41830827802,
			"-0.012": 2.49287349638,
			"-0.011": 1.98029425204,
			"-0.01": 2.52320794343,
			"-0.009": 4.7430594687,
			"-0.008": 8.08274653985,
			"-0.007": 7.38471403254,
			"-0.006": 6.81115330464,
			"-0.005": 9.49287338889,
			"-0.004": 8.05994843442,
			"-0.003": 10.0817115476,
			"-0.002": 15.3817234608,
			"-0.001": 19.5053417426,
			"0.0": 16.806031396,
			"0.001": 10.7625429461,
			"0.002": 9.23892946253,
			"0.003": 14.198423631,
			"0.004": 8.54123800778,
			"0.005": 4.91977675192,
			"0.006": 6.43735138979,
			"0.007": 10.4641727497,
			"0.008": 7.28821832804,
			"0.009": 4.8799053097,
			"0.01": 2.39049453708,
			"0.011": 2.1625435507,
			"0.012": 4.92033561406,
			"0.013": 4.3237391847,
			"0.014": 0.420969100551,
			"0.015": 0.0,
			"0.016": 0.0,
			"0.017": 0.0,
			"0.018": 0.0,
			"0.019": 0.0,
			"0.02": 0.0,
			"0.021": 0.0,
			"0.022": 0.0,
			"0.023": 0.0,
			"0.024": 0.0,
			"0.025": 0.0
		}
	}
}
