{
	 "smiles": "CC(O)C1=C(NC(=O)C2=CC=CC=C2)C=CC=C1", 
	 "Tm": 385.15, 
	 "num_atms": 33, 
	 "gaussian": { 
		 "optdone": 1, 
		 "sigma_profile": "yes", 
		 "theory": "DFT", 
		 "functional": "B3LYP", 
		 "basiset": "6-31G**", 
		 "properties": { 
			 "R2extent": 5562.2776, 
			 "electric_dipole_moment_norm": 2.80432201432, 
			 "electric_quadrupole_moment_norm": 10.2816993109, 
			 "total_energy": -785.849324663, 
			 "HOMO_LUMO_gap": 0.18951, 
			 "cosmo_polarized_energy": -16.64, 
			 "cosmo_cavitation_energy": 36.26, 
			 "cosmo_dispersion_energy": -25.79, 
			 "cosmo_repulsion_energy": 2.0, 
			 "cosmo_total_nonelectrostatic_energy": 12.47, 
			 "SMD_solvation_energy": 6.64 
		},
		"coords": [
			{
				"x": 1.8921981182,
				"y": -1.581172516,
				"z": -1.4876537491,
				"element": "C" 
			},
			{
				"x": 1.0582533979,
				"y": -1.9507980736,
				"z": -0.2550335985,
				"element": "C" 
			},
			{
				"x": 1.3331600265,
				"y": -3.2951466031,
				"z": 0.1630971133,
				"element": "O" 
			},
			{
				"x": -0.433301053,
				"y": -1.877937445,
				"z": -0.5294490984,
				"element": "C" 
			},
			{
				"x": -1.2569118848,
				"y": -0.8482115115,
				"z": -0.0426651624,
				"element": "C" 
			},
			{
				"x": -0.7535409433,
				"y": 0.1984800291,
				"z": 0.7923078109,
				"element": "N" 
			},
			{
				"x": 0.088084467,
				"y": 1.2060756403,
				"z": 0.3647385117,
				"element": "C" 
			},
			{
				"x": 0.5741239957,
				"y": 1.2376658458,
				"z": -0.759663477,
				"element": "O" 
			},
			{
				"x": 0.376558978,
				"y": 2.2772059286,
				"z": 1.3801085423,
				"element": "C" 
			},
			{
				"x": 0.8169391194,
				"y": 3.5170513848,
				"z": 0.8970105751,
				"element": "C" 
			},
			{
				"x": 1.1002852356,
				"y": 4.5563913995,
				"z": 1.7796685687,
				"element": "C" 
			},
			{
				"x": 0.9619372887,
				"y": 4.3633602807,
				"z": 3.1569232513,
				"element": "C" 
			},
			{
				"x": 0.5447401821,
				"y": 3.1247503302,
				"z": 3.6475578624,
				"element": "C" 
			},
			{
				"x": 0.2526656866,
				"y": 2.0851031721,
				"z": 2.7640221539,
				"element": "C" 
			},
			{
				"x": -2.6336187235,
				"y": -0.8617855611,
				"z": -0.3055002124,
				"element": "C" 
			},
			{
				"x": -3.2067509596,
				"y": -1.8887673262,
				"z": -1.048992919,
				"element": "C" 
			},
			{
				"x": -2.3970640893,
				"y": -2.912641804,
				"z": -1.5440270403,
				"element": "C" 
			},
			{
				"x": -1.0298434412,
				"y": -2.8989087441,
				"z": -1.282114371,
				"element": "C" 
			},
			{
				"x": 2.9630882605,
				"y": -1.6373980947,
				"z": -1.252465871,
				"element": "H" 
			},
			{
				"x": 1.6830419234,
				"y": -2.2756232312,
				"z": -2.3076362238,
				"element": "H" 
			},
			{
				"x": 1.6664004673,
				"y": -0.5629016121,
				"z": -1.8082731856,
				"element": "H" 
			},
			{
				"x": 1.2994480763,
				"y": -1.2545151958,
				"z": 0.5594454823,
				"element": "H" 
			},
			{
				"x": 2.2935930005,
				"y": -3.3985195436,
				"z": 0.1693842516,
				"element": "H" 
			},
			{
				"x": -1.3144159516,
				"y": 0.4063784333,
				"z": 1.6064173645,
				"element": "H" 
			},
			{
				"x": 0.93016687,
				"y": 3.6395482979,
				"z": -0.1748186527,
				"element": "H" 
			},
			{
				"x": 1.4321579719,
				"y": 5.5166130508,
				"z": 1.3956381016,
				"element": "H" 
			},
			{
				"x": 1.1867871068,
				"y": 5.1726250508,
				"z": 3.8457160746,
				"element": "H" 
			},
			{
				"x": 0.4555639339,
				"y": 2.9640156468,
				"z": 4.7179692246,
				"element": "H" 
			},
			{
				"x": -0.0337476397,
				"y": 1.1153080374,
				"z": 3.1612139673,
				"element": "H" 
			},
			{
				"x": -3.2493296502,
				"y": -0.0514901209,
				"z": 0.0761489323,
				"element": "H" 
			},
			{
				"x": -4.2753297313,
				"y": -1.886109468,
				"z": -1.2427542686,
				"element": "H" 
			},
			{
				"x": -2.8305393773,
				"y": -3.722159001,
				"z": -2.1240295842,
				"element": "H" 
			},
			{
				"x": -0.3997006617,
				"y": -3.7101866763,
				"z": -1.6308903744,
				"element": "H" 
			}
		],
		 "valence_orbital": [ 
			{
				"type": "occ",
				"energy": -0.26257,
				"method": "rhf"
			},
			{
				"type": "occ",
				"energy": -0.26209,
				"method": "rhf"
			},
			{
				"type": "occ",
				"energy": -0.25269,
				"method": "rhf"
			},
			{
				"type": "occ",
				"energy": -0.24035,
				"method": "rhf"
			},
			{
				"type": "occ",
				"energy": -0.2315,
				"method": "rhf"
			},
			{
				"type": "unocc",
				"energy": -0.04199,
				"method": "rhf"
			},
			{
				"type": "unocc",
				"energy": -0.01283,
				"method": "rhf"
			},
			{
				"type": "unocc",
				"energy": -0.00158,
				"method": "rhf"
			},
			{
				"type": "unocc",
				"energy": 0.00182,
				"method": "rhf"
			},
			{
				"type": "unocc",
				"energy": 0.05658,
				"method": "rhf"
			}
		],
		"cosmo_sigma_profile": { 
			"-0.025": 0.0,
			"-0.024": 0.0,
			"-0.023": 0.0,
			"-0.022": 0.0,
			"-0.021": 0.0,
			"-0.02": 0.0,
			"-0.019": 0.0,
			"-0.018": 0.0,
			"-0.017": 0.0,
			"-0.016": 0.0,
			"-0.015": 0.94536109638,
			"-0.014": 1.59948834799,
			"-0.013": 2.14579973881,
			"-0.012": 2.11439286149,
			"-0.011": 2.48923740183,
			"-0.01": 2.61006050267,
			"-0.009": 2.43850180506,
			"-0.008": 2.67740347355,
			"-0.007": 5.30112419968,
			"-0.006": 14.5784023182,
			"-0.005": 17.7544545071,
			"-0.004": 23.1717025742,
			"-0.003": 21.1163388911,
			"-0.002": 19.0359605746,
			"-0.001": 18.3160334901,
			"0.0": 20.2798011846,
			"0.001": 21.6139377116,
			"0.002": 18.3587576017,
			"0.003": 17.8695311512,
			"0.004": 22.1717513801,
			"0.005": 17.2675908028,
			"0.006": 6.96978767866,
			"0.007": 4.47867034917,
			"0.008": 3.63315038772,
			"0.009": 3.07014094471,
			"0.01": 3.62399345945,
			"0.011": 2.84946534104,
			"0.012": 4.44317416962,
			"0.013": 3.74678346846,
			"0.014": 1.39906478805,
			"0.015": 0.353289997439,
			"0.016": 0.0,
			"0.017": 0.0,
			"0.018": 0.0,
			"0.019": 0.0,
			"0.02": 0.0,
			"0.021": 0.0,
			"0.022": 0.0,
			"0.023": 0.0,
			"0.024": 0.0,
			"0.025": 0.0
		}
	}
}
