{
	 "smiles": "OC(=O)C1=C(Cl)C=CC(=C1)S(=O)(=O)NC1=CC=C(Br)C=C1", 
	 "Tm": 491.15, 
	 "num_atms": 30, 
	 "gaussian": { 
		 "optdone": 1, 
		 "sigma_profile": "yes", 
		 "theory": "DFT", 
		 "functional": "B3LYP", 
		 "basiset": "6-31G**", 
		 "properties": { 
			 "R2extent": 11382.9334, 
			 "electric_dipole_moment_norm": 4.45608512149, 
			 "electric_quadrupole_moment_norm": 24.4249811214, 
			 "total_energy": -4286.16974094, 
			 "HOMO_LUMO_gap": 0.15743, 
			 "cosmo_polarized_energy": -22.11, 
			 "cosmo_cavitation_energy": 41.1, 
			 "cosmo_dispersion_energy": -29.42, 
			 "cosmo_repulsion_energy": 2.23, 
			 "cosmo_total_nonelectrostatic_energy": 13.9, 
			 "SMD_solvation_energy": 5.85 
		},
		"coords": [
			{
				"x": 3.1617030738,
				"y": -3.5777680932,
				"z": -2.0192073296,
				"element": "O" 
			},
			{
				"x": 1.9136514988,
				"y": -3.2539406436,
				"z": -1.6464658084,
				"element": "C" 
			},
			{
				"x": 0.9633147205,
				"y": -3.7641604121,
				"z": -2.1933915901,
				"element": "O" 
			},
			{
				"x": 1.7033389942,
				"y": -2.2634210776,
				"z": -0.5122681449,
				"element": "C" 
			},
			{
				"x": 2.617439047,
				"y": -1.3553800134,
				"z": 0.0527908149,
				"element": "C" 
			},
			{
				"x": 4.2877881512,
				"y": -1.2182168244,
				"z": -0.5065909778,
				"element": "Cl" 
			},
			{
				"x": 2.2558572256,
				"y": -0.4914611028,
				"z": 1.0887203745,
				"element": "C" 
			},
			{
				"x": 0.9599502363,
				"y": -0.5136690402,
				"z": 1.5928750613,
				"element": "C" 
			},
			{
				"x": 0.0380189766,
				"y": -1.4052449227,
				"z": 1.0411102926,
				"element": "C" 
			},
			{
				"x": 0.3997912608,
				"y": -2.2627924341,
				"z": 0.0098800058,
				"element": "C" 
			},
			{
				"x": -1.6545847593,
				"y": -1.4293685165,
				"z": 1.6558220139,
				"element": "S" 
			},
			{
				"x": -1.6335684519,
				"y": -0.787825414,
				"z": 2.9686035502,
				"element": "O" 
			},
			{
				"x": -2.2003787801,
				"y": -2.7646383054,
				"z": 1.4296312733,
				"element": "O" 
			},
			{
				"x": -2.5485702581,
				"y": -0.4341381767,
				"z": 0.6153517545,
				"element": "N" 
			},
			{
				"x": -2.2636677444,
				"y": 0.9442070318,
				"z": 0.411532609,
				"element": "C" 
			},
			{
				"x": -2.0604733875,
				"y": 1.4240787147,
				"z": -0.8889452386,
				"element": "C" 
			},
			{
				"x": -1.8371933137,
				"y": 2.7809378228,
				"z": -1.1150917379,
				"element": "C" 
			},
			{
				"x": -1.7892221585,
				"y": 3.6544158207,
				"z": -0.0302887224,
				"element": "C" 
			},
			{
				"x": -1.4629230769,
				"y": 5.5116246959,
				"z": -0.3300256287,
				"element": "Br" 
			},
			{
				"x": -1.9813693473,
				"y": 3.1890935651,
				"z": 1.2702846792,
				"element": "C" 
			},
			{
				"x": -2.2335575486,
				"y": 1.8367661309,
				"z": 1.4921996341,
				"element": "C" 
			},
			{
				"x": 3.8308172837,
				"y": -3.089604679,
				"z": -1.5129560467,
				"element": "H" 
			},
			{
				"x": 2.9929669634,
				"y": 0.1913260873,
				"z": 1.4954185733,
				"element": "H" 
			},
			{
				"x": 0.6703904132,
				"y": 0.1358832988,
				"z": 2.4107118623,
				"element": "H" 
			},
			{
				"x": -0.3106333286,
				"y": -2.9638803144,
				"z": -0.4135947696,
				"element": "H" 
			},
			{
				"x": -2.8096897345,
				"y": -0.955807461,
				"z": -0.2155910932,
				"element": "H" 
			},
			{
				"x": -2.0791320057,
				"y": 0.7365539396,
				"z": -1.7304911994,
				"element": "H" 
			},
			{
				"x": -1.6895436205,
				"y": 3.1506260711,
				"z": -2.1232076979,
				"element": "H" 
			},
			{
				"x": -1.9552972985,
				"y": 3.8805580492,
				"z": 2.1047221175,
				"element": "H" 
			},
			{
				"x": -2.4126230311,
				"y": 1.4686462032,
				"z": 2.4950613689,
				"element": "H" 
			}
		],
		 "valence_orbital": [ 
			{
				"type": "occ",
				"energy": -0.29716,
				"method": "rhf"
			},
			{
				"type": "occ",
				"energy": -0.29244,
				"method": "rhf"
			},
			{
				"type": "occ",
				"energy": -0.29043,
				"method": "rhf"
			},
			{
				"type": "occ",
				"energy": -0.28038,
				"method": "rhf"
			},
			{
				"type": "occ",
				"energy": -0.24248,
				"method": "rhf"
			},
			{
				"type": "unocc",
				"energy": -0.08505,
				"method": "rhf"
			},
			{
				"type": "unocc",
				"energy": -0.06631,
				"method": "rhf"
			},
			{
				"type": "unocc",
				"energy": -0.03262,
				"method": "rhf"
			},
			{
				"type": "unocc",
				"energy": -0.03169,
				"method": "rhf"
			},
			{
				"type": "unocc",
				"energy": -0.01747,
				"method": "rhf"
			}
		],
		"cosmo_sigma_profile": { 
			"-0.025": 0.0,
			"-0.024": 0.0,
			"-0.023": 0.0,
			"-0.022": 0.0,
			"-0.021": 0.0,
			"-0.02": 0.0,
			"-0.019": 0.0,
			"-0.018": 0.0,
			"-0.017": 0.0376055618476,
			"-0.016": 0.966820313844,
			"-0.015": 1.25846176529,
			"-0.014": 1.77920670172,
			"-0.013": 2.88388609641,
			"-0.012": 3.11200056117,
			"-0.011": 1.8496748609,
			"-0.01": 2.3184929823,
			"-0.009": 5.15510875929,
			"-0.008": 8.84074751281,
			"-0.007": 11.0431571123,
			"-0.006": 13.0505042375,
			"-0.005": 15.7330412207,
			"-0.004": 18.32556463,
			"-0.003": 18.0799749462,
			"-0.002": 25.4322867427,
			"-0.001": 30.1807098989,
			"0.0": 22.9708748098,
			"0.001": 22.3511253885,
			"0.002": 28.3870703042,
			"0.003": 24.4984967082,
			"0.004": 16.1478082482,
			"0.005": 11.2986271357,
			"0.006": 5.38816649623,
			"0.007": 6.05425682313,
			"0.008": 6.58815918804,
			"0.009": 9.78568025454,
			"0.01": 12.349568613,
			"0.011": 8.41182407612,
			"0.012": 2.13986651713,
			"0.013": 0.322774875485,
			"0.014": 0.0,
			"0.015": 0.0,
			"0.016": 0.0,
			"0.017": 0.0,
			"0.018": 0.0,
			"0.019": 0.0,
			"0.02": 0.0,
			"0.021": 0.0,
			"0.022": 0.0,
			"0.023": 0.0,
			"0.024": 0.0,
			"0.0": 0.0
		}
	}
}
