{
	 "smiles": "CCS(=O)(=O)NC1=C(C=CC=C1)C(O)=O", 
	 "Tm": 419.15, 
	 "num_atms": 26, 
	 "gaussian": { 
		 "optdone": 1, 
		 "sigma_profile": "yes", 
		 "theory": "DFT", 
		 "functional": "B3LYP", 
		 "basiset": "6-31G**", 
		 "properties": { 
			 "R2extent": 3688.1876, 
			 "electric_dipole_moment_norm": 2.35830804392, 
			 "electric_quadrupole_moment_norm": 26.4219760608, 
			 "total_energy": -1103.37408477, 
			 "HOMO_LUMO_gap": 0.2108, 
			 "cosmo_polarized_energy": -20.59, 
			 "cosmo_cavitation_energy": 30.5, 
			 "cosmo_dispersion_energy": -22.31, 
			 "cosmo_repulsion_energy": 1.69, 
			 "cosmo_total_nonelectrostatic_energy": 9.87, 
			 "SMD_solvation_energy": 5.82 
		},
		"coords": [
			{
				"x": -1.0123462912,
				"y": 0.1270618557,
				"z": -2.6465909368,
				"element": "C" 
			},
			{
				"x": -0.7376924176,
				"y": -1.1294041113,
				"z": -1.8287412885,
				"element": "C" 
			},
			{
				"x": -1.8532539468,
				"y": -1.3699633841,
				"z": -0.4159446371,
				"element": "S" 
			},
			{
				"x": -1.6707573984,
				"y": -2.7440734868,
				"z": 0.0567407692,
				"element": "O" 
			},
			{
				"x": -3.186825468,
				"y": -0.8400092242,
				"z": -0.7095992431,
				"element": "O" 
			},
			{
				"x": -1.2326902141,
				"y": -0.2383131745,
				"z": 0.7806930751,
				"element": "N" 
			},
			{
				"x": -0.1506246921,
				"y": -0.68057023,
				"z": 1.6418745074,
				"element": "C" 
			},
			{
				"x": 1.1134711352,
				"y": -0.0618632335,
				"z": 1.541008376,
				"element": "C" 
			},
			{
				"x": 2.1458387302,
				"y": -0.5100903282,
				"z": 2.3772716684,
				"element": "C" 
			},
			{
				"x": 1.9342276717,
				"y": -1.5301249672,
				"z": 3.2989582788,
				"element": "C" 
			},
			{
				"x": 0.6751035746,
				"y": -2.1256526464,
				"z": 3.4005063172,
				"element": "C" 
			},
			{
				"x": -0.3619735854,
				"y": -1.7048774506,
				"z": 2.5711561645,
				"element": "C" 
			},
			{
				"x": 1.4626454397,
				"y": 1.0948467741,
				"z": 0.627093453,
				"element": "C" 
			},
			{
				"x": 0.4497628971,
				"y": 1.68392125,
				"z": -0.0327624239,
				"element": "O" 
			},
			{
				"x": 2.6015719469,
				"y": 1.4895038842,
				"z": 0.508319243,
				"element": "O" 
			},
			{
				"x": -0.745024179,
				"y": 1.0330526543,
				"z": -2.100853506,
				"element": "H" 
			},
			{
				"x": -2.0629701645,
				"y": 0.177745351,
				"z": -2.9398623332,
				"element": "H" 
			},
			{
				"x": -0.3997638006,
				"y": 0.0936398243,
				"z": -3.5524412783,
				"element": "H" 
			},
			{
				"x": 0.2754130114,
				"y": -1.1686654359,
				"z": -1.4178482301,
				"element": "H" 
			},
			{
				"x": -0.8983536184,
				"y": -2.0442975799,
				"z": -2.4068767435,
				"element": "H" 
			},
			{
				"x": -2.0682541117,
				"y": 0.0245560197,
				"z": 1.3058777246,
				"element": "H" 
			},
			{
				"x": 3.1101762,
				"y": -0.0235116095,
				"z": 2.2832837356,
				"element": "H" 
			},
			{
				"x": 2.7467077056,
				"y": -1.8575208583,
				"z": 3.9403368069,
				"element": "H" 
			},
			{
				"x": 0.4995207674,
				"y": -2.9209630017,
				"z": 4.1183928958,
				"element": "H" 
			},
			{
				"x": -1.3349155804,
				"y": -2.1805837083,
				"z": 2.6216746269,
				"element": "H" 
			},
			{
				"x": -0.3829936117,
				"y": 1.193756817,
				"z": 0.1697329783,
				"element": "H" 
			}
		],
		 "valence_orbital": [ 
			{
				"type": "occ",
				"energy": -0.31233,
				"method": "rhf"
			},
			{
				"type": "occ",
				"energy": -0.3053,
				"method": "rhf"
			},
			{
				"type": "occ",
				"energy": -0.2782,
				"method": "rhf"
			},
			{
				"type": "occ",
				"energy": -0.27636,
				"method": "rhf"
			},
			{
				"type": "occ",
				"energy": -0.273,
				"method": "rhf"
			},
			{
				"type": "unocc",
				"energy": -0.0622,
				"method": "rhf"
			},
			{
				"type": "unocc",
				"energy": -0.03712,
				"method": "rhf"
			},
			{
				"type": "unocc",
				"energy": 0.02932,
				"method": "rhf"
			},
			{
				"type": "unocc",
				"energy": 0.04463,
				"method": "rhf"
			},
			{
				"type": "unocc",
				"energy": 0.05141,
				"method": "rhf"
			}
		],
		"cosmo_sigma_profile": { 
			"-0.025": 0.0,
			"-0.024": 0.0,
			"-0.023": 0.0,
			"-0.022": 0.0,
			"-0.021": 0.0,
			"-0.02": 0.0,
			"-0.019": 0.0,
			"-0.018": 0.0,
			"-0.017": 0.0514540781574,
			"-0.016": 0.931882717907,
			"-0.015": 1.6349973968,
			"-0.014": 0.749499831252,
			"-0.013": 1.35120877136,
			"-0.012": 1.53160770143,
			"-0.011": 1.3823110632,
			"-0.01": 2.45000955623,
			"-0.009": 5.99736009761,
			"-0.008": 7.79685837811,
			"-0.007": 12.8705457722,
			"-0.006": 14.1563647731,
			"-0.005": 18.6379879766,
			"-0.004": 14.5878154577,
			"-0.003": 14.0912300699,
			"-0.002": 13.4047540277,
			"-0.001": 14.4802939205,
			"0.0": 12.3174933281,
			"0.001": 12.5898632102,
			"0.002": 14.473410281,
			"0.003": 11.5223737707,
			"0.004": 4.430617589,
			"0.005": 4.99162218071,
			"0.006": 5.94606573213,
			"0.007": 5.53443372364,
			"0.008": 5.51604247668,
			"0.009": 6.95506740765,
			"0.01": 13.6717410761,
			"0.011": 11.3359005709,
			"0.012": 5.25933160216,
			"0.013": 2.04278777652,
			"0.014": 0.310407933682,
			"0.015": 0.0,
			"0.016": 0.0,
			"0.017": 0.0,
			"0.018": 0.0,
			"0.019": 0.0,
			"0.02": 0.0,
			"0.021": 0.0,
			"0.022": 0.0,
			"0.023": 0.0,
			"0.024": 0.0,
			"0.025": 0.0
		}
	}
}
