{
	 "smiles": "COC1=CC(=C(Br)C=C1)S(N)(=O)=O", 
	 "Tm": 393.15, 
	 "num_atms": 21, 
	 "gaussian": { 
		 "optdone": 1, 
		 "sigma_profile": "yes", 
		 "theory": "DFT", 
		 "functional": "B3LYP", 
		 "basiset": "6-31G**", 
		 "properties": { 
			 "R2extent": 4444.9048, 
			 "electric_dipole_moment_norm": 5.29348831396, 
			 "electric_quadrupole_moment_norm": 17.4999113755, 
			 "total_energy": -3521.49246335, 
			 "HOMO_LUMO_gap": 0.19331, 
			 "cosmo_polarized_energy": -17.56, 
			 "cosmo_cavitation_energy": 28.32, 
			 "cosmo_dispersion_energy": -21.74, 
			 "cosmo_repulsion_energy": 1.67, 
			 "cosmo_total_nonelectrostatic_energy": 8.24, 
			 "SMD_solvation_energy": 4.28 
		},
		"coords": [
			{
				"x": 0.2885324584,
				"y": -2.3445526375,
				"z": -3.1179436202,
				"element": "C" 
			},
			{
				"x": 1.3970255414,
				"y": -1.6266295084,
				"z": -2.5854586428,
				"element": "O" 
			},
			{
				"x": 1.3146280296,
				"y": -1.1642732033,
				"z": -1.3123572605,
				"element": "C" 
			},
			{
				"x": 0.2005392551,
				"y": -1.3243341004,
				"z": -0.4827226229,
				"element": "C" 
			},
			{
				"x": 0.2142440736,
				"y": -0.811642343,
				"z": 0.8197497791,
				"element": "C" 
			},
			{
				"x": 1.3413204677,
				"y": -0.1384524104,
				"z": 1.2965220069,
				"element": "C" 
			},
			{
				"x": 1.4494793033,
				"y": 0.6063611024,
				"z": 3.0556581101,
				"element": "Br" 
			},
			{
				"x": 2.4502530165,
				"y": 0.0264322412,
				"z": 0.4613425115,
				"element": "C" 
			},
			{
				"x": 2.4416331631,
				"y": -0.4823804826,
				"z": -0.8295141401,
				"element": "C" 
			},
			{
				"x": -1.2764320639,
				"y": -1.1436444349,
				"z": 1.80562962,
				"element": "S" 
			},
			{
				"x": -1.8886498686,
				"y": 0.3374456922,
				"z": 2.2827253473,
				"element": "N" 
			},
			{
				"x": -0.8701647037,
				"y": -1.8483797747,
				"z": 3.0157483026,
				"element": "O" 
			},
			{
				"x": -2.2614956928,
				"y": -1.696738729,
				"z": 0.8754875455,
				"element": "O" 
			},
			{
				"x": 0.079986905,
				"y": -3.2498147493,
				"z": -2.5353726796,
				"element": "H" 
			},
			{
				"x": 0.57501241,
				"y": -2.6245532925,
				"z": -4.1320403831,
				"element": "H" 
			},
			{
				"x": -0.6134689097,
				"y": -1.7217176951,
				"z": -3.1541356831,
				"element": "H" 
			},
			{
				"x": -0.6916349657,
				"y": -1.8412499118,
				"z": -0.8105268447,
				"element": "H" 
			},
			{
				"x": 3.3214524171,
				"y": 0.5543418792,
				"z": 0.8321507041,
				"element": "H" 
			},
			{
				"x": 3.2999352122,
				"y": -0.3619197291,
				"z": -1.4816848174,
				"element": "H" 
			},
			{
				"x": -2.242356332,
				"y": 0.8802386675,
				"z": 1.5013132877,
				"element": "H" 
			},
			{
				"x": -1.2474397165,
				"y": 0.8518634195,
				"z": 2.8805294795,
				"element": "H" 
			}
		],
		 "valence_orbital": [ 
			{
				"type": "occ",
				"energy": -0.3097,
				"method": "rhf"
			},
			{
				"type": "occ",
				"energy": -0.30727,
				"method": "rhf"
			},
			{
				"type": "occ",
				"energy": -0.29396,
				"method": "rhf"
			},
			{
				"type": "occ",
				"energy": -0.27832,
				"method": "rhf"
			},
			{
				"type": "occ",
				"energy": -0.23969,
				"method": "rhf"
			},
			{
				"type": "unocc",
				"energy": -0.04638,
				"method": "rhf"
			},
			{
				"type": "unocc",
				"energy": -0.02256,
				"method": "rhf"
			},
			{
				"type": "unocc",
				"energy": -0.01579,
				"method": "rhf"
			},
			{
				"type": "unocc",
				"energy": 0.0615,
				"method": "rhf"
			},
			{
				"type": "unocc",
				"energy": 0.08201,
				"method": "rhf"
			}
		],
		"cosmo_sigma_profile": { 
			"-0.025": 0.0,
			"-0.024": 0.0,
			"-0.023": 0.0,
			"-0.022": 0.0,
			"-0.021": 0.0,
			"-0.02": 0.0,
			"-0.019": 0.0,
			"-0.018": 0.0,
			"-0.017": 0.0,
			"-0.016": 0.601273840628,
			"-0.015": 1.55484977615,
			"-0.014": 1.13060512085,
			"-0.013": 1.25048599583,
			"-0.012": 2.8940840364,
			"-0.011": 2.18275739681,
			"-0.01": 1.53952396319,
			"-0.009": 2.56897542224,
			"-0.008": 3.92330569433,
			"-0.007": 9.32067978157,
			"-0.006": 15.320244001,
			"-0.005": 13.5228466205,
			"-0.004": 15.2689709575,
			"-0.003": 15.1143252723,
			"-0.002": 11.0756633986,
			"-0.001": 10.3012951823,
			"0.0": 14.7152849935,
			"0.001": 23.1843418574,
			"0.002": 14.6564120573,
			"0.003": 11.1651547508,
			"0.004": 6.53452522655,
			"0.005": 4.92029020661,
			"0.006": 5.46735635612,
			"0.007": 6.60441471104,
			"0.008": 6.29591926624,
			"0.009": 6.49120535045,
			"0.01": 9.51130208441,
			"0.011": 10.3086183218,
			"0.012": 1.78373715061,
			"0.013": 0.0,
			"0.014": 0.0,
			"0.015": 0.0,
			"0.016": 0.0,
			"0.017": 0.0,
			"0.018": 0.0,
			"0.019": 0.0,
			"0.02": 0.0,
			"0.021": 0.0,
			"0.022": 0.0,
			"0.023": 0.0,
			"0.024": 0.0,
			"0.025": 0.0
		}
	}
}
