{
	 "smiles": "COC1=CC=C(CCC(=O)CC#N)C=C1", 
	 "Tm": 332.15, 
	 "num_atms": 28, 
	 "gaussian": { 
		 "optdone": 1, 
		 "sigma_profile": "yes", 
		 "theory": "DFT", 
		 "functional": "B3LYP", 
		 "basiset": "6-31G**", 
		 "properties": { 
			 "R2extent": 4904.1272, 
			 "electric_dipole_moment_norm": 2.95896082096, 
			 "electric_quadrupole_moment_norm": 9.23824433699, 
			 "total_energy": -670.281476027, 
			 "HOMO_LUMO_gap": 0.17671, 
			 "cosmo_polarized_energy": -14.77, 
			 "cosmo_cavitation_energy": 33.1, 
			 "cosmo_dispersion_energy": -22.71, 
			 "cosmo_repulsion_energy": 1.8, 
			 "cosmo_total_nonelectrostatic_energy": 12.2, 
			 "SMD_solvation_energy": 7.97 
		},
		"coords": [
			{
				"x": -5.6889221312,
				"y": 0.9220462487,
				"z": 0.0757747801,
				"element": "C" 
			},
			{
				"x": -4.7773245673,
				"y": 1.1822080415,
				"z": -0.9787588336,
				"element": "O" 
			},
			{
				"x": -3.4640859928,
				"y": 1.3833210669,
				"z": -0.6609399417,
				"element": "C" 
			},
			{
				"x": -2.9412846131,
				"y": 1.3456319065,
				"z": 0.6362396648,
				"element": "C" 
			},
			{
				"x": -1.5759496494,
				"y": 1.5695137653,
				"z": 0.8396812143,
				"element": "C" 
			},
			{
				"x": -0.7096544487,
				"y": 1.8337930395,
				"z": -0.2250063104,
				"element": "C" 
			},
			{
				"x": 0.7742595348,
				"y": 2.0548270598,
				"z": -0.0082148538,
				"element": "C" 
			},
			{
				"x": 1.6176432043,
				"y": 0.777883081,
				"z": -0.1766249949,
				"element": "C" 
			},
			{
				"x": 1.5125764026,
				"y": -0.1884850105,
				"z": 0.9866232131,
				"element": "C" 
			},
			{
				"x": 1.0688857991,
				"y": 0.1065419763,
				"z": 2.0752310836,
				"element": "O" 
			},
			{
				"x": 1.9839129045,
				"y": -1.6462885761,
				"z": 0.7531274588,
				"element": "C" 
			},
			{
				"x": 3.1066868288,
				"y": -1.7979387238,
				"z": -0.1694273179,
				"element": "C" 
			},
			{
				"x": 4.0024328128,
				"y": -1.8956692739,
				"z": -0.9012852084,
				"element": "N" 
			},
			{
				"x": -1.2562311564,
				"y": 1.869831106,
				"z": -1.518993628,
				"element": "C" 
			},
			{
				"x": -2.6092209529,
				"y": 1.6479154474,
				"z": -1.7413088517,
				"element": "C" 
			},
			{
				"x": -6.6661419211,
				"y": 0.7970639501,
				"z": -0.3934151926,
				"element": "H" 
			},
			{
				"x": -5.4305435976,
				"y": 0.0037347648,
				"z": 0.6192451912,
				"element": "H" 
			},
			{
				"x": -5.7352784839,
				"y": 1.7564377274,
				"z": 0.7877132755,
				"element": "H" 
			},
			{
				"x": -3.5787015405,
				"y": 1.1482637587,
				"z": 1.4901560132,
				"element": "H" 
			},
			{
				"x": -1.177787248,
				"y": 1.5288668325,
				"z": 1.8489803486,
				"element": "H" 
			},
			{
				"x": 0.9531557045,
				"y": 2.4600042918,
				"z": 0.9921105397,
				"element": "H" 
			},
			{
				"x": 1.1412752496,
				"y": 2.797080213,
				"z": -0.7256077152,
				"element": "H" 
			},
			{
				"x": 1.364130565,
				"y": 0.2521928609,
				"z": -1.1059013697,
				"element": "H" 
			},
			{
				"x": 2.6854958347,
				"y": 1.0266124225,
				"z": -0.2705676589,
				"element": "H" 
			},
			{
				"x": 2.2267338652,
				"y": -2.0815279922,
				"z": 1.726435804,
				"element": "H" 
			},
			{
				"x": 1.1226278493,
				"y": -2.1995615752,
				"z": 0.3537155718,
				"element": "H" 
			},
			{
				"x": -0.6104517445,
				"y": 2.0838485416,
				"z": -2.3680735375,
				"element": "H" 
			},
			{
				"x": -3.0313385076,
				"y": 1.6817530497,
				"z": -2.7405087443,
				"element": "H" 
			}
		],
		 "valence_orbital": [ 
			{
				"type": "occ",
				"energy": -0.32338,
				"method": "rhf"
			},
			{
				"type": "occ",
				"energy": -0.31335,
				"method": "rhf"
			},
			{
				"type": "occ",
				"energy": -0.27124,
				"method": "rhf"
			},
			{
				"type": "occ",
				"energy": -0.25056,
				"method": "rhf"
			},
			{
				"type": "occ",
				"energy": -0.2156,
				"method": "rhf"
			},
			{
				"type": "unocc",
				"energy": -0.03889,
				"method": "rhf"
			},
			{
				"type": "unocc",
				"energy": -0.00212,
				"method": "rhf"
			},
			{
				"type": "unocc",
				"energy": 0.00981,
				"method": "rhf"
			},
			{
				"type": "unocc",
				"energy": 0.02127,
				"method": "rhf"
			},
			{
				"type": "unocc",
				"energy": 0.02786,
				"method": "rhf"
			}
		],
		"cosmo_sigma_profile": { 
			"-0.025": 0.0,
			"-0.024": 0.0,
			"-0.023": 0.0,
			"-0.022": 0.0,
			"-0.021": 0.0,
			"-0.02": 0.0,
			"-0.019": 0.0,
			"-0.018": 0.0,
			"-0.017": 0.0,
			"-0.016": 0.0,
			"-0.015": 0.0,
			"-0.014": 0.0,
			"-0.013": 0.0,
			"-0.012": 0.0,
			"-0.011": 1.62801380043,
			"-0.01": 4.2843535799,
			"-0.009": 5.18903024007,
			"-0.008": 5.28385739406,
			"-0.007": 7.81758359688,
			"-0.006": 11.9106138293,
			"-0.005": 20.6126234544,
			"-0.004": 25.3571543623,
			"-0.003": 26.7540350567,
			"-0.002": 18.5697491285,
			"-0.001": 14.2752660693,
			"0.0": 12.3325934063,
			"0.001": 9.31723149241,
			"0.002": 9.7861369813,
			"0.003": 13.1455394828,
			"0.004": 13.7450948802,
			"0.005": 13.1973759718,
			"0.006": 13.6471301866,
			"0.007": 6.78373180769,
			"0.008": 5.95530431767,
			"0.009": 6.04524071153,
			"0.01": 7.81464680149,
			"0.011": 5.53737348916,
			"0.012": 2.70380835866,
			"0.013": 1.3345449456,
			"0.014": 0.0217458790334,
			"0.015": 0.0,
			"0.016": 0.0,
			"0.017": 0.0,
			"0.018": 0.0,
			"0.019": 0.0,
			"0.02": 0.0,
			"0.021": 0.0,
			"0.022": 0.0,
			"0.023": 0.0,
			"0.024": 0.0,
			"0.025": 0.0
		}
	}
}
