{
	 "smiles": "NC1=NC(=CN=N1)C1=CC=CC=C1", 
	 "Tm": 509.15, 
	 "num_atms": 21, 
	 "gaussian": { 
		 "optdone": 1, 
		 "sigma_profile": "yes", 
		 "theory": "DFT", 
		 "functional": "B3LYP", 
		 "basiset": "6-31G**", 
		 "properties": { 
			 "R2extent": 3365.0626, 
			 "electric_dipole_moment_norm": 3.34819644884, 
			 "electric_quadrupole_moment_norm": 16.6128177023, 
			 "total_energy": -566.75971921, 
			 "HOMO_LUMO_gap": 0.15439, 
			 "cosmo_polarized_energy": -13.21, 
			 "cosmo_cavitation_energy": 25.67, 
			 "cosmo_dispersion_energy": -19.33, 
			 "cosmo_repulsion_energy": 1.52, 
			 "cosmo_total_nonelectrostatic_energy": 7.85, 
			 "SMD_solvation_energy": 1.57 
		},
		"coords": [
			{
				"x": 0.3518942276,
				"y": -4.9781754101,
				"z": 0.6474076068,
				"element": "N" 
			},
			{
				"x": 0.1555422112,
				"y": -3.8134332807,
				"z": -0.0292101088,
				"element": "C" 
			},
			{
				"x": -0.1854910656,
				"y": -2.7282161372,
				"z": 0.6885335067,
				"element": "N" 
			},
			{
				"x": -0.3184488617,
				"y": -1.5935304043,
				"z": -0.0022201692,
				"element": "C" 
			},
			{
				"x": -0.0822266018,
				"y": -1.6071783357,
				"z": -1.3925594585,
				"element": "C" 
			},
			{
				"x": 0.2259002877,
				"y": -2.7290196383,
				"z": -2.0414489718,
				"element": "N" 
			},
			{
				"x": 0.3396926005,
				"y": -3.8649430818,
				"z": -1.3693661267,
				"element": "N" 
			},
			{
				"x": -0.6981248272,
				"y": -0.368760599,
				"z": 0.7402354105,
				"element": "C" 
			},
			{
				"x": -1.2009650199,
				"y": 0.7663279168,
				"z": 0.0825477661,
				"element": "C" 
			},
			{
				"x": -1.5458464823,
				"y": 1.9076455683,
				"z": 0.8042002558,
				"element": "C" 
			},
			{
				"x": -1.392669184,
				"y": 1.9337070448,
				"z": 2.1917284589,
				"element": "C" 
			},
			{
				"x": -0.898967698,
				"y": 0.8077504933,
				"z": 2.8558056342,
				"element": "C" 
			},
			{
				"x": -0.557893274,
				"y": -0.3350792802,
				"z": 2.1378297826,
				"element": "C" 
			},
			{
				"x": 0.0105278763,
				"y": -5.0346298216,
				"z": 1.5931276357,
				"element": "H" 
			},
			{
				"x": 0.4171120018,
				"y": -5.8216814537,
				"z": 0.099917372,
				"element": "H" 
			},
			{
				"x": -0.1296001729,
				"y": -0.7123113929,
				"z": -2.0023182624,
				"element": "H" 
			},
			{
				"x": -1.3478959004,
				"y": 0.7558771563,
				"z": -0.9924158683,
				"element": "H" 
			},
			{
				"x": -1.9396923972,
				"y": 2.7749987879,
				"z": 0.2827065669,
				"element": "H" 
			},
			{
				"x": -1.6596332412,
				"y": 2.8248288033,
				"z": 2.7524629273,
				"element": "H" 
			},
			{
				"x": -0.7787881948,
				"y": 0.8220778809,
				"z": 3.9352220335,
				"element": "H" 
			},
			{
				"x": -0.1764262841,
				"y": -1.2162548159,
				"z": 2.6412140085,
				"element": "H" 
			}
		],
		 "valence_orbital": [ 
			{
				"type": "occ",
				"energy": -0.31146,
				"method": "rhf"
			},
			{
				"type": "occ",
				"energy": -0.26181,
				"method": "rhf"
			},
			{
				"type": "occ",
				"energy": -0.25677,
				"method": "rhf"
			},
			{
				"type": "occ",
				"energy": -0.23475,
				"method": "rhf"
			},
			{
				"type": "occ",
				"energy": -0.2238,
				"method": "rhf"
			},
			{
				"type": "unocc",
				"energy": -0.06941,
				"method": "rhf"
			},
			{
				"type": "unocc",
				"energy": -0.02521,
				"method": "rhf"
			},
			{
				"type": "unocc",
				"energy": -0.00787,
				"method": "rhf"
			},
			{
				"type": "unocc",
				"energy": 0.02273,
				"method": "rhf"
			},
			{
				"type": "unocc",
				"energy": 0.08382,
				"method": "rhf"
			}
		],
		"cosmo_sigma_profile": { 
			"-0.025": 0.0,
			"-0.024": 0.0,
			"-0.023": 0.0,
			"-0.022": 0.0,
			"-0.021": 0.0,
			"-0.02": 0.0,
			"-0.019": 0.0,
			"-0.018": 0.0,
			"-0.017": 0.0,
			"-0.016": 0.0,
			"-0.015": 0.18518992338,
			"-0.014": 1.65636936738,
			"-0.013": 2.0713837954,
			"-0.012": 2.10821684175,
			"-0.011": 2.27862749881,
			"-0.01": 1.75823990156,
			"-0.009": 2.89588277735,
			"-0.008": 4.28277987418,
			"-0.007": 4.59712885968,
			"-0.006": 10.6477671372,
			"-0.005": 11.8594858865,
			"-0.004": 13.7658388643,
			"-0.003": 12.8189134978,
			"-0.002": 12.9583465442,
			"-0.001": 15.2274893111,
			"0.0": 14.1739685719,
			"0.001": 12.8355241062,
			"0.002": 12.2845793338,
			"0.003": 14.3188914114,
			"0.004": 17.7695436084,
			"0.005": 8.18794550171,
			"0.006": 4.07324748905,
			"0.007": 3.51231500523,
			"0.008": 3.5590606728,
			"0.009": 2.86339965119,
			"0.01": 2.01956880429,
			"0.011": 1.88863534141,
			"0.012": 2.54276039662,
			"0.013": 2.437987703,
			"0.014": 2.79316468106,
			"0.015": 1.84214584143,
			"0.016": 0.256908883897,
			"0.017": 0.0,
			"0.018": 0.0,
			"0.019": 0.0,
			"0.02": 0.0,
			"0.021": 0.0,
			"0.022": 0.0,
			"0.023": 0.0,
			"0.024": 0.0,
			"0.025": 0.0
		}
	}
}
