{
	 "smiles": "CC(C)(C)C1=CC=C(C=C1)C(=O)N1CSCC1C(O)=O", 
	 "Tm": 454.15, 
	 "num_atms": 39, 
	 "gaussian": { 
		 "optdone": 1, 
		 "sigma_profile": "yes", 
		 "theory": "DFT", 
		 "functional": "B3LYP", 
		 "basiset": "6-31G**", 
		 "properties": { 
			 "R2extent": 10600.4509, 
			 "electric_dipole_moment_norm": 7.48754235581, 
			 "electric_quadrupole_moment_norm": 29.1796078168, 
			 "total_energy": -1261.69169161, 
			 "HOMO_LUMO_gap": 0.19029, 
			 "cosmo_polarized_energy": -18.25, 
			 "cosmo_cavitation_energy": 41.43, 
			 "cosmo_dispersion_energy": -29.68, 
			 "cosmo_repulsion_energy": 2.21, 
			 "cosmo_total_nonelectrostatic_energy": 13.95, 
			 "SMD_solvation_energy": 7.4 
		},
		"coords": [
			{
				"x": -2.0819410147,
				"y": -0.89244159,
				"z": -3.0857084512,
				"element": "C" 
			},
			{
				"x": -1.639175743,
				"y": 0.5235091194,
				"z": -2.6448391707,
				"element": "C" 
			},
			{
				"x": -0.5662754711,
				"y": 1.0218992634,
				"z": -3.6314502553,
				"element": "C" 
			},
			{
				"x": -2.848800915,
				"y": 1.4863216126,
				"z": -2.718027527,
				"element": "C" 
			},
			{
				"x": -1.1206567034,
				"y": 0.4665190703,
				"z": -1.1971621308,
				"element": "C" 
			},
			{
				"x": 0.181146042,
				"y": 0.8463943822,
				"z": -0.8381198522,
				"element": "C" 
			},
			{
				"x": 0.6164930143,
				"y": 0.7921996802,
				"z": 0.4847528631,
				"element": "C" 
			},
			{
				"x": -0.2281276673,
				"y": 0.3196944374,
				"z": 1.4955111958,
				"element": "C" 
			},
			{
				"x": -1.5366316881,
				"y": -0.0511563116,
				"z": 1.1546241124,
				"element": "C" 
			},
			{
				"x": -1.9697125749,
				"y": 0.0293284758,
				"z": -0.1650020492,
				"element": "C" 
			},
			{
				"x": 0.285784439,
				"y": 0.3445125822,
				"z": 2.8997638121,
				"element": "C" 
			},
			{
				"x": 0.8840434373,
				"y": 1.3578892244,
				"z": 3.3102006699,
				"element": "O" 
			},
			{
				"x": 0.1092034115,
				"y": -0.7392255715,
				"z": 3.707300679,
				"element": "N" 
			},
			{
				"x": -0.3790999023,
				"y": -2.0529081785,
				"z": 3.2425506945,
				"element": "C" 
			},
			{
				"x": 0.0074230573,
				"y": -3.2350511181,
				"z": 4.5786901276,
				"element": "S" 
			},
			{
				"x": -0.2429187709,
				"y": -1.8865169113,
				"z": 5.7956415171,
				"element": "C" 
			},
			{
				"x": 0.4171529775,
				"y": -0.6649275381,
				"z": 5.1603143924,
				"element": "C" 
			},
			{
				"x": 1.9387007754,
				"y": -0.6219938369,
				"z": 5.5139424028,
				"element": "C" 
			},
			{
				"x": 2.6463633589,
				"y": 0.3244821427,
				"z": 4.9063534954,
				"element": "O" 
			},
			{
				"x": 2.4165660151,
				"y": -1.3672571376,
				"z": 6.3389926048,
				"element": "O" 
			},
			{
				"x": -1.2432437175,
				"y": -1.5953840562,
				"z": -3.0496501945,
				"element": "H" 
			},
			{
				"x": -2.8784967948,
				"y": -1.2887115449,
				"z": -2.4489977843,
				"element": "H" 
			},
			{
				"x": -2.4597158649,
				"y": -0.8677335135,
				"z": -4.1137189788,
				"element": "H" 
			},
			{
				"x": -0.9799811176,
				"y": 1.0401638914,
				"z": -4.6445953528,
				"element": "H" 
			},
			{
				"x": -0.2331585941,
				"y": 2.0375872005,
				"z": -3.3944773905,
				"element": "H" 
			},
			{
				"x": 0.3111526139,
				"y": 0.3670604058,
				"z": -3.6463384653,
				"element": "H" 
			},
			{
				"x": -2.5638894219,
				"y": 2.4984622414,
				"z": -2.4131206051,
				"element": "H" 
			},
			{
				"x": -3.6702577457,
				"y": 1.1613273121,
				"z": -2.072723083,
				"element": "H" 
			},
			{
				"x": -3.2313831402,
				"y": 1.5353647058,
				"z": -3.7434103398,
				"element": "H" 
			},
			{
				"x": 0.8732362822,
				"y": 1.2016353946,
				"z": -1.5922528828,
				"element": "H" 
			},
			{
				"x": 1.6183155025,
				"y": 1.118719011,
				"z": 0.7439523674,
				"element": "H" 
			},
			{
				"x": -2.235259766,
				"y": -0.3679452738,
				"z": 1.9225285599,
				"element": "H" 
			},
			{
				"x": -2.9942411029,
				"y": -0.2501002925,
				"z": -0.3904217249,
				"element": "H" 
			},
			{
				"x": -1.4578353072,
				"y": -2.0320938104,
				"z": 3.069020288,
				"element": "H" 
			},
			{
				"x": 0.1249993412,
				"y": -2.355560513,
				"z": 2.3231395339,
				"element": "H" 
			},
			{
				"x": -1.309590129,
				"y": -1.7240292899,
				"z": 5.9721231658,
				"element": "H" 
			},
			{
				"x": 0.2656123264,
				"y": -2.1518806644,
				"z": 6.7212425533,
				"element": "H" 
			},
			{
				"x": -0.0220491189,
				"y": 0.2658465192,
				"z": 5.5424085286,
				"element": "H" 
			},
			{
				"x": 2.050349677,
				"y": 0.8686004795,
				"z": 4.3191626742,
				"element": "H" 
			}
		],
		 "valence_orbital": [ 
			{
				"type": "occ",
				"energy": -0.28293,
				"method": "rhf"
			},
			{
				"type": "occ",
				"energy": -0.27042,
				"method": "rhf"
			},
			{
				"type": "occ",
				"energy": -0.26046,
				"method": "rhf"
			},
			{
				"type": "occ",
				"energy": -0.25022,
				"method": "rhf"
			},
			{
				"type": "occ",
				"energy": -0.24147,
				"method": "rhf"
			},
			{
				"type": "unocc",
				"energy": -0.05118,
				"method": "rhf"
			},
			{
				"type": "unocc",
				"energy": -0.02245,
				"method": "rhf"
			},
			{
				"type": "unocc",
				"energy": 0.0042,
				"method": "rhf"
			},
			{
				"type": "unocc",
				"energy": 0.01096,
				"method": "rhf"
			},
			{
				"type": "unocc",
				"energy": 0.02624,
				"method": "rhf"
			}
		],
		"cosmo_sigma_profile": { 
			"-0.025": 0.0,
			"-0.024": 0.0,
			"-0.023": 0.0,
			"-0.022": 0.0,
			"-0.021": 0.0,
			"-0.02": 0.0,
			"-0.019": 0.0,
			"-0.018": 0.0,
			"-0.017": 0.0,
			"-0.016": 0.0,
			"-0.015": 0.0,
			"-0.014": 0.0,
			"-0.013": 0.0,
			"-0.012": 0.0,
			"-0.011": 0.0,
			"-0.01": 0.307110302243,
			"-0.009": 3.36691535198,
			"-0.008": 7.51067379219,
			"-0.007": 12.1436323829,
			"-0.006": 15.8642855234,
			"-0.005": 19.7324779173,
			"-0.004": 22.6160738327,
			"-0.003": 32.2556255646,
			"-0.002": 32.5120522719,
			"-0.001": 24.2692722289,
			"0.0": 25.8926018663,
			"0.001": 30.679023197,
			"0.002": 16.629516299,
			"0.003": 13.0952423401,
			"0.004": 15.5624780419,
			"0.005": 8.50812706954,
			"0.006": 5.98539798075,
			"0.007": 6.19858533985,
			"0.008": 5.91660716368,
			"0.009": 6.75876246424,
			"0.01": 6.13743900539,
			"0.011": 7.90857029015,
			"0.012": 5.75043876737,
			"0.013": 2.46810922984,
			"0.014": 0.117015086832,
			"0.015": 0.0,
			"0.016": 0.0,
			"0.017": 0.0,
			"0.018": 0.0,
			"0.019": 0.0,
			"0.02": 0.0,
			"0.021": 0.0,
			"0.022": 0.0,
			"0.023": 0.0,
			"0.024": 0.0,
			"0.025": 0.0
		}
	}
}
