{
	 "smiles": "NN1C(S)=NN=C1C1=CC=C(Cl)C=C1", 
	 "Tm": 593.15, 
	 "num_atms": 21, 
	 "gaussian": { 
		 "optdone": 1, 
		 "sigma_profile": "yes", 
		 "theory": "DFT", 
		 "functional": "B3LYP", 
		 "basiset": "6-31G**", 
		 "properties": { 
			 "R2extent": 5828.1482, 
			 "electric_dipole_moment_norm": 4.88386660444, 
			 "electric_quadrupole_moment_norm": 22.5918784053, 
			 "total_energy": -1386.39667018, 
			 "HOMO_LUMO_gap": 0.17862, 
			 "cosmo_polarized_energy": -17.91, 
			 "cosmo_cavitation_energy": 29.34, 
			 "cosmo_dispersion_energy": -22.45, 
			 "cosmo_repulsion_energy": 1.71, 
			 "cosmo_total_nonelectrostatic_energy": 8.61, 
			 "SMD_solvation_energy": 2.99 
		},
		"coords": [
			{
				"x": -1.0789452058,
				"y": -3.5766348463,
				"z": 1.4942174705,
				"element": "N" 
			},
			{
				"x": 0.1913851487,
				"y": -2.9905552201,
				"z": 1.528991866,
				"element": "N" 
			},
			{
				"x": 1.3260396724,
				"y": -3.5076174413,
				"z": 2.1087347617,
				"element": "C" 
			},
			{
				"x": 1.2997458334,
				"y": -5.0713887402,
				"z": 2.9266043477,
				"element": "S" 
			},
			{
				"x": 2.3404373546,
				"y": -2.6963694128,
				"z": 1.9552580632,
				"element": "N" 
			},
			{
				"x": 1.8715792068,
				"y": -1.6044500219,
				"z": 1.2523220636,
				"element": "N" 
			},
			{
				"x": 0.5898032182,
				"y": -1.7725733035,
				"z": 0.9941946973,
				"element": "C" 
			},
			{
				"x": -0.2228326507,
				"y": -0.7949472791,
				"z": 0.2582974462,
				"element": "C" 
			},
			{
				"x": 0.4254785467,
				"y": 0.3736109548,
				"z": -0.1855056211,
				"element": "C" 
			},
			{
				"x": -0.266491275,
				"y": 1.3515980495,
				"z": -0.8889713271,
				"element": "C" 
			},
			{
				"x": -1.6244762914,
				"y": 1.1678715025,
				"z": -1.1570337371,
				"element": "C" 
			},
			{
				"x": -2.5059770857,
				"y": 2.4003835994,
				"z": -2.0461992052,
				"element": "Cl" 
			},
			{
				"x": -2.2888824604,
				"y": 0.0211642987,
				"z": -0.7290990981,
				"element": "C" 
			},
			{
				"x": -1.5889101834,
				"y": -0.9569570539,
				"z": -0.0233749947,
				"element": "C" 
			},
			{
				"x": -1.0221141961,
				"y": -4.4743357212,
				"z": 1.0177495148,
				"element": "H" 
			},
			{
				"x": -1.4087010354,
				"y": -3.721161794,
				"z": 2.4463175896,
				"element": "H" 
			},
			{
				"x": 2.6058447151,
				"y": -5.0065078898,
				"z": 3.2450994107,
				"element": "H" 
			},
			{
				"x": 1.4801191771,
				"y": 0.4987067367,
				"z": 0.0319931687,
				"element": "H" 
			},
			{
				"x": 0.2390047289,
				"y": 2.2490269251,
				"z": -1.2277927623,
				"element": "H" 
			},
			{
				"x": -3.3437848282,
				"y": -0.1078669932,
				"z": -0.9445479762,
				"element": "H" 
			},
			{
				"x": -2.1054223897,
				"y": -1.8478963493,
				"z": 0.3089443216,
				"element": "H" 
			}
		],
		 "valence_orbital": [ 
			{
				"type": "occ",
				"energy": -0.30679,
				"method": "rhf"
			},
			{
				"type": "occ",
				"energy": -0.26837,
				"method": "rhf"
			},
			{
				"type": "occ",
				"energy": -0.26516,
				"method": "rhf"
			},
			{
				"type": "occ",
				"energy": -0.25782,
				"method": "rhf"
			},
			{
				"type": "occ",
				"energy": -0.2221,
				"method": "rhf"
			},
			{
				"type": "unocc",
				"energy": -0.04348,
				"method": "rhf"
			},
			{
				"type": "unocc",
				"energy": -0.0146,
				"method": "rhf"
			},
			{
				"type": "unocc",
				"energy": -0.00992,
				"method": "rhf"
			},
			{
				"type": "unocc",
				"energy": 0.02071,
				"method": "rhf"
			},
			{
				"type": "unocc",
				"energy": 0.03037,
				"method": "rhf"
			}
		],
		"cosmo_sigma_profile": { 
			"-0.025": 0.0,
			"-0.024": 0.0,
			"-0.023": 0.0,
			"-0.022": 0.0,
			"-0.021": 0.0,
			"-0.02": 0.0,
			"-0.019": 0.0,
			"-0.018": 0.0,
			"-0.017": 0.0,
			"-0.016": 0.0,
			"-0.015": 0.067908360633,
			"-0.014": 2.57621726436,
			"-0.013": 3.91880989236,
			"-0.012": 5.1082284526,
			"-0.011": 4.45466259037,
			"-0.01": 3.79911718558,
			"-0.009": 3.71126185447,
			"-0.008": 3.61349537405,
			"-0.007": 7.03969364369,
			"-0.006": 7.30925490769,
			"-0.005": 8.82734080331,
			"-0.004": 8.9043373739,
			"-0.003": 12.0329012858,
			"-0.002": 11.4478904986,
			"-0.001": 14.1485137702,
			"0.0": 17.2134888347,
			"0.001": 22.0302426133,
			"0.002": 26.5311466324,
			"0.003": 25.939222734,
			"0.004": 16.6868371513,
			"0.005": 9.00785017375,
			"0.006": 4.14204452709,
			"0.007": 2.50771573116,
			"0.008": 1.73240456507,
			"0.009": 1.80505859723,
			"0.01": 2.03866765211,
			"0.011": 2.42689905,
			"0.012": 2.52669457169,
			"0.013": 3.20961643555,
			"0.014": 3.03512267742,
			"0.015": 1.98089841378,
			"0.016": 0.865117842071,
			"0.017": 0.000819654878589,
			"0.018": 0.0,
			"0.019": 0.0,
			"0.02": 0.0,
			"0.021": 0.0,
			"0.022": 0.0,
			"0.023": 0.0,
			"0.024": 0.0,
			"0.025": 0.0
		}
	}
}
