{
	 "smiles": "O=C(C1=CNCCC1)C1=CC=CC=C1", 
	 "Tm": 364.15, 
	 "num_atms": 27, 
	 "gaussian": { 
		 "optdone": 1, 
		 "sigma_profile": "yes", 
		 "theory": "DFT", 
		 "functional": "B3LYP", 
		 "basiset": "6-31G**", 
		 "properties": { 
			 "R2extent": 3623.7165, 
			 "electric_dipole_moment_norm": 4.52104344704, 
			 "electric_quadrupole_moment_norm": 17.4973538862, 
			 "total_energy": -595.080142478, 
			 "HOMO_LUMO_gap": 0.16274, 
			 "cosmo_polarized_energy": -14.49, 
			 "cosmo_cavitation_energy": 29.53, 
			 "cosmo_dispersion_energy": -21.77, 
			 "cosmo_repulsion_energy": 1.73, 
			 "cosmo_total_nonelectrostatic_energy": 9.49, 
			 "SMD_solvation_energy": 4.52 
		},
		"coords": [
			{
				"x": -2.6490391345,
				"y": 0.8423379477,
				"z": 1.3663396134,
				"element": "O" 
			},
			{
				"x": -1.7348754381,
				"y": 0.5609207834,
				"z": 0.5834612606,
				"element": "C" 
			},
			{
				"x": -0.3197920474,
				"y": 0.7636156963,
				"z": 0.9296125404,
				"element": "C" 
			},
			{
				"x": -0.0538136671,
				"y": 0.9870662718,
				"z": 2.2504211607,
				"element": "C" 
			},
			{
				"x": 1.1821201491,
				"y": 1.2299153791,
				"z": 2.7580050197,
				"element": "N" 
			},
			{
				"x": 2.3359234939,
				"y": 1.4206987417,
				"z": 1.887282362,
				"element": "C" 
			},
			{
				"x": 2.1728309151,
				"y": 0.5654510096,
				"z": 0.6254441292,
				"element": "C" 
			},
			{
				"x": 0.8253553629,
				"y": 0.8390166851,
				"z": -0.0668898438,
				"element": "C" 
			},
			{
				"x": -2.1165166362,
				"y": 0.0005835496,
				"z": -0.7653773912,
				"element": "C" 
			},
			{
				"x": -3.218866347,
				"y": 0.560735132,
				"z": -1.4270336567,
				"element": "C" 
			},
			{
				"x": -3.6531584063,
				"y": 0.0428407647,
				"z": -2.6453892768,
				"element": "C" 
			},
			{
				"x": -3.0113293952,
				"y": -1.0660881741,
				"z": -3.2038431588,
				"element": "C" 
			},
			{
				"x": -1.9353341306,
				"y": -1.6534236291,
				"z": -2.5361627769,
				"element": "C" 
			},
			{
				"x": -1.4854894239,
				"y": -1.1181614492,
				"z": -1.3278691526,
				"element": "C" 
			},
			{
				"x": -0.8717233593,
				"y": 0.9560328639,
				"z": 2.9638246361,
				"element": "H" 
			},
			{
				"x": 1.2695238934,
				"y": 1.4483809575,
				"z": 3.7371272621,
				"element": "H" 
			},
			{
				"x": 3.2406649238,
				"y": 1.1362365836,
				"z": 2.435008998,
				"element": "H" 
			},
			{
				"x": 2.439223706,
				"y": 2.4810662603,
				"z": 1.6102255906,
				"element": "H" 
			},
			{
				"x": 2.2309411427,
				"y": -0.4922339109,
				"z": 0.9084202027,
				"element": "H" 
			},
			{
				"x": 3.0060641875,
				"y": 0.7679095157,
				"z": -0.0554470055,
				"element": "H" 
			},
			{
				"x": 0.6933815596,
				"y": 0.135892713,
				"z": -0.8919487539,
				"element": "H" 
			},
			{
				"x": 0.8526144745,
				"y": 1.8350667232,
				"z": -0.5334869668,
				"element": "H" 
			},
			{
				"x": -3.7288226464,
				"y": 1.3999768063,
				"z": -0.9649617303,
				"element": "H" 
			},
			{
				"x": -4.4987352999,
				"y": 0.4956455744,
				"z": -3.1557369447,
				"element": "H" 
			},
			{
				"x": -3.3547632004,
				"y": -1.4759920301,
				"z": -4.1495779712,
				"element": "H" 
			},
			{
				"x": -1.4484130084,
				"y": -2.5305747733,
				"z": -2.9533220727,
				"element": "H" 
			},
			{
				"x": -0.6635716679,
				"y": -1.5947159923,
				"z": -0.8015260737,
				"element": "H" 
			}
		],
		 "valence_orbital": [ 
			{
				"type": "occ",
				"energy": -0.31466,
				"method": "rhf"
			},
			{
				"type": "occ",
				"energy": -0.24536,
				"method": "rhf"
			},
			{
				"type": "occ",
				"energy": -0.24425,
				"method": "rhf"
			},
			{
				"type": "occ",
				"energy": -0.21928,
				"method": "rhf"
			},
			{
				"type": "occ",
				"energy": -0.19557,
				"method": "rhf"
			},
			{
				"type": "unocc",
				"energy": -0.03283,
				"method": "rhf"
			},
			{
				"type": "unocc",
				"energy": 0.00456,
				"method": "rhf"
			},
			{
				"type": "unocc",
				"energy": 0.01587,
				"method": "rhf"
			},
			{
				"type": "unocc",
				"energy": 0.06636,
				"method": "rhf"
			},
			{
				"type": "unocc",
				"energy": 0.08383,
				"method": "rhf"
			}
		],
		"cosmo_sigma_profile": { 
			"-0.025": 0.0,
			"-0.024": 0.0,
			"-0.023": 0.0,
			"-0.022": 0.0,
			"-0.021": 0.0,
			"-0.02": 0.0,
			"-0.019": 0.0,
			"-0.018": 0.0,
			"-0.017": 0.0,
			"-0.016": 0.0,
			"-0.015": 0.407329269645,
			"-0.014": 1.54905955735,
			"-0.013": 1.37701922168,
			"-0.012": 1.16094059887,
			"-0.011": 1.55536838359,
			"-0.01": 1.08340572934,
			"-0.009": 1.54716387066,
			"-0.008": 1.43909034706,
			"-0.007": 2.29746621341,
			"-0.006": 6.99915877309,
			"-0.005": 14.9468335896,
			"-0.004": 19.9358468247,
			"-0.003": 24.8904729815,
			"-0.002": 25.3244171604,
			"-0.001": 17.9724853145,
			"0.0": 19.8120114478,
			"0.001": 13.4562454232,
			"0.002": 11.4497964962,
			"0.003": 13.3342820617,
			"0.004": 13.1203097717,
			"0.005": 13.878115938,
			"0.006": 5.97297541187,
			"0.007": 1.41810047569,
			"0.008": 1.83746653316,
			"0.009": 1.99164935347,
			"0.01": 2.3994724771,
			"0.011": 1.22847740109,
			"0.012": 1.73606450865,
			"0.013": 2.72642221048,
			"0.014": 4.58992880256,
			"0.015": 2.17183413075,
			"0.016": 0.109416915225,
			"0.017": 0.0,
			"0.018": 0.0,
			"0.019": 0.0,
			"0.02": 0.0,
			"0.021": 0.0,
			"0.022": 0.0,
			"0.023": 0.0,
			"0.024": 0.0,
			"0.025": 0.0
		}
	}
}
