{
	 "smiles": "CCC(CO)(CO)COCC=C", 
	 "Tm": 263.15, 
	 "num_atms": 30, 
	 "gaussian": { 
		 "optdone": 1, 
		 "sigma_profile": "yes", 
		 "theory": "DFT", 
		 "functional": "B3LYP", 
		 "basiset": "6-31G**", 
		 "properties": { 
			 "R2extent": 2605.3391, 
			 "electric_dipole_moment_norm": 3.17986238381, 
			 "electric_quadrupole_moment_norm": 9.47931157574, 
			 "total_energy": -579.421000051, 
			 "HOMO_LUMO_gap": 0.24968, 
			 "cosmo_polarized_energy": -11.63, 
			 "cosmo_cavitation_energy": 30.05, 
			 "cosmo_dispersion_energy": -21.12, 
			 "cosmo_repulsion_energy": 1.69, 
			 "cosmo_total_nonelectrostatic_energy": 10.63, 
			 "SMD_solvation_energy": 5.47 
		},
		"coords": [
			{
				"x": 0.7619871221,
				"y": -2.4277825001,
				"z": 0.1428900924,
				"element": "C" 
			},
			{
				"x": -0.6520997299,
				"y": -1.8531871109,
				"z": -0.0304140971,
				"element": "C" 
			},
			{
				"x": -0.8208770266,
				"y": -0.3091748526,
				"z": 0.0049153392,
				"element": "C" 
			},
			{
				"x": -2.3361606347,
				"y": 0.0201307491,
				"z": 0.0126202201,
				"element": "C" 
			},
			{
				"x": -3.0275344029,
				"y": -0.4294550802,
				"z": -1.1469020301,
				"element": "O" 
			},
			{
				"x": -0.1997000519,
				"y": 0.3796161595,
				"z": -1.2359584571,
				"element": "C" 
			},
			{
				"x": 1.2147893626,
				"y": 0.2543610855,
				"z": -1.3521143183,
				"element": "O" 
			},
			{
				"x": -0.2020858797,
				"y": 0.2462871953,
				"z": 1.294768825,
				"element": "C" 
			},
			{
				"x": -0.4757770444,
				"y": 1.6420819341,
				"z": 1.4026715522,
				"element": "O" 
			},
			{
				"x": 0.2168252997,
				"y": 2.2677312561,
				"z": 2.4677736428,
				"element": "C" 
			},
			{
				"x": 1.6032661044,
				"y": 2.7471576771,
				"z": 2.1027988454,
				"element": "C" 
			},
			{
				"x": 2.0310485335,
				"y": 2.9660451121,
				"z": 0.85902753,
				"element": "C" 
			},
			{
				"x": 1.1705139244,
				"y": -2.2149981881,
				"z": 1.1368052482,
				"element": "H" 
			},
			{
				"x": 0.7376886292,
				"y": -3.5173073293,
				"z": 0.0333282796,
				"element": "H" 
			},
			{
				"x": 1.447625063,
				"y": -2.0155414258,
				"z": -0.5987269724,
				"element": "H" 
			},
			{
				"x": -1.0487863953,
				"y": -2.2047266508,
				"z": -0.9917752937,
				"element": "H" 
			},
			{
				"x": -1.3024569068,
				"y": -2.2835097952,
				"z": 0.7462531349,
				"element": "H" 
			},
			{
				"x": -2.7879614155,
				"y": -0.3923381737,
				"z": 0.9298899981,
				"element": "H" 
			},
			{
				"x": -2.4748860321,
				"y": 1.1030394596,
				"z": 0.0425295573,
				"element": "H" 
			},
			{
				"x": -3.0720124771,
				"y": -1.3929187311,
				"z": -1.1139721277,
				"element": "H" 
			},
			{
				"x": -0.6211677237,
				"y": -0.0719230081,
				"z": -2.1372098407,
				"element": "H" 
			},
			{
				"x": -0.4962580589,
				"y": 1.4375588235,
				"z": -1.2333081294,
				"element": "H" 
			},
			{
				"x": 1.6215494406,
				"y": 0.797327538,
				"z": -0.6641196465,
				"element": "H" 
			},
			{
				"x": 0.882542376,
				"y": 0.0723087817,
				"z": 1.299995126,
				"element": "H" 
			},
			{
				"x": -0.6189197883,
				"y": -0.2805214779,
				"z": 2.1701592725,
				"element": "H" 
			},
			{
				"x": 0.2721434693,
				"y": 1.5984584109,
				"z": 3.3415200438,
				"element": "H" 
			},
			{
				"x": -0.3937143784,
				"y": 3.1281637162,
				"z": 2.775073582,
				"element": "H" 
			},
			{
				"x": 2.2626521658,
				"y": 2.9521425996,
				"z": 2.9464852626,
				"element": "H" 
			},
			{
				"x": 3.0319335714,
				"y": 3.3344635446,
				"z": 0.6581763084,
				"element": "H" 
			},
			{
				"x": 1.3785328841,
				"y": 2.8092102812,
				"z": 0.0047190526,
				"element": "H" 
			}
		],
		 "valence_orbital": [ 
			{
				"type": "occ",
				"energy": -0.30575,
				"method": "rhf"
			},
			{
				"type": "occ",
				"energy": -0.26979,
				"method": "rhf"
			},
			{
				"type": "occ",
				"energy": -0.26693,
				"method": "rhf"
			},
			{
				"type": "occ",
				"energy": -0.26363,
				"method": "rhf"
			},
			{
				"type": "occ",
				"energy": -0.24974,
				"method": "rhf"
			},
			{
				"type": "unocc",
				"energy": -6e-05,
				"method": "rhf"
			},
			{
				"type": "unocc",
				"energy": 0.06781,
				"method": "rhf"
			},
			{
				"type": "unocc",
				"energy": 0.0748,
				"method": "rhf"
			},
			{
				"type": "unocc",
				"energy": 0.09506,
				"method": "rhf"
			},
			{
				"type": "unocc",
				"energy": 0.10226,
				"method": "rhf"
			}
		],
		"cosmo_sigma_profile": { 
			"-0.025": 0.0,
			"-0.024": 0.0,
			"-0.023": 0.0,
			"-0.022": 0.0,
			"-0.021": 0.0,
			"-0.02": 0.0,
			"-0.019": 0.0,
			"-0.018": 0.0,
			"-0.017": 0.0,
			"-0.016": 0.0,
			"-0.015": 0.192744677067,
			"-0.014": 0.648853282683,
			"-0.013": 0.969316827777,
			"-0.012": 1.08436613782,
			"-0.011": 0.742291988534,
			"-0.01": 0.859012943563,
			"-0.009": 1.15444624044,
			"-0.008": 1.5185268515,
			"-0.007": 2.32332654601,
			"-0.006": 5.05004292103,
			"-0.005": 14.0996555656,
			"-0.004": 19.5081407001,
			"-0.003": 30.2604455511,
			"-0.002": 27.2618327559,
			"-0.001": 21.0544827658,
			"0.0": 19.9346312136,
			"0.001": 17.330304966,
			"0.002": 14.3298787769,
			"0.003": 7.31643654777,
			"0.004": 8.60148001905,
			"0.005": 6.20905949418,
			"0.006": 6.32103151799,
			"0.007": 4.14700396355,
			"0.008": 3.06747401636,
			"0.009": 3.33891372462,
			"0.01": 3.64116702661,
			"0.011": 1.52120385524,
			"0.012": 2.64408585391,
			"0.013": 2.6693672227,
			"0.014": 3.35658772489,
			"0.015": 1.05634950179,
			"0.016": 0.0,
			"0.017": 0.0,
			"0.018": 0.0,
			"0.019": 0.0,
			"0.02": 0.0,
			"0.021": 0.0,
			"0.022": 0.0,
			"0.023": 0.0,
			"0.024": 0.0,
			"0.025": 0.0
		}
	}
}
