{
	 "smiles": "CCOC(=O)C1=C(NC(=S)NC2=CC=C(Cl)C=C2)SC2=C1CCN(CC1=CC=CC=C1)C2", 
	 "Tm": 443.15, 
	 "num_atms": 56, 
	 "gaussian": { 
		 "optdone": 1, 
		 "sigma_profile": "yes", 
		 "theory": "DFT", 
		 "functional": "B3LYP", 
		 "basiset": "6-31G**", 
		 "properties": { 
			 "R2extent": 20413.0519, 
			 "electric_dipole_moment_norm": 4.46911280905, 
			 "electric_quadrupole_moment_norm": 30.4336470683, 
			 "total_energy": -2500.30493737, 
			 "HOMO_LUMO_gap": 0.1377, 
			 "cosmo_polarized_energy": -19.04, 
			 "cosmo_cavitation_energy": 63.39, 
			 "cosmo_dispersion_energy": -42.84, 
			 "cosmo_repulsion_energy": 3.23, 
			 "cosmo_total_nonelectrostatic_energy": 23.78, 
			 "SMD_solvation_energy": 7.73 
		},
		"coords": [
			{
				"x": -4.309126447,
				"y": -3.3385908155,
				"z": 2.5731894615,
				"element": "C" 
			},
			{
				"x": -2.9452442727,
				"y": -3.7372232964,
				"z": 2.0431615008,
				"element": "C" 
			},
			{
				"x": -2.3743789816,
				"y": -2.5750772067,
				"z": 1.3936652813,
				"element": "O" 
			},
			{
				"x": -1.1450544846,
				"y": -2.7404387951,
				"z": 0.8663927349,
				"element": "C" 
			},
			{
				"x": -0.5544403215,
				"y": -3.8178103973,
				"z": 0.927833369,
				"element": "O" 
			},
			{
				"x": -0.5963675803,
				"y": -1.5304154044,
				"z": 0.2438125993,
				"element": "C" 
			},
			{
				"x": 0.6538454494,
				"y": -1.5689010314,
				"z": -0.3777490141,
				"element": "C" 
			},
			{
				"x": 1.4542337961,
				"y": -2.6953417448,
				"z": -0.4383073639,
				"element": "N" 
			},
			{
				"x": 2.6894607461,
				"y": -2.8883776328,
				"z": -1.0090998425,
				"element": "C" 
			},
			{
				"x": 3.7888977572,
				"y": -3.9583004544,
				"z": -0.3530172611,
				"element": "S" 
			},
			{
				"x": 2.9905423349,
				"y": -2.1391502746,
				"z": -2.1313937269,
				"element": "N" 
			},
			{
				"x": 2.1835075629,
				"y": -1.9411452727,
				"z": -3.2848236469,
				"element": "C" 
			},
			{
				"x": 0.9901880177,
				"y": -2.6384370959,
				"z": -3.5131110583,
				"element": "C" 
			},
			{
				"x": 0.2634617442,
				"y": -2.4162980853,
				"z": -4.6815764838,
				"element": "C" 
			},
			{
				"x": 0.7349329424,
				"y": -1.5119183658,
				"z": -5.631398348,
				"element": "C" 
			},
			{
				"x": -0.1818535389,
				"y": -1.2398894478,
				"z": -7.1053623193,
				"element": "Cl" 
			},
			{
				"x": 1.9294713373,
				"y": -0.8225355189,
				"z": -5.4244566584,
				"element": "C" 
			},
			{
				"x": 2.6446105108,
				"y": -1.0345148444,
				"z": -4.2495529116,
				"element": "C" 
			},
			{
				"x": 1.1411674246,
				"y": 0.008110793,
				"z": -0.9367602644,
				"element": "S" 
			},
			{
				"x": -0.3502308546,
				"y": 0.7188236449,
				"z": -0.3550623961,
				"element": "C" 
			},
			{
				"x": -1.1719206694,
				"y": -0.2003240499,
				"z": 0.2303888484,
				"element": "C" 
			},
			{
				"x": -2.5138991101,
				"y": 0.2296942482,
				"z": 0.7777325992,
				"element": "C" 
			},
			{
				"x": -2.8699953421,
				"y": 1.6528235474,
				"z": 0.2937535968,
				"element": "C" 
			},
			{
				"x": -1.7631288008,
				"y": 2.6128009072,
				"z": 0.342291308,
				"element": "N" 
			},
			{
				"x": -1.3104869698,
				"y": 2.9191085435,
				"z": 1.7046169109,
				"element": "C" 
			},
			{
				"x": -0.4790846542,
				"y": 4.1877996452,
				"z": 1.7739093651,
				"element": "C" 
			},
			{
				"x": -0.8770059471,
				"y": 5.3406051482,
				"z": 1.0821792009,
				"element": "C" 
			},
			{
				"x": -0.1375220394,
				"y": 6.5183543974,
				"z": 1.1821079338,
				"element": "C" 
			},
			{
				"x": 1.0113270653,
				"y": 6.5628450952,
				"z": 1.977051767,
				"element": "C" 
			},
			{
				"x": 1.4172189131,
				"y": 5.4199974619,
				"z": 2.666403842,
				"element": "C" 
			},
			{
				"x": 0.6768806686,
				"y": 4.2399637359,
				"z": 2.5608276292,
				"element": "C" 
			},
			{
				"x": -0.6805454787,
				"y": 2.1830247893,
				"z": -0.5463453638,
				"element": "C" 
			},
			{
				"x": -4.9687718292,
				"y": -3.0187675448,
				"z": 1.7613271156,
				"element": "H" 
			},
			{
				"x": -4.7730668437,
				"y": -4.1932400953,
				"z": 3.0750989903,
				"element": "H" 
			},
			{
				"x": -4.2265122628,
				"y": -2.5206979348,
				"z": 3.2946854396,
				"element": "H" 
			},
			{
				"x": -3.0074732387,
				"y": -4.5519580608,
				"z": 1.3154451011,
				"element": "H" 
			},
			{
				"x": -2.270412893,
				"y": -4.0604615054,
				"z": 2.8413796344,
				"element": "H" 
			},
			{
				"x": 1.1249724889,
				"y": -3.4330889936,
				"z": 0.1912040214,
				"element": "H" 
			},
			{
				"x": 3.9840448819,
				"y": -2.1677601286,
				"z": -2.3254863644,
				"element": "H" 
			},
			{
				"x": 0.6293168061,
				"y": -3.3599464669,
				"z": -2.7900621195,
				"element": "H" 
			},
			{
				"x": -0.6594982643,
				"y": -2.9573018081,
				"z": -4.8582347443,
				"element": "H" 
			},
			{
				"x": 2.2916961739,
				"y": -0.1224486489,
				"z": -6.168919263,
				"element": "H" 
			},
			{
				"x": 3.5668704188,
				"y": -0.4877851582,
				"z": -4.0744867181,
				"element": "H" 
			},
			{
				"x": -2.4968628959,
				"y": 0.1842696849,
				"z": 1.874471653,
				"element": "H" 
			},
			{
				"x": -3.2960117184,
				"y": -0.4695902934,
				"z": 0.4688303962,
				"element": "H" 
			},
			{
				"x": -3.2086949457,
				"y": 1.602897902,
				"z": -0.7487301465,
				"element": "H" 
			},
			{
				"x": -3.7037286736,
				"y": 2.0495274295,
				"z": 0.8832723107,
				"element": "H" 
			},
			{
				"x": -0.7440604665,
				"y": 2.0929886083,
				"z": 2.1682105592,
				"element": "H" 
			},
			{
				"x": -2.2155532713,
				"y": 3.052023739,
				"z": 2.3125181726,
				"element": "H" 
			},
			{
				"x": -1.7636159687,
				"y": 5.2952449525,
				"z": 0.4570077224,
				"element": "H" 
			},
			{
				"x": -0.4573811545,
				"y": 7.4041138259,
				"z": 0.6399422185,
				"element": "H" 
			},
			{
				"x": 1.5869872802,
				"y": 7.4808787517,
				"z": 2.0542858144,
				"element": "H" 
			},
			{
				"x": 2.3128920003,
				"y": 5.4424917117,
				"z": 3.2809267198,
				"element": "H" 
			},
			{
				"x": 1.0007386823,
				"y": 3.3496394794,
				"z": 3.0950477756,
				"element": "H" 
			},
			{
				"x": 0.1945268799,
				"y": 2.8149944676,
				"z": -0.3639062074,
				"element": "H" 
			},
			{
				"x": -0.9877619638,
				"y": 2.3658138629,
				"z": -1.5863293706,
				"element": "H" 
			}
		],
		 "valence_orbital": [ 
			{
				"type": "occ",
				"energy": -0.24451,
				"method": "rhf"
			},
			{
				"type": "occ",
				"energy": -0.23061,
				"method": "rhf"
			},
			{
				"type": "occ",
				"energy": -0.22079,
				"method": "rhf"
			},
			{
				"type": "occ",
				"energy": -0.21839,
				"method": "rhf"
			},
			{
				"type": "occ",
				"energy": -0.20526,
				"method": "rhf"
			},
			{
				"type": "unocc",
				"energy": -0.06756,
				"method": "rhf"
			},
			{
				"type": "unocc",
				"energy": -0.02563,
				"method": "rhf"
			},
			{
				"type": "unocc",
				"energy": -0.02062,
				"method": "rhf"
			},
			{
				"type": "unocc",
				"energy": -0.00429,
				"method": "rhf"
			},
			{
				"type": "unocc",
				"energy": -0.00058,
				"method": "rhf"
			}
		],
		"cosmo_sigma_profile": { 
			"-0.025": 0.0,
			"-0.024": 0.0,
			"-0.023": 0.0,
			"-0.022": 0.0,
			"-0.021": 0.0,
			"-0.02": 0.0,
			"-0.019": 0.0,
			"-0.018": 0.0,
			"-0.017": 0.0,
			"-0.016": 0.0319776705979,
			"-0.015": 0.589014474537,
			"-0.014": 1.23894401385,
			"-0.013": 0.74051605751,
			"-0.012": 1.20976978165,
			"-0.011": 0.727163529557,
			"-0.01": 1.51697519094,
			"-0.009": 1.46343380443,
			"-0.008": 2.90127725924,
			"-0.007": 8.21328444189,
			"-0.006": 13.3318109536,
			"-0.005": 28.8483339194,
			"-0.004": 46.8577969246,
			"-0.003": 50.7865671432,
			"-0.002": 48.2746845395,
			"-0.001": 44.0959160223,
			"0.0": 41.0324302711,
			"0.001": 38.3547386413,
			"0.002": 39.9755548189,
			"0.003": 38.6709048645,
			"0.004": 29.9042702741,
			"0.005": 20.367548433,
			"0.006": 13.3674391087,
			"0.007": 9.02368728013,
			"0.008": 9.30204527052,
			"0.009": 6.93688451485,
			"0.01": 6.53075826602,
			"0.011": 4.83547839389,
			"0.012": 1.30774607329,
			"0.013": 0.0,
			"0.014": 0.0,
			"0.015": 0.0,
			"0.016": 0.0,
			"0.017": 0.0,
			"0.018": 0.0,
			"0.019": 0.0,
			"0.02": 0.0,
			"0.021": 0.0,
			"0.022": 0.0,
			"0.023": 0.0,
			"0.024": 0.0,
			"0.025": 0.0
		}
	}
}
