{
	 "smiles": "COC1=CC=C(NS(=O)(=O)C2=C(C=CC(N)=C2)N2CCOCC2)C=C1", 
	 "Tm": 506.15, 
	 "num_atms": 46, 
	 "gaussian": { 
		 "optdone": 1, 
		 "sigma_profile": "yes", 
		 "theory": "DFT", 
		 "functional": "B3LYP", 
		 "basiset": "6-31G**", 
		 "properties": { 
			 "R2extent": 11052.6457, 
			 "electric_dipole_moment_norm": 6.0997014181, 
			 "electric_quadrupole_moment_norm": 8.24098047504, 
			 "total_energy": -1523.68194494, 
			 "HOMO_LUMO_gap": 0.15515, 
			 "cosmo_polarized_energy": -24.8, 
			 "cosmo_cavitation_energy": 48.51, 
			 "cosmo_dispersion_energy": -34.43, 
			 "cosmo_repulsion_energy": 2.58, 
			 "cosmo_total_nonelectrostatic_energy": 16.66, 
			 "SMD_solvation_energy": 7.4 
		},
		"coords": [
			{
				"x": -1.5552611294,
				"y": 5.874061263,
				"z": -1.5831993892,
				"element": "C" 
			},
			{
				"x": -1.9344729736,
				"y": 5.5500962029,
				"z": -0.2561552798,
				"element": "O" 
			},
			{
				"x": -1.7728724518,
				"y": 4.2596119467,
				"z": 0.1629444268,
				"element": "C" 
			},
			{
				"x": -2.1417756825,
				"y": 3.9978283741,
				"z": 1.4898576739,
				"element": "C" 
			},
			{
				"x": -2.002579141,
				"y": 2.7209167122,
				"z": 2.0166448864,
				"element": "C" 
			},
			{
				"x": -1.5205045996,
				"y": 1.6696066453,
				"z": 1.2233947247,
				"element": "C" 
			},
			{
				"x": -1.4518207291,
				"y": 0.3519453135,
				"z": 1.7620316444,
				"element": "N" 
			},
			{
				"x": 0.0030121574,
				"y": -0.546489428,
				"z": 1.7733565046,
				"element": "S" 
			},
			{
				"x": -0.1223329391,
				"y": -1.3625375212,
				"z": 2.9915985116,
				"element": "O" 
			},
			{
				"x": 1.1467885979,
				"y": 0.3499863948,
				"z": 1.5908372593,
				"element": "O" 
			},
			{
				"x": -0.1415371197,
				"y": -1.5815452348,
				"z": 0.304562221,
				"element": "C" 
			},
			{
				"x": 0.9991088562,
				"y": -2.1431725882,
				"z": -0.3368777892,
				"element": "C" 
			},
			{
				"x": 0.7366336561,
				"y": -2.8019862524,
				"z": -1.5605917929,
				"element": "C" 
			},
			{
				"x": -0.5407657754,
				"y": -2.9539805602,
				"z": -2.0783400907,
				"element": "C" 
			},
			{
				"x": -1.6626548403,
				"y": -2.4651769542,
				"z": -1.3929983259,
				"element": "C" 
			},
			{
				"x": -2.9632794112,
				"y": -2.6976926394,
				"z": -1.859821285,
				"element": "N" 
			},
			{
				"x": -1.4341056194,
				"y": -1.7754660387,
				"z": -0.1998025411,
				"element": "C" 
			},
			{
				"x": 2.3053158154,
				"y": -2.0509189988,
				"z": 0.1383344467,
				"element": "N" 
			},
			{
				"x": 3.4169406308,
				"y": -2.2390259221,
				"z": -0.7913398979,
				"element": "C" 
			},
			{
				"x": 4.7268802027,
				"y": -1.8998120179,
				"z": -0.0865873654,
				"element": "C" 
			},
			{
				"x": 4.99581605,
				"y": -2.7772852833,
				"z": 1.0015140258,
				"element": "O" 
			},
			{
				"x": 3.8224394935,
				"y": -3.2431801075,
				"z": 1.668660984,
				"element": "C" 
			},
			{
				"x": 2.6526672368,
				"y": -2.2688520718,
				"z": 1.5537763878,
				"element": "C" 
			},
			{
				"x": -1.1672901574,
				"y": 1.9288860709,
				"z": -0.1020916609,
				"element": "C" 
			},
			{
				"x": -1.2779989501,
				"y": 3.2174567638,
				"z": -0.6289035128,
				"element": "C" 
			},
			{
				"x": -1.752440427,
				"y": 6.9406479649,
				"z": -1.7021513627,
				"element": "H" 
			},
			{
				"x": -2.1443619082,
				"y": 5.3151532621,
				"z": -2.322434912,
				"element": "H" 
			},
			{
				"x": -0.4884604374,
				"y": 5.6831385999,
				"z": -1.7587065077,
				"element": "H" 
			},
			{
				"x": -2.5203484363,
				"y": 4.8143547939,
				"z": 2.0956091649,
				"element": "H" 
			},
			{
				"x": -2.2709858043,
				"y": 2.5358697962,
				"z": 3.0537411134,
				"element": "H" 
			},
			{
				"x": -1.847142678,
				"y": 0.2545104746,
				"z": 2.6926029937,
				"element": "H" 
			},
			{
				"x": 1.5634392081,
				"y": -3.2316220248,
				"z": -2.1122242935,
				"element": "H" 
			},
			{
				"x": -0.6719505865,
				"y": -3.4843395519,
				"z": -3.0185930625,
				"element": "H" 
			},
			{
				"x": -3.6531416552,
				"y": -2.0378624114,
				"z": -1.5254094883,
				"element": "H" 
			},
			{
				"x": -3.0330225568,
				"y": -2.8205660408,
				"z": -2.8612319618,
				"element": "H" 
			},
			{
				"x": -2.2683685798,
				"y": -1.3378133417,
				"z": 0.3361337188,
				"element": "H" 
			},
			{
				"x": 3.4877840852,
				"y": -3.2738121955,
				"z": -1.169093417,
				"element": "H" 
			},
			{
				"x": 3.2843628806,
				"y": -1.58204555,
				"z": -1.6594716753,
				"element": "H" 
			},
			{
				"x": 5.5613530556,
				"y": -2.0004446727,
				"z": -0.7882818354,
				"element": "H" 
			},
			{
				"x": 4.695345723,
				"y": -0.854494382,
				"z": 0.2559987715,
				"element": "H" 
			},
			{
				"x": 3.5297850387,
				"y": -4.2264629645,
				"z": 1.268335171,
				"element": "H" 
			},
			{
				"x": 4.0850382159,
				"y": -3.3773376288,
				"z": 2.7235721219,
				"element": "H" 
			},
			{
				"x": 2.9087397625,
				"y": -1.3216359542,
				"z": 2.0402022772,
				"element": "H" 
			},
			{
				"x": 1.7913235102,
				"y": -2.6815267457,
				"z": 2.0843385915,
				"element": "H" 
			},
			{
				"x": -0.7998053486,
				"y": 1.1255188064,
				"z": -0.7308470535,
				"element": "H" 
			},
			{
				"x": -0.9839942389,
				"y": 3.3892956972,
				"z": -1.6573931204,
				"element": "H" 
			}
		],
		 "valence_orbital": [ 
			{
				"type": "occ",
				"energy": -0.25454,
				"method": "rhf"
			},
			{
				"type": "occ",
				"energy": -0.25074,
				"method": "rhf"
			},
			{
				"type": "occ",
				"energy": -0.24196,
				"method": "rhf"
			},
			{
				"type": "occ",
				"energy": -0.20669,
				"method": "rhf"
			},
			{
				"type": "occ",
				"energy": -0.18269,
				"method": "rhf"
			},
			{
				"type": "unocc",
				"energy": -0.02754,
				"method": "rhf"
			},
			{
				"type": "unocc",
				"energy": -0.00585,
				"method": "rhf"
			},
			{
				"type": "unocc",
				"energy": 0.0078,
				"method": "rhf"
			},
			{
				"type": "unocc",
				"energy": 0.00943,
				"method": "rhf"
			},
			{
				"type": "unocc",
				"energy": 0.05985,
				"method": "rhf"
			}
		],
		"cosmo_sigma_profile": { 
			"-0.025": 0.0,
			"-0.024": 0.0,
			"-0.023": 0.0,
			"-0.022": 0.0,
			"-0.021": 0.0,
			"-0.02": 0.0,
			"-0.019": 0.0,
			"-0.018": 0.0,
			"-0.017": 0.0,
			"-0.016": 0.0,
			"-0.015": 0.367189547929,
			"-0.014": 1.05515652535,
			"-0.013": 1.49049983749,
			"-0.012": 4.03085278103,
			"-0.011": 3.2884612101,
			"-0.01": 4.49189040567,
			"-0.009": 4.69496539373,
			"-0.008": 4.9416844681,
			"-0.007": 6.90806506861,
			"-0.006": 17.3599884195,
			"-0.005": 32.7609883653,
			"-0.004": 39.2320562787,
			"-0.003": 37.5097969456,
			"-0.002": 26.2833658704,
			"-0.001": 18.2241934583,
			"0.0": 16.6589801653,
			"0.001": 16.9159540539,
			"0.002": 18.0902919981,
			"0.003": 20.5281826365,
			"0.004": 25.7818486566,
			"0.005": 19.8299669192,
			"0.006": 8.4844568142,
			"0.007": 7.17222754927,
			"0.008": 7.17057214303,
			"0.009": 7.94494596746,
			"0.01": 10.6014512098,
			"0.011": 12.1123463232,
			"0.012": 5.30249736183,
			"0.013": 1.91608756902,
			"0.014": 1.53057568774,
			"0.015": 0.477259663013,
			"0.016": 0.0,
			"0.017": 0.0,
			"0.018": 0.0,
			"0.019": 0.0,
			"0.02": 0.0,
			"0.021": 0.0,
			"0.022": 0.0,
			"0.023": 0.0,
			"0.024": 0.0,
			"0.025": 0.0
		}
	}
}
