{
	 "smiles": "COC(=O)C1=NNC=N1", 
	 "Tm": 454.15, 
	 "num_atms": 14, 
	 "gaussian": { 
		 "optdone": 1, 
		 "sigma_profile": "yes", 
		 "theory": "DFT", 
		 "functional": "B3LYP", 
		 "basiset": "6-31G**", 
		 "properties": { 
			 "R2extent": 1501.9707, 
			 "electric_dipole_moment_norm": 3.38928139581, 
			 "electric_quadrupole_moment_norm": 19.2531684655, 
			 "total_energy": -470.120496167, 
			 "HOMO_LUMO_gap": 0.23556, 
			 "cosmo_polarized_energy": -18.94, 
			 "cosmo_cavitation_energy": 19.42, 
			 "cosmo_dispersion_energy": -14.6, 
			 "cosmo_repulsion_energy": 1.22, 
			 "cosmo_total_nonelectrostatic_energy": 6.04, 
			 "SMD_solvation_energy": 3.18 
		},
		"coords": [
			{
				"x": 1.4086729337,
				"y": 2.4687260688,
				"z": 1.8371913379,
				"element": "C" 
			},
			{
				"x": 0.3507575517,
				"y": 1.5170492342,
				"z": 1.6451889352,
				"element": "O" 
			},
			{
				"x": 0.0129698572,
				"y": 1.2995774787,
				"z": 0.3611587285,
				"element": "C" 
			},
			{
				"x": 0.5341103561,
				"y": 1.8421776727,
				"z": -0.588698769,
				"element": "O" 
			},
			{
				"x": -1.0884026076,
				"y": 0.3021805071,
				"z": 0.2550772847,
				"element": "C" 
			},
			{
				"x": -1.5632034074,
				"y": -0.0464757733,
				"z": -0.9388850565,
				"element": "N" 
			},
			{
				"x": -2.5150973579,
				"y": -0.9386272613,
				"z": -0.6072211932,
				"element": "N" 
			},
			{
				"x": -2.5792990709,
				"y": -1.0924984366,
				"z": 0.7392637088,
				"element": "C" 
			},
			{
				"x": -1.685906187,
				"y": -0.3181228907,
				"z": 1.3183644437,
				"element": "N" 
			},
			{
				"x": 2.3230745289,
				"y": 2.1340964742,
				"z": 1.3404584102,
				"element": "H" 
			},
			{
				"x": 1.5565466936,
				"y": 2.5272018113,
				"z": 2.9151700487,
				"element": "H" 
			},
			{
				"x": 1.1271837112,
				"y": 3.4447312042,
				"z": 1.4334211684,
				"element": "H" 
			},
			{
				"x": -3.0587809408,
				"y": -1.3833900665,
				"z": -1.3329509884,
				"element": "H" 
			},
			{
				"x": -3.2730260607,
				"y": -1.7603260227,
				"z": 1.2310619409,
				"element": "H" 
			}
		],
		 "valence_orbital": [ 
			{
				"type": "occ",
				"energy": -0.31361,
				"method": "rhf"
			},
			{
				"type": "occ",
				"energy": -0.2983,
				"method": "rhf"
			},
			{
				"type": "occ",
				"energy": -0.29221,
				"method": "rhf"
			},
			{
				"type": "occ",
				"energy": -0.2801,
				"method": "rhf"
			},
			{
				"type": "occ",
				"energy": -0.2712,
				"method": "rhf"
			},
			{
				"type": "unocc",
				"energy": -0.03564,
				"method": "rhf"
			},
			{
				"type": "unocc",
				"energy": 0.00449,
				"method": "rhf"
			},
			{
				"type": "unocc",
				"energy": 0.06321,
				"method": "rhf"
			},
			{
				"type": "unocc",
				"energy": 0.10774,
				"method": "rhf"
			},
			{
				"type": "unocc",
				"energy": 0.11632,
				"method": "rhf"
			}
		],
		"cosmo_sigma_profile": { 
			"-0.025": 0.0,
			"-0.024": 0.0,
			"-0.023": 0.0,
			"-0.022": 0.0,
			"-0.021": 0.0,
			"-0.02": 0.0,
			"-0.019": 0.273920985248,
			"-0.018": 2.31521571148,
			"-0.017": 1.91319666169,
			"-0.016": 0.955423331722,
			"-0.015": 0.735385831006,
			"-0.014": 1.48284726343,
			"-0.013": 1.52070474101,
			"-0.012": 1.24239757097,
			"-0.011": 3.48295398309,
			"-0.01": 3.19701727528,
			"-0.009": 2.20460477967,
			"-0.008": 1.568098326,
			"-0.007": 3.84484939918,
			"-0.006": 6.7258674127,
			"-0.005": 9.09717762386,
			"-0.004": 13.4340758748,
			"-0.003": 10.8766497068,
			"-0.002": 11.5626688412,
			"-0.001": 8.57228167124,
			"0.0": 6.72198258721,
			"0.001": 5.84261083814,
			"0.002": 3.89412974779,
			"0.003": 4.28988540345,
			"0.004": 3.71908911665,
			"0.005": 4.10989599818,
			"0.006": 4.90323561235,
			"0.007": 3.13899663385,
			"0.008": 3.44365937051,
			"0.009": 4.07508533463,
			"0.01": 4.99472802269,
			"0.011": 6.77372991984,
			"0.012": 6.0382510497,
			"0.013": 3.74046440468,
			"0.014": 3.05684960541,
			"0.015": 1.3068967627,
			"0.016": 0.587482156835,
			"0.017": 0.0,
			"0.018": 0.0,
			"0.019": 0.0,
			"0.02": 0.0,
			"0.021": 0.0,
			"0.022": 0.0,
			"0.023": 0.0,
			"0.024": 0.0,
			"0.025": 0.0
		}
	}
}
