{
	 "smiles": "O=C1NC(CC#N)=NC2=C1C(=CS2)C1CC1", 
	 "Tm": 558.15, 
	 "num_atms": 25, 
	 "gaussian": { 
		 "optdone": 1, 
		 "sigma_profile": "yes", 
		 "theory": "DFT", 
		 "functional": "B3LYP", 
		 "basiset": "6-31G**", 
		 "properties": { 
			 "R2extent": 4627.2228, 
			 "electric_dipole_moment_norm": 3.17441913742, 
			 "electric_quadrupole_moment_norm": 15.6569085036, 
			 "total_energy": -1062.22845834, 
			 "HOMO_LUMO_gap": 0.1656, 
			 "cosmo_polarized_energy": -16.7, 
			 "cosmo_cavitation_energy": 31.82, 
			 "cosmo_dispersion_energy": -23.3, 
			 "cosmo_repulsion_energy": 1.76, 
			 "cosmo_total_nonelectrostatic_energy": 10.28, 
			 "SMD_solvation_energy": 4.86 
		},
		"coords": [
			{
				"x": 0.5970356666,
				"y": 0.9232530468,
				"z": -2.0621777656,
				"element": "O" 
			},
			{
				"x": -0.2035477601,
				"y": 0.3238120752,
				"z": -1.3573624957,
				"element": "C" 
			},
			{
				"x": -1.4175875207,
				"y": -0.1455590998,
				"z": -1.928153616,
				"element": "N" 
			},
			{
				"x": -2.3945510642,
				"y": -0.818010602,
				"z": -1.2532520135,
				"element": "C" 
			},
			{
				"x": -3.6132720123,
				"y": -1.304687986,
				"z": -2.0231389466,
				"element": "C" 
			},
			{
				"x": -3.8757204372,
				"y": -0.5701904139,
				"z": -3.2612166574,
				"element": "C" 
			},
			{
				"x": -4.0421320336,
				"y": 0.0166258009,
				"z": -4.248417185,
				"element": "N" 
			},
			{
				"x": -2.3227011954,
				"y": -1.1116194644,
				"z": 0.0109526563,
				"element": "N" 
			},
			{
				"x": -1.1793943039,
				"y": -0.6986339939,
				"z": 0.6316609291,
				"element": "C" 
			},
			{
				"x": -0.1128410416,
				"y": -0.0070510064,
				"z": 0.0544477265,
				"element": "C" 
			},
			{
				"x": 0.9500684155,
				"y": 0.2883890736,
				"z": 0.9826097341,
				"element": "C" 
			},
			{
				"x": 0.6453734059,
				"y": -0.1938377672,
				"z": 2.2297781264,
				"element": "C" 
			},
			{
				"x": -0.8979194087,
				"y": -0.9989687468,
				"z": 2.3214468409,
				"element": "S" 
			},
			{
				"x": 2.19186637,
				"y": 1.0166941356,
				"z": 0.6087541761,
				"element": "C" 
			},
			{
				"x": 3.5228035177,
				"y": 0.6610438319,
				"z": 1.247876372,
				"element": "C" 
			},
			{
				"x": 2.861480694,
				"y": 1.963406949,
				"z": 1.5893545422,
				"element": "C" 
			},
			{
				"x": -1.5392760393,
				"y": 0.0892852045,
				"z": -2.9085179006,
				"element": "H" 
			},
			{
				"x": -4.4782581705,
				"y": -1.241883969,
				"z": -1.356952393,
				"element": "H" 
			},
			{
				"x": -3.4793986496,
				"y": -2.3661090791,
				"z": -2.269325066,
				"element": "H" 
			},
			{
				"x": 1.2470852676,
				"y": -0.1250317011,
				"z": 3.1257327484,
				"element": "H" 
			},
			{
				"x": 2.2185972437,
				"y": 1.304550367,
				"z": -0.4352961059,
				"element": "H" 
			},
			{
				"x": 3.5216400473,
				"y": -0.1289126313,
				"z": 1.9936983035,
				"element": "H" 
			},
			{
				"x": 4.4036813504,
				"y": 0.6737534938,
				"z": 0.6131359287,
				"element": "H" 
			},
			{
				"x": 2.4055849115,
				"y": 2.0686335521,
				"z": 2.5698235179,
				"element": "H" 
			},
			{
				"x": 3.282082747,
				"y": 2.8822489305,
				"z": 1.1921385432,
				"element": "H" 
			}
		],
		 "valence_orbital": [ 
			{
				"type": "occ",
				"energy": -0.29856,
				"method": "rhf"
			},
			{
				"type": "occ",
				"energy": -0.29637,
				"method": "rhf"
			},
			{
				"type": "occ",
				"energy": -0.27123,
				"method": "rhf"
			},
			{
				"type": "occ",
				"energy": -0.25613,
				"method": "rhf"
			},
			{
				"type": "occ",
				"energy": -0.22188,
				"method": "rhf"
			},
			{
				"type": "unocc",
				"energy": -0.05628,
				"method": "rhf"
			},
			{
				"type": "unocc",
				"energy": -0.02146,
				"method": "rhf"
			},
			{
				"type": "unocc",
				"energy": 0.00194,
				"method": "rhf"
			},
			{
				"type": "unocc",
				"energy": 0.00898,
				"method": "rhf"
			},
			{
				"type": "unocc",
				"energy": 0.01551,
				"method": "rhf"
			}
		],
		"cosmo_sigma_profile": { 
			"-0.025": 0.0,
			"-0.024": 0.0,
			"-0.023": 0.0,
			"-0.022": 0.0,
			"-0.021": 0.0,
			"-0.02": 0.0,
			"-0.019": 0.0,
			"-0.018": 0.0,
			"-0.017": 0.0,
			"-0.016": 0.0,
			"-0.015": 0.0,
			"-0.014": 0.713199679928,
			"-0.013": 0.802017858477,
			"-0.012": 1.60423470429,
			"-0.011": 4.88646819182,
			"-0.01": 6.92628184289,
			"-0.009": 5.90724578081,
			"-0.008": 8.48333738526,
			"-0.007": 8.46616865731,
			"-0.006": 7.35460621651,
			"-0.005": 12.0021019031,
			"-0.004": 16.0526910191,
			"-0.003": 14.6591262276,
			"-0.002": 13.9120450839,
			"-0.001": 14.9529137558,
			"0.0": 18.2094600012,
			"0.001": 20.6245288858,
			"0.002": 20.4145421805,
			"0.003": 19.3761600402,
			"0.004": 14.9140875592,
			"0.005": 8.39282897995,
			"0.006": 5.16487871888,
			"0.007": 4.42772486584,
			"0.008": 5.09633361153,
			"0.009": 5.76036171318,
			"0.01": 5.14585960707,
			"0.011": 4.72496868591,
			"0.012": 6.66777505868,
			"0.013": 2.66431192796,
			"0.014": 0.0236290962039,
			"0.015": 0.0,
			"0.016": 0.0,
			"0.017": 0.0,
			"0.018": 0.0,
			"0.019": 0.0,
			"0.02": 0.0,
			"0.021": 0.0,
			"0.022": 0.0,
			"0.023": 0.0,
			"0.024": 0.0,
			"0.025": 0.0
		}
	}
}
