{
	 "smiles": "OC(=O)C1=CC=C(OC2=CC(Cl)=CC=C2)C=C1", 
	 "Tm": 406.15, 
	 "num_atms": 26, 
	 "gaussian": { 
		 "optdone": 1, 
		 "sigma_profile": "yes", 
		 "theory": "DFT", 
		 "functional": "B3LYP", 
		 "basiset": "6-31G**", 
		 "properties": { 
			 "R2extent": 6726.0364, 
			 "electric_dipole_moment_norm": 5.27637166337, 
			 "electric_quadrupole_moment_norm": 21.2402876758, 
			 "total_energy": -1186.67133996, 
			 "HOMO_LUMO_gap": 0.19162, 
			 "cosmo_polarized_energy": -16.08, 
			 "cosmo_cavitation_energy": 33.43, 
			 "cosmo_dispersion_energy": -24.23, 
			 "cosmo_repulsion_energy": 1.88, 
			 "cosmo_total_nonelectrostatic_energy": 11.08, 
			 "SMD_solvation_energy": 6.75 
		},
		"coords": [
			{
				"x": -2.6741452531,
				"y": -2.8739563062,
				"z": -2.8391599572,
				"element": "O" 
			},
			{
				"x": -2.4735981681,
				"y": -1.5521082597,
				"z": -2.5803959503,
				"element": "C" 
			},
			{
				"x": -3.2449128499,
				"y": -0.730572599,
				"z": -3.0186652305,
				"element": "O" 
			},
			{
				"x": -1.279812672,
				"y": -1.1992067283,
				"z": -1.7510573294,
				"element": "C" 
			},
			{
				"x": -0.8281870246,
				"y": 0.1274100197,
				"z": -1.7908260507,
				"element": "C" 
			},
			{
				"x": 0.2726380312,
				"y": 0.5345613048,
				"z": -1.0459195432,
				"element": "C" 
			},
			{
				"x": 0.924719461,
				"y": -0.3941730625,
				"z": -0.2248631453,
				"element": "C" 
			},
			{
				"x": 2.0506985182,
				"y": -0.1033733779,
				"z": 0.5067675885,
				"element": "O" 
			},
			{
				"x": 2.3202612526,
				"y": 1.1873136138,
				"z": 0.9264491112,
				"element": "C" 
			},
			{
				"x": 1.3685598999,
				"y": 1.9385475055,
				"z": 1.6216521446,
				"element": "C" 
			},
			{
				"x": 1.7349517186,
				"y": 3.1993012487,
				"z": 2.0883732282,
				"element": "C" 
			},
			{
				"x": 0.5497304112,
				"y": 4.1574203014,
				"z": 2.9620182517,
				"element": "Cl" 
			},
			{
				"x": 3.0171003273,
				"y": 3.7124577044,
				"z": 1.8888022999,
				"element": "C" 
			},
			{
				"x": 3.9497233705,
				"y": 2.9344675623,
				"z": 1.2015717152,
				"element": "C" 
			},
			{
				"x": 3.6101076007,
				"y": 1.6729019681,
				"z": 0.7133222906,
				"element": "C" 
			},
			{
				"x": 0.4773183277,
				"y": -1.7177960722,
				"z": -0.1562499418,
				"element": "C" 
			},
			{
				"x": -0.6164157642,
				"y": -2.1133686713,
				"z": -0.9178810968,
				"element": "C" 
			},
			{
				"x": -1.8967117603,
				"y": -3.387391471,
				"z": -2.5807568041,
				"element": "H" 
			},
			{
				"x": -1.3554889446,
				"y": 0.8310162453,
				"z": -2.4259422765,
				"element": "H" 
			},
			{
				"x": 0.6244670326,
				"y": 1.5583034932,
				"z": -1.1004275649,
				"element": "H" 
			},
			{
				"x": 0.3732761465,
				"y": 1.5483886973,
				"z": 1.79735858,
				"element": "H" 
			},
			{
				"x": 3.2748908579,
				"y": 4.6955287532,
				"z": 2.2650424616,
				"element": "H" 
			},
			{
				"x": 4.9517324249,
				"y": 3.3201002208,
				"z": 1.0408060433,
				"element": "H" 
			},
			{
				"x": 4.3245013012,
				"y": 1.0580516481,
				"z": 0.1773282985,
				"element": "H" 
			},
			{
				"x": 0.9911491237,
				"y": -2.4114941158,
				"z": 0.5001974893,
				"element": "H" 
			},
			{
				"x": -0.9709533689,
				"y": -3.1364296227,
				"z": -0.8173446122,
				"element": "H" 
			}
		],
		 "valence_orbital": [ 
			{
				"type": "occ",
				"energy": -0.28082,
				"method": "rhf"
			},
			{
				"type": "occ",
				"energy": -0.27585,
				"method": "rhf"
			},
			{
				"type": "occ",
				"energy": -0.27076,
				"method": "rhf"
			},
			{
				"type": "occ",
				"energy": -0.25972,
				"method": "rhf"
			},
			{
				"type": "occ",
				"energy": -0.2419,
				"method": "rhf"
			},
			{
				"type": "unocc",
				"energy": -0.05028,
				"method": "rhf"
			},
			{
				"type": "unocc",
				"energy": -0.03396,
				"method": "rhf"
			},
			{
				"type": "unocc",
				"energy": -0.02215,
				"method": "rhf"
			},
			{
				"type": "unocc",
				"energy": -0.02004,
				"method": "rhf"
			},
			{
				"type": "unocc",
				"energy": 0.01851,
				"method": "rhf"
			}
		],
		"cosmo_sigma_profile": { 
			"-0.025": 0.0,
			"-0.024": 0.0,
			"-0.023": 0.0,
			"-0.022": 0.0,
			"-0.021": 0.0,
			"-0.02": 0.0,
			"-0.019": 0.0639984815861,
			"-0.018": 1.03316397852,
			"-0.017": 0.876323305157,
			"-0.016": 1.08973695067,
			"-0.015": 0.969060918611,
			"-0.014": 0.943480031287,
			"-0.013": 1.37785741414,
			"-0.012": 0.94778021853,
			"-0.011": 1.06871275184,
			"-0.01": 1.21414524709,
			"-0.009": 1.00674815503,
			"-0.008": 3.92690493441,
			"-0.007": 11.8006507978,
			"-0.006": 15.0348684436,
			"-0.005": 15.6945208341,
			"-0.004": 12.2871816805,
			"-0.003": 14.3485657918,
			"-0.002": 14.8657473179,
			"-0.001": 17.2718581037,
			"0.0": 19.6631356407,
			"0.001": 25.0044356658,
			"0.002": 32.258674874,
			"0.003": 24.5820065292,
			"0.004": 15.5761926852,
			"0.005": 7.25236605734,
			"0.006": 3.5409202605,
			"0.007": 4.18658289239,
			"0.008": 2.97961135709,
			"0.009": 3.26370372676,
			"0.01": 4.52948017336,
			"0.011": 5.35019539896,
			"0.012": 5.16134560004,
			"0.013": 1.98171974899,
			"0.014": 0.173531487518,
			"0.015": 0.0,
			"0.016": 0.0,
			"0.017": 0.0,
			"0.018": 0.0,
			"0.019": 0.0,
			"0.02": 0.0,
			"0.021": 0.0,
			"0.022": 0.0,
			"0.023": 0.0,
			"0.024": 0.0,
			"0.025": 0.0
		}
	}
}
