{
	 "smiles": "CC(=O)CCC1=C(C2=CC=C(C)O2)C2=CC(Cl)=CC=C2O1", 
	 "Tm": 348.15, 
	 "num_atms": 36, 
	 "gaussian": { 
		 "optdone": 1, 
		 "sigma_profile": "yes", 
		 "theory": "DFT", 
		 "functional": "B3LYP", 
		 "basiset": "6-31G**", 
		 "properties": { 
			 "R2extent": 10203.4018, 
			 "electric_dipole_moment_norm": 3.1687919796, 
			 "electric_quadrupole_moment_norm": 26.8497820356, 
			 "total_energy": -1342.70749889, 
			 "HOMO_LUMO_gap": 0.1613, 
			 "cosmo_polarized_energy": -11.49, 
			 "cosmo_cavitation_energy": 42.44, 
			 "cosmo_dispersion_energy": -29.63, 
			 "cosmo_repulsion_energy": 2.29, 
			 "cosmo_total_nonelectrostatic_energy": 15.1, 
			 "SMD_solvation_energy": 7.91 
		},
		"coords": [
			{
				"x": -2.6242633534,
				"y": 4.0580325195,
				"z": -0.5608448595,
				"element": "C" 
			},
			{
				"x": -1.9000498387,
				"y": 2.9318696801,
				"z": 0.1492736389,
				"element": "C" 
			},
			{
				"x": -2.4357185059,
				"y": 2.268632337,
				"z": 1.0186887713,
				"element": "O" 
			},
			{
				"x": -0.4713581388,
				"y": 2.639852028,
				"z": -0.3051762116,
				"element": "C" 
			},
			{
				"x": 0.3759964332,
				"y": 1.9452138269,
				"z": 0.7824998824,
				"element": "C" 
			},
			{
				"x": 1.5452158767,
				"y": 1.2046592491,
				"z": 0.2376661855,
				"element": "C" 
			},
			{
				"x": 1.6936332093,
				"y": -0.0836499905,
				"z": -0.214306036,
				"element": "C" 
			},
			{
				"x": 0.67956555,
				"y": -1.1170751307,
				"z": -0.2581451166,
				"element": "C" 
			},
			{
				"x": -0.6783804496,
				"y": -1.1512791847,
				"z": -0.0582895933,
				"element": "C" 
			},
			{
				"x": -1.0847226407,
				"y": -2.5091223423,
				"z": -0.2502859893,
				"element": "C" 
			},
			{
				"x": 0.0364520126,
				"y": -3.221570116,
				"z": -0.5603540087,
				"element": "C" 
			},
			{
				"x": 0.2969771987,
				"y": -4.6519558399,
				"z": -0.8753620521,
				"element": "C" 
			},
			{
				"x": 1.1191385285,
				"y": -2.3832946076,
				"z": -0.5681810722,
				"element": "O" 
			},
			{
				"x": 3.0776653,
				"y": -0.1920956755,
				"z": -0.6468272075,
				"element": "C" 
			},
			{
				"x": 3.8757080621,
				"y": -1.2079164034,
				"z": -1.1940738551,
				"element": "C" 
			},
			{
				"x": 5.1998518855,
				"y": -0.8963026569,
				"z": -1.4822967392,
				"element": "C" 
			},
			{
				"x": 6.2356738885,
				"y": -2.1454213536,
				"z": -2.1726991877,
				"element": "Cl" 
			},
			{
				"x": 5.7535675281,
				"y": 0.3737439909,
				"z": -1.2470966569,
				"element": "C" 
			},
			{
				"x": 4.9671040178,
				"y": 1.38742826,
				"z": -0.7031182806,
				"element": "C" 
			},
			{
				"x": 3.644611307,
				"y": 1.0733859469,
				"z": -0.4192119924,
				"element": "C" 
			},
			{
				"x": 2.7150109108,
				"y": 1.9230291273,
				"z": 0.1131495587,
				"element": "O" 
			},
			{
				"x": -3.6773353581,
				"y": 4.0642773515,
				"z": -0.2766764702,
				"element": "H" 
			},
			{
				"x": -2.1683126822,
				"y": 5.0175491906,
				"z": -0.2875490448,
				"element": "H" 
			},
			{
				"x": -2.5275315017,
				"y": 3.9600254203,
				"z": -1.6480424665,
				"element": "H" 
			},
			{
				"x": -0.5639132206,
				"y": 1.9818133567,
				"z": -1.1816992968,
				"element": "H" 
			},
			{
				"x": 0.013607045,
				"y": 3.5525883692,
				"z": -0.6680965941,
				"element": "H" 
			},
			{
				"x": -0.267910406,
				"y": 1.2543641767,
				"z": 1.3330800802,
				"element": "H" 
			},
			{
				"x": 0.7315205016,
				"y": 2.6911062131,
				"z": 1.501203177,
				"element": "H" 
			},
			{
				"x": -1.3208989408,
				"y": -0.3194965389,
				"z": 0.1909052735,
				"element": "H" 
			},
			{
				"x": -2.0875681021,
				"y": -2.9038523989,
				"z": -0.1700065248,
				"element": "H" 
			},
			{
				"x": 0.7265428201,
				"y": -4.7720076658,
				"z": -1.8769543426,
				"element": "H" 
			},
			{
				"x": 0.9986938764,
				"y": -5.0994725324,
				"z": -0.1618134592,
				"element": "H" 
			},
			{
				"x": -0.6376244407,
				"y": -5.21599961,
				"z": -0.8349209848,
				"element": "H" 
			},
			{
				"x": 3.4784569912,
				"y": -2.1962088749,
				"z": -1.3820432432,
				"element": "H" 
			},
			{
				"x": 6.793610793,
				"y": 0.5569805231,
				"z": -1.4906715657,
				"element": "H" 
			},
			{
				"x": 5.367383843,
				"y": 2.3765693551,
				"z": -0.5103237162,
				"element": "H" 
			}
		],
		 "valence_orbital": [ 
			{
				"type": "occ",
				"energy": -0.2757,
				"method": "rhf"
			},
			{
				"type": "occ",
				"energy": -0.2602,
				"method": "rhf"
			},
			{
				"type": "occ",
				"energy": -0.24595,
				"method": "rhf"
			},
			{
				"type": "occ",
				"energy": -0.23037,
				"method": "rhf"
			},
			{
				"type": "occ",
				"energy": -0.19332,
				"method": "rhf"
			},
			{
				"type": "unocc",
				"energy": -0.03202,
				"method": "rhf"
			},
			{
				"type": "unocc",
				"energy": -0.02423,
				"method": "rhf"
			},
			{
				"type": "unocc",
				"energy": -0.00144,
				"method": "rhf"
			},
			{
				"type": "unocc",
				"energy": 0.0055,
				"method": "rhf"
			},
			{
				"type": "unocc",
				"energy": 0.03528,
				"method": "rhf"
			}
		],
		"cosmo_sigma_profile": { 
			"-0.025": 0.0,
			"-0.024": 0.0,
			"-0.023": 0.0,
			"-0.022": 0.0,
			"-0.021": 0.0,
			"-0.02": 0.0,
			"-0.019": 0.0,
			"-0.018": 0.0,
			"-0.017": 0.0,
			"-0.016": 0.0,
			"-0.015": 0.0,
			"-0.014": 0.0,
			"-0.013": 0.0,
			"-0.012": 0.0,
			"-0.011": 0.0,
			"-0.01": 0.0,
			"-0.009": 0.0,
			"-0.008": 1.11826809428,
			"-0.007": 6.68026988724,
			"-0.006": 17.6411776487,
			"-0.005": 27.0830673451,
			"-0.004": 24.546224145,
			"-0.003": 26.7037349034,
			"-0.002": 28.4647434965,
			"-0.001": 30.5256468065,
			"0.0": 25.1684666785,
			"0.001": 24.5805081262,
			"0.002": 32.6467426409,
			"0.003": 34.4611225443,
			"0.004": 21.4317893386,
			"0.005": 16.8989006743,
			"0.006": 7.8190056691,
			"0.007": 2.34458070594,
			"0.008": 2.3996082056,
			"0.009": 1.70358735911,
			"0.01": 1.88636976477,
			"0.011": 2.93662427402,
			"0.012": 3.01644461732,
			"0.013": 1.01840867216,
			"0.014": 0.0294830034352,
			"0.015": 0.0,
			"0.016": 0.0,
			"0.017": 0.0,
			"0.018": 0.0,
			"0.019": 0.0,
			"0.02": 0.0,
			"0.021": 0.0,
			"0.022": 0.0,
			"0.023": 0.0,
			"0.024": 0.0,
			"0.025": 0.0
		}
	}
}
