{
	 "smiles": "CC1=NNC(NC(=O)C2CCCCC2C(O)=O)=C1", 
	 "Tm": 388.15, 
	 "num_atms": 35, 
	 "gaussian": { 
		 "optdone": 1, 
		 "sigma_profile": "yes", 
		 "theory": "DFT", 
		 "functional": "B3LYP", 
		 "basiset": "6-31G**", 
		 "properties": { 
			 "R2extent": 5328.6409, 
			 "electric_dipole_moment_norm": 2.94273611797, 
			 "electric_quadrupole_moment_norm": 23.4196575692, 
			 "total_energy": -857.472150037, 
			 "HOMO_LUMO_gap": 0.24962, 
			 "cosmo_polarized_energy": -21.41, 
			 "cosmo_cavitation_energy": 36.87, 
			 "cosmo_dispersion_energy": -25.75, 
			 "cosmo_repulsion_energy": 2.05, 
			 "cosmo_total_nonelectrostatic_energy": 13.16, 
			 "SMD_solvation_energy": 6.29 
		},
		"coords": [
			{
				"x": -1.076406907,
				"y": 4.5903671409,
				"z": 3.1005934715,
				"element": "C" 
			},
			{
				"x": -0.1582701981,
				"y": 3.4957941009,
				"z": 2.6489994034,
				"element": "C" 
			},
			{
				"x": 1.0411675045,
				"y": 3.7891102768,
				"z": 2.1370403843,
				"element": "N" 
			},
			{
				"x": 1.5905540612,
				"y": 2.5950850215,
				"z": 1.8389733472,
				"element": "N" 
			},
			{
				"x": 0.7804935287,
				"y": 1.5413718083,
				"z": 2.1515474425,
				"element": "C" 
			},
			{
				"x": 1.1973896317,
				"y": 0.2140140066,
				"z": 1.9525051984,
				"element": "N" 
			},
			{
				"x": 0.732115756,
				"y": -0.6953415984,
				"z": 1.0084057227,
				"element": "C" 
			},
			{
				"x": 1.0298410768,
				"y": -1.875088081,
				"z": 1.1186832562,
				"element": "O" 
			},
			{
				"x": -0.1003546636,
				"y": -0.1487893925,
				"z": -0.1474490842,
				"element": "C" 
			},
			{
				"x": 0.7833551364,
				"y": 0.5722265894,
				"z": -1.1982201491,
				"element": "C" 
			},
			{
				"x": -0.0688453224,
				"y": 1.1103469136,
				"z": -2.3583162899,
				"element": "C" 
			},
			{
				"x": -0.9279159136,
				"y": 0.0095474785,
				"z": -2.996935979,
				"element": "C" 
			},
			{
				"x": -1.8062169969,
				"y": -0.6878154209,
				"z": -1.9482858377,
				"element": "C" 
			},
			{
				"x": -0.9963658887,
				"y": -1.2568195938,
				"z": -0.7519209225,
				"element": "C" 
			},
			{
				"x": -0.3125928008,
				"y": -2.5573473749,
				"z": -1.1570799814,
				"element": "C" 
			},
			{
				"x": 0.8465436291,
				"y": -2.390970587,
				"z": -1.8471196265,
				"element": "O" 
			},
			{
				"x": -0.79877444,
				"y": -3.6526654241,
				"z": -0.9853563325,
				"element": "O" 
			},
			{
				"x": -0.3700758279,
				"y": 2.0939715437,
				"z": 2.6856510165,
				"element": "C" 
			},
			{
				"x": -1.3238168357,
				"y": 4.4923375335,
				"z": 4.1633142508,
				"element": "H" 
			},
			{
				"x": -2.0194776992,
				"y": 4.5780658305,
				"z": 2.5430019804,
				"element": "H" 
			},
			{
				"x": -0.5973280908,
				"y": 5.5595442222,
				"z": 2.9458902875,
				"element": "H" 
			},
			{
				"x": 2.5154415718,
				"y": 2.5486915478,
				"z": 1.4383629976,
				"element": "H" 
			},
			{
				"x": 1.7147852107,
				"y": -0.2410842975,
				"z": 2.6971909873,
				"element": "H" 
			},
			{
				"x": -0.7829758451,
				"y": 0.6083034111,
				"z": 0.25967561,
				"element": "H" 
			},
			{
				"x": 1.5349891666,
				"y": -0.1258193458,
				"z": -1.5765328492,
				"element": "H" 
			},
			{
				"x": 1.3140949955,
				"y": 1.399513474,
				"z": -0.715668643,
				"element": "H" 
			},
			{
				"x": 0.583057942,
				"y": 1.5691190922,
				"z": -3.1109037715,
				"element": "H" 
			},
			{
				"x": -0.7235853645,
				"y": 1.9102362972,
				"z": -1.9837313263,
				"element": "H" 
			},
			{
				"x": -1.5648439215,
				"y": 0.4355901858,
				"z": -3.7810601982,
				"element": "H" 
			},
			{
				"x": -0.2766629056,
				"y": -0.7267013651,
				"z": -3.4815227476,
				"element": "H" 
			},
			{
				"x": -2.3931210321,
				"y": -1.4942375895,
				"z": -2.4013678226,
				"element": "H" 
			},
			{
				"x": -2.5280638771,
				"y": 0.0353178754,
				"z": -1.5452818458,
				"element": "H" 
			},
			{
				"x": -1.7083356725,
				"y": -1.5779586136,
				"z": 0.013828879,
				"element": "H" 
			},
			{
				"x": 1.1594696896,
				"y": -3.2900385548,
				"z": -2.0444359692,
				"element": "H" 
			},
			{
				"x": -1.2303686974,
				"y": 1.5565228891,
				"z": 3.0567251409,
				"element": "H" 
			}
		],
		 "valence_orbital": [ 
			{
				"type": "occ",
				"energy": -0.27804,
				"method": "rhf"
			},
			{
				"type": "occ",
				"energy": -0.26323,
				"method": "rhf"
			},
			{
				"type": "occ",
				"energy": -0.26013,
				"method": "rhf"
			},
			{
				"type": "occ",
				"energy": -0.25741,
				"method": "rhf"
			},
			{
				"type": "occ",
				"energy": -0.24875,
				"method": "rhf"
			},
			{
				"type": "unocc",
				"energy": 0.00087,
				"method": "rhf"
			},
			{
				"type": "unocc",
				"energy": 0.01031,
				"method": "rhf"
			},
			{
				"type": "unocc",
				"energy": 0.02591,
				"method": "rhf"
			},
			{
				"type": "unocc",
				"energy": 0.05096,
				"method": "rhf"
			},
			{
				"type": "unocc",
				"energy": 0.06638,
				"method": "rhf"
			}
		],
		"cosmo_sigma_profile": { 
			"-0.025": 0.0,
			"-0.024": 0.0,
			"-0.023": 0.0,
			"-0.022": 0.0,
			"-0.021": 0.0,
			"-0.02": 0.0,
			"-0.019": 0.0,
			"-0.018": 0.222947177521,
			"-0.017": 1.30247588724,
			"-0.016": 1.9091913476,
			"-0.015": 2.19887901314,
			"-0.014": 3.22017131126,
			"-0.013": 2.41945645935,
			"-0.012": 1.18571953704,
			"-0.011": 3.06174331619,
			"-0.01": 2.94173263917,
			"-0.009": 2.80222012658,
			"-0.008": 2.3971787185,
			"-0.007": 4.38226532866,
			"-0.006": 5.16914816184,
			"-0.005": 10.868875777,
			"-0.004": 18.5440947279,
			"-0.003": 24.6368257642,
			"-0.002": 30.6829311287,
			"-0.001": 38.014511953,
			"0.0": 31.9040353001,
			"0.001": 14.6612049889,
			"0.002": 9.56625310464,
			"0.003": 9.20885754192,
			"0.004": 9.62002447933,
			"0.005": 6.79174827137,
			"0.006": 6.16521909702,
			"0.007": 3.17434559529,
			"0.008": 4.45342486303,
			"0.009": 4.23096458703,
			"0.01": 5.44343890328,
			"0.011": 7.21360693267,
			"0.012": 10.5742890128,
			"0.013": 6.25465389438,
			"0.014": 0.803980741231,
			"0.015": 1.31654460739,
			"0.016": 0.728010604559,
			"0.017": 0.0569325642252,
			"0.018": 0.0,
			"0.019": 0.0,
			"0.02": 0.0,
			"0.021": 0.0,
			"0.022": 0.0,
			"0.023": 0.0,
			"0.024": 0.0,
			"0.025": 0.0
		}
	}
}
