{
	 "smiles": "ClC(=O)C1=CC=C(S1)C(Cl)=O", 
	 "Tm": 611.15, 
	 "num_atms": 13, 
	 "gaussian": { 
		 "optdone": 1, 
		 "sigma_profile": "yes", 
		 "theory": "DFT", 
		 "functional": "B3LYP", 
		 "basiset": "6-31G**", 
		 "properties": { 
			 "R2extent": 4201.7764, 
			 "electric_dipole_moment_norm": 2.19300328545, 
			 "electric_quadrupole_moment_norm": 13.2194310517, 
			 "total_energy": -1698.85675302, 
			 "HOMO_LUMO_gap": 0.16569, 
			 "cosmo_polarized_energy": -7.28, 
			 "cosmo_cavitation_energy": 24.3, 
			 "cosmo_dispersion_energy": -18.44, 
			 "cosmo_repulsion_energy": 1.44, 
			 "cosmo_total_nonelectrostatic_energy": 7.3, 
			 "SMD_solvation_energy": 5.27 
		},
		"coords": [
			{
				"x": 3.7214510706,
				"y": -0.3846177923,
				"z": 1.1466120856,
				"element": "Cl" 
			},
			{
				"x": 2.899550338,
				"y": -0.5172444502,
				"z": -0.4662179918,
				"element": "C" 
			},
			{
				"x": 3.3477824446,
				"y": -1.2256738895,
				"z": -1.3194029124,
				"element": "O" 
			},
			{
				"x": 1.6919915849,
				"y": 0.3025245073,
				"z": -0.5809677886,
				"element": "C" 
			},
			{
				"x": 1.0941665599,
				"y": 1.1474548295,
				"z": 0.3373876059,
				"element": "C" 
			},
			{
				"x": -0.06866528,
				"y": 1.7559255922,
				"z": -0.1750057037,
				"element": "C" 
			},
			{
				"x": -0.3423012058,
				"y": 1.3676086503,
				"z": -1.4760446143,
				"element": "C" 
			},
			{
				"x": 0.8282222288,
				"y": 0.2460597562,
				"z": -2.0908930527,
				"element": "S" 
			},
			{
				"x": -1.4993724409,
				"y": 1.8632625151,
				"z": -2.2298643668,
				"element": "C" 
			},
			{
				"x": -1.6287247791,
				"y": 1.1986142674,
				"z": -3.9139519666,
				"element": "Cl" 
			},
			{
				"x": -2.3116566135,
				"y": 2.6359982373,
				"z": -1.8157921674,
				"element": "O" 
			},
			{
				"x": 1.4882892212,
				"y": 1.3108165858,
				"z": 1.331960877,
				"element": "H" 
			},
			{
				"x": -0.6970331286,
				"y": 2.4527711908,
				"z": 0.3654799959,
				"element": "H" 
			}
		],
		 "valence_orbital": [ 
			{
				"type": "occ",
				"energy": -0.33954,
				"method": "rhf"
			},
			{
				"type": "occ",
				"energy": -0.31719,
				"method": "rhf"
			},
			{
				"type": "occ",
				"energy": -0.31501,
				"method": "rhf"
			},
			{
				"type": "occ",
				"energy": -0.30211,
				"method": "rhf"
			},
			{
				"type": "occ",
				"energy": -0.29266,
				"method": "rhf"
			},
			{
				"type": "unocc",
				"energy": -0.12697,
				"method": "rhf"
			},
			{
				"type": "unocc",
				"energy": -0.05612,
				"method": "rhf"
			},
			{
				"type": "unocc",
				"energy": -0.02246,
				"method": "rhf"
			},
			{
				"type": "unocc",
				"energy": -0.00118,
				"method": "rhf"
			},
			{
				"type": "unocc",
				"energy": 0.01697,
				"method": "rhf"
			}
		],
		"cosmo_sigma_profile": { 
			"-0.025": 0.0,
			"-0.024": 0.0,
			"-0.023": 0.0,
			"-0.022": 0.0,
			"-0.021": 0.0,
			"-0.02": 0.0,
			"-0.019": 0.0,
			"-0.018": 0.0,
			"-0.017": 0.0,
			"-0.016": 0.0,
			"-0.015": 0.0,
			"-0.014": 0.0,
			"-0.013": 0.0,
			"-0.012": 0.0,
			"-0.011": 0.0,
			"-0.01": 0.882218333523,
			"-0.009": 2.89384247308,
			"-0.008": 4.15702829536,
			"-0.007": 3.52393597312,
			"-0.006": 5.75122695742,
			"-0.005": 9.16848947465,
			"-0.004": 10.8067650942,
			"-0.003": 17.8340581391,
			"-0.002": 18.7570410652,
			"-0.001": 23.7601769099,
			"0.0": 21.0367002544,
			"0.001": 14.3536451751,
			"0.002": 14.4170344489,
			"0.003": 16.9125814827,
			"0.004": 12.8726342307,
			"0.005": 4.70572486045,
			"0.006": 4.57939297237,
			"0.007": 6.54559091438,
			"0.008": 8.27045964389,
			"0.009": 2.26257265991,
			"0.01": 0.000872740567703,
			"0.011": 0.0,
			"0.012": 0.0,
			"0.013": 0.0,
			"0.014": 0.0,
			"0.015": 0.0,
			"0.016": 0.0,
			"0.017": 0.0,
			"0.018": 0.0,
			"0.019": 0.0,
			"0.02": 0.0,
			"0.021": 0.0,
			"0.022": 0.0,
			"0.023": 0.0,
			"0.024": 0.0,
			"0.0": 0.0
		}
	}
}
