{
	 "smiles": "FC(F)(F)C1=CC(Br)=C(Cl)C=C1", 
	 "Tm": 250.65, 
	 "num_atms": 15, 
	 "gaussian": { 
		 "optdone": 1, 
		 "sigma_profile": "yes", 
		 "theory": "DFT", 
		 "functional": "B3LYP", 
		 "basiset": "6-31G**", 
		 "properties": { 
			 "R2extent": 3802.7631, 
			 "electric_dipole_moment_norm": 1.14303076949, 
			 "electric_quadrupole_moment_norm": 8.1827905949, 
			 "total_energy": -3599.67190551, 
			 "HOMO_LUMO_gap": 0.21331, 
			 "cosmo_polarized_energy": -4.07, 
			 "cosmo_cavitation_energy": 25.13, 
			 "cosmo_dispersion_energy": -18.54, 
			 "cosmo_repulsion_energy": 1.42, 
			 "cosmo_total_nonelectrostatic_energy": 8.01, 
			 "SMD_solvation_energy": 4.15 
		},
		"coords": [
			{
				"x": 0.3377960716,
				"y": -3.5788040765,
				"z": -0.1699531615,
				"element": "F" 
			},
			{
				"x": 0.9121796222,
				"y": -2.3831719797,
				"z": 0.084702557,
				"element": "C" 
			},
			{
				"x": 1.3490103315,
				"y": -2.3999155476,
				"z": 1.3614238769,
				"element": "F" 
			},
			{
				"x": 2.0036410753,
				"y": -2.2941893747,
				"z": -0.7082375849,
				"element": "F" 
			},
			{
				"x": -0.0447553272,
				"y": -1.2474167644,
				"z": -0.1670155153,
				"element": "C" 
			},
			{
				"x": 0.0209235965,
				"y": -0.0972932713,
				"z": 0.617130986,
				"element": "C" 
			},
			{
				"x": -0.8278131111,
				"y": 0.9789878601,
				"z": 0.3557123985,
				"element": "C" 
			},
			{
				"x": -0.700621387,
				"y": 2.5187485658,
				"z": 1.4584556263,
				"element": "Br" 
			},
			{
				"x": -1.7458213744,
				"y": 0.8983102963,
				"z": -0.6997444707,
				"element": "C" 
			},
			{
				"x": -2.8319514018,
				"y": 2.2100224595,
				"z": -1.0724172389,
				"element": "Cl" 
			},
			{
				"x": -1.8074332026,
				"y": -0.2593121028,
				"z": -1.4816885431,
				"element": "C" 
			},
			{
				"x": -0.9607424388,
				"y": -1.3300711831,
				"z": -1.2186128072,
				"element": "C" 
			},
			{
				"x": 0.7242884982,
				"y": -0.0345146803,
				"z": 1.438044068,
				"element": "H" 
			},
			{
				"x": -2.5260541736,
				"y": -0.3094506102,
				"z": -2.2917537438,
				"element": "H" 
			},
			{
				"x": -1.0178467788,
				"y": -2.2289295912,
				"z": -1.8222464473,
				"element": "H" 
			}
		],
		 "valence_orbital": [ 
			{
				"type": "occ",
				"energy": -0.33529,
				"method": "rhf"
			},
			{
				"type": "occ",
				"energy": -0.33502,
				"method": "rhf"
			},
			{
				"type": "occ",
				"energy": -0.29828,
				"method": "rhf"
			},
			{
				"type": "occ",
				"energy": -0.27844,
				"method": "rhf"
			},
			{
				"type": "occ",
				"energy": -0.26281,
				"method": "rhf"
			},
			{
				"type": "unocc",
				"energy": -0.0495,
				"method": "rhf"
			},
			{
				"type": "unocc",
				"energy": -0.04083,
				"method": "rhf"
			},
			{
				"type": "unocc",
				"energy": -0.02294,
				"method": "rhf"
			},
			{
				"type": "unocc",
				"energy": 0.03987,
				"method": "rhf"
			},
			{
				"type": "unocc",
				"energy": 0.09842,
				"method": "rhf"
			}
		],
		"cosmo_sigma_profile": { 
			"-0.025": 0.0,
			"-0.024": 0.0,
			"-0.023": 0.0,
			"-0.022": 0.0,
			"-0.021": 0.0,
			"-0.02": 0.0,
			"-0.019": 0.0,
			"-0.018": 0.0,
			"-0.017": 0.0,
			"-0.016": 0.0,
			"-0.015": 0.0,
			"-0.014": 0.0,
			"-0.013": 0.0,
			"-0.012": 0.0,
			"-0.011": 0.0,
			"-0.01": 0.0,
			"-0.009": 0.894849880728,
			"-0.008": 5.22068081515,
			"-0.007": 5.28647727797,
			"-0.006": 6.2730761532,
			"-0.005": 6.40146905978,
			"-0.004": 6.65854724573,
			"-0.003": 10.4503548984,
			"-0.002": 10.479461666,
			"-0.001": 21.1730035391,
			"0.0": 30.5688155605,
			"0.001": 22.1835412286,
			"0.002": 32.8490758395,
			"0.003": 35.1422920358,
			"0.004": 12.0668217749,
			"0.005": 2.58003683001,
			"0.006": 0.0214815786493,
			"0.007": 0.0,
			"0.008": 0.0,
			"0.009": 0.0,
			"0.01": 0.0,
			"0.011": 0.0,
			"0.012": 0.0,
			"0.013": 0.0,
			"0.014": 0.0,
			"0.015": 0.0,
			"0.016": 0.0,
			"0.017": 0.0,
			"0.018": 0.0,
			"0.019": 0.0,
			"0.02": 0.0,
			"0.021": 0.0,
			"0.022": 0.0,
			"0.023": 0.0,
			"0.024": 0.0,
			"0.025": 0.0
		}
	}
}
