{
	 "smiles": "COC1=CC=C(C=C1)C1=NC(N)=CC(=O)N1", 
	 "Tm": 545.15, 
	 "num_atms": 27, 
	 "gaussian": { 
		 "optdone": 1, 
		 "sigma_profile": "yes", 
		 "theory": "DFT", 
		 "functional": "B3LYP", 
		 "basiset": "6-31G**", 
		 "properties": { 
			 "R2extent": 5523.9239, 
			 "electric_dipole_moment_norm": 4.71373658365, 
			 "electric_quadrupole_moment_norm": 34.5589357618, 
			 "total_energy": -740.522675186, 
			 "HOMO_LUMO_gap": 0.15685, 
			 "cosmo_polarized_energy": -20.94, 
			 "cosmo_cavitation_energy": 31.63, 
			 "cosmo_dispersion_energy": -23.56, 
			 "cosmo_repulsion_energy": 1.83, 
			 "cosmo_total_nonelectrostatic_energy": 9.9, 
			 "SMD_solvation_energy": 5.79 
		},
		"coords": [
			{
				"x": -4.717440826,
				"y": -1.2644306424,
				"z": 0.0276190967,
				"element": "C" 
			},
			{
				"x": -3.829344047,
				"y": -0.5408797215,
				"z": 0.868764682,
				"element": "O" 
			},
			{
				"x": -2.6391062698,
				"y": -0.1318103657,
				"z": 0.3567466868,
				"element": "C" 
			},
			{
				"x": -1.8063755624,
				"y": 0.5787355175,
				"z": 1.2387218763,
				"element": "C" 
			},
			{
				"x": -0.5730475226,
				"y": 1.0402286512,
				"z": 0.8139645664,
				"element": "C" 
			},
			{
				"x": -0.1308440284,
				"y": 0.8180333323,
				"z": -0.5043492228,
				"element": "C" 
			},
			{
				"x": -0.9648727936,
				"y": 0.0993000589,
				"z": -1.3698913597,
				"element": "C" 
			},
			{
				"x": -2.2088261788,
				"y": -0.3753220961,
				"z": -0.9538683961,
				"element": "C" 
			},
			{
				"x": 1.1924327388,
				"y": 1.3351206157,
				"z": -0.917826134,
				"element": "C" 
			},
			{
				"x": 2.0672977657,
				"y": 1.6680247915,
				"z": 0.0000048993,
				"element": "N" 
			},
			{
				"x": 3.2855783016,
				"y": 2.1422910991,
				"z": -0.4269933966,
				"element": "C" 
			},
			{
				"x": 4.1485642429,
				"y": 2.4327548102,
				"z": 0.5983263037,
				"element": "N" 
			},
			{
				"x": 3.6340144231,
				"y": 2.2782468922,
				"z": -1.7577326144,
				"element": "C" 
			},
			{
				"x": 2.6966003256,
				"y": 1.933411831,
				"z": -2.7818927615,
				"element": "C" 
			},
			{
				"x": 2.8207685283,
				"y": 2.007812071,
				"z": -4.0001177436,
				"element": "O" 
			},
			{
				"x": 1.4624771392,
				"y": 1.454766828,
				"z": -2.2455096854,
				"element": "N" 
			},
			{
				"x": -5.0181552226,
				"y": -0.6718675133,
				"z": -0.8453997436,
				"element": "H" 
			},
			{
				"x": -4.2719506726,
				"y": -2.2076881517,
				"z": -0.3122736888,
				"element": "H" 
			},
			{
				"x": -5.5966569619,
				"y": -1.4808321767,
				"z": 0.635644629,
				"element": "H" 
			},
			{
				"x": -2.1561742925,
				"y": 0.7538612952,
				"z": 2.2506730903,
				"element": "H" 
			},
			{
				"x": 0.0760554276,
				"y": 1.5843048949,
				"z": 1.4901521925,
				"element": "H" 
			},
			{
				"x": -0.6451141189,
				"y": -0.1368089781,
				"z": -2.3809468647,
				"element": "H" 
			},
			{
				"x": -2.821613188,
				"y": -0.9358221043,
				"z": -1.6491402168,
				"element": "H" 
			},
			{
				"x": 4.9447888044,
				"y": 3.0200638717,
				"z": 0.4084696354,
				"element": "H" 
			},
			{
				"x": 3.7310201444,
				"y": 2.5128173592,
				"z": 1.5128542291,
				"element": "H" 
			},
			{
				"x": 4.6044685789,
				"y": 2.649802584,
				"z": -2.0633030389,
				"element": "H" 
			},
			{
				"x": 0.7566552644,
				"y": 1.2605852462,
				"z": -2.9431970203,
				"element": "H" 
			}
		],
		 "valence_orbital": [ 
			{
				"type": "occ",
				"energy": -0.26713,
				"method": "rhf"
			},
			{
				"type": "occ",
				"energy": -0.25462,
				"method": "rhf"
			},
			{
				"type": "occ",
				"energy": -0.23823,
				"method": "rhf"
			},
			{
				"type": "occ",
				"energy": -0.23521,
				"method": "rhf"
			},
			{
				"type": "occ",
				"energy": -0.20497,
				"method": "rhf"
			},
			{
				"type": "unocc",
				"energy": -0.04812,
				"method": "rhf"
			},
			{
				"type": "unocc",
				"energy": -0.01555,
				"method": "rhf"
			},
			{
				"type": "unocc",
				"energy": 0.01523,
				"method": "rhf"
			},
			{
				"type": "unocc",
				"energy": 0.04337,
				"method": "rhf"
			},
			{
				"type": "unocc",
				"energy": 0.07197,
				"method": "rhf"
			}
		],
		"cosmo_sigma_profile": { 
			"-0.025": 0.0,
			"-0.024": 0.0,
			"-0.023": 0.0,
			"-0.022": 0.0451550503688,
			"-0.021": 0.139118156317,
			"-0.02": 0.123214308314,
			"-0.019": 0.270261806701,
			"-0.018": 0.433845460696,
			"-0.017": 0.398321361098,
			"-0.016": 0.34487316736,
			"-0.015": 0.455859814902,
			"-0.014": 1.6271126094,
			"-0.013": 3.16626294357,
			"-0.012": 2.95254826357,
			"-0.011": 3.76902141656,
			"-0.01": 2.70270686038,
			"-0.009": 3.20331133862,
			"-0.008": 4.13319889437,
			"-0.007": 6.43847624903,
			"-0.006": 15.8538806642,
			"-0.005": 17.7998114977,
			"-0.004": 15.6583262764,
			"-0.003": 14.4862170733,
			"-0.002": 12.1712811359,
			"-0.001": 14.1604769031,
			"0.0": 14.2319873705,
			"0.001": 14.1101754334,
			"0.002": 16.0733595233,
			"0.003": 19.3938153475,
			"0.004": 19.9894542328,
			"0.005": 7.41977921238,
			"0.006": 5.84690977529,
			"0.007": 6.583311025,
			"0.008": 3.85158976015,
			"0.009": 3.95564535342,
			"0.01": 3.30943630021,
			"0.011": 2.65535799115,
			"0.012": 1.65760098714,
			"0.013": 1.6806703799,
			"0.014": 4.69416153626,
			"0.015": 5.4818422831,
			"0.016": 1.15499699071,
			"0.017": 0.0,
			"0.018": 0.0,
			"0.019": 0.0,
			"0.02": 0.0,
			"0.021": 0.0,
			"0.022": 0.0,
			"0.023": 0.0,
			"0.024": 0.0,
			"0.025": 0.0
		}
	}
}
