{
	 "smiles": "CCCCOP(OCCCC)OCCCC", 
	 "Tm": 193.15, 
	 "num_atms": 43, 
	 "gaussian": { 
		 "optdone": 1, 
		 "sigma_profile": "yes", 
		 "theory": "DFT", 
		 "functional": "B3LYP", 
		 "basiset": "6-31G**", 
		 "properties": { 
			 "R2extent": 6144.8888, 
			 "electric_dipole_moment_norm": 1.46712162754, 
			 "electric_quadrupole_moment_norm": 6.74398849124, 
			 "total_energy": -1040.6399933, 
			 "HOMO_LUMO_gap": 0.27606, 
			 "cosmo_polarized_energy": -6.55, 
			 "cosmo_cavitation_energy": 45.41, 
			 "cosmo_dispersion_energy": -29.79, 
			 "cosmo_repulsion_energy": 2.61, 
			 "cosmo_total_nonelectrostatic_energy": 18.23, 
			 "SMD_solvation_energy": 7.64 
		},
		"coords": [
			{
				"x": 3.8450837823,
				"y": -1.8271430233,
				"z": -3.1901597874,
				"element": "C" 
			},
			{
				"x": 4.1999177759,
				"y": -1.3239671943,
				"z": -1.7848954855,
				"element": "C" 
			},
			{
				"x": 3.1777217955,
				"y": -1.6922071211,
				"z": -0.6966411874,
				"element": "C" 
			},
			{
				"x": 1.8258404745,
				"y": -1.0133603109,
				"z": -0.8747542179,
				"element": "C" 
			},
			{
				"x": 0.9755001684,
				"y": -1.4168968976,
				"z": 0.2248935717,
				"element": "O" 
			},
			{
				"x": -0.4060193727,
				"y": -0.6303263274,
				"z": 0.6080891688,
				"element": "P" 
			},
			{
				"x": -1.0308800697,
				"y": -0.4925473676,
				"z": -0.9204245821,
				"element": "O" 
			},
			{
				"x": -2.2914291348,
				"y": 0.1773397205,
				"z": -1.0847261053,
				"element": "C" 
			},
			{
				"x": -2.5956499046,
				"y": 0.2893397741,
				"z": -2.5743605778,
				"element": "C" 
			},
			{
				"x": -1.5185699311,
				"y": 1.0217669242,
				"z": -3.3914638614,
				"element": "C" 
			},
			{
				"x": -1.2208983654,
				"y": 2.4482315822,
				"z": -2.9152604512,
				"element": "C" 
			},
			{
				"x": 0.0798224517,
				"y": 0.9677455632,
				"z": 0.7335358539,
				"element": "O" 
			},
			{
				"x": 0.5488695108,
				"y": 1.4159215353,
				"z": 2.016053604,
				"element": "C" 
			},
			{
				"x": 0.3833751301,
				"y": 2.9290719971,
				"z": 2.1149311586,
				"element": "C" 
			},
			{
				"x": -1.067747207,
				"y": 3.4307939418,
				"z": 2.0525074355,
				"element": "C" 
			},
			{
				"x": -1.9434389056,
				"y": 2.9871577308,
				"z": 3.2300731836,
				"element": "C" 
			},
			{
				"x": 3.7063407287,
				"y": -2.9144291813,
				"z": -3.1952707095,
				"element": "H" 
			},
			{
				"x": 4.6410605818,
				"y": -1.5907388554,
				"z": -3.9038693359,
				"element": "H" 
			},
			{
				"x": 2.9226505095,
				"y": -1.3752087761,
				"z": -3.569061293,
				"element": "H" 
			},
			{
				"x": 5.1737742386,
				"y": -1.7367722568,
				"z": -1.4945795805,
				"element": "H" 
			},
			{
				"x": 4.3305112035,
				"y": -0.2332440726,
				"z": -1.8079974054,
				"element": "H" 
			},
			{
				"x": 3.0275451281,
				"y": -2.7791306481,
				"z": -0.6763920359,
				"element": "H" 
			},
			{
				"x": 3.5723484331,
				"y": -1.4133293668,
				"z": 0.2877851541,
				"element": "H" 
			},
			{
				"x": 1.9302700767,
				"y": 0.0778898039,
				"z": -0.8726172593,
				"element": "H" 
			},
			{
				"x": 1.3416970966,
				"y": -1.3077443453,
				"z": -1.8103423516,
				"element": "H" 
			},
			{
				"x": -3.0839843099,
				"y": -0.3894281096,
				"z": -0.5761131624,
				"element": "H" 
			},
			{
				"x": -2.2415749185,
				"y": 1.1719649951,
				"z": -0.6265082731,
				"element": "H" 
			},
			{
				"x": -2.7368927621,
				"y": -0.7191364988,
				"z": -2.9816982015,
				"element": "H" 
			},
			{
				"x": -3.5592515672,
				"y": 0.8083644474,
				"z": -2.6737080162,
				"element": "H" 
			},
			{
				"x": -1.8406425327,
				"y": 1.044208479,
				"z": -4.4401507467,
				"element": "H" 
			},
			{
				"x": -0.5958120922,
				"y": 0.4319634039,
				"z": -3.3630196326,
				"element": "H" 
			},
			{
				"x": -2.1314706177,
				"y": 3.0587106937,
				"z": -2.8796242033,
				"element": "H" 
			},
			{
				"x": -0.7725840649,
				"y": 2.4496031224,
				"z": -1.9165633546,
				"element": "H" 
			},
			{
				"x": -0.5172344403,
				"y": 2.9456797444,
				"z": -3.5909293212,
				"element": "H" 
			},
			{
				"x": -0.0008110926,
				"y": 0.9053439126,
				"z": 2.8195383678,
				"element": "H" 
			},
			{
				"x": 1.6082827565,
				"y": 1.1494536592,
				"z": 2.1260311738,
				"element": "H" 
			},
			{
				"x": 0.8484404441,
				"y": 3.2536511699,
				"z": 3.0563386329,
				"element": "H" 
			},
			{
				"x": 0.9627359937,
				"y": 3.3880662962,
				"z": 1.3044993339,
				"element": "H" 
			},
			{
				"x": -1.050762437,
				"y": 4.5269720666,
				"z": 2.0108639245,
				"element": "H" 
			},
			{
				"x": -1.5172120983,
				"y": 3.0961694637,
				"z": 1.1104866917,
				"element": "H" 
			},
			{
				"x": -1.5133261202,
				"y": 3.3047692103,
				"z": 4.1873548232,
				"element": "H" 
			},
			{
				"x": -2.9461203489,
				"y": 3.4210486032,
				"z": 3.1579475879,
				"element": "H" 
			},
			{
				"x": -2.0627759867,
				"y": 1.8990825124,
				"z": 3.2656014726,
				"element": "H" 
			}
		],
		 "valence_orbital": [ 
			{
				"type": "occ",
				"energy": -0.30819,
				"method": "rhf"
			},
			{
				"type": "occ",
				"energy": -0.29446,
				"method": "rhf"
			},
			{
				"type": "occ",
				"energy": -0.28346,
				"method": "rhf"
			},
			{
				"type": "occ",
				"energy": -0.27802,
				"method": "rhf"
			},
			{
				"type": "occ",
				"energy": -0.23764,
				"method": "rhf"
			},
			{
				"type": "unocc",
				"energy": 0.03842,
				"method": "rhf"
			},
			{
				"type": "unocc",
				"energy": 0.04382,
				"method": "rhf"
			},
			{
				"type": "unocc",
				"energy": 0.07774,
				"method": "rhf"
			},
			{
				"type": "unocc",
				"energy": 0.08668,
				"method": "rhf"
			},
			{
				"type": "unocc",
				"energy": 0.09989,
				"method": "rhf"
			}
		],
		"cosmo_sigma_profile": { 
			"-0.025": 0.0,
			"-0.024": 0.0,
			"-0.023": 0.0,
			"-0.022": 0.0,
			"-0.021": 0.0,
			"-0.02": 0.0,
			"-0.019": 0.0,
			"-0.018": 0.0,
			"-0.017": 0.0,
			"-0.016": 0.0,
			"-0.015": 0.0,
			"-0.014": 0.0,
			"-0.013": 0.0,
			"-0.012": 0.0,
			"-0.011": 0.0,
			"-0.01": 0.0,
			"-0.009": 0.0,
			"-0.008": 0.0,
			"-0.007": 0.0,
			"-0.006": 0.0,
			"-0.005": 0.420241839286,
			"-0.004": 10.5389261593,
			"-0.003": 43.2813021104,
			"-0.002": 61.8433923191,
			"-0.001": 59.5626916526,
			"0.0": 58.4907578278,
			"0.001": 49.3551407395,
			"0.002": 22.734691033,
			"0.003": 7.47808963676,
			"0.004": 8.40343200352,
			"0.005": 7.71895847122,
			"0.006": 6.9324782303,
			"0.007": 4.87869297679,
			"0.008": 3.53624036064,
			"0.009": 2.24572288756,
			"0.01": 1.29574612661,
			"0.011": 1.87823107851,
			"0.012": 0.811134975096,
			"0.013": 0.0,
			"0.014": 0.0,
			"0.015": 0.0,
			"0.016": 0.0,
			"0.017": 0.0,
			"0.018": 0.0,
			"0.019": 0.0,
			"0.02": 0.0,
			"0.021": 0.0,
			"0.022": 0.0,
			"0.023": 0.0,
			"0.024": 0.0,
			"0.025": 0.0
		}
	}
}
