{
	 "smiles": "CC(=O)OC1=CC=C(C=C1)C1=CC=C(C=C1)C(O)=O", 
	 "Tm": 549.15, 
	 "num_atms": 31, 
	 "gaussian": { 
		 "optdone": 1, 
		 "sigma_profile": "yes", 
		 "theory": "DFT", 
		 "functional": "B3LYP", 
		 "basiset": "6-31G**", 
		 "properties": { 
			 "R2extent": 9123.5018, 
			 "electric_dipole_moment_norm": 3.86001026553, 
			 "electric_quadrupole_moment_norm": 63.0749911454, 
			 "total_energy": -879.74278614, 
			 "HOMO_LUMO_gap": 0.17654, 
			 "cosmo_polarized_energy": -22.31, 
			 "cosmo_cavitation_energy": 36.7, 
			 "cosmo_dispersion_energy": -26.11, 
			 "cosmo_repulsion_energy": 2.0, 
			 "cosmo_total_nonelectrostatic_energy": 12.58, 
			 "SMD_solvation_energy": 8.51 
		},
		"coords": [
			{
				"x": -4.46354719,
				"y": 0.41720037,
				"z": -1.0667796846,
				"element": "C" 
			},
			{
				"x": -4.8800999273,
				"y": -0.8822171994,
				"z": -0.4139643912,
				"element": "C" 
			},
			{
				"x": -6.0175847581,
				"y": -1.2244877578,
				"z": -0.2317812166,
				"element": "O" 
			},
			{
				"x": -3.8717683533,
				"y": -1.7321710808,
				"z": 0.0010097341,
				"element": "O" 
			},
			{
				"x": -2.5278042256,
				"y": -1.4276790548,
				"z": -0.1666943657,
				"element": "C" 
			},
			{
				"x": -1.8344928857,
				"y": -0.7768629356,
				"z": 0.8540898842,
				"element": "C" 
			},
			{
				"x": -0.4698981819,
				"y": -0.5368607832,
				"z": 0.7119884094,
				"element": "C" 
			},
			{
				"x": 0.2245963629,
				"y": -0.9430498436,
				"z": -0.4407460625,
				"element": "C" 
			},
			{
				"x": -0.496285152,
				"y": -1.6079653002,
				"z": -1.447972076,
				"element": "C" 
			},
			{
				"x": -1.860864216,
				"y": -1.8535573707,
				"z": -1.3157904727,
				"element": "C" 
			},
			{
				"x": 1.6784152476,
				"y": -0.6839949059,
				"z": -0.5853362743,
				"element": "C" 
			},
			{
				"x": 2.5456396109,
				"y": -0.7807405042,
				"z": 0.5187952753,
				"element": "C" 
			},
			{
				"x": 3.9069796682,
				"y": -0.5386528795,
				"z": 0.3842266422,
				"element": "C" 
			},
			{
				"x": 4.4468983118,
				"y": -0.1753028268,
				"z": -0.8570682705,
				"element": "C" 
			},
			{
				"x": 3.5934792876,
				"y": -0.0913150106,
				"z": -1.9659883344,
				"element": "C" 
			},
			{
				"x": 2.2307462607,
				"y": -0.3415666468,
				"z": -1.8311680039,
				"element": "C" 
			},
			{
				"x": 5.9239642679,
				"y": 0.0658455529,
				"z": -0.9322649998,
				"element": "C" 
			},
			{
				"x": 6.3758258928,
				"y": 0.7832307876,
				"z": -1.9965435829,
				"element": "O" 
			},
			{
				"x": 6.7047779172,
				"y": -0.3417070456,
				"z": -0.1046735012,
				"element": "O" 
			},
			{
				"x": -3.864857952,
				"y": 0.2317940322,
				"z": -1.9631626107,
				"element": "H" 
			},
			{
				"x": -5.3660157669,
				"y": 0.9659311115,
				"z": -1.3323547576,
				"element": "H" 
			},
			{
				"x": -3.8502993847,
				"y": 1.0179015438,
				"z": -0.38894635,
				"element": "H" 
			},
			{
				"x": -2.366917698,
				"y": -0.4682712735,
				"z": 1.7480795946,
				"element": "H" 
			},
			{
				"x": 0.0592760604,
				"y": -0.0077022837,
				"z": 1.4983795227,
				"element": "H" 
			},
			{
				"x": 0.0227203774,
				"y": -1.9664655488,
				"z": -2.3315129923,
				"element": "H" 
			},
			{
				"x": -2.4097983845,
				"y": -2.3909623108,
				"z": -2.0824708135,
				"element": "H" 
			},
			{
				"x": 2.149729748,
				"y": -1.0782689064,
				"z": 1.4848372634,
				"element": "H" 
			},
			{
				"x": 4.5786363776,
				"y": -0.633599805,
				"z": 1.2306243748,
				"element": "H" 
			},
			{
				"x": 3.9836409059,
				"y": 0.1405305944,
				"z": -2.9543756396,
				"element": "H" 
			},
			{
				"x": 1.5842833595,
				"y": -0.2527117151,
				"z": -2.6986644714,
				"element": "H" 
			},
			{
				"x": 5.6333244192,
				"y": 1.1780789963,
				"z": -2.4738718292,
				"element": "H" 
			}
		],
		 "valence_orbital": [ 
			{
				"type": "occ",
				"energy": -0.28163,
				"method": "rhf"
			},
			{
				"type": "occ",
				"energy": -0.27991,
				"method": "rhf"
			},
			{
				"type": "occ",
				"energy": -0.27847,
				"method": "rhf"
			},
			{
				"type": "occ",
				"energy": -0.27366,
				"method": "rhf"
			},
			{
				"type": "occ",
				"energy": -0.24497,
				"method": "rhf"
			},
			{
				"type": "unocc",
				"energy": -0.06843,
				"method": "rhf"
			},
			{
				"type": "unocc",
				"energy": -0.0327,
				"method": "rhf"
			},
			{
				"type": "unocc",
				"energy": -0.02832,
				"method": "rhf"
			},
			{
				"type": "unocc",
				"energy": -0.01472,
				"method": "rhf"
			},
			{
				"type": "unocc",
				"energy": 0.00018,
				"method": "rhf"
			}
		],
		"cosmo_sigma_profile": { 
			"-0.025": 0.0,
			"-0.024": 0.0,
			"-0.023": 0.0,
			"-0.022": 0.0,
			"-0.021": 0.0,
			"-0.02": 0.0,
			"-0.019": 0.110788693786,
			"-0.018": 0.852536882678,
			"-0.017": 1.19648122825,
			"-0.016": 0.94130270547,
			"-0.015": 0.875044278721,
			"-0.014": 0.821719912072,
			"-0.013": 1.24832364104,
			"-0.012": 0.96938031965,
			"-0.011": 1.42096552597,
			"-0.01": 1.1654642022,
			"-0.009": 1.23714334223,
			"-0.008": 2.14833002325,
			"-0.007": 13.9298193418,
			"-0.006": 24.9190081324,
			"-0.005": 22.4761193362,
			"-0.004": 18.9961885932,
			"-0.003": 19.6179645559,
			"-0.002": 19.7979040571,
			"-0.001": 15.1308948845,
			"0.0": 16.1714003504,
			"0.001": 18.0786869421,
			"0.002": 21.8237457846,
			"0.003": 26.219091609,
			"0.004": 7.4784020635,
			"0.005": 4.48619815011,
			"0.006": 3.76023654134,
			"0.007": 4.8427434248,
			"0.008": 5.62212188784,
			"0.009": 6.5722086599,
			"0.01": 8.94301421235,
			"0.011": 10.8541509549,
			"0.012": 9.12330375088,
			"0.013": 2.22649131319,
			"0.014": 0.0816781935591,
			"0.015": 0.0,
			"0.016": 0.0,
			"0.017": 0.0,
			"0.018": 0.0,
			"0.019": 0.0,
			"0.02": 0.0,
			"0.021": 0.0,
			"0.022": 0.0,
			"0.023": 0.0,
			"0.024": 0.0,
			"0.0": 0.0
		}
	}
}
