{
	 "smiles": "OC(=O)C1=NN(C2=C1CCCC2)C1=CC(Br)=CC=C1", 
	 "Tm": 467.15, 
	 "num_atms": 32, 
	 "gaussian": { 
		 "optdone": 1, 
		 "sigma_profile": "yes", 
		 "theory": "DFT", 
		 "functional": "B3LYP", 
		 "basiset": "6-31G**", 
		 "properties": { 
			 "R2extent": 9251.3243, 
			 "electric_dipole_moment_norm": 3.84260066231, 
			 "electric_quadrupole_moment_norm": 9.1439239088, 
			 "total_energy": -3372.69342072, 
			 "HOMO_LUMO_gap": 0.18929, 
			 "cosmo_polarized_energy": -14.43, 
			 "cosmo_cavitation_energy": 37.58, 
			 "cosmo_dispersion_energy": -27.73, 
			 "cosmo_repulsion_energy": 2.15, 
			 "cosmo_total_nonelectrostatic_energy": 12.0, 
			 "SMD_solvation_energy": 4.79 
		},
		"coords": [
			{
				"x": 3.8337004754,
				"y": 1.9903266725,
				"z": 2.0494716428,
				"element": "O" 
			},
			{
				"x": 3.6082277482,
				"y": 1.9048186019,
				"z": 0.7206408509,
				"element": "C" 
			},
			{
				"x": 4.4795025136,
				"y": 2.100355251,
				"z": -0.108361581,
				"element": "O" 
			},
			{
				"x": 2.2205379955,
				"y": 1.5535560434,
				"z": 0.3739549129,
				"element": "C" 
			},
			{
				"x": 1.2870582707,
				"y": 1.3416038461,
				"z": 1.304600658,
				"element": "N" 
			},
			{
				"x": 0.1628782487,
				"y": 1.0578120645,
				"z": 0.6121391448,
				"element": "N" 
			},
			{
				"x": 0.3748914577,
				"y": 1.075853309,
				"z": -0.7541580675,
				"element": "C" 
			},
			{
				"x": 1.702473767,
				"y": 1.4016039733,
				"z": -0.9406244892,
				"element": "C" 
			},
			{
				"x": 2.352731347,
				"y": 1.4994738973,
				"z": -2.2904093198,
				"element": "C" 
			},
			{
				"x": 1.2847051653,
				"y": 1.4895662372,
				"z": -3.4014374037,
				"element": "C" 
			},
			{
				"x": 0.1942883775,
				"y": 0.4368689675,
				"z": -3.1400179509,
				"element": "C" 
			},
			{
				"x": -0.5948780864,
				"y": 0.742124788,
				"z": -1.849133676,
				"element": "C" 
			},
			{
				"x": -1.0165766819,
				"y": 0.732183407,
				"z": 1.3360829138,
				"element": "C" 
			},
			{
				"x": -0.8831391376,
				"y": 0.0619295315,
				"z": 2.5586547989,
				"element": "C" 
			},
			{
				"x": -2.0306834112,
				"y": -0.2550122077,
				"z": 3.2760626063,
				"element": "C" 
			},
			{
				"x": -1.857399292,
				"y": -1.1706242264,
				"z": 4.9438157544,
				"element": "Br" 
			},
			{
				"x": -3.3040715328,
				"y": 0.0686165593,
				"z": 2.8061849977,
				"element": "C" 
			},
			{
				"x": -3.4149727857,
				"y": 0.7414523755,
				"z": 1.5903128674,
				"element": "C" 
			},
			{
				"x": -2.2809425264,
				"y": 1.085205723,
				"z": 0.8541586742,
				"element": "C" 
			},
			{
				"x": 4.7726386454,
				"y": 2.2242412729,
				"z": 2.1376485391,
				"element": "H" 
			},
			{
				"x": 3.0441776925,
				"y": 0.6565546573,
				"z": -2.4233643875,
				"element": "H" 
			},
			{
				"x": 2.9759184315,
				"y": 2.3968364081,
				"z": -2.3495855712,
				"element": "H" 
			},
			{
				"x": 0.8152456641,
				"y": 2.4805383496,
				"z": -3.4659560698,
				"element": "H" 
			},
			{
				"x": 1.7605975702,
				"y": 1.305251337,
				"z": -4.3704530144,
				"element": "H" 
			},
			{
				"x": -0.501292635,
				"y": 0.3879001286,
				"z": -3.9845871299,
				"element": "H" 
			},
			{
				"x": 0.6585475938,
				"y": -0.5538076934,
				"z": -3.0521494616,
				"element": "H" 
			},
			{
				"x": -1.2271650489,
				"y": -0.1088352016,
				"z": -1.5706567184,
				"element": "H" 
			},
			{
				"x": -1.2746906045,
				"y": 1.5858530236,
				"z": -2.0347792198,
				"element": "H" 
			},
			{
				"x": 0.1030889279,
				"y": -0.1875308645,
				"z": 2.9264717412,
				"element": "H" 
			},
			{
				"x": -4.1837712712,
				"y": -0.1938842635,
				"z": 3.3817439232,
				"element": "H" 
			},
			{
				"x": -4.397337426,
				"y": 1.0160627591,
				"z": 1.2185070848,
				"element": "H" 
			},
			{
				"x": -2.3804894523,
				"y": 1.6444052728,
				"z": -0.0673770493,
				"element": "H" 
			}
		],
		 "valence_orbital": [ 
			{
				"type": "occ",
				"energy": -0.2894,
				"method": "rhf"
			},
			{
				"type": "occ",
				"energy": -0.27178,
				"method": "rhf"
			},
			{
				"type": "occ",
				"energy": -0.2549,
				"method": "rhf"
			},
			{
				"type": "occ",
				"energy": -0.24621,
				"method": "rhf"
			},
			{
				"type": "occ",
				"energy": -0.23586,
				"method": "rhf"
			},
			{
				"type": "unocc",
				"energy": -0.04657,
				"method": "rhf"
			},
			{
				"type": "unocc",
				"energy": -0.02459,
				"method": "rhf"
			},
			{
				"type": "unocc",
				"energy": -0.01104,
				"method": "rhf"
			},
			{
				"type": "unocc",
				"energy": 0.00242,
				"method": "rhf"
			},
			{
				"type": "unocc",
				"energy": 0.03174,
				"method": "rhf"
			}
		],
		"cosmo_sigma_profile": { 
			"-0.025": 0.0,
			"-0.024": 0.0,
			"-0.023": 0.0,
			"-0.022": 0.0,
			"-0.021": 0.0,
			"-0.02": 0.0,
			"-0.019": 0.0692545899053,
			"-0.018": 0.857395899306,
			"-0.017": 0.900707658668,
			"-0.016": 0.626507051754,
			"-0.015": 0.86728723672,
			"-0.014": 0.986244349225,
			"-0.013": 0.267126821421,
			"-0.012": 0.283935343336,
			"-0.011": 1.24633482726,
			"-0.01": 0.83378605426,
			"-0.009": 0.343766735831,
			"-0.008": 2.79379993109,
			"-0.007": 8.23193848891,
			"-0.006": 8.99997707711,
			"-0.005": 11.2614083238,
			"-0.004": 15.1583848298,
			"-0.003": 29.8309989403,
			"-0.002": 32.8646422805,
			"-0.001": 31.5703375995,
			"0.0": 27.6726642639,
			"0.001": 24.2871524668,
			"0.002": 29.5500602675,
			"0.003": 18.3865870101,
			"0.004": 15.1320813389,
			"0.005": 6.96985538966,
			"0.006": 4.73388755372,
			"0.007": 3.70720768186,
			"0.008": 3.28516345361,
			"0.009": 3.57654120801,
			"0.01": 3.99288914092,
			"0.011": 4.6793251093,
			"0.012": 5.10825716207,
			"0.013": 1.80492006781,
			"0.014": 0.966846204111,
			"0.015": 0.141480957015,
			"0.016": 0.0,
			"0.017": 0.0,
			"0.018": 0.0,
			"0.019": 0.0,
			"0.02": 0.0,
			"0.021": 0.0,
			"0.022": 0.0,
			"0.023": 0.0,
			"0.024": 0.0,
			"0.025": 0.0
		}
	}
}
