{
	 "smiles": "CC1=CC(=O)C2CC1C2(C)C", 
	 "Tm": 282.95, 
	 "num_atms": 25, 
	 "gaussian": { 
		 "optdone": 1, 
		 "sigma_profile": "yes", 
		 "theory": "DFT", 
		 "functional": "B3LYP", 
		 "basiset": "6-31G**", 
		 "properties": { 
			 "R2extent": 2106.644, 
			 "electric_dipole_moment_norm": 4.15477990994, 
			 "electric_quadrupole_moment_norm": 6.21872543774, 
			 "total_energy": -464.691349838, 
			 "HOMO_LUMO_gap": 0.18652, 
			 "cosmo_polarized_energy": -8.85, 
			 "cosmo_cavitation_energy": 25.72, 
			 "cosmo_dispersion_energy": -18.5, 
			 "cosmo_repulsion_energy": 1.49, 
			 "cosmo_total_nonelectrostatic_energy": 8.71, 
			 "SMD_solvation_energy": 5.01 
		},
		"coords": [
			{
				"x": -1.0669428559,
				"y": 2.690234671,
				"z": 3.0005784429,
				"element": "C" 
			},
			{
				"x": -0.7120177399,
				"y": 1.6526494239,
				"z": 1.9791389465,
				"element": "C" 
			},
			{
				"x": -1.5431129021,
				"y": 1.2390300973,
				"z": 0.9985933381,
				"element": "C" 
			},
			{
				"x": -1.0345558743,
				"y": 0.2445062472,
				"z": 0.0242771652,
				"element": "C" 
			},
			{
				"x": -1.6795636699,
				"y": -0.1541142055,
				"z": -0.9343748187,
				"element": "O" 
			},
			{
				"x": 0.3850802332,
				"y": -0.2351815449,
				"z": 0.3330749343,
				"element": "C" 
			},
			{
				"x": 0.4573503165,
				"y": -0.5274137206,
				"z": 1.8627662397,
				"element": "C" 
			},
			{
				"x": 0.662402708,
				"y": 1.0098624132,
				"z": 2.032769253,
				"element": "C" 
			},
			{
				"x": 1.3308076757,
				"y": 1.0029893193,
				"z": 0.5958287012,
				"element": "C" 
			},
			{
				"x": 1.2081765186,
				"y": 2.2338075775,
				"z": -0.3066435362,
				"element": "C" 
			},
			{
				"x": 2.8126359945,
				"y": 0.600032154,
				"z": 0.6511372371,
				"element": "C" 
			},
			{
				"x": -2.0862426873,
				"y": 3.0619741836,
				"z": 2.868903744,
				"element": "H" 
			},
			{
				"x": -0.9715255854,
				"y": 2.2856831799,
				"z": 4.0165204786,
				"element": "H" 
			},
			{
				"x": -0.376424322,
				"y": 3.541762448,
				"z": 2.9415487348,
				"element": "H" 
			},
			{
				"x": -2.5510705438,
				"y": 1.6218732289,
				"z": 0.8669404897,
				"element": "H" 
			},
			{
				"x": 0.6939464086,
				"y": -0.9964468612,
				"z": -0.3880303815,
				"element": "H" 
			},
			{
				"x": 1.331349696,
				"y": -1.1185524072,
				"z": 2.1398110703,
				"element": "H" 
			},
			{
				"x": -0.430685237,
				"y": -0.9560475155,
				"z": 2.3338332958,
				"element": "H" 
			},
			{
				"x": 1.2620040482,
				"y": 1.3760712725,
				"z": 2.8725881624,
				"element": "H" 
			},
			{
				"x": 1.8375111588,
				"y": 3.0484295181,
				"z": 0.0712316395,
				"element": "H" 
			},
			{
				"x": 0.1867133136,
				"y": 2.6074950447,
				"z": -0.3895262649,
				"element": "H" 
			},
			{
				"x": 1.5585322793,
				"y": 1.9924741205,
				"z": -1.3165409856,
				"element": "H" 
			},
			{
				"x": 3.1808891538,
				"y": 0.3787252393,
				"z": -0.3568469962,
				"element": "H" 
			},
			{
				"x": 3.0059045771,
				"y": -0.2766923934,
				"z": 1.27329266,
				"element": "H" 
			},
			{
				"x": 3.4141373357,
				"y": 1.4267485094,
				"z": 1.0468284498,
				"element": "H" 
			}
		],
		 "valence_orbital": [ 
			{
				"type": "occ",
				"energy": -0.32642,
				"method": "rhf"
			},
			{
				"type": "occ",
				"energy": -0.30786,
				"method": "rhf"
			},
			{
				"type": "occ",
				"energy": -0.29601,
				"method": "rhf"
			},
			{
				"type": "occ",
				"energy": -0.24978,
				"method": "rhf"
			},
			{
				"type": "occ",
				"energy": -0.22866,
				"method": "rhf"
			},
			{
				"type": "unocc",
				"energy": -0.04214,
				"method": "rhf"
			},
			{
				"type": "unocc",
				"energy": 0.0605,
				"method": "rhf"
			},
			{
				"type": "unocc",
				"energy": 0.07943,
				"method": "rhf"
			},
			{
				"type": "unocc",
				"energy": 0.10352,
				"method": "rhf"
			},
			{
				"type": "unocc",
				"energy": 0.1113,
				"method": "rhf"
			}
		],
		"cosmo_sigma_profile": { 
			"-0.025": 0.0,
			"-0.024": 0.0,
			"-0.023": 0.0,
			"-0.022": 0.0,
			"-0.021": 0.0,
			"-0.02": 0.0,
			"-0.019": 0.0,
			"-0.018": 0.0,
			"-0.017": 0.0,
			"-0.016": 0.0,
			"-0.015": 0.0,
			"-0.014": 0.0,
			"-0.013": 0.0,
			"-0.012": 0.0,
			"-0.011": 0.0,
			"-0.01": 0.0,
			"-0.009": 0.0,
			"-0.008": 0.0,
			"-0.007": 0.0,
			"-0.006": 0.63014786165,
			"-0.005": 7.73378836963,
			"-0.004": 17.6553727919,
			"-0.003": 28.2803383097,
			"-0.002": 32.125645672,
			"-0.001": 32.3609014998,
			"0.0": 28.2894548355,
			"0.001": 19.5170779629,
			"0.002": 5.78459347681,
			"0.003": 2.93776572417,
			"0.004": 2.21784773937,
			"0.005": 1.57264402894,
			"0.006": 1.13878131275,
			"0.007": 1.68670840958,
			"0.008": 1.73320638059,
			"0.009": 1.13703932426,
			"0.01": 1.71677282175,
			"0.011": 1.99076755432,
			"0.012": 3.19291210782,
			"0.013": 5.00074199854,
			"0.014": 3.13431692219,
			"0.015": 0.53668112782,
			"0.016": 0.0,
			"0.017": 0.0,
			"0.018": 0.0,
			"0.019": 0.0,
			"0.02": 0.0,
			"0.021": 0.0,
			"0.022": 0.0,
			"0.023": 0.0,
			"0.024": 0.0,
			"0.025": 0.0
		}
	}
}
