{
	 "smiles": "CC1=CC=CN2C(=O)C(=CN=C12)C(=O)C1=CC=CC=C1", 
	 "Tm": 419.15, 
	 "num_atms": 32, 
	 "gaussian": { 
		 "optdone": 1, 
		 "sigma_profile": "yes", 
		 "theory": "DFT", 
		 "functional": "B3LYP", 
		 "basiset": "6-31G**", 
		 "properties": { 
			 "R2extent": 7750.9249, 
			 "electric_dipole_moment_norm": 5.52037874063, 
			 "electric_quadrupole_moment_norm": 17.4987078946, 
			 "total_energy": -876.897146729, 
			 "HOMO_LUMO_gap": 0.1472, 
			 "cosmo_polarized_energy": -15.88, 
			 "cosmo_cavitation_energy": 36.37, 
			 "cosmo_dispersion_energy": -26.46, 
			 "cosmo_repulsion_energy": 1.98, 
			 "cosmo_total_nonelectrostatic_energy": 11.89, 
			 "SMD_solvation_energy": 6.28 
		},
		"coords": [
			{
				"x": 0.7023299143,
				"y": -3.2096706515,
				"z": 2.3996896439,
				"element": "C" 
			},
			{
				"x": 0.5785330664,
				"y": -1.7611117366,
				"z": 2.7811327165,
				"element": "C" 
			},
			{
				"x": 0.2923002986,
				"y": -1.3473560536,
				"z": 4.0605418272,
				"element": "C" 
			},
			{
				"x": 0.1894905975,
				"y": 0.0305850263,
				"z": 4.3779043144,
				"element": "C" 
			},
			{
				"x": 0.3753600478,
				"y": 0.9582136635,
				"z": 3.3977466303,
				"element": "C" 
			},
			{
				"x": 0.6569397612,
				"y": 0.5681535817,
				"z": 2.1091222762,
				"element": "N" 
			},
			{
				"x": 0.8287800775,
				"y": 1.6569386718,
				"z": 1.1241592374,
				"element": "C" 
			},
			{
				"x": 0.7385893008,
				"y": 2.8059610865,
				"z": 1.5316976678,
				"element": "O" 
			},
			{
				"x": 1.1081104646,
				"y": 1.1715873787,
				"z": -0.195197433,
				"element": "C" 
			},
			{
				"x": 1.24142197,
				"y": -0.1982108866,
				"z": -0.4003593637,
				"element": "C" 
			},
			{
				"x": 1.0637009901,
				"y": -1.156953506,
				"z": 0.5153291914,
				"element": "N" 
			},
			{
				"x": 0.7733797848,
				"y": -0.7718723924,
				"z": 1.7582262245,
				"element": "C" 
			},
			{
				"x": 1.4104778549,
				"y": 2.0630754189,
				"z": -1.3623245802,
				"element": "C" 
			},
			{
				"x": 2.2182204598,
				"y": 1.6684731054,
				"z": -2.2001174449,
				"element": "O" 
			},
			{
				"x": 0.7169692046,
				"y": 3.3734399597,
				"z": -1.562114883,
				"element": "C" 
			},
			{
				"x": 1.3237514442,
				"y": 4.3026532257,
				"z": -2.4221931823,
				"element": "C" 
			},
			{
				"x": 0.6997181814,
				"y": 5.5134361774,
				"z": -2.7072641817,
				"element": "C" 
			},
			{
				"x": -0.5527967681,
				"y": 5.7990976459,
				"z": -2.1562135238,
				"element": "C" 
			},
			{
				"x": -1.173508872,
				"y": 4.87147744,
				"z": -1.3171124141,
				"element": "C" 
			},
			{
				"x": -0.5392171872,
				"y": 3.6679258515,
				"z": -1.0138155034,
				"element": "C" 
			},
			{
				"x": 0.5333549001,
				"y": -3.8538154355,
				"z": 3.2660898915,
				"element": "H" 
			},
			{
				"x": -0.0163313533,
				"y": -3.4692140811,
				"z": 1.6164870636,
				"element": "H" 
			},
			{
				"x": 1.6934826949,
				"y": -3.4194752539,
				"z": 1.986487135,
				"element": "H" 
			},
			{
				"x": 0.1449712497,
				"y": -2.0888142117,
				"z": 4.8405238978,
				"element": "H" 
			},
			{
				"x": -0.0334386706,
				"y": 0.3562782653,
				"z": 5.3871654512,
				"element": "H" 
			},
			{
				"x": 0.3223187292,
				"y": 2.0305964269,
				"z": 3.5278506336,
				"element": "H" 
			},
			{
				"x": 1.5084704383,
				"y": -0.5320622265,
				"z": -1.400133359,
				"element": "H" 
			},
			{
				"x": 2.2846627583,
				"y": 4.0502564804,
				"z": -2.8576067093,
				"element": "H" 
			},
			{
				"x": 1.1834546955,
				"y": 6.2319960015,
				"z": -3.3626330318,
				"element": "H" 
			},
			{
				"x": -1.0446437373,
				"y": 6.7411630593,
				"z": -2.3823101974,
				"element": "H" 
			},
			{
				"x": -2.1508860814,
				"y": 5.0872057156,
				"z": -0.8954429285,
				"element": "H" 
			},
			{
				"x": -1.0271662146,
				"y": 2.9561422534,
				"z": -0.3586150661,
				"element": "H" 
			}
		],
		 "valence_orbital": [ 
			{
				"type": "occ",
				"energy": -0.2742,
				"method": "rhf"
			},
			{
				"type": "occ",
				"energy": -0.25007,
				"method": "rhf"
			},
			{
				"type": "occ",
				"energy": -0.24548,
				"method": "rhf"
			},
			{
				"type": "occ",
				"energy": -0.24094,
				"method": "rhf"
			},
			{
				"type": "occ",
				"energy": -0.22448,
				"method": "rhf"
			},
			{
				"type": "unocc",
				"energy": -0.07728,
				"method": "rhf"
			},
			{
				"type": "unocc",
				"energy": -0.05593,
				"method": "rhf"
			},
			{
				"type": "unocc",
				"energy": -0.03675,
				"method": "rhf"
			},
			{
				"type": "unocc",
				"energy": 0.00421,
				"method": "rhf"
			},
			{
				"type": "unocc",
				"energy": 0.0074,
				"method": "rhf"
			}
		],
		"cosmo_sigma_profile": { 
			"-0.025": 0.0,
			"-0.024": 0.0,
			"-0.023": 0.0,
			"-0.022": 0.0,
			"-0.021": 0.0,
			"-0.02": 0.0,
			"-0.019": 0.0,
			"-0.018": 0.0,
			"-0.017": 0.0,
			"-0.016": 0.0,
			"-0.015": 0.0,
			"-0.014": 0.0,
			"-0.013": 0.0,
			"-0.012": 0.0,
			"-0.011": 0.0,
			"-0.01": 0.0,
			"-0.009": 0.567167202617,
			"-0.008": 5.60731882155,
			"-0.007": 8.9242785133,
			"-0.006": 15.8500369416,
			"-0.005": 21.4486936152,
			"-0.004": 26.4455478439,
			"-0.003": 23.2897909339,
			"-0.002": 25.8341811153,
			"-0.001": 29.3322664125,
			"0.0": 26.4114130875,
			"0.001": 18.1771544206,
			"0.002": 12.6457413082,
			"0.003": 13.2826673708,
			"0.004": 14.9914602899,
			"0.005": 9.87246698162,
			"0.006": 5.11508243673,
			"0.007": 4.88959323833,
			"0.008": 4.20305548157,
			"0.009": 4.23535265447,
			"0.01": 5.4118422071,
			"0.011": 5.76616590245,
			"0.012": 8.36721622991,
			"0.013": 1.93914048694,
			"0.014": 0.112177863069,
			"0.015": 0.0,
			"0.016": 0.0,
			"0.017": 0.0,
			"0.018": 0.0,
			"0.019": 0.0,
			"0.02": 0.0,
			"0.021": 0.0,
			"0.022": 0.0,
			"0.023": 0.0,
			"0.024": 0.0,
			"0.025": 0.0
		}
	}
}
