{
	 "smiles": "CCOC(=O)COC1=CC(=CC=C1)C(O)=O", 
	 "Tm": 393.15, 
	 "num_atms": 28, 
	 "gaussian": { 
		 "optdone": 1, 
		 "sigma_profile": "yes", 
		 "theory": "DFT", 
		 "functional": "B3LYP", 
		 "basiset": "6-31G**", 
		 "properties": { 
			 "R2extent": 4696.501, 
			 "electric_dipole_moment_norm": 3.80812020425, 
			 "electric_quadrupole_moment_norm": 11.635373878, 
			 "total_energy": -802.539735181, 
			 "HOMO_LUMO_gap": 0.18275, 
			 "cosmo_polarized_energy": -15.72, 
			 "cosmo_cavitation_energy": 33.27, 
			 "cosmo_dispersion_energy": -23.45, 
			 "cosmo_repulsion_energy": 1.88, 
			 "cosmo_total_nonelectrostatic_energy": 11.7, 
			 "SMD_solvation_energy": 8.24 
		},
		"coords": [
			{
				"x": -3.2495031278,
				"y": -2.5283508727,
				"z": -2.9196319997,
				"element": "C" 
			},
			{
				"x": -2.8054830481,
				"y": -1.1256152388,
				"z": -2.5358268086,
				"element": "C" 
			},
			{
				"x": -1.3576574008,
				"y": -1.0240482123,
				"z": -2.4961434175,
				"element": "O" 
			},
			{
				"x": -0.7585453778,
				"y": -1.3909402753,
				"z": -1.3449950854,
				"element": "C" 
			},
			{
				"x": -1.3249436119,
				"y": -1.7781128074,
				"z": -0.3510625226,
				"element": "O" 
			},
			{
				"x": 0.7560154011,
				"y": -1.2525543402,
				"z": -1.5031540309,
				"element": "C" 
			},
			{
				"x": 1.4604638188,
				"y": -1.5799087792,
				"z": -0.3302398554,
				"element": "O" 
			},
			{
				"x": 1.5053704109,
				"y": -0.6777071294,
				"z": 0.7004072446,
				"element": "C" 
			},
			{
				"x": 0.8796562451,
				"y": 0.5694605236,
				"z": 0.6970938681,
				"element": "C" 
			},
			{
				"x": 1.0285120659,
				"y": 1.4152863292,
				"z": 1.807591387,
				"element": "C" 
			},
			{
				"x": 1.7889380974,
				"y": 1.0207000802,
				"z": 2.9120316896,
				"element": "C" 
			},
			{
				"x": 2.4039602102,
				"y": -0.2312557205,
				"z": 2.9039602824,
				"element": "C" 
			},
			{
				"x": 2.2670637279,
				"y": -1.0772635721,
				"z": 1.8079153413,
				"element": "C" 
			},
			{
				"x": 0.3826115049,
				"y": 2.7539687325,
				"z": 1.8508792508,
				"element": "C" 
			},
			{
				"x": -0.3277415197,
				"y": 3.0428400349,
				"z": 0.7287937821,
				"element": "O" 
			},
			{
				"x": 0.4618819692,
				"y": 3.5372206498,
				"z": 2.7766341692,
				"element": "O" 
			},
			{
				"x": -4.3399151019,
				"y": -2.5577247021,
				"z": -3.0155496623,
				"element": "H" 
			},
			{
				"x": -2.8128593898,
				"y": -2.8283960267,
				"z": -3.8767248436,
				"element": "H" 
			},
			{
				"x": -2.9548989161,
				"y": -3.2489560018,
				"z": -2.1527201714,
				"element": "H" 
			},
			{
				"x": -3.2018598705,
				"y": -0.8373834264,
				"z": -1.5594852192,
				"element": "H" 
			},
			{
				"x": -3.1068286239,
				"y": -0.3883792286,
				"z": -3.2833235548,
				"element": "H" 
			},
			{
				"x": 1.0840543541,
				"y": -1.965978678,
				"z": -2.2652733666,
				"element": "H" 
			},
			{
				"x": 0.9965868703,
				"y": -0.2476571568,
				"z": -1.8728888408,
				"element": "H" 
			},
			{
				"x": 0.2709409135,
				"y": 0.9018823966,
				"z": -0.1327044546,
				"element": "H" 
			},
			{
				"x": 1.8818058362,
				"y": 1.6967635904,
				"z": 3.7540451571,
				"element": "H" 
			},
			{
				"x": 2.9957386163,
				"y": -0.5516654871,
				"z": 3.7560740246,
				"element": "H" 
			},
			{
				"x": 2.7394145765,
				"y": -2.0537828747,
				"z": 1.783133035,
				"element": "H" 
			},
			{
				"x": -0.69777863,
				"y": 3.9283581929,
				"z": 0.8769646019,
				"element": "H" 
			}
		],
		 "valence_orbital": [ 
			{
				"type": "occ",
				"energy": -0.30912,
				"method": "rhf"
			},
			{
				"type": "occ",
				"energy": -0.28399,
				"method": "rhf"
			},
			{
				"type": "occ",
				"energy": -0.27419,
				"method": "rhf"
			},
			{
				"type": "occ",
				"energy": -0.2605,
				"method": "rhf"
			},
			{
				"type": "occ",
				"energy": -0.22876,
				"method": "rhf"
			},
			{
				"type": "unocc",
				"energy": -0.04601,
				"method": "rhf"
			},
			{
				"type": "unocc",
				"energy": 0.00167,
				"method": "rhf"
			},
			{
				"type": "unocc",
				"energy": 0.00328,
				"method": "rhf"
			},
			{
				"type": "unocc",
				"energy": 0.06325,
				"method": "rhf"
			},
			{
				"type": "unocc",
				"energy": 0.07672,
				"method": "rhf"
			}
		],
		"cosmo_sigma_profile": { 
			"-0.025": 0.0,
			"-0.024": 0.0,
			"-0.023": 0.0,
			"-0.022": 0.0,
			"-0.021": 0.0,
			"-0.02": 0.0,
			"-0.019": 0.0745879831894,
			"-0.018": 0.736470167556,
			"-0.017": 0.837202329303,
			"-0.016": 1.08031977633,
			"-0.015": 0.474749738153,
			"-0.014": 0.62635694918,
			"-0.013": 0.723171481088,
			"-0.012": 0.920871428405,
			"-0.011": 1.05628529676,
			"-0.01": 1.01823333046,
			"-0.009": 3.21904273224,
			"-0.008": 5.04832773983,
			"-0.007": 7.17482795899,
			"-0.006": 13.0003922406,
			"-0.005": 15.5269307361,
			"-0.004": 20.8729699941,
			"-0.003": 20.3191269117,
			"-0.002": 19.238682533,
			"-0.001": 19.5327141704,
			"0.0": 19.0006131895,
			"0.001": 15.9825924839,
			"0.002": 15.7203011524,
			"0.003": 19.1472328725,
			"0.004": 11.3858704141,
			"0.005": 7.89966142289,
			"0.006": 6.7701225086,
			"0.007": 6.87617472184,
			"0.008": 5.98680458429,
			"0.009": 5.10937699009,
			"0.01": 4.72153234024,
			"0.011": 8.47560181788,
			"0.012": 5.56422458724,
			"0.013": 0.0596175652423,
			"0.014": 0.0,
			"0.015": 0.0,
			"0.016": 0.0,
			"0.017": 0.0,
			"0.018": 0.0,
			"0.019": 0.0,
			"0.02": 0.0,
			"0.021": 0.0,
			"0.022": 0.0,
			"0.023": 0.0,
			"0.024": 0.0,
			"0.025": 0.0
		}
	}
}
