{
	 "smiles": "O=S(=O)(CS(=O)(=O)C1=CC=CC=C1)C1=CC=CC=C1", 
	 "Tm": 393.15, 
	 "num_atms": 31, 
	 "gaussian": { 
		 "optdone": 1, 
		 "sigma_profile": "yes", 
		 "theory": "DFT", 
		 "functional": "B3LYP", 
		 "basiset": "6-31G**", 
		 "properties": { 
			 "R2extent": 6316.7164, 
			 "electric_dipole_moment_norm": 0.0809836403232, 
			 "electric_quadrupole_moment_norm": 31.9914132564, 
			 "total_energy": -1599.74271604, 
			 "HOMO_LUMO_gap": 0.22423, 
			 "cosmo_polarized_energy": -19.43, 
			 "cosmo_cavitation_energy": 37.37, 
			 "cosmo_dispersion_energy": -27.29, 
			 "cosmo_repulsion_energy": 2.0, 
			 "cosmo_total_nonelectrostatic_energy": 12.08, 
			 "SMD_solvation_energy": 5.01 
		},
		"coords": [
			{
				"x": 2.0431548257,
				"y": 0.6337575957,
				"z": -1.8331128133,
				"element": "O" 
			},
			{
				"x": 0.7830936098,
				"y": 0.4807720634,
				"z": -1.0900706775,
				"element": "S" 
			},
			{
				"x": 0.0522278076,
				"y": -0.7936791221,
				"z": -1.0898494102,
				"element": "O" 
			},
			{
				"x": 1.2473658866,
				"y": 0.888798655,
				"z": 0.6406008014,
				"element": "C" 
			},
			{
				"x": 0.1004827233,
				"y": 0.4624460931,
				"z": 2.0117710777,
				"element": "S" 
			},
			{
				"x": -1.2791285362,
				"y": 0.6453754138,
				"z": 1.5410140447,
				"element": "O" 
			},
			{
				"x": 0.6220828676,
				"y": 1.2306715344,
				"z": 3.1524011113,
				"element": "O" 
			},
			{
				"x": 0.380618091,
				"y": -1.2788847228,
				"z": 2.3457376431,
				"element": "C" 
			},
			{
				"x": -0.3481257985,
				"y": -2.2445028401,
				"z": 1.6481062503,
				"element": "C" 
			},
			{
				"x": -0.1256541428,
				"y": -3.5893415061,
				"z": 1.9438649759,
				"element": "C" 
			},
			{
				"x": 0.8041822367,
				"y": -3.9505739181,
				"z": 2.9218161979,
				"element": "C" 
			},
			{
				"x": 1.5179270222,
				"y": -2.9709668132,
				"z": 3.6167183738,
				"element": "C" 
			},
			{
				"x": 1.3081662342,
				"y": -1.6217511152,
				"z": 3.3328950011,
				"element": "C" 
			},
			{
				"x": -0.3259335174,
				"y": 1.7931770783,
				"z": -1.6095584648,
				"element": "C" 
			},
			{
				"x": -1.6982280705,
				"y": 1.6722208452,
				"z": -1.3807821177,
				"element": "C" 
			},
			{
				"x": -2.5387324813,
				"y": 2.6972851565,
				"z": -1.8147823051,
				"element": "C" 
			},
			{
				"x": -2.0091214793,
				"y": 3.8131108629,
				"z": -2.467414192,
				"element": "C" 
			},
			{
				"x": -0.6345358124,
				"y": 3.9134911358,
				"z": -2.6963032414,
				"element": "C" 
			},
			{
				"x": 0.2200378609,
				"y": 2.8979267431,
				"z": -2.2681981649,
				"element": "C" 
			},
			{
				"x": 2.197390744,
				"y": 0.3780315994,
				"z": 0.813821667,
				"element": "H" 
			},
			{
				"x": 1.3958529441,
				"y": 1.9687160952,
				"z": 0.7125460389,
				"element": "H" 
			},
			{
				"x": -1.0586591216,
				"y": -1.9454507132,
				"z": 0.8880625011,
				"element": "H" 
			},
			{
				"x": -0.6804730487,
				"y": -4.3543115295,
				"z": 1.4097361402,
				"element": "H" 
			},
			{
				"x": 0.9705279668,
				"y": -5.0000870518,
				"z": 3.1464245159,
				"element": "H" 
			},
			{
				"x": 2.2317456163,
				"y": -3.2555085016,
				"z": 4.3836161391,
				"element": "H" 
			},
			{
				"x": 1.8329325473,
				"y": -0.8426597217,
				"z": 3.8749708786,
				"element": "H" 
			},
			{
				"x": -2.0891399193,
				"y": 0.8036102783,
				"z": -0.8663332704,
				"element": "H" 
			},
			{
				"x": -3.6079334412,
				"y": 2.6223992863,
				"z": -1.6430231265,
				"element": "H" 
			},
			{
				"x": -2.6709204816,
				"y": 4.6062736292,
				"z": -2.8028406321,
				"element": "H" 
			},
			{
				"x": -0.2281726328,
				"y": 4.7772112829,
				"z": -3.2134965781,
				"element": "H" 
			},
			{
				"x": 1.2874694998,
				"y": 2.9422422069,
				"z": -2.4548383641,
				"element": "H" 
			}
		],
		 "valence_orbital": [ 
			{
				"type": "occ",
				"energy": -0.28778,
				"method": "rhf"
			},
			{
				"type": "occ",
				"energy": -0.27946,
				"method": "rhf"
			},
			{
				"type": "occ",
				"energy": -0.27825,
				"method": "rhf"
			},
			{
				"type": "occ",
				"energy": -0.27238,
				"method": "rhf"
			},
			{
				"type": "occ",
				"energy": -0.2708,
				"method": "rhf"
			},
			{
				"type": "unocc",
				"energy": -0.04657,
				"method": "rhf"
			},
			{
				"type": "unocc",
				"energy": -0.04589,
				"method": "rhf"
			},
			{
				"type": "unocc",
				"energy": -0.02263,
				"method": "rhf"
			},
			{
				"type": "unocc",
				"energy": -0.02233,
				"method": "rhf"
			},
			{
				"type": "unocc",
				"energy": 0.02482,
				"method": "rhf"
			}
		],
		"cosmo_sigma_profile": { 
			"-0.025": 0.0,
			"-0.024": 0.0,
			"-0.023": 0.0,
			"-0.022": 0.0,
			"-0.021": 0.0,
			"-0.02": 0.0,
			"-0.019": 0.0,
			"-0.018": 0.0,
			"-0.017": 0.0,
			"-0.016": 0.0,
			"-0.015": 0.0,
			"-0.014": 0.0,
			"-0.013": 0.0,
			"-0.012": 0.773651089398,
			"-0.011": 4.18789357068,
			"-0.01": 3.99264719175,
			"-0.009": 3.61520192754,
			"-0.008": 4.52389920096,
			"-0.007": 18.0140478721,
			"-0.006": 23.1255022679,
			"-0.005": 23.3339964685,
			"-0.004": 15.9810619685,
			"-0.003": 15.2327449643,
			"-0.002": 12.8265403518,
			"-0.001": 16.2001850251,
			"0.0": 16.3926714294,
			"0.001": 21.4151140089,
			"0.002": 26.9643821872,
			"0.003": 26.4604672748,
			"0.004": 8.11417285513,
			"0.005": 5.93360611824,
			"0.006": 5.66066862196,
			"0.007": 6.28918691568,
			"0.008": 6.56390960059,
			"0.009": 7.65216342372,
			"0.01": 12.4232292858,
			"0.011": 13.0705403264,
			"0.012": 1.29575212061,
			"0.013": 0.0,
			"0.014": 0.0,
			"0.015": 0.0,
			"0.016": 0.0,
			"0.017": 0.0,
			"0.018": 0.0,
			"0.019": 0.0,
			"0.02": 0.0,
			"0.021": 0.0,
			"0.022": 0.0,
			"0.023": 0.0,
			"0.024": 0.0,
			"0.025": 0.0
		}
	}
}
