{
	 "smiles": "OC(=O)C1=CC=C(O)C(O)=C1", 
	 "Tm": 474.15, 
	 "num_atms": 17, 
	 "gaussian": { 
		 "optdone": 1, 
		 "sigma_profile": "yes", 
		 "theory": "DFT", 
		 "functional": "B3LYP", 
		 "basiset": "6-31G**", 
		 "properties": { 
			 "R2extent": 2359.3971, 
			 "electric_dipole_moment_norm": 5.89804141135, 
			 "electric_quadrupole_moment_norm": 15.1648223214, 
			 "total_energy": -571.256855834, 
			 "HOMO_LUMO_gap": 0.18714, 
			 "cosmo_polarized_energy": -19.93, 
			 "cosmo_cavitation_energy": 21.89, 
			 "cosmo_dispersion_energy": -16.59, 
			 "cosmo_repulsion_energy": 1.33, 
			 "cosmo_total_nonelectrostatic_energy": 6.62, 
			 "SMD_solvation_energy": 5.62 
		},
		"coords": [
			{
				"x": 3.3386001819,
				"y": 1.4909534513,
				"z": 2.3040411384,
				"element": "O" 
			},
			{
				"x": 2.237357862,
				"y": 0.6957986966,
				"z": 2.3965056595,
				"element": "C" 
			},
			{
				"x": 1.9036610905,
				"y": 0.255201741,
				"z": 3.4722731969,
				"element": "O" 
			},
			{
				"x": 1.4951527376,
				"y": 0.4202750395,
				"z": 1.1268059783,
				"element": "C" 
			},
			{
				"x": 0.1803284262,
				"y": -0.0455573576,
				"z": 1.2335965033,
				"element": "C" 
			},
			{
				"x": -0.5625390035,
				"y": -0.3180710102,
				"z": 0.0863330959,
				"element": "C" 
			},
			{
				"x": 0.0100252931,
				"y": -0.1404163527,
				"z": -1.170496531,
				"element": "C" 
			},
			{
				"x": -0.6258824232,
				"y": -0.3811346516,
				"z": -2.3605054967,
				"element": "O" 
			},
			{
				"x": 1.3388952594,
				"y": 0.3086606002,
				"z": -1.2914010932,
				"element": "C" 
			},
			{
				"x": 1.9079646841,
				"y": 0.462519159,
				"z": -2.5169305259,
				"element": "O" 
			},
			{
				"x": 2.0726194245,
				"y": 0.5851831111,
				"z": -0.1437425139,
				"element": "C" 
			},
			{
				"x": 3.3818840803,
				"y": 1.8989909619,
				"z": 1.4283960044,
				"element": "H" 
			},
			{
				"x": -0.2436373794,
				"y": -0.1863181629,
				"z": 2.2209036653,
				"element": "H" 
			},
			{
				"x": -1.5884255531,
				"y": -0.6705455127,
				"z": 0.1664762196,
				"element": "H" 
			},
			{
				"x": -1.517538921,
				"y": -0.7147188936,
				"z": -2.2005081981,
				"element": "H" 
			},
			{
				"x": 1.2526323825,
				"y": 0.2044113539,
				"z": -3.1824280874,
				"element": "H" 
			},
			{
				"x": 3.1079018582,
				"y": 0.8854678268,
				"z": -0.2781190155,
				"element": "H" 
			}
		],
		 "valence_orbital": [ 
			{
				"type": "occ",
				"energy": -0.3447,
				"method": "rhf"
			},
			{
				"type": "occ",
				"energy": -0.30831,
				"method": "rhf"
			},
			{
				"type": "occ",
				"energy": -0.26865,
				"method": "rhf"
			},
			{
				"type": "occ",
				"energy": -0.26131,
				"method": "rhf"
			},
			{
				"type": "occ",
				"energy": -0.22855,
				"method": "rhf"
			},
			{
				"type": "unocc",
				"energy": -0.04141,
				"method": "rhf"
			},
			{
				"type": "unocc",
				"energy": -0.01235,
				"method": "rhf"
			},
			{
				"type": "unocc",
				"energy": 0.03689,
				"method": "rhf"
			},
			{
				"type": "unocc",
				"energy": 0.05856,
				"method": "rhf"
			},
			{
				"type": "unocc",
				"energy": 0.06988,
				"method": "rhf"
			}
		],
		"cosmo_sigma_profile": { 
			"-0.025": 0.0,
			"-0.024": 0.0,
			"-0.023": 0.0,
			"-0.022": 0.0,
			"-0.021": 0.0,
			"-0.02": 0.000742483746533,
			"-0.019": 0.6619974224,
			"-0.018": 1.55457119354,
			"-0.017": 2.61440286095,
			"-0.016": 1.97612232083,
			"-0.015": 2.3016393895,
			"-0.014": 2.71979165296,
			"-0.013": 2.01755349254,
			"-0.012": 2.73632484326,
			"-0.011": 3.54098211389,
			"-0.01": 3.0682305488,
			"-0.009": 1.94492068002,
			"-0.008": 3.441704377,
			"-0.007": 4.73796805038,
			"-0.006": 5.61714470967,
			"-0.005": 6.74314731296,
			"-0.004": 5.65746811688,
			"-0.003": 6.63239453509,
			"-0.002": 6.37176593113,
			"-0.001": 6.75212790179,
			"0.0": 9.50785948666,
			"0.001": 12.9419803372,
			"0.002": 13.3244444889,
			"0.003": 13.2640954287,
			"0.004": 10.1090767085,
			"0.005": 5.61475934852,
			"0.006": 5.08744015668,
			"0.007": 4.02559300207,
			"0.008": 3.84754200658,
			"0.009": 4.27547739894,
			"0.01": 6.6205069727,
			"0.011": 6.4231482843,
			"0.012": 5.76919163857,
			"0.013": 2.53539352507,
			"0.014": 0.305225722251,
			"0.015": 0.0,
			"0.016": 0.0,
			"0.017": 0.0,
			"0.018": 0.0,
			"0.019": 0.0,
			"0.02": 0.0,
			"0.021": 0.0,
			"0.022": 0.0,
			"0.023": 0.0,
			"0.024": 0.0,
			"0.025": 0.0
		}
	}
}
