{
	 "smiles": "CC1(NC(=O)NC1=O)C1=CC(F)=C(F)C=C1", 
	 "Tm": 449.15, 
	 "num_atms": 24, 
	 "gaussian": { 
		 "optdone": 1, 
		 "sigma_profile": "yes", 
		 "theory": "DFT", 
		 "functional": "B3LYP", 
		 "basiset": "6-31G**", 
		 "properties": { 
			 "R2extent": 4024.5636, 
			 "electric_dipole_moment_norm": 2.64810867979, 
			 "electric_quadrupole_moment_norm": 7.82183987627, 
			 "total_energy": -845.540017293, 
			 "HOMO_LUMO_gap": 0.22018, 
			 "cosmo_polarized_energy": -16.51, 
			 "cosmo_cavitation_energy": 29.66, 
			 "cosmo_dispersion_energy": -20.81, 
			 "cosmo_repulsion_energy": 1.58, 
			 "cosmo_total_nonelectrostatic_energy": 10.42, 
			 "SMD_solvation_energy": 7.82 
		},
		"coords": [
			{
				"x": -1.5580105828,
				"y": 0.7339994661,
				"z": 1.5881129257,
				"element": "C" 
			},
			{
				"x": -0.5207467055,
				"y": -0.3608788486,
				"z": 1.2624069275,
				"element": "C" 
			},
			{
				"x": -1.1656639511,
				"y": -1.5956310978,
				"z": 0.8198665472,
				"element": "N" 
			},
			{
				"x": -1.0566063505,
				"y": -2.6308166451,
				"z": 1.7206951581,
				"element": "C" 
			},
			{
				"x": -1.579472468,
				"y": -3.723001852,
				"z": 1.6809861513,
				"element": "O" 
			},
			{
				"x": -0.193101338,
				"y": -2.1585427394,
				"z": 2.7307448825,
				"element": "N" 
			},
			{
				"x": 0.1507095726,
				"y": -0.8346382366,
				"z": 2.5827521309,
				"element": "C" 
			},
			{
				"x": 0.8201203685,
				"y": -0.1602110762,
				"z": 3.3357112487,
				"element": "O" 
			},
			{
				"x": 0.5394265823,
				"y": 0.1465363545,
				"z": 0.2772907803,
				"element": "C" 
			},
			{
				"x": 0.712055749,
				"y": -0.4657770658,
				"z": -0.9691817546,
				"element": "C" 
			},
			{
				"x": 1.6576674424,
				"y": 0.0271964676,
				"z": -1.8578672659,
				"element": "C" 
			},
			{
				"x": 1.8232720336,
				"y": -0.5538059418,
				"z": -3.058478446,
				"element": "F" 
			},
			{
				"x": 2.4473077813,
				"y": 1.1236249904,
				"z": -1.5198689154,
				"element": "C" 
			},
			{
				"x": 3.3536622524,
				"y": 1.577548521,
				"z": -2.4009199985,
				"element": "F" 
			},
			{
				"x": 2.2963270934,
				"y": 1.7303979801,
				"z": -0.2801561036,
				"element": "C" 
			},
			{
				"x": 1.3433906615,
				"y": 1.2448738312,
				"z": 0.6151208099,
				"element": "C" 
			},
			{
				"x": -2.0602268897,
				"y": 1.0584489517,
				"z": 0.6716615636,
				"element": "H" 
			},
			{
				"x": -2.3080235011,
				"y": 0.3545068745,
				"z": 2.2885634218,
				"element": "H" 
			},
			{
				"x": -1.0696463478,
				"y": 1.5999304155,
				"z": 2.0388233194,
				"element": "H" 
			},
			{
				"x": -1.9312919216,
				"y": -1.6097640562,
				"z": 0.1622513343,
				"element": "H" 
			},
			{
				"x": 0.0802360426,
				"y": -2.7315785901,
				"z": 3.5165273219,
				"element": "H" 
			},
			{
				"x": 0.1320714082,
				"y": -1.3339045428,
				"z": -1.2584483098,
				"element": "H" 
			},
			{
				"x": 2.9300884195,
				"y": 2.5740884851,
				"z": -0.0290394891,
				"element": "H" 
			},
			{
				"x": 1.2519546487,
				"y": 1.7006983549,
				"z": 1.5937457597,
				"element": "H" 
			}
		],
		 "valence_orbital": [ 
			{
				"type": "occ",
				"energy": -0.2982,
				"method": "rhf"
			},
			{
				"type": "occ",
				"energy": -0.28301,
				"method": "rhf"
			},
			{
				"type": "occ",
				"energy": -0.27547,
				"method": "rhf"
			},
			{
				"type": "occ",
				"energy": -0.26609,
				"method": "rhf"
			},
			{
				"type": "occ",
				"energy": -0.24949,
				"method": "rhf"
			},
			{
				"type": "unocc",
				"energy": -0.02931,
				"method": "rhf"
			},
			{
				"type": "unocc",
				"energy": -0.01991,
				"method": "rhf"
			},
			{
				"type": "unocc",
				"energy": -0.00513,
				"method": "rhf"
			},
			{
				"type": "unocc",
				"energy": 0.04885,
				"method": "rhf"
			},
			{
				"type": "unocc",
				"energy": 0.0618,
				"method": "rhf"
			}
		],
		"cosmo_sigma_profile": { 
			"-0.025": 0.0,
			"-0.024": 0.0,
			"-0.023": 0.0,
			"-0.022": 0.0,
			"-0.021": 0.0,
			"-0.02": 0.0,
			"-0.019": 0.0,
			"-0.018": 0.0,
			"-0.017": 0.560397831449,
			"-0.016": 1.6775659016,
			"-0.015": 2.28540612178,
			"-0.014": 1.67353829446,
			"-0.013": 2.35941931521,
			"-0.012": 2.22833026264,
			"-0.011": 2.1607990447,
			"-0.01": 1.47810671077,
			"-0.009": 2.16678990178,
			"-0.008": 4.1178840164,
			"-0.007": 6.44018313967,
			"-0.006": 9.9184504985,
			"-0.005": 13.3091373149,
			"-0.004": 11.865619428,
			"-0.003": 13.6955997737,
			"-0.002": 15.713543711,
			"-0.001": 18.5637690968,
			"0.0": 18.4571935201,
			"0.001": 17.1265727066,
			"0.002": 14.5778628587,
			"0.003": 18.9806102827,
			"0.004": 20.1863922431,
			"0.005": 3.69357572721,
			"0.006": 3.34142501876,
			"0.007": 1.84874850071,
			"0.008": 2.18246113365,
			"0.009": 3.04480465682,
			"0.01": 4.62379562122,
			"0.011": 5.22345248602,
			"0.012": 8.68510523988,
			"0.013": 4.52103537134,
			"0.014": 0.248503615003,
			"0.015": 0.0,
			"0.016": 0.0,
			"0.017": 0.0,
			"0.018": 0.0,
			"0.019": 0.0,
			"0.02": 0.0,
			"0.021": 0.0,
			"0.022": 0.0,
			"0.023": 0.0,
			"0.024": 0.0,
			"0.025": 0.0
		}
	}
}
