{
	 "smiles": "CN1C(=O)N(C(=O)C=C1C(F)(F)F)C1=CC=C(Cl)C(=C1)C(=O)OC(C)(C)C(=O)OCC=C", 
	 "Tm": 386.15, 
	 "num_atms": 50, 
	 "gaussian": { 
		 "optdone": 1, 
		 "sigma_profile": "yes", 
		 "theory": "DFT", 
		 "functional": "B3LYP", 
		 "basiset": "6-31G**", 
		 "properties": { 
			 "R2extent": 20545.4911, 
			 "electric_dipole_moment_norm": 5.33759312893, 
			 "electric_quadrupole_moment_norm": 21.152210722, 
			 "total_energy": -2093.55478447, 
			 "HOMO_LUMO_gap": 0.17795, 
			 "cosmo_polarized_energy": -22.34, 
			 "cosmo_cavitation_energy": 58.74, 
			 "cosmo_dispersion_energy": -37.95, 
			 "cosmo_repulsion_energy": 2.8, 
			 "cosmo_total_nonelectrostatic_energy": 23.59, 
			 "SMD_solvation_energy": 14.47 
		},
		"coords": [
			{
				"x": 4.3162221442,
				"y": -1.0391966299,
				"z": -0.7217785276,
				"element": "C" 
			},
			{
				"x": 3.2022703313,
				"y": -0.5749729201,
				"z": -1.5702979429,
				"element": "N" 
			},
			{
				"x": 1.9300291264,
				"y": -1.0915464144,
				"z": -1.2553297651,
				"element": "C" 
			},
			{
				"x": 1.7646099014,
				"y": -1.8514781209,
				"z": -0.3185165172,
				"element": "O" 
			},
			{
				"x": 0.8755424824,
				"y": -0.6741311017,
				"z": -2.079531086,
				"element": "N" 
			},
			{
				"x": 1.0037112041,
				"y": 0.1875989363,
				"z": -3.2057063691,
				"element": "C" 
			},
			{
				"x": 0.0414502543,
				"y": 0.4831737139,
				"z": -3.892435664,
				"element": "O" 
			},
			{
				"x": 2.3581855381,
				"y": 0.6580290115,
				"z": -3.4412214654,
				"element": "C" 
			},
			{
				"x": 3.379341718,
				"y": 0.2726723873,
				"z": -2.64703136,
				"element": "C" 
			},
			{
				"x": 4.7787628157,
				"y": 0.7933186198,
				"z": -2.9290794024,
				"element": "C" 
			},
			{
				"x": 5.6531066796,
				"y": -0.2168616537,
				"z": -3.1166483585,
				"element": "F" 
			},
			{
				"x": 5.237824957,
				"y": 1.5455060857,
				"z": -1.9045679005,
				"element": "F" 
			},
			{
				"x": 4.7988788981,
				"y": 1.5573253889,
				"z": -4.0301860645,
				"element": "F" 
			},
			{
				"x": -0.4407438514,
				"y": -1.1752600809,
				"z": -1.7636651722,
				"element": "C" 
			},
			{
				"x": -1.1246428607,
				"y": -1.9659015947,
				"z": -2.6860990627,
				"element": "C" 
			},
			{
				"x": -2.4005794817,
				"y": -2.4269087965,
				"z": -2.3818462448,
				"element": "C" 
			},
			{
				"x": -2.9920141285,
				"y": -2.1207050329,
				"z": -1.1544735612,
				"element": "C" 
			},
			{
				"x": -4.610232932,
				"y": -2.7292704852,
				"z": -0.8914170186,
				"element": "Cl" 
			},
			{
				"x": -2.3095497369,
				"y": -1.3273325162,
				"z": -0.211742158,
				"element": "C" 
			},
			{
				"x": -1.0325902422,
				"y": -0.8528198776,
				"z": -0.549139454,
				"element": "C" 
			},
			{
				"x": -2.8683366496,
				"y": -0.9975401636,
				"z": 1.1381971138,
				"element": "C" 
			},
			{
				"x": -3.7328192789,
				"y": -1.6237867113,
				"z": 1.7130693367,
				"element": "O" 
			},
			{
				"x": -2.2678175744,
				"y": 0.1001603532,
				"z": 1.6559672773,
				"element": "O" 
			},
			{
				"x": -2.64018557,
				"y": 0.5223638552,
				"z": 2.9999508201,
				"element": "C" 
			},
			{
				"x": -2.0855146764,
				"y": -0.4510577801,
				"z": 4.0390577146,
				"element": "C" 
			},
			{
				"x": -2.0223980312,
				"y": 1.9199851668,
				"z": 3.1339782012,
				"element": "C" 
			},
			{
				"x": -4.1682113468,
				"y": 0.658267968,
				"z": 3.1425878229,
				"element": "C" 
			},
			{
				"x": -4.7590915022,
				"y": 0.4623201021,
				"z": 4.1810016711,
				"element": "O" 
			},
			{
				"x": -4.7344532883,
				"y": 1.1290185146,
				"z": 2.0181286985,
				"element": "O" 
			},
			{
				"x": -6.1798798459,
				"y": 1.2622147248,
				"z": 2.051165194,
				"element": "C" 
			},
			{
				"x": -6.6580695275,
				"y": 1.4087806908,
				"z": 0.6417516675,
				"element": "C" 
			},
			{
				"x": -7.4225189982,
				"y": 2.414598452,
				"z": 0.2189531667,
				"element": "C" 
			},
			{
				"x": 3.8732013325,
				"y": -1.522093932,
				"z": 0.14482667,
				"element": "H" 
			},
			{
				"x": 4.9234561928,
				"y": -0.1913868095,
				"z": -0.4089300432,
				"element": "H" 
			},
			{
				"x": 4.9371141802,
				"y": -1.7568353687,
				"z": -1.2618687324,
				"element": "H" 
			},
			{
				"x": 2.5122796242,
				"y": 1.3241511487,
				"z": -4.2763661206,
				"element": "H" 
			},
			{
				"x": -0.6716039286,
				"y": -2.2084769414,
				"z": -3.6401905028,
				"element": "H" 
			},
			{
				"x": -2.9490744663,
				"y": -3.0292122339,
				"z": -3.0965790086,
				"element": "H" 
			},
			{
				"x": -0.5028283879,
				"y": -0.2377146934,
				"z": 0.1652447339,
				"element": "H" 
			},
			{
				"x": -2.3288004038,
				"y": -0.0940114214,
				"z": 5.0414398827,
				"element": "H" 
			},
			{
				"x": -0.9987763783,
				"y": -0.5157899649,
				"z": 3.9347548874,
				"element": "H" 
			},
			{
				"x": -2.5230418227,
				"y": -1.442054103,
				"z": 3.9153491608,
				"element": "H" 
			},
			{
				"x": -2.4075027717,
				"y": 2.5829968288,
				"z": 2.3559564005,
				"element": "H" 
			},
			{
				"x": -0.9348652516,
				"y": 1.8554969214,
				"z": 3.0391360022,
				"element": "H" 
			},
			{
				"x": -2.2641640886,
				"y": 2.3408702773,
				"z": 4.1136409716,
				"element": "H" 
			},
			{
				"x": -6.4475272325,
				"y": 2.1267832593,
				"z": 2.6672608111,
				"element": "H" 
			},
			{
				"x": -6.5892450708,
				"y": 0.3662796702,
				"z": 2.5298134853,
				"element": "H" 
			},
			{
				"x": -6.3666814063,
				"y": 0.6101929356,
				"z": -0.0384801189,
				"element": "H" 
			},
			{
				"x": -7.7848964762,
				"y": 2.4643052077,
				"z": -0.8032276769,
				"element": "H" 
			},
			{
				"x": -7.7212301716,
				"y": 3.2228351279,
				"z": 0.8825236085,
				"element": "H" 
			}
		],
		 "valence_orbital": [ 
			{
				"type": "occ",
				"energy": -0.27519,
				"method": "rhf"
			},
			{
				"type": "occ",
				"energy": -0.26948,
				"method": "rhf"
			},
			{
				"type": "occ",
				"energy": -0.26388,
				"method": "rhf"
			},
			{
				"type": "occ",
				"energy": -0.25936,
				"method": "rhf"
			},
			{
				"type": "occ",
				"energy": -0.25271,
				"method": "rhf"
			},
			{
				"type": "unocc",
				"energy": -0.07476,
				"method": "rhf"
			},
			{
				"type": "unocc",
				"energy": -0.05647,
				"method": "rhf"
			},
			{
				"type": "unocc",
				"energy": -0.02727,
				"method": "rhf"
			},
			{
				"type": "unocc",
				"energy": -0.00691,
				"method": "rhf"
			},
			{
				"type": "unocc",
				"energy": 0.00668,
				"method": "rhf"
			}
		],
		"cosmo_sigma_profile": { 
			"-0.025": 0.0,
			"-0.024": 0.0,
			"-0.023": 0.0,
			"-0.022": 0.0,
			"-0.021": 0.0,
			"-0.02": 0.0,
			"-0.019": 0.0,
			"-0.018": 0.0,
			"-0.017": 0.0,
			"-0.016": 0.0,
			"-0.015": 0.0,
			"-0.014": 0.0,
			"-0.013": 0.0,
			"-0.012": 0.0,
			"-0.011": 0.0,
			"-0.01": 0.0,
			"-0.009": 1.23644221669,
			"-0.008": 5.59552508971,
			"-0.007": 11.6364174644,
			"-0.006": 22.3247898918,
			"-0.005": 35.9772589906,
			"-0.004": 42.069609423,
			"-0.003": 44.2586021432,
			"-0.002": 39.8249476493,
			"-0.001": 41.2453310177,
			"0.0": 40.8080256934,
			"0.001": 42.0894251459,
			"0.002": 33.4866116861,
			"0.003": 17.849713681,
			"0.004": 17.1352077275,
			"0.005": 12.8684207278,
			"0.006": 8.46518233419,
			"0.007": 7.27783635186,
			"0.008": 7.38508754777,
			"0.009": 8.13760431308,
			"0.01": 7.4423934991,
			"0.011": 14.2883470204,
			"0.012": 8.53236488045,
			"0.013": 0.881699778963,
			"0.014": 0.0,
			"0.015": 0.0,
			"0.016": 0.0,
			"0.017": 0.0,
			"0.018": 0.0,
			"0.019": 0.0,
			"0.02": 0.0,
			"0.021": 0.0,
			"0.022": 0.0,
			"0.023": 0.0,
			"0.024": 0.0,
			"0.025": 0.0
		}
	}
}
