{
	 "smiles": "OC(=O)C1=C(C=C(C=C1)[N+]([O-])=O)C(O)=O", 
	 "Tm": 435.15, 
	 "num_atms": 20, 
	 "gaussian": { 
		 "optdone": 1, 
		 "sigma_profile": "yes", 
		 "theory": "DFT", 
		 "functional": "B3LYP", 
		 "basiset": "6-31G**", 
		 "properties": { 
			 "R2extent": 3981.0994, 
			 "electric_dipole_moment_norm": 6.14493365139, 
			 "electric_quadrupole_moment_norm": 19.248746974, 
			 "total_energy": -813.868682762, 
			 "HOMO_LUMO_gap": 0.15798, 
			 "cosmo_polarized_energy": -23.61, 
			 "cosmo_cavitation_energy": 26.28, 
			 "cosmo_dispersion_energy": -19.46, 
			 "cosmo_repulsion_energy": 1.5, 
			 "cosmo_total_nonelectrostatic_energy": 8.32, 
			 "SMD_solvation_energy": 9.11 
		},
		"coords": [
			{
				"x": -3.2307585186,
				"y": 0.7948348962,
				"z": -2.3221783434,
				"element": "O" 
			},
			{
				"x": -2.3189481508,
				"y": 1.6826239671,
				"z": -1.8911614761,
				"element": "C" 
			},
			{
				"x": -2.3644225379,
				"y": 2.8242330228,
				"z": -2.3103765461,
				"element": "O" 
			},
			{
				"x": -1.2622479096,
				"y": 1.1622479325,
				"z": -0.9558915438,
				"element": "C" 
			},
			{
				"x": -0.7243163979,
				"y": 1.9033694596,
				"z": 0.1250857291,
				"element": "C" 
			},
			{
				"x": 0.2587651407,
				"y": 1.2962010745,
				"z": 0.9182406423,
				"element": "C" 
			},
			{
				"x": 0.7244534895,
				"y": 0.0260959342,
				"z": 0.6140369551,
				"element": "C" 
			},
			{
				"x": 0.2290767708,
				"y": -0.7067271376,
				"z": -0.4588218266,
				"element": "C" 
			},
			{
				"x": -0.7745072916,
				"y": -0.1311776962,
				"z": -1.2265966837,
				"element": "C" 
			},
			{
				"x": 1.780869938,
				"y": -0.5739074523,
				"z": 1.4581162387,
				"element": "N" 
			},
			{
				"x": 2.2120924353,
				"y": 0.0985436751,
				"z": 2.3885797275,
				"element": "O" 
			},
			{
				"x": 2.1521973964,
				"y": -1.7086379548,
				"z": 1.1650791705,
				"element": "O" 
			},
			{
				"x": -1.1164994957,
				"y": 3.2980833737,
				"z": 0.6244126108,
				"element": "C" 
			},
			{
				"x": -1.6029277231,
				"y": 4.1870016181,
				"z": -0.23408989,
				"element": "O" 
			},
			{
				"x": -0.9292473978,
				"y": 3.5756133505,
				"z": 1.7891141237,
				"element": "O" 
			},
			{
				"x": -3.1686967306,
				"y": -0.0320446083,
				"z": -1.8221090944,
				"element": "H" 
			},
			{
				"x": 0.6434687209,
				"y": 1.8309447703,
				"z": 1.7770461874,
				"element": "H" 
			},
			{
				"x": 0.6238924372,
				"y": -1.6918047249,
				"z": -0.6724044663,
				"element": "H" 
			},
			{
				"x": -1.1573270223,
				"y": -0.6816119123,
				"z": -2.0808483356,
				"element": "H" 
			},
			{
				"x": -1.7391171532,
				"y": 3.8105184116,
				"z": -1.136133179,
				"element": "H" 
			}
		],
		 "valence_orbital": [ 
			{
				"type": "occ",
				"energy": -0.3238,
				"method": "rhf"
			},
			{
				"type": "occ",
				"energy": -0.31808,
				"method": "rhf"
			},
			{
				"type": "occ",
				"energy": -0.31553,
				"method": "rhf"
			},
			{
				"type": "occ",
				"energy": -0.30969,
				"method": "rhf"
			},
			{
				"type": "occ",
				"energy": -0.28411,
				"method": "rhf"
			},
			{
				"type": "unocc",
				"energy": -0.12613,
				"method": "rhf"
			},
			{
				"type": "unocc",
				"energy": -0.08123,
				"method": "rhf"
			},
			{
				"type": "unocc",
				"energy": -0.06585,
				"method": "rhf"
			},
			{
				"type": "unocc",
				"energy": -0.01002,
				"method": "rhf"
			},
			{
				"type": "unocc",
				"energy": 0.022,
				"method": "rhf"
			}
		],
		"cosmo_sigma_profile": { 
			"-0.025": 0.0,
			"-0.024": 0.0,
			"-0.023": 0.0,
			"-0.022": 0.0,
			"-0.021": 0.0726095347727,
			"-0.02": 1.03142549317,
			"-0.019": 0.971745482305,
			"-0.018": 1.38774762943,
			"-0.017": 0.79053589932,
			"-0.016": 1.04347586331,
			"-0.015": 1.05651685349,
			"-0.014": 1.10028767117,
			"-0.013": 1.38326067918,
			"-0.012": 1.17934966944,
			"-0.011": 1.90279511405,
			"-0.01": 4.82224305796,
			"-0.009": 6.07862298365,
			"-0.008": 6.75341056442,
			"-0.007": 6.27072268876,
			"-0.006": 8.16786926739,
			"-0.005": 10.0350332981,
			"-0.004": 13.759587016,
			"-0.003": 17.7322351699,
			"-0.002": 15.057370486,
			"-0.001": 9.55922085833,
			"0.0": 5.74658472614,
			"0.001": 6.76171624132,
			"0.002": 5.88778663186,
			"0.003": 6.77431084097,
			"0.004": 7.33870721221,
			"0.005": 7.03257983643,
			"0.006": 11.5751124432,
			"0.007": 14.7636495777,
			"0.008": 10.7536831309,
			"0.009": 9.10440828858,
			"0.01": 6.19536454171,
			"0.011": 6.13004826582,
			"0.012": 2.90695336526,
			"0.013": 1.07682777173,
			"0.014": 0.0,
			"0.015": 0.0,
			"0.016": 0.0,
			"0.017": 0.0,
			"0.018": 0.0,
			"0.019": 0.0,
			"0.02": 0.0,
			"0.021": 0.0,
			"0.022": 0.0,
			"0.023": 0.0,
			"0.024": 0.0,
			"0.025": 0.0
		}
	}
}
