{
	 "smiles": "OCCCC#CC#CCCCO", 
	 "Tm": 319.35, 
	 "num_atms": 26, 
	 "gaussian": { 
		 "optdone": 1, 
		 "sigma_profile": "yes", 
		 "theory": "DFT", 
		 "functional": "B3LYP", 
		 "basiset": "6-31G**", 
		 "properties": { 
			 "R2extent": 5186.9584, 
			 "electric_dipole_moment_norm": 1.40804094756, 
			 "electric_quadrupole_moment_norm": 16.6247507226, 
			 "total_energy": -539.816418816, 
			 "HOMO_LUMO_gap": 0.22346, 
			 "cosmo_polarized_energy": -14.61, 
			 "cosmo_cavitation_energy": 31.69, 
			 "cosmo_dispersion_energy": -22.24, 
			 "cosmo_repulsion_energy": 1.9, 
			 "cosmo_total_nonelectrostatic_energy": 11.35, 
			 "SMD_solvation_energy": 5.61 
		},
		"coords": [
			{
				"x": -1.6514210547,
				"y": -5.1049278666,
				"z": 1.7239836177,
				"element": "O" 
			},
			{
				"x": -1.1853557607,
				"y": -3.7702202479,
				"z": 1.8694570685,
				"element": "C" 
			},
			{
				"x": -2.3177292421,
				"y": -2.7870101041,
				"z": 2.1738363068,
				"element": "C" 
			},
			{
				"x": -1.8270841897,
				"y": -1.3393842149,
				"z": 2.4027143037,
				"element": "C" 
			},
			{
				"x": -1.2054291793,
				"y": -0.7323825748,
				"z": 1.227684274,
				"element": "C" 
			},
			{
				"x": -0.7004466133,
				"y": -0.2345225991,
				"z": 0.2387102707,
				"element": "C" 
			},
			{
				"x": -0.1312176767,
				"y": 0.3292635543,
				"z": -0.8695011447,
				"element": "C" 
			},
			{
				"x": 0.3711514728,
				"y": 0.8326900074,
				"z": -1.8569469342,
				"element": "C" 
			},
			{
				"x": 0.9909416535,
				"y": 1.4248344042,
				"z": -3.0405152987,
				"element": "C" 
			},
			{
				"x": 2.5339446596,
				"y": 1.485585679,
				"z": -2.9746860377,
				"element": "C" 
			},
			{
				"x": 3.0583574297,
				"y": 2.3895070371,
				"z": -1.8567697484,
				"element": "C" 
			},
			{
				"x": 4.4766977027,
				"y": 2.4794796639,
				"z": -1.854340596,
				"element": "O" 
			},
			{
				"x": -2.1935758342,
				"y": -5.1411163165,
				"z": 0.9254492309,
				"element": "H" 
			},
			{
				"x": -0.4777846766,
				"y": -3.7924421677,
				"z": 2.7062823942,
				"element": "H" 
			},
			{
				"x": -0.6268680989,
				"y": -3.436496032,
				"z": 0.9820976914,
				"element": "H" 
			},
			{
				"x": -3.0401388199,
				"y": -2.7932702291,
				"z": 1.3472214445,
				"element": "H" 
			},
			{
				"x": -2.8494289036,
				"y": -3.1277363951,
				"z": 3.0692740669,
				"element": "H" 
			},
			{
				"x": -1.113463292,
				"y": -1.3245092221,
				"z": 3.2388535912,
				"element": "H" 
			},
			{
				"x": -2.6750209593,
				"y": -0.7184217597,
				"z": 2.7199196054,
				"element": "H" 
			},
			{
				"x": 0.5926415914,
				"y": 2.438617678,
				"z": -3.1895140064,
				"element": "H" 
			},
			{
				"x": 0.6914163001,
				"y": 0.8505375863,
				"z": -3.9269129526,
				"element": "H" 
			},
			{
				"x": 2.9162229387,
				"y": 1.8529816219,
				"z": -3.9335933999,
				"element": "H" 
			},
			{
				"x": 2.9264913625,
				"y": 0.4694469597,
				"z": -2.8384725996,
				"element": "H" 
			},
			{
				"x": 2.6716698125,
				"y": 2.0480409823,
				"z": -0.8849518565,
				"element": "H" 
			},
			{
				"x": 2.6960469316,
				"y": 3.413140516,
				"z": -2.0061459766,
				"element": "H" 
			},
			{
				"x": 4.8254824456,
				"y": 1.6127140396,
				"z": -1.6095333149,
				"element": "H" 
			}
		],
		 "valence_orbital": [ 
			{
				"type": "occ",
				"energy": -0.32199,
				"method": "rhf"
			},
			{
				"type": "occ",
				"energy": -0.26909,
				"method": "rhf"
			},
			{
				"type": "occ",
				"energy": -0.26786,
				"method": "rhf"
			},
			{
				"type": "occ",
				"energy": -0.23189,
				"method": "rhf"
			},
			{
				"type": "occ",
				"energy": -0.2312,
				"method": "rhf"
			},
			{
				"type": "unocc",
				"energy": -0.00774,
				"method": "rhf"
			},
			{
				"type": "unocc",
				"energy": -0.00672,
				"method": "rhf"
			},
			{
				"type": "unocc",
				"energy": 0.07683,
				"method": "rhf"
			},
			{
				"type": "unocc",
				"energy": 0.07748,
				"method": "rhf"
			},
			{
				"type": "unocc",
				"energy": 0.09243,
				"method": "rhf"
			}
		],
		"cosmo_sigma_profile": { 
			"-0.025": 0.0,
			"-0.024": 0.0,
			"-0.023": 0.0,
			"-0.022": 0.0,
			"-0.021": 0.0,
			"-0.02": 0.0,
			"-0.019": 0.0,
			"-0.018": 0.0,
			"-0.017": 0.0,
			"-0.016": 0.201021269841,
			"-0.015": 1.78396223019,
			"-0.014": 1.9951007381,
			"-0.013": 2.23595059232,
			"-0.012": 1.85113515372,
			"-0.011": 1.77398143122,
			"-0.01": 1.93006308939,
			"-0.009": 1.59029113112,
			"-0.008": 1.69632789067,
			"-0.007": 2.34481098013,
			"-0.006": 9.79796884743,
			"-0.005": 15.197277115,
			"-0.004": 23.8026716884,
			"-0.003": 29.2217822339,
			"-0.002": 22.7244576448,
			"-0.001": 17.948717768,
			"0.0": 13.3510260955,
			"0.001": 10.2428275558,
			"0.002": 6.74809469654,
			"0.003": 7.98699598655,
			"0.004": 16.4843184894,
			"0.005": 23.5749159255,
			"0.006": 9.44896107035,
			"0.007": 2.46903708464,
			"0.008": 2.53028777668,
			"0.009": 2.19842970004,
			"0.01": 2.3767368685,
			"0.011": 3.09783637055,
			"0.012": 2.30688278938,
			"0.013": 3.40438054985,
			"0.014": 4.61530371253,
			"0.015": 2.13327537708,
			"0.016": 0.0,
			"0.017": 0.0,
			"0.018": 0.0,
			"0.019": 0.0,
			"0.02": 0.0,
			"0.021": 0.0,
			"0.022": 0.0,
			"0.023": 0.0,
			"0.024": 0.0,
			"0.025": 0.0
		}
	}
}
