{
	 "smiles": "CC(C)(OO)C#CC(C)(C)OO", 
	 "Tm": 381.15, 
	 "num_atms": 26, 
	 "gaussian": { 
		 "optdone": 1, 
		 "sigma_profile": "yes", 
		 "theory": "DFT", 
		 "functional": "B3LYP", 
		 "basiset": "6-31G**", 
		 "properties": { 
			 "R2extent": 3483.3541, 
			 "electric_dipole_moment_norm": 0.631056273244, 
			 "electric_quadrupole_moment_norm": 13.4559653307, 
			 "total_energy": -613.925350351, 
			 "HOMO_LUMO_gap": 0.25851, 
			 "cosmo_polarized_energy": -14.06, 
			 "cosmo_cavitation_energy": 30.26, 
			 "cosmo_dispersion_energy": -20.47, 
			 "cosmo_repulsion_energy": 1.72, 
			 "cosmo_total_nonelectrostatic_energy": 11.52, 
			 "SMD_solvation_energy": 5.5 
		},
		"coords": [
			{
				"x": 1.656207165,
				"y": 0.8265362277,
				"z": 2.2588872938,
				"element": "C" 
			},
			{
				"x": 1.1521797448,
				"y": -0.4678183587,
				"z": 1.599797542,
				"element": "C" 
			},
			{
				"x": 1.1402892008,
				"y": -1.6505881996,
				"z": 2.5809313804,
				"element": "C" 
			},
			{
				"x": 1.9617327178,
				"y": -0.795852611,
				"z": 0.4328607185,
				"element": "O" 
			},
			{
				"x": 3.3264525845,
				"y": -1.042251398,
				"z": 0.8825723983,
				"element": "O" 
			},
			{
				"x": -0.1793686706,
				"y": -0.2590533688,
				"z": 1.0156976437,
				"element": "C" 
			},
			{
				"x": -1.2846286542,
				"y": -0.0711202206,
				"z": 0.5624557706,
				"element": "C" 
			},
			{
				"x": -2.6287498547,
				"y": 0.1182233715,
				"z": 0.0009159561,
				"element": "C" 
			},
			{
				"x": -3.7059312907,
				"y": -0.3676870434,
				"z": 0.9834163691,
				"element": "C" 
			},
			{
				"x": -2.7389092195,
				"y": -0.5731448122,
				"z": -1.3678956707,
				"element": "C" 
			},
			{
				"x": -2.7076150841,
				"y": 1.5658852723,
				"z": -0.1498729204,
				"element": "O" 
			},
			{
				"x": -4.018935604,
				"y": 1.8941576897,
				"z": -0.6958364409,
				"element": "O" 
			},
			{
				"x": 1.6628356913,
				"y": 1.6431613631,
				"z": 1.5320934516,
				"element": "H" 
			},
			{
				"x": 1.0043930197,
				"y": 1.1090926817,
				"z": 3.0894138082,
				"element": "H" 
			},
			{
				"x": 2.6672609224,
				"y": 0.6733231986,
				"z": 2.6439017076,
				"element": "H" 
			},
			{
				"x": 0.4871650338,
				"y": -1.4331703385,
				"z": 3.4305100937,
				"element": "H" 
			},
			{
				"x": 2.1532565329,
				"y": -1.8326484575,
				"z": 2.9459544114,
				"element": "H" 
			},
			{
				"x": 0.7780091882,
				"y": -2.55004789,
				"z": 2.0779259024,
				"element": "H" 
			},
			{
				"x": 3.7674034965,
				"y": -0.2627571485,
				"z": 0.5085616373,
				"element": "H" 
			},
			{
				"x": -4.6959184724,
				"y": -0.1505193011,
				"z": 0.5769130797,
				"element": "H" 
			},
			{
				"x": -3.61401227,
				"y": -1.4450742642,
				"z": 1.14594844,
				"element": "H" 
			},
			{
				"x": -3.5963452495,
				"y": 0.1447894809,
				"z": 1.9418782497,
				"element": "H" 
			},
			{
				"x": -2.6071595912,
				"y": -1.652740555,
				"z": -1.2602468207,
				"element": "H" 
			},
			{
				"x": -3.725076327,
				"y": -0.3820626986,
				"z": -1.7979049911,
				"element": "H" 
			},
			{
				"x": -1.9671072585,
				"y": -0.1970399503,
				"z": -2.044668992,
				"element": "H" 
			},
			{
				"x": -3.7599277514,
				"y": 2.1874073304,
				"z": -1.5840100183,
				"element": "H" 
			}
		],
		 "valence_orbital": [ 
			{
				"type": "occ",
				"energy": -0.29693,
				"method": "rhf"
			},
			{
				"type": "occ",
				"energy": -0.27854,
				"method": "rhf"
			},
			{
				"type": "occ",
				"energy": -0.26719,
				"method": "rhf"
			},
			{
				"type": "occ",
				"energy": -0.2618,
				"method": "rhf"
			},
			{
				"type": "occ",
				"energy": -0.25618,
				"method": "rhf"
			},
			{
				"type": "unocc",
				"energy": 0.00233,
				"method": "rhf"
			},
			{
				"type": "unocc",
				"energy": 0.00767,
				"method": "rhf"
			},
			{
				"type": "unocc",
				"energy": 0.06326,
				"method": "rhf"
			},
			{
				"type": "unocc",
				"energy": 0.06873,
				"method": "rhf"
			},
			{
				"type": "unocc",
				"energy": 0.08521,
				"method": "rhf"
			}
		],
		"cosmo_sigma_profile": { 
			"-0.025": 0.0,
			"-0.024": 0.0,
			"-0.023": 0.0,
			"-0.022": 0.0,
			"-0.021": 0.0,
			"-0.02": 0.0,
			"-0.019": 0.0,
			"-0.018": 0.0550412284328,
			"-0.017": 1.48455567545,
			"-0.016": 2.07728531449,
			"-0.015": 1.83820784353,
			"-0.014": 1.671008906,
			"-0.013": 1.09745964816,
			"-0.012": 1.54922682281,
			"-0.011": 1.40771550654,
			"-0.01": 1.21557348909,
			"-0.009": 1.87775340861,
			"-0.008": 1.67278822478,
			"-0.007": 2.38295001214,
			"-0.006": 1.72477881423,
			"-0.005": 8.07222683223,
			"-0.004": 21.5133210238,
			"-0.003": 22.0580781316,
			"-0.002": 24.9625553162,
			"-0.001": 26.1692592634,
			"0.0": 27.0486804615,
			"0.001": 11.5494839868,
			"0.002": 7.34970505713,
			"0.003": 7.17206853511,
			"0.004": 9.55149146938,
			"0.005": 7.48160750211,
			"0.006": 7.15191514615,
			"0.007": 7.14867114934,
			"0.008": 5.58861814838,
			"0.009": 6.07464704924,
			"0.01": 7.16557452933,
			"0.011": 6.09707007669,
			"0.012": 3.33538086611,
			"0.013": 0.183277099256,
			"0.014": 0.0,
			"0.015": 0.0,
			"0.016": 0.0,
			"0.017": 0.0,
			"0.018": 0.0,
			"0.019": 0.0,
			"0.02": 0.0,
			"0.021": 0.0,
			"0.022": 0.0,
			"0.023": 0.0,
			"0.024": 0.0,
			"0.025": 0.0
		}
	}
}
