{
	 "smiles": "BrC1=NN=C2C=CC=CN12", 
	 "Tm": 383.15, 
	 "num_atms": 14, 
	 "gaussian": { 
		 "optdone": 1, 
		 "sigma_profile": "yes", 
		 "theory": "DFT", 
		 "functional": "B3LYP", 
		 "basiset": "6-31G**", 
		 "properties": { 
			 "R2extent": 2770.3902, 
			 "electric_dipole_moment_norm": 5.60348754973, 
			 "electric_quadrupole_moment_norm": 16.8774541427, 
			 "total_energy": -2966.66338871, 
			 "HOMO_LUMO_gap": 0.17176, 
			 "cosmo_polarized_energy": -13.53, 
			 "cosmo_cavitation_energy": 20.89, 
			 "cosmo_dispersion_energy": -16.29, 
			 "cosmo_repulsion_energy": 1.29, 
			 "cosmo_total_nonelectrostatic_energy": 5.89, 
			 "SMD_solvation_energy": 0.81 
		},
		"coords": [
			{
				"x": -3.0618023023,
				"y": -0.8770135042,
				"z": -1.6061341977,
				"element": "Br" 
			},
			{
				"x": -1.2374220548,
				"y": -0.5871438773,
				"z": -1.905961647,
				"element": "C" 
			},
			{
				"x": -0.6121123449,
				"y": -0.6754452074,
				"z": -3.0557133638,
				"element": "N" 
			},
			{
				"x": 0.7089091692,
				"y": -0.3893068596,
				"z": -2.8480278811,
				"element": "N" 
			},
			{
				"x": 0.8596107387,
				"y": -0.1290882752,
				"z": -1.5537907227,
				"element": "C" 
			},
			{
				"x": 2.0008868105,
				"y": 0.2230588127,
				"z": -0.7884179632,
				"element": "C" 
			},
			{
				"x": 1.8554226437,
				"y": 0.4367103752,
				"z": 0.5567282123,
				"element": "C" 
			},
			{
				"x": 0.5755700758,
				"y": 0.3080979285,
				"z": 1.1846494527,
				"element": "C" 
			},
			{
				"x": -0.5253059093,
				"y": -0.0297343208,
				"z": 0.4568088992,
				"element": "C" 
			},
			{
				"x": -0.3716658566,
				"y": -0.2432470666,
				"z": -0.8964357575,
				"element": "N" 
			},
			{
				"x": 2.9530637458,
				"y": 0.3111406345,
				"z": -1.2979861284,
				"element": "H" 
			},
			{
				"x": 2.7150469978,
				"y": 0.7069323368,
				"z": 1.1608681093,
				"element": "H" 
			},
			{
				"x": 0.4684104918,
				"y": 0.4787197394,
				"z": 2.2495689399,
				"element": "H" 
			},
			{
				"x": -1.5255122053,
				"y": -0.147180716,
				"z": 0.853144048,
				"element": "H" 
			}
		],
		 "valence_orbital": [ 
			{
				"type": "occ",
				"energy": -0.32115,
				"method": "rhf"
			},
			{
				"type": "occ",
				"energy": -0.31264,
				"method": "rhf"
			},
			{
				"type": "occ",
				"energy": -0.28015,
				"method": "rhf"
			},
			{
				"type": "occ",
				"energy": -0.26354,
				"method": "rhf"
			},
			{
				"type": "occ",
				"energy": -0.23023,
				"method": "rhf"
			},
			{
				"type": "unocc",
				"energy": -0.05847,
				"method": "rhf"
			},
			{
				"type": "unocc",
				"energy": -0.0176,
				"method": "rhf"
			},
			{
				"type": "unocc",
				"energy": -0.00486,
				"method": "rhf"
			},
			{
				"type": "unocc",
				"energy": 0.03689,
				"method": "rhf"
			},
			{
				"type": "unocc",
				"energy": 0.07702,
				"method": "rhf"
			}
		],
		"cosmo_sigma_profile": { 
			"-0.025": 0.0,
			"-0.024": 0.0,
			"-0.023": 0.0,
			"-0.022": 0.0,
			"-0.021": 0.0,
			"-0.02": 0.0,
			"-0.019": 0.0,
			"-0.018": 0.0,
			"-0.017": 0.0,
			"-0.016": 0.0,
			"-0.015": 0.0,
			"-0.014": 0.0,
			"-0.013": 0.0,
			"-0.012": 0.0,
			"-0.011": 0.0,
			"-0.01": 0.568253312605,
			"-0.009": 2.11762257325,
			"-0.008": 7.18639474074,
			"-0.007": 10.2680006954,
			"-0.006": 9.83125739603,
			"-0.005": 10.7646522965,
			"-0.004": 12.7054707156,
			"-0.003": 11.4078076363,
			"-0.002": 10.3510722954,
			"-0.001": 12.215169242,
			"0.0": 15.0064687915,
			"0.001": 16.0605993389,
			"0.002": 15.8702346775,
			"0.003": 7.71585407091,
			"0.004": 2.47720471833,
			"0.005": 2.56964417306,
			"0.006": 1.87202954177,
			"0.007": 2.07915150539,
			"0.008": 2.10689018397,
			"0.009": 1.94742580673,
			"0.01": 2.07161625742,
			"0.011": 2.26119227672,
			"0.012": 3.90539205593,
			"0.013": 2.93534339091,
			"0.014": 2.98172284082,
			"0.015": 2.21054660196,
			"0.016": 1.24560156963,
			"0.017": 0.172687751901,
			"0.018": 0.0,
			"0.019": 0.0,
			"0.02": 0.0,
			"0.021": 0.0,
			"0.022": 0.0,
			"0.023": 0.0,
			"0.024": 0.0,
			"0.025": 0.0
		}
	}
}
