{
	 "smiles": "FC(F)(F)C1=CC(=CC=C1)N1C=C(N=N1)C(=O)CCl", 
	 "Tm": 436.15, 
	 "num_atms": 26, 
	 "gaussian": { 
		 "optdone": 1, 
		 "sigma_profile": "yes", 
		 "theory": "DFT", 
		 "functional": "B3LYP", 
		 "basiset": "6-31G**", 
		 "properties": { 
			 "R2extent": 7591.88, 
			 "electric_dipole_moment_norm": 4.48953746615, 
			 "electric_quadrupole_moment_norm": 25.2778539427, 
			 "total_energy": -1422.53521129, 
			 "HOMO_LUMO_gap": 0.19196, 
			 "cosmo_polarized_energy": -17.98, 
			 "cosmo_cavitation_energy": 35.39, 
			 "cosmo_dispersion_energy": -24.73, 
			 "cosmo_repulsion_energy": 1.84, 
			 "cosmo_total_nonelectrostatic_energy": 12.5, 
			 "SMD_solvation_energy": 6.33 
		},
		"coords": [
			{
				"x": -1.6794004193,
				"y": 0.8944352032,
				"z": 3.2672174367,
				"element": "F" 
			},
			{
				"x": -2.7876165888,
				"y": 0.4753623792,
				"z": 2.6190641733,
				"element": "C" 
			},
			{
				"x": -3.7450241236,
				"y": 1.4095180666,
				"z": 2.7942610012,
				"element": "F" 
			},
			{
				"x": -3.2107970217,
				"y": -0.6473342543,
				"z": 3.2427731532,
				"element": "F" 
			},
			{
				"x": -2.5197104665,
				"y": 0.2209325693,
				"z": 1.1575891192,
				"element": "C" 
			},
			{
				"x": -1.2325742665,
				"y": -0.1238799841,
				"z": 0.7446643383,
				"element": "C" 
			},
			{
				"x": -1.0063252211,
				"y": -0.4170758466,
				"z": -0.6011319525,
				"element": "C" 
			},
			{
				"x": -2.0454870493,
				"y": -0.348803989,
				"z": -1.5347353332,
				"element": "C" 
			},
			{
				"x": -3.3205578671,
				"y": 0.0140797238,
				"z": -1.1070770511,
				"element": "C" 
			},
			{
				"x": -3.5673428663,
				"y": 0.2938148007,
				"z": 0.2368649927,
				"element": "C" 
			},
			{
				"x": 0.2960098109,
				"y": -0.7824345786,
				"z": -1.0408182978,
				"element": "N" 
			},
			{
				"x": 1.3161972286,
				"y": -1.340813539,
				"z": -0.3494760967,
				"element": "C" 
			},
			{
				"x": 2.3392605752,
				"y": -1.4674837352,
				"z": -1.2729462139,
				"element": "C" 
			},
			{
				"x": 1.8874616586,
				"y": -0.9810696638,
				"z": -2.477259873,
				"element": "N" 
			},
			{
				"x": 0.6731486957,
				"y": -0.5714647533,
				"z": -2.3478118059,
				"element": "N" 
			},
			{
				"x": 3.695416822,
				"y": -2.0368095922,
				"z": -1.1340997005,
				"element": "C" 
			},
			{
				"x": 4.4796423158,
				"y": -2.0800546636,
				"z": -2.0621762424,
				"element": "O" 
			},
			{
				"x": 4.1003697957,
				"y": -2.6670959588,
				"z": 0.2032549736,
				"element": "C" 
			},
			{
				"x": 3.9962170975,
				"y": -1.5262052805,
				"z": 1.6125707429,
				"element": "Cl" 
			},
			{
				"x": -0.4215211878,
				"y": -0.1334118647,
				"z": 1.463114645,
				"element": "H" 
			},
			{
				"x": -1.8405193014,
				"y": -0.5717436967,
				"z": -2.5745858647,
				"element": "H" 
			},
			{
				"x": -4.1282949927,
				"y": 0.0740362581,
				"z": -1.8292338828,
				"element": "H" 
			},
			{
				"x": -4.5596685875,
				"y": 0.5775133726,
				"z": 0.5690772642,
				"element": "H" 
			},
			{
				"x": 1.2497219512,
				"y": -1.5994189427,
				"z": 0.6941074509,
				"element": "H" 
			},
			{
				"x": 3.4610183479,
				"y": -3.5211355583,
				"z": 0.4416125963,
				"element": "H" 
			},
			{
				"x": 5.1370756606,
				"y": -2.9873564722,
				"z": 0.1189804272,
				"element": "H" 
			}
		],
		 "valence_orbital": [ 
			{
				"type": "occ",
				"energy": -0.29599,
				"method": "rhf"
			},
			{
				"type": "occ",
				"energy": -0.29496,
				"method": "rhf"
			},
			{
				"type": "occ",
				"energy": -0.28842,
				"method": "rhf"
			},
			{
				"type": "occ",
				"energy": -0.27001,
				"method": "rhf"
			},
			{
				"type": "occ",
				"energy": -0.26912,
				"method": "rhf"
			},
			{
				"type": "unocc",
				"energy": -0.07716,
				"method": "rhf"
			},
			{
				"type": "unocc",
				"energy": -0.0593,
				"method": "rhf"
			},
			{
				"type": "unocc",
				"energy": -0.04906,
				"method": "rhf"
			},
			{
				"type": "unocc",
				"energy": -0.00649,
				"method": "rhf"
			},
			{
				"type": "unocc",
				"energy": 0.00699,
				"method": "rhf"
			}
		],
		"cosmo_sigma_profile": { 
			"-0.025": 0.0,
			"-0.024": 0.0,
			"-0.023": 0.0,
			"-0.022": 0.0,
			"-0.021": 0.0,
			"-0.02": 0.0,
			"-0.019": 0.0,
			"-0.018": 0.0,
			"-0.017": 0.0,
			"-0.016": 0.0,
			"-0.015": 0.0,
			"-0.014": 0.0,
			"-0.013": 0.201317011764,
			"-0.012": 1.5478749696,
			"-0.011": 1.7671067236,
			"-0.01": 5.42383266921,
			"-0.009": 6.11074832748,
			"-0.008": 8.30164361697,
			"-0.007": 12.1083304974,
			"-0.006": 13.7584550066,
			"-0.005": 12.2872242933,
			"-0.004": 13.2412145601,
			"-0.003": 16.0446094132,
			"-0.002": 15.7687543442,
			"-0.001": 17.6504405368,
			"0.0": 24.006845766,
			"0.001": 24.7115636947,
			"0.002": 33.7994098418,
			"0.003": 29.1109577339,
			"0.004": 6.33301642453,
			"0.005": 9.73564224882,
			"0.006": 4.31902598731,
			"0.007": 3.39933108552,
			"0.008": 5.27312658734,
			"0.009": 5.35819397429,
			"0.01": 6.09394126114,
			"0.011": 5.01399093599,
			"0.012": 2.50099279249,
			"0.013": 2.00937736387,
			"0.014": 1.45651671852,
			"0.015": 0.336525504567,
			"0.016": 0.0,
			"0.017": 0.0,
			"0.018": 0.0,
			"0.019": 0.0,
			"0.02": 0.0,
			"0.021": 0.0,
			"0.022": 0.0,
			"0.023": 0.0,
			"0.024": 0.0,
			"0.025": 0.0
		}
	}
}
