{
	 "smiles": "CCCCCCCCCCC(C)CC", 
	 "Tm": 235.15, 
	 "num_atms": 44, 
	 "gaussian": { 
		 "optdone": 1, 
		 "sigma_profile": "yes", 
		 "theory": "DFT", 
		 "functional": "B3LYP", 
		 "basiset": "6-31G**", 
		 "properties": { 
			 "R2extent": 6058.9436, 
			 "electric_dipole_moment_norm": 0.0571119952374, 
			 "electric_quadrupole_moment_norm": 0.624126293309, 
			 "total_energy": -551.613724121, 
			 "HOMO_LUMO_gap": 0.36769, 
			 "cosmo_polarized_energy": -0.97, 
			 "cosmo_cavitation_energy": 42.03, 
			 "cosmo_dispersion_energy": -28.21, 
			 "cosmo_repulsion_energy": 2.3, 
			 "cosmo_total_nonelectrostatic_energy": 16.12, 
			 "SMD_solvation_energy": 5.88 
		},
		"coords": [
			{
				"x": -3.7451953886,
				"y": -2.286134945,
				"z": 4.1602722606,
				"element": "C" 
			},
			{
				"x": -2.2261674317,
				"y": -2.4952309152,
				"z": 4.1843865105,
				"element": "C" 
			},
			{
				"x": -1.5498373542,
				"y": -2.410034651,
				"z": 2.805601645,
				"element": "C" 
			},
			{
				"x": -1.6061325557,
				"y": -1.0177785381,
				"z": 2.1577115314,
				"element": "C" 
			},
			{
				"x": -0.8060543821,
				"y": -0.8849431019,
				"z": 0.8501499659,
				"element": "C" 
			},
			{
				"x": -1.3486360751,
				"y": -1.7254871786,
				"z": -0.3178606068,
				"element": "C" 
			},
			{
				"x": -0.586493945,
				"y": -1.5667944076,
				"z": -1.6531047125,
				"element": "C" 
			},
			{
				"x": -1.1207372757,
				"y": -0.4866563707,
				"z": -2.6149297151,
				"element": "C" 
			},
			{
				"x": -1.0094300846,
				"y": 0.9831652757,
				"z": -2.1720898012,
				"element": "C" 
			},
			{
				"x": 0.4327967608,
				"y": 1.4886741388,
				"z": -2.0140719091,
				"element": "C" 
			},
			{
				"x": 0.5578695831,
				"y": 3.007665528,
				"z": -1.7707065924,
				"element": "C" 
			},
			{
				"x": -0.0422846203,
				"y": 3.4381758319,
				"z": -0.421731384,
				"element": "C" 
			},
			{
				"x": 2.0137988928,
				"y": 3.5020332773,
				"z": -1.9369917156,
				"element": "C" 
			},
			{
				"x": 3.0362255055,
				"y": 2.9376176798,
				"z": -0.9412544648,
				"element": "C" 
			},
			{
				"x": -4.1760373214,
				"y": -2.4093286041,
				"z": 5.1594859193,
				"element": "H" 
			},
			{
				"x": -4.0147544509,
				"y": -1.2849351179,
				"z": 3.808835979,
				"element": "H" 
			},
			{
				"x": -4.2320620638,
				"y": -3.0113488601,
				"z": 3.4974915557,
				"element": "H" 
			},
			{
				"x": -2.0102736819,
				"y": -3.4788969537,
				"z": 4.6209992511,
				"element": "H" 
			},
			{
				"x": -1.7667815738,
				"y": -1.7579295442,
				"z": 4.8573918975,
				"element": "H" 
			},
			{
				"x": -2.008323841,
				"y": -3.1536640985,
				"z": 2.1401229286,
				"element": "H" 
			},
			{
				"x": -0.496189442,
				"y": -2.7045923955,
				"z": 2.9105714914,
				"element": "H" 
			},
			{
				"x": -1.2226504456,
				"y": -0.282853375,
				"z": 2.8793659362,
				"element": "H" 
			},
			{
				"x": -2.6501754361,
				"y": -0.7360605741,
				"z": 1.9655615669,
				"element": "H" 
			},
			{
				"x": 0.2397057959,
				"y": -1.170039305,
				"z": 1.0366417981,
				"element": "H" 
			},
			{
				"x": -0.7826020935,
				"y": 0.1727980875,
				"z": 0.5644510025,
				"element": "H" 
			},
			{
				"x": -1.3207988325,
				"y": -2.7822282953,
				"z": -0.0262317198,
				"element": "H" 
			},
			{
				"x": -2.4113580754,
				"y": -1.4886568055,
				"z": -0.4745512152,
				"element": "H" 
			},
			{
				"x": -0.6318598597,
				"y": -2.5207597182,
				"z": -2.1934577258,
				"element": "H" 
			},
			{
				"x": 0.4792514119,
				"y": -1.3986072916,
				"z": -1.4480669945,
				"element": "H" 
			},
			{
				"x": -0.597426412,
				"y": -0.5961895779,
				"z": -3.5753133684,
				"element": "H" 
			},
			{
				"x": -2.1766966037,
				"y": -0.7081858358,
				"z": -2.8229906757,
				"element": "H" 
			},
			{
				"x": -1.5701112257,
				"y": 1.1328493175,
				"z": -1.2417671183,
				"element": "H" 
			},
			{
				"x": -1.5154113847,
				"y": 1.6025654959,
				"z": -2.9261191281,
				"element": "H" 
			},
			{
				"x": 0.927568593,
				"y": 0.9472429495,
				"z": -1.197681548,
				"element": "H" 
			},
			{
				"x": 0.9901031956,
				"y": 1.2348198047,
				"z": -2.9277491719,
				"element": "H" 
			},
			{
				"x": -0.0242346698,
				"y": 3.5079809178,
				"z": -2.5599049618,
				"element": "H" 
			},
			{
				"x": -1.1140104522,
				"y": 3.2235794738,
				"z": -0.3699575817,
				"element": "H" 
			},
			{
				"x": 0.0838786125,
				"y": 4.5149958501,
				"z": -0.2617277142,
				"element": "H" 
			},
			{
				"x": 0.4369553953,
				"y": 2.9198299465,
				"z": 0.416625154,
				"element": "H" 
			},
			{
				"x": 2.0163603942,
				"y": 4.5979620391,
				"z": -1.8639602615,
				"element": "H" 
			},
			{
				"x": 2.3452413552,
				"y": 3.2663308427,
				"z": -2.9572672053,
				"element": "H" 
			},
			{
				"x": 4.0307733484,
				"y": 3.3526711422,
				"z": -1.1356743533,
				"element": "H" 
			},
			{
				"x": 3.1178221226,
				"y": 1.848184899,
				"z": -1.0131214466,
				"element": "H" 
			},
			{
				"x": 2.7772760121,
				"y": 3.1837939628,
				"z": 0.0937166977,
				"element": "H" 
			}
		],
		 "valence_orbital": [ 
			{
				"type": "occ",
				"energy": -0.30953,
				"method": "rhf"
			},
			{
				"type": "occ",
				"energy": -0.30243,
				"method": "rhf"
			},
			{
				"type": "occ",
				"energy": -0.29958,
				"method": "rhf"
			},
			{
				"type": "occ",
				"energy": -0.29412,
				"method": "rhf"
			},
			{
				"type": "occ",
				"energy": -0.29157,
				"method": "rhf"
			},
			{
				"type": "unocc",
				"energy": 0.07612,
				"method": "rhf"
			},
			{
				"type": "unocc",
				"energy": 0.09294,
				"method": "rhf"
			},
			{
				"type": "unocc",
				"energy": 0.09567,
				"method": "rhf"
			},
			{
				"type": "unocc",
				"energy": 0.10496,
				"method": "rhf"
			},
			{
				"type": "unocc",
				"energy": 0.10812,
				"method": "rhf"
			}
		],
		"cosmo_sigma_profile": { 
			"-0.025": 0.0,
			"-0.024": 0.0,
			"-0.023": 0.0,
			"-0.022": 0.0,
			"-0.021": 0.0,
			"-0.02": 0.0,
			"-0.019": 0.0,
			"-0.018": 0.0,
			"-0.017": 0.0,
			"-0.016": 0.0,
			"-0.015": 0.0,
			"-0.014": 0.0,
			"-0.013": 0.0,
			"-0.012": 0.0,
			"-0.011": 0.0,
			"-0.01": 0.0,
			"-0.009": 0.0,
			"-0.008": 0.0,
			"-0.007": 0.0,
			"-0.006": 0.0,
			"-0.005": 0.0,
			"-0.004": 0.0,
			"-0.003": 2.63635610884,
			"-0.002": 35.1413494489,
			"-0.001": 76.4358543801,
			"0.0": 88.8976087905,
			"0.001": 80.6932314084,
			"0.002": 35.057455003,
			"0.003": 1.57843301118,
			"0.004": 0.0,
			"0.005": 0.0,
			"0.006": 0.0,
			"0.007": 0.0,
			"0.008": 0.0,
			"0.009": 0.0,
			"0.01": 0.0,
			"0.011": 0.0,
			"0.012": 0.0,
			"0.013": 0.0,
			"0.014": 0.0,
			"0.015": 0.0,
			"0.016": 0.0,
			"0.017": 0.0,
			"0.018": 0.0,
			"0.019": 0.0,
			"0.02": 0.0,
			"0.021": 0.0,
			"0.022": 0.0,
			"0.023": 0.0,
			"0.024": 0.0,
			"0.025": 0.0
		}
	}
}
