{
	 "smiles": "CC(CC(=O)C=CC1=CC=CC=C1)C1=CC=C(C)C=C1", 
	 "Tm": 361.15, 
	 "num_atms": 40, 
	 "gaussian": { 
		 "optdone": 1, 
		 "sigma_profile": "yes", 
		 "theory": "DFT", 
		 "functional": "B3LYP", 
		 "basiset": "6-31G**", 
		 "properties": { 
			 "R2extent": 6710.2689, 
			 "electric_dipole_moment_norm": 3.79574323947, 
			 "electric_quadrupole_moment_norm": 10.0728455265, 
			 "total_energy": -811.301898753, 
			 "HOMO_LUMO_gap": 0.15824, 
			 "cosmo_polarized_energy": -11.53, 
			 "cosmo_cavitation_energy": 43.07, 
			 "cosmo_dispersion_energy": -28.41, 
			 "cosmo_repulsion_energy": 2.22, 
			 "cosmo_total_nonelectrostatic_energy": 16.88, 
			 "SMD_solvation_energy": 7.56 
		},
		"coords": [
			{
				"x": -3.501334847,
				"y": -2.0237359542,
				"z": 0.1530156352,
				"element": "C" 
			},
			{
				"x": -1.9753813829,
				"y": -2.1500916987,
				"z": 0.2961749737,
				"element": "C" 
			},
			{
				"x": -1.4566958802,
				"y": -1.5798825504,
				"z": 1.6540350138,
				"element": "C" 
			},
			{
				"x": -1.6177971426,
				"y": -0.0705224551,
				"z": 1.8176778546,
				"element": "C" 
			},
			{
				"x": -2.7407652184,
				"y": 0.4167004505,
				"z": 1.9283883503,
				"element": "O" 
			},
			{
				"x": -0.4460715437,
				"y": 0.8291302592,
				"z": 1.8644313227,
				"element": "C" 
			},
			{
				"x": 0.8374998683,
				"y": 0.4871196366,
				"z": 1.6307624276,
				"element": "C" 
			},
			{
				"x": 2.0059900195,
				"y": 1.37113703,
				"z": 1.6502329043,
				"element": "C" 
			},
			{
				"x": 1.9381256947,
				"y": 2.7340271623,
				"z": 2.0006269405,
				"element": "C" 
			},
			{
				"x": 3.0824297585,
				"y": 3.5244822102,
				"z": 2.0036115203,
				"element": "C" 
			},
			{
				"x": 4.3220935768,
				"y": 2.9761084504,
				"z": 1.657724078,
				"element": "C" 
			},
			{
				"x": 4.4076184307,
				"y": 1.6275469998,
				"z": 1.3093479156,
				"element": "C" 
			},
			{
				"x": 3.2612787136,
				"y": 0.8354304151,
				"z": 1.3076791682,
				"element": "C" 
			},
			{
				"x": -1.2047044943,
				"y": -1.5842131071,
				"z": -0.8905070559,
				"element": "C" 
			},
			{
				"x": -1.5299690404,
				"y": -0.3520601444,
				"z": -1.4774196207,
				"element": "C" 
			},
			{
				"x": -0.7913191602,
				"y": 0.1507930458,
				"z": -2.54729127,
				"element": "C" 
			},
			{
				"x": 0.2984480041,
				"y": -0.5537471332,
				"z": -3.0766986184,
				"element": "C" 
			},
			{
				"x": 1.073303063,
				"y": -0.0165539901,
				"z": -4.2571943924,
				"element": "C" 
			},
			{
				"x": 0.6252385248,
				"y": -1.7815625732,
				"z": -2.4899459635,
				"element": "C" 
			},
			{
				"x": -0.1142318843,
				"y": -2.2863736757,
				"z": -1.4192929407,
				"element": "C" 
			},
			{
				"x": -3.834302274,
				"y": -0.9858627221,
				"z": 0.2098550157,
				"element": "H" 
			},
			{
				"x": -3.8314618125,
				"y": -2.4495300341,
				"z": -0.7997157954,
				"element": "H" 
			},
			{
				"x": -4.0026286908,
				"y": -2.5650123206,
				"z": 0.9623823837,
				"element": "H" 
			},
			{
				"x": -1.7424536837,
				"y": -3.2223234802,
				"z": 0.3359777466,
				"element": "H" 
			},
			{
				"x": -2.0407361569,
				"y": -2.0371734988,
				"z": 2.4614193931,
				"element": "H" 
			},
			{
				"x": -0.4172170664,
				"y": -1.8878523583,
				"z": 1.7925620148,
				"element": "H" 
			},
			{
				"x": -0.7236021498,
				"y": 1.8572420599,
				"z": 2.0840952707,
				"element": "H" 
			},
			{
				"x": 1.0626292377,
				"y": -0.5465861005,
				"z": 1.3780574043,
				"element": "H" 
			},
			{
				"x": 0.9854584479,
				"y": 3.1752012176,
				"z": 2.2755030974,
				"element": "H" 
			},
			{
				"x": 3.0104860045,
				"y": 4.5730335984,
				"z": 2.2777471557,
				"element": "H" 
			},
			{
				"x": 5.213008157,
				"y": 3.5972536549,
				"z": 1.6618082651,
				"element": "H" 
			},
			{
				"x": 5.3656711705,
				"y": 1.1927792285,
				"z": 1.0396582809,
				"element": "H" 
			},
			{
				"x": 3.3303786489,
				"y": -0.214266003,
				"z": 1.0338533974,
				"element": "H" 
			},
			{
				"x": -2.364807828,
				"y": 0.2262719323,
				"z": -1.0934917442,
				"element": "H" 
			},
			{
				"x": -1.0668560102,
				"y": 1.1102526456,
				"z": -2.9793334894,
				"element": "H" 
			},
			{
				"x": 2.0682867614,
				"y": -0.4669180387,
				"z": -4.3216307834,
				"element": "H" 
			},
			{
				"x": 1.1973574176,
				"y": 1.0693860646,
				"z": -4.1943079639,
				"element": "H" 
			},
			{
				"x": 0.5572206148,
				"y": -0.2279250564,
				"z": -5.2022791837,
				"element": "H" 
			},
			{
				"x": 1.4646661006,
				"y": -2.3539521051,
				"z": -2.8783411425,
				"element": "H" 
			},
			{
				"x": 0.1593480515,
				"y": -3.2478510615,
				"z": -0.9890775662,
				"element": "H" 
			}
		],
		 "valence_orbital": [ 
			{
				"type": "occ",
				"energy": -0.26055,
				"method": "rhf"
			},
			{
				"type": "occ",
				"energy": -0.24424,
				"method": "rhf"
			},
			{
				"type": "occ",
				"energy": -0.23653,
				"method": "rhf"
			},
			{
				"type": "occ",
				"energy": -0.23386,
				"method": "rhf"
			},
			{
				"type": "occ",
				"energy": -0.22804,
				"method": "rhf"
			},
			{
				"type": "unocc",
				"energy": -0.0698,
				"method": "rhf"
			},
			{
				"type": "unocc",
				"energy": -0.00968,
				"method": "rhf"
			},
			{
				"type": "unocc",
				"energy": 0.00197,
				"method": "rhf"
			},
			{
				"type": "unocc",
				"energy": 0.00442,
				"method": "rhf"
			},
			{
				"type": "unocc",
				"energy": 0.01308,
				"method": "rhf"
			}
		],
		"cosmo_sigma_profile": { 
			"-0.025": 0.0,
			"-0.024": 0.0,
			"-0.023": 0.0,
			"-0.022": 0.0,
			"-0.021": 0.0,
			"-0.02": 0.0,
			"-0.019": 0.0,
			"-0.018": 0.0,
			"-0.017": 0.0,
			"-0.016": 0.0,
			"-0.015": 0.0,
			"-0.014": 0.0,
			"-0.013": 0.0,
			"-0.012": 0.0,
			"-0.011": 0.0,
			"-0.01": 0.0,
			"-0.009": 0.0,
			"-0.008": 0.986259929917,
			"-0.007": 5.66893345914,
			"-0.006": 12.1220885181,
			"-0.005": 19.3338494757,
			"-0.004": 31.5436470556,
			"-0.003": 37.4085755155,
			"-0.002": 33.8627068482,
			"-0.001": 30.3936955392,
			"0.0": 29.3572224731,
			"0.001": 29.290332471,
			"0.002": 24.2950011607,
			"0.003": 22.0289184827,
			"0.004": 22.1032538348,
			"0.005": 17.116063939,
			"0.006": 7.56652323198,
			"0.007": 4.05033406261,
			"0.008": 0.942208295981,
			"0.009": 1.62649069955,
			"0.01": 1.77918289903,
			"0.011": 1.64371228598,
			"0.012": 3.14441388097,
			"0.013": 3.61929803646,
			"0.014": 1.31293715309,
			"0.015": 0.0407621798117,
			"0.016": 0.0,
			"0.017": 0.0,
			"0.018": 0.0,
			"0.019": 0.0,
			"0.02": 0.0,
			"0.021": 0.0,
			"0.022": 0.0,
			"0.023": 0.0,
			"0.024": 0.0,
			"0.025": 0.0
		}
	}
}
