{
	 "smiles": "NC1=C(C=C(C=C1Br)[N+]([O-])=O)C#N", 
	 "Tm": 461.15, 
	 "num_atms": 17, 
	 "gaussian": { 
		 "optdone": 1, 
		 "sigma_profile": "yes", 
		 "theory": "DFT", 
		 "functional": "B3LYP", 
		 "basiset": "6-31G**", 
		 "properties": { 
			 "R2extent": 5091.8014, 
			 "electric_dipole_moment_norm": 5.01883202947, 
			 "electric_quadrupole_moment_norm": 17.0516524267, 
			 "total_energy": -3155.15069554, 
			 "HOMO_LUMO_gap": 0.15719, 
			 "cosmo_polarized_energy": -14.79, 
			 "cosmo_cavitation_energy": 25.85, 
			 "cosmo_dispersion_energy": -18.98, 
			 "cosmo_repulsion_energy": 1.49, 
			 "cosmo_total_nonelectrostatic_energy": 8.36, 
			 "SMD_solvation_energy": 6.84 
		},
		"coords": [
			{
				"x": 2.2791568546,
				"y": -2.5265765397,
				"z": 0.5523921114,
				"element": "N" 
			},
			{
				"x": 1.832105339,
				"y": -1.3209489684,
				"z": 0.1389714653,
				"element": "C" 
			},
			{
				"x": 0.5117401675,
				"y": -0.87736307,
				"z": 0.4631220552,
				"element": "C" 
			},
			{
				"x": 0.0393537889,
				"y": 0.3662197317,
				"z": 0.0416311867,
				"element": "C" 
			},
			{
				"x": 0.8709208993,
				"y": 1.1871853895,
				"z": -0.7077053666,
				"element": "C" 
			},
			{
				"x": 2.1692425415,
				"y": 0.7929684616,
				"z": -1.0473135513,
				"element": "C" 
			},
			{
				"x": 2.6344635716,
				"y": -0.4376246551,
				"z": -0.6292507615,
				"element": "C" 
			},
			{
				"x": 4.4068668686,
				"y": -0.9726442173,
				"z": -1.094422444,
				"element": "Br" 
			},
			{
				"x": 0.3845998063,
				"y": 2.4900011309,
				"z": -1.1528454932,
				"element": "N" 
			},
			{
				"x": -0.7626711082,
				"y": 2.8075456592,
				"z": -0.8372322465,
				"element": "O" 
			},
			{
				"x": 1.1526650744,
				"y": 3.188663235,
				"z": -1.8157576914,
				"element": "O" 
			},
			{
				"x": -0.3132279359,
				"y": -1.7512305402,
				"z": 1.2358518434,
				"element": "C" 
			},
			{
				"x": -0.9267834526,
				"y": -2.5140182973,
				"z": 1.8664659919,
				"element": "N" 
			},
			{
				"x": 1.6860007163,
				"y": -3.133590619,
				"z": 1.0969907492,
				"element": "H" 
			},
			{
				"x": 3.2114705451,
				"y": -2.8268684789,
				"z": 0.3161572403,
				"element": "H" 
			},
			{
				"x": -0.9613600514,
				"y": 0.6948349591,
				"z": 0.2910912202,
				"element": "H" 
			},
			{
				"x": 2.7894563752,
				"y": 1.4590468188,
				"z": -1.6328463089,
				"element": "H" 
			}
		],
		 "valence_orbital": [ 
			{
				"type": "occ",
				"energy": -0.31611,
				"method": "rhf"
			},
			{
				"type": "occ",
				"energy": -0.31477,
				"method": "rhf"
			},
			{
				"type": "occ",
				"energy": -0.29847,
				"method": "rhf"
			},
			{
				"type": "occ",
				"energy": -0.28534,
				"method": "rhf"
			},
			{
				"type": "occ",
				"energy": -0.25268,
				"method": "rhf"
			},
			{
				"type": "unocc",
				"energy": -0.09549,
				"method": "rhf"
			},
			{
				"type": "unocc",
				"energy": -0.07478,
				"method": "rhf"
			},
			{
				"type": "unocc",
				"energy": -0.03014,
				"method": "rhf"
			},
			{
				"type": "unocc",
				"energy": -0.01462,
				"method": "rhf"
			},
			{
				"type": "unocc",
				"energy": 0.01091,
				"method": "rhf"
			}
		],
		"cosmo_sigma_profile": { 
			"-0.025": 0.0,
			"-0.024": 0.0,
			"-0.023": 0.0,
			"-0.022": 0.0,
			"-0.021": 0.0,
			"-0.02": 0.0,
			"-0.019": 0.0,
			"-0.018": 0.0,
			"-0.017": 0.0,
			"-0.016": 0.0,
			"-0.015": 0.825152754399,
			"-0.014": 1.52587944877,
			"-0.013": 2.37396997056,
			"-0.012": 1.89378425259,
			"-0.011": 2.0497039337,
			"-0.01": 1.9772993686,
			"-0.009": 3.63931787842,
			"-0.008": 4.37723479225,
			"-0.007": 4.83452317521,
			"-0.006": 7.55686200547,
			"-0.005": 8.95805463777,
			"-0.004": 11.6505542936,
			"-0.003": 17.5312990423,
			"-0.002": 23.47300745,
			"-0.001": 22.25852583,
			"0.0": 10.6272523929,
			"0.001": 10.7807311972,
			"0.002": 9.99843388835,
			"0.003": 10.8830389029,
			"0.004": 5.83363050962,
			"0.005": 4.98168984747,
			"0.006": 5.73942473815,
			"0.007": 9.09475180228,
			"0.008": 11.1806552925,
			"0.009": 7.82295423594,
			"0.01": 5.82736189614,
			"0.011": 2.61634466589,
			"0.012": 2.03466550518,
			"0.013": 0.28566279502,
			"0.014": 0.0,
			"0.015": 0.0,
			"0.016": 0.0,
			"0.017": 0.0,
			"0.018": 0.0,
			"0.019": 0.0,
			"0.02": 0.0,
			"0.021": 0.0,
			"0.022": 0.0,
			"0.023": 0.0,
			"0.024": 0.0,
			"0.025": 0.0
		}
	}
}
