{
	 "smiles": "CC1(C)N(CO)C(=O)NC1=O", 
	 "Tm": 375.15, 
	 "num_atms": 21, 
	 "gaussian": { 
		 "optdone": 1, 
		 "sigma_profile": "yes", 
		 "theory": "DFT", 
		 "functional": "B3LYP", 
		 "basiset": "6-31G**", 
		 "properties": { 
			 "R2extent": 1839.437, 
			 "electric_dipole_moment_norm": 1.4460383432, 
			 "electric_quadrupole_moment_norm": 10.1525652985, 
			 "total_energy": -569.88158642, 
			 "HOMO_LUMO_gap": 0.24865, 
			 "cosmo_polarized_energy": -14.96, 
			 "cosmo_cavitation_energy": 24.32, 
			 "cosmo_dispersion_energy": -17.2, 
			 "cosmo_repulsion_energy": 1.39, 
			 "cosmo_total_nonelectrostatic_energy": 8.51, 
			 "SMD_solvation_energy": 5.4 
		},
		"coords": [
			{
				"x": 1.3175810103,
				"y": 2.4295262309,
				"z": 1.4983995063,
				"element": "C" 
			},
			{
				"x": 0.330750876,
				"y": 1.3078087151,
				"z": 1.147492556,
				"element": "C" 
			},
			{
				"x": 0.2944330041,
				"y": 0.2237237378,
				"z": 2.2404085864,
				"element": "C" 
			},
			{
				"x": 0.5771112181,
				"y": 0.7477282119,
				"z": -0.1942829611,
				"element": "N" 
			},
			{
				"x": 1.6502609014,
				"y": -0.165518493,
				"z": -0.5494626431,
				"element": "C" 
			},
			{
				"x": 1.3099305248,
				"y": -1.5248452529,
				"z": -0.4063089178,
				"element": "O" 
			},
			{
				"x": -0.5475516882,
				"y": 0.7699114415,
				"z": -0.9813016861,
				"element": "C" 
			},
			{
				"x": -0.6976886352,
				"y": 0.2339106873,
				"z": -2.066446825,
				"element": "O" 
			},
			{
				"x": -1.5098817846,
				"y": 1.5195162085,
				"z": -0.2843755268,
				"element": "N" 
			},
			{
				"x": -1.0881469468,
				"y": 1.8930665586,
				"z": 0.975424647,
				"element": "C" 
			},
			{
				"x": -1.7084087064,
				"y": 2.5374830983,
				"z": 1.7941524723,
				"element": "O" 
			},
			{
				"x": 1.3601714211,
				"y": 3.175869705,
				"z": 0.7004667439,
				"element": "H" 
			},
			{
				"x": 0.9972135296,
				"y": 2.9216424799,
				"z": 2.4202066773,
				"element": "H" 
			},
			{
				"x": 2.3234140306,
				"y": 2.0261466627,
				"z": 1.6518920411,
				"element": "H" 
			},
			{
				"x": -0.0442106339,
				"y": 0.6677493653,
				"z": 3.1801188909,
				"element": "H" 
			},
			{
				"x": 1.2900053548,
				"y": -0.2028673084,
				"z": 2.391899792,
				"element": "H" 
			},
			{
				"x": -0.382673283,
				"y": -0.5888283464,
				"z": 1.9658388401,
				"element": "H" 
			},
			{
				"x": 2.494083081,
				"y": 0.0262888367,
				"z": 0.1160042228,
				"element": "H" 
			},
			{
				"x": 1.9472744135,
				"y": 0.0654300383,
				"z": -1.5783625471,
				"element": "H" 
			},
			{
				"x": 0.6818346559,
				"y": -1.7245702305,
				"z": -1.1159322117,
				"element": "H" 
			},
			{
				"x": -2.424002343,
				"y": 1.7188276534,
				"z": -0.6651316573,
				"element": "H" 
			}
		],
		 "valence_orbital": [ 
			{
				"type": "occ",
				"energy": -0.30029,
				"method": "rhf"
			},
			{
				"type": "occ",
				"energy": -0.29696,
				"method": "rhf"
			},
			{
				"type": "occ",
				"energy": -0.29396,
				"method": "rhf"
			},
			{
				"type": "occ",
				"energy": -0.2653,
				"method": "rhf"
			},
			{
				"type": "occ",
				"energy": -0.26265,
				"method": "rhf"
			},
			{
				"type": "unocc",
				"energy": -0.014,
				"method": "rhf"
			},
			{
				"type": "unocc",
				"energy": 0.04595,
				"method": "rhf"
			},
			{
				"type": "unocc",
				"energy": 0.07092,
				"method": "rhf"
			},
			{
				"type": "unocc",
				"energy": 0.08315,
				"method": "rhf"
			},
			{
				"type": "unocc",
				"energy": 0.09421,
				"method": "rhf"
			}
		],
		"cosmo_sigma_profile": { 
			"-0.025": 0.0,
			"-0.024": 0.0,
			"-0.023": 0.0,
			"-0.022": 0.0,
			"-0.021": 0.0,
			"-0.02": 0.0,
			"-0.019": 0.0,
			"-0.018": 0.0,
			"-0.017": 0.543823592951,
			"-0.016": 1.35960646851,
			"-0.015": 0.923186521506,
			"-0.014": 1.5830074023,
			"-0.013": 1.39364202136,
			"-0.012": 1.3994280955,
			"-0.011": 1.32816353204,
			"-0.01": 1.58543083051,
			"-0.009": 1.71450067978,
			"-0.008": 2.73413746078,
			"-0.007": 4.38771352812,
			"-0.006": 8.80557185247,
			"-0.005": 14.8342487103,
			"-0.004": 15.9883024892,
			"-0.003": 17.3196345362,
			"-0.002": 17.6398809421,
			"-0.001": 18.9035853216,
			"0.0": 11.9954368266,
			"0.001": 6.3625667248,
			"0.002": 5.18633721361,
			"0.003": 4.28208581602,
			"0.004": 4.20655673422,
			"0.005": 3.8324817609,
			"0.006": 4.00063391538,
			"0.007": 2.82975393445,
			"0.008": 2.87384299268,
			"0.009": 3.87548473486,
			"0.01": 5.32381288732,
			"0.011": 6.27226512242,
			"0.012": 10.2563435449,
			"0.013": 5.85761185544,
			"0.014": 0.595887806187,
			"0.015": 0.0,
			"0.016": 0.0,
			"0.017": 0.0,
			"0.018": 0.0,
			"0.019": 0.0,
			"0.02": 0.0,
			"0.021": 0.0,
			"0.022": 0.0,
			"0.023": 0.0,
			"0.024": 0.0,
			"0.025": 0.0
		}
	}
}
