{
	 "smiles": "CC(=O)NC1=CC=C(CO)C=C1", 
	 "Tm": 391.15, 
	 "num_atms": 23, 
	 "gaussian": { 
		 "optdone": 1, 
		 "sigma_profile": "yes", 
		 "theory": "DFT", 
		 "functional": "B3LYP", 
		 "basiset": "6-31G**", 
		 "properties": { 
			 "R2extent": 3447.9023, 
			 "electric_dipole_moment_norm": 2.62596401537, 
			 "electric_quadrupole_moment_norm": 20.5402840991, 
			 "total_energy": -554.793314836, 
			 "HOMO_LUMO_gap": 0.20533, 
			 "cosmo_polarized_energy": -14.8, 
			 "cosmo_cavitation_energy": 26.86, 
			 "cosmo_dispersion_energy": -19.59, 
			 "cosmo_repulsion_energy": 1.58, 
			 "cosmo_total_nonelectrostatic_energy": 8.85, 
			 "SMD_solvation_energy": 5.51 
		},
		"coords": [
			{
				"x": 1.0839829104,
				"y": 0.0512166546,
				"z": 3.444307587,
				"element": "C" 
			},
			{
				"x": 2.4137384542,
				"y": -0.0246660612,
				"z": 2.7186762158,
				"element": "C" 
			},
			{
				"x": 3.4326139271,
				"y": -0.409755041,
				"z": 3.2740208808,
				"element": "O" 
			},
			{
				"x": 2.4677378436,
				"y": 0.3388809324,
				"z": 1.3817610842,
				"element": "N" 
			},
			{
				"x": 1.4733313631,
				"y": 0.7815801403,
				"z": 0.4815875257,
				"element": "C" 
			},
			{
				"x": 1.5116031903,
				"y": 0.3134321228,
				"z": -0.8412234104,
				"element": "C" 
			},
			{
				"x": 0.58140235,
				"y": 0.7580823034,
				"z": -1.7763009929,
				"element": "C" 
			},
			{
				"x": -0.4275118564,
				"y": 1.6595698808,
				"z": -1.4174014896,
				"element": "C" 
			},
			{
				"x": -1.4734823567,
				"y": 2.1064561913,
				"z": -2.4204510247,
				"element": "C" 
			},
			{
				"x": -1.9567284463,
				"y": 3.4227019225,
				"z": -2.1926386376,
				"element": "O" 
			},
			{
				"x": -0.4567917436,
				"y": 2.1295091839,
				"z": -0.0997973281,
				"element": "C" 
			},
			{
				"x": 0.4887482583,
				"y": 1.7155252624,
				"z": 0.8365900387,
				"element": "C" 
			},
			{
				"x": 0.2301591765,
				"y": -0.1664984434,
				"z": 2.7991494536,
				"element": "H" 
			},
			{
				"x": 0.9424862622,
				"y": 1.04940956,
				"z": 3.872237853,
				"element": "H" 
			},
			{
				"x": 1.125517362,
				"y": -0.6618820642,
				"z": 4.2683533859,
				"element": "H" 
			},
			{
				"x": 3.3754065138,
				"y": 0.1280666954,
				"z": 0.9844397616,
				"element": "H" 
			},
			{
				"x": 2.2768002727,
				"y": -0.4018900395,
				"z": -1.1310308933,
				"element": "H" 
			},
			{
				"x": 0.6378736972,
				"y": 0.3899479789,
				"z": -2.7981530881,
				"element": "H" 
			},
			{
				"x": -2.3598569263,
				"y": 1.4638569482,
				"z": -2.3526415258,
				"element": "H" 
			},
			{
				"x": -1.0774961071,
				"y": 1.9902898736,
				"z": -3.4419119656,
				"element": "H" 
			},
			{
				"x": -1.1980432538,
				"y": 4.0206676971,
				"z": -2.2298081504,
				"element": "H" 
			},
			{
				"x": -1.2169800233,
				"y": 2.8515850594,
				"z": 0.1819698745,
				"element": "H" 
			},
			{
				"x": 0.4740891321,
				"y": 2.1359132424,
				"z": 1.8352648455,
				"element": "H" 
			}
		],
		 "valence_orbital": [ 
			{
				"type": "occ",
				"energy": -0.29926,
				"method": "rhf"
			},
			{
				"type": "occ",
				"energy": -0.27864,
				"method": "rhf"
			},
			{
				"type": "occ",
				"energy": -0.26292,
				"method": "rhf"
			},
			{
				"type": "occ",
				"energy": -0.25237,
				"method": "rhf"
			},
			{
				"type": "occ",
				"energy": -0.22485,
				"method": "rhf"
			},
			{
				"type": "unocc",
				"energy": -0.01952,
				"method": "rhf"
			},
			{
				"type": "unocc",
				"energy": -0.01508,
				"method": "rhf"
			},
			{
				"type": "unocc",
				"energy": 0.03171,
				"method": "rhf"
			},
			{
				"type": "unocc",
				"energy": 0.0799,
				"method": "rhf"
			},
			{
				"type": "unocc",
				"energy": 0.08636,
				"method": "rhf"
			}
		],
		"cosmo_sigma_profile": { 
			"-0.025": 0.0,
			"-0.024": 0.0,
			"-0.023": 0.0,
			"-0.022": 0.0,
			"-0.021": 0.0,
			"-0.02": 0.0,
			"-0.019": 0.0,
			"-0.018": 0.0,
			"-0.017": 0.0,
			"-0.016": 0.0743652112021,
			"-0.015": 1.02971326929,
			"-0.014": 1.23209232501,
			"-0.013": 1.79020314773,
			"-0.012": 2.18995921674,
			"-0.011": 1.6915714071,
			"-0.01": 2.24076994692,
			"-0.009": 2.13810788567,
			"-0.008": 2.17951265675,
			"-0.007": 5.22973517474,
			"-0.006": 9.11160953585,
			"-0.005": 16.5158352028,
			"-0.004": 18.3520856236,
			"-0.003": 18.189669683,
			"-0.002": 18.3439712082,
			"-0.001": 15.6468533425,
			"0.0": 12.2239880818,
			"0.001": 9.67358329134,
			"0.002": 10.6108150427,
			"0.003": 11.1098656465,
			"0.004": 9.62039038073,
			"0.005": 9.75550180995,
			"0.006": 3.5958534174,
			"0.007": 2.9927886044,
			"0.008": 1.94144631015,
			"0.009": 2.37880471245,
			"0.01": 2.4777345123,
			"0.011": 2.53045004892,
			"0.012": 3.95382199846,
			"0.013": 5.91672671279,
			"0.014": 6.45164736252,
			"0.015": 0.936814727554,
			"0.016": 0.0,
			"0.017": 0.0,
			"0.018": 0.0,
			"0.019": 0.0,
			"0.02": 0.0,
			"0.021": 0.0,
			"0.022": 0.0,
			"0.023": 0.0,
			"0.024": 0.0,
			"0.025": 0.0
		}
	}
}
