{
	 "smiles": "OC(=O)C1CCN(CC1)S(=O)(=O)C1=CC(=CC=C1)C(F)(F)F", 
	 "Tm": 409.15, 
	 "num_atms": 36, 
	 "gaussian": { 
		 "optdone": 1, 
		 "sigma_profile": "yes", 
		 "theory": "DFT", 
		 "functional": "B3LYP", 
		 "basiset": "6-31G**", 
		 "properties": { 
			 "R2extent": 11044.2196, 
			 "electric_dipole_moment_norm": 6.73527495578, 
			 "electric_quadrupole_moment_norm": 19.1023120341, 
			 "total_energy": -1557.11461745, 
			 "HOMO_LUMO_gap": 0.19862, 
			 "cosmo_polarized_energy": -24.81, 
			 "cosmo_cavitation_energy": 41.85, 
			 "cosmo_dispersion_energy": -28.74, 
			 "cosmo_repulsion_energy": 2.09, 
			 "cosmo_total_nonelectrostatic_energy": 15.2, 
			 "SMD_solvation_energy": 7.42 
		},
		"coords": [
			{
				"x": 1.5734079661,
				"y": 0.8083927104,
				"z": -4.7189946862,
				"element": "O" 
			},
			{
				"x": 1.5158074629,
				"y": 1.7798930063,
				"z": -3.7688656632,
				"element": "C" 
			},
			{
				"x": 1.4617232481,
				"y": 2.9377324673,
				"z": -4.1001051942,
				"element": "O" 
			},
			{
				"x": 1.5266176272,
				"y": 1.2812062644,
				"z": -2.3197169935,
				"element": "C" 
			},
			{
				"x": 0.3886952747,
				"y": 0.2450864818,
				"z": -2.0795794582,
				"element": "C" 
			},
			{
				"x": -0.0162982125,
				"y": 0.2257150018,
				"z": -0.6030943507,
				"element": "C" 
			},
			{
				"x": -0.5337492077,
				"y": 1.5416589151,
				"z": -0.1639167285,
				"element": "N" 
			},
			{
				"x": -0.0126860364,
				"y": 2.7291394,
				"z": -0.8978397241,
				"element": "C" 
			},
			{
				"x": 1.4297795657,
				"y": 2.4543309599,
				"z": -1.3190916528,
				"element": "C" 
			},
			{
				"x": -2.1795510239,
				"y": 1.5987361458,
				"z": 0.2069748129,
				"element": "S" 
			},
			{
				"x": -2.5051180553,
				"y": 3.0178982108,
				"z": 0.3645522314,
				"element": "O" 
			},
			{
				"x": -2.9663327865,
				"y": 0.7468639143,
				"z": -0.6986760195,
				"element": "O" 
			},
			{
				"x": -2.2188802686,
				"y": 0.8028037643,
				"z": 1.8215035938,
				"element": "C" 
			},
			{
				"x": -1.4531072842,
				"y": 1.3289776318,
				"z": 2.8634656302,
				"element": "C" 
			},
			{
				"x": -1.5360341399,
				"y": 0.7386460445,
				"z": 4.1224991737,
				"element": "C" 
			},
			{
				"x": -2.3815939504,
				"y": -0.3568953993,
				"z": 4.3376560645,
				"element": "C" 
			},
			{
				"x": -3.144918191,
				"y": -0.8640612958,
				"z": 3.2892011444,
				"element": "C" 
			},
			{
				"x": -3.0679257276,
				"y": -0.2849093086,
				"z": 2.0198570135,
				"element": "C" 
			},
			{
				"x": -0.6743760755,
				"y": 1.2417175571,
				"z": 5.2518853509,
				"element": "C" 
			},
			{
				"x": 0.4390659608,
				"y": 0.4856203664,
				"z": 5.3936799194,
				"element": "F" 
			},
			{
				"x": -1.3293796945,
				"y": 1.1988286042,
				"z": 6.4319732428,
				"element": "F" 
			},
			{
				"x": -0.2693905223,
				"y": 2.5122911908,
				"z": 5.0510494231,
				"element": "F" 
			},
			{
				"x": 1.6172500831,
				"y": -0.0665259265,
				"z": -4.3083097583,
				"element": "H" 
			},
			{
				"x": 2.4915780959,
				"y": 0.775497129,
				"z": -2.1735873402,
				"element": "H" 
			},
			{
				"x": 0.6992819622,
				"y": -0.7645540691,
				"z": -2.3753055922,
				"element": "H" 
			},
			{
				"x": -0.4962605969,
				"y": 0.4947442236,
				"z": -2.6749118985,
				"element": "H" 
			},
			{
				"x": -0.7866618937,
				"y": -0.5310278212,
				"z": -0.441787173,
				"element": "H" 
			},
			{
				"x": 0.8430035008,
				"y": -0.0420700021,
				"z": 0.0243788194,
				"element": "H" 
			},
			{
				"x": -0.6156166626,
				"y": 2.95761351,
				"z": -1.7859026461,
				"element": "H" 
			},
			{
				"x": -0.0698313302,
				"y": 3.5930868328,
				"z": -0.2346077104,
				"element": "H" 
			},
			{
				"x": 2.0305757585,
				"y": 2.2353848232,
				"z": -0.4302176154,
				"element": "H" 
			},
			{
				"x": 1.8355396204,
				"y": 3.3556925535,
				"z": -1.7834923238,
				"element": "H" 
			},
			{
				"x": -0.8070134217,
				"y": 2.1824125473,
				"z": 2.6958383196,
				"element": "H" 
			},
			{
				"x": -2.4435968458,
				"y": -0.799871283,
				"z": 5.3260253551,
				"element": "H" 
			},
			{
				"x": -3.8046732164,
				"y": -1.7090989946,
				"z": 3.4581537741,
				"element": "H" 
			},
			{
				"x": -3.654830983,
				"y": -0.6600561563,
				"z": 1.1888086601,
				"element": "H" 
			}
		],
		 "valence_orbital": [ 
			{
				"type": "occ",
				"energy": -0.30612,
				"method": "rhf"
			},
			{
				"type": "occ",
				"energy": -0.29172,
				"method": "rhf"
			},
			{
				"type": "occ",
				"energy": -0.28978,
				"method": "rhf"
			},
			{
				"type": "occ",
				"energy": -0.27997,
				"method": "rhf"
			},
			{
				"type": "occ",
				"energy": -0.25536,
				"method": "rhf"
			},
			{
				"type": "unocc",
				"energy": -0.05674,
				"method": "rhf"
			},
			{
				"type": "unocc",
				"energy": -0.0453,
				"method": "rhf"
			},
			{
				"type": "unocc",
				"energy": -0.0007,
				"method": "rhf"
			},
			{
				"type": "unocc",
				"energy": 0.0345,
				"method": "rhf"
			},
			{
				"type": "unocc",
				"energy": 0.05222,
				"method": "rhf"
			}
		],
		"cosmo_sigma_profile": { 
			"-0.025": 0.0,
			"-0.024": 0.0,
			"-0.023": 0.0,
			"-0.022": 0.0,
			"-0.021": 0.0,
			"-0.02": 0.0,
			"-0.019": 0.00949688082763,
			"-0.018": 0.795520918166,
			"-0.017": 1.38960063464,
			"-0.016": 1.16497492994,
			"-0.015": 0.839333682307,
			"-0.014": 0.863459466026,
			"-0.013": 1.07235153861,
			"-0.012": 1.58256655551,
			"-0.011": 1.15661850479,
			"-0.01": 1.08302338727,
			"-0.009": 1.51335768662,
			"-0.008": 5.70351867099,
			"-0.007": 11.7945994446,
			"-0.006": 18.2811082759,
			"-0.005": 26.3041743221,
			"-0.004": 21.8828389507,
			"-0.003": 23.4405782357,
			"-0.002": 22.0792997216,
			"-0.001": 20.6837479794,
			"0.0": 24.4898754599,
			"0.001": 24.1398127153,
			"0.002": 29.0401198269,
			"0.003": 25.1832679978,
			"0.004": 6.38504589663,
			"0.005": 4.49354392879,
			"0.006": 5.40050151761,
			"0.007": 4.75003228931,
			"0.008": 5.90813294211,
			"0.009": 6.74410156066,
			"0.01": 12.335043442,
			"0.011": 13.106446267,
			"0.012": 6.75793698825,
			"0.013": 1.22070474295,
			"0.014": 0.0,
			"0.015": 0.0,
			"0.016": 0.0,
			"0.017": 0.0,
			"0.018": 0.0,
			"0.019": 0.0,
			"0.02": 0.0,
			"0.021": 0.0,
			"0.022": 0.0,
			"0.023": 0.0,
			"0.024": 0.0,
			"0.025": 0.0
		}
	}
}
