{
	 "smiles": "CC(C)C(O)C1=NC=CN1C", 
	 "Tm": 354.15, 
	 "num_atms": 25, 
	 "gaussian": { 
		 "optdone": 1, 
		 "sigma_profile": "yes", 
		 "theory": "DFT", 
		 "functional": "B3LYP", 
		 "basiset": "6-31G**", 
		 "properties": { 
			 "R2extent": 2308.3342, 
			 "electric_dipole_moment_norm": 3.98020829354, 
			 "electric_quadrupole_moment_norm": 11.3152347567, 
			 "total_energy": -498.014279366, 
			 "HOMO_LUMO_gap": 0.24602, 
			 "cosmo_polarized_energy": -10.93, 
			 "cosmo_cavitation_energy": 26.7, 
			 "cosmo_dispersion_energy": -18.98, 
			 "cosmo_repulsion_energy": 1.51, 
			 "cosmo_total_nonelectrostatic_energy": 9.24, 
			 "SMD_solvation_energy": 3.94 
		},
		"coords": [
			{
				"x": 0.733141383,
				"y": 0.8941336082,
				"z": 0.7931086511,
				"element": "C" 
			},
			{
				"x": -0.5376679116,
				"y": 0.6128739711,
				"z": 1.6063491652,
				"element": "C" 
			},
			{
				"x": -0.9793794974,
				"y": 1.8533682308,
				"z": 2.3926392664,
				"element": "C" 
			},
			{
				"x": -1.7035454793,
				"y": 0.0968971569,
				"z": 0.7195908792,
				"element": "C" 
			},
			{
				"x": -2.8656056137,
				"y": -0.1389517903,
				"z": 1.5036745167,
				"element": "O" 
			},
			{
				"x": -1.357362278,
				"y": -1.1812731706,
				"z": -0.0067022179,
				"element": "C" 
			},
			{
				"x": -1.4570264779,
				"y": -2.3534162776,
				"z": 0.595666428,
				"element": "N" 
			},
			{
				"x": -1.0868042097,
				"y": -3.2898437858,
				"z": -0.3393290952,
				"element": "C" 
			},
			{
				"x": -0.7614932211,
				"y": -2.6759310275,
				"z": -1.5207759233,
				"element": "C" 
			},
			{
				"x": -0.943439093,
				"y": -1.3194951681,
				"z": -1.305772675,
				"element": "N" 
			},
			{
				"x": -0.711099008,
				"y": -0.276638701,
				"z": -2.2934406958,
				"element": "C" 
			},
			{
				"x": 1.1016056413,
				"y": -0.0012911196,
				"z": 0.2821359721,
				"element": "H" 
			},
			{
				"x": 0.5572080706,
				"y": 1.6724452776,
				"z": 0.0392254525,
				"element": "H" 
			},
			{
				"x": 1.5351320715,
				"y": 1.2533775632,
				"z": 1.4460006631,
				"element": "H" 
			},
			{
				"x": -0.3223080669,
				"y": -0.1974631055,
				"z": 2.3164370883,
				"element": "H" 
			},
			{
				"x": -1.8966135993,
				"y": 1.6505035486,
				"z": 2.9489844203,
				"element": "H" 
			},
			{
				"x": -0.2015271055,
				"y": 2.1652009461,
				"z": 3.0977838745,
				"element": "H" 
			},
			{
				"x": -1.1718959249,
				"y": 2.6969754216,
				"z": 1.7170893088,
				"element": "H" 
			},
			{
				"x": -1.9623539664,
				"y": 0.8863278023,
				"z": -0.0009741963,
				"element": "H" 
			},
			{
				"x": -2.8041224902,
				"y": -1.0693642321,
				"z": 1.7764443965,
				"element": "H" 
			},
			{
				"x": -1.0827994689,
				"y": -4.3472650511,
				"z": -0.1141440138,
				"element": "H" 
			},
			{
				"x": -0.4330538729,
				"y": -3.0574269564,
				"z": -2.4757178467,
				"element": "H" 
			},
			{
				"x": 0.3205074051,
				"y": 0.0877139569,
				"z": -2.2593871746,
				"element": "H" 
			},
			{
				"x": -0.9143523556,
				"y": -0.6758134716,
				"z": -3.289313536,
				"element": "H" 
			},
			{
				"x": -1.3857449311,
				"y": 0.5625563738,
				"z": -2.1157727081,
				"element": "H" 
			}
		],
		 "valence_orbital": [ 
			{
				"type": "occ",
				"energy": -0.31809,
				"method": "rhf"
			},
			{
				"type": "occ",
				"energy": -0.27317,
				"method": "rhf"
			},
			{
				"type": "occ",
				"energy": -0.27037,
				"method": "rhf"
			},
			{
				"type": "occ",
				"energy": -0.25565,
				"method": "rhf"
			},
			{
				"type": "occ",
				"energy": -0.22203,
				"method": "rhf"
			},
			{
				"type": "unocc",
				"energy": 0.02399,
				"method": "rhf"
			},
			{
				"type": "unocc",
				"energy": 0.06172,
				"method": "rhf"
			},
			{
				"type": "unocc",
				"energy": 0.07535,
				"method": "rhf"
			},
			{
				"type": "unocc",
				"energy": 0.1079,
				"method": "rhf"
			},
			{
				"type": "unocc",
				"energy": 0.11133,
				"method": "rhf"
			}
		],
		"cosmo_sigma_profile": { 
			"-0.025": 0.0,
			"-0.024": 0.0,
			"-0.023": 0.0,
			"-0.022": 0.0,
			"-0.021": 0.0,
			"-0.02": 0.0,
			"-0.019": 0.0,
			"-0.018": 0.0,
			"-0.017": 0.0,
			"-0.016": 0.0,
			"-0.015": 0.0,
			"-0.014": 0.0,
			"-0.013": 0.0,
			"-0.012": 0.0,
			"-0.011": 0.0572693105247,
			"-0.01": 0.446661957567,
			"-0.009": 0.747594965135,
			"-0.008": 3.19682580146,
			"-0.007": 7.41109175384,
			"-0.006": 9.47793585443,
			"-0.005": 11.1367130092,
			"-0.004": 13.5841971756,
			"-0.003": 25.103057248,
			"-0.002": 18.9025260893,
			"-0.001": 20.020810997,
			"0.0": 18.3098473144,
			"0.001": 19.0632449107,
			"0.002": 12.9748133667,
			"0.003": 6.79741635803,
			"0.004": 6.7561088559,
			"0.005": 6.02331075268,
			"0.006": 6.56910129146,
			"0.007": 3.57773652108,
			"0.008": 3.7827026516,
			"0.009": 2.65739632794,
			"0.01": 2.59875872662,
			"0.011": 1.74802089824,
			"0.012": 1.50855191622,
			"0.013": 2.96714472706,
			"0.014": 1.98564764157,
			"0.015": 1.0116069256,
			"0.016": 0.174995157226,
			"0.017": 0.0,
			"0.018": 0.0,
			"0.019": 0.0,
			"0.02": 0.0,
			"0.021": 0.0,
			"0.022": 0.0,
			"0.023": 0.0,
			"0.024": 0.0,
			"0.025": 0.0
		}
	}
}
