{
	 "smiles": "OC(=O)C1=C(Cl)C=C(Cl)C(F)=C1", 
	 "Tm": 415.15, 
	 "num_atms": 15, 
	 "gaussian": { 
		 "optdone": 1, 
		 "sigma_profile": "yes", 
		 "theory": "DFT", 
		 "functional": "B3LYP", 
		 "basiset": "6-31G**", 
		 "properties": { 
			 "R2extent": 4677.5324, 
			 "electric_dipole_moment_norm": 3.55687732991, 
			 "electric_quadrupole_moment_norm": 19.190275701, 
			 "total_energy": -1439.21751952, 
			 "HOMO_LUMO_gap": 0.19602, 
			 "cosmo_polarized_energy": -9.85, 
			 "cosmo_cavitation_energy": 24.01, 
			 "cosmo_dispersion_energy": -18.15, 
			 "cosmo_repulsion_energy": 1.41, 
			 "cosmo_total_nonelectrostatic_energy": 7.27, 
			 "SMD_solvation_energy": 5.31 
		},
		"coords": [
			{
				"x": 1.4047735779,
				"y": -3.9079527167,
				"z": 2.2080421274,
				"element": "O" 
			},
			{
				"x": 0.3593473407,
				"y": -3.2484944608,
				"z": 1.6866651641,
				"element": "C" 
			},
			{
				"x": -0.4809861841,
				"y": -3.8474399161,
				"z": 1.0548960893,
				"element": "O" 
			},
			{
				"x": 0.2369539416,
				"y": -1.7465930769,
				"z": 1.8940307479,
				"element": "C" 
			},
			{
				"x": 1.0890123753,
				"y": -0.866487016,
				"z": 2.585514878,
				"element": "C" 
			},
			{
				"x": 2.5697824214,
				"y": -1.3929566434,
				"z": 3.3998051906,
				"element": "Cl" 
			},
			{
				"x": 0.819698224,
				"y": 0.4989649055,
				"z": 2.6767256813,
				"element": "C" 
			},
			{
				"x": -0.3193625769,
				"y": 1.0239152438,
				"z": 2.0729419555,
				"element": "C" 
			},
			{
				"x": -0.6738431458,
				"y": 2.7206705375,
				"z": 2.174121427,
				"element": "Cl" 
			},
			{
				"x": -1.1783563802,
				"y": 0.1656215047,
				"z": 1.3812167991,
				"element": "C" 
			},
			{
				"x": -2.2760629936,
				"y": 0.6563982339,
				"z": 0.7965373087,
				"element": "F" 
			},
			{
				"x": -0.903440318,
				"y": -1.1864969699,
				"z": 1.2960311931,
				"element": "C" 
			},
			{
				"x": 2.0061583919,
				"y": -3.3170296597,
				"z": 2.6903294875,
				"element": "H" 
			},
			{
				"x": 1.4934383765,
				"y": 1.1534950895,
				"z": 3.2157713541,
				"element": "H" 
			},
			{
				"x": -1.5749130507,
				"y": -1.8450150555,
				"z": 0.7577705963,
				"element": "H" 
			}
		],
		 "valence_orbital": [ 
			{
				"type": "occ",
				"energy": -0.34223,
				"method": "rhf"
			},
			{
				"type": "occ",
				"energy": -0.3238,
				"method": "rhf"
			},
			{
				"type": "occ",
				"energy": -0.29021,
				"method": "rhf"
			},
			{
				"type": "occ",
				"energy": -0.28914,
				"method": "rhf"
			},
			{
				"type": "occ",
				"energy": -0.27453,
				"method": "rhf"
			},
			{
				"type": "unocc",
				"energy": -0.07851,
				"method": "rhf"
			},
			{
				"type": "unocc",
				"energy": -0.04594,
				"method": "rhf"
			},
			{
				"type": "unocc",
				"energy": -0.02532,
				"method": "rhf"
			},
			{
				"type": "unocc",
				"energy": 0.01623,
				"method": "rhf"
			},
			{
				"type": "unocc",
				"energy": 0.03231,
				"method": "rhf"
			}
		],
		"cosmo_sigma_profile": { 
			"-0.025": 0.0,
			"-0.024": 0.0,
			"-0.023": 0.0,
			"-0.022": 0.0,
			"-0.021": 0.0,
			"-0.02": 0.0,
			"-0.019": 0.0,
			"-0.018": 0.0,
			"-0.017": 0.0,
			"-0.016": 0.0,
			"-0.015": 0.0,
			"-0.014": 0.0,
			"-0.013": 0.0,
			"-0.012": 0.559896716859,
			"-0.011": 1.02357836849,
			"-0.01": 2.26169778629,
			"-0.009": 3.82475205976,
			"-0.008": 4.60617802961,
			"-0.007": 5.8335810868,
			"-0.006": 4.33677122534,
			"-0.005": 6.22206518838,
			"-0.004": 9.95350521351,
			"-0.003": 15.9555909769,
			"-0.002": 25.1102441953,
			"-0.001": 22.9619492176,
			"0.0": 12.5642006574,
			"0.001": 14.4453494866,
			"0.002": 17.6729674441,
			"0.003": 19.8031866649,
			"0.004": 5.08048955484,
			"0.005": 2.6110290183,
			"0.006": 2.64564518545,
			"0.007": 2.3245498636,
			"0.008": 2.74012274466,
			"0.009": 3.72141942668,
			"0.01": 4.83733631825,
			"0.011": 4.82332887628,
			"0.012": 2.48349796987,
			"0.013": 0.492769049316,
			"0.014": 0.0,
			"0.015": 0.0,
			"0.016": 0.0,
			"0.017": 0.0,
			"0.018": 0.0,
			"0.019": 0.0,
			"0.02": 0.0,
			"0.021": 0.0,
			"0.022": 0.0,
			"0.023": 0.0,
			"0.024": 0.0,
			"0.025": 0.0
		}
	}
}
