{
	 "smiles": "O=C(C1=CC=CC=C1)C1=NC=CC=N1", 
	 "Tm": 353.15, 
	 "num_atms": 22, 
	 "gaussian": { 
		 "optdone": 1, 
		 "sigma_profile": "yes", 
		 "theory": "DFT", 
		 "functional": "B3LYP", 
		 "basiset": "6-31G**", 
		 "properties": { 
			 "R2extent": 3809.9319, 
			 "electric_dipole_moment_norm": 3.98291209418, 
			 "electric_quadrupole_moment_norm": 26.9725367652, 
			 "total_energy": -608.700341385, 
			 "HOMO_LUMO_gap": 0.17646, 
			 "cosmo_polarized_energy": -13.63, 
			 "cosmo_cavitation_energy": 27.22, 
			 "cosmo_dispersion_energy": -19.94, 
			 "cosmo_repulsion_energy": 1.55, 
			 "cosmo_total_nonelectrostatic_energy": 8.83, 
			 "SMD_solvation_energy": 3.09 
		},
		"coords": [
			{
				"x": -2.7018776246,
				"y": -0.8757479299,
				"z": 2.3292269783,
				"element": "O" 
			},
			{
				"x": -1.7883284142,
				"y": -0.8455649557,
				"z": 1.5199982319,
				"element": "C" 
			},
			{
				"x": -0.9463712183,
				"y": 0.3730899004,
				"z": 1.3313812439,
				"element": "C" 
			},
			{
				"x": -0.0084093243,
				"y": 0.5165250445,
				"z": 0.2968414369,
				"element": "C" 
			},
			{
				"x": 0.7049381732,
				"y": 1.7068394256,
				"z": 0.1582705446,
				"element": "C" 
			},
			{
				"x": 0.4938449209,
				"y": 2.7597864006,
				"z": 1.0501503702,
				"element": "C" 
			},
			{
				"x": -0.4397003689,
				"y": 2.6250091271,
				"z": 2.0829477622,
				"element": "C" 
			},
			{
				"x": -1.1579357664,
				"y": 1.4421427691,
				"z": 2.218982994,
				"element": "C" 
			},
			{
				"x": -1.5266627025,
				"y": -2.1066163322,
				"z": 0.7054808395,
				"element": "C" 
			},
			{
				"x": -2.6156234191,
				"y": -2.7319733908,
				"z": 0.2368006698,
				"element": "N" 
			},
			{
				"x": -2.4029154495,
				"y": -3.8883039187,
				"z": -0.3957445344,
				"element": "C" 
			},
			{
				"x": -1.1290853343,
				"y": -4.4397466346,
				"z": -0.5407885856,
				"element": "C" 
			},
			{
				"x": -0.0725294977,
				"y": -3.7011327638,
				"z": -0.0163086449,
				"element": "C" 
			},
			{
				"x": -0.2582448986,
				"y": -2.5245661066,
				"z": 0.5960797808,
				"element": "N" 
			},
			{
				"x": 0.1707576731,
				"y": -0.3009660609,
				"z": -0.3904435646,
				"element": "H" 
			},
			{
				"x": 1.4277645063,
				"y": 1.8112323561,
				"z": -0.6455658939,
				"element": "H" 
			},
			{
				"x": 1.0542092415,
				"y": 3.6841951967,
				"z": 0.9412829383,
				"element": "H" 
			},
			{
				"x": -0.6063446231,
				"y": 3.4439966215,
				"z": 2.7765877193,
				"element": "H" 
			},
			{
				"x": -1.8948342388,
				"y": 1.3171098796,
				"z": 3.0051334828,
				"element": "H" 
			},
			{
				"x": -3.2819996952,
				"y": -4.391321023,
				"z": -0.79539906,
				"element": "H" 
			},
			{
				"x": -0.9705402395,
				"y": -5.3886950852,
				"z": -1.041394244,
				"element": "H" 
			},
			{
				"x": 0.9551883,
				"y": -4.0522925197,
				"z": -0.0901204651,
				"element": "H" 
			}
		],
		 "valence_orbital": [ 
			{
				"type": "occ",
				"energy": -0.29498,
				"method": "rhf"
			},
			{
				"type": "occ",
				"energy": -0.26261,
				"method": "rhf"
			},
			{
				"type": "occ",
				"energy": -0.25705,
				"method": "rhf"
			},
			{
				"type": "occ",
				"energy": -0.25492,
				"method": "rhf"
			},
			{
				"type": "occ",
				"energy": -0.248,
				"method": "rhf"
			},
			{
				"type": "unocc",
				"energy": -0.07154,
				"method": "rhf"
			},
			{
				"type": "unocc",
				"energy": -0.05042,
				"method": "rhf"
			},
			{
				"type": "unocc",
				"energy": -0.02903,
				"method": "rhf"
			},
			{
				"type": "unocc",
				"energy": -0.00443,
				"method": "rhf"
			},
			{
				"type": "unocc",
				"energy": 0.04942,
				"method": "rhf"
			}
		],
		"cosmo_sigma_profile": { 
			"-0.025": 0.0,
			"-0.024": 0.0,
			"-0.023": 0.0,
			"-0.022": 0.0,
			"-0.021": 0.0,
			"-0.02": 0.0,
			"-0.019": 0.0,
			"-0.018": 0.0,
			"-0.017": 0.0,
			"-0.016": 0.0,
			"-0.015": 0.0,
			"-0.014": 0.0,
			"-0.013": 0.0,
			"-0.012": 0.0,
			"-0.011": 0.0,
			"-0.01": 0.0,
			"-0.009": 1.28817993656,
			"-0.008": 7.80103570941,
			"-0.007": 9.78344883788,
			"-0.006": 14.0578204533,
			"-0.005": 16.178172735,
			"-0.004": 16.1813510619,
			"-0.003": 14.3554514331,
			"-0.002": 16.8173922153,
			"-0.001": 19.6662449536,
			"0.0": 15.4126076195,
			"0.001": 11.2261576653,
			"0.002": 13.0566760436,
			"0.003": 14.4494080375,
			"0.004": 14.5817870804,
			"0.005": 4.04303519059,
			"0.006": 3.77973384744,
			"0.007": 3.29214080518,
			"0.008": 2.3603652347,
			"0.009": 3.77550809715,
			"0.01": 4.07296039259,
			"0.011": 5.27888286489,
			"0.012": 3.49198900785,
			"0.013": 2.20902005108,
			"0.014": 1.60921308867,
			"0.015": 1.34803479722,
			"0.016": 0.0126165702149,
			"0.017": 0.0,
			"0.018": 0.0,
			"0.019": 0.0,
			"0.02": 0.0,
			"0.021": 0.0,
			"0.022": 0.0,
			"0.023": 0.0,
			"0.024": 0.0,
			"0.025": 0.0
		}
	}
}
