{
	 "smiles": "CCN1CCCCC1", 
	 "Tm": 253.15, 
	 "num_atms": 23, 
	 "gaussian": { 
		 "optdone": 1, 
		 "sigma_profile": "yes", 
		 "theory": "DFT", 
		 "functional": "B3LYP", 
		 "basiset": "6-31G**", 
		 "properties": { 
			 "R2extent": 1406.2837, 
			 "electric_dipole_moment_norm": 0.398107636199, 
			 "electric_quadrupole_moment_norm": 1.71460458707, 
			 "total_energy": -330.534492006, 
			 "HOMO_LUMO_gap": 0.28278, 
			 "cosmo_polarized_energy": -2.13, 
			 "cosmo_cavitation_energy": 22.74, 
			 "cosmo_dispersion_energy": -17.19, 
			 "cosmo_repulsion_energy": 1.44, 
			 "cosmo_total_nonelectrostatic_energy": 6.99, 
			 "SMD_solvation_energy": 1.36 
		},
		"coords": [
			{
				"x": -1.8120998305,
				"y": 1.8037415993,
				"z": -2.6369217955,
				"element": "C" 
			},
			{
				"x": -0.5670693424,
				"y": 1.3029803264,
				"z": -1.9015342914,
				"element": "C" 
			},
			{
				"x": -0.8638180761,
				"y": 0.306664521,
				"z": -0.8766830976,
				"element": "N" 
			},
			{
				"x": 0.3302227633,
				"y": -0.3720639014,
				"z": -0.3736179273,
				"element": "C" 
			},
			{
				"x": -0.0672360032,
				"y": -1.6761820815,
				"z": 0.3530430805,
				"element": "C" 
			},
			{
				"x": -1.4541036501,
				"y": -1.5397075533,
				"z": 1.0173088514,
				"element": "C" 
			},
			{
				"x": -1.6795809967,
				"y": -0.0876057418,
				"z": 1.449710067,
				"element": "C" 
			},
			{
				"x": -1.6691648854,
				"y": 0.8539979693,
				"z": 0.2249001895,
				"element": "C" 
			},
			{
				"x": -1.5214986102,
				"y": 2.4579959728,
				"z": -3.4652751811,
				"element": "H" 
			},
			{
				"x": -2.3796408699,
				"y": 0.9608517639,
				"z": -3.0436067724,
				"element": "H" 
			},
			{
				"x": -2.4756689386,
				"y": 2.3784351168,
				"z": -1.9839110281,
				"element": "H" 
			},
			{
				"x": -0.0187807236,
				"y": 2.1711440285,
				"z": -1.4791974585,
				"element": "H" 
			},
			{
				"x": 0.1061546354,
				"y": 0.8346507944,
				"z": -2.6295281357,
				"element": "H" 
			},
			{
				"x": 0.9828936837,
				"y": -0.6001600755,
				"z": -1.2227517813,
				"element": "H" 
			},
			{
				"x": 0.9205847643,
				"y": 0.2806602722,
				"z": 0.3007966279,
				"element": "H" 
			},
			{
				"x": 0.6952823104,
				"y": -1.9113349656,
				"z": 1.1057196473,
				"element": "H" 
			},
			{
				"x": -0.0794668868,
				"y": -2.5100918909,
				"z": -0.3570151853,
				"element": "H" 
			},
			{
				"x": -2.2348167582,
				"y": -1.8264020696,
				"z": 0.304087256,
				"element": "H" 
			},
			{
				"x": -1.5393317775,
				"y": -2.218856788,
				"z": 1.8729114934,
				"element": "H" 
			},
			{
				"x": -2.6261236123,
				"y": 0.0254936112,
				"z": 1.9892523018,
				"element": "H" 
			},
			{
				"x": -0.8881967079,
				"y": 0.2022018303,
				"z": 2.1525011262,
				"element": "H" 
			},
			{
				"x": -2.693796222,
				"y": 0.9965088479,
				"z": -0.1370047328,
				"element": "H" 
			},
			{
				"x": -1.2987442657,
				"y": 1.8528784136,
				"z": 0.532916746,
				"element": "H" 
			}
		],
		 "valence_orbital": [ 
			{
				"type": "occ",
				"energy": -0.33459,
				"method": "rhf"
			},
			{
				"type": "occ",
				"energy": -0.31676,
				"method": "rhf"
			},
			{
				"type": "occ",
				"energy": -0.30515,
				"method": "rhf"
			},
			{
				"type": "occ",
				"energy": -0.30294,
				"method": "rhf"
			},
			{
				"type": "occ",
				"energy": -0.2001,
				"method": "rhf"
			},
			{
				"type": "unocc",
				"energy": 0.08268,
				"method": "rhf"
			},
			{
				"type": "unocc",
				"energy": 0.1073,
				"method": "rhf"
			},
			{
				"type": "unocc",
				"energy": 0.11855,
				"method": "rhf"
			},
			{
				"type": "unocc",
				"energy": 0.12491,
				"method": "rhf"
			},
			{
				"type": "unocc",
				"energy": 0.14127,
				"method": "rhf"
			}
		],
		"cosmo_sigma_profile": { 
			"-0.025": 0.0,
			"-0.024": 0.0,
			"-0.023": 0.0,
			"-0.022": 0.0,
			"-0.021": 0.0,
			"-0.02": 0.0,
			"-0.019": 0.0,
			"-0.018": 0.0,
			"-0.017": 0.0,
			"-0.016": 0.0,
			"-0.015": 0.0,
			"-0.014": 0.0,
			"-0.013": 0.0,
			"-0.012": 0.0,
			"-0.011": 0.0,
			"-0.01": 0.0,
			"-0.009": 0.0,
			"-0.008": 0.0,
			"-0.007": 0.0,
			"-0.006": 0.0,
			"-0.005": 0.0,
			"-0.004": 0.966779479865,
			"-0.003": 11.5415094056,
			"-0.002": 25.1754188543,
			"-0.001": 40.4786531296,
			"0.0": 46.4509176528,
			"0.001": 30.1512134667,
			"0.002": 8.88320827203,
			"0.003": 1.12394610177,
			"0.004": 1.34772568176,
			"0.005": 1.45903340885,
			"0.006": 0.793954754735,
			"0.007": 0.77057631075,
			"0.008": 0.788249962252,
			"0.009": 0.819845607528,
			"0.01": 0.568390022005,
			"0.011": 0.675031419599,
			"0.012": 0.847317783015,
			"0.013": 0.465148538107,
			"0.014": 0.277189767748,
			"0.015": 0.382803643922,
			"0.016": 0.190841491115,
			"0.017": 0.0,
			"0.018": 0.0,
			"0.019": 0.0,
			"0.02": 0.0,
			"0.021": 0.0,
			"0.022": 0.0,
			"0.023": 0.0,
			"0.024": 0.0,
			"0.025": 0.0
		}
	}
}
