{
	 "smiles": "FC1=CC=C(C=C1)C(=O)CCCN1CCN(CC1)C1=CC=CC=N1", 
	 "Tm": 365.15, 
	 "num_atms": 46, 
	 "gaussian": { 
		 "optdone": 1, 
		 "sigma_profile": "yes", 
		 "theory": "DFT", 
		 "functional": "B3LYP", 
		 "basiset": "6-31G**", 
		 "properties": { 
			 "R2extent": 10244.7515, 
			 "electric_dipole_moment_norm": 2.78740493111, 
			 "electric_quadrupole_moment_norm": 11.4938594319, 
			 "total_energy": -1076.58396544, 
			 "HOMO_LUMO_gap": 0.14364, 
			 "cosmo_polarized_energy": -13.48, 
			 "cosmo_cavitation_energy": 47.35, 
			 "cosmo_dispersion_energy": -32.07, 
			 "cosmo_repulsion_energy": 2.39, 
			 "cosmo_total_nonelectrostatic_energy": 17.67, 
			 "SMD_solvation_energy": 6.35 
		},
		"coords": [
			{
				"x": -4.9292071319,
				"y": -1.1742097911,
				"z": -1.9082039581,
				"element": "F" 
			},
			{
				"x": -4.0719768349,
				"y": -0.6877187273,
				"z": -0.9907000455,
				"element": "C" 
			},
			{
				"x": -3.5207646241,
				"y": 0.5765645006,
				"z": -1.184787597,
				"element": "C" 
			},
			{
				"x": -2.6390242758,
				"y": 1.0691950897,
				"z": -0.2304585727,
				"element": "C" 
			},
			{
				"x": -2.2992851555,
				"y": 0.3153996599,
				"z": 0.9075291438,
				"element": "C" 
			},
			{
				"x": -2.8780301287,
				"y": -0.953602377,
				"z": 1.0687962074,
				"element": "C" 
			},
			{
				"x": -3.7663464423,
				"y": -1.4625465601,
				"z": 0.122349053,
				"element": "C" 
			},
			{
				"x": -1.3413410773,
				"y": 0.9359632553,
				"z": 1.8818458274,
				"element": "C" 
			},
			{
				"x": -0.8920056143,
				"y": 2.0563945435,
				"z": 1.6652100936,
				"element": "O" 
			},
			{
				"x": -0.9872160972,
				"y": 0.2362301634,
				"z": 3.1935171201,
				"element": "C" 
			},
			{
				"x": 0.5236134099,
				"y": 0.2700274635,
				"z": 3.472097843,
				"element": "C" 
			},
			{
				"x": 1.2918247697,
				"y": -0.6979017043,
				"z": 2.5623372487,
				"element": "C" 
			},
			{
				"x": 1.0304582718,
				"y": -0.4555478547,
				"z": 1.1466693335,
				"element": "N" 
			},
			{
				"x": 1.1268466754,
				"y": -1.6591105057,
				"z": 0.3130590293,
				"element": "C" 
			},
			{
				"x": 1.2164384675,
				"y": -1.2937888462,
				"z": -1.165816316,
				"element": "C" 
			},
			{
				"x": 2.4413372792,
				"y": -0.5311452611,
				"z": -1.4148386264,
				"element": "N" 
			},
			{
				"x": 2.8912246658,
				"y": 0.3534704433,
				"z": -0.346593307,
				"element": "C" 
			},
			{
				"x": 1.7173748297,
				"y": 0.7116041595,
				"z": 0.5726641827,
				"element": "C" 
			},
			{
				"x": 3.2286204593,
				"y": -0.7881174417,
				"z": -2.51598723,
				"element": "C" 
			},
			{
				"x": 4.514829664,
				"y": -0.2083917451,
				"z": -2.6655375762,
				"element": "C" 
			},
			{
				"x": 5.2406026359,
				"y": -0.4920970931,
				"z": -3.8127578715,
				"element": "C" 
			},
			{
				"x": 4.7068680743,
				"y": -1.3426456085,
				"z": -4.7861170762,
				"element": "C" 
			},
			{
				"x": 3.4455463207,
				"y": -1.876555714,
				"z": -4.5379946689,
				"element": "C" 
			},
			{
				"x": 2.717093661,
				"y": -1.6163658457,
				"z": -3.4488783313,
				"element": "N" 
			},
			{
				"x": -3.7890274321,
				"y": 1.1480216115,
				"z": -2.0668605508,
				"element": "H" 
			},
			{
				"x": -2.1920468325,
				"y": 2.0511596718,
				"z": -0.3400775332,
				"element": "H" 
			},
			{
				"x": -2.6448831824,
				"y": -1.5619714472,
				"z": 1.9351256082,
				"element": "H" 
			},
			{
				"x": -4.220497626,
				"y": -2.4410030945,
				"z": 0.2344708099,
				"element": "H" 
			},
			{
				"x": -1.5147786229,
				"y": 0.7880920514,
				"z": 3.9825269389,
				"element": "H" 
			},
			{
				"x": -1.3507515291,
				"y": -0.7936659212,
				"z": 3.2318349414,
				"element": "H" 
			},
			{
				"x": 0.7184278937,
				"y": 0.0014784167,
				"z": 4.5171930313,
				"element": "H" 
			},
			{
				"x": 0.8751156553,
				"y": 1.2978807103,
				"z": 3.3350861958,
				"element": "H" 
			},
			{
				"x": 0.9609313549,
				"y": -1.7201261809,
				"z": 2.785182128,
				"element": "H" 
			},
			{
				"x": 2.3711852298,
				"y": -0.6633265588,
				"z": 2.8034328756,
				"element": "H" 
			},
			{
				"x": 0.2388153114,
				"y": -2.2827226436,
				"z": 0.4796891257,
				"element": "H" 
			},
			{
				"x": 2.0085586536,
				"y": -2.2732363958,
				"z": 0.5735349592,
				"element": "H" 
			},
			{
				"x": 0.3257663044,
				"y": -0.7218735168,
				"z": -1.4624080443,
				"element": "H" 
			},
			{
				"x": 1.2445733408,
				"y": -2.1915450551,
				"z": -1.783078533,
				"element": "H" 
			},
			{
				"x": 3.2868462161,
				"y": 1.283495787,
				"z": -0.7734146072,
				"element": "H" 
			},
			{
				"x": 3.7080691492,
				"y": -0.1051833973,
				"z": 0.2363059668,
				"element": "H" 
			},
			{
				"x": 2.0908190818,
				"y": 1.3445591801,
				"z": 1.3819339789,
				"element": "H" 
			},
			{
				"x": 0.9972839674,
				"y": 1.3253760369,
				"z": 0.0179738117,
				"element": "H" 
			},
			{
				"x": 4.9360346817,
				"y": 0.4315270787,
				"z": -1.9004159763,
				"element": "H" 
			},
			{
				"x": 6.2273655678,
				"y": -0.0554256711,
				"z": -3.9431806133,
				"element": "H" 
			},
			{
				"x": 5.2475155802,
				"y": -1.5851651142,
				"z": -5.6942994319,
				"element": "H" 
			},
			{
				"x": 2.9853954345,
				"y": -2.5537497509,
				"z": -5.2571589868,
				"element": "H" 
			}
		],
		 "valence_orbital": [ 
			{
				"type": "occ",
				"energy": -0.25045,
				"method": "rhf"
			},
			{
				"type": "occ",
				"energy": -0.24456,
				"method": "rhf"
			},
			{
				"type": "occ",
				"energy": -0.24352,
				"method": "rhf"
			},
			{
				"type": "occ",
				"energy": -0.2104,
				"method": "rhf"
			},
			{
				"type": "occ",
				"energy": -0.19212,
				"method": "rhf"
			},
			{
				"type": "unocc",
				"energy": -0.04848,
				"method": "rhf"
			},
			{
				"type": "unocc",
				"energy": -0.01662,
				"method": "rhf"
			},
			{
				"type": "unocc",
				"energy": -0.00732,
				"method": "rhf"
			},
			{
				"type": "unocc",
				"energy": 0.0195,
				"method": "rhf"
			},
			{
				"type": "unocc",
				"energy": 0.04637,
				"method": "rhf"
			}
		],
		"cosmo_sigma_profile": { 
			"-0.025": 0.0,
			"-0.024": 0.0,
			"-0.023": 0.0,
			"-0.022": 0.0,
			"-0.021": 0.0,
			"-0.02": 0.0,
			"-0.019": 0.0,
			"-0.018": 0.0,
			"-0.017": 0.0,
			"-0.016": 0.0,
			"-0.015": 0.0,
			"-0.014": 0.0,
			"-0.013": 0.0,
			"-0.012": 0.0,
			"-0.011": 0.0,
			"-0.01": 0.0,
			"-0.009": 0.0127981865727,
			"-0.008": 2.03380090343,
			"-0.007": 6.20849790391,
			"-0.006": 9.61790321345,
			"-0.005": 22.2796520469,
			"-0.004": 30.2606846029,
			"-0.003": 44.544290824,
			"-0.002": 45.8963633154,
			"-0.001": 36.0412921404,
			"0.0": 30.3369160971,
			"0.001": 23.6994260446,
			"0.002": 26.287829202,
			"0.003": 25.692700823,
			"0.004": 25.4443192317,
			"0.005": 15.9325477676,
			"0.006": 6.34833590705,
			"0.007": 3.85032850252,
			"0.008": 2.65504779198,
			"0.009": 3.01842783904,
			"0.01": 3.35192989906,
			"0.011": 2.9656559546,
			"0.012": 2.23056431479,
			"0.013": 4.29267682804,
			"0.014": 0.888220776625,
			"0.015": 0.0635879892785,
			"0.016": 0.0,
			"0.017": 0.0,
			"0.018": 0.0,
			"0.019": 0.0,
			"0.02": 0.0,
			"0.021": 0.0,
			"0.022": 0.0,
			"0.023": 0.0,
			"0.024": 0.0,
			"0.025": 0.0
		}
	}
}
