{
	 "smiles": "COC(=O)C1=C(NC(C)=O)C=CC=C1", 
	 "Tm": 372.15, 
	 "num_atms": 25, 
	 "gaussian": { 
		 "optdone": 1, 
		 "sigma_profile": "yes", 
		 "theory": "DFT", 
		 "functional": "B3LYP", 
		 "basiset": "6-31G**", 
		 "properties": { 
			 "R2extent": 3391.6444, 
			 "electric_dipole_moment_norm": 2.89122487884, 
			 "electric_quadrupole_moment_norm": 20.8555935365, 
			 "total_energy": -668.150654014, 
			 "HOMO_LUMO_gap": 0.17531, 
			 "cosmo_polarized_energy": -12.35, 
			 "cosmo_cavitation_energy": 29.1, 
			 "cosmo_dispersion_energy": -21.07, 
			 "cosmo_repulsion_energy": 1.64, 
			 "cosmo_total_nonelectrostatic_energy": 9.68, 
			 "SMD_solvation_energy": 7.23 
		},
		"coords": [
			{
				"x": -2.8144304518,
				"y": 2.1761233895,
				"z": -0.2401329902,
				"element": "C" 
			},
			{
				"x": -1.7748332505,
				"y": 1.219715112,
				"z": -0.5185316636,
				"element": "O" 
			},
			{
				"x": -2.1957140305,
				"y": -0.0749963717,
				"z": -0.6552951137,
				"element": "C" 
			},
			{
				"x": -3.3709133678,
				"y": -0.3608125158,
				"z": -0.5433770829,
				"element": "O" 
			},
			{
				"x": -1.1134637162,
				"y": -1.0584410738,
				"z": -0.9431616155,
				"element": "C" 
			},
			{
				"x": 0.2792428513,
				"y": -0.7905320306,
				"z": -1.0870843762,
				"element": "C" 
			},
			{
				"x": 0.7675600621,
				"y": 0.5180777026,
				"z": -0.9586099154,
				"element": "N" 
			},
			{
				"x": 2.0657165231,
				"y": 0.9801481496,
				"z": -1.0579494276,
				"element": "C" 
			},
			{
				"x": 2.2021056266,
				"y": 2.4771719454,
				"z": -0.8121324382,
				"element": "C" 
			},
			{
				"x": 3.0435397839,
				"y": 0.2862568678,
				"z": -1.2969841531,
				"element": "O" 
			},
			{
				"x": 1.148580401,
				"y": -1.8640409144,
				"z": -1.3605880968,
				"element": "C" 
			},
			{
				"x": 0.6595632652,
				"y": -3.1588158154,
				"z": -1.4873626701,
				"element": "C" 
			},
			{
				"x": -0.7036391763,
				"y": -3.4310703135,
				"z": -1.3477317363,
				"element": "C" 
			},
			{
				"x": -1.5695485839,
				"y": -2.3827010048,
				"z": -1.078620298,
				"element": "C" 
			},
			{
				"x": -3.547491633,
				"y": 2.1879077993,
				"z": -1.0493488254,
				"element": "H" 
			},
			{
				"x": -3.3210951517,
				"y": 1.9265751118,
				"z": 0.6943879679,
				"element": "H" 
			},
			{
				"x": -2.312129432,
				"y": 3.1401780094,
				"z": -0.1608898576,
				"element": "H" 
			},
			{
				"x": 0.054989842,
				"y": 1.2072340213,
				"z": -0.7582631399,
				"element": "H" 
			},
			{
				"x": 1.2572815318,
				"y": 3.0244083663,
				"z": -0.87129596,
				"element": "H" 
			},
			{
				"x": 2.9025725005,
				"y": 2.8847083646,
				"z": -1.5437692526,
				"element": "H" 
			},
			{
				"x": 2.6352985393,
				"y": 2.6349437423,
				"z": 0.1810449498,
				"element": "H" 
			},
			{
				"x": 2.2023546443,
				"y": -1.653550364,
				"z": -1.4689736255,
				"element": "H" 
			},
			{
				"x": 1.3579725835,
				"y": -3.963877195,
				"z": -1.6985059815,
				"element": "H" 
			},
			{
				"x": -1.0822575717,
				"y": -4.4431921261,
				"z": -1.4474739337,
				"element": "H" 
			},
			{
				"x": -2.6338617892,
				"y": -2.5529188568,
				"z": -0.9633507641,
				"element": "H" 
			}
		],
		 "valence_orbital": [ 
			{
				"type": "occ",
				"energy": -0.30777,
				"method": "rhf"
			},
			{
				"type": "occ",
				"energy": -0.28537,
				"method": "rhf"
			},
			{
				"type": "occ",
				"energy": -0.25835,
				"method": "rhf"
			},
			{
				"type": "occ",
				"energy": -0.25397,
				"method": "rhf"
			},
			{
				"type": "occ",
				"energy": -0.22618,
				"method": "rhf"
			},
			{
				"type": "unocc",
				"energy": -0.05087,
				"method": "rhf"
			},
			{
				"type": "unocc",
				"energy": -0.01308,
				"method": "rhf"
			},
			{
				"type": "unocc",
				"energy": 0.04176,
				"method": "rhf"
			},
			{
				"type": "unocc",
				"energy": 0.05387,
				"method": "rhf"
			},
			{
				"type": "unocc",
				"energy": 0.07533,
				"method": "rhf"
			}
		],
		"cosmo_sigma_profile": { 
			"-0.025": 0.0,
			"-0.024": 0.0,
			"-0.023": 0.0,
			"-0.022": 0.0,
			"-0.021": 0.0,
			"-0.02": 0.0,
			"-0.019": 0.0,
			"-0.018": 0.0,
			"-0.017": 0.0,
			"-0.016": 0.0,
			"-0.015": 0.0,
			"-0.014": 0.0,
			"-0.013": 0.0,
			"-0.012": 0.0,
			"-0.011": 0.0,
			"-0.01": 0.38175390303,
			"-0.009": 1.03572117704,
			"-0.008": 1.70642304591,
			"-0.007": 4.03641179579,
			"-0.006": 15.3456652207,
			"-0.005": 19.757410395,
			"-0.004": 22.4573984589,
			"-0.003": 23.9222432625,
			"-0.002": 21.6150731451,
			"-0.001": 16.331189746,
			"0.0": 14.6809918001,
			"0.001": 14.7704052922,
			"0.002": 13.4467944526,
			"0.003": 14.7859071921,
			"0.004": 13.0620427867,
			"0.005": 3.96988773416,
			"0.006": 3.85352467351,
			"0.007": 3.45954527409,
			"0.008": 2.53758687713,
			"0.009": 2.33518605613,
			"0.01": 4.27500656956,
			"0.011": 5.34093220056,
			"0.012": 5.31571944832,
			"0.013": 2.77147088375,
			"0.014": 1.30715305491,
			"0.015": 0.0112720093373,
			"0.016": 0.0,
			"0.017": 0.0,
			"0.018": 0.0,
			"0.019": 0.0,
			"0.02": 0.0,
			"0.021": 0.0,
			"0.022": 0.0,
			"0.023": 0.0,
			"0.024": 0.0,
			"0.025": 0.0
		}
	}
}
