{
	 "smiles": "CCOC(=O)C1=C(SC(C)=C1C)N=C=S", 
	 "Tm": 341.15, 
	 "num_atms": 26, 
	 "gaussian": { 
		 "optdone": 1, 
		 "sigma_profile": "yes", 
		 "theory": "DFT", 
		 "functional": "B3LYP", 
		 "basiset": "6-31G**", 
		 "properties": { 
			 "R2extent": 6309.8226, 
			 "electric_dipole_moment_norm": 5.21645449515, 
			 "electric_quadrupole_moment_norm": 17.8368570659, 
			 "total_energy": -1389.2722692, 
			 "HOMO_LUMO_gap": 0.15037, 
			 "cosmo_polarized_energy": -8.46, 
			 "cosmo_cavitation_energy": 34.33, 
			 "cosmo_dispersion_energy": -24.99, 
			 "cosmo_repulsion_energy": 1.91, 
			 "cosmo_total_nonelectrostatic_energy": 11.25, 
			 "SMD_solvation_energy": 6.63 
		},
		"coords": [
			{
				"x": 0.9760414353,
				"y": -1.555358408,
				"z": 3.2112992053,
				"element": "C" 
			},
			{
				"x": 1.5649933526,
				"y": -1.8766542304,
				"z": 1.8509198061,
				"element": "C" 
			},
			{
				"x": 0.9760898369,
				"y": -0.9650562811,
				"z": 0.8936083036,
				"element": "O" 
			},
			{
				"x": 1.3961885414,
				"y": -1.1147623973,
				"z": -0.384072252,
				"element": "C" 
			},
			{
				"x": 2.2132768072,
				"y": -1.9575378509,
				"z": -0.7088383403,
				"element": "O" 
			},
			{
				"x": 0.7612285735,
				"y": -0.1572160673,
				"z": -1.3171855835,
				"element": "C" 
			},
			{
				"x": 1.0870067717,
				"y": -0.1799557569,
				"z": -2.6718923956,
				"element": "C" 
			},
			{
				"x": 0.2126278457,
				"y": 1.0374306919,
				"z": -3.5617563854,
				"element": "S" 
			},
			{
				"x": -0.5966801106,
				"y": 1.5847293031,
				"z": -2.1168554544,
				"element": "C" 
			},
			{
				"x": -1.5793489569,
				"y": 2.7202952811,
				"z": -2.208097522,
				"element": "C" 
			},
			{
				"x": -0.2132431354,
				"y": 0.8675328297,
				"z": -1.0092528201,
				"element": "C" 
			},
			{
				"x": -0.7762135764,
				"y": 1.1552345011,
				"z": 0.3589973138,
				"element": "C" 
			},
			{
				"x": 1.940042457,
				"y": -0.9711246563,
				"z": -3.3551693209,
				"element": "N" 
			},
			{
				"x": 2.74717159,
				"y": -1.844339335,
				"z": -3.5120629524,
				"element": "C" 
			},
			{
				"x": 3.8116143766,
				"y": -2.9565863809,
				"z": -3.8729317787,
				"element": "S" 
			},
			{
				"x": 1.2024539359,
				"y": -0.5262531481,
				"z": 3.5050653809,
				"element": "H" 
			},
			{
				"x": 1.3991783425,
				"y": -2.2274852077,
				"z": 3.9642568699,
				"element": "H" 
			},
			{
				"x": -0.1103471922,
				"y": -1.683320618,
				"z": 3.2099412832,
				"element": "H" 
			},
			{
				"x": 2.6521211005,
				"y": -1.7528888569,
				"z": 1.8323707816,
				"element": "H" 
			},
			{
				"x": 1.3478985474,
				"y": -2.9030003581,
				"z": 1.5394454557,
				"element": "H" 
			},
			{
				"x": -2.5793952948,
				"y": 2.4113142484,
				"z": -1.8841793284,
				"element": "H" 
			},
			{
				"x": -1.2731950829,
				"y": 3.5657228813,
				"z": -1.5820569585,
				"element": "H" 
			},
			{
				"x": -1.6678490919,
				"y": 3.0888416052,
				"z": -3.2334086241,
				"element": "H" 
			},
			{
				"x": -1.2831269354,
				"y": 0.2796630656,
				"z": 0.7737276494,
				"element": "H" 
			},
			{
				"x": 0.0130994561,
				"y": 1.4231636722,
				"z": 1.0666215265,
				"element": "H" 
			},
			{
				"x": -1.4926335938,
				"y": 1.9783114735,
				"z": 0.3156061401,
				"element": "H" 
			}
		],
		 "valence_orbital": [ 
			{
				"type": "occ",
				"energy": -0.28078,
				"method": "rhf"
			},
			{
				"type": "occ",
				"energy": -0.27469,
				"method": "rhf"
			},
			{
				"type": "occ",
				"energy": -0.26125,
				"method": "rhf"
			},
			{
				"type": "occ",
				"energy": -0.25547,
				"method": "rhf"
			},
			{
				"type": "occ",
				"energy": -0.21472,
				"method": "rhf"
			},
			{
				"type": "unocc",
				"energy": -0.06435,
				"method": "rhf"
			},
			{
				"type": "unocc",
				"energy": -0.01318,
				"method": "rhf"
			},
			{
				"type": "unocc",
				"energy": 0.00287,
				"method": "rhf"
			},
			{
				"type": "unocc",
				"energy": 0.00628,
				"method": "rhf"
			},
			{
				"type": "unocc",
				"energy": 0.03667,
				"method": "rhf"
			}
		],
		"cosmo_sigma_profile": { 
			"-0.025": 0.0,
			"-0.024": 0.0,
			"-0.023": 0.0,
			"-0.022": 0.0,
			"-0.021": 0.0,
			"-0.02": 0.0,
			"-0.019": 0.0,
			"-0.018": 0.0,
			"-0.017": 0.0,
			"-0.016": 0.0,
			"-0.015": 0.0,
			"-0.014": 0.0,
			"-0.013": 0.0,
			"-0.012": 0.0,
			"-0.011": 0.0,
			"-0.01": 0.0,
			"-0.009": 0.0,
			"-0.008": 0.0,
			"-0.007": 0.46162223113,
			"-0.006": 3.483282448,
			"-0.005": 11.7524836699,
			"-0.004": 23.3483116299,
			"-0.003": 25.7478007867,
			"-0.002": 32.1715306019,
			"-0.001": 42.110613834,
			"0.0": 38.1036461603,
			"0.001": 26.0488866239,
			"0.002": 19.822737575,
			"0.003": 15.1301498275,
			"0.004": 11.3783890577,
			"0.005": 12.9411627462,
			"0.006": 3.49258460116,
			"0.007": 2.32724775498,
			"0.008": 2.47240257293,
			"0.009": 2.46943268835,
			"0.01": 2.12820200695,
			"0.011": 1.9222849566,
			"0.012": 1.46062764825,
			"0.013": 0.06237004569,
			"0.014": 0.0,
			"0.015": 0.0,
			"0.016": 0.0,
			"0.017": 0.0,
			"0.018": 0.0,
			"0.019": 0.0,
			"0.02": 0.0,
			"0.021": 0.0,
			"0.022": 0.0,
			"0.023": 0.0,
			"0.024": 0.0,
			"0.0": 0.0
		}
	}
}
