{
	 "smiles": "CC1=CC2=C(CC2=O)C(C)=C1C", 
	 "Tm": 359.15, 
	 "num_atms": 24, 
	 "gaussian": { 
		 "optdone": 1, 
		 "sigma_profile": "yes", 
		 "theory": "DFT", 
		 "functional": "B3LYP", 
		 "basiset": "6-31G**", 
		 "properties": { 
			 "R2extent": 2701.7158, 
			 "electric_dipole_moment_norm": 4.52490339013, 
			 "electric_quadrupole_moment_norm": 15.2861949788, 
			 "total_energy": -501.60526978, 
			 "HOMO_LUMO_gap": 0.1898, 
			 "cosmo_polarized_energy": -8.07, 
			 "cosmo_cavitation_energy": 26.81, 
			 "cosmo_dispersion_energy": -19.44, 
			 "cosmo_repulsion_energy": 1.55, 
			 "cosmo_total_nonelectrostatic_energy": 8.92, 
			 "SMD_solvation_energy": 5.0 
		},
		"coords": [
			{
				"x": 0.3545581091,
				"y": -0.49260717,
				"z": 1.9229735491,
				"element": "C" 
			},
			{
				"x": 0.0573739961,
				"y": -0.4084412845,
				"z": 0.4425814206,
				"element": "C" 
			},
			{
				"x": -1.2246095717,
				"y": -0.7396672724,
				"z": -0.0145285835,
				"element": "C" 
			},
			{
				"x": -1.4441959762,
				"y": -0.6454128524,
				"z": -1.3836606613,
				"element": "C" 
			},
			{
				"x": -0.4463374172,
				"y": -0.2418166826,
				"z": -2.274194672,
				"element": "C" 
			},
			{
				"x": -1.3183850551,
				"y": -0.3576370285,
				"z": -3.5237168081,
				"element": "C" 
			},
			{
				"x": -2.4277308168,
				"y": -0.8106177204,
				"z": -2.497241287,
				"element": "C" 
			},
			{
				"x": -3.5810377998,
				"y": -1.1438729049,
				"z": -2.610201866,
				"element": "O" 
			},
			{
				"x": 0.8378400618,
				"y": 0.0951471877,
				"z": -1.8603422956,
				"element": "C" 
			},
			{
				"x": 1.8921509075,
				"y": 0.5276576314,
				"z": -2.8538644071,
				"element": "C" 
			},
			{
				"x": 1.0762458353,
				"y": 0.0035639655,
				"z": -0.4658281828,
				"element": "C" 
			},
			{
				"x": 2.4374572438,
				"y": 0.3459944035,
				"z": 0.0977126684,
				"element": "C" 
			},
			{
				"x": 0.6641594747,
				"y": 0.4759673789,
				"z": 2.3337675498,
				"element": "H" 
			},
			{
				"x": -0.5273736394,
				"y": -0.8215825871,
				"z": 2.4779786913,
				"element": "H" 
			},
			{
				"x": 1.1655656275,
				"y": -1.1989231072,
				"z": 2.1377897123,
				"element": "H" 
			},
			{
				"x": -1.9971319519,
				"y": -1.0529019147,
				"z": 0.6816336632,
				"element": "H" 
			},
			{
				"x": -1.5482007736,
				"y": 0.5721857008,
				"z": -4.056683209,
				"element": "H" 
			},
			{
				"x": -1.0386998501,
				"y": -1.1247983306,
				"z": -4.2549302116,
				"element": "H" 
			},
			{
				"x": 1.4824536153,
				"y": 0.5239169979,
				"z": -3.8669358007,
				"element": "H" 
			},
			{
				"x": 2.2590887546,
				"y": 1.5400589007,
				"z": -2.649828694,
				"element": "H" 
			},
			{
				"x": 2.7620189448,
				"y": -0.1390677071,
				"z": -2.84704393,
				"element": "H" 
			},
			{
				"x": 2.8753495354,
				"y": -0.5082702488,
				"z": 0.6281734139,
				"element": "H" 
			},
			{
				"x": 2.3729403642,
				"y": 1.1634949527,
				"z": 0.8259826052,
				"element": "H" 
			},
			{
				"x": 3.1432003817,
				"y": 0.649529692,
				"z": -0.6752926652,
				"element": "H" 
			}
		],
		 "valence_orbital": [ 
			{
				"type": "occ",
				"energy": -0.33892,
				"method": "rhf"
			},
			{
				"type": "occ",
				"energy": -0.32623,
				"method": "rhf"
			},
			{
				"type": "occ",
				"energy": -0.24757,
				"method": "rhf"
			},
			{
				"type": "occ",
				"energy": -0.23996,
				"method": "rhf"
			},
			{
				"type": "occ",
				"energy": -0.23979,
				"method": "rhf"
			},
			{
				"type": "unocc",
				"energy": -0.04999,
				"method": "rhf"
			},
			{
				"type": "unocc",
				"energy": -0.00437,
				"method": "rhf"
			},
			{
				"type": "unocc",
				"energy": 0.04946,
				"method": "rhf"
			},
			{
				"type": "unocc",
				"energy": 0.08112,
				"method": "rhf"
			},
			{
				"type": "unocc",
				"energy": 0.10432,
				"method": "rhf"
			}
		],
		"cosmo_sigma_profile": { 
			"-0.025": 0.0,
			"-0.024": 0.0,
			"-0.023": 0.0,
			"-0.022": 0.0,
			"-0.021": 0.0,
			"-0.02": 0.0,
			"-0.019": 0.0,
			"-0.018": 0.0,
			"-0.017": 0.0,
			"-0.016": 0.0,
			"-0.015": 0.0,
			"-0.014": 0.0,
			"-0.013": 0.0,
			"-0.012": 0.0,
			"-0.011": 0.0,
			"-0.01": 0.0,
			"-0.009": 0.0,
			"-0.008": 0.0,
			"-0.007": 0.208396853206,
			"-0.006": 3.57990805021,
			"-0.005": 10.4566858346,
			"-0.004": 25.2069972371,
			"-0.003": 25.3674828367,
			"-0.002": 25.9722241096,
			"-0.001": 25.955130396,
			"0.0": 26.3698583972,
			"0.001": 17.1144927371,
			"0.002": 8.7010545748,
			"0.003": 8.08639944655,
			"0.004": 10.7687129521,
			"0.005": 3.79079076378,
			"0.006": 1.4792025155,
			"0.007": 1.46284693308,
			"0.008": 2.24328884479,
			"0.009": 2.02417065326,
			"0.01": 2.00722795937,
			"0.011": 4.83087170542,
			"0.012": 4.82238067316,
			"0.013": 1.59334293143,
			"0.014": 0.0111890010759,
			"0.015": 0.0,
			"0.016": 0.0,
			"0.017": 0.0,
			"0.018": 0.0,
			"0.019": 0.0,
			"0.02": 0.0,
			"0.021": 0.0,
			"0.022": 0.0,
			"0.023": 0.0,
			"0.024": 0.0,
			"0.025": 0.0
		}
	}
}
