{
	 "smiles": "CSC1=NC2=C(S1)C=CC=C2", 
	 "Tm": 317.15, 
	 "num_atms": 18, 
	 "gaussian": { 
		 "optdone": 1, 
		 "sigma_profile": "yes", 
		 "theory": "DFT", 
		 "functional": "B3LYP", 
		 "basiset": "6-31G**", 
		 "properties": { 
			 "R2extent": 3092.8603, 
			 "electric_dipole_moment_norm": 0.868869875183, 
			 "electric_quadrupole_moment_norm": 10.636481044, 
			 "total_energy": -1160.20331229, 
			 "HOMO_LUMO_gap": 0.18772, 
			 "cosmo_polarized_energy": -5.89, 
			 "cosmo_cavitation_energy": 25.16, 
			 "cosmo_dispersion_energy": -19.82, 
			 "cosmo_repulsion_energy": 1.49, 
			 "cosmo_total_nonelectrostatic_energy": 6.83, 
			 "SMD_solvation_energy": 2.56 
		},
		"coords": [
			{
				"x": 2.5998311522,
				"y": -0.0283909889,
				"z": 2.7103199439,
				"element": "C" 
			},
			{
				"x": 2.2852517848,
				"y": -1.7208448134,
				"z": 2.0990681043,
				"element": "S" 
			},
			{
				"x": 1.4325943593,
				"y": -1.3422463507,
				"z": 0.6060011055,
				"element": "C" 
			},
			{
				"x": 1.1685708069,
				"y": -0.1508786274,
				"z": 0.1787171822,
				"element": "N" 
			},
			{
				"x": 0.4849305379,
				"y": -0.197001209,
				"z": -1.0296970239,
				"element": "C" 
			},
			{
				"x": 0.2235829727,
				"y": -1.4940945656,
				"z": -1.5333041607,
				"element": "C" 
			},
			{
				"x": 0.8753558077,
				"y": -2.6915605917,
				"z": -0.4214833568,
				"element": "S" 
			},
			{
				"x": -0.4547445378,
				"y": -1.6877222998,
				"z": -2.7370599354,
				"element": "C" 
			},
			{
				"x": -0.8748341518,
				"y": -0.5606224297,
				"z": -3.4419185031,
				"element": "C" 
			},
			{
				"x": -0.6222369783,
				"y": 0.7318078714,
				"z": -2.9539126451,
				"element": "C" 
			},
			{
				"x": 0.0541322135,
				"y": 0.9231326585,
				"z": -1.7537120763,
				"element": "C" 
			},
			{
				"x": 3.2090859754,
				"y": 0.5241375266,
				"z": 1.9950446702,
				"element": "H" 
			},
			{
				"x": 3.1363866382,
				"y": -0.1491475787,
				"z": 3.6533129078,
				"element": "H" 
			},
			{
				"x": 1.6578557423,
				"y": 0.4950618806,
				"z": 2.87398116,
				"element": "H" 
			},
			{
				"x": -0.6516068903,
				"y": -2.6850785652,
				"z": -3.1170635912,
				"element": "H" 
			},
			{
				"x": -1.4046177779,
				"y": -0.6867162775,
				"z": -4.381272692,
				"element": "H" 
			},
			{
				"x": -0.9602755739,
				"y": 1.5928431316,
				"z": -3.522607686,
				"element": "H" 
			},
			{
				"x": 0.2562379193,
				"y": 1.9156212291,
				"z": -1.3646134033,
				"element": "H" 
			}
		],
		 "valence_orbital": [ 
			{
				"type": "occ",
				"energy": -0.30295,
				"method": "rhf"
			},
			{
				"type": "occ",
				"energy": -0.28074,
				"method": "rhf"
			},
			{
				"type": "occ",
				"energy": -0.27638,
				"method": "rhf"
			},
			{
				"type": "occ",
				"energy": -0.23571,
				"method": "rhf"
			},
			{
				"type": "occ",
				"energy": -0.21918,
				"method": "rhf"
			},
			{
				"type": "unocc",
				"energy": -0.03146,
				"method": "rhf"
			},
			{
				"type": "unocc",
				"energy": -0.00615,
				"method": "rhf"
			},
			{
				"type": "unocc",
				"energy": -0.00295,
				"method": "rhf"
			},
			{
				"type": "unocc",
				"energy": 0.02973,
				"method": "rhf"
			},
			{
				"type": "unocc",
				"energy": 0.03402,
				"method": "rhf"
			}
		],
		"cosmo_sigma_profile": { 
			"-0.025": 0.0,
			"-0.024": 0.0,
			"-0.023": 0.0,
			"-0.022": 0.0,
			"-0.021": 0.0,
			"-0.02": 0.0,
			"-0.019": 0.0,
			"-0.018": 0.0,
			"-0.017": 0.0,
			"-0.016": 0.0,
			"-0.015": 0.0,
			"-0.014": 0.0,
			"-0.013": 0.0,
			"-0.012": 0.0,
			"-0.011": 0.0,
			"-0.01": 0.0,
			"-0.009": 0.0,
			"-0.008": 1.17820265617,
			"-0.007": 6.06638078498,
			"-0.006": 11.3589551633,
			"-0.005": 14.0334734919,
			"-0.004": 15.6545952233,
			"-0.003": 15.1306684807,
			"-0.002": 14.2994026955,
			"-0.001": 12.5411956,
			"0.0": 16.4496520848,
			"0.001": 18.2691235831,
			"0.002": 19.7720820279,
			"0.003": 20.3466853575,
			"0.004": 18.1021521869,
			"0.005": 11.3850171523,
			"0.006": 4.91907651781,
			"0.007": 2.63704590504,
			"0.008": 0.973287202544,
			"0.009": 1.33368700678,
			"0.01": 1.08468699625,
			"0.011": 0.423721348374,
			"0.012": 0.447017546806,
			"0.013": 0.0,
			"0.014": 0.0,
			"0.015": 0.0,
			"0.016": 0.0,
			"0.017": 0.0,
			"0.018": 0.0,
			"0.019": 0.0,
			"0.02": 0.0,
			"0.021": 0.0,
			"0.022": 0.0,
			"0.023": 0.0,
			"0.024": 0.0,
			"0.025": 0.0
		}
	}
}
