{
	 "smiles": "CC1=NN(C(N2CCCCC2)=C1C=O)C1=CC=CC=C1", 
	 "Tm": 349.15, 
	 "num_atms": 39, 
	 "gaussian": { 
		 "optdone": 1, 
		 "sigma_profile": "yes", 
		 "theory": "DFT", 
		 "functional": "B3LYP", 
		 "basiset": "6-31G**", 
		 "properties": { 
			 "R2extent": 5762.4635, 
			 "electric_dipole_moment_norm": 5.95944814224, 
			 "electric_quadrupole_moment_norm": 15.7294794669, 
			 "total_energy": -860.605291027, 
			 "HOMO_LUMO_gap": 0.17381, 
			 "cosmo_polarized_energy": -13.27, 
			 "cosmo_cavitation_energy": 39.65, 
			 "cosmo_dispersion_energy": -27.66, 
			 "cosmo_repulsion_energy": 2.1, 
			 "cosmo_total_nonelectrostatic_energy": 14.09, 
			 "SMD_solvation_energy": 6.17 
		},
		"coords": [
			{
				"x": 2.2690838103,
				"y": -1.5611308357,
				"z": -3.8009689577,
				"element": "C" 
			},
			{
				"x": 1.6023277791,
				"y": -1.036638178,
				"z": -2.5694869432,
				"element": "C" 
			},
			{
				"x": 2.3194076339,
				"y": -0.7183145647,
				"z": -1.5121491637,
				"element": "N" 
			},
			{
				"x": 1.413045987,
				"y": -0.2949145934,
				"z": -0.5610851206,
				"element": "N" 
			},
			{
				"x": 0.1226944902,
				"y": -0.3011113306,
				"z": -1.032004591,
				"element": "C" 
			},
			{
				"x": -0.9273581791,
				"y": 0.1414817835,
				"z": -0.2433064669,
				"element": "N" 
			},
			{
				"x": -2.2949212756,
				"y": -0.270651349,
				"z": -0.5761606147,
				"element": "C" 
			},
			{
				"x": -3.2833809227,
				"y": 0.1567359136,
				"z": 0.5377749744,
				"element": "C" 
			},
			{
				"x": -2.5653142921,
				"y": 0.3786935754,
				"z": 1.872260363,
				"element": "C" 
			},
			{
				"x": -1.5302366026,
				"y": 1.5129426169,
				"z": 1.7351080541,
				"element": "C" 
			},
			{
				"x": -0.8746886558,
				"y": 1.498315574,
				"z": 0.3359472735,
				"element": "C" 
			},
			{
				"x": 0.201538809,
				"y": -0.8010557843,
				"z": -2.3512959736,
				"element": "C" 
			},
			{
				"x": -0.8254775484,
				"y": -1.0109903667,
				"z": -3.3595961738,
				"element": "C" 
			},
			{
				"x": -0.5915681938,
				"y": -1.387631954,
				"z": -4.5023744338,
				"element": "O" 
			},
			{
				"x": 1.9184273834,
				"y": -0.0242204283,
				"z": 0.7430950433,
				"element": "C" 
			},
			{
				"x": 1.2965275214,
				"y": -0.552060354,
				"z": 1.8799264565,
				"element": "C" 
			},
			{
				"x": 1.8425413579,
				"y": -0.3043921277,
				"z": 3.1397710164,
				"element": "C" 
			},
			{
				"x": 3.010147385,
				"y": 0.4504442261,
				"z": 3.2694042836,
				"element": "C" 
			},
			{
				"x": 3.6360675198,
				"y": 0.9564516831,
				"z": 2.1279729848,
				"element": "C" 
			},
			{
				"x": 3.0945456639,
				"y": 0.7239117946,
				"z": 0.8647751451,
				"element": "C" 
			},
			{
				"x": 1.8853626611,
				"y": -2.5515779366,
				"z": -4.0621430046,
				"element": "H" 
			},
			{
				"x": 2.0649384283,
				"y": -0.9186991079,
				"z": -4.6619294183,
				"element": "H" 
			},
			{
				"x": 3.3468560332,
				"y": -1.6200142581,
				"z": -3.631964277,
				"element": "H" 
			},
			{
				"x": -2.2938391404,
				"y": -1.3585598668,
				"z": -0.6992701337,
				"element": "H" 
			},
			{
				"x": -2.6270564083,
				"y": 0.1690206597,
				"z": -1.5292111962,
				"element": "H" 
			},
			{
				"x": -3.7877297111,
				"y": 1.0860935276,
				"z": 0.2460935295,
				"element": "H" 
			},
			{
				"x": -4.0670662975,
				"y": -0.6019683473,
				"z": 0.6297262665,
				"element": "H" 
			},
			{
				"x": -2.0623221607,
				"y": -0.5481963187,
				"z": 2.1711718149,
				"element": "H" 
			},
			{
				"x": -3.2865140027,
				"y": 0.6136766952,
				"z": 2.662102005,
				"element": "H" 
			},
			{
				"x": -2.013318878,
				"y": 2.485695493,
				"z": 1.8844363731,
				"element": "H" 
			},
			{
				"x": -0.7643023193,
				"y": 1.4134859528,
				"z": 2.50961325,
				"element": "H" 
			},
			{
				"x": -1.3968177263,
				"y": 2.192624348,
				"z": -0.3427005365,
				"element": "H" 
			},
			{
				"x": 0.1619897273,
				"y": 1.8296970537,
				"z": 0.3875407427,
				"element": "H" 
			},
			{
				"x": -1.8719251588,
				"y": -0.8172638782,
				"z": -3.0589048836,
				"element": "H" 
			},
			{
				"x": 0.4021405466,
				"y": -1.1539990338,
				"z": 1.7715235572,
				"element": "H" 
			},
			{
				"x": 1.3606079152,
				"y": -0.7184795458,
				"z": 4.0206879551,
				"element": "H" 
			},
			{
				"x": 3.433789651,
				"y": 0.6352239128,
				"z": 4.2519575894,
				"element": "H" 
			},
			{
				"x": 4.5502396978,
				"y": 1.5355545743,
				"z": 2.2189646545,
				"element": "H" 
			},
			{
				"x": 3.5764574718,
				"y": 1.0948207751,
				"z": -0.0324014436,
				"element": "H" 
			}
		],
		 "valence_orbital": [ 
			{
				"type": "occ",
				"energy": -0.27597,
				"method": "rhf"
			},
			{
				"type": "occ",
				"energy": -0.26139,
				"method": "rhf"
			},
			{
				"type": "occ",
				"energy": -0.23372,
				"method": "rhf"
			},
			{
				"type": "occ",
				"energy": -0.23049,
				"method": "rhf"
			},
			{
				"type": "occ",
				"energy": -0.20942,
				"method": "rhf"
			},
			{
				"type": "unocc",
				"energy": -0.03561,
				"method": "rhf"
			},
			{
				"type": "unocc",
				"energy": -0.01289,
				"method": "rhf"
			},
			{
				"type": "unocc",
				"energy": -0.00935,
				"method": "rhf"
			},
			{
				"type": "unocc",
				"energy": 0.03109,
				"method": "rhf"
			},
			{
				"type": "unocc",
				"energy": 0.06467,
				"method": "rhf"
			}
		],
		"cosmo_sigma_profile": { 
			"-0.025": 0.0,
			"-0.024": 0.0,
			"-0.023": 0.0,
			"-0.022": 0.0,
			"-0.021": 0.0,
			"-0.02": 0.0,
			"-0.019": 0.0,
			"-0.018": 0.0,
			"-0.017": 0.0,
			"-0.016": 0.0,
			"-0.015": 0.0,
			"-0.014": 0.0,
			"-0.013": 0.0,
			"-0.012": 0.0,
			"-0.011": 0.0,
			"-0.01": 0.0,
			"-0.009": 0.0,
			"-0.008": 0.0,
			"-0.007": 0.605116037393,
			"-0.006": 9.50745306567,
			"-0.005": 17.1771436264,
			"-0.004": 31.7806826078,
			"-0.003": 39.2088078854,
			"-0.002": 37.1286729978,
			"-0.001": 37.2493072892,
			"0.0": 34.7130445905,
			"0.001": 23.1803578359,
			"0.002": 16.1002556353,
			"0.003": 12.8981456083,
			"0.004": 13.09690038,
			"0.005": 9.39210427367,
			"0.006": 3.89215037051,
			"0.007": 3.21268949162,
			"0.008": 3.16306523826,
			"0.009": 3.30758550473,
			"0.01": 2.95299033189,
			"0.011": 3.14735936122,
			"0.012": 4.03586866741,
			"0.013": 4.23659017234,
			"0.014": 2.2955515221,
			"0.015": 0.560740133619,
			"0.016": 0.0,
			"0.017": 0.0,
			"0.018": 0.0,
			"0.019": 0.0,
			"0.02": 0.0,
			"0.021": 0.0,
			"0.022": 0.0,
			"0.023": 0.0,
			"0.024": 0.0,
			"0.025": 0.0
		}
	}
}
