{
	 "smiles": "COC1=CC(C=NC2=CC=CC=C2)=CC=C1O", 
	 "Tm": 413.15, 
	 "num_atms": 30, 
	 "gaussian": { 
		 "optdone": 1, 
		 "sigma_profile": "yes", 
		 "theory": "DFT", 
		 "functional": "B3LYP", 
		 "basiset": "6-31G**", 
		 "properties": { 
			 "R2extent": 4922.3235, 
			 "electric_dipole_moment_norm": 4.3442120137, 
			 "electric_quadrupole_moment_norm": 19.3525714258, 
			 "total_energy": -746.483464723, 
			 "HOMO_LUMO_gap": 0.16032, 
			 "cosmo_polarized_energy": -14.77, 
			 "cosmo_cavitation_energy": 34.39, 
			 "cosmo_dispersion_energy": -23.89, 
			 "cosmo_repulsion_energy": 1.87, 
			 "cosmo_total_nonelectrostatic_energy": 12.37, 
			 "SMD_solvation_energy": 5.61 
		},
		"coords": [
			{
				"x": -2.4147323768,
				"y": 0.7991521198,
				"z": -1.1051640482,
				"element": "C" 
			},
			{
				"x": -1.5111461599,
				"y": 0.9951391016,
				"z": -0.0134011218,
				"element": "O" 
			},
			{
				"x": -0.2556497683,
				"y": 1.4362353915,
				"z": -0.3446642409,
				"element": "C" 
			},
			{
				"x": 0.8309730779,
				"y": 0.5991453343,
				"z": -0.1234252192,
				"element": "C" 
			},
			{
				"x": 2.149996613,
				"y": 1.0292441721,
				"z": -0.3722668112,
				"element": "C" 
			},
			{
				"x": 3.3672496225,
				"y": 0.2224669971,
				"z": -0.1501915044,
				"element": "C" 
			},
			{
				"x": 3.5547757657,
				"y": -1.0006840347,
				"z": 0.167807624,
				"element": "N" 
			},
			{
				"x": 2.5480759504,
				"y": -1.9651562171,
				"z": 0.3474133479,
				"element": "C" 
			},
			{
				"x": 2.1648967072,
				"y": -2.3496431466,
				"z": 1.6434461039,
				"element": "C" 
			},
			{
				"x": 1.2370601757,
				"y": -3.3743156957,
				"z": 1.8251132092,
				"element": "C" 
			},
			{
				"x": 0.6937436686,
				"y": -4.0460853197,
				"z": 0.7274147126,
				"element": "C" 
			},
			{
				"x": 1.0915419835,
				"y": -3.681211141,
				"z": -0.560708345,
				"element": "C" 
			},
			{
				"x": 2.0116812227,
				"y": -2.6520160596,
				"z": -0.7555289115,
				"element": "C" 
			},
			{
				"x": 2.3387283928,
				"y": 2.3337414242,
				"z": -0.8569774524,
				"element": "C" 
			},
			{
				"x": 1.2584665787,
				"y": 3.1784480107,
				"z": -1.0915651776,
				"element": "C" 
			},
			{
				"x": -0.0440089635,
				"y": 2.7446845575,
				"z": -0.8336422012,
				"element": "C" 
			},
			{
				"x": -1.138044605,
				"y": 3.5354307123,
				"z": -1.0187514954,
				"element": "O" 
			},
			{
				"x": -3.3363884962,
				"y": 0.410551479,
				"z": -0.6678045432,
				"element": "H" 
			},
			{
				"x": -2.0146813507,
				"y": 0.0642559175,
				"z": -1.8154440115,
				"element": "H" 
			},
			{
				"x": -2.6263255487,
				"y": 1.7371290236,
				"z": -1.627339379,
				"element": "H" 
			},
			{
				"x": 0.624495132,
				"y": -0.3894015599,
				"z": 0.2639480916,
				"element": "H" 
			},
			{
				"x": 4.2868810282,
				"y": 0.8038201168,
				"z": -0.2856115745,
				"element": "H" 
			},
			{
				"x": 2.5985662636,
				"y": -1.8350959194,
				"z": 2.4953516778,
				"element": "H" 
			},
			{
				"x": 0.9415357067,
				"y": -3.6518568916,
				"z": 2.8333027996,
				"element": "H" 
			},
			{
				"x": -0.0234933796,
				"y": -4.8478309198,
				"z": 0.8744161011,
				"element": "H" 
			},
			{
				"x": 0.6836931958,
				"y": -4.2008515722,
				"z": -1.4237051578,
				"element": "H" 
			},
			{
				"x": 2.3274567745,
				"y": -2.3721066899,
				"z": -1.7559212734,
				"element": "H" 
			},
			{
				"x": 3.3461098778,
				"y": 2.6913056391,
				"z": -1.0517834754,
				"element": "H" 
			},
			{
				"x": 1.4227267762,
				"y": 4.1875002069,
				"z": -1.4644672247,
				"element": "H" 
			},
			{
				"x": -0.851483865,
				"y": 4.4014049629,
				"z": -1.3378504994,
				"element": "H" 
			}
		],
		 "valence_orbital": [ 
			{
				"type": "occ",
				"energy": -0.27878,
				"method": "rhf"
			},
			{
				"type": "occ",
				"energy": -0.25096,
				"method": "rhf"
			},
			{
				"type": "occ",
				"energy": -0.24096,
				"method": "rhf"
			},
			{
				"type": "occ",
				"energy": -0.22484,
				"method": "rhf"
			},
			{
				"type": "occ",
				"energy": -0.20475,
				"method": "rhf"
			},
			{
				"type": "unocc",
				"energy": -0.04443,
				"method": "rhf"
			},
			{
				"type": "unocc",
				"energy": -0.00939,
				"method": "rhf"
			},
			{
				"type": "unocc",
				"energy": 0.00951,
				"method": "rhf"
			},
			{
				"type": "unocc",
				"energy": 0.01615,
				"method": "rhf"
			},
			{
				"type": "unocc",
				"energy": 0.05339,
				"method": "rhf"
			}
		],
		"cosmo_sigma_profile": { 
			"-0.025": 0.0,
			"-0.024": 0.0,
			"-0.023": 0.0,
			"-0.022": 0.0,
			"-0.021": 0.0,
			"-0.02": 0.0,
			"-0.019": 0.110583235644,
			"-0.018": 1.18653043455,
			"-0.017": 0.957125976718,
			"-0.016": 1.26843512048,
			"-0.015": 1.19500468026,
			"-0.014": 1.25380751771,
			"-0.013": 0.632203375049,
			"-0.012": 1.05081299243,
			"-0.011": 1.1410861171,
			"-0.01": 1.16962673704,
			"-0.009": 1.04572004625,
			"-0.008": 1.05538877846,
			"-0.007": 5.22780191703,
			"-0.006": 9.620513213,
			"-0.005": 18.2582598486,
			"-0.004": 20.5937039257,
			"-0.003": 23.9907751279,
			"-0.002": 19.5969303758,
			"-0.001": 17.546539466,
			"0.0": 18.9978190983,
			"0.001": 21.4679003909,
			"0.002": 20.743518611,
			"0.003": 22.8063155238,
			"0.004": 18.2243809014,
			"0.005": 12.8198131952,
			"0.006": 8.96407830776,
			"0.007": 5.02260748772,
			"0.008": 3.78294874873,
			"0.009": 4.11990520195,
			"0.01": 3.52747681993,
			"0.011": 2.89222328641,
			"0.012": 2.02482665782,
			"0.013": 0.657731036441,
			"0.014": 1.18848934735,
			"0.015": 0.640745197477,
			"0.016": 0.0623371053348,
			"0.017": 0.0,
			"0.018": 0.0,
			"0.019": 0.0,
			"0.02": 0.0,
			"0.021": 0.0,
			"0.022": 0.0,
			"0.023": 0.0,
			"0.024": 0.0,
			"0.025": 0.0
		}
	}
}
