{
	 "smiles": "CC(C)C(=O)NC1=C(F)C=C(F)C(=C1)C(O)=O", 
	 "Tm": 507.15, 
	 "num_atms": 28, 
	 "gaussian": { 
		 "optdone": 1, 
		 "sigma_profile": "yes", 
		 "theory": "DFT", 
		 "functional": "B3LYP", 
		 "basiset": "6-31G**", 
		 "properties": { 
			 "R2extent": 5906.028, 
			 "electric_dipole_moment_norm": 2.56084179324, 
			 "electric_quadrupole_moment_norm": 31.4656210012, 
			 "total_energy": -905.911842605, 
			 "HOMO_LUMO_gap": 0.19093, 
			 "cosmo_polarized_energy": -22.09, 
			 "cosmo_cavitation_energy": 33.43, 
			 "cosmo_dispersion_energy": -23.03, 
			 "cosmo_repulsion_energy": 1.77, 
			 "cosmo_total_nonelectrostatic_energy": 12.17, 
			 "SMD_solvation_energy": 8.46 
		},
		"coords": [
			{
				"x": -1.1251250858,
				"y": -0.8916908522,
				"z": 2.672341671,
				"element": "C" 
			},
			{
				"x": -0.0868235714,
				"y": -0.1595752701,
				"z": 1.808060666,
				"element": "C" 
			},
			{
				"x": 1.1697031794,
				"y": 0.198001608,
				"z": 2.6257806844,
				"element": "C" 
			},
			{
				"x": 0.3448881396,
				"y": -1.0591843998,
				"z": 0.6500241309,
				"element": "C" 
			},
			{
				"x": 0.8048610471,
				"y": -2.1749858123,
				"z": 0.8364976751,
				"element": "O" 
			},
			{
				"x": 0.2884011002,
				"y": -0.5577243102,
				"z": -0.6450082265,
				"element": "N" 
			},
			{
				"x": -0.3480932232,
				"y": 0.6047312223,
				"z": -1.1371992508,
				"element": "C" 
			},
			{
				"x": -1.7211245537,
				"y": 0.8294648174,
				"z": -0.9556977825,
				"element": "C" 
			},
			{
				"x": -2.4345372998,
				"y": -0.05456914,
				"z": -0.2410120713,
				"element": "F" 
			},
			{
				"x": -2.3697384365,
				"y": 1.9377705773,
				"z": -1.4810945457,
				"element": "C" 
			},
			{
				"x": -1.6362425901,
				"y": 2.8314019218,
				"z": -2.2527264351,
				"element": "C" 
			},
			{
				"x": -2.2705978144,
				"y": 3.8943657231,
				"z": -2.7539949976,
				"element": "F" 
			},
			{
				"x": -0.2640238921,
				"y": 2.6573096921,
				"z": -2.4800066696,
				"element": "C" 
			},
			{
				"x": 0.3550849456,
				"y": 1.5389596547,
				"z": -1.9023450381,
				"element": "C" 
			},
			{
				"x": 0.4957150827,
				"y": 3.6034769202,
				"z": -3.3632723651,
				"element": "C" 
			},
			{
				"x": 1.7944209554,
				"y": 3.8154675818,
				"z": -3.0109226024,
				"element": "O" 
			},
			{
				"x": 0.0329808804,
				"y": 4.1326895753,
				"z": -4.3408820974,
				"element": "O" 
			},
			{
				"x": -2.0419380778,
				"y": -1.087606831,
				"z": 2.1099239745,
				"element": "H" 
			},
			{
				"x": -1.3833938203,
				"y": -0.2887697759,
				"z": 3.5485806712,
				"element": "H" 
			},
			{
				"x": -0.7192303585,
				"y": -1.8481277617,
				"z": 3.0123188155,
				"element": "H" 
			},
			{
				"x": -0.5246944223,
				"y": 0.7669046478,
				"z": 1.4241275854,
				"element": "H" 
			},
			{
				"x": 1.6497196784,
				"y": -0.7133106654,
				"z": 2.9925420563,
				"element": "H" 
			},
			{
				"x": 0.8986338183,
				"y": 0.8210830696,
				"z": 3.48373982,
				"element": "H" 
			},
			{
				"x": 1.9005403068,
				"y": 0.748816891,
				"z": 2.0241161462,
				"element": "H" 
			},
			{
				"x": 0.673694422,
				"y": -1.2038559701,
				"z": -1.3247052083,
				"element": "H" 
			},
			{
				"x": -3.4285286824,
				"y": 2.0922159543,
				"z": -1.3124275958,
				"element": "H" 
			},
			{
				"x": 1.4114870461,
				"y": 1.3560582684,
				"z": -2.077263823,
				"element": "H" 
			},
			{
				"x": 1.9606612266,
				"y": 3.4748826636,
				"z": -2.1206951872,
				"element": "H" 
			}
		],
		 "valence_orbital": [ 
			{
				"type": "occ",
				"energy": -0.30424,
				"method": "rhf"
			},
			{
				"type": "occ",
				"energy": -0.29534,
				"method": "rhf"
			},
			{
				"type": "occ",
				"energy": -0.28539,
				"method": "rhf"
			},
			{
				"type": "occ",
				"energy": -0.26231,
				"method": "rhf"
			},
			{
				"type": "occ",
				"energy": -0.25581,
				"method": "rhf"
			},
			{
				"type": "unocc",
				"energy": -0.06488,
				"method": "rhf"
			},
			{
				"type": "unocc",
				"energy": -0.04789,
				"method": "rhf"
			},
			{
				"type": "unocc",
				"energy": 0.01193,
				"method": "rhf"
			},
			{
				"type": "unocc",
				"energy": 0.02274,
				"method": "rhf"
			},
			{
				"type": "unocc",
				"energy": 0.04823,
				"method": "rhf"
			}
		],
		"cosmo_sigma_profile": { 
			"-0.025": 0.0,
			"-0.024": 0.0,
			"-0.023": 0.0,
			"-0.022": 0.0,
			"-0.021": 0.0,
			"-0.02": 0.0,
			"-0.019": 0.556816405889,
			"-0.018": 0.666088931034,
			"-0.017": 1.34621786824,
			"-0.016": 1.17624078638,
			"-0.015": 1.18564539799,
			"-0.014": 2.26830710092,
			"-0.013": 1.55263587126,
			"-0.012": 2.70150423005,
			"-0.011": 2.37335083368,
			"-0.01": 3.55659557464,
			"-0.009": 4.69345327879,
			"-0.008": 4.38348156835,
			"-0.007": 5.76740115215,
			"-0.006": 4.24674430098,
			"-0.005": 6.49811728977,
			"-0.004": 11.2114302365,
			"-0.003": 21.9186831544,
			"-0.002": 30.308481096,
			"-0.001": 30.228796519,
			"0.0": 24.2897585574,
			"0.001": 21.8020999554,
			"0.002": 10.0483560151,
			"0.003": 15.1821027096,
			"0.004": 5.12430263581,
			"0.005": 5.058012071,
			"0.006": 4.228121651,
			"0.007": 4.89215357229,
			"0.008": 4.86447511335,
			"0.009": 5.12140997953,
			"0.01": 7.44760195738,
			"0.011": 7.58247712562,
			"0.012": 5.38691108475,
			"0.013": 5.3054274142,
			"0.014": 2.41501721319,
			"0.015": 0.0057055702563,
			"0.016": 0.0,
			"0.017": 0.0,
			"0.018": 0.0,
			"0.019": 0.0,
			"0.02": 0.0,
			"0.021": 0.0,
			"0.022": 0.0,
			"0.023": 0.0,
			"0.024": 0.0,
			"0.025": 0.0
		}
	}
}
