{
	 "smiles": "CCC(C)C(NC(=O)CN)C(O)=O", 
	 "Tm": 521.15, 
	 "num_atms": 29, 
	 "gaussian": { 
		 "optdone": 1, 
		 "sigma_profile": "yes", 
		 "theory": "DFT", 
		 "functional": "B3LYP", 
		 "basiset": "6-31G**", 
		 "properties": { 
			 "R2extent": 3155.9377, 
			 "electric_dipole_moment_norm": 7.39359778525, 
			 "electric_quadrupole_moment_norm": 19.2195985991, 
			 "total_energy": -649.680650428, 
			 "HOMO_LUMO_gap": 0.22165, 
			 "cosmo_polarized_energy": -26.62, 
			 "cosmo_cavitation_energy": 30.72, 
			 "cosmo_dispersion_energy": -20.99, 
			 "cosmo_repulsion_energy": 1.69, 
			 "cosmo_total_nonelectrostatic_energy": 11.41, 
			 "SMD_solvation_energy": 5.58 
		},
		"coords": [
			{
				"x": 0.5064051395,
				"y": -1.3350376846,
				"z": -2.5697084471,
				"element": "C" 
			},
			{
				"x": -0.2909234291,
				"y": -1.5178512457,
				"z": -1.2701119029,
				"element": "C" 
			},
			{
				"x": -0.1797272609,
				"y": -0.3673531763,
				"z": -0.2473814397,
				"element": "C" 
			},
			{
				"x": -0.8660768826,
				"y": -0.7378437106,
				"z": 1.0742418473,
				"element": "C" 
			},
			{
				"x": -0.6686136041,
				"y": 1.0258559989,
				"z": -0.7793409033,
				"element": "C" 
			},
			{
				"x": -0.3919510226,
				"y": 2.1105898526,
				"z": 0.1455722215,
				"element": "N" 
			},
			{
				"x": 0.7524863512,
				"y": 2.8539886676,
				"z": 0.3311093947,
				"element": "C" 
			},
			{
				"x": 0.7549811782,
				"y": 3.8122836846,
				"z": 1.0870143244,
				"element": "O" 
			},
			{
				"x": 2.0252472641,
				"y": 2.4206892011,
				"z": -0.4088386842,
				"element": "C" 
			},
			{
				"x": 2.952366849,
				"y": 1.7896129918,
				"z": 0.5354073656,
				"element": "N" 
			},
			{
				"x": -2.1877401008,
				"y": 1.0312718434,
				"z": -1.0209844561,
				"element": "C" 
			},
			{
				"x": -2.6168208918,
				"y": 0.4290203256,
				"z": -2.1551414291,
				"element": "O" 
			},
			{
				"x": -2.9802517426,
				"y": 1.5094447844,
				"z": -0.2477603918,
				"element": "O" 
			},
			{
				"x": 0.1462265111,
				"y": -0.5057084159,
				"z": -3.1929420025,
				"element": "H" 
			},
			{
				"x": 1.563335851,
				"y": -1.1353199581,
				"z": -2.3615207822,
				"element": "H" 
			},
			{
				"x": 0.4547200407,
				"y": -2.2370821221,
				"z": -3.186587487,
				"element": "H" 
			},
			{
				"x": 0.0705717406,
				"y": -2.425759316,
				"z": -0.7729779416,
				"element": "H" 
			},
			{
				"x": -1.3467435644,
				"y": -1.7143251257,
				"z": -1.4959007248,
				"element": "H" 
			},
			{
				"x": 0.890871489,
				"y": -0.2188028511,
				"z": -0.0476465305,
				"element": "H" 
			},
			{
				"x": -0.4113918515,
				"y": -1.638361879,
				"z": 1.4985901848,
				"element": "H" 
			},
			{
				"x": -1.9331392688,
				"y": -0.9384639778,
				"z": 0.9307159987,
				"element": "H" 
			},
			{
				"x": -0.7723280155,
				"y": 0.0664336857,
				"z": 1.8081902864,
				"element": "H" 
			},
			{
				"x": -0.1734486399,
				"y": 1.2245200557,
				"z": -1.7370942367,
				"element": "H" 
			},
			{
				"x": -1.2017300914,
				"y": 2.4539701801,
				"z": 0.6523251895,
				"element": "H" 
			},
			{
				"x": 2.4875990888,
				"y": 3.3445429472,
				"z": -0.7682205288,
				"element": "H" 
			},
			{
				"x": 1.7875982797,
				"y": 1.8073773785,
				"z": -1.2944760123,
				"element": "H" 
			},
			{
				"x": 2.5591000988,
				"y": 0.9304863307,
				"z": 0.9107101572,
				"element": "H" 
			},
			{
				"x": 3.815954339,
				"y": 1.5421499054,
				"z": 0.0607426445,
				"element": "H" 
			},
			{
				"x": -1.8673778548,
				"y": 0.1349716296,
				"z": -2.692185714,
				"element": "H" 
			}
		],
		 "valence_orbital": [ 
			{
				"type": "occ",
				"energy": -0.33368,
				"method": "rhf"
			},
			{
				"type": "occ",
				"energy": -0.29413,
				"method": "rhf"
			},
			{
				"type": "occ",
				"energy": -0.25697,
				"method": "rhf"
			},
			{
				"type": "occ",
				"energy": -0.24766,
				"method": "rhf"
			},
			{
				"type": "occ",
				"energy": -0.23619,
				"method": "rhf"
			},
			{
				"type": "unocc",
				"energy": -0.01454,
				"method": "rhf"
			},
			{
				"type": "unocc",
				"energy": 0.01396,
				"method": "rhf"
			},
			{
				"type": "unocc",
				"energy": 0.02439,
				"method": "rhf"
			},
			{
				"type": "unocc",
				"energy": 0.06222,
				"method": "rhf"
			},
			{
				"type": "unocc",
				"energy": 0.08017,
				"method": "rhf"
			}
		],
		"cosmo_sigma_profile": { 
			"-0.025": 0.0,
			"-0.024": 0.0,
			"-0.023": 0.0,
			"-0.022": 0.0,
			"-0.021": 0.0,
			"-0.02": 0.0,
			"-0.019": 0.00696122656272,
			"-0.018": 0.205920153558,
			"-0.017": 0.849428797575,
			"-0.016": 1.41731831074,
			"-0.015": 1.27116111388,
			"-0.014": 0.71223083762,
			"-0.013": 1.09201828262,
			"-0.012": 1.37111522328,
			"-0.011": 1.85508692996,
			"-0.01": 3.21396559279,
			"-0.009": 4.75518283973,
			"-0.008": 7.18124460385,
			"-0.007": 7.86980370768,
			"-0.006": 7.72435255669,
			"-0.005": 10.7287198171,
			"-0.004": 18.0883772024,
			"-0.003": 28.3965991971,
			"-0.002": 22.9240282644,
			"-0.001": 20.8588877729,
			"0.0": 18.8154115839,
			"0.001": 12.0515313914,
			"0.002": 4.79912596272,
			"0.003": 5.17971417603,
			"0.004": 3.66528559049,
			"0.005": 2.90953583574,
			"0.006": 2.64102526378,
			"0.007": 3.33957960654,
			"0.008": 5.3132251742,
			"0.009": 6.50674088166,
			"0.01": 6.11668492672,
			"0.011": 5.41776411246,
			"0.012": 3.78145873575,
			"0.013": 4.87779490404,
			"0.014": 5.97038592257,
			"0.015": 2.73749573829,
			"0.016": 1.63419133708,
			"0.017": 1.1784402233,
			"0.018": 0.645531790075,
			"0.019": 0.487744200498,
			"0.02": 0.14022236742,
			"0.021": 0.0,
			"0.022": 0.0,
			"0.023": 0.0,
			"0.024": 0.0,
			"0.025": 0.0
		}
	}
}
