{
	 "smiles": "OC(=O)C1=CC=C(C=C2NC(=S)N(C2=O)C2=CC=C(F)C=C2)C=C1", 
	 "Tm": 623.15, 
	 "num_atms": 35, 
	 "gaussian": { 
		 "optdone": 1, 
		 "sigma_profile": "yes", 
		 "theory": "DFT", 
		 "functional": "B3LYP", 
		 "basiset": "6-31G**", 
		 "properties": { 
			 "R2extent": 13930.9607, 
			 "electric_dipole_moment_norm": 2.28548243922, 
			 "electric_quadrupole_moment_norm": 40.9288103719, 
			 "total_energy": -1487.65971668, 
			 "HOMO_LUMO_gap": 0.12123, 
			 "cosmo_polarized_energy": -26.98, 
			 "cosmo_cavitation_energy": 43.73, 
			 "cosmo_dispersion_energy": -31.34, 
			 "cosmo_repulsion_energy": 2.27, 
			 "cosmo_total_nonelectrostatic_energy": 14.66, 
			 "SMD_solvation_energy": 8.57 
		},
		"coords": [
			{
				"x": 5.4449896792,
				"y": 2.4034776741,
				"z": -0.9754625503,
				"element": "O" 
			},
			{
				"x": 4.4126755007,
				"y": 3.2239688433,
				"z": -1.3048465294,
				"element": "C" 
			},
			{
				"x": 4.6274558065,
				"y": 4.264214391,
				"z": -1.882081544,
				"element": "O" 
			},
			{
				"x": 3.0366893182,
				"y": 2.7722364594,
				"z": -0.917933701,
				"element": "C" 
			},
			{
				"x": 2.0213312079,
				"y": 3.7379469985,
				"z": -0.8784339011,
				"element": "C" 
			},
			{
				"x": 0.7295591536,
				"y": 3.3772918145,
				"z": -0.5294720024,
				"element": "C" 
			},
			{
				"x": 0.3933671724,
				"y": 2.0374847041,
				"z": -0.2221831491,
				"element": "C" 
			},
			{
				"x": -0.9958969825,
				"y": 1.7815954524,
				"z": 0.1299146826,
				"element": "C" 
			},
			{
				"x": -1.6889996757,
				"y": 0.6664006747,
				"z": 0.4835954067,
				"element": "C" 
			},
			{
				"x": -3.0543076615,
				"y": 0.6930723822,
				"z": 0.779568687,
				"element": "N" 
			},
			{
				"x": -3.5751111905,
				"y": -0.525665898,
				"z": 1.1121835671,
				"element": "C" 
			},
			{
				"x": -5.1564170836,
				"y": -0.8339469666,
				"z": 1.4844534588,
				"element": "S" 
			},
			{
				"x": -2.4975116537,
				"y": -1.413117808,
				"z": 1.053178528,
				"element": "N" 
			},
			{
				"x": -1.3086679985,
				"y": -0.7651259183,
				"z": 0.6648585933,
				"element": "C" 
			},
			{
				"x": -0.2339319171,
				"y": -1.3198426764,
				"z": 0.5235101965,
				"element": "O" 
			},
			{
				"x": -2.5560951816,
				"y": -2.81481178,
				"z": 1.3410855812,
				"element": "C" 
			},
			{
				"x": -2.1853091957,
				"y": -3.7319473366,
				"z": 0.3550518221,
				"element": "C" 
			},
			{
				"x": -2.2121731013,
				"y": -5.0969638002,
				"z": 0.6320634932,
				"element": "C" 
			},
			{
				"x": -2.6207433292,
				"y": -5.5154716195,
				"z": 1.8936826043,
				"element": "C" 
			},
			{
				"x": -2.6534902307,
				"y": -6.8343007287,
				"z": 2.163552314,
				"element": "F" 
			},
			{
				"x": -2.9944557601,
				"y": -4.6160314583,
				"z": 2.8867578804,
				"element": "C" 
			},
			{
				"x": -2.9531885732,
				"y": -3.2523358466,
				"z": 2.6070489348,
				"element": "C" 
			},
			{
				"x": 1.4164732934,
				"y": 1.0675468103,
				"z": -0.288425467,
				"element": "C" 
			},
			{
				"x": 2.7120968826,
				"y": 1.437950445,
				"z": -0.6306062354,
				"element": "C" 
			},
			{
				"x": 5.1406497832,
				"y": 1.6974032003,
				"z": -0.3887976323,
				"element": "H" 
			},
			{
				"x": 2.2716947114,
				"y": 4.7640918953,
				"z": -1.1241967047,
				"element": "H" 
			},
			{
				"x": -0.0440714377,
				"y": 4.1396697418,
				"z": -0.493071292,
				"element": "H" 
			},
			{
				"x": -1.6103391137,
				"y": 2.6819605812,
				"z": 0.1047275117,
				"element": "H" 
			},
			{
				"x": -3.6478681081,
				"y": 1.5080622943,
				"z": 0.7391471383,
				"element": "H" 
			},
			{
				"x": -1.8719429253,
				"y": -3.3796191932,
				"z": -0.6209157203,
				"element": "H" 
			},
			{
				"x": -1.9274825727,
				"y": -5.8319906857,
				"z": -0.1121996604,
				"element": "H" 
			},
			{
				"x": -3.3054893036,
				"y": -4.9857364736,
				"z": 3.8572401584,
				"element": "H" 
			},
			{
				"x": -3.2364431371,
				"y": -2.5304633307,
				"z": 3.3639304401,
				"element": "H" 
			},
			{
				"x": 1.186307687,
				"y": 0.0317703975,
				"z": -0.0756448846,
				"element": "H" 
			},
			{
				"x": 3.463145937,
				"y": 0.6549267607,
				"z": -0.7069800244,
				"element": "H" 
			}
		],
		 "valence_orbital": [ 
			{
				"type": "occ",
				"energy": -0.27511,
				"method": "rhf"
			},
			{
				"type": "occ",
				"energy": -0.27333,
				"method": "rhf"
			},
			{
				"type": "occ",
				"energy": -0.25313,
				"method": "rhf"
			},
			{
				"type": "occ",
				"energy": -0.23572,
				"method": "rhf"
			},
			{
				"type": "occ",
				"energy": -0.23011,
				"method": "rhf"
			},
			{
				"type": "unocc",
				"energy": -0.10888,
				"method": "rhf"
			},
			{
				"type": "unocc",
				"energy": -0.04274,
				"method": "rhf"
			},
			{
				"type": "unocc",
				"energy": -0.02925,
				"method": "rhf"
			},
			{
				"type": "unocc",
				"energy": -0.02682,
				"method": "rhf"
			},
			{
				"type": "unocc",
				"energy": -0.02433,
				"method": "rhf"
			}
		],
		"cosmo_sigma_profile": { 
			"-0.025": 0.0,
			"-0.024": 0.0,
			"-0.023": 0.0,
			"-0.022": 0.0,
			"-0.021": 0.0,
			"-0.02": 0.0,
			"-0.019": 0.146672383006,
			"-0.018": 1.23936309929,
			"-0.017": 1.84290717612,
			"-0.016": 2.60926337122,
			"-0.015": 2.30667009784,
			"-0.014": 2.31860123293,
			"-0.013": 2.14203497079,
			"-0.012": 1.91458281491,
			"-0.011": 3.04175103172,
			"-0.01": 2.69650342728,
			"-0.009": 4.80017195762,
			"-0.008": 7.72152119435,
			"-0.007": 14.3106359503,
			"-0.006": 18.772452615,
			"-0.005": 17.6083155887,
			"-0.004": 15.471103439,
			"-0.003": 15.4734384985,
			"-0.002": 20.2132572303,
			"-0.001": 20.2345732199,
			"0.0": 25.0321764656,
			"0.001": 27.3567225054,
			"0.002": 32.9682420548,
			"0.003": 22.287764588,
			"0.004": 19.0811400634,
			"0.005": 10.1420350807,
			"0.006": 8.3421185508,
			"0.007": 10.7781556172,
			"0.008": 11.7725698692,
			"0.009": 10.9184908075,
			"0.01": 9.36793250707,
			"0.011": 6.79574790105,
			"0.012": 4.56158112389,
			"0.013": 1.3535270266,
			"0.014": 0.0,
			"0.015": 0.0,
			"0.016": 0.0,
			"0.017": 0.0,
			"0.018": 0.0,
			"0.019": 0.0,
			"0.02": 0.0,
			"0.021": 0.0,
			"0.022": 0.0,
			"0.023": 0.0,
			"0.024": 0.0,
			"0.025": 0.0
		}
	}
}
