{
	 "smiles": "ClC(Cl)(Cl)C=C", 
	 "Tm": 243.15, 
	 "num_atms": 9, 
	 "gaussian": { 
		 "optdone": 1, 
		 "sigma_profile": "yes", 
		 "theory": "DFT", 
		 "functional": "B3LYP", 
		 "basiset": "6-31G**", 
		 "properties": { 
			 "R2extent": 1747.9814, 
			 "electric_dipole_moment_norm": 2.18455320375, 
			 "electric_quadrupole_moment_norm": 8.31800050553, 
			 "total_energy": -1496.66256649, 
			 "HOMO_LUMO_gap": 0.2456, 
			 "cosmo_polarized_energy": -3.31, 
			 "cosmo_cavitation_energy": 18.22, 
			 "cosmo_dispersion_energy": -13.62, 
			 "cosmo_repulsion_energy": 1.16, 
			 "cosmo_total_nonelectrostatic_energy": 5.76, 
			 "SMD_solvation_energy": 2.96 
		},
		"coords": [
			{
				"x": -1.1811749782,
				"y": 2.3735820261,
				"z": 0.9324548195,
				"element": "Cl" 
			},
			{
				"x": -0.5826067294,
				"y": 0.7312973344,
				"z": 1.4205070177,
				"element": "C" 
			},
			{
				"x": 0.373246008,
				"y": 0.0433751314,
				"z": 0.0396669914,
				"element": "Cl" 
			},
			{
				"x": -1.9984980589,
				"y": -0.3306951836,
				"z": 1.7269383983,
				"element": "Cl" 
			},
			{
				"x": 0.3268119065,
				"y": 0.883884713,
				"z": 2.605428183,
				"element": "C" 
			},
			{
				"x": 0.1702907067,
				"y": 0.3222203074,
				"z": 3.8012412823,
				"element": "C" 
			},
			{
				"x": 1.1747018072,
				"y": 1.5297876595,
				"z": 2.3935474214,
				"element": "H" 
			},
			{
				"x": -0.6661629538,
				"y": -0.3252644181,
				"z": 4.0373048265,
				"element": "H" 
			},
			{
				"x": 0.8975922918,
				"y": 0.5070124298,
				"z": 4.5848110598,
				"element": "H" 
			}
		],
		 "valence_orbital": [ 
			{
				"type": "occ",
				"energy": -0.33362,
				"method": "rhf"
			},
			{
				"type": "occ",
				"energy": -0.32883,
				"method": "rhf"
			},
			{
				"type": "occ",
				"energy": -0.32225,
				"method": "rhf"
			},
			{
				"type": "occ",
				"energy": -0.30776,
				"method": "rhf"
			},
			{
				"type": "occ",
				"energy": -0.29097,
				"method": "rhf"
			},
			{
				"type": "unocc",
				"energy": -0.04537,
				"method": "rhf"
			},
			{
				"type": "unocc",
				"energy": -0.04268,
				"method": "rhf"
			},
			{
				"type": "unocc",
				"energy": -0.00273,
				"method": "rhf"
			},
			{
				"type": "unocc",
				"energy": 0.03828,
				"method": "rhf"
			},
			{
				"type": "unocc",
				"energy": 0.10894,
				"method": "rhf"
			}
		],
		"cosmo_sigma_profile": { 
			"-0.025": 0.0,
			"-0.024": 0.0,
			"-0.023": 0.0,
			"-0.022": 0.0,
			"-0.021": 0.0,
			"-0.02": 0.0,
			"-0.019": 0.0,
			"-0.018": 0.0,
			"-0.017": 0.0,
			"-0.016": 0.0,
			"-0.015": 0.0,
			"-0.014": 0.0,
			"-0.013": 0.0,
			"-0.012": 0.0,
			"-0.011": 0.0,
			"-0.01": 0.0,
			"-0.009": 0.366317722813,
			"-0.008": 2.47084873217,
			"-0.007": 5.09440109279,
			"-0.006": 4.74349560986,
			"-0.005": 5.67662904911,
			"-0.004": 6.33428302989,
			"-0.003": 10.1861891431,
			"-0.002": 9.92885652698,
			"-0.001": 13.4638712669,
			"0.0": 13.7585106331,
			"0.001": 15.4005154672,
			"0.002": 19.3970981697,
			"0.003": 33.0240750304,
			"0.004": 12.5116177101,
			"0.005": 0.0,
			"0.006": 0.0,
			"0.007": 0.0,
			"0.008": 0.0,
			"0.009": 0.0,
			"0.01": 0.0,
			"0.011": 0.0,
			"0.012": 0.0,
			"0.013": 0.0,
			"0.014": 0.0,
			"0.015": 0.0,
			"0.016": 0.0,
			"0.017": 0.0,
			"0.018": 0.0,
			"0.019": 0.0,
			"0.02": 0.0,
			"0.021": 0.0,
			"0.022": 0.0,
			"0.023": 0.0,
			"0.024": 0.0,
			"0.025": 0.0
		}
	}
}
