{
	 "smiles": "[O-][N+](=O)C1=CC=C(NN=C(CC2=CC=CC=C2)C(=O)CC2=CC=CC=C2)C=C1", 
	 "Tm": 447.15, 
	 "num_atms": 47, 
	 "gaussian": { 
		 "optdone": 1, 
		 "sigma_profile": "yes", 
		 "theory": "DFT", 
		 "functional": "B3LYP", 
		 "basiset": "6-31G**", 
		 "properties": { 
			 "R2extent": 14151.9266, 
			 "electric_dipole_moment_norm": 4.55465328867, 
			 "electric_quadrupole_moment_norm": 55.2052021462, 
			 "total_energy": -1239.60003892, 
			 "HOMO_LUMO_gap": 0.14155, 
			 "cosmo_polarized_energy": -19.18, 
			 "cosmo_cavitation_energy": 53.29, 
			 "cosmo_dispersion_energy": -35.12, 
			 "cosmo_repulsion_energy": 2.65, 
			 "cosmo_total_nonelectrostatic_energy": 20.82, 
			 "SMD_solvation_energy": 10.73 
		},
		"coords": [
			{
				"x": -6.8832092242,
				"y": -1.3547286268,
				"z": -0.354424232,
				"element": "O" 
			},
			{
				"x": -6.1617645585,
				"y": -0.3859477372,
				"z": -0.602217581,
				"element": "N" 
			},
			{
				"x": -6.5565726157,
				"y": 0.6686051163,
				"z": -1.1038716047,
				"element": "O" 
			},
			{
				"x": -4.7413781348,
				"y": -0.4958510445,
				"z": -0.2789830509,
				"element": "C" 
			},
			{
				"x": -3.8927038452,
				"y": 0.5810329458,
				"z": -0.543772669,
				"element": "C" 
			},
			{
				"x": -2.5432269345,
				"y": 0.4813001722,
				"z": -0.2398448687,
				"element": "C" 
			},
			{
				"x": -2.0422042816,
				"y": -0.7018904311,
				"z": 0.3329463857,
				"element": "C" 
			},
			{
				"x": -0.695243399,
				"y": -0.8551083201,
				"z": 0.6416697003,
				"element": "N" 
			},
			{
				"x": 0.1687902572,
				"y": 0.1568609671,
				"z": 0.5095853521,
				"element": "N" 
			},
			{
				"x": 1.4104699812,
				"y": -0.0250361715,
				"z": 0.841822954,
				"element": "C" 
			},
			{
				"x": 2.0147679062,
				"y": -1.3221868301,
				"z": 1.3430364438,
				"element": "C" 
			},
			{
				"x": 1.439532267,
				"y": -1.8513812331,
				"z": 2.6492991129,
				"element": "C" 
			},
			{
				"x": 1.3764083388,
				"y": -1.0320840977,
				"z": 3.7864094242,
				"element": "C" 
			},
			{
				"x": 0.8664432104,
				"y": -1.5221232164,
				"z": 4.9876257169,
				"element": "C" 
			},
			{
				"x": 0.4083438249,
				"y": -2.8397880525,
				"z": 5.0746450364,
				"element": "C" 
			},
			{
				"x": 0.4692466265,
				"y": -3.6653414546,
				"z": 3.9524388122,
				"element": "C" 
			},
			{
				"x": 0.9820613595,
				"y": -3.1730958832,
				"z": 2.7487970749,
				"element": "C" 
			},
			{
				"x": 2.3172200701,
				"y": 1.152722799,
				"z": 0.6954284116,
				"element": "C" 
			},
			{
				"x": 3.4692644612,
				"y": 1.0858482285,
				"z": 1.1066249817,
				"element": "O" 
			},
			{
				"x": 1.8102633944,
				"y": 2.4124008394,
				"z": -0.0031419727,
				"element": "C" 
			},
			{
				"x": 2.1633302959,
				"y": 2.379047689,
				"z": -1.4835150761,
				"element": "C" 
			},
			{
				"x": 1.1667409906,
				"y": 2.2638041429,
				"z": -2.4594495743,
				"element": "C" 
			},
			{
				"x": 1.4977473206,
				"y": 2.2338642071,
				"z": -3.8157170142,
				"element": "C" 
			},
			{
				"x": 2.8332950063,
				"y": 2.3119244316,
				"z": -4.2121879795,
				"element": "C" 
			},
			{
				"x": 3.835336656,
				"y": 2.4191823673,
				"z": -3.2446155365,
				"element": "C" 
			},
			{
				"x": 3.5032946187,
				"y": 2.4512065986,
				"z": -1.890572623,
				"element": "C" 
			},
			{
				"x": -2.9118096923,
				"y": -1.7775988797,
				"z": 0.5951597911,
				"element": "C" 
			},
			{
				"x": -4.2602028403,
				"y": -1.6761825036,
				"z": 0.2899570384,
				"element": "C" 
			},
			{
				"x": -4.3042039757,
				"y": 1.4808135248,
				"z": -0.9839154089,
				"element": "H" 
			},
			{
				"x": -1.8679023483,
				"y": 1.304323263,
				"z": -0.4332571784,
				"element": "H" 
			},
			{
				"x": -0.4157496775,
				"y": -1.6957140114,
				"z": 1.1410852492,
				"element": "H" 
			},
			{
				"x": 3.0865857022,
				"y": -1.136070626,
				"z": 1.457577256,
				"element": "H" 
			},
			{
				"x": 1.9024235633,
				"y": -2.0866233389,
				"z": 0.5615817715,
				"element": "H" 
			},
			{
				"x": 1.7371014342,
				"y": -0.008725297,
				"z": 3.7277390984,
				"element": "H" 
			},
			{
				"x": 0.827444159,
				"y": -0.8748861297,
				"z": 5.8590879989,
				"element": "H" 
			},
			{
				"x": 0.0103911465,
				"y": -3.2187991423,
				"z": 6.0112091893,
				"element": "H" 
			},
			{
				"x": 0.1233924387,
				"y": -4.6934436599,
				"z": 4.0108018809,
				"element": "H" 
			},
			{
				"x": 1.0431370335,
				"y": -3.8278492446,
				"z": 1.8815353752,
				"element": "H" 
			},
			{
				"x": 2.3115985363,
				"y": 3.2552989954,
				"z": 0.4821834842,
				"element": "H" 
			},
			{
				"x": 0.7328357865,
				"y": 2.5182023866,
				"z": 0.1247589979,
				"element": "H" 
			},
			{
				"x": 0.1251080855,
				"y": 2.2001065748,
				"z": -2.1562674552,
				"element": "H" 
			},
			{
				"x": 0.7114430081,
				"y": 2.1498276043,
				"z": -4.5607118629,
				"element": "H" 
			},
			{
				"x": 3.0921901498,
				"y": 2.2902437072,
				"z": -5.2668828591,
				"element": "H" 
			},
			{
				"x": 4.8777227215,
				"y": 2.4795591095,
				"z": -3.5448206506,
				"element": "H" 
			},
			{
				"x": 4.2827817214,
				"y": 2.5242940732,
				"z": -1.1375372363,
				"element": "H" 
			},
			{
				"x": -2.5242402805,
				"y": -2.6892766128,
				"z": 1.0412678703,
				"element": "H" 
			},
			{
				"x": -4.9470002639,
				"y": -2.4902371992,
				"z": 0.4843320256,
				"element": "H" 
			}
		],
		 "valence_orbital": [ 
			{
				"type": "occ",
				"energy": -0.26813,
				"method": "rhf"
			},
			{
				"type": "occ",
				"energy": -0.25672,
				"method": "rhf"
			},
			{
				"type": "occ",
				"energy": -0.25073,
				"method": "rhf"
			},
			{
				"type": "occ",
				"energy": -0.23841,
				"method": "rhf"
			},
			{
				"type": "occ",
				"energy": -0.23245,
				"method": "rhf"
			},
			{
				"type": "unocc",
				"energy": -0.0909,
				"method": "rhf"
			},
			{
				"type": "unocc",
				"energy": -0.06373,
				"method": "rhf"
			},
			{
				"type": "unocc",
				"energy": -0.02944,
				"method": "rhf"
			},
			{
				"type": "unocc",
				"energy": -0.02342,
				"method": "rhf"
			},
			{
				"type": "unocc",
				"energy": -0.02023,
				"method": "rhf"
			}
		],
		"cosmo_sigma_profile": { 
			"-0.025": 0.0,
			"-0.024": 0.0,
			"-0.023": 0.0,
			"-0.022": 0.0,
			"-0.021": 0.0,
			"-0.02": 0.0,
			"-0.019": 0.0,
			"-0.018": 0.0,
			"-0.017": 0.0,
			"-0.016": 0.0,
			"-0.015": 0.0,
			"-0.014": 0.0,
			"-0.013": 0.107009455012,
			"-0.012": 0.94161743579,
			"-0.011": 1.72536584899,
			"-0.01": 1.8172476172,
			"-0.009": 1.65188874028,
			"-0.008": 3.99557395372,
			"-0.007": 8.1422208326,
			"-0.006": 19.5764807261,
			"-0.005": 31.6183566913,
			"-0.004": 37.3123126161,
			"-0.003": 36.6889121068,
			"-0.002": 31.6502674988,
			"-0.001": 34.0755665184,
			"0.0": 33.6426867034,
			"0.001": 35.3279911471,
			"0.002": 32.2045215458,
			"0.003": 22.8257740447,
			"0.004": 20.7121558895,
			"0.005": 20.1776366094,
			"0.006": 15.0767278991,
			"0.007": 6.09657603992,
			"0.008": 11.1828659537,
			"0.009": 6.79713563867,
			"0.01": 6.30569636577,
			"0.011": 4.11636365643,
			"0.012": 2.7192250729,
			"0.013": 0.377907786595,
			"0.014": 0.0,
			"0.015": 0.0,
			"0.016": 0.0,
			"0.017": 0.0,
			"0.018": 0.0,
			"0.019": 0.0,
			"0.02": 0.0,
			"0.021": 0.0,
			"0.022": 0.0,
			"0.023": 0.0,
			"0.024": 0.0,
			"0.025": 0.0
		}
	}
}
