{
	 "smiles": "NC1=C(C=C(Br)C=C1Cl)C(O)=O", 
	 "Tm": 507.15, 
	 "num_atms": 17, 
	 "gaussian": { 
		 "optdone": 1, 
		 "sigma_profile": "yes", 
		 "theory": "DFT", 
		 "functional": "B3LYP", 
		 "basiset": "6-31G**", 
		 "properties": { 
			 "R2extent": 4961.9914, 
			 "electric_dipole_moment_norm": 4.9628939491, 
			 "electric_quadrupole_moment_norm": 9.060908801, 
			 "total_energy": -3506.56830456, 
			 "HOMO_LUMO_gap": 0.1904, 
			 "cosmo_polarized_energy": -14.86, 
			 "cosmo_cavitation_energy": 25.58, 
			 "cosmo_dispersion_energy": -19.72, 
			 "cosmo_repulsion_energy": 1.57, 
			 "cosmo_total_nonelectrostatic_energy": 7.43, 
			 "SMD_solvation_energy": 4.45 
		},
		"coords": [
			{
				"x": 0.2067927665,
				"y": 0.7199864165,
				"z": -1.7297155418,
				"element": "N" 
			},
			{
				"x": -0.6695683361,
				"y": 0.3466075032,
				"z": -0.6628850988,
				"element": "C" 
			},
			{
				"x": -0.2341733568,
				"y": 0.468700334,
				"z": 0.6731551585,
				"element": "C" 
			},
			{
				"x": -1.0748668619,
				"y": 0.0868406983,
				"z": 1.7238395836,
				"element": "C" 
			},
			{
				"x": -2.3572075479,
				"y": -0.3756147279,
				"z": 1.4584172432,
				"element": "C" 
			},
			{
				"x": -3.5040349702,
				"y": -0.8778577817,
				"z": 2.8949377018,
				"element": "Br" 
			},
			{
				"x": -2.8275430445,
				"y": -0.4725161985,
				"z": 0.1504273316,
				"element": "C" 
			},
			{
				"x": -1.9747397081,
				"y": -0.1188635423,
				"z": -0.8917047971,
				"element": "C" 
			},
			{
				"x": -2.5644092321,
				"y": -0.2737054224,
				"z": -2.5421659524,
				"element": "Cl" 
			},
			{
				"x": 1.1094860076,
				"y": 1.0471917299,
				"z": 1.0859475774,
				"element": "C" 
			},
			{
				"x": 1.8117279597,
				"y": 1.6915351425,
				"z": 0.1460263246,
				"element": "O" 
			},
			{
				"x": 1.5056239512,
				"y": 0.9542619086,
				"z": 2.2268610998,
				"element": "O" 
			},
			{
				"x": 0.8590186919,
				"y": -0.0298546528,
				"z": -1.9553667264,
				"element": "H" 
			},
			{
				"x": -0.3124595598,
				"y": 0.9397573659,
				"z": -2.5749329768,
				"element": "H" 
			},
			{
				"x": -0.6999167081,
				"y": 0.1793817194,
				"z": 2.735560325,
				"element": "H" 
			},
			{
				"x": -3.8288808585,
				"y": -0.8266668789,
				"z": -0.0598418297,
				"element": "H" 
			},
			{
				"x": 1.3223508072,
				"y": 1.6477163859,
				"z": -0.7134594225,
				"element": "H" 
			}
		],
		 "valence_orbital": [ 
			{
				"type": "occ",
				"energy": -0.30638,
				"method": "rhf"
			},
			{
				"type": "occ",
				"energy": -0.30222,
				"method": "rhf"
			},
			{
				"type": "occ",
				"energy": -0.28043,
				"method": "rhf"
			},
			{
				"type": "occ",
				"energy": -0.27269,
				"method": "rhf"
			},
			{
				"type": "occ",
				"energy": -0.25656,
				"method": "rhf"
			},
			{
				"type": "unocc",
				"energy": -0.06616,
				"method": "rhf"
			},
			{
				"type": "unocc",
				"energy": -0.04018,
				"method": "rhf"
			},
			{
				"type": "unocc",
				"energy": -0.02172,
				"method": "rhf"
			},
			{
				"type": "unocc",
				"energy": 0.01921,
				"method": "rhf"
			},
			{
				"type": "unocc",
				"energy": 0.04028,
				"method": "rhf"
			}
		],
		"cosmo_sigma_profile": { 
			"-0.025": 0.0,
			"-0.024": 0.0,
			"-0.023": 0.0,
			"-0.022": 0.0,
			"-0.021": 0.0,
			"-0.02": 0.0,
			"-0.019": 0.0,
			"-0.018": 0.0,
			"-0.017": 0.0,
			"-0.016": 0.0,
			"-0.015": 0.637133748305,
			"-0.014": 1.88364096566,
			"-0.013": 1.75018107437,
			"-0.012": 2.96034282187,
			"-0.011": 2.52453795282,
			"-0.01": 3.02164163819,
			"-0.009": 3.00842441582,
			"-0.008": 4.40278761841,
			"-0.007": 4.61761228949,
			"-0.006": 6.77667019053,
			"-0.005": 8.61224363027,
			"-0.004": 8.2367695071,
			"-0.003": 11.4638937299,
			"-0.002": 13.9085079314,
			"-0.001": 17.9117890291,
			"0.0": 26.7933451058,
			"0.001": 17.988692838,
			"0.002": 13.0057360904,
			"0.003": 16.3162951552,
			"0.004": 15.1366959479,
			"0.005": 2.78169676627,
			"0.006": 1.99703201706,
			"0.007": 2.14232412953,
			"0.008": 3.04104554756,
			"0.009": 2.98626948077,
			"0.01": 3.55085941945,
			"0.011": 6.29077280568,
			"0.012": 4.87544441489,
			"0.013": 2.13226264834,
			"0.014": 0.237500911897,
			"0.015": 0.0,
			"0.016": 0.0,
			"0.017": 0.0,
			"0.018": 0.0,
			"0.019": 0.0,
			"0.02": 0.0,
			"0.021": 0.0,
			"0.022": 0.0,
			"0.023": 0.0,
			"0.024": 0.0,
			"0.025": 0.0
		}
	}
}
