{
	 "smiles": "CC1=NC(=CS1)C1=CC=C(C=C1)C(Cl)=O", 
	 "Tm": 394.15, 
	 "num_atms": 23, 
	 "gaussian": { 
		 "optdone": 1, 
		 "sigma_profile": "yes", 
		 "theory": "DFT", 
		 "functional": "B3LYP", 
		 "basiset": "6-31G**", 
		 "properties": { 
			 "R2extent": 6395.9943, 
			 "electric_dipole_moment_norm": 6.11701529343, 
			 "electric_quadrupole_moment_norm": 12.2471282373, 
			 "total_energy": -1412.36267861, 
			 "HOMO_LUMO_gap": 0.15426, 
			 "cosmo_polarized_energy": -9.35, 
			 "cosmo_cavitation_energy": 31.51, 
			 "cosmo_dispersion_energy": -23.8, 
			 "cosmo_repulsion_energy": 1.8, 
			 "cosmo_total_nonelectrostatic_energy": 9.51, 
			 "SMD_solvation_energy": 4.67 
		},
		"coords": [
			{
				"x": -1.8438057344,
				"y": -3.2132037294,
				"z": -2.5169098766,
				"element": "C" 
			},
			{
				"x": -0.9928085261,
				"y": -1.980691252,
				"z": -2.5177385048,
				"element": "C" 
			},
			{
				"x": -0.6728563032,
				"y": -1.3062509461,
				"z": -1.4566432034,
				"element": "N" 
			},
			{
				"x": 0.1235909061,
				"y": -0.209185522,
				"z": -1.7471947746,
				"element": "C" 
			},
			{
				"x": 0.4118377054,
				"y": -0.0557671394,
				"z": -3.0816076514,
				"element": "C" 
			},
			{
				"x": -0.3263525701,
				"y": -1.3105866382,
				"z": -4.0110139376,
				"element": "S" 
			},
			{
				"x": 0.5718536661,
				"y": 0.6592065691,
				"z": -0.6454815702,
				"element": "C" 
			},
			{
				"x": 1.3836406327,
				"y": 1.7876517889,
				"z": -0.8703836597,
				"element": "C" 
			},
			{
				"x": 1.7919735815,
				"y": 2.5891433218,
				"z": 0.1832928448,
				"element": "C" 
			},
			{
				"x": 1.4003742687,
				"y": 2.2871499469,
				"z": 1.5016516117,
				"element": "C" 
			},
			{
				"x": 0.5922315867,
				"y": 1.1652782345,
				"z": 1.7340169317,
				"element": "C" 
			},
			{
				"x": 0.1852485859,
				"y": 0.3644781326,
				"z": 0.6738666562,
				"element": "C" 
			},
			{
				"x": 1.886120918,
				"y": 3.2006572069,
				"z": 2.5564543343,
				"element": "C" 
			},
			{
				"x": 1.3561521066,
				"y": 2.7760831193,
				"z": 4.2630637381,
				"element": "Cl" 
			},
			{
				"x": 2.574700644,
				"y": 4.1644243497,
				"z": 2.397537888,
				"element": "O" 
			},
			{
				"x": -1.3041914321,
				"y": -4.073131558,
				"z": -2.9271477275,
				"element": "H" 
			},
			{
				"x": -2.7512193088,
				"y": -3.0737523336,
				"z": -3.1137574464,
				"element": "H" 
			},
			{
				"x": -2.1305246756,
				"y": -3.4358170108,
				"z": -1.4877093554,
				"element": "H" 
			},
			{
				"x": 1.0041678075,
				"y": 0.7076306315,
				"z": -3.5638905812,
				"element": "H" 
			},
			{
				"x": 1.6996748386,
				"y": 2.0424639372,
				"z": -1.8767910851,
				"element": "H" 
			},
			{
				"x": 2.4170896566,
				"y": 3.457780521,
				"z": 0.0087306532,
				"element": "H" 
			},
			{
				"x": 0.2844525447,
				"y": 0.92264155,
				"z": 2.7438348445,
				"element": "H" 
			},
			{
				"x": -0.4392508987,
				"y": -0.5032031798,
				"z": 0.8497198715,
				"element": "H" 
			}
		],
		 "valence_orbital": [ 
			{
				"type": "occ",
				"energy": -0.29076,
				"method": "rhf"
			},
			{
				"type": "occ",
				"energy": -0.28866,
				"method": "rhf"
			},
			{
				"type": "occ",
				"energy": -0.28642,
				"method": "rhf"
			},
			{
				"type": "occ",
				"energy": -0.27126,
				"method": "rhf"
			},
			{
				"type": "occ",
				"energy": -0.23598,
				"method": "rhf"
			},
			{
				"type": "unocc",
				"energy": -0.08172,
				"method": "rhf"
			},
			{
				"type": "unocc",
				"energy": -0.03757,
				"method": "rhf"
			},
			{
				"type": "unocc",
				"energy": -0.01588,
				"method": "rhf"
			},
			{
				"type": "unocc",
				"energy": 0.00332,
				"method": "rhf"
			},
			{
				"type": "unocc",
				"energy": 0.00877,
				"method": "rhf"
			}
		],
		"cosmo_sigma_profile": { 
			"-0.025": 0.0,
			"-0.024": 0.0,
			"-0.023": 0.0,
			"-0.022": 0.0,
			"-0.021": 0.0,
			"-0.02": 0.0,
			"-0.019": 0.0,
			"-0.018": 0.0,
			"-0.017": 0.0,
			"-0.016": 0.0,
			"-0.015": 0.0,
			"-0.014": 0.0,
			"-0.013": 0.0,
			"-0.012": 0.0,
			"-0.011": 0.354894937945,
			"-0.01": 2.19897150722,
			"-0.009": 2.6759804534,
			"-0.008": 2.42506814996,
			"-0.007": 4.69250765366,
			"-0.006": 11.931118775,
			"-0.005": 15.0110273286,
			"-0.004": 15.3922028833,
			"-0.003": 15.5628285006,
			"-0.002": 19.4458056618,
			"-0.001": 22.6247446433,
			"0.0": 21.388483822,
			"0.001": 29.0673466422,
			"0.002": 35.6725844893,
			"0.003": 18.0041356578,
			"0.004": 10.2782202432,
			"0.005": 9.48399596954,
			"0.006": 5.7780281957,
			"0.007": 3.5802628997,
			"0.008": 4.97918866707,
			"0.009": 5.30112147034,
			"0.01": 2.23572391815,
			"0.011": 0.328687416168,
			"0.012": 0.0,
			"0.013": 0.0,
			"0.014": 0.0,
			"0.015": 0.0,
			"0.016": 0.0,
			"0.017": 0.0,
			"0.018": 0.0,
			"0.019": 0.0,
			"0.02": 0.0,
			"0.021": 0.0,
			"0.022": 0.0,
			"0.023": 0.0,
			"0.024": 0.0,
			"0.025": 0.0
		}
	}
}
