{
	 "smiles": "CC(C)(OC1=CC=C(Cl)C=C1)C(N)=O", 
	 "Tm": 401.15, 
	 "num_atms": 26, 
	 "gaussian": { 
		 "optdone": 1, 
		 "sigma_profile": "yes", 
		 "theory": "DFT", 
		 "functional": "B3LYP", 
		 "basiset": "6-31G**", 
		 "properties": { 
			 "R2extent": 4363.8876, 
			 "electric_dipole_moment_norm": 1.6890815078, 
			 "electric_quadrupole_moment_norm": 17.5784198149, 
			 "total_energy": -1053.70459662, 
			 "HOMO_LUMO_gap": 0.22132, 
			 "cosmo_polarized_energy": -12.28, 
			 "cosmo_cavitation_energy": 31.1, 
			 "cosmo_dispersion_energy": -22.07, 
			 "cosmo_repulsion_energy": 1.76, 
			 "cosmo_total_nonelectrostatic_energy": 10.79, 
			 "SMD_solvation_energy": 5.86 
		},
		"coords": [
			{
				"x": -2.2576109276,
				"y": -1.8173213832,
				"z": 0.2465363938,
				"element": "C" 
			},
			{
				"x": -1.3988464783,
				"y": -1.3821379058,
				"z": -0.9458495151,
				"element": "C" 
			},
			{
				"x": -0.3118297473,
				"y": -2.4146310346,
				"z": -1.263296426,
				"element": "C" 
			},
			{
				"x": -0.8263718749,
				"y": -0.0558311166,
				"z": -0.7320086032,
				"element": "O" 
			},
			{
				"x": 0.0545222849,
				"y": 0.1565674002,
				"z": 0.3082698563,
				"element": "C" 
			},
			{
				"x": -0.418988265,
				"y": 0.5946523262,
				"z": 1.5497074206,
				"element": "C" 
			},
			{
				"x": 0.473921169,
				"y": 0.890275265,
				"z": 2.579341711,
				"element": "C" 
			},
			{
				"x": 1.8436256609,
				"y": 0.7506639459,
				"z": 2.3571001873,
				"element": "C" 
			},
			{
				"x": 2.9733030475,
				"y": 1.1231524634,
				"z": 3.6517847796,
				"element": "Cl" 
			},
			{
				"x": 2.3311580286,
				"y": 0.330221292,
				"z": 1.1199500624,
				"element": "C" 
			},
			{
				"x": 1.4320048907,
				"y": 0.0363580404,
				"z": 0.0952916908,
				"element": "C" 
			},
			{
				"x": -2.3200425552,
				"y": -1.2559849429,
				"z": -2.1830847524,
				"element": "C" 
			},
			{
				"x": -2.3853785207,
				"y": -0.0294224713,
				"z": -2.7551562004,
				"element": "N" 
			},
			{
				"x": -2.9355001881,
				"y": -2.2346263491,
				"z": -2.5871791888,
				"element": "O" 
			},
			{
				"x": -3.0069466256,
				"y": -1.0553288455,
				"z": 0.4809474382,
				"element": "H" 
			},
			{
				"x": -2.7774292007,
				"y": -2.741980768,
				"z": -0.0117250197,
				"element": "H" 
			},
			{
				"x": -1.6403230613,
				"y": -1.9909074868,
				"z": 1.1321240408,
				"element": "H" 
			},
			{
				"x": -0.789983655,
				"y": -3.3522637632,
				"z": -1.5533132293,
				"element": "H" 
			},
			{
				"x": 0.3122446,
				"y": -2.0750642295,
				"z": -2.0953491572,
				"element": "H" 
			},
			{
				"x": 0.3254857928,
				"y": -2.5937535937,
				"z": -0.3931457859,
				"element": "H" 
			},
			{
				"x": -1.4863597723,
				"y": 0.7151034931,
				"z": 1.6987847121,
				"element": "H" 
			},
			{
				"x": 0.1112939438,
				"y": 1.2311757007,
				"z": 3.542744682,
				"element": "H" 
			},
			{
				"x": 3.3996453952,
				"y": 0.2395284151,
				"z": 0.9588087837,
				"element": "H" 
			},
			{
				"x": 1.7937530082,
				"y": -0.274558056,
				"z": -0.8786381027,
				"element": "H" 
			},
			{
				"x": -1.8545444018,
				"y": 0.7377164989,
				"z": -2.3755253654,
				"element": "H" 
			},
			{
				"x": -2.9756025477,
				"y": 0.0908971053,
				"z": -3.5633204126,
				"element": "H" 
			}
		],
		 "valence_orbital": [ 
			{
				"type": "occ",
				"energy": -0.28843,
				"method": "rhf"
			},
			{
				"type": "occ",
				"energy": -0.27093,
				"method": "rhf"
			},
			{
				"type": "occ",
				"energy": -0.26467,
				"method": "rhf"
			},
			{
				"type": "occ",
				"energy": -0.24817,
				"method": "rhf"
			},
			{
				"type": "occ",
				"energy": -0.24328,
				"method": "rhf"
			},
			{
				"type": "unocc",
				"energy": -0.02196,
				"method": "rhf"
			},
			{
				"type": "unocc",
				"energy": -0.01677,
				"method": "rhf"
			},
			{
				"type": "unocc",
				"energy": 0.0251,
				"method": "rhf"
			},
			{
				"type": "unocc",
				"energy": 0.02961,
				"method": "rhf"
			},
			{
				"type": "unocc",
				"energy": 0.08294,
				"method": "rhf"
			}
		],
		"cosmo_sigma_profile": { 
			"-0.025": 0.0,
			"-0.024": 0.0,
			"-0.023": 0.0,
			"-0.022": 0.0,
			"-0.021": 0.0,
			"-0.02": 0.0,
			"-0.019": 0.0,
			"-0.018": 0.0,
			"-0.017": 0.0,
			"-0.016": 0.0,
			"-0.015": 0.049636348081,
			"-0.014": 0.948795910326,
			"-0.013": 1.28944703157,
			"-0.012": 1.6538315953,
			"-0.011": 1.66666707686,
			"-0.01": 2.27420255177,
			"-0.009": 1.34912314161,
			"-0.008": 2.16224052319,
			"-0.007": 6.91970917555,
			"-0.006": 8.54238647558,
			"-0.005": 11.32919382,
			"-0.004": 18.0740943926,
			"-0.003": 17.9238741022,
			"-0.002": 21.0944879002,
			"-0.001": 21.5310281148,
			"0.0": 21.8363229444,
			"0.001": 17.6260576686,
			"0.002": 21.0345185294,
			"0.003": 26.0374550681,
			"0.004": 14.7825319946,
			"0.005": 10.7055887549,
			"0.006": 1.60419053994,
			"0.007": 1.13239780044,
			"0.008": 1.42396481718,
			"0.009": 1.74632565173,
			"0.01": 0.628052174309,
			"0.011": 1.7868909881,
			"0.012": 1.59947166639,
			"0.013": 2.99833350729,
			"0.014": 5.08794597726,
			"0.015": 1.06049513359,
			"0.016": 0.0,
			"0.017": 0.0,
			"0.018": 0.0,
			"0.019": 0.0,
			"0.02": 0.0,
			"0.021": 0.0,
			"0.022": 0.0,
			"0.023": 0.0,
			"0.024": 0.0,
			"0.025": 0.0
		}
	}
}
