{
	 "smiles": "CC1=CC(=CC=C1)C(Cl)=O", 
	 "Tm": 250.15, 
	 "num_atms": 17, 
	 "gaussian": { 
		 "optdone": 1, 
		 "sigma_profile": "yes", 
		 "theory": "DFT", 
		 "functional": "B3LYP", 
		 "basiset": "6-31G**", 
		 "properties": { 
			 "R2extent": 2618.9085, 
			 "electric_dipole_moment_norm": 4.51795183795, 
			 "electric_quadrupole_moment_norm": 11.0163106746, 
			 "total_energy": -844.502563647, 
			 "HOMO_LUMO_gap": 0.18841, 
			 "cosmo_polarized_energy": -5.92, 
			 "cosmo_cavitation_energy": 23.07, 
			 "cosmo_dispersion_energy": -17.05, 
			 "cosmo_repulsion_energy": 1.39, 
			 "cosmo_total_nonelectrostatic_energy": 7.4, 
			 "SMD_solvation_energy": 4.67 
		},
		"coords": [
			{
				"x": -0.6904276782,
				"y": -1.0486170924,
				"z": -1.2609369848,
				"element": "C" 
			},
			{
				"x": -0.5723567264,
				"y": 0.116648806,
				"z": -0.3067290451,
				"element": "C" 
			},
			{
				"x": 0.5752550054,
				"y": 0.2994059345,
				"z": 0.4687540978,
				"element": "C" 
			},
			{
				"x": 0.6806972954,
				"y": 1.3821960258,
				"z": 1.3536949831,
				"element": "C" 
			},
			{
				"x": -0.3761323702,
				"y": 2.3003591248,
				"z": 1.4687711369,
				"element": "C" 
			},
			{
				"x": -1.5218826214,
				"y": 2.1247036458,
				"z": 0.6996334618,
				"element": "C" 
			},
			{
				"x": -1.6175756005,
				"y": 1.0440929611,
				"z": -0.1782169875,
				"element": "C" 
			},
			{
				"x": 1.8647989489,
				"y": 1.6399575205,
				"z": 2.2067258261,
				"element": "C" 
			},
			{
				"x": 3.2335732433,
				"y": 0.4273257345,
				"z": 2.0394634245,
				"element": "Cl" 
			},
			{
				"x": 1.9996073636,
				"y": 2.545738674,
				"z": 2.9730842189,
				"element": "O" 
			},
			{
				"x": 0.2089033509,
				"y": -1.6693313139,
				"z": -1.2460636554,
				"element": "H" 
			},
			{
				"x": -0.843924821,
				"y": -0.7047723509,
				"z": -2.2899775497,
				"element": "H" 
			},
			{
				"x": -1.5429872137,
				"y": -1.6871895285,
				"z": -1.003662543,
				"element": "H" 
			},
			{
				"x": 1.3959757415,
				"y": -0.4035686417,
				"z": 0.3869716247,
				"element": "H" 
			},
			{
				"x": -0.280789982,
				"y": 3.132652273,
				"z": 2.1568207297,
				"element": "H" 
			},
			{
				"x": -2.3430795899,
				"y": 2.8301789623,
				"z": 0.7828416808,
				"element": "H" 
			},
			{
				"x": -2.5178543457,
				"y": 0.9165192653,
				"z": -0.7746744187,
				"element": "H" 
			}
		],
		 "valence_orbital": [ 
			{
				"type": "occ",
				"energy": -0.31683,
				"method": "rhf"
			},
			{
				"type": "occ",
				"energy": -0.31651,
				"method": "rhf"
			},
			{
				"type": "occ",
				"energy": -0.29045,
				"method": "rhf"
			},
			{
				"type": "occ",
				"energy": -0.2754,
				"method": "rhf"
			},
			{
				"type": "occ",
				"energy": -0.26358,
				"method": "rhf"
			},
			{
				"type": "unocc",
				"energy": -0.07517,
				"method": "rhf"
			},
			{
				"type": "unocc",
				"energy": -0.01852,
				"method": "rhf"
			},
			{
				"type": "unocc",
				"energy": 0.021,
				"method": "rhf"
			},
			{
				"type": "unocc",
				"energy": 0.02596,
				"method": "rhf"
			},
			{
				"type": "unocc",
				"energy": 0.08945,
				"method": "rhf"
			}
		],
		"cosmo_sigma_profile": { 
			"-0.025": 0.0,
			"-0.024": 0.0,
			"-0.023": 0.0,
			"-0.022": 0.0,
			"-0.021": 0.0,
			"-0.02": 0.0,
			"-0.019": 0.0,
			"-0.018": 0.0,
			"-0.017": 0.0,
			"-0.016": 0.0,
			"-0.015": 0.0,
			"-0.014": 0.0,
			"-0.013": 0.0,
			"-0.012": 0.0,
			"-0.011": 0.0,
			"-0.01": 0.0,
			"-0.009": 0.0,
			"-0.008": 0.0,
			"-0.007": 2.66506485713,
			"-0.006": 8.7798812359,
			"-0.005": 11.5372607419,
			"-0.004": 14.8883603806,
			"-0.003": 14.7479380946,
			"-0.002": 15.8758059138,
			"-0.001": 19.5500244316,
			"0.0": 19.6257651861,
			"0.001": 14.9610034717,
			"0.002": 16.5084219114,
			"0.003": 16.7999332319,
			"0.004": 9.21497416283,
			"0.005": 7.31538452096,
			"0.006": 3.75797679157,
			"0.007": 2.59016411735,
			"0.008": 4.06270273873,
			"0.009": 3.5233021245,
			"0.01": 0.577454041414,
			"0.011": 0.0,
			"0.012": 0.0,
			"0.013": 0.0,
			"0.014": 0.0,
			"0.015": 0.0,
			"0.016": 0.0,
			"0.017": 0.0,
			"0.018": 0.0,
			"0.019": 0.0,
			"0.02": 0.0,
			"0.021": 0.0,
			"0.022": 0.0,
			"0.023": 0.0,
			"0.024": 0.0,
			"0.025": 0.0
		}
	}
}
