{
	 "smiles": "CCC1(C2CCC(CC2)OC)C(=O)NC(=O)NC1=O", 
	 "Tm": 513.15, 
	 "num_atms": 39, 
	 "gaussian": { 
		 "optdone": 1, 
		 "sigma_profile": "yes", 
		 "theory": "DFT", 
		 "functional": "B3LYP", 
		 "basiset": "6-31G**", 
		 "properties": { 
			 "R2extent": 6111.9255, 
			 "electric_dipole_moment_norm": 1.11918790648, 
			 "electric_quadrupole_moment_norm": 11.422150825, 
			 "total_energy": -917.886586239, 
			 "HOMO_LUMO_gap": 0.20222, 
			 "cosmo_polarized_energy": -16.91, 
			 "cosmo_cavitation_energy": 38.43, 
			 "cosmo_dispersion_energy": -26.85, 
			 "cosmo_repulsion_energy": 2.07, 
			 "cosmo_total_nonelectrostatic_energy": 13.65, 
			 "SMD_solvation_energy": 8.09 
		},
		"coords": [
			{
				"x": 0.8440638633,
				"y": -0.2863366443,
				"z": -4.5857541169,
				"element": "C" 
			},
			{
				"x": 0.3179426425,
				"y": -0.6868783198,
				"z": -3.2027715319,
				"element": "C" 
			},
			{
				"x": 0.2405043548,
				"y": 0.4803758265,
				"z": -2.1760999112,
				"element": "C" 
			},
			{
				"x": -0.4392233721,
				"y": -0.0042052959,
				"z": -0.828377467,
				"element": "C" 
			},
			{
				"x": 0.1573024902,
				"y": -1.3140883878,
				"z": -0.2591953894,
				"element": "C" 
			},
			{
				"x": -0.2931016728,
				"y": -1.5165992997,
				"z": 1.1947538374,
				"element": "C" 
			},
			{
				"x": 0.2789067559,
				"y": -0.4406469536,
				"z": 2.1370135453,
				"element": "C" 
			},
			{
				"x": 0.5595610354,
				"y": 0.8727207951,
				"z": 1.3746783688,
				"element": "C" 
			},
			{
				"x": -0.4850201969,
				"y": 1.0996627264,
				"z": 0.2733592832,
				"element": "C" 
			},
			{
				"x": -0.6900087961,
				"y": -0.2639861605,
				"z": 3.1721533316,
				"element": "O" 
			},
			{
				"x": -0.1806351175,
				"y": 0.2925521082,
				"z": 4.3652898801,
				"element": "C" 
			},
			{
				"x": -0.6980298934,
				"y": 1.5469828768,
				"z": -2.7580643465,
				"element": "C" 
			},
			{
				"x": -1.8304504606,
				"y": 1.2874833253,
				"z": -3.1194513564,
				"element": "O" 
			},
			{
				"x": -0.2196630862,
				"y": 2.8487446707,
				"z": -2.8532418487,
				"element": "N" 
			},
			{
				"x": 1.043697944,
				"y": 3.3197035531,
				"z": -2.5205255054,
				"element": "C" 
			},
			{
				"x": 1.3738014667,
				"y": 4.4802474703,
				"z": -2.6521449549,
				"element": "O" 
			},
			{
				"x": 1.898963824,
				"y": 2.342021514,
				"z": -2.025959913,
				"element": "N" 
			},
			{
				"x": 1.6615257194,
				"y": 0.9771537498,
				"z": -1.9032924191,
				"element": "C" 
			},
			{
				"x": 2.5729543096,
				"y": 0.2364735987,
				"z": -1.5758463437,
				"element": "O" 
			},
			{
				"x": 0.2010309625,
				"y": 0.4568806947,
				"z": -5.0682155102,
				"element": "H" 
			},
			{
				"x": 0.8780124823,
				"y": -1.1614307269,
				"z": -5.2415007138,
				"element": "H" 
			},
			{
				"x": 1.8606879279,
				"y": 0.1180381086,
				"z": -4.5318733211,
				"element": "H" 
			},
			{
				"x": -0.6897992047,
				"y": -1.1019846614,
				"z": -3.2958835949,
				"element": "H" 
			},
			{
				"x": 0.9649459792,
				"y": -1.4569587104,
				"z": -2.7788222737,
				"element": "H" 
			},
			{
				"x": -1.4704865896,
				"y": -0.2131063076,
				"z": -1.1326310948,
				"element": "H" 
			},
			{
				"x": 1.2502941152,
				"y": -1.2908577055,
				"z": -0.3111765779,
				"element": "H" 
			},
			{
				"x": -0.168039188,
				"y": -2.1649078622,
				"z": -0.8651368668,
				"element": "H" 
			},
			{
				"x": -1.3863862409,
				"y": -1.4562854621,
				"z": 1.2580562979,
				"element": "H" 
			},
			{
				"x": -0.0164582802,
				"y": -2.5140976365,
				"z": 1.5503000393,
				"element": "H" 
			},
			{
				"x": 1.2191921734,
				"y": -0.7976547826,
				"z": 2.5877299896,
				"element": "H" 
			},
			{
				"x": 1.5662076026,
				"y": 0.8289082534,
				"z": 0.9437110496,
				"element": "H" 
			},
			{
				"x": 0.5602991681,
				"y": 1.7129317103,
				"z": 2.0771581137,
				"element": "H" 
			},
			{
				"x": -1.4755274829,
				"y": 1.0896732902,
				"z": 0.7407368475,
				"element": "H" 
			},
			{
				"x": -0.3733567585,
				"y": 2.1005154638,
				"z": -0.1572654166,
				"element": "H" 
			},
			{
				"x": 0.6247688943,
				"y": -0.3268155742,
				"z": 4.7910936188,
				"element": "H" 
			},
			{
				"x": 0.2092563094,
				"y": 1.3128897345,
				"z": 4.2305204019,
				"element": "H" 
			},
			{
				"x": -1.0077807746,
				"y": 0.3331729742,
				"z": 5.078707596,
				"element": "H" 
			},
			{
				"x": -0.858391293,
				"y": 3.5401463014,
				"z": -3.2292736673,
				"element": "H" 
			},
			{
				"x": 2.8426383872,
				"y": 2.6537617451,
				"z": -1.8264580596,
				"element": "H" 
			}
		],
		 "valence_orbital": [ 
			{
				"type": "occ",
				"energy": -0.30147,
				"method": "rhf"
			},
			{
				"type": "occ",
				"energy": -0.2999,
				"method": "rhf"
			},
			{
				"type": "occ",
				"energy": -0.28694,
				"method": "rhf"
			},
			{
				"type": "occ",
				"energy": -0.26655,
				"method": "rhf"
			},
			{
				"type": "occ",
				"energy": -0.25009,
				"method": "rhf"
			},
			{
				"type": "unocc",
				"energy": -0.04787,
				"method": "rhf"
			},
			{
				"type": "unocc",
				"energy": -0.00904,
				"method": "rhf"
			},
			{
				"type": "unocc",
				"energy": 0.05131,
				"method": "rhf"
			},
			{
				"type": "unocc",
				"energy": 0.07037,
				"method": "rhf"
			},
			{
				"type": "unocc",
				"energy": 0.08055,
				"method": "rhf"
			}
		],
		"cosmo_sigma_profile": { 
			"-0.025": 0.0,
			"-0.024": 0.0,
			"-0.023": 0.0,
			"-0.022": 0.0,
			"-0.021": 0.0,
			"-0.02": 0.0,
			"-0.019": 0.0,
			"-0.018": 0.0,
			"-0.017": 0.356917330909,
			"-0.016": 1.70169292643,
			"-0.015": 2.1539371922,
			"-0.014": 1.2815173366,
			"-0.013": 1.63859015917,
			"-0.012": 1.03068075581,
			"-0.011": 2.67807180432,
			"-0.01": 0.857943191813,
			"-0.009": 1.39801774941,
			"-0.008": 2.46227722759,
			"-0.007": 2.42462040939,
			"-0.006": 4.37696634107,
			"-0.005": 7.29461121362,
			"-0.004": 20.1288517427,
			"-0.003": 47.1877700379,
			"-0.002": 45.7266018574,
			"-0.001": 34.9659530497,
			"0.0": 27.2980265834,
			"0.001": 15.5707888581,
			"0.002": 6.65030363212,
			"0.003": 6.14644675087,
			"0.004": 6.12226915235,
			"0.005": 6.11256177394,
			"0.006": 5.25232037617,
			"0.007": 5.30071591666,
			"0.008": 4.94239322311,
			"0.009": 5.83456706197,
			"0.01": 7.03551009011,
			"0.011": 14.0838291104,
			"0.012": 9.14467942371,
			"0.013": 1.30127499317,
			"0.014": 0.0607508349268,
			"0.015": 0.0,
			"0.016": 0.0,
			"0.017": 0.0,
			"0.018": 0.0,
			"0.019": 0.0,
			"0.02": 0.0,
			"0.021": 0.0,
			"0.022": 0.0,
			"0.023": 0.0,
			"0.024": 0.0,
			"0.025": 0.0
		}
	}
}
