{
	 "smiles": "OC1=CC=C(NC(=O)C2=CC=CC=C2)C=C1", 
	 "Tm": 489.15, 
	 "num_atms": 27, 
	 "gaussian": { 
		 "optdone": 1, 
		 "sigma_profile": "yes", 
		 "theory": "DFT", 
		 "functional": "B3LYP", 
		 "basiset": "6-31G**", 
		 "properties": { 
			 "R2extent": 4532.4751, 
			 "electric_dipole_moment_norm": 3.76986793535, 
			 "electric_quadrupole_moment_norm": 8.14738484239, 
			 "total_energy": -707.220020193, 
			 "HOMO_LUMO_gap": 0.17791, 
			 "cosmo_polarized_energy": -15.99, 
			 "cosmo_cavitation_energy": 31.62, 
			 "cosmo_dispersion_energy": -22.43, 
			 "cosmo_repulsion_energy": 1.76, 
			 "cosmo_total_nonelectrostatic_energy": 10.95, 
			 "SMD_solvation_energy": 6.29 
		},
		"coords": [
			{
				"x": 2.4132093359,
				"y": -2.8324368745,
				"z": 3.5846688714,
				"element": "O" 
			},
			{
				"x": 1.9534914235,
				"y": -1.8451037812,
				"z": 2.7598564593,
				"element": "C" 
			},
			{
				"x": 0.875399777,
				"y": -2.0244886407,
				"z": 1.8868208135,
				"element": "C" 
			},
			{
				"x": 0.4428808449,
				"y": -0.9745711257,
				"z": 1.0786487886,
				"element": "C" 
			},
			{
				"x": 1.103261344,
				"y": 0.2593168647,
				"z": 1.1050478019,
				"element": "C" 
			},
			{
				"x": 0.6793745809,
				"y": 1.3622217461,
				"z": 0.3122359948,
				"element": "N" 
			},
			{
				"x": 0.1535782375,
				"y": 1.3908543684,
				"z": -0.9678125072,
				"element": "C" 
			},
			{
				"x": -0.5469826057,
				"y": 2.3363653665,
				"z": -1.3155797029,
				"element": "O" 
			},
			{
				"x": 0.5047296156,
				"y": 0.2952237773,
				"z": -1.9323626793,
				"element": "C" 
			},
			{
				"x": 1.736019202,
				"y": -0.3758942204,
				"z": -1.9219729967,
				"element": "C" 
			},
			{
				"x": 2.0272485401,
				"y": -1.3196169839,
				"z": -2.9068406287,
				"element": "C" 
			},
			{
				"x": 1.0904491005,
				"y": -1.6092697931,
				"z": -3.9012518165,
				"element": "C" 
			},
			{
				"x": -0.134358529,
				"y": -0.9372213154,
				"z": -3.9213262585,
				"element": "C" 
			},
			{
				"x": -0.4194888087,
				"y": 0.0199107347,
				"z": -2.9500938813,
				"element": "C" 
			},
			{
				"x": 2.1851932372,
				"y": 0.4290645881,
				"z": 1.9809004646,
				"element": "C" 
			},
			{
				"x": 2.6026824573,
				"y": -0.6064236069,
				"z": 2.8104786449,
				"element": "C" 
			},
			{
				"x": 1.8814185317,
				"y": -3.6282453204,
				"z": 3.455047657,
				"element": "H" 
			},
			{
				"x": 0.3573314118,
				"y": -2.9804759756,
				"z": 1.8500401684,
				"element": "H" 
			},
			{
				"x": -0.4103740463,
				"y": -1.1158655733,
				"z": 0.4243530478,
				"element": "H" 
			},
			{
				"x": 0.4570234206,
				"y": 2.2160949506,
				"z": 0.8112944,
				"element": "H" 
			},
			{
				"x": 2.4705228924,
				"y": -0.152305773,
				"z": -1.1562433793,
				"element": "H" 
			},
			{
				"x": 2.9876226632,
				"y": -1.8269442442,
				"z": -2.8988364223,
				"element": "H" 
			},
			{
				"x": 1.3176161421,
				"y": -2.3500532164,
				"z": -4.66276518,
				"element": "H" 
			},
			{
				"x": -0.8612686249,
				"y": -1.1520209955,
				"z": -4.6993046398,
				"element": "H" 
			},
			{
				"x": -1.3510546149,
				"y": 0.5756475866,
				"z": -2.9667059063,
				"element": "H" 
			},
			{
				"x": 2.7027991624,
				"y": 1.3838177577,
				"z": 2.0053831033,
				"element": "H" 
			},
			{
				"x": 3.4358753089,
				"y": -0.4770803005,
				"z": 3.4930197836,
				"element": "H" 
			}
		],
		 "valence_orbital": [ 
			{
				"type": "occ",
				"energy": -0.26547,
				"method": "rhf"
			},
			{
				"type": "occ",
				"energy": -0.25967,
				"method": "rhf"
			},
			{
				"type": "occ",
				"energy": -0.25348,
				"method": "rhf"
			},
			{
				"type": "occ",
				"energy": -0.24295,
				"method": "rhf"
			},
			{
				"type": "occ",
				"energy": -0.21374,
				"method": "rhf"
			},
			{
				"type": "unocc",
				"energy": -0.03583,
				"method": "rhf"
			},
			{
				"type": "unocc",
				"energy": -0.01597,
				"method": "rhf"
			},
			{
				"type": "unocc",
				"energy": -0.00218,
				"method": "rhf"
			},
			{
				"type": "unocc",
				"energy": 0.00533,
				"method": "rhf"
			},
			{
				"type": "unocc",
				"energy": 0.05832,
				"method": "rhf"
			}
		],
		"cosmo_sigma_profile": { 
			"-0.025": 0.0,
			"-0.024": 0.0,
			"-0.023": 0.0,
			"-0.022": 0.0,
			"-0.021": 0.0,
			"-0.02": 0.0,
			"-0.019": 0.0,
			"-0.018": 0.32315591326,
			"-0.017": 1.11788016132,
			"-0.016": 1.43891375374,
			"-0.015": 0.898056469315,
			"-0.014": 1.39139491169,
			"-0.013": 2.43952406411,
			"-0.012": 1.51516979613,
			"-0.011": 1.54422196782,
			"-0.01": 2.11073071535,
			"-0.009": 2.52490515074,
			"-0.008": 1.95247233145,
			"-0.007": 4.21429505931,
			"-0.006": 14.993308528,
			"-0.005": 17.8861394988,
			"-0.004": 19.8717100609,
			"-0.003": 14.8200068553,
			"-0.002": 12.8702581279,
			"-0.001": 15.609302259,
			"0.0": 14.8859813858,
			"0.001": 15.1521461034,
			"0.002": 17.3211490529,
			"0.003": 19.5539421981,
			"0.004": 24.7475046229,
			"0.005": 14.1556739678,
			"0.006": 3.2289239794,
			"0.007": 2.63529345256,
			"0.008": 2.60013462477,
			"0.009": 3.17981230042,
			"0.01": 2.6235415549,
			"0.011": 4.24145048792,
			"0.012": 2.86453907727,
			"0.013": 4.96425092014,
			"0.014": 2.95562425475,
			"0.015": 0.0444338677963,
			"0.016": 0.0,
			"0.017": 0.0,
			"0.018": 0.0,
			"0.019": 0.0,
			"0.02": 0.0,
			"0.021": 0.0,
			"0.022": 0.0,
			"0.023": 0.0,
			"0.024": 0.0,
			"0.025": 0.0
		}
	}
}
