{
	 "smiles": "COC(=O)CC(CC(=O)OC)(C1=CC(C)=C(O)C(C)=C1)C1=CC(C)=C(O)C(C)=C1", 
	 "Tm": 472.15, 
	 "num_atms": 57, 
	 "gaussian": { 
		 "optdone": 1, 
		 "sigma_profile": "yes", 
		 "theory": "DFT", 
		 "functional": "B3LYP", 
		 "basiset": "6-31G**", 
		 "properties": { 
			 "R2extent": 12220.657, 
			 "electric_dipole_moment_norm": 2.81330930045, 
			 "electric_quadrupole_moment_norm": 15.6314637123, 
			 "total_energy": -1344.70448641, 
			 "HOMO_LUMO_gap": 0.2045, 
			 "cosmo_polarized_energy": -21.4, 
			 "cosmo_cavitation_energy": 58.06, 
			 "cosmo_dispersion_energy": -36.9, 
			 "cosmo_repulsion_energy": 2.91, 
			 "cosmo_total_nonelectrostatic_energy": 24.08, 
			 "SMD_solvation_energy": 12.88 
		},
		"coords": [
			{
				"x": -2.5730013391,
				"y": -3.5716144019,
				"z": -3.3589666633,
				"element": "C" 
			},
			{
				"x": -1.4886139466,
				"y": -2.6522266013,
				"z": -3.1519479793,
				"element": "O" 
			},
			{
				"x": -0.9612200872,
				"y": -2.6530759643,
				"z": -1.9073032557,
				"element": "C" 
			},
			{
				"x": -1.3731874946,
				"y": -3.3780322033,
				"z": -1.0225400787,
				"element": "O" 
			},
			{
				"x": 0.202656234,
				"y": -1.6885156206,
				"z": -1.8108509966,
				"element": "C" 
			},
			{
				"x": 0.1690861786,
				"y": -0.76109865,
				"z": -0.5548823329,
				"element": "C" 
			},
			{
				"x": 0.3757431824,
				"y": -1.6030331418,
				"z": 0.7424681048,
				"element": "C" 
			},
			{
				"x": 1.7528246191,
				"y": -2.2175985703,
				"z": 0.8861524587,
				"element": "C" 
			},
			{
				"x": 2.3903950883,
				"y": -2.7815791387,
				"z": 0.0180720876,
				"element": "O" 
			},
			{
				"x": 2.1957962476,
				"y": -2.1074532033,
				"z": 2.158507075,
				"element": "O" 
			},
			{
				"x": 3.4708468678,
				"y": -2.7146997922,
				"z": 2.4201649183,
				"element": "C" 
			},
			{
				"x": 1.2998544864,
				"y": 0.2902934499,
				"z": -0.6165655561,
				"element": "C" 
			},
			{
				"x": 2.3834145469,
				"y": 0.2065224362,
				"z": -1.4943448807,
				"element": "C" 
			},
			{
				"x": 3.4201669746,
				"y": 1.1496293295,
				"z": -1.4891876129,
				"element": "C" 
			},
			{
				"x": 4.5813758047,
				"y": 1.0395868955,
				"z": -2.4504089275,
				"element": "C" 
			},
			{
				"x": 3.3626593796,
				"y": 2.2016216239,
				"z": -0.5659018206,
				"element": "C" 
			},
			{
				"x": 4.3355172177,
				"y": 3.1671681617,
				"z": -0.4951408127,
				"element": "O" 
			},
			{
				"x": 2.2946088972,
				"y": 2.3204373862,
				"z": 0.3398637172,
				"element": "C" 
			},
			{
				"x": 2.2645260628,
				"y": 3.4660015865,
				"z": 1.3194612372,
				"element": "C" 
			},
			{
				"x": 1.2851920283,
				"y": 1.3611573796,
				"z": 0.2926424324,
				"element": "C" 
			},
			{
				"x": -1.2034213834,
				"y": -0.0502247723,
				"z": -0.5353206254,
				"element": "C" 
			},
			{
				"x": -2.242576713,
				"y": -0.402239125,
				"z": 0.3344935964,
				"element": "C" 
			},
			{
				"x": -3.4939069153,
				"y": 0.2221771951,
				"z": 0.2964872368,
				"element": "C" 
			},
			{
				"x": -4.6024403716,
				"y": -0.161730215,
				"z": 1.2436801388,
				"element": "C" 
			},
			{
				"x": -3.7059505814,
				"y": 1.2284053112,
				"z": -0.6552902169,
				"element": "C" 
			},
			{
				"x": -4.9448683825,
				"y": 1.8190632865,
				"z": -0.6615700939,
				"element": "O" 
			},
			{
				"x": -2.6940307952,
				"y": 1.6082383376,
				"z": -1.553118521,
				"element": "C" 
			},
			{
				"x": -2.9447763401,
				"y": 2.6979511276,
				"z": -2.5696955812,
				"element": "C" 
			},
			{
				"x": -1.4607469847,
				"y": 0.9596538092,
				"z": -1.4727991742,
				"element": "C" 
			},
			{
				"x": -2.2508273846,
				"y": -4.5986238028,
				"z": -3.1689065436,
				"element": "H" 
			},
			{
				"x": -3.407603507,
				"y": -3.3365855649,
				"z": -2.6938371134,
				"element": "H" 
			},
			{
				"x": -2.8676719635,
				"y": -3.4492135916,
				"z": -4.4013256754,
				"element": "H" 
			},
			{
				"x": 0.2194332628,
				"y": -1.0826704482,
				"z": -2.7183225098,
				"element": "H" 
			},
			{
				"x": 1.1118434961,
				"y": -2.2975848168,
				"z": -1.7792697212,
				"element": "H" 
			},
			{
				"x": -0.3349137005,
				"y": -2.4362253504,
				"z": 0.7458092659,
				"element": "H" 
			},
			{
				"x": 0.1855723497,
				"y": -0.9855807437,
				"z": 1.6219795945,
				"element": "H" 
			},
			{
				"x": 4.2488717709,
				"y": -2.2544119631,
				"z": 1.8060534791,
				"element": "H" 
			},
			{
				"x": 3.6670511074,
				"y": -2.5427114085,
				"z": 3.4785406139,
				"element": "H" 
			},
			{
				"x": 3.4406993127,
				"y": -3.7857823062,
				"z": 2.2041808307,
				"element": "H" 
			},
			{
				"x": 2.4540228966,
				"y": -0.6103883438,
				"z": -2.2034639065,
				"element": "H" 
			},
			{
				"x": 4.4743042894,
				"y": 0.1608329313,
				"z": -3.090493829,
				"element": "H" 
			},
			{
				"x": 5.5433160177,
				"y": 0.9387343837,
				"z": -1.9284361505,
				"element": "H" 
			},
			{
				"x": 4.6566113831,
				"y": 1.913110787,
				"z": -3.1133869664,
				"element": "H" 
			},
			{
				"x": 5.0144669783,
				"y": 2.9847564382,
				"z": -1.1562473805,
				"element": "H" 
			},
			{
				"x": 3.1465411404,
				"y": 3.4566193298,
				"z": 1.9696226763,
				"element": "H" 
			},
			{
				"x": 1.3721122056,
				"y": 3.417966378,
				"z": 1.9488288812,
				"element": "H" 
			},
			{
				"x": 2.2711374305,
				"y": 4.4322800635,
				"z": 0.8026761903,
				"element": "H" 
			},
			{
				"x": 0.4498156446,
				"y": 1.4612294977,
				"z": 0.9805009919,
				"element": "H" 
			},
			{
				"x": -2.1007374798,
				"y": -1.1887026083,
				"z": 1.0671020322,
				"element": "H" 
			},
			{
				"x": -4.2840418256,
				"y": -0.9655251051,
				"z": 1.9125385933,
				"element": "H" 
			},
			{
				"x": -4.9178669304,
				"y": 0.6915318226,
				"z": 1.8548292124,
				"element": "H" 
			},
			{
				"x": -5.491974542,
				"y": -0.4986280765,
				"z": 0.6997481445,
				"element": "H" 
			},
			{
				"x": -4.973955643,
				"y": 2.4927668645,
				"z": -1.3518214671,
				"element": "H" 
			},
			{
				"x": -2.0571752876,
				"y": 2.8682870455,
				"z": -3.1832809788,
				"element": "H" 
			},
			{
				"x": -3.1957645005,
				"y": 3.657300854,
				"z": -2.0957604607,
				"element": "H" 
			},
			{
				"x": -3.765523277,
				"y": 2.4443991782,
				"z": -3.2552758198,
				"element": "H" 
			},
			{
				"x": -0.6721657256,
				"y": 1.2657326394,
				"z": -2.1549398572,
				"element": "H" 
			}
		],
		 "valence_orbital": [ 
			{
				"type": "occ",
				"energy": -0.25752,
				"method": "rhf"
			},
			{
				"type": "occ",
				"energy": -0.23389,
				"method": "rhf"
			},
			{
				"type": "occ",
				"energy": -0.22992,
				"method": "rhf"
			},
			{
				"type": "occ",
				"energy": -0.21267,
				"method": "rhf"
			},
			{
				"type": "occ",
				"energy": -0.20085,
				"method": "rhf"
			},
			{
				"type": "unocc",
				"energy": 0.00365,
				"method": "rhf"
			},
			{
				"type": "unocc",
				"energy": 0.0104,
				"method": "rhf"
			},
			{
				"type": "unocc",
				"energy": 0.01185,
				"method": "rhf"
			},
			{
				"type": "unocc",
				"energy": 0.01905,
				"method": "rhf"
			},
			{
				"type": "unocc",
				"energy": 0.02077,
				"method": "rhf"
			}
		],
		"cosmo_sigma_profile": { 
			"-0.025": 0.0,
			"-0.024": 0.0,
			"-0.023": 0.0,
			"-0.022": 0.0,
			"-0.021": 0.0,
			"-0.02": 0.0,
			"-0.019": 0.0,
			"-0.018": 0.0,
			"-0.017": 0.0,
			"-0.016": 0.376246592247,
			"-0.015": 1.81856917023,
			"-0.014": 1.4489692674,
			"-0.013": 2.20301257403,
			"-0.012": 1.6273766097,
			"-0.011": 1.93356520768,
			"-0.01": 1.98028277952,
			"-0.009": 3.44845438039,
			"-0.008": 2.45254008699,
			"-0.007": 3.41734129434,
			"-0.006": 11.9788657242,
			"-0.005": 29.6300676725,
			"-0.004": 48.5272553296,
			"-0.003": 48.8731408588,
			"-0.002": 36.8256930203,
			"-0.001": 34.9979519435,
			"0.0": 37.3312319222,
			"0.001": 28.2580593974,
			"0.002": 23.9421824444,
			"0.003": 23.8171728231,
			"0.004": 23.8279915977,
			"0.005": 25.9145948256,
			"0.006": 15.0703650511,
			"0.007": 10.6978133187,
			"0.008": 8.34633663903,
			"0.009": 7.59809315658,
			"0.01": 7.50652260209,
			"0.011": 7.33553427883,
			"0.012": 4.21046813325,
			"0.013": 0.333235830675,
			"0.014": 0.0,
			"0.015": 0.0,
			"0.016": 0.0,
			"0.017": 0.0,
			"0.018": 0.0,
			"0.019": 0.0,
			"0.02": 0.0,
			"0.021": 0.0,
			"0.022": 0.0,
			"0.023": 0.0,
			"0.024": 0.0,
			"0.025": 0.0
		}
	}
}
