{
	 "smiles": "CC(C)CCC#C", 
	 "Tm": 149.15, 
	 "num_atms": 19, 
	 "gaussian": { 
		 "optdone": 1, 
		 "sigma_profile": "yes", 
		 "theory": "DFT", 
		 "functional": "B3LYP", 
		 "basiset": "6-31G**", 
		 "properties": { 
			 "R2extent": 1147.4185, 
			 "electric_dipole_moment_norm": 0.655776593056, 
			 "electric_quadrupole_moment_norm": 2.93555547043, 
			 "total_energy": -273.917608945, 
			 "HOMO_LUMO_gap": 0.30782, 
			 "cosmo_polarized_energy": -3.55, 
			 "cosmo_cavitation_energy": 21.66, 
			 "cosmo_dispersion_energy": -14.98, 
			 "cosmo_repulsion_energy": 1.27, 
			 "cosmo_total_nonelectrostatic_energy": 7.95, 
			 "SMD_solvation_energy": 5.0 
		},
		"coords": [
			{
				"x": -1.1193530495,
				"y": 0.0864173546,
				"z": -0.8907311737,
				"element": "C" 
			},
			{
				"x": 0.1580517988,
				"y": -0.4838829486,
				"z": -1.5250622383,
				"element": "C" 
			},
			{
				"x": -0.1587187549,
				"y": -1.1263201554,
				"z": -2.8848469108,
				"element": "C" 
			},
			{
				"x": 0.8932328423,
				"y": -1.4969213842,
				"z": -0.6245743646,
				"element": "C" 
			},
			{
				"x": 1.5187837856,
				"y": -0.9300711142,
				"z": 0.6743539991,
				"element": "C" 
			},
			{
				"x": 0.5916133183,
				"y": -0.709927713,
				"z": 1.7862303295,
				"element": "C" 
			},
			{
				"x": -0.153329412,
				"y": -0.5520845348,
				"z": 2.7245221564,
				"element": "C" 
			},
			{
				"x": -0.9186972681,
				"y": 0.5982885447,
				"z": 0.0530528351,
				"element": "H" 
			},
			{
				"x": -1.6000003071,
				"y": 0.7995435253,
				"z": -1.5698338704,
				"element": "H" 
			},
			{
				"x": -1.840519753,
				"y": -0.7135748384,
				"z": -0.6834982929,
				"element": "H" 
			},
			{
				"x": 0.8497046971,
				"y": 0.3538223266,
				"z": -1.7050060379,
				"element": "H" 
			},
			{
				"x": -0.6450626121,
				"y": -0.4101518898,
				"z": -3.5557839328,
				"element": "H" 
			},
			{
				"x": 0.7481348982,
				"y": -1.4891400983,
				"z": -3.3814365723,
				"element": "H" 
			},
			{
				"x": -0.8372329289,
				"y": -1.9799051033,
				"z": -2.765211338,
				"element": "H" 
			},
			{
				"x": 0.2191874114,
				"y": -2.3244251907,
				"z": -0.3685937718,
				"element": "H" 
			},
			{
				"x": 1.7133666922,
				"y": -1.9350722424,
				"z": -1.2074120406,
				"element": "H" 
			},
			{
				"x": 2.0413679374,
				"y": 0.0090086248,
				"z": 0.4448648602,
				"element": "H" 
			},
			{
				"x": 2.2951820617,
				"y": -1.6260096996,
				"z": 1.0185058645,
				"element": "H" 
			},
			{
				"x": -0.8179113572,
				"y": -0.4073934634,
				"z": 3.5441604993,
				"element": "H" 
			}
		],
		 "valence_orbital": [ 
			{
				"type": "occ",
				"energy": -0.32949,
				"method": "rhf"
			},
			{
				"type": "occ",
				"energy": -0.32229,
				"method": "rhf"
			},
			{
				"type": "occ",
				"energy": -0.31797,
				"method": "rhf"
			},
			{
				"type": "occ",
				"energy": -0.25827,
				"method": "rhf"
			},
			{
				"type": "occ",
				"energy": -0.2548,
				"method": "rhf"
			},
			{
				"type": "unocc",
				"energy": 0.05302,
				"method": "rhf"
			},
			{
				"type": "unocc",
				"energy": 0.06157,
				"method": "rhf"
			},
			{
				"type": "unocc",
				"energy": 0.09827,
				"method": "rhf"
			},
			{
				"type": "unocc",
				"energy": 0.11595,
				"method": "rhf"
			},
			{
				"type": "unocc",
				"energy": 0.12752,
				"method": "rhf"
			}
		],
		"cosmo_sigma_profile": { 
			"-0.025": 0.0,
			"-0.024": 0.0,
			"-0.023": 0.0,
			"-0.022": 0.0,
			"-0.021": 0.0,
			"-0.02": 0.0,
			"-0.019": 0.0,
			"-0.018": 0.0,
			"-0.017": 0.0,
			"-0.016": 0.0,
			"-0.015": 0.0,
			"-0.014": 0.0,
			"-0.013": 0.0,
			"-0.012": 0.0,
			"-0.011": 0.74867819419,
			"-0.01": 1.2282596393,
			"-0.009": 0.957059140103,
			"-0.008": 0.903063273294,
			"-0.007": 1.45425530297,
			"-0.006": 1.13510374565,
			"-0.005": 4.49929002905,
			"-0.004": 5.77763049374,
			"-0.003": 13.4570945227,
			"-0.002": 26.6909819499,
			"-0.001": 25.2250950398,
			"0.0": 20.2775468804,
			"0.001": 20.8762742096,
			"0.002": 15.2016042839,
			"0.003": 4.99180766788,
			"0.004": 5.05541723977,
			"0.005": 5.4878804507,
			"0.006": 4.87407888188,
			"0.007": 7.07760876706,
			"0.008": 3.21545211284,
			"0.009": 0.0115412873909,
			"0.01": 0.0,
			"0.011": 0.0,
			"0.012": 0.0,
			"0.013": 0.0,
			"0.014": 0.0,
			"0.015": 0.0,
			"0.016": 0.0,
			"0.017": 0.0,
			"0.018": 0.0,
			"0.019": 0.0,
			"0.02": 0.0,
			"0.021": 0.0,
			"0.022": 0.0,
			"0.023": 0.0,
			"0.024": 0.0,
			"0.025": 0.0
		}
	}
}
