{
	 "smiles": "CC(C)(C)OC(=O)N[C@@H](CC(O)=O)C(O)=O", 
	 "Tm": 390.15, 
	 "num_atms": 31, 
	 "gaussian": { 
		 "optdone": 1, 
		 "sigma_profile": "yes", 
		 "theory": "DFT", 
		 "functional": "B3LYP", 
		 "basiset": "6-31G**", 
		 "properties": { 
			 "R2extent": 4206.5948, 
			 "electric_dipole_moment_norm": 5.24042613248, 
			 "electric_quadrupole_moment_norm": 26.5057267963, 
			 "total_energy": -858.154542881, 
			 "HOMO_LUMO_gap": 0.22266, 
			 "cosmo_polarized_energy": -22.87, 
			 "cosmo_cavitation_energy": 34.32, 
			 "cosmo_dispersion_energy": -22.86, 
			 "cosmo_repulsion_energy": 1.8, 
			 "cosmo_total_nonelectrostatic_energy": 13.26, 
			 "SMD_solvation_energy": 8.77 
		},
		"coords": [
			{
				"x": 0.6116519863,
				"y": -1.7321429765,
				"z": -2.7932340453,
				"element": "C" 
			},
			{
				"x": -0.6201872091,
				"y": -1.4041039444,
				"z": -1.944411859,
				"element": "C" 
			},
			{
				"x": -0.7255118608,
				"y": -2.3451520173,
				"z": -0.7423545909,
				"element": "C" 
			},
			{
				"x": -1.9138924874,
				"y": -1.4133347248,
				"z": -2.7634178415,
				"element": "C" 
			},
			{
				"x": -0.4414489202,
				"y": -0.0834293917,
				"z": -1.3037199459,
				"element": "O" 
			},
			{
				"x": -0.2938452367,
				"y": 1.0386492544,
				"z": -2.045918996,
				"element": "C" 
			},
			{
				"x": -0.3327041704,
				"y": 1.1248093251,
				"z": -3.2589433912,
				"element": "O" 
			},
			{
				"x": -0.0891494491,
				"y": 2.1219726161,
				"z": -1.2235288484,
				"element": "N" 
			},
			{
				"x": 0.0742620342,
				"y": 2.0798301789,
				"z": 0.2184552463,
				"element": "C" 
			},
			{
				"x": -1.2590162084,
				"y": 1.8246483666,
				"z": 0.9696422821,
				"element": "C" 
			},
			{
				"x": -1.3168450462,
				"y": 2.3736953571,
				"z": 2.3998819835,
				"element": "C" 
			},
			{
				"x": -0.522147217,
				"y": 1.7764216761,
				"z": 3.3049235974,
				"element": "O" 
			},
			{
				"x": -2.0415096749,
				"y": 3.2918301559,
				"z": 2.7065181849,
				"element": "O" 
			},
			{
				"x": 1.1741730756,
				"y": 1.0946640868,
				"z": 0.6382686756,
				"element": "C" 
			},
			{
				"x": 2.2209312625,
				"y": 1.0941976834,
				"z": -0.1939947327,
				"element": "O" 
			},
			{
				"x": 1.1465532298,
				"y": 0.4113595422,
				"z": 1.6480815064,
				"element": "O" 
			},
			{
				"x": 0.700565292,
				"y": -1.0458561251,
				"z": -3.6357752976,
				"element": "H" 
			},
			{
				"x": 0.5306286524,
				"y": -2.7540893751,
				"z": -3.1767160153,
				"element": "H" 
			},
			{
				"x": 1.5200442689,
				"y": -1.6681262102,
				"z": -2.1857307073,
				"element": "H" 
			},
			{
				"x": -1.5957232751,
				"y": -2.0955177755,
				"z": -0.1282447224,
				"element": "H" 
			},
			{
				"x": -0.8327071051,
				"y": -3.3781651117,
				"z": -1.085667624,
				"element": "H" 
			},
			{
				"x": 0.1685385022,
				"y": -2.2782856069,
				"z": -0.115775634,
				"element": "H" 
			},
			{
				"x": -2.0995196183,
				"y": -2.4247283604,
				"z": -3.1390200462,
				"element": "H" 
			},
			{
				"x": -1.8475895196,
				"y": -0.7290650866,
				"z": -3.6093222519,
				"element": "H" 
			},
			{
				"x": -2.7632270643,
				"y": -1.1236969983,
				"z": -2.1368602486,
				"element": "H" 
			},
			{
				"x": 0.1090807037,
				"y": 2.9778183297,
				"z": -1.7177674893,
				"element": "H" 
			},
			{
				"x": 0.4501596136,
				"y": 3.0708066539,
				"z": 0.5044600917,
				"element": "H" 
			},
			{
				"x": -2.0454957342,
				"y": 2.3372312628,
				"z": 0.4161739798,
				"element": "H" 
			},
			{
				"x": -1.4739356712,
				"y": 0.7524432815,
				"z": 0.9641183109,
				"element": "H" 
			},
			{
				"x": 0.0254144822,
				"y": 1.0909586797,
				"z": 2.8669416635,
				"element": "H" 
			},
			{
				"x": 2.8718523643,
				"y": 0.4711572541,
				"z": 0.1723387656,
				"element": "H" 
			}
		],
		 "valence_orbital": [ 
			{
				"type": "occ",
				"energy": -0.30619,
				"method": "rhf"
			},
			{
				"type": "occ",
				"energy": -0.30089,
				"method": "rhf"
			},
			{
				"type": "occ",
				"energy": -0.28038,
				"method": "rhf"
			},
			{
				"type": "occ",
				"energy": -0.27768,
				"method": "rhf"
			},
			{
				"type": "occ",
				"energy": -0.25592,
				"method": "rhf"
			},
			{
				"type": "unocc",
				"energy": -0.03326,
				"method": "rhf"
			},
			{
				"type": "unocc",
				"energy": 0.01339,
				"method": "rhf"
			},
			{
				"type": "unocc",
				"energy": 0.03582,
				"method": "rhf"
			},
			{
				"type": "unocc",
				"energy": 0.04491,
				"method": "rhf"
			},
			{
				"type": "unocc",
				"energy": 0.06272,
				"method": "rhf"
			}
		],
		"cosmo_sigma_profile": { 
			"-0.025": 0.0,
			"-0.024": 0.0,
			"-0.023": 0.0,
			"-0.022": 0.0,
			"-0.021": 0.0,
			"-0.02": 0.047382729599,
			"-0.019": 0.863010898553,
			"-0.018": 1.25108627308,
			"-0.017": 0.551491613838,
			"-0.016": 0.80819730382,
			"-0.015": 1.76151457624,
			"-0.014": 2.72481128602,
			"-0.013": 2.57295132742,
			"-0.012": 1.80973389992,
			"-0.011": 4.29361330684,
			"-0.01": 5.1029400488,
			"-0.009": 2.79091040173,
			"-0.008": 2.49723444126,
			"-0.007": 4.62462617533,
			"-0.006": 6.07791639256,
			"-0.005": 9.56790814509,
			"-0.004": 19.7857299961,
			"-0.003": 21.5377594611,
			"-0.002": 21.9896005947,
			"-0.001": 21.9836632782,
			"0.0": 30.1226760044,
			"0.001": 20.7847938554,
			"0.002": 10.1382255565,
			"0.003": 8.52153831535,
			"0.004": 6.35810230605,
			"0.005": 6.28980737623,
			"0.006": 5.77524520503,
			"0.007": 6.26530306713,
			"0.008": 5.90118704072,
			"0.009": 5.11025826395,
			"0.01": 5.83456074608,
			"0.011": 7.50758459555,
			"0.012": 8.88776213159,
			"0.013": 6.89932279733,
			"0.014": 1.22408888855,
			"0.015": 0.0,
			"0.016": 0.0,
			"0.017": 0.0,
			"0.018": 0.0,
			"0.019": 0.0,
			"0.02": 0.0,
			"0.021": 0.0,
			"0.022": 0.0,
			"0.023": 0.0,
			"0.024": 0.0,
			"0.025": 0.0
		}
	}
}
