{
	 "smiles": "FC(F)(F)CN1C=NN=C1S", 
	 "Tm": 367.15, 
	 "num_atms": 15, 
	 "gaussian": { 
		 "optdone": 1, 
		 "sigma_profile": "yes", 
		 "theory": "DFT", 
		 "functional": "B3LYP", 
		 "basiset": "6-31G**", 
		 "properties": { 
			 "R2extent": 4405.4289, 
			 "electric_dipole_moment_norm": 4.36642331205, 
			 "electric_quadrupole_moment_norm": 16.374900105, 
			 "total_energy": -1016.76541133, 
			 "HOMO_LUMO_gap": 0.24119, 
			 "cosmo_polarized_energy": -16.64, 
			 "cosmo_cavitation_energy": 22.58, 
			 "cosmo_dispersion_energy": -16.47, 
			 "cosmo_repulsion_energy": 1.22, 
			 "cosmo_total_nonelectrostatic_energy": 7.33, 
			 "SMD_solvation_energy": 3.11 
		},
		"coords": [
			{
				"x": -1.4900757171,
				"y": -0.8052762275,
				"z": -2.0217674108,
				"element": "F" 
			},
			{
				"x": -1.0367934648,
				"y": -2.0593173513,
				"z": -1.8385154141,
				"element": "C" 
			},
			{
				"x": -0.7131674431,
				"y": -2.5647128029,
				"z": -3.0431803344,
				"element": "F" 
			},
			{
				"x": -2.0374335743,
				"y": -2.7987939216,
				"z": -1.3238155573,
				"element": "F" 
			},
			{
				"x": 0.15620513,
				"y": -2.0810569449,
				"z": -0.8899354021,
				"element": "C" 
			},
			{
				"x": 1.2677842496,
				"y": -1.3008213566,
				"z": -1.3865774839,
				"element": "N" 
			},
			{
				"x": 1.5210258742,
				"y": 0.0346563338,
				"z": -1.1670312497,
				"element": "C" 
			},
			{
				"x": 2.6316623037,
				"y": 0.3999534592,
				"z": -1.747271845,
				"element": "N" 
			},
			{
				"x": 3.142238044,
				"y": -0.7079653582,
				"z": -2.4035081904,
				"element": "N" 
			},
			{
				"x": 2.3212761108,
				"y": -1.7053523365,
				"z": -2.1793913159,
				"element": "C" 
			},
			{
				"x": 2.4849749467,
				"y": -3.3618309807,
				"z": -2.7749222875,
				"element": "S" 
			},
			{
				"x": 0.4693490584,
				"y": -3.1187839974,
				"z": -0.7513682236,
				"element": "H" 
			},
			{
				"x": -0.1677120658,
				"y": -1.6839806978,
				"z": 0.0746432782,
				"element": "H" 
			},
			{
				"x": 0.8640439599,
				"y": 0.6681018827,
				"z": -0.5881777996,
				"element": "H" 
			},
			{
				"x": 3.8298225879,
				"y": -3.3123197003,
				"z": -2.8009807639,
				"element": "H" 
			}
		],
		 "valence_orbital": [ 
			{
				"type": "occ",
				"energy": -0.32429,
				"method": "rhf"
			},
			{
				"type": "occ",
				"energy": -0.31311,
				"method": "rhf"
			},
			{
				"type": "occ",
				"energy": -0.3083,
				"method": "rhf"
			},
			{
				"type": "occ",
				"energy": -0.26608,
				"method": "rhf"
			},
			{
				"type": "occ",
				"energy": -0.2481,
				"method": "rhf"
			},
			{
				"type": "unocc",
				"energy": -0.00691,
				"method": "rhf"
			},
			{
				"type": "unocc",
				"energy": 0.00127,
				"method": "rhf"
			},
			{
				"type": "unocc",
				"energy": 0.02992,
				"method": "rhf"
			},
			{
				"type": "unocc",
				"energy": 0.05467,
				"method": "rhf"
			},
			{
				"type": "unocc",
				"energy": 0.07946,
				"method": "rhf"
			}
		],
		"cosmo_sigma_profile": { 
			"-0.025": 0.0,
			"-0.024": 0.0,
			"-0.023": 0.0,
			"-0.022": 0.0,
			"-0.021": 0.0,
			"-0.02": 0.0,
			"-0.019": 0.0,
			"-0.018": 0.0,
			"-0.017": 0.0,
			"-0.016": 0.0,
			"-0.015": 0.0,
			"-0.014": 0.0,
			"-0.013": 0.54526298491,
			"-0.012": 3.45772116197,
			"-0.011": 6.15256548661,
			"-0.01": 6.65423340605,
			"-0.009": 6.7450338867,
			"-0.008": 5.53091882138,
			"-0.007": 6.64346405394,
			"-0.006": 6.32651400849,
			"-0.005": 3.99477850051,
			"-0.004": 6.07015524645,
			"-0.003": 7.34126618678,
			"-0.002": 8.10009973385,
			"-0.001": 11.0412657091,
			"0.0": 8.78702974664,
			"0.001": 15.5378013902,
			"0.002": 32.1071683936,
			"0.003": 11.1801105242,
			"0.004": 4.91526108746,
			"0.005": 5.09547428228,
			"0.006": 3.10310496261,
			"0.007": 1.90876160397,
			"0.008": 2.20926127678,
			"0.009": 1.86983816195,
			"0.01": 1.80913798057,
			"0.011": 2.69616546957,
			"0.012": 3.08286776118,
			"0.013": 3.42090073763,
			"0.014": 3.23202697304,
			"0.015": 2.21382138255,
			"0.016": 1.68883271678,
			"0.017": 0.145020410269,
			"0.018": 0.0,
			"0.019": 0.0,
			"0.02": 0.0,
			"0.021": 0.0,
			"0.022": 0.0,
			"0.023": 0.0,
			"0.024": 0.0,
			"0.025": 0.0
		}
	}
}
