{
	 "smiles": "CC(C)[C@@H](C(=O)O[C@@H](C#N)C1=CC=CC(OC2=CC=CC=C2)=C1)C1=CC=C(Cl)C=C1", 
	 "Tm": 333.15, 
	 "num_atms": 52, 
	 "gaussian": { 
		 "optdone": 1, 
		 "sigma_profile": "yes", 
		 "theory": "DFT", 
		 "functional": "B3LYP", 
		 "basiset": "6-31G**", 
		 "properties": { 
			 "R2extent": 16615.9213, 
			 "electric_dipole_moment_norm": 4.78656038717, 
			 "electric_quadrupole_moment_norm": 22.2558318065, 
			 "total_energy": -1706.5203288, 
			 "HOMO_LUMO_gap": 0.18688, 
			 "cosmo_polarized_energy": -17.51, 
			 "cosmo_cavitation_energy": 58.83, 
			 "cosmo_dispersion_energy": -36.91, 
			 "cosmo_repulsion_energy": 2.83, 
			 "cosmo_total_nonelectrostatic_energy": 24.75, 
			 "SMD_solvation_energy": 11.39 
		},
		"coords": [
			{
				"x": -2.6826879927,
				"y": -1.7697475871,
				"z": -0.7234427944,
				"element": "C" 
			},
			{
				"x": -1.5195253937,
				"y": -2.6689894206,
				"z": -1.1699967391,
				"element": "C" 
			},
			{
				"x": -1.9614543732,
				"y": -3.5935935229,
				"z": -2.3130832583,
				"element": "C" 
			},
			{
				"x": -0.285459513,
				"y": -1.8190275557,
				"z": -1.5930941568,
				"element": "C" 
			},
			{
				"x": 0.1424264114,
				"y": -0.8180016168,
				"z": -0.5212759246,
				"element": "C" 
			},
			{
				"x": 0.3255997733,
				"y": 0.3614619391,
				"z": -0.7068073069,
				"element": "O" 
			},
			{
				"x": 0.3249920897,
				"y": -1.4239115666,
				"z": 0.6889584427,
				"element": "O" 
			},
			{
				"x": 0.7392802622,
				"y": -0.5955545044,
				"z": 1.810934911,
				"element": "C" 
			},
			{
				"x": 2.0437897928,
				"y": 0.0405701272,
				"z": 1.556161152,
				"element": "C" 
			},
			{
				"x": 3.0980480825,
				"y": 0.5054621551,
				"z": 1.42281258,
				"element": "N" 
			},
			{
				"x": -0.3470151076,
				"y": 0.3616163195,
				"z": 2.2762506877,
				"element": "C" 
			},
			{
				"x": -1.434679599,
				"y": -0.1761390103,
				"z": 2.974711357,
				"element": "C" 
			},
			{
				"x": -2.4675937965,
				"y": 0.6633546133,
				"z": 3.3938792152,
				"element": "C" 
			},
			{
				"x": -2.4216509944,
				"y": 2.0277092104,
				"z": 3.1202021128,
				"element": "C" 
			},
			{
				"x": -1.3286628018,
				"y": 2.5595711252,
				"z": 2.4266295566,
				"element": "C" 
			},
			{
				"x": -1.3396823088,
				"y": 3.9205455887,
				"z": 2.2497903987,
				"element": "O" 
			},
			{
				"x": -0.6352222804,
				"y": 4.538524796,
				"z": 1.2268108022,
				"element": "C" 
			},
			{
				"x": -0.0268958888,
				"y": 5.7533349277,
				"z": 1.5465879455,
				"element": "C" 
			},
			{
				"x": 0.625458394,
				"y": 6.4773363324,
				"z": 0.5491967172,
				"element": "C" 
			},
			{
				"x": 0.6771928216,
				"y": 5.9886102603,
				"z": -0.7579478444,
				"element": "C" 
			},
			{
				"x": 0.0647978837,
				"y": 4.771759633,
				"z": -1.0635414108,
				"element": "C" 
			},
			{
				"x": -0.6018691031,
				"y": 4.0411252062,
				"z": -0.0787379418,
				"element": "C" 
			},
			{
				"x": -0.282641828,
				"y": 1.7316057889,
				"z": 2.0103376131,
				"element": "C" 
			},
			{
				"x": 0.9191554599,
				"y": -2.646693598,
				"z": -2.0364876801,
				"element": "C" 
			},
			{
				"x": 1.435914146,
				"y": -2.4870098941,
				"z": -3.3282072735,
				"element": "C" 
			},
			{
				"x": 2.5272436504,
				"y": -3.2341938478,
				"z": -3.772037669,
				"element": "C" 
			},
			{
				"x": 3.1127470544,
				"y": -4.1555138622,
				"z": -2.9067519669,
				"element": "C" 
			},
			{
				"x": 4.4859699238,
				"y": -5.1072017912,
				"z": -3.4519839505,
				"element": "Cl" 
			},
			{
				"x": 2.6246327098,
				"y": -4.3324773119,
				"z": -1.612297798,
				"element": "C" 
			},
			{
				"x": 1.5339688444,
				"y": -3.5768620315,
				"z": -1.1854370265,
				"element": "C" 
			},
			{
				"x": -3.5479584398,
				"y": -2.3777779795,
				"z": -0.4401902189,
				"element": "H" 
			},
			{
				"x": -2.4203443186,
				"y": -1.1488819472,
				"z": 0.1385242367,
				"element": "H" 
			},
			{
				"x": -2.9982515816,
				"y": -1.1043120262,
				"z": -1.5358580212,
				"element": "H" 
			},
			{
				"x": -1.2195708372,
				"y": -3.2906293848,
				"z": -0.3173849315,
				"element": "H" 
			},
			{
				"x": -2.8197984591,
				"y": -4.1981995863,
				"z": -2.0028790424,
				"element": "H" 
			},
			{
				"x": -1.1632731389,
				"y": -4.2736554382,
				"z": -2.6215930014,
				"element": "H" 
			},
			{
				"x": -2.267148139,
				"y": -3.0120289069,
				"z": -3.1913760158,
				"element": "H" 
			},
			{
				"x": -0.5838406824,
				"y": -1.1868499015,
				"z": -2.4360734061,
				"element": "H" 
			},
			{
				"x": 0.9055042333,
				"y": -1.3426646988,
				"z": 2.5930320421,
				"element": "H" 
			},
			{
				"x": -1.4747181493,
				"y": -1.241112162,
				"z": 3.1850651785,
				"element": "H" 
			},
			{
				"x": -3.3128493247,
				"y": 0.2532080818,
				"z": 3.9381473844,
				"element": "H" 
			},
			{
				"x": -3.2141616855,
				"y": 2.697516432,
				"z": 3.4365208836,
				"element": "H" 
			},
			{
				"x": -0.0779386465,
				"y": 6.1125806769,
				"z": 2.5690625127,
				"element": "H" 
			},
			{
				"x": 1.0988381996,
				"y": 7.4226144572,
				"z": 0.7981503137,
				"element": "H" 
			},
			{
				"x": 1.192072868,
				"y": 6.5499692242,
				"z": -1.5314727511,
				"element": "H" 
			},
			{
				"x": 0.1004074944,
				"y": 4.3825586498,
				"z": -2.0767009605,
				"element": "H" 
			},
			{
				"x": -1.0729460183,
				"y": 3.0950917338,
				"z": -0.3209999622,
				"element": "H" 
			},
			{
				"x": 0.5620377254,
				"y": 2.1423688396,
				"z": 1.4719201503,
				"element": "H" 
			},
			{
				"x": 0.9808907746,
				"y": -1.7670652501,
				"z": -4.0028427661,
				"element": "H" 
			},
			{
				"x": 2.9182269723,
				"y": -3.1022834308,
				"z": -4.774768149,
				"element": "H" 
			},
			{
				"x": 3.0948167987,
				"y": -5.0490701355,
				"z": -0.9479485853,
				"element": "H" 
			},
			{
				"x": 1.1670280353,
				"y": -3.7080481497,
				"z": -0.1730676406,
				"element": "H" 
			}
		],
		 "valence_orbital": [ 
			{
				"type": "occ",
				"energy": -0.26505,
				"method": "rhf"
			},
			{
				"type": "occ",
				"energy": -0.25735,
				"method": "rhf"
			},
			{
				"type": "occ",
				"energy": -0.25188,
				"method": "rhf"
			},
			{
				"type": "occ",
				"energy": -0.24427,
				"method": "rhf"
			},
			{
				"type": "occ",
				"energy": -0.22249,
				"method": "rhf"
			},
			{
				"type": "unocc",
				"energy": -0.03561,
				"method": "rhf"
			},
			{
				"type": "unocc",
				"energy": -0.02817,
				"method": "rhf"
			},
			{
				"type": "unocc",
				"energy": -0.01882,
				"method": "rhf"
			},
			{
				"type": "unocc",
				"energy": -0.0165,
				"method": "rhf"
			},
			{
				"type": "unocc",
				"energy": -0.00217,
				"method": "rhf"
			}
		],
		"cosmo_sigma_profile": { 
			"-0.025": 0.0,
			"-0.024": 0.0,
			"-0.023": 0.0,
			"-0.022": 0.0,
			"-0.021": 0.0,
			"-0.02": 0.0,
			"-0.019": 0.0,
			"-0.018": 0.0,
			"-0.017": 0.0,
			"-0.016": 0.0,
			"-0.015": 0.0,
			"-0.014": 0.0,
			"-0.013": 0.0,
			"-0.012": 0.138697587377,
			"-0.011": 2.82096236106,
			"-0.01": 2.36313823809,
			"-0.009": 2.19684084222,
			"-0.008": 2.47114375805,
			"-0.007": 10.8216590432,
			"-0.006": 22.2820785688,
			"-0.005": 27.8122565922,
			"-0.004": 28.7649252915,
			"-0.003": 36.0069851002,
			"-0.002": 35.1376988144,
			"-0.001": 38.59742123,
			"0.0": 45.7780277604,
			"0.001": 46.9007767345,
			"0.002": 38.9221378243,
			"0.003": 42.0877940577,
			"0.004": 33.5594439857,
			"0.005": 20.6775867207,
			"0.006": 7.42438228317,
			"0.007": 6.60458761946,
			"0.008": 5.66181115398,
			"0.009": 4.95569097509,
			"0.01": 4.21640566673,
			"0.011": 3.34598223228,
			"0.012": 2.00442620416,
			"0.013": 0.148133392884,
			"0.014": 0.0,
			"0.015": 0.0,
			"0.016": 0.0,
			"0.017": 0.0,
			"0.018": 0.0,
			"0.019": 0.0,
			"0.02": 0.0,
			"0.021": 0.0,
			"0.022": 0.0,
			"0.023": 0.0,
			"0.024": 0.0,
			"0.025": 0.0
		}
	}
}
