{
	 "smiles": "COC1=C(OCC2=CC=C(Br)C=C2)C=CC(C=O)=C1", 
	 "Tm": 348.15, 
	 "num_atms": 32, 
	 "gaussian": { 
		 "optdone": 1, 
		 "sigma_profile": "yes", 
		 "theory": "DFT", 
		 "functional": "B3LYP", 
		 "basiset": "6-31G**", 
		 "properties": { 
			 "R2extent": 14000.5716, 
			 "electric_dipole_moment_norm": 1.17871322212, 
			 "electric_quadrupole_moment_norm": 33.8172477127, 
			 "total_energy": -3376.47368431, 
			 "HOMO_LUMO_gap": 0.17145, 
			 "cosmo_polarized_energy": -12.39, 
			 "cosmo_cavitation_energy": 39.58, 
			 "cosmo_dispersion_energy": -28.35, 
			 "cosmo_repulsion_energy": 2.19, 
			 "cosmo_total_nonelectrostatic_energy": 13.42, 
			 "SMD_solvation_energy": 7.42 
		},
		"coords": [
			{
				"x": 2.4148913284,
				"y": -0.562312585,
				"z": -1.3392846999,
				"element": "C" 
			},
			{
				"x": 1.2660411303,
				"y": -0.074887426,
				"z": -0.6556291611,
				"element": "O" 
			},
			{
				"x": 1.4390168039,
				"y": 0.4490922679,
				"z": 0.5907429802,
				"element": "C" 
			},
			{
				"x": 0.2742777176,
				"y": 0.970157895,
				"z": 1.2156288695,
				"element": "C" 
			},
			{
				"x": -0.9395005662,
				"y": 0.9812174607,
				"z": 0.5846753345,
				"element": "O" 
			},
			{
				"x": -1.5267431068,
				"y": -0.2885326877,
				"z": 0.2591508543,
				"element": "C" 
			},
			{
				"x": -2.9415871756,
				"y": -0.071593503,
				"z": -0.2220658032,
				"element": "C" 
			},
			{
				"x": -3.5473821132,
				"y": -1.0383032477,
				"z": -1.0331143659,
				"element": "C" 
			},
			{
				"x": -4.869440329,
				"y": -0.8990956494,
				"z": -1.4539807355,
				"element": "C" 
			},
			{
				"x": -5.5872513665,
				"y": 0.2303542886,
				"z": -1.0649055578,
				"element": "C" 
			},
			{
				"x": -7.398287176,
				"y": 0.4391172675,
				"z": -1.6440118839,
				"element": "Br" 
			},
			{
				"x": -5.0036320863,
				"y": 1.2116583896,
				"z": -0.2665902951,
				"element": "C" 
			},
			{
				"x": -3.6828623838,
				"y": 1.0530024449,
				"z": 0.1544717433,
				"element": "C" 
			},
			{
				"x": 0.3660737297,
				"y": 1.5601313668,
				"z": 2.475071453,
				"element": "C" 
			},
			{
				"x": 1.5911749467,
				"y": 1.6375012725,
				"z": 3.1362940392,
				"element": "C" 
			},
			{
				"x": 2.7343461068,
				"y": 1.1083474636,
				"z": 2.5331874427,
				"element": "C" 
			},
			{
				"x": 4.0375395222,
				"y": 1.1736936411,
				"z": 3.2244729973,
				"element": "C" 
			},
			{
				"x": 5.0830052084,
				"y": 0.7392246706,
				"z": 2.7754656707,
				"element": "O" 
			},
			{
				"x": 2.6553100405,
				"y": 0.5154590523,
				"z": 1.2610599317,
				"element": "C" 
			},
			{
				"x": 2.0598548914,
				"y": -0.9071020074,
				"z": -2.3111105513,
				"element": "H" 
			},
			{
				"x": 3.1590807014,
				"y": 0.2299052711,
				"z": -1.4834308777,
				"element": "H" 
			},
			{
				"x": 2.8784717102,
				"y": -1.3988617568,
				"z": -0.8023172014,
				"element": "H" 
			},
			{
				"x": -1.5239859014,
				"y": -0.9195960287,
				"z": 1.1609770745,
				"element": "H" 
			},
			{
				"x": -0.9335445876,
				"y": -0.7961300838,
				"z": -0.5070684479,
				"element": "H" 
			},
			{
				"x": -2.9827171576,
				"y": -1.913288434,
				"z": -1.3461755773,
				"element": "H" 
			},
			{
				"x": -5.3320507329,
				"y": -1.6515076828,
				"z": -2.0824272283,
				"element": "H" 
			},
			{
				"x": -5.5722787927,
				"y": 2.088257688,
				"z": 0.0225842179,
				"element": "H" 
			},
			{
				"x": -3.2172088079,
				"y": 1.8147190401,
				"z": 0.7694104057,
				"element": "H" 
			},
			{
				"x": -0.5426007347,
				"y": 1.9576915139,
				"z": 2.9149929682,
				"element": "H" 
			},
			{
				"x": 1.657338057,
				"y": 2.0982027325,
				"z": 4.1183189823,
				"element": "H" 
			},
			{
				"x": 4.0060247399,
				"y": 1.6644966466,
				"z": 4.2226417128,
				"element": "H" 
			},
			{
				"x": 3.571626384,
				"y": 0.1313807189,
				"z": 0.8289657088,
				"element": "H" 
			}
		],
		 "valence_orbital": [ 
			{
				"type": "occ",
				"energy": -0.26432,
				"method": "rhf"
			},
			{
				"type": "occ",
				"energy": -0.25712,
				"method": "rhf"
			},
			{
				"type": "occ",
				"energy": -0.25515,
				"method": "rhf"
			},
			{
				"type": "occ",
				"energy": -0.23894,
				"method": "rhf"
			},
			{
				"type": "occ",
				"energy": -0.23343,
				"method": "rhf"
			},
			{
				"type": "unocc",
				"energy": -0.06198,
				"method": "rhf"
			},
			{
				"type": "unocc",
				"energy": -0.01672,
				"method": "rhf"
			},
			{
				"type": "unocc",
				"energy": -0.01483,
				"method": "rhf"
			},
			{
				"type": "unocc",
				"energy": -0.00754,
				"method": "rhf"
			},
			{
				"type": "unocc",
				"energy": 0.00801,
				"method": "rhf"
			}
		],
		"cosmo_sigma_profile": { 
			"-0.025": 0.0,
			"-0.024": 0.0,
			"-0.023": 0.0,
			"-0.022": 0.0,
			"-0.021": 0.0,
			"-0.02": 0.0,
			"-0.019": 0.0,
			"-0.018": 0.0,
			"-0.017": 0.0,
			"-0.016": 0.0,
			"-0.015": 0.0,
			"-0.014": 0.0,
			"-0.013": 0.0,
			"-0.012": 0.0,
			"-0.011": 0.0,
			"-0.01": 0.0,
			"-0.009": 0.0,
			"-0.008": 0.567969935918,
			"-0.007": 10.6042082174,
			"-0.006": 23.8314780497,
			"-0.005": 28.6275559172,
			"-0.004": 25.2619154523,
			"-0.003": 22.488878201,
			"-0.002": 18.4069093819,
			"-0.001": 18.2006633333,
			"0.0": 20.3014295908,
			"0.001": 24.1043739753,
			"0.002": 31.5301215041,
			"0.003": 30.121150744,
			"0.004": 28.0424152353,
			"0.005": 11.9673042294,
			"0.006": 3.32431373138,
			"0.007": 3.62957768498,
			"0.008": 3.80623244256,
			"0.009": 4.06889268744,
			"0.01": 2.72315443996,
			"0.011": 3.6552251506,
			"0.012": 3.65515220533,
			"0.013": 1.08621689519,
			"0.014": 0.0293889741514,
			"0.015": 0.0,
			"0.016": 0.0,
			"0.017": 0.0,
			"0.018": 0.0,
			"0.019": 0.0,
			"0.02": 0.0,
			"0.021": 0.0,
			"0.022": 0.0,
			"0.023": 0.0,
			"0.024": 0.0,
			"0.025": 0.0
		}
	}
}
