{
	 "smiles": "[O-][N+](=O)C1=C(OC2=CC=C(C=C2)S(Cl)(=O)=O)C(Cl)=CC=C1", 
	 "Tm": 349.15, 
	 "num_atms": 28, 
	 "gaussian": { 
		 "optdone": 1, 
		 "sigma_profile": "yes", 
		 "theory": "DFT", 
		 "functional": "B3LYP", 
		 "basiset": "6-31G**", 
		 "properties": { 
			 "R2extent": 11297.9166, 
			 "electric_dipole_moment_norm": 8.23737082812, 
			 "electric_quadrupole_moment_norm": 23.7113998014, 
			 "total_energy": -2210.74428345, 
			 "HOMO_LUMO_gap": 0.15965, 
			 "cosmo_polarized_energy": -16.29, 
			 "cosmo_cavitation_energy": 39.61, 
			 "cosmo_dispersion_energy": -28.1, 
			 "cosmo_repulsion_energy": 2.12, 
			 "cosmo_total_nonelectrostatic_energy": 13.63, 
			 "SMD_solvation_energy": 7.44 
		},
		"coords": [
			{
				"x": -1.4881232327,
				"y": 3.0514931137,
				"z": -0.9518415697,
				"element": "O" 
			},
			{
				"x": -0.8033787071,
				"y": 2.0588630679,
				"z": -0.7137610317,
				"element": "N" 
			},
			{
				"x": 0.3480391053,
				"y": 2.076061507,
				"z": -0.2886352903,
				"element": "O" 
			},
			{
				"x": -1.4397190251,
				"y": 0.7475643016,
				"z": -0.9306775086,
				"element": "C" 
			},
			{
				"x": -0.6758549819,
				"y": -0.3848796973,
				"z": -1.2613739891,
				"element": "C" 
			},
			{
				"x": 0.6582793907,
				"y": -0.2959215698,
				"z": -1.5503597428,
				"element": "O" 
			},
			{
				"x": 1.6145588712,
				"y": -0.6109844909,
				"z": -0.6115451148,
				"element": "C" 
			},
			{
				"x": 2.934307459,
				"y": -0.5740286928,
				"z": -1.0738249618,
				"element": "C" 
			},
			{
				"x": 3.9721718334,
				"y": -0.8818734661,
				"z": -0.2052735728,
				"element": "C" 
			},
			{
				"x": 3.6681501252,
				"y": -1.2203494114,
				"z": 1.1168422264,
				"element": "C" 
			},
			{
				"x": 2.354075995,
				"y": -1.2548529572,
				"z": 1.5844971136,
				"element": "C" 
			},
			{
				"x": 1.315929243,
				"y": -0.9434361147,
				"z": 0.711976399,
				"element": "C" 
			},
			{
				"x": 4.9925690207,
				"y": -1.6087559341,
				"z": 2.2375563281,
				"element": "S" 
			},
			{
				"x": 5.195615306,
				"y": -3.7208296585,
				"z": 1.949712303,
				"element": "Cl" 
			},
			{
				"x": 6.232727708,
				"y": -1.0200702197,
				"z": 1.7477219878,
				"element": "O" 
			},
			{
				"x": 4.53408134,
				"y": -1.4372762939,
				"z": 3.6106742423,
				"element": "O" 
			},
			{
				"x": -1.3564480083,
				"y": -1.5999720242,
				"z": -1.4464035186,
				"element": "C" 
			},
			{
				"x": -0.4596339199,
				"y": -3.0210384577,
				"z": -1.90893673,
				"element": "Cl" 
			},
			{
				"x": -2.7400563962,
				"y": -1.6806129456,
				"z": -1.2853520564,
				"element": "C" 
			},
			{
				"x": -3.4714850843,
				"y": -0.5395752486,
				"z": -0.9578665079,
				"element": "C" 
			},
			{
				"x": -2.8249396192,
				"y": 0.6810172176,
				"z": -0.7933261004,
				"element": "C" 
			},
			{
				"x": 3.123989769,
				"y": -0.3000765464,
				"z": -2.1053655261,
				"element": "H" 
			},
			{
				"x": 5.0032114204,
				"y": -0.8523719888,
				"z": -0.5386707154,
				"element": "H" 
			},
			{
				"x": 2.1499302415,
				"y": -1.5080945034,
				"z": 2.6185996529,
				"element": "H" 
			},
			{
				"x": 0.2904120827,
				"y": -0.9503527783,
				"z": 1.0617866127,
				"element": "H" 
			},
			{
				"x": -3.2325864133,
				"y": -2.635504583,
				"z": -1.4308343362,
				"element": "H" 
			},
			{
				"x": -4.5477255567,
				"y": -0.6036708957,
				"z": -0.8394946516,
				"element": "H" 
			},
			{
				"x": -3.3659979663,
				"y": 1.5893292701,
				"z": -0.5594239417,
				"element": "H" 
			}
		],
		 "valence_orbital": [ 
			{
				"type": "occ",
				"energy": -0.30935,
				"method": "rhf"
			},
			{
				"type": "occ",
				"energy": -0.29959,
				"method": "rhf"
			},
			{
				"type": "occ",
				"energy": -0.29118,
				"method": "rhf"
			},
			{
				"type": "occ",
				"energy": -0.28652,
				"method": "rhf"
			},
			{
				"type": "occ",
				"energy": -0.26861,
				"method": "rhf"
			},
			{
				"type": "unocc",
				"energy": -0.10896,
				"method": "rhf"
			},
			{
				"type": "unocc",
				"energy": -0.08637,
				"method": "rhf"
			},
			{
				"type": "unocc",
				"energy": -0.05733,
				"method": "rhf"
			},
			{
				"type": "unocc",
				"energy": -0.04215,
				"method": "rhf"
			},
			{
				"type": "unocc",
				"energy": -0.03665,
				"method": "rhf"
			}
		],
		"cosmo_sigma_profile": { 
			"-0.025": 0.0,
			"-0.024": 0.0,
			"-0.023": 0.0,
			"-0.022": 0.0,
			"-0.021": 0.0,
			"-0.02": 0.0,
			"-0.019": 0.0,
			"-0.018": 0.0,
			"-0.017": 0.0,
			"-0.016": 0.0,
			"-0.015": 0.0,
			"-0.014": 0.0,
			"-0.013": 0.0,
			"-0.012": 0.0,
			"-0.011": 0.0,
			"-0.01": 0.0660555399989,
			"-0.009": 6.09251832399,
			"-0.008": 14.7777777555,
			"-0.007": 16.365447554,
			"-0.006": 15.2473590987,
			"-0.005": 14.2270068434,
			"-0.004": 12.8256222362,
			"-0.003": 16.687832342,
			"-0.002": 22.788927981,
			"-0.001": 25.1700658302,
			"0.0": 28.6753304409,
			"0.001": 29.0388534747,
			"0.002": 21.6224490633,
			"0.003": 25.5732129573,
			"0.004": 20.545634887,
			"0.005": 8.29009687345,
			"0.006": 9.85005000437,
			"0.007": 13.2850538646,
			"0.008": 14.7146821966,
			"0.009": 8.12249232626,
			"0.01": 0.607649454757,
			"0.011": 0.0,
			"0.012": 0.0,
			"0.013": 0.0,
			"0.014": 0.0,
			"0.015": 0.0,
			"0.016": 0.0,
			"0.017": 0.0,
			"0.018": 0.0,
			"0.019": 0.0,
			"0.02": 0.0,
			"0.021": 0.0,
			"0.022": 0.0,
			"0.023": 0.0,
			"0.024": 0.0,
			"0.025": 0.0
		}
	}
}
