{
	 "smiles": "CC1=CSC=C1S(=O)(=O)C1=CC=C(Cl)C=C1", 
	 "Tm": 377.15, 
	 "num_atms": 25, 
	 "gaussian": { 
		 "optdone": 1, 
		 "sigma_profile": "yes", 
		 "theory": "DFT", 
		 "functional": "B3LYP", 
		 "basiset": "6-31G**", 
		 "properties": { 
			 "R2extent": 5916.8357, 
			 "electric_dipole_moment_norm": 4.10627302794, 
			 "electric_quadrupole_moment_norm": 12.5052115516, 
			 "total_energy": -1831.52951987, 
			 "HOMO_LUMO_gap": 0.19638, 
			 "cosmo_polarized_energy": -12.77, 
			 "cosmo_cavitation_energy": 33.76, 
			 "cosmo_dispersion_energy": -25.0, 
			 "cosmo_repulsion_energy": 1.85, 
			 "cosmo_total_nonelectrostatic_energy": 10.61, 
			 "SMD_solvation_energy": 4.94 
		},
		"coords": [
			{
				"x": -2.3809703087,
				"y": -2.338533643,
				"z": -1.5631570052,
				"element": "C" 
			},
			{
				"x": -2.3522592103,
				"y": -0.8797603673,
				"z": -1.9284996228,
				"element": "C" 
			},
			{
				"x": -2.8477790954,
				"y": -0.3713684835,
				"z": -3.0988950777,
				"element": "C" 
			},
			{
				"x": -2.684617706,
				"y": 1.3543694075,
				"z": -3.2152127167,
				"element": "S" 
			},
			{
				"x": -1.9268458352,
				"y": 1.4319782502,
				"z": -1.6704065107,
				"element": "C" 
			},
			{
				"x": -1.8175436946,
				"y": 0.1848598,
				"z": -1.1143334466,
				"element": "C" 
			},
			{
				"x": -1.1099795722,
				"y": 0.0123027169,
				"z": 0.5175685808,
				"element": "S" 
			},
			{
				"x": -0.8621866225,
				"y": 1.3740038194,
				"z": 1.0161181009,
				"element": "O" 
			},
			{
				"x": -1.9242353362,
				"y": -0.9475947778,
				"z": 1.2803942096,
				"element": "O" 
			},
			{
				"x": 0.495417699,
				"y": -0.7583228096,
				"z": 0.2424248219,
				"element": "C" 
			},
			{
				"x": 1.5488738173,
				"y": 0.0086923653,
				"z": -0.2612494584,
				"element": "C" 
			},
			{
				"x": 2.7959183885,
				"y": -0.5802943447,
				"z": -0.4525765813,
				"element": "C" 
			},
			{
				"x": 2.9692273318,
				"y": -1.9281917203,
				"z": -0.1266981272,
				"element": "C" 
			},
			{
				"x": 4.5385237332,
				"y": -2.6706638046,
				"z": -0.3674223724,
				"element": "Cl" 
			},
			{
				"x": 1.9243872052,
				"y": -2.6934032929,
				"z": 0.3921886194,
				"element": "C" 
			},
			{
				"x": 0.6754708463,
				"y": -2.1002729807,
				"z": 0.5783342619,
				"element": "C" 
			},
			{
				"x": -2.903743562,
				"y": -2.9152183496,
				"z": -2.329866987,
				"element": "H" 
			},
			{
				"x": -2.8817028885,
				"y": -2.4897596054,
				"z": -0.6031839041,
				"element": "H" 
			},
			{
				"x": -1.3677864511,
				"y": -2.7453215366,
				"z": -1.4695309947,
				"element": "H" 
			},
			{
				"x": -3.3139873015,
				"y": -0.9223655292,
				"z": -3.9045635962,
				"element": "H" 
			},
			{
				"x": -1.618037819,
				"y": 2.3686470869,
				"z": -1.2295387115,
				"element": "H" 
			},
			{
				"x": 1.3990901114,
				"y": 1.0588980102,
				"z": -0.4877688917,
				"element": "H" 
			},
			{
				"x": 3.6277345796,
				"y": -0.004107488,
				"z": -0.8415946145,
				"element": "H" 
			},
			{
				"x": 2.0880349791,
				"y": -3.7333525373,
				"z": 0.6511878408,
				"element": "H" 
			},
			{
				"x": -0.1512032879,
				"y": -2.6624201858,
				"z": 0.9984821835,
				"element": "H" 
			}
		],
		 "valence_orbital": [ 
			{
				"type": "occ",
				"energy": -0.29571,
				"method": "rhf"
			},
			{
				"type": "occ",
				"energy": -0.28523,
				"method": "rhf"
			},
			{
				"type": "occ",
				"energy": -0.27967,
				"method": "rhf"
			},
			{
				"type": "occ",
				"energy": -0.26164,
				"method": "rhf"
			},
			{
				"type": "occ",
				"energy": -0.25306,
				"method": "rhf"
			},
			{
				"type": "unocc",
				"energy": -0.05668,
				"method": "rhf"
			},
			{
				"type": "unocc",
				"energy": -0.03579,
				"method": "rhf"
			},
			{
				"type": "unocc",
				"energy": -0.02864,
				"method": "rhf"
			},
			{
				"type": "unocc",
				"energy": 0.01164,
				"method": "rhf"
			},
			{
				"type": "unocc",
				"energy": 0.01487,
				"method": "rhf"
			}
		],
		"cosmo_sigma_profile": { 
			"-0.025": 0.0,
			"-0.024": 0.0,
			"-0.023": 0.0,
			"-0.022": 0.0,
			"-0.021": 0.0,
			"-0.02": 0.0,
			"-0.019": 0.0,
			"-0.018": 0.0,
			"-0.017": 0.0,
			"-0.016": 0.0,
			"-0.015": 0.0,
			"-0.014": 0.0,
			"-0.013": 0.0,
			"-0.012": 0.0,
			"-0.011": 0.0,
			"-0.01": 0.533417402515,
			"-0.009": 3.30153940039,
			"-0.008": 9.82110805408,
			"-0.007": 10.3152358833,
			"-0.006": 11.0210324887,
			"-0.005": 11.8358387615,
			"-0.004": 15.0047037028,
			"-0.003": 17.1420161546,
			"-0.002": 18.0092717763,
			"-0.001": 25.0457821182,
			"0.0": 29.990312508,
			"0.001": 35.2777178422,
			"0.002": 25.2835809283,
			"0.003": 18.2064082855,
			"0.004": 12.7346127047,
			"0.005": 3.94048984285,
			"0.006": 2.19334325117,
			"0.007": 2.84208032565,
			"0.008": 3.25031740502,
			"0.009": 2.9768550835,
			"0.01": 6.17148591741,
			"0.011": 6.78873850724,
			"0.012": 4.16181468207,
			"0.013": 0.0,
			"0.014": 0.0,
			"0.015": 0.0,
			"0.016": 0.0,
			"0.017": 0.0,
			"0.018": 0.0,
			"0.019": 0.0,
			"0.02": 0.0,
			"0.021": 0.0,
			"0.022": 0.0,
			"0.023": 0.0,
			"0.024": 0.0,
			"0.025": 0.0
		}
	}
}
