{
	 "smiles": "NS(=O)(=O)C1=CC(=CC=C1)N1C=NN=N1", 
	 "Tm": 455.15, 
	 "num_atms": 22, 
	 "gaussian": { 
		 "optdone": 1, 
		 "sigma_profile": "yes", 
		 "theory": "DFT", 
		 "functional": "B3LYP", 
		 "basiset": "6-31G**", 
		 "properties": { 
			 "R2extent": 4264.9889, 
			 "electric_dipole_moment_norm": 4.87751558173, 
			 "electric_quadrupole_moment_norm": 27.1116982395, 
			 "total_energy": -1093.22190725, 
			 "HOMO_LUMO_gap": 0.20683, 
			 "cosmo_polarized_energy": -23.75, 
			 "cosmo_cavitation_energy": 29.06, 
			 "cosmo_dispersion_energy": -21.73, 
			 "cosmo_repulsion_energy": 1.63, 
			 "cosmo_total_nonelectrostatic_energy": 8.96, 
			 "SMD_solvation_energy": 3.33 
		},
		"coords": [
			{
				"x": -1.3217981291,
				"y": -2.905513249,
				"z": -1.2312922501,
				"element": "N" 
			},
			{
				"x": 0.0074616174,
				"y": -1.9131314187,
				"z": -1.5565378752,
				"element": "S" 
			},
			{
				"x": 1.0328453001,
				"y": -2.1851579131,
				"z": -0.5448671501,
				"element": "O" 
			},
			{
				"x": 0.2671114753,
				"y": -2.0147124814,
				"z": -2.9938349376,
				"element": "O" 
			},
			{
				"x": -0.6240548216,
				"y": -0.2614980488,
				"z": -1.2354579113,
				"element": "C" 
			},
			{
				"x": -0.3538485093,
				"y": 0.3240430084,
				"z": -0.0010989546,
				"element": "C" 
			},
			{
				"x": -0.8364869682,
				"y": 1.6112296312,
				"z": 0.2422621511,
				"element": "C" 
			},
			{
				"x": -1.5881402783,
				"y": 2.2912579121,
				"z": -0.7211975072,
				"element": "C" 
			},
			{
				"x": -1.8472027937,
				"y": 1.6773315484,
				"z": -1.9455607651,
				"element": "C" 
			},
			{
				"x": -1.3598828946,
				"y": 0.3990453325,
				"z": -2.2191760683,
				"element": "C" 
			},
			{
				"x": -0.5571348774,
				"y": 2.2452850747,
				"z": 1.4830277659,
				"element": "N" 
			},
			{
				"x": 0.4613400128,
				"y": 2.0718548126,
				"z": 2.359986609,
				"element": "C" 
			},
			{
				"x": 0.3026624233,
				"y": 2.8968952977,
				"z": 3.3706961127,
				"element": "N" 
			},
			{
				"x": -0.8404920685,
				"y": 3.5913387181,
				"z": 3.1038064237,
				"element": "N" 
			},
			{
				"x": -1.3651565755,
				"y": 3.2197162131,
				"z": 1.9861811765,
				"element": "N" 
			},
			{
				"x": -1.52321529,
				"y": -3.47604654,
				"z": -2.0483197221,
				"element": "H" 
			},
			{
				"x": -1.1381356026,
				"y": -3.4767526556,
				"z": -0.4106672413,
				"element": "H" 
			},
			{
				"x": 0.2197266987,
				"y": -0.2228066659,
				"z": 0.7380630098,
				"element": "H" 
			},
			{
				"x": -1.9537966287,
				"y": 3.2872658062,
				"z": -0.5025111588,
				"element": "H" 
			},
			{
				"x": -2.4220858144,
				"y": 2.2084632418,
				"z": -2.6971960266,
				"element": "H" 
			},
			{
				"x": -1.5321241462,
				"y": -0.0743870995,
				"z": -3.1790990443,
				"element": "H" 
			},
			{
				"x": 1.2769078704,
				"y": 1.3791794752,
				"z": 2.2227933638,
				"element": "H" 
			}
		],
		 "valence_orbital": [ 
			{
				"type": "occ",
				"energy": -0.31561,
				"method": "rhf"
			},
			{
				"type": "occ",
				"energy": -0.30843,
				"method": "rhf"
			},
			{
				"type": "occ",
				"energy": -0.29606,
				"method": "rhf"
			},
			{
				"type": "occ",
				"energy": -0.29119,
				"method": "rhf"
			},
			{
				"type": "occ",
				"energy": -0.27569,
				"method": "rhf"
			},
			{
				"type": "unocc",
				"energy": -0.06886,
				"method": "rhf"
			},
			{
				"type": "unocc",
				"energy": -0.05698,
				"method": "rhf"
			},
			{
				"type": "unocc",
				"energy": -0.00966,
				"method": "rhf"
			},
			{
				"type": "unocc",
				"energy": 0.01155,
				"method": "rhf"
			},
			{
				"type": "unocc",
				"energy": 0.03452,
				"method": "rhf"
			}
		],
		"cosmo_sigma_profile": { 
			"-0.025": 0.0,
			"-0.024": 0.0,
			"-0.023": 0.0,
			"-0.022": 0.0,
			"-0.021": 0.0,
			"-0.02": 0.0,
			"-0.019": 0.0,
			"-0.018": 0.0,
			"-0.017": 0.0,
			"-0.016": 0.0291869569617,
			"-0.015": 1.75343371494,
			"-0.014": 2.70141896792,
			"-0.013": 5.27505213688,
			"-0.012": 4.81097450361,
			"-0.011": 4.50679165531,
			"-0.01": 4.04626773116,
			"-0.009": 3.5280596813,
			"-0.008": 8.05800894301,
			"-0.007": 11.5681443626,
			"-0.006": 12.0968376961,
			"-0.005": 11.3429537725,
			"-0.004": 11.9371029578,
			"-0.003": 9.34832108425,
			"-0.002": 10.4261570744,
			"-0.001": 12.0175730992,
			"0.0": 16.55226109,
			"0.001": 15.0261542747,
			"0.002": 7.87571103746,
			"0.003": 5.48906633165,
			"0.004": 5.94231250747,
			"0.005": 5.57108058138,
			"0.006": 7.20642676693,
			"0.007": 8.06357586199,
			"0.008": 8.7183539836,
			"0.009": 8.46860922178,
			"0.01": 13.8223961573,
			"0.011": 11.3404985078,
			"0.012": 2.80974866691,
			"0.013": 2.78289857916,
			"0.014": 0.937645600077,
			"0.015": 0.207112750918,
			"0.016": 0.0,
			"0.017": 0.0,
			"0.018": 0.0,
			"0.019": 0.0,
			"0.02": 0.0,
			"0.021": 0.0,
			"0.022": 0.0,
			"0.023": 0.0,
			"0.024": 0.0,
			"0.025": 0.0
		}
	}
}
