{
	 "smiles": "NC(=S)NC1=CC=C(OC2=CC=CC=C2)C=C1", 
	 "Tm": 449.15, 
	 "num_atms": 29, 
	 "gaussian": { 
		 "optdone": 1, 
		 "sigma_profile": "yes", 
		 "theory": "DFT", 
		 "functional": "B3LYP", 
		 "basiset": "6-31G**", 
		 "properties": { 
			 "R2extent": 7317.6387, 
			 "electric_dipole_moment_norm": 4.76592405521, 
			 "electric_quadrupole_moment_norm": 33.9303204238, 
			 "total_energy": -1085.53195463, 
			 "HOMO_LUMO_gap": 0.17871, 
			 "cosmo_polarized_energy": -21.77, 
			 "cosmo_cavitation_energy": 35.33, 
			 "cosmo_dispersion_energy": -26.13, 
			 "cosmo_repulsion_energy": 2.0, 
			 "cosmo_total_nonelectrostatic_energy": 11.2, 
			 "SMD_solvation_energy": 5.34 
		},
		"coords": [
			{
				"x": 2.2575192814,
				"y": 4.6619431029,
				"z": 1.0462779883,
				"element": "N" 
			},
			{
				"x": 2.1537558618,
				"y": 3.3116678912,
				"z": 1.2909173823,
				"element": "C" 
			},
			{
				"x": 3.2183259106,
				"y": 2.5459054139,
				"z": 2.3321293133,
				"element": "S" 
			},
			{
				"x": 1.0883834546,
				"y": 2.7503040497,
				"z": 0.6381115382,
				"element": "N" 
			},
			{
				"x": 0.6219090256,
				"y": 1.4129956242,
				"z": 0.599496466,
				"element": "C" 
			},
			{
				"x": 1.4618076695,
				"y": 0.2945860282,
				"z": 0.6848180477,
				"element": "C" 
			},
			{
				"x": 0.9277895917,
				"y": -0.9884100355,
				"z": 0.5882274342,
				"element": "C" 
			},
			{
				"x": -0.4426278603,
				"y": -1.16904179,
				"z": 0.3805795718,
				"element": "C" 
			},
			{
				"x": -1.0430949789,
				"y": -2.4114280392,
				"z": 0.3488373847,
				"element": "O" 
			},
			{
				"x": -0.4337182624,
				"y": -3.4784372028,
				"z": -0.2839786416,
				"element": "C" 
			},
			{
				"x": 0.2754540756,
				"y": -3.3444905153,
				"z": -1.4815897968,
				"element": "C" 
			},
			{
				"x": 0.7984707345,
				"y": -4.4842001229,
				"z": -2.0940282242,
				"element": "C" 
			},
			{
				"x": 0.6114130315,
				"y": -5.7471193766,
				"z": -1.5284434588,
				"element": "C" 
			},
			{
				"x": -0.1073165165,
				"y": -5.867211824,
				"z": -0.3368282824,
				"element": "C" 
			},
			{
				"x": -0.62855073,
				"y": -4.736418621,
				"z": 0.290837954,
				"element": "C" 
			},
			{
				"x": -1.2835170618,
				"y": -0.0596541423,
				"z": 0.2811160509,
				"element": "C" 
			},
			{
				"x": -0.7522945539,
				"y": 1.2206581172,
				"z": 0.3986243251,
				"element": "C" 
			},
			{
				"x": 1.9397746965,
				"y": 5.0297681499,
				"z": 0.1585392175,
				"element": "H" 
			},
			{
				"x": 3.0920934141,
				"y": 5.0885145311,
				"z": 1.4201132125,
				"element": "H" 
			},
			{
				"x": 0.4221869457,
				"y": 3.415904514,
				"z": 0.2669928736,
				"element": "H" 
			},
			{
				"x": 2.5220248434,
				"y": 0.4289853608,
				"z": 0.8477171624,
				"element": "H" 
			},
			{
				"x": 1.5811476799,
				"y": -1.8499408025,
				"z": 0.671070282,
				"element": "H" 
			},
			{
				"x": 0.4117803603,
				"y": -2.3643086719,
				"z": -1.925310057,
				"element": "H" 
			},
			{
				"x": 1.3497086854,
				"y": -4.380879872,
				"z": -3.0244086621,
				"element": "H" 
			},
			{
				"x": 1.0204398029,
				"y": -6.6287153361,
				"z": -2.0122546672,
				"element": "H" 
			},
			{
				"x": -0.2599446082,
				"y": -6.8445410907,
				"z": 0.1119238658,
				"element": "H" 
			},
			{
				"x": -1.1876108665,
				"y": -4.8072367339,
				"z": 1.2179887562,
				"element": "H" 
			},
			{
				"x": -2.3459867651,
				"y": -0.2132658552,
				"z": 0.1263415974,
				"element": "H" 
			},
			{
				"x": -1.4147228615,
				"y": 2.080967249,
				"z": 0.3341813657,
				"element": "H" 
			}
		],
		 "valence_orbital": [ 
			{
				"type": "occ",
				"energy": -0.25288,
				"method": "rhf"
			},
			{
				"type": "occ",
				"energy": -0.24415,
				"method": "rhf"
			},
			{
				"type": "occ",
				"energy": -0.22651,
				"method": "rhf"
			},
			{
				"type": "occ",
				"energy": -0.20694,
				"method": "rhf"
			},
			{
				"type": "occ",
				"energy": -0.20575,
				"method": "rhf"
			},
			{
				"type": "unocc",
				"energy": -0.02704,
				"method": "rhf"
			},
			{
				"type": "unocc",
				"energy": -0.01314,
				"method": "rhf"
			},
			{
				"type": "unocc",
				"energy": -0.00015,
				"method": "rhf"
			},
			{
				"type": "unocc",
				"energy": 0.0034,
				"method": "rhf"
			},
			{
				"type": "unocc",
				"energy": 0.02453,
				"method": "rhf"
			}
		],
		"cosmo_sigma_profile": { 
			"-0.025": 0.0,
			"-0.024": 0.0,
			"-0.023": 0.0,
			"-0.022": 0.0,
			"-0.021": 0.0,
			"-0.02": 0.0,
			"-0.019": 0.0,
			"-0.018": 0.123379461992,
			"-0.017": 1.25574068734,
			"-0.016": 2.18019606026,
			"-0.015": 2.45480869291,
			"-0.014": 2.7707427663,
			"-0.013": 3.33002166841,
			"-0.012": 3.07448545801,
			"-0.011": 3.15094182312,
			"-0.01": 3.55329649456,
			"-0.009": 2.36259080939,
			"-0.008": 2.45455142532,
			"-0.007": 4.89756620844,
			"-0.006": 13.5248947586,
			"-0.005": 15.7015325708,
			"-0.004": 17.9669216243,
			"-0.003": 16.2277146437,
			"-0.002": 14.6771432511,
			"-0.001": 14.4022817402,
			"0.0": 15.1240287641,
			"0.001": 18.1192413349,
			"0.002": 19.2805736226,
			"0.003": 22.1667826296,
			"0.004": 25.314391329,
			"0.005": 17.5814100678,
			"0.006": 10.2409164345,
			"0.007": 6.51216350963,
			"0.008": 6.72210946548,
			"0.009": 6.30147297387,
			"0.01": 5.79072183048,
			"0.011": 5.37881245815,
			"0.012": 2.64900798611,
			"0.013": 0.0,
			"0.014": 0.0,
			"0.015": 0.0,
			"0.016": 0.0,
			"0.017": 0.0,
			"0.018": 0.0,
			"0.019": 0.0,
			"0.02": 0.0,
			"0.021": 0.0,
			"0.022": 0.0,
			"0.023": 0.0,
			"0.024": 0.0,
			"0.025": 0.0
		}
	}
}
