{
	 "smiles": "CCOC(=O)C1=C(C)NC(=O)NC1C1=CC=CC(OC)=C1OC", 
	 "Tm": 468.15, 
	 "num_atms": 43, 
	 "gaussian": { 
		 "optdone": 1, 
		 "sigma_profile": "yes", 
		 "theory": "DFT", 
		 "functional": "B3LYP", 
		 "basiset": "6-31G**", 
		 "properties": { 
			 "R2extent": 7252.3991, 
			 "electric_dipole_moment_norm": 2.15391286035, 
			 "electric_quadrupole_moment_norm": 14.6400039457, 
			 "total_energy": -1107.38629751, 
			 "HOMO_LUMO_gap": 0.1847, 
			 "cosmo_polarized_energy": -18.26, 
			 "cosmo_cavitation_energy": 44.6, 
			 "cosmo_dispersion_energy": -29.19, 
			 "cosmo_repulsion_energy": 2.24, 
			 "cosmo_total_nonelectrostatic_energy": 17.66, 
			 "SMD_solvation_energy": 9.7 
		},
		"coords": [
			{
				"x": 0.8875015521,
				"y": -5.0015258279,
				"z": -1.189236047,
				"element": "C" 
			},
			{
				"x": 0.9722636837,
				"y": -4.8267591656,
				"z": 0.3203967203,
				"element": "C" 
			},
			{
				"x": 0.5101068486,
				"y": -3.520391016,
				"z": 0.7250868196,
				"element": "O" 
			},
			{
				"x": 1.4229833323,
				"y": -2.5085567371,
				"z": 0.6730940941,
				"element": "C" 
			},
			{
				"x": 2.5869216623,
				"y": -2.6969731314,
				"z": 0.3469018192,
				"element": "O" 
			},
			{
				"x": 0.8264278028,
				"y": -1.2296910529,
				"z": 1.0685562582,
				"element": "C" 
			},
			{
				"x": 1.6124659688,
				"y": -0.1277554168,
				"z": 1.2420844171,
				"element": "C" 
			},
			{
				"x": 3.097375786,
				"y": -0.0548092722,
				"z": 1.0009360333,
				"element": "C" 
			},
			{
				"x": 1.0464356789,
				"y": 1.0463741478,
				"z": 1.6878949073,
				"element": "N" 
			},
			{
				"x": -0.2776472622,
				"y": 1.1984583507,
				"z": 2.101256299,
				"element": "C" 
			},
			{
				"x": -0.6971266833,
				"y": 2.2777216729,
				"z": 2.499924165,
				"element": "O" 
			},
			{
				"x": -1.0090817732,
				"y": 0.0485250031,
				"z": 2.0662799738,
				"element": "N" 
			},
			{
				"x": -0.6793465351,
				"y": -1.1595065642,
				"z": 1.2975855545,
				"element": "C" 
			},
			{
				"x": -1.519975283,
				"y": -1.2813789803,
				"z": 0.0193207927,
				"element": "C" 
			},
			{
				"x": -2.3743469704,
				"y": -2.3822371092,
				"z": -0.1235742518,
				"element": "C" 
			},
			{
				"x": -3.1688352337,
				"y": -2.5439661202,
				"z": -1.2568429559,
				"element": "C" 
			},
			{
				"x": -3.0921709705,
				"y": -1.6121342848,
				"z": -2.290481277,
				"element": "C" 
			},
			{
				"x": -2.2391002089,
				"y": -0.5146193898,
				"z": -2.178957981,
				"element": "C" 
			},
			{
				"x": -2.1874406624,
				"y": 0.3853438159,
				"z": -3.2233280533,
				"element": "O" 
			},
			{
				"x": -0.9575814791,
				"y": 0.3736501805,
				"z": -3.9579093371,
				"element": "C" 
			},
			{
				"x": -1.4748006289,
				"y": -0.3222934647,
				"z": -1.0094947908,
				"element": "C" 
			},
			{
				"x": -0.6354401577,
				"y": 0.7601282907,
				"z": -0.8831713026,
				"element": "O" 
			},
			{
				"x": -1.2671327822,
				"y": 2.0545059381,
				"z": -0.9014425391,
				"element": "C" 
			},
			{
				"x": -0.1279898447,
				"y": -4.8058274628,
				"z": -1.545716886,
				"element": "H" 
			},
			{
				"x": 1.5761497654,
				"y": -4.3174331131,
				"z": -1.6908795907,
				"element": "H" 
			},
			{
				"x": 1.1603967336,
				"y": -6.0265266873,
				"z": -1.4626468105,
				"element": "H" 
			},
			{
				"x": 1.9958166322,
				"y": -4.96707976,
				"z": 0.6756276426,
				"element": "H" 
			},
			{
				"x": 0.3093083444,
				"y": -5.5233932909,
				"z": 0.8402476697,
				"element": "H" 
			},
			{
				"x": 3.3263822848,
				"y": -0.2337169229,
				"z": -0.0519540324,
				"element": "H" 
			},
			{
				"x": 3.485863898,
				"y": 0.9258094024,
				"z": 1.2922902357,
				"element": "H" 
			},
			{
				"x": 3.6230136535,
				"y": -0.831306805,
				"z": 1.5590074775,
				"element": "H" 
			},
			{
				"x": 1.606932944,
				"y": 1.8798214639,
				"z": 1.7820711215,
				"element": "H" 
			},
			{
				"x": -1.9802450654,
				"y": 0.1897401864,
				"z": 2.3072988575,
				"element": "H" 
			},
			{
				"x": -0.9592304445,
				"y": -2.0165276546,
				"z": 1.9186891383,
				"element": "H" 
			},
			{
				"x": -2.4078392934,
				"y": -3.1215246756,
				"z": 0.6714029109,
				"element": "H" 
			},
			{
				"x": -3.8331214124,
				"y": -3.3986249875,
				"z": -1.3419626374,
				"element": "H" 
			},
			{
				"x": -3.6777571161,
				"y": -1.7153439469,
				"z": -3.1985361606,
				"element": "H" 
			},
			{
				"x": -0.7858626288,
				"y": -0.6111224154,
				"z": -4.4101306208,
				"element": "H" 
			},
			{
				"x": -1.0657599841,
				"y": 1.1195158188,
				"z": -4.748048055,
				"element": "H" 
			},
			{
				"x": -0.1073415591,
				"y": 0.6324375881,
				"z": -3.3187396834,
				"element": "H" 
			},
			{
				"x": -1.8490616508,
				"y": 2.1978399655,
				"z": -1.8142938296,
				"element": "H" 
			},
			{
				"x": -1.9053515099,
				"y": 2.182849636,
				"z": -0.0211924531,
				"element": "H" 
			},
			{
				"x": -0.4553594317,
				"y": 2.7822037941,
				"z": -0.8557136125,
				"element": "H" 
			}
		],
		 "valence_orbital": [ 
			{
				"type": "occ",
				"energy": -0.26188,
				"method": "rhf"
			},
			{
				"type": "occ",
				"energy": -0.25116,
				"method": "rhf"
			},
			{
				"type": "occ",
				"energy": -0.23986,
				"method": "rhf"
			},
			{
				"type": "occ",
				"energy": -0.2296,
				"method": "rhf"
			},
			{
				"type": "occ",
				"energy": -0.2178,
				"method": "rhf"
			},
			{
				"type": "unocc",
				"energy": -0.0331,
				"method": "rhf"
			},
			{
				"type": "unocc",
				"energy": -0.00504,
				"method": "rhf"
			},
			{
				"type": "unocc",
				"energy": 0.00249,
				"method": "rhf"
			},
			{
				"type": "unocc",
				"energy": 0.06245,
				"method": "rhf"
			},
			{
				"type": "unocc",
				"energy": 0.07157,
				"method": "rhf"
			}
		],
		"cosmo_sigma_profile": { 
			"-0.025": 0.0,
			"-0.024": 0.0,
			"-0.023": 0.0,
			"-0.022": 0.0,
			"-0.021": 0.0,
			"-0.02": 0.0,
			"-0.019": 0.0,
			"-0.018": 0.0,
			"-0.017": 0.0,
			"-0.016": 0.0476411105135,
			"-0.015": 0.954605541558,
			"-0.014": 1.65697150125,
			"-0.013": 2.238569885,
			"-0.012": 2.20766013512,
			"-0.011": 1.82644582081,
			"-0.01": 1.80253761943,
			"-0.009": 2.06393642508,
			"-0.008": 1.94336850895,
			"-0.007": 2.6794276743,
			"-0.006": 9.00398419297,
			"-0.005": 19.7534955429,
			"-0.004": 29.6034909773,
			"-0.003": 38.5048248477,
			"-0.002": 38.262592044,
			"-0.001": 33.0744275023,
			"0.0": 30.2320134435,
			"0.001": 24.1593477116,
			"0.002": 20.5913253815,
			"0.003": 18.3038370889,
			"0.004": 15.0711648852,
			"0.005": 13.4777566161,
			"0.006": 6.55647956809,
			"0.007": 5.36114235899,
			"0.008": 3.86846987613,
			"0.009": 5.04636162401,
			"0.01": 4.02950897478,
			"0.011": 3.31404154253,
			"0.012": 4.41126349651,
			"0.013": 5.73360274603,
			"0.014": 5.14335431596,
			"0.015": 0.387588803053,
			"0.016": 0.0,
			"0.017": 0.0,
			"0.018": 0.0,
			"0.019": 0.0,
			"0.02": 0.0,
			"0.021": 0.0,
			"0.022": 0.0,
			"0.023": 0.0,
			"0.024": 0.0,
			"0.025": 0.0
		}
	}
}
