{
	 "smiles": "CC(C)[Si](C(C)C)(C(C)C)C1SCCCS1", 
	 "Tm": 321.15, 
	 "num_atms": 44, 
	 "gaussian": { 
		 "optdone": 1, 
		 "sigma_profile": "yes", 
		 "theory": "DFT", 
		 "functional": "B3LYP", 
		 "basiset": "6-31G**", 
		 "properties": { 
			 "R2extent": 5587.1795, 
			 "electric_dipole_moment_norm": 0.944275113513, 
			 "electric_quadrupole_moment_norm": 9.46512309217, 
			 "total_energy": -1598.1641526, 
			 "HOMO_LUMO_gap": 0.2167, 
			 "cosmo_polarized_energy": -5.66, 
			 "cosmo_cavitation_energy": 43.34, 
			 "cosmo_dispersion_energy": -28.25, 
			 "cosmo_repulsion_energy": 2.16, 
			 "cosmo_total_nonelectrostatic_energy": 17.25, 
			 "SMD_solvation_energy": 6.49 
		},
		"coords": [
			{
				"x": 2.0362833766,
				"y": 1.2648281505,
				"z": 1.6407498612,
				"element": "C" 
			},
			{
				"x": 0.9754741403,
				"y": 1.4739452006,
				"z": 0.5405535984,
				"element": "C" 
			},
			{
				"x": 0.5051549399,
				"y": 2.9423291494,
				"z": 0.5285358579,
				"element": "C" 
			},
			{
				"x": -0.4480534662,
				"y": 0.1803525904,
				"z": 0.5619751788,
				"element": "Si" 
			},
			{
				"x": 0.3232047096,
				"y": -1.5705785793,
				"z": 0.7317656728,
				"element": "C" 
			},
			{
				"x": -0.6970487197,
				"y": -2.7179282602,
				"z": 0.8746742004,
				"element": "C" 
			},
			{
				"x": 1.3653405884,
				"y": -1.9142882108,
				"z": -0.3513669741,
				"element": "C" 
			},
			{
				"x": -1.7377550412,
				"y": 0.4038782349,
				"z": 1.9743159552,
				"element": "C" 
			},
			{
				"x": -1.1098343268,
				"y": 0.3638177326,
				"z": 3.3827500792,
				"element": "C" 
			},
			{
				"x": -2.6630570174,
				"y": 1.628709599,
				"z": 1.832586443,
				"element": "C" 
			},
			{
				"x": -1.4154240353,
				"y": 0.4684955173,
				"z": -1.096008074,
				"element": "C" 
			},
			{
				"x": -2.837077139,
				"y": -0.6685565364,
				"z": -1.2993891755,
				"element": "S" 
			},
			{
				"x": -3.3791987736,
				"y": -0.1132540961,
				"z": -2.9652794833,
				"element": "C" 
			},
			{
				"x": -2.4388466982,
				"y": -0.5847362357,
				"z": -4.0951634309,
				"element": "C" 
			},
			{
				"x": -0.9844580169,
				"y": -0.7939876613,
				"z": -3.6517575125,
				"element": "C" 
			},
			{
				"x": -0.3057137056,
				"y": 0.5596717286,
				"z": -2.6159666378,
				"element": "S" 
			},
			{
				"x": 1.6250750343,
				"y": 1.4320207604,
				"z": 2.6421700027,
				"element": "H" 
			},
			{
				"x": 2.4634570713,
				"y": 0.2574106188,
				"z": 1.6237981756,
				"element": "H" 
			},
			{
				"x": 2.8658008708,
				"y": 1.9719824688,
				"z": 1.5121522995,
				"element": "H" 
			},
			{
				"x": 1.4728671145,
				"y": 1.2879816756,
				"z": -0.4229149234,
				"element": "H" 
			},
			{
				"x": 1.3547233084,
				"y": 3.6177381883,
				"z": 0.3658138383,
				"element": "H" 
			},
			{
				"x": -0.2244293713,
				"y": 3.1458292954,
				"z": -0.2624832966,
				"element": "H" 
			},
			{
				"x": 0.0480166897,
				"y": 3.2270918572,
				"z": 1.4826627206,
				"element": "H" 
			},
			{
				"x": 0.8656851059,
				"y": -1.5066205984,
				"z": 1.6886712017,
				"element": "H" 
			},
			{
				"x": -1.3943866975,
				"y": -2.5571234053,
				"z": 1.7031244503,
				"element": "H" 
			},
			{
				"x": -0.1801536392,
				"y": -3.667567481,
				"z": 1.0646765936,
				"element": "H" 
			},
			{
				"x": -1.2906619789,
				"y": -2.8438699038,
				"z": -0.036441743,
				"element": "H" 
			},
			{
				"x": 1.859909016,
				"y": -2.8665053065,
				"z": -0.119204832,
				"element": "H" 
			},
			{
				"x": 2.1443874647,
				"y": -1.1512187062,
				"z": -0.4433823514,
				"element": "H" 
			},
			{
				"x": 0.8993934872,
				"y": -2.0173484507,
				"z": -1.3360896918,
				"element": "H" 
			},
			{
				"x": -2.3806581772,
				"y": -0.4842151429,
				"z": 1.882201659,
				"element": "H" 
			},
			{
				"x": -0.4990548262,
				"y": 1.2529619962,
				"z": 3.5754563114,
				"element": "H" 
			},
			{
				"x": -1.8902104007,
				"y": 0.3384696341,
				"z": 4.1541133229,
				"element": "H" 
			},
			{
				"x": -0.472456778,
				"y": -0.5137677542,
				"z": 3.5355304512,
				"element": "H" 
			},
			{
				"x": -3.4075373642,
				"y": 1.6404154615,
				"z": 2.6391774214,
				"element": "H" 
			},
			{
				"x": -2.1101371547,
				"y": 2.5720147922,
				"z": 1.8933534686,
				"element": "H" 
			},
			{
				"x": -3.2134422437,
				"y": 1.6192914381,
				"z": 0.8869089655,
				"element": "H" 
			},
			{
				"x": -1.839875467,
				"y": 1.4761952488,
				"z": -1.028520441,
				"element": "H" 
			},
			{
				"x": -4.3919326101,
				"y": -0.4999156283,
				"z": -3.1062716136,
				"element": "H" 
			},
			{
				"x": -3.4457562855,
				"y": 0.9782640178,
				"z": -2.9375455026,
				"element": "H" 
			},
			{
				"x": -2.8016355792,
				"y": -1.5359669574,
				"z": -4.5047580409,
				"element": "H" 
			},
			{
				"x": -2.4762236981,
				"y": 0.1513053963,
				"z": -4.9068248612,
				"element": "H" 
			},
			{
				"x": -0.3178875384,
				"y": -0.8377951128,
				"z": -4.517900345,
				"element": "H" 
			},
			{
				"x": -0.8785661678,
				"y": -1.7353567255,
				"z": -3.1078487983,
				"element": "H" 
			}
		],
		 "valence_orbital": [ 
			{
				"type": "occ",
				"energy": -0.28785,
				"method": "rhf"
			},
			{
				"type": "occ",
				"energy": -0.26101,
				"method": "rhf"
			},
			{
				"type": "occ",
				"energy": -0.25773,
				"method": "rhf"
			},
			{
				"type": "occ",
				"energy": -0.22964,
				"method": "rhf"
			},
			{
				"type": "occ",
				"energy": -0.20623,
				"method": "rhf"
			},
			{
				"type": "unocc",
				"energy": 0.01047,
				"method": "rhf"
			},
			{
				"type": "unocc",
				"energy": 0.03422,
				"method": "rhf"
			},
			{
				"type": "unocc",
				"energy": 0.05964,
				"method": "rhf"
			},
			{
				"type": "unocc",
				"energy": 0.06272,
				"method": "rhf"
			},
			{
				"type": "unocc",
				"energy": 0.06846,
				"method": "rhf"
			}
		],
		"cosmo_sigma_profile": { 
			"-0.025": 0.0,
			"-0.024": 0.0,
			"-0.023": 0.0,
			"-0.022": 0.0,
			"-0.021": 0.0,
			"-0.02": 0.0,
			"-0.019": 0.0,
			"-0.018": 0.0,
			"-0.017": 0.0,
			"-0.016": 0.0,
			"-0.015": 0.0,
			"-0.014": 0.0,
			"-0.013": 0.0,
			"-0.012": 0.0,
			"-0.011": 0.0,
			"-0.01": 0.0,
			"-0.009": 0.0,
			"-0.008": 0.0,
			"-0.007": 0.0,
			"-0.006": 2.56343081752,
			"-0.005": 8.57880180305,
			"-0.004": 14.5393035922,
			"-0.003": 29.2198443266,
			"-0.002": 54.2073784078,
			"-0.001": 49.644189417,
			"0.0": 48.8570168106,
			"0.001": 46.5390862121,
			"0.002": 37.4966202737,
			"0.003": 9.64794919684,
			"0.004": 6.8015616317,
			"0.005": 7.42286665969,
			"0.006": 6.44854177302,
			"0.007": 4.78754999487,
			"0.008": 3.72429307606,
			"0.009": 2.07479985859,
			"0.01": 1.21516060374,
			"0.011": 0.730459094791,
			"0.012": 0.243073136248,
			"0.013": 0.0,
			"0.014": 0.0,
			"0.015": 0.0,
			"0.016": 0.0,
			"0.017": 0.0,
			"0.018": 0.0,
			"0.019": 0.0,
			"0.02": 0.0,
			"0.021": 0.0,
			"0.022": 0.0,
			"0.023": 0.0,
			"0.024": 0.0,
			"0.025": 0.0
		}
	}
}
