{
	 "smiles": "CC1=CN=CC=N1", 
	 "Tm": 243.65, 
	 "num_atms": 13, 
	 "gaussian": { 
		 "optdone": 1, 
		 "sigma_profile": "yes", 
		 "theory": "DFT", 
		 "functional": "B3LYP", 
		 "basiset": "6-31G**", 
		 "properties": { 
			 "R2extent": 1155.7356, 
			 "electric_dipole_moment_norm": 0.600626989071, 
			 "electric_quadrupole_moment_norm": 8.36732649536, 
			 "total_energy": -303.640459585, 
			 "HOMO_LUMO_gap": 0.19997, 
			 "cosmo_polarized_energy": -6.09, 
			 "cosmo_cavitation_energy": 16.84, 
			 "cosmo_dispersion_energy": -12.73, 
			 "cosmo_repulsion_energy": 1.07, 
			 "cosmo_total_nonelectrostatic_energy": 5.18, 
			 "SMD_solvation_energy": 0.45 
		},
		"coords": [
			{
				"x": -0.7174512431,
				"y": 0.3399365694,
				"z": -0.4105947889,
				"element": "C" 
			},
			{
				"x": 0.6479770592,
				"y": 0.5411925023,
				"z": 0.1941930497,
				"element": "C" 
			},
			{
				"x": 0.8822242668,
				"y": 1.5176364008,
				"z": 1.1779022357,
				"element": "C" 
			},
			{
				"x": 2.0796741969,
				"y": 1.7178184439,
				"z": 1.7304083717,
				"element": "N" 
			},
			{
				"x": 3.0687091988,
				"y": 0.9270295354,
				"z": 1.2935460791,
				"element": "C" 
			},
			{
				"x": 2.850649667,
				"y": -0.0448404746,
				"z": 0.3190692499,
				"element": "C" 
			},
			{
				"x": 1.6475483756,
				"y": -0.2435638347,
				"z": -0.2338130919,
				"element": "N" 
			},
			{
				"x": -1.4562162612,
				"y": 0.0769280596,
				"z": 0.3547767109,
				"element": "H" 
			},
			{
				"x": -0.6749781566,
				"y": -0.463289386,
				"z": -1.1478338905,
				"element": "H" 
			},
			{
				"x": -1.0721083605,
				"y": 1.2520998596,
				"z": -0.9034604823,
				"element": "H" 
			},
			{
				"x": 0.0697225643,
				"y": 2.1547366524,
				"z": 1.5250389445,
				"element": "H" 
			},
			{
				"x": 4.0537619299,
				"y": 1.0737559731,
				"z": 1.7313053937,
				"element": "H" 
			},
			{
				"x": 3.6628867631,
				"y": -0.6811403012,
				"z": -0.0274377816,
				"element": "H" 
			}
		],
		 "valence_orbital": [ 
			{
				"type": "occ",
				"energy": -0.38038,
				"method": "rhf"
			},
			{
				"type": "occ",
				"energy": -0.32368,
				"method": "rhf"
			},
			{
				"type": "occ",
				"energy": -0.30406,
				"method": "rhf"
			},
			{
				"type": "occ",
				"energy": -0.26487,
				"method": "rhf"
			},
			{
				"type": "occ",
				"energy": -0.2451,
				"method": "rhf"
			},
			{
				"type": "unocc",
				"energy": -0.04513,
				"method": "rhf"
			},
			{
				"type": "unocc",
				"energy": -0.02134,
				"method": "rhf"
			},
			{
				"type": "unocc",
				"energy": 0.11163,
				"method": "rhf"
			},
			{
				"type": "unocc",
				"energy": 0.12019,
				"method": "rhf"
			},
			{
				"type": "unocc",
				"energy": 0.12351,
				"method": "rhf"
			}
		],
		"cosmo_sigma_profile": { 
			"-0.025": 0.0,
			"-0.024": 0.0,
			"-0.023": 0.0,
			"-0.022": 0.0,
			"-0.021": 0.0,
			"-0.02": 0.0,
			"-0.019": 0.0,
			"-0.018": 0.0,
			"-0.017": 0.0,
			"-0.016": 0.0,
			"-0.015": 0.0,
			"-0.014": 0.0,
			"-0.013": 0.0,
			"-0.012": 0.0,
			"-0.011": 0.0,
			"-0.01": 0.0,
			"-0.009": 0.0,
			"-0.008": 0.505812270398,
			"-0.007": 6.10646423586,
			"-0.006": 7.28668289974,
			"-0.005": 10.8470099687,
			"-0.004": 11.8304058673,
			"-0.003": 10.4353844954,
			"-0.002": 10.3534092445,
			"-0.001": 15.6779528751,
			"0.0": 16.4303940353,
			"0.001": 9.4832213434,
			"0.002": 5.19768415663,
			"0.003": 4.69528959216,
			"0.004": 3.26941866044,
			"0.005": 2.57785939904,
			"0.006": 2.79588378462,
			"0.007": 3.23373821733,
			"0.008": 2.12524630884,
			"0.009": 1.9053398816,
			"0.01": 1.73394500962,
			"0.011": 1.33936141388,
			"0.012": 2.01014580603,
			"0.013": 1.87424939216,
			"0.014": 1.503707262,
			"0.015": 1.23648153322,
			"0.016": 0.317085170605,
			"0.017": 0.0,
			"0.018": 0.0,
			"0.019": 0.0,
			"0.02": 0.0,
			"0.021": 0.0,
			"0.022": 0.0,
			"0.023": 0.0,
			"0.024": 0.0,
			"0.025": 0.0
		}
	}
}
