{
	 "smiles": "OC(=O)CC1=C(N2CCN=C2S1)C1=CC=CS1", 
	 "Tm": 494.15, 
	 "num_atms": 27, 
	 "gaussian": { 
		 "optdone": 1, 
		 "sigma_profile": "yes", 
		 "theory": "DFT", 
		 "functional": "B3LYP", 
		 "basiset": "6-31G**", 
		 "properties": { 
			 "R2extent": 5047.0223, 
			 "electric_dipole_moment_norm": 5.26394115659, 
			 "electric_quadrupole_moment_norm": 5.66792636332, 
			 "total_energy": -1481.49345246, 
			 "HOMO_LUMO_gap": 0.1451, 
			 "cosmo_polarized_energy": -15.66, 
			 "cosmo_cavitation_energy": 33.85, 
			 "cosmo_dispersion_energy": -25.09, 
			 "cosmo_repulsion_energy": 1.88, 
			 "cosmo_total_nonelectrostatic_energy": 10.64, 
			 "SMD_solvation_energy": 1.92 
		},
		"coords": [
			{
				"x": 0.0530271884,
				"y": 1.9064311209,
				"z": -2.6627342243,
				"element": "O" 
			},
			{
				"x": 0.355004651,
				"y": 2.7179527149,
				"z": -1.6179579534,
				"element": "C" 
			},
			{
				"x": 0.082412566,
				"y": 3.8955273362,
				"z": -1.6075068777,
				"element": "O" 
			},
			{
				"x": 1.0828632303,
				"y": 1.97240962,
				"z": -0.5057309601,
				"element": "C" 
			},
			{
				"x": 0.3440132023,
				"y": 0.7889940395,
				"z": 0.0386592312,
				"element": "C" 
			},
			{
				"x": 0.645518395,
				"y": -0.5344093227,
				"z": -0.0821864435,
				"element": "C" 
			},
			{
				"x": -0.160142873,
				"y": -1.3494835395,
				"z": 0.720343708,
				"element": "N" 
			},
			{
				"x": -0.5770686668,
				"y": -2.7533335648,
				"z": 0.5845221842,
				"element": "C" 
			},
			{
				"x": -1.7342502037,
				"y": -2.789517571,
				"z": 1.6328433737,
				"element": "C" 
			},
			{
				"x": -2.1714266963,
				"y": -1.3903433311,
				"z": 1.8349303754,
				"element": "N" 
			},
			{
				"x": -1.2354596137,
				"y": -0.6883537859,
				"z": 1.3228042621,
				"element": "C" 
			},
			{
				"x": -1.0539668137,
				"y": 1.0568940393,
				"z": 1.1229596315,
				"element": "S" 
			},
			{
				"x": 1.7337732627,
				"y": -1.1055666555,
				"z": -0.8701006369,
				"element": "C" 
			},
			{
				"x": 2.0997460511,
				"y": -0.7955559693,
				"z": -2.1613410011,
				"element": "C" 
			},
			{
				"x": 3.2448736425,
				"y": -1.5159340886,
				"z": -2.6108429569,
				"element": "C" 
			},
			{
				"x": 3.7394944415,
				"y": -2.3725518579,
				"z": -1.6663152688,
				"element": "C" 
			},
			{
				"x": 2.8233245682,
				"y": -2.3087255009,
				"z": -0.1967621929,
				"element": "S" 
			},
			{
				"x": -0.4040815815,
				"y": 2.4639914619,
				"z": -3.3148065341,
				"element": "H" 
			},
			{
				"x": 2.0427088288,
				"y": 1.6282153179,
				"z": -0.9072547025,
				"element": "H" 
			},
			{
				"x": 1.2836889755,
				"y": 2.7101733593,
				"z": 0.2767578261,
				"element": "H" 
			},
			{
				"x": 0.2346532905,
				"y": -3.4452343758,
				"z": 0.8152663079,
				"element": "H" 
			},
			{
				"x": -0.9317024804,
				"y": -2.9509839427,
				"z": -0.4360502011,
				"element": "H" 
			},
			{
				"x": -1.3774615898,
				"y": -3.2012281425,
				"z": 2.5865327291,
				"element": "H" 
			},
			{
				"x": -2.5719994811,
				"y": -3.4082512068,
				"z": 1.2993419387,
				"element": "H" 
			},
			{
				"x": 1.5403692038,
				"y": -0.0934673606,
				"z": -2.7680106482,
				"element": "H" 
			},
			{
				"x": 3.6716157437,
				"y": -1.410328137,
				"z": -3.6016579946,
				"element": "H" 
			},
			{
				"x": 4.5833727588,
				"y": -3.0441206572,
				"z": -1.7444029718,
				"element": "H" 
			}
		],
		 "valence_orbital": [ 
			{
				"type": "occ",
				"energy": -0.27875,
				"method": "rhf"
			},
			{
				"type": "occ",
				"energy": -0.26946,
				"method": "rhf"
			},
			{
				"type": "occ",
				"energy": -0.26375,
				"method": "rhf"
			},
			{
				"type": "occ",
				"energy": -0.24399,
				"method": "rhf"
			},
			{
				"type": "occ",
				"energy": -0.18971,
				"method": "rhf"
			},
			{
				"type": "unocc",
				"energy": -0.04461,
				"method": "rhf"
			},
			{
				"type": "unocc",
				"energy": -0.00297,
				"method": "rhf"
			},
			{
				"type": "unocc",
				"energy": 0.0047,
				"method": "rhf"
			},
			{
				"type": "unocc",
				"energy": 0.0159,
				"method": "rhf"
			},
			{
				"type": "unocc",
				"energy": 0.02104,
				"method": "rhf"
			}
		],
		"cosmo_sigma_profile": { 
			"-0.025": 0.0,
			"-0.024": 0.0,
			"-0.023": 0.0,
			"-0.022": 0.0,
			"-0.021": 0.0,
			"-0.02": 0.0,
			"-0.019": 0.0746749440981,
			"-0.018": 1.2191456151,
			"-0.017": 0.773643033435,
			"-0.016": 0.620931995703,
			"-0.015": 0.962934291792,
			"-0.014": 0.443237365966,
			"-0.013": 0.524559656778,
			"-0.012": 0.914811996757,
			"-0.011": 1.18856897387,
			"-0.01": 0.221764922727,
			"-0.009": 1.42989891097,
			"-0.008": 3.61067660351,
			"-0.007": 6.97279804811,
			"-0.006": 10.9638625658,
			"-0.005": 20.3751907116,
			"-0.004": 24.5455078055,
			"-0.003": 20.6381717229,
			"-0.002": 18.9120240422,
			"-0.001": 16.4440535689,
			"0.0": 20.111124505,
			"0.001": 25.1606924046,
			"0.002": 21.0629408553,
			"0.003": 20.405204581,
			"0.004": 16.3319307688,
			"0.005": 8.79171932355,
			"0.006": 3.45910765714,
			"0.007": 3.20939710613,
			"0.008": 3.31689930951,
			"0.009": 3.1759398921,
			"0.01": 3.27302844188,
			"0.011": 5.71439067235,
			"0.012": 3.91986449906,
			"0.013": 1.33220387503,
			"0.014": 0.979649235957,
			"0.015": 1.42439584042,
			"0.016": 0.96899998654,
			"0.017": 0.960882321068,
			"0.018": 0.401313348832,
			"0.019": 0.0,
			"0.02": 0.0,
			"0.021": 0.0,
			"0.022": 0.0,
			"0.023": 0.0,
			"0.024": 0.0,
			"0.025": 0.0
		}
	}
}
