{
	 "smiles": "CCOC(=O)C(C#N)C1=C(C=C(C(Cl)=C1)[N+]([O-])=O)[N+]([O-])=O", 
	 "Tm": 382.15, 
	 "num_atms": 29, 
	 "gaussian": { 
		 "optdone": 1, 
		 "sigma_profile": "yes", 
		 "theory": "DFT", 
		 "functional": "B3LYP", 
		 "basiset": "6-31G**", 
		 "properties": { 
			 "R2extent": 7994.1703, 
			 "electric_dipole_moment_norm": 2.96514639605, 
			 "electric_quadrupole_moment_norm": 22.9085658331, 
			 "total_energy": -1499.54160886, 
			 "HOMO_LUMO_gap": 0.17138, 
			 "cosmo_polarized_energy": -18.6, 
			 "cosmo_cavitation_energy": 38.56, 
			 "cosmo_dispersion_energy": -25.44, 
			 "cosmo_repulsion_energy": 1.98, 
			 "cosmo_total_nonelectrostatic_energy": 15.1, 
			 "SMD_solvation_energy": 13.18 
		},
		"coords": [
			{
				"x": -3.3832039407,
				"y": 1.4389294786,
				"z": 1.050591018,
				"element": "C" 
			},
			{
				"x": -2.2343419659,
				"y": 1.8978982469,
				"z": 0.1694626636,
				"element": "C" 
			},
			{
				"x": -1.3830329372,
				"y": 0.7739887325,
				"z": -0.2124004718,
				"element": "O" 
			},
			{
				"x": -1.7564802627,
				"y": 0.0745426337,
				"z": -1.2892009364,
				"element": "C" 
			},
			{
				"x": -2.7386965854,
				"y": 0.2697256381,
				"z": -1.9604202231,
				"element": "O" 
			},
			{
				"x": -0.698619832,
				"y": -1.0147819338,
				"z": -1.6226655311,
				"element": "C" 
			},
			{
				"x": -1.2889722469,
				"y": -2.0196891532,
				"z": -2.5114000502,
				"element": "C" 
			},
			{
				"x": -1.7240521934,
				"y": -2.8385528151,
				"z": -3.2075393824,
				"element": "N" 
			},
			{
				"x": -0.051074678,
				"y": -1.6387257246,
				"z": -0.3864581882,
				"element": "C" 
			},
			{
				"x": 0.9601855237,
				"y": -1.0115852365,
				"z": 0.367916033,
				"element": "C" 
			},
			{
				"x": 1.4748172079,
				"y": -1.5975778522,
				"z": 1.5159300096,
				"element": "C" 
			},
			{
				"x": 0.9948117924,
				"y": -2.8265459781,
				"z": 1.9525177763,
				"element": "C" 
			},
			{
				"x": -0.0051168204,
				"y": -3.4868549753,
				"z": 1.2246316633,
				"element": "C" 
			},
			{
				"x": -0.6257870622,
				"y": -5.0508552751,
				"z": 1.6342664727,
				"element": "Cl" 
			},
			{
				"x": -0.5055592211,
				"y": -2.8776156622,
				"z": 0.0693371661,
				"element": "C" 
			},
			{
				"x": 1.5902028153,
				"y": -3.354883051,
				"z": 3.1958855284,
				"element": "N" 
			},
			{
				"x": 2.7547586516,
				"y": -3.0337879847,
				"z": 3.4228523747,
				"element": "O" 
			},
			{
				"x": 0.8827397998,
				"y": -4.0429302435,
				"z": 3.921160661,
				"element": "O" 
			},
			{
				"x": 1.5525843666,
				"y": 0.2918377615,
				"z": 0.0046032356,
				"element": "N" 
			},
			{
				"x": 1.5514447087,
				"y": 0.6265698732,
				"z": -1.1804218626,
				"element": "O" 
			},
			{
				"x": 2.0395499399,
				"y": 0.9546027632,
				"z": 0.9134368464,
				"element": "O" 
			},
			{
				"x": -4.054938383,
				"y": 0.7759587338,
				"z": 0.5000139447,
				"element": "H" 
			},
			{
				"x": -3.9583467315,
				"y": 2.3099603415,
				"z": 1.3805881313,
				"element": "H" 
			},
			{
				"x": -3.0130705056,
				"y": 0.9178984315,
				"z": 1.9381087016,
				"element": "H" 
			},
			{
				"x": -2.592472955,
				"y": 2.380070213,
				"z": -0.7423019179,
				"element": "H" 
			},
			{
				"x": -1.5555322136,
				"y": 2.5693777638,
				"z": 0.698036223,
				"element": "H" 
			},
			{
				"x": 0.0815276003,
				"y": -0.485850432,
				"z": -2.1806455859,
				"element": "H" 
			},
			{
				"x": 2.2533582272,
				"y": -1.0993117479,
				"z": 2.0777977922,
				"element": "H" 
			},
			{
				"x": -1.2687820987,
				"y": -3.4021125461,
				"z": -0.4940820916,
				"element": "H" 
			}
		],
		 "valence_orbital": [ 
			{
				"type": "occ",
				"energy": -0.32781,
				"method": "rhf"
			},
			{
				"type": "occ",
				"energy": -0.32679,
				"method": "rhf"
			},
			{
				"type": "occ",
				"energy": -0.31409,
				"method": "rhf"
			},
			{
				"type": "occ",
				"energy": -0.30304,
				"method": "rhf"
			},
			{
				"type": "occ",
				"energy": -0.29928,
				"method": "rhf"
			},
			{
				"type": "unocc",
				"energy": -0.1279,
				"method": "rhf"
			},
			{
				"type": "unocc",
				"energy": -0.11151,
				"method": "rhf"
			},
			{
				"type": "unocc",
				"energy": -0.06007,
				"method": "rhf"
			},
			{
				"type": "unocc",
				"energy": -0.04287,
				"method": "rhf"
			},
			{
				"type": "unocc",
				"energy": -0.02352,
				"method": "rhf"
			}
		],
		"cosmo_sigma_profile": { 
			"-0.025": 0.0,
			"-0.024": 0.0,
			"-0.023": 0.0,
			"-0.022": 0.0,
			"-0.021": 0.0,
			"-0.02": 0.0,
			"-0.019": 0.0,
			"-0.018": 0.0,
			"-0.017": 0.0,
			"-0.016": 0.0,
			"-0.015": 0.0,
			"-0.014": 0.0,
			"-0.013": 0.00173071456751,
			"-0.012": 0.610413124673,
			"-0.011": 1.57477057857,
			"-0.01": 3.56260057276,
			"-0.009": 6.3053660498,
			"-0.008": 7.39179381449,
			"-0.007": 10.2891112473,
			"-0.006": 15.3031224472,
			"-0.005": 23.3512047792,
			"-0.004": 28.2147037573,
			"-0.003": 27.6197029804,
			"-0.002": 19.9717902307,
			"-0.001": 20.6529321392,
			"0.0": 17.4881597807,
			"0.001": 13.8009543116,
			"0.002": 15.1516317136,
			"0.003": 9.05928273228,
			"0.004": 9.76635878548,
			"0.005": 11.4857177745,
			"0.006": 20.327475021,
			"0.007": 19.3141220193,
			"0.008": 12.0127232578,
			"0.009": 8.27909384612,
			"0.01": 6.58020205124,
			"0.011": 3.05226116415,
			"0.012": 1.29337064595,
			"0.013": 0.0,
			"0.014": 0.0,
			"0.015": 0.0,
			"0.016": 0.0,
			"0.017": 0.0,
			"0.018": 0.0,
			"0.019": 0.0,
			"0.02": 0.0,
			"0.021": 0.0,
			"0.022": 0.0,
			"0.023": 0.0,
			"0.024": 0.0,
			"0.025": 0.0
		}
	}
}
