{
	 "smiles": "COC1=CC(=CC=C1)C(=O)NN1C(=O)CSC1=S", 
	 "Tm": 430.15, 
	 "num_atms": 28, 
	 "gaussian": { 
		 "optdone": 1, 
		 "sigma_profile": "yes", 
		 "theory": "DFT", 
		 "functional": "B3LYP", 
		 "basiset": "6-31G**", 
		 "properties": { 
			 "R2extent": 5729.0014, 
			 "electric_dipole_moment_norm": 5.34237123663, 
			 "electric_quadrupole_moment_norm": 21.0380763691, 
			 "total_energy": -1556.71891013, 
			 "HOMO_LUMO_gap": 0.15105, 
			 "cosmo_polarized_energy": -20.58, 
			 "cosmo_cavitation_energy": 36.3, 
			 "cosmo_dispersion_energy": -25.41, 
			 "cosmo_repulsion_energy": 1.9, 
			 "cosmo_total_nonelectrostatic_energy": 12.8, 
			 "SMD_solvation_energy": 7.34 
		},
		"coords": [
			{
				"x": -0.0545801211,
				"y": 2.4026959402,
				"z": 2.8048664463,
				"element": "C" 
			},
			{
				"x": -0.5220152377,
				"y": 1.7173130916,
				"z": 1.6533428961,
				"element": "O" 
			},
			{
				"x": 0.366148466,
				"y": 1.4482737626,
				"z": 0.6543917184,
				"element": "C" 
			},
			{
				"x": -0.1715655378,
				"y": 0.8078928994,
				"z": -0.4720316537,
				"element": "C" 
			},
			{
				"x": 0.6508237236,
				"y": 0.4990619306,
				"z": -1.556596804,
				"element": "C" 
			},
			{
				"x": 2.0136430423,
				"y": 0.8373968691,
				"z": -1.531730259,
				"element": "C" 
			},
			{
				"x": 2.5399950119,
				"y": 1.4564723563,
				"z": -0.4053901077,
				"element": "C" 
			},
			{
				"x": 1.7289852745,
				"y": 1.7661043343,
				"z": 0.6923886857,
				"element": "C" 
			},
			{
				"x": 0.1268428343,
				"y": -0.1168292628,
				"z": -2.8128163525,
				"element": "C" 
			},
			{
				"x": 0.5471087038,
				"y": 0.166519899,
				"z": -3.9197781554,
				"element": "O" 
			},
			{
				"x": -0.9457843323,
				"y": -1.0221329185,
				"z": -2.7241170136,
				"element": "N" 
			},
			{
				"x": -1.1204720381,
				"y": -1.8553829364,
				"z": -1.634950893,
				"element": "N" 
			},
			{
				"x": -0.0960020109,
				"y": -2.7484235249,
				"z": -1.258794096,
				"element": "C" 
			},
			{
				"x": 0.9618485116,
				"y": -2.8306307956,
				"z": -1.8341820251,
				"element": "O" 
			},
			{
				"x": -0.5130265243,
				"y": -3.548599153,
				"z": -0.038841697,
				"element": "C" 
			},
			{
				"x": -2.2583402393,
				"y": -3.1198068052,
				"z": 0.3208209476,
				"element": "S" 
			},
			{
				"x": -2.3461315292,
				"y": -1.9163237057,
				"z": -0.9706282537,
				"element": "C" 
			},
			{
				"x": -3.683793772,
				"y": -1.0381974456,
				"z": -1.3133717177,
				"element": "S" 
			},
			{
				"x": -0.9232284774,
				"y": 2.5285112279,
				"z": 3.4525766645,
				"element": "H" 
			},
			{
				"x": 0.7116221645,
				"y": 1.8250416781,
				"z": 3.3382507412,
				"element": "H" 
			},
			{
				"x": 0.3527119504,
				"y": 3.3896470737,
				"z": 2.5507806945,
				"element": "H" 
			},
			{
				"x": -1.2369885125,
				"y": 0.6058525627,
				"z": -0.4872092729,
				"element": "H" 
			},
			{
				"x": 2.6302926711,
				"y": 0.6090280157,
				"z": -2.393147618,
				"element": "H" 
			},
			{
				"x": 3.5950139661,
				"y": 1.7119918039,
				"z": -0.3717908029,
				"element": "H" 
			},
			{
				"x": 2.1623950523,
				"y": 2.2563878654,
				"z": 1.5559666141,
				"element": "H" 
			},
			{
				"x": -1.1609384831,
				"y": -1.4529598234,
				"z": -3.6185390266,
				"element": "H" 
			},
			{
				"x": 0.1344506158,
				"y": -3.2842355195,
				"z": 0.8014687399,
				"element": "H" 
			},
			{
				"x": -0.4023151728,
				"y": -4.61516942,
				"z": -0.2460383992,
				"element": "H" 
			}
		],
		 "valence_orbital": [ 
			{
				"type": "occ",
				"energy": -0.27208,
				"method": "rhf"
			},
			{
				"type": "occ",
				"energy": -0.26097,
				"method": "rhf"
			},
			{
				"type": "occ",
				"energy": -0.25698,
				"method": "rhf"
			},
			{
				"type": "occ",
				"energy": -0.23908,
				"method": "rhf"
			},
			{
				"type": "occ",
				"energy": -0.22969,
				"method": "rhf"
			},
			{
				"type": "unocc",
				"energy": -0.07864,
				"method": "rhf"
			},
			{
				"type": "unocc",
				"energy": -0.04393,
				"method": "rhf"
			},
			{
				"type": "unocc",
				"energy": -0.01434,
				"method": "rhf"
			},
			{
				"type": "unocc",
				"energy": -0.01102,
				"method": "rhf"
			},
			{
				"type": "unocc",
				"energy": -0.00249,
				"method": "rhf"
			}
		],
		"cosmo_sigma_profile": { 
			"-0.025": 0.0,
			"-0.024": 0.0,
			"-0.023": 0.0,
			"-0.022": 0.0,
			"-0.021": 0.0,
			"-0.02": 0.0,
			"-0.019": 0.0,
			"-0.018": 0.0,
			"-0.017": 0.0,
			"-0.016": 0.687425306768,
			"-0.015": 1.66579051393,
			"-0.014": 1.03153877078,
			"-0.013": 0.603148518822,
			"-0.012": 1.24683109007,
			"-0.011": 2.09274279976,
			"-0.01": 7.09716148684,
			"-0.009": 7.5328370581,
			"-0.008": 7.54674939603,
			"-0.007": 9.35334547396,
			"-0.006": 15.615315307,
			"-0.005": 17.9997422115,
			"-0.004": 17.7894562069,
			"-0.003": 15.7308185176,
			"-0.002": 13.9872993842,
			"-0.001": 13.2845905195,
			"0.0": 16.3740710731,
			"0.001": 19.5101667242,
			"0.002": 21.881239908,
			"0.003": 20.8088188254,
			"0.004": 21.7861370217,
			"0.005": 11.8417846398,
			"0.006": 9.81445574301,
			"0.007": 7.50554820571,
			"0.008": 7.87616743966,
			"0.009": 7.71776855968,
			"0.01": 7.70993796312,
			"0.011": 4.70705311238,
			"0.012": 4.2289405105,
			"0.013": 0.404377478002,
			"0.014": 0.0,
			"0.015": 0.0,
			"0.016": 0.0,
			"0.017": 0.0,
			"0.018": 0.0,
			"0.019": 0.0,
			"0.02": 0.0,
			"0.021": 0.0,
			"0.022": 0.0,
			"0.023": 0.0,
			"0.024": 0.0,
			"0.0": 0.0
		}
	}
}
