{
	 "smiles": "CC(C)(C)C(=O)N1CCCC(C1)C(O)=O", 
	 "Tm": 453.15, 
	 "num_atms": 34, 
	 "gaussian": { 
		 "optdone": 1, 
		 "sigma_profile": "yes", 
		 "theory": "DFT", 
		 "functional": "B3LYP", 
		 "basiset": "6-31G**", 
		 "properties": { 
			 "R2extent": 4109.5477, 
			 "electric_dipole_moment_norm": 2.89510597388, 
			 "electric_quadrupole_moment_norm": 29.9339492734, 
			 "total_energy": -711.069921654, 
			 "HOMO_LUMO_gap": 0.2334, 
			 "cosmo_polarized_energy": -19.49, 
			 "cosmo_cavitation_energy": 33.82, 
			 "cosmo_dispersion_energy": -23.58, 
			 "cosmo_repulsion_energy": 1.84, 
			 "cosmo_total_nonelectrostatic_energy": 12.08, 
			 "SMD_solvation_energy": 6.34 
		},
		"coords": [
			{
				"x": -0.5635793573,
				"y": -2.6318092307,
				"z": 1.7867697364,
				"element": "C" 
			},
			{
				"x": 0.245749478,
				"y": -1.6631014318,
				"z": 0.8985364309,
				"element": "C" 
			},
			{
				"x": 0.63526843,
				"y": -2.4239814363,
				"z": -0.3898072201,
				"element": "C" 
			},
			{
				"x": 1.4969266256,
				"y": -1.2302656725,
				"z": 1.7011508088,
				"element": "C" 
			},
			{
				"x": -0.6760317673,
				"y": -0.440094222,
				"z": 0.6133567012,
				"element": "C" 
			},
			{
				"x": -1.744144967,
				"y": -0.3287822863,
				"z": 1.2145606124,
				"element": "O" 
			},
			{
				"x": -0.3451929187,
				"y": 0.527089503,
				"z": -0.3155587682,
				"element": "N" 
			},
			{
				"x": -1.3661180452,
				"y": 1.574857589,
				"z": -0.5188696938,
				"element": "C" 
			},
			{
				"x": -1.0642163973,
				"y": 2.3924790318,
				"z": -1.7733980478,
				"element": "C" 
			},
			{
				"x": 0.3124634567,
				"y": 3.0830068135,
				"z": -1.7061898587,
				"element": "C" 
			},
			{
				"x": 1.3546261052,
				"y": 2.1645850636,
				"z": -1.0004503341,
				"element": "C" 
			},
			{
				"x": 0.9163895126,
				"y": 0.6917853539,
				"z": -1.0372930187,
				"element": "C" 
			},
			{
				"x": 2.7609646815,
				"y": 2.3147477546,
				"z": -1.57341151,
				"element": "C" 
			},
			{
				"x": 3.2159807839,
				"y": 3.5908461493,
				"z": -1.6908804909,
				"element": "O" 
			},
			{
				"x": 3.4645599483,
				"y": 1.3923561175,
				"z": -1.904527461,
				"element": "O" 
			},
			{
				"x": 0.0537032682,
				"y": -3.5030248922,
				"z": 2.0310571442,
				"element": "H" 
			},
			{
				"x": -1.4656894049,
				"y": -2.9770128168,
				"z": 1.2754796283,
				"element": "H" 
			},
			{
				"x": -0.8792791951,
				"y": -2.1496686893,
				"z": 2.7133658936,
				"element": "H" 
			},
			{
				"x": 1.151733968,
				"y": -3.3514037168,
				"z": -0.1197421806,
				"element": "H" 
			},
			{
				"x": 1.300802924,
				"y": -1.8678867398,
				"z": -1.0519744283,
				"element": "H" 
			},
			{
				"x": -0.2571271161,
				"y": -2.6988070375,
				"z": -0.9621005193,
				"element": "H" 
			},
			{
				"x": 1.203272684,
				"y": -0.7002759699,
				"z": 2.6130862343,
				"element": "H" 
			},
			{
				"x": 2.0641358438,
				"y": -2.1183874549,
				"z": 1.9999773143,
				"element": "H" 
			},
			{
				"x": 2.1811275612,
				"y": -0.5856174493,
				"z": 1.1434659029,
				"element": "H" 
			},
			{
				"x": -2.3433739972,
				"y": 1.0921593848,
				"z": -0.5903311419,
				"element": "H" 
			},
			{
				"x": -1.4144008732,
				"y": 2.2259737181,
				"z": 0.3657507107,
				"element": "H" 
			},
			{
				"x": -1.8528034006,
				"y": 3.1389784267,
				"z": -1.9114633064,
				"element": "H" 
			},
			{
				"x": -1.1047175209,
				"y": 1.735340184,
				"z": -2.6495118246,
				"element": "H" 
			},
			{
				"x": 0.2215546523,
				"y": 4.0306760904,
				"z": -1.1600805281,
				"element": "H" 
			},
			{
				"x": 0.6427534398,
				"y": 3.332476667,
				"z": -2.7208216311,
				"element": "H" 
			},
			{
				"x": 1.4152079249,
				"y": 2.4557072511,
				"z": 0.0582492544,
				"element": "H" 
			},
			{
				"x": 0.8303723131,
				"y": 0.3637454244,
				"z": -2.0820584802,
				"element": "H" 
			},
			{
				"x": 1.6953865035,
				"y": 0.0878805324,
				"z": -0.5875187789,
				"element": "H" 
			},
			{
				"x": 2.5450948561,
				"y": 4.2181279907,
				"z": -1.3855171497,
				"element": "H" 
			}
		],
		 "valence_orbital": [ 
			{
				"type": "occ",
				"energy": -0.32471,
				"method": "rhf"
			},
			{
				"type": "occ",
				"energy": -0.32049,
				"method": "rhf"
			},
			{
				"type": "occ",
				"energy": -0.27995,
				"method": "rhf"
			},
			{
				"type": "occ",
				"energy": -0.23971,
				"method": "rhf"
			},
			{
				"type": "occ",
				"energy": -0.23416,
				"method": "rhf"
			},
			{
				"type": "unocc",
				"energy": -0.00076,
				"method": "rhf"
			},
			{
				"type": "unocc",
				"energy": 0.02823,
				"method": "rhf"
			},
			{
				"type": "unocc",
				"energy": 0.04183,
				"method": "rhf"
			},
			{
				"type": "unocc",
				"energy": 0.06502,
				"method": "rhf"
			},
			{
				"type": "unocc",
				"energy": 0.09036,
				"method": "rhf"
			}
		],
		"cosmo_sigma_profile": { 
			"-0.025": 0.0,
			"-0.024": 0.0,
			"-0.023": 0.0,
			"-0.022": 0.0,
			"-0.021": 0.0,
			"-0.02": 0.0,
			"-0.019": 0.0,
			"-0.018": 0.359114969023,
			"-0.017": 1.16794973629,
			"-0.016": 1.09624470594,
			"-0.015": 0.839293050098,
			"-0.014": 1.17335861686,
			"-0.013": 0.766812132726,
			"-0.012": 1.45171819505,
			"-0.011": 0.936481774916,
			"-0.01": 1.4612256292,
			"-0.009": 0.792344425967,
			"-0.008": 2.56034824429,
			"-0.007": 3.35754625147,
			"-0.006": 6.80551127786,
			"-0.005": 13.1664079377,
			"-0.004": 21.7725212421,
			"-0.003": 34.7782669061,
			"-0.002": 30.6507610154,
			"-0.001": 27.501471994,
			"0.0": 23.8336835573,
			"0.001": 21.1169462551,
			"0.002": 8.80396848043,
			"0.003": 4.05433875794,
			"0.004": 3.4455889541,
			"0.005": 3.19808536064,
			"0.006": 4.95803070938,
			"0.007": 3.79610739041,
			"0.008": 4.23384068023,
			"0.009": 4.4726678309,
			"0.01": 5.80194501065,
			"0.011": 7.47436062894,
			"0.012": 6.03363128439,
			"0.013": 3.3574327025,
			"0.014": 3.91264666336,
			"0.015": 2.62274627969,
			"0.016": 0.0,
			"0.017": 0.0,
			"0.018": 0.0,
			"0.019": 0.0,
			"0.02": 0.0,
			"0.021": 0.0,
			"0.022": 0.0,
			"0.023": 0.0,
			"0.024": 0.0,
			"0.025": 0.0
		}
	}
}
