{
	 "smiles": "FC(F)(F)C(C(=O)NC1=CC=C(I)C=C1)C(F)(F)F", 
	 "Tm": 509.15, 
	 "num_atms": 25, 
	 "gaussian": { 
		 "optdone": 1, 
		 "sigma_profile": "no", 
		 "theory": "DFT", 
		 "functional": "B3LYP", 
		 "basiset": "6-31G**", 
		 "properties": { 
			 "R2extent": 7226.3685, 
			 "electric_dipole_moment_norm": 3.54941831432, 
			 "electric_quadrupole_moment_norm": 7.90379475632, 
			 "total_energy": -1125.10438125, 
			 "HOMO_LUMO_gap": 0.19024, 
			 "cosmo_polarized_energy": -103165.91, 
			 "cosmo_cavitation_energy": 35.59, 
			 "cosmo_dispersion_energy": -26.13, 
			 "cosmo_repulsion_energy": 1.86, 
			 "cosmo_total_nonelectrostatic_energy": 11.32, 
			 "SMD_solvation_energy": 7.55 
		},
		"coords": [
			{
				"x": -1.1711313222,
				"y": 0.6914554331,
				"z": -4.7814809044,
				"element": "F" 
			},
			{
				"x": -1.4466930278,
				"y": 1.1809812859,
				"z": -3.5533528259,
				"element": "C" 
			},
			{
				"x": -2.7409705416,
				"y": 1.5198335465,
				"z": -3.5274644472,
				"element": "F" 
			},
			{
				"x": -0.7001981059,
				"y": 2.2850301716,
				"z": -3.3903060135,
				"element": "F" 
			},
			{
				"x": -1.093424555,
				"y": 0.1387647141,
				"z": -2.4835389526,
				"element": "C" 
			},
			{
				"x": -1.1725512847,
				"y": 0.7528604516,
				"z": -1.0579814827,
				"element": "C" 
			},
			{
				"x": -1.7577534544,
				"y": 1.7985594101,
				"z": -0.8457148804,
				"element": "O" 
			},
			{
				"x": -0.5075608739,
				"y": 0.0097152195,
				"z": -0.1180061658,
				"element": "N" 
			},
			{
				"x": -0.3893266732,
				"y": 0.2586726588,
				"z": 1.268379199,
				"element": "C" 
			},
			{
				"x": 0.2712430438,
				"y": -0.7115313714,
				"z": 2.0365004448,
				"element": "C" 
			},
			{
				"x": 0.4409485832,
				"y": -0.5406816498,
				"z": 3.4070681951,
				"element": "C" 
			},
			{
				"x": -0.053021769,
				"y": 0.612270775,
				"z": 4.0202141532,
				"element": "C" 
			},
			{
				"x": 0.1996703385,
				"y": 0.8845405123,
				"z": 6.1060441087,
				"element": "I" 
			},
			{
				"x": -0.7110993337,
				"y": 1.583506788,
				"z": 3.2654239951,
				"element": "C" 
			},
			{
				"x": -0.882564672,
				"y": 1.4140088429,
				"z": 1.8912100858,
				"element": "C" 
			},
			{
				"x": -1.961180151,
				"y": -1.1214279813,
				"z": -2.5801163374,
				"element": "C" 
			},
			{
				"x": -2.0380355462,
				"y": -1.5986012713,
				"z": -3.8299659176,
				"element": "F" 
			},
			{
				"x": -3.2053087984,
				"y": -0.9090634342,
				"z": -2.1318360943,
				"element": "F" 
			},
			{
				"x": -1.4096935905,
				"y": -2.1035492198,
				"z": -1.8133577369,
				"element": "F" 
			},
			{
				"x": -0.0668869123,
				"y": -0.1746615974,
				"z": -2.6974494734,
				"element": "H" 
			},
			{
				"x": -0.1518404197,
				"y": -0.8856619811,
				"z": -0.4228138094,
				"element": "H" 
			},
			{
				"x": 0.6577307915,
				"y": -1.6104429419,
				"z": 1.561707841,
				"element": "H" 
			},
			{
				"x": 0.9531634929,
				"y": -1.3014320565,
				"z": 3.9849020808,
				"element": "H" 
			},
			{
				"x": -1.0967019506,
				"y": 2.4796289357,
				"z": 3.7384062829,
				"element": "H" 
			},
			{
				"x": -1.3953132677,
				"y": 2.1640247597,
				"z": 1.3063286554,
				"element": "H" 
			}
		],
		 "valence_orbital": [ 
			{
				"type": "occ",
				"energy": -0.28861,
				"method": "rhf"
			},
			{
				"type": "occ",
				"energy": -0.28369,
				"method": "rhf"
			},
			{
				"type": "occ",
				"energy": -0.27494,
				"method": "rhf"
			},
			{
				"type": "occ",
				"energy": -0.27258,
				"method": "rhf"
			},
			{
				"type": "occ",
				"energy": -0.23382,
				"method": "rhf"
			},
			{
				"type": "unocc",
				"energy": -0.04358,
				"method": "rhf"
			},
			{
				"type": "unocc",
				"energy": -0.04265,
				"method": "rhf"
			},
			{
				"type": "unocc",
				"energy": -0.02529,
				"method": "rhf"
			},
			{
				"type": "unocc",
				"energy": 0.00775,
				"method": "rhf"
			},
			{
				"type": "unocc",
				"energy": 0.03963,
				"method": "rhf"
			}
		],
		"cosmo_sigma_profile": { 
			"0.0": 0.0,
			"0.0": 0.0,
			"0.0": 0.0,
			"0.0": 0.0,
			"0.0": 0.0,
			"0.0": 0.0,
			"0.0": 0.0,
			"0.0": 0.0,
			"0.0": 0.0,
			"0.0": 0.0,
			"0.0": 0.0,
			"0.0": 0.0,
			"0.0": 0.0,
			"0.0": 0.0,
			"0.0": 0.0,
			"0.0": 0.0,
			"0.0": 0.0,
			"0.0": 0.0,
			"0.0": 0.0,
			"0.0": 0.0,
			"0.0": 0.0,
			"0.0": 0.0,
			"0.0": 0.0,
			"0.0": 0.0,
			"0.0": 0.0,
			"0.0": 0.0,
			"0.0": 0.0,
			"0.0": 0.0,
			"0.0": 0.0,
			"0.0": 0.0,
			"0.0": 0.0,
			"0.0": 0.0,
			"0.0": 0.0,
			"0.0": 0.0,
			"0.0": 0.0,
			"0.0": 0.0,
			"0.0": 0.0,
			"0.0": 0.0,
			"0.0": 0.0,
			"0.0": 0.0,
			"0.0": 0.0,
			"0.0": 0.0,
			"0.0": 0.0,
			"0.0": 0.0,
			"0.0": 0.0,
			"0.0": 0.0,
			"0.0": 0.0,
			"0.0": 0.0,
			"0.0": 0.0,
			"0.0": 0.0,
			"0.0": 0.0
		}
	}
}
