{
	 "smiles": "CC1=NC=C(CC(O)=O)C=C1", 
	 "Tm": 433.15, 
	 "num_atms": 20, 
	 "gaussian": { 
		 "optdone": 1, 
		 "sigma_profile": "yes", 
		 "theory": "DFT", 
		 "functional": "B3LYP", 
		 "basiset": "6-31G**", 
		 "properties": { 
			 "R2extent": 2960.9739, 
			 "electric_dipole_moment_norm": 2.85625468227, 
			 "electric_quadrupole_moment_norm": 11.6897078954, 
			 "total_energy": -515.493568032, 
			 "HOMO_LUMO_gap": 0.22585, 
			 "cosmo_polarized_energy": -13.34, 
			 "cosmo_cavitation_energy": 24.59, 
			 "cosmo_dispersion_energy": -17.88, 
			 "cosmo_repulsion_energy": 1.46, 
			 "cosmo_total_nonelectrostatic_energy": 8.17, 
			 "SMD_solvation_energy": 4.04 
		},
		"coords": [
			{
				"x": 1.4210677547,
				"y": -2.2165646333,
				"z": 4.5086875725,
				"element": "C" 
			},
			{
				"x": 0.9568724913,
				"y": -1.4319391504,
				"z": 3.3072548423,
				"element": "C" 
			},
			{
				"x": 1.9200773647,
				"y": -0.9189626401,
				"z": 2.519919566,
				"element": "N" 
			},
			{
				"x": 1.5556017735,
				"y": -0.215571968,
				"z": 1.4475410635,
				"element": "C" 
			},
			{
				"x": 0.2255432098,
				"y": 0.026768678,
				"z": 1.0748899327,
				"element": "C" 
			},
			{
				"x": -0.1142122606,
				"y": 0.8214843144,
				"z": -0.1612599301,
				"element": "C" 
			},
			{
				"x": 0.2916765994,
				"y": 2.2868434978,
				"z": -0.0910450046,
				"element": "C" 
			},
			{
				"x": -0.3903631628,
				"y": 3.0179790755,
				"z": -1.0065154894,
				"element": "O" 
			},
			{
				"x": 1.1266574719,
				"y": 2.7670882011,
				"z": 0.6396109825,
				"element": "O" 
			},
			{
				"x": -0.7651131734,
				"y": -0.5109466229,
				"z": 1.8966870555,
				"element": "C" 
			},
			{
				"x": -0.4001812509,
				"y": -1.2464949689,
				"z": 3.0231297617,
				"element": "C" 
			},
			{
				"x": 0.5808364341,
				"y": -2.6091856647,
				"z": 5.0873557213,
				"element": "H" 
			},
			{
				"x": 2.0310518727,
				"y": -1.584658099,
				"z": 5.162628972,
				"element": "H" 
			},
			{
				"x": 2.0530845335,
				"y": -3.0540830289,
				"z": 4.1957271256,
				"element": "H" 
			},
			{
				"x": 2.3666857607,
				"y": 0.1874854487,
				"z": 0.8433310507,
				"element": "H" 
			},
			{
				"x": -1.183640648,
				"y": 0.7701303767,
				"z": -0.3853384917,
				"element": "H" 
			},
			{
				"x": 0.3957780522,
				"y": 0.4103877219,
				"z": -1.0438114429,
				"element": "H" 
			},
			{
				"x": -0.0527823445,
				"y": 3.9266623352,
				"z": -0.9317855784,
				"element": "H" 
			},
			{
				"x": -1.8155330667,
				"y": -0.3579790369,
				"z": 1.6595004055,
				"element": "H" 
			},
			{
				"x": -1.1580074117,
				"y": -1.6729438365,
				"z": 3.6733918853,
				"element": "H" 
			}
		],
		 "valence_orbital": [ 
			{
				"type": "occ",
				"energy": -0.32428,
				"method": "rhf"
			},
			{
				"type": "occ",
				"energy": -0.28668,
				"method": "rhf"
			},
			{
				"type": "occ",
				"energy": -0.27527,
				"method": "rhf"
			},
			{
				"type": "occ",
				"energy": -0.24629,
				"method": "rhf"
			},
			{
				"type": "occ",
				"energy": -0.24566,
				"method": "rhf"
			},
			{
				"type": "unocc",
				"energy": -0.01981,
				"method": "rhf"
			},
			{
				"type": "unocc",
				"energy": -0.00825,
				"method": "rhf"
			},
			{
				"type": "unocc",
				"energy": 0.00719,
				"method": "rhf"
			},
			{
				"type": "unocc",
				"energy": 0.07496,
				"method": "rhf"
			},
			{
				"type": "unocc",
				"energy": 0.09222,
				"method": "rhf"
			}
		],
		"cosmo_sigma_profile": { 
			"-0.025": 0.0,
			"-0.024": 0.0,
			"-0.023": 0.0,
			"-0.022": 0.0,
			"-0.021": 0.0,
			"-0.02": 0.0,
			"-0.019": 0.0552301562789,
			"-0.018": 0.83728635164,
			"-0.017": 1.04884111305,
			"-0.016": 0.839489173004,
			"-0.015": 0.166067024218,
			"-0.014": 0.807277211157,
			"-0.013": 0.538349977858,
			"-0.012": 0.984061942211,
			"-0.011": 0.830742576735,
			"-0.01": 1.04589627919,
			"-0.009": 0.438518584667,
			"-0.008": 2.36383039818,
			"-0.007": 8.03480111673,
			"-0.006": 11.3005564434,
			"-0.005": 13.6950012478,
			"-0.004": 15.6275229677,
			"-0.003": 13.7170977604,
			"-0.002": 13.1989851621,
			"-0.001": 13.0133111743,
			"0.0": 15.888935904,
			"0.001": 10.5598471305,
			"0.002": 10.5874504983,
			"0.003": 12.4036940551,
			"0.004": 6.99846600639,
			"0.005": 4.30332247106,
			"0.006": 4.94526002319,
			"0.007": 5.15138357828,
			"0.008": 4.20393710745,
			"0.009": 4.68490829587,
			"0.01": 4.39346155535,
			"0.011": 5.07591214665,
			"0.012": 3.59349966429,
			"0.013": 0.756370991239,
			"0.014": 0.845908129416,
			"0.015": 0.462361411036,
			"0.016": 1.10559334472,
			"0.017": 0.379365347635,
			"0.018": 0.011589633853,
			"0.019": 0.0,
			"0.02": 0.0,
			"0.021": 0.0,
			"0.022": 0.0,
			"0.023": 0.0,
			"0.024": 0.0,
			"0.025": 0.0
		}
	}
}
