{
	 "smiles": "COC(=O)C1=CC=CC(=C1)[N+]([O-])=O", 
	 "Tm": 352.15, 
	 "num_atms": 20, 
	 "gaussian": { 
		 "optdone": 1, 
		 "sigma_profile": "yes", 
		 "theory": "DFT", 
		 "functional": "B3LYP", 
		 "basiset": "6-31G**", 
		 "properties": { 
			 "R2extent": 2874.2211, 
			 "electric_dipole_moment_norm": 2.79407985033, 
			 "electric_quadrupole_moment_norm": 17.9927412214, 
			 "total_energy": -664.626388472, 
			 "HOMO_LUMO_gap": 0.19136, 
			 "cosmo_polarized_energy": -10.28, 
			 "cosmo_cavitation_energy": 25.87, 
			 "cosmo_dispersion_energy": -18.87, 
			 "cosmo_repulsion_energy": 1.49, 
			 "cosmo_total_nonelectrostatic_energy": 8.49, 
			 "SMD_solvation_energy": 8.43 
		},
		"coords": [
			{
				"x": -3.5478853132,
				"y": 2.0157726149,
				"z": 0.9648901186,
				"element": "C" 
			},
			{
				"x": -2.3241104929,
				"y": 1.3247447214,
				"z": 0.6606812748,
				"element": "O" 
			},
			{
				"x": -1.9061371452,
				"y": 0.4508021378,
				"z": 1.597919814,
				"element": "C" 
			},
			{
				"x": -2.4997653031,
				"y": 0.2413239965,
				"z": 2.6369844411,
				"element": "O" 
			},
			{
				"x": -0.6303844155,
				"y": -0.2264383949,
				"z": 1.2139568998,
				"element": "C" 
			},
			{
				"x": -0.0892279493,
				"y": -1.1605842601,
				"z": 2.1085615021,
				"element": "C" 
			},
			{
				"x": 1.0987673465,
				"y": -1.8237809088,
				"z": 1.8040753691,
				"element": "C" 
			},
			{
				"x": 1.7591017508,
				"y": -1.5621348747,
				"z": 0.6044157015,
				"element": "C" 
			},
			{
				"x": 1.2051460027,
				"y": -0.6298758096,
				"z": -0.2720968979,
				"element": "C" 
			},
			{
				"x": 0.021501199,
				"y": 0.045474444,
				"z": 0.0074989139,
				"element": "C" 
			},
			{
				"x": 1.8987285076,
				"y": -0.3489546355,
				"z": -1.5422610346,
				"element": "N" 
			},
			{
				"x": 1.390721905,
				"y": 0.4771389329,
				"z": -2.2983402486,
				"element": "O" 
			},
			{
				"x": 2.9433732824,
				"y": -0.9588603304,
				"z": -1.7663219464,
				"element": "O" 
			},
			{
				"x": -3.7335712903,
				"y": 2.6703845052,
				"z": 0.1140465851,
				"element": "H" 
			},
			{
				"x": -3.4403121923,
				"y": 2.5979009507,
				"z": 1.8832793555,
				"element": "H" 
			},
			{
				"x": -4.3677203838,
				"y": 1.3044599215,
				"z": 1.0905469601,
				"element": "H" 
			},
			{
				"x": -0.6179966749,
				"y": -1.3501352386,
				"z": 3.0365101095,
				"element": "H" 
			},
			{
				"x": 1.5130207154,
				"y": -2.5458105712,
				"z": 2.50020082,
				"element": "H" 
			},
			{
				"x": 2.6831985542,
				"y": -2.0589605968,
				"z": 0.3364082276,
				"element": "H" 
			},
			{
				"x": -0.3741481031,
				"y": 0.7612333957,
				"z": -0.7000559654,
				"element": "H" 
			}
		],
		 "valence_orbital": [ 
			{
				"type": "occ",
				"energy": -0.31355,
				"method": "rhf"
			},
			{
				"type": "occ",
				"energy": -0.29686,
				"method": "rhf"
			},
			{
				"type": "occ",
				"energy": -0.28998,
				"method": "rhf"
			},
			{
				"type": "occ",
				"energy": -0.28927,
				"method": "rhf"
			},
			{
				"type": "occ",
				"energy": -0.28673,
				"method": "rhf"
			},
			{
				"type": "unocc",
				"energy": -0.09537,
				"method": "rhf"
			},
			{
				"type": "unocc",
				"energy": -0.06487,
				"method": "rhf"
			},
			{
				"type": "unocc",
				"energy": -0.01284,
				"method": "rhf"
			},
			{
				"type": "unocc",
				"energy": 0.04463,
				"method": "rhf"
			},
			{
				"type": "unocc",
				"energy": 0.07769,
				"method": "rhf"
			}
		],
		"cosmo_sigma_profile": { 
			"-0.025": 0.0,
			"-0.024": 0.0,
			"-0.023": 0.0,
			"-0.022": 0.0,
			"-0.021": 0.0,
			"-0.02": 0.0,
			"-0.019": 0.0,
			"-0.018": 0.0,
			"-0.017": 0.0,
			"-0.016": 0.0,
			"-0.015": 0.0,
			"-0.014": 0.0,
			"-0.013": 0.0,
			"-0.012": 0.0,
			"-0.011": 0.0,
			"-0.01": 0.0,
			"-0.009": 0.0886081658799,
			"-0.008": 3.09580403423,
			"-0.007": 8.97356521351,
			"-0.006": 12.64948756,
			"-0.005": 14.4027299425,
			"-0.004": 18.4951660525,
			"-0.003": 17.4868000491,
			"-0.002": 16.6393168055,
			"-0.001": 22.1572387319,
			"0.0": 17.8505788532,
			"0.001": 13.0695901344,
			"0.002": 7.02301686077,
			"0.003": 4.56257724973,
			"0.004": 6.37482608685,
			"0.005": 5.75976118856,
			"0.006": 5.57566292614,
			"0.007": 10.0040630272,
			"0.008": 8.13129076757,
			"0.009": 5.78223205808,
			"0.01": 3.61396739353,
			"0.011": 4.14748605904,
			"0.012": 1.78834099184,
			"0.013": 0.0,
			"0.014": 0.0,
			"0.015": 0.0,
			"0.016": 0.0,
			"0.017": 0.0,
			"0.018": 0.0,
			"0.019": 0.0,
			"0.02": 0.0,
			"0.021": 0.0,
			"0.022": 0.0,
			"0.023": 0.0,
			"0.024": 0.0,
			"0.025": 0.0
		}
	}
}
