{
	 "smiles": "NCC1=NN=C2C(CCCN12)C(F)(F)F", 
	 "Tm": 355.15, 
	 "num_atms": 26, 
	 "gaussian": { 
		 "optdone": 1, 
		 "sigma_profile": "yes", 
		 "theory": "DFT", 
		 "functional": "B3LYP", 
		 "basiset": "6-31G**", 
		 "properties": { 
			 "R2extent": 3660.123, 
			 "electric_dipole_moment_norm": 5.81112387323, 
			 "electric_quadrupole_moment_norm": 7.13591489019, 
			 "total_energy": -830.00339421, 
			 "HOMO_LUMO_gap": 0.254, 
			 "cosmo_polarized_energy": -19.94, 
			 "cosmo_cavitation_energy": 29.34, 
			 "cosmo_dispersion_energy": -21.09, 
			 "cosmo_repulsion_energy": 1.6, 
			 "cosmo_total_nonelectrostatic_energy": 9.84, 
			 "SMD_solvation_energy": 1.78 
		},
		"coords": [
			{
				"x": -2.1604111175,
				"y": 3.3985195816,
				"z": 2.5923418581,
				"element": "N" 
			},
			{
				"x": -2.1337989136,
				"y": 2.6878238417,
				"z": 1.3204782985,
				"element": "C" 
			},
			{
				"x": -0.9251060195,
				"y": 1.8084168083,
				"z": 1.1152741107,
				"element": "C" 
			},
			{
				"x": 0.0300525999,
				"y": 1.6200571768,
				"z": 1.9989132815,
				"element": "N" 
			},
			{
				"x": 0.94591196,
				"y": 0.7429142262,
				"z": 1.452099991,
				"element": "N" 
			},
			{
				"x": 0.5175572995,
				"y": 0.4316992444,
				"z": 0.2525217405,
				"element": "C" 
			},
			{
				"x": 1.1713495548,
				"y": -0.4896948888,
				"z": -0.7367502909,
				"element": "C" 
			},
			{
				"x": 0.1637560649,
				"y": -0.9082603466,
				"z": -1.8333244767,
				"element": "C" 
			},
			{
				"x": -0.6724735947,
				"y": 0.2770035627,
				"z": -2.3406411119,
				"element": "C" 
			},
			{
				"x": -1.497470157,
				"y": 0.900189636,
				"z": -1.2099113276,
				"element": "C" 
			},
			{
				"x": -0.6635421274,
				"y": 1.0825715127,
				"z": -0.0212530363,
				"element": "N" 
			},
			{
				"x": 2.4406260874,
				"y": 0.1341582538,
				"z": -1.3245928675,
				"element": "C" 
			},
			{
				"x": 2.9894720116,
				"y": -0.6903106327,
				"z": -2.2490751732,
				"element": "F" 
			},
			{
				"x": 2.1949475186,
				"y": 1.3154734271,
				"z": -1.9424620118,
				"element": "F" 
			},
			{
				"x": 3.3668720968,
				"y": 0.355865521,
				"z": -0.3818928917,
				"element": "F" 
			},
			{
				"x": -2.0755754461,
				"y": 2.7164971226,
				"z": 3.3436478873,
				"element": "H" 
			},
			{
				"x": -1.313482161,
				"y": 3.9588387522,
				"z": 2.6665965234,
				"element": "H" 
			},
			{
				"x": -2.1940604999,
				"y": 3.4227365341,
				"z": 0.5057305047,
				"element": "H" 
			},
			{
				"x": -3.0460538599,
				"y": 2.0802552504,
				"z": 1.2391917024,
				"element": "H" 
			},
			{
				"x": 1.5243764943,
				"y": -1.3764902663,
				"z": -0.200499863,
				"element": "H" 
			},
			{
				"x": 0.7015147468,
				"y": -1.3797136548,
				"z": -2.6592684192,
				"element": "H" 
			},
			{
				"x": -0.5015227559,
				"y": -1.6702984647,
				"z": -1.4103356191,
				"element": "H" 
			},
			{
				"x": -0.0153404158,
				"y": 1.0339263252,
				"z": -2.7768868761,
				"element": "H" 
			},
			{
				"x": -1.3566813758,
				"y": -0.0544032553,
				"z": -3.1280138178,
				"element": "H" 
			},
			{
				"x": -2.3441017528,
				"y": 0.2505781552,
				"z": -0.951686918,
				"element": "H" 
			},
			{
				"x": -1.9048162377,
				"y": 1.8701465772,
				"z": -1.5110011972,
				"element": "H" 
			}
		],
		 "valence_orbital": [ 
			{
				"type": "occ",
				"energy": -0.3047,
				"method": "rhf"
			},
			{
				"type": "occ",
				"energy": -0.28802,
				"method": "rhf"
			},
			{
				"type": "occ",
				"energy": -0.25548,
				"method": "rhf"
			},
			{
				"type": "occ",
				"energy": -0.25084,
				"method": "rhf"
			},
			{
				"type": "occ",
				"energy": -0.24348,
				"method": "rhf"
			},
			{
				"type": "unocc",
				"energy": 0.01052,
				"method": "rhf"
			},
			{
				"type": "unocc",
				"energy": 0.03905,
				"method": "rhf"
			},
			{
				"type": "unocc",
				"energy": 0.0622,
				"method": "rhf"
			},
			{
				"type": "unocc",
				"energy": 0.08511,
				"method": "rhf"
			},
			{
				"type": "unocc",
				"energy": 0.09012,
				"method": "rhf"
			}
		],
		"cosmo_sigma_profile": { 
			"-0.025": 0.0,
			"-0.024": 0.0,
			"-0.023": 0.0,
			"-0.022": 0.0,
			"-0.021": 0.0,
			"-0.02": 0.0,
			"-0.019": 0.0,
			"-0.018": 0.0,
			"-0.017": 0.0,
			"-0.016": 0.0,
			"-0.015": 0.0,
			"-0.014": 0.0,
			"-0.013": 0.0,
			"-0.012": 0.0,
			"-0.011": 0.0,
			"-0.01": 0.709129691709,
			"-0.009": 2.82592753939,
			"-0.008": 5.83599068795,
			"-0.007": 9.85650633149,
			"-0.006": 22.2988045754,
			"-0.005": 23.6138795563,
			"-0.004": 20.7171536708,
			"-0.003": 16.6382949778,
			"-0.002": 14.7071197976,
			"-0.001": 9.82451763259,
			"0.0": 8.86257089003,
			"0.001": 9.29368338218,
			"0.002": 19.0833938001,
			"0.003": 23.4596407826,
			"0.004": 3.84257567741,
			"0.005": 3.27688846526,
			"0.006": 2.02212079614,
			"0.007": 3.51903411631,
			"0.008": 2.44113976672,
			"0.009": 2.96919110748,
			"0.01": 2.68820977829,
			"0.011": 3.35686118409,
			"0.012": 3.04701800251,
			"0.013": 2.59582382048,
			"0.014": 4.08372651391,
			"0.015": 3.57386949587,
			"0.016": 2.83211503883,
			"0.017": 1.94740015695,
			"0.018": 0.390574619714,
			"0.019": 0.444041608992,
			"0.02": 0.0,
			"0.021": 0.0,
			"0.022": 0.0,
			"0.023": 0.0,
			"0.024": 0.0,
			"0.025": 0.0
		}
	}
}
