{
	 "smiles": "NC1=C(C#N)C(C(C#N)C#N)C2=CC(Br)=CC(Br)=C2O1", 
	 "Tm": 573.15, 
	 "num_atms": 26, 
	 "gaussian": { 
		 "optdone": 1, 
		 "sigma_profile": "yes", 
		 "theory": "DFT", 
		 "functional": "B3LYP", 
		 "basiset": "6-31G**", 
		 "properties": { 
			 "R2extent": 10210.0272, 
			 "electric_dipole_moment_norm": 5.96745954238, 
			 "electric_quadrupole_moment_norm": 33.7002943141, 
			 "total_energy": -5935.95231016, 
			 "HOMO_LUMO_gap": 0.17803, 
			 "cosmo_polarized_energy": -26.79, 
			 "cosmo_cavitation_energy": 38.8, 
			 "cosmo_dispersion_energy": -25.65, 
			 "cosmo_repulsion_energy": 2.0, 
			 "cosmo_total_nonelectrostatic_energy": 15.15, 
			 "SMD_solvation_energy": 8.22 
		},
		"coords": [
			{
				"x": 4.3058851289,
				"y": -0.9221202018,
				"z": -0.5184094753,
				"element": "N" 
			},
			{
				"x": 2.9994045349,
				"y": -0.7199801395,
				"z": -0.2450461376,
				"element": "C" 
			},
			{
				"x": 1.9513316546,
				"y": -0.8840690901,
				"z": -1.1153630856,
				"element": "C" 
			},
			{
				"x": 2.2252243107,
				"y": -1.4616497401,
				"z": -2.3798801095,
				"element": "C" 
			},
			{
				"x": 2.5081603919,
				"y": -1.9627693458,
				"z": -3.3954554754,
				"element": "N" 
			},
			{
				"x": 0.5616010252,
				"y": -0.4384905157,
				"z": -0.7325890208,
				"element": "C" 
			},
			{
				"x": 0.161117702,
				"y": 0.9883695873,
				"z": -1.318830829,
				"element": "C" 
			},
			{
				"x": 0.0279802814,
				"y": 0.9689117872,
				"z": -2.783566597,
				"element": "C" 
			},
			{
				"x": -0.118926479,
				"y": 0.9389036317,
				"z": -3.9334677396,
				"element": "N" 
			},
			{
				"x": 1.1032084018,
				"y": 2.033156992,
				"z": -0.8899009211,
				"element": "C" 
			},
			{
				"x": 1.8506688446,
				"y": 2.8371212742,
				"z": -0.5159968065,
				"element": "N" 
			},
			{
				"x": 0.420774015,
				"y": -0.4215130603,
				"z": 0.7764492318,
				"element": "C" 
			},
			{
				"x": -0.834916978,
				"y": -0.4712274718,
				"z": 1.3903439531,
				"element": "C" 
			},
			{
				"x": -0.9372874035,
				"y": -0.4037130913,
				"z": 2.7759723339,
				"element": "C" 
			},
			{
				"x": -2.6529731319,
				"y": -0.4677169575,
				"z": 3.5992837749,
				"element": "Br" 
			},
			{
				"x": 0.1999983138,
				"y": -0.2898594446,
				"z": 3.5751775869,
				"element": "C" 
			},
			{
				"x": 1.4528999649,
				"y": -0.2584446398,
				"z": 2.9705206015,
				"element": "C" 
			},
			{
				"x": 3.0083339409,
				"y": -0.134741812,
				"z": 4.0497447751,
				"element": "Br" 
			},
			{
				"x": 1.5628597464,
				"y": -0.3269061464,
				"z": 1.576566974,
				"element": "C" 
			},
			{
				"x": 2.8282641268,
				"y": -0.31070926,
				"z": 1.0389093509,
				"element": "O" 
			},
			{
				"x": 4.949407723,
				"y": -1.031571073,
				"z": 0.2494123697,
				"element": "H" 
			},
			{
				"x": 4.5676393458,
				"y": -1.2627910017,
				"z": -1.4308336381,
				"element": "H" 
			},
			{
				"x": -0.1776146359,
				"y": -1.128144944,
				"z": -1.1539475953,
				"element": "H" 
			},
			{
				"x": -0.8248289933,
				"y": 1.2466397533,
				"z": -0.9093054797,
				"element": "H" 
			},
			{
				"x": -1.7306355679,
				"y": -0.5636659283,
				"z": 0.7851037562,
				"element": "H" 
			},
			{
				"x": 0.1176237367,
				"y": -0.236519162,
				"z": 4.6530082025,
				"element": "H" 
			}
		],
		 "valence_orbital": [ 
			{
				"type": "occ",
				"energy": -0.31588,
				"method": "rhf"
			},
			{
				"type": "occ",
				"energy": -0.31113,
				"method": "rhf"
			},
			{
				"type": "occ",
				"energy": -0.28226,
				"method": "rhf"
			},
			{
				"type": "occ",
				"energy": -0.2641,
				"method": "rhf"
			},
			{
				"type": "occ",
				"energy": -0.24038,
				"method": "rhf"
			},
			{
				"type": "unocc",
				"energy": -0.06235,
				"method": "rhf"
			},
			{
				"type": "unocc",
				"energy": -0.05353,
				"method": "rhf"
			},
			{
				"type": "unocc",
				"energy": -0.03874,
				"method": "rhf"
			},
			{
				"type": "unocc",
				"energy": -0.02593,
				"method": "rhf"
			},
			{
				"type": "unocc",
				"energy": -0.01205,
				"method": "rhf"
			}
		],
		"cosmo_sigma_profile": { 
			"-0.025": 0.0,
			"-0.024": 0.0,
			"-0.023": 0.0,
			"-0.022": 0.0,
			"-0.021": 0.0,
			"-0.02": 0.0,
			"-0.019": 0.0,
			"-0.018": 0.0,
			"-0.017": 0.0,
			"-0.016": 0.634706482766,
			"-0.015": 2.16678811947,
			"-0.014": 3.12379162805,
			"-0.013": 5.2740656947,
			"-0.012": 5.86282069558,
			"-0.011": 5.00984361799,
			"-0.01": 6.53506660135,
			"-0.009": 7.84783455125,
			"-0.008": 7.01969848847,
			"-0.007": 6.36897468152,
			"-0.006": 8.7495116408,
			"-0.005": 11.0509516904,
			"-0.004": 12.9468258531,
			"-0.003": 16.4294793305,
			"-0.002": 18.2300961005,
			"-0.001": 21.7935178603,
			"0.0": 28.5192564748,
			"0.001": 21.5791838099,
			"0.002": 19.9911382676,
			"0.003": 24.5733476547,
			"0.004": 22.0126495267,
			"0.005": 8.92051788764,
			"0.006": 8.59401832062,
			"0.007": 8.64197593763,
			"0.008": 7.79744970426,
			"0.009": 8.4239770495,
			"0.01": 8.03149192544,
			"0.011": 7.52537031439,
			"0.012": 4.0892036504,
			"0.013": 2.5946028805,
			"0.014": 0.985998850289,
			"0.015": 0.0,
			"0.016": 0.0,
			"0.017": 0.0,
			"0.018": 0.0,
			"0.019": 0.0,
			"0.02": 0.0,
			"0.021": 0.0,
			"0.022": 0.0,
			"0.023": 0.0,
			"0.024": 0.0,
			"0.025": 0.0
		}
	}
}
