{
	 "smiles": "CCOC1=CC(OCC)=CC=C1", 
	 "Tm": 284.85, 
	 "num_atms": 26, 
	 "gaussian": { 
		 "optdone": 1, 
		 "sigma_profile": "yes", 
		 "theory": "DFT", 
		 "functional": "B3LYP", 
		 "basiset": "6-31G**", 
		 "properties": { 
			 "R2extent": 2674.1591, 
			 "electric_dipole_moment_norm": 2.65691929309, 
			 "electric_quadrupole_moment_norm": 5.80893399343, 
			 "total_energy": -539.939933941, 
			 "HOMO_LUMO_gap": 0.214, 
			 "cosmo_polarized_energy": -7.55, 
			 "cosmo_cavitation_energy": 28.69, 
			 "cosmo_dispersion_energy": -20.85, 
			 "cosmo_repulsion_energy": 1.71, 
			 "cosmo_total_nonelectrostatic_energy": 9.55, 
			 "SMD_solvation_energy": 5.68 
		},
		"coords": [
			{
				"x": 3.321182943,
				"y": -0.0067315429,
				"z": 0.6364618148,
				"element": "C" 
			},
			{
				"x": 2.9202795409,
				"y": 0.1945337395,
				"z": -0.8221612971,
				"element": "C" 
			},
			{
				"x": 2.1019386092,
				"y": -0.8640190462,
				"z": -1.3193367123,
				"element": "O" 
			},
			{
				"x": 0.7622763211,
				"y": -0.8920003402,
				"z": -1.0440084518,
				"element": "C" 
			},
			{
				"x": 0.0797180945,
				"y": 0.1069435861,
				"z": -0.3326079775,
				"element": "C" 
			},
			{
				"x": -1.3025082883,
				"y": -0.0189243198,
				"z": -0.1306440262,
				"element": "C" 
			},
			{
				"x": -2.0559287304,
				"y": 0.8977341777,
				"z": 0.5471887339,
				"element": "O" 
			},
			{
				"x": -1.4260647541,
				"y": 2.0586233336,
				"z": 1.0805123674,
				"element": "C" 
			},
			{
				"x": -2.4993590013,
				"y": 2.888724706,
				"z": 1.7639196035,
				"element": "C" 
			},
			{
				"x": -1.9982215831,
				"y": -1.127867485,
				"z": -0.626694588,
				"element": "C" 
			},
			{
				"x": -1.299821014,
				"y": -2.107788009,
				"z": -1.3271111215,
				"element": "C" 
			},
			{
				"x": 0.0727808381,
				"y": -2.003684345,
				"z": -1.5417956632,
				"element": "C" 
			},
			{
				"x": 2.4521468479,
				"y": 0.0005275359,
				"z": 1.2997727341,
				"element": "H" 
			},
			{
				"x": 4.002150259,
				"y": 0.7906749116,
				"z": 0.9531483649,
				"element": "H" 
			},
			{
				"x": 3.8330610668,
				"y": -0.9656058372,
				"z": 0.7578294675,
				"element": "H" 
			},
			{
				"x": 2.4294770278,
				"y": 1.1643917567,
				"z": -0.9760141966,
				"element": "H" 
			},
			{
				"x": 3.8072555397,
				"y": 0.1761495196,
				"z": -1.4622579753,
				"element": "H" 
			},
			{
				"x": 0.6102516058,
				"y": 0.963079482,
				"z": 0.0580027128,
				"element": "H" 
			},
			{
				"x": -0.9452793513,
				"y": 2.6309329276,
				"z": 0.2738451707,
				"element": "H" 
			},
			{
				"x": -0.6437919929,
				"y": 1.767790668,
				"z": 1.7968666769,
				"element": "H" 
			},
			{
				"x": -2.9726627636,
				"y": 2.3187142983,
				"z": 2.568236646,
				"element": "H" 
			},
			{
				"x": -2.0600515444,
				"y": 3.7952352725,
				"z": 2.1916578165,
				"element": "H" 
			},
			{
				"x": -3.273050587,
				"y": 3.1812839178,
				"z": 1.0486232834,
				"element": "H" 
			},
			{
				"x": -3.065892331,
				"y": -1.1980986004,
				"z": -0.4514737292,
				"element": "H" 
			},
			{
				"x": -1.8354187974,
				"y": -2.9698998088,
				"z": -1.714590268,
				"element": "H" 
			},
			{
				"x": 0.6256320448,
				"y": -2.7591204984,
				"z": -2.0888693857,
				"element": "H" 
			}
		],
		 "valence_orbital": [ 
			{
				"type": "occ",
				"energy": -0.32601,
				"method": "rhf"
			},
			{
				"type": "occ",
				"energy": -0.31672,
				"method": "rhf"
			},
			{
				"type": "occ",
				"energy": -0.28867,
				"method": "rhf"
			},
			{
				"type": "occ",
				"energy": -0.22972,
				"method": "rhf"
			},
			{
				"type": "occ",
				"energy": -0.20023,
				"method": "rhf"
			},
			{
				"type": "unocc",
				"energy": 0.01377,
				"method": "rhf"
			},
			{
				"type": "unocc",
				"energy": 0.02449,
				"method": "rhf"
			},
			{
				"type": "unocc",
				"energy": 0.0829,
				"method": "rhf"
			},
			{
				"type": "unocc",
				"energy": 0.10176,
				"method": "rhf"
			},
			{
				"type": "unocc",
				"energy": 0.11243,
				"method": "rhf"
			}
		],
		"cosmo_sigma_profile": { 
			"-0.025": 0.0,
			"-0.024": 0.0,
			"-0.023": 0.0,
			"-0.022": 0.0,
			"-0.021": 0.0,
			"-0.02": 0.0,
			"-0.019": 0.0,
			"-0.018": 0.0,
			"-0.017": 0.0,
			"-0.016": 0.0,
			"-0.015": 0.0,
			"-0.014": 0.0,
			"-0.013": 0.0,
			"-0.012": 0.0,
			"-0.011": 0.0,
			"-0.01": 0.0,
			"-0.009": 0.0,
			"-0.008": 0.00372456306803,
			"-0.007": 1.49041671958,
			"-0.006": 4.28598501371,
			"-0.005": 14.9514009405,
			"-0.004": 25.5249951987,
			"-0.003": 31.1474343839,
			"-0.002": 23.6493313491,
			"-0.001": 20.0150653831,
			"0.0": 20.7211831644,
			"0.001": 13.9854801715,
			"0.002": 8.08681373967,
			"0.003": 8.98744611583,
			"0.004": 12.3767963362,
			"0.005": 15.0625267276,
			"0.006": 11.3724053087,
			"0.007": 4.40327121857,
			"0.008": 3.05339440817,
			"0.009": 2.80423504315,
			"0.01": 2.85923892334,
			"0.011": 1.16653088625,
			"0.012": 0.0,
			"0.013": 0.0,
			"0.014": 0.0,
			"0.015": 0.0,
			"0.016": 0.0,
			"0.017": 0.0,
			"0.018": 0.0,
			"0.019": 0.0,
			"0.02": 0.0,
			"0.021": 0.0,
			"0.022": 0.0,
			"0.023": 0.0,
			"0.024": 0.0,
			"0.025": 0.0
		}
	}
}
