{
	 "smiles": "FC1=C(CS(Cl)(=O)=O)C=CC=C1", 
	 "Tm": 328.65, 
	 "num_atms": 18, 
	 "gaussian": { 
		 "optdone": 1, 
		 "sigma_profile": "yes", 
		 "theory": "DFT", 
		 "functional": "B3LYP", 
		 "basiset": "6-31G**", 
		 "properties": { 
			 "R2extent": 2646.9117, 
			 "electric_dipole_moment_norm": 4.96583141579, 
			 "electric_quadrupole_moment_norm": 5.96633446096, 
			 "total_energy": -1378.96014222, 
			 "HOMO_LUMO_gap": 0.18002, 
			 "cosmo_polarized_energy": -10.81, 
			 "cosmo_cavitation_energy": 25.94, 
			 "cosmo_dispersion_energy": -19.12, 
			 "cosmo_repulsion_energy": 1.46, 
			 "cosmo_total_nonelectrostatic_energy": 8.27, 
			 "SMD_solvation_energy": 3.45 
		},
		"coords": [
			{
				"x": -0.6301510361,
				"y": 0.0381455639,
				"z": -2.6960403338,
				"element": "F" 
			},
			{
				"x": 0.3361673435,
				"y": 0.5512366494,
				"z": -1.906028011,
				"element": "C" 
			},
			{
				"x": 0.5921939951,
				"y": -0.0604337394,
				"z": -0.6746164364,
				"element": "C" 
			},
			{
				"x": -0.192394218,
				"y": -1.2606725693,
				"z": -0.256997121,
				"element": "C" 
			},
			{
				"x": -1.4218067516,
				"y": -0.9544475016,
				"z": 1.0823758876,
				"element": "S" 
			},
			{
				"x": -2.7317662412,
				"y": 0.4228372475,
				"z": 0.123269827,
				"element": "Cl" 
			},
			{
				"x": -0.784076535,
				"y": -0.2458190802,
				"z": 2.1861414501,
				"element": "O" 
			},
			{
				"x": -2.1700819059,
				"y": -2.187394293,
				"z": 1.2976551382,
				"element": "O" 
			},
			{
				"x": 1.6051156206,
				"y": 0.4875176033,
				"z": 0.1267932531,
				"element": "C" 
			},
			{
				"x": 2.3277238931,
				"y": 1.5996765492,
				"z": -0.2979582715,
				"element": "C" 
			},
			{
				"x": 2.0487450718,
				"y": 2.1822421001,
				"z": -1.5377037997,
				"element": "C" 
			},
			{
				"x": 1.0477174135,
				"y": 1.6564858145,
				"z": -2.3538366529,
				"element": "C" 
			},
			{
				"x": 0.4297131132,
				"y": -2.0357854756,
				"z": 0.2022971201,
				"element": "H" 
			},
			{
				"x": -0.7711213674,
				"y": -1.6960954905,
				"z": -1.0716859602,
				"element": "H" 
			},
			{
				"x": 1.8108088165,
				"y": 0.0399343899,
				"z": 1.0939915861,
				"element": "H" 
			},
			{
				"x": 3.1057733061,
				"y": 2.0122265043,
				"z": 0.3357963786,
				"element": "H" 
			},
			{
				"x": 2.61150224,
				"y": 3.048153619,
				"z": -1.8725424884,
				"element": "H" 
			},
			{
				"x": 0.808037242,
				"y": 2.0846921084,
				"z": -3.320711566,
				"element": "H" 
			}
		],
		 "valence_orbital": [ 
			{
				"type": "occ",
				"energy": -0.33727,
				"method": "rhf"
			},
			{
				"type": "occ",
				"energy": -0.3315,
				"method": "rhf"
			},
			{
				"type": "occ",
				"energy": -0.31421,
				"method": "rhf"
			},
			{
				"type": "occ",
				"energy": -0.27718,
				"method": "rhf"
			},
			{
				"type": "occ",
				"energy": -0.26491,
				"method": "rhf"
			},
			{
				"type": "unocc",
				"energy": -0.08489,
				"method": "rhf"
			},
			{
				"type": "unocc",
				"energy": -0.03832,
				"method": "rhf"
			},
			{
				"type": "unocc",
				"energy": -0.01976,
				"method": "rhf"
			},
			{
				"type": "unocc",
				"energy": 0.04877,
				"method": "rhf"
			},
			{
				"type": "unocc",
				"energy": 0.06273,
				"method": "rhf"
			}
		],
		"cosmo_sigma_profile": { 
			"-0.025": 0.0,
			"-0.024": 0.0,
			"-0.023": 0.0,
			"-0.022": 0.0,
			"-0.021": 0.0,
			"-0.02": 0.0,
			"-0.019": 0.0,
			"-0.018": 0.0,
			"-0.017": 0.0,
			"-0.016": 0.0,
			"-0.015": 0.0,
			"-0.014": 0.0,
			"-0.013": 0.356278095878,
			"-0.012": 1.3348074434,
			"-0.011": 2.1714973062,
			"-0.01": 3.1384641575,
			"-0.009": 3.43026751287,
			"-0.008": 4.77075283605,
			"-0.007": 9.6152794146,
			"-0.006": 10.9017448647,
			"-0.005": 12.0012883222,
			"-0.004": 8.96997433317,
			"-0.003": 8.59625925931,
			"-0.002": 8.23017235658,
			"-0.001": 11.2520649507,
			"0.0": 14.8524266107,
			"0.001": 16.7421060913,
			"0.002": 19.9877706382,
			"0.003": 27.5514610949,
			"0.004": 17.4019045411,
			"0.005": 4.09069125633,
			"0.006": 3.42098817568,
			"0.007": 3.77183894646,
			"0.008": 10.9409689835,
			"0.009": 6.75243750269,
			"0.01": 0.256664252003,
			"0.011": 0.0,
			"0.012": 0.0,
			"0.013": 0.0,
			"0.014": 0.0,
			"0.015": 0.0,
			"0.016": 0.0,
			"0.017": 0.0,
			"0.018": 0.0,
			"0.019": 0.0,
			"0.02": 0.0,
			"0.021": 0.0,
			"0.022": 0.0,
			"0.023": 0.0,
			"0.024": 0.0,
			"0.025": 0.0
		}
	}
}
