{
	 "smiles": "FC1=CC(Br)=CC(F)=C1", 
	 "Tm": 246.15, 
	 "num_atms": 12, 
	 "gaussian": { 
		 "optdone": 1, 
		 "sigma_profile": "yes", 
		 "theory": "DFT", 
		 "functional": "B3LYP", 
		 "basiset": "6-31G**", 
		 "properties": { 
			 "R2extent": 3647.1191, 
			 "electric_dipole_moment_norm": 0.256595674165, 
			 "electric_quadrupole_moment_norm": 0.995027954381, 
			 "total_energy": -3001.51445819, 
			 "HOMO_LUMO_gap": 0.22817, 
			 "cosmo_polarized_energy": -3.01, 
			 "cosmo_cavitation_energy": 19.92, 
			 "cosmo_dispersion_energy": -14.96, 
			 "cosmo_repulsion_energy": 1.18, 
			 "cosmo_total_nonelectrostatic_energy": 6.15, 
			 "SMD_solvation_energy": 3.39 
		},
		"coords": [
			{
				"x": 0.752253901,
				"y": 1.147922506,
				"z": -0.7321302596,
				"element": "F" 
			},
			{
				"x": -0.2959720588,
				"y": 1.058781078,
				"z": 0.1050130321,
				"element": "C" 
			},
			{
				"x": -0.132072715,
				"y": 0.3721417421,
				"z": 1.3043944605,
				"element": "C" 
			},
			{
				"x": -1.2315380507,
				"y": 0.2918193939,
				"z": 2.1574907515,
				"element": "C" 
			},
			{
				"x": -1.0512161997,
				"y": -0.6394317126,
				"z": 3.8114668592,
				"element": "Br" 
			},
			{
				"x": -2.4587044275,
				"y": 0.8712645025,
				"z": 1.8391498996,
				"element": "C" 
			},
			{
				"x": -2.557931387,
				"y": 1.5440765992,
				"z": 0.6249390901,
				"element": "C" 
			},
			{
				"x": -3.7329496265,
				"y": 2.1102068361,
				"z": 0.2988155579,
				"element": "F" 
			},
			{
				"x": -1.4956056504,
				"y": 1.6561971776,
				"z": -0.2648526827,
				"element": "C" 
			},
			{
				"x": 0.8208335133,
				"y": -0.0774999846,
				"z": 1.5511114762,
				"element": "H" 
			},
			{
				"x": -3.3125313309,
				"y": 0.8091328849,
				"z": 2.5011101127,
				"element": "H" 
			},
			{
				"x": -1.597965968,
				"y": 2.1851889768,
				"z": -1.2039082976,
				"element": "H" 
			}
		],
		 "valence_orbital": [ 
			{
				"type": "occ",
				"energy": -0.37385,
				"method": "rhf"
			},
			{
				"type": "occ",
				"energy": -0.31796,
				"method": "rhf"
			},
			{
				"type": "occ",
				"energy": -0.29891,
				"method": "rhf"
			},
			{
				"type": "occ",
				"energy": -0.26292,
				"method": "rhf"
			},
			{
				"type": "occ",
				"energy": -0.25768,
				"method": "rhf"
			},
			{
				"type": "unocc",
				"energy": -0.02951,
				"method": "rhf"
			},
			{
				"type": "unocc",
				"energy": -0.01652,
				"method": "rhf"
			},
			{
				"type": "unocc",
				"energy": -0.00908,
				"method": "rhf"
			},
			{
				"type": "unocc",
				"energy": 0.09595,
				"method": "rhf"
			},
			{
				"type": "unocc",
				"energy": 0.13074,
				"method": "rhf"
			}
		],
		"cosmo_sigma_profile": { 
			"-0.025": 0.0,
			"-0.024": 0.0,
			"-0.023": 0.0,
			"-0.022": 0.0,
			"-0.021": 0.0,
			"-0.02": 0.0,
			"-0.019": 0.0,
			"-0.018": 0.0,
			"-0.017": 0.0,
			"-0.016": 0.0,
			"-0.015": 0.0,
			"-0.014": 0.0,
			"-0.013": 0.0,
			"-0.012": 0.0,
			"-0.011": 0.0,
			"-0.01": 0.0550881942076,
			"-0.009": 2.03127636834,
			"-0.008": 4.6545116708,
			"-0.007": 4.02120622601,
			"-0.006": 4.60514341205,
			"-0.005": 4.95995019332,
			"-0.004": 6.14886544773,
			"-0.003": 6.42498205723,
			"-0.002": 7.85481223153,
			"-0.001": 16.4063817009,
			"0.0": 24.9258194459,
			"0.001": 24.2188096673,
			"0.002": 13.086345309,
			"0.003": 21.667978063,
			"0.004": 22.6742028606,
			"0.005": 0.717340553086,
			"0.006": 0.0,
			"0.007": 0.0,
			"0.008": 0.0,
			"0.009": 0.0,
			"0.01": 0.0,
			"0.011": 0.0,
			"0.012": 0.0,
			"0.013": 0.0,
			"0.014": 0.0,
			"0.015": 0.0,
			"0.016": 0.0,
			"0.017": 0.0,
			"0.018": 0.0,
			"0.019": 0.0,
			"0.02": 0.0,
			"0.021": 0.0,
			"0.022": 0.0,
			"0.023": 0.0,
			"0.024": 0.0,
			"0.025": 0.0
		}
	}
}
