{
	 "smiles": "CCOC1=CC=C2C=CC=CC2=C1", 
	 "Tm": 309.95, 
	 "num_atms": 25, 
	 "gaussian": { 
		 "optdone": 1, 
		 "sigma_profile": "yes", 
		 "theory": "DFT", 
		 "functional": "B3LYP", 
		 "basiset": "6-31G**", 
		 "properties": { 
			 "R2extent": 3370.4738, 
			 "electric_dipole_moment_norm": 1.31758136371, 
			 "electric_quadrupole_moment_norm": 8.67906207836, 
			 "total_energy": -539.740413354, 
			 "HOMO_LUMO_gap": 0.17185, 
			 "cosmo_polarized_energy": -6.33, 
			 "cosmo_cavitation_energy": 27.88, 
			 "cosmo_dispersion_energy": -20.68, 
			 "cosmo_repulsion_energy": 1.62, 
			 "cosmo_total_nonelectrostatic_energy": 8.82, 
			 "SMD_solvation_energy": 4.86 
		},
		"coords": [
			{
				"x": 1.1155742003,
				"y": -0.0820426775,
				"z": -3.1271521094,
				"element": "C" 
			},
			{
				"x": -0.0239467696,
				"y": -0.8303960428,
				"z": -2.4425597114,
				"element": "C" 
			},
			{
				"x": -0.6268182924,
				"y": -0.0703148999,
				"z": -1.3923199247,
				"element": "O" 
			},
			{
				"x": -0.0367113149,
				"y": -0.0265126683,
				"z": -0.1622130874,
				"element": "C" 
			},
			{
				"x": -0.7279959091,
				"y": 0.7824730275,
				"z": 0.7839430556,
				"element": "C" 
			},
			{
				"x": -0.2609985747,
				"y": 0.9061004949,
				"z": 2.0668517424,
				"element": "C" 
			},
			{
				"x": 0.9210084789,
				"y": 0.2348915726,
				"z": 2.4889474157,
				"element": "C" 
			},
			{
				"x": 1.428435268,
				"y": 0.3433484561,
				"z": 3.8094170608,
				"element": "C" 
			},
			{
				"x": 2.5770609655,
				"y": -0.3202220446,
				"z": 4.182740432,
				"element": "C" 
			},
			{
				"x": 3.2667719642,
				"y": -1.1227018059,
				"z": 3.2426723957,
				"element": "C" 
			},
			{
				"x": 2.7986499981,
				"y": -1.2471478031,
				"z": 1.9525518514,
				"element": "C" 
			},
			{
				"x": 1.6167947165,
				"y": -0.5765579424,
				"z": 1.5364154409,
				"element": "C" 
			},
			{
				"x": 1.1165288692,
				"y": -0.6902635557,
				"z": 0.2089373455,
				"element": "C" 
			},
			{
				"x": 1.9391800332,
				"y": 0.1199892651,
				"z": -2.4374188113,
				"element": "H" 
			},
			{
				"x": 1.5047073356,
				"y": -0.6741880384,
				"z": -3.962324368,
				"element": "H" 
			},
			{
				"x": 0.7576373673,
				"y": 0.8738967389,
				"z": -3.5199657557,
				"element": "H" 
			},
			{
				"x": 0.3033592327,
				"y": -1.8068232702,
				"z": -2.0633592907,
				"element": "H" 
			},
			{
				"x": -0.8379885056,
				"y": -1.0103278474,
				"z": -3.1506615945,
				"element": "H" 
			},
			{
				"x": -1.6297358316,
				"y": 1.2883480899,
				"z": 0.4545766036,
				"element": "H" 
			},
			{
				"x": -0.7972043064,
				"y": 1.524711141,
				"z": 2.7820091017,
				"element": "H" 
			},
			{
				"x": 0.8925701945,
				"y": 0.961999682,
				"z": 4.5252559921,
				"element": "H" 
			},
			{
				"x": 2.9562741567,
				"y": -0.2301216291,
				"z": 5.1964369864,
				"element": "H" 
			},
			{
				"x": 4.1717470366,
				"y": -1.643408627,
				"z": 3.5431079306,
				"element": "H" 
			},
			{
				"x": 3.3311666055,
				"y": -1.8646832738,
				"z": 1.2333628791,
				"element": "H" 
			},
			{
				"x": 1.6665330814,
				"y": -1.3060463421,
				"z": -0.4935515804,
				"element": "H" 
			}
		],
		 "valence_orbital": [ 
			{
				"type": "occ",
				"energy": -0.31716,
				"method": "rhf"
			},
			{
				"type": "occ",
				"energy": -0.29503,
				"method": "rhf"
			},
			{
				"type": "occ",
				"energy": -0.27451,
				"method": "rhf"
			},
			{
				"type": "occ",
				"energy": -0.22486,
				"method": "rhf"
			},
			{
				"type": "occ",
				"energy": -0.20209,
				"method": "rhf"
			},
			{
				"type": "unocc",
				"energy": -0.03024,
				"method": "rhf"
			},
			{
				"type": "unocc",
				"energy": 0.00236,
				"method": "rhf"
			},
			{
				"type": "unocc",
				"energy": 0.03778,
				"method": "rhf"
			},
			{
				"type": "unocc",
				"energy": 0.09138,
				"method": "rhf"
			},
			{
				"type": "unocc",
				"energy": 0.10078,
				"method": "rhf"
			}
		],
		"cosmo_sigma_profile": { 
			"-0.025": 0.0,
			"-0.024": 0.0,
			"-0.023": 0.0,
			"-0.022": 0.0,
			"-0.021": 0.0,
			"-0.02": 0.0,
			"-0.019": 0.0,
			"-0.018": 0.0,
			"-0.017": 0.0,
			"-0.016": 0.0,
			"-0.015": 0.0,
			"-0.014": 0.0,
			"-0.013": 0.0,
			"-0.012": 0.0,
			"-0.011": 0.0,
			"-0.01": 0.0,
			"-0.009": 0.0,
			"-0.008": 0.0,
			"-0.007": 0.549018550041,
			"-0.006": 9.56935694088,
			"-0.005": 19.618928235,
			"-0.004": 22.6373275498,
			"-0.003": 23.4065891976,
			"-0.002": 18.4058670856,
			"-0.001": 15.9999287881,
			"0.0": 15.6048583309,
			"0.001": 13.4410960718,
			"0.002": 10.7930245287,
			"0.003": 14.6906040796,
			"0.004": 22.1404939964,
			"0.005": 21.2227660104,
			"0.006": 8.31171995104,
			"0.007": 0.99134506267,
			"0.008": 1.56034328428,
			"0.009": 1.18092508472,
			"0.01": 1.39137756529,
			"0.011": 0.326815340119,
			"0.012": 0.0,
			"0.013": 0.0,
			"0.014": 0.0,
			"0.015": 0.0,
			"0.016": 0.0,
			"0.017": 0.0,
			"0.018": 0.0,
			"0.019": 0.0,
			"0.02": 0.0,
			"0.021": 0.0,
			"0.022": 0.0,
			"0.023": 0.0,
			"0.024": 0.0,
			"0.025": 0.0
		}
	}
}
