{
	 "smiles": "CS(=O)(=O)C1=CC2=C(C=CN2O)C=C1", 
	 "Tm": 448.15, 
	 "num_atms": 23, 
	 "gaussian": { 
		 "optdone": 1, 
		 "sigma_profile": "yes", 
		 "theory": "DFT", 
		 "functional": "B3LYP", 
		 "basiset": "6-31G**", 
		 "properties": { 
			 "R2extent": 4002.6106, 
			 "electric_dipole_moment_norm": 6.96667370701, 
			 "electric_quadrupole_moment_norm": 18.2932876247, 
			 "total_energy": -1026.86292192, 
			 "HOMO_LUMO_gap": 0.18376, 
			 "cosmo_polarized_energy": -20.67, 
			 "cosmo_cavitation_energy": 28.85, 
			 "cosmo_dispersion_energy": -21.38, 
			 "cosmo_repulsion_energy": 1.62, 
			 "cosmo_total_nonelectrostatic_energy": 9.09, 
			 "SMD_solvation_energy": 5.9 
		},
		"coords": [
			{
				"x": -2.0482282417,
				"y": 2.243519777,
				"z": -1.5957995733,
				"element": "C" 
			},
			{
				"x": -1.7594632582,
				"y": 0.4875124874,
				"z": -1.9289546247,
				"element": "S" 
			},
			{
				"x": -1.4777949874,
				"y": 0.3570494846,
				"z": -3.3683693352,
				"element": "O" 
			},
			{
				"x": -2.8606125836,
				"y": -0.2588100427,
				"z": -1.2998297764,
				"element": "O" 
			},
			{
				"x": -0.2462812038,
				"y": 0.1286247301,
				"z": -1.0318351425,
				"element": "C" 
			},
			{
				"x": 0.9505029778,
				"y": 0.1238811824,
				"z": -1.7391247518,
				"element": "C" 
			},
			{
				"x": 2.0981113854,
				"y": -0.15027981,
				"z": -0.9962758629,
				"element": "C" 
			},
			{
				"x": 2.0773116416,
				"y": -0.4243191753,
				"z": 0.4037131463,
				"element": "C" 
			},
			{
				"x": 3.4300127836,
				"y": -0.6805802322,
				"z": 0.8064631888,
				"element": "C" 
			},
			{
				"x": 4.2178469222,
				"y": -0.5614217621,
				"z": -0.311782573,
				"element": "C" 
			},
			{
				"x": 3.4181955072,
				"y": -0.2172001643,
				"z": -1.3800627308,
				"element": "N" 
			},
			{
				"x": 3.8552478028,
				"y": -0.1682671129,
				"z": -2.689965791,
				"element": "O" 
			},
			{
				"x": 0.8375279099,
				"y": -0.4106348911,
				"z": 1.0706419334,
				"element": "C" 
			},
			{
				"x": -0.3173950584,
				"y": -0.1389345689,
				"z": 0.3529945261,
				"element": "C" 
			},
			{
				"x": -1.2137154978,
				"y": 2.8252955287,
				"z": -1.9893717488,
				"element": "H" 
			},
			{
				"x": -2.1594590813,
				"y": 2.3924698891,
				"z": -0.5209625868,
				"element": "H" 
			},
			{
				"x": -2.9734068069,
				"y": 2.5052774926,
				"z": -2.1134524917,
				"element": "H" 
			},
			{
				"x": 0.9712326053,
				"y": 0.2957340801,
				"z": -2.8090009536,
				"element": "H" 
			},
			{
				"x": 3.7771774819,
				"y": -0.9239192509,
				"z": 1.8001529968,
				"element": "H" 
			},
			{
				"x": 5.2806737355,
				"y": -0.6873147251,
				"z": -0.4552007536,
				"element": "H" 
			},
			{
				"x": 4.0336969028,
				"y": 0.770373072,
				"z": -2.8677975312,
				"element": "H" 
			},
			{
				"x": 0.7842167045,
				"y": -0.6267071576,
				"z": 2.1335995245,
				"element": "H" 
			},
			{
				"x": -1.2873976415,
				"y": -0.157848831,
				"z": 0.8378209114,
				"element": "H" 
			}
		],
		 "valence_orbital": [ 
			{
				"type": "occ",
				"energy": -0.29602,
				"method": "rhf"
			},
			{
				"type": "occ",
				"energy": -0.28722,
				"method": "rhf"
			},
			{
				"type": "occ",
				"energy": -0.27967,
				"method": "rhf"
			},
			{
				"type": "occ",
				"energy": -0.24369,
				"method": "rhf"
			},
			{
				"type": "occ",
				"energy": -0.2242,
				"method": "rhf"
			},
			{
				"type": "unocc",
				"energy": -0.04044,
				"method": "rhf"
			},
			{
				"type": "unocc",
				"energy": -0.00352,
				"method": "rhf"
			},
			{
				"type": "unocc",
				"energy": 0.03382,
				"method": "rhf"
			},
			{
				"type": "unocc",
				"energy": 0.04433,
				"method": "rhf"
			},
			{
				"type": "unocc",
				"energy": 0.07523,
				"method": "rhf"
			}
		],
		"cosmo_sigma_profile": { 
			"-0.025": 0.0,
			"-0.024": 0.0,
			"-0.023": 0.0,
			"-0.022": 0.0,
			"-0.021": 0.0,
			"-0.02": 0.0,
			"-0.019": 0.787802129222,
			"-0.018": 1.18313372797,
			"-0.017": 1.34137561746,
			"-0.016": 0.695145321929,
			"-0.015": 1.5805283133,
			"-0.014": 0.812915299529,
			"-0.013": 0.382191335857,
			"-0.012": 0.922261359224,
			"-0.011": 1.01650854547,
			"-0.01": 1.18467477599,
			"-0.009": 3.18360256631,
			"-0.008": 7.90733569077,
			"-0.007": 10.2636990523,
			"-0.006": 15.8190806951,
			"-0.005": 14.2453918189,
			"-0.004": 16.8029374678,
			"-0.003": 13.5707555185,
			"-0.002": 11.145151914,
			"-0.001": 8.11450514982,
			"0.0": 8.4349213843,
			"0.001": 14.8730591066,
			"0.002": 15.191214492,
			"0.003": 15.3925217376,
			"0.004": 15.3566669295,
			"0.005": 7.87401880914,
			"0.006": 3.87598836378,
			"0.007": 4.00599687007,
			"0.008": 4.50705457573,
			"0.009": 5.621039102,
			"0.01": 3.73048680968,
			"0.011": 8.52914083355,
			"0.012": 9.88124235995,
			"0.013": 2.42365332267,
			"0.014": 0.0,
			"0.015": 0.0,
			"0.016": 0.0,
			"0.017": 0.0,
			"0.018": 0.0,
			"0.019": 0.0,
			"0.02": 0.0,
			"0.021": 0.0,
			"0.022": 0.0,
			"0.023": 0.0,
			"0.024": 0.0,
			"0.025": 0.0
		}
	}
}
