{
	 "smiles": "OC(=O)C1CCN(CC1)S(=O)(=O)C1=CC=C(C=C1)C#N", 
	 "Tm": 449.15, 
	 "num_atms": 34, 
	 "gaussian": { 
		 "optdone": 1, 
		 "sigma_profile": "yes", 
		 "theory": "DFT", 
		 "functional": "B3LYP", 
		 "basiset": "6-31G**", 
		 "properties": { 
			 "R2extent": 6237.4438, 
			 "electric_dipole_moment_norm": 5.08717540783, 
			 "electric_quadrupole_moment_norm": 22.8702700172, 
			 "total_energy": -1312.33055805, 
			 "HOMO_LUMO_gap": 0.17956, 
			 "cosmo_polarized_energy": -21.75, 
			 "cosmo_cavitation_energy": 39.27, 
			 "cosmo_dispersion_energy": -26.39, 
			 "cosmo_repulsion_energy": 1.98, 
			 "cosmo_total_nonelectrostatic_energy": 14.86, 
			 "SMD_solvation_energy": 7.64 
		},
		"coords": [
			{
				"x": -2.5473797681,
				"y": 1.3693291516,
				"z": 2.7023936314,
				"element": "O" 
			},
			{
				"x": -2.7075423857,
				"y": 1.3526592802,
				"z": 1.3572325931,
				"element": "C" 
			},
			{
				"x": -3.2749656874,
				"y": 0.4436842417,
				"z": 0.7888724609,
				"element": "O" 
			},
			{
				"x": -2.1699883324,
				"y": 2.612022449,
				"z": 0.6894858711,
				"element": "C" 
			},
			{
				"x": -2.1511599345,
				"y": 2.4410141267,
				"z": -0.836184011,
				"element": "C" 
			},
			{
				"x": -1.1649979395,
				"y": 1.3380892947,
				"z": -1.2745488796,
				"element": "C" 
			},
			{
				"x": -0.0669912944,
				"y": 1.2405495574,
				"z": -0.2854573572,
				"element": "N" 
			},
			{
				"x": 0.3546812447,
				"y": 2.5339094078,
				"z": 0.2822250963,
				"element": "C" 
			},
			{
				"x": -0.7694307444,
				"y": 3.0487964861,
				"z": 1.2032154775,
				"element": "C" 
			},
			{
				"x": 1.1319669581,
				"y": 0.1054592276,
				"z": -0.6429457978,
				"element": "S" 
			},
			{
				"x": 1.3297107163,
				"y": -0.0016649143,
				"z": -2.0938589053,
				"element": "O" 
			},
			{
				"x": 2.2560265151,
				"y": 0.3808401262,
				"z": 0.2574726919,
				"element": "O" 
			},
			{
				"x": 0.3561019009,
				"y": -1.4281870855,
				"z": -0.1060114661,
				"element": "C" 
			},
			{
				"x": -0.1983727645,
				"y": -2.2862080373,
				"z": -1.0557287956,
				"element": "C" 
			},
			{
				"x": -0.7902000083,
				"y": -3.4753628603,
				"z": -0.6354065575,
				"element": "C" 
			},
			{
				"x": -0.812903964,
				"y": -3.7986806073,
				"z": 0.7304761077,
				"element": "C" 
			},
			{
				"x": -0.2350468304,
				"y": -2.9308769368,
				"z": 1.6753649995,
				"element": "C" 
			},
			{
				"x": 0.3508771265,
				"y": -1.7428186486,
				"z": 1.2555261339,
				"element": "C" 
			},
			{
				"x": -1.4212510778,
				"y": -5.0227681439,
				"z": 1.1666087394,
				"element": "C" 
			},
			{
				"x": -1.9149634703,
				"y": -6.0134343263,
				"z": 1.523429808,
				"element": "N" 
			},
			{
				"x": -2.9598411326,
				"y": 0.5528580279,
				"z": 3.0311019829,
				"element": "H" 
			},
			{
				"x": -2.8925133664,
				"y": 3.3944356317,
				"z": 0.9574532526,
				"element": "H" 
			},
			{
				"x": -1.8674009727,
				"y": 3.3995016704,
				"z": -1.2835232669,
				"element": "H" 
			},
			{
				"x": -3.1470678154,
				"y": 2.1904750816,
				"z": -1.2086343128,
				"element": "H" 
			},
			{
				"x": -1.6810186619,
				"y": 0.3753714058,
				"z": -1.2973805297,
				"element": "H" 
			},
			{
				"x": -0.7730556173,
				"y": 1.5487997339,
				"z": -2.2772879749,
				"element": "H" 
			},
			{
				"x": 1.2801345929,
				"y": 2.3853411459,
				"z": 0.8378645974,
				"element": "H" 
			},
			{
				"x": 0.5651913233,
				"y": 3.2528637068,
				"z": -0.522969775,
				"element": "H" 
			},
			{
				"x": -0.6217687355,
				"y": 2.6847195761,
				"z": 2.2218557418,
				"element": "H" 
			},
			{
				"x": -0.7173863261,
				"y": 4.141963024,
				"z": 1.2413868852,
				"element": "H" 
			},
			{
				"x": -0.1494927006,
				"y": -2.0271470524,
				"z": -2.1072706598,
				"element": "H" 
			},
			{
				"x": -1.2290204598,
				"y": -4.1558531859,
				"z": -1.3568301471,
				"element": "H" 
			},
			{
				"x": -0.2456592984,
				"y": -3.1986094549,
				"z": 2.7263549419,
				"element": "H" 
			},
			{
				"x": 0.8153289105,
				"y": -1.0705710995,
				"z": 1.9683174238,
				"element": "H" 
			}
		],
		 "valence_orbital": [ 
			{
				"type": "occ",
				"energy": -0.30979,
				"method": "rhf"
			},
			{
				"type": "occ",
				"energy": -0.29122,
				"method": "rhf"
			},
			{
				"type": "occ",
				"energy": -0.28773,
				"method": "rhf"
			},
			{
				"type": "occ",
				"energy": -0.28398,
				"method": "rhf"
			},
			{
				"type": "occ",
				"energy": -0.25612,
				"method": "rhf"
			},
			{
				"type": "unocc",
				"energy": -0.07656,
				"method": "rhf"
			},
			{
				"type": "unocc",
				"energy": -0.04014,
				"method": "rhf"
			},
			{
				"type": "unocc",
				"energy": -0.00486,
				"method": "rhf"
			},
			{
				"type": "unocc",
				"energy": 0.02608,
				"method": "rhf"
			},
			{
				"type": "unocc",
				"energy": 0.04148,
				"method": "rhf"
			}
		],
		"cosmo_sigma_profile": { 
			"-0.025": 0.0,
			"-0.024": 0.0,
			"-0.023": 0.0,
			"-0.022": 0.0,
			"-0.021": 0.0,
			"-0.02": 0.0,
			"-0.019": 0.0,
			"-0.018": 0.659933863376,
			"-0.017": 0.767482421584,
			"-0.016": 0.957445515052,
			"-0.015": 0.81268015459,
			"-0.014": 0.869149280455,
			"-0.013": 0.315674705893,
			"-0.012": 0.472246424232,
			"-0.011": 0.851811028341,
			"-0.01": 1.02612042934,
			"-0.009": 4.47328175625,
			"-0.008": 8.94923010169,
			"-0.007": 10.8054707386,
			"-0.006": 9.89589847821,
			"-0.005": 22.1152685136,
			"-0.004": 32.3912607842,
			"-0.003": 28.4711727207,
			"-0.002": 27.1775168162,
			"-0.001": 22.14456589,
			"0.0": 20.7193151526,
			"0.001": 14.6365776059,
			"0.002": 11.7190688869,
			"0.003": 9.6814907557,
			"0.004": 7.48241387526,
			"0.005": 9.11264385989,
			"0.006": 7.32258649346,
			"0.007": 8.68053657085,
			"0.008": 8.66207057442,
			"0.009": 10.1406576827,
			"0.01": 11.9760176264,
			"0.011": 12.0076131786,
			"0.012": 6.35180893132,
			"0.013": 0.681107862691,
			"0.014": 0.0,
			"0.015": 0.0,
			"0.016": 0.0,
			"0.017": 0.0,
			"0.018": 0.0,
			"0.019": 0.0,
			"0.02": 0.0,
			"0.021": 0.0,
			"0.022": 0.0,
			"0.023": 0.0,
			"0.024": 0.0,
			"0.025": 0.0
		}
	}
}
