{
	 "smiles": "CC(C)C(=O)C(O)=O", 
	 "Tm": 304.65, 
	 "num_atms": 16, 
	 "gaussian": { 
		 "optdone": 1, 
		 "sigma_profile": "yes", 
		 "theory": "DFT", 
		 "functional": "B3LYP", 
		 "basiset": "6-31G**", 
		 "properties": { 
			 "R2extent": 2133.7121, 
			 "electric_dipole_moment_norm": 3.76346752211, 
			 "electric_quadrupole_moment_norm": 15.9758820398, 
			 "total_energy": -421.028414996, 
			 "HOMO_LUMO_gap": 0.1869, 
			 "cosmo_polarized_energy": -11.94, 
			 "cosmo_cavitation_energy": 20.12, 
			 "cosmo_dispersion_energy": -14.35, 
			 "cosmo_repulsion_energy": 1.23, 
			 "cosmo_total_nonelectrostatic_energy": 6.99, 
			 "SMD_solvation_energy": 5.8 
		},
		"coords": [
			{
				"x": 2.7455680833,
				"y": 0.9630505166,
				"z": -1.6066557645,
				"element": "C" 
			},
			{
				"x": 1.5598812139,
				"y": 0.3651718508,
				"z": -0.8137893374,
				"element": "C" 
			},
			{
				"x": 1.5664694384,
				"y": 0.8130027431,
				"z": 0.650030444,
				"element": "C" 
			},
			{
				"x": 1.5978433388,
				"y": -1.1521041453,
				"z": -0.9186080435,
				"element": "C" 
			},
			{
				"x": 1.8633178365,
				"y": -1.8925857685,
				"z": 0.0012894223,
				"element": "O" 
			},
			{
				"x": 1.3063756556,
				"y": -1.8109142119,
				"z": -2.2957206398,
				"element": "C" 
			},
			{
				"x": 0.656570278,
				"y": -0.973437127,
				"z": -3.1391166874,
				"element": "O" 
			},
			{
				"x": 1.6071528835,
				"y": -2.9439884139,
				"z": -2.5746985609,
				"element": "O" 
			},
			{
				"x": 2.7244708084,
				"y": 0.6661247259,
				"z": -2.6587199627,
				"element": "H" 
			},
			{
				"x": 3.7005012755,
				"y": 0.6471358644,
				"z": -1.1737862138,
				"element": "H" 
			},
			{
				"x": 2.7014851715,
				"y": 2.0554009891,
				"z": -1.5662928792,
				"element": "H" 
			},
			{
				"x": 0.6359433901,
				"y": 0.6969801702,
				"z": -1.3044882774,
				"element": "H" 
			},
			{
				"x": 1.5185294476,
				"y": 1.9044520758,
				"z": 0.71093906,
				"element": "H" 
			},
			{
				"x": 0.7148393131,
				"y": 0.3991430571,
				"z": 1.1970114988,
				"element": "H" 
			},
			{
				"x": 2.4759198869,
				"y": 0.4770432497,
				"z": 1.1557732731,
				"element": "H" 
			},
			{
				"x": 0.500231979,
				"y": -1.472975576,
				"z": -3.9593673316,
				"element": "H" 
			}
		],
		 "valence_orbital": [ 
			{
				"type": "occ",
				"energy": -0.35596,
				"method": "rhf"
			},
			{
				"type": "occ",
				"energy": -0.34837,
				"method": "rhf"
			},
			{
				"type": "occ",
				"energy": -0.33544,
				"method": "rhf"
			},
			{
				"type": "occ",
				"energy": -0.30436,
				"method": "rhf"
			},
			{
				"type": "occ",
				"energy": -0.26106,
				"method": "rhf"
			},
			{
				"type": "unocc",
				"energy": -0.07416,
				"method": "rhf"
			},
			{
				"type": "unocc",
				"energy": 0.04818,
				"method": "rhf"
			},
			{
				"type": "unocc",
				"energy": 0.06105,
				"method": "rhf"
			},
			{
				"type": "unocc",
				"energy": 0.09337,
				"method": "rhf"
			},
			{
				"type": "unocc",
				"energy": 0.13428,
				"method": "rhf"
			}
		],
		"cosmo_sigma_profile": { 
			"-0.025": 0.0,
			"-0.024": 0.0,
			"-0.023": 0.0,
			"-0.022": 0.0,
			"-0.021": 0.0,
			"-0.02": 0.0114444474101,
			"-0.019": 0.718415075183,
			"-0.018": 1.34218654867,
			"-0.017": 0.374918531877,
			"-0.016": 0.989148743121,
			"-0.015": 1.07657098025,
			"-0.014": 0.299635912077,
			"-0.013": 0.789610805463,
			"-0.012": 1.16164727093,
			"-0.011": 0.778289613621,
			"-0.01": 0.374107766823,
			"-0.009": 0.424209794407,
			"-0.008": 1.27479774053,
			"-0.007": 2.61101714257,
			"-0.006": 4.03424796136,
			"-0.005": 6.13726922326,
			"-0.004": 16.1205672801,
			"-0.003": 17.657179489,
			"-0.002": 14.9383256809,
			"-0.001": 13.9801973624,
			"0.0": 15.60303137,
			"0.001": 8.36025821436,
			"0.002": 4.2062873379,
			"0.003": 4.69790897287,
			"0.004": 2.7474005174,
			"0.005": 3.87497376059,
			"0.006": 4.02038438756,
			"0.007": 3.41604497462,
			"0.008": 3.68779001786,
			"0.009": 4.49177895741,
			"0.01": 9.08675324143,
			"0.011": 5.10649928364,
			"0.012": 2.51515349175,
			"0.013": 0.791565900652,
			"0.014": 0.0,
			"0.015": 0.0,
			"0.016": 0.0,
			"0.017": 0.0,
			"0.018": 0.0,
			"0.019": 0.0,
			"0.02": 0.0,
			"0.021": 0.0,
			"0.022": 0.0,
			"0.023": 0.0,
			"0.024": 0.0,
			"0.025": 0.0
		}
	}
}
