{
	 "smiles": "CC(C)C1=C(C=C(C)C(=C1)N=NC1=CC=C(C=C1)N=NC1=CC=CC=C1)N=NC1=CC=C(C=C1)N=NC1=CC=CC=C1", 
	 "Tm": 499.15, 
	 "num_atms": 72, 
	 "gaussian": { 
		 "optdone": 1, 
		 "sigma_profile": "yes", 
		 "theory": "DFT", 
		 "functional": "B3LYP", 
		 "basiset": "6-31G**", 
		 "properties": { 
			 "R2extent": 42898.4044, 
			 "electric_dipole_moment_norm": 3.35889888059, 
			 "electric_quadrupole_moment_norm": 31.8922790744, 
			 "total_energy": -1751.49768462, 
			 "HOMO_LUMO_gap": 0.09985, 
			 "cosmo_polarized_energy": -21.28, 
			 "cosmo_cavitation_energy": 78.14, 
			 "cosmo_dispersion_energy": -51.06, 
			 "cosmo_repulsion_energy": 3.84, 
			 "cosmo_total_nonelectrostatic_energy": 30.91, 
			 "SMD_solvation_energy": 6.52 
		},
		"coords": [
			{
				"x": 2.728600382,
				"y": -0.5982840133,
				"z": -3.3875961784,
				"element": "C" 
			},
			{
				"x": 1.7272111225,
				"y": 0.5544575234,
				"z": -3.1867222884,
				"element": "C" 
			},
			{
				"x": 2.14630849,
				"y": 1.8078204497,
				"z": -3.9826759311,
				"element": "C" 
			},
			{
				"x": 1.4526237958,
				"y": 0.8732434324,
				"z": -1.7196833673,
				"element": "C" 
			},
			{
				"x": 2.4563723319,
				"y": 1.2549518315,
				"z": -0.792338013,
				"element": "C" 
			},
			{
				"x": 2.1175830385,
				"y": 1.6119749296,
				"z": 0.5227365892,
				"element": "C" 
			},
			{
				"x": 0.805127018,
				"y": 1.5650005807,
				"z": 0.9861431014,
				"element": "C" 
			},
			{
				"x": 0.4732789959,
				"y": 1.9637980943,
				"z": 2.4030573108,
				"element": "C" 
			},
			{
				"x": -0.1910377951,
				"y": 1.1262759408,
				"z": 0.0853705458,
				"element": "C" 
			},
			{
				"x": 0.1504924231,
				"y": 0.7921525443,
				"z": -1.2373140713,
				"element": "C" 
			},
			{
				"x": -1.5071565451,
				"y": 1.0736656797,
				"z": 0.5901705427,
				"element": "N" 
			},
			{
				"x": -2.3777291604,
				"y": 0.6406756046,
				"z": -0.2192564827,
				"element": "N" 
			},
			{
				"x": -3.6932357501,
				"y": 0.5975724998,
				"z": 0.2892264628,
				"element": "C" 
			},
			{
				"x": -4.6702379293,
				"y": 0.1223155991,
				"z": -0.5999771655,
				"element": "C" 
			},
			{
				"x": -6.004469244,
				"y": 0.0500470682,
				"z": -0.2195808778,
				"element": "C" 
			},
			{
				"x": -6.3763410107,
				"y": 0.4418997245,
				"z": 1.0762084204,
				"element": "C" 
			},
			{
				"x": -5.3920106286,
				"y": 0.8657202081,
				"z": 1.9887411636,
				"element": "C" 
			},
			{
				"x": -4.0686587262,
				"y": 0.972697051,
				"z": 1.594105181,
				"element": "C" 
			},
			{
				"x": -7.6893825873,
				"y": 0.2342859884,
				"z": 1.5996504772,
				"element": "N" 
			},
			{
				"x": -8.7444772454,
				"y": 0.5764267164,
				"z": 1.0244897604,
				"element": "N" 
			},
			{
				"x": -8.7851907414,
				"y": 1.4219092852,
				"z": -0.1325830863,
				"element": "C" 
			},
			{
				"x": -9.7327911797,
				"y": 1.0872150911,
				"z": -1.1099859541,
				"element": "C" 
			},
			{
				"x": -9.9092275375,
				"y": 1.9110347388,
				"z": -2.2193185243,
				"element": "C" 
			},
			{
				"x": -9.186640929,
				"y": 3.1020943274,
				"z": -2.329535094,
				"element": "C" 
			},
			{
				"x": -8.28166279,
				"y": 3.4617982246,
				"z": -1.3270655317,
				"element": "C" 
			},
			{
				"x": -8.0696222513,
				"y": 2.6249204881,
				"z": -0.2334406061,
				"element": "C" 
			},
			{
				"x": 3.7804772829,
				"y": 1.4891746808,
				"z": -1.2712545567,
				"element": "N" 
			},
			{
				"x": 4.8265564924,
				"y": 1.1401079241,
				"z": -0.6801358536,
				"element": "N" 
			},
			{
				"x": 4.8673083116,
				"y": 0.2310287539,
				"z": 0.4221109822,
				"element": "C" 
			},
			{
				"x": 5.8331643766,
				"y": 0.5002614369,
				"z": 1.4043771022,
				"element": "C" 
			},
			{
				"x": 6.0085752587,
				"y": -0.3716912557,
				"z": 2.4709538449,
				"element": "C" 
			},
			{
				"x": 5.3094277063,
				"y": -1.5873387216,
				"z": 2.5069281019,
				"element": "C" 
			},
			{
				"x": 4.3706861155,
				"y": -1.8791764434,
				"z": 1.5019767244,
				"element": "C" 
			},
			{
				"x": 4.1380094984,
				"y": -0.9697235075,
				"z": 0.4788045465,
				"element": "C" 
			},
			{
				"x": 5.4612340395,
				"y": -2.3837380176,
				"z": 3.6854169295,
				"element": "N" 
			},
			{
				"x": 5.5902750382,
				"y": -3.6266696436,
				"z": 3.6871416193,
				"element": "N" 
			},
			{
				"x": 5.8256881765,
				"y": -4.409289222,
				"z": 2.5091753494,
				"element": "C" 
			},
			{
				"x": 6.8059263585,
				"y": -4.0888738083,
				"z": 1.5573417112,
				"element": "C" 
			},
			{
				"x": 7.0773097868,
				"y": -4.9812028441,
				"z": 0.5221273615,
				"element": "C" 
			},
			{
				"x": 6.3683273822,
				"y": -6.1809699792,
				"z": 0.4167771245,
				"element": "C" 
			},
			{
				"x": 5.4033507999,
				"y": -6.5046453437,
				"z": 1.3743923424,
				"element": "C" 
			},
			{
				"x": 5.1528707671,
				"y": -5.6369193173,
				"z": 2.4349929227,
				"element": "C" 
			},
			{
				"x": 3.733508709,
				"y": -0.3186256601,
				"z": -3.0591742315,
				"element": "H" 
			},
			{
				"x": 2.4203678294,
				"y": -1.4950719518,
				"z": -2.8389037572,
				"element": "H" 
			},
			{
				"x": 2.7900265733,
				"y": -0.8622593001,
				"z": -4.4489597988,
				"element": "H" 
			},
			{
				"x": 0.7671535366,
				"y": 0.2171888173,
				"z": -3.5978686917,
				"element": "H" 
			},
			{
				"x": 2.2508570798,
				"y": 1.5601650183,
				"z": -5.0448482264,
				"element": "H" 
			},
			{
				"x": 3.1002145192,
				"y": 2.1998166316,
				"z": -3.6229122377,
				"element": "H" 
			},
			{
				"x": 1.3937978626,
				"y": 2.5975795359,
				"z": -3.8923659426,
				"element": "H" 
			},
			{
				"x": 2.9033673475,
				"y": 1.9497697485,
				"z": 1.1904790779,
				"element": "H" 
			},
			{
				"x": 1.3732418768,
				"y": 2.2827010999,
				"z": 2.9353146838,
				"element": "H" 
			},
			{
				"x": -0.2511588295,
				"y": 2.7833606781,
				"z": 2.4263267632,
				"element": "H" 
			},
			{
				"x": 0.0244939863,
				"y": 1.1325664646,
				"z": 2.9553301193,
				"element": "H" 
			},
			{
				"x": -0.6517672324,
				"y": 0.4773363038,
				"z": -1.8960981621,
				"element": "H" 
			},
			{
				"x": -4.3538467305,
				"y": -0.180359611,
				"z": -1.5930701831,
				"element": "H" 
			},
			{
				"x": -6.7546676344,
				"y": -0.3160554634,
				"z": -0.911550669,
				"element": "H" 
			},
			{
				"x": -5.6949594139,
				"y": 1.1121466491,
				"z": 3.0018398739,
				"element": "H" 
			},
			{
				"x": -3.3041980754,
				"y": 1.3220814231,
				"z": 2.278039293,
				"element": "H" 
			},
			{
				"x": -10.3127250074,
				"y": 0.1781334597,
				"z": -0.9846312533,
				"element": "H" 
			},
			{
				"x": -10.6260965071,
				"y": 1.6350185301,
				"z": -2.9870157759,
				"element": "H" 
			},
			{
				"x": -9.3403044251,
				"y": 3.7555768932,
				"z": -3.1830304014,
				"element": "H" 
			},
			{
				"x": -7.7360547236,
				"y": 4.3982636728,
				"z": -1.3976795243,
				"element": "H" 
			},
			{
				"x": -7.3697487006,
				"y": 2.9068710947,
				"z": 0.5453830913,
				"element": "H" 
			},
			{
				"x": 6.4147390426,
				"y": 1.4134240531,
				"z": 1.3267548224,
				"element": "H" 
			},
			{
				"x": 6.7048159531,
				"y": -0.1429859551,
				"z": 3.2716193485,
				"element": "H" 
			},
			{
				"x": 3.8156176214,
				"y": -2.8100444486,
				"z": 1.5358740951,
				"element": "H" 
			},
			{
				"x": 3.4074121601,
				"y": -1.1974236662,
				"z": -0.2887368387,
				"element": "H" 
			},
			{
				"x": 7.3590267854,
				"y": -3.1597832461,
				"z": 1.6398500587,
				"element": "H" 
			},
			{
				"x": 7.8446667116,
				"y": -4.7372645594,
				"z": -0.2067783072,
				"element": "H" 
			},
			{
				"x": 6.5795418697,
				"y": -6.8675143022,
				"z": -0.3975424536,
				"element": "H" 
			},
			{
				"x": 4.861397742,
				"y": -7.443346566,
				"z": 1.3068313935,
				"element": "H" 
			},
			{
				"x": 4.4365671359,
				"y": -5.8874696441,
				"z": 3.2112711985,
				"element": "H" 
			}
		],
		 "valence_orbital": [ 
			{
				"type": "occ",
				"energy": -0.24492,
				"method": "rhf"
			},
			{
				"type": "occ",
				"energy": -0.22965,
				"method": "rhf"
			},
			{
				"type": "occ",
				"energy": -0.22612,
				"method": "rhf"
			},
			{
				"type": "occ",
				"energy": -0.21463,
				"method": "rhf"
			},
			{
				"type": "occ",
				"energy": -0.20337,
				"method": "rhf"
			},
			{
				"type": "unocc",
				"energy": -0.10352,
				"method": "rhf"
			},
			{
				"type": "unocc",
				"energy": -0.08603,
				"method": "rhf"
			},
			{
				"type": "unocc",
				"energy": -0.06939,
				"method": "rhf"
			},
			{
				"type": "unocc",
				"energy": -0.05605,
				"method": "rhf"
			},
			{
				"type": "unocc",
				"energy": -0.02437,
				"method": "rhf"
			}
		],
		"cosmo_sigma_profile": { 
			"-0.025": 0.0,
			"-0.024": 0.0,
			"-0.023": 0.0,
			"-0.022": 0.0,
			"-0.021": 0.0,
			"-0.02": 0.0,
			"-0.019": 0.0,
			"-0.018": 0.0,
			"-0.017": 0.0,
			"-0.016": 0.0,
			"-0.015": 0.0,
			"-0.014": 0.0,
			"-0.013": 0.0,
			"-0.012": 0.0,
			"-0.011": 0.0,
			"-0.01": 0.0,
			"-0.009": 0.0,
			"-0.008": 0.232146822374,
			"-0.007": 11.873095551,
			"-0.006": 41.4765550008,
			"-0.005": 45.9603369267,
			"-0.004": 46.9534530479,
			"-0.003": 47.8253697447,
			"-0.002": 48.2100963614,
			"-0.001": 47.038675141,
			"0.0": 52.4996836459,
			"0.001": 61.4785868298,
			"0.002": 70.8115662499,
			"0.003": 52.1726821325,
			"0.004": 33.6870128927,
			"0.005": 15.6457455566,
			"0.006": 8.74415746231,
			"0.007": 6.43124258484,
			"0.008": 4.55449945755,
			"0.009": 5.85191038357,
			"0.01": 4.86924411289,
			"0.011": 8.02784124439,
			"0.012": 5.80236497695,
			"0.013": 4.32846818368,
			"0.014": 1.05683809068,
			"0.015": 0.0,
			"0.016": 0.0,
			"0.017": 0.0,
			"0.018": 0.0,
			"0.019": 0.0,
			"0.02": 0.0,
			"0.021": 0.0,
			"0.022": 0.0,
			"0.023": 0.0,
			"0.024": 0.0,
			"0.025": 0.0
		}
	}
}
