{
	 "smiles": "CC(CC1=CC(F)=CC=C1)(C(O)=O)C(O)=O", 
	 "Tm": 424.15, 
	 "num_atms": 27, 
	 "gaussian": { 
		 "optdone": 1, 
		 "sigma_profile": "yes", 
		 "theory": "DFT", 
		 "functional": "B3LYP", 
		 "basiset": "6-31G**", 
		 "properties": { 
			 "R2extent": 3726.139, 
			 "electric_dipole_moment_norm": 5.40898500368, 
			 "electric_quadrupole_moment_norm": 15.930767715, 
			 "total_energy": -826.55595656, 
			 "HOMO_LUMO_gap": 0.21862, 
			 "cosmo_polarized_energy": -19.87, 
			 "cosmo_cavitation_energy": 30.75, 
			 "cosmo_dispersion_energy": -21.32, 
			 "cosmo_repulsion_energy": 1.62, 
			 "cosmo_total_nonelectrostatic_energy": 11.04, 
			 "SMD_solvation_energy": 7.55 
		},
		"coords": [
			{
				"x": -1.0634040068,
				"y": 3.0248880574,
				"z": 1.5440515449,
				"element": "C" 
			},
			{
				"x": -0.7103021728,
				"y": 2.0005170478,
				"z": 0.4339194554,
				"element": "C" 
			},
			{
				"x": -0.5576574872,
				"y": 0.5769409187,
				"z": 1.0694499499,
				"element": "C" 
			},
			{
				"x": -0.1941617873,
				"y": -0.5278830758,
				"z": 0.0976891963,
				"element": "C" 
			},
			{
				"x": -1.2039569066,
				"y": -1.2193109315,
				"z": -0.5861775741,
				"element": "C" 
			},
			{
				"x": -0.850805325,
				"y": -2.2223462161,
				"z": -1.4807255607,
				"element": "C" 
			},
			{
				"x": -1.8287414253,
				"y": -2.8860376223,
				"z": -2.1286251168,
				"element": "F" 
			},
			{
				"x": 0.4729599683,
				"y": -2.5702966368,
				"z": -1.7262105664,
				"element": "C" 
			},
			{
				"x": 1.473413995,
				"y": -1.8794698506,
				"z": -1.0431393753,
				"element": "C" 
			},
			{
				"x": 1.1456543847,
				"y": -0.8686592202,
				"z": -0.1379524956,
				"element": "C" 
			},
			{
				"x": -1.9418792696,
				"y": 1.9428761113,
				"z": -0.526940252,
				"element": "C" 
			},
			{
				"x": -1.778232162,
				"y": 2.268811766,
				"z": -1.8022855634,
				"element": "O" 
			},
			{
				"x": -3.015186768,
				"y": 1.6063733518,
				"z": -0.0740419,
				"element": "O" 
			},
			{
				"x": 0.6026734112,
				"y": 2.4217192877,
				"z": -0.2405988737,
				"element": "C" 
			},
			{
				"x": 1.6883876599,
				"y": 2.499470856,
				"z": 0.5507021823,
				"element": "O" 
			},
			{
				"x": 0.7291380122,
				"y": 2.7008209498,
				"z": -1.4191984349,
				"element": "O" 
			},
			{
				"x": -2.0394342872,
				"y": 2.7649195114,
				"z": 1.9565083219,
				"element": "H" 
			},
			{
				"x": -0.3324045278,
				"y": 3.0160821535,
				"z": 2.3601818428,
				"element": "H" 
			},
			{
				"x": -1.1164553999,
				"y": 4.0422093471,
				"z": 1.1452475481,
				"element": "H" 
			},
			{
				"x": -1.5183447445,
				"y": 0.3623772035,
				"z": 1.5435543487,
				"element": "H" 
			},
			{
				"x": 0.1881257377,
				"y": 0.6205377037,
				"z": 1.8735049348,
				"element": "H" 
			},
			{
				"x": -2.2515417793,
				"y": -0.9820418679,
				"z": -0.4345099227,
				"element": "H" 
			},
			{
				"x": 0.6987994559,
				"y": -3.3624177418,
				"z": -2.4315257988,
				"element": "H" 
			},
			{
				"x": 2.5147533224,
				"y": -2.1339946392,
				"z": -1.2153178578,
				"element": "H" 
			},
			{
				"x": 1.9379995332,
				"y": -0.3423872586,
				"z": 0.3866054902,
				"element": "H" 
			},
			{
				"x": -0.8238854291,
				"y": 2.4882859935,
				"z": -1.9566390111,
				"element": "H" 
			},
			{
				"x": 1.4634879979,
				"y": 2.2734148015,
				"z": 1.4644734881,
				"element": "H" 
			}
		],
		 "valence_orbital": [ 
			{
				"type": "occ",
				"energy": -0.30872,
				"method": "rhf"
			},
			{
				"type": "occ",
				"energy": -0.30856,
				"method": "rhf"
			},
			{
				"type": "occ",
				"energy": -0.27487,
				"method": "rhf"
			},
			{
				"type": "occ",
				"energy": -0.26347,
				"method": "rhf"
			},
			{
				"type": "occ",
				"energy": -0.2505,
				"method": "rhf"
			},
			{
				"type": "unocc",
				"energy": -0.03188,
				"method": "rhf"
			},
			{
				"type": "unocc",
				"energy": -0.02322,
				"method": "rhf"
			},
			{
				"type": "unocc",
				"energy": -0.00869,
				"method": "rhf"
			},
			{
				"type": "unocc",
				"energy": 0.00729,
				"method": "rhf"
			},
			{
				"type": "unocc",
				"energy": 0.01907,
				"method": "rhf"
			}
		],
		"cosmo_sigma_profile": { 
			"-0.025": 0.0,
			"-0.024": 0.0,
			"-0.023": 0.0,
			"-0.022": 0.0,
			"-0.021": 0.0,
			"-0.02": 0.249107420881,
			"-0.019": 1.0708312707,
			"-0.018": 1.03123042368,
			"-0.017": 0.876591818429,
			"-0.016": 0.89826594521,
			"-0.015": 1.11657095828,
			"-0.014": 1.13647730071,
			"-0.013": 1.56924362615,
			"-0.012": 1.19335462332,
			"-0.011": 1.10524045668,
			"-0.01": 1.24603974808,
			"-0.009": 2.58378316549,
			"-0.008": 4.06605175683,
			"-0.007": 7.23703591917,
			"-0.006": 11.802146216,
			"-0.005": 16.0777924722,
			"-0.004": 18.7095844679,
			"-0.003": 14.7622396147,
			"-0.002": 15.8343980299,
			"-0.001": 11.5910843912,
			"0.0": 12.5939343902,
			"0.001": 16.4335065931,
			"0.002": 16.029470728,
			"0.003": 16.2607644562,
			"0.004": 19.8023769231,
			"0.005": 9.47918286136,
			"0.006": 4.31422468273,
			"0.007": 5.40916551642,
			"0.008": 6.03155513278,
			"0.009": 7.1313410576,
			"0.01": 5.49402237672,
			"0.011": 5.31840879122,
			"0.012": 3.87180438342,
			"0.013": 1.65603780602,
			"0.014": 0.121176290773,
			"0.015": 0.0,
			"0.016": 0.0,
			"0.017": 0.0,
			"0.018": 0.0,
			"0.019": 0.0,
			"0.02": 0.0,
			"0.021": 0.0,
			"0.022": 0.0,
			"0.023": 0.0,
			"0.024": 0.0,
			"0.025": 0.0
		}
	}
}
