{
	 "smiles": "CN(C)S(=O)(=O)C1=CN=C(Cl)C=C1", 
	 "Tm": 391.15, 
	 "num_atms": 22, 
	 "gaussian": { 
		 "optdone": 1, 
		 "sigma_profile": "yes", 
		 "theory": "DFT", 
		 "functional": "B3LYP", 
		 "basiset": "6-31G**", 
		 "properties": { 
			 "R2extent": 3912.0747, 
			 "electric_dipole_moment_norm": 3.54446239365, 
			 "electric_quadrupole_moment_norm": 17.1801378714, 
			 "total_energy": -1390.41434051, 
			 "HOMO_LUMO_gap": 0.20009, 
			 "cosmo_polarized_energy": -13.34, 
			 "cosmo_cavitation_energy": 29.08, 
			 "cosmo_dispersion_energy": -21.37, 
			 "cosmo_repulsion_energy": 1.65, 
			 "cosmo_total_nonelectrostatic_energy": 9.36, 
			 "SMD_solvation_energy": 2.39 
		},
		"coords": [
			{
				"x": 3.4288710789,
				"y": 0.3313657219,
				"z": 0.3896985888,
				"element": "C" 
			},
			{
				"x": 2.5983424526,
				"y": 0.6908399057,
				"z": -0.766851999,
				"element": "N" 
			},
			{
				"x": 3.2748762146,
				"y": 1.5658416826,
				"z": -1.7380831646,
				"element": "C" 
			},
			{
				"x": 1.7761322175,
				"y": -0.6251021809,
				"z": -1.4585776064,
				"element": "S" 
			},
			{
				"x": 2.59269213,
				"y": -1.8473633818,
				"z": -1.4421010411,
				"element": "O" 
			},
			{
				"x": 1.1897898159,
				"y": -0.1358242513,
				"z": -2.7085666621,
				"element": "O" 
			},
			{
				"x": 0.4601382342,
				"y": -0.8684181152,
				"z": -0.2624822437,
				"element": "C" 
			},
			{
				"x": -0.479018907,
				"y": 0.1378707765,
				"z": -0.0272424155,
				"element": "C" 
			},
			{
				"x": -1.5027394607,
				"y": -0.0203010537,
				"z": 0.8177474633,
				"element": "N" 
			},
			{
				"x": -1.6116646745,
				"y": -1.1880293383,
				"z": 1.4335047346,
				"element": "C" 
			},
			{
				"x": -2.9635183774,
				"y": -1.3675230796,
				"z": 2.5384920415,
				"element": "Cl" 
			},
			{
				"x": -0.7380971012,
				"y": -2.2669954859,
				"z": 1.265687126,
				"element": "C" 
			},
			{
				"x": 0.3282368848,
				"y": -2.0955928639,
				"z": 0.3884100985,
				"element": "C" 
			},
			{
				"x": 3.7355040603,
				"y": 1.2579350516,
				"z": 0.8823204159,
				"element": "H" 
			},
			{
				"x": 2.8442728537,
				"y": -0.2521176046,
				"z": 1.1046987582,
				"element": "H" 
			},
			{
				"x": 4.3209334964,
				"y": -0.2429063247,
				"z": 0.1084531103,
				"element": "H" 
			},
			{
				"x": 3.5154981348,
				"y": 2.5015558705,
				"z": -1.2258144083,
				"element": "H" 
			},
			{
				"x": 2.6010789771,
				"y": 1.7770065715,
				"z": -2.5673023415,
				"element": "H" 
			},
			{
				"x": 4.2035986324,
				"y": 1.1265701431,
				"z": -2.1281896795,
				"element": "H" 
			},
			{
				"x": -0.4030459304,
				"y": 1.0986147836,
				"z": -0.5284487902,
				"element": "H" 
			},
			{
				"x": -0.8934258011,
				"y": -3.1958615663,
				"z": 1.8007683102,
				"element": "H" 
			},
			{
				"x": 1.046745069,
				"y": -2.8867652608,
				"z": 0.2021797045,
				"element": "H" 
			}
		],
		 "valence_orbital": [ 
			{
				"type": "occ",
				"energy": -0.31899,
				"method": "rhf"
			},
			{
				"type": "occ",
				"energy": -0.312,
				"method": "rhf"
			},
			{
				"type": "occ",
				"energy": -0.29011,
				"method": "rhf"
			},
			{
				"type": "occ",
				"energy": -0.28361,
				"method": "rhf"
			},
			{
				"type": "occ",
				"energy": -0.26166,
				"method": "rhf"
			},
			{
				"type": "unocc",
				"energy": -0.06157,
				"method": "rhf"
			},
			{
				"type": "unocc",
				"energy": -0.05444,
				"method": "rhf"
			},
			{
				"type": "unocc",
				"energy": 0.02094,
				"method": "rhf"
			},
			{
				"type": "unocc",
				"energy": 0.05431,
				"method": "rhf"
			},
			{
				"type": "unocc",
				"energy": 0.06349,
				"method": "rhf"
			}
		],
		"cosmo_sigma_profile": { 
			"-0.025": 0.0,
			"-0.024": 0.0,
			"-0.023": 0.0,
			"-0.022": 0.0,
			"-0.021": 0.0,
			"-0.02": 0.0,
			"-0.019": 0.0,
			"-0.018": 0.0,
			"-0.017": 0.0,
			"-0.016": 0.0,
			"-0.015": 0.0,
			"-0.014": 0.0,
			"-0.013": 0.0,
			"-0.012": 0.0,
			"-0.011": 0.0,
			"-0.01": 0.252208825264,
			"-0.009": 3.75663814032,
			"-0.008": 5.53486130931,
			"-0.007": 5.15253532421,
			"-0.006": 10.8470828429,
			"-0.005": 16.4207166645,
			"-0.004": 20.2101518621,
			"-0.003": 25.3796612312,
			"-0.002": 28.5556104535,
			"-0.001": 17.772043646,
			"0.0": 11.7736765061,
			"0.001": 9.70761918953,
			"0.002": 11.174671217,
			"0.003": 12.9135451807,
			"0.004": 10.421024899,
			"0.005": 5.93026734306,
			"0.006": 4.20393023839,
			"0.007": 5.22865516757,
			"0.008": 4.74188374551,
			"0.009": 4.71791266031,
			"0.01": 8.72719225011,
			"0.011": 8.13226816895,
			"0.012": 2.16277963741,
			"0.013": 0.517861829532,
			"0.014": 0.124703369591,
			"0.015": 0.0,
			"0.016": 0.0,
			"0.017": 0.0,
			"0.018": 0.0,
			"0.019": 0.0,
			"0.02": 0.0,
			"0.021": 0.0,
			"0.022": 0.0,
			"0.023": 0.0,
			"0.024": 0.0,
			"0.025": 0.0
		}
	}
}
