{
	 "smiles": "CC1=CC=C(C=C1)S(=O)(=O)NN=CC1=C(C=CC=C1)[N+]([O-])=O", 
	 "Tm": 427.15, 
	 "num_atms": 35, 
	 "gaussian": { 
		 "optdone": 1, 
		 "sigma_profile": "yes", 
		 "theory": "DFT", 
		 "functional": "B3LYP", 
		 "basiset": "6-31G**", 
		 "properties": { 
			 "R2extent": 8645.5012, 
			 "electric_dipole_moment_norm": 6.48534462538, 
			 "electric_quadrupole_moment_norm": 31.3913209806, 
			 "total_energy": -1404.45314446, 
			 "HOMO_LUMO_gap": 0.14363, 
			 "cosmo_polarized_energy": -17.71, 
			 "cosmo_cavitation_energy": 41.27, 
			 "cosmo_dispersion_energy": -29.5, 
			 "cosmo_repulsion_energy": 2.18, 
			 "cosmo_total_nonelectrostatic_energy": 13.95, 
			 "SMD_solvation_energy": 7.8 
		},
		"coords": [
			{
				"x": -5.0436655185,
				"y": -0.2288379548,
				"z": -1.4576305371,
				"element": "C" 
			},
			{
				"x": -3.961655133,
				"y": -0.4341153122,
				"z": -0.4257167236,
				"element": "C" 
			},
			{
				"x": -3.5393727166,
				"y": -1.7289732467,
				"z": -0.08177067,
				"element": "C" 
			},
			{
				"x": -2.5246372592,
				"y": -1.9315958042,
				"z": 0.8474491792,
				"element": "C" 
			},
			{
				"x": -1.9219828304,
				"y": -0.8203263135,
				"z": 1.4472381919,
				"element": "C" 
			},
			{
				"x": -2.3296545888,
				"y": 0.4780264559,
				"z": 1.1372375235,
				"element": "C" 
			},
			{
				"x": -3.3470165103,
				"y": 0.6578647423,
				"z": 0.2003223642,
				"element": "C" 
			},
			{
				"x": -0.6071977529,
				"y": -1.0875069208,
				"z": 2.6294224177,
				"element": "S" 
			},
			{
				"x": -0.4555931734,
				"y": 0.1194966003,
				"z": 3.4399422672,
				"element": "O" 
			},
			{
				"x": -0.7657931369,
				"y": -2.4227104424,
				"z": 3.2069846777,
				"element": "O" 
			},
			{
				"x": 0.8436775061,
				"y": -1.2650001403,
				"z": 1.7027473322,
				"element": "N" 
			},
			{
				"x": 1.4499917621,
				"y": -0.3722919771,
				"z": 0.876332468,
				"element": "N" 
			},
			{
				"x": 1.2693553396,
				"y": 0.8968889038,
				"z": 0.9963919923,
				"element": "C" 
			},
			{
				"x": 2.0554481199,
				"y": 1.7884742037,
				"z": 0.1232547189,
				"element": "C" 
			},
			{
				"x": 1.7936656078,
				"y": 3.1644805542,
				"z": -0.0559949029,
				"element": "C" 
			},
			{
				"x": 2.6238953508,
				"y": 3.987716002,
				"z": -0.8222521164,
				"element": "C" 
			},
			{
				"x": 3.7301631844,
				"y": 3.4478549504,
				"z": -1.464176736,
				"element": "C" 
			},
			{
				"x": 4.0081728261,
				"y": 2.0842883786,
				"z": -1.3205232353,
				"element": "C" 
			},
			{
				"x": 3.1931134411,
				"y": 1.280525112,
				"z": -0.5341850579,
				"element": "C" 
			},
			{
				"x": 0.6083872054,
				"y": 3.8195152982,
				"z": 0.5210913775,
				"element": "N" 
			},
			{
				"x": 0.6508277398,
				"y": 5.0376032632,
				"z": 0.6821961804,
				"element": "O" 
			},
			{
				"x": -0.3756303133,
				"y": 3.1223282695,
				"z": 0.7845632597,
				"element": "O" 
			},
			{
				"x": -4.6301254522,
				"y": -0.2833564798,
				"z": -2.4723111314,
				"element": "H" 
			},
			{
				"x": -5.8190087008,
				"y": -0.9972931436,
				"z": -1.3824434924,
				"element": "H" 
			},
			{
				"x": -5.519629543,
				"y": 0.7493994317,
				"z": -1.3498334752,
				"element": "H" 
			},
			{
				"x": -4.0195582884,
				"y": -2.5884890004,
				"z": -0.5419458227,
				"element": "H" 
			},
			{
				"x": -2.2185430363,
				"y": -2.9334811605,
				"z": 1.1288550955,
				"element": "H" 
			},
			{
				"x": -1.8768972439,
				"y": 1.3310363835,
				"z": 1.6272984236,
				"element": "H" 
			},
			{
				"x": -3.6686372283,
				"y": 1.6670149724,
				"z": -0.0409558932,
				"element": "H" 
			},
			{
				"x": 0.9407771631,
				"y": -2.2199432234,
				"z": 1.374595029,
				"element": "H" 
			},
			{
				"x": 0.6032637877,
				"y": 1.337010611,
				"z": 1.7288067909,
				"element": "H" 
			},
			{
				"x": 2.3737566952,
				"y": 5.0374983291,
				"z": -0.9074206561,
				"element": "H" 
			},
			{
				"x": 4.3687618478,
				"y": 4.0828636536,
				"z": -2.0694779086,
				"element": "H" 
			},
			{
				"x": 4.8727692885,
				"y": 1.6501543566,
				"z": -1.8137319204,
				"element": "H" 
			},
			{
				"x": 3.4223715609,
				"y": 0.2303806479,
				"z": -0.3957590102,
				"element": "H" 
			}
		],
		 "valence_orbital": [ 
			{
				"type": "occ",
				"energy": -0.28176,
				"method": "rhf"
			},
			{
				"type": "occ",
				"energy": -0.27547,
				"method": "rhf"
			},
			{
				"type": "occ",
				"energy": -0.27166,
				"method": "rhf"
			},
			{
				"type": "occ",
				"energy": -0.26876,
				"method": "rhf"
			},
			{
				"type": "occ",
				"energy": -0.2389,
				"method": "rhf"
			},
			{
				"type": "unocc",
				"energy": -0.09527,
				"method": "rhf"
			},
			{
				"type": "unocc",
				"energy": -0.05931,
				"method": "rhf"
			},
			{
				"type": "unocc",
				"energy": -0.0394,
				"method": "rhf"
			},
			{
				"type": "unocc",
				"energy": -0.02262,
				"method": "rhf"
			},
			{
				"type": "unocc",
				"energy": -0.00949,
				"method": "rhf"
			}
		],
		"cosmo_sigma_profile": { 
			"-0.025": 0.0,
			"-0.024": 0.0,
			"-0.023": 0.0,
			"-0.022": 0.0,
			"-0.021": 0.0,
			"-0.02": 0.0,
			"-0.019": 0.0,
			"-0.018": 0.0,
			"-0.017": 0.0860914193804,
			"-0.016": 0.837827051832,
			"-0.015": 0.993579686247,
			"-0.014": 0.904071501196,
			"-0.013": 0.737865605449,
			"-0.012": 0.709471161645,
			"-0.011": 1.35910073906,
			"-0.01": 1.22355450517,
			"-0.009": 1.44088664678,
			"-0.008": 4.1670644096,
			"-0.007": 11.3789147221,
			"-0.006": 18.9003398219,
			"-0.005": 21.8216885079,
			"-0.004": 21.7729510241,
			"-0.003": 20.1906164342,
			"-0.002": 21.1943935694,
			"-0.001": 25.558505018,
			"0.0": 28.4564439194,
			"0.001": 28.4447197336,
			"0.002": 30.4111039147,
			"0.003": 20.4045947068,
			"0.004": 11.5736981342,
			"0.005": 9.91889764887,
			"0.006": 7.93919797673,
			"0.007": 9.54577922214,
			"0.008": 8.08002060392,
			"0.009": 9.7234363502,
			"0.01": 9.51579506835,
			"0.011": 4.04998008345,
			"0.012": 0.0137806156348,
			"0.013": 0.0,
			"0.014": 0.0,
			"0.015": 0.0,
			"0.016": 0.0,
			"0.017": 0.0,
			"0.018": 0.0,
			"0.019": 0.0,
			"0.02": 0.0,
			"0.021": 0.0,
			"0.022": 0.0,
			"0.023": 0.0,
			"0.024": 0.0,
			"0.025": 0.0
		}
	}
}
