{
	 "smiles": "CCC(=O)NC1=CC(=CC=C1)C#N", 
	 "Tm": 358.15, 
	 "num_atms": 23, 
	 "gaussian": { 
		 "optdone": 1, 
		 "sigma_profile": "yes", 
		 "theory": "DFT", 
		 "functional": "B3LYP", 
		 "basiset": "6-31G**", 
		 "properties": { 
			 "R2extent": 3535.7101, 
			 "electric_dipole_moment_norm": 7.74758087663, 
			 "electric_quadrupole_moment_norm": 18.764778586, 
			 "total_energy": -571.827116526, 
			 "HOMO_LUMO_gap": 0.1902, 
			 "cosmo_polarized_energy": -17.62, 
			 "cosmo_cavitation_energy": 28.38, 
			 "cosmo_dispersion_energy": -20.22, 
			 "cosmo_repulsion_energy": 1.62, 
			 "cosmo_total_nonelectrostatic_energy": 9.78, 
			 "SMD_solvation_energy": 6.82 
		},
		"coords": [
			{
				"x": 0.309087975,
				"y": -4.5257795528,
				"z": 0.9530642272,
				"element": "C" 
			},
			{
				"x": -0.5544756539,
				"y": -3.2686506659,
				"z": 0.8531140895,
				"element": "C" 
			},
			{
				"x": 0.2844010159,
				"y": -2.0027245402,
				"z": 0.6757760939,
				"element": "C" 
			},
			{
				"x": 1.4262723079,
				"y": -2.0232721346,
				"z": 0.2430485787,
				"element": "O" 
			},
			{
				"x": -0.38164509,
				"y": -0.8406744699,
				"z": 1.0234974733,
				"element": "N" 
			},
			{
				"x": 0.0583692374,
				"y": 0.4922491695,
				"z": 0.9283553236,
				"element": "C" 
			},
			{
				"x": 1.330346587,
				"y": 0.8464782722,
				"z": 0.4576069315,
				"element": "C" 
			},
			{
				"x": 1.6826706802,
				"y": 2.2036372879,
				"z": 0.3981056986,
				"element": "C" 
			},
			{
				"x": 0.790467805,
				"y": 3.210002947,
				"z": 0.8000780645,
				"element": "C" 
			},
			{
				"x": -0.4690704272,
				"y": 2.8422946706,
				"z": 1.2662432844,
				"element": "C" 
			},
			{
				"x": -0.8341046664,
				"y": 1.5007914389,
				"z": 1.330861195,
				"element": "C" 
			},
			{
				"x": 2.9853558181,
				"y": 2.5679660672,
				"z": -0.0846008078,
				"element": "C" 
			},
			{
				"x": 4.037092422,
				"y": 2.8764743711,
				"z": -0.4737064794,
				"element": "N" 
			},
			{
				"x": 0.9293766949,
				"y": -4.5063931633,
				"z": 1.8536989463,
				"element": "H" 
			},
			{
				"x": 0.9786840728,
				"y": -4.5959927784,
				"z": 0.0935311371,
				"element": "H" 
			},
			{
				"x": -0.3184214383,
				"y": -5.4207352057,
				"z": 0.987271508,
				"element": "H" 
			},
			{
				"x": -1.2244004033,
				"y": -3.3386353498,
				"z": -0.0154114261,
				"element": "H" 
			},
			{
				"x": -1.2036318354,
				"y": -3.1680062193,
				"z": 1.7324452858,
				"element": "H" 
			},
			{
				"x": -1.3203123143,
				"y": -0.9567986402,
				"z": 1.3782538214,
				"element": "H" 
			},
			{
				"x": 2.0229254163,
				"y": 0.0778101197,
				"z": 0.1474531736,
				"element": "H" 
			},
			{
				"x": 1.0859992512,
				"y": 4.251565084,
				"z": 0.7451244161,
				"element": "H" 
			},
			{
				"x": -1.1741909483,
				"y": 3.604680451,
				"z": 1.5821595471,
				"element": "H" 
			},
			{
				"x": -1.8214965066,
				"y": 1.2285128411,
				"z": 1.6967299174,
				"element": "H" 
			}
		],
		 "valence_orbital": [ 
			{
				"type": "occ",
				"energy": -0.32579,
				"method": "rhf"
			},
			{
				"type": "occ",
				"energy": -0.31689,
				"method": "rhf"
			},
			{
				"type": "occ",
				"energy": -0.26741,
				"method": "rhf"
			},
			{
				"type": "occ",
				"energy": -0.26725,
				"method": "rhf"
			},
			{
				"type": "occ",
				"energy": -0.24015,
				"method": "rhf"
			},
			{
				"type": "unocc",
				"energy": -0.04995,
				"method": "rhf"
			},
			{
				"type": "unocc",
				"energy": -0.02862,
				"method": "rhf"
			},
			{
				"type": "unocc",
				"energy": 0.02208,
				"method": "rhf"
			},
			{
				"type": "unocc",
				"energy": 0.04215,
				"method": "rhf"
			},
			{
				"type": "unocc",
				"energy": 0.0536,
				"method": "rhf"
			}
		],
		"cosmo_sigma_profile": { 
			"-0.025": 0.0,
			"-0.024": 0.0,
			"-0.023": 0.0,
			"-0.022": 0.0,
			"-0.021": 0.0,
			"-0.02": 0.0,
			"-0.019": 0.0,
			"-0.018": 0.0,
			"-0.017": 0.0,
			"-0.016": 0.459674171757,
			"-0.015": 1.36399097579,
			"-0.014": 1.51450701747,
			"-0.013": 1.57713452284,
			"-0.012": 0.914746369706,
			"-0.011": 1.82869033777,
			"-0.01": 1.92704091866,
			"-0.009": 1.68259149646,
			"-0.008": 3.15899775591,
			"-0.007": 8.0075474724,
			"-0.006": 10.5460724125,
			"-0.005": 12.5543272092,
			"-0.004": 11.7230037389,
			"-0.003": 16.7514538098,
			"-0.002": 17.4777613174,
			"-0.001": 17.9731535576,
			"0.0": 20.629288333,
			"0.001": 20.2906576164,
			"0.002": 19.3284305772,
			"0.003": 11.3725498077,
			"0.004": 4.11688515918,
			"0.005": 4.44128881019,
			"0.006": 4.14574849701,
			"0.007": 4.3126428673,
			"0.008": 5.18691961419,
			"0.009": 5.3396238964,
			"0.01": 4.77661236541,
			"0.011": 4.72454148345,
			"0.012": 5.1348330166,
			"0.013": 3.77502567871,
			"0.014": 0.195754589199,
			"0.015": 0.0,
			"0.016": 0.0,
			"0.017": 0.0,
			"0.018": 0.0,
			"0.019": 0.0,
			"0.02": 0.0,
			"0.021": 0.0,
			"0.022": 0.0,
			"0.023": 0.0,
			"0.024": 0.0,
			"0.025": 0.0
		}
	}
}
