{
	 "smiles": "COC1=C(CN2C(=O)CNC2=O)C=C(Br)C=C1", 
	 "Tm": 457.15, 
	 "num_atms": 28, 
	 "gaussian": { 
		 "optdone": 1, 
		 "sigma_profile": "yes", 
		 "theory": "DFT", 
		 "functional": "B3LYP", 
		 "basiset": "6-31G**", 
		 "properties": { 
			 "R2extent": 6557.2594, 
			 "electric_dipole_moment_norm": 3.18602715305, 
			 "electric_quadrupole_moment_norm": 25.5746805173, 
			 "total_energy": -3332.40557155, 
			 "HOMO_LUMO_gap": 0.20004, 
			 "cosmo_polarized_energy": -18.13, 
			 "cosmo_cavitation_energy": 34.83, 
			 "cosmo_dispersion_energy": -24.83, 
			 "cosmo_repulsion_energy": 1.96, 
			 "cosmo_total_nonelectrostatic_energy": 11.96, 
			 "SMD_solvation_energy": 5.86 
		},
		"coords": [
			{
				"x": -3.6134045569,
				"y": 0.2633106272,
				"z": 1.5188231999,
				"element": "C" 
			},
			{
				"x": -2.4356346445,
				"y": 0.3896687345,
				"z": 0.7375714059,
				"element": "O" 
			},
			{
				"x": -1.8740451206,
				"y": -0.7328417602,
				"z": 0.2084589166,
				"element": "C" 
			},
			{
				"x": -0.6458680242,
				"y": -0.5591260573,
				"z": -0.4638706015,
				"element": "C" 
			},
			{
				"x": 0.0100326757,
				"y": 0.8077888034,
				"z": -0.5410459306,
				"element": "C" 
			},
			{
				"x": 1.2470619993,
				"y": 0.9024393955,
				"z": 0.2362982787,
				"element": "N" 
			},
			{
				"x": 1.3188437866,
				"y": 1.2592319265,
				"z": 1.5696605667,
				"element": "C" 
			},
			{
				"x": 0.3959018245,
				"y": 1.5600380142,
				"z": 2.2968858566,
				"element": "O" 
			},
			{
				"x": 2.8070265903,
				"y": 1.2050265635,
				"z": 1.9407702184,
				"element": "C" 
			},
			{
				"x": 3.4328250939,
				"y": 0.8802315812,
				"z": 0.6744626151,
				"element": "N" 
			},
			{
				"x": 2.5180177687,
				"y": 0.6281299436,
				"z": -0.3160144801,
				"element": "C" 
			},
			{
				"x": 2.7276259771,
				"y": 0.2547532182,
				"z": -1.4550202979,
				"element": "O" 
			},
			{
				"x": -0.0312818798,
				"y": -1.6644551571,
				"z": -1.0563680784,
				"element": "C" 
			},
			{
				"x": -0.6173876495,
				"y": -2.9257162552,
				"z": -0.9693332566,
				"element": "C" 
			},
			{
				"x": 0.2442303928,
				"y": -4.4280496548,
				"z": -1.7829704965,
				"element": "Br" 
			},
			{
				"x": -1.8220747717,
				"y": -3.1043796953,
				"z": -0.2983082205,
				"element": "C" 
			},
			{
				"x": -2.4518700719,
				"y": -2.0062452975,
				"z": 0.2891480806,
				"element": "C" 
			},
			{
				"x": -4.4572325528,
				"y": -0.1074766028,
				"z": 0.9226925227,
				"element": "H" 
			},
			{
				"x": -3.8414071533,
				"y": 1.2669652523,
				"z": 1.8795042576,
				"element": "H" 
			},
			{
				"x": -3.4563059203,
				"y": -0.401700247,
				"z": 2.3769333578,
				"element": "H" 
			},
			{
				"x": -0.6674000924,
				"y": 1.5728559476,
				"z": -0.163361457,
				"element": "H" 
			},
			{
				"x": 0.280817515,
				"y": 1.0380644889,
				"z": -1.5743178235,
				"element": "H" 
			},
			{
				"x": 3.124953416,
				"y": 2.1729727428,
				"z": 2.3437181176,
				"element": "H" 
			},
			{
				"x": 2.9639996725,
				"y": 0.4408018176,
				"z": 2.7121987751,
				"element": "H" 
			},
			{
				"x": 4.3874062005,
				"y": 0.5785811335,
				"z": 0.5610783841,
				"element": "H" 
			},
			{
				"x": 0.9105633955,
				"y": -1.5281980025,
				"z": -1.5774609848,
				"element": "H" 
			},
			{
				"x": -2.2734095361,
				"y": -4.0879872074,
				"z": -0.2339070672,
				"element": "H" 
			},
			{
				"x": -3.3926843348,
				"y": -2.1553842532,
				"z": 0.8048741412,
				"element": "H" 
			}
		],
		 "valence_orbital": [ 
			{
				"type": "occ",
				"energy": -0.278,
				"method": "rhf"
			},
			{
				"type": "occ",
				"energy": -0.26856,
				"method": "rhf"
			},
			{
				"type": "occ",
				"energy": -0.26525,
				"method": "rhf"
			},
			{
				"type": "occ",
				"energy": -0.25623,
				"method": "rhf"
			},
			{
				"type": "occ",
				"energy": -0.21793,
				"method": "rhf"
			},
			{
				"type": "unocc",
				"energy": -0.01789,
				"method": "rhf"
			},
			{
				"type": "unocc",
				"energy": -0.00992,
				"method": "rhf"
			},
			{
				"type": "unocc",
				"energy": 0.00227,
				"method": "rhf"
			},
			{
				"type": "unocc",
				"energy": 0.01425,
				"method": "rhf"
			},
			{
				"type": "unocc",
				"energy": 0.05732,
				"method": "rhf"
			}
		],
		"cosmo_sigma_profile": { 
			"-0.025": 0.0,
			"-0.024": 0.0,
			"-0.023": 0.0,
			"-0.022": 0.0,
			"-0.021": 0.0,
			"-0.02": 0.0,
			"-0.019": 0.0,
			"-0.018": 0.0,
			"-0.017": 0.0,
			"-0.016": 0.472600859004,
			"-0.015": 1.32645290627,
			"-0.014": 1.16817175453,
			"-0.013": 1.50929676457,
			"-0.012": 0.670968390408,
			"-0.011": 0.657433299674,
			"-0.01": 1.00084886054,
			"-0.009": 1.54768821055,
			"-0.008": 6.23336103152,
			"-0.007": 12.0312857698,
			"-0.006": 18.1723696597,
			"-0.005": 21.9537070223,
			"-0.004": 20.4025307528,
			"-0.003": 21.4840979274,
			"-0.002": 14.8109456527,
			"-0.001": 14.5023257731,
			"0.0": 13.7367805552,
			"0.001": 16.1454565843,
			"0.002": 18.8767793453,
			"0.003": 23.2818286476,
			"0.004": 18.3137047104,
			"0.005": 14.277359122,
			"0.006": 4.66615603194,
			"0.007": 4.06590632998,
			"0.008": 3.37266149727,
			"0.009": 3.32815877238,
			"0.01": 4.36136365678,
			"0.011": 6.43034872353,
			"0.012": 7.74221570293,
			"0.013": 4.2037139753,
			"0.014": 0.32549314316,
			"0.015": 0.0,
			"0.016": 0.0,
			"0.017": 0.0,
			"0.018": 0.0,
			"0.019": 0.0,
			"0.02": 0.0,
			"0.021": 0.0,
			"0.022": 0.0,
			"0.023": 0.0,
			"0.024": 0.0,
			"0.025": 0.0
		}
	}
}
