{
	 "smiles": "CC1=CC=C(COC2=C(C#N)C(F)=CC=C2)C=C1", 
	 "Tm": 355.15, 
	 "num_atms": 30, 
	 "gaussian": { 
		 "optdone": 1, 
		 "sigma_profile": "yes", 
		 "theory": "DFT", 
		 "functional": "B3LYP", 
		 "basiset": "6-31G**", 
		 "properties": { 
			 "R2extent": 5416.2305, 
			 "electric_dipole_moment_norm": 5.66228580081, 
			 "electric_quadrupole_moment_norm": 14.7207244119, 
			 "total_energy": -808.614255181, 
			 "HOMO_LUMO_gap": 0.19151, 
			 "cosmo_polarized_energy": -10.84, 
			 "cosmo_cavitation_energy": 36.11, 
			 "cosmo_dispersion_energy": -23.98, 
			 "cosmo_repulsion_energy": 1.85, 
			 "cosmo_total_nonelectrostatic_energy": 13.98, 
			 "SMD_solvation_energy": 7.84 
		},
		"coords": [
			{
				"x": 1.3172343768,
				"y": -0.0212976738,
				"z": -4.703456304,
				"element": "C" 
			},
			{
				"x": 1.1550457171,
				"y": 0.5721028614,
				"z": -3.3239407584,
				"element": "C" 
			},
			{
				"x": -0.1071756719,
				"y": 0.7094565491,
				"z": -2.7369342734,
				"element": "C" 
			},
			{
				"x": -0.2537336705,
				"y": 1.2794764249,
				"z": -1.4703012775,
				"element": "C" 
			},
			{
				"x": 0.8593989702,
				"y": 1.7343910263,
				"z": -0.7586085892,
				"element": "C" 
			},
			{
				"x": 0.7096117747,
				"y": 2.3501251739,
				"z": 0.6097569168,
				"element": "C" 
			},
			{
				"x": 1.3665997744,
				"y": 1.5690173802,
				"z": 1.6461942635,
				"element": "O" 
			},
			{
				"x": 0.8023682628,
				"y": 0.3797590086,
				"z": 2.000983653,
				"element": "C" 
			},
			{
				"x": -0.4110093784,
				"y": 0.331361402,
				"z": 2.7298662049,
				"element": "C" 
			},
			{
				"x": -1.1148323758,
				"y": 1.5168269621,
				"z": 3.1016664705,
				"element": "C" 
			},
			{
				"x": -1.687194381,
				"y": 2.4857653927,
				"z": 3.396742086,
				"element": "N" 
			},
			{
				"x": -0.9026362221,
				"y": -0.9233387129,
				"z": 3.1233361805,
				"element": "C" 
			},
			{
				"x": -2.051626969,
				"y": -0.9642841719,
				"z": 3.8155084371,
				"element": "F" 
			},
			{
				"x": -0.2398614144,
				"y": -2.1052073915,
				"z": 2.8324827862,
				"element": "C" 
			},
			{
				"x": 0.9611662322,
				"y": -2.0325170373,
				"z": 2.1240640514,
				"element": "C" 
			},
			{
				"x": 1.4780321534,
				"y": -0.8062702463,
				"z": 1.7072395675,
				"element": "C" 
			},
			{
				"x": 2.1277262967,
				"y": 1.5965160639,
				"z": -1.3417464615,
				"element": "C" 
			},
			{
				"x": 2.2716611965,
				"y": 1.0224136673,
				"z": -2.6008911793,
				"element": "C" 
			},
			{
				"x": 2.1683817507,
				"y": -0.7088041049,
				"z": -4.7463238631,
				"element": "H" 
			},
			{
				"x": 0.4228385685,
				"y": -0.5703138291,
				"z": -5.010897182,
				"element": "H" 
			},
			{
				"x": 1.4969963689,
				"y": 0.7603750092,
				"z": -5.4519048427,
				"element": "H" 
			},
			{
				"x": -0.9871564416,
				"y": 0.3637887313,
				"z": -3.2735842377,
				"element": "H" 
			},
			{
				"x": -1.2453622245,
				"y": 1.3722896836,
				"z": -1.0340260699,
				"element": "H" 
			},
			{
				"x": 1.2130780748,
				"y": 3.318150414,
				"z": 0.669654921,
				"element": "H" 
			},
			{
				"x": -0.3442575828,
				"y": 2.5011020644,
				"z": 0.8614815282,
				"element": "H" 
			},
			{
				"x": -0.661471012,
				"y": -3.0474504575,
				"z": 3.1623104631,
				"element": "H" 
			},
			{
				"x": 1.4958613321,
				"y": -2.9471748726,
				"z": 1.8875988004,
				"element": "H" 
			},
			{
				"x": 2.4052319397,
				"y": -0.7430478924,
				"z": 1.1502219229,
				"element": "H" 
			},
			{
				"x": 3.0052428014,
				"y": 1.938694484,
				"z": -0.798799459,
				"element": "H" 
			},
			{
				"x": 3.2636417533,
				"y": 0.9245940914,
				"z": -3.0357937551,
				"element": "H" 
			}
		],
		 "valence_orbital": [ 
			{
				"type": "occ",
				"energy": -0.29742,
				"method": "rhf"
			},
			{
				"type": "occ",
				"energy": -0.26447,
				"method": "rhf"
			},
			{
				"type": "occ",
				"energy": -0.25761,
				"method": "rhf"
			},
			{
				"type": "occ",
				"energy": -0.25548,
				"method": "rhf"
			},
			{
				"type": "occ",
				"energy": -0.24532,
				"method": "rhf"
			},
			{
				"type": "unocc",
				"energy": -0.05381,
				"method": "rhf"
			},
			{
				"type": "unocc",
				"energy": -0.0193,
				"method": "rhf"
			},
			{
				"type": "unocc",
				"energy": -0.01348,
				"method": "rhf"
			},
			{
				"type": "unocc",
				"energy": -0.00702,
				"method": "rhf"
			},
			{
				"type": "unocc",
				"energy": 0.03083,
				"method": "rhf"
			}
		],
		"cosmo_sigma_profile": { 
			"-0.025": 0.0,
			"-0.024": 0.0,
			"-0.023": 0.0,
			"-0.022": 0.0,
			"-0.021": 0.0,
			"-0.02": 0.0,
			"-0.019": 0.0,
			"-0.018": 0.0,
			"-0.017": 0.0,
			"-0.016": 0.0,
			"-0.015": 0.0,
			"-0.014": 0.0,
			"-0.013": 0.0,
			"-0.012": 0.0,
			"-0.011": 0.0,
			"-0.01": 0.0,
			"-0.009": 0.34373677057,
			"-0.008": 3.31873019889,
			"-0.007": 7.30734995423,
			"-0.006": 13.7101534855,
			"-0.005": 18.3273718494,
			"-0.004": 23.2109912259,
			"-0.003": 24.0530416638,
			"-0.002": 23.7884716642,
			"-0.001": 26.5404718314,
			"0.0": 28.4555205354,
			"0.001": 22.1165960266,
			"0.002": 22.0348879822,
			"0.003": 23.2333453122,
			"0.004": 12.0510033109,
			"0.005": 12.3905597891,
			"0.006": 7.42732219382,
			"0.007": 3.88513253475,
			"0.008": 3.90570059471,
			"0.009": 4.09324152936,
			"0.01": 4.03443950196,
			"0.011": 2.57978647513,
			"0.012": 2.3603392524,
			"0.013": 0.693056521643,
			"0.014": 0.0,
			"0.015": 0.0,
			"0.016": 0.0,
			"0.017": 0.0,
			"0.018": 0.0,
			"0.019": 0.0,
			"0.02": 0.0,
			"0.021": 0.0,
			"0.022": 0.0,
			"0.023": 0.0,
			"0.024": 0.0,
			"0.025": 0.0
		}
	}
}
