{
	 "smiles": "NC1=C(N)C=C(C=C1)C1=NC2=C(S1)C=CC=C2", 
	 "Tm": 440.15, 
	 "num_atms": 28, 
	 "gaussian": { 
		 "optdone": 1, 
		 "sigma_profile": "yes", 
		 "theory": "DFT", 
		 "functional": "B3LYP", 
		 "basiset": "6-31G**", 
		 "properties": { 
			 "R2extent": 6056.77, 
			 "electric_dipole_moment_norm": 2.67870811027, 
			 "electric_quadrupole_moment_norm": 18.054506312, 
			 "total_energy": -1064.48049591, 
			 "HOMO_LUMO_gap": 0.14646, 
			 "cosmo_polarized_energy": -14.38, 
			 "cosmo_cavitation_energy": 33.45, 
			 "cosmo_dispersion_energy": -25.61, 
			 "cosmo_repulsion_energy": 1.91, 
			 "cosmo_total_nonelectrostatic_energy": 9.75, 
			 "SMD_solvation_energy": 3.55 
		},
		"coords": [
			{
				"x": 2.5647726285,
				"y": 1.7890874444,
				"z": -4.0677323751,
				"element": "N" 
			},
			{
				"x": 1.9402834817,
				"y": 1.5360123773,
				"z": -2.843310887,
				"element": "C" 
			},
			{
				"x": 1.4703167518,
				"y": 0.2206438582,
				"z": -2.5942439001,
				"element": "C" 
			},
			{
				"x": 1.7224730933,
				"y": -0.7567848005,
				"z": -3.5804585883,
				"element": "N" 
			},
			{
				"x": 0.8396091072,
				"y": -0.0649078717,
				"z": -1.390503387,
				"element": "C" 
			},
			{
				"x": 0.6418752149,
				"y": 0.9303536443,
				"z": -0.4132758511,
				"element": "C" 
			},
			{
				"x": 1.0785776636,
				"y": 2.2347502153,
				"z": -0.6829366099,
				"element": "C" 
			},
			{
				"x": 1.7216232507,
				"y": 2.5282714166,
				"z": -1.8821879558,
				"element": "C" 
			},
			{
				"x": -0.0268122549,
				"y": 0.566625634,
				"z": 0.8361392479,
				"element": "C" 
			},
			{
				"x": -0.4336654342,
				"y": -0.6345111044,
				"z": 1.1250301634,
				"element": "N" 
			},
			{
				"x": -1.0313216568,
				"y": -0.69383605,
				"z": 2.3687715233,
				"element": "C" 
			},
			{
				"x": -1.0874295686,
				"y": 0.5325743708,
				"z": 3.0773634185,
				"element": "C" 
			},
			{
				"x": -0.3498483033,
				"y": 1.7907928033,
				"z": 2.1079222495,
				"element": "S" 
			},
			{
				"x": -1.6638791864,
				"y": 0.6162815458,
				"z": 4.3461496281,
				"element": "C" 
			},
			{
				"x": -2.1894250163,
				"y": -0.5458971286,
				"z": 4.9078432011,
				"element": "C" 
			},
			{
				"x": -2.1405461951,
				"y": -1.7685960521,
				"z": 4.2166108288,
				"element": "C" 
			},
			{
				"x": -1.5665508828,
				"y": -1.852052035,
				"z": 2.9534492513,
				"element": "C" 
			},
			{
				"x": 3.1522183658,
				"y": 1.0207297506,
				"z": -4.3756334994,
				"element": "H" 
			},
			{
				"x": 3.0570435335,
				"y": 2.6721138856,
				"z": -4.108862575,
				"element": "H" 
			},
			{
				"x": 1.2926750571,
				"y": -1.6486082166,
				"z": -3.3653967099,
				"element": "H" 
			},
			{
				"x": 1.4336600805,
				"y": -0.4512972198,
				"z": -4.5058450898,
				"element": "H" 
			},
			{
				"x": 0.4793549739,
				"y": -1.0683377212,
				"z": -1.1858441595,
				"element": "H" 
			},
			{
				"x": 0.934062644,
				"y": 3.0267534907,
				"z": 0.045588336,
				"element": "H" 
			},
			{
				"x": 2.0743510133,
				"y": 3.53861278,
				"z": -2.0738976727,
				"element": "H" 
			},
			{
				"x": -1.7035354166,
				"y": 1.5586415183,
				"z": 4.8832790645,
				"element": "H" 
			},
			{
				"x": -2.6425732924,
				"y": -0.5033325982,
				"z": 5.8938303011,
				"element": "H" 
			},
			{
				"x": -2.557241704,
				"y": -2.6594509734,
				"z": 4.6771720979,
				"element": "H" 
			},
			{
				"x": -1.5214679484,
				"y": -2.7892329636,
				"z": 2.408379949,
				"element": "H" 
			}
		],
		 "valence_orbital": [ 
			{
				"type": "occ",
				"energy": -0.26498,
				"method": "rhf"
			},
			{
				"type": "occ",
				"energy": -0.24474,
				"method": "rhf"
			},
			{
				"type": "occ",
				"energy": -0.22711,
				"method": "rhf"
			},
			{
				"type": "occ",
				"energy": -0.21994,
				"method": "rhf"
			},
			{
				"type": "occ",
				"energy": -0.19058,
				"method": "rhf"
			},
			{
				"type": "unocc",
				"energy": -0.04412,
				"method": "rhf"
			},
			{
				"type": "unocc",
				"energy": 0.00174,
				"method": "rhf"
			},
			{
				"type": "unocc",
				"energy": 0.00861,
				"method": "rhf"
			},
			{
				"type": "unocc",
				"energy": 0.0217,
				"method": "rhf"
			},
			{
				"type": "unocc",
				"energy": 0.0246,
				"method": "rhf"
			}
		],
		"cosmo_sigma_profile": { 
			"-0.025": 0.0,
			"-0.024": 0.0,
			"-0.023": 0.0,
			"-0.022": 0.0,
			"-0.021": 0.0,
			"-0.02": 0.0,
			"-0.019": 0.0,
			"-0.018": 0.0,
			"-0.017": 0.0,
			"-0.016": 0.0,
			"-0.015": 0.0,
			"-0.014": 0.0,
			"-0.013": 0.395711300676,
			"-0.012": 2.79541608737,
			"-0.011": 5.17239378658,
			"-0.01": 4.94958096743,
			"-0.009": 6.18602733011,
			"-0.008": 5.3544178966,
			"-0.007": 7.0021496601,
			"-0.006": 13.7395439786,
			"-0.005": 16.0394045462,
			"-0.004": 14.7185190237,
			"-0.003": 13.2470288952,
			"-0.002": 12.3023838458,
			"-0.001": 12.9359102865,
			"0.0": 12.8315296812,
			"0.001": 18.5829912592,
			"0.002": 21.6025477488,
			"0.003": 23.3924467357,
			"0.004": 27.512048212,
			"0.005": 24.373586865,
			"0.006": 9.10543081731,
			"0.007": 4.11204782973,
			"0.008": 2.00301939782,
			"0.009": 2.92242852565,
			"0.01": 2.58457301101,
			"0.011": 2.31405426819,
			"0.012": 1.80211324027,
			"0.013": 1.12921482262,
			"0.014": 0.654281992172,
			"0.015": 0.0281062715074,
			"0.016": 0.0,
			"0.017": 0.0,
			"0.018": 0.0,
			"0.019": 0.0,
			"0.02": 0.0,
			"0.021": 0.0,
			"0.022": 0.0,
			"0.023": 0.0,
			"0.024": 0.0,
			"0.025": 0.0
		}
	}
}
