{
	 "smiles": "CC1=C(C=C(C=C1Br)C(O)=O)[N+]([O-])=O", 
	 "Tm": 457.15, 
	 "num_atms": 20, 
	 "gaussian": { 
		 "optdone": 1, 
		 "sigma_profile": "yes", 
		 "theory": "DFT", 
		 "functional": "B3LYP", 
		 "basiset": "6-31G**", 
		 "properties": { 
			 "R2extent": 4843.8504, 
			 "electric_dipole_moment_norm": 2.19212824899, 
			 "electric_quadrupole_moment_norm": 20.3076790643, 
			 "total_energy": -3235.42164383, 
			 "HOMO_LUMO_gap": 0.16971, 
			 "cosmo_polarized_energy": -16.12, 
			 "cosmo_cavitation_energy": 27.6, 
			 "cosmo_dispersion_energy": -20.58, 
			 "cosmo_repulsion_energy": 1.61, 
			 "cosmo_total_nonelectrostatic_energy": 8.62, 
			 "SMD_solvation_energy": 7.06 
		},
		"coords": [
			{
				"x": -0.7140725214,
				"y": 2.4415780265,
				"z": -1.5949807268,
				"element": "C" 
			},
			{
				"x": -0.2149790699,
				"y": 1.6494692886,
				"z": -0.4150027824,
				"element": "C" 
			},
			{
				"x": 0.9142467559,
				"y": 0.8067162675,
				"z": -0.4582461258,
				"element": "C" 
			},
			{
				"x": 1.3426678241,
				"y": 0.0331362851,
				"z": 0.6189082466,
				"element": "C" 
			},
			{
				"x": 0.660507088,
				"y": 0.1005804577,
				"z": 1.8306871284,
				"element": "C" 
			},
			{
				"x": -0.4656891254,
				"y": 0.9244738033,
				"z": 1.9240046539,
				"element": "C" 
			},
			{
				"x": -0.8805485572,
				"y": 1.6742554794,
				"z": 0.8299161972,
				"element": "C" 
			},
			{
				"x": -2.4223432486,
				"y": 2.7751661336,
				"z": 1.0916847026,
				"element": "Br" 
			},
			{
				"x": 1.0371147901,
				"y": -0.696694981,
				"z": 3.0487343337,
				"element": "C" 
			},
			{
				"x": 2.2827506702,
				"y": -1.2283146828,
				"z": 3.0791517245,
				"element": "O" 
			},
			{
				"x": 0.2758586959,
				"y": -0.8691527791,
				"z": 3.969814146,
				"element": "O" 
			},
			{
				"x": 1.7455687941,
				"y": 0.6958775369,
				"z": -1.6768163639,
				"element": "N" 
			},
			{
				"x": 2.385764792,
				"y": -0.3442849152,
				"z": -1.8262816374,
				"element": "O" 
			},
			{
				"x": 1.7761931895,
				"y": 1.6524605994,
				"z": -2.447660166,
				"element": "O" 
			},
			{
				"x": -1.7749078934,
				"y": 2.6596758294,
				"z": -1.4772459943,
				"element": "H" 
			},
			{
				"x": -0.5530936341,
				"y": 1.9115977518,
				"z": -2.5330515227,
				"element": "H" 
			},
			{
				"x": -0.1753580672,
				"y": 3.3914371788,
				"z": -1.6746083495,
				"element": "H" 
			},
			{
				"x": 2.1874626966,
				"y": -0.6252036887,
				"z": 0.4519356359,
				"element": "H" 
			},
			{
				"x": -1.0080118474,
				"y": 0.9604952323,
				"z": 2.8609735065,
				"element": "H" 
			},
			{
				"x": 2.8259686682,
				"y": -0.8910688235,
				"z": 2.3536833936,
				"element": "H" 
			}
		],
		 "valence_orbital": [ 
			{
				"type": "occ",
				"energy": -0.31853,
				"method": "rhf"
			},
			{
				"type": "occ",
				"energy": -0.30815,
				"method": "rhf"
			},
			{
				"type": "occ",
				"energy": -0.29836,
				"method": "rhf"
			},
			{
				"type": "occ",
				"energy": -0.29103,
				"method": "rhf"
			},
			{
				"type": "occ",
				"energy": -0.27822,
				"method": "rhf"
			},
			{
				"type": "unocc",
				"energy": -0.10851,
				"method": "rhf"
			},
			{
				"type": "unocc",
				"energy": -0.07803,
				"method": "rhf"
			},
			{
				"type": "unocc",
				"energy": -0.03732,
				"method": "rhf"
			},
			{
				"type": "unocc",
				"energy": -0.02134,
				"method": "rhf"
			},
			{
				"type": "unocc",
				"energy": 0.02368,
				"method": "rhf"
			}
		],
		"cosmo_sigma_profile": { 
			"-0.025": 0.0,
			"-0.024": 0.0,
			"-0.023": 0.0,
			"-0.022": 0.0,
			"-0.021": 0.0,
			"-0.02": 0.753584412874,
			"-0.019": 1.11641266503,
			"-0.018": 0.767617862627,
			"-0.017": 1.36516204624,
			"-0.016": 1.21722721374,
			"-0.015": 0.765314043977,
			"-0.014": 0.868571337904,
			"-0.013": 0.886516927071,
			"-0.012": 1.24666840103,
			"-0.011": 1.15785292748,
			"-0.01": 1.26929043582,
			"-0.009": 2.33137543462,
			"-0.008": 3.52293917058,
			"-0.007": 4.3946658013,
			"-0.006": 6.73874463641,
			"-0.005": 10.8785391195,
			"-0.004": 13.9311785416,
			"-0.003": 18.1145220667,
			"-0.002": 25.262436125,
			"-0.001": 22.3686069072,
			"0.0": 10.7653462172,
			"0.001": 11.9342132515,
			"0.002": 10.1484280727,
			"0.003": 12.277159116,
			"0.004": 8.57875517748,
			"0.005": 5.2988655364,
			"0.006": 7.78893970565,
			"0.007": 10.6814365697,
			"0.008": 7.89953668793,
			"0.009": 7.24768076091,
			"0.01": 5.58733836144,
			"0.011": 5.02560990013,
			"0.012": 2.31202905729,
			"0.013": 0.305421642961,
			"0.014": 0.0,
			"0.015": 0.0,
			"0.016": 0.0,
			"0.017": 0.0,
			"0.018": 0.0,
			"0.019": 0.0,
			"0.02": 0.0,
			"0.021": 0.0,
			"0.022": 0.0,
			"0.023": 0.0,
			"0.024": 0.0,
			"0.025": 0.0
		}
	}
}
