{
	 "smiles": "CC1=CC(=C(Cl)C=C1)S(Cl)(=O)=O", 
	 "Tm": 323.15, 
	 "num_atms": 18, 
	 "gaussian": { 
		 "optdone": 1, 
		 "sigma_profile": "yes", 
		 "theory": "DFT", 
		 "functional": "B3LYP", 
		 "basiset": "6-31G**", 
		 "properties": { 
			 "R2extent": 4907.1094, 
			 "electric_dipole_moment_norm": 6.16942918186, 
			 "electric_quadrupole_moment_norm": 14.9821052129, 
			 "total_energy": -1739.30951273, 
			 "HOMO_LUMO_gap": 0.17844, 
			 "cosmo_polarized_energy": -9.45, 
			 "cosmo_cavitation_energy": 27.09, 
			 "cosmo_dispersion_energy": -20.44, 
			 "cosmo_repulsion_energy": 1.58, 
			 "cosmo_total_nonelectrostatic_energy": 8.23, 
			 "SMD_solvation_energy": 3.24 
		},
		"coords": [
			{
				"x": -1.9698655192,
				"y": 1.3711853453,
				"z": -1.5108558015,
				"element": "C" 
			},
			{
				"x": -0.7755102157,
				"y": 0.5607803227,
				"z": -1.0692450889,
				"element": "C" 
			},
			{
				"x": 0.4482085972,
				"y": 0.6594295071,
				"z": -1.7350318492,
				"element": "C" 
			},
			{
				"x": 1.5481289421,
				"y": -0.1096748789,
				"z": -1.3395683614,
				"element": "C" 
			},
			{
				"x": 1.4507108612,
				"y": -0.9926824972,
				"z": -0.2546027895,
				"element": "C" 
			},
			{
				"x": 2.7836907145,
				"y": -1.957542343,
				"z": 0.3164214612,
				"element": "Cl" 
			},
			{
				"x": 0.2298677905,
				"y": -1.0900443813,
				"z": 0.4164349494,
				"element": "C" 
			},
			{
				"x": -0.8612651482,
				"y": -0.3263700409,
				"z": 0.0123112176,
				"element": "C" 
			},
			{
				"x": 3.0323247391,
				"y": 0.0908079532,
				"z": -2.3379068635,
				"element": "S" 
			},
			{
				"x": 4.3230465869,
				"y": 1.1024857385,
				"z": -0.9857359633,
				"element": "Cl" 
			},
			{
				"x": 3.6396855911,
				"y": -1.199573122,
				"z": -2.6251866582,
				"element": "O" 
			},
			{
				"x": 2.7378946189,
				"y": 1.0465988772,
				"z": -3.3988811719,
				"element": "O" 
			},
			{
				"x": -2.4803218948,
				"y": 1.8235488242,
				"z": -0.6547442474,
				"element": "H" 
			},
			{
				"x": -2.7015221,
				"y": 0.7410703788,
				"z": -2.0301649684,
				"element": "H" 
			},
			{
				"x": -1.6785127742,
				"y": 2.1723646278,
				"z": -2.1943388332,
				"element": "H" 
			},
			{
				"x": 0.5650163328,
				"y": 1.3352358847,
				"z": -2.5745163979,
				"element": "H" 
			},
			{
				"x": 0.1482313119,
				"y": -1.7677059381,
				"z": 1.2589827749,
				"element": "H" 
			},
			{
				"x": -1.7980084341,
				"y": -0.4219142581,
				"z": 0.5549285911,
				"element": "H" 
			}
		],
		 "valence_orbital": [ 
			{
				"type": "occ",
				"energy": -0.33383,
				"method": "rhf"
			},
			{
				"type": "occ",
				"energy": -0.32065,
				"method": "rhf"
			},
			{
				"type": "occ",
				"energy": -0.31272,
				"method": "rhf"
			},
			{
				"type": "occ",
				"energy": -0.29488,
				"method": "rhf"
			},
			{
				"type": "occ",
				"energy": -0.26817,
				"method": "rhf"
			},
			{
				"type": "unocc",
				"energy": -0.08973,
				"method": "rhf"
			},
			{
				"type": "unocc",
				"energy": -0.05237,
				"method": "rhf"
			},
			{
				"type": "unocc",
				"energy": -0.04011,
				"method": "rhf"
			},
			{
				"type": "unocc",
				"energy": 0.00686,
				"method": "rhf"
			},
			{
				"type": "unocc",
				"energy": 0.05586,
				"method": "rhf"
			}
		],
		"cosmo_sigma_profile": { 
			"-0.025": 0.0,
			"-0.024": 0.0,
			"-0.023": 0.0,
			"-0.022": 0.0,
			"-0.021": 0.0,
			"-0.02": 0.0,
			"-0.019": 0.0,
			"-0.018": 0.0,
			"-0.017": 0.0,
			"-0.016": 0.0,
			"-0.015": 0.0,
			"-0.014": 0.0,
			"-0.013": 0.0,
			"-0.012": 0.0,
			"-0.011": 0.0,
			"-0.01": 0.0,
			"-0.009": 0.417371685586,
			"-0.008": 4.31403887068,
			"-0.007": 7.41563948009,
			"-0.006": 7.55985931972,
			"-0.005": 11.7650679387,
			"-0.004": 13.9478532385,
			"-0.003": 15.1375012868,
			"-0.002": 19.0903533176,
			"-0.001": 25.122611378,
			"0.0": 23.0711338848,
			"0.001": 19.6435846875,
			"0.002": 14.2057740401,
			"0.003": 22.2878556179,
			"0.004": 9.12162317518,
			"0.005": 4.16172205973,
			"0.006": 3.4382368065,
			"0.007": 6.85738708588,
			"0.008": 10.9643794057,
			"0.009": 3.26422326193,
			"0.01": 0.0,
			"0.011": 0.0,
			"0.012": 0.0,
			"0.013": 0.0,
			"0.014": 0.0,
			"0.015": 0.0,
			"0.016": 0.0,
			"0.017": 0.0,
			"0.018": 0.0,
			"0.019": 0.0,
			"0.02": 0.0,
			"0.021": 0.0,
			"0.022": 0.0,
			"0.023": 0.0,
			"0.024": 0.0,
			"0.025": 0.0
		}
	}
}
