{
	 "smiles": "COC(=O)C1=C(C)C2=CC=CC=C2C1", 
	 "Tm": 339.15, 
	 "num_atms": 26, 
	 "gaussian": { 
		 "optdone": 1, 
		 "sigma_profile": "yes", 
		 "theory": "DFT", 
		 "functional": "B3LYP", 
		 "basiset": "6-31G**", 
		 "properties": { 
			 "R2extent": 3337.6325, 
			 "electric_dipole_moment_norm": 1.70805501375, 
			 "electric_quadrupole_moment_norm": 10.224167751, 
			 "total_energy": -614.972299261, 
			 "HOMO_LUMO_gap": 0.16896, 
			 "cosmo_polarized_energy": -7.84, 
			 "cosmo_cavitation_energy": 29.42, 
			 "cosmo_dispersion_energy": -21.51, 
			 "cosmo_repulsion_energy": 1.69, 
			 "cosmo_total_nonelectrostatic_energy": 9.6, 
			 "SMD_solvation_energy": 6.12 
		},
		"coords": [
			{
				"x": -3.3478778664,
				"y": 0.9355771607,
				"z": -2.9814703012,
				"element": "C" 
			},
			{
				"x": -2.0350860289,
				"y": 0.6610962873,
				"z": -2.4751014997,
				"element": "O" 
			},
			{
				"x": -1.9590202462,
				"y": 0.4951915493,
				"z": -1.1257805344,
				"element": "C" 
			},
			{
				"x": -2.9408841441,
				"y": 0.5757507762,
				"z": -0.4057686335,
				"element": "O" 
			},
			{
				"x": -0.5768353476,
				"y": 0.2192648612,
				"z": -0.7103773962,
				"element": "C" 
			},
			{
				"x": -0.14708736,
				"y": 0.00253637,
				"z": 0.5676578541,
				"element": "C" 
			},
			{
				"x": -0.9420159294,
				"y": -0.0103860243,
				"z": 1.8354956892,
				"element": "C" 
			},
			{
				"x": 1.3020085759,
				"y": -0.2337724182,
				"z": 0.5366981909,
				"element": "C" 
			},
			{
				"x": 2.1960904548,
				"y": -0.5003296542,
				"z": 1.5782048398,
				"element": "C" 
			},
			{
				"x": 3.5445847146,
				"y": -0.6883400927,
				"z": 1.2691105971,
				"element": "C" 
			},
			{
				"x": 3.9908269382,
				"y": -0.6113524443,
				"z": -0.0559951057,
				"element": "C" 
			},
			{
				"x": 3.0961458948,
				"y": -0.344442343,
				"z": -1.0994959008,
				"element": "C" 
			},
			{
				"x": 1.7527354175,
				"y": -0.156498501,
				"z": -0.7971329982,
				"element": "C" 
			},
			{
				"x": 0.5764683545,
				"y": 0.1399814329,
				"z": -1.6904505187,
				"element": "C" 
			},
			{
				"x": -3.2322368228,
				"y": 1.0388621523,
				"z": -4.0607023583,
				"element": "H" 
			},
			{
				"x": -3.7457491545,
				"y": 1.8574363096,
				"z": -2.5488868394,
				"element": "H" 
			},
			{
				"x": -4.0334458805,
				"y": 0.1170939015,
				"z": -2.7462438694,
				"element": "H" 
			},
			{
				"x": -1.9954981021,
				"y": 0.1854830192,
				"z": 1.6444102064,
				"element": "H" 
			},
			{
				"x": -0.5555433013,
				"y": 0.7436393796,
				"z": 2.5326016802,
				"element": "H" 
			},
			{
				"x": -0.8406388763,
				"y": -0.9813803654,
				"z": 2.3362645864,
				"element": "H" 
			},
			{
				"x": 1.8530067195,
				"y": -0.560687823,
				"z": 2.6071340189,
				"element": "H" 
			},
			{
				"x": 4.2558471772,
				"y": -0.8964848785,
				"z": 2.0632761202,
				"element": "H" 
			},
			{
				"x": 5.0440343673,
				"y": -0.7605979879,
				"z": -0.2763765504,
				"element": "H" 
			},
			{
				"x": 3.4518292346,
				"y": -0.2865388934,
				"z": -2.1249824359,
				"element": "H" 
			},
			{
				"x": 0.7003044195,
				"y": 1.0766668363,
				"z": -2.2494575912,
				"element": "H" 
			},
			{
				"x": 0.4159367918,
				"y": -0.64096861,
				"z": -2.4451312503,
				"element": "H" 
			}
		],
		 "valence_orbital": [ 
			{
				"type": "occ",
				"energy": -0.29501,
				"method": "rhf"
			},
			{
				"type": "occ",
				"energy": -0.28531,
				"method": "rhf"
			},
			{
				"type": "occ",
				"energy": -0.26334,
				"method": "rhf"
			},
			{
				"type": "occ",
				"energy": -0.24778,
				"method": "rhf"
			},
			{
				"type": "occ",
				"energy": -0.22178,
				"method": "rhf"
			},
			{
				"type": "unocc",
				"energy": -0.05282,
				"method": "rhf"
			},
			{
				"type": "unocc",
				"energy": -0.00362,
				"method": "rhf"
			},
			{
				"type": "unocc",
				"energy": 0.02565,
				"method": "rhf"
			},
			{
				"type": "unocc",
				"energy": 0.08731,
				"method": "rhf"
			},
			{
				"type": "unocc",
				"energy": 0.09808,
				"method": "rhf"
			}
		],
		"cosmo_sigma_profile": { 
			"-0.025": 0.0,
			"-0.024": 0.0,
			"-0.023": 0.0,
			"-0.022": 0.0,
			"-0.021": 0.0,
			"-0.02": 0.0,
			"-0.019": 0.0,
			"-0.018": 0.0,
			"-0.017": 0.0,
			"-0.016": 0.0,
			"-0.015": 0.0,
			"-0.014": 0.0,
			"-0.013": 0.0,
			"-0.012": 0.0,
			"-0.011": 0.0,
			"-0.01": 0.0,
			"-0.009": 0.0,
			"-0.008": 0.0,
			"-0.007": 0.330426449541,
			"-0.006": 7.72459807305,
			"-0.005": 20.6004111939,
			"-0.004": 25.2354017258,
			"-0.003": 28.2107246069,
			"-0.002": 19.3962362766,
			"-0.001": 20.5560607668,
			"0.0": 18.7120385252,
			"0.001": 15.6244331534,
			"0.002": 16.8979741573,
			"0.003": 12.4534715546,
			"0.004": 12.3175583229,
			"0.005": 12.6090516512,
			"0.006": 7.59913126114,
			"0.007": 2.85056439139,
			"0.008": 2.53945491331,
			"0.009": 2.00159849534,
			"0.01": 1.53411599523,
			"0.011": 2.21481677386,
			"0.012": 3.34247706415,
			"0.013": 1.22644768854,
			"0.014": 0.0,
			"0.015": 0.0,
			"0.016": 0.0,
			"0.017": 0.0,
			"0.018": 0.0,
			"0.019": 0.0,
			"0.02": 0.0,
			"0.021": 0.0,
			"0.022": 0.0,
			"0.023": 0.0,
			"0.024": 0.0,
			"0.025": 0.0
		}
	}
}
