{
	 "smiles": "OC(=O)C1=C(I)C=CC(=C1)[N+]([O-])=O", 
	 "Tm": 468.15, 
	 "num_atms": 17, 
	 "gaussian": { 
		 "optdone": 1, 
		 "sigma_profile": "yes", 
		 "theory": "DFT", 
		 "functional": "B3LYP", 
		 "basiset": "6-31G**", 
		 "properties": { 
			 "R2extent": 3155.6348, 
			 "electric_dipole_moment_norm": 5.75193082451, 
			 "electric_quadrupole_moment_norm": 11.6031840264, 
			 "total_energy": -636.082147208, 
			 "HOMO_LUMO_gap": 0.17503, 
			 "cosmo_polarized_energy": -15.41, 
			 "cosmo_cavitation_energy": 25.96, 
			 "cosmo_dispersion_energy": -20.42, 
			 "cosmo_repulsion_energy": 1.57, 
			 "cosmo_total_nonelectrostatic_energy": 7.11, 
			 "SMD_solvation_energy": 7.13 
		},
		"coords": [
			{
				"x": -0.6003416973,
				"y": 2.2960899722,
				"z": 3.567120604,
				"element": "O" 
			},
			{
				"x": -1.4293517385,
				"y": 1.7172304833,
				"z": 2.6789742224,
				"element": "C" 
			},
			{
				"x": -2.6031008833,
				"y": 1.5923188735,
				"z": 2.9329481991,
				"element": "O" 
			},
			{
				"x": -0.855122204,
				"y": 1.1599257272,
				"z": 1.3879919867,
				"element": "C" 
			},
			{
				"x": 0.2269630868,
				"y": 1.6377277324,
				"z": 0.6242467565,
				"element": "C" 
			},
			{
				"x": 1.3487899379,
				"y": 3.3787176352,
				"z": 1.1166063006,
				"element": "I" 
			},
			{
				"x": 0.6078725911,
				"y": 1.0035028181,
				"z": -0.5663110172,
				"element": "C" 
			},
			{
				"x": -0.0731575628,
				"y": -0.1223722689,
				"z": -1.0133236061,
				"element": "C" 
			},
			{
				"x": -1.1481377535,
				"y": -0.587977503,
				"z": -0.2612203118,
				"element": "C" 
			},
			{
				"x": -1.5490448588,
				"y": 0.0375806812,
				"z": 0.9081992325,
				"element": "C" 
			},
			{
				"x": -1.8862943882,
				"y": -1.7765002825,
				"z": -0.728067605,
				"element": "N" 
			},
			{
				"x": -1.509040113,
				"y": -2.2948198066,
				"z": -1.7775363956,
				"element": "O" 
			},
			{
				"x": -2.8240715332,
				"y": -2.1689756735,
				"z": -0.0396964398,
				"element": "O" 
			},
			{
				"x": 0.3131849263,
				"y": 2.3388904013,
				"z": 3.2429331987,
				"element": "H" 
			},
			{
				"x": 1.4362313697,
				"y": 1.3928216094,
				"z": -1.146068017,
				"element": "H" 
			},
			{
				"x": 0.2096468828,
				"y": -0.6315053592,
				"z": -1.9261614967,
				"element": "H" 
			},
			{
				"x": -2.405126062,
				"y": -0.3282550403,
				"z": 1.4606643886,
				"element": "H" 
			}
		],
		 "valence_orbital": [ 
			{
				"type": "occ",
				"energy": -0.31121,
				"method": "rhf"
			},
			{
				"type": "occ",
				"energy": -0.30866,
				"method": "rhf"
			},
			{
				"type": "occ",
				"energy": -0.3059,
				"method": "rhf"
			},
			{
				"type": "occ",
				"energy": -0.29001,
				"method": "rhf"
			},
			{
				"type": "occ",
				"energy": -0.28563,
				"method": "rhf"
			},
			{
				"type": "unocc",
				"energy": -0.1106,
				"method": "rhf"
			},
			{
				"type": "unocc",
				"energy": -0.07975,
				"method": "rhf"
			},
			{
				"type": "unocc",
				"energy": -0.07573,
				"method": "rhf"
			},
			{
				"type": "unocc",
				"energy": -0.03618,
				"method": "rhf"
			},
			{
				"type": "unocc",
				"energy": 0.02042,
				"method": "rhf"
			}
		],
		"cosmo_sigma_profile": { 
			"-0.025": 0.0,
			"-0.024": 0.0,
			"-0.023": 0.0,
			"-0.022": 0.0,
			"-0.021": 0.0,
			"-0.02": 0.0,
			"-0.019": 0.0,
			"-0.018": 0.0,
			"-0.017": 0.0,
			"-0.016": 0.258161769147,
			"-0.015": 1.18166041944,
			"-0.014": 0.777044085608,
			"-0.013": 0.609562292434,
			"-0.012": 1.1406781751,
			"-0.011": 1.0354544852,
			"-0.01": 0.657419990541,
			"-0.009": 4.18190462988,
			"-0.008": 7.30903174274,
			"-0.007": 7.50271054269,
			"-0.006": 10.2887730702,
			"-0.005": 11.2723796507,
			"-0.004": 11.3997006805,
			"-0.003": 17.6480973364,
			"-0.002": 20.7125755917,
			"-0.001": 18.404823795,
			"0.0": 14.1629762995,
			"0.001": 10.8399858069,
			"0.002": 12.3942437502,
			"0.003": 4.34419619626,
			"0.004": 4.78727016429,
			"0.005": 5.79097620119,
			"0.006": 7.41740888772,
			"0.007": 11.5643503204,
			"0.008": 8.20700444428,
			"0.009": 8.44574565523,
			"0.01": 5.4420718081,
			"0.011": 4.78234559672,
			"0.012": 1.76604885414,
			"0.013": 0.106768575669,
			"0.014": 0.0,
			"0.015": 0.0,
			"0.016": 0.0,
			"0.017": 0.0,
			"0.018": 0.0,
			"0.019": 0.0,
			"0.02": 0.0,
			"0.021": 0.0,
			"0.022": 0.0,
			"0.023": 0.0,
			"0.024": 0.0,
			"0.025": 0.0
		}
	}
}
