{
	 "smiles": "CC1=C(C=CC=C1)C1=NN(CC2=CC=CC=C2)C(N)=C1", 
	 "Tm": 413.15, 
	 "num_atms": 37, 
	 "gaussian": { 
		 "optdone": 1, 
		 "sigma_profile": "yes", 
		 "theory": "DFT", 
		 "functional": "B3LYP", 
		 "basiset": "6-31G**", 
		 "properties": { 
			 "R2extent": 7275.5523, 
			 "electric_dipole_moment_norm": 3.86766987991, 
			 "electric_quadrupole_moment_norm": 7.84308133516, 
			 "total_energy": -822.304844755, 
			 "HOMO_LUMO_gap": 0.18414, 
			 "cosmo_polarized_energy": -13.36, 
			 "cosmo_cavitation_energy": 40.22, 
			 "cosmo_dispersion_energy": -28.06, 
			 "cosmo_repulsion_energy": 2.14, 
			 "cosmo_total_nonelectrostatic_energy": 14.29, 
			 "SMD_solvation_energy": 5.82 
		},
		"coords": [
			{
				"x": -1.1190212819,
				"y": 2.4185827631,
				"z": 1.1281767368,
				"element": "C" 
			},
			{
				"x": 0.2934205399,
				"y": 2.7626946857,
				"z": 1.5386543015,
				"element": "C" 
			},
			{
				"x": 1.4066799181,
				"y": 1.9337354788,
				"z": 1.2488214519,
				"element": "C" 
			},
			{
				"x": 2.6850676142,
				"y": 2.3460728939,
				"z": 1.6660535132,
				"element": "C" 
			},
			{
				"x": 2.8857462333,
				"y": 3.541964122,
				"z": 2.3492043251,
				"element": "C" 
			},
			{
				"x": 1.7928664254,
				"y": 4.358944427,
				"z": 2.6335873481,
				"element": "C" 
			},
			{
				"x": 0.519641909,
				"y": 3.9616903675,
				"z": 2.2278203659,
				"element": "C" 
			},
			{
				"x": 1.3068271469,
				"y": 0.6549786136,
				"z": 0.5156041458,
				"element": "C" 
			},
			{
				"x": 0.2026971732,
				"y": -0.1010080495,
				"z": 0.5299236367,
				"element": "N" 
			},
			{
				"x": 0.5178018977,
				"y": -1.2008800212,
				"z": -0.2101857682,
				"element": "N" 
			},
			{
				"x": -0.4541371786,
				"y": -2.2618699986,
				"z": -0.4077763536,
				"element": "C" 
			},
			{
				"x": -1.0423055297,
				"y": -2.2967729685,
				"z": -1.8096363399,
				"element": "C" 
			},
			{
				"x": -1.5540610057,
				"y": -1.1288017168,
				"z": -2.3930097045,
				"element": "C" 
			},
			{
				"x": -2.1120053183,
				"y": -1.1646046955,
				"z": -3.6696580966,
				"element": "C" 
			},
			{
				"x": -2.1662923296,
				"y": -2.3672003261,
				"z": -4.3811414521,
				"element": "C" 
			},
			{
				"x": -1.6569775254,
				"y": -3.5327587156,
				"z": -3.8093446145,
				"element": "C" 
			},
			{
				"x": -1.0948045352,
				"y": -3.4954781835,
				"z": -2.5300179638,
				"element": "C" 
			},
			{
				"x": 1.7822382436,
				"y": -1.1382422501,
				"z": -0.7177097203,
				"element": "C" 
			},
			{
				"x": 2.3002144542,
				"y": -2.1914896608,
				"z": -1.4742138184,
				"element": "N" 
			},
			{
				"x": 2.3321167405,
				"y": 0.0464760759,
				"z": -0.2627901542,
				"element": "C" 
			},
			{
				"x": -1.4928504502,
				"y": 1.5436369968,
				"z": 1.6665660294,
				"element": "H" 
			},
			{
				"x": -1.1775546804,
				"y": 2.1649213577,
				"z": 0.0651355101,
				"element": "H" 
			},
			{
				"x": -1.7872931654,
				"y": 3.2627496353,
				"z": 1.322575969,
				"element": "H" 
			},
			{
				"x": 3.5336695527,
				"y": 1.6990511672,
				"z": 1.4660024061,
				"element": "H" 
			},
			{
				"x": 3.8862985923,
				"y": 3.8274977612,
				"z": 2.6614481544,
				"element": "H" 
			},
			{
				"x": 1.9269007845,
				"y": 5.2962083074,
				"z": 3.1663843858,
				"element": "H" 
			},
			{
				"x": -0.3324147304,
				"y": 4.6011281002,
				"z": 2.4457224466,
				"element": "H" 
			},
			{
				"x": -1.2325941787,
				"y": -2.0838100492,
				"z": 0.3388384991,
				"element": "H" 
			},
			{
				"x": 0.0220695033,
				"y": -3.2215510503,
				"z": -0.1782155744,
				"element": "H" 
			},
			{
				"x": -1.5067509924,
				"y": -0.1957107505,
				"z": -1.8385368764,
				"element": "H" 
			},
			{
				"x": -2.5065815715,
				"y": -0.2539051094,
				"z": -4.1112960189,
				"element": "H" 
			},
			{
				"x": -2.6015534441,
				"y": -2.3927312332,
				"z": -5.3759668345,
				"element": "H" 
			},
			{
				"x": -1.6919936839,
				"y": -4.470353744,
				"z": -4.3568744963,
				"element": "H" 
			},
			{
				"x": -0.6985400869,
				"y": -4.4060361563,
				"z": -2.0860377095,
				"element": "H" 
			},
			{
				"x": 3.2268965912,
				"y": -1.9857317496,
				"z": -1.8248964095,
				"element": "H" 
			},
			{
				"x": 1.6936677607,
				"y": -2.4741084364,
				"z": -2.2382186578,
				"element": "H" 
			},
			{
				"x": 3.3126106075,
				"y": 0.4343121116,
				"z": -0.4940926622,
				"element": "H" 
			}
		],
		 "valence_orbital": [ 
			{
				"type": "occ",
				"energy": -0.25899,
				"method": "rhf"
			},
			{
				"type": "occ",
				"energy": -0.25351,
				"method": "rhf"
			},
			{
				"type": "occ",
				"energy": -0.22919,
				"method": "rhf"
			},
			{
				"type": "occ",
				"energy": -0.21327,
				"method": "rhf"
			},
			{
				"type": "occ",
				"energy": -0.19916,
				"method": "rhf"
			},
			{
				"type": "unocc",
				"energy": -0.01502,
				"method": "rhf"
			},
			{
				"type": "unocc",
				"energy": -0.01082,
				"method": "rhf"
			},
			{
				"type": "unocc",
				"energy": -0.00394,
				"method": "rhf"
			},
			{
				"type": "unocc",
				"energy": 0.01558,
				"method": "rhf"
			},
			{
				"type": "unocc",
				"energy": 0.04715,
				"method": "rhf"
			}
		],
		"cosmo_sigma_profile": { 
			"-0.025": 0.0,
			"-0.024": 0.0,
			"-0.023": 0.0,
			"-0.022": 0.0,
			"-0.021": 0.0,
			"-0.02": 0.0,
			"-0.019": 0.0,
			"-0.018": 0.0,
			"-0.017": 0.0,
			"-0.016": 0.0,
			"-0.015": 0.0,
			"-0.014": 0.036776633558,
			"-0.013": 1.10943499667,
			"-0.012": 1.44250152543,
			"-0.011": 1.61487239799,
			"-0.01": 2.68458144471,
			"-0.009": 2.59524301246,
			"-0.008": 1.98223200256,
			"-0.007": 3.15971127178,
			"-0.006": 14.24383863,
			"-0.005": 25.1249416195,
			"-0.004": 26.6629414598,
			"-0.003": 28.3491120429,
			"-0.002": 21.5697223394,
			"-0.001": 21.2170641325,
			"0.0": 19.3429222342,
			"0.001": 24.1052623315,
			"0.002": 21.8324463877,
			"0.003": 21.2518074768,
			"0.004": 22.1590851489,
			"0.005": 25.1197567656,
			"0.006": 18.0199631047,
			"0.007": 5.77936625864,
			"0.008": 1.92345773038,
			"0.009": 2.05550264903,
			"0.01": 2.70494804728,
			"0.011": 1.59160139394,
			"0.012": 0.957174945255,
			"0.013": 0.912317270984,
			"0.014": 0.457185147908,
			"0.015": 0.0905486950065,
			"0.016": 0.0,
			"0.017": 0.0,
			"0.018": 0.0,
			"0.019": 0.0,
			"0.02": 0.0,
			"0.021": 0.0,
			"0.022": 0.0,
			"0.023": 0.0,
			"0.024": 0.0,
			"0.025": 0.0
		}
	}
}
