{
	 "smiles": "CNC(=O)C1=CC=C(C=C1)C#N", 
	 "Tm": 483.15, 
	 "num_atms": 20, 
	 "gaussian": { 
		 "optdone": 1, 
		 "sigma_profile": "yes", 
		 "theory": "DFT", 
		 "functional": "B3LYP", 
		 "basiset": "6-31G**", 
		 "properties": { 
			 "R2extent": 2976.9667, 
			 "electric_dipole_moment_norm": 4.94591721221, 
			 "electric_quadrupole_moment_norm": 16.8330933262, 
			 "total_energy": -532.505954099, 
			 "HOMO_LUMO_gap": 0.18717, 
			 "cosmo_polarized_energy": -16.2, 
			 "cosmo_cavitation_energy": 25.72, 
			 "cosmo_dispersion_energy": -18.35, 
			 "cosmo_repulsion_energy": 1.47, 
			 "cosmo_total_nonelectrostatic_energy": 8.84, 
			 "SMD_solvation_energy": 6.29 
		},
		"coords": [
			{
				"x": 0.1856734176,
				"y": -4.4044857145,
				"z": 2.2928372983,
				"element": "C" 
			},
			{
				"x": 0.2201523488,
				"y": -3.1521249274,
				"z": 1.5556987056,
				"element": "N" 
			},
			{
				"x": -0.1346159774,
				"y": -1.9674835136,
				"z": 2.1398274581,
				"element": "C" 
			},
			{
				"x": -0.4580176374,
				"y": -1.8762646102,
				"z": 3.3202864716,
				"element": "O" 
			},
			{
				"x": -0.10466831,
				"y": -0.7533925149,
				"z": 1.246110537,
				"element": "C" 
			},
			{
				"x": -0.874525003,
				"y": 0.3485927643,
				"z": 1.6423358779,
				"element": "C" 
			},
			{
				"x": -0.9011486904,
				"y": 1.5068870282,
				"z": 0.8758187567,
				"element": "C" 
			},
			{
				"x": -0.1361975738,
				"y": 1.5829851281,
				"z": -0.30154424,
				"element": "C" 
			},
			{
				"x": 0.6566426243,
				"y": 0.4916591952,
				"z": -0.6925893996,
				"element": "C" 
			},
			{
				"x": 0.6686156725,
				"y": -0.6659385808,
				"z": 0.0797001,
				"element": "C" 
			},
			{
				"x": -0.1568874517,
				"y": 2.7750466454,
				"z": -1.0989840621,
				"element": "C" 
			},
			{
				"x": -0.1738679362,
				"y": 3.7399352907,
				"z": -1.7484350652,
				"element": "N" 
			},
			{
				"x": 1.0470083805,
				"y": -5.0242572219,
				"z": 2.0267646683,
				"element": "H" 
			},
			{
				"x": -0.7331270853,
				"y": -4.9699785005,
				"z": 2.0951389845,
				"element": "H" 
			},
			{
				"x": 0.2228987309,
				"y": -4.166836337,
				"z": 3.3560250794,
				"element": "H" 
			},
			{
				"x": 0.2818262811,
				"y": -3.1931859473,
				"z": 0.5502270999,
				"element": "H" 
			},
			{
				"x": -1.4426215218,
				"y": 0.2728404091,
				"z": 2.5628138531,
				"element": "H" 
			},
			{
				"x": -1.5048938794,
				"y": 2.3556981879,
				"z": 1.1786637768,
				"element": "H" 
			},
			{
				"x": 1.261523562,
				"y": 0.5616274361,
				"z": -1.5902646028,
				"element": "H" 
			},
			{
				"x": 1.3148300487,
				"y": -1.4864242169,
				"z": -0.2173312974,
				"element": "H" 
			}
		],
		 "valence_orbital": [ 
			{
				"type": "occ",
				"energy": -0.3353,
				"method": "rhf"
			},
			{
				"type": "occ",
				"energy": -0.28409,
				"method": "rhf"
			},
			{
				"type": "occ",
				"energy": -0.27569,
				"method": "rhf"
			},
			{
				"type": "occ",
				"energy": -0.26705,
				"method": "rhf"
			},
			{
				"type": "occ",
				"energy": -0.25977,
				"method": "rhf"
			},
			{
				"type": "unocc",
				"energy": -0.0726,
				"method": "rhf"
			},
			{
				"type": "unocc",
				"energy": -0.03278,
				"method": "rhf"
			},
			{
				"type": "unocc",
				"energy": 0.02215,
				"method": "rhf"
			},
			{
				"type": "unocc",
				"energy": 0.03143,
				"method": "rhf"
			},
			{
				"type": "unocc",
				"energy": 0.0633,
				"method": "rhf"
			}
		],
		"cosmo_sigma_profile": { 
			"-0.025": 0.0,
			"-0.024": 0.0,
			"-0.023": 0.0,
			"-0.022": 0.0,
			"-0.021": 0.0,
			"-0.02": 0.0,
			"-0.019": 0.0,
			"-0.018": 0.0,
			"-0.017": 0.0,
			"-0.016": 0.0,
			"-0.015": 0.690900348161,
			"-0.014": 1.27783278952,
			"-0.013": 1.27584635472,
			"-0.012": 1.30608609581,
			"-0.011": 1.46035360891,
			"-0.01": 1.0099563161,
			"-0.009": 2.79217602465,
			"-0.008": 6.42757442088,
			"-0.007": 8.0834413308,
			"-0.006": 9.34407910874,
			"-0.005": 12.5253840918,
			"-0.004": 12.5372573711,
			"-0.003": 14.9625800924,
			"-0.002": 20.0150848456,
			"-0.001": 15.1090703079,
			"0.0": 14.9524556719,
			"0.001": 18.2130827464,
			"0.002": 11.7985823511,
			"0.003": 5.0853653994,
			"0.004": 4.21294252724,
			"0.005": 4.95825962762,
			"0.006": 3.4187177682,
			"0.007": 4.33517418722,
			"0.008": 5.71353289293,
			"0.009": 4.24054816952,
			"0.01": 4.83201832489,
			"0.011": 3.95799463815,
			"0.012": 4.70211771748,
			"0.013": 5.35117727293,
			"0.014": 2.48013421381,
			"0.015": 0.0,
			"0.016": 0.0,
			"0.017": 0.0,
			"0.018": 0.0,
			"0.019": 0.0,
			"0.02": 0.0,
			"0.021": 0.0,
			"0.022": 0.0,
			"0.023": 0.0,
			"0.024": 0.0,
			"0.025": 0.0
		}
	}
}
