{
	 "smiles": "[O-][N+](=O)C1=CC=CC(NCC(=O)C2=CC=CC=C2)=C1", 
	 "Tm": 442.15, 
	 "num_atms": 31, 
	 "gaussian": { 
		 "optdone": 1, 
		 "sigma_profile": "yes", 
		 "theory": "DFT", 
		 "functional": "B3LYP", 
		 "basiset": "6-31G**", 
		 "properties": { 
			 "R2extent": 8818.5167, 
			 "electric_dipole_moment_norm": 8.94442929873, 
			 "electric_quadrupole_moment_norm": 14.5659086342, 
			 "total_energy": -875.799741918, 
			 "HOMO_LUMO_gap": 0.13248, 
			 "cosmo_polarized_energy": -15.23, 
			 "cosmo_cavitation_energy": 36.66, 
			 "cosmo_dispersion_energy": -26.61, 
			 "cosmo_repulsion_energy": 2.01, 
			 "cosmo_total_nonelectrostatic_energy": 12.06, 
			 "SMD_solvation_energy": 7.84 
		},
		"coords": [
			{
				"x": -2.926740409,
				"y": -5.8556483355,
				"z": -0.0110324463,
				"element": "O" 
			},
			{
				"x": -2.97058797,
				"y": -4.6548506483,
				"z": -0.276932762,
				"element": "N" 
			},
			{
				"x": -3.9436135471,
				"y": -4.0857707451,
				"z": -0.7718172474,
				"element": "O" 
			},
			{
				"x": -1.7740639928,
				"y": -3.8446076514,
				"z": 0.0184678094,
				"element": "C" 
			},
			{
				"x": -0.66098258,
				"y": -4.4730640535,
				"z": 0.5777129321,
				"element": "C" 
			},
			{
				"x": 0.4506686551,
				"y": -3.6777191558,
				"z": 0.8419743821,
				"element": "C" 
			},
			{
				"x": 0.4509987517,
				"y": -2.3116484638,
				"z": 0.5588083054,
				"element": "C" 
			},
			{
				"x": -0.6836107632,
				"y": -1.6913846515,
				"z": -0.0079694178,
				"element": "C" 
			},
			{
				"x": -0.7247921682,
				"y": -0.3459594913,
				"z": -0.2854961747,
				"element": "N" 
			},
			{
				"x": 0.4058886057,
				"y": 0.531627444,
				"z": -0.2197275148,
				"element": "C" 
			},
			{
				"x": 0.0335068517,
				"y": 1.8831475881,
				"z": -0.8370360298,
				"element": "C" 
			},
			{
				"x": -1.0761627223,
				"y": 2.0338751326,
				"z": -1.3288380143,
				"element": "O" 
			},
			{
				"x": 1.0414862631,
				"y": 2.9805314523,
				"z": -0.8280452061,
				"element": "C" 
			},
			{
				"x": 0.677875052,
				"y": 4.213182797,
				"z": -1.3948835204,
				"element": "C" 
			},
			{
				"x": 1.5808027048,
				"y": 5.2712586166,
				"z": -1.4154052788,
				"element": "C" 
			},
			{
				"x": 2.8584616857,
				"y": 5.1101450474,
				"z": -0.87079477,
				"element": "C" 
			},
			{
				"x": 3.2299627715,
				"y": 3.8880502942,
				"z": -0.3058091604,
				"element": "C" 
			},
			{
				"x": 2.326518326,
				"y": 2.8268954456,
				"z": -0.2832212615,
				"element": "C" 
			},
			{
				"x": -1.8130701191,
				"y": -2.4901696689,
				"z": -0.2779118704,
				"element": "C" 
			},
			{
				"x": -0.6841997546,
				"y": -5.5333611487,
				"z": 0.7885054822,
				"element": "H" 
			},
			{
				"x": 1.338032113,
				"y": -4.1265802828,
				"z": 1.2782055011,
				"element": "H" 
			},
			{
				"x": 1.3338120884,
				"y": -1.7234858979,
				"z": 0.7845944165,
				"element": "H" 
			},
			{
				"x": -1.5114523776,
				"y": 0.0340414185,
				"z": -0.7967320479,
				"element": "H" 
			},
			{
				"x": 0.7409141067,
				"y": 0.6985845354,
				"z": 0.8164634096,
				"element": "H" 
			},
			{
				"x": 1.2800847032,
				"y": 0.1352277441,
				"z": -0.7651682747,
				"element": "H" 
			},
			{
				"x": -0.3184470664,
				"y": 4.3136695927,
				"z": -1.8118067613,
				"element": "H" 
			},
			{
				"x": 1.2924192417,
				"y": 6.2214948444,
				"z": -1.8546507339,
				"element": "H" 
			},
			{
				"x": 3.5637869964,
				"y": 5.9359815353,
				"z": -0.8867454705,
				"element": "H" 
			},
			{
				"x": 4.2221439453,
				"y": 3.7623001746,
				"z": 0.1168007079,
				"element": "H" 
			},
			{
				"x": 2.6310535344,
				"y": 1.8838388315,
				"z": 0.159390443,
				"element": "H" 
			},
			{
				"x": -2.7107929261,
				"y": -2.0665023,
				"z": -0.7117994263,
				"element": "H" 
			}
		],
		 "valence_orbital": [ 
			{
				"type": "occ",
				"energy": -0.27924,
				"method": "rhf"
			},
			{
				"type": "occ",
				"energy": -0.27887,
				"method": "rhf"
			},
			{
				"type": "occ",
				"energy": -0.27559,
				"method": "rhf"
			},
			{
				"type": "occ",
				"energy": -0.26971,
				"method": "rhf"
			},
			{
				"type": "occ",
				"energy": -0.21093,
				"method": "rhf"
			},
			{
				"type": "unocc",
				"energy": -0.07845,
				"method": "rhf"
			},
			{
				"type": "unocc",
				"energy": -0.07588,
				"method": "rhf"
			},
			{
				"type": "unocc",
				"energy": -0.02606,
				"method": "rhf"
			},
			{
				"type": "unocc",
				"energy": -0.00621,
				"method": "rhf"
			},
			{
				"type": "unocc",
				"energy": 0.02005,
				"method": "rhf"
			}
		],
		"cosmo_sigma_profile": { 
			"-0.025": 0.0,
			"-0.024": 0.0,
			"-0.023": 0.0,
			"-0.022": 0.0,
			"-0.021": 0.0,
			"-0.02": 0.0,
			"-0.019": 0.0,
			"-0.018": 0.0,
			"-0.017": 0.0,
			"-0.016": 0.0,
			"-0.015": 0.0,
			"-0.014": 0.0,
			"-0.013": 0.0,
			"-0.012": 0.166093455129,
			"-0.011": 1.16169263547,
			"-0.01": 0.930771364407,
			"-0.009": 1.05531497874,
			"-0.008": 3.97989730657,
			"-0.007": 15.7358414234,
			"-0.006": 22.0151867823,
			"-0.005": 22.4423682134,
			"-0.004": 20.024654539,
			"-0.003": 15.7481577739,
			"-0.002": 15.4170187566,
			"-0.001": 16.4560555021,
			"0.0": 18.6863482385,
			"0.001": 21.9080438308,
			"0.002": 24.4668240917,
			"0.003": 27.3475146998,
			"0.004": 20.2540599699,
			"0.005": 6.24658482308,
			"0.006": 4.87443627693,
			"0.007": 8.95743363884,
			"0.008": 10.4234155432,
			"0.009": 7.32022425958,
			"0.01": 5.38321052991,
			"0.011": 2.80079260723,
			"0.012": 0.113160133617,
			"0.013": 0.0,
			"0.014": 0.0,
			"0.015": 0.0,
			"0.016": 0.0,
			"0.017": 0.0,
			"0.018": 0.0,
			"0.019": 0.0,
			"0.02": 0.0,
			"0.021": 0.0,
			"0.022": 0.0,
			"0.023": 0.0,
			"0.024": 0.0,
			"0.025": 0.0
		}
	}
}
