{
	 "smiles": "OC(=O)CSCC1=NC2=C(C(=CS2)C2=CC=CS2)C(=O)N1", 
	 "Tm": 422.15, 
	 "num_atms": 31, 
	 "gaussian": { 
		 "optdone": 1, 
		 "sigma_profile": "yes", 
		 "theory": "DFT", 
		 "functional": "B3LYP", 
		 "basiset": "6-31G**", 
		 "properties": { 
			 "R2extent": 11357.921, 
			 "electric_dipole_moment_norm": 3.41846821983, 
			 "electric_quadrupole_moment_norm": 26.7096969693, 
			 "total_energy": -2031.15786932, 
			 "HOMO_LUMO_gap": 0.14331, 
			 "cosmo_polarized_energy": -24.63, 
			 "cosmo_cavitation_energy": 40.92, 
			 "cosmo_dispersion_energy": -30.49, 
			 "cosmo_repulsion_energy": 2.19, 
			 "cosmo_total_nonelectrostatic_energy": 12.61, 
			 "SMD_solvation_energy": 6.55 
		},
		"coords": [
			{
				"x": -4.4401443348,
				"y": -2.2972117332,
				"z": -1.1296942768,
				"element": "O" 
			},
			{
				"x": -4.1476003599,
				"y": -1.0060500264,
				"z": -0.886318802,
				"element": "C" 
			},
			{
				"x": -4.7463363303,
				"y": -0.3548988277,
				"z": -0.0685289015,
				"element": "O" 
			},
			{
				"x": -3.022867294,
				"y": -0.3743859543,
				"z": -1.7237001211,
				"element": "C" 
			},
			{
				"x": -1.9569391926,
				"y": -1.5324927664,
				"z": -2.6644597544,
				"element": "S" 
			},
			{
				"x": -0.8382615814,
				"y": -2.1208356713,
				"z": -1.311153864,
				"element": "C" 
			},
			{
				"x": 0.1424893497,
				"y": -1.0734630057,
				"z": -0.8701773968,
				"element": "C" 
			},
			{
				"x": -0.109483257,
				"y": -0.3718648912,
				"z": 0.1995379009,
				"element": "N" 
			},
			{
				"x": 0.8217123815,
				"y": 0.5771826337,
				"z": 0.5050122883,
				"element": "C" 
			},
			{
				"x": 1.9997151042,
				"y": 0.874430884,
				"z": -0.1894153103,
				"element": "C" 
			},
			{
				"x": 2.7417503434,
				"y": 1.9672608945,
				"z": 0.4124513546,
				"element": "C" 
			},
			{
				"x": 2.0897060536,
				"y": 2.4240657435,
				"z": 1.5364147054,
				"element": "C" 
			},
			{
				"x": 0.6053102604,
				"y": 1.6032645801,
				"z": 1.8916524458,
				"element": "S" 
			},
			{
				"x": 3.9970134577,
				"y": 2.5690948595,
				"z": -0.0484514025,
				"element": "C" 
			},
			{
				"x": 5.0459034135,
				"y": 2.0287905906,
				"z": -0.7563859682,
				"element": "C" 
			},
			{
				"x": 6.1288848448,
				"y": 2.9352209681,
				"z": -0.945400141,
				"element": "C" 
			},
			{
				"x": 5.9045261142,
				"y": 4.1639856804,
				"z": -0.3887380004,
				"element": "C" 
			},
			{
				"x": 4.3521366735,
				"y": 4.2403194473,
				"z": 0.3737281676,
				"element": "S" 
			},
			{
				"x": 2.2753582923,
				"y": 0.0884940564,
				"z": -1.3850049209,
				"element": "C" 
			},
			{
				"x": 3.2221629754,
				"y": 0.1443120539,
				"z": -2.1571962329,
				"element": "O" 
			},
			{
				"x": 1.2600627387,
				"y": -0.8723228672,
				"z": -1.6293389973,
				"element": "N" 
			},
			{
				"x": -3.8521008918,
				"y": -2.623885999,
				"z": -1.8376733008,
				"element": "H" 
			},
			{
				"x": -2.4163908004,
				"y": 0.2462890872,
				"z": -1.0611644728,
				"element": "H" 
			},
			{
				"x": -3.4820669864,
				"y": 0.2846594268,
				"z": -2.466901411,
				"element": "H" 
			},
			{
				"x": -0.3324867187,
				"y": -2.9996020112,
				"z": -1.72137614,
				"element": "H" 
			},
			{
				"x": -1.4369521525,
				"y": -2.4269932924,
				"z": -0.4519839737,
				"element": "H" 
			},
			{
				"x": 2.4262762703,
				"y": 3.209920131,
				"z": 2.1979857957,
				"element": "H" 
			},
			{
				"x": 5.0249384792,
				"y": 1.0203460348,
				"z": -1.1435916871,
				"element": "H" 
			},
			{
				"x": 7.0372322468,
				"y": 2.6793328974,
				"z": -1.4789687436,
				"element": "H" 
			},
			{
				"x": 6.5476004615,
				"y": 5.0331720448,
				"z": -0.392170039,
				"element": "H" 
			},
			{
				"x": 1.413150439,
				"y": -1.416034968,
				"z": -2.4709888001,
				"element": "H" 
			}
		],
		 "valence_orbital": [ 
			{
				"type": "occ",
				"energy": -0.27788,
				"method": "rhf"
			},
			{
				"type": "occ",
				"energy": -0.26266,
				"method": "rhf"
			},
			{
				"type": "occ",
				"energy": -0.24982,
				"method": "rhf"
			},
			{
				"type": "occ",
				"energy": -0.2483,
				"method": "rhf"
			},
			{
				"type": "occ",
				"energy": -0.21158,
				"method": "rhf"
			},
			{
				"type": "unocc",
				"energy": -0.06827,
				"method": "rhf"
			},
			{
				"type": "unocc",
				"energy": -0.0394,
				"method": "rhf"
			},
			{
				"type": "unocc",
				"energy": -0.02216,
				"method": "rhf"
			},
			{
				"type": "unocc",
				"energy": -0.00403,
				"method": "rhf"
			},
			{
				"type": "unocc",
				"energy": 0.00628,
				"method": "rhf"
			}
		],
		"cosmo_sigma_profile": { 
			"-0.025": 0.0,
			"-0.024": 0.0,
			"-0.023": 0.0,
			"-0.022": 0.0,
			"-0.021": 0.0,
			"-0.02": 0.0,
			"-0.019": 0.0,
			"-0.018": 0.0,
			"-0.017": 0.460738504415,
			"-0.016": 1.28526328419,
			"-0.015": 1.26918321623,
			"-0.014": 1.16084206333,
			"-0.013": 2.19705268856,
			"-0.012": 2.08400965087,
			"-0.011": 1.79834439915,
			"-0.01": 5.47466170353,
			"-0.009": 10.4274665363,
			"-0.008": 10.9321344911,
			"-0.007": 12.7523974295,
			"-0.006": 12.7468974011,
			"-0.005": 16.0597057793,
			"-0.004": 17.1700431277,
			"-0.003": 16.3542042917,
			"-0.002": 16.8402636036,
			"-0.001": 20.1680031983,
			"0.0": 24.1162265309,
			"0.001": 28.0402842052,
			"0.002": 24.5218623051,
			"0.003": 22.737046319,
			"0.004": 19.7855895123,
			"0.005": 15.6817647298,
			"0.006": 6.74566524756,
			"0.007": 5.17756158071,
			"0.008": 6.20565156822,
			"0.009": 6.32873786307,
			"0.01": 7.19403289888,
			"0.011": 7.74237316858,
			"0.012": 8.57042289297,
			"0.013": 3.04857255118,
			"0.014": 0.0165984667573,
			"0.015": 0.0,
			"0.016": 0.0,
			"0.017": 0.0,
			"0.018": 0.0,
			"0.019": 0.0,
			"0.02": 0.0,
			"0.021": 0.0,
			"0.022": 0.0,
			"0.023": 0.0,
			"0.024": 0.0,
			"0.025": 0.0
		}
	}
}
