{
	 "smiles": "CC(C)(C)OC(=O)NC1=NC(Cl)=CC=C1", 
	 "Tm": 348.15, 
	 "num_atms": 28, 
	 "gaussian": { 
		 "optdone": 1, 
		 "sigma_profile": "yes", 
		 "theory": "DFT", 
		 "functional": "B3LYP", 
		 "basiset": "6-31G**", 
		 "properties": { 
			 "R2extent": 5559.3163, 
			 "electric_dipole_moment_norm": 4.5962148579, 
			 "electric_quadrupole_moment_norm": 5.55674046092, 
			 "total_energy": -1109.0867879, 
			 "HOMO_LUMO_gap": 0.20116, 
			 "cosmo_polarized_energy": -9.96, 
			 "cosmo_cavitation_energy": 33.28, 
			 "cosmo_dispersion_energy": -23.73, 
			 "cosmo_repulsion_energy": 1.86, 
			 "cosmo_total_nonelectrostatic_energy": 11.41, 
			 "SMD_solvation_energy": 5.3 
		},
		"coords": [
			{
				"x": -0.2282163285,
				"y": 2.2965551442,
				"z": 1.8046692681,
				"element": "C" 
			},
			{
				"x": 0.5859947693,
				"y": 2.2386448936,
				"z": 0.5101823725,
				"element": "C" 
			},
			{
				"x": 2.0864857598,
				"y": 2.3173657609,
				"z": 0.8056102176,
				"element": "C" 
			},
			{
				"x": 0.123378263,
				"y": 3.3168287937,
				"z": -0.4739197636,
				"element": "C" 
			},
			{
				"x": 0.2483671731,
				"y": 0.8971485094,
				"z": -0.0195233742,
				"element": "O" 
			},
			{
				"x": 0.7819457305,
				"y": 0.4646470929,
				"z": -1.1748024326,
				"element": "C" 
			},
			{
				"x": 1.557367521,
				"y": 1.0717951994,
				"z": -1.8906604978,
				"element": "O" 
			},
			{
				"x": 0.3554252191,
				"y": -0.809066258,
				"z": -1.5140974551,
				"element": "N" 
			},
			{
				"x": -0.5028558193,
				"y": -1.7406146482,
				"z": -0.9246675677,
				"element": "C" 
			},
			{
				"x": -0.5981178396,
				"y": -2.8671908157,
				"z": -1.6541450711,
				"element": "N" 
			},
			{
				"x": -1.378062819,
				"y": -3.8325202635,
				"z": -1.2109062487,
				"element": "C" 
			},
			{
				"x": -1.4642613808,
				"y": -5.285136929,
				"z": -2.2075983309,
				"element": "Cl" 
			},
			{
				"x": -2.1224212164,
				"y": -3.7825774392,
				"z": -0.0332468497,
				"element": "C" 
			},
			{
				"x": -2.0134524606,
				"y": -2.6089541946,
				"z": 0.7115523497,
				"element": "C" 
			},
			{
				"x": -1.200914599,
				"y": -1.5642707929,
				"z": 0.2799330025,
				"element": "C" 
			},
			{
				"x": 0.0723589007,
				"y": 1.4976130417,
				"z": 2.4890367217,
				"element": "H" 
			},
			{
				"x": -0.0653077034,
				"y": 3.255892246,
				"z": 2.304179494,
				"element": "H" 
			},
			{
				"x": -1.2974629934,
				"y": 2.1951140376,
				"z": 1.5962483027,
				"element": "H" 
			},
			{
				"x": 2.308624934,
				"y": 3.2651807049,
				"z": 1.3062873694,
				"element": "H" 
			},
			{
				"x": 2.6714245656,
				"y": 2.2588226122,
				"z": -0.1122407848,
				"element": "H" 
			},
			{
				"x": 2.3869042323,
				"y": 1.5031346715,
				"z": 1.4724978381,
				"element": "H" 
			},
			{
				"x": 0.6890198196,
				"y": 3.2685480785,
				"z": -1.4043747594,
				"element": "H" 
			},
			{
				"x": -0.9414349308,
				"y": 3.1975075134,
				"z": -0.6972964563,
				"element": "H" 
			},
			{
				"x": 0.2668436987,
				"y": 4.3044908662,
				"z": -0.0241087331,
				"element": "H" 
			},
			{
				"x": 0.7576018797,
				"y": -1.1347641823,
				"z": -2.3839245762,
				"element": "H" 
			},
			{
				"x": -2.7450921647,
				"y": -4.6125599582,
				"z": 0.2746790576,
				"element": "H" 
			},
			{
				"x": -2.5680948225,
				"y": -2.5061741357,
				"z": 1.6397567795,
				"element": "H" 
			},
			{
				"x": -1.1054473884,
				"y": -0.6497595489,
				"z": 0.8437801276,
				"element": "H" 
			}
		],
		 "valence_orbital": [ 
			{
				"type": "occ",
				"energy": -0.30328,
				"method": "rhf"
			},
			{
				"type": "occ",
				"energy": -0.29005,
				"method": "rhf"
			},
			{
				"type": "occ",
				"energy": -0.28404,
				"method": "rhf"
			},
			{
				"type": "occ",
				"energy": -0.27718,
				"method": "rhf"
			},
			{
				"type": "occ",
				"energy": -0.23547,
				"method": "rhf"
			},
			{
				"type": "unocc",
				"energy": -0.03431,
				"method": "rhf"
			},
			{
				"type": "unocc",
				"energy": -0.02286,
				"method": "rhf"
			},
			{
				"type": "unocc",
				"energy": 0.0333,
				"method": "rhf"
			},
			{
				"type": "unocc",
				"energy": 0.05192,
				"method": "rhf"
			},
			{
				"type": "unocc",
				"energy": 0.07309,
				"method": "rhf"
			}
		],
		"cosmo_sigma_profile": { 
			"-0.025": 0.0,
			"-0.024": 0.0,
			"-0.023": 0.0,
			"-0.022": 0.0,
			"-0.021": 0.0,
			"-0.02": 0.0,
			"-0.019": 0.0,
			"-0.018": 0.0,
			"-0.017": 0.0,
			"-0.016": 0.0,
			"-0.015": 0.0,
			"-0.014": 0.571886831157,
			"-0.013": 0.401765086812,
			"-0.012": 0.785635667773,
			"-0.011": 0.631778039809,
			"-0.01": 1.32393382312,
			"-0.009": 0.506612311885,
			"-0.008": 2.81187916293,
			"-0.007": 5.09540994008,
			"-0.006": 5.03496272727,
			"-0.005": 8.00745103449,
			"-0.004": 20.0626151385,
			"-0.003": 19.2324944072,
			"-0.002": 26.1436558794,
			"-0.001": 30.8518552961,
			"0.0": 43.7735469943,
			"0.001": 29.1876680258,
			"0.002": 17.8772483833,
			"0.003": 10.5666791581,
			"0.004": 11.6194047806,
			"0.005": 8.05656071469,
			"0.006": 4.49660874532,
			"0.007": 3.13514287432,
			"0.008": 2.97874378315,
			"0.009": 1.84963539749,
			"0.01": 2.67520197883,
			"0.011": 2.68081532007,
			"0.012": 3.62276335197,
			"0.013": 1.80687028547,
			"0.014": 0.0,
			"0.015": 0.0,
			"0.016": 0.0,
			"0.017": 0.0,
			"0.018": 0.0,
			"0.019": 0.0,
			"0.02": 0.0,
			"0.021": 0.0,
			"0.022": 0.0,
			"0.023": 0.0,
			"0.024": 0.0,
			"0.025": 0.0
		}
	}
}
