{
	 "smiles": "CC1=CC=C(F)C(CBr)=C1Cl", 
	 "Tm": 309.15, 
	 "num_atms": 18, 
	 "gaussian": { 
		 "optdone": 1, 
		 "sigma_profile": "yes", 
		 "theory": "DFT", 
		 "functional": "B3LYP", 
		 "basiset": "6-31G**", 
		 "properties": { 
			 "R2extent": 3506.0084, 
			 "electric_dipole_moment_norm": 3.31637262382, 
			 "electric_quadrupole_moment_norm": 6.57109312748, 
			 "total_energy": -3440.51273989, 
			 "HOMO_LUMO_gap": 0.20133, 
			 "cosmo_polarized_energy": -5.86, 
			 "cosmo_cavitation_energy": 25.95, 
			 "cosmo_dispersion_energy": -19.08, 
			 "cosmo_repulsion_energy": 1.51, 
			 "cosmo_total_nonelectrostatic_energy": 8.37, 
			 "SMD_solvation_energy": 3.46 
		},
		"coords": [
			{
				"x": -2.0522632381,
				"y": -2.1480650237,
				"z": 0.3413606472,
				"element": "C" 
			},
			{
				"x": -0.8378491874,
				"y": -1.2678517886,
				"z": 0.188509489,
				"element": "C" 
			},
			{
				"x": 0.434620828,
				"y": -1.8273922656,
				"z": 0.0129538415,
				"element": "C" 
			},
			{
				"x": 1.5749969582,
				"y": -1.0407934855,
				"z": -0.1313209248,
				"element": "C" 
			},
			{
				"x": 1.4330998041,
				"y": 0.3362916351,
				"z": -0.0942872224,
				"element": "C" 
			},
			{
				"x": 2.5303900499,
				"y": 1.108466702,
				"z": -0.2369443734,
				"element": "F" 
			},
			{
				"x": 0.1971168705,
				"y": 0.9712239343,
				"z": 0.0751499923,
				"element": "C" 
			},
			{
				"x": 0.1335021734,
				"y": 2.4595744074,
				"z": 0.0900332215,
				"element": "C" 
			},
			{
				"x": 0.2798565285,
				"y": 3.1994394919,
				"z": 1.9459625553,
				"element": "Br" 
			},
			{
				"x": -0.9226765206,
				"y": 0.1330816563,
				"z": 0.2168760817,
				"element": "C" 
			},
			{
				"x": -2.5033723413,
				"y": 0.8721556566,
				"z": 0.4403653301,
				"element": "Cl" 
			},
			{
				"x": -2.7907246004,
				"y": -1.9520273738,
				"z": -0.4431533548,
				"element": "H" 
			},
			{
				"x": -1.7702951657,
				"y": -3.2024052947,
				"z": 0.2892063212,
				"element": "H" 
			},
			{
				"x": -2.5535350268,
				"y": -1.9746451339,
				"z": 1.2993645267,
				"element": "H" 
			},
			{
				"x": 0.5294534138,
				"y": -2.9089528812,
				"z": -0.0115264998,
				"element": "H" 
			},
			{
				"x": 2.5586744519,
				"y": -1.4750197689,
				"z": -0.2686411245,
				"element": "H" 
			},
			{
				"x": -0.8116094669,
				"y": 2.8432375549,
				"z": -0.282813521,
				"element": "H" 
			},
			{
				"x": 0.9719144691,
				"y": 2.9000819775,
				"z": -0.4414949858,
				"element": "H" 
			}
		],
		 "valence_orbital": [ 
			{
				"type": "occ",
				"energy": -0.3231,
				"method": "rhf"
			},
			{
				"type": "occ",
				"energy": -0.27569,
				"method": "rhf"
			},
			{
				"type": "occ",
				"energy": -0.26883,
				"method": "rhf"
			},
			{
				"type": "occ",
				"energy": -0.25802,
				"method": "rhf"
			},
			{
				"type": "occ",
				"energy": -0.2498,
				"method": "rhf"
			},
			{
				"type": "unocc",
				"energy": -0.04847,
				"method": "rhf"
			},
			{
				"type": "unocc",
				"energy": -0.01685,
				"method": "rhf"
			},
			{
				"type": "unocc",
				"energy": 0.01734,
				"method": "rhf"
			},
			{
				"type": "unocc",
				"energy": 0.02566,
				"method": "rhf"
			},
			{
				"type": "unocc",
				"energy": 0.09361,
				"method": "rhf"
			}
		],
		"cosmo_sigma_profile": { 
			"-0.025": 0.0,
			"-0.024": 0.0,
			"-0.023": 0.0,
			"-0.022": 0.0,
			"-0.021": 0.0,
			"-0.02": 0.0,
			"-0.019": 0.0,
			"-0.018": 0.0,
			"-0.017": 0.0,
			"-0.016": 0.0,
			"-0.015": 0.0,
			"-0.014": 0.0,
			"-0.013": 0.0,
			"-0.012": 0.0,
			"-0.011": 0.0,
			"-0.01": 0.0,
			"-0.009": 0.0286042968619,
			"-0.008": 2.45780028344,
			"-0.007": 7.35177590953,
			"-0.006": 8.34063501023,
			"-0.005": 11.7675319159,
			"-0.004": 11.7896344303,
			"-0.003": 12.5196736204,
			"-0.002": 14.8612685405,
			"-0.001": 20.3038307257,
			"0.0": 21.2420997688,
			"0.001": 21.1810413647,
			"0.002": 21.8788399462,
			"0.003": 21.1618429321,
			"0.004": 15.6420116312,
			"0.005": 9.99682224687,
			"0.006": 11.1631707678,
			"0.007": 0.880016469328,
			"0.008": 0.0,
			"0.009": 0.0,
			"0.01": 0.0,
			"0.011": 0.0,
			"0.012": 0.0,
			"0.013": 0.0,
			"0.014": 0.0,
			"0.015": 0.0,
			"0.016": 0.0,
			"0.017": 0.0,
			"0.018": 0.0,
			"0.019": 0.0,
			"0.02": 0.0,
			"0.021": 0.0,
			"0.022": 0.0,
			"0.023": 0.0,
			"0.024": 0.0,
			"0.025": 0.0
		}
	}
}
