{
	 "smiles": "CC(C)(C=C)C(O)=O", 
	 "Tm": 267.15, 
	 "num_atms": 18, 
	 "gaussian": { 
		 "optdone": 1, 
		 "sigma_profile": "yes", 
		 "theory": "DFT", 
		 "functional": "B3LYP", 
		 "basiset": "6-31G**", 
		 "properties": { 
			 "R2extent": 1197.3495, 
			 "electric_dipole_moment_norm": 4.21731202189, 
			 "electric_quadrupole_moment_norm": 7.19616826652, 
			 "total_energy": -385.104818926, 
			 "HOMO_LUMO_gap": 0.24516, 
			 "cosmo_polarized_energy": -10.69, 
			 "cosmo_cavitation_energy": 20.85, 
			 "cosmo_dispersion_energy": -14.74, 
			 "cosmo_repulsion_energy": 1.22, 
			 "cosmo_total_nonelectrostatic_energy": 7.33, 
			 "SMD_solvation_energy": 5.46 
		},
		"coords": [
			{
				"x": -1.1698385026,
				"y": -2.3352435739,
				"z": 0.3684232162,
				"element": "C" 
			},
			{
				"x": -0.5861376204,
				"y": -1.0010136805,
				"z": 0.8696196462,
				"element": "C" 
			},
			{
				"x": -0.9195266076,
				"y": -0.8077720551,
				"z": 2.3662103942,
				"element": "C" 
			},
			{
				"x": 0.9046037771,
				"y": -0.9607661364,
				"z": 0.5849577731,
				"element": "C" 
			},
			{
				"x": 1.8831215377,
				"y": -0.6463573288,
				"z": 1.4393784691,
				"element": "C" 
			},
			{
				"x": -1.2899286552,
				"y": 0.1614419718,
				"z": 0.1150360867,
				"element": "C" 
			},
			{
				"x": -0.5901390234,
				"y": 1.3181397645,
				"z": 0.0394724529,
				"element": "O" 
			},
			{
				"x": -2.4082429622,
				"y": 0.0889469021,
				"z": -0.3314981591,
				"element": "O" 
			},
			{
				"x": -2.2577969645,
				"y": -2.3245954384,
				"z": 0.4579627881,
				"element": "H" 
			},
			{
				"x": -0.7661798258,
				"y": -3.1676400289,
				"z": 0.9526773184,
				"element": "H" 
			},
			{
				"x": -0.9247286873,
				"y": -2.5033275882,
				"z": -0.6848188558,
				"element": "H" 
			},
			{
				"x": -2.0018346856,
				"y": -0.8527536196,
				"z": 2.5120950398,
				"element": "H" 
			},
			{
				"x": -0.5711903372,
				"y": 0.1587428906,
				"z": 2.7434417934,
				"element": "H" 
			},
			{
				"x": -0.456106124,
				"y": -1.5985895993,
				"z": 2.9638220894,
				"element": "H" 
			},
			{
				"x": 1.1732975259,
				"y": -1.2129231264,
				"z": -0.4420050617,
				"element": "H" 
			},
			{
				"x": 2.9221490683,
				"y": -0.6468219783,
				"z": 1.1237136307,
				"element": "H" 
			},
			{
				"x": 1.694815925,
				"y": -0.397393282,
				"z": 2.4794094529,
				"element": "H" 
			},
			{
				"x": 0.3016621618,
				"y": 1.1698259068,
				"z": 0.3977019254,
				"element": "H" 
			}
		],
		 "valence_orbital": [ 
			{
				"type": "occ",
				"energy": -0.35219,
				"method": "rhf"
			},
			{
				"type": "occ",
				"energy": -0.34723,
				"method": "rhf"
			},
			{
				"type": "occ",
				"energy": -0.31041,
				"method": "rhf"
			},
			{
				"type": "occ",
				"energy": -0.29791,
				"method": "rhf"
			},
			{
				"type": "occ",
				"energy": -0.25817,
				"method": "rhf"
			},
			{
				"type": "unocc",
				"energy": -0.01301,
				"method": "rhf"
			},
			{
				"type": "unocc",
				"energy": 0.01673,
				"method": "rhf"
			},
			{
				"type": "unocc",
				"energy": 0.07368,
				"method": "rhf"
			},
			{
				"type": "unocc",
				"energy": 0.10529,
				"method": "rhf"
			},
			{
				"type": "unocc",
				"energy": 0.11411,
				"method": "rhf"
			}
		],
		"cosmo_sigma_profile": { 
			"-0.025": 0.0,
			"-0.024": 0.0,
			"-0.023": 0.0,
			"-0.022": 0.0,
			"-0.021": 0.0,
			"-0.02": 0.0,
			"-0.019": 0.0,
			"-0.018": 0.0,
			"-0.017": 0.0,
			"-0.016": 0.0,
			"-0.015": 0.0,
			"-0.014": 0.0711428963614,
			"-0.013": 0.435202613387,
			"-0.012": 0.645367145969,
			"-0.011": 0.590334151345,
			"-0.01": 1.41962250052,
			"-0.009": 1.54209759805,
			"-0.008": 0.942945221573,
			"-0.007": 2.70198732202,
			"-0.006": 6.78019152467,
			"-0.005": 10.9918570267,
			"-0.004": 15.9412845033,
			"-0.003": 17.9717442941,
			"-0.002": 16.7866537985,
			"-0.001": 16.974620672,
			"0.0": 17.5553898575,
			"0.001": 8.53338731165,
			"0.002": 4.59094314993,
			"0.003": 3.78658257423,
			"0.004": 3.607570396,
			"0.005": 2.51675313351,
			"0.006": 2.48863251021,
			"0.007": 2.92048983062,
			"0.008": 2.69469289619,
			"0.009": 3.10236580344,
			"0.01": 4.89428820237,
			"0.011": 4.67300291393,
			"0.012": 5.82962674446,
			"0.013": 1.92362042327,
			"0.014": 0.123436381247,
			"0.015": 0.0,
			"0.016": 0.0,
			"0.017": 0.0,
			"0.018": 0.0,
			"0.019": 0.0,
			"0.02": 0.0,
			"0.021": 0.0,
			"0.022": 0.0,
			"0.023": 0.0,
			"0.024": 0.0,
			"0.025": 0.0
		}
	}
}
