{
	 "smiles": "COC(=O)C1=CNC(=N1)C1CC1", 
	 "Tm": 393.15, 
	 "num_atms": 22, 
	 "gaussian": { 
		 "optdone": 1, 
		 "sigma_profile": "yes", 
		 "theory": "DFT", 
		 "functional": "B3LYP", 
		 "basiset": "6-31G**", 
		 "properties": { 
			 "R2extent": 2997.1252, 
			 "electric_dipole_moment_norm": 5.267566104, 
			 "electric_quadrupole_moment_norm": 11.0488360563, 
			 "total_energy": -570.807331349, 
			 "HOMO_LUMO_gap": 0.20852, 
			 "cosmo_polarized_energy": -19.74, 
			 "cosmo_cavitation_energy": 26.69, 
			 "cosmo_dispersion_energy": -19.52, 
			 "cosmo_repulsion_energy": 1.59, 
			 "cosmo_total_nonelectrostatic_energy": 8.76, 
			 "SMD_solvation_energy": 4.63 
		},
		"coords": [
			{
				"x": -2.3688191757,
				"y": 1.7017285016,
				"z": 2.8410451673,
				"element": "C" 
			},
			{
				"x": -1.5325909189,
				"y": 1.9433892413,
				"z": 1.7026871783,
				"element": "O" 
			},
			{
				"x": -1.2043218528,
				"y": 0.8298352911,
				"z": 0.9877372087,
				"element": "C" 
			},
			{
				"x": -1.5826012332,
				"y": -0.2837706575,
				"z": 1.2798300381,
				"element": "O" 
			},
			{
				"x": -0.3466195038,
				"y": 1.1823929423,
				"z": -0.1566624761,
				"element": "C" 
			},
			{
				"x": 0.0992641928,
				"y": 2.4364175686,
				"z": -0.5144133739,
				"element": "C" 
			},
			{
				"x": 0.858376425,
				"y": 2.2340284819,
				"z": -1.6407833695,
				"element": "N" 
			},
			{
				"x": 0.8448237162,
				"y": 0.8845344621,
				"z": -1.9203237075,
				"element": "C" 
			},
			{
				"x": 0.123807556,
				"y": 0.2297971077,
				"z": -1.0379207183,
				"element": "N" 
			},
			{
				"x": 1.5608027514,
				"y": 0.2980580182,
				"z": -3.0699422696,
				"element": "C" 
			},
			{
				"x": 0.9525112496,
				"y": -0.8972076744,
				"z": -3.7823533702,
				"element": "C" 
			},
			{
				"x": 2.1691063214,
				"y": -1.086234306,
				"z": -2.9280904634,
				"element": "C" 
			},
			{
				"x": -3.3188160277,
				"y": 1.2535312025,
				"z": 2.5375328229,
				"element": "H" 
			},
			{
				"x": -1.8773404569,
				"y": 1.0284928539,
				"z": 3.548638915,
				"element": "H" 
			},
			{
				"x": -2.5368855493,
				"y": 2.677608525,
				"z": 3.2978266616,
				"element": "H" 
			},
			{
				"x": -0.0564204469,
				"y": 3.409198876,
				"z": -0.0772248116,
				"element": "H" 
			},
			{
				"x": 1.3385979362,
				"y": 2.9474167106,
				"z": -2.1689545459,
				"element": "H" 
			},
			{
				"x": 2.102552797,
				"y": 1.0142239186,
				"z": -3.6828377491,
				"element": "H" 
			},
			{
				"x": 1.0577932581,
				"y": -0.945262434,
				"z": -4.8619879883,
				"element": "H" 
			},
			{
				"x": 0.0050064196,
				"y": -1.2513855768,
				"z": -3.3900036331,
				"element": "H" 
			},
			{
				"x": 3.1251345132,
				"y": -1.2663832679,
				"z": -3.4103280102,
				"element": "H" 
			},
			{
				"x": 2.0349380285,
				"y": -1.5666097846,
				"z": -1.9645715051,
				"element": "H" 
			}
		],
		 "valence_orbital": [ 
			{
				"type": "occ",
				"energy": -0.28896,
				"method": "rhf"
			},
			{
				"type": "occ",
				"energy": -0.28114,
				"method": "rhf"
			},
			{
				"type": "occ",
				"energy": -0.27228,
				"method": "rhf"
			},
			{
				"type": "occ",
				"energy": -0.2582,
				"method": "rhf"
			},
			{
				"type": "occ",
				"energy": -0.22108,
				"method": "rhf"
			},
			{
				"type": "unocc",
				"energy": -0.01256,
				"method": "rhf"
			},
			{
				"type": "unocc",
				"energy": 0.02754,
				"method": "rhf"
			},
			{
				"type": "unocc",
				"energy": 0.06268,
				"method": "rhf"
			},
			{
				"type": "unocc",
				"energy": 0.09551,
				"method": "rhf"
			},
			{
				"type": "unocc",
				"energy": 0.12241,
				"method": "rhf"
			}
		],
		"cosmo_sigma_profile": { 
			"-0.025": 0.0,
			"-0.024": 0.0,
			"-0.023": 0.0,
			"-0.022": 0.0,
			"-0.021": 0.0,
			"-0.02": 0.0,
			"-0.019": 0.0,
			"-0.018": 0.0,
			"-0.017": 0.983869958852,
			"-0.016": 1.84142569372,
			"-0.015": 1.58394287224,
			"-0.014": 1.54154498504,
			"-0.013": 1.2501980604,
			"-0.012": 1.45785288848,
			"-0.011": 1.17597664138,
			"-0.01": 1.82167488508,
			"-0.009": 2.80670444819,
			"-0.008": 2.46514462976,
			"-0.007": 3.84440578983,
			"-0.006": 6.87272963382,
			"-0.005": 13.6114884977,
			"-0.004": 18.1037177197,
			"-0.003": 17.5868410483,
			"-0.002": 13.7292917838,
			"-0.001": 14.7952736753,
			"0.0": 14.2713556927,
			"0.001": 13.5971744119,
			"0.002": 17.3434789922,
			"0.003": 13.2194582374,
			"0.004": 8.31638088678,
			"0.005": 6.10891871286,
			"0.006": 4.38095706793,
			"0.007": 4.11794086334,
			"0.008": 2.65583137265,
			"0.009": 2.37880532316,
			"0.01": 2.03034170305,
			"0.011": 3.32820240431,
			"0.012": 5.06875633223,
			"0.013": 3.5069636162,
			"0.014": 2.24924152871,
			"0.015": 1.38726436083,
			"0.016": 1.14858939284,
			"0.017": 1.05355985722,
			"0.018": 0.278760974991,
			"0.019": 0.0,
			"0.02": 0.0,
			"0.021": 0.0,
			"0.022": 0.0,
			"0.023": 0.0,
			"0.024": 0.0,
			"0.025": 0.0
		}
	}
}
