{
	 "smiles": "OC(=O)C1=CC=C(CN2C=CC=CC2=O)O1", 
	 "Tm": 473.15, 
	 "num_atms": 25, 
	 "gaussian": { 
		 "optdone": 1, 
		 "sigma_profile": "yes", 
		 "theory": "DFT", 
		 "functional": "B3LYP", 
		 "basiset": "6-31G**", 
		 "properties": { 
			 "R2extent": 4908.3413, 
			 "electric_dipole_moment_norm": 3.68268912074, 
			 "electric_quadrupole_moment_norm": 21.2417658692, 
			 "total_energy": -780.231921114, 
			 "HOMO_LUMO_gap": 0.16515, 
			 "cosmo_polarized_energy": -19.48, 
			 "cosmo_cavitation_energy": 31.06, 
			 "cosmo_dispersion_energy": -21.94, 
			 "cosmo_repulsion_energy": 1.73, 
			 "cosmo_total_nonelectrostatic_energy": 10.85, 
			 "SMD_solvation_energy": 7.89 
		},
		"coords": [
			{
				"x": -2.3654637176,
				"y": -1.1859016619,
				"z": 0.5937470574,
				"element": "O" 
			},
			{
				"x": -1.340060805,
				"y": -1.0860198321,
				"z": 1.4676014408,
				"element": "C" 
			},
			{
				"x": -1.3016763681,
				"y": -1.6729372389,
				"z": 2.5319358424,
				"element": "O" 
			},
			{
				"x": -0.2735198795,
				"y": -0.1967101049,
				"z": 1.0042325703,
				"element": "C" 
			},
			{
				"x": 0.9074613905,
				"y": 0.1409040709,
				"z": 1.6096715119,
				"element": "C" 
			},
			{
				"x": 1.5698303303,
				"y": 1.0305595263,
				"z": 0.7170113238,
				"element": "C" 
			},
			{
				"x": 0.7438022728,
				"y": 1.1786179547,
				"z": -0.368133622,
				"element": "C" 
			},
			{
				"x": 0.8547201979,
				"y": 1.9911943362,
				"z": -1.6113797579,
				"element": "C" 
			},
			{
				"x": 0.8998870637,
				"y": 1.1836277883,
				"z": -2.8452550698,
				"element": "N" 
			},
			{
				"x": 1.7832832146,
				"y": 0.1452132822,
				"z": -2.9595680989,
				"element": "C" 
			},
			{
				"x": 1.8657265253,
				"y": -0.6073757107,
				"z": -4.0934307752,
				"element": "C" 
			},
			{
				"x": 0.9968824947,
				"y": -0.2904984854,
				"z": -5.1766584564,
				"element": "C" 
			},
			{
				"x": 0.1115384616,
				"y": 0.7435109143,
				"z": -5.0808367049,
				"element": "C" 
			},
			{
				"x": 0.0137120588,
				"y": 1.5695101259,
				"z": -3.8936316987,
				"element": "C" 
			},
			{
				"x": -0.7405180446,
				"y": 2.5308679844,
				"z": -3.7503632817,
				"element": "O" 
			},
			{
				"x": -0.3824603916,
				"y": 0.4360285687,
				"z": -0.2040190846,
				"element": "O" 
			},
			{
				"x": -3.0046250588,
				"y": -1.7911410569,
				"z": 1.0049857964,
				"element": "H" 
			},
			{
				"x": 1.2421194642,
				"y": -0.2162855476,
				"z": 2.572061226,
				"element": "H" 
			},
			{
				"x": 2.5289343314,
				"y": 1.5086586053,
				"z": 0.8571556184,
				"element": "H" 
			},
			{
				"x": 1.7521967863,
				"y": 2.6151311312,
				"z": -1.543194705,
				"element": "H" 
			},
			{
				"x": -0.0079521627,
				"y": 2.6508601349,
				"z": -1.7401706096,
				"element": "H" 
			},
			{
				"x": 2.3988362871,
				"y": -0.0424479008,
				"z": -2.0862568348,
				"element": "H" 
			},
			{
				"x": 2.5733368238,
				"y": -1.4249203068,
				"z": -4.1515064019,
				"element": "H" 
			},
			{
				"x": 1.0412228427,
				"y": -0.8810588104,
				"z": -6.0880042708,
				"element": "H" 
			},
			{
				"x": -0.560214118,
				"y": 1.0067122333,
				"z": -5.8894930152,
				"element": "H" 
			}
		],
		 "valence_orbital": [ 
			{
				"type": "occ",
				"energy": -0.30013,
				"method": "rhf"
			},
			{
				"type": "occ",
				"energy": -0.28448,
				"method": "rhf"
			},
			{
				"type": "occ",
				"energy": -0.25955,
				"method": "rhf"
			},
			{
				"type": "occ",
				"energy": -0.24279,
				"method": "rhf"
			},
			{
				"type": "occ",
				"energy": -0.21802,
				"method": "rhf"
			},
			{
				"type": "unocc",
				"energy": -0.05287,
				"method": "rhf"
			},
			{
				"type": "unocc",
				"energy": -0.0434,
				"method": "rhf"
			},
			{
				"type": "unocc",
				"energy": 0.01216,
				"method": "rhf"
			},
			{
				"type": "unocc",
				"energy": 0.0271,
				"method": "rhf"
			},
			{
				"type": "unocc",
				"energy": 0.07492,
				"method": "rhf"
			}
		],
		"cosmo_sigma_profile": { 
			"-0.025": 0.0,
			"-0.024": 0.0,
			"-0.023": 0.0,
			"-0.022": 0.0,
			"-0.021": 0.0,
			"-0.02": 0.0,
			"-0.019": 0.263507618984,
			"-0.018": 1.01205035718,
			"-0.017": 1.10659767027,
			"-0.016": 0.484261910573,
			"-0.015": 0.460642613429,
			"-0.014": 0.773410467328,
			"-0.013": 0.891486781846,
			"-0.012": 0.976642238547,
			"-0.011": 0.787368538221,
			"-0.01": 0.4466670868,
			"-0.009": 1.47023542979,
			"-0.008": 10.3075188267,
			"-0.007": 14.156421785,
			"-0.006": 15.5720959721,
			"-0.005": 15.1200693707,
			"-0.004": 14.3148955775,
			"-0.003": 13.969765335,
			"-0.002": 13.8021448224,
			"-0.001": 14.966134978,
			"0.0": 19.0376267761,
			"0.001": 18.5729412422,
			"0.002": 18.7214721062,
			"0.003": 15.8257342514,
			"0.004": 6.92594329929,
			"0.005": 4.61126768655,
			"0.006": 4.72579037632,
			"0.007": 4.24667511418,
			"0.008": 4.86661925602,
			"0.009": 5.41029199478,
			"0.01": 3.94708973065,
			"0.011": 6.26529588106,
			"0.012": 5.84521812877,
			"0.013": 2.9046325271,
			"0.014": 4.52056381915,
			"0.015": 1.79642885124,
			"0.016": 0.158032596447,
			"0.017": 0.0,
			"0.018": 0.0,
			"0.019": 0.0,
			"0.02": 0.0,
			"0.021": 0.0,
			"0.022": 0.0,
			"0.023": 0.0,
			"0.024": 0.0,
			"0.025": 0.0
		}
	}
}
