{
	 "smiles": "CCO[Si](C)(C)C", 
	 "Tm": 190.15, 
	 "num_atms": 21, 
	 "gaussian": { 
		 "optdone": 1, 
		 "sigma_profile": "yes", 
		 "theory": "DFT", 
		 "functional": "B3LYP", 
		 "basiset": "6-31G**", 
		 "properties": { 
			 "R2extent": 1550.4463, 
			 "electric_dipole_moment_norm": 1.03303447184, 
			 "electric_quadrupole_moment_norm": 3.04373111822, 
			 "total_energy": -563.770833111, 
			 "HOMO_LUMO_gap": 0.33116, 
			 "cosmo_polarized_energy": -3.75, 
			 "cosmo_cavitation_energy": 24.64, 
			 "cosmo_dispersion_energy": -15.35, 
			 "cosmo_repulsion_energy": 1.45, 
			 "cosmo_total_nonelectrostatic_energy": 10.74, 
			 "SMD_solvation_energy": 5.84 
		},
		"coords": [
			{
				"x": -2.899870848,
				"y": -0.6687096184,
				"z": 0.0207453556,
				"element": "C" 
			},
			{
				"x": -1.4258929088,
				"y": -0.3181000465,
				"z": -0.1195918304,
				"element": "C" 
			},
			{
				"x": -0.7323129072,
				"y": -0.7468700776,
				"z": 1.0457277794,
				"element": "O" 
			},
			{
				"x": 0.9136250355,
				"y": -0.5567122824,
				"z": 1.3072922215,
				"element": "Si" 
			},
			{
				"x": 1.2232969608,
				"y": -1.3114155245,
				"z": 3.000248826,
				"element": "C" 
			},
			{
				"x": 1.9032257241,
				"y": -1.4675967679,
				"z": -0.0194643544,
				"element": "C" 
			},
			{
				"x": 1.3768817861,
				"y": 1.2748831245,
				"z": 1.2993582195,
				"element": "C" 
			},
			{
				"x": -3.3274785317,
				"y": -0.176145497,
				"z": 0.8990844953,
				"element": "H" 
			},
			{
				"x": -3.4588621302,
				"y": -0.3487765206,
				"z": -0.8651979802,
				"element": "H" 
			},
			{
				"x": -3.0256176939,
				"y": -1.7488702581,
				"z": 0.1406870463,
				"element": "H" 
			},
			{
				"x": -1.3108867731,
				"y": 0.768052795,
				"z": -0.2564423426,
				"element": "H" 
			},
			{
				"x": -1.0089915161,
				"y": -0.8044703362,
				"z": -1.0147638919,
				"element": "H" 
			},
			{
				"x": 2.2806550107,
				"y": -1.2419361765,
				"z": 3.2796163952,
				"element": "H" 
			},
			{
				"x": 0.6384404112,
				"y": -0.7993018801,
				"z": 3.7712144456,
				"element": "H" 
			},
			{
				"x": 0.9410985347,
				"y": -2.3691603135,
				"z": 3.0160785442,
				"element": "H" 
			},
			{
				"x": 1.651620902,
				"y": -2.5335271551,
				"z": -0.0368019308,
				"element": "H" 
			},
			{
				"x": 1.7179439188,
				"y": -1.0656051076,
				"z": -1.0217394447,
				"element": "H" 
			},
			{
				"x": 2.9795599393,
				"y": -1.3831271395,
				"z": 0.1705619961,
				"element": "H" 
			},
			{
				"x": 2.4442211373,
				"y": 1.4076645899,
				"z": 1.5112477765,
				"element": "H" 
			},
			{
				"x": 0.8158296765,
				"y": 1.8268448518,
				"z": 2.0611825482,
				"element": "H" 
			},
			{
				"x": 1.1768142719,
				"y": 1.7473793402,
				"z": 0.3312561257,
				"element": "H" 
			}
		],
		 "valence_orbital": [ 
			{
				"type": "occ",
				"energy": -0.36078,
				"method": "rhf"
			},
			{
				"type": "occ",
				"energy": -0.30815,
				"method": "rhf"
			},
			{
				"type": "occ",
				"energy": -0.30671,
				"method": "rhf"
			},
			{
				"type": "occ",
				"energy": -0.2796,
				"method": "rhf"
			},
			{
				"type": "occ",
				"energy": -0.25854,
				"method": "rhf"
			},
			{
				"type": "unocc",
				"energy": 0.07262,
				"method": "rhf"
			},
			{
				"type": "unocc",
				"energy": 0.08586,
				"method": "rhf"
			},
			{
				"type": "unocc",
				"energy": 0.10235,
				"method": "rhf"
			},
			{
				"type": "unocc",
				"energy": 0.10585,
				"method": "rhf"
			},
			{
				"type": "unocc",
				"energy": 0.1173,
				"method": "rhf"
			}
		],
		"cosmo_sigma_profile": { 
			"-0.025": 0.0,
			"-0.024": 0.0,
			"-0.023": 0.0,
			"-0.022": 0.0,
			"-0.021": 0.0,
			"-0.02": 0.0,
			"-0.019": 0.0,
			"-0.018": 0.0,
			"-0.017": 0.0,
			"-0.016": 0.0,
			"-0.015": 0.0,
			"-0.014": 0.0,
			"-0.013": 0.0,
			"-0.012": 0.0,
			"-0.011": 0.0,
			"-0.01": 0.0,
			"-0.009": 0.0,
			"-0.008": 0.0,
			"-0.007": 0.0,
			"-0.006": 0.0,
			"-0.005": 0.00325094224195,
			"-0.004": 6.59939823959,
			"-0.003": 28.9424468902,
			"-0.002": 33.7866328827,
			"-0.001": 26.5915016812,
			"0.0": 24.7338785227,
			"0.001": 29.2426885143,
			"0.002": 15.6005514208,
			"0.003": 7.10438506764,
			"0.004": 1.95915323314,
			"0.005": 1.44569788714,
			"0.006": 1.52798123958,
			"0.007": 1.21724923932,
			"0.008": 1.5430481263,
			"0.009": 1.52813700081,
			"0.01": 1.0697237912,
			"0.011": 1.13529236054,
			"0.012": 1.09992335558,
			"0.013": 1.07147617002,
			"0.014": 1.10598615131,
			"0.015": 0.0820004296746,
			"0.016": 0.0,
			"0.017": 0.0,
			"0.018": 0.0,
			"0.019": 0.0,
			"0.02": 0.0,
			"0.021": 0.0,
			"0.022": 0.0,
			"0.023": 0.0,
			"0.024": 0.0,
			"0.025": 0.0
		}
	}
}
