{
	 "smiles": "NC1=CC(Cl)=C(N)C=C1Cl", 
	 "Tm": 438.15, 
	 "num_atms": 16, 
	 "gaussian": { 
		 "optdone": 1, 
		 "sigma_profile": "yes", 
		 "theory": "DFT", 
		 "functional": "B3LYP", 
		 "basiset": "6-31G**", 
		 "properties": { 
			 "R2extent": 2647.0618, 
			 "electric_dipole_moment_norm": 2.11899650542, 
			 "electric_quadrupole_moment_norm": 13.5880661637, 
			 "total_energy": -1262.14777936, 
			 "HOMO_LUMO_gap": 0.17471, 
			 "cosmo_polarized_energy": -10.88, 
			 "cosmo_cavitation_energy": 23.24, 
			 "cosmo_dispersion_energy": -17.91, 
			 "cosmo_repulsion_energy": 1.46, 
			 "cosmo_total_nonelectrostatic_energy": 6.79, 
			 "SMD_solvation_energy": 3.24 
		},
		"coords": [
			{
				"x": 0.4793146444,
				"y": 1.1185696578,
				"z": 1.4512028709,
				"element": "N" 
			},
			{
				"x": 0.5166176022,
				"y": 0.1981147282,
				"z": 0.4039169768,
				"element": "C" 
			},
			{
				"x": -0.4502419944,
				"y": -0.8125379497,
				"z": 0.2911442065,
				"element": "C" 
			},
			{
				"x": -0.3823613662,
				"y": -1.769331731,
				"z": -0.7146894193,
				"element": "C" 
			},
			{
				"x": -1.6477197128,
				"y": -2.9949910547,
				"z": -0.7976442582,
				"element": "Cl" 
			},
			{
				"x": 0.6501313112,
				"y": -1.7875417891,
				"z": -1.6687124201,
				"element": "C" 
			},
			{
				"x": 0.7585902597,
				"y": -2.7844591435,
				"z": -2.638162589,
				"element": "N" 
			},
			{
				"x": 1.614644939,
				"y": -0.7743651194,
				"z": -1.5585022803,
				"element": "C" 
			},
			{
				"x": 1.5442243052,
				"y": 0.185159761,
				"z": -0.5554500457,
				"element": "C" 
			},
			{
				"x": 2.7865176833,
				"y": 1.4356053082,
				"z": -0.4977231273,
				"element": "Cl" 
			},
			{
				"x": -0.4446725912,
				"y": 1.2984261651,
				"z": 1.8188508459,
				"element": "H" 
			},
			{
				"x": 0.9947598333,
				"y": 1.9714031036,
				"z": 1.2796431283,
				"element": "H" 
			},
			{
				"x": -1.2667080265,
				"y": -0.8532199191,
				"z": 1.0047328351,
				"element": "H" 
			},
			{
				"x": -0.108175652,
				"y": -3.2597003544,
				"z": -2.8510077019,
				"element": "H" 
			},
			{
				"x": 1.2559648825,
				"y": -2.5057856777,
				"z": -3.4725643226,
				"element": "H" 
			},
			{
				"x": 2.4359138824,
				"y": -0.7388459852,
				"z": -2.266834699,
				"element": "H" 
			}
		],
		 "valence_orbital": [ 
			{
				"type": "occ",
				"energy": -0.31932,
				"method": "rhf"
			},
			{
				"type": "occ",
				"energy": -0.31849,
				"method": "rhf"
			},
			{
				"type": "occ",
				"energy": -0.27185,
				"method": "rhf"
			},
			{
				"type": "occ",
				"energy": -0.24369,
				"method": "rhf"
			},
			{
				"type": "occ",
				"energy": -0.18963,
				"method": "rhf"
			},
			{
				"type": "unocc",
				"energy": -0.01492,
				"method": "rhf"
			},
			{
				"type": "unocc",
				"energy": 0.01588,
				"method": "rhf"
			},
			{
				"type": "unocc",
				"energy": 0.02089,
				"method": "rhf"
			},
			{
				"type": "unocc",
				"energy": 0.03915,
				"method": "rhf"
			},
			{
				"type": "unocc",
				"energy": 0.07936,
				"method": "rhf"
			}
		],
		"cosmo_sigma_profile": { 
			"-0.025": 0.0,
			"-0.024": 0.0,
			"-0.023": 0.0,
			"-0.022": 0.0,
			"-0.021": 0.0,
			"-0.02": 0.0,
			"-0.019": 0.0,
			"-0.018": 0.0,
			"-0.017": 0.0,
			"-0.016": 0.0,
			"-0.015": 0.0,
			"-0.014": 0.0,
			"-0.013": 1.54142558618,
			"-0.012": 3.41045877336,
			"-0.011": 4.45949618002,
			"-0.01": 5.7186666142,
			"-0.009": 6.31375296218,
			"-0.008": 5.44027783027,
			"-0.007": 5.64003989647,
			"-0.006": 5.01049248513,
			"-0.005": 6.43747639143,
			"-0.004": 5.15000634699,
			"-0.003": 5.19963437908,
			"-0.002": 8.18760851493,
			"-0.001": 8.88180238537,
			"0.0": 9.21150768121,
			"0.001": 14.646380026,
			"0.002": 15.8118574604,
			"0.003": 22.7012921545,
			"0.004": 28.2302201764,
			"0.005": 13.9807195649,
			"0.006": 2.35808664099,
			"0.007": 1.88896633718,
			"0.008": 1.4148555059,
			"0.009": 1.30765892532,
			"0.01": 1.54358461369,
			"0.011": 1.02288674865,
			"0.012": 1.12841957244,
			"0.013": 1.58226205808,
			"0.014": 0.996130737788,
			"0.015": 0.204649797926,
			"0.016": 0.0,
			"0.017": 0.0,
			"0.018": 0.0,
			"0.019": 0.0,
			"0.02": 0.0,
			"0.021": 0.0,
			"0.022": 0.0,
			"0.023": 0.0,
			"0.024": 0.0,
			"0.025": 0.0
		}
	}
}
