{
	 "smiles": "OC(=O)C1=C(C=CC(O)=C1)[N+]([O-])=O", 
	 "Tm": 442.65, 
	 "num_atms": 18, 
	 "gaussian": { 
		 "optdone": 1, 
		 "sigma_profile": "yes", 
		 "theory": "DFT", 
		 "functional": "B3LYP", 
		 "basiset": "6-31G**", 
		 "properties": { 
			 "R2extent": 2912.9871, 
			 "electric_dipole_moment_norm": 7.06988060295, 
			 "electric_quadrupole_moment_norm": 23.0044244155, 
			 "total_energy": -700.526317275, 
			 "HOMO_LUMO_gap": 0.15482, 
			 "cosmo_polarized_energy": -19.0, 
			 "cosmo_cavitation_energy": 23.51, 
			 "cosmo_dispersion_energy": -17.78, 
			 "cosmo_repulsion_energy": 1.38, 
			 "cosmo_total_nonelectrostatic_energy": 7.12, 
			 "SMD_solvation_energy": 7.75 
		},
		"coords": [
			{
				"x": -1.8969042181,
				"y": -2.0752368186,
				"z": 1.9680298574,
				"element": "O" 
			},
			{
				"x": -1.968679744,
				"y": -2.2987930657,
				"z": 0.6644504071,
				"element": "C" 
			},
			{
				"x": -2.5472377742,
				"y": -3.2657361794,
				"z": 0.218205044,
				"element": "O" 
			},
			{
				"x": -1.3570758851,
				"y": -1.2805181815,
				"z": -0.3193288652,
				"element": "C" 
			},
			{
				"x": -0.3058937894,
				"y": -0.3333875345,
				"z": -0.1703016947,
				"element": "C" 
			},
			{
				"x": 0.1331715022,
				"y": 0.4263096764,
				"z": -1.2629783555,
				"element": "C" 
			},
			{
				"x": -0.4611109394,
				"y": 0.3064625355,
				"z": -2.5069817997,
				"element": "C" 
			},
			{
				"x": -1.5010028596,
				"y": -0.6150885493,
				"z": -2.6750298243,
				"element": "C" 
			},
			{
				"x": -2.1384305837,
				"y": -0.8055235337,
				"z": -3.8515702595,
				"element": "O" 
			},
			{
				"x": -1.9146630012,
				"y": -1.3989571196,
				"z": -1.5925619217,
				"element": "C" 
			},
			{
				"x": 0.4219372594,
				"y": -0.0432895871,
				"z": 1.0688588416,
				"element": "N" 
			},
			{
				"x": 1.5440549203,
				"y": 0.4385765505,
				"z": 0.9777462033,
				"element": "O" 
			},
			{
				"x": -0.1213515881,
				"y": -0.2447814212,
				"z": 2.171581527,
				"element": "O" 
			},
			{
				"x": -1.3383720745,
				"y": -1.282412392,
				"z": 2.1537515233,
				"element": "H" 
			},
			{
				"x": 0.9495939611,
				"y": 1.119907712,
				"z": -1.1105104435,
				"element": "H" 
			},
			{
				"x": -0.1186363946,
				"y": 0.9204212389,
				"z": -3.3356766777,
				"element": "H" 
			},
			{
				"x": -1.7644657304,
				"y": -0.2275236744,
				"z": -4.5305046757,
				"element": "H" 
			},
			{
				"x": -2.6842330605,
				"y": -2.1458296563,
				"z": -1.7421788862,
				"element": "H" 
			}
		],
		 "valence_orbital": [ 
			{
				"type": "occ",
				"energy": -0.31901,
				"method": "rhf"
			},
			{
				"type": "occ",
				"energy": -0.31351,
				"method": "rhf"
			},
			{
				"type": "occ",
				"energy": -0.2967,
				"method": "rhf"
			},
			{
				"type": "occ",
				"energy": -0.27712,
				"method": "rhf"
			},
			{
				"type": "occ",
				"energy": -0.27004,
				"method": "rhf"
			},
			{
				"type": "unocc",
				"energy": -0.11522,
				"method": "rhf"
			},
			{
				"type": "unocc",
				"energy": -0.06306,
				"method": "rhf"
			},
			{
				"type": "unocc",
				"energy": -0.02203,
				"method": "rhf"
			},
			{
				"type": "unocc",
				"energy": 0.03496,
				"method": "rhf"
			},
			{
				"type": "unocc",
				"energy": 0.03997,
				"method": "rhf"
			}
		],
		"cosmo_sigma_profile": { 
			"-0.025": 0.0,
			"-0.024": 0.0,
			"-0.023": 0.0,
			"-0.022": 0.0,
			"-0.021": 0.0,
			"-0.02": 0.194827577867,
			"-0.019": 1.44121393399,
			"-0.018": 1.37905060942,
			"-0.017": 1.26503714618,
			"-0.016": 0.899223147396,
			"-0.015": 0.924108934498,
			"-0.014": 0.495031890451,
			"-0.013": 1.68776887317,
			"-0.012": 1.61597536274,
			"-0.011": 1.62026342562,
			"-0.01": 2.07848574415,
			"-0.009": 4.14931082446,
			"-0.008": 5.70126389674,
			"-0.007": 6.93941071948,
			"-0.006": 7.97334269499,
			"-0.005": 7.90573929924,
			"-0.004": 9.1366174845,
			"-0.003": 9.46334615051,
			"-0.002": 10.1564141168,
			"-0.001": 16.7124932325,
			"0.0": 15.1868427418,
			"0.001": 9.86087954766,
			"0.002": 6.31088615873,
			"0.003": 5.05642225029,
			"0.004": 7.12863314208,
			"0.005": 6.37647631562,
			"0.006": 8.65058172554,
			"0.007": 8.47864712671,
			"0.008": 8.46294655292,
			"0.009": 6.52504334231,
			"0.01": 5.2093752939,
			"0.011": 5.61826869173,
			"0.012": 3.44027231865,
			"0.013": 1.37562614393,
			"0.014": 0.0223776384474,
			"0.015": 0.0,
			"0.016": 0.0,
			"0.017": 0.0,
			"0.018": 0.0,
			"0.019": 0.0,
			"0.02": 0.0,
			"0.021": 0.0,
			"0.022": 0.0,
			"0.023": 0.0,
			"0.024": 0.0,
			"0.025": 0.0
		}
	}
}
