{
	 "smiles": "ClCC1=NOC(=N1)C1=COC=C1", 
	 "Tm": 351.15, 
	 "num_atms": 17, 
	 "gaussian": { 
		 "optdone": 1, 
		 "sigma_profile": "yes", 
		 "theory": "DFT", 
		 "functional": "B3LYP", 
		 "basiset": "6-31G**", 
		 "properties": { 
			 "R2extent": 4211.4444, 
			 "electric_dipole_moment_norm": 3.01104228632, 
			 "electric_quadrupole_moment_norm": 11.940167758, 
			 "total_energy": -989.832457967, 
			 "HOMO_LUMO_gap": 0.19321, 
			 "cosmo_polarized_energy": -9.61, 
			 "cosmo_cavitation_energy": 24.84, 
			 "cosmo_dispersion_energy": -18.44, 
			 "cosmo_repulsion_energy": 1.47, 
			 "cosmo_total_nonelectrostatic_energy": 7.88, 
			 "SMD_solvation_energy": 3.35 
		},
		"coords": [
			{
				"x": -3.098832629,
				"y": 4.7575162857,
				"z": 0.1528239406,
				"element": "Cl" 
			},
			{
				"x": -1.7881253806,
				"y": 4.2277339661,
				"z": -0.9890810012,
				"element": "C" 
			},
			{
				"x": -0.9323125565,
				"y": 3.1650540921,
				"z": -0.3917289724,
				"element": "C" 
			},
			{
				"x": 0.2994986567,
				"y": 3.4206473848,
				"z": -0.0192241393,
				"element": "N" 
			},
			{
				"x": 0.7466002182,
				"y": 2.1827810586,
				"z": 0.4639160857,
				"element": "O" 
			},
			{
				"x": -0.2814523433,
				"y": 1.3189212201,
				"z": 0.3235526155,
				"element": "C" 
			},
			{
				"x": -1.3436113499,
				"y": 1.8697049556,
				"z": -0.2035731697,
				"element": "N" 
			},
			{
				"x": -0.0920092407,
				"y": -0.0475776559,
				"z": 0.7491197668,
				"element": "C" 
			},
			{
				"x": -1.0355288981,
				"y": -1.0395546565,
				"z": 0.6887447772,
				"element": "C" 
			},
			{
				"x": -0.5272201669,
				"y": -2.1950587958,
				"z": 1.16914645,
				"element": "O" 
			},
			{
				"x": 0.7659710831,
				"y": -1.9462176376,
				"z": 1.5465419943,
				"element": "C" 
			},
			{
				"x": 1.0887452953,
				"y": -0.6489974476,
				"z": 1.3135335276,
				"element": "C" 
			},
			{
				"x": -1.1893431672,
				"y": 5.1064052602,
				"z": -1.2234792315,
				"element": "H" 
			},
			{
				"x": -2.2901578249,
				"y": 3.8579052819,
				"z": -1.8829230874,
				"element": "H" 
			},
			{
				"x": -2.0576099016,
				"y": -1.056097195,
				"z": 0.3453935511,
				"element": "H" 
			},
			{
				"x": 1.3042152546,
				"y": -2.7869519805,
				"z": 1.9541623003,
				"element": "H" 
			},
			{
				"x": 2.0328729508,
				"y": -0.1636141362,
				"z": 1.5092745926,
				"element": "H" 
			}
		],
		 "valence_orbital": [ 
			{
				"type": "occ",
				"energy": -0.30786,
				"method": "rhf"
			},
			{
				"type": "occ",
				"energy": -0.30427,
				"method": "rhf"
			},
			{
				"type": "occ",
				"energy": -0.30111,
				"method": "rhf"
			},
			{
				"type": "occ",
				"energy": -0.2819,
				"method": "rhf"
			},
			{
				"type": "occ",
				"energy": -0.24855,
				"method": "rhf"
			},
			{
				"type": "unocc",
				"energy": -0.05534,
				"method": "rhf"
			},
			{
				"type": "unocc",
				"energy": -0.02175,
				"method": "rhf"
			},
			{
				"type": "unocc",
				"energy": 0.00553,
				"method": "rhf"
			},
			{
				"type": "unocc",
				"energy": 0.05223,
				"method": "rhf"
			},
			{
				"type": "unocc",
				"energy": 0.09038,
				"method": "rhf"
			}
		],
		"cosmo_sigma_profile": { 
			"-0.025": 0.0,
			"-0.024": 0.0,
			"-0.023": 0.0,
			"-0.022": 0.0,
			"-0.021": 0.0,
			"-0.02": 0.0,
			"-0.019": 0.0,
			"-0.018": 0.0,
			"-0.017": 0.0,
			"-0.016": 0.0,
			"-0.015": 0.0,
			"-0.014": 0.0,
			"-0.013": 0.0,
			"-0.012": 0.0,
			"-0.011": 0.380343074716,
			"-0.01": 2.96925347103,
			"-0.009": 7.94692019693,
			"-0.008": 8.02294573161,
			"-0.007": 7.60151117184,
			"-0.006": 9.61927231596,
			"-0.005": 7.6440052748,
			"-0.004": 9.95705668252,
			"-0.003": 10.2184062741,
			"-0.002": 10.8423517634,
			"-0.001": 12.8555180843,
			"0.0": 18.9612254394,
			"0.001": 16.1929611634,
			"0.002": 13.0578601471,
			"0.003": 11.9188778693,
			"0.004": 10.9807511318,
			"0.005": 16.0056876441,
			"0.006": 12.6369428709,
			"0.007": 4.17261300794,
			"0.008": 2.07576121609,
			"0.009": 2.45610541028,
			"0.01": 1.7209376182,
			"0.011": 2.44823452482,
			"0.012": 1.89905133242,
			"0.013": 0.554455609016,
			"0.014": 0.0,
			"0.015": 0.0,
			"0.016": 0.0,
			"0.017": 0.0,
			"0.018": 0.0,
			"0.019": 0.0,
			"0.02": 0.0,
			"0.021": 0.0,
			"0.022": 0.0,
			"0.023": 0.0,
			"0.024": 0.0,
			"0.025": 0.0
		}
	}
}
