{
	 "smiles": "OC(=O)C1=C(Cl)C(F)=CC(=C1)S(Cl)(=O)=O", 
	 "Tm": 423.15, 
	 "num_atms": 18, 
	 "gaussian": { 
		 "optdone": 1, 
		 "sigma_profile": "yes", 
		 "theory": "DFT", 
		 "functional": "B3LYP", 
		 "basiset": "6-31G**", 
		 "properties": { 
			 "R2extent": 4977.6706, 
			 "electric_dipole_moment_norm": 5.0255055676, 
			 "electric_quadrupole_moment_norm": 8.5398690148, 
			 "total_energy": -1987.77645564, 
			 "HOMO_LUMO_gap": 0.18969, 
			 "cosmo_polarized_energy": -14.92, 
			 "cosmo_cavitation_energy": 29.18, 
			 "cosmo_dispersion_energy": -21.89, 
			 "cosmo_repulsion_energy": 1.64, 
			 "cosmo_total_nonelectrostatic_energy": 8.93, 
			 "SMD_solvation_energy": 5.15 
		},
		"coords": [
			{
				"x": 3.1027040659,
				"y": -0.6499065234,
				"z": -1.1677795441,
				"element": "O" 
			},
			{
				"x": 2.0089111371,
				"y": 0.1231587948,
				"z": -1.1601303036,
				"element": "C" 
			},
			{
				"x": 1.8997033639,
				"y": 1.0373349807,
				"z": -1.9424133982,
				"element": "O" 
			},
			{
				"x": 0.8986339884,
				"y": -0.1462794015,
				"z": -0.1473110902,
				"element": "C" 
			},
			{
				"x": 0.7937070108,
				"y": -1.1968947048,
				"z": 0.7826352039,
				"element": "C" 
			},
			{
				"x": 1.9849040053,
				"y": -2.4681279611,
				"z": 0.9701725663,
				"element": "Cl" 
			},
			{
				"x": -0.3189701113,
				"y": -1.285141932,
				"z": 1.6320363807,
				"element": "C" 
			},
			{
				"x": -0.3967924368,
				"y": -2.2994878804,
				"z": 2.4975504898,
				"element": "F" 
			},
			{
				"x": -1.3417000286,
				"y": -0.3525052598,
				"z": 1.5943653858,
				"element": "C" 
			},
			{
				"x": -1.2228981251,
				"y": 0.6850020953,
				"z": 0.6720782796,
				"element": "C" 
			},
			{
				"x": -0.1404269744,
				"y": 0.7975226823,
				"z": -0.1872105302,
				"element": "C" 
			},
			{
				"x": -2.5418908613,
				"y": 1.8988767372,
				"z": 0.5829194788,
				"element": "S" 
			},
			{
				"x": -1.8426447422,
				"y": 3.3477239731,
				"z": 1.9675175409,
				"element": "Cl" 
			},
			{
				"x": -2.5220611485,
				"y": 2.5281864174,
				"z": -0.7286135339,
				"element": "O" 
			},
			{
				"x": -3.7449736478,
				"y": 1.317627587,
				"z": 1.1632689106,
				"element": "O" 
			},
			{
				"x": 3.0657103121,
				"y": -1.3492555923,
				"z": -0.4952886839,
				"element": "H" 
			},
			{
				"x": -2.1962494682,
				"y": -0.4477930303,
				"z": 2.253850214,
				"element": "H" 
			},
			{
				"x": -0.0687663393,
				"y": 1.5999590177,
				"z": -0.9120473663,
				"element": "H" 
			}
		],
		 "valence_orbital": [ 
			{
				"type": "occ",
				"energy": -0.34106,
				"method": "rhf"
			},
			{
				"type": "occ",
				"energy": -0.32955,
				"method": "rhf"
			},
			{
				"type": "occ",
				"energy": -0.31406,
				"method": "rhf"
			},
			{
				"type": "occ",
				"energy": -0.30495,
				"method": "rhf"
			},
			{
				"type": "occ",
				"energy": -0.30241,
				"method": "rhf"
			},
			{
				"type": "unocc",
				"energy": -0.11272,
				"method": "rhf"
			},
			{
				"type": "unocc",
				"energy": -0.09204,
				"method": "rhf"
			},
			{
				"type": "unocc",
				"energy": -0.06633,
				"method": "rhf"
			},
			{
				"type": "unocc",
				"energy": -0.03197,
				"method": "rhf"
			},
			{
				"type": "unocc",
				"energy": 0.00623,
				"method": "rhf"
			}
		],
		"cosmo_sigma_profile": { 
			"-0.025": 0.0,
			"-0.024": 0.0,
			"-0.023": 0.0,
			"-0.022": 0.0,
			"-0.021": 0.0,
			"-0.02": 0.0,
			"-0.019": 0.0,
			"-0.018": 0.0,
			"-0.017": 0.0,
			"-0.016": 0.0,
			"-0.015": 0.0,
			"-0.014": 0.0958594888348,
			"-0.013": 0.840948905372,
			"-0.012": 1.33277328776,
			"-0.011": 2.95871947651,
			"-0.01": 3.02081054442,
			"-0.009": 2.82557577909,
			"-0.008": 5.3512999761,
			"-0.007": 6.1703503361,
			"-0.006": 8.96005850006,
			"-0.005": 15.0791581452,
			"-0.004": 21.0289678282,
			"-0.003": 20.7813848684,
			"-0.002": 15.6686943462,
			"-0.001": 11.5094916807,
			"0.0": 12.8141158214,
			"0.001": 17.2696637981,
			"0.002": 26.1364664207,
			"0.003": 15.828731689,
			"0.004": 5.35817700574,
			"0.005": 4.47647050018,
			"0.006": 6.52845093369,
			"0.007": 11.0220253534,
			"0.008": 10.990198423,
			"0.009": 5.13874730502,
			"0.01": 5.11245116984,
			"0.011": 3.29139190968,
			"0.012": 1.49804528766,
			"0.013": 0.0348859294914,
			"0.014": 0.0,
			"0.015": 0.0,
			"0.016": 0.0,
			"0.017": 0.0,
			"0.018": 0.0,
			"0.019": 0.0,
			"0.02": 0.0,
			"0.021": 0.0,
			"0.022": 0.0,
			"0.023": 0.0,
			"0.024": 0.0,
			"0.025": 0.0
		}
	}
}
