{
	 "smiles": "CCOC(=O)C1=C(OC2=C1C=C(O)C=C2)C1=CC=CC=C1", 
	 "Tm": 426.15, 
	 "num_atms": 35, 
	 "gaussian": { 
		 "optdone": 1, 
		 "sigma_profile": "yes", 
		 "theory": "DFT", 
		 "functional": "B3LYP", 
		 "basiset": "6-31G**", 
		 "properties": { 
			 "R2extent": 7176.4583, 
			 "electric_dipole_moment_norm": 2.37342511995, 
			 "electric_quadrupole_moment_norm": 19.091867371, 
			 "total_energy": -957.152781162, 
			 "HOMO_LUMO_gap": 0.15455, 
			 "cosmo_polarized_energy": -14.51, 
			 "cosmo_cavitation_energy": 39.52, 
			 "cosmo_dispersion_energy": -28.02, 
			 "cosmo_repulsion_energy": 2.13, 
			 "cosmo_total_nonelectrostatic_energy": 13.63, 
			 "SMD_solvation_energy": 8.0 
		},
		"coords": [
			{
				"x": -0.4881447351,
				"y": -3.3014322541,
				"z": -2.6490773402,
				"element": "C" 
			},
			{
				"x": -0.3557349249,
				"y": -3.4744359541,
				"z": -1.1430096174,
				"element": "C" 
			},
			{
				"x": -0.1440800162,
				"y": -2.208992747,
				"z": -0.4732606183,
				"element": "O" 
			},
			{
				"x": -1.2532808959,
				"y": -1.4865010525,
				"z": -0.1887386211,
				"element": "C" 
			},
			{
				"x": -2.3779188635,
				"y": -1.8515556385,
				"z": -0.4875123924,
				"element": "O" 
			},
			{
				"x": -0.983801186,
				"y": -0.2419094204,
				"z": 0.5474510811,
				"element": "C" 
			},
			{
				"x": 0.2031237996,
				"y": 0.3473774701,
				"z": 0.951797891,
				"element": "C" 
			},
			{
				"x": -0.0517286898,
				"y": 1.4453789873,
				"z": 1.7339579114,
				"element": "O" 
			},
			{
				"x": -1.4148389826,
				"y": 1.58034208,
				"z": 1.8316766717,
				"element": "C" 
			},
			{
				"x": -2.05370456,
				"y": 0.5642382569,
				"z": 1.108237547,
				"element": "C" 
			},
			{
				"x": -3.4524254431,
				"y": 0.5129381808,
				"z": 1.0778479184,
				"element": "C" 
			},
			{
				"x": -4.1531637301,
				"y": 1.4970567123,
				"z": 1.7762373466,
				"element": "C" 
			},
			{
				"x": -5.5207285587,
				"y": 1.4359304471,
				"z": 1.7346669351,
				"element": "O" 
			},
			{
				"x": -3.4845403957,
				"y": 2.5115865702,
				"z": 2.4935778579,
				"element": "C" 
			},
			{
				"x": -2.0922440034,
				"y": 2.5670247268,
				"z": 2.5317238234,
				"element": "C" 
			},
			{
				"x": 1.6350591741,
				"y": 0.0993390685,
				"z": 0.7499785053,
				"element": "C" 
			},
			{
				"x": 2.1486779681,
				"y": -0.3715758574,
				"z": -0.4696544609,
				"element": "C" 
			},
			{
				"x": 3.5202709179,
				"y": -0.5506717272,
				"z": -0.6329447793,
				"element": "C" 
			},
			{
				"x": 4.4006472302,
				"y": -0.2611402976,
				"z": 0.4117754553,
				"element": "C" 
			},
			{
				"x": 3.9006430089,
				"y": 0.2197014556,
				"z": 1.62379067,
				"element": "C" 
			},
			{
				"x": 2.5309226278,
				"y": 0.4055183736,
				"z": 1.7914158002,
				"element": "C" 
			},
			{
				"x": 0.391400793,
				"y": -2.8012819836,
				"z": -3.0660745404,
				"element": "H" 
			},
			{
				"x": -0.5808009587,
				"y": -4.2823511677,
				"z": -3.1274368055,
				"element": "H" 
			},
			{
				"x": -1.3784749982,
				"y": -2.7165929071,
				"z": -2.8908068465,
				"element": "H" 
			},
			{
				"x": -1.2462964013,
				"y": -3.9488693154,
				"z": -0.7243901598,
				"element": "H" 
			},
			{
				"x": 0.5265872816,
				"y": -4.0643268405,
				"z": -0.8836072934,
				"element": "H" 
			},
			{
				"x": -3.9777038233,
				"y": -0.259576883,
				"z": 0.5324149624,
				"element": "H" 
			},
			{
				"x": -5.8864244671,
				"y": 2.165464154,
				"z": 2.2504675689,
				"element": "H" 
			},
			{
				"x": -4.0655413249,
				"y": 3.2620442072,
				"z": 3.0248839461,
				"element": "H" 
			},
			{
				"x": -1.565878167,
				"y": 3.3402386994,
				"z": 3.0800865904,
				"element": "H" 
			},
			{
				"x": 1.4719601742,
				"y": -0.5880607652,
				"z": -1.2856783412,
				"element": "H" 
			},
			{
				"x": 3.9036410625,
				"y": -0.9094536694,
				"z": -1.583755998,
				"element": "H" 
			},
			{
				"x": 5.4693778714,
				"y": -0.4036018444,
				"z": 0.2802285791,
				"element": "H" 
			},
			{
				"x": 4.5782159351,
				"y": 0.4512914717,
				"z": 2.4403946138,
				"element": "H" 
			},
			{
				"x": 2.1428272813,
				"y": 0.7841594639,
				"z": 2.7306361392,
				"element": "H" 
			}
		],
		 "valence_orbital": [ 
			{
				"type": "occ",
				"energy": -0.2698,
				"method": "rhf"
			},
			{
				"type": "occ",
				"energy": -0.26507,
				"method": "rhf"
			},
			{
				"type": "occ",
				"energy": -0.25561,
				"method": "rhf"
			},
			{
				"type": "occ",
				"energy": -0.21824,
				"method": "rhf"
			},
			{
				"type": "occ",
				"energy": -0.2107,
				"method": "rhf"
			},
			{
				"type": "unocc",
				"energy": -0.05615,
				"method": "rhf"
			},
			{
				"type": "unocc",
				"energy": -0.00522,
				"method": "rhf"
			},
			{
				"type": "unocc",
				"energy": -0.00122,
				"method": "rhf"
			},
			{
				"type": "unocc",
				"energy": 0.01103,
				"method": "rhf"
			},
			{
				"type": "unocc",
				"energy": 0.02759,
				"method": "rhf"
			}
		],
		"cosmo_sigma_profile": { 
			"-0.025": 0.0,
			"-0.024": 0.0,
			"-0.023": 0.0,
			"-0.022": 0.0,
			"-0.021": 0.0,
			"-0.02": 0.0,
			"-0.019": 0.0,
			"-0.018": 0.137532827692,
			"-0.017": 1.12278564155,
			"-0.016": 1.29187490401,
			"-0.015": 1.13155069007,
			"-0.014": 1.08696958986,
			"-0.013": 0.835222269103,
			"-0.012": 0.959747651212,
			"-0.011": 1.16967596804,
			"-0.01": 0.946212490541,
			"-0.009": 0.936211831231,
			"-0.008": 2.05644650631,
			"-0.007": 4.40426204927,
			"-0.006": 12.4328783982,
			"-0.005": 17.139808735,
			"-0.004": 26.4249885952,
			"-0.003": 25.8190093161,
			"-0.002": 22.2732561209,
			"-0.001": 26.1311416796,
			"0.0": 26.3335033437,
			"0.001": 21.3857499942,
			"0.002": 22.5407748848,
			"0.003": 25.1874773261,
			"0.004": 30.5571395932,
			"0.005": 14.3889358295,
			"0.006": 6.0337438564,
			"0.007": 5.84227019836,
			"0.008": 4.11246320347,
			"0.009": 2.63279384805,
			"0.01": 3.72884995776,
			"0.011": 4.22111827887,
			"0.012": 2.80610736204,
			"0.013": 0.113027860711,
			"0.014": 0.0,
			"0.015": 0.0,
			"0.016": 0.0,
			"0.017": 0.0,
			"0.018": 0.0,
			"0.019": 0.0,
			"0.02": 0.0,
			"0.021": 0.0,
			"0.022": 0.0,
			"0.023": 0.0,
			"0.024": 0.0,
			"0.025": 0.0
		}
	}
}
