{
	 "smiles": "NS(=O)(=O)C1=CC2=C(CCC2)C=C1", 
	 "Tm": 404.15, 
	 "num_atms": 24, 
	 "gaussian": { 
		 "optdone": 1, 
		 "sigma_profile": "yes", 
		 "theory": "DFT", 
		 "functional": "B3LYP", 
		 "basiset": "6-31G**", 
		 "properties": { 
			 "R2extent": 3398.477, 
			 "electric_dipole_moment_norm": 6.72732539275, 
			 "electric_quadrupole_moment_norm": 24.2884048293, 
			 "total_energy": -952.915959674, 
			 "HOMO_LUMO_gap": 0.21726, 
			 "cosmo_polarized_energy": -17.9, 
			 "cosmo_cavitation_energy": 28.22, 
			 "cosmo_dispersion_energy": -21.51, 
			 "cosmo_repulsion_energy": 1.67, 
			 "cosmo_total_nonelectrostatic_energy": 8.38, 
			 "SMD_solvation_energy": 3.78 
		},
		"coords": [
			{
				"x": 1.7473141703,
				"y": -2.0997982089,
				"z": 2.9280139906,
				"element": "N" 
			},
			{
				"x": 0.6548095915,
				"y": -2.6668070865,
				"z": 1.7768957823,
				"element": "S" 
			},
			{
				"x": 1.4599825849,
				"y": -3.4128729539,
				"z": 0.8107223281,
				"element": "O" 
			},
			{
				"x": -0.4358807152,
				"y": -3.2716389124,
				"z": 2.5401461119,
				"element": "O" 
			},
			{
				"x": -0.0053689724,
				"y": -1.2228437037,
				"z": 0.9329519678,
				"element": "C" 
			},
			{
				"x": 0.6456050036,
				"y": -0.7470029398,
				"z": -0.2111615388,
				"element": "C" 
			},
			{
				"x": 0.1298147211,
				"y": 0.3817474972,
				"z": -0.8412130447,
				"element": "C" 
			},
			{
				"x": -1.0135971659,
				"y": 1.0212612137,
				"z": -0.3353258272,
				"element": "C" 
			},
			{
				"x": -1.365483962,
				"y": 2.2217081361,
				"z": -1.1877113788,
				"element": "C" 
			},
			{
				"x": -0.5760870543,
				"y": 1.9682160052,
				"z": -2.4974374857,
				"element": "C" 
			},
			{
				"x": 0.6354035258,
				"y": 1.0974893843,
				"z": -2.0767075418,
				"element": "C" 
			},
			{
				"x": -1.6564490107,
				"y": 0.5326504877,
				"z": 0.8014150614,
				"element": "C" 
			},
			{
				"x": -1.1510262595,
				"y": -0.6022174052,
				"z": 1.4402015797,
				"element": "C" 
			},
			{
				"x": 1.2990922303,
				"y": -1.5412107966,
				"z": 3.6476857423,
				"element": "H" 
			},
			{
				"x": 2.5464893641,
				"y": -1.6341451216,
				"z": 2.5093284642,
				"element": "H" 
			},
			{
				"x": 1.5098196415,
				"y": -1.2761975209,
				"z": -0.6004866873,
				"element": "H" 
			},
			{
				"x": -2.4422410017,
				"y": 2.3323096919,
				"z": -1.3519871258,
				"element": "H" 
			},
			{
				"x": -1.0244716009,
				"y": 3.1435771484,
				"z": -0.6951818404,
				"element": "H" 
			},
			{
				"x": -1.2041875057,
				"y": 1.3999647737,
				"z": -3.1921326133,
				"element": "H" 
			},
			{
				"x": -0.2813484008,
				"y": 2.8920888796,
				"z": -3.0021069948,
				"element": "H" 
			},
			{
				"x": 1.5005905911,
				"y": 1.7255774769,
				"z": -1.8211779764,
				"element": "H" 
			},
			{
				"x": 0.9638054295,
				"y": 0.4135364543,
				"z": -2.8657374808,
				"element": "H" 
			},
			{
				"x": -2.553074106,
				"y": 1.0138235425,
				"z": 1.1827375849,
				"element": "H" 
			},
			{
				"x": -1.6510110987,
				"y": -1.0261160419,
				"z": 2.3045689226,
				"element": "H" 
			}
		],
		 "valence_orbital": [ 
			{
				"type": "occ",
				"energy": -0.30984,
				"method": "rhf"
			},
			{
				"type": "occ",
				"energy": -0.299,
				"method": "rhf"
			},
			{
				"type": "occ",
				"energy": -0.29725,
				"method": "rhf"
			},
			{
				"type": "occ",
				"energy": -0.26538,
				"method": "rhf"
			},
			{
				"type": "occ",
				"energy": -0.25219,
				"method": "rhf"
			},
			{
				"type": "unocc",
				"energy": -0.03493,
				"method": "rhf"
			},
			{
				"type": "unocc",
				"energy": -0.02089,
				"method": "rhf"
			},
			{
				"type": "unocc",
				"energy": 0.0552,
				"method": "rhf"
			},
			{
				"type": "unocc",
				"energy": 0.08228,
				"method": "rhf"
			},
			{
				"type": "unocc",
				"energy": 0.08787,
				"method": "rhf"
			}
		],
		"cosmo_sigma_profile": { 
			"-0.025": 0.0,
			"-0.024": 0.0,
			"-0.023": 0.0,
			"-0.022": 0.0,
			"-0.021": 0.0,
			"-0.02": 0.0,
			"-0.019": 0.0,
			"-0.018": 0.0,
			"-0.017": 0.0,
			"-0.016": 0.00685430606543,
			"-0.015": 1.95401926859,
			"-0.014": 2.58366429554,
			"-0.013": 2.50756273157,
			"-0.012": 2.43544054762,
			"-0.011": 3.13384090063,
			"-0.01": 2.18866021914,
			"-0.009": 1.81350368111,
			"-0.008": 1.4712594667,
			"-0.007": 3.49206100035,
			"-0.006": 6.38112311925,
			"-0.005": 7.92569232294,
			"-0.004": 16.640391103,
			"-0.003": 21.4238050841,
			"-0.002": 25.9299503741,
			"-0.001": 21.136048286,
			"0.0": 16.3411201948,
			"0.001": 10.4804936691,
			"0.002": 9.56295636312,
			"0.003": 12.4807558346,
			"0.004": 9.23556096498,
			"0.005": 2.71758665715,
			"0.006": 3.99068671204,
			"0.007": 3.3439004848,
			"0.008": 4.59998602464,
			"0.009": 4.82015733122,
			"0.01": 6.51400009092,
			"0.011": 10.3192133314,
			"0.012": 7.31026090602,
			"0.013": 0.458390288502,
			"0.014": 0.0,
			"0.015": 0.0,
			"0.016": 0.0,
			"0.017": 0.0,
			"0.018": 0.0,
			"0.019": 0.0,
			"0.02": 0.0,
			"0.021": 0.0,
			"0.022": 0.0,
			"0.023": 0.0,
			"0.024": 0.0,
			"0.025": 0.0
		}
	}
}
