{
	 "smiles": "ClC1=CC(CC#N)=CC=C1", 
	 "Tm": 284.95, 
	 "num_atms": 16, 
	 "gaussian": { 
		 "optdone": 1, 
		 "sigma_profile": "yes", 
		 "theory": "DFT", 
		 "functional": "B3LYP", 
		 "basiset": "6-31G**", 
		 "properties": { 
			 "R2extent": 2387.1538, 
			 "electric_dipole_moment_norm": 1.89837668549, 
			 "electric_quadrupole_moment_norm": 24.8574231444, 
			 "total_energy": -823.394502873, 
			 "HOMO_LUMO_gap": 0.2271, 
			 "cosmo_polarized_energy": -10.0, 
			 "cosmo_cavitation_energy": 23.0, 
			 "cosmo_dispersion_energy": -16.54, 
			 "cosmo_repulsion_energy": 1.34, 
			 "cosmo_total_nonelectrostatic_energy": 7.8, 
			 "SMD_solvation_energy": 4.94 
		},
		"coords": [
			{
				"x": -3.057224488,
				"y": -1.142734846,
				"z": 0.0014623432,
				"element": "Cl" 
			},
			{
				"x": -1.3680147596,
				"y": -0.6792208271,
				"z": 0.1458365683,
				"element": "C" 
			},
			{
				"x": -0.4002629353,
				"y": -1.6725806322,
				"z": 0.2656310722,
				"element": "C" 
			},
			{
				"x": 0.9485417875,
				"y": -1.3136016151,
				"z": 0.3814932184,
				"element": "C" 
			},
			{
				"x": 1.9757487981,
				"y": -2.4360862641,
				"z": 0.5011700049,
				"element": "C" 
			},
			{
				"x": 3.3550486285,
				"y": -1.9844407953,
				"z": 0.6950467282,
				"element": "C" 
			},
			{
				"x": 4.4473300919,
				"y": -1.6234749268,
				"z": 0.8467141345,
				"element": "N" 
			},
			{
				"x": 1.3049056847,
				"y": 0.0367420534,
				"z": 0.3763922368,
				"element": "C" 
			},
			{
				"x": 0.3198141822,
				"y": 1.0197338536,
				"z": 0.2558918869,
				"element": "C" 
			},
			{
				"x": -1.0248331267,
				"y": 0.6732674328,
				"z": 0.1392729423,
				"element": "C" 
			},
			{
				"x": -0.6987179304,
				"y": -2.7163443165,
				"z": 0.2684373411,
				"element": "H" 
			},
			{
				"x": 1.9511447781,
				"y": -3.0635510337,
				"z": -0.3991353011,
				"element": "H" 
			},
			{
				"x": 1.715242865,
				"y": -3.0943344138,
				"z": 1.3394480114,
				"element": "H" 
			},
			{
				"x": 2.3479601539,
				"y": 0.3217697601,
				"z": 0.468030188,
				"element": "H" 
			},
			{
				"x": 0.6037358997,
				"y": 2.0677064121,
				"z": 0.2534202917,
				"element": "H" 
			},
			{
				"x": -1.7947196296,
				"y": 1.4307501587,
				"z": 0.0458883332,
				"element": "H" 
			}
		],
		 "valence_orbital": [ 
			{
				"type": "occ",
				"energy": -0.3366,
				"method": "rhf"
			},
			{
				"type": "occ",
				"energy": -0.3331,
				"method": "rhf"
			},
			{
				"type": "occ",
				"energy": -0.32063,
				"method": "rhf"
			},
			{
				"type": "occ",
				"energy": -0.27096,
				"method": "rhf"
			},
			{
				"type": "occ",
				"energy": -0.25774,
				"method": "rhf"
			},
			{
				"type": "unocc",
				"energy": -0.03064,
				"method": "rhf"
			},
			{
				"type": "unocc",
				"energy": -0.02371,
				"method": "rhf"
			},
			{
				"type": "unocc",
				"energy": 0.0122,
				"method": "rhf"
			},
			{
				"type": "unocc",
				"energy": 0.03369,
				"method": "rhf"
			},
			{
				"type": "unocc",
				"energy": 0.03414,
				"method": "rhf"
			}
		],
		"cosmo_sigma_profile": { 
			"-0.025": 0.0,
			"-0.024": 0.0,
			"-0.023": 0.0,
			"-0.022": 0.0,
			"-0.021": 0.0,
			"-0.02": 0.0,
			"-0.019": 0.0,
			"-0.018": 0.0,
			"-0.017": 0.0,
			"-0.016": 0.0,
			"-0.015": 0.0,
			"-0.014": 0.0,
			"-0.013": 0.0,
			"-0.012": 0.0,
			"-0.011": 0.0,
			"-0.01": 0.477446781759,
			"-0.009": 5.82642371614,
			"-0.008": 8.94935285449,
			"-0.007": 9.56458805678,
			"-0.006": 11.1443409509,
			"-0.005": 9.79491889962,
			"-0.004": 8.56673482115,
			"-0.003": 9.00064205653,
			"-0.002": 9.54217143817,
			"-0.001": 11.5152156264,
			"0.0": 10.3338832662,
			"0.001": 13.1324067545,
			"0.002": 16.1149715125,
			"0.003": 19.1933859636,
			"0.004": 16.0870710663,
			"0.005": 7.97325718148,
			"0.006": 2.22394250689,
			"0.007": 2.49422270087,
			"0.008": 3.07382198162,
			"0.009": 3.08487704288,
			"0.01": 2.90106158873,
			"0.011": 2.87751099273,
			"0.012": 2.37101408694,
			"0.013": 1.53129462037,
			"0.014": 0.0467298655428,
			"0.015": 0.0,
			"0.016": 0.0,
			"0.017": 0.0,
			"0.018": 0.0,
			"0.019": 0.0,
			"0.02": 0.0,
			"0.021": 0.0,
			"0.022": 0.0,
			"0.023": 0.0,
			"0.024": 0.0,
			"0.025": 0.0
		}
	}
}
