{
	 "smiles": "COC(=O)CC(=O)C(C)C", 
	 "Tm": 198.15, 
	 "num_atms": 22, 
	 "gaussian": { 
		 "optdone": 1, 
		 "sigma_profile": "yes", 
		 "theory": "DFT", 
		 "functional": "B3LYP", 
		 "basiset": "6-31G**", 
		 "properties": { 
			 "R2extent": 1960.5087, 
			 "electric_dipole_moment_norm": 1.64054440659, 
			 "electric_quadrupole_moment_norm": 10.8163772826, 
			 "total_energy": -499.657800706, 
			 "HOMO_LUMO_gap": 0.21594, 
			 "cosmo_polarized_energy": -9.35, 
			 "cosmo_cavitation_energy": 25.05, 
			 "cosmo_dispersion_energy": -17.57, 
			 "cosmo_repulsion_energy": 1.45, 
			 "cosmo_total_nonelectrostatic_energy": 8.93, 
			 "SMD_solvation_energy": 6.58 
		},
		"coords": [
			{
				"x": 3.499684043,
				"y": 1.644110788,
				"z": 1.0797523219,
				"element": "C" 
			},
			{
				"x": 2.7242900393,
				"y": 1.2130527386,
				"z": -0.0534887082,
				"element": "O" 
			},
			{
				"x": 2.2277623883,
				"y": -0.0353761068,
				"z": 0.0275169388,
				"element": "C" 
			},
			{
				"x": 2.4140270851,
				"y": -0.7730669632,
				"z": 0.9746116887,
				"element": "O" 
			},
			{
				"x": 1.4018534351,
				"y": -0.3755754493,
				"z": -1.2008710346,
				"element": "C" 
			},
			{
				"x": -0.1190246846,
				"y": -0.2732203919,
				"z": -0.9418834056,
				"element": "C" 
			},
			{
				"x": -0.7410439262,
				"y": 0.6445643105,
				"z": -1.4375892985,
				"element": "O" 
			},
			{
				"x": -0.8287599424,
				"y": -1.3130381999,
				"z": -0.0666462794,
				"element": "C" 
			},
			{
				"x": -0.1742404247,
				"y": -2.7009803391,
				"z": -0.0451646985,
				"element": "C" 
			},
			{
				"x": -1.0004542155,
				"y": -0.7420507643,
				"z": 1.3596081024,
				"element": "C" 
			},
			{
				"x": 2.889579986,
				"y": 1.6362650716,
				"z": 1.9862542743,
				"element": "H" 
			},
			{
				"x": 3.8234108693,
				"y": 2.6572468017,
				"z": 0.8436939476,
				"element": "H" 
			},
			{
				"x": 4.3607147394,
				"y": 0.9879060919,
				"z": 1.2272732392,
				"element": "H" 
			},
			{
				"x": 1.6587900993,
				"y": -1.3975861885,
				"z": -1.4916817258,
				"element": "H" 
			},
			{
				"x": 1.6329274955,
				"y": 0.3186238156,
				"z": -2.0081837698,
				"element": "H" 
			},
			{
				"x": -1.8288409801,
				"y": -1.3883835301,
				"z": -0.5108041885,
				"element": "H" 
			},
			{
				"x": -0.7942031268,
				"y": -3.392436605,
				"z": 0.5345964587,
				"element": "H" 
			},
			{
				"x": -0.0737150247,
				"y": -3.1197300295,
				"z": -1.0528698879,
				"element": "H" 
			},
			{
				"x": 0.8145319448,
				"y": -2.6649215965,
				"z": 0.4204999821,
				"element": "H" 
			},
			{
				"x": -0.035930932,
				"y": -0.6522317062,
				"z": 1.8668517039,
				"element": "H" 
			},
			{
				"x": -1.4798644377,
				"y": 0.2405157245,
				"z": 1.3289806601,
				"element": "H" 
			},
			{
				"x": -1.6319944304,
				"y": -1.412287472,
				"z": 1.9516436793,
				"element": "H" 
			}
		],
		 "valence_orbital": [ 
			{
				"type": "occ",
				"energy": -0.3412,
				"method": "rhf"
			},
			{
				"type": "occ",
				"energy": -0.3302,
				"method": "rhf"
			},
			{
				"type": "occ",
				"energy": -0.31161,
				"method": "rhf"
			},
			{
				"type": "occ",
				"energy": -0.28305,
				"method": "rhf"
			},
			{
				"type": "occ",
				"energy": -0.24719,
				"method": "rhf"
			},
			{
				"type": "unocc",
				"energy": -0.03125,
				"method": "rhf"
			},
			{
				"type": "unocc",
				"energy": 0.00856,
				"method": "rhf"
			},
			{
				"type": "unocc",
				"energy": 0.08659,
				"method": "rhf"
			},
			{
				"type": "unocc",
				"energy": 0.10768,
				"method": "rhf"
			},
			{
				"type": "unocc",
				"energy": 0.11707,
				"method": "rhf"
			}
		],
		"cosmo_sigma_profile": { 
			"-0.025": 0.0,
			"-0.024": 0.0,
			"-0.023": 0.0,
			"-0.022": 0.0,
			"-0.021": 0.0,
			"-0.02": 0.0,
			"-0.019": 0.0,
			"-0.018": 0.0,
			"-0.017": 0.0,
			"-0.016": 0.0,
			"-0.015": 0.0,
			"-0.014": 0.0,
			"-0.013": 0.0,
			"-0.012": 0.0,
			"-0.011": 0.0,
			"-0.01": 0.0,
			"-0.009": 0.0,
			"-0.008": 0.227502182743,
			"-0.007": 4.26376989798,
			"-0.006": 11.0515467568,
			"-0.005": 13.1356561524,
			"-0.004": 21.9999363166,
			"-0.003": 25.8757503375,
			"-0.002": 17.4752635481,
			"-0.001": 16.8897433275,
			"0.0": 18.3870474007,
			"0.001": 13.9530070009,
			"0.002": 6.5149093083,
			"0.003": 5.14994767272,
			"0.004": 4.88861311883,
			"0.005": 4.19831457514,
			"0.006": 3.60084446862,
			"0.007": 4.36652771404,
			"0.008": 4.47014034221,
			"0.009": 3.10119747796,
			"0.01": 4.27519948261,
			"0.011": 6.86556487948,
			"0.012": 4.7258185818,
			"0.013": 0.499652700086,
			"0.014": 0.0,
			"0.015": 0.0,
			"0.016": 0.0,
			"0.017": 0.0,
			"0.018": 0.0,
			"0.019": 0.0,
			"0.02": 0.0,
			"0.021": 0.0,
			"0.022": 0.0,
			"0.023": 0.0,
			"0.024": 0.0,
			"0.025": 0.0
		}
	}
}
