{
	 "smiles": "CCOC1=CC=C(C=C1)C1=NOC(N)=C1", 
	 "Tm": 400.15, 
	 "num_atms": 27, 
	 "gaussian": { 
		 "optdone": 1, 
		 "sigma_profile": "yes", 
		 "theory": "DFT", 
		 "functional": "B3LYP", 
		 "basiset": "6-31G**", 
		 "properties": { 
			 "R2extent": 5667.6316, 
			 "electric_dipole_moment_norm": 4.39053911154, 
			 "electric_quadrupole_moment_norm": 21.6472160981, 
			 "total_energy": -686.304692239, 
			 "HOMO_LUMO_gap": 0.18837, 
			 "cosmo_polarized_energy": -16.5, 
			 "cosmo_cavitation_energy": 31.44, 
			 "cosmo_dispersion_energy": -23.45, 
			 "cosmo_repulsion_energy": 1.85, 
			 "cosmo_total_nonelectrostatic_energy": 9.84, 
			 "SMD_solvation_energy": 5.81 
		},
		"coords": [
			{
				"x": -4.1127709529,
				"y": 2.5410539489,
				"z": 3.4534681539,
				"element": "C" 
			},
			{
				"x": -3.3504233993,
				"y": 1.7635210867,
				"z": 2.394768224,
				"element": "C" 
			},
			{
				"x": -2.1063488584,
				"y": 2.4300732369,
				"z": 2.1840594646,
				"element": "O" 
			},
			{
				"x": -1.2338830375,
				"y": 1.9201622088,
				"z": 1.2701597414,
				"element": "C" 
			},
			{
				"x": -1.4602321271,
				"y": 0.770765293,
				"z": 0.5042162331,
				"element": "C" 
			},
			{
				"x": -0.4880058453,
				"y": 0.34405827,
				"z": -0.4031287432,
				"element": "C" 
			},
			{
				"x": 0.7145371013,
				"y": 1.0385890569,
				"z": -0.5679638351,
				"element": "C" 
			},
			{
				"x": 0.9258805154,
				"y": 2.1935510881,
				"z": 0.2108414852,
				"element": "C" 
			},
			{
				"x": -0.0298128385,
				"y": 2.6279686299,
				"z": 1.1136913532,
				"element": "C" 
			},
			{
				"x": 1.7359345893,
				"y": 0.5843080398,
				"z": -1.5262650684,
				"element": "C" 
			},
			{
				"x": 2.8403560169,
				"y": 1.2899248088,
				"z": -1.6957766417,
				"element": "N" 
			},
			{
				"x": 3.5887685036,
				"y": 0.5803618676,
				"z": -2.6652507363,
				"element": "O" 
			},
			{
				"x": 2.8990639926,
				"y": -0.5126092381,
				"z": -3.0332965178,
				"element": "C" 
			},
			{
				"x": 3.4714391215,
				"y": -1.2827974419,
				"z": -4.0188424048,
				"element": "N" 
			},
			{
				"x": 1.7138242385,
				"y": -0.5805035336,
				"z": -2.3528309118,
				"element": "C" 
			},
			{
				"x": -3.5467923766,
				"y": 2.5752602722,
				"z": 4.3885266876,
				"element": "H" 
			},
			{
				"x": -4.2928808356,
				"y": 3.5675920165,
				"z": 3.1224183236,
				"element": "H" 
			},
			{
				"x": -5.0781914408,
				"y": 2.0641076926,
				"z": 3.6485331013,
				"element": "H" 
			},
			{
				"x": -3.9173425412,
				"y": 1.7236307014,
				"z": 1.4537726632,
				"element": "H" 
			},
			{
				"x": -3.1700179729,
				"y": 0.7296221086,
				"z": 2.7219213171,
				"element": "H" 
			},
			{
				"x": -2.3790752542,
				"y": 0.205329001,
				"z": 0.6018248254,
				"element": "H" 
			},
			{
				"x": -0.68425616,
				"y": -0.5477954315,
				"z": -0.9903962915,
				"element": "H" 
			},
			{
				"x": 1.8537877936,
				"y": 2.7428016341,
				"z": 0.0937017991,
				"element": "H" 
			},
			{
				"x": 0.1282311618,
				"y": 3.5166484391,
				"z": 1.7160426262,
				"element": "H" 
			},
			{
				"x": 3.1838863122,
				"y": -2.2507476651,
				"z": -4.025202646,
				"element": "H" 
			},
			{
				"x": 4.4718016779,
				"y": -1.1634329114,
				"z": -4.1092509154,
				"element": "H" 
			},
			{
				"x": 0.951222616,
				"y": -1.3378431794,
				"z": -2.4347412869,
				"element": "H" 
			}
		],
		 "valence_orbital": [ 
			{
				"type": "occ",
				"energy": -0.28741,
				"method": "rhf"
			},
			{
				"type": "occ",
				"energy": -0.2827,
				"method": "rhf"
			},
			{
				"type": "occ",
				"energy": -0.24926,
				"method": "rhf"
			},
			{
				"type": "occ",
				"energy": -0.21686,
				"method": "rhf"
			},
			{
				"type": "occ",
				"energy": -0.20568,
				"method": "rhf"
			},
			{
				"type": "unocc",
				"energy": -0.01731,
				"method": "rhf"
			},
			{
				"type": "unocc",
				"energy": 0.00113,
				"method": "rhf"
			},
			{
				"type": "unocc",
				"energy": 0.04053,
				"method": "rhf"
			},
			{
				"type": "unocc",
				"energy": 0.06603,
				"method": "rhf"
			},
			{
				"type": "unocc",
				"energy": 0.09377,
				"method": "rhf"
			}
		],
		"cosmo_sigma_profile": { 
			"-0.025": 0.0,
			"-0.024": 0.0,
			"-0.023": 0.0,
			"-0.022": 0.0,
			"-0.021": 0.0,
			"-0.02": 0.0,
			"-0.019": 0.0,
			"-0.018": 0.0,
			"-0.017": 0.0,
			"-0.016": 0.0,
			"-0.015": 0.490110272388,
			"-0.014": 2.59370943087,
			"-0.013": 2.70915434786,
			"-0.012": 2.65097866316,
			"-0.011": 2.83583525414,
			"-0.01": 2.0263391041,
			"-0.009": 1.7369302514,
			"-0.008": 4.42145562985,
			"-0.007": 6.22469282508,
			"-0.006": 8.60727198444,
			"-0.005": 14.6165197234,
			"-0.004": 19.6893360478,
			"-0.003": 19.5902970907,
			"-0.002": 16.1645484189,
			"-0.001": 14.6598609564,
			"0.0": 13.3688186356,
			"0.001": 12.8849249187,
			"0.002": 13.977254411,
			"0.003": 21.4201460929,
			"0.004": 21.1853985721,
			"0.005": 14.0958023723,
			"0.006": 6.26630515329,
			"0.007": 5.17792012148,
			"0.008": 5.55037789339,
			"0.009": 5.98254005137,
			"0.01": 3.37133649082,
			"0.011": 2.455305979,
			"0.012": 2.23254041845,
			"0.013": 1.43522710201,
			"0.014": 1.2349841573,
			"0.015": 0.364568819792,
			"0.016": 0.0,
			"0.017": 0.0,
			"0.018": 0.0,
			"0.019": 0.0,
			"0.02": 0.0,
			"0.021": 0.0,
			"0.022": 0.0,
			"0.023": 0.0,
			"0.024": 0.0,
			"0.025": 0.0
		}
	}
}
