{
	 "smiles": "CCOC(=O)C(=CC1=CC=C(O)C=C1)C#N", 
	 "Tm": 445.15, 
	 "num_atms": 27, 
	 "gaussian": { 
		 "optdone": 1, 
		 "sigma_profile": "yes", 
		 "theory": "DFT", 
		 "functional": "B3LYP", 
		 "basiset": "6-31G**", 
		 "properties": { 
			 "R2extent": 5578.7229, 
			 "electric_dipole_moment_norm": 2.51758684657, 
			 "electric_quadrupole_moment_norm": 23.6079504265, 
			 "total_energy": -744.314976228, 
			 "HOMO_LUMO_gap": 0.14723, 
			 "cosmo_polarized_energy": -16.7, 
			 "cosmo_cavitation_energy": 33.14, 
			 "cosmo_dispersion_energy": -23.33, 
			 "cosmo_repulsion_energy": 1.83, 
			 "cosmo_total_nonelectrostatic_energy": 11.63, 
			 "SMD_solvation_energy": 8.37 
		},
		"coords": [
			{
				"x": -5.109670003,
				"y": 1.112812886,
				"z": 1.6635084748,
				"element": "C" 
			},
			{
				"x": -3.9836290769,
				"y": 2.0019312688,
				"z": 2.1683743657,
				"element": "C" 
			},
			{
				"x": -2.7885761543,
				"y": 1.842884584,
				"z": 1.3645565036,
				"element": "O" 
			},
			{
				"x": -1.9670759052,
				"y": 0.8300645415,
				"z": 1.6950685066,
				"element": "C" 
			},
			{
				"x": -2.158445815,
				"y": 0.0579137938,
				"z": 2.6155748951,
				"element": "O" 
			},
			{
				"x": -0.778800147,
				"y": 0.7745951121,
				"z": 0.7886243796,
				"element": "C" 
			},
			{
				"x": 0.1366894283,
				"y": -0.209752293,
				"z": 1.0220374984,
				"element": "C" 
			},
			{
				"x": 1.3785852309,
				"y": -0.5608396616,
				"z": 0.3663664955,
				"element": "C" 
			},
			{
				"x": 2.0915716855,
				"y": -1.6686396665,
				"z": 0.8827154427,
				"element": "C" 
			},
			{
				"x": 3.2897450975,
				"y": -2.0898337554,
				"z": 0.3311914481,
				"element": "C" 
			},
			{
				"x": 3.8181557275,
				"y": -1.4035694876,
				"z": -0.7711685615,
				"element": "C" 
			},
			{
				"x": 4.9940217598,
				"y": -1.8497561342,
				"z": -1.2800253297,
				"element": "O" 
			},
			{
				"x": 3.1317610519,
				"y": -0.3012210131,
				"z": -1.3034993086,
				"element": "C" 
			},
			{
				"x": 1.9322026,
				"y": 0.1139430203,
				"z": -0.7449749471,
				"element": "C" 
			},
			{
				"x": -0.6802654958,
				"y": 1.7448354655,
				"z": -0.2534597128,
				"element": "C" 
			},
			{
				"x": -0.5851710041,
				"y": 2.529222167,
				"z": -1.1095488862,
				"element": "N" 
			},
			{
				"x": -4.8508702225,
				"y": 0.0580629159,
				"z": 1.7841598787,
				"element": "H" 
			},
			{
				"x": -6.0215104763,
				"y": 1.3102881547,
				"z": 2.2368852875,
				"element": "H" 
			},
			{
				"x": -5.3174221806,
				"y": 1.3100899333,
				"z": 0.6079378127,
				"element": "H" 
			},
			{
				"x": -3.7381055813,
				"y": 1.7791449848,
				"z": 3.2093590656,
				"element": "H" 
			},
			{
				"x": -4.2321121368,
				"y": 3.060866863,
				"z": 2.0699210628,
				"element": "H" 
			},
			{
				"x": -0.1343643901,
				"y": -0.8415300989,
				"z": 1.8662044497,
				"element": "H" 
			},
			{
				"x": 1.6848373158,
				"y": -2.2026709849,
				"z": 1.7371220279,
				"element": "H" 
			},
			{
				"x": 3.8316925452,
				"y": -2.9396889238,
				"z": 0.7314110411,
				"element": "H" 
			},
			{
				"x": 5.2526750004,
				"y": -1.299126804,
				"z": -2.0313388768,
				"element": "H" 
			},
			{
				"x": 3.54228344,
				"y": 0.2309448494,
				"z": -2.1588040778,
				"element": "H" 
			},
			{
				"x": 1.4238977062,
				"y": 0.967328283,
				"z": -1.1755989356,
				"element": "H" 
			}
		],
		 "valence_orbital": [ 
			{
				"type": "occ",
				"energy": -0.30364,
				"method": "rhf"
			},
			{
				"type": "occ",
				"energy": -0.29161,
				"method": "rhf"
			},
			{
				"type": "occ",
				"energy": -0.27852,
				"method": "rhf"
			},
			{
				"type": "occ",
				"energy": -0.27463,
				"method": "rhf"
			},
			{
				"type": "occ",
				"energy": -0.23059,
				"method": "rhf"
			},
			{
				"type": "unocc",
				"energy": -0.08336,
				"method": "rhf"
			},
			{
				"type": "unocc",
				"energy": -0.02145,
				"method": "rhf"
			},
			{
				"type": "unocc",
				"energy": 0.0173,
				"method": "rhf"
			},
			{
				"type": "unocc",
				"energy": 0.02881,
				"method": "rhf"
			},
			{
				"type": "unocc",
				"energy": 0.03289,
				"method": "rhf"
			}
		],
		"cosmo_sigma_profile": { 
			"-0.025": 0.0,
			"-0.024": 0.0,
			"-0.023": 0.0,
			"-0.022": 0.0,
			"-0.021": 0.0,
			"-0.02": 0.0,
			"-0.019": 0.23079649054,
			"-0.018": 1.26900665818,
			"-0.017": 1.47018738976,
			"-0.016": 0.939368502112,
			"-0.015": 1.23278040972,
			"-0.014": 1.10229288045,
			"-0.013": 1.02200781956,
			"-0.012": 0.905592623543,
			"-0.011": 0.748064017488,
			"-0.01": 0.999689940633,
			"-0.009": 2.35035797098,
			"-0.008": 3.88937649865,
			"-0.007": 7.37010879115,
			"-0.006": 9.27646031806,
			"-0.005": 12.5002159813,
			"-0.004": 16.6557036489,
			"-0.003": 21.5609389449,
			"-0.002": 23.9343108214,
			"-0.001": 23.3984332143,
			"0.0": 23.9995508373,
			"0.001": 17.6010858297,
			"0.002": 19.6765155931,
			"0.003": 16.0695089055,
			"0.004": 6.76393178928,
			"0.005": 5.06365156859,
			"0.006": 7.16112012532,
			"0.007": 5.74891466124,
			"0.008": 6.86318389428,
			"0.009": 7.11820685926,
			"0.01": 6.32322644679,
			"0.011": 6.23481103008,
			"0.012": 4.39504373391,
			"0.013": 1.55677801301,
			"0.014": 0.0412239559341,
			"0.015": 0.0,
			"0.016": 0.0,
			"0.017": 0.0,
			"0.018": 0.0,
			"0.019": 0.0,
			"0.02": 0.0,
			"0.021": 0.0,
			"0.022": 0.0,
			"0.023": 0.0,
			"0.024": 0.0,
			"0.025": 0.0
		}
	}
}
