{
	 "smiles": "COC(=O)C1(CCCCC1)S(=O)(=O)C1=CC=CC=C1", 
	 "Tm": 387.15, 
	 "num_atms": 37, 
	 "gaussian": { 
		 "optdone": 1, 
		 "sigma_profile": "yes", 
		 "theory": "DFT", 
		 "functional": "B3LYP", 
		 "basiset": "6-31G**", 
		 "properties": { 
			 "R2extent": 5697.9505, 
			 "electric_dipole_moment_norm": 5.82163488034, 
			 "electric_quadrupole_moment_norm": 18.4137204399, 
			 "total_energy": -1243.36625211, 
			 "HOMO_LUMO_gap": 0.22351, 
			 "cosmo_polarized_energy": -16.2, 
			 "cosmo_cavitation_energy": 38.57, 
			 "cosmo_dispersion_energy": -26.79, 
			 "cosmo_repulsion_energy": 2.01, 
			 "cosmo_total_nonelectrostatic_energy": 13.79, 
			 "SMD_solvation_energy": 6.39 
		},
		"coords": [
			{
				"x": -2.3943440438,
				"y": 0.8155644048,
				"z": 1.8655166441,
				"element": "C" 
			},
			{
				"x": -1.4194166859,
				"y": 0.626987623,
				"z": 0.8240801498,
				"element": "O" 
			},
			{
				"x": -1.9229205668,
				"y": 0.4547764532,
				"z": -0.4162914495,
				"element": "C" 
			},
			{
				"x": -3.1084951441,
				"y": 0.4266954985,
				"z": -0.6557595882,
				"element": "O" 
			},
			{
				"x": -0.8073551755,
				"y": 0.2457060919,
				"z": -1.4459688225,
				"element": "C" 
			},
			{
				"x": 0.146780357,
				"y": -0.8983037059,
				"z": -0.9934059756,
				"element": "C" 
			},
			{
				"x": 0.7485458006,
				"y": -1.6488777499,
				"z": -2.1879205867,
				"element": "C" 
			},
			{
				"x": -0.3503209044,
				"y": -2.3422936436,
				"z": -3.0254212443,
				"element": "C" 
			},
			{
				"x": -1.6726822745,
				"y": -1.5386801575,
				"z": -3.0204838327,
				"element": "C" 
			},
			{
				"x": -1.4203979279,
				"y": -0.0342569509,
				"z": -2.8419233944,
				"element": "C" 
			},
			{
				"x": 0.1249762655,
				"y": 1.8791312709,
				"z": -1.6407309096,
				"element": "S" 
			},
			{
				"x": 1.0849302827,
				"y": 1.6733625956,
				"z": -2.7432199091,
				"element": "O" 
			},
			{
				"x": -0.9026681375,
				"y": 2.9326453719,
				"z": -1.7172832088,
				"element": "O" 
			},
			{
				"x": 1.1183755746,
				"y": 2.19991168,
				"z": -0.1670010153,
				"element": "C" 
			},
			{
				"x": 0.5905682546,
				"y": 3.0027057724,
				"z": 0.8458450448,
				"element": "C" 
			},
			{
				"x": 1.3879209902,
				"y": 3.3118804405,
				"z": 1.9472491347,
				"element": "C" 
			},
			{
				"x": 2.694422176,
				"y": 2.8223491962,
				"z": 2.0274257888,
				"element": "C" 
			},
			{
				"x": 3.2164935134,
				"y": 2.0350582125,
				"z": 0.9988994285,
				"element": "C" 
			},
			{
				"x": 2.4307620384,
				"y": 1.7251760136,
				"z": -0.1121214102,
				"element": "C" 
			},
			{
				"x": -1.8201419136,
				"y": 0.9824452021,
				"z": 2.7763942351,
				"element": "H" 
			},
			{
				"x": -3.0233945321,
				"y": -0.0724500678,
				"z": 1.9638060109,
				"element": "H" 
			},
			{
				"x": -3.0296270189,
				"y": 1.6760289919,
				"z": 1.6434425532,
				"element": "H" 
			},
			{
				"x": -0.4347497458,
				"y": -1.5988457928,
				"z": -0.3817385099,
				"element": "H" 
			},
			{
				"x": 0.9216819848,
				"y": -0.5095068418,
				"z": -0.3277071861,
				"element": "H" 
			},
			{
				"x": 1.3049394097,
				"y": -0.9378673171,
				"z": -2.8066338031,
				"element": "H" 
			},
			{
				"x": 1.4741379472,
				"y": -2.38597326,
				"z": -1.8267141872,
				"element": "H" 
			},
			{
				"x": -0.5365691422,
				"y": -3.3511811076,
				"z": -2.6384469514,
				"element": "H" 
			},
			{
				"x": 0.0090405882,
				"y": -2.4680182261,
				"z": -4.0529600235,
				"element": "H" 
			},
			{
				"x": -2.3312110214,
				"y": -1.8845982076,
				"z": -2.2153219959,
				"element": "H" 
			},
			{
				"x": -2.2234175327,
				"y": -1.7043123982,
				"z": -3.9522207491,
				"element": "H" 
			},
			{
				"x": -2.3453117106,
				"y": 0.5350880568,
				"z": -2.9398367474,
				"element": "H" 
			},
			{
				"x": -0.7268193116,
				"y": 0.3112375683,
				"z": -3.6137616815,
				"element": "H" 
			},
			{
				"x": -0.4162644121,
				"y": 3.3925369839,
				"z": 0.7514137811,
				"element": "H" 
			},
			{
				"x": 0.9931205234,
				"y": 3.942568308,
				"z": 2.7381677091,
				"element": "H" 
			},
			{
				"x": 3.3114277693,
				"y": 3.0669883094,
				"z": 2.8871504497,
				"element": "H" 
			},
			{
				"x": 4.2386669594,
				"y": 1.6729926267,
				"z": 1.0533818211,
				"element": "H" 
			},
			{
				"x": 2.8315167665,
				"y": 1.1508287547,
				"z": -0.9399995688,
				"element": "H" 
			}
		],
		 "valence_orbital": [ 
			{
				"type": "occ",
				"energy": -0.29787,
				"method": "rhf"
			},
			{
				"type": "occ",
				"energy": -0.2859,
				"method": "rhf"
			},
			{
				"type": "occ",
				"energy": -0.27619,
				"method": "rhf"
			},
			{
				"type": "occ",
				"energy": -0.27066,
				"method": "rhf"
			},
			{
				"type": "occ",
				"energy": -0.26713,
				"method": "rhf"
			},
			{
				"type": "unocc",
				"energy": -0.04362,
				"method": "rhf"
			},
			{
				"type": "unocc",
				"energy": -0.02225,
				"method": "rhf"
			},
			{
				"type": "unocc",
				"energy": -0.01208,
				"method": "rhf"
			},
			{
				"type": "unocc",
				"energy": 0.05354,
				"method": "rhf"
			},
			{
				"type": "unocc",
				"energy": 0.07207,
				"method": "rhf"
			}
		],
		"cosmo_sigma_profile": { 
			"-0.025": 0.0,
			"-0.024": 0.0,
			"-0.023": 0.0,
			"-0.022": 0.0,
			"-0.021": 0.0,
			"-0.02": 0.0,
			"-0.019": 0.0,
			"-0.018": 0.0,
			"-0.017": 0.0,
			"-0.016": 0.0,
			"-0.015": 0.0,
			"-0.014": 0.0,
			"-0.013": 0.0,
			"-0.012": 0.0,
			"-0.011": 0.0,
			"-0.01": 0.0,
			"-0.009": 0.0,
			"-0.008": 0.0681310675155,
			"-0.007": 8.92251356665,
			"-0.006": 18.6319710625,
			"-0.005": 20.8597519649,
			"-0.004": 24.2348773202,
			"-0.003": 30.5369817713,
			"-0.002": 36.063650615,
			"-0.001": 29.6448638665,
			"0.0": 23.5910593137,
			"0.001": 19.7514832268,
			"0.002": 16.3557130294,
			"0.003": 16.2572985805,
			"0.004": 7.45462780465,
			"0.005": 6.83329185365,
			"0.006": 5.80083311545,
			"0.007": 5.23067516449,
			"0.008": 4.16741403336,
			"0.009": 5.64995427588,
			"0.01": 8.20018355749,
			"0.011": 10.6228211563,
			"0.012": 4.53548186755,
			"0.013": 0.0257509582585,
			"0.014": 0.0,
			"0.015": 0.0,
			"0.016": 0.0,
			"0.017": 0.0,
			"0.018": 0.0,
			"0.019": 0.0,
			"0.02": 0.0,
			"0.021": 0.0,
			"0.022": 0.0,
			"0.023": 0.0,
			"0.024": 0.0,
			"0.025": 0.0
		}
	}
}
