{
	 "smiles": "CSC(S)=NC1=CC=C(Br)C=C1", 
	 "Tm": 407.15, 
	 "num_atms": 20, 
	 "gaussian": { 
		 "optdone": 1, 
		 "sigma_profile": "yes", 
		 "theory": "DFT", 
		 "functional": "B3LYP", 
		 "basiset": "6-31G**", 
		 "properties": { 
			 "R2extent": 5840.9642, 
			 "electric_dipole_moment_norm": 2.56549456051, 
			 "electric_quadrupole_moment_norm": 5.31641340661, 
			 "total_energy": -3732.18381052, 
			 "HOMO_LUMO_gap": 0.17327, 
			 "cosmo_polarized_energy": -7.96, 
			 "cosmo_cavitation_energy": 29.77, 
			 "cosmo_dispersion_energy": -22.49, 
			 "cosmo_repulsion_energy": 1.73, 
			 "cosmo_total_nonelectrostatic_energy": 9.01, 
			 "SMD_solvation_energy": 2.24 
		},
		"coords": [
			{
				"x": 2.0672093134,
				"y": -0.1154044186,
				"z": 0.6658126927,
				"element": "C" 
			},
			{
				"x": 1.1807642496,
				"y": -1.5339567766,
				"z": 1.4123316685,
				"element": "S" 
			},
			{
				"x": -0.409047329,
				"y": -0.8331214825,
				"z": 1.9194094358,
				"element": "C" 
			},
			{
				"x": -1.1172816349,
				"y": -1.6712249997,
				"z": 3.3338233798,
				"element": "S" 
			},
			{
				"x": -1.1025876918,
				"y": 0.1066113243,
				"z": 1.425876717,
				"element": "N" 
			},
			{
				"x": -0.9513149746,
				"y": 0.7262880752,
				"z": 0.1806221726,
				"element": "C" 
			},
			{
				"x": -0.8616008081,
				"y": -0.0071267515,
				"z": -1.0157401409,
				"element": "C" 
			},
			{
				"x": -0.8073518247,
				"y": 0.648072221,
				"z": -2.2451094556,
				"element": "C" 
			},
			{
				"x": -0.8367696586,
				"y": 2.0413366666,
				"z": -2.2840110339,
				"element": "C" 
			},
			{
				"x": -0.749472506,
				"y": 2.9407229906,
				"z": -3.9683820095,
				"element": "Br" 
			},
			{
				"x": -0.9409683758,
				"y": 2.7867544477,
				"z": -1.1092285907,
				"element": "C" 
			},
			{
				"x": -1.0143982074,
				"y": 2.1282924982,
				"z": 0.1149091077,
				"element": "C" 
			},
			{
				"x": 3.1224738606,
				"y": -0.3958431079,
				"z": 0.6914084997,
				"element": "H" 
			},
			{
				"x": 1.9220102451,
				"y": 0.7816187648,
				"z": 1.2686150292,
				"element": "H" 
			},
			{
				"x": 1.7537515212,
				"y": 0.0656916033,
				"z": -0.3614752155,
				"element": "H" 
			},
			{
				"x": 0.0203365735,
				"y": -2.2558874898,
				"z": 3.7593361892,
				"element": "H" 
			},
			{
				"x": -0.8499637727,
				"y": -1.0916425287,
				"z": -0.9798830927,
				"element": "H" 
			},
			{
				"x": -0.7446573984,
				"y": 0.078347929,
				"z": -3.1655225808,
				"element": "H" 
			},
			{
				"x": -0.9761943327,
				"y": 3.8694492395,
				"z": -1.152300435,
				"element": "H" 
			},
			{
				"x": -1.1184372489,
				"y": 2.6918217951,
				"z": 1.0364076624,
				"element": "H" 
			}
		],
		 "valence_orbital": [ 
			{
				"type": "occ",
				"energy": -0.28106,
				"method": "rhf"
			},
			{
				"type": "occ",
				"energy": -0.26816,
				"method": "rhf"
			},
			{
				"type": "occ",
				"energy": -0.26456,
				"method": "rhf"
			},
			{
				"type": "occ",
				"energy": -0.25554,
				"method": "rhf"
			},
			{
				"type": "occ",
				"energy": -0.22126,
				"method": "rhf"
			},
			{
				"type": "unocc",
				"energy": -0.04799,
				"method": "rhf"
			},
			{
				"type": "unocc",
				"energy": -0.01847,
				"method": "rhf"
			},
			{
				"type": "unocc",
				"energy": -0.00462,
				"method": "rhf"
			},
			{
				"type": "unocc",
				"energy": 0.00597,
				"method": "rhf"
			},
			{
				"type": "unocc",
				"energy": 0.00895,
				"method": "rhf"
			}
		],
		"cosmo_sigma_profile": { 
			"-0.025": 0.0,
			"-0.024": 0.0,
			"-0.023": 0.0,
			"-0.022": 0.0,
			"-0.021": 0.0,
			"-0.02": 0.0,
			"-0.019": 0.0,
			"-0.018": 0.0,
			"-0.017": 0.0,
			"-0.016": 0.0,
			"-0.015": 0.0,
			"-0.014": 0.0,
			"-0.013": 0.0,
			"-0.012": 0.0638032926986,
			"-0.011": 1.30836186829,
			"-0.01": 1.40554562087,
			"-0.009": 1.50745824673,
			"-0.008": 1.62272075074,
			"-0.007": 8.28909347495,
			"-0.006": 11.4759760445,
			"-0.005": 14.2224990847,
			"-0.004": 15.2682865461,
			"-0.003": 17.1909671986,
			"-0.002": 20.0117027027,
			"-0.001": 17.2049795214,
			"0.0": 17.2008452034,
			"0.001": 18.1367039932,
			"0.002": 20.9834457452,
			"0.003": 27.8214800209,
			"0.004": 20.9560698504,
			"0.005": 15.4879429409,
			"0.006": 7.33520027595,
			"0.007": 4.0908992008,
			"0.008": 1.5188296253,
			"0.009": 0.89692554454,
			"0.01": 0.799196218749,
			"0.011": 0.998281920454,
			"0.012": 0.278479426971,
			"0.013": 0.0,
			"0.014": 0.0,
			"0.015": 0.0,
			"0.016": 0.0,
			"0.017": 0.0,
			"0.018": 0.0,
			"0.019": 0.0,
			"0.02": 0.0,
			"0.021": 0.0,
			"0.022": 0.0,
			"0.023": 0.0,
			"0.024": 0.0,
			"0.025": 0.0
		}
	}
}
