{
	 "smiles": "SC1=NC2=C(C=CC=C2)N1CCC1=CC=CC=C1", 
	 "Tm": 451.15, 
	 "num_atms": 32, 
	 "gaussian": { 
		 "optdone": 1, 
		 "sigma_profile": "yes", 
		 "theory": "DFT", 
		 "functional": "B3LYP", 
		 "basiset": "6-31G**", 
		 "properties": { 
			 "R2extent": 5466.7207, 
			 "electric_dipole_moment_norm": 2.73745546265, 
			 "electric_quadrupole_moment_norm": 10.5649839044, 
			 "total_energy": -1087.73703376, 
			 "HOMO_LUMO_gap": 0.20017, 
			 "cosmo_polarized_energy": -12.07, 
			 "cosmo_cavitation_energy": 36.89, 
			 "cosmo_dispersion_energy": -25.52, 
			 "cosmo_repulsion_energy": 1.93, 
			 "cosmo_total_nonelectrostatic_energy": 13.3, 
			 "SMD_solvation_energy": 3.43 
		},
		"coords": [
			{
				"x": 0.2265754517,
				"y": -3.4183047581,
				"z": 0.288573316,
				"element": "S" 
			},
			{
				"x": -0.7675275712,
				"y": -2.206226448,
				"z": 1.1176550853,
				"element": "C" 
			},
			{
				"x": -1.9825146484,
				"y": -2.4143809647,
				"z": 1.556790522,
				"element": "N" 
			},
			{
				"x": -2.3481368251,
				"y": -1.2081177908,
				"z": 2.1421770533,
				"element": "C" 
			},
			{
				"x": -1.3013136449,
				"y": -0.2641832377,
				"z": 2.0242246619,
				"element": "C" 
			},
			{
				"x": -1.4035821551,
				"y": 1.0330749147,
				"z": 2.5280821463,
				"element": "C" 
			},
			{
				"x": -2.5951149105,
				"y": 1.3641599045,
				"z": 3.1713307347,
				"element": "C" 
			},
			{
				"x": -3.64602515,
				"y": 0.4356032168,
				"z": 3.2998864512,
				"element": "C" 
			},
			{
				"x": -3.538592557,
				"y": -0.8543905942,
				"z": 2.7880271357,
				"element": "C" 
			},
			{
				"x": -0.2777431538,
				"y": -0.9356166466,
				"z": 1.3554224568,
				"element": "N" 
			},
			{
				"x": 1.0525838091,
				"y": -0.4321897234,
				"z": 1.0365587467,
				"element": "C" 
			},
			{
				"x": 1.2069790282,
				"y": 0.1139874221,
				"z": -0.4007876437,
				"element": "C" 
			},
			{
				"x": 0.4194428894,
				"y": 1.3765679907,
				"z": -0.6748260744,
				"element": "C" 
			},
			{
				"x": 0.9367098999,
				"y": 2.6290579424,
				"z": -0.3125683144,
				"element": "C" 
			},
			{
				"x": 0.2055774137,
				"y": 3.7967404555,
				"z": -0.5329291826,
				"element": "C" 
			},
			{
				"x": -1.0580631084,
				"y": 3.7292596849,
				"z": -1.1237560084,
				"element": "C" 
			},
			{
				"x": -1.5811597382,
				"y": 2.489497641,
				"z": -1.4936123884,
				"element": "C" 
			},
			{
				"x": -0.8466836953,
				"y": 1.323496144,
				"z": -1.271496771,
				"element": "C" 
			},
			{
				"x": -0.6821135281,
				"y": -4.3913274059,
				"z": 0.4817271782,
				"element": "H" 
			},
			{
				"x": -0.6084520374,
				"y": 1.7616676271,
				"z": 2.4095699012,
				"element": "H" 
			},
			{
				"x": -2.7166497195,
				"y": 2.364561228,
				"z": 3.5759896998,
				"element": "H" 
			},
			{
				"x": -4.5585673405,
				"y": 0.7364532309,
				"z": 3.8061672409,
				"element": "H" 
			},
			{
				"x": -4.3439726778,
				"y": -1.5757320214,
				"z": 2.8809163339,
				"element": "H" 
			},
			{
				"x": 1.2906111508,
				"y": 0.348022317,
				"z": 1.7652120594,
				"element": "H" 
			},
			{
				"x": 1.7672339251,
				"y": -1.247388353,
				"z": 1.1951311949,
				"element": "H" 
			},
			{
				"x": 0.9217817297,
				"y": -0.6726924532,
				"z": -1.1076387833,
				"element": "H" 
			},
			{
				"x": 2.2767244418,
				"y": 0.3023756843,
				"z": -0.5545900517,
				"element": "H" 
			},
			{
				"x": 1.9253528193,
				"y": 2.6905292122,
				"z": 0.1378599277,
				"element": "H" 
			},
			{
				"x": 0.6248440505,
				"y": 4.7584145485,
				"z": -0.2504319563,
				"element": "H" 
			},
			{
				"x": -1.6281088492,
				"y": 4.6370904519,
				"z": -1.2986670672,
				"element": "H" 
			},
			{
				"x": -2.5620338767,
				"y": 2.4280217318,
				"z": -1.9561367033,
				"element": "H" 
			},
			{
				"x": -1.2605614219,
				"y": 0.3617690487,
				"z": -1.5629609011,
				"element": "H" 
			}
		],
		 "valence_orbital": [ 
			{
				"type": "occ",
				"energy": -0.27155,
				"method": "rhf"
			},
			{
				"type": "occ",
				"energy": -0.25259,
				"method": "rhf"
			},
			{
				"type": "occ",
				"energy": -0.24831,
				"method": "rhf"
			},
			{
				"type": "occ",
				"energy": -0.21855,
				"method": "rhf"
			},
			{
				"type": "occ",
				"energy": -0.20896,
				"method": "rhf"
			},
			{
				"type": "unocc",
				"energy": -0.00879,
				"method": "rhf"
			},
			{
				"type": "unocc",
				"energy": -0.00709,
				"method": "rhf"
			},
			{
				"type": "unocc",
				"energy": -0.00452,
				"method": "rhf"
			},
			{
				"type": "unocc",
				"energy": 0.00868,
				"method": "rhf"
			},
			{
				"type": "unocc",
				"energy": 0.0262,
				"method": "rhf"
			}
		],
		"cosmo_sigma_profile": { 
			"-0.025": 0.0,
			"-0.024": 0.0,
			"-0.023": 0.0,
			"-0.022": 0.0,
			"-0.021": 0.0,
			"-0.02": 0.0,
			"-0.019": 0.0,
			"-0.018": 0.0,
			"-0.017": 0.0,
			"-0.016": 0.0,
			"-0.015": 0.0,
			"-0.014": 0.0,
			"-0.013": 0.0,
			"-0.012": 0.756547862281,
			"-0.011": 1.52100699118,
			"-0.01": 1.34500406684,
			"-0.009": 1.28640237205,
			"-0.008": 1.1211544092,
			"-0.007": 1.98359326454,
			"-0.006": 10.3095056128,
			"-0.005": 32.5609039341,
			"-0.004": 28.9715180806,
			"-0.003": 29.0746576564,
			"-0.002": 20.9742471699,
			"-0.001": 20.1218554656,
			"0.0": 17.2918667283,
			"0.001": 16.3143814065,
			"0.002": 19.5688915201,
			"0.003": 17.6738873125,
			"0.004": 20.348135857,
			"0.005": 21.3345175675,
			"0.006": 20.0526933931,
			"0.007": 4.72283732459,
			"0.008": 1.18144014624,
			"0.009": 1.40979266459,
			"0.01": 1.11543463282,
			"0.011": 0.959177707314,
			"0.012": 1.11568021594,
			"0.013": 1.08559787576,
			"0.014": 0.825427234384,
			"0.015": 0.86589654401,
			"0.016": 0.877835586085,
			"0.017": 0.109778137753,
			"0.018": 0.0,
			"0.019": 0.0,
			"0.02": 0.0,
			"0.021": 0.0,
			"0.022": 0.0,
			"0.023": 0.0,
			"0.024": 0.0,
			"0.025": 0.0
		}
	}
}
