{
	 "smiles": "CCOC(=O)C(=NNC1=CC=CC(=C1)[N+]([O-])=O)C#N", 
	 "Tm": 429.15, 
	 "num_atms": 29, 
	 "gaussian": { 
		 "optdone": 1, 
		 "sigma_profile": "yes", 
		 "theory": "DFT", 
		 "functional": "B3LYP", 
		 "basiset": "6-31G**", 
		 "properties": { 
			 "R2extent": 8090.2072, 
			 "electric_dipole_moment_norm": 6.2025375146, 
			 "electric_quadrupole_moment_norm": 16.6289059718, 
			 "total_energy": -944.953308671, 
			 "HOMO_LUMO_gap": 0.14378, 
			 "cosmo_polarized_energy": -19.64, 
			 "cosmo_cavitation_energy": 37.44, 
			 "cosmo_dispersion_energy": -25.83, 
			 "cosmo_repulsion_energy": 2.03, 
			 "cosmo_total_nonelectrostatic_energy": 13.64, 
			 "SMD_solvation_energy": 10.76 
		},
		"coords": [
			{
				"x": 0.8692841322,
				"y": 3.4631116064,
				"z": -3.4212670585,
				"element": "C" 
			},
			{
				"x": -0.6062665527,
				"y": 3.2642752084,
				"z": -3.1358909269,
				"element": "C" 
			},
			{
				"x": -0.7116692896,
				"y": 2.3168404083,
				"z": -2.042864156,
				"element": "O" 
			},
			{
				"x": -1.9609810596,
				"y": 2.0223822591,
				"z": -1.6577978938,
				"element": "C" 
			},
			{
				"x": -2.9735984189,
				"y": 2.4811677241,
				"z": -2.1474586784,
				"element": "O" 
			},
			{
				"x": -2.0036447089,
				"y": 1.0468650332,
				"z": -0.5348533459,
				"element": "C" 
			},
			{
				"x": -0.9039299683,
				"y": 0.5653370298,
				"z": -0.0225273078,
				"element": "N" 
			},
			{
				"x": -0.9590042796,
				"y": -0.2957008071,
				"z": 0.9690849179,
				"element": "N" 
			},
			{
				"x": 0.2090947222,
				"y": -0.8279314457,
				"z": 1.5370267283,
				"element": "C" 
			},
			{
				"x": 1.4817027485,
				"y": -0.4637551371,
				"z": 1.0696944946,
				"element": "C" 
			},
			{
				"x": 2.6148881971,
				"y": -1.0157284808,
				"z": 1.66152883,
				"element": "C" 
			},
			{
				"x": 2.5082027362,
				"y": -1.9267962118,
				"z": 2.7135492719,
				"element": "C" 
			},
			{
				"x": 1.2321987439,
				"y": -2.2665656404,
				"z": 3.1529301465,
				"element": "C" 
			},
			{
				"x": 0.0759458642,
				"y": -1.7379177966,
				"z": 2.5888667067,
				"element": "C" 
			},
			{
				"x": 1.0890199546,
				"y": -3.2270771935,
				"z": 4.2632579934,
				"element": "N" 
			},
			{
				"x": 2.1187633092,
				"y": -3.6861558961,
				"z": 4.7525092191,
				"element": "O" 
			},
			{
				"x": -0.0514442044,
				"y": -3.5075194879,
				"z": 4.6289347805,
				"element": "O" 
			},
			{
				"x": -3.2915819559,
				"y": 0.6557586706,
				"z": -0.0372751705,
				"element": "C" 
			},
			{
				"x": -4.2466420832,
				"y": 0.2361283712,
				"z": 0.4807598766,
				"element": "N" 
			},
			{
				"x": 0.9926028518,
				"y": 4.1744851463,
				"z": -4.2435839595,
				"element": "H" 
			},
			{
				"x": 1.3432162877,
				"y": 2.5201512841,
				"z": -3.7081691173,
				"element": "H" 
			},
			{
				"x": 1.3881184962,
				"y": 3.8586641,
				"z": -2.5435156382,
				"element": "H" 
			},
			{
				"x": -1.1450345672,
				"y": 2.8632545393,
				"z": -3.9997827527,
				"element": "H" 
			},
			{
				"x": -1.1003462483,
				"y": 4.1950554569,
				"z": -2.8410062262,
				"element": "H" 
			},
			{
				"x": -1.8629191177,
				"y": -0.5908094104,
				"z": 1.3418235647,
				"element": "H" 
			},
			{
				"x": 1.561769382,
				"y": 0.2434290837,
				"z": 0.2531595266,
				"element": "H" 
			},
			{
				"x": 3.5965531598,
				"y": -0.731192208,
				"z": 1.2968560282,
				"element": "H" 
			},
			{
				"x": 3.3749076897,
				"y": -2.3678909758,
				"z": 3.1879283347,
				"element": "H" 
			},
			{
				"x": -0.890905821,
				"y": -2.0407652298,
				"z": 2.9740818124,
				"element": "H" 
			}
		],
		 "valence_orbital": [ 
			{
				"type": "occ",
				"energy": -0.31431,
				"method": "rhf"
			},
			{
				"type": "occ",
				"energy": -0.30258,
				"method": "rhf"
			},
			{
				"type": "occ",
				"energy": -0.29761,
				"method": "rhf"
			},
			{
				"type": "occ",
				"energy": -0.29278,
				"method": "rhf"
			},
			{
				"type": "occ",
				"energy": -0.24899,
				"method": "rhf"
			},
			{
				"type": "unocc",
				"energy": -0.10521,
				"method": "rhf"
			},
			{
				"type": "unocc",
				"energy": -0.09355,
				"method": "rhf"
			},
			{
				"type": "unocc",
				"energy": -0.03253,
				"method": "rhf"
			},
			{
				"type": "unocc",
				"energy": -0.00286,
				"method": "rhf"
			},
			{
				"type": "unocc",
				"energy": 0.00305,
				"method": "rhf"
			}
		],
		"cosmo_sigma_profile": { 
			"-0.025": 0.0,
			"-0.024": 0.0,
			"-0.023": 0.0,
			"-0.022": 0.0,
			"-0.021": 0.0,
			"-0.02": 0.0,
			"-0.019": 0.0,
			"-0.018": 0.0,
			"-0.017": 0.262474327362,
			"-0.016": 1.32168347845,
			"-0.015": 1.25274859717,
			"-0.014": 1.39962385047,
			"-0.013": 0.684156670386,
			"-0.012": 1.22892274555,
			"-0.011": 1.79976747829,
			"-0.01": 1.74732891113,
			"-0.009": 2.21808742519,
			"-0.008": 4.47508996034,
			"-0.007": 8.75245966479,
			"-0.006": 11.9638887239,
			"-0.005": 17.9690696029,
			"-0.004": 28.4347322346,
			"-0.003": 24.8586466182,
			"-0.002": 25.1444616197,
			"-0.001": 25.7665671971,
			"0.0": 26.04404125,
			"0.001": 17.022267014,
			"0.002": 10.4109702025,
			"0.003": 7.32184083828,
			"0.004": 8.70035140775,
			"0.005": 9.57800789818,
			"0.006": 8.6761363309,
			"0.007": 15.1282560549,
			"0.008": 11.9118275286,
			"0.009": 10.1897937376,
			"0.01": 7.05176197677,
			"0.011": 7.24692272844,
			"0.012": 2.42017213853,
			"0.013": 0.0,
			"0.014": 0.0,
			"0.015": 0.0,
			"0.016": 0.0,
			"0.017": 0.0,
			"0.018": 0.0,
			"0.019": 0.0,
			"0.02": 0.0,
			"0.021": 0.0,
			"0.022": 0.0,
			"0.023": 0.0,
			"0.024": 0.0,
			"0.025": 0.0
		}
	}
}
