{
	 "smiles": "CN1C(=O)NC(=O)C1(C)C", 
	 "Tm": 436.15, 
	 "num_atms": 20, 
	 "gaussian": { 
		 "optdone": 1, 
		 "sigma_profile": "yes", 
		 "theory": "DFT", 
		 "functional": "B3LYP", 
		 "basiset": "6-31G**", 
		 "properties": { 
			 "R2extent": 1930.8011, 
			 "electric_dipole_moment_norm": 2.76303423974, 
			 "electric_quadrupole_moment_norm": 10.35548322, 
			 "total_energy": -494.665821801, 
			 "HOMO_LUMO_gap": 0.24419, 
			 "cosmo_polarized_energy": -13.41, 
			 "cosmo_cavitation_energy": 23.1, 
			 "cosmo_dispersion_energy": -16.42, 
			 "cosmo_repulsion_energy": 1.33, 
			 "cosmo_total_nonelectrostatic_energy": 8.01, 
			 "SMD_solvation_energy": 5.88 
		},
		"coords": [
			{
				"x": 1.7202639516,
				"y": 2.3192330773,
				"z": -0.314448172,
				"element": "C" 
			},
			{
				"x": 1.0390600713,
				"y": 1.3080534124,
				"z": -1.0959386906,
				"element": "N" 
			},
			{
				"x": 0.9140820605,
				"y": 1.4075963166,
				"z": -2.4570750603,
				"element": "C" 
			},
			{
				"x": 1.3178981006,
				"y": 2.2872427915,
				"z": -3.1940114784,
				"element": "O" 
			},
			{
				"x": 0.2039082483,
				"y": 0.257519781,
				"z": -2.8683284268,
				"element": "N" 
			},
			{
				"x": -0.1322625046,
				"y": -0.5744580479,
				"z": -1.8274563744,
				"element": "C" 
			},
			{
				"x": -0.7379247064,
				"y": -1.6252871938,
				"z": -1.8855664925,
				"element": "O" 
			},
			{
				"x": 0.4197105584,
				"y": 0.0935395652,
				"z": -0.5494978179,
				"element": "C" 
			},
			{
				"x": -0.7454408597,
				"y": 0.4063317627,
				"z": 0.4043912719,
				"element": "C" 
			},
			{
				"x": 1.4453668813,
				"y": -0.8428739148,
				"z": 0.1111962202,
				"element": "C" 
			},
			{
				"x": 2.5856391084,
				"y": 1.9029573127,
				"z": 0.2138715407,
				"element": "H" 
			},
			{
				"x": 2.0658713652,
				"y": 3.0876525964,
				"z": -1.0073486009,
				"element": "H" 
			},
			{
				"x": 1.0487298296,
				"y": 2.7794984927,
				"z": 0.419373967,
				"element": "H" 
			},
			{
				"x": -0.0226494582,
				"y": 0.0859061385,
				"z": -3.8372381084,
				"element": "H" 
			},
			{
				"x": -1.4535216243,
				"y": 1.1002173812,
				"z": -0.0578547003,
				"element": "H" 
			},
			{
				"x": -1.273981479,
				"y": -0.5189943732,
				"z": 0.6468289636,
				"element": "H" 
			},
			{
				"x": -0.3782103492,
				"y": 0.8508293935,
				"z": 1.3344906647,
				"element": "H" 
			},
			{
				"x": 0.9665755817,
				"y": -1.796642153,
				"z": 0.3466963016,
				"element": "H" 
			},
			{
				"x": 1.8283740352,
				"y": -0.4076791513,
				"z": 1.0393302914,
				"element": "H" 
			},
			{
				"x": 2.2889111893,
				"y": -1.0334431877,
				"z": -0.5586152985,
				"element": "H" 
			}
		],
		 "valence_orbital": [ 
			{
				"type": "occ",
				"energy": -0.36726,
				"method": "rhf"
			},
			{
				"type": "occ",
				"energy": -0.28849,
				"method": "rhf"
			},
			{
				"type": "occ",
				"energy": -0.28671,
				"method": "rhf"
			},
			{
				"type": "occ",
				"energy": -0.25946,
				"method": "rhf"
			},
			{
				"type": "occ",
				"energy": -0.25033,
				"method": "rhf"
			},
			{
				"type": "unocc",
				"energy": -0.00614,
				"method": "rhf"
			},
			{
				"type": "unocc",
				"energy": 0.06263,
				"method": "rhf"
			},
			{
				"type": "unocc",
				"energy": 0.07199,
				"method": "rhf"
			},
			{
				"type": "unocc",
				"energy": 0.08804,
				"method": "rhf"
			},
			{
				"type": "unocc",
				"energy": 0.12187,
				"method": "rhf"
			}
		],
		"cosmo_sigma_profile": { 
			"-0.025": 0.0,
			"-0.024": 0.0,
			"-0.023": 0.0,
			"-0.022": 0.0,
			"-0.021": 0.0,
			"-0.02": 0.0,
			"-0.019": 0.0,
			"-0.018": 0.0,
			"-0.017": 0.314075557123,
			"-0.016": 1.09200773105,
			"-0.015": 1.19399440479,
			"-0.014": 0.812281268123,
			"-0.013": 1.02017847591,
			"-0.012": 0.73372060861,
			"-0.011": 0.782014889529,
			"-0.01": 0.844444889582,
			"-0.009": 0.607167529688,
			"-0.008": 0.962974193928,
			"-0.007": 0.860198380739,
			"-0.006": 2.37961593704,
			"-0.005": 18.1240207369,
			"-0.004": 20.8089877475,
			"-0.003": 20.2680861382,
			"-0.002": 24.2437552194,
			"-0.001": 20.6776777862,
			"0.0": 12.3660465742,
			"0.001": 4.18935120134,
			"0.002": 3.86510618659,
			"0.003": 3.1584011553,
			"0.004": 2.9085791777,
			"0.005": 3.10281366507,
			"0.006": 2.9277000119,
			"0.007": 2.48343514584,
			"0.008": 2.37315186543,
			"0.009": 2.93060671524,
			"0.01": 3.06575883117,
			"0.011": 3.78424102907,
			"0.012": 8.54942995951,
			"0.013": 8.62993930445,
			"0.014": 0.891249079905,
			"0.015": 0.0,
			"0.016": 0.0,
			"0.017": 0.0,
			"0.018": 0.0,
			"0.019": 0.0,
			"0.02": 0.0,
			"0.021": 0.0,
			"0.022": 0.0,
			"0.023": 0.0,
			"0.024": 0.0,
			"0.025": 0.0
		}
	}
}
