{
	 "smiles": "CCCCOC1=CC=C(C=C1)C(N)=O", 
	 "Tm": 436.15, 
	 "num_atms": 29, 
	 "gaussian": { 
		 "optdone": 1, 
		 "sigma_profile": "yes", 
		 "theory": "DFT", 
		 "functional": "B3LYP", 
		 "basiset": "6-31G**", 
		 "properties": { 
			 "R2extent": 5024.4328, 
			 "electric_dipole_moment_norm": 4.85183733548, 
			 "electric_quadrupole_moment_norm": 23.7309894347, 
			 "total_energy": -633.433144661, 
			 "HOMO_LUMO_gap": 0.19919, 
			 "cosmo_polarized_energy": -14.65, 
			 "cosmo_cavitation_energy": 32.2, 
			 "cosmo_dispersion_energy": -23.21, 
			 "cosmo_repulsion_energy": 1.86, 
			 "cosmo_total_nonelectrostatic_energy": 10.84, 
			 "SMD_solvation_energy": 6.26 
		},
		"coords": [
			{
				"x": 2.5930029051,
				"y": -1.3708645617,
				"z": 1.842119048,
				"element": "C" 
			},
			{
				"x": 3.4853308887,
				"y": -0.5960029743,
				"z": 0.8650646647,
				"element": "C" 
			},
			{
				"x": 3.0116158716,
				"y": -0.588153156,
				"z": -0.5989918175,
				"element": "C" 
			},
			{
				"x": 1.7797525438,
				"y": 0.2583064989,
				"z": -0.9009754441,
				"element": "C" 
			},
			{
				"x": 0.6218085568,
				"y": -0.3808038207,
				"z": -0.3569763687,
				"element": "O" 
			},
			{
				"x": -0.5952899854,
				"y": 0.2020515262,
				"z": -0.5292300314,
				"element": "C" 
			},
			{
				"x": -0.8103286863,
				"y": 1.414609458,
				"z": -1.1986697798,
				"element": "C" 
			},
			{
				"x": -2.1075686075,
				"y": 1.9184599464,
				"z": -1.3092781526,
				"element": "C" 
			},
			{
				"x": -3.2007448091,
				"y": 1.2370332557,
				"z": -0.7638639524,
				"element": "C" 
			},
			{
				"x": -2.9702410299,
				"y": 0.0128900877,
				"z": -0.1131728035,
				"element": "C" 
			},
			{
				"x": -1.6888970788,
				"y": -0.4971006407,
				"z": 0.0108620991,
				"element": "C" 
			},
			{
				"x": -4.6142121291,
				"y": 1.7209189212,
				"z": -0.8534792441,
				"element": "C" 
			},
			{
				"x": -4.7898197025,
				"y": 3.044390749,
				"z": -1.2001407154,
				"element": "N" 
			},
			{
				"x": -5.5712562514,
				"y": 0.9812696714,
				"z": -0.6540478022,
				"element": "O" 
			},
			{
				"x": 3.0302583735,
				"y": -1.3727017582,
				"z": 2.8462430549,
				"element": "H" 
			},
			{
				"x": 1.5919525289,
				"y": -0.9388072554,
				"z": 1.9047160588,
				"element": "H" 
			},
			{
				"x": 2.4807156111,
				"y": -2.4141358724,
				"z": 1.5259228605,
				"element": "H" 
			},
			{
				"x": 3.5946702463,
				"y": 0.4423797506,
				"z": 1.2083000661,
				"element": "H" 
			},
			{
				"x": 4.4946701416,
				"y": -1.0261958939,
				"z": 0.8890203493,
				"element": "H" 
			},
			{
				"x": 3.8198547161,
				"y": -0.1939659581,
				"z": -1.2287219477,
				"element": "H" 
			},
			{
				"x": 2.8222050879,
				"y": -1.6128598653,
				"z": -0.9429909716,
				"element": "H" 
			},
			{
				"x": 1.8870143129,
				"y": 1.2645698259,
				"z": -0.4693970428,
				"element": "H" 
			},
			{
				"x": 1.6552959082,
				"y": 0.3690434986,
				"z": -1.9873793798,
				"element": "H" 
			},
			{
				"x": 0.012792878,
				"y": 1.9624744011,
				"z": -1.6406424657,
				"element": "H" 
			},
			{
				"x": -2.2571725442,
				"y": 2.8411347101,
				"z": -1.8628029854,
				"element": "H" 
			},
			{
				"x": -3.8245577415,
				"y": -0.5215057564,
				"z": 0.2883499531,
				"element": "H" 
			},
			{
				"x": -1.5010361369,
				"y": -1.4385747842,
				"z": 0.5166078532,
				"element": "H" 
			},
			{
				"x": -4.0643283813,
				"y": 3.7156385619,
				"z": -1.00088197,
				"element": "H" 
			},
			{
				"x": -5.7408874867,
				"y": 3.3761014345,
				"z": -1.1235631331,
				"element": "H" 
			}
		],
		 "valence_orbital": [ 
			{
				"type": "occ",
				"energy": -0.31228,
				"method": "rhf"
			},
			{
				"type": "occ",
				"energy": -0.26737,
				"method": "rhf"
			},
			{
				"type": "occ",
				"energy": -0.25695,
				"method": "rhf"
			},
			{
				"type": "occ",
				"energy": -0.24366,
				"method": "rhf"
			},
			{
				"type": "occ",
				"energy": -0.22504,
				"method": "rhf"
			},
			{
				"type": "unocc",
				"energy": -0.02585,
				"method": "rhf"
			},
			{
				"type": "unocc",
				"energy": -0.00605,
				"method": "rhf"
			},
			{
				"type": "unocc",
				"energy": 0.06641,
				"method": "rhf"
			},
			{
				"type": "unocc",
				"energy": 0.08224,
				"method": "rhf"
			},
			{
				"type": "unocc",
				"energy": 0.08361,
				"method": "rhf"
			}
		],
		"cosmo_sigma_profile": { 
			"-0.025": 0.0,
			"-0.024": 0.0,
			"-0.023": 0.0,
			"-0.022": 0.0,
			"-0.021": 0.0,
			"-0.02": 0.0,
			"-0.019": 0.0,
			"-0.018": 0.0,
			"-0.017": 0.0,
			"-0.016": 0.0,
			"-0.015": 0.0,
			"-0.014": 0.898183522718,
			"-0.013": 2.44400610078,
			"-0.012": 1.85589336434,
			"-0.011": 2.585794984,
			"-0.01": 3.07872450739,
			"-0.009": 2.0592601159,
			"-0.008": 2.28011821739,
			"-0.007": 3.40262078521,
			"-0.006": 8.11331004295,
			"-0.005": 12.8713935598,
			"-0.004": 16.2432873924,
			"-0.003": 18.8566577579,
			"-0.002": 21.9093986824,
			"-0.001": 23.260882047,
			"0.0": 25.1584696555,
			"0.001": 24.1313440803,
			"0.002": 17.4726509997,
			"0.003": 15.231784827,
			"0.004": 16.6264039054,
			"0.005": 7.22293294011,
			"0.006": 3.8000981301,
			"0.007": 2.93484304591,
			"0.008": 3.70805357473,
			"0.009": 2.56473018036,
			"0.01": 1.83005885371,
			"0.011": 0.892894569493,
			"0.012": 2.01962951766,
			"0.013": 3.5857006891,
			"0.014": 5.21794697089,
			"0.015": 0.766347761956,
			"0.016": 0.0,
			"0.017": 0.0,
			"0.018": 0.0,
			"0.019": 0.0,
			"0.02": 0.0,
			"0.021": 0.0,
			"0.022": 0.0,
			"0.023": 0.0,
			"0.024": 0.0,
			"0.025": 0.0
		}
	}
}
