{
	 "smiles": "ClC1=CC=C(NN=C2C(=O)NC(=O)NC2=O)C=C1", 
	 "Tm": 626.15, 
	 "num_atms": 25, 
	 "gaussian": { 
		 "optdone": 1, 
		 "sigma_profile": "yes", 
		 "theory": "DFT", 
		 "functional": "B3LYP", 
		 "basiset": "6-31G**", 
		 "properties": { 
			 "R2extent": 8158.2968, 
			 "electric_dipole_moment_norm": 2.46199912673, 
			 "electric_quadrupole_moment_norm": 10.7661773035, 
			 "total_energy": -1290.18093258, 
			 "HOMO_LUMO_gap": 0.13314, 
			 "cosmo_polarized_energy": -19.44, 
			 "cosmo_cavitation_energy": 33.46, 
			 "cosmo_dispersion_energy": -24.83, 
			 "cosmo_repulsion_energy": 1.9, 
			 "cosmo_total_nonelectrostatic_energy": 10.54, 
			 "SMD_solvation_energy": 7.11 
		},
		"coords": [
			{
				"x": -2.1037871136,
				"y": 2.315400343,
				"z": -4.5406442404,
				"element": "Cl" 
			},
			{
				"x": -1.3882682211,
				"y": 1.582313138,
				"z": -3.11679765,
				"element": "C" 
			},
			{
				"x": -2.1849683704,
				"y": 0.8231569891,
				"z": -2.2600994431,
				"element": "C" 
			},
			{
				"x": -1.6124655473,
				"y": 0.2431995482,
				"z": -1.1310978565,
				"element": "C" 
			},
			{
				"x": -0.250048485,
				"y": 0.4250255419,
				"z": -0.8655278768,
				"element": "C" 
			},
			{
				"x": 0.2842516877,
				"y": -0.1796696287,
				"z": 0.2865875366,
				"element": "N" 
			},
			{
				"x": 1.5412970515,
				"y": -0.0488896221,
				"z": 0.5886799875,
				"element": "N" 
			},
			{
				"x": 2.0380730585,
				"y": -0.6176635241,
				"z": 1.6707718203,
				"element": "C" 
			},
			{
				"x": 1.2414534107,
				"y": -1.4226750811,
				"z": 2.6002983843,
				"element": "C" 
			},
			{
				"x": 0.0317298826,
				"y": -1.6443630529,
				"z": 2.4583552893,
				"element": "O" 
			},
			{
				"x": 1.9233052501,
				"y": -1.9449909881,
				"z": 3.6850996889,
				"element": "N" 
			},
			{
				"x": 3.2783187811,
				"y": -1.7873768136,
				"z": 3.9848694567,
				"element": "C" 
			},
			{
				"x": 3.7884496561,
				"y": -2.2878922522,
				"z": 4.9668756558,
				"element": "O" 
			},
			{
				"x": 3.9707910901,
				"y": -1.0167573744,
				"z": 3.0666859849,
				"element": "N" 
			},
			{
				"x": 3.4835317327,
				"y": -0.394780208,
				"z": 1.9054388313,
				"element": "C" 
			},
			{
				"x": 4.2273501923,
				"y": 0.2547117867,
				"z": 1.1959732337,
				"element": "O" 
			},
			{
				"x": 0.5457130079,
				"y": 1.1886833231,
				"z": -1.7295351425,
				"element": "C" 
			},
			{
				"x": -0.02777314,
				"y": 1.7670309408,
				"z": -2.8565120666,
				"element": "C" 
			},
			{
				"x": -3.2391331756,
				"y": 0.6871561524,
				"z": -2.4727990971,
				"element": "H" 
			},
			{
				"x": -2.2251337912,
				"y": -0.349911896,
				"z": -0.4578540286,
				"element": "H" 
			},
			{
				"x": -0.3056738414,
				"y": -0.7391373732,
				"z": 0.91768304,
				"element": "H" 
			},
			{
				"x": 1.389815819,
				"y": -2.5046374049,
				"z": 4.339405153,
				"element": "H" 
			},
			{
				"x": 4.9562162362,
				"y": -0.886303117,
				"z": 3.2600017466,
				"element": "H" 
			},
			{
				"x": 1.5984879905,
				"y": 1.3194167903,
				"z": -1.5090689438,
				"element": "H" 
			},
			{
				"x": 0.5770668385,
				"y": 2.3602537827,
				"z": -3.5330894636,
				"element": "H" 
			}
		],
		 "valence_orbital": [ 
			{
				"type": "occ",
				"energy": -0.29611,
				"method": "rhf"
			},
			{
				"type": "occ",
				"energy": -0.29357,
				"method": "rhf"
			},
			{
				"type": "occ",
				"energy": -0.28246,
				"method": "rhf"
			},
			{
				"type": "occ",
				"energy": -0.26844,
				"method": "rhf"
			},
			{
				"type": "occ",
				"energy": -0.23481,
				"method": "rhf"
			},
			{
				"type": "unocc",
				"energy": -0.10167,
				"method": "rhf"
			},
			{
				"type": "unocc",
				"energy": -0.03165,
				"method": "rhf"
			},
			{
				"type": "unocc",
				"energy": -0.01547,
				"method": "rhf"
			},
			{
				"type": "unocc",
				"energy": -0.00883,
				"method": "rhf"
			},
			{
				"type": "unocc",
				"energy": 0.01471,
				"method": "rhf"
			}
		],
		"cosmo_sigma_profile": { 
			"-0.025": 0.0,
			"-0.024": 0.0,
			"-0.023": 0.0,
			"-0.022": 0.0,
			"-0.021": 0.0,
			"-0.02": 0.0,
			"-0.019": 0.0,
			"-0.018": 0.0,
			"-0.017": 0.458214358967,
			"-0.016": 1.71579845121,
			"-0.015": 2.25483210344,
			"-0.014": 1.63909550842,
			"-0.013": 1.20803380896,
			"-0.012": 2.27241144517,
			"-0.011": 3.32402688578,
			"-0.01": 3.24895910718,
			"-0.009": 3.3879011973,
			"-0.008": 7.20865141939,
			"-0.007": 11.1629474854,
			"-0.006": 12.503538701,
			"-0.005": 14.7137400425,
			"-0.004": 13.9740748883,
			"-0.003": 17.2873071396,
			"-0.002": 17.6625046506,
			"-0.001": 15.1239778295,
			"0.0": 17.1517796699,
			"0.001": 20.4538825479,
			"0.002": 22.4784583833,
			"0.003": 15.1467569294,
			"0.004": 14.4316710542,
			"0.005": 6.56566385171,
			"0.006": 2.43768509046,
			"0.007": 5.11592037898,
			"0.008": 4.53354292576,
			"0.009": 4.0029098613,
			"0.01": 5.49524575093,
			"0.011": 10.5474283685,
			"0.012": 10.9274956161,
			"0.013": 3.00336668023,
			"0.014": 0.547160897594,
			"0.015": 0.0,
			"0.016": 0.0,
			"0.017": 0.0,
			"0.018": 0.0,
			"0.019": 0.0,
			"0.02": 0.0,
			"0.021": 0.0,
			"0.022": 0.0,
			"0.023": 0.0,
			"0.024": 0.0,
			"0.025": 0.0
		}
	}
}
