{
	 "smiles": "COC1=C(OC)C(OC)=C2CCNC(=O)CC2=C1", 
	 "Tm": 450.15, 
	 "num_atms": 35, 
	 "gaussian": { 
		 "optdone": 1, 
		 "sigma_profile": "yes", 
		 "theory": "DFT", 
		 "functional": "B3LYP", 
		 "basiset": "6-31G**", 
		 "properties": { 
			 "R2extent": 5368.3636, 
			 "electric_dipole_moment_norm": 4.18842707827, 
			 "electric_quadrupole_moment_norm": 25.7618256067, 
			 "total_energy": -861.24004134, 
			 "HOMO_LUMO_gap": 0.21627, 
			 "cosmo_polarized_energy": -15.98, 
			 "cosmo_cavitation_energy": 36.24, 
			 "cosmo_dispersion_energy": -26.02, 
			 "cosmo_repulsion_energy": 2.02, 
			 "cosmo_total_nonelectrostatic_energy": 12.24, 
			 "SMD_solvation_energy": 7.74 
		},
		"coords": [
			{
				"x": -1.0891640484,
				"y": -1.7563165755,
				"z": -3.5928646983,
				"element": "C" 
			},
			{
				"x": -1.4483952227,
				"y": -2.2804925703,
				"z": -2.3096076862,
				"element": "O" 
			},
			{
				"x": -1.0743421562,
				"y": -1.4830318044,
				"z": -1.2467080566,
				"element": "C" 
			},
			{
				"x": -1.7733982795,
				"y": -0.2992292678,
				"z": -0.9575402185,
				"element": "C" 
			},
			{
				"x": -2.8049080279,
				"y": 0.1349777329,
				"z": -1.7636265014,
				"element": "O" 
			},
			{
				"x": -3.9675826961,
				"y": -0.7056503532,
				"z": -1.7903197881,
				"element": "C" 
			},
			{
				"x": -1.346245377,
				"y": 0.4836415729,
				"z": 0.1290962826,
				"element": "C" 
			},
			{
				"x": -1.9139183229,
				"y": 1.6836021243,
				"z": 0.466160101,
				"element": "O" 
			},
			{
				"x": -3.3252292524,
				"y": 1.8760956988,
				"z": 0.383336742,
				"element": "C" 
			},
			{
				"x": -0.2333915491,
				"y": 0.108257033,
				"z": 0.9211340154,
				"element": "C" 
			},
			{
				"x": 0.1107158041,
				"y": 1.0650672327,
				"z": 2.0550484983,
				"element": "C" 
			},
			{
				"x": 1.3778984082,
				"y": 0.7838937509,
				"z": 2.8664473149,
				"element": "C" 
			},
			{
				"x": 1.3781366586,
				"y": -0.4990706788,
				"z": 3.5544949765,
				"element": "N" 
			},
			{
				"x": 1.4217122935,
				"y": -1.711345831,
				"z": 2.923625703,
				"element": "C" 
			},
			{
				"x": 1.3221810956,
				"y": -2.7711369146,
				"z": 3.5255897391,
				"element": "O" 
			},
			{
				"x": 1.6259650538,
				"y": -1.6323866071,
				"z": 1.4095374807,
				"element": "C" 
			},
			{
				"x": 0.4318832177,
				"y": -1.0971125137,
				"z": 0.6284403264,
				"element": "C" 
			},
			{
				"x": -0.0057944622,
				"y": -1.8749318372,
				"z": -0.4528096409,
				"element": "C" 
			},
			{
				"x": -0.000885498,
				"y": -1.6434075343,
				"z": -3.6754910227,
				"element": "H" 
			},
			{
				"x": -1.4328711542,
				"y": -2.4851903218,
				"z": -4.3299540269,
				"element": "H" 
			},
			{
				"x": -1.5693205858,
				"y": -0.7895997531,
				"z": -3.7778471418,
				"element": "H" 
			},
			{
				"x": -3.7184881408,
				"y": -1.7162531592,
				"z": -2.1220928774,
				"element": "H" 
			},
			{
				"x": -4.6604068761,
				"y": -0.2415839521,
				"z": -2.4954909017,
				"element": "H" 
			},
			{
				"x": -4.4373217013,
				"y": -0.7525091213,
				"z": -0.7996458248,
				"element": "H" 
			},
			{
				"x": -3.8684839312,
				"y": 1.0033668759,
				"z": 0.7653157389,
				"element": "H" 
			},
			{
				"x": -3.6471295255,
				"y": 2.0840651747,
				"z": -0.6385722115,
				"element": "H" 
			},
			{
				"x": -3.5424645064,
				"y": 2.7352511456,
				"z": 1.0230581577,
				"element": "H" 
			},
			{
				"x": 0.1938096841,
				"y": 2.0777444931,
				"z": 1.6425411121,
				"element": "H" 
			},
			{
				"x": -0.7426901408,
				"y": 1.1097247238,
				"z": 2.7445590712,
				"element": "H" 
			},
			{
				"x": 2.2664510251,
				"y": 0.8612118382,
				"z": 2.2285016618,
				"element": "H" 
			},
			{
				"x": 1.4837092458,
				"y": 1.562018645,
				"z": 3.6276964954,
				"element": "H" 
			},
			{
				"x": 1.1723991143,
				"y": -0.5379547755,
				"z": 4.5434128751,
				"element": "H" 
			},
			{
				"x": 2.5231938025,
				"y": -1.035563475,
				"z": 1.1980240838,
				"element": "H" 
			},
			{
				"x": 1.836643068,
				"y": -2.6525135455,
				"z": 1.0872190488,
				"element": "H" 
			},
			{
				"x": 0.4943329832,
				"y": -2.8058374504,
				"z": -0.6994688279,
				"element": "H" 
			}
		],
		 "valence_orbital": [ 
			{
				"type": "occ",
				"energy": -0.26109,
				"method": "rhf"
			},
			{
				"type": "occ",
				"energy": -0.24452,
				"method": "rhf"
			},
			{
				"type": "occ",
				"energy": -0.242,
				"method": "rhf"
			},
			{
				"type": "occ",
				"energy": -0.22052,
				"method": "rhf"
			},
			{
				"type": "occ",
				"energy": -0.21602,
				"method": "rhf"
			},
			{
				"type": "unocc",
				"energy": 0.00025,
				"method": "rhf"
			},
			{
				"type": "unocc",
				"energy": 0.00608,
				"method": "rhf"
			},
			{
				"type": "unocc",
				"energy": 0.03873,
				"method": "rhf"
			},
			{
				"type": "unocc",
				"energy": 0.07062,
				"method": "rhf"
			},
			{
				"type": "unocc",
				"energy": 0.08017,
				"method": "rhf"
			}
		],
		"cosmo_sigma_profile": { 
			"-0.025": 0.0,
			"-0.024": 0.0,
			"-0.023": 0.0,
			"-0.022": 0.0,
			"-0.021": 0.0,
			"-0.02": 0.0,
			"-0.019": 0.0,
			"-0.018": 0.0,
			"-0.017": 0.0,
			"-0.016": 0.0,
			"-0.015": 0.0,
			"-0.014": 0.30677972738,
			"-0.013": 1.10965626882,
			"-0.012": 1.12863951676,
			"-0.011": 1.21047105637,
			"-0.01": 0.691415261604,
			"-0.009": 1.07453523947,
			"-0.008": 1.51147108378,
			"-0.007": 3.04750510575,
			"-0.006": 11.4678390573,
			"-0.005": 21.674604972,
			"-0.004": 27.761814795,
			"-0.003": 37.5473694948,
			"-0.002": 34.2902970168,
			"-0.001": 19.6868373545,
			"0.0": 16.6699848833,
			"0.001": 14.8042042581,
			"0.002": 13.401301311,
			"0.003": 14.5551715556,
			"0.004": 14.5077830503,
			"0.005": 9.41106676194,
			"0.006": 5.36798606248,
			"0.007": 5.12909269485,
			"0.008": 4.36868598973,
			"0.009": 3.72026035969,
			"0.01": 3.10593625213,
			"0.011": 3.03307870178,
			"0.012": 2.40913949279,
			"0.013": 3.09957288281,
			"0.014": 6.13049713652,
			"0.015": 2.42965982304,
			"0.016": 0.106393667593,
			"0.017": 0.0,
			"0.018": 0.0,
			"0.019": 0.0,
			"0.02": 0.0,
			"0.021": 0.0,
			"0.022": 0.0,
			"0.023": 0.0,
			"0.024": 0.0,
			"0.025": 0.0
		}
	}
}
