{
	 "smiles": "ClC1=CNN=C1", 
	 "Tm": 339.15, 
	 "num_atms": 9, 
	 "gaussian": { 
		 "optdone": 1, 
		 "sigma_profile": "yes", 
		 "theory": "DFT", 
		 "functional": "B3LYP", 
		 "basiset": "6-31G**", 
		 "properties": { 
			 "R2extent": 1423.2737, 
			 "electric_dipole_moment_norm": 2.56689332852, 
			 "electric_quadrupole_moment_norm": 5.88848873481, 
			 "total_energy": -685.788040544, 
			 "HOMO_LUMO_gap": 0.24991, 
			 "cosmo_polarized_energy": -9.09, 
			 "cosmo_cavitation_energy": 15.05, 
			 "cosmo_dispersion_energy": -11.72, 
			 "cosmo_repulsion_energy": 1.02, 
			 "cosmo_total_nonelectrostatic_energy": 4.35, 
			 "SMD_solvation_energy": 2.1 
		},
		"coords": [
			{
				"x": 0.2339321632,
				"y": -2.2122324076,
				"z": -1.1606073648,
				"element": "Cl" 
			},
			{
				"x": 1.0466207389,
				"y": -1.658772452,
				"z": 0.2671362109,
				"element": "C" 
			},
			{
				"x": 1.1001098908,
				"y": -0.3614860807,
				"z": 0.7389271428,
				"element": "C" 
			},
			{
				"x": 1.8436551221,
				"y": -0.4276934669,
				"z": 1.8736136818,
				"element": "N" 
			},
			{
				"x": 2.2726872781,
				"y": -1.6723546826,
				"z": 2.1671852233,
				"element": "N" 
			},
			{
				"x": 1.7886548084,
				"y": -2.4322437513,
				"z": 1.1871836683,
				"element": "C" 
			},
			{
				"x": 0.6792200051,
				"y": 0.5573113498,
				"z": 0.3607436477,
				"element": "H" 
			},
			{
				"x": 2.0929987985,
				"y": 0.3315018881,
				"z": 2.4883286699,
				"element": "H" 
			},
			{
				"x": 1.9804211951,
				"y": -3.4956303968,
				"z": 1.1660891201,
				"element": "H" 
			}
		],
		 "valence_orbital": [ 
			{
				"type": "occ",
				"energy": -0.35469,
				"method": "rhf"
			},
			{
				"type": "occ",
				"energy": -0.32691,
				"method": "rhf"
			},
			{
				"type": "occ",
				"energy": -0.2929,
				"method": "rhf"
			},
			{
				"type": "occ",
				"energy": -0.26911,
				"method": "rhf"
			},
			{
				"type": "occ",
				"energy": -0.24359,
				"method": "rhf"
			},
			{
				"type": "unocc",
				"energy": 0.00632,
				"method": "rhf"
			},
			{
				"type": "unocc",
				"energy": 0.03464,
				"method": "rhf"
			},
			{
				"type": "unocc",
				"energy": 0.0582,
				"method": "rhf"
			},
			{
				"type": "unocc",
				"energy": 0.08356,
				"method": "rhf"
			},
			{
				"type": "unocc",
				"energy": 0.12803,
				"method": "rhf"
			}
		],
		"cosmo_sigma_profile": { 
			"-0.025": 0.0,
			"-0.024": 0.0,
			"-0.023": 0.0,
			"-0.022": 0.0,
			"-0.021": 0.0,
			"-0.02": 0.0,
			"-0.019": 0.0,
			"-0.018": 0.0879119674466,
			"-0.017": 1.48105014421,
			"-0.016": 1.85327402342,
			"-0.015": 1.04627016375,
			"-0.014": 1.03641817723,
			"-0.013": 0.828718832517,
			"-0.012": 1.23519607125,
			"-0.011": 1.31134875724,
			"-0.01": 3.14409590961,
			"-0.009": 2.44410397226,
			"-0.008": 3.65701205698,
			"-0.007": 3.89816096563,
			"-0.006": 2.48251944527,
			"-0.005": 3.84819971087,
			"-0.004": 2.61515856723,
			"-0.003": 4.35874494636,
			"-0.002": 5.11137699478,
			"-0.001": 5.41251087362,
			"0.0": 6.6719630463,
			"0.001": 8.3734833939,
			"0.002": 11.197441165,
			"0.003": 16.1447296961,
			"0.004": 14.070518796,
			"0.005": 8.24864264407,
			"0.006": 1.62303252143,
			"0.007": 1.87510496937,
			"0.008": 0.949785408114,
			"0.009": 0.914549334581,
			"0.01": 1.70859106979,
			"0.011": 1.57845832655,
			"0.012": 1.01451003762,
			"0.013": 1.168002931,
			"0.014": 1.03176494587,
			"0.015": 0.930331776209,
			"0.016": 0.150587915414,
			"0.017": 0.0,
			"0.018": 0.0,
			"0.019": 0.0,
			"0.02": 0.0,
			"0.021": 0.0,
			"0.022": 0.0,
			"0.023": 0.0,
			"0.024": 0.0,
			"0.025": 0.0
		}
	}
}
