{
	 "smiles": "CCCCC(CC)CCl", 
	 "Tm": 203.15, 
	 "num_atms": 26, 
	 "gaussian": { 
		 "optdone": 1, 
		 "sigma_profile": "yes", 
		 "theory": "DFT", 
		 "functional": "B3LYP", 
		 "basiset": "6-31G**", 
		 "properties": { 
			 "R2extent": 2306.963, 
			 "electric_dipole_moment_norm": 2.12947888931, 
			 "electric_quadrupole_moment_norm": 8.35689779105, 
			 "total_energy": -775.308251711, 
			 "HOMO_LUMO_gap": 0.31124, 
			 "cosmo_polarized_energy": -3.84, 
			 "cosmo_cavitation_energy": 27.38, 
			 "cosmo_dispersion_energy": -19.6, 
			 "cosmo_repulsion_energy": 1.62, 
			 "cosmo_total_nonelectrostatic_energy": 9.41, 
			 "SMD_solvation_energy": 4.02 
		},
		"coords": [
			{
				"x": -0.3078835242,
				"y": 1.9950905754,
				"z": -1.6007423025,
				"element": "C" 
			},
			{
				"x": -1.1398045783,
				"y": 1.4549974965,
				"z": -0.4308403396,
				"element": "C" 
			},
			{
				"x": -0.5821237249,
				"y": 0.1741679867,
				"z": 0.2168668305,
				"element": "C" 
			},
			{
				"x": -0.6697941922,
				"y": -1.0555674629,
				"z": -0.7024505038,
				"element": "C" 
			},
			{
				"x": -0.1549798891,
				"y": -2.4220931027,
				"z": -0.1777050634,
				"element": "C" 
			},
			{
				"x": -0.6599804054,
				"y": -2.8350577066,
				"z": 1.2287787804,
				"element": "C" 
			},
			{
				"x": 0.0901105099,
				"y": -2.3219978723,
				"z": 2.4670640485,
				"element": "C" 
			},
			{
				"x": 1.3339981689,
				"y": -2.686498153,
				"z": -0.4306933804,
				"element": "C" 
			},
			{
				"x": 2.5246496856,
				"y": -1.4872707994,
				"z": 0.2731364118,
				"element": "Cl" 
			},
			{
				"x": -0.2751560478,
				"y": 1.2947120064,
				"z": -2.441728494,
				"element": "H" 
			},
			{
				"x": 0.7257673364,
				"y": 2.1879333641,
				"z": -1.2918027876,
				"element": "H" 
			},
			{
				"x": -0.7240902383,
				"y": 2.9355426476,
				"z": -1.9770633026,
				"element": "H" 
			},
			{
				"x": -1.2069590711,
				"y": 2.2315277579,
				"z": 0.3417064134,
				"element": "H" 
			},
			{
				"x": -2.1707819082,
				"y": 1.2740732235,
				"z": -0.7667231509,
				"element": "H" 
			},
			{
				"x": 0.4538872408,
				"y": 0.3470303085,
				"z": 0.5257314197,
				"element": "H" 
			},
			{
				"x": -1.1541757048,
				"y": -0.0228218464,
				"z": 1.1313542191,
				"element": "H" 
			},
			{
				"x": -1.727981186,
				"y": -1.1912549632,
				"z": -0.9669034071,
				"element": "H" 
			},
			{
				"x": -0.1534082463,
				"y": -0.8449652096,
				"z": -1.6478259309,
				"element": "H" 
			},
			{
				"x": -0.611337952,
				"y": -3.1588274139,
				"z": -0.8595734686,
				"element": "H" 
			},
			{
				"x": -1.7161584608,
				"y": -2.5428910916,
				"z": 1.2976594707,
				"element": "H" 
			},
			{
				"x": -0.6573375892,
				"y": -3.93267918,
				"z": 1.2693785693,
				"element": "H" 
			},
			{
				"x": -0.4121844746,
				"y": -2.6794161267,
				"z": 3.3727933616,
				"element": "H" 
			},
			{
				"x": 0.1301368082,
				"y": -1.2319463371,
				"z": 2.5156081121,
				"element": "H" 
			},
			{
				"x": 1.1205890317,
				"y": -2.6857182644,
				"z": 2.4960503037,
				"element": "H" 
			},
			{
				"x": 1.541687883,
				"y": -2.6723328381,
				"z": -1.5018713295,
				"element": "H" 
			},
			{
				"x": 1.6317105285,
				"y": -3.6571369985,
				"z": -0.0284044799,
				"element": "H" 
			}
		],
		 "valence_orbital": [ 
			{
				"type": "occ",
				"energy": -0.32517,
				"method": "rhf"
			},
			{
				"type": "occ",
				"energy": -0.30723,
				"method": "rhf"
			},
			{
				"type": "occ",
				"energy": -0.30495,
				"method": "rhf"
			},
			{
				"type": "occ",
				"energy": -0.28443,
				"method": "rhf"
			},
			{
				"type": "occ",
				"energy": -0.28038,
				"method": "rhf"
			},
			{
				"type": "unocc",
				"energy": 0.03086,
				"method": "rhf"
			},
			{
				"type": "unocc",
				"energy": 0.06812,
				"method": "rhf"
			},
			{
				"type": "unocc",
				"energy": 0.09989,
				"method": "rhf"
			},
			{
				"type": "unocc",
				"energy": 0.11236,
				"method": "rhf"
			},
			{
				"type": "unocc",
				"energy": 0.12325,
				"method": "rhf"
			}
		],
		"cosmo_sigma_profile": { 
			"-0.025": 0.0,
			"-0.024": 0.0,
			"-0.023": 0.0,
			"-0.022": 0.0,
			"-0.021": 0.0,
			"-0.02": 0.0,
			"-0.019": 0.0,
			"-0.018": 0.0,
			"-0.017": 0.0,
			"-0.016": 0.0,
			"-0.015": 0.0,
			"-0.014": 0.0,
			"-0.013": 0.0,
			"-0.012": 0.0,
			"-0.011": 0.0,
			"-0.01": 0.0,
			"-0.009": 0.0,
			"-0.008": 0.0,
			"-0.007": 0.166858832147,
			"-0.006": 3.60540350766,
			"-0.005": 5.80064856967,
			"-0.004": 10.4229605173,
			"-0.003": 13.8867707772,
			"-0.002": 29.4317433787,
			"-0.001": 33.397773057,
			"0.0": 33.3162851617,
			"0.001": 33.3173234341,
			"0.002": 18.5948077931,
			"0.003": 5.4634462544,
			"0.004": 6.52807678984,
			"0.005": 5.85831383607,
			"0.006": 5.97073609321,
			"0.007": 5.87946189386,
			"0.008": 0.964721454061,
			"0.009": 0.0,
			"0.01": 0.0,
			"0.011": 0.0,
			"0.012": 0.0,
			"0.013": 0.0,
			"0.014": 0.0,
			"0.015": 0.0,
			"0.016": 0.0,
			"0.017": 0.0,
			"0.018": 0.0,
			"0.019": 0.0,
			"0.02": 0.0,
			"0.021": 0.0,
			"0.022": 0.0,
			"0.023": 0.0,
			"0.024": 0.0,
			"0.025": 0.0
		}
	}
}
