{
	 "smiles": "COC1=CC=CC=C1C(=S)N1CCOCC1", 
	 "Tm": 359.15, 
	 "num_atms": 31, 
	 "gaussian": { 
		 "optdone": 1, 
		 "sigma_profile": "yes", 
		 "theory": "DFT", 
		 "functional": "B3LYP", 
		 "basiset": "6-31G**", 
		 "properties": { 
			 "R2extent": 4574.6176, 
			 "electric_dipole_moment_norm": 4.80608734211, 
			 "electric_quadrupole_moment_norm": 17.2404419801, 
			 "total_energy": -1069.67743718, 
			 "HOMO_LUMO_gap": 0.15768, 
			 "cosmo_polarized_energy": -16.23, 
			 "cosmo_cavitation_energy": 34.33, 
			 "cosmo_dispersion_energy": -24.41, 
			 "cosmo_repulsion_energy": 1.88, 
			 "cosmo_total_nonelectrostatic_energy": 11.79, 
			 "SMD_solvation_energy": 5.11 
		},
		"coords": [
			{
				"x": -3.321667179,
				"y": 1.8057367149,
				"z": -0.2543351989,
				"element": "C" 
			},
			{
				"x": -2.2320047458,
				"y": 0.9537540521,
				"z": -0.5752028033,
				"element": "O" 
			},
			{
				"x": -1.7773606741,
				"y": 0.9327257001,
				"z": -1.8636193149,
				"element": "C" 
			},
			{
				"x": -2.2507368693,
				"y": 1.7762187947,
				"z": -2.8745890404,
				"element": "C" 
			},
			{
				"x": -1.7199400021,
				"y": 1.6856570893,
				"z": -4.163478189,
				"element": "C" 
			},
			{
				"x": -0.7271189788,
				"y": 0.7529390287,
				"z": -4.4555545636,
				"element": "C" 
			},
			{
				"x": -0.2697838393,
				"y": -0.098441154,
				"z": -3.4495835948,
				"element": "C" 
			},
			{
				"x": -0.7686982219,
				"y": -0.016039711,
				"z": -2.1460418139,
				"element": "C" 
			},
			{
				"x": -0.3090986357,
				"y": -0.9909262599,
				"z": -1.1030877958,
				"element": "C" 
			},
			{
				"x": -0.6655258154,
				"y": -2.6158250217,
				"z": -1.3236819028,
				"element": "S" 
			},
			{
				"x": 0.3716185889,
				"y": -0.4925319457,
				"z": -0.0443836394,
				"element": "N" 
			},
			{
				"x": 0.7742949082,
				"y": 0.909910057,
				"z": 0.1095197865,
				"element": "C" 
			},
			{
				"x": 2.2667451716,
				"y": 0.9865094583,
				"z": 0.4486790014,
				"element": "C" 
			},
			{
				"x": 2.5848058841,
				"y": 0.2192610301,
				"z": 1.5972482869,
				"element": "O" 
			},
			{
				"x": 2.2459698907,
				"y": -1.1484680281,
				"z": 1.3990012048,
				"element": "C" 
			},
			{
				"x": 0.7565643338,
				"y": -1.3184660642,
				"z": 1.1054775595,
				"element": "C" 
			},
			{
				"x": -3.063889909,
				"y": 2.8642637718,
				"z": -0.3887397726,
				"element": "H" 
			},
			{
				"x": -4.2060088112,
				"y": 1.5710078747,
				"z": -0.8590886653,
				"element": "H" 
			},
			{
				"x": -3.5459296702,
				"y": 1.6218796853,
				"z": 0.7972792149,
				"element": "H" 
			},
			{
				"x": -3.0301624289,
				"y": 2.4994741423,
				"z": -2.6668867261,
				"element": "H" 
			},
			{
				"x": -2.0949798456,
				"y": 2.3478111605,
				"z": -4.9385115684,
				"element": "H" 
			},
			{
				"x": -0.3194629801,
				"y": 0.6771214935,
				"z": -5.4584824641,
				"element": "H" 
			},
			{
				"x": 0.4787318913,
				"y": -0.8535989787,
				"z": -3.666691934,
				"element": "H" 
			},
			{
				"x": 0.5744031433,
				"y": 1.4540459485,
				"z": -0.8127098471,
				"element": "H" 
			},
			{
				"x": 0.1854442762,
				"y": 1.3626129912,
				"z": 0.9170882222,
				"element": "H" 
			},
			{
				"x": 2.5450092001,
				"y": 2.0209661428,
				"z": 0.6711334737,
				"element": "H" 
			},
			{
				"x": 2.8563955531,
				"y": 0.6438960722,
				"z": -0.4178841199,
				"element": "H" 
			},
			{
				"x": 2.8370371689,
				"y": -1.5717905886,
				"z": 0.5710850489,
				"element": "H" 
			},
			{
				"x": 2.5107130896,
				"y": -1.6741094405,
				"z": 2.3205876996,
				"element": "H" 
			},
			{
				"x": 0.1699385382,
				"y": -0.991086638,
				"z": 1.9746333401,
				"element": "H" 
			},
			{
				"x": 0.5104969686,
				"y": -2.3564073778,
				"z": 0.8791201158,
				"element": "H" 
			}
		],
		 "valence_orbital": [ 
			{
				"type": "occ",
				"energy": -0.2699,
				"method": "rhf"
			},
			{
				"type": "occ",
				"energy": -0.25736,
				"method": "rhf"
			},
			{
				"type": "occ",
				"energy": -0.22965,
				"method": "rhf"
			},
			{
				"type": "occ",
				"energy": -0.21286,
				"method": "rhf"
			},
			{
				"type": "occ",
				"energy": -0.19268,
				"method": "rhf"
			},
			{
				"type": "unocc",
				"energy": -0.035,
				"method": "rhf"
			},
			{
				"type": "unocc",
				"energy": -0.00152,
				"method": "rhf"
			},
			{
				"type": "unocc",
				"energy": 0.00707,
				"method": "rhf"
			},
			{
				"type": "unocc",
				"energy": 0.08528,
				"method": "rhf"
			},
			{
				"type": "unocc",
				"energy": 0.09102,
				"method": "rhf"
			}
		],
		"cosmo_sigma_profile": { 
			"-0.025": 0.0,
			"-0.024": 0.0,
			"-0.023": 0.0,
			"-0.022": 0.0,
			"-0.021": 0.0,
			"-0.02": 0.0,
			"-0.019": 0.0,
			"-0.018": 0.0,
			"-0.017": 0.0,
			"-0.016": 0.0,
			"-0.015": 0.0,
			"-0.014": 0.0,
			"-0.013": 0.0,
			"-0.012": 0.0,
			"-0.011": 0.0,
			"-0.01": 0.0,
			"-0.009": 0.0,
			"-0.008": 0.0,
			"-0.007": 2.66317495045,
			"-0.006": 22.3064238117,
			"-0.005": 36.4395139113,
			"-0.004": 35.3183473112,
			"-0.003": 27.9097455572,
			"-0.002": 17.3020537112,
			"-0.001": 13.2726280464,
			"0.0": 10.9425097294,
			"0.001": 11.5946281271,
			"0.002": 10.208016461,
			"0.003": 11.1210440406,
			"0.004": 13.1383608064,
			"0.005": 12.0702908048,
			"0.006": 8.81651834435,
			"0.007": 7.52392834278,
			"0.008": 7.44932136852,
			"0.009": 9.56917111472,
			"0.01": 7.15951012201,
			"0.011": 3.53150515325,
			"0.012": 3.34510107543,
			"0.013": 2.10950829563,
			"0.014": 0.0118792074501,
			"0.015": 0.0,
			"0.016": 0.0,
			"0.017": 0.0,
			"0.018": 0.0,
			"0.019": 0.0,
			"0.02": 0.0,
			"0.021": 0.0,
			"0.022": 0.0,
			"0.023": 0.0,
			"0.024": 0.0,
			"0.025": 0.0
		}
	}
}
