{
	 "smiles": "CC(=CC1=CC=C(Cl)C=C1)C(O)=O", 
	 "Tm": 433.15, 
	 "num_atms": 22, 
	 "gaussian": { 
		 "optdone": 1, 
		 "sigma_profile": "yes", 
		 "theory": "DFT", 
		 "functional": "B3LYP", 
		 "basiset": "6-31G**", 
		 "properties": { 
			 "R2extent": 3780.5622, 
			 "electric_dipole_moment_norm": 1.23034149324, 
			 "electric_quadrupole_moment_norm": 14.8767046637, 
			 "total_energy": -997.130186455, 
			 "HOMO_LUMO_gap": 0.17017, 
			 "cosmo_polarized_energy": -10.65, 
			 "cosmo_cavitation_energy": 28.49, 
			 "cosmo_dispersion_energy": -20.6, 
			 "cosmo_repulsion_energy": 1.65, 
			 "cosmo_total_nonelectrostatic_energy": 9.54, 
			 "SMD_solvation_energy": 5.83 
		},
		"coords": [
			{
				"x": -3.8922173628,
				"y": -1.2634948977,
				"z": -1.082565609,
				"element": "C" 
			},
			{
				"x": -2.5858776347,
				"y": -0.5067325451,
				"z": -1.0288931535,
				"element": "C" 
			},
			{
				"x": -1.5942783331,
				"y": -0.8907881023,
				"z": -0.1945851395,
				"element": "C" 
			},
			{
				"x": -0.2956056651,
				"y": -0.2865234786,
				"z": 0.1497223334,
				"element": "C" 
			},
			{
				"x": -0.0924384301,
				"y": 1.0968434037,
				"z": 0.2920283983,
				"element": "C" 
			},
			{
				"x": 1.1431222518,
				"y": 1.6081585525,
				"z": 0.6772722913,
				"element": "C" 
			},
			{
				"x": 2.1991570187,
				"y": 0.7307961934,
				"z": 0.9268394765,
				"element": "C" 
			},
			{
				"x": 3.7613438483,
				"y": 1.3725671311,
				"z": 1.4102286941,
				"element": "Cl" 
			},
			{
				"x": 2.0272312672,
				"y": -0.6480413863,
				"z": 0.8147204339,
				"element": "C" 
			},
			{
				"x": 0.780125633,
				"y": -1.1435725761,
				"z": 0.4427578707,
				"element": "C" 
			},
			{
				"x": -2.5525254287,
				"y": 0.6496995592,
				"z": -1.9710852908,
				"element": "C" 
			},
			{
				"x": -1.3141715926,
				"y": 1.0385327722,
				"z": -2.3579824101,
				"element": "O" 
			},
			{
				"x": -3.5554424341,
				"y": 1.1748703987,
				"z": -2.416964949,
				"element": "O" 
			},
			{
				"x": -4.7251282874,
				"y": -0.6014786352,
				"z": -0.8256213803,
				"element": "H" 
			},
			{
				"x": -3.8864266159,
				"y": -2.1092510107,
				"z": -0.3911947083,
				"element": "H" 
			},
			{
				"x": -4.0953806174,
				"y": -1.6362545787,
				"z": -2.0927033773,
				"element": "H" 
			},
			{
				"x": -1.7882432158,
				"y": -1.816278813,
				"z": 0.3489792997,
				"element": "H" 
			},
			{
				"x": -0.9136352477,
				"y": 1.7819971678,
				"z": 0.1177480657,
				"element": "H" 
			},
			{
				"x": 1.2868557499,
				"y": 2.676784663,
				"z": 0.7924618556,
				"element": "H" 
			},
			{
				"x": 2.8524007322,
				"y": -1.3197278929,
				"z": 1.0234603385,
				"element": "H" 
			},
			{
				"x": 0.6405794232,
				"y": -2.2185521421,
				"z": 0.3657494519,
				"element": "H" 
			},
			{
				"x": -1.454645059,
				"y": 1.7717462172,
				"z": -2.9805724918,
				"element": "H" 
			}
		],
		 "valence_orbital": [ 
			{
				"type": "occ",
				"energy": -0.31504,
				"method": "rhf"
			},
			{
				"type": "occ",
				"energy": -0.28772,
				"method": "rhf"
			},
			{
				"type": "occ",
				"energy": -0.2794,
				"method": "rhf"
			},
			{
				"type": "occ",
				"energy": -0.26651,
				"method": "rhf"
			},
			{
				"type": "occ",
				"energy": -0.23381,
				"method": "rhf"
			},
			{
				"type": "unocc",
				"energy": -0.06364,
				"method": "rhf"
			},
			{
				"type": "unocc",
				"energy": -0.01659,
				"method": "rhf"
			},
			{
				"type": "unocc",
				"energy": 0.00119,
				"method": "rhf"
			},
			{
				"type": "unocc",
				"energy": 0.02729,
				"method": "rhf"
			},
			{
				"type": "unocc",
				"energy": 0.06681,
				"method": "rhf"
			}
		],
		"cosmo_sigma_profile": { 
			"-0.025": 0.0,
			"-0.024": 0.0,
			"-0.023": 0.0,
			"-0.022": 0.0,
			"-0.021": 0.0,
			"-0.02": 0.0,
			"-0.019": 0.0,
			"-0.018": 0.477003763057,
			"-0.017": 1.05752940069,
			"-0.016": 0.76344844057,
			"-0.015": 0.799512835598,
			"-0.014": 0.543592787165,
			"-0.013": 0.681056458051,
			"-0.012": 0.548957008831,
			"-0.011": 1.10888085259,
			"-0.01": 0.774193859734,
			"-0.009": 0.713631327914,
			"-0.008": 0.888373827212,
			"-0.007": 8.477812051,
			"-0.006": 11.4743619735,
			"-0.005": 14.5895481482,
			"-0.004": 13.5493200948,
			"-0.003": 13.2567255577,
			"-0.002": 14.478653571,
			"-0.001": 18.1655060917,
			"0.0": 18.1949832737,
			"0.001": 19.6325682054,
			"0.002": 19.8334368109,
			"0.003": 19.9960020354,
			"0.004": 16.6444359302,
			"0.005": 9.35468776,
			"0.006": 3.38047293463,
			"0.007": 3.61967335338,
			"0.008": 2.56329056398,
			"0.009": 2.74468063017,
			"0.01": 2.47238778541,
			"0.011": 3.23436656904,
			"0.012": 4.89209266569,
			"0.013": 0.454373105749,
			"0.014": 0.0,
			"0.015": 0.0,
			"0.016": 0.0,
			"0.017": 0.0,
			"0.018": 0.0,
			"0.019": 0.0,
			"0.02": 0.0,
			"0.021": 0.0,
			"0.022": 0.0,
			"0.023": 0.0,
			"0.024": 0.0,
			"0.025": 0.0
		}
	}
}
