{
	 "smiles": "CCC(C)C(O)C(O)=O", 
	 "Tm": 319.15, 
	 "num_atms": 21, 
	 "gaussian": { 
		 "optdone": 1, 
		 "sigma_profile": "yes", 
		 "theory": "DFT", 
		 "functional": "B3LYP", 
		 "basiset": "6-31G**", 
		 "properties": { 
			 "R2extent": 1303.531, 
			 "electric_dipole_moment_norm": 2.08257583295, 
			 "electric_quadrupole_moment_norm": 5.86205438818, 
			 "total_energy": -461.557367905, 
			 "HOMO_LUMO_gap": 0.25867, 
			 "cosmo_polarized_energy": -9.54, 
			 "cosmo_cavitation_energy": 22.87, 
			 "cosmo_dispersion_energy": -16.51, 
			 "cosmo_repulsion_energy": 1.36, 
			 "cosmo_total_nonelectrostatic_energy": 7.72, 
			 "SMD_solvation_energy": 4.93 
		},
		"coords": [
			{
				"x": -1.7895708504,
				"y": 1.2344785957,
				"z": -0.8743600256,
				"element": "C" 
			},
			{
				"x": -1.8821544677,
				"y": -0.064091247,
				"z": -0.0605986229,
				"element": "C" 
			},
			{
				"x": -0.6076330431,
				"y": -0.9383961896,
				"z": 0.0471069204,
				"element": "C" 
			},
			{
				"x": 0.1541408743,
				"y": -1.0877578715,
				"z": -1.276315594,
				"element": "C" 
			},
			{
				"x": 0.3427823358,
				"y": -0.5846795896,
				"z": 1.23273854,
				"element": "C" 
			},
			{
				"x": 1.2751270954,
				"y": -1.6305031955,
				"z": 1.4339727278,
				"element": "O" 
			},
			{
				"x": 1.1272659907,
				"y": 0.7086596681,
				"z": 1.0550598684,
				"element": "C" 
			},
			{
				"x": 0.4582672431,
				"y": 1.8138990233,
				"z": 1.435876103,
				"element": "O" 
			},
			{
				"x": 2.2634770226,
				"y": 0.7390597055,
				"z": 0.6249136825,
				"element": "O" 
			},
			{
				"x": -1.0571045633,
				"y": 1.9310075014,
				"z": -0.4611588527,
				"element": "H" 
			},
			{
				"x": -1.523350467,
				"y": 1.0388179993,
				"z": -1.9177384403,
				"element": "H" 
			},
			{
				"x": -2.7596375422,
				"y": 1.7425734858,
				"z": -0.8764523384,
				"element": "H" 
			},
			{
				"x": -2.6617724373,
				"y": -0.6890903262,
				"z": -0.5145218063,
				"element": "H" 
			},
			{
				"x": -2.2408708195,
				"y": 0.1667016964,
				"z": 0.9512755387,
				"element": "H" 
			},
			{
				"x": -0.946832541,
				"y": -1.9418025659,
				"z": 0.3355978752,
				"element": "H" 
			},
			{
				"x": -0.5123998182,
				"y": -1.4547069958,
				"z": -2.0637534054,
				"element": "H" 
			},
			{
				"x": 0.5859406463,
				"y": -0.1420766589,
				"z": -1.6191715823,
				"element": "H" 
			},
			{
				"x": 0.9683047981,
				"y": -1.8086445829,
				"z": -1.1652923064,
				"element": "H" 
			},
			{
				"x": -0.2663917033,
				"y": -0.4886724854,
				"z": 2.1400580768,
				"element": "H" 
			},
			{
				"x": 2.1048007368,
				"y": -1.3346012025,
				"z": 1.0262834093,
				"element": "H" 
			},
			{
				"x": 1.0477115099,
				"y": 2.5690252354,
				"z": 1.2654802322,
				"element": "H" 
			}
		],
		 "valence_orbital": [ 
			{
				"type": "occ",
				"energy": -0.33271,
				"method": "rhf"
			},
			{
				"type": "occ",
				"energy": -0.32927,
				"method": "rhf"
			},
			{
				"type": "occ",
				"energy": -0.32507,
				"method": "rhf"
			},
			{
				"type": "occ",
				"energy": -0.29172,
				"method": "rhf"
			},
			{
				"type": "occ",
				"energy": -0.2668,
				"method": "rhf"
			},
			{
				"type": "unocc",
				"energy": -0.00813,
				"method": "rhf"
			},
			{
				"type": "unocc",
				"energy": 0.06001,
				"method": "rhf"
			},
			{
				"type": "unocc",
				"energy": 0.08855,
				"method": "rhf"
			},
			{
				"type": "unocc",
				"energy": 0.1078,
				"method": "rhf"
			},
			{
				"type": "unocc",
				"energy": 0.1187,
				"method": "rhf"
			}
		],
		"cosmo_sigma_profile": { 
			"-0.025": 0.0,
			"-0.024": 0.0,
			"-0.023": 0.0,
			"-0.022": 0.0,
			"-0.021": 0.0,
			"-0.02": 0.0,
			"-0.019": 0.399066932468,
			"-0.018": 0.831488131601,
			"-0.017": 1.35732805076,
			"-0.016": 0.434122256487,
			"-0.015": 0.83497724215,
			"-0.014": 0.74247644658,
			"-0.013": 0.500839132016,
			"-0.012": 1.07374573078,
			"-0.011": 1.4631644764,
			"-0.01": 1.40925432712,
			"-0.009": 1.11379640045,
			"-0.008": 1.06704007173,
			"-0.007": 1.17913574458,
			"-0.006": 3.15034577685,
			"-0.005": 4.53298473461,
			"-0.004": 8.36305923523,
			"-0.003": 15.8606315116,
			"-0.002": 22.921927831,
			"-0.001": 20.8588724801,
			"0.0": 20.0957787206,
			"0.001": 19.1158700883,
			"0.002": 10.6750543847,
			"0.003": 3.95314502034,
			"0.004": 4.61214422829,
			"0.005": 3.21683914924,
			"0.006": 3.98276891636,
			"0.007": 3.05932655016,
			"0.008": 3.82939508937,
			"0.009": 2.61057035118,
			"0.01": 4.49563874921,
			"0.011": 4.09344294886,
			"0.012": 1.71769342904,
			"0.013": 2.03997057808,
			"0.014": 1.25775871083,
			"0.015": 0.0,
			"0.016": 0.0,
			"0.017": 0.0,
			"0.018": 0.0,
			"0.019": 0.0,
			"0.02": 0.0,
			"0.021": 0.0,
			"0.022": 0.0,
			"0.023": 0.0,
			"0.024": 0.0,
			"0.025": 0.0
		}
	}
}
