{
	 "smiles": "OCC1=CC(=C(O)C=C1)[N+]([O-])=O", 
	 "Tm": 369.15, 
	 "num_atms": 19, 
	 "gaussian": { 
		 "optdone": 1, 
		 "sigma_profile": "yes", 
		 "theory": "DFT", 
		 "functional": "B3LYP", 
		 "basiset": "6-31G**", 
		 "properties": { 
			 "R2extent": 2385.4822, 
			 "electric_dipole_moment_norm": 4.03004401217, 
			 "electric_quadrupole_moment_norm": 6.93067603845, 
			 "total_energy": -626.504795053, 
			 "HOMO_LUMO_gap": 0.14488, 
			 "cosmo_polarized_energy": -12.01, 
			 "cosmo_cavitation_energy": 23.67, 
			 "cosmo_dispersion_energy": -17.82, 
			 "cosmo_repulsion_energy": 1.42, 
			 "cosmo_total_nonelectrostatic_energy": 7.28, 
			 "SMD_solvation_energy": 6.56 
		},
		"coords": [
			{
				"x": 0.2148755805,
				"y": 1.08586427,
				"z": 2.7088092593,
				"element": "O" 
			},
			{
				"x": -0.0229720582,
				"y": 1.7644207255,
				"z": 1.4886818528,
				"element": "C" 
			},
			{
				"x": -0.0913226427,
				"y": 0.8461340814,
				"z": 0.2810793813,
				"element": "C" 
			},
			{
				"x": 0.5020488655,
				"y": -0.4050443197,
				"z": 0.307307199,
				"element": "C" 
			},
			{
				"x": 0.4558498715,
				"y": -1.238200178,
				"z": -0.8210631404,
				"element": "C" 
			},
			{
				"x": -0.1845588006,
				"y": -0.8287504717,
				"z": -2.0165941593,
				"element": "C" 
			},
			{
				"x": -0.2623953509,
				"y": -1.5725966456,
				"z": -3.1229171269,
				"element": "O" 
			},
			{
				"x": -0.7819401569,
				"y": 0.4457942732,
				"z": -2.0253011885,
				"element": "C" 
			},
			{
				"x": -0.7378922153,
				"y": 1.2551080402,
				"z": -0.9038193761,
				"element": "C" 
			},
			{
				"x": 1.0813422402,
				"y": -2.5396332355,
				"z": -0.7323663298,
				"element": "N" 
			},
			{
				"x": 1.6163182098,
				"y": -2.8789345752,
				"z": 0.3160209291,
				"element": "O" 
			},
			{
				"x": 1.0508731557,
				"y": -3.2807267588,
				"z": -1.744455276,
				"element": "O" 
			},
			{
				"x": -0.5320158305,
				"y": 0.4933284519,
				"z": 2.8693467516,
				"element": "H" 
			},
			{
				"x": -0.9374056963,
				"y": 2.3775403806,
				"z": 1.5331838877,
				"element": "H" 
			},
			{
				"x": 0.8159065047,
				"y": 2.4623644078,
				"z": 1.3792695863,
				"element": "H" 
			},
			{
				"x": 1.0077103228,
				"y": -0.7565888244,
				"z": 1.1979825823,
				"element": "H" 
			},
			{
				"x": 0.2086886748,
				"y": -2.4169106649,
				"z": -2.9189560597,
				"element": "H" 
			},
			{
				"x": -1.2811009653,
				"y": 0.7605486838,
				"z": -2.9352193608,
				"element": "H" 
			},
			{
				"x": -1.2176097087,
				"y": 2.2306823594,
				"z": -0.9395894118,
				"element": "H" 
			}
		],
		 "valence_orbital": [ 
			{
				"type": "occ",
				"energy": -0.31926,
				"method": "rhf"
			},
			{
				"type": "occ",
				"energy": -0.30567,
				"method": "rhf"
			},
			{
				"type": "occ",
				"energy": -0.29182,
				"method": "rhf"
			},
			{
				"type": "occ",
				"energy": -0.28717,
				"method": "rhf"
			},
			{
				"type": "occ",
				"energy": -0.24459,
				"method": "rhf"
			},
			{
				"type": "unocc",
				"energy": -0.09971,
				"method": "rhf"
			},
			{
				"type": "unocc",
				"energy": -0.01862,
				"method": "rhf"
			},
			{
				"type": "unocc",
				"energy": -0.00612,
				"method": "rhf"
			},
			{
				"type": "unocc",
				"energy": 0.06988,
				"method": "rhf"
			},
			{
				"type": "unocc",
				"energy": 0.08425,
				"method": "rhf"
			}
		],
		"cosmo_sigma_profile": { 
			"-0.025": 0.0,
			"-0.024": 0.0,
			"-0.023": 0.0,
			"-0.022": 0.0,
			"-0.021": 0.0,
			"-0.02": 0.0,
			"-0.019": 0.0,
			"-0.018": 0.0,
			"-0.017": 0.0348030148761,
			"-0.016": 0.630941076234,
			"-0.015": 0.889523640268,
			"-0.014": 0.856650789753,
			"-0.013": 0.969460665269,
			"-0.012": 0.6476126236,
			"-0.011": 0.396584681517,
			"-0.01": 1.40355865411,
			"-0.009": 1.94380689191,
			"-0.008": 2.82368706733,
			"-0.007": 9.40305359179,
			"-0.006": 11.2147152875,
			"-0.005": 14.8565216104,
			"-0.004": 12.3194765242,
			"-0.003": 12.5542913269,
			"-0.002": 9.76460846288,
			"-0.001": 12.0021602234,
			"0.0": 13.8978605326,
			"0.001": 13.8079754943,
			"0.002": 12.0994745535,
			"0.003": 7.07942994729,
			"0.004": 5.28752698575,
			"0.005": 4.70420857125,
			"0.006": 6.21076690159,
			"0.007": 8.82624066351,
			"0.008": 6.86724661441,
			"0.009": 7.00518119202,
			"0.01": 4.42749390333,
			"0.011": 1.6503186903,
			"0.012": 1.06339125828,
			"0.013": 1.96853272041,
			"0.014": 1.07455121635,
			"0.015": 0.0,
			"0.016": 0.0,
			"0.017": 0.0,
			"0.018": 0.0,
			"0.019": 0.0,
			"0.02": 0.0,
			"0.021": 0.0,
			"0.022": 0.0,
			"0.023": 0.0,
			"0.024": 0.0,
			"0.025": 0.0
		}
	}
}
