{
	 "smiles": "NC1=NC(=CN=N1)C1=C(Cl)C=CC(Cl)=C1", 
	 "Tm": 449.15, 
	 "num_atms": 21, 
	 "gaussian": { 
		 "optdone": 1, 
		 "sigma_profile": "yes", 
		 "theory": "DFT", 
		 "functional": "B3LYP", 
		 "basiset": "6-31G**", 
		 "properties": { 
			 "R2extent": 5131.7974, 
			 "electric_dipole_moment_norm": 2.62803707927, 
			 "electric_quadrupole_moment_norm": 17.5090863557, 
			 "total_energy": -1485.93244748, 
			 "HOMO_LUMO_gap": 0.15317, 
			 "cosmo_polarized_energy": -13.21, 
			 "cosmo_cavitation_energy": 29.85, 
			 "cosmo_dispersion_energy": -22.27, 
			 "cosmo_repulsion_energy": 1.76, 
			 "cosmo_total_nonelectrostatic_energy": 9.33, 
			 "SMD_solvation_energy": 1.6 
		},
		"coords": [
			{
				"x": 3.7463152541,
				"y": 1.3843799814,
				"z": -1.8456443358,
				"element": "N" 
			},
			{
				"x": 2.7464628879,
				"y": 1.1496371611,
				"z": -0.9589751793,
				"element": "C" 
			},
			{
				"x": 1.5294733572,
				"y": 0.854116983,
				"z": -1.4552071845,
				"element": "N" 
			},
			{
				"x": 0.5920941506,
				"y": 0.5754931736,
				"z": -0.549390585,
				"element": "C" 
			},
			{
				"x": 0.9040206191,
				"y": 0.6424994568,
				"z": 0.8208304068,
				"element": "C" 
			},
			{
				"x": 2.1278658468,
				"y": 0.9742857818,
				"z": 1.2372731406,
				"element": "N" 
			},
			{
				"x": 3.0782395826,
				"y": 1.223141914,
				"z": 0.3522326303,
				"element": "N" 
			},
			{
				"x": -0.775377299,
				"y": 0.3005386131,
				"z": -1.0723073426,
				"element": "C" 
			},
			{
				"x": -1.6628197552,
				"y": -0.6657466169,
				"z": -0.5661850293,
				"element": "C" 
			},
			{
				"x": -1.2056826868,
				"y": -1.7668330591,
				"z": 0.7252857332,
				"element": "Cl" 
			},
			{
				"x": -2.9349238082,
				"y": -0.8326876422,
				"z": -1.1167108632,
				"element": "C" 
			},
			{
				"x": -3.3522507615,
				"y": -0.0423540938,
				"z": -2.1834381887,
				"element": "C" 
			},
			{
				"x": -2.4719983432,
				"y": 0.9053542319,
				"z": -2.7050152241,
				"element": "C" 
			},
			{
				"x": -2.9741000699,
				"y": 1.9009428417,
				"z": -4.0595388303,
				"element": "Cl" 
			},
			{
				"x": -1.2026470159,
				"y": 1.0720828226,
				"z": -2.1668463642,
				"element": "C" 
			},
			{
				"x": 4.61860126,
				"y": 1.742405373,
				"z": -1.4922373613,
				"element": "H" 
			},
			{
				"x": 3.5156250577,
				"y": 1.4895424195,
				"z": -2.8195042675,
				"element": "H" 
			},
			{
				"x": 0.1708289541,
				"y": 0.460709695,
				"z": 1.5958705058,
				"element": "H" 
			},
			{
				"x": -3.5933422816,
				"y": -1.5924199054,
				"z": -0.7111384524,
				"element": "H" 
			},
			{
				"x": -4.3419367509,
				"y": -0.1672081457,
				"z": -2.6078838377,
				"element": "H" 
			},
			{
				"x": -0.5182481979,
				"y": 1.8010190147,
				"z": -2.5830693708,
				"element": "H" 
			}
		],
		 "valence_orbital": [ 
			{
				"type": "occ",
				"energy": -0.32061,
				"method": "rhf"
			},
			{
				"type": "occ",
				"energy": -0.27925,
				"method": "rhf"
			},
			{
				"type": "occ",
				"energy": -0.25614,
				"method": "rhf"
			},
			{
				"type": "occ",
				"energy": -0.24253,
				"method": "rhf"
			},
			{
				"type": "occ",
				"energy": -0.23176,
				"method": "rhf"
			},
			{
				"type": "unocc",
				"energy": -0.07859,
				"method": "rhf"
			},
			{
				"type": "unocc",
				"energy": -0.03433,
				"method": "rhf"
			},
			{
				"type": "unocc",
				"energy": -0.03338,
				"method": "rhf"
			},
			{
				"type": "unocc",
				"energy": -0.00221,
				"method": "rhf"
			},
			{
				"type": "unocc",
				"energy": 0.01087,
				"method": "rhf"
			}
		],
		"cosmo_sigma_profile": { 
			"-0.025": 0.0,
			"-0.024": 0.0,
			"-0.023": 0.0,
			"-0.022": 0.0,
			"-0.021": 0.0,
			"-0.02": 0.0,
			"-0.019": 0.0,
			"-0.018": 0.0,
			"-0.017": 0.0,
			"-0.016": 0.0,
			"-0.015": 0.621416414326,
			"-0.014": 1.89723189484,
			"-0.013": 2.13572502069,
			"-0.012": 2.31615473277,
			"-0.011": 1.42128280197,
			"-0.01": 2.24151654516,
			"-0.009": 3.04430074342,
			"-0.008": 5.31309869721,
			"-0.007": 7.53668539531,
			"-0.006": 8.26020606659,
			"-0.005": 7.58968650595,
			"-0.004": 11.1665286082,
			"-0.003": 13.0278999025,
			"-0.002": 16.7646275332,
			"-0.001": 19.1613064898,
			"0.0": 28.351730166,
			"0.001": 28.749511922,
			"0.002": 17.8305017174,
			"0.003": 19.295264126,
			"0.004": 18.0619166093,
			"0.005": 5.10252291008,
			"0.006": 3.78795269611,
			"0.007": 2.69032629247,
			"0.008": 2.2656409489,
			"0.009": 2.14002149241,
			"0.01": 2.88373839427,
			"0.011": 2.55344423744,
			"0.012": 2.73095811477,
			"0.013": 2.64648212171,
			"0.014": 2.11681768244,
			"0.015": 1.31709672347,
			"0.016": 0.0389102313126,
			"0.017": 0.0,
			"0.018": 0.0,
			"0.019": 0.0,
			"0.02": 0.0,
			"0.021": 0.0,
			"0.022": 0.0,
			"0.023": 0.0,
			"0.024": 0.0,
			"0.025": 0.0
		}
	}
}
