{
	 "smiles": "OC(=O)C1=CC=C(S1)C1=CC=CC=C1", 
	 "Tm": 463.15, 
	 "num_atms": 22, 
	 "gaussian": { 
		 "optdone": 1, 
		 "sigma_profile": "yes", 
		 "theory": "DFT", 
		 "functional": "B3LYP", 
		 "basiset": "6-31G**", 
		 "properties": { 
			 "R2extent": 4046.5836, 
			 "electric_dipole_moment_norm": 5.68196355673, 
			 "electric_quadrupole_moment_norm": 14.1104095252, 
			 "total_energy": -972.626868601, 
			 "HOMO_LUMO_gap": 0.15957, 
			 "cosmo_polarized_energy": -13.89, 
			 "cosmo_cavitation_energy": 28.41, 
			 "cosmo_dispersion_energy": -21.43, 
			 "cosmo_repulsion_energy": 1.62, 
			 "cosmo_total_nonelectrostatic_energy": 8.6, 
			 "SMD_solvation_energy": 5.69 
		},
		"coords": [
			{
				"x": 3.8177135135,
				"y": 0.3227880703,
				"z": -2.0199603869,
				"element": "O" 
			},
			{
				"x": 2.8123218479,
				"y": 1.2362893786,
				"z": -1.9356731176,
				"element": "C" 
			},
			{
				"x": 2.8739258735,
				"y": 2.2641433869,
				"z": -2.5701509989,
				"element": "O" 
			},
			{
				"x": 1.6677763769,
				"y": 0.9162421622,
				"z": -1.0545848778,
				"element": "C" 
			},
			{
				"x": 0.6624930334,
				"y": 1.7983409655,
				"z": -0.7341010289,
				"element": "C" 
			},
			{
				"x": -0.3090350529,
				"y": 1.2504592097,
				"z": 0.1374261043,
				"element": "C" 
			},
			{
				"x": -0.0636610684,
				"y": -0.0611748348,
				"z": 0.4935224567,
				"element": "C" 
			},
			{
				"x": 1.3951130205,
				"y": -0.6319457037,
				"z": -0.2863555036,
				"element": "S" 
			},
			{
				"x": -0.8573298228,
				"y": -0.936853129,
				"z": 1.3640682608,
				"element": "C" 
			},
			{
				"x": -2.2434504533,
				"y": -0.7307238584,
				"z": 1.4943631336,
				"element": "C" 
			},
			{
				"x": -3.0066555672,
				"y": -1.5426012962,
				"z": 2.3295589912,
				"element": "C" 
			},
			{
				"x": -2.4065753991,
				"y": -2.5835634851,
				"z": 3.0419038781,
				"element": "C" 
			},
			{
				"x": -1.0337525386,
				"y": -2.8039157624,
				"z": 2.9144179044,
				"element": "C" 
			},
			{
				"x": -0.2653042376,
				"y": -1.987393081,
				"z": 2.0878259963,
				"element": "C" 
			},
			{
				"x": 3.7027585406,
				"y": -0.3940850902,
				"z": -1.3797779641,
				"element": "H" 
			},
			{
				"x": 0.6550685772,
				"y": 2.8116739121,
				"z": -1.1167355894,
				"element": "H" 
			},
			{
				"x": -1.1539511941,
				"y": 1.8099121086,
				"z": 0.5214229168,
				"element": "H" 
			},
			{
				"x": -2.7240606201,
				"y": 0.0548256557,
				"z": 0.9198645988,
				"element": "H" 
			},
			{
				"x": -4.0754257702,
				"y": -1.3693637222,
				"z": 2.4147952442,
				"element": "H" 
			},
			{
				"x": -3.0042820443,
				"y": -3.2187494364,
				"z": 3.6886893911,
				"element": "H" 
			},
			{
				"x": -0.5568974924,
				"y": -3.6078992007,
				"z": 3.4672349043,
				"element": "H" 
			},
			{
				"x": 0.8064104773,
				"y": -2.1507062495,
				"z": 2.0186456867,
				"element": "H" 
			}
		],
		 "valence_orbital": [ 
			{
				"type": "occ",
				"energy": -0.29045,
				"method": "rhf"
			},
			{
				"type": "occ",
				"energy": -0.27479,
				"method": "rhf"
			},
			{
				"type": "occ",
				"energy": -0.27327,
				"method": "rhf"
			},
			{
				"type": "occ",
				"energy": -0.2672,
				"method": "rhf"
			},
			{
				"type": "occ",
				"energy": -0.23178,
				"method": "rhf"
			},
			{
				"type": "unocc",
				"energy": -0.07221,
				"method": "rhf"
			},
			{
				"type": "unocc",
				"energy": -0.02061,
				"method": "rhf"
			},
			{
				"type": "unocc",
				"energy": -0.01613,
				"method": "rhf"
			},
			{
				"type": "unocc",
				"energy": 0.00013,
				"method": "rhf"
			},
			{
				"type": "unocc",
				"energy": 0.03827,
				"method": "rhf"
			}
		],
		"cosmo_sigma_profile": { 
			"-0.025": 0.0,
			"-0.024": 0.0,
			"-0.023": 0.0,
			"-0.022": 0.0,
			"-0.021": 0.0,
			"-0.02": 0.0,
			"-0.019": 0.0,
			"-0.018": 0.366020743262,
			"-0.017": 0.784562614235,
			"-0.016": 1.15171324002,
			"-0.015": 0.683361962767,
			"-0.014": 0.646701755482,
			"-0.013": 1.00626983452,
			"-0.012": 1.41476387966,
			"-0.011": 1.2408363631,
			"-0.01": 0.428194218334,
			"-0.009": 0.828523516523,
			"-0.008": 2.56845098291,
			"-0.007": 7.15529506904,
			"-0.006": 13.0563863018,
			"-0.005": 16.8343987812,
			"-0.004": 16.1567234384,
			"-0.003": 13.3591984103,
			"-0.002": 12.3113827456,
			"-0.001": 14.9090384584,
			"0.0": 15.2487688003,
			"0.001": 19.554487018,
			"0.002": 24.0227028502,
			"0.003": 17.227468237,
			"0.004": 13.7203418073,
			"0.005": 8.50756672999,
			"0.006": 2.49107265265,
			"0.007": 2.44930621378,
			"0.008": 2.54802050561,
			"0.009": 3.18337561953,
			"0.01": 5.11827365308,
			"0.011": 5.04086715423,
			"0.012": 5.12016130564,
			"0.013": 1.54538451592,
			"0.014": 0.0309741331853,
			"0.015": 0.0,
			"0.016": 0.0,
			"0.017": 0.0,
			"0.018": 0.0,
			"0.019": 0.0,
			"0.02": 0.0,
			"0.021": 0.0,
			"0.022": 0.0,
			"0.023": 0.0,
			"0.024": 0.0,
			"0.025": 0.0
		}
	}
}
