{
	 "smiles": "NC1=NC=NC2=C1C=NN2", 
	 "Tm": 598.15, 
	 "num_atms": 15, 
	 "gaussian": { 
		 "optdone": 1, 
		 "sigma_profile": "yes", 
		 "theory": "DFT", 
		 "functional": "B3LYP", 
		 "basiset": "6-31G**", 
		 "properties": { 
			 "R2extent": 1824.7461, 
			 "electric_dipole_moment_norm": 2.57333629555, 
			 "electric_quadrupole_moment_norm": 8.13076527395, 
			 "total_energy": -467.297040843, 
			 "HOMO_LUMO_gap": 0.19615, 
			 "cosmo_polarized_energy": -15.39, 
			 "cosmo_cavitation_energy": 19.6, 
			 "cosmo_dispersion_energy": -15.21, 
			 "cosmo_repulsion_energy": 1.23, 
			 "cosmo_total_nonelectrostatic_energy": 5.62, 
			 "SMD_solvation_energy": -0.53 
		},
		"coords": [
			{
				"x": -0.1397369017,
				"y": -0.3809017962,
				"z": -1.8998684083,
				"element": "N" 
			},
			{
				"x": 0.8024320349,
				"y": -0.8691855613,
				"z": -1.0475269309,
				"element": "C" 
			},
			{
				"x": 1.8275122771,
				"y": -1.5444273053,
				"z": -1.58681714,
				"element": "N" 
			},
			{
				"x": 2.7864559814,
				"y": -2.0093447012,
				"z": -0.7634861419,
				"element": "C" 
			},
			{
				"x": 2.8729681469,
				"y": -1.9034828814,
				"z": 0.5605401481,
				"element": "N" 
			},
			{
				"x": 1.8328226827,
				"y": -1.2244464869,
				"z": 1.0724687867,
				"element": "C" 
			},
			{
				"x": 0.7544942557,
				"y": -0.6672194908,
				"z": 0.3542383563,
				"element": "C" 
			},
			{
				"x": -0.0650256125,
				"y": -0.056966567,
				"z": 1.3492317912,
				"element": "C" 
			},
			{
				"x": 0.4482347896,
				"y": -0.21926067,
				"z": 2.557327954,
				"element": "N" 
			},
			{
				"x": 1.5984357646,
				"y": -0.9290967685,
				"z": 2.3783765903,
				"element": "N" 
			},
			{
				"x": -0.0903181323,
				"y": -0.7017102725,
				"z": -2.8551695202,
				"element": "H" 
			},
			{
				"x": -1.0325086847,
				"y": -0.0761254473,
				"z": -1.5488458128,
				"element": "H" 
			},
			{
				"x": 3.5951472274,
				"y": -2.5477581277,
				"z": -1.2541568267,
				"element": "H" 
			},
			{
				"x": -0.9918612175,
				"y": 0.4905139182,
				"z": 1.2378141235,
				"element": "H" 
			},
			{
				"x": 2.1701473883,
				"y": -1.1707878421,
				"z": 3.1727730307,
				"element": "H" 
			}
		],
		 "valence_orbital": [ 
			{
				"type": "occ",
				"energy": -0.28811,
				"method": "rhf"
			},
			{
				"type": "occ",
				"energy": -0.28231,
				"method": "rhf"
			},
			{
				"type": "occ",
				"energy": -0.26743,
				"method": "rhf"
			},
			{
				"type": "occ",
				"energy": -0.25784,
				"method": "rhf"
			},
			{
				"type": "occ",
				"energy": -0.22818,
				"method": "rhf"
			},
			{
				"type": "unocc",
				"energy": -0.03203,
				"method": "rhf"
			},
			{
				"type": "unocc",
				"energy": 0.00532,
				"method": "rhf"
			},
			{
				"type": "unocc",
				"energy": 0.04653,
				"method": "rhf"
			},
			{
				"type": "unocc",
				"energy": 0.06468,
				"method": "rhf"
			},
			{
				"type": "unocc",
				"energy": 0.09179,
				"method": "rhf"
			}
		],
		"cosmo_sigma_profile": { 
			"-0.025": 0.0,
			"-0.024": 0.0,
			"-0.023": 0.0,
			"-0.022": 0.0,
			"-0.021": 0.0,
			"-0.02": 0.0,
			"-0.019": 0.0,
			"-0.018": 0.0,
			"-0.017": 0.490189166767,
			"-0.016": 1.62631311258,
			"-0.015": 1.59031910562,
			"-0.014": 3.1010780611,
			"-0.013": 2.52663292445,
			"-0.012": 4.0702408156,
			"-0.011": 3.92990297311,
			"-0.01": 3.41329196229,
			"-0.009": 3.70904150291,
			"-0.008": 3.46046097063,
			"-0.007": 5.25315214451,
			"-0.006": 5.91466924119,
			"-0.005": 4.81032970339,
			"-0.004": 4.39452086661,
			"-0.003": 3.5176249485,
			"-0.002": 5.28055489899,
			"-0.001": 7.35929862756,
			"0.0": 12.1335781173,
			"0.001": 15.4335273885,
			"0.002": 11.6260486252,
			"0.003": 7.07486856476,
			"0.004": 6.70631078065,
			"0.005": 5.9752737193,
			"0.006": 4.20390091224,
			"0.007": 4.1118069712,
			"0.008": 5.26935310679,
			"0.009": 2.45675692213,
			"0.01": 2.78403383932,
			"0.011": 3.58605879476,
			"0.012": 2.79226601245,
			"0.013": 3.41960828096,
			"0.014": 2.61338776999,
			"0.015": 2.09438853996,
			"0.016": 0.708700388717,
			"0.017": 0.0,
			"0.018": 0.0,
			"0.019": 0.0,
			"0.02": 0.0,
			"0.021": 0.0,
			"0.022": 0.0,
			"0.023": 0.0,
			"0.024": 0.0,
			"0.025": 0.0
		}
	}
}
