{
	 "smiles": "OC(=O)CCC1=NC2=C(C=CC(=C2)C(F)(F)F)N(CC2=CC=CC=C2)C1=O", 
	 "Tm": 445.15, 
	 "num_atms": 42, 
	 "gaussian": { 
		 "optdone": 1, 
		 "sigma_profile": "yes", 
		 "theory": "DFT", 
		 "functional": "B3LYP", 
		 "basiset": "6-31G**", 
		 "properties": { 
			 "R2extent": 11233.9167, 
			 "electric_dipole_moment_norm": 5.93088770843, 
			 "electric_quadrupole_moment_norm": 21.5266350996, 
			 "total_energy": -1367.80286423, 
			 "HOMO_LUMO_gap": 0.15942, 
			 "cosmo_polarized_energy": -18.65, 
			 "cosmo_cavitation_energy": 46.88, 
			 "cosmo_dispersion_energy": -31.83, 
			 "cosmo_repulsion_energy": 2.31, 
			 "cosmo_total_nonelectrostatic_energy": 17.36, 
			 "SMD_solvation_energy": 8.34 
		},
		"coords": [
			{
				"x": -2.2531921705,
				"y": -1.9190567005,
				"z": 2.2426982108,
				"element": "O" 
			},
			{
				"x": -1.8163825247,
				"y": -1.5101101661,
				"z": 3.461194506,
				"element": "C" 
			},
			{
				"x": -2.5167557236,
				"y": -0.8354363254,
				"z": 4.1759756729,
				"element": "O" 
			},
			{
				"x": -0.3986731996,
				"y": -1.9456279029,
				"z": 3.8240710391,
				"element": "C" 
			},
			{
				"x": 0.6869912034,
				"y": -0.9191535155,
				"z": 3.4112930208,
				"element": "C" 
			},
			{
				"x": 0.6474742158,
				"y": -0.3296133248,
				"z": 2.0161325793,
				"element": "C" 
			},
			{
				"x": 0.8821028668,
				"y": 0.9407572527,
				"z": 1.8982635296,
				"element": "N" 
			},
			{
				"x": 0.912489581,
				"y": 1.515146897,
				"z": 0.6450308478,
				"element": "C" 
			},
			{
				"x": 0.6776773452,
				"y": 0.7652505914,
				"z": -0.5326445843,
				"element": "C" 
			},
			{
				"x": 0.708329476,
				"y": 1.4119027715,
				"z": -1.783149425,
				"element": "C" 
			},
			{
				"x": 0.9807329249,
				"y": 2.7679002587,
				"z": -1.849552597,
				"element": "C" 
			},
			{
				"x": 1.2243240021,
				"y": 3.5146155068,
				"z": -0.6825381717,
				"element": "C" 
			},
			{
				"x": 1.1850242316,
				"y": 2.8918883407,
				"z": 0.5522790457,
				"element": "C" 
			},
			{
				"x": 1.4899891029,
				"y": 4.9903023657,
				"z": -0.8043816208,
				"element": "C" 
			},
			{
				"x": 2.4466085167,
				"y": 5.2410458588,
				"z": -1.7281671858,
				"element": "F" 
			},
			{
				"x": 0.3845242339,
				"y": 5.6603261289,
				"z": -1.2019327745,
				"element": "F" 
			},
			{
				"x": 1.8947021437,
				"y": 5.533464617,
				"z": 0.360933721,
				"element": "F" 
			},
			{
				"x": 0.4250412949,
				"y": -0.5966328693,
				"z": -0.3940475265,
				"element": "N" 
			},
			{
				"x": 0.1692024165,
				"y": -1.4464992696,
				"z": -1.5743585482,
				"element": "C" 
			},
			{
				"x": -1.1920258542,
				"y": -1.2321830819,
				"z": -2.2123498536,
				"element": "C" 
			},
			{
				"x": -2.3495933078,
				"y": -1.0920608308,
				"z": -1.435527159,
				"element": "C" 
			},
			{
				"x": -3.5938221964,
				"y": -0.9487129967,
				"z": -2.0500332284,
				"element": "C" 
			},
			{
				"x": -3.6987767287,
				"y": -0.9508319635,
				"z": -3.4427122096,
				"element": "C" 
			},
			{
				"x": -2.5504757763,
				"y": -1.0959070929,
				"z": -4.2216924944,
				"element": "C" 
			},
			{
				"x": -1.304151967,
				"y": -1.2324434713,
				"z": -3.6079047257,
				"element": "C" 
			},
			{
				"x": 0.3997547232,
				"y": -1.2099839794,
				"z": 0.8500968861,
				"element": "C" 
			},
			{
				"x": 0.1576144568,
				"y": -2.4221664983,
				"z": 0.9646705181,
				"element": "O" 
			},
			{
				"x": -1.5389177712,
				"y": -2.4087667352,
				"z": 1.7887910646,
				"element": "H" 
			},
			{
				"x": -0.365146029,
				"y": -2.0412387277,
				"z": 4.9117844066,
				"element": "H" 
			},
			{
				"x": -0.1755406081,
				"y": -2.9184195482,
				"z": 3.3826047528,
				"element": "H" 
			},
			{
				"x": 1.6628358407,
				"y": -1.4062613167,
				"z": 3.5432606658,
				"element": "H" 
			},
			{
				"x": 0.6638410529,
				"y": -0.0637760761,
				"z": 4.0901949339,
				"element": "H" 
			},
			{
				"x": 0.4971117822,
				"y": 0.8659824162,
				"z": -2.6926026997,
				"element": "H" 
			},
			{
				"x": 1.0060029146,
				"y": 3.2600483126,
				"z": -2.8161932203,
				"element": "H" 
			},
			{
				"x": 1.3633208116,
				"y": 3.4363994122,
				"z": 1.4716417269,
				"element": "H" 
			},
			{
				"x": 0.9674495189,
				"y": -1.2704443148,
				"z": -2.3009581931,
				"element": "H" 
			},
			{
				"x": 0.2637053781,
				"y": -2.4715737134,
				"z": -1.2121602191,
				"element": "H" 
			},
			{
				"x": -2.2910816324,
				"y": -1.0938898494,
				"z": -0.35093139,
				"element": "H" 
			},
			{
				"x": -4.4827320609,
				"y": -0.838337968,
				"z": -1.436161637,
				"element": "H" 
			},
			{
				"x": -4.6693654381,
				"y": -0.8389430629,
				"z": -3.9167951004,
				"element": "H" 
			},
			{
				"x": -2.621053657,
				"y": -1.0969647873,
				"z": -5.3055386878,
				"element": "H" 
			},
			{
				"x": -0.4116633891,
				"y": -1.3445946415,
				"z": -4.2200838758,
				"element": "H" 
			}
		],
		 "valence_orbital": [ 
			{
				"type": "occ",
				"energy": -0.27463,
				"method": "rhf"
			},
			{
				"type": "occ",
				"energy": -0.26401,
				"method": "rhf"
			},
			{
				"type": "occ",
				"energy": -0.25986,
				"method": "rhf"
			},
			{
				"type": "occ",
				"energy": -0.2578,
				"method": "rhf"
			},
			{
				"type": "occ",
				"energy": -0.25149,
				"method": "rhf"
			},
			{
				"type": "unocc",
				"energy": -0.09207,
				"method": "rhf"
			},
			{
				"type": "unocc",
				"energy": -0.04626,
				"method": "rhf"
			},
			{
				"type": "unocc",
				"energy": -0.02524,
				"method": "rhf"
			},
			{
				"type": "unocc",
				"energy": -0.0174,
				"method": "rhf"
			},
			{
				"type": "unocc",
				"energy": -0.01411,
				"method": "rhf"
			}
		],
		"cosmo_sigma_profile": { 
			"-0.025": 0.0,
			"-0.024": 0.0,
			"-0.023": 0.0,
			"-0.022": 0.0,
			"-0.021": 0.0,
			"-0.02": 0.0,
			"-0.019": 0.0,
			"-0.018": 0.0,
			"-0.017": 0.0,
			"-0.016": 0.0,
			"-0.015": 0.0,
			"-0.014": 0.0,
			"-0.013": 0.0,
			"-0.012": 0.0,
			"-0.011": 0.0,
			"-0.01": 0.439540500812,
			"-0.009": 2.16208571712,
			"-0.008": 5.94907814667,
			"-0.007": 12.5809005548,
			"-0.006": 23.8045954564,
			"-0.005": 28.0272459511,
			"-0.004": 33.3931401729,
			"-0.003": 27.3083483924,
			"-0.002": 21.6407478153,
			"-0.001": 23.0859503379,
			"0.0": 28.9259752882,
			"0.001": 30.2638630302,
			"0.002": 33.7159469428,
			"0.003": 36.5000604125,
			"0.004": 13.4432396836,
			"0.005": 12.8685468802,
			"0.006": 5.58245599033,
			"0.007": 4.10516267953,
			"0.008": 4.05526312974,
			"0.009": 4.77277528419,
			"0.01": 5.40828478722,
			"0.011": 7.31913626754,
			"0.012": 6.60325398188,
			"0.013": 3.19512940252,
			"0.014": 0.382082177219,
			"0.015": 0.0,
			"0.016": 0.0,
			"0.017": 0.0,
			"0.018": 0.0,
			"0.019": 0.0,
			"0.02": 0.0,
			"0.021": 0.0,
			"0.022": 0.0,
			"0.023": 0.0,
			"0.024": 0.0,
			"0.025": 0.0
		}
	}
}
