{
	 "smiles": "OC1=C(Br)C=C(C=O)C=C1", 
	 "Tm": 400.15, 
	 "num_atms": 15, 
	 "gaussian": { 
		 "optdone": 1, 
		 "sigma_profile": "yes", 
		 "theory": "DFT", 
		 "functional": "B3LYP", 
		 "basiset": "6-31G**", 
		 "properties": { 
			 "R2extent": 3818.2536, 
			 "electric_dipole_moment_norm": 2.8120790565, 
			 "electric_quadrupole_moment_norm": 12.9425476109, 
			 "total_energy": -2991.59498856, 
			 "HOMO_LUMO_gap": 0.17884, 
			 "cosmo_polarized_energy": -13.42, 
			 "cosmo_cavitation_energy": 22.35, 
			 "cosmo_dispersion_energy": -16.87, 
			 "cosmo_repulsion_energy": 1.36, 
			 "cosmo_total_nonelectrostatic_energy": 6.84, 
			 "SMD_solvation_energy": 4.26 
		},
		"coords": [
			{
				"x": -1.4128840634,
				"y": 1.4220223032,
				"z": 1.7124402241,
				"element": "O" 
			},
			{
				"x": -0.4155026032,
				"y": 1.2435040906,
				"z": 0.8166957587,
				"element": "C" 
			},
			{
				"x": -0.0577008971,
				"y": 2.3214128319,
				"z": -0.0128345699,
				"element": "C" 
			},
			{
				"x": -0.976863174,
				"y": 3.9799422096,
				"z": 0.1480202138,
				"element": "Br" 
			},
			{
				"x": 0.9609407695,
				"y": 2.1770044517,
				"z": -0.9445210829,
				"element": "C" 
			},
			{
				"x": 1.6433739732,
				"y": 0.9596513609,
				"z": -1.0699360474,
				"element": "C" 
			},
			{
				"x": 2.7250423446,
				"y": 0.8180658218,
				"z": -2.0643882073,
				"element": "C" 
			},
			{
				"x": 3.3695807424,
				"y": -0.1987434809,
				"z": -2.241782981,
				"element": "O" 
			},
			{
				"x": 1.2886950027,
				"y": -0.1174749801,
				"z": -0.2438116293,
				"element": "C" 
			},
			{
				"x": 0.2720550958,
				"y": 0.0243855621,
				"z": 0.6869970929,
				"element": "C" 
			},
			{
				"x": -1.5486613295,
				"y": 0.6040210141,
				"z": 2.2093670093,
				"element": "H" 
			},
			{
				"x": 1.2262856759,
				"y": 3.0180107106,
				"z": -1.5782537423,
				"element": "H" 
			},
			{
				"x": 2.9228239831,
				"y": 1.7339532519,
				"z": -2.6654019857,
				"element": "H" 
			},
			{
				"x": 1.8259871109,
				"y": -1.0539184116,
				"z": -0.3523642013,
				"element": "H" 
			},
			{
				"x": -0.0063726309,
				"y": -0.808236736,
				"z": 1.3297741481,
				"element": "H" 
			}
		],
		 "valence_orbital": [ 
			{
				"type": "occ",
				"energy": -0.32158,
				"method": "rhf"
			},
			{
				"type": "occ",
				"energy": -0.29196,
				"method": "rhf"
			},
			{
				"type": "occ",
				"energy": -0.26684,
				"method": "rhf"
			},
			{
				"type": "occ",
				"energy": -0.25765,
				"method": "rhf"
			},
			{
				"type": "occ",
				"energy": -0.24209,
				"method": "rhf"
			},
			{
				"type": "unocc",
				"energy": -0.06325,
				"method": "rhf"
			},
			{
				"type": "unocc",
				"energy": -0.02893,
				"method": "rhf"
			},
			{
				"type": "unocc",
				"energy": 0.00024,
				"method": "rhf"
			},
			{
				"type": "unocc",
				"energy": 0.03759,
				"method": "rhf"
			},
			{
				"type": "unocc",
				"energy": 0.0484,
				"method": "rhf"
			}
		],
		"cosmo_sigma_profile": { 
			"-0.025": 0.0,
			"-0.024": 0.0,
			"-0.023": 0.0,
			"-0.022": 0.0,
			"-0.021": 0.0,
			"-0.02": 0.108788259647,
			"-0.019": 1.07124789193,
			"-0.018": 1.29242261981,
			"-0.017": 0.94760712765,
			"-0.016": 1.06310859864,
			"-0.015": 1.34388950003,
			"-0.014": 0.383846948216,
			"-0.013": 1.44896532052,
			"-0.012": 1.00866882673,
			"-0.011": 0.847995849834,
			"-0.01": 1.24766617345,
			"-0.009": 2.1763257541,
			"-0.008": 4.61886450905,
			"-0.007": 5.81768831885,
			"-0.006": 8.5710820351,
			"-0.005": 7.41398101436,
			"-0.004": 8.13351119771,
			"-0.003": 7.97106636696,
			"-0.002": 7.97631490247,
			"-0.001": 9.99603424441,
			"0.0": 14.2939605239,
			"0.001": 19.9734827473,
			"0.002": 17.889106155,
			"0.003": 11.5615839527,
			"0.004": 10.992509136,
			"0.005": 6.76129695345,
			"0.006": 3.32848915312,
			"0.007": 3.90915718429,
			"0.008": 3.72572947496,
			"0.009": 3.72459338795,
			"0.01": 4.37935376488,
			"0.011": 4.12717512563,
			"0.012": 3.36185473763,
			"0.013": 1.14034118789,
			"0.014": 0.0261282457468,
			"0.015": 0.0,
			"0.016": 0.0,
			"0.017": 0.0,
			"0.018": 0.0,
			"0.019": 0.0,
			"0.02": 0.0,
			"0.021": 0.0,
			"0.022": 0.0,
			"0.023": 0.0,
			"0.024": 0.0,
			"0.025": 0.0
		}
	}
}
