{
	 "smiles": "OC1=CC(=CC=C1)C1=NN=C2CCCCCN12", 
	 "Tm": 518.15, 
	 "num_atms": 32, 
	 "gaussian": { 
		 "optdone": 1, 
		 "sigma_profile": "yes", 
		 "theory": "DFT", 
		 "functional": "B3LYP", 
		 "basiset": "6-31G**", 
		 "properties": { 
			 "R2extent": 4929.0579, 
			 "electric_dipole_moment_norm": 5.74612682074, 
			 "electric_quadrupole_moment_norm": 19.4051537348, 
			 "total_energy": -743.899103583, 
			 "HOMO_LUMO_gap": 0.19443, 
			 "cosmo_polarized_energy": -21.44, 
			 "cosmo_cavitation_energy": 33.85, 
			 "cosmo_dispersion_energy": -24.79, 
			 "cosmo_repulsion_energy": 1.92, 
			 "cosmo_total_nonelectrostatic_energy": 10.98, 
			 "SMD_solvation_energy": 2.79 
		},
		"coords": [
			{
				"x": -1.3986708644,
				"y": 1.4759258948,
				"z": -4.1650634672,
				"element": "O" 
			},
			{
				"x": -0.3817114945,
				"y": 1.8059689275,
				"z": -3.3132179185,
				"element": "C" 
			},
			{
				"x": -0.3546141499,
				"y": 1.1549210009,
				"z": -2.0756981088,
				"element": "C" 
			},
			{
				"x": 0.6601075035,
				"y": 1.4397049086,
				"z": -1.1518388371,
				"element": "C" 
			},
			{
				"x": 1.6331373428,
				"y": 2.4043560506,
				"z": -1.4676216077,
				"element": "C" 
			},
			{
				"x": 1.5908313628,
				"y": 3.0521369611,
				"z": -2.6982076908,
				"element": "C" 
			},
			{
				"x": 0.5947170047,
				"y": 2.7543252539,
				"z": -3.6306935444,
				"element": "C" 
			},
			{
				"x": 0.7126554367,
				"y": 0.8041686575,
				"z": 0.1746901919,
				"element": "C" 
			},
			{
				"x": 1.0213160336,
				"y": 1.4514896183,
				"z": 1.281754558,
				"element": "N" 
			},
			{
				"x": 0.9632271429,
				"y": 0.5581440128,
				"z": 2.3236846133,
				"element": "N" 
			},
			{
				"x": 0.6227337971,
				"y": -0.6125103823,
				"z": 1.8289871377,
				"element": "C" 
			},
			{
				"x": 0.4516000706,
				"y": -1.8611361868,
				"z": 2.6327155606,
				"element": "C" 
			},
			{
				"x": 1.4215624237,
				"y": -3.0006594218,
				"z": 2.2640653952,
				"element": "C" 
			},
			{
				"x": 1.1361216703,
				"y": -3.668725129,
				"z": 0.9112238305,
				"element": "C" 
			},
			{
				"x": 1.2719805075,
				"y": -2.7648588486,
				"z": -0.324809112,
				"element": "C" 
			},
			{
				"x": 0.2315047317,
				"y": -1.6423148148,
				"z": -0.4524484473,
				"element": "C" 
			},
			{
				"x": 0.4511882672,
				"y": -0.5231935678,
				"z": 0.4669796059,
				"element": "N" 
			},
			{
				"x": -1.3318828894,
				"y": 2.0174051258,
				"z": -4.9621165718,
				"element": "H" 
			},
			{
				"x": -1.1586803897,
				"y": 0.4654460526,
				"z": -1.8432039841,
				"element": "H" 
			},
			{
				"x": 2.4004523728,
				"y": 2.6346682833,
				"z": -0.7379453704,
				"element": "H" 
			},
			{
				"x": 2.3434650211,
				"y": 3.796061423,
				"z": -2.9423679428,
				"element": "H" 
			},
			{
				"x": 0.5714747167,
				"y": 3.2606716352,
				"z": -4.5933798418,
				"element": "H" 
			},
			{
				"x": 0.5999425079,
				"y": -1.5652446776,
				"z": 3.6745307047,
				"element": "H" 
			},
			{
				"x": -0.5831236668,
				"y": -2.2248060493,
				"z": 2.5489109205,
				"element": "H" 
			},
			{
				"x": 2.4489587081,
				"y": -2.6153510333,
				"z": 2.2811519863,
				"element": "H" 
			},
			{
				"x": 1.3632740524,
				"y": -3.7657783661,
				"z": 3.0473076037,
				"element": "H" 
			},
			{
				"x": 0.1224887024,
				"y": -4.0954821053,
				"z": 0.928017967,
				"element": "H" 
			},
			{
				"x": 1.8192738276,
				"y": -4.5181092479,
				"z": 0.789886735,
				"element": "H" 
			},
			{
				"x": 2.2749415762,
				"y": -2.3212622685,
				"z": -0.3649908934,
				"element": "H" 
			},
			{
				"x": 1.1719194715,
				"y": -3.3891666485,
				"z": -1.2213529182,
				"element": "H" 
			},
			{
				"x": -0.7792328566,
				"y": -2.0419884682,
				"z": -0.2973521148,
				"element": "H" 
			},
			{
				"x": 0.2661420593,
				"y": -1.2327065901,
				"z": -1.4619984392,
				"element": "H" 
			}
		],
		 "valence_orbital": [ 
			{
				"type": "occ",
				"energy": -0.27676,
				"method": "rhf"
			},
			{
				"type": "occ",
				"energy": -0.2705,
				"method": "rhf"
			},
			{
				"type": "occ",
				"energy": -0.23694,
				"method": "rhf"
			},
			{
				"type": "occ",
				"energy": -0.23357,
				"method": "rhf"
			},
			{
				"type": "occ",
				"energy": -0.21932,
				"method": "rhf"
			},
			{
				"type": "unocc",
				"energy": -0.02489,
				"method": "rhf"
			},
			{
				"type": "unocc",
				"energy": 0.00376,
				"method": "rhf"
			},
			{
				"type": "unocc",
				"energy": 0.03715,
				"method": "rhf"
			},
			{
				"type": "unocc",
				"energy": 0.06188,
				"method": "rhf"
			},
			{
				"type": "unocc",
				"energy": 0.06669,
				"method": "rhf"
			}
		],
		"cosmo_sigma_profile": { 
			"-0.025": 0.0,
			"-0.024": 0.0,
			"-0.023": 0.0,
			"-0.022": 0.0,
			"-0.021": 0.0,
			"-0.02": 0.0,
			"-0.019": 0.0,
			"-0.018": 0.481856527437,
			"-0.017": 1.06559512161,
			"-0.016": 1.40714505061,
			"-0.015": 1.08436859661,
			"-0.014": 0.749455616578,
			"-0.013": 1.14682346301,
			"-0.012": 0.829969532634,
			"-0.011": 0.949912770856,
			"-0.01": 1.15183789232,
			"-0.009": 1.11525568222,
			"-0.008": 1.02590328377,
			"-0.007": 2.8340580105,
			"-0.006": 12.3978962935,
			"-0.005": 18.4945879238,
			"-0.004": 25.4046420312,
			"-0.003": 32.0277691361,
			"-0.002": 28.7396366242,
			"-0.001": 24.0463941326,
			"0.0": 17.6231681952,
			"0.001": 10.0520793771,
			"0.002": 9.55462064913,
			"0.003": 12.7224721826,
			"0.004": 13.2434763026,
			"0.005": 10.3957013829,
			"0.006": 3.15719023305,
			"0.007": 3.57478766628,
			"0.008": 4.27492307077,
			"0.009": 2.88022924526,
			"0.01": 3.62228806366,
			"0.011": 3.94075071384,
			"0.012": 2.76741302199,
			"0.013": 2.47523307434,
			"0.014": 3.48817136196,
			"0.015": 3.26999008392,
			"0.016": 2.18903184555,
			"0.017": 2.37812614458,
			"0.018": 0.520419859627,
			"0.019": 0.0,
			"0.02": 0.0,
			"0.021": 0.0,
			"0.022": 0.0,
			"0.023": 0.0,
			"0.024": 0.0,
			"0.025": 0.0
		}
	}
}
