{
	 "smiles": "OC(=O)C1=C2C=CC=C3CCC(C=C1)=C23", 
	 "Tm": 495.15, 
	 "num_atms": 25, 
	 "gaussian": { 
		 "optdone": 1, 
		 "sigma_profile": "yes", 
		 "theory": "DFT", 
		 "functional": "B3LYP", 
		 "basiset": "6-31G**", 
		 "properties": { 
			 "R2extent": 3193.4999, 
			 "electric_dipole_moment_norm": 6.06441356357, 
			 "electric_quadrupole_moment_norm": 13.1315491078, 
			 "total_energy": -651.88256527, 
			 "HOMO_LUMO_gap": 0.16185, 
			 "cosmo_polarized_energy": -13.02, 
			 "cosmo_cavitation_energy": 27.95, 
			 "cosmo_dispersion_energy": -21.09, 
			 "cosmo_repulsion_energy": 1.62, 
			 "cosmo_total_nonelectrostatic_energy": 8.48, 
			 "SMD_solvation_energy": 4.96 
		},
		"coords": [
			{
				"x": -2.5120991568,
				"y": -1.8372693613,
				"z": 0.1141113689,
				"element": "O" 
			},
			{
				"x": -2.2846676677,
				"y": -0.7281969391,
				"z": -0.6470235122,
				"element": "C" 
			},
			{
				"x": -3.0652083134,
				"y": -0.4352740051,
				"z": -1.5221877331,
				"element": "O" 
			},
			{
				"x": -1.0290146794,
				"y": 0.0366173018,
				"z": -0.3576434361,
				"element": "C" 
			},
			{
				"x": -0.4216732061,
				"y": 0.1397001104,
				"z": 0.9407732813,
				"element": "C" 
			},
			{
				"x": -0.9062082789,
				"y": -0.3380582916,
				"z": 2.1944419019,
				"element": "C" 
			},
			{
				"x": -0.1731949148,
				"y": -0.1362803849,
				"z": 3.3521609391,
				"element": "C" 
			},
			{
				"x": 1.0692323636,
				"y": 0.5489643641,
				"z": 3.3624326542,
				"element": "C" 
			},
			{
				"x": 1.5507256931,
				"y": 1.0515682893,
				"z": 2.1737556172,
				"element": "C" 
			},
			{
				"x": 2.8007019419,
				"y": 1.8468896333,
				"z": 1.8433469918,
				"element": "C" 
			},
			{
				"x": 2.7058565653,
				"y": 2.1214707637,
				"z": 0.3046850172,
				"element": "C" 
			},
			{
				"x": 1.4139262588,
				"y": 1.4566690864,
				"z": -0.1305276608,
				"element": "C" 
			},
			{
				"x": 0.7857722447,
				"y": 1.3788407562,
				"z": -1.3546792632,
				"element": "C" 
			},
			{
				"x": -0.4355560144,
				"y": 0.6698978252,
				"z": -1.444123863,
				"element": "C" 
			},
			{
				"x": 0.8045771882,
				"y": 0.8495989018,
				"z": 0.9904732545,
				"element": "C" 
			},
			{
				"x": -1.7341691644,
				"y": -2.025026698,
				"z": 0.6589231519,
				"element": "H" 
			},
			{
				"x": -1.8744402397,
				"y": -0.8228062864,
				"z": 2.2646175771,
				"element": "H" 
			},
			{
				"x": -0.5722905412,
				"y": -0.5066935785,
				"z": 4.2924073818,
				"element": "H" 
			},
			{
				"x": 1.6055194274,
				"y": 0.6803492191,
				"z": 4.298063393,
				"element": "H" 
			},
			{
				"x": 2.8434181847,
				"y": 2.7796367204,
				"z": 2.4167719664,
				"element": "H" 
			},
			{
				"x": 3.7075849021,
				"y": 1.2860593379,
				"z": 2.0964604581,
				"element": "H" 
			},
			{
				"x": 2.6912900264,
				"y": 3.1952969309,
				"z": 0.0867661995,
				"element": "H" 
			},
			{
				"x": 3.5665724499,
				"y": 1.708615102,
				"z": -0.2336068538,
				"element": "H" 
			},
			{
				"x": 1.2046310334,
				"y": 1.8402112193,
				"z": -2.2443745691,
				"element": "H" 
			},
			{
				"x": -0.9429861026,
				"y": 0.594719983,
				"z": -2.4005242627,
				"element": "H" 
			}
		],
		 "valence_orbital": [ 
			{
				"type": "occ",
				"energy": -0.30848,
				"method": "rhf"
			},
			{
				"type": "occ",
				"energy": -0.28975,
				"method": "rhf"
			},
			{
				"type": "occ",
				"energy": -0.26571,
				"method": "rhf"
			},
			{
				"type": "occ",
				"energy": -0.25638,
				"method": "rhf"
			},
			{
				"type": "occ",
				"energy": -0.22131,
				"method": "rhf"
			},
			{
				"type": "unocc",
				"energy": -0.05946,
				"method": "rhf"
			},
			{
				"type": "unocc",
				"energy": -0.02427,
				"method": "rhf"
			},
			{
				"type": "unocc",
				"energy": -0.00761,
				"method": "rhf"
			},
			{
				"type": "unocc",
				"energy": 0.04779,
				"method": "rhf"
			},
			{
				"type": "unocc",
				"energy": 0.08776,
				"method": "rhf"
			}
		],
		"cosmo_sigma_profile": { 
			"-0.025": 0.0,
			"-0.024": 0.0,
			"-0.023": 0.0,
			"-0.022": 0.0,
			"-0.021": 0.0,
			"-0.02": 0.0,
			"-0.019": 0.0,
			"-0.018": 0.0,
			"-0.017": 0.06713347491,
			"-0.016": 0.543279902374,
			"-0.015": 0.956510242516,
			"-0.014": 0.491964064853,
			"-0.013": 0.691958639448,
			"-0.012": 1.30139599739,
			"-0.011": 1.00077114437,
			"-0.01": 0.714550341952,
			"-0.009": 0.943122068713,
			"-0.008": 1.33417365926,
			"-0.007": 1.77863139013,
			"-0.006": 8.23914273699,
			"-0.005": 16.9175069868,
			"-0.004": 23.3280814145,
			"-0.003": 22.027844143,
			"-0.002": 21.6690294007,
			"-0.001": 16.8850830642,
			"0.0": 12.3823929619,
			"0.001": 11.3286465152,
			"0.002": 16.3007266882,
			"0.003": 17.9301301568,
			"0.004": 13.1219696758,
			"0.005": 5.61722478805,
			"0.006": 2.4370117743,
			"0.007": 2.45729369337,
			"0.008": 2.24168907941,
			"0.009": 3.60222272201,
			"0.01": 3.88752269992,
			"0.011": 5.46973485833,
			"0.012": 5.58808703579,
			"0.013": 2.21729828444,
			"0.014": 0.143498836296,
			"0.015": 0.0,
			"0.016": 0.0,
			"0.017": 0.0,
			"0.018": 0.0,
			"0.019": 0.0,
			"0.02": 0.0,
			"0.021": 0.0,
			"0.022": 0.0,
			"0.023": 0.0,
			"0.024": 0.0,
			"0.025": 0.0
		}
	}
}
