{
	 "smiles": "CC1=NN(C(=C1C(O)=O)C(F)(F)F)C1=CC=CC=C1", 
	 "Tm": 420.15, 
	 "num_atms": 28, 
	 "gaussian": { 
		 "optdone": 1, 
		 "sigma_profile": "yes", 
		 "theory": "DFT", 
		 "functional": "B3LYP", 
		 "basiset": "6-31G**", 
		 "properties": { 
			 "R2extent": 5932.9778, 
			 "electric_dipole_moment_norm": 5.45283516347, 
			 "electric_quadrupole_moment_norm": 20.3134298645, 
			 "total_energy": -1022.16609534, 
			 "HOMO_LUMO_gap": 0.19367, 
			 "cosmo_polarized_energy": -13.25, 
			 "cosmo_cavitation_energy": 33.69, 
			 "cosmo_dispersion_energy": -23.68, 
			 "cosmo_repulsion_energy": 1.76, 
			 "cosmo_total_nonelectrostatic_energy": 11.77, 
			 "SMD_solvation_energy": 6.85 
		},
		"coords": [
			{
				"x": -0.4869288091,
				"y": 3.715504323,
				"z": -2.1105603714,
				"element": "C" 
			},
			{
				"x": -0.1565028442,
				"y": 2.7612611783,
				"z": -1.0078057261,
				"element": "C" 
			},
			{
				"x": -0.4515473982,
				"y": 1.469806195,
				"z": -1.1166271867,
				"element": "N" 
			},
			{
				"x": -0.0219611685,
				"y": 0.8801844426,
				"z": 0.0302859314,
				"element": "N" 
			},
			{
				"x": 0.5491995854,
				"y": 1.791144402,
				"z": 0.8712799576,
				"element": "C" 
			},
			{
				"x": 0.4612203928,
				"y": 3.0337842287,
				"z": 0.2453854401,
				"element": "C" 
			},
			{
				"x": 0.8837952329,
				"y": 4.3857403417,
				"z": 0.6907131839,
				"element": "C" 
			},
			{
				"x": 0.9293758888,
				"y": 4.6263353959,
				"z": 2.0243955352,
				"element": "O" 
			},
			{
				"x": 1.1479883046,
				"y": 5.2700143476,
				"z": -0.0921921327,
				"element": "O" 
			},
			{
				"x": 1.2521132903,
				"y": 1.4750728179,
				"z": 2.1561317127,
				"element": "C" 
			},
			{
				"x": 0.4909751827,
				"y": 1.8742347301,
				"z": 3.2254856659,
				"element": "F" 
			},
			{
				"x": 2.4098778433,
				"y": 2.1532555626,
				"z": 2.2450389127,
				"element": "F" 
			},
			{
				"x": 1.524747264,
				"y": 0.1758358984,
				"z": 2.3232093796,
				"element": "F" 
			},
			{
				"x": -0.2990356666,
				"y": -0.5129886034,
				"z": 0.2109426936,
				"element": "C" 
			},
			{
				"x": 0.0013866785,
				"y": -1.3939133241,
				"z": -0.8297312944,
				"element": "C" 
			},
			{
				"x": -0.3057523395,
				"y": -2.7458957323,
				"z": -0.6866250772,
				"element": "C" 
			},
			{
				"x": -0.9046724129,
				"y": -3.2125276493,
				"z": 0.4856967408,
				"element": "C" 
			},
			{
				"x": -1.2087422185,
				"y": -2.3201950049,
				"z": 1.5156735154,
				"element": "C" 
			},
			{
				"x": -0.9172111892,
				"y": -0.9638541466,
				"z": 1.3793115561,
				"element": "C" 
			},
			{
				"x": -1.0073913138,
				"y": 3.1834120554,
				"z": -2.9091797029,
				"element": "H" 
			},
			{
				"x": 0.4213173958,
				"y": 4.1771661487,
				"z": -2.506119861,
				"element": "H" 
			},
			{
				"x": -1.1195111195,
				"y": 4.5314773465,
				"z": -1.7488259152,
				"element": "H" 
			},
			{
				"x": 0.58242913,
				"y": 3.8827673509,
				"z": 2.5381905945,
				"element": "H" 
			},
			{
				"x": 0.4603622295,
				"y": -1.0112576714,
				"z": -1.733982867,
				"element": "H" 
			},
			{
				"x": -0.0727221673,
				"y": -3.4354865892,
				"z": -1.4920673467,
				"element": "H" 
			},
			{
				"x": -1.1393647075,
				"y": -4.2670259725,
				"z": 0.5939421512,
				"element": "H" 
			},
			{
				"x": -1.686613214,
				"y": -2.6754831627,
				"z": 2.423351451,
				"element": "H" 
			},
			{
				"x": -1.1722318499,
				"y": -0.261468909,
				"z": 2.1657830593,
				"element": "H" 
			}
		],
		 "valence_orbital": [ 
			{
				"type": "occ",
				"energy": -0.29668,
				"method": "rhf"
			},
			{
				"type": "occ",
				"energy": -0.28277,
				"method": "rhf"
			},
			{
				"type": "occ",
				"energy": -0.2744,
				"method": "rhf"
			},
			{
				"type": "occ",
				"energy": -0.27279,
				"method": "rhf"
			},
			{
				"type": "occ",
				"energy": -0.25303,
				"method": "rhf"
			},
			{
				"type": "unocc",
				"energy": -0.05936,
				"method": "rhf"
			},
			{
				"type": "unocc",
				"energy": -0.02354,
				"method": "rhf"
			},
			{
				"type": "unocc",
				"energy": -0.01839,
				"method": "rhf"
			},
			{
				"type": "unocc",
				"energy": 0.00466,
				"method": "rhf"
			},
			{
				"type": "unocc",
				"energy": 0.07253,
				"method": "rhf"
			}
		],
		"cosmo_sigma_profile": { 
			"-0.025": 0.0,
			"-0.024": 0.0,
			"-0.023": 0.0,
			"-0.022": 0.0,
			"-0.021": 0.0,
			"-0.02": 0.0,
			"-0.019": 0.0,
			"-0.018": 0.0,
			"-0.017": 0.0,
			"-0.016": 0.0,
			"-0.015": 0.0,
			"-0.014": 0.363697733905,
			"-0.013": 1.28183413689,
			"-0.012": 1.01894734146,
			"-0.011": 0.919719851717,
			"-0.01": 1.17854570952,
			"-0.009": 0.929606290447,
			"-0.008": 1.9722903084,
			"-0.007": 7.74369185619,
			"-0.006": 13.2350992272,
			"-0.005": 18.7640028943,
			"-0.004": 20.822677765,
			"-0.003": 17.9360008032,
			"-0.002": 20.6695477814,
			"-0.001": 22.1265966391,
			"0.0": 23.0684616375,
			"0.001": 28.5407580264,
			"0.002": 23.6883081149,
			"0.003": 15.6766085229,
			"0.004": 12.6685658987,
			"0.005": 4.95511655303,
			"0.006": 3.56425124321,
			"0.007": 4.13185404139,
			"0.008": 4.13131446116,
			"0.009": 4.59409343773,
			"0.01": 5.5407174881,
			"0.011": 5.576511964,
			"0.012": 3.92215280905,
			"0.013": 1.42956122666,
			"0.014": 0.0463760266711,
			"0.015": 0.0,
			"0.016": 0.0,
			"0.017": 0.0,
			"0.018": 0.0,
			"0.019": 0.0,
			"0.02": 0.0,
			"0.021": 0.0,
			"0.022": 0.0,
			"0.023": 0.0,
			"0.024": 0.0,
			"0.025": 0.0
		}
	}
}
