{
	 "smiles": "CN1C(=O)C(C2=NNC(=O)C2=C/C=C/C2=CC=CC=C2)=C(O)C2=CC=CC=C12", 
	 "Tm": 511.15, 
	 "num_atms": 45, 
	 "gaussian": { 
		 "optdone": 1, 
		 "sigma_profile": "yes", 
		 "theory": "DFT", 
		 "functional": "B3LYP", 
		 "basiset": "6-31G**", 
		 "properties": { 
			 "R2extent": 15435.917, 
			 "electric_dipole_moment_norm": 6.68273135252, 
			 "electric_quadrupole_moment_norm": 25.1751796852, 
			 "total_energy": -1238.49586168, 
			 "HOMO_LUMO_gap": 0.11267, 
			 "cosmo_polarized_energy": -28.33, 
			 "cosmo_cavitation_energy": 49.93, 
			 "cosmo_dispersion_energy": -35.68, 
			 "cosmo_repulsion_energy": 2.64, 
			 "cosmo_total_nonelectrostatic_energy": 16.88, 
			 "SMD_solvation_energy": 8.57 
		},
		"coords": [
			{
				"x": 0.940489217,
				"y": -4.356083226,
				"z": -0.639908245,
				"element": "C" 
			},
			{
				"x": 1.1596347418,
				"y": -3.2197205514,
				"z": -1.5345012633,
				"element": "N" 
			},
			{
				"x": 0.1698785565,
				"y": -2.2109288236,
				"z": -1.534807753,
				"element": "C" 
			},
			{
				"x": -0.8078055195,
				"y": -2.306327215,
				"z": -0.7924503766,
				"element": "O" 
			},
			{
				"x": 0.3878587936,
				"y": -1.0699027043,
				"z": -2.4218169949,
				"element": "C" 
			},
			{
				"x": -0.640114206,
				"y": -0.0092931447,
				"z": -2.4518557071,
				"element": "C" 
			},
			{
				"x": -1.1476418285,
				"y": 0.3740845922,
				"z": -3.5962621251,
				"element": "N" 
			},
			{
				"x": -2.0231230376,
				"y": 1.3978062189,
				"z": -3.3245809438,
				"element": "N" 
			},
			{
				"x": -2.1218016025,
				"y": 1.7330745536,
				"z": -1.9864354599,
				"element": "C" 
			},
			{
				"x": -2.8332895722,
				"y": 2.6155370375,
				"z": -1.514363081,
				"element": "O" 
			},
			{
				"x": -1.1754262132,
				"y": 0.7755305503,
				"z": -1.3426570985,
				"element": "C" 
			},
			{
				"x": -0.901872021,
				"y": 0.6942661982,
				"z": -0.009535114,
				"element": "C" 
			},
			{
				"x": -1.4693188466,
				"y": 1.5413314229,
				"z": 0.9980621349,
				"element": "C" 
			},
			{
				"x": -1.1483644313,
				"y": 1.3942552076,
				"z": 2.3098971625,
				"element": "C" 
			},
			{
				"x": -1.6444469739,
				"y": 2.1786440039,
				"z": 3.4344823906,
				"element": "C" 
			},
			{
				"x": -2.5642771183,
				"y": 3.2383010105,
				"z": 3.2868310342,
				"element": "C" 
			},
			{
				"x": -3.0046278514,
				"y": 3.9543234763,
				"z": 4.3942228846,
				"element": "C" 
			},
			{
				"x": -2.5414776187,
				"y": 3.6346800214,
				"z": 5.6753828185,
				"element": "C" 
			},
			{
				"x": -1.6313404753,
				"y": 2.5889615122,
				"z": 5.839975174,
				"element": "C" 
			},
			{
				"x": -1.189166784,
				"y": 1.8706831661,
				"z": 4.7318666552,
				"element": "C" 
			},
			{
				"x": 1.5136461393,
				"y": -1.0006118053,
				"z": -3.2021778243,
				"element": "C" 
			},
			{
				"x": 1.7181946225,
				"y": 0.0961909256,
				"z": -3.9678170047,
				"element": "O" 
			},
			{
				"x": 2.4823405624,
				"y": -2.0796388808,
				"z": -3.2189119024,
				"element": "C" 
			},
			{
				"x": 3.6022263943,
				"y": -2.0808379037,
				"z": -4.0722884086,
				"element": "C" 
			},
			{
				"x": 4.5267324494,
				"y": -3.1132506088,
				"z": -4.0558584664,
				"element": "C" 
			},
			{
				"x": 4.3354588488,
				"y": -4.184310362,
				"z": -3.1746755907,
				"element": "C" 
			},
			{
				"x": 3.2292984895,
				"y": -4.2257143181,
				"z": -2.3374516754,
				"element": "C" 
			},
			{
				"x": 2.2791995333,
				"y": -3.1836016094,
				"z": -2.3488151589,
				"element": "C" 
			},
			{
				"x": 1.757112255,
				"y": -4.4418921565,
				"z": 0.0839869811,
				"element": "H" 
			},
			{
				"x": 0.8650634377,
				"y": -5.2880271658,
				"z": -1.2088621257,
				"element": "H" 
			},
			{
				"x": 0.0050441721,
				"y": -4.1716703739,
				"z": -0.1167666308,
				"element": "H" 
			},
			{
				"x": -2.5381549719,
				"y": 1.8237529734,
				"z": -4.0786807689,
				"element": "H" 
			},
			{
				"x": -0.2148615551,
				"y": -0.0807686517,
				"z": 0.3225570344,
				"element": "H" 
			},
			{
				"x": -2.1671582009,
				"y": 2.3005697065,
				"z": 0.6598625055,
				"element": "H" 
			},
			{
				"x": -0.4429038427,
				"y": 0.6048748482,
				"z": 2.5720612425,
				"element": "H" 
			},
			{
				"x": -2.9347121574,
				"y": 3.4991612895,
				"z": 2.3007846916,
				"element": "H" 
			},
			{
				"x": -3.7133302707,
				"y": 4.7665488782,
				"z": 4.2607076362,
				"element": "H" 
			},
			{
				"x": -2.8889993356,
				"y": 4.1973981832,
				"z": 6.5368773707,
				"element": "H" 
			},
			{
				"x": -1.2670085975,
				"y": 2.3331354392,
				"z": 6.8307471438,
				"element": "H" 
			},
			{
				"x": -0.4810692448,
				"y": 1.056213413,
				"z": 4.8628513443,
				"element": "H" 
			},
			{
				"x": 2.6370543352,
				"y": 0.1204234533,
				"z": -4.263054165,
				"element": "H" 
			},
			{
				"x": 3.7426489569,
				"y": -1.2761266367,
				"z": -4.7899242095,
				"element": "H" 
			},
			{
				"x": 5.3804214311,
				"y": -3.0939889624,
				"z": -4.7249693969,
				"element": "H" 
			},
			{
				"x": 5.0512566352,
				"y": -5.0004339136,
				"z": -3.1476232084,
				"element": "H" 
			},
			{
				"x": 3.098632705,
				"y": -5.0711190683,
				"z": -1.6749055057,
				"element": "H" 
			}
		],
		 "valence_orbital": [ 
			{
				"type": "occ",
				"energy": -0.25124,
				"method": "rhf"
			},
			{
				"type": "occ",
				"energy": -0.2354,
				"method": "rhf"
			},
			{
				"type": "occ",
				"energy": -0.23207,
				"method": "rhf"
			},
			{
				"type": "occ",
				"energy": -0.21816,
				"method": "rhf"
			},
			{
				"type": "occ",
				"energy": -0.19713,
				"method": "rhf"
			},
			{
				"type": "unocc",
				"energy": -0.08446,
				"method": "rhf"
			},
			{
				"type": "unocc",
				"energy": -0.05797,
				"method": "rhf"
			},
			{
				"type": "unocc",
				"energy": -0.01811,
				"method": "rhf"
			},
			{
				"type": "unocc",
				"energy": -0.007,
				"method": "rhf"
			},
			{
				"type": "unocc",
				"energy": -0.00143,
				"method": "rhf"
			}
		],
		"cosmo_sigma_profile": { 
			"-0.025": 0.0,
			"-0.024": 0.0,
			"-0.023": 0.0,
			"-0.022": 0.0,
			"-0.021": 0.0,
			"-0.02": 0.0,
			"-0.019": 0.412680052189,
			"-0.018": 1.01783337291,
			"-0.017": 0.967288168712,
			"-0.016": 1.30935516167,
			"-0.015": 2.28094338559,
			"-0.014": 1.79237504558,
			"-0.013": 2.29330513783,
			"-0.012": 1.7161901421,
			"-0.011": 1.33453488509,
			"-0.01": 2.11338209069,
			"-0.009": 2.17502242564,
			"-0.008": 3.00522991307,
			"-0.007": 12.8421683693,
			"-0.006": 28.6092204953,
			"-0.005": 28.4471536833,
			"-0.004": 27.0465840216,
			"-0.003": 20.8239564506,
			"-0.002": 25.7087152325,
			"-0.001": 25.68860795,
			"0.0": 26.2631121873,
			"0.001": 32.1174931883,
			"0.002": 34.5186323569,
			"0.003": 28.344898759,
			"0.004": 26.2336842544,
			"0.005": 10.6906434784,
			"0.006": 5.31651859694,
			"0.007": 5.54689926863,
			"0.008": 5.1607686048,
			"0.009": 5.41811725305,
			"0.01": 4.87270271783,
			"0.011": 4.9923290859,
			"0.012": 6.80485335766,
			"0.013": 8.54071348287,
			"0.014": 5.77706966442,
			"0.015": 1.10902542314,
			"0.016": 0.0684068858379,
			"0.017": 0.0,
			"0.018": 0.0,
			"0.019": 0.0,
			"0.02": 0.0,
			"0.021": 0.0,
			"0.022": 0.0,
			"0.023": 0.0,
			"0.024": 0.0,
			"0.025": 0.0
		}
	}
}
