{
	 "smiles": "O=C(NNC1=CC=CC=C1)C=CC1=CC=CC=C1", 
	 "Tm": 460.15, 
	 "num_atms": 32, 
	 "gaussian": { 
		 "optdone": 1, 
		 "sigma_profile": "yes", 
		 "theory": "DFT", 
		 "functional": "B3LYP", 
		 "basiset": "6-31G**", 
		 "properties": { 
			 "R2extent": 7196.7188, 
			 "electric_dipole_moment_norm": 3.09294725788, 
			 "electric_quadrupole_moment_norm": 14.972942492, 
			 "total_energy": -764.733167574, 
			 "HOMO_LUMO_gap": 0.15783, 
			 "cosmo_polarized_energy": -15.39, 
			 "cosmo_cavitation_energy": 37.33, 
			 "cosmo_dispersion_energy": -26.46, 
			 "cosmo_repulsion_energy": 2.05, 
			 "cosmo_total_nonelectrostatic_energy": 12.93, 
			 "SMD_solvation_energy": 7.42 
		},
		"coords": [
			{
				"x": -1.8255803215,
				"y": -1.958411749,
				"z": -2.1433036269,
				"element": "O" 
			},
			{
				"x": -1.0853214446,
				"y": -1.7214727998,
				"z": -1.1938685842,
				"element": "C" 
			},
			{
				"x": -0.8347096623,
				"y": -2.73039405,
				"z": -0.2736750097,
				"element": "N" 
			},
			{
				"x": -0.1423434866,
				"y": -2.5517922163,
				"z": 0.9135570749,
				"element": "N" 
			},
			{
				"x": -0.8624016003,
				"y": -2.5942827854,
				"z": 2.1292554913,
				"element": "C" 
			},
			{
				"x": -0.1734302274,
				"y": -2.9027782669,
				"z": 3.3127527907,
				"element": "C" 
			},
			{
				"x": -0.8435387902,
				"y": -2.9022195801,
				"z": 4.5331624117,
				"element": "C" 
			},
			{
				"x": -2.2069363115,
				"y": -2.6023544051,
				"z": 4.5946800907,
				"element": "C" 
			},
			{
				"x": -2.8892893599,
				"y": -2.299982317,
				"z": 3.4159318196,
				"element": "C" 
			},
			{
				"x": -2.2296891726,
				"y": -2.2930255069,
				"z": 2.1861216968,
				"element": "C" 
			},
			{
				"x": -0.4053005427,
				"y": -0.4256632401,
				"z": -0.9651655306,
				"element": "C" 
			},
			{
				"x": -0.5850971917,
				"y": 0.5715728374,
				"z": -1.8504637215,
				"element": "C" 
			},
			{
				"x": -0.0147295142,
				"y": 1.9189569396,
				"z": -1.811420399,
				"element": "C" 
			},
			{
				"x": -0.3034186878,
				"y": 2.8031419576,
				"z": -2.8671310598,
				"element": "C" 
			},
			{
				"x": 0.2135089306,
				"y": 4.0972837501,
				"z": -2.8845901706,
				"element": "C" 
			},
			{
				"x": 1.0311040885,
				"y": 4.5355372471,
				"z": -1.8421507149,
				"element": "C" 
			},
			{
				"x": 1.3265816584,
				"y": 3.6702103767,
				"z": -0.7832196508,
				"element": "C" 
			},
			{
				"x": 0.8110727754,
				"y": 2.3785479462,
				"z": -0.7666094722,
				"element": "C" 
			},
			{
				"x": -1.3979867473,
				"y": -3.5679504497,
				"z": -0.398905056,
				"element": "H" 
			},
			{
				"x": 0.7207491373,
				"y": -3.0841144665,
				"z": 0.9359754106,
				"element": "H" 
			},
			{
				"x": 0.8874870843,
				"y": -3.139754391,
				"z": 3.2720246166,
				"element": "H" 
			},
			{
				"x": -0.2966833842,
				"y": -3.1440803134,
				"z": 5.4402009799,
				"element": "H" 
			},
			{
				"x": -2.7280146904,
				"y": -2.6066978269,
				"z": 5.5468377133,
				"element": "H" 
			},
			{
				"x": -3.9495695601,
				"y": -2.0651860185,
				"z": 3.4467998035,
				"element": "H" 
			},
			{
				"x": -2.7682785305,
				"y": -2.0513136655,
				"z": 1.2765447106,
				"element": "H" 
			},
			{
				"x": 0.2154716549,
				"y": -0.3292551275,
				"z": -0.0823042961,
				"element": "H" 
			},
			{
				"x": -1.230616277,
				"y": 0.3482543269,
				"z": -2.6989490642,
				"element": "H" 
			},
			{
				"x": -0.9404123031,
				"y": 2.463169436,
				"z": -3.6794977972,
				"element": "H" 
			},
			{
				"x": -0.0221630606,
				"y": 4.7624343206,
				"z": -3.7102712261,
				"element": "H" 
			},
			{
				"x": 1.4354094866,
				"y": 5.5435850683,
				"z": -1.8512243824,
				"element": "H" 
			},
			{
				"x": 1.9605849215,
				"y": 4.0072053319,
				"z": 0.0319528923,
				"element": "H" 
			},
			{
				"x": 1.0467411291,
				"y": 1.7208296374,
				"z": 0.0642522595,
				"element": "H" 
			}
		],
		 "valence_orbital": [ 
			{
				"type": "occ",
				"energy": -0.25602,
				"method": "rhf"
			},
			{
				"type": "occ",
				"energy": -0.25327,
				"method": "rhf"
			},
			{
				"type": "occ",
				"energy": -0.25123,
				"method": "rhf"
			},
			{
				"type": "occ",
				"energy": -0.22858,
				"method": "rhf"
			},
			{
				"type": "occ",
				"energy": -0.21575,
				"method": "rhf"
			},
			{
				"type": "unocc",
				"energy": -0.05792,
				"method": "rhf"
			},
			{
				"type": "unocc",
				"energy": -0.00504,
				"method": "rhf"
			},
			{
				"type": "unocc",
				"energy": -0.00457,
				"method": "rhf"
			},
			{
				"type": "unocc",
				"energy": 0.00687,
				"method": "rhf"
			},
			{
				"type": "unocc",
				"energy": 0.02847,
				"method": "rhf"
			}
		],
		"cosmo_sigma_profile": { 
			"-0.025": 0.0,
			"-0.024": 0.0,
			"-0.023": 0.0,
			"-0.022": 0.0,
			"-0.021": 0.0,
			"-0.02": 0.0,
			"-0.019": 0.0,
			"-0.018": 0.0,
			"-0.017": 0.0,
			"-0.016": 0.0,
			"-0.015": 0.0,
			"-0.014": 0.607842211877,
			"-0.013": 2.17430265056,
			"-0.012": 2.69050858487,
			"-0.011": 2.20079099332,
			"-0.01": 2.23011262144,
			"-0.009": 1.89710093499,
			"-0.008": 3.67282187171,
			"-0.007": 5.72634462802,
			"-0.006": 16.1565677941,
			"-0.005": 22.7630862996,
			"-0.004": 24.2770772348,
			"-0.003": 22.7725655461,
			"-0.002": 16.8885853387,
			"-0.001": 16.7769625705,
			"0.0": 18.3242568212,
			"0.001": 17.8778182641,
			"0.002": 22.0666602758,
			"0.003": 24.21818448,
			"0.004": 23.3681207889,
			"0.005": 19.8940384762,
			"0.006": 11.0047788824,
			"0.007": 4.30319492913,
			"0.008": 1.61590314024,
			"0.009": 1.46550874334,
			"0.01": 1.16784472178,
			"0.011": 1.14293105958,
			"0.012": 2.43616273583,
			"0.013": 3.28256139732,
			"0.014": 5.34921166828,
			"0.015": 0.268021413233,
			"0.016": 0.0,
			"0.017": 0.0,
			"0.018": 0.0,
			"0.019": 0.0,
			"0.02": 0.0,
			"0.021": 0.0,
			"0.022": 0.0,
			"0.023": 0.0,
			"0.024": 0.0,
			"0.025": 0.0
		}
	}
}
