{
	 "smiles": "CC1=NN(C(CCl)=C1C#N)C1=CC=CC=C1", 
	 "Tm": 404.15, 
	 "num_atms": 26, 
	 "gaussian": { 
		 "optdone": 1, 
		 "sigma_profile": "yes", 
		 "theory": "DFT", 
		 "functional": "B3LYP", 
		 "basiset": "6-31G**", 
		 "properties": { 
			 "R2extent": 5487.671, 
			 "electric_dipole_moment_norm": 5.23512451523, 
			 "electric_quadrupole_moment_norm": 20.5680430002, 
			 "total_energy": -1087.72786443, 
			 "HOMO_LUMO_gap": 0.18854, 
			 "cosmo_polarized_energy": -12.38, 
			 "cosmo_cavitation_energy": 33.01, 
			 "cosmo_dispersion_energy": -22.83, 
			 "cosmo_repulsion_energy": 1.8, 
			 "cosmo_total_nonelectrostatic_energy": 11.98, 
			 "SMD_solvation_energy": 5.82 
		},
		"coords": [
			{
				"x": 3.5169943116,
				"y": -2.0525909924,
				"z": 1.3708339975,
				"element": "C" 
			},
			{
				"x": 2.7680608013,
				"y": -1.0576217765,
				"z": 0.5440234832,
				"element": "C" 
			},
			{
				"x": 1.7295309299,
				"y": -0.3919285537,
				"z": 1.0315854134,
				"element": "N" 
			},
			{
				"x": 1.2999411306,
				"y": 0.4299734885,
				"z": 0.0331706387,
				"element": "N" 
			},
			{
				"x": 2.0430808577,
				"y": 0.2864089398,
				"z": -1.1048656229,
				"element": "C" 
			},
			{
				"x": 1.7945169628,
				"y": 0.9688832006,
				"z": -2.3975398428,
				"element": "C" 
			},
			{
				"x": 2.7640839593,
				"y": 2.5163123381,
				"z": -2.5957874452,
				"element": "Cl" 
			},
			{
				"x": 3.01342096,
				"y": -0.6701753586,
				"z": -0.8045788093,
				"element": "C" 
			},
			{
				"x": 4.0083211224,
				"y": -1.1681990416,
				"z": -1.6818340877,
				"element": "C" 
			},
			{
				"x": 4.8200842455,
				"y": -1.5936376695,
				"z": -2.4004759894,
				"element": "N" 
			},
			{
				"x": 0.1361737371,
				"y": 1.227117993,
				"z": 0.2609963333,
				"element": "C" 
			},
			{
				"x": -0.935374951,
				"y": 0.6570698001,
				"z": 0.9573302927,
				"element": "C" 
			},
			{
				"x": -2.0763884719,
				"y": 1.4185268304,
				"z": 1.1972217173,
				"element": "C" 
			},
			{
				"x": -2.1556625956,
				"y": 2.7370709185,
				"z": 0.7407705827,
				"element": "C" 
			},
			{
				"x": -1.0785560297,
				"y": 3.2984194427,
				"z": 0.0549351115,
				"element": "C" 
			},
			{
				"x": 0.078079043,
				"y": 2.5523867426,
				"z": -0.1795747147,
				"element": "C" 
			},
			{
				"x": 3.5255190323,
				"y": -3.036887511,
				"z": 0.8912291786,
				"element": "H" 
			},
			{
				"x": 3.0494383844,
				"y": -2.1423031577,
				"z": 2.3529747286,
				"element": "H" 
			},
			{
				"x": 4.5599876063,
				"y": -1.7471401773,
				"z": 1.5051195835,
				"element": "H" 
			},
			{
				"x": 2.1085284068,
				"y": 0.3300001042,
				"z": -3.2219346681,
				"element": "H" 
			},
			{
				"x": 0.7494793839,
				"y": 1.2503824886,
				"z": -2.5196903502,
				"element": "H" 
			},
			{
				"x": -0.8557232348,
				"y": -0.3659039136,
				"z": 1.3055225551,
				"element": "H" 
			},
			{
				"x": -2.9084915707,
				"y": 0.9775851201,
				"z": 1.7376682079,
				"element": "H" 
			},
			{
				"x": -3.0495399699,
				"y": 3.3247957889,
				"z": 0.9260785965,
				"element": "H" 
			},
			{
				"x": -1.1247443579,
				"y": 4.3276639223,
				"z": -0.2874521922,
				"element": "H" 
			},
			{
				"x": 0.9303403066,
				"y": 3.0037910335,
				"z": -0.6747266981,
				"element": "H" 
			}
		],
		 "valence_orbital": [ 
			{
				"type": "occ",
				"energy": -0.30652,
				"method": "rhf"
			},
			{
				"type": "occ",
				"energy": -0.29449,
				"method": "rhf"
			},
			{
				"type": "occ",
				"energy": -0.27241,
				"method": "rhf"
			},
			{
				"type": "occ",
				"energy": -0.26807,
				"method": "rhf"
			},
			{
				"type": "occ",
				"energy": -0.24762,
				"method": "rhf"
			},
			{
				"type": "unocc",
				"energy": -0.05908,
				"method": "rhf"
			},
			{
				"type": "unocc",
				"energy": -0.02365,
				"method": "rhf"
			},
			{
				"type": "unocc",
				"energy": -0.01995,
				"method": "rhf"
			},
			{
				"type": "unocc",
				"energy": 0.00445,
				"method": "rhf"
			},
			{
				"type": "unocc",
				"energy": 0.02487,
				"method": "rhf"
			}
		],
		"cosmo_sigma_profile": { 
			"-0.025": 0.0,
			"-0.024": 0.0,
			"-0.023": 0.0,
			"-0.022": 0.0,
			"-0.021": 0.0,
			"-0.02": 0.0,
			"-0.019": 0.0,
			"-0.018": 0.0,
			"-0.017": 0.0,
			"-0.016": 0.0,
			"-0.015": 0.0,
			"-0.014": 0.0,
			"-0.013": 0.0,
			"-0.012": 0.0,
			"-0.011": 0.0,
			"-0.01": 0.385710417477,
			"-0.009": 3.13222879108,
			"-0.008": 4.6569222418,
			"-0.007": 6.22174383653,
			"-0.006": 16.7162917602,
			"-0.005": 21.991812556,
			"-0.004": 18.6386946678,
			"-0.003": 19.5023889336,
			"-0.002": 21.4887635446,
			"-0.001": 23.8342068638,
			"0.0": 19.704018236,
			"0.001": 15.1842774867,
			"0.002": 15.8813469569,
			"0.003": 18.7670546843,
			"0.004": 18.5758210334,
			"0.005": 11.5179090725,
			"0.006": 6.32770273924,
			"0.007": 3.36471679583,
			"0.008": 5.1878643736,
			"0.009": 3.98613967034,
			"0.01": 4.35093874498,
			"0.011": 3.28400469739,
			"0.012": 3.3447235418,
			"0.013": 2.03948603205,
			"0.014": 0.0124837952037,
			"0.015": 0.0,
			"0.016": 0.0,
			"0.017": 0.0,
			"0.018": 0.0,
			"0.019": 0.0,
			"0.02": 0.0,
			"0.021": 0.0,
			"0.022": 0.0,
			"0.023": 0.0,
			"0.024": 0.0,
			"0.025": 0.0
		}
	}
}
