{
	 "smiles": "CC(O)C=C", 
	 "Tm": 173.15, 
	 "num_atms": 13, 
	 "gaussian": { 
		 "optdone": 1, 
		 "sigma_profile": "yes", 
		 "theory": "DFT", 
		 "functional": "B3LYP", 
		 "basiset": "6-31G**", 
		 "properties": { 
			 "R2extent": 721.7523, 
			 "electric_dipole_moment_norm": 1.62539385996, 
			 "electric_quadrupole_moment_norm": 6.20067786939, 
			 "total_energy": -232.437602859, 
			 "HOMO_LUMO_gap": 0.26787, 
			 "cosmo_polarized_energy": -6.56, 
			 "cosmo_cavitation_energy": 15.95, 
			 "cosmo_dispersion_energy": -11.66, 
			 "cosmo_repulsion_energy": 1.04, 
			 "cosmo_total_nonelectrostatic_energy": 5.32, 
			 "SMD_solvation_energy": 3.64 
		},
		"coords": [
			{
				"x": 1.1661502906,
				"y": 1.0226617439,
				"z": -0.6777362551,
				"element": "C" 
			},
			{
				"x": -0.063533586,
				"y": 1.8308496215,
				"z": -0.264669058,
				"element": "C" 
			},
			{
				"x": 0.2890303808,
				"y": 2.8933031498,
				"z": 0.6289977707,
				"element": "O" 
			},
			{
				"x": -1.1360119472,
				"y": 1.040742011,
				"z": 0.443686976,
				"element": "C" 
			},
			{
				"x": -1.2504529775,
				"y": -0.2854946371,
				"z": 0.4931605367,
				"element": "C" 
			},
			{
				"x": 0.9077921509,
				"y": 0.2325179136,
				"z": -1.3897386387,
				"element": "H" 
			},
			{
				"x": 1.6355735432,
				"y": 0.5689214238,
				"z": 0.1996586286,
				"element": "H" 
			},
			{
				"x": 1.9008651797,
				"y": 1.6741759113,
				"z": -1.1643495564,
				"element": "H" 
			},
			{
				"x": -0.5214418054,
				"y": 2.259648163,
				"z": -1.1755885904,
				"element": "H" 
			},
			{
				"x": 0.8946704854,
				"y": 3.4807572844,
				"z": 0.1586817566,
				"element": "H" 
			},
			{
				"x": -1.8765771513,
				"y": 1.667427506,
				"z": 0.9386556694,
				"element": "H" 
			},
			{
				"x": -2.0772949571,
				"y": -0.7578852866,
				"z": 1.0149180844,
				"element": "H" 
			},
			{
				"x": -0.5357696061,
				"y": -0.9524248047,
				"z": 0.0197226762,
				"element": "H" 
			}
		],
		 "valence_orbital": [ 
			{
				"type": "occ",
				"energy": -0.37246,
				"method": "rhf"
			},
			{
				"type": "occ",
				"energy": -0.35402,
				"method": "rhf"
			},
			{
				"type": "occ",
				"energy": -0.31849,
				"method": "rhf"
			},
			{
				"type": "occ",
				"energy": -0.27447,
				"method": "rhf"
			},
			{
				"type": "occ",
				"energy": -0.25189,
				"method": "rhf"
			},
			{
				"type": "unocc",
				"energy": 0.01598,
				"method": "rhf"
			},
			{
				"type": "unocc",
				"energy": 0.08523,
				"method": "rhf"
			},
			{
				"type": "unocc",
				"energy": 0.11688,
				"method": "rhf"
			},
			{
				"type": "unocc",
				"energy": 0.13079,
				"method": "rhf"
			},
			{
				"type": "unocc",
				"energy": 0.15358,
				"method": "rhf"
			}
		],
		"cosmo_sigma_profile": { 
			"-0.025": 0.0,
			"-0.024": 0.0,
			"-0.023": 0.0,
			"-0.022": 0.0,
			"-0.021": 0.0,
			"-0.02": 0.0,
			"-0.019": 0.0,
			"-0.018": 0.0,
			"-0.017": 0.0,
			"-0.016": 0.0445609919562,
			"-0.015": 0.832077945442,
			"-0.014": 1.06525813407,
			"-0.013": 0.936700558289,
			"-0.012": 0.699470860298,
			"-0.011": 1.27537165944,
			"-0.01": 0.692316711571,
			"-0.009": 0.392093832549,
			"-0.008": 1.18468021923,
			"-0.007": 1.13538134785,
			"-0.006": 1.87571534207,
			"-0.005": 4.39830496711,
			"-0.004": 11.112217362,
			"-0.003": 13.6686684799,
			"-0.002": 13.0639875888,
			"-0.001": 13.577991691,
			"0.0": 11.1168909612,
			"0.001": 9.89627982899,
			"0.002": 6.05011932555,
			"0.003": 4.57271431044,
			"0.004": 3.90694542565,
			"0.005": 4.13236723555,
			"0.006": 3.85206822454,
			"0.007": 3.13688423466,
			"0.008": 1.96655429072,
			"0.009": 1.40073728245,
			"0.01": 1.46340358481,
			"0.011": 1.35264053446,
			"0.012": 1.18928559821,
			"0.013": 1.82187536164,
			"0.014": 2.02544561798,
			"0.015": 0.454484799588,
			"0.016": 0.0,
			"0.017": 0.0,
			"0.018": 0.0,
			"0.019": 0.0,
			"0.02": 0.0,
			"0.021": 0.0,
			"0.022": 0.0,
			"0.023": 0.0,
			"0.024": 0.0,
			"0.025": 0.0
		}
	}
}
