{
	 "smiles": "OC(=O)C1CN(C(=O)C1)C1=C(Cl)C=CC=C1", 
	 "Tm": 415.15, 
	 "num_atms": 26, 
	 "gaussian": { 
		 "optdone": 1, 
		 "sigma_profile": "yes", 
		 "theory": "DFT", 
		 "functional": "B3LYP", 
		 "basiset": "6-31G**", 
		 "properties": { 
			 "R2extent": 4912.5402, 
			 "electric_dipole_moment_norm": 3.69490438983, 
			 "electric_quadrupole_moment_norm": 21.3001693141, 
			 "total_energy": -1165.82928947, 
			 "HOMO_LUMO_gap": 0.21532, 
			 "cosmo_polarized_energy": -21.95, 
			 "cosmo_cavitation_energy": 31.9, 
			 "cosmo_dispersion_energy": -22.67, 
			 "cosmo_repulsion_energy": 1.78, 
			 "cosmo_total_nonelectrostatic_energy": 11.0, 
			 "SMD_solvation_energy": 6.69 
		},
		"coords": [
			{
				"x": 2.3330188121,
				"y": 2.504991738,
				"z": 3.1795821448,
				"element": "O" 
			},
			{
				"x": 1.3771240562,
				"y": 1.6026034493,
				"z": 2.8347763629,
				"element": "C" 
			},
			{
				"x": 0.8126347438,
				"y": 0.9622926278,
				"z": 3.6854212647,
				"element": "O" 
			},
			{
				"x": 1.1076256043,
				"y": 1.4864227076,
				"z": 1.3398224319,
				"element": "C" 
			},
			{
				"x": -0.0049167617,
				"y": 0.4722520856,
				"z": 1.0094613098,
				"element": "C" 
			},
			{
				"x": -0.5732780292,
				"y": 0.99184659,
				"z": -0.2442236793,
				"element": "N" 
			},
			{
				"x": -0.2143496402,
				"y": 2.3009940812,
				"z": -0.5155915491,
				"element": "C" 
			},
			{
				"x": -0.5192838284,
				"y": 2.9453752424,
				"z": -1.5002120734,
				"element": "O" 
			},
			{
				"x": 0.6277650192,
				"y": 2.790370152,
				"z": 0.6661984507,
				"element": "C" 
			},
			{
				"x": -1.3340561042,
				"y": 0.2045099386,
				"z": -1.1479113047,
				"element": "C" 
			},
			{
				"x": -2.5393335472,
				"y": -0.4161164826,
				"z": -0.7806138124,
				"element": "C" 
			},
			{
				"x": -3.225040907,
				"y": -0.1784351916,
				"z": 0.8189216383,
				"element": "Cl" 
			},
			{
				"x": -3.2430019615,
				"y": -1.2120205473,
				"z": -1.6855711383,
				"element": "C" 
			},
			{
				"x": -2.766149912,
				"y": -1.3723961047,
				"z": -2.9846791181,
				"element": "C" 
			},
			{
				"x": -1.5865002739,
				"y": -0.7375839537,
				"z": -3.3767406925,
				"element": "C" 
			},
			{
				"x": -0.8768843168,
				"y": 0.0355814056,
				"z": -2.4629781729,
				"element": "C" 
			},
			{
				"x": 2.6881814382,
				"y": 2.9418059375,
				"z": 2.3921900876,
				"element": "H" 
			},
			{
				"x": 2.0420882584,
				"y": 1.1693125404,
				"z": 0.8569082107,
				"element": "H" 
			},
			{
				"x": -0.7422632854,
				"y": 0.4384156715,
				"z": 1.8146526397,
				"element": "H" 
			},
			{
				"x": 0.3835663717,
				"y": -0.5390734347,
				"z": 0.8613983525,
				"element": "H" 
			},
			{
				"x": -0.0195044321,
				"y": 3.3772482329,
				"z": 1.3292592852,
				"element": "H" 
			},
			{
				"x": 1.4231685777,
				"y": 3.4467779635,
				"z": 0.3054261248,
				"element": "H" 
			},
			{
				"x": -4.1657899393,
				"y": -1.6844197615,
				"z": -1.3677695715,
				"element": "H" 
			},
			{
				"x": -3.3215010846,
				"y": -1.9858955065,
				"z": -3.687298485,
				"element": "H" 
			},
			{
				"x": -1.2134319517,
				"y": -0.8504879707,
				"z": -4.3897486055,
				"element": "H" 
			},
			{
				"x": 0.0418130938,
				"y": 0.5309285895,
				"z": -2.7553801008,
				"element": "H" 
			}
		],
		 "valence_orbital": [ 
			{
				"type": "occ",
				"energy": -0.29061,
				"method": "rhf"
			},
			{
				"type": "occ",
				"energy": -0.28506,
				"method": "rhf"
			},
			{
				"type": "occ",
				"energy": -0.2626,
				"method": "rhf"
			},
			{
				"type": "occ",
				"energy": -0.25518,
				"method": "rhf"
			},
			{
				"type": "occ",
				"energy": -0.24227,
				"method": "rhf"
			},
			{
				"type": "unocc",
				"energy": -0.02695,
				"method": "rhf"
			},
			{
				"type": "unocc",
				"energy": -0.01981,
				"method": "rhf"
			},
			{
				"type": "unocc",
				"energy": -0.00536,
				"method": "rhf"
			},
			{
				"type": "unocc",
				"energy": 0.01323,
				"method": "rhf"
			},
			{
				"type": "unocc",
				"energy": 0.02325,
				"method": "rhf"
			}
		],
		"cosmo_sigma_profile": { 
			"-0.025": 0.0,
			"-0.024": 0.0,
			"-0.023": 0.0,
			"-0.022": 0.0,
			"-0.021": 0.0,
			"-0.02": 0.0,
			"-0.019": 0.424604537675,
			"-0.018": 1.22511823693,
			"-0.017": 1.32761125927,
			"-0.016": 0.76755368207,
			"-0.015": 1.56109066856,
			"-0.014": 1.18826517478,
			"-0.013": 0.908482201699,
			"-0.012": 0.854007503347,
			"-0.011": 2.05850548372,
			"-0.01": 1.39654969657,
			"-0.009": 1.91688785789,
			"-0.008": 6.56244937267,
			"-0.007": 16.143190159,
			"-0.006": 18.5991575739,
			"-0.005": 15.7856952842,
			"-0.004": 14.0141636555,
			"-0.003": 12.2109322858,
			"-0.002": 11.7087661916,
			"-0.001": 13.2781859352,
			"0.0": 14.4860937212,
			"0.001": 16.2061189676,
			"0.002": 16.7152410398,
			"0.003": 18.8302230587,
			"0.004": 16.229270279,
			"0.005": 5.4532050803,
			"0.006": 3.32815840111,
			"0.007": 4.73538845723,
			"0.008": 4.56253052625,
			"0.009": 4.5899682064,
			"0.01": 7.20690483992,
			"0.011": 7.68112129947,
			"0.012": 6.88664836553,
			"0.013": 5.85171636255,
			"0.014": 1.34389216243,
			"0.015": 0.00451416013596,
			"0.016": 0.0,
			"0.017": 0.0,
			"0.018": 0.0,
			"0.019": 0.0,
			"0.02": 0.0,
			"0.021": 0.0,
			"0.022": 0.0,
			"0.023": 0.0,
			"0.024": 0.0,
			"0.025": 0.0
		}
	}
}
