{
	 "smiles": "CC(C)C1CCC(C)CC1OCC(O)=O", 
	 "Tm": 327.15, 
	 "num_atms": 37, 
	 "gaussian": { 
		 "optdone": 1, 
		 "sigma_profile": "yes", 
		 "theory": "DFT", 
		 "functional": "B3LYP", 
		 "basiset": "6-31G**", 
		 "properties": { 
			 "R2extent": 4058.7294, 
			 "electric_dipole_moment_norm": 5.26424410718, 
			 "electric_quadrupole_moment_norm": 22.8503571386, 
			 "total_energy": -696.211539785, 
			 "HOMO_LUMO_gap": 0.26732, 
			 "cosmo_polarized_energy": -18.23, 
			 "cosmo_cavitation_energy": 36.06, 
			 "cosmo_dispersion_energy": -24.76, 
			 "cosmo_repulsion_energy": 1.94, 
			 "cosmo_total_nonelectrostatic_energy": 13.25, 
			 "SMD_solvation_energy": 6.81 
		},
		"coords": [
			{
				"x": -0.8122124001,
				"y": -0.0720160118,
				"z": 2.8573422223,
				"element": "C" 
			},
			{
				"x": 0.4552388106,
				"y": 0.5579106344,
				"z": 2.2511459537,
				"element": "C" 
			},
			{
				"x": 1.6862531295,
				"y": 0.0057046066,
				"z": 2.9933846658,
				"element": "C" 
			},
			{
				"x": 0.5501935993,
				"y": 0.3680665252,
				"z": 0.7095779965,
				"element": "C" 
			},
			{
				"x": 1.8634203508,
				"y": 0.9196225369,
				"z": 0.1121576597,
				"element": "C" 
			},
			{
				"x": 2.0569900274,
				"y": 0.5522467352,
				"z": -1.3764101149,
				"element": "C" 
			},
			{
				"x": 0.7260094269,
				"y": 0.4563880042,
				"z": -2.1599245088,
				"element": "C" 
			},
			{
				"x": 0.9189810658,
				"y": 0.7405546999,
				"z": -3.6533856372,
				"element": "C" 
			},
			{
				"x": -0.3049044849,
				"y": 1.395013624,
				"z": -1.5171713071,
				"element": "C" 
			},
			{
				"x": -0.6316665834,
				"y": 1.0463888304,
				"z": -0.0434211742,
				"element": "C" 
			},
			{
				"x": -1.87971488,
				"y": 0.3376828646,
				"z": 0.0767366833,
				"element": "O" 
			},
			{
				"x": -2.0142268154,
				"y": -0.8873776604,
				"z": -0.5755824288,
				"element": "C" 
			},
			{
				"x": -3.2903671155,
				"y": -1.5713954247,
				"z": -0.0785590254,
				"element": "C" 
			},
			{
				"x": -3.604814163,
				"y": -2.7085381654,
				"z": -0.761469775,
				"element": "O" 
			},
			{
				"x": -3.9703090717,
				"y": -1.1955653433,
				"z": 0.8353562289,
				"element": "O" 
			},
			{
				"x": -0.8551972151,
				"y": 0.1317401225,
				"z": 3.9328479516,
				"element": "H" 
			},
			{
				"x": -1.7315838616,
				"y": 0.289781449,
				"z": 2.3970694451,
				"element": "H" 
			},
			{
				"x": -0.7948545169,
				"y": -1.1628314125,
				"z": 2.7347938229,
				"element": "H" 
			},
			{
				"x": 0.4153770167,
				"y": 1.6432300645,
				"z": 2.4359067606,
				"element": "H" 
			},
			{
				"x": 2.6070475939,
				"y": 0.5473289157,
				"z": 2.7610015032,
				"element": "H" 
			},
			{
				"x": 1.5347733428,
				"y": 0.0741455749,
				"z": 4.0756460794,
				"element": "H" 
			},
			{
				"x": 1.8477257522,
				"y": -1.0529972458,
				"z": 2.753505471,
				"element": "H" 
			},
			{
				"x": 0.5268192357,
				"y": -0.7149455661,
				"z": 0.5104469492,
				"element": "H" 
			},
			{
				"x": 1.8625609009,
				"y": 2.0123984165,
				"z": 0.2300581583,
				"element": "H" 
			},
			{
				"x": 2.7244404357,
				"y": 0.5599337362,
				"z": 0.6793985735,
				"element": "H" 
			},
			{
				"x": 2.5936245022,
				"y": -0.4008416045,
				"z": -1.4601449387,
				"element": "H" 
			},
			{
				"x": 2.7023941828,
				"y": 1.3053703717,
				"z": -1.8467086023,
				"element": "H" 
			},
			{
				"x": 0.3540173662,
				"y": -0.5734889328,
				"z": -2.0668070208,
				"element": "H" 
			},
			{
				"x": 1.6763694216,
				"y": 0.0791482186,
				"z": -4.0886864908,
				"element": "H" 
			},
			{
				"x": 1.2501143166,
				"y": 1.7735854068,
				"z": -3.813990313,
				"element": "H" 
			},
			{
				"x": -0.0117432437,
				"y": 0.598684088,
				"z": -4.2141842428,
				"element": "H" 
			},
			{
				"x": -1.2439382423,
				"y": 1.4114659413,
				"z": -2.0829924441,
				"element": "H" 
			},
			{
				"x": 0.0855464372,
				"y": 2.4202604204,
				"z": -1.5605498916,
				"element": "H" 
			},
			{
				"x": -0.8582548169,
				"y": 1.9821819925,
				"z": 0.4799404876,
				"element": "H" 
			},
			{
				"x": -2.0826209231,
				"y": -0.7757273891,
				"z": -1.6725727792,
				"element": "H" 
			},
			{
				"x": -1.1771111857,
				"y": -1.5779888664,
				"z": -0.3771556432,
				"element": "H" 
			},
			{
				"x": -2.9751773956,
				"y": -2.8609201575,
				"z": -1.4814002749,
				"element": "H" 
			}
		],
		 "valence_orbital": [ 
			{
				"type": "occ",
				"energy": -0.31031,
				"method": "rhf"
			},
			{
				"type": "occ",
				"energy": -0.30779,
				"method": "rhf"
			},
			{
				"type": "occ",
				"energy": -0.29009,
				"method": "rhf"
			},
			{
				"type": "occ",
				"energy": -0.27146,
				"method": "rhf"
			},
			{
				"type": "occ",
				"energy": -0.25707,
				"method": "rhf"
			},
			{
				"type": "unocc",
				"energy": 0.01025,
				"method": "rhf"
			},
			{
				"type": "unocc",
				"energy": 0.04381,
				"method": "rhf"
			},
			{
				"type": "unocc",
				"energy": 0.06719,
				"method": "rhf"
			},
			{
				"type": "unocc",
				"energy": 0.0801,
				"method": "rhf"
			},
			{
				"type": "unocc",
				"energy": 0.09528,
				"method": "rhf"
			}
		],
		"cosmo_sigma_profile": { 
			"-0.025": 0.0,
			"-0.024": 0.0,
			"-0.023": 0.0,
			"-0.022": 0.0,
			"-0.021": 0.0,
			"-0.02": 0.068511752426,
			"-0.019": 0.865232105214,
			"-0.018": 1.45404937052,
			"-0.017": 1.17681470996,
			"-0.016": 1.10831646596,
			"-0.015": 0.804694807612,
			"-0.014": 1.6041061946,
			"-0.013": 0.742033682184,
			"-0.012": 1.3938502561,
			"-0.011": 0.859432944855,
			"-0.01": 1.82588675018,
			"-0.009": 1.36216588541,
			"-0.008": 1.91540161303,
			"-0.007": 3.27078165478,
			"-0.006": 4.9733663623,
			"-0.005": 5.16438469973,
			"-0.004": 6.82675152499,
			"-0.003": 19.0939595257,
			"-0.002": 40.5880068857,
			"-0.001": 40.6762054432,
			"0.0": 39.1337706809,
			"0.001": 33.4780540082,
			"0.002": 19.7948681314,
			"0.003": 6.20759088523,
			"0.004": 1.9824339563,
			"0.005": 4.21204565976,
			"0.006": 3.5147522185,
			"0.007": 2.87810584311,
			"0.008": 4.00548753021,
			"0.009": 4.63342922945,
			"0.01": 5.90254694131,
			"0.011": 6.57392845656,
			"0.012": 5.21624555486,
			"0.013": 2.2780740287,
			"0.014": 1.38488808426,
			"0.015": 0.360531275789,
			"0.016": 0.0,
			"0.017": 0.0,
			"0.018": 0.0,
			"0.019": 0.0,
			"0.02": 0.0,
			"0.021": 0.0,
			"0.022": 0.0,
			"0.023": 0.0,
			"0.024": 0.0,
			"0.025": 0.0
		}
	}
}
