{
	 "smiles": "CCC1=CN(C2CC(O)C(CO)O2)C(=O)NC1=O", 
	 "Tm": 425.15, 
	 "num_atms": 34, 
	 "gaussian": { 
		 "optdone": 1, 
		 "sigma_profile": "yes", 
		 "theory": "DFT", 
		 "functional": "B3LYP", 
		 "basiset": "6-31G**", 
		 "properties": { 
			 "R2extent": 5226.4611, 
			 "electric_dipole_moment_norm": 3.66716807496, 
			 "electric_quadrupole_moment_norm": 20.3539525992, 
			 "total_energy": -914.455046996, 
			 "HOMO_LUMO_gap": 0.19961, 
			 "cosmo_polarized_energy": -21.5, 
			 "cosmo_cavitation_energy": 35.8, 
			 "cosmo_dispersion_energy": -25.45, 
			 "cosmo_repulsion_energy": 1.99, 
			 "cosmo_total_nonelectrostatic_energy": 12.34, 
			 "SMD_solvation_energy": 7.06 
		},
		"coords": [
			{
				"x": 0.009151728,
				"y": -3.5842478452,
				"z": -2.1986893309,
				"element": "C" 
			},
			{
				"x": 0.1626273042,
				"y": -2.9269858074,
				"z": -0.8160773958,
				"element": "C" 
			},
			{
				"x": 1.0773407496,
				"y": -1.7281494694,
				"z": -0.8205786086,
				"element": "C" 
			},
			{
				"x": 0.6295854143,
				"y": -0.4548123559,
				"z": -0.694723096,
				"element": "C" 
			},
			{
				"x": 1.452880579,
				"y": 0.6516496463,
				"z": -0.7105818444,
				"element": "N" 
			},
			{
				"x": 0.9402874321,
				"y": 2.0493927513,
				"z": -0.6010906311,
				"element": "C" 
			},
			{
				"x": 1.2429492117,
				"y": 2.6914819258,
				"z": 0.7657535257,
				"element": "C" 
			},
			{
				"x": -0.0479330492,
				"y": 2.4705632634,
				"z": 1.5580483693,
				"element": "C" 
			},
			{
				"x": -0.1338012534,
				"y": 1.1694177192,
				"z": 2.1473433721,
				"element": "O" 
			},
			{
				"x": -1.1048628032,
				"y": 2.5545137594,
				"z": 0.4509091501,
				"element": "C" 
			},
			{
				"x": -2.3794687814,
				"y": 1.7451856811,
				"z": 0.719324188,
				"element": "C" 
			},
			{
				"x": -2.89741697,
				"y": 2.0330920615,
				"z": 2.0053808176,
				"element": "O" 
			},
			{
				"x": -0.4597671231,
				"y": 2.0604255779,
				"z": -0.746280958,
				"element": "O" 
			},
			{
				"x": 2.8291407819,
				"y": 0.5378520774,
				"z": -0.8765360669,
				"element": "C" 
			},
			{
				"x": 3.5740769627,
				"y": 1.5106070642,
				"z": -0.895096171,
				"element": "O" 
			},
			{
				"x": 3.2732327851,
				"y": -0.7642595639,
				"z": -1.0038455021,
				"element": "N" 
			},
			{
				"x": 2.5130293375,
				"y": -1.9499452684,
				"z": -0.9833613116,
				"element": "C" 
			},
			{
				"x": 3.0678852012,
				"y": -3.0354323361,
				"z": -1.0941520018,
				"element": "O" 
			},
			{
				"x": 0.9813780497,
				"y": -3.9155144693,
				"z": -2.5716847487,
				"element": "H" 
			},
			{
				"x": -0.4190312357,
				"y": -2.8831271745,
				"z": -2.9227763817,
				"element": "H" 
			},
			{
				"x": -0.6496058502,
				"y": -4.4568827292,
				"z": -2.1399593312,
				"element": "H" 
			},
			{
				"x": -0.8199009039,
				"y": -2.6260643031,
				"z": -0.4344037876,
				"element": "H" 
			},
			{
				"x": 0.5650948803,
				"y": -3.6686132478,
				"z": -0.1162101869,
				"element": "H" 
			},
			{
				"x": -0.4202956052,
				"y": -0.2206749885,
				"z": -0.5860752342,
				"element": "H" 
			},
			{
				"x": 1.4085678504,
				"y": 2.5998503799,
				"z": -1.4206106869,
				"element": "H" 
			},
			{
				"x": 2.1375893854,
				"y": 2.2792426741,
				"z": 1.2356002272,
				"element": "H" 
			},
			{
				"x": 1.4089978533,
				"y": 3.7645487789,
				"z": 0.6257952748,
				"element": "H" 
			},
			{
				"x": -0.2105836598,
				"y": 3.2460635691,
				"z": 2.3163804723,
				"element": "H" 
			},
			{
				"x": 0.6065751798,
				"y": 1.059565849,
				"z": 2.7575690516,
				"element": "H" 
			},
			{
				"x": -1.3633863955,
				"y": 3.6108267122,
				"z": 0.2971836075,
				"element": "H" 
			},
			{
				"x": -3.149015427,
				"y": 2.0123025366,
				"z": -0.0104799865,
				"element": "H" 
			},
			{
				"x": -2.1561262099,
				"y": 0.6778624226,
				"z": 0.5977526759,
				"element": "H" 
			},
			{
				"x": -2.2963069807,
				"y": 1.5991068918,
				"z": 2.6285210115,
				"element": "H" 
			},
			{
				"x": 4.273411562,
				"y": -0.8740417831,
				"z": -1.1208484816,
				"element": "H" 
			}
		],
		 "valence_orbital": [ 
			{
				"type": "occ",
				"energy": -0.28812,
				"method": "rhf"
			},
			{
				"type": "occ",
				"energy": -0.2803,
				"method": "rhf"
			},
			{
				"type": "occ",
				"energy": -0.27253,
				"method": "rhf"
			},
			{
				"type": "occ",
				"energy": -0.25601,
				"method": "rhf"
			},
			{
				"type": "occ",
				"energy": -0.22944,
				"method": "rhf"
			},
			{
				"type": "unocc",
				"energy": -0.02983,
				"method": "rhf"
			},
			{
				"type": "unocc",
				"energy": 0.01296,
				"method": "rhf"
			},
			{
				"type": "unocc",
				"energy": 0.03953,
				"method": "rhf"
			},
			{
				"type": "unocc",
				"energy": 0.07189,
				"method": "rhf"
			},
			{
				"type": "unocc",
				"energy": 0.0854,
				"method": "rhf"
			}
		],
		"cosmo_sigma_profile": { 
			"-0.025": 0.0,
			"-0.024": 0.0,
			"-0.023": 0.0,
			"-0.022": 0.0,
			"-0.021": 0.0,
			"-0.02": 0.0,
			"-0.019": 0.0,
			"-0.018": 0.0,
			"-0.017": 0.122451556896,
			"-0.016": 1.58227193326,
			"-0.015": 1.89128160765,
			"-0.014": 1.747904225,
			"-0.013": 1.8845148088,
			"-0.012": 1.49303472616,
			"-0.011": 2.56902097193,
			"-0.01": 1.63625908257,
			"-0.009": 2.64907563409,
			"-0.008": 3.16185649697,
			"-0.007": 6.21238842115,
			"-0.006": 16.9435872412,
			"-0.005": 19.6349619468,
			"-0.004": 19.4261998186,
			"-0.003": 21.6768174237,
			"-0.002": 24.1071003534,
			"-0.001": 24.8699032257,
			"0.0": 22.7228194239,
			"0.001": 20.1291032605,
			"0.002": 10.9693726282,
			"0.003": 8.30247395537,
			"0.004": 6.03396034685,
			"0.005": 6.2263523582,
			"0.006": 5.51753003305,
			"0.007": 5.36836228415,
			"0.008": 5.24086535015,
			"0.009": 5.34762227612,
			"0.01": 4.67798887047,
			"0.011": 5.69715670096,
			"0.012": 7.36316679272,
			"0.013": 10.5218926642,
			"0.014": 4.04846856606,
			"0.015": 0.202787713396,
			"0.016": 0.0,
			"0.017": 0.0,
			"0.018": 0.0,
			"0.019": 0.0,
			"0.02": 0.0,
			"0.021": 0.0,
			"0.022": 0.0,
			"0.023": 0.0,
			"0.024": 0.0,
			"0.025": 0.0
		}
	}
}
