{
	 "smiles": "C(CCP(C1=CC=CC=C1)C1=CC=CC=C1)CCP(C1=CC=CC=C1)C1=CC=CC=C1", 
	 "Tm": 320.15, 
	 "num_atms": 61, 
	 "gaussian": { 
		 "optdone": 1, 
		 "sigma_profile": "yes", 
		 "theory": "DFT", 
		 "functional": "B3LYP", 
		 "basiset": "6-31G**", 
		 "properties": { 
			 "R2extent": 20955.337, 
			 "electric_dipole_moment_norm": 2.57613160766, 
			 "electric_quadrupole_moment_norm": 10.0573312797, 
			 "total_energy": -1805.87617291, 
			 "HOMO_LUMO_gap": 0.18987, 
			 "cosmo_polarized_energy": -13.0, 
			 "cosmo_cavitation_energy": 65.49, 
			 "cosmo_dispersion_energy": -42.66, 
			 "cosmo_repulsion_energy": 3.43, 
			 "cosmo_total_nonelectrostatic_energy": 26.26, 
			 "SMD_solvation_energy": 10.21 
		},
		"coords": [
			{
				"x": -1.5836203225,
				"y": 0.7407951723,
				"z": -1.235063448,
				"element": "C" 
			},
			{
				"x": -1.0791708019,
				"y": -0.0376360704,
				"z": -0.0113400547,
				"element": "C" 
			},
			{
				"x": -1.1938107978,
				"y": -1.5671781522,
				"z": -0.1488599578,
				"element": "C" 
			},
			{
				"x": -2.9662268767,
				"y": -2.1924720132,
				"z": -0.1611230063,
				"element": "P" 
			},
			{
				"x": -2.7294090532,
				"y": -4.0282371662,
				"z": -0.2363170173,
				"element": "C" 
			},
			{
				"x": -1.4943880314,
				"y": -4.6678946592,
				"z": -0.4240001276,
				"element": "C" 
			},
			{
				"x": -1.4178902769,
				"y": -6.0596035431,
				"z": -0.5349593742,
				"element": "C" 
			},
			{
				"x": -2.5719369935,
				"y": -6.8373723852,
				"z": -0.454237898,
				"element": "C" 
			},
			{
				"x": -3.8094666822,
				"y": -6.2146506089,
				"z": -0.2689498397,
				"element": "C" 
			},
			{
				"x": -3.8861314965,
				"y": -4.8272424495,
				"z": -0.1710664935,
				"element": "C" 
			},
			{
				"x": -3.4092148997,
				"y": -1.9519021802,
				"z": 1.6269432075,
				"element": "C" 
			},
			{
				"x": -4.3211072335,
				"y": -0.9338889357,
				"z": 1.9452723326,
				"element": "C" 
			},
			{
				"x": -4.6745121084,
				"y": -0.6766928885,
				"z": 3.2724933111,
				"element": "C" 
			},
			{
				"x": -4.1274704238,
				"y": -1.4442583459,
				"z": 4.3006944785,
				"element": "C" 
			},
			{
				"x": -3.2249562244,
				"y": -2.4676473553,
				"z": 3.99748275,
				"element": "C" 
			},
			{
				"x": -2.8680796484,
				"y": -2.7179341355,
				"z": 2.6727883096,
				"element": "C" 
			},
			{
				"x": -1.4901420892,
				"y": 2.2694849904,
				"z": -1.0983031122,
				"element": "C" 
			},
			{
				"x": -0.0760055775,
				"y": 2.8677751652,
				"z": -0.9576780248,
				"element": "C" 
			},
			{
				"x": 0.9774147589,
				"y": 2.7303803011,
				"z": -2.5093956,
				"element": "P" 
			},
			{
				"x": 1.8415564686,
				"y": 1.0974879853,
				"z": -2.2777375621,
				"element": "C" 
			},
			{
				"x": 2.7068744608,
				"y": 0.8187304594,
				"z": -1.2072387398,
				"element": "C" 
			},
			{
				"x": 3.3189391675,
				"y": -0.4293350525,
				"z": -1.0903712764,
				"element": "C" 
			},
			{
				"x": 3.0793927708,
				"y": -1.4209184863,
				"z": -2.0459907241,
				"element": "C" 
			},
			{
				"x": 2.23018471,
				"y": -1.1554674437,
				"z": -3.120576678,
				"element": "C" 
			},
			{
				"x": 1.6204146939,
				"y": 0.0967864623,
				"z": -3.2359478046,
				"element": "C" 
			},
			{
				"x": 2.3619384767,
				"y": 3.9069945179,
				"z": -2.1285349998,
				"element": "C" 
			},
			{
				"x": 2.618023078,
				"y": 4.4780201852,
				"z": -0.8716020293,
				"element": "C" 
			},
			{
				"x": 3.6785361767,
				"y": 5.3700451234,
				"z": -0.6925397649,
				"element": "C" 
			},
			{
				"x": 4.5058962579,
				"y": 5.703716622,
				"z": -1.7649659137,
				"element": "C" 
			},
			{
				"x": 4.2630312696,
				"y": 5.1455978504,
				"z": -3.0220633293,
				"element": "C" 
			},
			{
				"x": 3.1974690657,
				"y": 4.2644545884,
				"z": -3.2012256795,
				"element": "C" 
			},
			{
				"x": -2.6319241302,
				"y": 0.4781777195,
				"z": -1.421982144,
				"element": "H" 
			},
			{
				"x": -1.0293398617,
				"y": 0.4112802707,
				"z": -2.122817075,
				"element": "H" 
			},
			{
				"x": -1.6180439356,
				"y": 0.2948778349,
				"z": 0.8861840653,
				"element": "H" 
			},
			{
				"x": -0.0221714805,
				"y": 0.1969615702,
				"z": 0.1613184512,
				"element": "H" 
			},
			{
				"x": -0.7330048919,
				"y": -1.8785198684,
				"z": -1.0944152374,
				"element": "H" 
			},
			{
				"x": -0.6378017416,
				"y": -2.0552559946,
				"z": 0.6603036902,
				"element": "H" 
			},
			{
				"x": -0.5793647642,
				"y": -4.0882600777,
				"z": -0.4846143173,
				"element": "H" 
			},
			{
				"x": -0.4508677868,
				"y": -6.5335306606,
				"z": -0.6810427591,
				"element": "H" 
			},
			{
				"x": -2.5106733643,
				"y": -7.9186077347,
				"z": -0.539134436,
				"element": "H" 
			},
			{
				"x": -4.7160299461,
				"y": -6.81059082,
				"z": -0.2087386983,
				"element": "H" 
			},
			{
				"x": -4.8565001942,
				"y": -4.3541498559,
				"z": -0.0407230199,
				"element": "H" 
			},
			{
				"x": -4.7617124212,
				"y": -0.3437974208,
				"z": 1.1456916566,
				"element": "H" 
			},
			{
				"x": -5.381517129,
				"y": 0.1163521443,
				"z": 3.5001815129,
				"element": "H" 
			},
			{
				"x": -4.4056973304,
				"y": -1.2514563391,
				"z": 5.333081833,
				"element": "H" 
			},
			{
				"x": -2.800393561,
				"y": -3.0718318703,
				"z": 4.7948149439,
				"element": "H" 
			},
			{
				"x": -2.1728002028,
				"y": -3.5217316991,
				"z": 2.4471053917,
				"element": "H" 
			},
			{
				"x": -2.0748059952,
				"y": 2.5791732007,
				"z": -0.2205755281,
				"element": "H" 
			},
			{
				"x": -1.9778543111,
				"y": 2.7305418216,
				"z": -1.9660226117,
				"element": "H" 
			},
			{
				"x": -0.1785972745,
				"y": 3.9448316903,
				"z": -0.7792400425,
				"element": "H" 
			},
			{
				"x": 0.4430869696,
				"y": 2.4507449681,
				"z": -0.0871189872,
				"element": "H" 
			},
			{
				"x": 2.9169315519,
				"y": 1.5873122432,
				"z": -0.4683919757,
				"element": "H" 
			},
			{
				"x": 3.9873989481,
				"y": -0.6275362534,
				"z": -0.2568138436,
				"element": "H" 
			},
			{
				"x": 3.5592221051,
				"y": -2.3915058919,
				"z": -1.9559520526,
				"element": "H" 
			},
			{
				"x": 2.0464127632,
				"y": -1.9178660029,
				"z": -3.8726049104,
				"element": "H" 
			},
			{
				"x": 0.9659789814,
				"y": 0.3026673186,
				"z": -4.0790626727,
				"element": "H" 
			},
			{
				"x": 1.9915312591,
				"y": 4.2332582767,
				"z": -0.0197173809,
				"element": "H" 
			},
			{
				"x": 3.8576156236,
				"y": 5.8021922229,
				"z": 0.2883696213,
				"element": "H" 
			},
			{
				"x": 5.329911642,
				"y": 6.3974801035,
				"z": -1.6244254982,
				"element": "H" 
			},
			{
				"x": 4.89726096,
				"y": 5.4045818513,
				"z": -3.86538929,
				"element": "H" 
			},
			{
				"x": 3.0054177008,
				"y": 3.8495697013,
				"z": -4.1877546196,
				"element": "H" 
			}
		],
		 "valence_orbital": [ 
			{
				"type": "occ",
				"energy": -0.2492,
				"method": "rhf"
			},
			{
				"type": "occ",
				"energy": -0.24845,
				"method": "rhf"
			},
			{
				"type": "occ",
				"energy": -0.24666,
				"method": "rhf"
			},
			{
				"type": "occ",
				"energy": -0.21828,
				"method": "rhf"
			},
			{
				"type": "occ",
				"energy": -0.21081,
				"method": "rhf"
			},
			{
				"type": "unocc",
				"energy": -0.02094,
				"method": "rhf"
			},
			{
				"type": "unocc",
				"energy": -0.01517,
				"method": "rhf"
			},
			{
				"type": "unocc",
				"energy": -0.01086,
				"method": "rhf"
			},
			{
				"type": "unocc",
				"energy": -0.00811,
				"method": "rhf"
			},
			{
				"type": "unocc",
				"energy": -0.00345,
				"method": "rhf"
			}
		],
		"cosmo_sigma_profile": { 
			"-0.025": 0.0,
			"-0.024": 0.0,
			"-0.023": 0.0,
			"-0.022": 0.0,
			"-0.021": 0.0,
			"-0.02": 0.0,
			"-0.019": 0.0,
			"-0.018": 0.0,
			"-0.017": 0.0,
			"-0.016": 0.0,
			"-0.015": 0.0,
			"-0.014": 0.0,
			"-0.013": 0.0,
			"-0.012": 0.0,
			"-0.011": 0.0,
			"-0.01": 0.0,
			"-0.009": 0.0,
			"-0.008": 0.0,
			"-0.007": 0.000591441704986,
			"-0.006": 13.999488876,
			"-0.005": 37.8347883263,
			"-0.004": 53.2827772367,
			"-0.003": 53.991772733,
			"-0.002": 45.5437506347,
			"-0.001": 50.646445441,
			"0.0": 46.4341773573,
			"0.001": 39.5069111814,
			"0.002": 37.7975760302,
			"0.003": 35.1283763731,
			"0.004": 38.2243528204,
			"0.005": 35.3240254731,
			"0.006": 21.4899482022,
			"0.007": 1.34844290686,
			"0.008": 1.70144829278,
			"0.009": 1.40834434189,
			"0.01": 1.27346383105,
			"0.011": 0.899412467259,
			"0.012": 1.54592456129,
			"0.013": 1.44429281078,
			"0.014": 0.727346197114,
			"0.015": 0.37386816196,
			"0.016": 0.0,
			"0.017": 0.0,
			"0.018": 0.0,
			"0.019": 0.0,
			"0.02": 0.0,
			"0.021": 0.0,
			"0.022": 0.0,
			"0.023": 0.0,
			"0.024": 0.0,
			"0.025": 0.0
		}
	}
}
