{
	 "smiles": "CC(C)C1=CC=C(CCNC(=O)CCl)C=C1", 
	 "Tm": 328.15, 
	 "num_atms": 34, 
	 "gaussian": { 
		 "optdone": 1, 
		 "sigma_profile": "yes", 
		 "theory": "DFT", 
		 "functional": "B3LYP", 
		 "basiset": "6-31G**", 
		 "properties": { 
			 "R2extent": 5533.1768, 
			 "electric_dipole_moment_norm": 3.95940533288, 
			 "electric_quadrupole_moment_norm": 16.6638757194, 
			 "total_energy": -1096.43188051, 
			 "HOMO_LUMO_gap": 0.22394, 
			 "cosmo_polarized_energy": -12.79, 
			 "cosmo_cavitation_energy": 37.97, 
			 "cosmo_dispersion_energy": -25.2, 
			 "cosmo_repulsion_energy": 2.02, 
			 "cosmo_total_nonelectrostatic_energy": 14.79, 
			 "SMD_solvation_energy": 6.29 
		},
		"coords": [
			{
				"x": -1.2171089893,
				"y": 2.8138376334,
				"z": 2.2067512592,
				"element": "C" 
			},
			{
				"x": -2.5097479595,
				"y": 2.0384331758,
				"z": 1.8892768734,
				"element": "C" 
			},
			{
				"x": -3.6113512965,
				"y": 2.9856828936,
				"z": 1.376916167,
				"element": "C" 
			},
			{
				"x": -2.2586690617,
				"y": 0.8875573661,
				"z": 0.9241151215,
				"element": "C" 
			},
			{
				"x": -2.4992428641,
				"y": -0.436848755,
				"z": 1.3079208947,
				"element": "C" 
			},
			{
				"x": -2.2768012966,
				"y": -1.5001015674,
				"z": 0.4305147534,
				"element": "C" 
			},
			{
				"x": -1.8028638781,
				"y": -1.2753386395,
				"z": -0.8672509205,
				"element": "C" 
			},
			{
				"x": -1.5100091853,
				"y": -2.4208281958,
				"z": -1.8099099101,
				"element": "C" 
			},
			{
				"x": -0.0416638835,
				"y": -2.9075719939,
				"z": -1.7626675222,
				"element": "C" 
			},
			{
				"x": 0.3336228686,
				"y": -3.5267611537,
				"z": -0.5000912319,
				"element": "N" 
			},
			{
				"x": 1.0180051858,
				"y": -3.0064538514,
				"z": 0.5622211255,
				"element": "C" 
			},
			{
				"x": 1.1483303762,
				"y": -3.6238861718,
				"z": 1.6108553867,
				"element": "O" 
			},
			{
				"x": 1.624991959,
				"y": -1.6098453328,
				"z": 0.4178431273,
				"element": "C" 
			},
			{
				"x": 3.0347390168,
				"y": -1.5798348857,
				"z": -0.7336281073,
				"element": "Cl" 
			},
			{
				"x": -1.5637822122,
				"y": 0.0518428311,
				"z": -1.2562449212,
				"element": "C" 
			},
			{
				"x": -1.7860490362,
				"y": 1.1114012071,
				"z": -0.3785862506,
				"element": "C" 
			},
			{
				"x": -0.4445845297,
				"y": 2.1503565596,
				"z": 2.607710558,
				"element": "H" 
			},
			{
				"x": -0.8113595604,
				"y": 3.2957824185,
				"z": 1.3103446743,
				"element": "H" 
			},
			{
				"x": -1.4093760298,
				"y": 3.5986518096,
				"z": 2.94634284,
				"element": "H" 
			},
			{
				"x": -2.8668780281,
				"y": 1.5960327714,
				"z": 2.8284958259,
				"element": "H" 
			},
			{
				"x": -4.5427487487,
				"y": 2.4439721597,
				"z": 1.1852327493,
				"element": "H" 
			},
			{
				"x": -3.8180705893,
				"y": 3.771007318,
				"z": 2.1121158365,
				"element": "H" 
			},
			{
				"x": -3.3122525546,
				"y": 3.4756026568,
				"z": 0.4436744346,
				"element": "H" 
			},
			{
				"x": -2.8683428447,
				"y": -0.6423506357,
				"z": 2.3098946289,
				"element": "H" 
			},
			{
				"x": -2.4757750976,
				"y": -2.5162621252,
				"z": 0.7609954408,
				"element": "H" 
			},
			{
				"x": -1.7223962838,
				"y": -2.1194497332,
				"z": -2.8431258733,
				"element": "H" 
			},
			{
				"x": -2.1689707433,
				"y": -3.2693324353,
				"z": -1.5890636621,
				"element": "H" 
			},
			{
				"x": 0.117566072,
				"y": -3.6411670255,
				"z": -2.5619656805,
				"element": "H" 
			},
			{
				"x": 0.6381051006,
				"y": -2.0784911556,
				"z": -1.9666036517,
				"element": "H" 
			},
			{
				"x": -0.0349206458,
				"y": -4.449063883,
				"z": -0.3033991653,
				"element": "H" 
			},
			{
				"x": 0.9060527587,
				"y": -0.8715548527,
				"z": 0.0613382652,
				"element": "H" 
			},
			{
				"x": 2.0103981115,
				"y": -1.327702558,
				"z": 1.3944606856,
				"element": "H" 
			},
			{
				"x": -1.2045252851,
				"y": 0.2582217872,
				"z": -2.262357325,
				"element": "H" 
			},
			{
				"x": -1.5943208453,
				"y": 2.1261623632,
				"z": -0.7174264263,
				"element": "H" 
			}
		],
		 "valence_orbital": [ 
			{
				"type": "occ",
				"energy": -0.29995,
				"method": "rhf"
			},
			{
				"type": "occ",
				"energy": -0.25993,
				"method": "rhf"
			},
			{
				"type": "occ",
				"energy": -0.25409,
				"method": "rhf"
			},
			{
				"type": "occ",
				"energy": -0.25017,
				"method": "rhf"
			},
			{
				"type": "occ",
				"energy": -0.23943,
				"method": "rhf"
			},
			{
				"type": "unocc",
				"energy": -0.01549,
				"method": "rhf"
			},
			{
				"type": "unocc",
				"energy": -0.00863,
				"method": "rhf"
			},
			{
				"type": "unocc",
				"energy": -0.00663,
				"method": "rhf"
			},
			{
				"type": "unocc",
				"energy": 0.05864,
				"method": "rhf"
			},
			{
				"type": "unocc",
				"energy": 0.07946,
				"method": "rhf"
			}
		],
		"cosmo_sigma_profile": { 
			"-0.025": 0.0,
			"-0.024": 0.0,
			"-0.023": 0.0,
			"-0.022": 0.0,
			"-0.021": 0.0,
			"-0.02": 0.0,
			"-0.019": 0.0,
			"-0.018": 0.0,
			"-0.017": 0.0,
			"-0.016": 0.0,
			"-0.015": 0.0,
			"-0.014": 0.461777911254,
			"-0.013": 1.11947363771,
			"-0.012": 1.32995964028,
			"-0.011": 0.875530511759,
			"-0.01": 1.27413564075,
			"-0.009": 0.998981827875,
			"-0.008": 2.40938747544,
			"-0.007": 2.35772043875,
			"-0.006": 5.17453874518,
			"-0.005": 17.1633714415,
			"-0.004": 28.832786078,
			"-0.003": 29.9934629987,
			"-0.002": 27.0820018004,
			"-0.001": 30.5385244388,
			"0.0": 27.8507222833,
			"0.001": 29.8481712929,
			"0.002": 21.5906912188,
			"0.003": 16.5629302512,
			"0.004": 12.9099909615,
			"0.005": 12.6882349959,
			"0.006": 9.77635120652,
			"0.007": 2.29935974037,
			"0.008": 0.800967339688,
			"0.009": 1.530802022,
			"0.01": 1.62423446365,
			"0.011": 0.851537462712,
			"0.012": 2.7944527694,
			"0.013": 5.24937574352,
			"0.014": 3.44031392731,
			"0.015": 0.0975070498294,
			"0.016": 0.0,
			"0.017": 0.0,
			"0.018": 0.0,
			"0.019": 0.0,
			"0.02": 0.0,
			"0.021": 0.0,
			"0.022": 0.0,
			"0.023": 0.0,
			"0.024": 0.0,
			"0.025": 0.0
		}
	}
}
