{
	 "smiles": "NCCCN1C=CN=C1", 
	 "Tm": 205.15, 
	 "num_atms": 20, 
	 "gaussian": { 
		 "optdone": 1, 
		 "sigma_profile": "yes", 
		 "theory": "DFT", 
		 "functional": "B3LYP", 
		 "basiset": "6-31G**", 
		 "properties": { 
			 "R2extent": 1657.9755, 
			 "electric_dipole_moment_norm": 4.72481447784, 
			 "electric_quadrupole_moment_norm": 10.6227497123, 
			 "total_energy": -399.508385385, 
			 "HOMO_LUMO_gap": 0.25155, 
			 "cosmo_polarized_energy": -14.8, 
			 "cosmo_cavitation_energy": 23.08, 
			 "cosmo_dispersion_energy": -16.53, 
			 "cosmo_repulsion_energy": 1.37, 
			 "cosmo_total_nonelectrostatic_energy": 7.92, 
			 "SMD_solvation_energy": 1.43 
		},
		"coords": [
			{
				"x": 2.4074785384,
				"y": 1.0416670161,
				"z": 2.0405480148,
				"element": "N" 
			},
			{
				"x": 1.6906915584,
				"y": 0.8790077171,
				"z": 0.7760303151,
				"element": "C" 
			},
			{
				"x": 0.8549240176,
				"y": -0.405976601,
				"z": 0.6416645416,
				"element": "C" 
			},
			{
				"x": 0.1141800182,
				"y": -0.5368231056,
				"z": -0.6977039639,
				"element": "C" 
			},
			{
				"x": -0.9226487898,
				"y": 0.4717354593,
				"z": -0.8943418467,
				"element": "N" 
			},
			{
				"x": -2.1470137789,
				"y": 0.5331914448,
				"z": -0.2557266953,
				"element": "C" 
			},
			{
				"x": -2.7588106298,
				"y": 1.6655540448,
				"z": -0.7354604959,
				"element": "C" 
			},
			{
				"x": -1.951478988,
				"y": 2.3054212568,
				"z": -1.6479053756,
				"element": "N" 
			},
			{
				"x": -0.8649075052,
				"y": 1.5656166269,
				"z": -1.7161424073,
				"element": "C" 
			},
			{
				"x": 1.7467957502,
				"y": 1.0810638929,
				"z": 2.8133348038,
				"element": "H" 
			},
			{
				"x": 3.0027015958,
				"y": 0.234456803,
				"z": 2.213691247,
				"element": "H" 
			},
			{
				"x": 1.0440498014,
				"y": 1.7531052906,
				"z": 0.6412910704,
				"element": "H" 
			},
			{
				"x": 2.4278452311,
				"y": 0.9145323034,
				"z": -0.037667986,
				"element": "H" 
			},
			{
				"x": 0.1284269408,
				"y": -0.4596643774,
				"z": 1.4632387268,
				"element": "H" 
			},
			{
				"x": 1.5121242565,
				"y": -1.2800634284,
				"z": 0.7484048456,
				"element": "H" 
			},
			{
				"x": 0.8187682733,
				"y": -0.4423761365,
				"z": -1.5309046026,
				"element": "H" 
			},
			{
				"x": -0.3473364489,
				"y": -1.5268158812,
				"z": -0.7795736315,
				"element": "H" 
			},
			{
				"x": -2.4594022371,
				"y": -0.2204667476,
				"z": 0.4514346175,
				"element": "H" 
			},
			{
				"x": -3.736420024,
				"y": 2.0506567656,
				"z": -0.4791731278,
				"element": "H" 
			},
			{
				"x": -0.0034675799,
				"y": 1.7594776564,
				"z": -2.34203805,
				"element": "H" 
			}
		],
		 "valence_orbital": [ 
			{
				"type": "occ",
				"energy": -0.34879,
				"method": "rhf"
			},
			{
				"type": "occ",
				"energy": -0.26565,
				"method": "rhf"
			},
			{
				"type": "occ",
				"energy": -0.25807,
				"method": "rhf"
			},
			{
				"type": "occ",
				"energy": -0.23767,
				"method": "rhf"
			},
			{
				"type": "occ",
				"energy": -0.22175,
				"method": "rhf"
			},
			{
				"type": "unocc",
				"energy": 0.0298,
				"method": "rhf"
			},
			{
				"type": "unocc",
				"energy": 0.07112,
				"method": "rhf"
			},
			{
				"type": "unocc",
				"energy": 0.0762,
				"method": "rhf"
			},
			{
				"type": "unocc",
				"energy": 0.08586,
				"method": "rhf"
			},
			{
				"type": "unocc",
				"energy": 0.10534,
				"method": "rhf"
			}
		],
		"cosmo_sigma_profile": { 
			"-0.025": 0.0,
			"-0.024": 0.0,
			"-0.023": 0.0,
			"-0.022": 0.0,
			"-0.021": 0.0,
			"-0.02": 0.0,
			"-0.019": 0.0,
			"-0.018": 0.0,
			"-0.017": 0.0,
			"-0.016": 0.0,
			"-0.015": 0.0,
			"-0.014": 0.0,
			"-0.013": 0.0,
			"-0.012": 0.0,
			"-0.011": 0.0,
			"-0.01": 0.297712880855,
			"-0.009": 2.77072478815,
			"-0.008": 6.09622923522,
			"-0.007": 8.7615763611,
			"-0.006": 12.5612998443,
			"-0.005": 14.1908645851,
			"-0.004": 17.089205082,
			"-0.003": 21.4151281196,
			"-0.002": 14.1582138374,
			"-0.001": 11.9458873953,
			"0.0": 9.25286427228,
			"0.001": 7.15366891874,
			"0.002": 5.66845826955,
			"0.003": 5.22388717465,
			"0.004": 5.37072987025,
			"0.005": 5.56392214238,
			"0.006": 5.55914580365,
			"0.007": 3.32260181376,
			"0.008": 2.57803199996,
			"0.009": 2.67787501617,
			"0.01": 2.88577254892,
			"0.011": 1.8050694533,
			"0.012": 1.98606627616,
			"0.013": 1.85003512748,
			"0.014": 2.23034500155,
			"0.015": 1.49945114481,
			"0.016": 2.03461871648,
			"0.017": 2.12163915723,
			"0.018": 1.25092256895,
			"0.019": 1.01350152783,
			"0.02": 0.52646033492,
			"0.021": 0.0,
			"0.022": 0.0,
			"0.023": 0.0,
			"0.024": 0.0,
			"0.025": 0.0
		}
	}
}
