{
	 "smiles": "CN1C(S)=NN=C1CC1=CC=CC=C1", 
	 "Tm": 432.15, 
	 "num_atms": 25, 
	 "gaussian": { 
		 "optdone": 1, 
		 "sigma_profile": "yes", 
		 "theory": "DFT", 
		 "functional": "B3LYP", 
		 "basiset": "6-31G**", 
		 "properties": { 
			 "R2extent": 4331.4826, 
			 "electric_dipole_moment_norm": 4.71097208758, 
			 "electric_quadrupole_moment_norm": 15.2508978116, 
			 "total_energy": -950.114130347, 
			 "HOMO_LUMO_gap": 0.21505, 
			 "cosmo_polarized_energy": -16.23, 
			 "cosmo_cavitation_energy": 30.52, 
			 "cosmo_dispersion_energy": -22.07, 
			 "cosmo_repulsion_energy": 1.7, 
			 "cosmo_total_nonelectrostatic_energy": 10.14, 
			 "SMD_solvation_energy": 2.59 
		},
		"coords": [
			{
				"x": -0.9495331477,
				"y": -1.3267164323,
				"z": 2.193337358,
				"element": "C" 
			},
			{
				"x": -1.8758779602,
				"y": -0.2646791328,
				"z": 1.8287518229,
				"element": "N" 
			},
			{
				"x": -2.6380942836,
				"y": 0.5059993056,
				"z": 2.6695045321,
				"element": "C" 
			},
			{
				"x": -2.5913773307,
				"y": 0.3218385939,
				"z": 4.4279362797,
				"element": "S" 
			},
			{
				"x": -3.3746582452,
				"y": 1.3595930105,
				"z": 1.9992006208,
				"element": "N" 
			},
			{
				"x": -3.1007024501,
				"y": 1.1523267348,
				"z": 0.6587776952,
				"element": "N" 
			},
			{
				"x": -2.2185668939,
				"y": 0.1845996788,
				"z": 0.5681293743,
				"element": "C" 
			},
			{
				"x": -1.6495182667,
				"y": -0.3370818556,
				"z": -0.7152143445,
				"element": "C" 
			},
			{
				"x": -0.1854399028,
				"y": 0.0166422186,
				"z": -0.9471967353,
				"element": "C" 
			},
			{
				"x": 0.7323240456,
				"y": -0.9608558435,
				"z": -1.3494690732,
				"element": "C" 
			},
			{
				"x": 2.069010037,
				"y": -0.6304648592,
				"z": -1.5878298432,
				"element": "C" 
			},
			{
				"x": 2.5028426205,
				"y": 0.6849906489,
				"z": -1.4245230771,
				"element": "C" 
			},
			{
				"x": 1.593266386,
				"y": 1.6674488907,
				"z": -1.0234875883,
				"element": "C" 
			},
			{
				"x": 0.2600066921,
				"y": 1.3362464161,
				"z": -0.7855993547,
				"element": "C" 
			},
			{
				"x": -0.2271536667,
				"y": -1.4640253633,
				"z": 1.388354413,
				"element": "H" 
			},
			{
				"x": -1.4776204298,
				"y": -2.2685403121,
				"z": 2.3749198062,
				"element": "H" 
			},
			{
				"x": -0.4052622561,
				"y": -1.0438627054,
				"z": 3.0978385812,
				"element": "H" 
			},
			{
				"x": -3.4059859141,
				"y": 1.3753368454,
				"z": 4.6247338449,
				"element": "H" 
			},
			{
				"x": -2.2696780227,
				"y": 0.0976321801,
				"z": -1.5064143885,
				"element": "H" 
			},
			{
				"x": -1.7783009647,
				"y": -1.424551305,
				"z": -0.7767117892,
				"element": "H" 
			},
			{
				"x": 0.3979325104,
				"y": -1.9871124834,
				"z": -1.485444408,
				"element": "H" 
			},
			{
				"x": 2.7678343895,
				"y": -1.401414575,
				"z": -1.9001049081,
				"element": "H" 
			},
			{
				"x": 3.541374563,
				"y": 0.944545876,
				"z": -1.60822642,
				"element": "H" 
			},
			{
				"x": 1.9232860032,
				"y": 2.6945945707,
				"z": -0.8961970779,
				"element": "H" 
			},
			{
				"x": -0.4463075124,
				"y": 2.1009098974,
				"z": -0.4732653201,
				"element": "H" 
			}
		],
		 "valence_orbital": [ 
			{
				"type": "occ",
				"energy": -0.28668,
				"method": "rhf"
			},
			{
				"type": "occ",
				"energy": -0.25719,
				"method": "rhf"
			},
			{
				"type": "occ",
				"energy": -0.25186,
				"method": "rhf"
			},
			{
				"type": "occ",
				"energy": -0.25152,
				"method": "rhf"
			},
			{
				"type": "occ",
				"energy": -0.22645,
				"method": "rhf"
			},
			{
				"type": "unocc",
				"energy": -0.0114,
				"method": "rhf"
			},
			{
				"type": "unocc",
				"energy": -0.0093,
				"method": "rhf"
			},
			{
				"type": "unocc",
				"energy": 0.00631,
				"method": "rhf"
			},
			{
				"type": "unocc",
				"energy": 0.01799,
				"method": "rhf"
			},
			{
				"type": "unocc",
				"energy": 0.04779,
				"method": "rhf"
			}
		],
		"cosmo_sigma_profile": { 
			"-0.025": 0.0,
			"-0.024": 0.0,
			"-0.023": 0.0,
			"-0.022": 0.0,
			"-0.021": 0.0,
			"-0.02": 0.0,
			"-0.019": 0.0,
			"-0.018": 0.0,
			"-0.017": 0.0,
			"-0.016": 0.0,
			"-0.015": 0.0,
			"-0.014": 0.0,
			"-0.013": 0.0578459548879,
			"-0.012": 1.4012962632,
			"-0.011": 1.26224771537,
			"-0.01": 1.4618698555,
			"-0.009": 1.08366847995,
			"-0.008": 1.02076248358,
			"-0.007": 6.94558592653,
			"-0.006": 17.7921409047,
			"-0.005": 25.1765627733,
			"-0.004": 23.4945363127,
			"-0.003": 20.9459917631,
			"-0.002": 16.273980095,
			"-0.001": 15.5454640832,
			"0.0": 14.4095935983,
			"0.001": 14.0332149146,
			"0.002": 14.0034795904,
			"0.003": 12.1079688193,
			"0.004": 12.3463922496,
			"0.005": 12.351552464,
			"0.006": 9.50866418067,
			"0.007": 3.29012800454,
			"0.008": 1.10685575886,
			"0.009": 1.62787573363,
			"0.01": 1.61852065131,
			"0.011": 1.83996131339,
			"0.012": 2.9946904688,
			"0.013": 3.00257431213,
			"0.014": 3.36251777045,
			"0.015": 2.51599297517,
			"0.016": 2.2419023043,
			"0.017": 1.26273259262,
			"0.018": 0.0,
			"0.019": 0.0,
			"0.02": 0.0,
			"0.021": 0.0,
			"0.022": 0.0,
			"0.023": 0.0,
			"0.024": 0.0,
			"0.025": 0.0
		}
	}
}
