{
	 "smiles": "CCCN(CCC)C(=O)C(CCC(O)=O)NC(=O)C1=CC=CC=C1", 
	 "Tm": 415.15, 
	 "num_atms": 50, 
	 "gaussian": { 
		 "optdone": 1, 
		 "sigma_profile": "yes", 
		 "theory": "DFT", 
		 "functional": "B3LYP", 
		 "basiset": "6-31G**", 
		 "properties": { 
			 "R2extent": 9109.5717, 
			 "electric_dipole_moment_norm": 1.94967053114, 
			 "electric_quadrupole_moment_norm": 17.578298472, 
			 "total_energy": -1112.04760451, 
			 "HOMO_LUMO_gap": 0.19923, 
			 "cosmo_polarized_energy": -19.77, 
			 "cosmo_cavitation_energy": 49.98, 
			 "cosmo_dispersion_energy": -32.36, 
			 "cosmo_repulsion_energy": 2.48, 
			 "cosmo_total_nonelectrostatic_energy": 20.1, 
			 "SMD_solvation_energy": 9.52 
		},
		"coords": [
			{
				"x": -2.0965729585,
				"y": -1.1437116908,
				"z": 3.0590684146,
				"element": "C" 
			},
			{
				"x": -2.0447124063,
				"y": -0.536950945,
				"z": 1.6525508334,
				"element": "C" 
			},
			{
				"x": -1.2951877703,
				"y": -1.4527373001,
				"z": 0.6775222116,
				"element": "C" 
			},
			{
				"x": -1.2130404981,
				"y": -0.9477612023,
				"z": -0.70195977,
				"element": "N" 
			},
			{
				"x": -2.4142797097,
				"y": -1.110142797,
				"z": -1.5458420751,
				"element": "C" 
			},
			{
				"x": -2.9370394689,
				"y": 0.1810317793,
				"z": -2.1941820916,
				"element": "C" 
			},
			{
				"x": -3.3931537379,
				"y": 1.2619799845,
				"z": -1.2113650475,
				"element": "C" 
			},
			{
				"x": -0.0450832483,
				"y": -0.6882686915,
				"z": -1.3624389077,
				"element": "C" 
			},
			{
				"x": -0.0213876386,
				"y": -0.6070671984,
				"z": -2.5961130794,
				"element": "O" 
			},
			{
				"x": 1.2664789257,
				"y": -0.5024842932,
				"z": -0.5537942347,
				"element": "C" 
			},
			{
				"x": 2.4746328389,
				"y": -0.1895551012,
				"z": -1.4731375096,
				"element": "C" 
			},
			{
				"x": 2.3981742358,
				"y": 0.9541990754,
				"z": -2.5046332099,
				"element": "C" 
			},
			{
				"x": 2.2794172759,
				"y": 2.382242733,
				"z": -2.0112652409,
				"element": "C" 
			},
			{
				"x": 2.6328577895,
				"y": 3.3330167386,
				"z": -2.9078439063,
				"element": "O" 
			},
			{
				"x": 1.8605341598,
				"y": 2.7419235637,
				"z": -0.9296420282,
				"element": "O" 
			},
			{
				"x": 1.147671564,
				"y": 0.4507642306,
				"z": 0.5427261366,
				"element": "N" 
			},
			{
				"x": 1.4667127772,
				"y": 0.0996444361,
				"z": 1.8259806516,
				"element": "C" 
			},
			{
				"x": 1.6081813347,
				"y": -1.0810288249,
				"z": 2.1633907721,
				"element": "O" 
			},
			{
				"x": 1.5869945362,
				"y": 1.2103553177,
				"z": 2.833672848,
				"element": "C" 
			},
			{
				"x": 1.6301759513,
				"y": 0.8338987824,
				"z": 4.184224138,
				"element": "C" 
			},
			{
				"x": 1.7443079498,
				"y": 1.7956734254,
				"z": 5.1846275032,
				"element": "C" 
			},
			{
				"x": 1.8272017808,
				"y": 3.1486089445,
				"z": 4.8463724215,
				"element": "C" 
			},
			{
				"x": 1.8009797153,
				"y": 3.5306858163,
				"z": 3.5039893073,
				"element": "C" 
			},
			{
				"x": 1.6823978584,
				"y": 2.5701082336,
				"z": 2.4988420469,
				"element": "C" 
			},
			{
				"x": -2.6207442434,
				"y": -0.4813549846,
				"z": 3.754716119,
				"element": "H" 
			},
			{
				"x": -1.0875362726,
				"y": -1.313061253,
				"z": 3.4484272874,
				"element": "H" 
			},
			{
				"x": -2.6206411702,
				"y": -2.1067823189,
				"z": 3.0591333476,
				"element": "H" 
			},
			{
				"x": -1.5416647655,
				"y": 0.4356812191,
				"z": 1.6802027251,
				"element": "H" 
			},
			{
				"x": -3.0625440546,
				"y": -0.3542895317,
				"z": 1.2879075408,
				"element": "H" 
			},
			{
				"x": -0.2930712048,
				"y": -1.6392519427,
				"z": 1.0633930247,
				"element": "H" 
			},
			{
				"x": -1.7978362666,
				"y": -2.4300441695,
				"z": 0.6391864674,
				"element": "H" 
			},
			{
				"x": -3.1904637754,
				"y": -1.54236435,
				"z": -0.9069097276,
				"element": "H" 
			},
			{
				"x": -2.1866192418,
				"y": -1.8336998339,
				"z": -2.337054019,
				"element": "H" 
			},
			{
				"x": -3.7775014736,
				"y": -0.1069356523,
				"z": -2.8396567167,
				"element": "H" 
			},
			{
				"x": -2.159610837,
				"y": 0.572796758,
				"z": -2.8551418228,
				"element": "H" 
			},
			{
				"x": -4.2092316094,
				"y": 0.9077123791,
				"z": -0.5705072675,
				"element": "H" 
			},
			{
				"x": -3.7555133274,
				"y": 2.145316339,
				"z": -1.7473116675,
				"element": "H" 
			},
			{
				"x": -2.5734028443,
				"y": 1.5819651835,
				"z": -0.5611571245,
				"element": "H" 
			},
			{
				"x": 1.4976086298,
				"y": -1.459001841,
				"z": -0.0718163503,
				"element": "H" 
			},
			{
				"x": 3.3401733527,
				"y": -0.0448543488,
				"z": -0.8177090943,
				"element": "H" 
			},
			{
				"x": 2.6713423928,
				"y": -1.0933246954,
				"z": -2.058431893,
				"element": "H" 
			},
			{
				"x": 3.2912397062,
				"y": 0.8885522751,
				"z": -3.1404576986,
				"element": "H" 
			},
			{
				"x": 1.5320925382,
				"y": 0.7662896083,
				"z": -3.1499453239,
				"element": "H" 
			},
			{
				"x": 2.9367529321,
				"y": 2.923381994,
				"z": -3.7301296539,
				"element": "H" 
			},
			{
				"x": 1.1831760172,
				"y": 1.4250434368,
				"z": 0.2598084779,
				"element": "H" 
			},
			{
				"x": 1.5780012638,
				"y": -0.222991504,
				"z": 4.4213593191,
				"element": "H" 
			},
			{
				"x": 1.77115656,
				"y": 1.4914612327,
				"z": 6.2270767208,
				"element": "H" 
			},
			{
				"x": 1.9179254366,
				"y": 3.9011522518,
				"z": 5.6246859914,
				"element": "H" 
			},
			{
				"x": 1.878338217,
				"y": 4.5800043338,
				"z": 3.2345449405,
				"element": "H" 
			},
			{
				"x": 1.6898127835,
				"y": 2.8982743979,
				"z": 1.4647362143,
				"element": "H" 
			}
		],
		 "valence_orbital": [ 
			{
				"type": "occ",
				"energy": -0.25452,
				"method": "rhf"
			},
			{
				"type": "occ",
				"energy": -0.25226,
				"method": "rhf"
			},
			{
				"type": "occ",
				"energy": -0.24712,
				"method": "rhf"
			},
			{
				"type": "occ",
				"energy": -0.2405,
				"method": "rhf"
			},
			{
				"type": "occ",
				"energy": -0.23234,
				"method": "rhf"
			},
			{
				"type": "unocc",
				"energy": -0.03311,
				"method": "rhf"
			},
			{
				"type": "unocc",
				"energy": -0.00569,
				"method": "rhf"
			},
			{
				"type": "unocc",
				"energy": -0.00064,
				"method": "rhf"
			},
			{
				"type": "unocc",
				"energy": 0.01742,
				"method": "rhf"
			},
			{
				"type": "unocc",
				"energy": 0.04603,
				"method": "rhf"
			}
		],
		"cosmo_sigma_profile": { 
			"-0.025": 0.0,
			"-0.024": 0.0,
			"-0.023": 0.0,
			"-0.022": 0.0,
			"-0.021": 0.0,
			"-0.02": 0.00714692299089,
			"-0.019": 0.78985212774,
			"-0.018": 1.08061269088,
			"-0.017": 0.864875289226,
			"-0.016": 1.38127286806,
			"-0.015": 1.42798695959,
			"-0.014": 0.68592451084,
			"-0.013": 1.21189045817,
			"-0.012": 1.26229863678,
			"-0.011": 0.947255119482,
			"-0.01": 1.02310527921,
			"-0.009": 1.00922548666,
			"-0.008": 1.50242999605,
			"-0.007": 3.94433028184,
			"-0.006": 10.9111777056,
			"-0.005": 19.7497197744,
			"-0.004": 28.465674969,
			"-0.003": 34.8267804998,
			"-0.002": 40.0585793736,
			"-0.001": 42.4891053256,
			"0.0": 40.6617723023,
			"0.001": 40.962542812,
			"0.002": 24.7586259904,
			"0.003": 17.7352799167,
			"0.004": 17.7297978555,
			"0.005": 12.1986997219,
			"0.006": 5.43464148967,
			"0.007": 5.28177213353,
			"0.008": 6.04380678216,
			"0.009": 4.57893196288,
			"0.01": 6.03687260926,
			"0.011": 5.31136066833,
			"0.012": 4.10712479382,
			"0.013": 4.96871100924,
			"0.014": 2.87307570963,
			"0.015": 0.0,
			"0.016": 0.0,
			"0.017": 0.0,
			"0.018": 0.0,
			"0.019": 0.0,
			"0.02": 0.0,
			"0.021": 0.0,
			"0.022": 0.0,
			"0.023": 0.0,
			"0.024": 0.0,
			"0.025": 0.0
		}
	}
}
