{
	 "smiles": "CC1(C)C(O)CCC2(C)C1CCC1(C)C2C(=O)C=C2C3CC(C)(CCC3(C)CCC12C)C(O)=O", 
	 "Tm": 569.15, 
	 "num_atms": 80, 
	 "gaussian": { 
		 "optdone": 1, 
		 "sigma_profile": "yes", 
		 "theory": "DFT", 
		 "functional": "B3LYP", 
		 "basiset": "6-31G**", 
		 "properties": { 
			 "R2extent": 16750.239, 
			 "electric_dipole_moment_norm": 4.50198241778, 
			 "electric_quadrupole_moment_norm": 16.6337355441, 
			 "total_energy": -1471.79851926, 
			 "HOMO_LUMO_gap": 0.18567, 
			 "cosmo_polarized_energy": -19.28, 
			 "cosmo_cavitation_energy": 61.87, 
			 "cosmo_dispersion_energy": -42.44, 
			 "cosmo_repulsion_energy": 3.01, 
			 "cosmo_total_nonelectrostatic_energy": 22.45, 
			 "SMD_solvation_energy": 10.55 
		},
		"coords": [
			{
				"x": 3.4449484178,
				"y": 1.0885571967,
				"z": 2.4323871512,
				"element": "C" 
			},
			{
				"x": 3.6577750898,
				"y": -0.1115238962,
				"z": 1.4768855776,
				"element": "C" 
			},
			{
				"x": 4.8155613133,
				"y": 0.3124820353,
				"z": 0.5431789209,
				"element": "C" 
			},
			{
				"x": 4.081043605,
				"y": -1.3336166642,
				"z": 2.3757190256,
				"element": "C" 
			},
			{
				"x": 5.1234624768,
				"y": -2.1551314864,
				"z": 1.8407937242,
				"element": "O" 
			},
			{
				"x": 2.8972740712,
				"y": -2.2591182758,
				"z": 2.6360802238,
				"element": "C" 
			},
			{
				"x": 2.3327820771,
				"y": -2.8973786973,
				"z": 1.3518922712,
				"element": "C" 
			},
			{
				"x": 2.2350604005,
				"y": -1.9115038099,
				"z": 0.1321816785,
				"element": "C" 
			},
			{
				"x": 3.3984849806,
				"y": -2.3018114464,
				"z": -0.8172834854,
				"element": "C" 
			},
			{
				"x": 2.3569888759,
				"y": -0.422094773,
				"z": 0.6103890516,
				"element": "C" 
			},
			{
				"x": 1.0124904683,
				"y": 0.072907323,
				"z": 1.2441020859,
				"element": "C" 
			},
			{
				"x": -0.104585095,
				"y": -0.9717346173,
				"z": 1.3810555851,
				"element": "C" 
			},
			{
				"x": -0.4729961681,
				"y": -1.7951925967,
				"z": 0.1128365076,
				"element": "C" 
			},
			{
				"x": -1.0786868767,
				"y": -3.1415601649,
				"z": 0.5865060132,
				"element": "C" 
			},
			{
				"x": 0.8661405271,
				"y": -2.0804247413,
				"z": -0.6833156462,
				"element": "C" 
			},
			{
				"x": 0.9702662228,
				"y": -1.2411777193,
				"z": -1.9595262003,
				"element": "C" 
			},
			{
				"x": 1.6134877889,
				"y": -1.6185227083,
				"z": -2.9332538039,
				"element": "O" 
			},
			{
				"x": 0.250965442,
				"y": 0.0440089777,
				"z": -2.0221955373,
				"element": "C" 
			},
			{
				"x": -0.9938576178,
				"y": 0.1599557256,
				"z": -1.5223264667,
				"element": "C" 
			},
			{
				"x": -1.910531176,
				"y": 1.3124224687,
				"z": -1.9333227603,
				"element": "C" 
			},
			{
				"x": -1.162260167,
				"y": 2.5438808872,
				"z": -2.4870452965,
				"element": "C" 
			},
			{
				"x": -2.1010717829,
				"y": 3.7151957813,
				"z": -2.9131552151,
				"element": "C" 
			},
			{
				"x": -1.7610066855,
				"y": 4.1786208122,
				"z": -4.3520600325,
				"element": "C" 
			},
			{
				"x": -3.5817780568,
				"y": 3.2744128253,
				"z": -2.8465834544,
				"element": "C" 
			},
			{
				"x": -3.9767373437,
				"y": 2.7334905821,
				"z": -1.464868841,
				"element": "C" 
			},
			{
				"x": -2.9825788713,
				"y": 1.6775321368,
				"z": -0.8677273357,
				"element": "C" 
			},
			{
				"x": -2.3408469357,
				"y": 2.2529672931,
				"z": 0.4122879436,
				"element": "C" 
			},
			{
				"x": -3.7477886366,
				"y": 0.3756166609,
				"z": -0.5571630727,
				"element": "C" 
			},
			{
				"x": -2.8577094228,
				"y": -0.72566922,
				"z": 0.0290897764,
				"element": "C" 
			},
			{
				"x": -1.585326497,
				"y": -1.0711496955,
				"z": -0.8062516485,
				"element": "C" 
			},
			{
				"x": -2.053234755,
				"y": -2.0160615309,
				"z": -1.9588385673,
				"element": "C" 
			},
			{
				"x": -1.8732203325,
				"y": 4.9337945581,
				"z": -2.0073032792,
				"element": "C" 
			},
			{
				"x": -2.7978760601,
				"y": 5.9051037517,
				"z": -2.2159512668,
				"element": "O" 
			},
			{
				"x": -0.9700979907,
				"y": 5.088013982,
				"z": -1.2112806359,
				"element": "O" 
			},
			{
				"x": 4.4124516899,
				"y": 1.4104155245,
				"z": 2.8336773634,
				"element": "H" 
			},
			{
				"x": 2.9993611466,
				"y": 1.9457145342,
				"z": 1.9172992637,
				"element": "H" 
			},
			{
				"x": 2.8124318337,
				"y": 0.8457276111,
				"z": 3.2915663381,
				"element": "H" 
			},
			{
				"x": 4.555406812,
				"y": 1.2459622336,
				"z": 0.0325683165,
				"element": "H" 
			},
			{
				"x": 5.0482378225,
				"y": -0.4283632858,
				"z": -0.22038036,
				"element": "H" 
			},
			{
				"x": 5.7308107036,
				"y": 0.5159367851,
				"z": 1.1158215642,
				"element": "H" 
			},
			{
				"x": 4.4269557258,
				"y": -0.9284413001,
				"z": 3.3403068225,
				"element": "H" 
			},
			{
				"x": 5.9033988325,
				"y": -1.6028117144,
				"z": 1.7083314096,
				"element": "H" 
			},
			{
				"x": 3.20636929,
				"y": -3.0484152211,
				"z": 3.3300853313,
				"element": "H" 
			},
			{
				"x": 2.1229521289,
				"y": -1.6768674642,
				"z": 3.1496631062,
				"element": "H" 
			},
			{
				"x": 2.9837943794,
				"y": -3.7288240913,
				"z": 1.0673527916,
				"element": "H" 
			},
			{
				"x": 1.3722297298,
				"y": -3.3488968035,
				"z": 1.5947362025,
				"element": "H" 
			},
			{
				"x": 3.5693132791,
				"y": -1.571726756,
				"z": -1.6091051234,
				"element": "H" 
			},
			{
				"x": 3.1724477148,
				"y": -3.253352947,
				"z": -1.3088280945,
				"element": "H" 
			},
			{
				"x": 4.313276216,
				"y": -2.4332936897,
				"z": -0.2404794863,
				"element": "H" 
			},
			{
				"x": 2.4882850876,
				"y": 0.1677637778,
				"z": -0.3049282934,
				"element": "H" 
			},
			{
				"x": 1.1735163774,
				"y": 0.4722982084,
				"z": 2.2459524972,
				"element": "H" 
			},
			{
				"x": 0.6442969669,
				"y": 0.9158828588,
				"z": 0.6529428976,
				"element": "H" 
			},
			{
				"x": 0.185214858,
				"y": -1.6841787839,
				"z": 2.1583090847,
				"element": "H" 
			},
			{
				"x": -0.981498635,
				"y": -0.4696176708,
				"z": 1.7959990601,
				"element": "H" 
			},
			{
				"x": -1.2835873603,
				"y": -3.8168789068,
				"z": -0.2476318038,
				"element": "H" 
			},
			{
				"x": -2.0122867471,
				"y": -2.9889007555,
				"z": 1.1367209546,
				"element": "H" 
			},
			{
				"x": -0.4001632904,
				"y": -3.6683074434,
				"z": 1.2589979375,
				"element": "H" 
			},
			{
				"x": 0.8604342614,
				"y": -3.122347215,
				"z": -1.0238357765,
				"element": "H" 
			},
			{
				"x": 0.6896444441,
				"y": 0.7839645308,
				"z": -2.6824601902,
				"element": "H" 
			},
			{
				"x": -2.4872676001,
				"y": 0.8939836404,
				"z": -2.7745553245,
				"element": "H" 
			},
			{
				"x": -0.5888002817,
				"y": 2.2368118112,
				"z": -3.3658276802,
				"element": "H" 
			},
			{
				"x": -0.4378982265,
				"y": 2.9110930848,
				"z": -1.75577588,
				"element": "H" 
			},
			{
				"x": -1.9165357217,
				"y": 3.3493212033,
				"z": -5.0495328738,
				"element": "H" 
			},
			{
				"x": -2.3941618532,
				"y": 5.0143414515,
				"z": -4.6619927091,
				"element": "H" 
			},
			{
				"x": -0.7140205938,
				"y": 4.4904076648,
				"z": -4.4279389364,
				"element": "H" 
			},
			{
				"x": -4.2314131119,
				"y": 4.1109414943,
				"z": -3.1185921135,
				"element": "H" 
			},
			{
				"x": -3.7330770918,
				"y": 2.5044236541,
				"z": -3.6128356912,
				"element": "H" 
			},
			{
				"x": -4.0662199404,
				"y": 3.5772155575,
				"z": -0.7698045845,
				"element": "H" 
			},
			{
				"x": -4.9816244369,
				"y": 2.3005219989,
				"z": -1.5348848745,
				"element": "H" 
			},
			{
				"x": -1.8458162348,
				"y": 3.2078610399,
				"z": 0.2196324279,
				"element": "H" 
			},
			{
				"x": -3.1102142051,
				"y": 2.4244111876,
				"z": 1.1746495909,
				"element": "H" 
			},
			{
				"x": -1.5921753786,
				"y": 1.5827957636,
				"z": 0.8418708093,
				"element": "H" 
			},
			{
				"x": -4.2317086179,
				"y": 0.0280857762,
				"z": -1.4803941944,
				"element": "H" 
			},
			{
				"x": -4.5608876196,
				"y": 0.5857259384,
				"z": 0.1503220318,
				"element": "H" 
			},
			{
				"x": -2.5875219404,
				"y": -0.423479002,
				"z": 1.0413664346,
				"element": "H" 
			},
			{
				"x": -3.4579027476,
				"y": -1.6338410462,
				"z": 0.1452914012,
				"element": "H" 
			},
			{
				"x": -2.6916208506,
				"y": -1.4715392545,
				"z": -2.6613262854,
				"element": "H" 
			},
			{
				"x": -1.2134818354,
				"y": -2.414762902,
				"z": -2.5331624057,
				"element": "H" 
			},
			{
				"x": -2.6404735907,
				"y": -2.8553499809,
				"z": -1.5777204567,
				"element": "H" 
			},
			{
				"x": -2.5461126742,
				"y": 6.6403979492,
				"z": -1.6323034894,
				"element": "H" 
			}
		],
		 "valence_orbital": [ 
			{
				"type": "occ",
				"energy": -0.27351,
				"method": "rhf"
			},
			{
				"type": "occ",
				"energy": -0.26805,
				"method": "rhf"
			},
			{
				"type": "occ",
				"energy": -0.25387,
				"method": "rhf"
			},
			{
				"type": "occ",
				"energy": -0.24271,
				"method": "rhf"
			},
			{
				"type": "occ",
				"energy": -0.21954,
				"method": "rhf"
			},
			{
				"type": "unocc",
				"energy": -0.03387,
				"method": "rhf"
			},
			{
				"type": "unocc",
				"energy": 0.00164,
				"method": "rhf"
			},
			{
				"type": "unocc",
				"energy": 0.04772,
				"method": "rhf"
			},
			{
				"type": "unocc",
				"energy": 0.06426,
				"method": "rhf"
			},
			{
				"type": "unocc",
				"energy": 0.06646,
				"method": "rhf"
			}
		],
		"cosmo_sigma_profile": { 
			"-0.025": 0.0,
			"-0.024": 0.0,
			"-0.023": 0.0,
			"-0.022": 0.0,
			"-0.021": 0.0,
			"-0.02": 0.0,
			"-0.019": 0.0251552906614,
			"-0.018": 0.548506421587,
			"-0.017": 0.913800870454,
			"-0.016": 0.757988388689,
			"-0.015": 0.861521776601,
			"-0.014": 1.21797531256,
			"-0.013": 1.27229327801,
			"-0.012": 1.40224890633,
			"-0.011": 1.40974547116,
			"-0.01": 2.17657682425,
			"-0.009": 1.92052377263,
			"-0.008": 1.25607956936,
			"-0.007": 1.74755498889,
			"-0.006": 2.47136617254,
			"-0.005": 6.99560124451,
			"-0.004": 21.9736368353,
			"-0.003": 47.2952305155,
			"-0.002": 72.5279004163,
			"-0.001": 77.5679739815,
			"0.0": 76.2438686877,
			"0.001": 55.7120218953,
			"0.002": 25.1240962867,
			"0.003": 10.8529568871,
			"0.004": 6.62419415899,
			"0.005": 6.50608756871,
			"0.006": 6.77012056197,
			"0.007": 5.64796538488,
			"0.008": 4.77663405755,
			"0.009": 3.85427817227,
			"0.01": 5.02099036612,
			"0.011": 5.47381449913,
			"0.012": 6.94005425142,
			"0.013": 4.94399019359,
			"0.014": 4.20416618586,
			"0.015": 0.876341385816,
			"0.016": 0.0,
			"0.017": 0.0,
			"0.018": 0.0,
			"0.019": 0.0,
			"0.02": 0.0,
			"0.021": 0.0,
			"0.022": 0.0,
			"0.023": 0.0,
			"0.024": 0.0,
			"0.025": 0.0
		}
	}
}
