{
	 "smiles": "CC[Si](Cl)(CC)CC", 
	 "Tm": 198.15, 
	 "num_atms": 23, 
	 "gaussian": { 
		 "optdone": 1, 
		 "sigma_profile": "yes", 
		 "theory": "DFT", 
		 "functional": "B3LYP", 
		 "basiset": "6-31G**", 
		 "properties": { 
			 "R2extent": 1953.4594, 
			 "electric_dipole_moment_norm": 2.68811465901, 
			 "electric_quadrupole_moment_norm": 6.44578846612, 
			 "total_energy": -987.462796118, 
			 "HOMO_LUMO_gap": 0.31338, 
			 "cosmo_polarized_energy": -3.99, 
			 "cosmo_cavitation_energy": 27.65, 
			 "cosmo_dispersion_energy": -17.24, 
			 "cosmo_repulsion_energy": 1.54, 
			 "cosmo_total_nonelectrostatic_energy": 11.95, 
			 "SMD_solvation_energy": 4.83 
		},
		"coords": [
			{
				"x": -1.0554656431,
				"y": -2.604730385,
				"z": -1.4732716406,
				"element": "C" 
			},
			{
				"x": 0.2050360615,
				"y": -2.307742904,
				"z": -0.6379286592,
				"element": "C" 
			},
			{
				"x": 0.7387628928,
				"y": -0.4932488065,
				"z": -0.5407178492,
				"element": "Si" 
			},
			{
				"x": 2.3178698303,
				"y": -0.4451452273,
				"z": 0.8679500532,
				"element": "Cl" 
			},
			{
				"x": 1.4740092583,
				"y": 0.1881920231,
				"z": -2.1475388251,
				"element": "C" 
			},
			{
				"x": 0.475191241,
				"y": 0.4391950805,
				"z": -3.2939773424,
				"element": "C" 
			},
			{
				"x": -0.6540727493,
				"y": 0.5963441215,
				"z": 0.1283211664,
				"element": "C" 
			},
			{
				"x": -0.2970846067,
				"y": 2.0767974525,
				"z": 0.3497051607,
				"element": "C" 
			},
			{
				"x": -1.9273256636,
				"y": -2.054693597,
				"z": -1.1033647684,
				"element": "H" 
			},
			{
				"x": -0.9219294988,
				"y": -2.3380926353,
				"z": -2.5265991612,
				"element": "H" 
			},
			{
				"x": -1.3068136529,
				"y": -3.6704049329,
				"z": -1.4395787323,
				"element": "H" 
			},
			{
				"x": 1.0543318716,
				"y": -2.889838652,
				"z": -1.0182687462,
				"element": "H" 
			},
			{
				"x": 0.0528679836,
				"y": -2.6508989493,
				"z": 0.3935606626,
				"element": "H" 
			},
			{
				"x": 2.2624887728,
				"y": -0.500180232,
				"z": -2.4777768654,
				"element": "H" 
			},
			{
				"x": 1.9892314938,
				"y": 1.1238006531,
				"z": -1.8957716322,
				"element": "H" 
			},
			{
				"x": -0.3164469411,
				"y": 1.136095929,
				"z": -2.9980455364,
				"element": "H" 
			},
			{
				"x": 0.9778949967,
				"y": 0.8711430698,
				"z": -4.1661405349,
				"element": "H" 
			},
			{
				"x": -0.0095475582,
				"y": -0.4845580986,
				"z": -3.6257288332,
				"element": "H" 
			},
			{
				"x": -1.0064078872,
				"y": 0.1505532878,
				"z": 1.0676655564,
				"element": "H" 
			},
			{
				"x": -1.4979691035,
				"y": 0.5157253376,
				"z": -0.5719133632,
				"element": "H" 
			},
			{
				"x": -1.1523853158,
				"y": 2.6376281785,
				"z": 0.7418245684,
				"element": "H" 
			},
			{
				"x": 0.0115049911,
				"y": 2.5617361542,
				"z": -0.5828056769,
				"element": "H" 
			},
			{
				"x": 0.5251592267,
				"y": 2.1840231323,
				"z": 1.0637009991,
				"element": "H" 
			}
		],
		 "valence_orbital": [ 
			{
				"type": "occ",
				"energy": -0.33429,
				"method": "rhf"
			},
			{
				"type": "occ",
				"energy": -0.31565,
				"method": "rhf"
			},
			{
				"type": "occ",
				"energy": -0.31327,
				"method": "rhf"
			},
			{
				"type": "occ",
				"energy": -0.27826,
				"method": "rhf"
			},
			{
				"type": "occ",
				"energy": -0.27745,
				"method": "rhf"
			},
			{
				"type": "unocc",
				"energy": 0.03593,
				"method": "rhf"
			},
			{
				"type": "unocc",
				"energy": 0.0635,
				"method": "rhf"
			},
			{
				"type": "unocc",
				"energy": 0.08167,
				"method": "rhf"
			},
			{
				"type": "unocc",
				"energy": 0.0883,
				"method": "rhf"
			},
			{
				"type": "unocc",
				"energy": 0.11219,
				"method": "rhf"
			}
		],
		"cosmo_sigma_profile": { 
			"-0.025": 0.0,
			"-0.024": 0.0,
			"-0.023": 0.0,
			"-0.022": 0.0,
			"-0.021": 0.0,
			"-0.02": 0.0,
			"-0.019": 0.0,
			"-0.018": 0.0,
			"-0.017": 0.0,
			"-0.016": 0.0,
			"-0.015": 0.0,
			"-0.014": 0.0,
			"-0.013": 0.0,
			"-0.012": 0.0,
			"-0.011": 0.0,
			"-0.01": 0.0,
			"-0.009": 0.0,
			"-0.008": 0.0,
			"-0.007": 0.0,
			"-0.006": 0.0,
			"-0.005": 0.201145678685,
			"-0.004": 9.19062125965,
			"-0.003": 29.3065937276,
			"-0.002": 34.6128179108,
			"-0.001": 31.9620753004,
			"0.0": 33.8383804514,
			"0.001": 31.2444756873,
			"0.002": 8.42770050875,
			"0.003": 4.76956408692,
			"0.004": 5.23283781104,
			"0.005": 6.09716559245,
			"0.006": 8.47365984284,
			"0.007": 8.69735407129,
			"0.008": 0.121125983899,
			"0.009": 0.0,
			"0.01": 0.0,
			"0.011": 0.0,
			"0.012": 0.0,
			"0.013": 0.0,
			"0.014": 0.0,
			"0.015": 0.0,
			"0.016": 0.0,
			"0.017": 0.0,
			"0.018": 0.0,
			"0.019": 0.0,
			"0.02": 0.0,
			"0.021": 0.0,
			"0.022": 0.0,
			"0.023": 0.0,
			"0.024": 0.0,
			"0.025": 0.0
		}
	}
}
