{
	 "smiles": "[O-][N+](=O)C1=CC=C(C=C)C=C1", 
	 "Tm": 301.15, 
	 "num_atms": 18, 
	 "gaussian": { 
		 "optdone": 1, 
		 "sigma_profile": "yes", 
		 "theory": "DFT", 
		 "functional": "B3LYP", 
		 "basiset": "6-31G**", 
		 "properties": { 
			 "R2extent": 2711.2727, 
			 "electric_dipole_moment_norm": 5.03224483307, 
			 "electric_quadrupole_moment_norm": 16.056364331, 
			 "total_energy": -514.151164415, 
			 "HOMO_LUMO_gap": 0.15782, 
			 "cosmo_polarized_energy": -8.63, 
			 "cosmo_cavitation_energy": 23.18, 
			 "cosmo_dispersion_energy": -16.88, 
			 "cosmo_repulsion_energy": 1.33, 
			 "cosmo_total_nonelectrostatic_energy": 7.63, 
			 "SMD_solvation_energy": 6.95 
		},
		"coords": [
			{
				"x": 4.4315767211,
				"y": -1.5618213225,
				"z": -0.1098611523,
				"element": "O" 
			},
			{
				"x": 3.392806533,
				"y": -2.1627503227,
				"z": 0.1661645975,
				"element": "N" 
			},
			{
				"x": 3.3388307751,
				"y": -3.3387068732,
				"z": 0.5277965147,
				"element": "O" 
			},
			{
				"x": 2.1285083403,
				"y": -1.4249132195,
				"z": 0.0564036322,
				"element": "C" 
			},
			{
				"x": 0.9324162446,
				"y": -2.0769245774,
				"z": 0.3621635461,
				"element": "C" 
			},
			{
				"x": -0.2604210372,
				"y": -1.3759094404,
				"z": 0.257179286,
				"element": "C" 
			},
			{
				"x": -0.2792525097,
				"y": -0.0266317602,
				"z": -0.1504476606,
				"element": "C" 
			},
			{
				"x": -1.5172462931,
				"y": 0.7573438814,
				"z": -0.2766972418,
				"element": "C" 
			},
			{
				"x": -2.7670341869,
				"y": 0.3399069379,
				"z": -0.038789907,
				"element": "C" 
			},
			{
				"x": 0.9483691846,
				"y": 0.5941010464,
				"z": -0.4494793331,
				"element": "C" 
			},
			{
				"x": 2.1529714096,
				"y": -0.0929746191,
				"z": -0.3498147063,
				"element": "C" 
			},
			{
				"x": 0.9585650184,
				"y": -3.1134134057,
				"z": 0.6742838211,
				"element": "H" 
			},
			{
				"x": -1.1889701351,
				"y": -1.8836937822,
				"z": 0.4951217037,
				"element": "H" 
			},
			{
				"x": -1.3712477874,
				"y": 1.7866618283,
				"z": -0.6009709105,
				"element": "H" 
			},
			{
				"x": -3.0015344504,
				"y": -0.6689936165,
				"z": 0.2870468554,
				"element": "H" 
			},
			{
				"x": -3.6099351451,
				"y": 1.0108638575,
				"z": -0.166221291,
				"element": "H" 
			},
			{
				"x": 0.9536951689,
				"y": 1.6334691102,
				"z": -0.7652436324,
				"element": "H" 
			},
			{
				"x": 3.1010021492,
				"y": 0.3775862777,
				"z": -0.5781341217,
				"element": "H" 
			}
		],
		 "valence_orbital": [ 
			{
				"type": "occ",
				"energy": -0.30726,
				"method": "rhf"
			},
			{
				"type": "occ",
				"energy": -0.30494,
				"method": "rhf"
			},
			{
				"type": "occ",
				"energy": -0.28828,
				"method": "rhf"
			},
			{
				"type": "occ",
				"energy": -0.27925,
				"method": "rhf"
			},
			{
				"type": "occ",
				"energy": -0.25124,
				"method": "rhf"
			},
			{
				"type": "unocc",
				"energy": -0.09342,
				"method": "rhf"
			},
			{
				"type": "unocc",
				"energy": -0.0336,
				"method": "rhf"
			},
			{
				"type": "unocc",
				"energy": -0.02443,
				"method": "rhf"
			},
			{
				"type": "unocc",
				"energy": 0.04791,
				"method": "rhf"
			},
			{
				"type": "unocc",
				"energy": 0.07807,
				"method": "rhf"
			}
		],
		"cosmo_sigma_profile": { 
			"-0.025": 0.0,
			"-0.024": 0.0,
			"-0.023": 0.0,
			"-0.022": 0.0,
			"-0.021": 0.0,
			"-0.02": 0.0,
			"-0.019": 0.0,
			"-0.018": 0.0,
			"-0.017": 0.0,
			"-0.016": 0.0,
			"-0.015": 0.0,
			"-0.014": 0.0,
			"-0.013": 0.0,
			"-0.012": 0.0,
			"-0.011": 0.0,
			"-0.01": 0.0,
			"-0.009": 0.356626683688,
			"-0.008": 3.25602569751,
			"-0.007": 9.49572886306,
			"-0.006": 12.6384993389,
			"-0.005": 12.721547502,
			"-0.004": 11.4639025902,
			"-0.003": 11.3833059524,
			"-0.002": 11.3940148046,
			"-0.001": 15.1344678231,
			"0.0": 14.1817500139,
			"0.001": 17.2945509985,
			"0.002": 21.0507395462,
			"0.003": 7.97170056591,
			"0.004": 5.13785648054,
			"0.005": 5.03018300464,
			"0.006": 3.65493137267,
			"0.007": 6.66584426697,
			"0.008": 9.31193270484,
			"0.009": 4.41340674875,
			"0.01": 3.42054580484,
			"0.011": 0.457914342902,
			"0.012": 0.0,
			"0.013": 0.0,
			"0.014": 0.0,
			"0.015": 0.0,
			"0.016": 0.0,
			"0.017": 0.0,
			"0.018": 0.0,
			"0.019": 0.0,
			"0.02": 0.0,
			"0.021": 0.0,
			"0.022": 0.0,
			"0.023": 0.0,
			"0.024": 0.0,
			"0.025": 0.0
		}
	}
}
