{
	 "smiles": "NC(=O)C1=NN(C=C1)C1=CC=CC=C1", 
	 "Tm": 423.15, 
	 "num_atms": 23, 
	 "gaussian": { 
		 "optdone": 1, 
		 "sigma_profile": "yes", 
		 "theory": "DFT", 
		 "functional": "B3LYP", 
		 "basiset": "6-31G**", 
		 "properties": { 
			 "R2extent": 3604.8059, 
			 "electric_dipole_moment_norm": 4.30807139449, 
			 "electric_quadrupole_moment_norm": 18.0502123674, 
			 "total_energy": -625.966423773, 
			 "HOMO_LUMO_gap": 0.18946, 
			 "cosmo_polarized_energy": -14.53, 
			 "cosmo_cavitation_energy": 27.86, 
			 "cosmo_dispersion_energy": -20.65, 
			 "cosmo_repulsion_energy": 1.61, 
			 "cosmo_total_nonelectrostatic_energy": 8.82, 
			 "SMD_solvation_energy": 5.4 
		},
		"coords": [
			{
				"x": 3.8273900595,
				"y": 0.5732458289,
				"z": 0.2866617706,
				"element": "N" 
			},
			{
				"x": 3.6180191824,
				"y": -0.6362949283,
				"z": -0.3035939562,
				"element": "C" 
			},
			{
				"x": 4.5060736109,
				"y": -1.3148855254,
				"z": -0.8073882239,
				"element": "O" 
			},
			{
				"x": 2.1998814639,
				"y": -1.0946813385,
				"z": -0.298349051,
				"element": "C" 
			},
			{
				"x": 1.2214202624,
				"y": -0.3692138927,
				"z": 0.2444804159,
				"element": "N" 
			},
			{
				"x": 0.0958619365,
				"y": -1.095139414,
				"z": 0.06131264,
				"element": "N" 
			},
			{
				"x": 0.3609724644,
				"y": -2.2729914042,
				"z": -0.5938062466,
				"element": "C" 
			},
			{
				"x": 1.711969052,
				"y": -2.3053797693,
				"z": -0.8416820546,
				"element": "C" 
			},
			{
				"x": -1.1563171528,
				"y": -0.6064140588,
				"z": 0.528405981,
				"element": "C" 
			},
			{
				"x": -2.3270937411,
				"y": -1.3514361494,
				"z": 0.3429839407,
				"element": "C" 
			},
			{
				"x": -3.5436633308,
				"y": -0.8541568814,
				"z": 0.8083446575,
				"element": "C" 
			},
			{
				"x": -3.6061981528,
				"y": 0.3791988064,
				"z": 1.4573865637,
				"element": "C" 
			},
			{
				"x": -2.4339861209,
				"y": 1.1157817727,
				"z": 1.6382119919,
				"element": "C" 
			},
			{
				"x": -1.2112557691,
				"y": 0.6321202281,
				"z": 1.1788221647,
				"element": "C" 
			},
			{
				"x": 4.7654217868,
				"y": 0.939019556,
				"z": 0.3152947653,
				"element": "H" 
			},
			{
				"x": 3.060014192,
				"y": 1.0902559746,
				"z": 0.685846392,
				"element": "H" 
			},
			{
				"x": -0.4141558957,
				"y": -2.9838079998,
				"z": -0.8291834553,
				"element": "H" 
			},
			{
				"x": 2.2857202575,
				"y": -3.0724091063,
				"z": -1.3368711811,
				"element": "H" 
			},
			{
				"x": -2.3039055754,
				"y": -2.3120893418,
				"z": -0.1581724112,
				"element": "H" 
			},
			{
				"x": -4.445879034,
				"y": -1.4398385489,
				"z": 0.6594620818,
				"element": "H" 
			},
			{
				"x": -4.5562751023,
				"y": 0.761202715,
				"z": 1.8175302241,
				"element": "H" 
			},
			{
				"x": -2.4669788908,
				"y": 2.0775249865,
				"z": 2.1416330591,
				"element": "H" 
			},
			{
				"x": -0.2974355027,
				"y": 1.1955884904,
				"z": 1.3141699317,
				"element": "H" 
			}
		],
		 "valence_orbital": [ 
			{
				"type": "occ",
				"energy": -0.26825,
				"method": "rhf"
			},
			{
				"type": "occ",
				"energy": -0.26217,
				"method": "rhf"
			},
			{
				"type": "occ",
				"energy": -0.25615,
				"method": "rhf"
			},
			{
				"type": "occ",
				"energy": -0.24672,
				"method": "rhf"
			},
			{
				"type": "occ",
				"energy": -0.23174,
				"method": "rhf"
			},
			{
				"type": "unocc",
				"energy": -0.04228,
				"method": "rhf"
			},
			{
				"type": "unocc",
				"energy": -0.016,
				"method": "rhf"
			},
			{
				"type": "unocc",
				"energy": 0.00581,
				"method": "rhf"
			},
			{
				"type": "unocc",
				"energy": 0.03923,
				"method": "rhf"
			},
			{
				"type": "unocc",
				"energy": 0.07348,
				"method": "rhf"
			}
		],
		"cosmo_sigma_profile": { 
			"-0.025": 0.0,
			"-0.024": 0.0,
			"-0.023": 0.0,
			"-0.022": 0.0,
			"-0.021": 0.0,
			"-0.02": 0.0,
			"-0.019": 0.0,
			"-0.018": 0.0,
			"-0.017": 0.0,
			"-0.016": 0.0,
			"-0.015": 0.113740682449,
			"-0.014": 0.842184729719,
			"-0.013": 1.68248192412,
			"-0.012": 1.84899329376,
			"-0.011": 3.43576205546,
			"-0.01": 3.654836277,
			"-0.009": 3.56895140351,
			"-0.008": 4.09468729417,
			"-0.007": 5.56344379755,
			"-0.006": 11.3014137702,
			"-0.005": 14.6525555886,
			"-0.004": 13.9590526972,
			"-0.003": 9.84194799024,
			"-0.002": 10.6006622632,
			"-0.001": 12.2971849948,
			"0.0": 14.9332008036,
			"0.001": 17.8345786807,
			"0.002": 21.7860671783,
			"0.003": 20.6377974973,
			"0.004": 17.954831074,
			"0.005": 10.0891811743,
			"0.006": 2.64880927331,
			"0.007": 3.04510907906,
			"0.008": 1.66569465938,
			"0.009": 0.88868125037,
			"0.01": 1.29803485347,
			"0.011": 1.37732447661,
			"0.012": 2.28626908528,
			"0.013": 4.09603742939,
			"0.014": 5.14823234665,
			"0.015": 0.694182515365,
			"0.016": 0.0,
			"0.017": 0.0,
			"0.018": 0.0,
			"0.019": 0.0,
			"0.02": 0.0,
			"0.021": 0.0,
			"0.022": 0.0,
			"0.023": 0.0,
			"0.024": 0.0,
			"0.025": 0.0
		}
	}
}
