{
	 "smiles": "ClC1=NC=C(C=C1)N1C=CC=N1", 
	 "Tm": 381.15, 
	 "num_atms": 18, 
	 "gaussian": { 
		 "optdone": 1, 
		 "sigma_profile": "yes", 
		 "theory": "DFT", 
		 "functional": "B3LYP", 
		 "basiset": "6-31G**", 
		 "properties": { 
			 "R2extent": 3924.0788, 
			 "electric_dipole_moment_norm": 4.76193483996, 
			 "electric_quadrupole_moment_norm": 11.1373340948, 
			 "total_energy": -932.880821274, 
			 "HOMO_LUMO_gap": 0.18896, 
			 "cosmo_polarized_energy": -10.94, 
			 "cosmo_cavitation_energy": 24.59, 
			 "cosmo_dispersion_energy": -18.65, 
			 "cosmo_repulsion_energy": 1.45, 
			 "cosmo_total_nonelectrostatic_energy": 7.39, 
			 "SMD_solvation_energy": 2.51 
		},
		"coords": [
			{
				"x": -1.5598580102,
				"y": 5.1078581474,
				"z": -0.2888248403,
				"element": "Cl" 
			},
			{
				"x": -0.7455302724,
				"y": 3.5816478009,
				"z": 0.0383652579,
				"element": "C" 
			},
			{
				"x": -0.9218683335,
				"y": 3.05158618,
				"z": 1.2347753227,
				"element": "N" 
			},
			{
				"x": -0.3145487833,
				"y": 1.8934183408,
				"z": 1.5081595472,
				"element": "C" 
			},
			{
				"x": 0.4968221259,
				"y": 1.224370428,
				"z": 0.5800891199,
				"element": "C" 
			},
			{
				"x": 0.6704282379,
				"y": 1.8036326684,
				"z": -0.6822660237,
				"element": "C" 
			},
			{
				"x": 0.0379815432,
				"y": 3.008504684,
				"z": -0.9652037881,
				"element": "C" 
			},
			{
				"x": 1.111241903,
				"y": 0.0020897713,
				"z": 0.9312152197,
				"element": "N" 
			},
			{
				"x": 1.9295880873,
				"y": -0.794664766,
				"z": 0.1733443224,
				"element": "C" 
			},
			{
				"x": 2.2726589078,
				"y": -1.8736533759,
				"z": 0.9548228102,
				"element": "C" 
			},
			{
				"x": 1.609482157,
				"y": -1.6465174176,
				"z": 2.1850867963,
				"element": "C" 
			},
			{
				"x": 0.911172695,
				"y": -0.5190495507,
				"z": 2.1722185908,
				"element": "N" 
			},
			{
				"x": -0.4668370927,
				"y": 1.4681660277,
				"z": 2.4935509586,
				"element": "H" 
			},
			{
				"x": 1.2858216758,
				"y": 1.3335386569,
				"z": -1.4410082754,
				"element": "H" 
			},
			{
				"x": 0.1474502235,
				"y": 3.4884792258,
				"z": -1.9300810771,
				"element": "H" 
			},
			{
				"x": 2.2019788639,
				"y": -0.5441018687,
				"z": -0.8395574012,
				"element": "H" 
			},
			{
				"x": 2.9069580786,
				"y": -2.7024544872,
				"z": 0.6793550377,
				"element": "H" 
			},
			{
				"x": 1.6145579935,
				"y": -2.2593504652,
				"z": 3.0765584226,
				"element": "H" 
			}
		],
		 "valence_orbital": [ 
			{
				"type": "occ",
				"energy": -0.30508,
				"method": "rhf"
			},
			{
				"type": "occ",
				"energy": -0.29233,
				"method": "rhf"
			},
			{
				"type": "occ",
				"energy": -0.2772,
				"method": "rhf"
			},
			{
				"type": "occ",
				"energy": -0.26494,
				"method": "rhf"
			},
			{
				"type": "occ",
				"energy": -0.23713,
				"method": "rhf"
			},
			{
				"type": "unocc",
				"energy": -0.04817,
				"method": "rhf"
			},
			{
				"type": "unocc",
				"energy": -0.04013,
				"method": "rhf"
			},
			{
				"type": "unocc",
				"energy": 0.02197,
				"method": "rhf"
			},
			{
				"type": "unocc",
				"energy": 0.03157,
				"method": "rhf"
			},
			{
				"type": "unocc",
				"energy": 0.05813,
				"method": "rhf"
			}
		],
		"cosmo_sigma_profile": { 
			"-0.025": 0.0,
			"-0.024": 0.0,
			"-0.023": 0.0,
			"-0.022": 0.0,
			"-0.021": 0.0,
			"-0.02": 0.0,
			"-0.019": 0.0,
			"-0.018": 0.0,
			"-0.017": 0.0,
			"-0.016": 0.0,
			"-0.015": 0.0,
			"-0.014": 0.0,
			"-0.013": 0.0983002362503,
			"-0.012": 1.18612006212,
			"-0.011": 1.81319238904,
			"-0.01": 2.5125875698,
			"-0.009": 3.08809988703,
			"-0.008": 6.13371305941,
			"-0.007": 8.84816522497,
			"-0.006": 7.74202272294,
			"-0.005": 7.93537396616,
			"-0.004": 9.35142054003,
			"-0.003": 8.19599140363,
			"-0.002": 12.8106022526,
			"-0.001": 19.7944213932,
			"0.0": 20.7215387616,
			"0.001": 16.2107078706,
			"0.002": 12.2821771908,
			"0.003": 14.3178676565,
			"0.004": 18.2548874137,
			"0.005": 8.41234023337,
			"0.006": 4.9477366539,
			"0.007": 3.63419414265,
			"0.008": 2.30327914346,
			"0.009": 3.34739235993,
			"0.01": 2.32526156303,
			"0.011": 2.41978051005,
			"0.012": 1.27406184913,
			"0.013": 0.882607449328,
			"0.014": 0.720140109478,
			"0.015": 0.0621441561574,
			"0.016": 0.0,
			"0.017": 0.0,
			"0.018": 0.0,
			"0.019": 0.0,
			"0.02": 0.0,
			"0.021": 0.0,
			"0.022": 0.0,
			"0.023": 0.0,
			"0.024": 0.0,
			"0.025": 0.0
		}
	}
}
