{
	 "smiles": "COC1=CC=C(C=C1)N1C(=S)NC2=C(C=CC=C2)C1=O", 
	 "Tm": 581.15, 
	 "num_atms": 32, 
	 "gaussian": { 
		 "optdone": 1, 
		 "sigma_profile": "yes", 
		 "theory": "DFT", 
		 "functional": "B3LYP", 
		 "basiset": "6-31G**", 
		 "properties": { 
			 "R2extent": 7306.1593, 
			 "electric_dipole_moment_norm": 3.25990803705, 
			 "electric_quadrupole_moment_norm": 36.2652414761, 
			 "total_energy": -1236.99, 
			 "HOMO_LUMO_gap": 0.14941, 
			 "cosmo_polarized_energy": -20.89, 
			 "cosmo_cavitation_energy": 38.32, 
			 "cosmo_dispersion_energy": -27.62, 
			 "cosmo_repulsion_energy": 2.06, 
			 "cosmo_total_nonelectrostatic_energy": 12.76, 
			 "SMD_solvation_energy": 6.87 
		},
		"coords": [
			{
				"x": -0.6829082344,
				"y": -6.1974261227,
				"z": -0.7287785022,
				"element": "C" 
			},
			{
				"x": -0.7207373603,
				"y": -5.1513115056,
				"z": -1.6868449577,
				"element": "O" 
			},
			{
				"x": -0.4154567657,
				"y": -3.8877498573,
				"z": -1.2769524004,
				"element": "C" 
			},
			{
				"x": -0.4658617466,
				"y": -2.8988611837,
				"z": -2.2719920674,
				"element": "C" 
			},
			{
				"x": -0.1713015616,
				"y": -1.5800439569,
				"z": -1.9592858988,
				"element": "C" 
			},
			{
				"x": 0.1810462297,
				"y": -1.236702783,
				"z": -0.6521831808,
				"element": "C" 
			},
			{
				"x": 0.2240490883,
				"y": -2.2092082698,
				"z": 0.3392543021,
				"element": "C" 
			},
			{
				"x": -0.0700820621,
				"y": -3.5392188361,
				"z": 0.0346048316,
				"element": "C" 
			},
			{
				"x": 0.4593894647,
				"y": 0.1454658404,
				"z": -0.320338715,
				"element": "N" 
			},
			{
				"x": 1.7627362408,
				"y": 0.6178183004,
				"z": -0.420264682,
				"element": "C" 
			},
			{
				"x": 3.0774059839,
				"y": -0.293535504,
				"z": -0.898452297,
				"element": "S" 
			},
			{
				"x": 1.931519305,
				"y": 1.9383734926,
				"z": -0.0904792827,
				"element": "N" 
			},
			{
				"x": 0.9405299459,
				"y": 2.8136695763,
				"z": 0.3205763247,
				"element": "C" 
			},
			{
				"x": -0.3723827674,
				"y": 2.3309100567,
				"z": 0.4189573879,
				"element": "C" 
			},
			{
				"x": -1.4005608431,
				"y": 3.1887778795,
				"z": 0.8316526702,
				"element": "C" 
			},
			{
				"x": -1.122079332,
				"y": 4.513044445,
				"z": 1.1427886695,
				"element": "C" 
			},
			{
				"x": 0.1951552628,
				"y": 4.9874151948,
				"z": 1.0414920847,
				"element": "C" 
			},
			{
				"x": 1.2273458109,
				"y": 4.1514063938,
				"z": 0.6339030525,
				"element": "C" 
			},
			{
				"x": -0.6625757912,
				"y": 0.9265594401,
				"z": 0.0882464056,
				"element": "C" 
			},
			{
				"x": -1.7735557734,
				"y": 0.4312945876,
				"z": 0.1483478212,
				"element": "O" 
			},
			{
				"x": -1.4040812618,
				"y": -6.0307044743,
				"z": 0.0817134175,
				"element": "H" 
			},
			{
				"x": 0.3197581861,
				"y": -6.3160523931,
				"z": -0.2984119164,
				"element": "H" 
			},
			{
				"x": -0.9523439964,
				"y": -7.1077762901,
				"z": -1.2663630764,
				"element": "H" 
			},
			{
				"x": -0.738379172,
				"y": -3.1910598427,
				"z": -3.2803191305,
				"element": "H" 
			},
			{
				"x": -0.2079676175,
				"y": -0.8138699929,
				"z": -2.7267169132,
				"element": "H" 
			},
			{
				"x": 0.493296792,
				"y": -1.9326846632,
				"z": 1.3534128218,
				"element": "H" 
			},
			{
				"x": -0.0271489893,
				"y": -4.2841560104,
				"z": 0.8195340615,
				"element": "H" 
			},
			{
				"x": 2.8865945127,
				"y": 2.2606919962,
				"z": -0.1704692164,
				"element": "H" 
			},
			{
				"x": -2.4042045866,
				"y": 2.7826497091,
				"z": 0.8965831741,
				"element": "H" 
			},
			{
				"x": -1.9166865914,
				"y": 5.1790481686,
				"z": 1.4624697481,
				"element": "H" 
			},
			{
				"x": 0.4164780062,
				"y": 6.022612452,
				"z": 1.2840131348,
				"element": "H" 
			},
			{
				"x": 2.2458096236,
				"y": 4.521124153,
				"z": 0.5562023293,
				"element": "H" 
			}
		],
		 "valence_orbital": [ 
			{
				"type": "occ",
				"energy": -0.25933,
				"method": "rhf"
			},
			{
				"type": "occ",
				"energy": -0.25277,
				"method": "rhf"
			},
			{
				"type": "occ",
				"energy": -0.22893,
				"method": "rhf"
			},
			{
				"type": "occ",
				"energy": -0.21943,
				"method": "rhf"
			},
			{
				"type": "occ",
				"energy": -0.20748,
				"method": "rhf"
			},
			{
				"type": "unocc",
				"energy": -0.05807,
				"method": "rhf"
			},
			{
				"type": "unocc",
				"energy": -0.0424,
				"method": "rhf"
			},
			{
				"type": "unocc",
				"energy": -0.00337,
				"method": "rhf"
			},
			{
				"type": "unocc",
				"energy": 0.00134,
				"method": "rhf"
			},
			{
				"type": "unocc",
				"energy": 0.00658,
				"method": "rhf"
			}
		],
		"cosmo_sigma_profile": { 
			"-0.025": 0.0,
			"-0.024": 0.0,
			"-0.023": 0.0,
			"-0.022": 0.0,
			"-0.021": 0.0,
			"-0.02": 0.0,
			"-0.019": 0.0,
			"-0.018": 0.0,
			"-0.017": 0.103072379351,
			"-0.016": 1.25546408993,
			"-0.015": 1.10538953119,
			"-0.014": 1.43678330617,
			"-0.013": 0.989582006616,
			"-0.012": 0.717196243274,
			"-0.011": 1.24374004179,
			"-0.01": 1.1843044544,
			"-0.009": 0.891929321328,
			"-0.008": 2.63261864354,
			"-0.007": 12.599531821,
			"-0.006": 25.0070294416,
			"-0.005": 28.8618306841,
			"-0.004": 22.4498517138,
			"-0.003": 21.829930734,
			"-0.002": 18.1685590423,
			"-0.001": 15.3282581068,
			"0.0": 15.5434341228,
			"0.001": 17.4291468204,
			"0.002": 20.0143074543,
			"0.003": 21.3372610023,
			"0.004": 11.79791578,
			"0.005": 10.1349065052,
			"0.006": 8.96951145226,
			"0.007": 8.1026060834,
			"0.008": 9.27624792407,
			"0.009": 12.060715712,
			"0.01": 9.59230338525,
			"0.011": 5.50368203192,
			"0.012": 4.0217434522,
			"0.013": 0.517454363878,
			"0.014": 0.0,
			"0.015": 0.0,
			"0.016": 0.0,
			"0.017": 0.0,
			"0.018": 0.0,
			"0.019": 0.0,
			"0.02": 0.0,
			"0.021": 0.0,
			"0.022": 0.0,
			"0.023": 0.0,
			"0.024": 0.0,
			"0.025": 0.0
		}
	}
}
