{
	 "smiles": "CC1=CC=C(C=C1)C(O)CN", 
	 "Tm": 344.15, 
	 "num_atms": 24, 
	 "gaussian": { 
		 "optdone": 1, 
		 "sigma_profile": "yes", 
		 "theory": "DFT", 
		 "functional": "B3LYP", 
		 "basiset": "6-31G**", 
		 "properties": { 
			 "R2extent": 2245.6285, 
			 "electric_dipole_moment_norm": 3.05696600733, 
			 "electric_quadrupole_moment_norm": 8.28042778545, 
			 "total_energy": -480.769387424, 
			 "HOMO_LUMO_gap": 0.23134, 
			 "cosmo_polarized_energy": -9.22, 
			 "cosmo_cavitation_energy": 26.28, 
			 "cosmo_dispersion_energy": -19.23, 
			 "cosmo_repulsion_energy": 1.57, 
			 "cosmo_total_nonelectrostatic_energy": 8.62, 
			 "SMD_solvation_energy": 3.77 
		},
		"coords": [
			{
				"x": 2.041177097,
				"y": -2.6988137017,
				"z": -2.6684391664,
				"element": "C" 
			},
			{
				"x": 1.3810021496,
				"y": -1.6992526659,
				"z": -1.7474465318,
				"element": "C" 
			},
			{
				"x": 0.9588379869,
				"y": -0.4493685321,
				"z": -2.2249277442,
				"element": "C" 
			},
			{
				"x": 0.3256436361,
				"y": 0.4640163901,
				"z": -1.3853479721,
				"element": "C" 
			},
			{
				"x": 0.0945663981,
				"y": 0.1626595765,
				"z": -0.03509803,
				"element": "C" 
			},
			{
				"x": 0.5063307104,
				"y": -1.0837357588,
				"z": 0.4423832953,
				"element": "C" 
			},
			{
				"x": 1.1430221923,
				"y": -1.9969635363,
				"z": -0.4013410306,
				"element": "C" 
			},
			{
				"x": -0.5841669178,
				"y": 1.1793757645,
				"z": 0.8843096238,
				"element": "C" 
			},
			{
				"x": -0.900758447,
				"y": 0.642580767,
				"z": 2.1538115418,
				"element": "O" 
			},
			{
				"x": 0.2943426223,
				"y": 2.4352621675,
				"z": 1.0915727188,
				"element": "C" 
			},
			{
				"x": 1.4008890558,
				"y": 2.0700386035,
				"z": 1.9848161224,
				"element": "N" 
			},
			{
				"x": 2.738545731,
				"y": -2.2110706417,
				"z": -3.3576063755,
				"element": "H" 
			},
			{
				"x": 2.5964083673,
				"y": -3.4548893166,
				"z": -2.1056033987,
				"element": "H" 
			},
			{
				"x": 1.2995453668,
				"y": -3.226666874,
				"z": -3.2812038368,
				"element": "H" 
			},
			{
				"x": 1.1259777119,
				"y": -0.1913790836,
				"z": -3.2684463992,
				"element": "H" 
			},
			{
				"x": 0.0022886797,
				"y": 1.4214928074,
				"z": -1.7893651393,
				"element": "H" 
			},
			{
				"x": 0.3061405208,
				"y": -1.3356003718,
				"z": 1.4782065385,
				"element": "H" 
			},
			{
				"x": 1.4556990114,
				"y": -2.9606384143,
				"z": -0.0053515718,
				"element": "H" 
			},
			{
				"x": -1.5272402217,
				"y": 1.4933583968,
				"z": 0.4167243625,
				"element": "H" 
			},
			{
				"x": -0.1101529063,
				"y": 0.839578396,
				"z": 2.6917339908,
				"element": "H" 
			},
			{
				"x": 0.6088883606,
				"y": 2.8493467779,
				"z": 0.1221773608,
				"element": "H" 
			},
			{
				"x": -0.3086764688,
				"y": 3.1942552314,
				"z": 1.6012249789,
				"element": "H" 
			},
			{
				"x": 1.8614449108,
				"y": 2.8940995227,
				"z": 2.356728421,
				"element": "H" 
			},
			{
				"x": 2.0986444528,
				"y": 1.5287144955,
				"z": 1.4804882417,
				"element": "H" 
			}
		],
		 "valence_orbital": [ 
			{
				"type": "occ",
				"energy": -0.31397,
				"method": "rhf"
			},
			{
				"type": "occ",
				"energy": -0.26499,
				"method": "rhf"
			},
			{
				"type": "occ",
				"energy": -0.24942,
				"method": "rhf"
			},
			{
				"type": "occ",
				"energy": -0.24237,
				"method": "rhf"
			},
			{
				"type": "occ",
				"energy": -0.22766,
				"method": "rhf"
			},
			{
				"type": "unocc",
				"energy": 0.00368,
				"method": "rhf"
			},
			{
				"type": "unocc",
				"energy": 0.00708,
				"method": "rhf"
			},
			{
				"type": "unocc",
				"energy": 0.07624,
				"method": "rhf"
			},
			{
				"type": "unocc",
				"energy": 0.10443,
				"method": "rhf"
			},
			{
				"type": "unocc",
				"energy": 0.11517,
				"method": "rhf"
			}
		],
		"cosmo_sigma_profile": { 
			"-0.025": 0.0,
			"-0.024": 0.0,
			"-0.023": 0.0,
			"-0.022": 0.0,
			"-0.021": 0.0,
			"-0.02": 0.0,
			"-0.019": 0.0,
			"-0.018": 0.0,
			"-0.017": 0.0,
			"-0.016": 0.0,
			"-0.015": 0.0,
			"-0.014": 0.0,
			"-0.013": 0.0,
			"-0.012": 0.0,
			"-0.011": 0.652814339808,
			"-0.01": 1.82822547748,
			"-0.009": 2.16297194306,
			"-0.008": 2.60809775707,
			"-0.007": 3.36339868108,
			"-0.006": 2.93124830607,
			"-0.005": 10.1245574876,
			"-0.004": 21.962587346,
			"-0.003": 25.6554654133,
			"-0.002": 20.3938088988,
			"-0.001": 19.1920437289,
			"0.0": 17.434181452,
			"0.001": 13.1955528049,
			"0.002": 10.0696147703,
			"0.003": 9.0299202442,
			"0.004": 7.43235591027,
			"0.005": 9.44465871403,
			"0.006": 9.80356545273,
			"0.007": 4.88260738902,
			"0.008": 2.38092389628,
			"0.009": 1.68371644754,
			"0.01": 1.6150883709,
			"0.011": 1.74144168724,
			"0.012": 1.31416173358,
			"0.013": 1.36989605363,
			"0.014": 1.69653406687,
			"0.015": 1.62343191281,
			"0.016": 0.0150964715172,
			"0.017": 0.0,
			"0.018": 0.0,
			"0.019": 0.0,
			"0.02": 0.0,
			"0.021": 0.0,
			"0.022": 0.0,
			"0.023": 0.0,
			"0.024": 0.0,
			"0.025": 0.0
		}
	}
}
