{
	 "smiles": "ClC1=CC=CC=C1NC(=O)CBr", 
	 "Tm": 363.15, 
	 "num_atms": 19, 
	 "gaussian": { 
		 "optdone": 1, 
		 "sigma_profile": "yes", 
		 "theory": "DFT", 
		 "functional": "B3LYP", 
		 "basiset": "6-31G**", 
		 "properties": { 
			 "R2extent": 6431.7974, 
			 "electric_dipole_moment_norm": 0.799522732635, 
			 "electric_quadrupole_moment_norm": 8.7174441065, 
			 "total_energy": -3470.6615699, 
			 "HOMO_LUMO_gap": 0.20411, 
			 "cosmo_polarized_energy": -7.95, 
			 "cosmo_cavitation_energy": 27.15, 
			 "cosmo_dispersion_energy": -20.45, 
			 "cosmo_repulsion_energy": 1.62, 
			 "cosmo_total_nonelectrostatic_energy": 8.32, 
			 "SMD_solvation_energy": 3.72 
		},
		"coords": [
			{
				"x": 1.0603084815,
				"y": 3.0207036821,
				"z": -0.6276226107,
				"element": "Cl" 
			},
			{
				"x": 0.074195219,
				"y": 1.5701059589,
				"z": -0.817412481,
				"element": "C" 
			},
			{
				"x": 0.0601206518,
				"y": 0.9354061628,
				"z": -2.0553277437,
				"element": "C" 
			},
			{
				"x": -0.7100493106,
				"y": -0.2127170574,
				"z": -2.2341660675,
				"element": "C" 
			},
			{
				"x": -1.4574565798,
				"y": -0.7101836157,
				"z": -1.1670057069,
				"element": "C" 
			},
			{
				"x": -1.4452257079,
				"y": -0.0767597339,
				"z": 0.0735423159,
				"element": "C" 
			},
			{
				"x": -0.6745408828,
				"y": 1.0816263056,
				"z": 0.2715411786,
				"element": "C" 
			},
			{
				"x": -0.6180954617,
				"y": 1.7685630789,
				"z": 1.4976867231,
				"element": "N" 
			},
			{
				"x": -1.2616618751,
				"y": 1.4620900415,
				"z": 2.6591855529,
				"element": "C" 
			},
			{
				"x": -2.0166505566,
				"y": 0.5165814103,
				"z": 2.8436404652,
				"element": "O" 
			},
			{
				"x": -1.0291402554,
				"y": 2.3793566611,
				"z": 3.8627950478,
				"element": "C" 
			},
			{
				"x": 0.1776954186,
				"y": 3.9277062722,
				"z": 3.6336208673,
				"element": "Br" 
			},
			{
				"x": 0.6514214817,
				"y": 1.34546359,
				"z": -2.8664535661,
				"element": "H" 
			},
			{
				"x": -0.7219153592,
				"y": -0.7087890722,
				"z": -3.1993520454,
				"element": "H" 
			},
			{
				"x": -2.0610396111,
				"y": -1.6035923233,
				"z": -1.2944182964,
				"element": "H" 
			},
			{
				"x": -2.0228278194,
				"y": -0.4587244578,
				"z": 0.9031309844,
				"element": "H" 
			},
			{
				"x": -0.0261142107,
				"y": 2.5920514309,
				"z": 1.517097118,
				"element": "H" 
			},
			{
				"x": -1.9901868169,
				"y": 2.7844276604,
				"z": 4.1766175627,
				"element": "H" 
			},
			{
				"x": -0.6115368051,
				"y": 1.7834840055,
				"z": 4.673200702,
				"element": "H" 
			}
		],
		 "valence_orbital": [ 
			{
				"type": "occ",
				"energy": -0.30756,
				"method": "rhf"
			},
			{
				"type": "occ",
				"energy": -0.2918,
				"method": "rhf"
			},
			{
				"type": "occ",
				"energy": -0.26904,
				"method": "rhf"
			},
			{
				"type": "occ",
				"energy": -0.25742,
				"method": "rhf"
			},
			{
				"type": "occ",
				"energy": -0.23529,
				"method": "rhf"
			},
			{
				"type": "unocc",
				"energy": -0.03118,
				"method": "rhf"
			},
			{
				"type": "unocc",
				"energy": -0.01683,
				"method": "rhf"
			},
			{
				"type": "unocc",
				"energy": -0.01599,
				"method": "rhf"
			},
			{
				"type": "unocc",
				"energy": 0.01793,
				"method": "rhf"
			},
			{
				"type": "unocc",
				"energy": 0.02944,
				"method": "rhf"
			}
		],
		"cosmo_sigma_profile": { 
			"-0.025": 0.0,
			"-0.024": 0.0,
			"-0.023": 0.0,
			"-0.022": 0.0,
			"-0.021": 0.0,
			"-0.02": 0.0,
			"-0.019": 0.0,
			"-0.018": 0.0,
			"-0.017": 0.0,
			"-0.016": 0.0,
			"-0.015": 0.0,
			"-0.014": 0.0,
			"-0.013": 0.0,
			"-0.012": 0.0,
			"-0.011": 0.0,
			"-0.01": 0.480079851377,
			"-0.009": 4.06700438708,
			"-0.008": 4.56986658441,
			"-0.007": 6.59341451477,
			"-0.006": 11.4112319097,
			"-0.005": 14.4188476396,
			"-0.004": 13.842910063,
			"-0.003": 13.0953989555,
			"-0.002": 13.37960278,
			"-0.001": 15.2712943266,
			"0.0": 17.5663855357,
			"0.001": 20.2346891754,
			"0.002": 21.3729224326,
			"0.003": 22.014085381,
			"0.004": 22.2214814754,
			"0.005": 8.96297154597,
			"0.006": 2.08242118323,
			"0.007": 1.28584908918,
			"0.008": 1.06871011278,
			"0.009": 1.37181807586,
			"0.01": 2.02415561156,
			"0.011": 2.73834117173,
			"0.012": 2.7438897404,
			"0.013": 0.840948950276,
			"0.014": 0.0,
			"0.015": 0.0,
			"0.016": 0.0,
			"0.017": 0.0,
			"0.018": 0.0,
			"0.019": 0.0,
			"0.02": 0.0,
			"0.021": 0.0,
			"0.022": 0.0,
			"0.023": 0.0,
			"0.024": 0.0,
			"0.025": 0.0
		}
	}
}
