{
	 "smiles": "ClC1=CC(Cl)=C(C=C1)C1(CN2C=NC=N2)CC(Br)CO1", 
	 "Tm": 357.15, 
	 "num_atms": 32, 
	 "gaussian": { 
		 "optdone": 1, 
		 "sigma_profile": "yes", 
		 "theory": "DFT", 
		 "functional": "B3LYP", 
		 "basiset": "6-31G**", 
		 "properties": { 
			 "R2extent": 9533.9065, 
			 "electric_dipole_moment_norm": 0.193312131021, 
			 "electric_quadrupole_moment_norm": 12.8069155022, 
			 "total_energy": -4233.85439576, 
			 "HOMO_LUMO_gap": 0.22039, 
			 "cosmo_polarized_energy": -14.72, 
			 "cosmo_cavitation_energy": 39.86, 
			 "cosmo_dispersion_energy": -28.06, 
			 "cosmo_repulsion_energy": 2.13, 
			 "cosmo_total_nonelectrostatic_energy": 13.92, 
			 "SMD_solvation_energy": 3.15 
		},
		"coords": [
			{
				"x": -3.7028676029,
				"y": 4.3011463389,
				"z": -2.7575031724,
				"element": "Cl" 
			},
			{
				"x": -2.5563543283,
				"y": 3.3013128086,
				"z": -1.8857722061,
				"element": "C" 
			},
			{
				"x": -2.9383928966,
				"y": 2.0259544697,
				"z": -1.4803635883,
				"element": "C" 
			},
			{
				"x": -2.0203568943,
				"y": 1.2352144028,
				"z": -0.7889396911,
				"element": "C" 
			},
			{
				"x": -2.6013912837,
				"y": -0.3714062967,
				"z": -0.3199544285,
				"element": "Cl" 
			},
			{
				"x": -0.7251547012,
				"y": 1.6817229906,
				"z": -0.4773880504,
				"element": "C" 
			},
			{
				"x": -0.3893978165,
				"y": 2.9723746029,
				"z": -0.9114537647,
				"element": "C" 
			},
			{
				"x": -1.2808474765,
				"y": 3.7844058569,
				"z": -1.6062367781,
				"element": "C" 
			},
			{
				"x": 0.3348254708,
				"y": 0.8415702569,
				"z": 0.2611196832,
				"element": "C" 
			},
			{
				"x": 0.7543969022,
				"y": -0.3240241707,
				"z": -0.6846198736,
				"element": "C" 
			},
			{
				"x": 1.5633059161,
				"y": -1.3640056983,
				"z": -0.0695418323,
				"element": "N" 
			},
			{
				"x": 1.2283236409,
				"y": -2.6554863655,
				"z": 0.172496207,
				"element": "C" 
			},
			{
				"x": 2.2344897175,
				"y": -3.3019187059,
				"z": 0.7351542312,
				"element": "N" 
			},
			{
				"x": 3.1902676887,
				"y": -2.3350974139,
				"z": 0.8182043079,
				"element": "C" 
			},
			{
				"x": 2.8406136227,
				"y": -1.1462516165,
				"z": 0.3451622488,
				"element": "N" 
			},
			{
				"x": -0.1001883473,
				"y": 0.4004588355,
				"z": 1.6920623506,
				"element": "C" 
			},
			{
				"x": 0.6809270928,
				"y": 1.3233228217,
				"z": 2.6278863617,
				"element": "C" 
			},
			{
				"x": -0.3495128816,
				"y": 2.9815138514,
				"z": 3.041612757,
				"element": "Br" 
			},
			{
				"x": 1.9266216083,
				"y": 1.6354631085,
				"z": 1.8135434831,
				"element": "C" 
			},
			{
				"x": 1.4976212882,
				"y": 1.6590517621,
				"z": 0.454061708,
				"element": "O" 
			},
			{
				"x": -3.93057869,
				"y": 1.6491274934,
				"z": -1.6948523724,
				"element": "H" 
			},
			{
				"x": 0.6028771818,
				"y": 3.3365689118,
				"z": -0.67839781,
				"element": "H" 
			},
			{
				"x": -0.9899222684,
				"y": 4.7792012033,
				"z": -1.9235730667,
				"element": "H" 
			},
			{
				"x": 1.3245941313,
				"y": 0.1212835515,
				"z": -1.5031136813,
				"element": "H" 
			},
			{
				"x": -0.1235041569,
				"y": -0.8204250928,
				"z": -1.098050022,
				"element": "H" 
			},
			{
				"x": 0.2610617811,
				"y": -3.0669846932,
				"z": -0.08244453,
				"element": "H" 
			},
			{
				"x": 4.1737733642,
				"y": -2.5102699691,
				"z": 1.2326483409,
				"element": "H" 
			},
			{
				"x": -1.1746988295,
				"y": 0.4493277259,
				"z": 1.8501669678,
				"element": "H" 
			},
			{
				"x": 0.219871056,
				"y": -0.6295236053,
				"z": 1.8815526477,
				"element": "H" 
			},
			{
				"x": 0.8887362008,
				"y": 0.8873451588,
				"z": 3.6031944745,
				"element": "H" 
			},
			{
				"x": 2.6650055366,
				"y": 0.8339982675,
				"z": 1.95435204,
				"element": "H" 
			},
			{
				"x": 2.3826559737,
				"y": 2.5988292091,
				"z": 2.0475870584,
				"element": "H" 
			}
		],
		 "valence_orbital": [ 
			{
				"type": "occ",
				"energy": -0.28137,
				"method": "rhf"
			},
			{
				"type": "occ",
				"energy": -0.27437,
				"method": "rhf"
			},
			{
				"type": "occ",
				"energy": -0.27043,
				"method": "rhf"
			},
			{
				"type": "occ",
				"energy": -0.26764,
				"method": "rhf"
			},
			{
				"type": "occ",
				"energy": -0.25496,
				"method": "rhf"
			},
			{
				"type": "unocc",
				"energy": -0.03457,
				"method": "rhf"
			},
			{
				"type": "unocc",
				"energy": -0.0306,
				"method": "rhf"
			},
			{
				"type": "unocc",
				"energy": -0.01292,
				"method": "rhf"
			},
			{
				"type": "unocc",
				"energy": -0.0059,
				"method": "rhf"
			},
			{
				"type": "unocc",
				"energy": -0.00296,
				"method": "rhf"
			}
		],
		"cosmo_sigma_profile": { 
			"-0.025": 0.0,
			"-0.024": 0.0,
			"-0.023": 0.0,
			"-0.022": 0.0,
			"-0.021": 0.0,
			"-0.02": 0.0,
			"-0.019": 0.0,
			"-0.018": 0.0,
			"-0.017": 0.0,
			"-0.016": 0.0,
			"-0.015": 0.0,
			"-0.014": 0.0,
			"-0.013": 0.0,
			"-0.012": 0.0,
			"-0.011": 0.170523012423,
			"-0.01": 1.96575488358,
			"-0.009": 3.52780110334,
			"-0.008": 9.87320290245,
			"-0.007": 12.3228780016,
			"-0.006": 18.3402013095,
			"-0.005": 21.7555027026,
			"-0.004": 20.3952801029,
			"-0.003": 18.1998710703,
			"-0.002": 19.991131629,
			"-0.001": 21.4535283256,
			"0.0": 24.4050282437,
			"0.001": 30.0281198458,
			"0.002": 27.2668312965,
			"0.003": 23.2309693271,
			"0.004": 24.8996618824,
			"0.005": 15.1616709585,
			"0.006": 10.2064898791,
			"0.007": 3.39336692671,
			"0.008": 2.56876088024,
			"0.009": 2.57815596467,
			"0.01": 2.89962890625,
			"0.011": 2.8515864515,
			"0.012": 2.39118527054,
			"0.013": 2.65980356405,
			"0.014": 0.937257981164,
			"0.015": 1.44803798987,
			"0.016": 0.978977715754,
			"0.017": 0.174148624982,
			"0.018": 0.0,
			"0.019": 0.0,
			"0.02": 0.0,
			"0.021": 0.0,
			"0.022": 0.0,
			"0.023": 0.0,
			"0.024": 0.0,
			"0.025": 0.0
		}
	}
}
