{
	 "smiles": "CCOC1=C(Br)C=C(Cl)C=C1N", 
	 "Tm": 319.15, 
	 "num_atms": 21, 
	 "gaussian": { 
		 "optdone": 1, 
		 "sigma_profile": "yes", 
		 "theory": "DFT", 
		 "functional": "B3LYP", 
		 "basiset": "6-31G**", 
		 "properties": { 
			 "R2extent": 4059.4073, 
			 "electric_dipole_moment_norm": 3.27646884313, 
			 "electric_quadrupole_moment_norm": 7.91572158619, 
			 "total_energy": -3471.84377847, 
			 "HOMO_LUMO_gap": 0.2005, 
			 "cosmo_polarized_energy": -8.7, 
			 "cosmo_cavitation_energy": 28.72, 
			 "cosmo_dispersion_energy": -21.17, 
			 "cosmo_repulsion_energy": 1.71, 
			 "cosmo_total_nonelectrostatic_energy": 9.26, 
			 "SMD_solvation_energy": 3.83 
		},
		"coords": [
			{
				"x": 3.179589516,
				"y": -2.1799065883,
				"z": 1.3009310546,
				"element": "C" 
			},
			{
				"x": 2.3408056635,
				"y": -1.1538859313,
				"z": 0.5633557363,
				"element": "C" 
			},
			{
				"x": 1.0543950226,
				"y": -1.0839949813,
				"z": 1.223359044,
				"element": "O" 
			},
			{
				"x": 0.1691237601,
				"y": -0.1900822055,
				"z": 0.6698509236,
				"element": "C" 
			},
			{
				"x": 0.1226637741,
				"y": 1.1541606947,
				"z": 1.0379683509,
				"element": "C" 
			},
			{
				"x": 1.3596068717,
				"y": 1.813136803,
				"z": 2.331991252,
				"element": "Br" 
			},
			{
				"x": -0.8156499782,
				"y": 2.0360101257,
				"z": 0.4985518904,
				"element": "C" 
			},
			{
				"x": -1.7213164357,
				"y": 1.5285674008,
				"z": -0.4291084746,
				"element": "C" 
			},
			{
				"x": -2.9178917565,
				"y": 2.611167987,
				"z": -1.1281596637,
				"element": "Cl" 
			},
			{
				"x": -1.7188969465,
				"y": 0.1911734868,
				"z": -0.8149090458,
				"element": "C" 
			},
			{
				"x": -0.7695983057,
				"y": -0.6826735905,
				"z": -0.2667798997,
				"element": "C" 
			},
			{
				"x": -0.6914849969,
				"y": -2.0181606578,
				"z": -0.63912705,
				"element": "N" 
			},
			{
				"x": 4.1677824735,
				"y": -2.2595843192,
				"z": 0.837408887,
				"element": "H" 
			},
			{
				"x": 3.3080845422,
				"y": -1.8882450667,
				"z": 2.3468922569,
				"element": "H" 
			},
			{
				"x": 2.7061168058,
				"y": -3.166119164,
				"z": 1.273820932,
				"element": "H" 
			},
			{
				"x": 2.1919435571,
				"y": -1.4355312137,
				"z": -0.4869947265,
				"element": "H" 
			},
			{
				"x": 2.8125387864,
				"y": -0.1651458302,
				"z": 0.5936419959,
				"element": "H" 
			},
			{
				"x": -0.8372665515,
				"y": 3.076062621,
				"z": 0.7946403083,
				"element": "H" 
			},
			{
				"x": -2.4429277454,
				"y": -0.1703455296,
				"z": -1.537023335,
				"element": "H" 
			},
			{
				"x": -1.5428401453,
				"y": -2.4189632608,
				"z": -1.0065205407,
				"element": "H" 
			},
			{
				"x": -0.2395779114,
				"y": -2.5999407801,
				"z": 0.054510104,
				"element": "H" 
			}
		],
		 "valence_orbital": [ 
			{
				"type": "occ",
				"energy": -0.28772,
				"method": "rhf"
			},
			{
				"type": "occ",
				"energy": -0.28523,
				"method": "rhf"
			},
			{
				"type": "occ",
				"energy": -0.28283,
				"method": "rhf"
			},
			{
				"type": "occ",
				"energy": -0.23881,
				"method": "rhf"
			},
			{
				"type": "occ",
				"energy": -0.21626,
				"method": "rhf"
			},
			{
				"type": "unocc",
				"energy": -0.01576,
				"method": "rhf"
			},
			{
				"type": "unocc",
				"energy": -0.00373,
				"method": "rhf"
			},
			{
				"type": "unocc",
				"energy": -0.00221,
				"method": "rhf"
			},
			{
				"type": "unocc",
				"energy": 0.04431,
				"method": "rhf"
			},
			{
				"type": "unocc",
				"energy": 0.07104,
				"method": "rhf"
			}
		],
		"cosmo_sigma_profile": { 
			"-0.025": 0.0,
			"-0.024": 0.0,
			"-0.023": 0.0,
			"-0.022": 0.0,
			"-0.021": 0.0,
			"-0.02": 0.0,
			"-0.019": 0.0,
			"-0.018": 0.0,
			"-0.017": 0.0,
			"-0.016": 0.0,
			"-0.015": 0.0,
			"-0.014": 0.135659865638,
			"-0.013": 1.48237623561,
			"-0.012": 1.72725795509,
			"-0.011": 2.25091610858,
			"-0.01": 2.5147939991,
			"-0.009": 2.9171272906,
			"-0.008": 3.16096917125,
			"-0.007": 3.74720695935,
			"-0.006": 5.04847469693,
			"-0.005": 4.80817423515,
			"-0.004": 15.2407554606,
			"-0.003": 18.7433296943,
			"-0.002": 18.7374952415,
			"-0.001": 18.2624021399,
			"0.0": 18.4951260597,
			"0.001": 19.8504406777,
			"0.002": 26.6388492916,
			"0.003": 23.9788676978,
			"0.004": 22.1176796912,
			"0.005": 10.8573709744,
			"0.006": 2.69658207823,
			"0.007": 2.01305583835,
			"0.008": 2.4343535235,
			"0.009": 1.51125946298,
			"0.01": 1.67796661942,
			"0.011": 1.38194000905,
			"0.012": 0.65360164026,
			"0.013": 0.230017464172,
			"0.014": 0.0,
			"0.015": 0.0,
			"0.016": 0.0,
			"0.017": 0.0,
			"0.018": 0.0,
			"0.019": 0.0,
			"0.02": 0.0,
			"0.021": 0.0,
			"0.022": 0.0,
			"0.023": 0.0,
			"0.024": 0.0,
			"0.025": 0.0
		}
	}
}
