{
	 "smiles": "CC(=O)NC1=CC=CC(=C1)C(O)=O", 
	 "Tm": 523.65, 
	 "num_atms": 22, 
	 "gaussian": { 
		 "optdone": 1, 
		 "sigma_profile": "yes", 
		 "theory": "DFT", 
		 "functional": "B3LYP", 
		 "basiset": "6-31G**", 
		 "properties": { 
			 "R2extent": 3756.4436, 
			 "electric_dipole_moment_norm": 5.58824036527, 
			 "electric_quadrupole_moment_norm": 16.1446425996, 
			 "total_energy": -628.828500201, 
			 "HOMO_LUMO_gap": 0.1828, 
			 "cosmo_polarized_energy": -21.02, 
			 "cosmo_cavitation_energy": 26.83, 
			 "cosmo_dispersion_energy": -19.6, 
			 "cosmo_repulsion_energy": 1.55, 
			 "cosmo_total_nonelectrostatic_energy": 8.78, 
			 "SMD_solvation_energy": 6.66 
		},
		"coords": [
			{
				"x": 0.0433712368,
				"y": -2.6067348282,
				"z": -0.1085200144,
				"element": "C" 
			},
			{
				"x": -0.9233084146,
				"y": -2.1635846474,
				"z": -1.189410881,
				"element": "C" 
			},
			{
				"x": -1.4861562398,
				"y": -2.9630412978,
				"z": -1.9204092185,
				"element": "O" 
			},
			{
				"x": -1.1944631061,
				"y": -0.8081792359,
				"z": -1.3404674002,
				"element": "N" 
			},
			{
				"x": -0.7411255733,
				"y": 0.3342870027,
				"z": -0.6554801717,
				"element": "C" 
			},
			{
				"x": 0.5811464282,
				"y": 0.481611771,
				"z": -0.2027452768,
				"element": "C" 
			},
			{
				"x": 0.9733386191,
				"y": 1.6509015683,
				"z": 0.4465078264,
				"element": "C" 
			},
			{
				"x": 0.0727870961,
				"y": 2.6966907119,
				"z": 0.6413112032,
				"element": "C" 
			},
			{
				"x": -1.2431853237,
				"y": 2.5670127088,
				"z": 0.175033684,
				"element": "C" 
			},
			{
				"x": -1.6382864299,
				"y": 1.3953597146,
				"z": -0.4736842553,
				"element": "C" 
			},
			{
				"x": -2.2741175436,
				"y": 3.6501187359,
				"z": 0.3173072903,
				"element": "C" 
			},
			{
				"x": -2.0532925747,
				"y": 4.5789310396,
				"z": 1.2841182307,
				"element": "O" 
			},
			{
				"x": -3.2611329363,
				"y": 3.7194231737,
				"z": -0.3759696237,
				"element": "O" 
			},
			{
				"x": 1.0716369648,
				"y": -2.5863169371,
				"z": -0.485291801,
				"element": "H" 
			},
			{
				"x": -0.2015073593,
				"y": -3.6407745336,
				"z": 0.1357666965,
				"element": "H" 
			},
			{
				"x": -0.0049545729,
				"y": -1.9877537911,
				"z": 0.7902080898,
				"element": "H" 
			},
			{
				"x": -1.9504596396,
				"y": -0.6625190731,
				"z": -1.9994221159,
				"element": "H" 
			},
			{
				"x": 1.3102276253,
				"y": -0.2976978813,
				"z": -0.3853069068,
				"element": "H" 
			},
			{
				"x": 2.0024294105,
				"y": 1.7550105894,
				"z": 0.7764440636,
				"element": "H" 
			},
			{
				"x": 0.4189117249,
				"y": 3.6178515346,
				"z": 1.1022529939,
				"element": "H" 
			},
			{
				"x": -2.6610829649,
				"y": 1.3228732667,
				"z": -0.829732458,
				"element": "H" 
			},
			{
				"x": -1.3215764268,
				"y": 4.3023304083,
				"z": 1.8529900447,
				"element": "H" 
			}
		],
		 "valence_orbital": [ 
			{
				"type": "occ",
				"energy": -0.31639,
				"method": "rhf"
			},
			{
				"type": "occ",
				"energy": -0.28629,
				"method": "rhf"
			},
			{
				"type": "occ",
				"energy": -0.2744,
				"method": "rhf"
			},
			{
				"type": "occ",
				"energy": -0.26339,
				"method": "rhf"
			},
			{
				"type": "occ",
				"energy": -0.24289,
				"method": "rhf"
			},
			{
				"type": "unocc",
				"energy": -0.06009,
				"method": "rhf"
			},
			{
				"type": "unocc",
				"energy": -0.03538,
				"method": "rhf"
			},
			{
				"type": "unocc",
				"energy": 0.01492,
				"method": "rhf"
			},
			{
				"type": "unocc",
				"energy": 0.04581,
				"method": "rhf"
			},
			{
				"type": "unocc",
				"energy": 0.05345,
				"method": "rhf"
			}
		],
		"cosmo_sigma_profile": { 
			"-0.025": 0.0,
			"-0.024": 0.0,
			"-0.023": 0.0,
			"-0.022": 0.0,
			"-0.021": 0.0,
			"-0.02": 0.0,
			"-0.019": 0.23392290912,
			"-0.018": 0.698343392564,
			"-0.017": 0.929740883559,
			"-0.016": 1.09375991083,
			"-0.015": 1.27127165254,
			"-0.014": 2.27219348925,
			"-0.013": 1.80857043417,
			"-0.012": 2.18607490894,
			"-0.011": 2.66336015388,
			"-0.01": 2.01210154147,
			"-0.009": 3.06224882855,
			"-0.008": 5.48759595546,
			"-0.007": 8.48872631025,
			"-0.006": 9.79847154523,
			"-0.005": 13.3423143916,
			"-0.004": 12.8281846172,
			"-0.003": 14.3379162631,
			"-0.002": 15.0754598238,
			"-0.001": 13.4532107396,
			"0.0": 10.1699005865,
			"0.001": 11.6005171425,
			"0.002": 14.7452275275,
			"0.003": 12.4669327713,
			"0.004": 4.20886209967,
			"0.005": 3.91885983894,
			"0.006": 3.41933065707,
			"0.007": 3.05709691174,
			"0.008": 4.56089089583,
			"0.009": 4.52429815213,
			"0.01": 6.20601348702,
			"0.011": 7.40104847441,
			"0.012": 6.89974698628,
			"0.013": 6.89730174716,
			"0.014": 2.64811857689,
			"0.015": 0.186144550056,
			"0.016": 0.0,
			"0.017": 0.0,
			"0.018": 0.0,
			"0.019": 0.0,
			"0.02": 0.0,
			"0.021": 0.0,
			"0.022": 0.0,
			"0.023": 0.0,
			"0.024": 0.0,
			"0.025": 0.0
		}
	}
}
