{
	 "smiles": "NNC(=O)C1=CC=CN1", 
	 "Tm": 507.15, 
	 "num_atms": 16, 
	 "gaussian": { 
		 "optdone": 1, 
		 "sigma_profile": "yes", 
		 "theory": "DFT", 
		 "functional": "B3LYP", 
		 "basiset": "6-31G**", 
		 "properties": { 
			 "R2extent": 1666.5016, 
			 "electric_dipole_moment_norm": 3.50992976568, 
			 "electric_quadrupole_moment_norm": 7.05256082285, 
			 "total_energy": -434.198144488, 
			 "HOMO_LUMO_gap": 0.20071, 
			 "cosmo_polarized_energy": -15.77, 
			 "cosmo_cavitation_energy": 20.46, 
			 "cosmo_dispersion_energy": -15.28, 
			 "cosmo_repulsion_energy": 1.27, 
			 "cosmo_total_nonelectrostatic_energy": 6.44, 
			 "SMD_solvation_energy": 4.98 
		},
		"coords": [
			{
				"x": -2.9089908674,
				"y": 1.3840139195,
				"z": 2.3328600019,
				"element": "N" 
			},
			{
				"x": -2.0352740751,
				"y": 0.4635081924,
				"z": 1.6977549693,
				"element": "N" 
			},
			{
				"x": -2.0051936232,
				"y": 0.4483807944,
				"z": 0.3017006756,
				"element": "C" 
			},
			{
				"x": -2.7966864773,
				"y": 1.1068669865,
				"z": -0.3650632726,
				"element": "O" 
			},
			{
				"x": -0.977299507,
				"y": -0.4187321673,
				"z": -0.2846330668,
				"element": "C" 
			},
			{
				"x": -0.4510250401,
				"y": -0.4048078192,
				"z": -1.5661225109,
				"element": "C" 
			},
			{
				"x": 0.5307718763,
				"y": -1.4233769761,
				"z": -1.6383968124,
				"element": "C" 
			},
			{
				"x": 0.5740073527,
				"y": -2.0443173327,
				"z": -0.4030011619,
				"element": "C" 
			},
			{
				"x": -0.3257045073,
				"y": -1.4195074472,
				"z": 0.4182618207,
				"element": "N" 
			},
			{
				"x": -3.1195562877,
				"y": 2.102700994,
				"z": 1.6363666374,
				"element": "H" 
			},
			{
				"x": -3.7898369014,
				"y": 0.8955762424,
				"z": 2.4881741335,
				"element": "H" 
			},
			{
				"x": -1.1313837023,
				"y": 0.4311966719,
				"z": 2.1545649816,
				"element": "H" 
			},
			{
				"x": -0.744793207,
				"y": 0.2877619823,
				"z": -2.3411417264,
				"element": "H" 
			},
			{
				"x": 1.1412268989,
				"y": -1.6769998734,
				"z": -2.4933530244,
				"element": "H" 
			},
			{
				"x": 1.1654665451,
				"y": -2.8772714683,
				"z": -0.0520008531,
				"element": "H" 
			},
			{
				"x": -0.6132284773,
				"y": -1.7524926991,
				"z": 1.3255292085,
				"element": "H" 
			}
		],
		 "valence_orbital": [ 
			{
				"type": "occ",
				"energy": -0.28983,
				"method": "rhf"
			},
			{
				"type": "occ",
				"energy": -0.26142,
				"method": "rhf"
			},
			{
				"type": "occ",
				"energy": -0.25757,
				"method": "rhf"
			},
			{
				"type": "occ",
				"energy": -0.25083,
				"method": "rhf"
			},
			{
				"type": "occ",
				"energy": -0.22331,
				"method": "rhf"
			},
			{
				"type": "unocc",
				"energy": -0.0226,
				"method": "rhf"
			},
			{
				"type": "unocc",
				"energy": 0.05549,
				"method": "rhf"
			},
			{
				"type": "unocc",
				"energy": 0.06255,
				"method": "rhf"
			},
			{
				"type": "unocc",
				"energy": 0.09415,
				"method": "rhf"
			},
			{
				"type": "unocc",
				"energy": 0.10313,
				"method": "rhf"
			}
		],
		"cosmo_sigma_profile": { 
			"-0.025": 0.0,
			"-0.024": 0.0,
			"-0.023": 0.0,
			"-0.022": 0.0,
			"-0.021": 0.0,
			"-0.02": 0.0,
			"-0.019": 0.0,
			"-0.018": 0.0,
			"-0.017": 0.00379637710837,
			"-0.016": 0.708269393386,
			"-0.015": 1.31740137025,
			"-0.014": 2.10408352734,
			"-0.013": 2.84575591421,
			"-0.012": 2.27971839706,
			"-0.011": 3.16767751247,
			"-0.01": 3.50977106069,
			"-0.009": 3.9290928992,
			"-0.008": 6.39111075698,
			"-0.007": 5.20457483198,
			"-0.006": 6.58650332437,
			"-0.005": 7.62863480613,
			"-0.004": 8.30800963894,
			"-0.003": 7.47036460941,
			"-0.002": 8.04734272264,
			"-0.001": 8.25260974658,
			"0.0": 8.07716794527,
			"0.001": 7.37422082992,
			"0.002": 8.05576810961,
			"0.003": 7.33430889735,
			"0.004": 9.05174922163,
			"0.005": 8.52583423241,
			"0.006": 8.80192111037,
			"0.007": 5.12358424409,
			"0.008": 3.00466309384,
			"0.009": 1.64197437791,
			"0.01": 2.31231820595,
			"0.011": 2.45849751603,
			"0.012": 3.10215227051,
			"0.013": 5.34883327738,
			"0.014": 2.48560888879,
			"0.015": 0.917612182172,
			"0.016": 0.50065974078,
			"0.017": 0.47706646924,
			"0.018": 0.0,
			"0.019": 0.0,
			"0.02": 0.0,
			"0.021": 0.0,
			"0.022": 0.0,
			"0.023": 0.0,
			"0.024": 0.0,
			"0.025": 0.0
		}
	}
}
