{
	 "smiles": "CC12CCC3C(CCC4CC(=O)CCC34C)C1CCC21OCCS1", 
	 "Tm": 474.15, 
	 "num_atms": 56, 
	 "gaussian": { 
		 "optdone": 1, 
		 "sigma_profile": "yes", 
		 "theory": "DFT", 
		 "functional": "B3LYP", 
		 "basiset": "6-31G**", 
		 "properties": { 
			 "R2extent": 9820.6904, 
			 "electric_dipole_moment_norm": 4.17683002048, 
			 "electric_quadrupole_moment_norm": 25.1098751449, 
			 "total_energy": -1368.15061056, 
			 "HOMO_LUMO_gap": 0.21333, 
			 "cosmo_polarized_energy": -11.76, 
			 "cosmo_cavitation_energy": 47.64, 
			 "cosmo_dispersion_energy": -34.16, 
			 "cosmo_repulsion_energy": 2.45, 
			 "cosmo_total_nonelectrostatic_energy": 15.94, 
			 "SMD_solvation_energy": 6.6 
		},
		"coords": [
			{
				"x": 1.9589371144,
				"y": -1.8653587078,
				"z": -1.9476816842,
				"element": "C" 
			},
			{
				"x": 1.7243331144,
				"y": -0.5781164324,
				"z": -1.116181056,
				"element": "C" 
			},
			{
				"x": 2.3173061198,
				"y": -0.816889312,
				"z": 0.3053690317,
				"element": "C" 
			},
			{
				"x": 1.3927218728,
				"y": -0.373781259,
				"z": 1.4557309966,
				"element": "C" 
			},
			{
				"x": -0.0641837091,
				"y": -0.9308903115,
				"z": 1.4052422561,
				"element": "C" 
			},
			{
				"x": -0.5083858667,
				"y": -1.1929884399,
				"z": -0.0813410427,
				"element": "C" 
			},
			{
				"x": -2.0325122342,
				"y": -1.3695528211,
				"z": -0.2853148042,
				"element": "C" 
			},
			{
				"x": -2.927202277,
				"y": -0.4917444222,
				"z": 0.5930227831,
				"element": "C" 
			},
			{
				"x": -2.5014597591,
				"y": -0.6141553665,
				"z": 2.0609489641,
				"element": "C" 
			},
			{
				"x": -3.5441254473,
				"y": 0.0033116595,
				"z": 3.019865246,
				"element": "C" 
			},
			{
				"x": -3.1267220007,
				"y": -0.078515819,
				"z": 4.4804290257,
				"element": "C" 
			},
			{
				"x": -3.8849837537,
				"y": -0.4547030004,
				"z": 5.3550865391,
				"element": "O" 
			},
			{
				"x": -1.6939348764,
				"y": 0.3433634831,
				"z": 4.7661735251,
				"element": "C" 
			},
			{
				"x": -0.6938010804,
				"y": -0.2879848971,
				"z": 3.7759476586,
				"element": "C" 
			},
			{
				"x": -1.056693954,
				"y": -0.0706055068,
				"z": 2.2814245042,
				"element": "C" 
			},
			{
				"x": -0.991480122,
				"y": 1.4436091705,
				"z": 1.9622803174,
				"element": "C" 
			},
			{
				"x": 0.2225152852,
				"y": -0.1915320995,
				"z": -0.9929785973,
				"element": "C" 
			},
			{
				"x": -0.2008145246,
				"y": 0.0987032086,
				"z": -2.4405196577,
				"element": "C" 
			},
			{
				"x": 1.0543855867,
				"y": 0.803826561,
				"z": -3.0308115143,
				"element": "C" 
			},
			{
				"x": 2.2168361197,
				"y": 0.6159498569,
				"z": -2.0054055345,
				"element": "C" 
			},
			{
				"x": 3.4144987164,
				"y": 0.3967863624,
				"z": -2.7267992472,
				"element": "O" 
			},
			{
				"x": 4.5691958628,
				"y": 0.8416675363,
				"z": -2.0313323337,
				"element": "C" 
			},
			{
				"x": 4.2815881484,
				"y": 2.2606963317,
				"z": -1.5346730684,
				"element": "C" 
			},
			{
				"x": 2.5339798116,
				"y": 2.1911308524,
				"z": -0.9858592257,
				"element": "S" 
			},
			{
				"x": 1.6106680308,
				"y": -1.7896602626,
				"z": -2.9799986745,
				"element": "H" 
			},
			{
				"x": 1.4682157965,
				"y": -2.7286796895,
				"z": -1.4888396089,
				"element": "H" 
			},
			{
				"x": 3.030919104,
				"y": -2.0768694955,
				"z": -1.9883691795,
				"element": "H" 
			},
			{
				"x": 2.5312699575,
				"y": -1.8873788088,
				"z": 0.4119321326,
				"element": "H" 
			},
			{
				"x": 3.2769079353,
				"y": -0.3041738867,
				"z": 0.4224752476,
				"element": "H" 
			},
			{
				"x": 1.3750129045,
				"y": 0.7180557282,
				"z": 1.4534663137,
				"element": "H" 
			},
			{
				"x": 1.8591855569,
				"y": -0.6625656809,
				"z": 2.404237184,
				"element": "H" 
			},
			{
				"x": -0.0563258801,
				"y": -1.9180935385,
				"z": 1.8890503685,
				"element": "H" 
			},
			{
				"x": -0.0917049559,
				"y": -2.1742863781,
				"z": -0.3359600729,
				"element": "H" 
			},
			{
				"x": -2.2794409371,
				"y": -1.2363894697,
				"z": -1.3448136345,
				"element": "H" 
			},
			{
				"x": -2.2800061811,
				"y": -2.4139926393,
				"z": -0.0522079664,
				"element": "H" 
			},
			{
				"x": -2.8952064493,
				"y": 0.5582898749,
				"z": 0.2765483199,
				"element": "H" 
			},
			{
				"x": -3.9709968614,
				"y": -0.8109939419,
				"z": 0.4801830114,
				"element": "H" 
			},
			{
				"x": -2.4645574339,
				"y": -1.6905794897,
				"z": 2.2950937709,
				"element": "H" 
			},
			{
				"x": -3.7011150799,
				"y": 1.063087987,
				"z": 2.7727875763,
				"element": "H" 
			},
			{
				"x": -4.5125938794,
				"y": -0.4945704917,
				"z": 2.9135705136,
				"element": "H" 
			},
			{
				"x": -1.4556906439,
				"y": 0.0789460408,
				"z": 5.8001109586,
				"element": "H" 
			},
			{
				"x": -1.649403082,
				"y": 1.4390215233,
				"z": 4.6932471423,
				"element": "H" 
			},
			{
				"x": -0.6486063307,
				"y": -1.3678312301,
				"z": 3.9712308767,
				"element": "H" 
			},
			{
				"x": 0.3071329959,
				"y": 0.1058648422,
				"z": 3.9833414406,
				"element": "H" 
			},
			{
				"x": -0.051161721,
				"y": 1.8849656016,
				"z": 2.3020977892,
				"element": "H" 
			},
			{
				"x": -1.7923106576,
				"y": 1.9952468026,
				"z": 2.4619742028,
				"element": "H" 
			},
			{
				"x": -1.0836558801,
				"y": 1.6541774082,
				"z": 0.8949410432,
				"element": "H" 
			},
			{
				"x": 0.2076949504,
				"y": 0.7857165592,
				"z": -0.4926325768,
				"element": "H" 
			},
			{
				"x": -1.0911332318,
				"y": 0.7324312921,
				"z": -2.4947929782,
				"element": "H" 
			},
			{
				"x": -0.4308206062,
				"y": -0.8216334591,
				"z": -2.9877833007,
				"element": "H" 
			},
			{
				"x": 1.3712802888,
				"y": 0.3563095991,
				"z": -3.9769472777,
				"element": "H" 
			},
			{
				"x": 0.8824333417,
				"y": 1.8649456376,
				"z": -3.2188605919,
				"element": "H" 
			},
			{
				"x": 4.8115768482,
				"y": 0.1805737936,
				"z": -1.1885670214,
				"element": "H" 
			},
			{
				"x": 5.3961597675,
				"y": 0.8141198692,
				"z": -2.7471847058,
				"element": "H" 
			},
			{
				"x": 4.3934794193,
				"y": 2.9927423473,
				"z": -2.3384779323,
				"element": "H" 
			},
			{
				"x": 4.9241947669,
				"y": 2.5413769276,
				"z": -0.6968754523,
				"element": "H" 
			}
		],
		 "valence_orbital": [ 
			{
				"type": "occ",
				"energy": -0.2788,
				"method": "rhf"
			},
			{
				"type": "occ",
				"energy": -0.27781,
				"method": "rhf"
			},
			{
				"type": "occ",
				"energy": -0.25404,
				"method": "rhf"
			},
			{
				"type": "occ",
				"energy": -0.23,
				"method": "rhf"
			},
			{
				"type": "occ",
				"energy": -0.22099,
				"method": "rhf"
			},
			{
				"type": "unocc",
				"energy": -0.00766,
				"method": "rhf"
			},
			{
				"type": "unocc",
				"energy": 0.01853,
				"method": "rhf"
			},
			{
				"type": "unocc",
				"energy": 0.05335,
				"method": "rhf"
			},
			{
				"type": "unocc",
				"energy": 0.06769,
				"method": "rhf"
			},
			{
				"type": "unocc",
				"energy": 0.08123,
				"method": "rhf"
			}
		],
		"cosmo_sigma_profile": { 
			"-0.025": 0.0,
			"-0.024": 0.0,
			"-0.023": 0.0,
			"-0.022": 0.0,
			"-0.021": 0.0,
			"-0.02": 0.0,
			"-0.019": 0.0,
			"-0.018": 0.0,
			"-0.017": 0.0,
			"-0.016": 0.0,
			"-0.015": 0.0,
			"-0.014": 0.0,
			"-0.013": 0.0,
			"-0.012": 0.0,
			"-0.011": 0.0,
			"-0.01": 0.0,
			"-0.009": 0.0,
			"-0.008": 0.0129898639754,
			"-0.007": 1.02577593905,
			"-0.006": 6.77245993024,
			"-0.005": 13.3592038608,
			"-0.004": 20.6492908613,
			"-0.003": 40.6267970145,
			"-0.002": 62.8749613144,
			"-0.001": 66.3621530562,
			"0.0": 46.7957412911,
			"0.001": 34.3870277473,
			"0.002": 14.5926723302,
			"0.003": 7.75750426082,
			"0.004": 6.93021362855,
			"0.005": 6.99524708458,
			"0.006": 5.67305495493,
			"0.007": 6.51207271395,
			"0.008": 4.75104234321,
			"0.009": 3.96518176147,
			"0.01": 4.22467050002,
			"0.011": 3.71983788239,
			"0.012": 5.05773301995,
			"0.013": 3.67310788433,
			"0.014": 1.35483580585,
			"0.015": 0.0,
			"0.016": 0.0,
			"0.017": 0.0,
			"0.018": 0.0,
			"0.019": 0.0,
			"0.02": 0.0,
			"0.021": 0.0,
			"0.022": 0.0,
			"0.023": 0.0,
			"0.024": 0.0,
			"0.025": 0.0
		}
	}
}
