{
	 "smiles": "CC1=CC(Br)=CN=C1Cl", 
	 "Tm": 315.15, 
	 "num_atms": 14, 
	 "gaussian": { 
		 "optdone": 1, 
		 "sigma_profile": "yes", 
		 "theory": "DFT", 
		 "functional": "B3LYP", 
		 "basiset": "6-31G**", 
		 "properties": { 
			 "R2extent": 5926.2272, 
			 "electric_dipole_moment_norm": 2.56858446815, 
			 "electric_quadrupole_moment_norm": 11.7942196762, 
			 "total_energy": -3318.00124114, 
			 "HOMO_LUMO_gap": 0.208, 
			 "cosmo_polarized_energy": -5.87, 
			 "cosmo_cavitation_energy": 22.27, 
			 "cosmo_dispersion_energy": -17.11, 
			 "cosmo_repulsion_energy": 1.4, 
			 "cosmo_total_nonelectrostatic_energy": 6.55, 
			 "SMD_solvation_energy": 1.17 
		},
		"coords": [
			{
				"x": -1.9473345865,
				"y": -1.7585465965,
				"z": -0.1297116439,
				"element": "C" 
			},
			{
				"x": -0.6229329684,
				"y": -2.4215653786,
				"z": -0.392550058,
				"element": "C" 
			},
			{
				"x": 0.2308062934,
				"y": -1.9759132803,
				"z": -1.4052368889,
				"element": "C" 
			},
			{
				"x": 1.4498548127,
				"y": -2.6167706152,
				"z": -1.6177530851,
				"element": "C" 
			},
			{
				"x": 2.6278018686,
				"y": -2.0260254545,
				"z": -2.9916892432,
				"element": "Br" 
			},
			{
				"x": 1.8023461593,
				"y": -3.6975211935,
				"z": -0.814427318,
				"element": "C" 
			},
			{
				"x": 0.9973699231,
				"y": -4.1366016489,
				"z": 0.1587113759,
				"element": "N" 
			},
			{
				"x": -0.1534452537,
				"y": -3.5220164434,
				"z": 0.3501172498,
				"element": "C" 
			},
			{
				"x": -1.158740875,
				"y": -4.1600450199,
				"z": 1.6520595411,
				"element": "Cl" 
			},
			{
				"x": -1.9984966496,
				"y": -1.372214053,
				"z": 0.8934293764,
				"element": "H" 
			},
			{
				"x": -2.1088178074,
				"y": -0.9283145177,
				"z": -0.8213746811,
				"element": "H" 
			},
			{
				"x": -2.772847338,
				"y": -2.4688767514,
				"z": -0.2421856579,
				"element": "H" 
			},
			{
				"x": -0.0576624955,
				"y": -1.1322111235,
				"z": -2.0233107125,
				"element": "H" 
			},
			{
				"x": 2.7444989169,
				"y": -4.2194779235,
				"z": -0.9529782546,
				"element": "H" 
			}
		],
		 "valence_orbital": [ 
			{
				"type": "occ",
				"energy": -0.31978,
				"method": "rhf"
			},
			{
				"type": "occ",
				"energy": -0.30559,
				"method": "rhf"
			},
			{
				"type": "occ",
				"energy": -0.29387,
				"method": "rhf"
			},
			{
				"type": "occ",
				"energy": -0.28133,
				"method": "rhf"
			},
			{
				"type": "occ",
				"energy": -0.25312,
				"method": "rhf"
			},
			{
				"type": "unocc",
				"energy": -0.04512,
				"method": "rhf"
			},
			{
				"type": "unocc",
				"energy": -0.03489,
				"method": "rhf"
			},
			{
				"type": "unocc",
				"energy": -0.00547,
				"method": "rhf"
			},
			{
				"type": "unocc",
				"energy": 0.03054,
				"method": "rhf"
			},
			{
				"type": "unocc",
				"energy": 0.10112,
				"method": "rhf"
			}
		],
		"cosmo_sigma_profile": { 
			"-0.025": 0.0,
			"-0.024": 0.0,
			"-0.023": 0.0,
			"-0.022": 0.0,
			"-0.021": 0.0,
			"-0.02": 0.0,
			"-0.019": 0.0,
			"-0.018": 0.0,
			"-0.017": 0.0,
			"-0.016": 0.0,
			"-0.015": 0.0,
			"-0.014": 0.0,
			"-0.013": 0.0,
			"-0.012": 0.0,
			"-0.011": 0.0,
			"-0.01": 0.0,
			"-0.009": 0.672199902458,
			"-0.008": 3.7391873018,
			"-0.007": 4.48870581697,
			"-0.006": 4.86375993988,
			"-0.005": 8.9193384452,
			"-0.004": 10.4569849063,
			"-0.003": 12.4097127168,
			"-0.002": 17.7442169285,
			"-0.001": 24.6122897758,
			"0.0": 22.3421005114,
			"0.001": 12.6163867643,
			"0.002": 11.6829728936,
			"0.003": 16.3976343611,
			"0.004": 17.0927667617,
			"0.005": 5.00641355517,
			"0.006": 2.33923531984,
			"0.007": 1.74047862599,
			"0.008": 1.6165242639,
			"0.009": 0.827486256554,
			"0.01": 1.29859308931,
			"0.011": 1.23319739192,
			"0.012": 0.571195020217,
			"0.013": 1.06068646596,
			"0.014": 0.400329748372,
			"0.015": 0.00764754205739,
			"0.016": 0.0,
			"0.017": 0.0,
			"0.018": 0.0,
			"0.019": 0.0,
			"0.02": 0.0,
			"0.021": 0.0,
			"0.022": 0.0,
			"0.023": 0.0,
			"0.024": 0.0,
			"0.025": 0.0
		}
	}
}
