{
	 "smiles": "CCOC(=O)NC1=CC=C(NCC2=CC=C(F)C=C2)N=C1N", 
	 "Tm": 387.15, 
	 "num_atms": 39, 
	 "gaussian": { 
		 "optdone": 1, 
		 "sigma_profile": "yes", 
		 "theory": "DFT", 
		 "functional": "B3LYP", 
		 "basiset": "6-31G**", 
		 "properties": { 
			 "R2extent": 10515.8429, 
			 "electric_dipole_moment_norm": 3.17134409675, 
			 "electric_quadrupole_moment_norm": 19.4426800606, 
			 "total_energy": -1051.17143914, 
			 "HOMO_LUMO_gap": 0.18055, 
			 "cosmo_polarized_energy": -18.97, 
			 "cosmo_cavitation_energy": 44.36, 
			 "cosmo_dispersion_energy": -30.53, 
			 "cosmo_repulsion_energy": 2.38, 
			 "cosmo_total_nonelectrostatic_energy": 16.21, 
			 "SMD_solvation_energy": 7.73 
		},
		"coords": [
			{
				"x": -4.0415234509,
				"y": 3.6091984747,
				"z": -0.1922691179,
				"element": "C" 
			},
			{
				"x": -2.7716388864,
				"y": 3.3490912895,
				"z": 0.6039999311,
				"element": "C" 
			},
			{
				"x": -1.7775414723,
				"y": 2.6759516295,
				"z": -0.1984838786,
				"element": "O" 
			},
			{
				"x": -1.0115618436,
				"y": 3.4724978727,
				"z": -0.975123739,
				"element": "C" 
			},
			{
				"x": -1.0658147502,
				"y": 4.6896036394,
				"z": -1.0072827025,
				"element": "O" 
			},
			{
				"x": -0.1568874223,
				"y": 2.7311836934,
				"z": -1.7644440017,
				"element": "N" 
			},
			{
				"x": 0.0787766,
				"y": 1.3263528128,
				"z": -1.6621471124,
				"element": "C" 
			},
			{
				"x": 1.1396858836,
				"y": 0.8005653189,
				"z": -0.932198861,
				"element": "C" 
			},
			{
				"x": 1.3697304711,
				"y": -0.5710807609,
				"z": -0.8915962558,
				"element": "C" 
			},
			{
				"x": 0.4872272627,
				"y": -1.3926974171,
				"z": -1.6182783393,
				"element": "C" 
			},
			{
				"x": 0.6080848553,
				"y": -2.7689547557,
				"z": -1.6456821014,
				"element": "N" 
			},
			{
				"x": 1.8194946098,
				"y": -3.4763750396,
				"z": -1.2770849976,
				"element": "C" 
			},
			{
				"x": 1.9922664121,
				"y": -3.719737701,
				"z": 0.2182032635,
				"element": "C" 
			},
			{
				"x": 0.8894253573,
				"y": -3.8136054588,
				"z": 1.0743003831,
				"element": "C" 
			},
			{
				"x": 1.0566400428,
				"y": -4.0887712752,
				"z": 2.4315766499,
				"element": "C" 
			},
			{
				"x": 2.3435740453,
				"y": -4.2725377886,
				"z": 2.9237590484,
				"element": "C" 
			},
			{
				"x": 2.5134568997,
				"y": -4.5378385745,
				"z": 4.2370351487,
				"element": "F" 
			},
			{
				"x": 3.4621689248,
				"y": -4.1832229452,
				"z": 2.1032999488,
				"element": "C" 
			},
			{
				"x": 3.2750361268,
				"y": -3.9024168212,
				"z": 0.7496928958,
				"element": "C" 
			},
			{
				"x": -0.5417960656,
				"y": -0.9089427291,
				"z": -2.3345618809,
				"element": "N" 
			},
			{
				"x": -0.7527323977,
				"y": 0.41187419,
				"z": -2.3545786098,
				"element": "C" 
			},
			{
				"x": -1.8450956242,
				"y": 0.8522998972,
				"z": -3.0631939257,
				"element": "N" 
			},
			{
				"x": -3.8456820084,
				"y": 4.3208506949,
				"z": -0.9983669952,
				"element": "H" 
			},
			{
				"x": -4.8123692157,
				"y": 4.0333314475,
				"z": 0.4600846073,
				"element": "H" 
			},
			{
				"x": -4.4249723511,
				"y": 2.6794192559,
				"z": -0.6227479238,
				"element": "H" 
			},
			{
				"x": -2.9542948258,
				"y": 2.6643478004,
				"z": 1.4357540471,
				"element": "H" 
			},
			{
				"x": -2.3480376243,
				"y": 4.2808679063,
				"z": 0.9863960887,
				"element": "H" 
			},
			{
				"x": 0.5138524997,
				"y": 3.3103506383,
				"z": -2.2515972417,
				"element": "H" 
			},
			{
				"x": 1.789751353,
				"y": 1.4796643801,
				"z": -0.3867374489,
				"element": "H" 
			},
			{
				"x": 2.1776888792,
				"y": -0.9872377726,
				"z": -0.3038893208,
				"element": "H" 
			},
			{
				"x": 0.0055812562,
				"y": -3.196214989,
				"z": -2.3338295376,
				"element": "H" 
			},
			{
				"x": 2.7097349579,
				"y": -2.9540224725,
				"z": -1.6592335405,
				"element": "H" 
			},
			{
				"x": 1.7895622656,
				"y": -4.4443310187,
				"z": -1.7916881624,
				"element": "H" 
			},
			{
				"x": -0.1055412669,
				"y": -3.6552261285,
				"z": 0.6706633894,
				"element": "H" 
			},
			{
				"x": 0.2103490463,
				"y": -4.1583206764,
				"z": 3.1066814178,
				"element": "H" 
			},
			{
				"x": 4.4510829014,
				"y": -4.3237014937,
				"z": 2.5262529639,
				"element": "H" 
			},
			{
				"x": 4.1436246572,
				"y": -3.823677674,
				"z": 0.0997012415,
				"element": "H" 
			},
			{
				"x": -2.2221128756,
				"y": 0.1901741173,
				"z": -3.7243114845,
				"element": "H" 
			},
			{
				"x": -1.8482932268,
				"y": 1.8226884339,
				"z": -3.337773846,
				"element": "H" 
			}
		],
		 "valence_orbital": [ 
			{
				"type": "occ",
				"energy": -0.25969,
				"method": "rhf"
			},
			{
				"type": "occ",
				"energy": -0.24919,
				"method": "rhf"
			},
			{
				"type": "occ",
				"energy": -0.24091,
				"method": "rhf"
			},
			{
				"type": "occ",
				"energy": -0.23332,
				"method": "rhf"
			},
			{
				"type": "occ",
				"energy": -0.19368,
				"method": "rhf"
			},
			{
				"type": "unocc",
				"energy": -0.01313,
				"method": "rhf"
			},
			{
				"type": "unocc",
				"energy": -0.00494,
				"method": "rhf"
			},
			{
				"type": "unocc",
				"energy": 0.00112,
				"method": "rhf"
			},
			{
				"type": "unocc",
				"energy": 0.02358,
				"method": "rhf"
			},
			{
				"type": "unocc",
				"energy": 0.0592,
				"method": "rhf"
			}
		],
		"cosmo_sigma_profile": { 
			"-0.025": 0.0,
			"-0.024": 0.0,
			"-0.023": 0.0,
			"-0.022": 0.0,
			"-0.021": 0.0,
			"-0.02": 0.0,
			"-0.019": 0.0,
			"-0.018": 0.0,
			"-0.017": 0.0,
			"-0.016": 0.0,
			"-0.015": 0.0,
			"-0.014": 0.777390231377,
			"-0.013": 1.42033423465,
			"-0.012": 3.75223925082,
			"-0.011": 3.62590140113,
			"-0.01": 4.22971427756,
			"-0.009": 3.75261763947,
			"-0.008": 3.73225389134,
			"-0.007": 7.63475113964,
			"-0.006": 15.3997328447,
			"-0.005": 20.2948980964,
			"-0.004": 29.0028594751,
			"-0.003": 28.634591876,
			"-0.002": 26.0080862249,
			"-0.001": 23.1448137895,
			"0.0": 23.8764206602,
			"0.001": 22.5670849172,
			"0.002": 20.7542972561,
			"0.003": 21.9160628319,
			"0.004": 29.1756959416,
			"0.005": 19.6901483362,
			"0.006": 6.37949520936,
			"0.007": 6.41719129963,
			"0.008": 4.81194080691,
			"0.009": 5.02289087587,
			"0.01": 4.44067464262,
			"0.011": 3.78078309759,
			"0.012": 3.18416582122,
			"0.013": 6.40246634257,
			"0.014": 1.82983690844,
			"0.015": 0.0,
			"0.016": 0.0,
			"0.017": 0.0,
			"0.018": 0.0,
			"0.019": 0.0,
			"0.02": 0.0,
			"0.021": 0.0,
			"0.022": 0.0,
			"0.023": 0.0,
			"0.024": 0.0,
			"0.025": 0.0
		}
	}
}
