{
	 "smiles": "CCC=C1CCC2C3CCC4CC(CCC4(C)C3CCC12C)OC(C)=O", 
	 "Tm": 387.15, 
	 "num_atms": 64, 
	 "gaussian": { 
		 "optdone": 1, 
		 "sigma_profile": "yes", 
		 "theory": "DFT", 
		 "functional": "B3LYP", 
		 "basiset": "6-31G**", 
		 "properties": { 
			 "R2extent": 13728.7691, 
			 "electric_dipole_moment_norm": 1.87115200077, 
			 "electric_quadrupole_moment_norm": 17.272742282, 
			 "total_energy": -1087.92886367, 
			 "HOMO_LUMO_gap": 0.24159, 
			 "cosmo_polarized_energy": -7.55, 
			 "cosmo_cavitation_energy": 55.22, 
			 "cosmo_dispersion_energy": -37.69, 
			 "cosmo_repulsion_energy": 2.84, 
			 "cosmo_total_nonelectrostatic_energy": 20.36, 
			 "SMD_solvation_energy": 8.79 
		},
		"coords": [
			{
				"x": -3.6269820044,
				"y": -4.0833305768,
				"z": -5.5785594998,
				"element": "C" 
			},
			{
				"x": -2.2747798919,
				"y": -3.4564130345,
				"z": -5.193118284,
				"element": "C" 
			},
			{
				"x": -2.3218314877,
				"y": -2.7592671024,
				"z": -3.8582415618,
				"element": "C" 
			},
			{
				"x": -2.1531432531,
				"y": -1.4543842003,
				"z": -3.6131718689,
				"element": "C" 
			},
			{
				"x": -1.8104079766,
				"y": -0.3697926592,
				"z": -4.614318963,
				"element": "C" 
			},
			{
				"x": -0.8791177574,
				"y": 0.5589811211,
				"z": -3.8171654314,
				"element": "C" 
			},
			{
				"x": -1.4579200026,
				"y": 0.5598429326,
				"z": -2.3822181053,
				"element": "C" 
			},
			{
				"x": -0.4439481759,
				"y": 0.8649903549,
				"z": -1.2475557306,
				"element": "C" 
			},
			{
				"x": 0.9593174282,
				"y": 0.2055591154,
				"z": -1.3763945376,
				"element": "C" 
			},
			{
				"x": 1.5734127662,
				"y": -0.1819151781,
				"z": -0.0195769155,
				"element": "C" 
			},
			{
				"x": 1.3019615943,
				"y": 0.8362880414,
				"z": 1.1029511265,
				"element": "C" 
			},
			{
				"x": 1.9909298508,
				"y": 0.3545989914,
				"z": 2.3985668364,
				"element": "C" 
			},
			{
				"x": 1.6006139013,
				"y": 1.1308668142,
				"z": 3.6541011008,
				"element": "C" 
			},
			{
				"x": 0.0729561119,
				"y": 1.1446605488,
				"z": 3.8749763079,
				"element": "C" 
			},
			{
				"x": -0.7181135939,
				"y": 0.6047313528,
				"z": 2.6675412163,
				"element": "C" 
			},
			{
				"x": -0.2354291617,
				"y": 1.1562091242,
				"z": 1.3021157992,
				"element": "C" 
			},
			{
				"x": -0.4304288121,
				"y": 2.6926202687,
				"z": 1.3168219857,
				"element": "C" 
			},
			{
				"x": -1.1003435242,
				"y": 0.5752557251,
				"z": 0.1252044228,
				"element": "C" 
			},
			{
				"x": -1.5190055911,
				"y": -0.921607057,
				"z": 0.2508591583,
				"element": "C" 
			},
			{
				"x": -1.6403077591,
				"y": -1.6607272185,
				"z": -1.0998121077,
				"element": "C" 
			},
			{
				"x": -2.2491864722,
				"y": -0.8004976384,
				"z": -2.2253719067,
				"element": "C" 
			},
			{
				"x": -3.740630073,
				"y": -0.5204038517,
				"z": -1.9175807583,
				"element": "C" 
			},
			{
				"x": 2.036247785,
				"y": 2.5230761155,
				"z": 3.5378128984,
				"element": "O" 
			},
			{
				"x": 3.3108651997,
				"y": 2.8044062305,
				"z": 3.8935867713,
				"element": "C" 
			},
			{
				"x": 3.5986643553,
				"y": 4.2791162449,
				"z": 3.7260406734,
				"element": "C" 
			},
			{
				"x": 4.1046647298,
				"y": 1.9799579598,
				"z": 4.294467964,
				"element": "O" 
			},
			{
				"x": -4.4006980005,
				"y": -3.3150851325,
				"z": -5.6774879913,
				"element": "H" 
			},
			{
				"x": -3.5567380576,
				"y": -4.6213760193,
				"z": -6.5299896813,
				"element": "H" 
			},
			{
				"x": -3.9636426722,
				"y": -4.795128651,
				"z": -4.8165079018,
				"element": "H" 
			},
			{
				"x": -1.9577823387,
				"y": -2.7654359581,
				"z": -5.9809749206,
				"element": "H" 
			},
			{
				"x": -1.5184643956,
				"y": -4.2541333826,
				"z": -5.1572610205,
				"element": "H" 
			},
			{
				"x": -2.5440397664,
				"y": -3.4148053786,
				"z": -3.014555965,
				"element": "H" 
			},
			{
				"x": -2.7215734679,
				"y": 0.1744505164,
				"z": -4.905203065,
				"element": "H" 
			},
			{
				"x": -1.3566271305,
				"y": -0.7446136179,
				"z": -5.5355009837,
				"element": "H" 
			},
			{
				"x": 0.1319230227,
				"y": 0.1389572448,
				"z": -3.8281339988,
				"element": "H" 
			},
			{
				"x": -0.8131408409,
				"y": 1.5676500099,
				"z": -4.239229655,
				"element": "H" 
			},
			{
				"x": -2.2037854392,
				"y": 1.3645742767,
				"z": -2.3322288496,
				"element": "H" 
			},
			{
				"x": -0.2754190081,
				"y": 1.9467722917,
				"z": -1.2938581467,
				"element": "H" 
			},
			{
				"x": 0.9269225893,
				"y": -0.6862740803,
				"z": -2.0104150997,
				"element": "H" 
			},
			{
				"x": 1.6301765508,
				"y": 0.9059338273,
				"z": -1.8891001614,
				"element": "H" 
			},
			{
				"x": 1.1965467752,
				"y": -1.1642768313,
				"z": 0.2892408678,
				"element": "H" 
			},
			{
				"x": 2.6577416895,
				"y": -0.3080330988,
				"z": -0.1319949915,
				"element": "H" 
			},
			{
				"x": 1.7894537844,
				"y": 1.7752284855,
				"z": 0.8077844609,
				"element": "H" 
			},
			{
				"x": 1.7311052267,
				"y": -0.697557272,
				"z": 2.5807884579,
				"element": "H" 
			},
			{
				"x": 3.0790359746,
				"y": 0.3815429606,
				"z": 2.2812842666,
				"element": "H" 
			},
			{
				"x": 2.1261978607,
				"y": 0.714736987,
				"z": 4.5163197848,
				"element": "H" 
			},
			{
				"x": -0.1700331258,
				"y": 0.5401632683,
				"z": 4.7560022532,
				"element": "H" 
			},
			{
				"x": -0.2275344955,
				"y": 2.1683388111,
				"z": 4.115716352,
				"element": "H" 
			},
			{
				"x": -0.6482914349,
				"y": -0.4874728913,
				"z": 2.67214226,
				"element": "H" 
			},
			{
				"x": -1.7822406586,
				"y": 0.8379960702,
				"z": 2.8001469857,
				"element": "H" 
			},
			{
				"x": -1.4704048614,
				"y": 2.9514237908,
				"z": 1.549884356,
				"element": "H" 
			},
			{
				"x": 0.2142526675,
				"y": 3.1713087148,
				"z": 2.0567532011,
				"element": "H" 
			},
			{
				"x": -0.1887903553,
				"y": 3.1376027996,
				"z": 0.3466947072,
				"element": "H" 
			},
			{
				"x": -2.033971403,
				"y": 1.1552745277,
				"z": 0.1380539409,
				"element": "H" 
			},
			{
				"x": -0.8124655203,
				"y": -1.4823161188,
				"z": 0.8691665225,
				"element": "H" 
			},
			{
				"x": -2.474790813,
				"y": -0.9745183689,
				"z": 0.7844555161,
				"element": "H" 
			},
			{
				"x": -2.242158108,
				"y": -2.5657111939,
				"z": -0.9538074031,
				"element": "H" 
			},
			{
				"x": -0.6534696457,
				"y": -2.0103110694,
				"z": -1.4194316151,
				"element": "H" 
			},
			{
				"x": -4.2990660598,
				"y": -1.4582688669,
				"z": -1.8270900771,
				"element": "H" 
			},
			{
				"x": -4.2040484976,
				"y": 0.067190814,
				"z": -2.7174049359,
				"element": "H" 
			},
			{
				"x": -3.8630547786,
				"y": 0.0414350441,
				"z": -0.9848232115,
				"element": "H" 
			},
			{
				"x": 3.4735668892,
				"y": 4.5679883076,
				"z": 2.6780753768,
				"element": "H" 
			},
			{
				"x": 2.8907275597,
				"y": 4.8709939888,
				"z": 4.3134025952,
				"element": "H" 
			},
			{
				"x": 4.6183220989,
				"y": 4.4881327705,
				"z": 4.0481271798,
				"element": "H" 
			}
		],
		 "valence_orbital": [ 
			{
				"type": "occ",
				"energy": -0.27442,
				"method": "rhf"
			},
			{
				"type": "occ",
				"energy": -0.26999,
				"method": "rhf"
			},
			{
				"type": "occ",
				"energy": -0.2696,
				"method": "rhf"
			},
			{
				"type": "occ",
				"energy": -0.26318,
				"method": "rhf"
			},
			{
				"type": "occ",
				"energy": -0.22497,
				"method": "rhf"
			},
			{
				"type": "unocc",
				"energy": 0.01662,
				"method": "rhf"
			},
			{
				"type": "unocc",
				"energy": 0.02718,
				"method": "rhf"
			},
			{
				"type": "unocc",
				"energy": 0.06229,
				"method": "rhf"
			},
			{
				"type": "unocc",
				"energy": 0.08179,
				"method": "rhf"
			},
			{
				"type": "unocc",
				"energy": 0.09,
				"method": "rhf"
			}
		],
		"cosmo_sigma_profile": { 
			"-0.025": 0.0,
			"-0.024": 0.0,
			"-0.023": 0.0,
			"-0.022": 0.0,
			"-0.021": 0.0,
			"-0.02": 0.0,
			"-0.019": 0.0,
			"-0.018": 0.0,
			"-0.017": 0.0,
			"-0.016": 0.0,
			"-0.015": 0.0,
			"-0.014": 0.0,
			"-0.013": 0.0,
			"-0.012": 0.0,
			"-0.011": 0.0,
			"-0.01": 0.0,
			"-0.009": 0.0,
			"-0.008": 0.0,
			"-0.007": 0.271230753878,
			"-0.006": 3.78388547799,
			"-0.005": 6.0929779866,
			"-0.004": 11.4536552522,
			"-0.003": 33.5933859322,
			"-0.002": 66.3650638228,
			"-0.001": 84.3560897818,
			"0.0": 78.487362607,
			"0.001": 59.5867216359,
			"0.002": 32.625074702,
			"0.003": 11.4803923107,
			"0.004": 8.22057500282,
			"0.005": 6.31440468838,
			"0.006": 4.57742823646,
			"0.007": 3.13356691608,
			"0.008": 0.895673327706,
			"0.009": 2.11347608701,
			"0.01": 1.21037359479,
			"0.011": 2.32915226049,
			"0.012": 4.54137925866,
			"0.013": 2.1594890336,
			"0.014": 0.187078736871,
			"0.015": 0.0,
			"0.016": 0.0,
			"0.017": 0.0,
			"0.018": 0.0,
			"0.019": 0.0,
			"0.02": 0.0,
			"0.021": 0.0,
			"0.022": 0.0,
			"0.023": 0.0,
			"0.024": 0.0,
			"0.025": 0.0
		}
	}
}
