{
	 "smiles": "CC(=CC(O)=O)C1=C(F)C=CC=C1", 
	 "Tm": 375.15, 
	 "num_atms": 22, 
	 "gaussian": { 
		 "optdone": 1, 
		 "sigma_profile": "yes", 
		 "theory": "DFT", 
		 "functional": "B3LYP", 
		 "basiset": "6-31G**", 
		 "properties": { 
			 "R2extent": 2948.1444, 
			 "electric_dipole_moment_norm": 1.41908159385, 
			 "electric_quadrupole_moment_norm": 5.30891353857, 
			 "total_energy": -636.772215631, 
			 "HOMO_LUMO_gap": 0.18971, 
			 "cosmo_polarized_energy": -10.34, 
			 "cosmo_cavitation_energy": 26.92, 
			 "cosmo_dispersion_energy": -19.0, 
			 "cosmo_repulsion_energy": 1.51, 
			 "cosmo_total_nonelectrostatic_energy": 9.43, 
			 "SMD_solvation_energy": 6.43 
		},
		"coords": [
			{
				"x": 0.5508484281,
				"y": 2.3342336143,
				"z": 2.6765892162,
				"element": "C" 
			},
			{
				"x": 0.8189258955,
				"y": 1.0084091711,
				"z": 2.0039232403,
				"element": "C" 
			},
			{
				"x": 1.9387784926,
				"y": 0.3194191152,
				"z": 2.3051047183,
				"element": "C" 
			},
			{
				"x": 2.3217464175,
				"y": -1.013741901,
				"z": 1.797833605,
				"element": "C" 
			},
			{
				"x": 3.4932027597,
				"y": -1.4100464804,
				"z": 2.3710584983,
				"element": "O" 
			},
			{
				"x": 1.7325276156,
				"y": -1.7174742752,
				"z": 1.0011106917,
				"element": "O" 
			},
			{
				"x": -0.1942265678,
				"y": 0.5862086693,
				"z": 0.9954426359,
				"element": "C" 
			},
			{
				"x": -1.5350348845,
				"y": 0.4064902634,
				"z": 1.3491505226,
				"element": "C" 
			},
			{
				"x": -1.89216398,
				"y": 0.5339440377,
				"z": 2.6512366421,
				"element": "F" 
			},
			{
				"x": -2.5242683949,
				"y": 0.0858362677,
				"z": 0.42863234,
				"element": "C" 
			},
			{
				"x": -2.172184725,
				"y": -0.0535993156,
				"z": -0.913288042,
				"element": "C" 
			},
			{
				"x": -0.8438155149,
				"y": 0.1223195629,
				"z": -1.3075590746,
				"element": "C" 
			},
			{
				"x": 0.1299979139,
				"y": 0.4333856459,
				"z": -0.3613696855,
				"element": "C" 
			},
			{
				"x": 0.4903111173,
				"y": 3.1339832826,
				"z": 1.9286701184,
				"element": "H" 
			},
			{
				"x": -0.4137958346,
				"y": 2.3078321267,
				"z": 3.1919470708,
				"element": "H" 
			},
			{
				"x": 1.3308752886,
				"y": 2.5869606148,
				"z": 3.3986485557,
				"element": "H" 
			},
			{
				"x": 2.6322317137,
				"y": 0.7417808598,
				"z": 3.0259570313,
				"element": "H" 
			},
			{
				"x": 3.6765357364,
				"y": -2.2909341803,
				"z": 2.0048812202,
				"element": "H" 
			},
			{
				"x": -3.5428925226,
				"y": -0.0508166767,
				"z": 0.7751490171,
				"element": "H" 
			},
			{
				"x": -2.9342939054,
				"y": -0.301163489,
				"z": -1.6459479428,
				"element": "H" 
			},
			{
				"x": -0.564917622,
				"y": 0.0121384879,
				"z": -2.3506998234,
				"element": "H" 
			},
			{
				"x": 1.1630125725,
				"y": 0.562134599,
				"z": -0.6654705554,
				"element": "H" 
			}
		],
		 "valence_orbital": [ 
			{
				"type": "occ",
				"energy": -0.31219,
				"method": "rhf"
			},
			{
				"type": "occ",
				"energy": -0.28094,
				"method": "rhf"
			},
			{
				"type": "occ",
				"energy": -0.26894,
				"method": "rhf"
			},
			{
				"type": "occ",
				"energy": -0.24752,
				"method": "rhf"
			},
			{
				"type": "occ",
				"energy": -0.24089,
				"method": "rhf"
			},
			{
				"type": "unocc",
				"energy": -0.05118,
				"method": "rhf"
			},
			{
				"type": "unocc",
				"energy": -0.0045,
				"method": "rhf"
			},
			{
				"type": "unocc",
				"energy": 0.00421,
				"method": "rhf"
			},
			{
				"type": "unocc",
				"energy": 0.08664,
				"method": "rhf"
			},
			{
				"type": "unocc",
				"energy": 0.08847,
				"method": "rhf"
			}
		],
		"cosmo_sigma_profile": { 
			"-0.025": 0.0,
			"-0.024": 0.0,
			"-0.023": 0.0,
			"-0.022": 0.0,
			"-0.021": 0.0,
			"-0.02": 0.0,
			"-0.019": 0.0,
			"-0.018": 0.294894925896,
			"-0.017": 0.987438834025,
			"-0.016": 0.794442875697,
			"-0.015": 0.814748768102,
			"-0.014": 0.555744862153,
			"-0.013": 0.492215373507,
			"-0.012": 0.623839036891,
			"-0.011": 0.829639814938,
			"-0.01": 0.953750810485,
			"-0.009": 0.778325710373,
			"-0.008": 0.602238660967,
			"-0.007": 3.7852022505,
			"-0.006": 10.9857702608,
			"-0.005": 13.4434870667,
			"-0.004": 15.6706681989,
			"-0.003": 14.5014046587,
			"-0.002": 17.4476171376,
			"-0.001": 19.6870332819,
			"0.0": 18.4142883762,
			"0.001": 16.4658714185,
			"0.002": 15.0149306863,
			"0.003": 13.9816963269,
			"0.004": 16.6856503869,
			"0.005": 6.52940823804,
			"0.006": 3.1396058222,
			"0.007": 2.94808903646,
			"0.008": 2.82918010331,
			"0.009": 3.60986914025,
			"0.01": 2.80754781442,
			"0.011": 2.47597475759,
			"0.012": 4.76610108842,
			"0.013": 1.77770731032,
			"0.014": 0.0,
			"0.015": 0.0,
			"0.016": 0.0,
			"0.017": 0.0,
			"0.018": 0.0,
			"0.019": 0.0,
			"0.02": 0.0,
			"0.021": 0.0,
			"0.022": 0.0,
			"0.023": 0.0,
			"0.024": 0.0,
			"0.025": 0.0
		}
	}
}
