{
	 "smiles": "[O-][N+](=O)C1=C(Cl)C(Cl)=CC(Cl)=C1Cl", 
	 "Tm": 373.15, 
	 "num_atms": 14, 
	 "gaussian": { 
		 "optdone": 1, 
		 "sigma_profile": "yes", 
		 "theory": "DFT", 
		 "functional": "B3LYP", 
		 "basiset": "6-31G**", 
		 "properties": { 
			 "R2extent": 4218.3029, 
			 "electric_dipole_moment_norm": 3.23069810103, 
			 "electric_quadrupole_moment_norm": 3.38123298517, 
			 "total_energy": -2275.07246907, 
			 "HOMO_LUMO_gap": 0.18074, 
			 "cosmo_polarized_energy": -6.04, 
			 "cosmo_cavitation_energy": 27.18, 
			 "cosmo_dispersion_energy": -19.82, 
			 "cosmo_repulsion_energy": 1.57, 
			 "cosmo_total_nonelectrostatic_energy": 8.93, 
			 "SMD_solvation_energy": 6.33 
		},
		"coords": [
			{
				"x": -0.4413787798,
				"y": 2.16410872,
				"z": 0.2290564819,
				"element": "O" 
			},
			{
				"x": -0.1862249851,
				"y": 1.073508586,
				"z": 0.720081156,
				"element": "N" 
			},
			{
				"x": 0.1894905756,
				"y": 0.8460668813,
				"z": 1.8614504482,
				"element": "O" 
			},
			{
				"x": -0.3505207596,
				"y": -0.1025449542,
				"z": -0.1660321918,
				"element": "C" 
			},
			{
				"x": -1.5897333281,
				"y": -0.7446611186,
				"z": -0.2059978183,
				"element": "C" 
			},
			{
				"x": -2.8984607124,
				"y": -0.1631040196,
				"z": 0.7690509823,
				"element": "Cl" 
			},
			{
				"x": -1.7327651311,
				"y": -1.8567591433,
				"z": -1.0488422398,
				"element": "C" 
			},
			{
				"x": -3.2406878233,
				"y": -2.7135568491,
				"z": -1.1584601895,
				"element": "Cl" 
			},
			{
				"x": -0.6569626537,
				"y": -2.2953117043,
				"z": -1.818452104,
				"element": "C" 
			},
			{
				"x": 0.5717074008,
				"y": -1.6400550893,
				"z": -1.7637641739,
				"element": "C" 
			},
			{
				"x": 1.8771056801,
				"y": -2.2323550091,
				"z": -2.7461579337,
				"element": "Cl" 
			},
			{
				"x": 0.7398482169,
				"y": -0.5255899158,
				"z": -0.9287184079,
				"element": "C" 
			},
			{
				"x": 2.2481522986,
				"y": 0.3208576047,
				"z": -0.827649866,
				"element": "Cl" 
			},
			{
				"x": -0.7770699991,
				"y": -3.1548039887,
				"z": -2.4661641435,
				"element": "H" 
			}
		],
		 "valence_orbital": [ 
			{
				"type": "occ",
				"energy": -0.33465,
				"method": "rhf"
			},
			{
				"type": "occ",
				"energy": -0.32743,
				"method": "rhf"
			},
			{
				"type": "occ",
				"energy": -0.32606,
				"method": "rhf"
			},
			{
				"type": "occ",
				"energy": -0.28699,
				"method": "rhf"
			},
			{
				"type": "occ",
				"energy": -0.27455,
				"method": "rhf"
			},
			{
				"type": "unocc",
				"energy": -0.09381,
				"method": "rhf"
			},
			{
				"type": "unocc",
				"energy": -0.06784,
				"method": "rhf"
			},
			{
				"type": "unocc",
				"energy": -0.06557,
				"method": "rhf"
			},
			{
				"type": "unocc",
				"energy": -0.04881,
				"method": "rhf"
			},
			{
				"type": "unocc",
				"energy": -0.00278,
				"method": "rhf"
			}
		],
		"cosmo_sigma_profile": { 
			"-0.025": 0.0,
			"-0.024": 0.0,
			"-0.023": 0.0,
			"-0.022": 0.0,
			"-0.021": 0.0,
			"-0.02": 0.0,
			"-0.019": 0.0,
			"-0.018": 0.0,
			"-0.017": 0.0,
			"-0.016": 0.0,
			"-0.015": 0.0,
			"-0.014": 0.0,
			"-0.013": 0.0,
			"-0.012": 0.0,
			"-0.011": 0.26384671084,
			"-0.01": 1.51787191007,
			"-0.009": 1.57480902298,
			"-0.008": 1.68631572048,
			"-0.007": 1.56514083011,
			"-0.006": 2.14818990516,
			"-0.005": 6.17393006783,
			"-0.004": 16.7109795781,
			"-0.003": 26.1266889525,
			"-0.002": 25.3636336064,
			"-0.001": 19.1937321802,
			"0.0": 22.3644402821,
			"0.001": 24.242037392,
			"0.002": 30.9503531859,
			"0.003": 19.2700468825,
			"0.004": 4.87040616842,
			"0.005": 6.57171012879,
			"0.006": 10.5167644326,
			"0.007": 5.7366947967,
			"0.008": 1.85672913571,
			"0.009": 0.00548994354619,
			"0.01": 0.0,
			"0.011": 0.0,
			"0.012": 0.0,
			"0.013": 0.0,
			"0.014": 0.0,
			"0.015": 0.0,
			"0.016": 0.0,
			"0.017": 0.0,
			"0.018": 0.0,
			"0.019": 0.0,
			"0.02": 0.0,
			"0.021": 0.0,
			"0.022": 0.0,
			"0.023": 0.0,
			"0.024": 0.0,
			"0.025": 0.0
		}
	}
}
