{
	 "smiles": "OC(=O)C1CCN(CC2=CC=C(Cl)S2)CC1", 
	 "Tm": 447.15, 
	 "num_atms": 30, 
	 "gaussian": { 
		 "optdone": 1, 
		 "sigma_profile": "yes", 
		 "theory": "DFT", 
		 "functional": "B3LYP", 
		 "basiset": "6-31G**", 
		 "properties": { 
			 "R2extent": 7505.4329, 
			 "electric_dipole_moment_norm": 2.79882258995, 
			 "electric_quadrupole_moment_norm": 27.3495211892, 
			 "total_energy": -1491.16107581, 
			 "HOMO_LUMO_gap": 0.18049, 
			 "cosmo_polarized_energy": -16.47, 
			 "cosmo_cavitation_energy": 35.3, 
			 "cosmo_dispersion_energy": -25.43, 
			 "cosmo_repulsion_energy": 1.95, 
			 "cosmo_total_nonelectrostatic_energy": 11.82, 
			 "SMD_solvation_energy": 3.68 
		},
		"coords": [
			{
				"x": -3.9862581038,
				"y": -1.4096958778,
				"z": 2.8356430997,
				"element": "O" 
			},
			{
				"x": -2.6685291064,
				"y": -1.5853864538,
				"z": 2.537133616,
				"element": "C" 
			},
			{
				"x": -2.2185060313,
				"y": -2.7022501139,
				"z": 2.4647486603,
				"element": "O" 
			},
			{
				"x": -1.8853906625,
				"y": -0.299610901,
				"z": 2.2612113271,
				"element": "C" 
			},
			{
				"x": -0.364383639,
				"y": -0.5328038947,
				"z": 2.4011268079,
				"element": "C" 
			},
			{
				"x": 0.4324973528,
				"y": 0.3625207994,
				"z": 1.4511856361,
				"element": "C" 
			},
			{
				"x": 0.1388944794,
				"y": 0.008466698,
				"z": 0.0624526326,
				"element": "N" 
			},
			{
				"x": 0.7840605363,
				"y": 0.8496143475,
				"z": -0.940293996,
				"element": "C" 
			},
			{
				"x": 0.174410485,
				"y": 2.2109797286,
				"z": -1.2170769856,
				"element": "C" 
			},
			{
				"x": -0.5975737042,
				"y": 2.5708567303,
				"z": -2.2923132431,
				"element": "C" 
			},
			{
				"x": -1.0538530281,
				"y": 3.9243514482,
				"z": -2.2668262825,
				"element": "C" 
			},
			{
				"x": -0.6126710159,
				"y": 4.5864864902,
				"z": -1.1571944096,
				"element": "C" 
			},
			{
				"x": -0.9339710005,
				"y": 6.2348597942,
				"z": -0.7289784712,
				"element": "Cl" 
			},
			{
				"x": 0.3650690456,
				"y": 3.5735032951,
				"z": -0.1276307376,
				"element": "S" 
			},
			{
				"x": -1.2629645011,
				"y": -0.3558412865,
				"z": -0.2032346695,
				"element": "C" 
			},
			{
				"x": -2.2310637862,
				"y": 0.2275589893,
				"z": 0.8338009071,
				"element": "C" 
			},
			{
				"x": -4.1941055264,
				"y": -0.4655561298,
				"z": 2.8798989761,
				"element": "H" 
			},
			{
				"x": -2.2126294421,
				"y": 0.4534569501,
				"z": 2.9915308704,
				"element": "H" 
			},
			{
				"x": -0.152170573,
				"y": -1.5815344996,
				"z": 2.1744527369,
				"element": "H" 
			},
			{
				"x": -0.0479825396,
				"y": -0.3549378441,
				"z": 3.4336836472,
				"element": "H" 
			},
			{
				"x": 0.2128246355,
				"y": 1.4221529459,
				"z": 1.6855383404,
				"element": "H" 
			},
			{
				"x": 1.5077358454,
				"y": 0.223829544,
				"z": 1.6233905637,
				"element": "H" 
			},
			{
				"x": 1.8352721506,
				"y": 0.9595975112,
				"z": -0.6473699322,
				"element": "H" 
			},
			{
				"x": 0.7847578206,
				"y": 0.3107216363,
				"z": -1.8959189344,
				"element": "H" 
			},
			{
				"x": -0.8245995918,
				"y": 1.8831942381,
				"z": -3.100621902,
				"element": "H" 
			},
			{
				"x": -1.6694381034,
				"y": 4.3834976089,
				"z": -3.0304162607,
				"element": "H" 
			},
			{
				"x": -1.5448787032,
				"y": 0.0004987649,
				"z": -1.1987175358,
				"element": "H" 
			},
			{
				"x": -1.3662006065,
				"y": -1.4502841101,
				"z": -0.2138890735,
				"element": "H" 
			},
			{
				"x": -2.1550933348,
				"y": 1.3197391369,
				"z": 0.8239208144,
				"element": "H" 
			},
			{
				"x": -3.2643593512,
				"y": -0.0217855456,
				"z": 0.5654637979,
				"element": "H" 
			}
		],
		 "valence_orbital": [ 
			{
				"type": "occ",
				"energy": -0.31603,
				"method": "rhf"
			},
			{
				"type": "occ",
				"energy": -0.2706,
				"method": "rhf"
			},
			{
				"type": "occ",
				"energy": -0.26524,
				"method": "rhf"
			},
			{
				"type": "occ",
				"energy": -0.23563,
				"method": "rhf"
			},
			{
				"type": "occ",
				"energy": -0.20862,
				"method": "rhf"
			},
			{
				"type": "unocc",
				"energy": -0.02813,
				"method": "rhf"
			},
			{
				"type": "unocc",
				"energy": 0.00575,
				"method": "rhf"
			},
			{
				"type": "unocc",
				"energy": 0.00768,
				"method": "rhf"
			},
			{
				"type": "unocc",
				"energy": 0.02336,
				"method": "rhf"
			},
			{
				"type": "unocc",
				"energy": 0.04942,
				"method": "rhf"
			}
		],
		"cosmo_sigma_profile": { 
			"-0.025": 0.0,
			"-0.024": 0.0,
			"-0.023": 0.0,
			"-0.022": 0.0,
			"-0.021": 0.0,
			"-0.02": 0.0,
			"-0.019": 0.222591257755,
			"-0.018": 0.875768570176,
			"-0.017": 0.952269092751,
			"-0.016": 1.0867396408,
			"-0.015": 1.24303338592,
			"-0.014": 1.11227569314,
			"-0.013": 0.74910656163,
			"-0.012": 0.913999969698,
			"-0.011": 1.3423497798,
			"-0.01": 1.03391014165,
			"-0.009": 1.33124139582,
			"-0.008": 2.26338928167,
			"-0.007": 5.04940381672,
			"-0.006": 8.50142339699,
			"-0.005": 15.3969543704,
			"-0.004": 21.0344448289,
			"-0.003": 23.0974437179,
			"-0.002": 25.5201515116,
			"-0.001": 26.8864882195,
			"0.0": 21.5721379242,
			"0.001": 20.5832654875,
			"0.002": 21.9928724422,
			"0.003": 22.1660792808,
			"0.004": 19.2376600424,
			"0.005": 4.77711078315,
			"0.006": 3.6627034067,
			"0.007": 3.1840755292,
			"0.008": 3.18993574367,
			"0.009": 3.66520830907,
			"0.01": 5.13492966116,
			"0.011": 5.90504117944,
			"0.012": 5.72594925574,
			"0.013": 2.03993470656,
			"0.014": 0.436854342367,
			"0.015": 0.133687576105,
			"0.016": 0.0,
			"0.017": 0.0,
			"0.018": 0.0,
			"0.019": 0.0,
			"0.02": 0.0,
			"0.021": 0.0,
			"0.022": 0.0,
			"0.023": 0.0,
			"0.024": 0.0,
			"0.025": 0.0
		}
	}
}
