{
	 "smiles": "O=C(OC(C(=O)C1=CC=C2CCC3=C2C1=CC=C3)C1=CC=CC=C1)C1=CC=CC=C1", 
	 "Tm": 429.15, 
	 "num_atms": 50, 
	 "gaussian": { 
		 "optdone": 1, 
		 "sigma_profile": "yes", 
		 "theory": "DFT", 
		 "functional": "B3LYP", 
		 "basiset": "6-31G**", 
		 "properties": { 
			 "R2extent": 15356.1774, 
			 "electric_dipole_moment_norm": 2.89166518982, 
			 "electric_quadrupole_moment_norm": 21.1789705347, 
			 "total_energy": -1266.6283128, 
			 "HOMO_LUMO_gap": 0.14682, 
			 "cosmo_polarized_energy": -16.82, 
			 "cosmo_cavitation_energy": 53.73, 
			 "cosmo_dispersion_energy": -37.04, 
			 "cosmo_repulsion_energy": 2.78, 
			 "cosmo_total_nonelectrostatic_energy": 19.47, 
			 "SMD_solvation_energy": 9.02 
		},
		"coords": [
			{
				"x": 1.7489169715,
				"y": 0.7558392566,
				"z": -0.5590119786,
				"element": "O" 
			},
			{
				"x": 1.3504955355,
				"y": 1.3872635999,
				"z": 0.401251138,
				"element": "C" 
			},
			{
				"x": 0.1393104516,
				"y": 1.1753243955,
				"z": 0.9730190463,
				"element": "O" 
			},
			{
				"x": -0.6362173435,
				"y": 0.1019901818,
				"z": 0.4085999962,
				"element": "C" 
			},
			{
				"x": 0.0038332919,
				"y": -1.2530835236,
				"z": 0.8351367792,
				"element": "C" 
			},
			{
				"x": 0.7096381237,
				"y": -1.2547498377,
				"z": 1.8333922161,
				"element": "O" 
			},
			{
				"x": -0.2861196794,
				"y": -2.4770586408,
				"z": 0.0438672422,
				"element": "C" 
			},
			{
				"x": -1.2254395652,
				"y": -2.4362989995,
				"z": -0.9882704962,
				"element": "C" 
			},
			{
				"x": -1.5707476371,
				"y": -3.5526060278,
				"z": -1.783126986,
				"element": "C" 
			},
			{
				"x": -0.9420580517,
				"y": -4.7534584709,
				"z": -1.5374400262,
				"element": "C" 
			},
			{
				"x": -1.0727490936,
				"y": -6.1125311357,
				"z": -2.1952230353,
				"element": "C" 
			},
			{
				"x": -0.0626602557,
				"y": -7.0285331337,
				"z": -1.4269094163,
				"element": "C" 
			},
			{
				"x": 0.5646164151,
				"y": -6.1215523193,
				"z": -0.3837565814,
				"element": "C" 
			},
			{
				"x": 0.0149431781,
				"y": -4.8237926456,
				"z": -0.5009982512,
				"element": "C" 
			},
			{
				"x": 0.3806348652,
				"y": -3.7291123761,
				"z": 0.3229705488,
				"element": "C" 
			},
			{
				"x": 1.3670285705,
				"y": -4.0064766246,
				"z": 1.3100550972,
				"element": "C" 
			},
			{
				"x": 1.9038370096,
				"y": -5.2792856574,
				"z": 1.4205388694,
				"element": "C" 
			},
			{
				"x": 1.5160203833,
				"y": -6.3563143205,
				"z": 0.5829779483,
				"element": "C" 
			},
			{
				"x": -2.0480232781,
				"y": 0.2594312406,
				"z": 0.9369672902,
				"element": "C" 
			},
			{
				"x": -3.0827202479,
				"y": 0.6640725775,
				"z": 0.0860322369,
				"element": "C" 
			},
			{
				"x": -4.3802447407,
				"y": 0.8263929564,
				"z": 0.5746775222,
				"element": "C" 
			},
			{
				"x": -4.6517550823,
				"y": 0.5913353746,
				"z": 1.9231717134,
				"element": "C" 
			},
			{
				"x": -3.6215147812,
				"y": 0.1955184385,
				"z": 2.7800943975,
				"element": "C" 
			},
			{
				"x": -2.3266023786,
				"y": 0.0284092114,
				"z": 2.2911409374,
				"element": "C" 
			},
			{
				"x": 2.1065360365,
				"y": 2.4849997412,
				"z": 1.0645640276,
				"element": "C" 
			},
			{
				"x": 1.6085330385,
				"y": 3.1689090524,
				"z": 2.1823642254,
				"element": "C" 
			},
			{
				"x": 2.3608635937,
				"y": 4.1890933282,
				"z": 2.7621844471,
				"element": "C" 
			},
			{
				"x": 3.6078565349,
				"y": 4.5295923482,
				"z": 2.2319687214,
				"element": "C" 
			},
			{
				"x": 4.1062486139,
				"y": 3.8476658095,
				"z": 1.1183802041,
				"element": "C" 
			},
			{
				"x": 3.3585633877,
				"y": 2.8275586555,
				"z": 0.5357995055,
				"element": "C" 
			},
			{
				"x": -0.6105299928,
				"y": 0.1984744476,
				"z": -0.6785456255,
				"element": "H" 
			},
			{
				"x": -1.7445785679,
				"y": -1.50795109,
				"z": -1.193120662,
				"element": "H" 
			},
			{
				"x": -2.3166249847,
				"y": -3.444007736,
				"z": -2.5652047506,
				"element": "H" 
			},
			{
				"x": -0.8390931007,
				"y": -6.0587248768,
				"z": -3.2646680172,
				"element": "H" 
			},
			{
				"x": -2.0990675149,
				"y": -6.490336931,
				"z": -2.1221848264,
				"element": "H" 
			},
			{
				"x": -0.5687712501,
				"y": -7.8830131146,
				"z": -0.9634274937,
				"element": "H" 
			},
			{
				"x": 0.6933894866,
				"y": -7.4451932274,
				"z": -2.1021086433,
				"element": "H" 
			},
			{
				"x": 1.6899768371,
				"y": -3.2172866744,
				"z": 1.9732223162,
				"element": "H" 
			},
			{
				"x": 2.6562063326,
				"y": -5.4597175867,
				"z": 2.1838497913,
				"element": "H" 
			},
			{
				"x": 1.9691919195,
				"y": -7.3354272111,
				"z": 0.7133833981,
				"element": "H" 
			},
			{
				"x": -2.8705350512,
				"y": 0.8620927561,
				"z": -0.9620240354,
				"element": "H" 
			},
			{
				"x": -5.1748039209,
				"y": 1.1409675821,
				"z": -0.0958464571,
				"element": "H" 
			},
			{
				"x": -5.6605095421,
				"y": 0.7178044322,
				"z": 2.3057027142,
				"element": "H" 
			},
			{
				"x": -3.8278185955,
				"y": 0.0142413203,
				"z": 3.8310492544,
				"element": "H" 
			},
			{
				"x": -1.5236935856,
				"y": -0.2795081837,
				"z": 2.953783761,
				"element": "H" 
			},
			{
				"x": 0.6414454343,
				"y": 2.8952219371,
				"z": 2.5878010098,
				"element": "H" 
			},
			{
				"x": 1.9754845615,
				"y": 4.7182079664,
				"z": 3.6288359078,
				"element": "H" 
			},
			{
				"x": 4.1914881349,
				"y": 5.3250334041,
				"z": 2.6870161256,
				"element": "H" 
			},
			{
				"x": 5.0762659578,
				"y": 4.1114471729,
				"z": 0.7072771016,
				"element": "H" 
			},
			{
				"x": 3.7233535761,
				"y": 2.2815331579,
				"z": -0.3276082082,
				"element": "H" 
			}
		],
		 "valence_orbital": [ 
			{
				"type": "occ",
				"energy": -0.25279,
				"method": "rhf"
			},
			{
				"type": "occ",
				"energy": -0.25204,
				"method": "rhf"
			},
			{
				"type": "occ",
				"energy": -0.24549,
				"method": "rhf"
			},
			{
				"type": "occ",
				"energy": -0.23698,
				"method": "rhf"
			},
			{
				"type": "occ",
				"energy": -0.21107,
				"method": "rhf"
			},
			{
				"type": "unocc",
				"energy": -0.06425,
				"method": "rhf"
			},
			{
				"type": "unocc",
				"energy": -0.03915,
				"method": "rhf"
			},
			{
				"type": "unocc",
				"energy": -0.01659,
				"method": "rhf"
			},
			{
				"type": "unocc",
				"energy": -0.00988,
				"method": "rhf"
			},
			{
				"type": "unocc",
				"energy": -0.00778,
				"method": "rhf"
			}
		],
		"cosmo_sigma_profile": { 
			"-0.025": 0.0,
			"-0.024": 0.0,
			"-0.023": 0.0,
			"-0.022": 0.0,
			"-0.021": 0.0,
			"-0.02": 0.0,
			"-0.019": 0.0,
			"-0.018": 0.0,
			"-0.017": 0.0,
			"-0.016": 0.0,
			"-0.015": 0.0,
			"-0.014": 0.0,
			"-0.013": 0.0,
			"-0.012": 0.0,
			"-0.011": 0.00777434145292,
			"-0.01": 0.547967442256,
			"-0.009": 1.54104763427,
			"-0.008": 1.73354126091,
			"-0.007": 5.3072810899,
			"-0.006": 22.966520115,
			"-0.005": 33.5599771688,
			"-0.004": 40.9752072637,
			"-0.003": 37.2449993457,
			"-0.002": 32.8827612585,
			"-0.001": 29.7017318993,
			"0.0": 25.6153540521,
			"0.001": 30.6217681938,
			"0.002": 37.2138894067,
			"0.003": 43.0674229326,
			"0.004": 36.0186550232,
			"0.005": 22.7088914355,
			"0.006": 6.87005927531,
			"0.007": 3.55917892181,
			"0.008": 3.70564885544,
			"0.009": 3.4103460963,
			"0.01": 4.02656546067,
			"0.011": 4.71125472885,
			"0.012": 3.14617338968,
			"0.013": 0.0513382901898,
			"0.014": 0.0,
			"0.015": 0.0,
			"0.016": 0.0,
			"0.017": 0.0,
			"0.018": 0.0,
			"0.019": 0.0,
			"0.02": 0.0,
			"0.021": 0.0,
			"0.022": 0.0,
			"0.023": 0.0,
			"0.024": 0.0,
			"0.025": 0.0
		}
	}
}
