{
	 "smiles": "CCOC(=O)C1=C(N)C(F)=CC(Br)=C1", 
	 "Tm": 322.15, 
	 "num_atms": 23, 
	 "gaussian": { 
		 "optdone": 1, 
		 "sigma_profile": "yes", 
		 "theory": "DFT", 
		 "functional": "B3LYP", 
		 "basiset": "6-31G**", 
		 "properties": { 
			 "R2extent": 7209.3241, 
			 "electric_dipole_moment_norm": 1.84964178424, 
			 "electric_quadrupole_moment_norm": 12.7082118447, 
			 "total_energy": -3224.84783794, 
			 "HOMO_LUMO_gap": 0.15777, 
			 "cosmo_polarized_energy": -7.26, 
			 "cosmo_cavitation_energy": 30.04, 
			 "cosmo_dispersion_energy": -22.44, 
			 "cosmo_repulsion_energy": 1.77, 
			 "cosmo_total_nonelectrostatic_energy": 9.37, 
			 "SMD_solvation_energy": 5.31 
		},
		"coords": [
			{
				"x": 3.9747361418,
				"y": 1.8468440715,
				"z": -2.5516667384,
				"element": "C" 
			},
			{
				"x": 3.1548175094,
				"y": 0.7596576655,
				"z": -1.8838124545,
				"element": "C" 
			},
			{
				"x": 1.8491640391,
				"y": 1.3143891939,
				"z": -1.6027548906,
				"element": "O" 
			},
			{
				"x": 0.9674686976,
				"y": 0.4863664513,
				"z": -1.0073726601,
				"element": "C" 
			},
			{
				"x": 1.2532244842,
				"y": -0.6720460262,
				"z": -0.7202609488,
				"element": "O" 
			},
			{
				"x": -0.3400085194,
				"y": 1.1217538628,
				"z": -0.7462316464,
				"element": "C" 
			},
			{
				"x": -1.3744187267,
				"y": 0.3596147751,
				"z": -0.1375594141,
				"element": "C" 
			},
			{
				"x": -1.2679533496,
				"y": -0.9522149277,
				"z": 0.1958107789,
				"element": "N" 
			},
			{
				"x": -2.5920786387,
				"y": 1.0358953591,
				"z": 0.1062640262,
				"element": "C" 
			},
			{
				"x": -3.5757652182,
				"y": 0.3116867158,
				"z": 0.6980043801,
				"element": "F" 
			},
			{
				"x": -2.8144416941,
				"y": 2.353356026,
				"z": -0.2161553353,
				"element": "C" 
			},
			{
				"x": -1.775821515,
				"y": 3.0758208182,
				"z": -0.8235247885,
				"element": "C" 
			},
			{
				"x": -2.0628181436,
				"y": 4.9077685926,
				"z": -1.2840803294,
				"element": "Br" 
			},
			{
				"x": -0.5601618412,
				"y": 2.4736190108,
				"z": -1.0834435066,
				"element": "C" 
			},
			{
				"x": 4.9746893855,
				"y": 1.4665497456,
				"z": -2.7822052526,
				"element": "H" 
			},
			{
				"x": 4.080161915,
				"y": 2.7163592202,
				"z": -1.8966074111,
				"element": "H" 
			},
			{
				"x": 3.5070123505,
				"y": 2.1724510626,
				"z": -3.4851829502,
				"element": "H" 
			},
			{
				"x": 3.0338175016,
				"y": -0.1188957441,
				"z": -2.5250767004,
				"element": "H" 
			},
			{
				"x": 3.6040493534,
				"y": 0.4221811958,
				"z": -0.944569943,
				"element": "H" 
			},
			{
				"x": -0.3625406217,
				"y": -1.3910410377,
				"z": 0.0973367496,
				"element": "H" 
			},
			{
				"x": -2.0099369156,
				"y": -1.3778135304,
				"z": 0.7246920722,
				"element": "H" 
			},
			{
				"x": -3.7748869489,
				"y": 2.8045704484,
				"z": 0.0015559856,
				"element": "H" 
			},
			{
				"x": 0.2418907546,
				"y": 3.0315270508,
				"z": -1.5472590227,
				"element": "H" 
			}
		],
		 "valence_orbital": [ 
			{
				"type": "occ",
				"energy": -0.28813,
				"method": "rhf"
			},
			{
				"type": "occ",
				"energy": -0.28456,
				"method": "rhf"
			},
			{
				"type": "occ",
				"energy": -0.28101,
				"method": "rhf"
			},
			{
				"type": "occ",
				"energy": -0.26404,
				"method": "rhf"
			},
			{
				"type": "occ",
				"energy": -0.20807,
				"method": "rhf"
			},
			{
				"type": "unocc",
				"energy": -0.0503,
				"method": "rhf"
			},
			{
				"type": "unocc",
				"energy": 0.00133,
				"method": "rhf"
			},
			{
				"type": "unocc",
				"energy": 0.00597,
				"method": "rhf"
			},
			{
				"type": "unocc",
				"energy": 0.05077,
				"method": "rhf"
			},
			{
				"type": "unocc",
				"energy": 0.09174,
				"method": "rhf"
			}
		],
		"cosmo_sigma_profile": { 
			"-0.025": 0.0,
			"-0.024": 0.0,
			"-0.023": 0.0,
			"-0.022": 0.0,
			"-0.021": 0.0,
			"-0.02": 0.0,
			"-0.019": 0.0,
			"-0.018": 0.0,
			"-0.017": 0.0,
			"-0.016": 0.0,
			"-0.015": 0.0,
			"-0.014": 0.121563021758,
			"-0.013": 0.961121427579,
			"-0.012": 0.751233197676,
			"-0.011": 0.88202641692,
			"-0.01": 1.50408407978,
			"-0.009": 1.91610985088,
			"-0.008": 3.41054823706,
			"-0.007": 2.6268584333,
			"-0.006": 4.49976080757,
			"-0.005": 10.123258955,
			"-0.004": 18.0235575166,
			"-0.003": 18.2270832529,
			"-0.002": 19.7131915628,
			"-0.001": 20.0878628381,
			"0.0": 26.7549895494,
			"0.001": 26.3625739097,
			"0.002": 23.5416559982,
			"0.003": 20.3487037528,
			"0.004": 20.1302235817,
			"0.005": 11.6315182171,
			"0.006": 2.16209520351,
			"0.007": 1.07839678798,
			"0.008": 1.87787220091,
			"0.009": 1.51973946893,
			"0.01": 1.68435898624,
			"0.011": 1.84048220289,
			"0.012": 1.08926416293,
			"0.013": 0.0079744285875,
			"0.014": 0.0,
			"0.015": 0.0,
			"0.016": 0.0,
			"0.017": 0.0,
			"0.018": 0.0,
			"0.019": 0.0,
			"0.02": 0.0,
			"0.021": 0.0,
			"0.022": 0.0,
			"0.023": 0.0,
			"0.024": 0.0,
			"0.025": 0.0
		}
	}
}
