{
	 "smiles": "OC(=O)C1=CC(=O)NC(=O)N1", 
	 "Tm": 618.15, 
	 "num_atms": 15, 
	 "gaussian": { 
		 "optdone": 1, 
		 "sigma_profile": "yes", 
		 "theory": "DFT", 
		 "functional": "B3LYP", 
		 "basiset": "6-31G**", 
		 "properties": { 
			 "R2extent": 2044.3248, 
			 "electric_dipole_moment_norm": 2.74329559836, 
			 "electric_quadrupole_moment_norm": 12.2616608687, 
			 "total_energy": -603.370503962, 
			 "HOMO_LUMO_gap": 0.18145, 
			 "cosmo_polarized_energy": -24.65, 
			 "cosmo_cavitation_energy": 21.08, 
			 "cosmo_dispersion_energy": -15.67, 
			 "cosmo_repulsion_energy": 1.27, 
			 "cosmo_total_nonelectrostatic_energy": 6.68, 
			 "SMD_solvation_energy": 6.83 
		},
		"coords": [
			{
				"x": 1.4601304905,
				"y": -3.1553097159,
				"z": 1.5700180434,
				"element": "O" 
			},
			{
				"x": 0.3403384175,
				"y": -2.3911038489,
				"z": 1.6585887746,
				"element": "C" 
			},
			{
				"x": -0.424513279,
				"y": -2.499897519,
				"z": 2.5799377458,
				"element": "O" 
			},
			{
				"x": 0.1282363798,
				"y": -1.4212456433,
				"z": 0.5259607612,
				"element": "C" 
			},
			{
				"x": -0.5185927229,
				"y": -0.2526421345,
				"z": 0.7265243829,
				"element": "C" 
			},
			{
				"x": -0.663448419,
				"y": 0.7064775862,
				"z": -0.3697791353,
				"element": "C" 
			},
			{
				"x": -1.2167145619,
				"y": 1.7886494658,
				"z": -0.2995592887,
				"element": "O" 
			},
			{
				"x": -0.0783792409,
				"y": 0.2733870646,
				"z": -1.5792747021,
				"element": "N" 
			},
			{
				"x": 0.5396566041,
				"y": -0.9353284947,
				"z": -1.8446969039,
				"element": "C" 
			},
			{
				"x": 0.941861756,
				"y": -1.2801712016,
				"z": -2.9378752429,
				"element": "O" 
			},
			{
				"x": 0.6715407021,
				"y": -1.7458082154,
				"z": -0.7085702917,
				"element": "N" 
			},
			{
				"x": 2.0859101384,
				"y": -2.7822199977,
				"z": 0.9305117747,
				"element": "H" 
			},
			{
				"x": -0.9195254993,
				"y": -0.0001620468,
				"z": 1.6980192358,
				"element": "H" 
			},
			{
				"x": -0.1761397711,
				"y": 0.8978340136,
				"z": -2.3714651457,
				"element": "H" 
			},
			{
				"x": 0.9332390056,
				"y": -2.7000593123,
				"z": -0.9202400081,
				"element": "H" 
			}
		],
		 "valence_orbital": [ 
			{
				"type": "occ",
				"energy": -0.32431,
				"method": "rhf"
			},
			{
				"type": "occ",
				"energy": -0.3058,
				"method": "rhf"
			},
			{
				"type": "occ",
				"energy": -0.30352,
				"method": "rhf"
			},
			{
				"type": "occ",
				"energy": -0.2828,
				"method": "rhf"
			},
			{
				"type": "occ",
				"energy": -0.27486,
				"method": "rhf"
			},
			{
				"type": "unocc",
				"energy": -0.09341,
				"method": "rhf"
			},
			{
				"type": "unocc",
				"energy": -0.01264,
				"method": "rhf"
			},
			{
				"type": "unocc",
				"energy": 0.00664,
				"method": "rhf"
			},
			{
				"type": "unocc",
				"energy": 0.02988,
				"method": "rhf"
			},
			{
				"type": "unocc",
				"energy": 0.07438,
				"method": "rhf"
			}
		],
		"cosmo_sigma_profile": { 
			"-0.025": 0.0,
			"-0.024": 0.0,
			"-0.023": 0.0,
			"-0.022": 0.0,
			"-0.021": 0.00955357090752,
			"-0.02": 1.50086610099,
			"-0.019": 1.76889820437,
			"-0.018": 2.65851097683,
			"-0.017": 1.97345936657,
			"-0.016": 2.06470099267,
			"-0.015": 3.88112556369,
			"-0.014": 2.36187563575,
			"-0.013": 1.833784581,
			"-0.012": 1.59346615082,
			"-0.011": 2.47074631041,
			"-0.01": 2.33656623414,
			"-0.009": 3.46032676393,
			"-0.008": 3.42055579215,
			"-0.007": 4.86754922373,
			"-0.006": 7.73810144526,
			"-0.005": 7.24290119492,
			"-0.004": 8.40492171712,
			"-0.003": 7.89806625585,
			"-0.002": 9.70925003016,
			"-0.001": 7.40152461337,
			"0.0": 5.28082751912,
			"0.001": 4.87678243003,
			"0.002": 4.5567516177,
			"0.003": 4.36725880454,
			"0.004": 3.82895480439,
			"0.005": 4.56543307188,
			"0.006": 5.51883373322,
			"0.007": 3.94452735349,
			"0.008": 7.53026524058,
			"0.009": 6.93042593634,
			"0.01": 9.61007210682,
			"0.011": 8.90762011086,
			"0.012": 11.696290969,
			"0.013": 2.65358688079,
			"0.014": 0.0326353256348,
			"0.015": 0.0,
			"0.016": 0.0,
			"0.017": 0.0,
			"0.018": 0.0,
			"0.019": 0.0,
			"0.02": 0.0,
			"0.021": 0.0,
			"0.022": 0.0,
			"0.023": 0.0,
			"0.024": 0.0,
			"0.025": 0.0
		}
	}
}
