{
	 "smiles": "CN(C)C(=O)C1=CC(=C(Cl)C=C1)S(N)(=O)=O", 
	 "Tm": 404.15, 
	 "num_atms": 27, 
	 "gaussian": { 
		 "optdone": 1, 
		 "sigma_profile": "yes", 
		 "theory": "DFT", 
		 "functional": "B3LYP", 
		 "basiset": "6-31G**", 
		 "properties": { 
			 "R2extent": 5926.1826, 
			 "electric_dipole_moment_norm": 5.52543336309, 
			 "electric_quadrupole_moment_norm": 21.7557780107, 
			 "total_energy": -1543.0707817, 
			 "HOMO_LUMO_gap": 0.19219, 
			 "cosmo_polarized_energy": -22.53, 
			 "cosmo_cavitation_energy": 33.98, 
			 "cosmo_dispersion_energy": -24.93, 
			 "cosmo_repulsion_energy": 1.91, 
			 "cosmo_total_nonelectrostatic_energy": 10.97, 
			 "SMD_solvation_energy": 5.82 
		},
		"coords": [
			{
				"x": 2.0342889293,
				"y": 2.1570430049,
				"z": -3.2871544163,
				"element": "C" 
			},
			{
				"x": 1.0065698741,
				"y": 1.4637776224,
				"z": -2.5187775718,
				"element": "N" 
			},
			{
				"x": -0.2300332302,
				"y": 1.2005825135,
				"z": -3.2441865032,
				"element": "C" 
			},
			{
				"x": 1.1391980521,
				"y": 1.4424318663,
				"z": -1.1492781702,
				"element": "C" 
			},
			{
				"x": 2.0448050183,
				"y": 2.0366664659,
				"z": -0.5685291233,
				"element": "O" 
			},
			{
				"x": 0.1721843304,
				"y": 0.6114337533,
				"z": -0.3433763357,
				"element": "C" 
			},
			{
				"x": -0.2314234642,
				"y": 1.1234075602,
				"z": 0.8951850547,
				"element": "C" 
			},
			{
				"x": -1.0560616194,
				"y": 0.3860575745,
				"z": 1.7429508355,
				"element": "C" 
			},
			{
				"x": -1.4631785769,
				"y": -0.9041918203,
				"z": 1.3598371516,
				"element": "C" 
			},
			{
				"x": -2.4970801826,
				"y": -1.8895197723,
				"z": 2.362409857,
				"element": "Cl" 
			},
			{
				"x": -1.0337123625,
				"y": -1.4343957221,
				"z": 0.1435147032,
				"element": "C" 
			},
			{
				"x": -0.2244619212,
				"y": -0.6804776084,
				"z": -0.7038597558,
				"element": "C" 
			},
			{
				"x": -1.5925092544,
				"y": 1.0782089272,
				"z": 3.3254906612,
				"element": "S" 
			},
			{
				"x": -0.8231678752,
				"y": 2.5808193014,
				"z": 3.343045546,
				"element": "N" 
			},
			{
				"x": -1.0086220283,
				"y": 0.2679838108,
				"z": 4.394762076,
				"element": "O" 
			},
			{
				"x": -3.0307440275,
				"y": 1.3378825474,
				"z": 3.2424836091,
				"element": "O" 
			},
			{
				"x": 1.7210771874,
				"y": 3.17841997,
				"z": -3.5429026363,
				"element": "H" 
			},
			{
				"x": 2.9448994179,
				"y": 2.211446366,
				"z": -2.6934590748,
				"element": "H" 
			},
			{
				"x": 2.2241259348,
				"y": 1.6099220838,
				"z": -4.2167731562,
				"element": "H" 
			},
			{
				"x": -0.564740245,
				"y": 2.1134613276,
				"z": -3.7544754368,
				"element": "H" 
			},
			{
				"x": -0.0842275615,
				"y": 0.423811642,
				"z": -4.0053131754,
				"element": "H" 
			},
			{
				"x": -1.0209505975,
				"y": 0.8845115402,
				"z": -2.5669512341,
				"element": "H" 
			},
			{
				"x": 0.111498364,
				"y": 2.1028595836,
				"z": 1.2025828807,
				"element": "H" 
			},
			{
				"x": -1.3356201365,
				"y": -2.4392861055,
				"z": -0.1296034291,
				"element": "H" 
			},
			{
				"x": 0.1129690643,
				"y": -1.1149921738,
				"z": -1.6394237221,
				"element": "H" 
			},
			{
				"x": -0.1379821584,
				"y": 2.6076870172,
				"z": 4.0928699622,
				"element": "H" 
			},
			{
				"x": -1.5219009313,
				"y": 3.3126487242,
				"z": 3.4342314038,
				"element": "H" 
			}
		],
		 "valence_orbital": [ 
			{
				"type": "occ",
				"energy": -0.29241,
				"method": "rhf"
			},
			{
				"type": "occ",
				"energy": -0.2803,
				"method": "rhf"
			},
			{
				"type": "occ",
				"energy": -0.27143,
				"method": "rhf"
			},
			{
				"type": "occ",
				"energy": -0.25547,
				"method": "rhf"
			},
			{
				"type": "occ",
				"energy": -0.24739,
				"method": "rhf"
			},
			{
				"type": "unocc",
				"energy": -0.0552,
				"method": "rhf"
			},
			{
				"type": "unocc",
				"energy": -0.03892,
				"method": "rhf"
			},
			{
				"type": "unocc",
				"energy": 0.01185,
				"method": "rhf"
			},
			{
				"type": "unocc",
				"energy": 0.02786,
				"method": "rhf"
			},
			{
				"type": "unocc",
				"energy": 0.05232,
				"method": "rhf"
			}
		],
		"cosmo_sigma_profile": { 
			"-0.025": 0.0,
			"-0.024": 0.0,
			"-0.023": 0.0,
			"-0.022": 0.0,
			"-0.021": 0.0,
			"-0.02": 0.0,
			"-0.019": 0.0,
			"-0.018": 0.0,
			"-0.017": 0.0,
			"-0.016": 0.116138499231,
			"-0.015": 2.23074677749,
			"-0.014": 2.31538494924,
			"-0.013": 3.02711497018,
			"-0.012": 2.30260461756,
			"-0.011": 2.09037467052,
			"-0.01": 1.6710315786,
			"-0.009": 1.94806462621,
			"-0.008": 6.18745194022,
			"-0.007": 5.4666930694,
			"-0.006": 7.09586003407,
			"-0.005": 18.0231958917,
			"-0.004": 24.9444102713,
			"-0.003": 24.48611856,
			"-0.002": 25.4755928592,
			"-0.001": 18.7361528941,
			"0.0": 21.2103794819,
			"0.001": 16.7927189076,
			"0.002": 10.0572223883,
			"0.003": 11.4895923807,
			"0.004": 7.44939551358,
			"0.005": 5.13944765529,
			"0.006": 4.39493203977,
			"0.007": 5.5176840439,
			"0.008": 5.84371146288,
			"0.009": 5.46435613539,
			"0.01": 12.9471201376,
			"0.011": 10.2816730023,
			"0.012": 2.88211497122,
			"0.013": 4.40190803234,
			"0.014": 2.30797022307,
			"0.015": 0.0516562431173,
			"0.016": 0.0,
			"0.017": 0.0,
			"0.018": 0.0,
			"0.019": 0.0,
			"0.02": 0.0,
			"0.021": 0.0,
			"0.022": 0.0,
			"0.023": 0.0,
			"0.024": 0.0,
			"0.025": 0.0
		}
	}
}
