{
	 "smiles": "BrCCC12CC3CC(CC(C3)C1)C2", 
	 "Tm": 330.15, 
	 "num_atms": 32, 
	 "gaussian": { 
		 "optdone": 1, 
		 "sigma_profile": "yes", 
		 "theory": "DFT", 
		 "functional": "B3LYP", 
		 "basiset": "6-31G**", 
		 "properties": { 
			 "R2extent": 4859.0033, 
			 "electric_dipole_moment_norm": 2.16328895204, 
			 "electric_quadrupole_moment_norm": 8.95144248096, 
			 "total_energy": -3040.17093075, 
			 "HOMO_LUMO_gap": 0.26418, 
			 "cosmo_polarized_energy": -3.79, 
			 "cosmo_cavitation_energy": 30.64, 
			 "cosmo_dispersion_energy": -23.29, 
			 "cosmo_repulsion_energy": 1.81, 
			 "cosmo_total_nonelectrostatic_energy": 9.16, 
			 "SMD_solvation_energy": 2.46 
		},
		"coords": [
			{
				"x": -1.8308480988,
				"y": -2.5270345472,
				"z": -3.4998269362,
				"element": "Br" 
			},
			{
				"x": 0.0236456129,
				"y": -1.8636361866,
				"z": -3.1955121043,
				"element": "C" 
			},
			{
				"x": 0.1074801615,
				"y": -0.5897286786,
				"z": -2.3569268665,
				"element": "C" 
			},
			{
				"x": 0.1080266785,
				"y": -0.7026508887,
				"z": -0.8146799036,
				"element": "C" 
			},
			{
				"x": 0.2365142951,
				"y": 0.7332049292,
				"z": -0.2392962182,
				"element": "C" 
			},
			{
				"x": 0.2749525865,
				"y": 0.7155475596,
				"z": 1.3013968807,
				"element": "C" 
			},
			{
				"x": -1.0247993697,
				"y": 0.0810374482,
				"z": 1.8360650619,
				"element": "C" 
			},
			{
				"x": -1.151007133,
				"y": -1.3575372933,
				"z": 1.2961744989,
				"element": "C" 
			},
			{
				"x": 0.0588355275,
				"y": -2.1901588651,
				"z": 1.7677273822,
				"element": "C" 
			},
			{
				"x": 1.3592995472,
				"y": -1.5551128663,
				"z": 1.2342561462,
				"element": "C" 
			},
			{
				"x": 1.4857033615,
				"y": -0.1154966495,
				"z": 1.7722456528,
				"element": "C" 
			},
			{
				"x": 1.3196235402,
				"y": -1.5276748604,
				"z": -0.3086719945,
				"element": "C" 
			},
			{
				"x": -1.187698991,
				"y": -1.334845985,
				"z": -0.2469031582,
				"element": "C" 
			},
			{
				"x": 0.3961967043,
				"y": -1.6933465729,
				"z": -4.2045665129,
				"element": "H" 
			},
			{
				"x": 0.5553971134,
				"y": -2.707990365,
				"z": -2.759204683,
				"element": "H" 
			},
			{
				"x": 1.0539702359,
				"y": -0.106472577,
				"z": -2.645499782,
				"element": "H" 
			},
			{
				"x": -0.6868526593,
				"y": 0.0957335118,
				"z": -2.6753514077,
				"element": "H" 
			},
			{
				"x": -0.6093382045,
				"y": 1.3425016805,
				"z": -0.5862943279,
				"element": "H" 
			},
			{
				"x": 1.1479619298,
				"y": 1.2066097648,
				"z": -0.6307899696,
				"element": "H" 
			},
			{
				"x": 0.3656183569,
				"y": 1.7441525287,
				"z": 1.6733219746,
				"element": "H" 
			},
			{
				"x": -1.8920448667,
				"y": 0.6783619233,
				"z": 1.5251757525,
				"element": "H" 
			},
			{
				"x": -1.0186938818,
				"y": 0.0749704775,
				"z": 2.9340361512,
				"element": "H" 
			},
			{
				"x": -2.0776262568,
				"y": -1.8113782554,
				"z": 1.669760212,
				"element": "H" 
			},
			{
				"x": 0.0839749636,
				"y": -2.2347123056,
				"z": 2.8644674763,
				"element": "H" 
			},
			{
				"x": -0.0317317568,
				"y": -3.223895562,
				"z": 1.4087635662,
				"element": "H" 
			},
			{
				"x": 2.2223152662,
				"y": -2.148691462,
				"z": 1.562040807,
				"element": "H" 
			},
			{
				"x": 2.4190093147,
				"y": 0.3407849971,
				"z": 1.4161947437,
				"element": "H" 
			},
			{
				"x": 1.5341229548,
				"y": -0.1257102136,
				"z": 2.868982207,
				"element": "H" 
			},
			{
				"x": 2.2511463861,
				"y": -1.0946923305,
				"z": -0.7001960114,
				"element": "H" 
			},
			{
				"x": 1.2652755509,
				"y": -2.5573071248,
				"z": -0.686029281,
				"element": "H" 
			},
			{
				"x": -2.060133949,
				"y": -0.7676406192,
				"z": -0.5966396975,
				"element": "H" 
			},
			{
				"x": -1.3103949201,
				"y": -2.3543906121,
				"z": -0.6282196589,
				"element": "H" 
			}
		],
		 "valence_orbital": [ 
			{
				"type": "occ",
				"energy": -0.28606,
				"method": "rhf"
			},
			{
				"type": "occ",
				"energy": -0.27783,
				"method": "rhf"
			},
			{
				"type": "occ",
				"energy": -0.2772,
				"method": "rhf"
			},
			{
				"type": "occ",
				"energy": -0.2663,
				"method": "rhf"
			},
			{
				"type": "occ",
				"energy": -0.25975,
				"method": "rhf"
			},
			{
				"type": "unocc",
				"energy": 0.00443,
				"method": "rhf"
			},
			{
				"type": "unocc",
				"energy": 0.06494,
				"method": "rhf"
			},
			{
				"type": "unocc",
				"energy": 0.0965,
				"method": "rhf"
			},
			{
				"type": "unocc",
				"energy": 0.1024,
				"method": "rhf"
			},
			{
				"type": "unocc",
				"energy": 0.1205,
				"method": "rhf"
			}
		],
		"cosmo_sigma_profile": { 
			"-0.025": 0.0,
			"-0.024": 0.0,
			"-0.023": 0.0,
			"-0.022": 0.0,
			"-0.021": 0.0,
			"-0.02": 0.0,
			"-0.019": 0.0,
			"-0.018": 0.0,
			"-0.017": 0.0,
			"-0.016": 0.0,
			"-0.015": 0.0,
			"-0.014": 0.0,
			"-0.013": 0.0,
			"-0.012": 0.0,
			"-0.011": 0.0,
			"-0.01": 0.0,
			"-0.009": 0.0,
			"-0.008": 0.0,
			"-0.007": 0.891300480602,
			"-0.006": 3.85057349918,
			"-0.005": 5.01076206042,
			"-0.004": 7.79226133729,
			"-0.003": 11.513132262,
			"-0.002": 31.9276238156,
			"-0.001": 49.683973159,
			"0.0": 44.072550837,
			"0.001": 35.2236172403,
			"0.002": 14.6288471372,
			"0.003": 5.98723731876,
			"0.004": 4.78060137402,
			"0.005": 7.13140156227,
			"0.006": 8.62216190735,
			"0.007": 6.59228677127,
			"0.008": 0.0206172197242,
			"0.009": 0.0,
			"0.01": 0.0,
			"0.011": 0.0,
			"0.012": 0.0,
			"0.013": 0.0,
			"0.014": 0.0,
			"0.015": 0.0,
			"0.016": 0.0,
			"0.017": 0.0,
			"0.018": 0.0,
			"0.019": 0.0,
			"0.02": 0.0,
			"0.021": 0.0,
			"0.022": 0.0,
			"0.023": 0.0,
			"0.024": 0.0,
			"0.025": 0.0
		}
	}
}
