{
	 "smiles": "CCCCCC(=O)CC", 
	 "Tm": 250.15, 
	 "num_atms": 25, 
	 "gaussian": { 
		 "optdone": 1, 
		 "sigma_profile": "yes", 
		 "theory": "DFT", 
		 "functional": "B3LYP", 
		 "basiset": "6-31G**", 
		 "properties": { 
			 "R2extent": 2602.9999, 
			 "electric_dipole_moment_norm": 2.43481970174, 
			 "electric_quadrupole_moment_norm": 6.39465300388, 
			 "total_energy": -389.739887432, 
			 "HOMO_LUMO_gap": 0.23297, 
			 "cosmo_polarized_energy": -6.53, 
			 "cosmo_cavitation_energy": 26.77, 
			 "cosmo_dispersion_energy": -18.97, 
			 "cosmo_repulsion_energy": 1.62, 
			 "cosmo_total_nonelectrostatic_energy": 9.42, 
			 "SMD_solvation_energy": 4.8 
		},
		"coords": [
			{
				"x": -3.1553814703,
				"y": 1.8963480023,
				"z": -1.9147531704,
				"element": "C" 
			},
			{
				"x": -1.8367565415,
				"y": 2.4502812337,
				"z": -1.3643355893,
				"element": "C" 
			},
			{
				"x": -0.6272768964,
				"y": 2.0858304631,
				"z": -2.2369314247,
				"element": "C" 
			},
			{
				"x": 0.7143389556,
				"y": 2.6677203134,
				"z": -1.7596190902,
				"element": "C" 
			},
			{
				"x": 1.2295359192,
				"y": 2.0995491264,
				"z": -0.4314076885,
				"element": "C" 
			},
			{
				"x": 1.7140152784,
				"y": 0.6537587515,
				"z": -0.5124048928,
				"element": "C" 
			},
			{
				"x": 1.9250941216,
				"y": 0.103004056,
				"z": -1.5778412525,
				"element": "O" 
			},
			{
				"x": 1.9397506491,
				"y": -0.0608099607,
				"z": 0.8159752055,
				"element": "C" 
			},
			{
				"x": 2.622863488,
				"y": -1.419304024,
				"z": 0.6749179978,
				"element": "C" 
			},
			{
				"x": -3.3563703469,
				"y": 2.2814749624,
				"z": -2.9209883515,
				"element": "H" 
			},
			{
				"x": -3.1275610578,
				"y": 0.8027561394,
				"z": -1.9815641353,
				"element": "H" 
			},
			{
				"x": -4.0035632407,
				"y": 2.1696185708,
				"z": -1.2783297648,
				"element": "H" 
			},
			{
				"x": -1.905832677,
				"y": 3.5438644103,
				"z": -1.2796416806,
				"element": "H" 
			},
			{
				"x": -1.6923444121,
				"y": 2.0767090396,
				"z": -0.3418082173,
				"element": "H" 
			},
			{
				"x": -0.5399285015,
				"y": 0.9950663298,
				"z": -2.3144993944,
				"element": "H" 
			},
			{
				"x": -0.8136258334,
				"y": 2.4453397273,
				"z": -3.2578874113,
				"element": "H" 
			},
			{
				"x": 0.6233671026,
				"y": 3.7574569371,
				"z": -1.6637782429,
				"element": "H" 
			},
			{
				"x": 1.4738947975,
				"y": 2.4772189919,
				"z": -2.5247496537,
				"element": "H" 
			},
			{
				"x": 2.0892483482,
				"y": 2.6896414567,
				"z": -0.0790894451,
				"element": "H" 
			},
			{
				"x": 0.4841786186,
				"y": 2.1829487473,
				"z": 0.3699089255,
				"element": "H" 
			},
			{
				"x": 2.5069219674,
				"y": 0.6083040919,
				"z": 1.4779659803,
				"element": "H" 
			},
			{
				"x": 0.9553734212,
				"y": -0.1654951119,
				"z": 1.2960824574,
				"element": "H" 
			},
			{
				"x": 2.7278302559,
				"y": -1.9043756814,
				"z": 1.6498390353,
				"element": "H" 
			},
			{
				"x": 3.6181901042,
				"y": -1.3132357976,
				"z": 0.2343266499,
				"element": "H" 
			},
			{
				"x": 2.0470379501,
				"y": -2.0761707753,
				"z": 0.0184131535,
				"element": "H" 
			}
		],
		 "valence_orbital": [ 
			{
				"type": "occ",
				"energy": -0.3413,
				"method": "rhf"
			},
			{
				"type": "occ",
				"energy": -0.32053,
				"method": "rhf"
			},
			{
				"type": "occ",
				"energy": -0.31825,
				"method": "rhf"
			},
			{
				"type": "occ",
				"energy": -0.31135,
				"method": "rhf"
			},
			{
				"type": "occ",
				"energy": -0.24166,
				"method": "rhf"
			},
			{
				"type": "unocc",
				"energy": -0.00869,
				"method": "rhf"
			},
			{
				"type": "unocc",
				"energy": 0.07548,
				"method": "rhf"
			},
			{
				"type": "unocc",
				"energy": 0.10678,
				"method": "rhf"
			},
			{
				"type": "unocc",
				"energy": 0.11748,
				"method": "rhf"
			},
			{
				"type": "unocc",
				"energy": 0.12097,
				"method": "rhf"
			}
		],
		"cosmo_sigma_profile": { 
			"-0.025": 0.0,
			"-0.024": 0.0,
			"-0.023": 0.0,
			"-0.022": 0.0,
			"-0.021": 0.0,
			"-0.02": 0.0,
			"-0.019": 0.0,
			"-0.018": 0.0,
			"-0.017": 0.0,
			"-0.016": 0.0,
			"-0.015": 0.0,
			"-0.014": 0.0,
			"-0.013": 0.0,
			"-0.012": 0.0,
			"-0.011": 0.0,
			"-0.01": 0.0,
			"-0.009": 0.0,
			"-0.008": 0.0,
			"-0.007": 0.0,
			"-0.006": 2.35282035395,
			"-0.005": 10.6621197712,
			"-0.004": 11.0529556874,
			"-0.003": 17.0752897885,
			"-0.002": 29.6243308746,
			"-0.001": 36.6849100595,
			"0.0": 32.9091222441,
			"0.001": 27.2235114467,
			"0.002": 13.4718301398,
			"0.003": 3.37071680488,
			"0.004": 2.15756312915,
			"0.005": 2.3942075393,
			"0.006": 0.950984165275,
			"0.007": 1.85765383364,
			"0.008": 2.4297494526,
			"0.009": 1.80509375994,
			"0.01": 1.80777595003,
			"0.011": 2.73077093222,
			"0.012": 3.12642261807,
			"0.013": 2.72921501941,
			"0.014": 0.039716613622,
			"0.015": 0.0,
			"0.016": 0.0,
			"0.017": 0.0,
			"0.018": 0.0,
			"0.019": 0.0,
			"0.02": 0.0,
			"0.021": 0.0,
			"0.022": 0.0,
			"0.023": 0.0,
			"0.024": 0.0,
			"0.025": 0.0
		}
	}
}
