{
	 "smiles": "CC1=CC=C2C=CC=C(C2=N1)[N+]([O-])=O", 
	 "Tm": 412.15, 
	 "num_atms": 22, 
	 "gaussian": { 
		 "optdone": 1, 
		 "sigma_profile": "yes", 
		 "theory": "DFT", 
		 "functional": "B3LYP", 
		 "basiset": "6-31G**", 
		 "properties": { 
			 "R2extent": 3176.8605, 
			 "electric_dipole_moment_norm": 5.60929754426, 
			 "electric_quadrupole_moment_norm": 11.7550145164, 
			 "total_energy": -645.738558257, 
			 "HOMO_LUMO_gap": 0.17688, 
			 "cosmo_polarized_energy": -12.54, 
			 "cosmo_cavitation_energy": 27.35, 
			 "cosmo_dispersion_energy": -19.5, 
			 "cosmo_repulsion_energy": 1.54, 
			 "cosmo_total_nonelectrostatic_energy": 9.38, 
			 "SMD_solvation_energy": 6.13 
		},
		"coords": [
			{
				"x": -0.9671513395,
				"y": 1.4927915925,
				"z": 2.339116239,
				"element": "C" 
			},
			{
				"x": 0.0099343913,
				"y": 0.388372152,
				"z": 2.0298951523,
				"element": "C" 
			},
			{
				"x": 0.6785697097,
				"y": -0.2951910139,
				"z": 3.0905761236,
				"element": "C" 
			},
			{
				"x": 1.5662833919,
				"y": -1.2989859777,
				"z": 2.8004087892,
				"element": "C" 
			},
			{
				"x": 1.8108179955,
				"y": -1.6477800229,
				"z": 1.4453241398,
				"element": "C" 
			},
			{
				"x": 2.708632302,
				"y": -2.6689974073,
				"z": 1.0429691445,
				"element": "C" 
			},
			{
				"x": 2.8946571174,
				"y": -2.9515145007,
				"z": -0.2927929126,
				"element": "C" 
			},
			{
				"x": 2.1919689911,
				"y": -2.2262552779,
				"z": -1.2832743819,
				"element": "C" 
			},
			{
				"x": 1.3211921304,
				"y": -1.2362677402,
				"z": -0.8996477296,
				"element": "C" 
			},
			{
				"x": 1.0919774353,
				"y": -0.9042129178,
				"z": 0.4602657476,
				"element": "C" 
			},
			{
				"x": 0.2132889992,
				"y": 0.0900978357,
				"z": 0.759646225,
				"element": "N" 
			},
			{
				"x": 0.587675673,
				"y": -0.4792899755,
				"z": -1.9319697774,
				"element": "N" 
			},
			{
				"x": -0.4961350129,
				"y": -0.9303640408,
				"z": -2.2850953852,
				"element": "O" 
			},
			{
				"x": 1.1292982923,
				"y": 0.5297194119,
				"z": -2.3694255639,
				"element": "O" 
			},
			{
				"x": -0.4803378094,
				"y": 2.3024764244,
				"z": 2.8950965957,
				"element": "H" 
			},
			{
				"x": -1.7909110216,
				"y": 1.1244304633,
				"z": 2.9615537557,
				"element": "H" 
			},
			{
				"x": -1.37564243,
				"y": 1.8948840411,
				"z": 1.4114334401,
				"element": "H" 
			},
			{
				"x": 0.4758360867,
				"y": -0.0113727779,
				"z": 4.1189069853,
				"element": "H" 
			},
			{
				"x": 2.0867111447,
				"y": -1.8329493465,
				"z": 3.591404925,
				"element": "H" 
			},
			{
				"x": 3.2479833107,
				"y": -3.2256198099,
				"z": 1.8046244747,
				"element": "H" 
			},
			{
				"x": 3.5824402808,
				"y": -3.7335929861,
				"z": -0.5976010713,
				"element": "H" 
			},
			{
				"x": 2.3366103612,
				"y": -2.4466781258,
				"z": -2.3357149157,
				"element": "H" 
			}
		],
		 "valence_orbital": [ 
			{
				"type": "occ",
				"energy": -0.29742,
				"method": "rhf"
			},
			{
				"type": "occ",
				"energy": -0.291,
				"method": "rhf"
			},
			{
				"type": "occ",
				"energy": -0.26746,
				"method": "rhf"
			},
			{
				"type": "occ",
				"energy": -0.26414,
				"method": "rhf"
			},
			{
				"type": "occ",
				"energy": -0.24516,
				"method": "rhf"
			},
			{
				"type": "unocc",
				"energy": -0.06828,
				"method": "rhf"
			},
			{
				"type": "unocc",
				"energy": -0.06033,
				"method": "rhf"
			},
			{
				"type": "unocc",
				"energy": -0.03409,
				"method": "rhf"
			},
			{
				"type": "unocc",
				"energy": 0.00347,
				"method": "rhf"
			},
			{
				"type": "unocc",
				"energy": 0.06702,
				"method": "rhf"
			}
		],
		"cosmo_sigma_profile": { 
			"-0.025": 0.0,
			"-0.024": 0.0,
			"-0.023": 0.0,
			"-0.022": 0.0,
			"-0.021": 0.0,
			"-0.02": 0.0,
			"-0.019": 0.0,
			"-0.018": 0.0,
			"-0.017": 0.0,
			"-0.016": 0.0,
			"-0.015": 0.0,
			"-0.014": 0.0,
			"-0.013": 0.0,
			"-0.012": 0.0,
			"-0.011": 0.0875032064917,
			"-0.01": 0.930750086206,
			"-0.009": 1.89702821946,
			"-0.008": 5.29267418901,
			"-0.007": 11.9861616733,
			"-0.006": 11.3890761723,
			"-0.005": 15.5381760002,
			"-0.004": 14.0326782112,
			"-0.003": 12.9485688441,
			"-0.002": 12.170626355,
			"-0.001": 14.7622530878,
			"0.0": 21.1310882903,
			"0.001": 20.4483481191,
			"0.002": 16.551960997,
			"0.003": 8.85162728855,
			"0.004": 5.22137939858,
			"0.005": 5.42069175234,
			"0.006": 8.55520422425,
			"0.007": 14.798625833,
			"0.008": 9.51277773876,
			"0.009": 5.58069047348,
			"0.01": 2.04182556132,
			"0.011": 0.356970440182,
			"0.012": 0.0,
			"0.013": 0.0,
			"0.014": 0.0,
			"0.015": 0.0,
			"0.016": 0.0,
			"0.017": 0.0,
			"0.018": 0.0,
			"0.019": 0.0,
			"0.02": 0.0,
			"0.021": 0.0,
			"0.022": 0.0,
			"0.023": 0.0,
			"0.024": 0.0,
			"0.025": 0.0
		}
	}
}
