{
	 "smiles": "CCCCCN=C(N)NNC=C1C=NC2=CC=C(CO)C=C12", 
	 "Tm": 428.15, 
	 "num_atms": 45, 
	 "gaussian": { 
		 "optdone": 1, 
		 "sigma_profile": "yes", 
		 "theory": "DFT", 
		 "functional": "B3LYP", 
		 "basiset": "6-31G**", 
		 "properties": { 
			 "R2extent": 9584.6822, 
			 "electric_dipole_moment_norm": 4.3609379553, 
			 "electric_quadrupole_moment_norm": 21.8162405228, 
			 "total_energy": -972.491065347, 
			 "HOMO_LUMO_gap": 0.15525, 
			 "cosmo_polarized_energy": -28.61, 
			 "cosmo_cavitation_energy": 48.06, 
			 "cosmo_dispersion_energy": -32.11, 
			 "cosmo_repulsion_energy": 2.51, 
			 "cosmo_total_nonelectrostatic_energy": 18.46, 
			 "SMD_solvation_energy": 3.42 
		},
		"coords": [
			{
				"x": 4.0645910938,
				"y": -4.7214432026,
				"z": -4.1590208157,
				"element": "C" 
			},
			{
				"x": 3.3097597958,
				"y": -3.3985329298,
				"z": -4.3235937041,
				"element": "C" 
			},
			{
				"x": 3.3910967714,
				"y": -2.497525906,
				"z": -3.0844344155,
				"element": "C" 
			},
			{
				"x": 2.6431809039,
				"y": -1.1686628487,
				"z": -3.2440708407,
				"element": "C" 
			},
			{
				"x": 2.7371895871,
				"y": -0.2674594204,
				"z": -1.9993978056,
				"element": "C" 
			},
			{
				"x": 2.1390006818,
				"y": 1.0464491748,
				"z": -2.2024139941,
				"element": "N" 
			},
			{
				"x": 0.8872927842,
				"y": 1.2298608595,
				"z": -2.0352434022,
				"element": "C" 
			},
			{
				"x": 0.2993322435,
				"y": 2.4579212512,
				"z": -2.343001806,
				"element": "N" 
			},
			{
				"x": -0.0363504329,
				"y": 0.2707113235,
				"z": -1.5593910583,
				"element": "N" 
			},
			{
				"x": -1.3877076103,
				"y": 0.4333722774,
				"z": -1.833942732,
				"element": "N" 
			},
			{
				"x": -2.298660984,
				"y": 0.820900788,
				"z": -0.8922670763,
				"element": "C" 
			},
			{
				"x": -2.2420317734,
				"y": 0.9129374328,
				"z": 0.4679448337,
				"element": "C" 
			},
			{
				"x": -3.4388704104,
				"y": 1.3402370038,
				"z": 1.202228559,
				"element": "C" 
			},
			{
				"x": -3.2968639617,
				"y": 1.3729997714,
				"z": 2.4940375054,
				"element": "N" 
			},
			{
				"x": -1.9715966849,
				"y": 0.956998094,
				"z": 2.7344573634,
				"element": "C" 
			},
			{
				"x": -1.365360641,
				"y": 0.807875611,
				"z": 3.9795408782,
				"element": "C" 
			},
			{
				"x": -0.0447876087,
				"y": 0.3585035711,
				"z": 4.0272113445,
				"element": "C" 
			},
			{
				"x": 0.6700955192,
				"y": 0.0752051168,
				"z": 2.8522683775,
				"element": "C" 
			},
			{
				"x": 2.1183052682,
				"y": -0.3537941809,
				"z": 2.9313232426,
				"element": "C" 
			},
			{
				"x": 2.4471846235,
				"y": -1.1691809311,
				"z": 1.8072542092,
				"element": "O" 
			},
			{
				"x": 0.0584334593,
				"y": 0.2309387102,
				"z": 1.6031606462,
				"element": "C" 
			},
			{
				"x": -1.265005619,
				"y": 0.6652360431,
				"z": 1.5358815932,
				"element": "C" 
			},
			{
				"x": 3.6672437071,
				"y": -5.3029630159,
				"z": -3.3192310924,
				"element": "H" 
			},
			{
				"x": 3.9873391488,
				"y": -5.341258116,
				"z": -5.0582711657,
				"element": "H" 
			},
			{
				"x": 5.1293595091,
				"y": -4.548421566,
				"z": -3.9652018633,
				"element": "H" 
			},
			{
				"x": 2.2551304894,
				"y": -3.6050157429,
				"z": -4.5523330683,
				"element": "H" 
			},
			{
				"x": 3.706698517,
				"y": -2.8548263082,
				"z": -5.1914939375,
				"element": "H" 
			},
			{
				"x": 2.9943408731,
				"y": -3.0414852891,
				"z": -2.2149688127,
				"element": "H" 
			},
			{
				"x": 4.4466870068,
				"y": -2.2921690279,
				"z": -2.8559796012,
				"element": "H" 
			},
			{
				"x": 3.0425174279,
				"y": -0.6117852141,
				"z": -4.1007844883,
				"element": "H" 
			},
			{
				"x": 1.5877830337,
				"y": -1.3691567397,
				"z": -3.4820773135,
				"element": "H" 
			},
			{
				"x": 3.799000279,
				"y": -0.1035607246,
				"z": -1.7776043392,
				"element": "H" 
			},
			{
				"x": 2.3354434415,
				"y": -0.7935660161,
				"z": -1.1166714441,
				"element": "H" 
			},
			{
				"x": -0.3751270473,
				"y": 2.7830143585,
				"z": -1.6587472702,
				"element": "H" 
			},
			{
				"x": 1.0243267741,
				"y": 3.1441801564,
				"z": -2.5143916877,
				"element": "H" 
			},
			{
				"x": 0.2666638779,
				"y": -0.689923886,
				"z": -1.6465745253,
				"element": "H" 
			},
			{
				"x": -1.6217579222,
				"y": 0.6296180129,
				"z": -2.8003270447,
				"element": "H" 
			},
			{
				"x": -3.2539911687,
				"y": 1.0573243984,
				"z": -1.3592627083,
				"element": "H" 
			},
			{
				"x": -4.378694198,
				"y": 1.6131866779,
				"z": 0.7251214463,
				"element": "H" 
			},
			{
				"x": -1.9238022064,
				"y": 1.0252800218,
				"z": 4.8845029834,
				"element": "H" 
			},
			{
				"x": 0.4392184078,
				"y": 0.2218140134,
				"z": 4.9918394354,
				"element": "H" 
			},
			{
				"x": 2.7657693524,
				"y": 0.5391892688,
				"z": 2.9558577206,
				"element": "H" 
			},
			{
				"x": 2.2888503567,
				"y": -0.8958237835,
				"z": 3.8750951907,
				"element": "H" 
			},
			{
				"x": 3.4082298642,
				"y": -1.2446487237,
				"z": 1.7717022332,
				"element": "H" 
			},
			{
				"x": 0.6237434709,
				"y": 0.0053496366,
				"z": 0.7120704505,
				"element": "H" 
			}
		],
		 "valence_orbital": [ 
			{
				"type": "occ",
				"energy": -0.24805,
				"method": "rhf"
			},
			{
				"type": "occ",
				"energy": -0.24647,
				"method": "rhf"
			},
			{
				"type": "occ",
				"energy": -0.22958,
				"method": "rhf"
			},
			{
				"type": "occ",
				"energy": -0.20881,
				"method": "rhf"
			},
			{
				"type": "occ",
				"energy": -0.20369,
				"method": "rhf"
			},
			{
				"type": "unocc",
				"energy": -0.04844,
				"method": "rhf"
			},
			{
				"type": "unocc",
				"energy": 0.00667,
				"method": "rhf"
			},
			{
				"type": "unocc",
				"energy": 0.02761,
				"method": "rhf"
			},
			{
				"type": "unocc",
				"energy": 0.04466,
				"method": "rhf"
			},
			{
				"type": "unocc",
				"energy": 0.05288,
				"method": "rhf"
			}
		],
		"cosmo_sigma_profile": { 
			"-0.025": 0.0,
			"-0.024": 0.0,
			"-0.023": 0.0,
			"-0.022": 0.0,
			"-0.021": 0.0,
			"-0.02": 0.0,
			"-0.019": 0.0,
			"-0.018": 0.0,
			"-0.017": 0.0,
			"-0.016": 0.780486300808,
			"-0.015": 2.98984244093,
			"-0.014": 1.95917327265,
			"-0.013": 3.06613870273,
			"-0.012": 5.05798732137,
			"-0.011": 5.16099058958,
			"-0.01": 7.01153626814,
			"-0.009": 8.44437928379,
			"-0.008": 6.89998570882,
			"-0.007": 7.84322214649,
			"-0.006": 9.32444285688,
			"-0.005": 12.4773716214,
			"-0.004": 16.8330847166,
			"-0.003": 18.5461999527,
			"-0.002": 34.695389718,
			"-0.001": 36.347779797,
			"0.0": 37.3288417361,
			"0.001": 30.8426287776,
			"0.002": 22.6626854972,
			"0.003": 16.3667461017,
			"0.004": 15.0147975543,
			"0.005": 16.0441130999,
			"0.006": 16.5453122963,
			"0.007": 10.3460617446,
			"0.008": 5.59975413417,
			"0.009": 4.02550940526,
			"0.01": 4.09510778605,
			"0.011": 3.94708078659,
			"0.012": 2.65087872178,
			"0.013": 3.76124365549,
			"0.014": 3.15157951811,
			"0.015": 2.17579962607,
			"0.016": 1.72112543015,
			"0.017": 1.71645951926,
			"0.018": 1.273988127,
			"0.019": 0.19271563347,
			"0.02": 0.0,
			"0.021": 0.0,
			"0.022": 0.0,
			"0.023": 0.0,
			"0.024": 0.0,
			"0.025": 0.0
		}
	}
}
