{
	 "smiles": "C(C=C(C1=CC=CC=C1)C1=CC=CC=C1)=C(C1=CC=CC=C1)C1=CC=CC=C1", 
	 "Tm": 470.65, 
	 "num_atms": 50, 
	 "gaussian": { 
		 "optdone": 1, 
		 "sigma_profile": "yes", 
		 "theory": "DFT", 
		 "functional": "B3LYP", 
		 "basiset": "6-31G**", 
		 "properties": { 
			 "R2extent": 11147.9803, 
			 "electric_dipole_moment_norm": 0.471307203425, 
			 "electric_quadrupole_moment_norm": 5.96376033556, 
			 "total_energy": -1080.219074, 
			 "HOMO_LUMO_gap": 0.14102, 
			 "cosmo_polarized_energy": -9.51, 
			 "cosmo_cavitation_energy": 53.53, 
			 "cosmo_dispersion_energy": -33.75, 
			 "cosmo_repulsion_energy": 2.58, 
			 "cosmo_total_nonelectrostatic_energy": 22.36, 
			 "SMD_solvation_energy": 8.26 
		},
		"coords": [
			{
				"x": 0.1028670626,
				"y": -1.3561497372,
				"z": 2.3500543887,
				"element": "C" 
			},
			{
				"x": 1.422003785,
				"y": -0.9147449405,
				"z": 1.8962257021,
				"element": "C" 
			},
			{
				"x": 1.8822317218,
				"y": -0.6682332323,
				"z": 0.6410318038,
				"element": "C" 
			},
			{
				"x": 1.0946864949,
				"y": -0.948353377,
				"z": -0.5931658144,
				"element": "C" 
			},
			{
				"x": 0.4784222623,
				"y": -2.1952070665,
				"z": -0.7898337572,
				"element": "C" 
			},
			{
				"x": -0.2296788296,
				"y": -2.4663878064,
				"z": -1.9599774854,
				"element": "C" 
			},
			{
				"x": -0.3342906089,
				"y": -1.495715492,
				"z": -2.9587670852,
				"element": "C" 
			},
			{
				"x": 0.279519876,
				"y": -0.2545837985,
				"z": -2.7798072689,
				"element": "C" 
			},
			{
				"x": 0.9933010283,
				"y": 0.0133771412,
				"z": -1.6125305011,
				"element": "C" 
			},
			{
				"x": 3.2660279327,
				"y": -0.1485580279,
				"z": 0.4624997158,
				"element": "C" 
			},
			{
				"x": 4.0665809747,
				"y": -0.5758846756,
				"z": -0.6134465777,
				"element": "C" 
			},
			{
				"x": 5.3763860178,
				"y": -0.1224293884,
				"z": -0.7574711143,
				"element": "C" 
			},
			{
				"x": 5.9162954569,
				"y": 0.7787465345,
				"z": 0.1629512113,
				"element": "C" 
			},
			{
				"x": 5.130758707,
				"y": 1.2250968155,
				"z": 1.2273466242,
				"element": "C" 
			},
			{
				"x": 3.8209923464,
				"y": 0.7703086035,
				"z": 1.372380542,
				"element": "C" 
			},
			{
				"x": -1.1344749714,
				"y": -0.8808869567,
				"z": 2.0481323002,
				"element": "C" 
			},
			{
				"x": -2.3334644543,
				"y": -1.5721537947,
				"z": 2.5970684202,
				"element": "C" 
			},
			{
				"x": -2.3696737188,
				"y": -2.9728475492,
				"z": 2.7273367686,
				"element": "C" 
			},
			{
				"x": -3.4765770317,
				"y": -3.6159678127,
				"z": 3.2791652648,
				"element": "C" 
			},
			{
				"x": -4.5796180912,
				"y": -2.8746573241,
				"z": 3.7069461985,
				"element": "C" 
			},
			{
				"x": -4.5661437733,
				"y": -1.4845682136,
				"z": 3.571809522,
				"element": "C" 
			},
			{
				"x": -3.4603205658,
				"y": -0.8417298731,
				"z": 3.0187528116,
				"element": "C" 
			},
			{
				"x": -1.3676992129,
				"y": 0.347520882,
				"z": 1.236580995,
				"element": "C" 
			},
			{
				"x": -0.7021495204,
				"y": 1.5479563548,
				"z": 1.5350526041,
				"element": "C" 
			},
			{
				"x": -0.9466404707,
				"y": 2.7043098391,
				"z": 0.7952598499,
				"element": "C" 
			},
			{
				"x": -1.8639087003,
				"y": 2.6837748449,
				"z": -0.257790205,
				"element": "C" 
			},
			{
				"x": -2.5380996523,
				"y": 1.4993437773,
				"z": -0.5607731233,
				"element": "C" 
			},
			{
				"x": -2.2983650062,
				"y": 0.3453128583,
				"z": 0.1839068682,
				"element": "C" 
			},
			{
				"x": 0.1408600032,
				"y": -2.1498040857,
				"z": 3.097117525,
				"element": "H" 
			},
			{
				"x": 2.1571827076,
				"y": -0.8391782509,
				"z": 2.6982467251,
				"element": "H" 
			},
			{
				"x": 0.5694381031,
				"y": -2.9564419997,
				"z": -0.0216694288,
				"element": "H" 
			},
			{
				"x": -0.6919893615,
				"y": -3.4402517449,
				"z": -2.0960182176,
				"element": "H" 
			},
			{
				"x": -0.8840017224,
				"y": -1.7077401962,
				"z": -3.8715348101,
				"element": "H" 
			},
			{
				"x": 0.2047461253,
				"y": 0.506741345,
				"z": -3.5511989334,
				"element": "H" 
			},
			{
				"x": 1.4693131364,
				"y": 0.9797907203,
				"z": -1.479337035,
				"element": "H" 
			},
			{
				"x": 3.658139658,
				"y": -1.2789577586,
				"z": -1.332193666,
				"element": "H" 
			},
			{
				"x": 5.9781843575,
				"y": -0.4759191548,
				"z": -1.5901820797,
				"element": "H" 
			},
			{
				"x": 6.9353033348,
				"y": 1.1364804148,
				"z": 0.0464739602,
				"element": "H" 
			},
			{
				"x": 5.5335849348,
				"y": 1.9399835757,
				"z": 1.9395879766,
				"element": "H" 
			},
			{
				"x": 3.2077614123,
				"y": 1.1468416578,
				"z": 2.1854103621,
				"element": "H" 
			},
			{
				"x": -1.5297131669,
				"y": -3.5601516593,
				"z": 2.3689984525,
				"element": "H" 
			},
			{
				"x": -3.4826989211,
				"y": -4.6993228053,
				"z": 3.3623877768,
				"element": "H" 
			},
			{
				"x": -5.4445114,
				"y": -3.3754839692,
				"z": 4.132445577,
				"element": "H" 
			},
			{
				"x": -5.4193255741,
				"y": -0.8975535257,
				"z": 3.9004710166,
				"element": "H" 
			},
			{
				"x": -3.4586382322,
				"y": 0.2391603471,
				"z": 2.9217815127,
				"element": "H" 
			},
			{
				"x": 0.0010485358,
				"y": 1.5706584463,
				"z": 2.3614054958,
				"element": "H" 
			},
			{
				"x": -0.4273723838,
				"y": 3.6247824932,
				"z": 1.0477260424,
				"element": "H" 
			},
			{
				"x": -2.056175469,
				"y": 3.5852732477,
				"z": -0.8327810522,
				"element": "H" 
			},
			{
				"x": -3.2541504515,
				"y": 1.4733657532,
				"z": -1.3773796715,
				"element": "H" 
			},
			{
				"x": -2.8261546847,
				"y": -0.5724614356,
				"z": -0.0556961871,
				"element": "H" 
			}
		],
		 "valence_orbital": [ 
			{
				"type": "occ",
				"energy": -0.24482,
				"method": "rhf"
			},
			{
				"type": "occ",
				"energy": -0.24299,
				"method": "rhf"
			},
			{
				"type": "occ",
				"energy": -0.24012,
				"method": "rhf"
			},
			{
				"type": "occ",
				"energy": -0.23049,
				"method": "rhf"
			},
			{
				"type": "occ",
				"energy": -0.19306,
				"method": "rhf"
			},
			{
				"type": "unocc",
				"energy": -0.05204,
				"method": "rhf"
			},
			{
				"type": "unocc",
				"energy": -0.00893,
				"method": "rhf"
			},
			{
				"type": "unocc",
				"energy": -0.00383,
				"method": "rhf"
			},
			{
				"type": "unocc",
				"energy": -0.0029,
				"method": "rhf"
			},
			{
				"type": "unocc",
				"energy": -0.00043,
				"method": "rhf"
			}
		],
		"cosmo_sigma_profile": { 
			"-0.025": 0.0,
			"-0.024": 0.0,
			"-0.023": 0.0,
			"-0.022": 0.0,
			"-0.021": 0.0,
			"-0.02": 0.0,
			"-0.019": 0.0,
			"-0.018": 0.0,
			"-0.017": 0.0,
			"-0.016": 0.0,
			"-0.015": 0.0,
			"-0.014": 0.0,
			"-0.013": 0.0,
			"-0.012": 0.0,
			"-0.011": 0.0,
			"-0.01": 0.0,
			"-0.009": 0.0,
			"-0.008": 0.0,
			"-0.007": 0.0,
			"-0.006": 9.41626174799,
			"-0.005": 35.4186781885,
			"-0.004": 45.8678600941,
			"-0.003": 46.0024076888,
			"-0.002": 32.4482219261,
			"-0.001": 33.1540319914,
			"0.0": 27.8583704983,
			"0.001": 32.2125614054,
			"0.002": 32.6896119971,
			"0.003": 41.5500516593,
			"0.004": 38.6258636799,
			"0.005": 32.424755755,
			"0.006": 20.7199102364,
			"0.007": 0.33560304574,
			"0.008": 0.0,
			"0.009": 0.0,
			"0.01": 0.0,
			"0.011": 0.0,
			"0.012": 0.0,
			"0.013": 0.0,
			"0.014": 0.0,
			"0.015": 0.0,
			"0.016": 0.0,
			"0.017": 0.0,
			"0.018": 0.0,
			"0.019": 0.0,
			"0.02": 0.0,
			"0.021": 0.0,
			"0.022": 0.0,
			"0.023": 0.0,
			"0.024": 0.0,
			"0.025": 0.0
		}
	}
}
