{
	 "smiles": "CNC(=O)OC1=CC(C)=C(SC)C(C)=C1", 
	 "Tm": 393.15, 
	 "num_atms": 30, 
	 "gaussian": { 
		 "optdone": 1, 
		 "sigma_profile": "yes", 
		 "theory": "DFT", 
		 "functional": "B3LYP", 
		 "basiset": "6-31G**", 
		 "properties": { 
			 "R2extent": 4949.1256, 
			 "electric_dipole_moment_norm": 3.86480292512, 
			 "electric_quadrupole_moment_norm": 16.8180828964, 
			 "total_energy": -1031.62502592, 
			 "HOMO_LUMO_gap": 0.20497, 
			 "cosmo_polarized_energy": -12.23, 
			 "cosmo_cavitation_energy": 34.93, 
			 "cosmo_dispersion_energy": -24.93, 
			 "cosmo_repulsion_energy": 1.93, 
			 "cosmo_total_nonelectrostatic_energy": 11.93, 
			 "SMD_solvation_energy": 7.07 
		},
		"coords": [
			{
				"x": 2.5126348677,
				"y": -3.9287999382,
				"z": -2.2185943737,
				"element": "C" 
			},
			{
				"x": 1.2267759215,
				"y": -3.4917659074,
				"z": -2.739625418,
				"element": "N" 
			},
			{
				"x": 0.3558081333,
				"y": -2.6439197121,
				"z": -2.124299022,
				"element": "C" 
			},
			{
				"x": -0.7616388307,
				"y": -2.3874544668,
				"z": -2.5238556852,
				"element": "O" 
			},
			{
				"x": 0.9425593658,
				"y": -2.1221280615,
				"z": -0.9942412312,
				"element": "O" 
			},
			{
				"x": 0.2874275189,
				"y": -1.1794807717,
				"z": -0.2088728191,
				"element": "C" 
			},
			{
				"x": -0.4799686996,
				"y": -0.1416248909,
				"z": -0.7294008384,
				"element": "C" 
			},
			{
				"x": -1.0401563176,
				"y": 0.808230671,
				"z": 0.1333942227,
				"element": "C" 
			},
			{
				"x": -1.884298339,
				"y": 1.9130667029,
				"z": -0.4596315854,
				"element": "C" 
			},
			{
				"x": -0.8039387835,
				"y": 0.70939025,
				"z": 1.5224169111,
				"element": "C" 
			},
			{
				"x": -1.549580997,
				"y": 1.9051428553,
				"z": 2.6445574226,
				"element": "S" 
			},
			{
				"x": -0.2415200053,
				"y": 3.191091362,
				"z": 2.7117325189,
				"element": "C" 
			},
			{
				"x": -0.0263654719,
				"y": -0.3479142892,
				"z": 2.0446537609,
				"element": "C" 
			},
			{
				"x": 0.2355204594,
				"y": -0.5024897097,
				"z": 3.5249543187,
				"element": "C" 
			},
			{
				"x": 0.5142167429,
				"y": -1.2852404841,
				"z": 1.1599344398,
				"element": "C" 
			},
			{
				"x": 2.4114260611,
				"y": -4.6154358355,
				"z": -1.3689027665,
				"element": "H" 
			},
			{
				"x": 3.0532114371,
				"y": -4.4408086821,
				"z": -3.0177027848,
				"element": "H" 
			},
			{
				"x": 3.1033573247,
				"y": -3.0690687669,
				"z": -1.8971107425,
				"element": "H" 
			},
			{
				"x": 0.8186770599,
				"y": -3.9809433129,
				"z": -3.5210331914,
				"element": "H" 
			},
			{
				"x": -0.6624730702,
				"y": -0.0839106721,
				"z": -1.7937757902,
				"element": "H" 
			},
			{
				"x": -1.9545518117,
				"y": 1.8022750855,
				"z": -1.5446554526,
				"element": "H" 
			},
			{
				"x": -2.8967696524,
				"y": 1.9063350479,
				"z": -0.0454765077,
				"element": "H" 
			},
			{
				"x": -1.466867237,
				"y": 2.9027319046,
				"z": -0.2460662163,
				"element": "H" 
			},
			{
				"x": -0.6086291738,
				"y": 3.9737213726,
				"z": 3.3802304647,
				"element": "H" 
			},
			{
				"x": 0.6903553945,
				"y": 2.7869568196,
				"z": 3.1135334804,
				"element": "H" 
			},
			{
				"x": -0.059368117,
				"y": 3.6218371186,
				"z": 1.7246482208,
				"element": "H" 
			},
			{
				"x": 0.7620179387,
				"y": 0.3649240017,
				"z": 3.9366434727,
				"element": "H" 
			},
			{
				"x": -0.6977671405,
				"y": -0.5953591203,
				"z": 4.0879741651,
				"element": "H" 
			},
			{
				"x": 0.8452082896,
				"y": -1.3894064902,
				"z": 3.7174309348,
				"element": "H" 
			},
			{
				"x": 1.1185971323,
				"y": -2.1079520802,
				"z": 1.5284400919,
				"element": "H" 
			}
		],
		 "valence_orbital": [ 
			{
				"type": "occ",
				"energy": -0.27427,
				"method": "rhf"
			},
			{
				"type": "occ",
				"energy": -0.25882,
				"method": "rhf"
			},
			{
				"type": "occ",
				"energy": -0.23762,
				"method": "rhf"
			},
			{
				"type": "occ",
				"energy": -0.22866,
				"method": "rhf"
			},
			{
				"type": "occ",
				"energy": -0.21976,
				"method": "rhf"
			},
			{
				"type": "unocc",
				"energy": -0.01479,
				"method": "rhf"
			},
			{
				"type": "unocc",
				"energy": 0.00429,
				"method": "rhf"
			},
			{
				"type": "unocc",
				"energy": 0.04746,
				"method": "rhf"
			},
			{
				"type": "unocc",
				"energy": 0.06286,
				"method": "rhf"
			},
			{
				"type": "unocc",
				"energy": 0.07739,
				"method": "rhf"
			}
		],
		"cosmo_sigma_profile": { 
			"-0.025": 0.0,
			"-0.024": 0.0,
			"-0.023": 0.0,
			"-0.022": 0.0,
			"-0.021": 0.0,
			"-0.02": 0.0,
			"-0.019": 0.0,
			"-0.018": 0.0,
			"-0.017": 0.0,
			"-0.016": 0.0,
			"-0.015": 0.254614109878,
			"-0.014": 1.32864634292,
			"-0.013": 1.12280041681,
			"-0.012": 0.992793842841,
			"-0.011": 0.774421893447,
			"-0.01": 1.07234629295,
			"-0.009": 0.807222413194,
			"-0.008": 1.06938732552,
			"-0.007": 2.1508373059,
			"-0.006": 6.73604525606,
			"-0.005": 17.4028967371,
			"-0.004": 23.5261904326,
			"-0.003": 25.2207187993,
			"-0.002": 30.8303996838,
			"-0.001": 27.4813255867,
			"0.0": 28.6300942013,
			"0.001": 21.5664805012,
			"0.002": 15.6633571268,
			"0.003": 15.3834129327,
			"0.004": 16.7445750523,
			"0.005": 9.45389618998,
			"0.006": 5.23094102864,
			"0.007": 4.64137459749,
			"0.008": 3.71182117746,
			"0.009": 3.35310745896,
			"0.01": 1.63576313882,
			"0.011": 1.92664835224,
			"0.012": 3.24374195584,
			"0.013": 4.81492815729,
			"0.014": 0.434284631918,
			"0.015": 0.0,
			"0.016": 0.0,
			"0.017": 0.0,
			"0.018": 0.0,
			"0.019": 0.0,
			"0.02": 0.0,
			"0.021": 0.0,
			"0.022": 0.0,
			"0.023": 0.0,
			"0.024": 0.0,
			"0.025": 0.0
		}
	}
}
