{
	 "smiles": "N1C=NC(=C1)C1=CC=NC=C1", 
	 "Tm": 445.15, 
	 "num_atms": 18, 
	 "gaussian": { 
		 "optdone": 1, 
		 "sigma_profile": "yes", 
		 "theory": "DFT", 
		 "functional": "B3LYP", 
		 "basiset": "6-31G**", 
		 "properties": { 
			 "R2extent": 2281.2044, 
			 "electric_dipole_moment_norm": 6.17325608168, 
			 "electric_quadrupole_moment_norm": 5.66094940006, 
			 "total_energy": -473.317769061, 
			 "HOMO_LUMO_gap": 0.19279, 
			 "cosmo_polarized_energy": -16.52, 
			 "cosmo_cavitation_energy": 22.44, 
			 "cosmo_dispersion_energy": -16.98, 
			 "cosmo_repulsion_energy": 1.34, 
			 "cosmo_total_nonelectrostatic_energy": 6.8, 
			 "SMD_solvation_energy": 1.68 
		},
		"coords": [
			{
				"x": -0.316591752,
				"y": 2.0260636829,
				"z": 0.0233500338,
				"element": "N" 
			},
			{
				"x": 0.4837586843,
				"y": 1.9287262189,
				"z": 1.1290813472,
				"element": "C" 
			},
			{
				"x": 0.9999953559,
				"y": 0.7294583275,
				"z": 1.2471790322,
				"element": "N" 
			},
			{
				"x": 0.5195050397,
				"y": 0.00195835,
				"z": 0.1718710328,
				"element": "C" 
			},
			{
				"x": -0.303421239,
				"y": 0.7996153909,
				"z": -0.5995090799,
				"element": "C" 
			},
			{
				"x": 0.8909959495,
				"y": -1.4026399234,
				"z": -0.0267329537,
				"element": "C" 
			},
			{
				"x": 1.7496597507,
				"y": -2.046528395,
				"z": 0.8764783803,
				"element": "C" 
			},
			{
				"x": 2.0836186012,
				"y": -3.3810310409,
				"z": 0.6604125556,
				"element": "C" 
			},
			{
				"x": 1.6360707171,
				"y": -4.1134298245,
				"z": -0.3693025016,
				"element": "N" 
			},
			{
				"x": 0.8163748992,
				"y": -3.4927879341,
				"z": -1.228383008,
				"element": "C" 
			},
			{
				"x": 0.4187590731,
				"y": -2.1639326702,
				"z": -1.1072115519,
				"element": "C" 
			},
			{
				"x": -0.8239997839,
				"y": 2.8425392901,
				"z": -0.2825121535,
				"element": "H" 
			},
			{
				"x": 0.6470276492,
				"y": 2.7604501939,
				"z": 1.8005347643,
				"element": "H" 
			},
			{
				"x": -0.8619262789,
				"y": 0.6146568063,
				"z": -1.5033679695,
				"element": "H" 
			},
			{
				"x": 2.1406893885,
				"y": -1.5002220443,
				"z": 1.7271955037,
				"element": "H" 
			},
			{
				"x": 2.7493755212,
				"y": -3.8912389981,
				"z": 1.3550239846,
				"element": "H" 
			},
			{
				"x": 0.4550621861,
				"y": -4.0913687018,
				"z": -2.0635486673,
				"element": "H" 
			},
			{
				"x": -0.249653762,
				"y": -1.7352887284,
				"z": -1.848258749,
				"element": "H" 
			}
		],
		 "valence_orbital": [ 
			{
				"type": "occ",
				"energy": -0.27949,
				"method": "rhf"
			},
			{
				"type": "occ",
				"energy": -0.27724,
				"method": "rhf"
			},
			{
				"type": "occ",
				"energy": -0.25022,
				"method": "rhf"
			},
			{
				"type": "occ",
				"energy": -0.24231,
				"method": "rhf"
			},
			{
				"type": "occ",
				"energy": -0.22314,
				"method": "rhf"
			},
			{
				"type": "unocc",
				"energy": -0.03035,
				"method": "rhf"
			},
			{
				"type": "unocc",
				"energy": 0.00026,
				"method": "rhf"
			},
			{
				"type": "unocc",
				"energy": 0.02288,
				"method": "rhf"
			},
			{
				"type": "unocc",
				"energy": 0.06244,
				"method": "rhf"
			},
			{
				"type": "unocc",
				"energy": 0.08158,
				"method": "rhf"
			}
		],
		"cosmo_sigma_profile": { 
			"-0.025": 0.0,
			"-0.024": 0.0,
			"-0.023": 0.0,
			"-0.022": 0.0,
			"-0.021": 0.0,
			"-0.02": 0.0,
			"-0.019": 0.0,
			"-0.018": 0.0,
			"-0.017": 1.24801978641,
			"-0.016": 1.83697811986,
			"-0.015": 1.56881990666,
			"-0.014": 1.28089287216,
			"-0.013": 1.12865393979,
			"-0.012": 1.18800747712,
			"-0.011": 1.21869169871,
			"-0.01": 1.89758677098,
			"-0.009": 6.34021906587,
			"-0.008": 6.36859871311,
			"-0.007": 4.44087596477,
			"-0.006": 7.92797811837,
			"-0.005": 9.64270798436,
			"-0.004": 9.2812352796,
			"-0.003": 7.92799077784,
			"-0.002": 7.67121692484,
			"-0.001": 6.94197487595,
			"0.0": 9.18427252756,
			"0.001": 9.66540407753,
			"0.002": 14.3701550986,
			"0.003": 25.3995719608,
			"0.004": 10.9650367817,
			"0.005": 5.61320701863,
			"0.006": 4.15762676583,
			"0.007": 3.2021422858,
			"0.008": 2.83338705986,
			"0.009": 3.70274949249,
			"0.01": 1.9711146709,
			"0.011": 2.33261267806,
			"0.012": 1.37250499915,
			"0.013": 2.83754291295,
			"0.014": 1.95696703066,
			"0.015": 1.55031602916,
			"0.016": 1.04907895304,
			"0.017": 0.724463577998,
			"0.018": 0.0893728387647,
			"0.019": 0.0,
			"0.02": 0.0,
			"0.021": 0.0,
			"0.022": 0.0,
			"0.023": 0.0,
			"0.024": 0.0,
			"0.025": 0.0
		}
	}
}
