{
	 "smiles": "CC(=O)OC1=CC2=CC(OC(C)=O)=CC=C2C=C1", 
	 "Tm": 404.15, 
	 "num_atms": 30, 
	 "gaussian": { 
		 "optdone": 1, 
		 "sigma_profile": "yes", 
		 "theory": "DFT", 
		 "functional": "B3LYP", 
		 "basiset": "6-31G**", 
		 "properties": { 
			 "R2extent": 6996.7503, 
			 "electric_dipole_moment_norm": 1.7670816761, 
			 "electric_quadrupole_moment_norm": 22.4147081116, 
			 "total_energy": -841.648308883, 
			 "HOMO_LUMO_gap": 0.17371, 
			 "cosmo_polarized_energy": -11.96, 
			 "cosmo_cavitation_energy": 35.49, 
			 "cosmo_dispersion_energy": -25.72, 
			 "cosmo_repulsion_energy": 1.99, 
			 "cosmo_total_nonelectrostatic_energy": 11.76, 
			 "SMD_solvation_energy": 8.48 
		},
		"coords": [
			{
				"x": -2.2687797029,
				"y": 4.4238315652,
				"z": -4.3064401967,
				"element": "C" 
			},
			{
				"x": -1.8093586454,
				"y": 3.5900664148,
				"z": -3.1343156879,
				"element": "C" 
			},
			{
				"x": -1.2453245782,
				"y": 4.0140875794,
				"z": -2.1536637743,
				"element": "O" 
			},
			{
				"x": -2.1323592107,
				"y": 2.2830266381,
				"z": -3.3590975563,
				"element": "O" 
			},
			{
				"x": -1.8634997988,
				"y": 1.2242111493,
				"z": -2.4929403283,
				"element": "C" 
			},
			{
				"x": -1.2060632434,
				"y": 1.3028231519,
				"z": -1.2846308323,
				"element": "C" 
			},
			{
				"x": -1.0103183016,
				"y": 0.1165952635,
				"z": -0.5233466349,
				"element": "C" 
			},
			{
				"x": -0.3355357797,
				"y": 0.1491076878,
				"z": 0.7250644592,
				"element": "C" 
			},
			{
				"x": -0.1574286211,
				"y": -1.0077493578,
				"z": 1.4457368911,
				"element": "C" 
			},
			{
				"x": 0.4384056707,
				"y": -0.8759503714,
				"z": 2.7018573223,
				"element": "O" 
			},
			{
				"x": 1.4504810302,
				"y": -1.7179838572,
				"z": 3.0858426657,
				"element": "C" 
			},
			{
				"x": 1.9084085809,
				"y": -1.354758535,
				"z": 4.4766385993,
				"element": "C" 
			},
			{
				"x": 1.8955401183,
				"y": -2.6047370052,
				"z": 2.4002281044,
				"element": "O" 
			},
			{
				"x": -0.6377863942,
				"y": -2.2544057561,
				"z": 0.978838799,
				"element": "C" 
			},
			{
				"x": -1.290819983,
				"y": -2.30602917,
				"z": -0.2310189406,
				"element": "C" 
			},
			{
				"x": -1.4946240526,
				"y": -1.1385010047,
				"z": -1.0125690996,
				"element": "C" 
			},
			{
				"x": -2.1661130957,
				"y": -1.1640691048,
				"z": -2.2643885938,
				"element": "C" 
			},
			{
				"x": -2.3478293985,
				"y": -0.013179533,
				"z": -2.9898989881,
				"element": "C" 
			},
			{
				"x": -3.3494821238,
				"y": 4.3205998437,
				"z": -4.4412889472,
				"element": "H" 
			},
			{
				"x": -2.0135178525,
				"y": 5.4674289876,
				"z": -4.1262639115,
				"element": "H" 
			},
			{
				"x": -1.7901653916,
				"y": 4.0751278208,
				"z": -5.2263224879,
				"element": "H" 
			},
			{
				"x": -0.841232281,
				"y": 2.2486658629,
				"z": -0.9134769362,
				"element": "H" 
			},
			{
				"x": 0.0378156517,
				"y": 1.0885734857,
				"z": 1.1197229732,
				"element": "H" 
			},
			{
				"x": 2.2737637987,
				"y": -0.3236814956,
				"z": 4.4925327852,
				"element": "H" 
			},
			{
				"x": 2.7009598025,
				"y": -2.0354991871,
				"z": 4.7850612404,
				"element": "H" 
			},
			{
				"x": 1.0689064346,
				"y": -1.4130520509,
				"z": 5.1755476391,
				"element": "H" 
			},
			{
				"x": -0.4798443665,
				"y": -3.148861078,
				"z": 1.5671977476,
				"element": "H" 
			},
			{
				"x": -1.6624006469,
				"y": -3.2570437104,
				"z": -0.6030739401,
				"element": "H" 
			},
			{
				"x": -2.5372102964,
				"y": -2.1117086826,
				"z": -2.645136251,
				"element": "H" 
			},
			{
				"x": -2.8581873233,
				"y": -0.019235551,
				"z": -3.9470961197,
				"element": "H" 
			}
		],
		 "valence_orbital": [ 
			{
				"type": "occ",
				"energy": -0.28822,
				"method": "rhf"
			},
			{
				"type": "occ",
				"energy": -0.27768,
				"method": "rhf"
			},
			{
				"type": "occ",
				"energy": -0.27655,
				"method": "rhf"
			},
			{
				"type": "occ",
				"energy": -0.23456,
				"method": "rhf"
			},
			{
				"type": "occ",
				"energy": -0.21644,
				"method": "rhf"
			},
			{
				"type": "unocc",
				"energy": -0.04273,
				"method": "rhf"
			},
			{
				"type": "unocc",
				"energy": -0.01949,
				"method": "rhf"
			},
			{
				"type": "unocc",
				"energy": 0.00495,
				"method": "rhf"
			},
			{
				"type": "unocc",
				"energy": 0.01189,
				"method": "rhf"
			},
			{
				"type": "unocc",
				"energy": 0.03283,
				"method": "rhf"
			}
		],
		"cosmo_sigma_profile": { 
			"-0.025": 0.0,
			"-0.024": 0.0,
			"-0.023": 0.0,
			"-0.022": 0.0,
			"-0.021": 0.0,
			"-0.02": 0.0,
			"-0.019": 0.0,
			"-0.018": 0.0,
			"-0.017": 0.0,
			"-0.016": 0.0,
			"-0.015": 0.0,
			"-0.014": 0.0,
			"-0.013": 0.0,
			"-0.012": 0.0,
			"-0.011": 0.0,
			"-0.01": 0.0,
			"-0.009": 0.0,
			"-0.008": 0.0289562273691,
			"-0.007": 11.060511501,
			"-0.006": 21.8990631539,
			"-0.005": 23.155711852,
			"-0.004": 23.6081580605,
			"-0.003": 22.0945966473,
			"-0.002": 24.0972198536,
			"-0.001": 17.6998647615,
			"0.0": 14.5459795051,
			"0.001": 16.2507795262,
			"0.002": 21.6236449723,
			"0.003": 33.7320900299,
			"0.004": 14.5245882388,
			"0.005": 7.68089521622,
			"0.006": 4.35942639382,
			"0.007": 4.5007792488,
			"0.008": 3.61888578476,
			"0.009": 3.95041330203,
			"0.01": 5.48436033495,
			"0.011": 6.73753094899,
			"0.012": 3.38282001977,
			"0.013": 0.155926834996,
			"0.014": 0.0,
			"0.015": 0.0,
			"0.016": 0.0,
			"0.017": 0.0,
			"0.018": 0.0,
			"0.019": 0.0,
			"0.02": 0.0,
			"0.021": 0.0,
			"0.022": 0.0,
			"0.023": 0.0,
			"0.024": 0.0,
			"0.025": 0.0
		}
	}
}
