{
	 "smiles": "NS(=O)(=O)C1=C(F)C=C(C=C1)C(O)=O", 
	 "Tm": 548.15, 
	 "num_atms": 20, 
	 "gaussian": { 
		 "optdone": 1, 
		 "sigma_profile": "yes", 
		 "theory": "DFT", 
		 "functional": "B3LYP", 
		 "basiset": "6-31G**", 
		 "properties": { 
			 "R2extent": 3974.7777, 
			 "electric_dipole_moment_norm": 5.52489197541, 
			 "electric_quadrupole_moment_norm": 18.0801198157, 
			 "total_energy": -1123.97205661, 
			 "HOMO_LUMO_gap": 0.19599, 
			 "cosmo_polarized_energy": -21.11, 
			 "cosmo_cavitation_energy": 27.09, 
			 "cosmo_dispersion_energy": -20.45, 
			 "cosmo_repulsion_energy": 1.53, 
			 "cosmo_total_nonelectrostatic_energy": 8.17, 
			 "SMD_solvation_energy": 5.92 
		},
		"coords": [
			{
				"x": -0.060826233,
				"y": -2.4723400061,
				"z": -1.8763409482,
				"element": "N" 
			},
			{
				"x": -1.3682089557,
				"y": -2.2212093829,
				"z": -0.8670846324,
				"element": "S" 
			},
			{
				"x": -2.4395863345,
				"y": -1.6873842871,
				"z": -1.7045311434,
				"element": "O" 
			},
			{
				"x": -1.5210615025,
				"y": -3.430444011,
				"z": -0.0672097186,
				"element": "O" 
			},
			{
				"x": -0.8887726142,
				"y": -0.8889763429,
				"z": 0.2523636008,
				"element": "C" 
			},
			{
				"x": 0.2771100426,
				"y": -0.9719132513,
				"z": 1.0153090656,
				"element": "C" 
			},
			{
				"x": 1.095513533,
				"y": -2.0354233441,
				"z": 0.8545350245,
				"element": "F" 
			},
			{
				"x": 0.6347649318,
				"y": 0.0183279473,
				"z": 1.9148676924,
				"element": "C" 
			},
			{
				"x": -0.2109521477,
				"y": 1.1262713236,
				"z": 2.0600026548,
				"element": "C" 
			},
			{
				"x": -1.3846140284,
				"y": 1.2274366363,
				"z": 1.3029266272,
				"element": "C" 
			},
			{
				"x": -1.7223364685,
				"y": 0.2218684483,
				"z": 0.4007650506,
				"element": "C" 
			},
			{
				"x": 0.1058116613,
				"y": 2.2312420244,
				"z": 3.0113417998,
				"element": "C" 
			},
			{
				"x": 1.2591735885,
				"y": 2.0259130062,
				"z": 3.6890562666,
				"element": "O" 
			},
			{
				"x": -0.5841874467,
				"y": 3.215914549,
				"z": 3.1726068248,
				"element": "O" 
			},
			{
				"x": 0.0932569144,
				"y": -1.7047880474,
				"z": -2.5222134691,
				"element": "H" 
			},
			{
				"x": 0.7717696411,
				"y": -2.7608188911,
				"z": -1.371862019,
				"element": "H" 
			},
			{
				"x": 1.5489384781,
				"y": -0.075866335,
				"z": 2.4876863806,
				"element": "H" 
			},
			{
				"x": -2.0173442024,
				"y": 2.0975386896,
				"z": 1.4353419148,
				"element": "H" 
			},
			{
				"x": -2.6240502181,
				"y": 0.2785033565,
				"z": -0.1988966153,
				"element": "H" 
			},
			{
				"x": 1.3691013609,
				"y": 2.7923479177,
				"z": 4.2758356435,
				"element": "H" 
			}
		],
		 "valence_orbital": [ 
			{
				"type": "occ",
				"energy": -0.31632,
				"method": "rhf"
			},
			{
				"type": "occ",
				"energy": -0.3116,
				"method": "rhf"
			},
			{
				"type": "occ",
				"energy": -0.29927,
				"method": "rhf"
			},
			{
				"type": "occ",
				"energy": -0.2908,
				"method": "rhf"
			},
			{
				"type": "occ",
				"energy": -0.27983,
				"method": "rhf"
			},
			{
				"type": "unocc",
				"energy": -0.08384,
				"method": "rhf"
			},
			{
				"type": "unocc",
				"energy": -0.03583,
				"method": "rhf"
			},
			{
				"type": "unocc",
				"energy": 0.01992,
				"method": "rhf"
			},
			{
				"type": "unocc",
				"energy": 0.04111,
				"method": "rhf"
			},
			{
				"type": "unocc",
				"energy": 0.05423,
				"method": "rhf"
			}
		],
		"cosmo_sigma_profile": { 
			"-0.025": 0.0,
			"-0.024": 0.0,
			"-0.023": 0.0,
			"-0.022": 0.0,
			"-0.021": 0.0,
			"-0.02": 0.00399090438705,
			"-0.019": 0.536177812055,
			"-0.018": 0.980770439227,
			"-0.017": 1.09998048827,
			"-0.016": 1.40087592601,
			"-0.015": 2.4178356243,
			"-0.014": 2.41908005734,
			"-0.013": 3.30494048602,
			"-0.012": 3.5785287233,
			"-0.011": 2.76231313334,
			"-0.01": 2.91167215366,
			"-0.009": 3.08605821334,
			"-0.008": 4.75924788201,
			"-0.007": 7.65804588667,
			"-0.006": 7.66004779687,
			"-0.005": 5.65467192343,
			"-0.004": 9.31824630701,
			"-0.003": 11.6989639537,
			"-0.002": 15.9188376601,
			"-0.001": 19.1073901459,
			"0.0": 15.8648767533,
			"0.001": 11.4874843464,
			"0.002": 8.34323321338,
			"0.003": 8.62333513847,
			"0.004": 6.99517149997,
			"0.005": 5.68419482615,
			"0.006": 7.17547933143,
			"0.007": 5.89426760822,
			"0.008": 6.25987204727,
			"0.009": 7.05236176185,
			"0.01": 13.7560577044,
			"0.011": 12.7271345443,
			"0.012": 1.11442150597,
			"0.013": 0.0,
			"0.014": 0.0,
			"0.015": 0.0,
			"0.016": 0.0,
			"0.017": 0.0,
			"0.018": 0.0,
			"0.019": 0.0,
			"0.02": 0.0,
			"0.021": 0.0,
			"0.022": 0.0,
			"0.023": 0.0,
			"0.024": 0.0,
			"0.025": 0.0
		}
	}
}
