{
	 "smiles": "CC1=CC(C2=CC=CC=C2)=C2C=CC3=C(N=C(C)C=C3C3=CC=CC=C3)C2=N1", 
	 "Tm": 555.15, 
	 "num_atms": 48, 
	 "gaussian": { 
		 "optdone": 1, 
		 "sigma_profile": "yes", 
		 "theory": "DFT", 
		 "functional": "B3LYP", 
		 "basiset": "6-31G**", 
		 "properties": { 
			 "R2extent": 13185.6421, 
			 "electric_dipole_moment_norm": 2.86898504353, 
			 "electric_quadrupole_moment_norm": 18.6065391075, 
			 "total_energy": -1112.36754632, 
			 "HOMO_LUMO_gap": 0.16538, 
			 "cosmo_polarized_energy": -15.71, 
			 "cosmo_cavitation_energy": 51.35, 
			 "cosmo_dispersion_energy": -36.17, 
			 "cosmo_repulsion_energy": 2.73, 
			 "cosmo_total_nonelectrostatic_energy": 17.91, 
			 "SMD_solvation_energy": 5.51 
		},
		"coords": [
			{
				"x": 2.9232546858,
				"y": -2.7139384008,
				"z": 3.4325454498,
				"element": "C" 
			},
			{
				"x": 2.4892450304,
				"y": -1.9015509167,
				"z": 2.2367934503,
				"element": "C" 
			},
			{
				"x": 3.4474493244,
				"y": -1.2194258511,
				"z": 1.4509369708,
				"element": "C" 
			},
			{
				"x": 3.0524453528,
				"y": -0.4664359422,
				"z": 0.3589790846,
				"element": "C" 
			},
			{
				"x": 4.0791541606,
				"y": 0.2696815374,
				"z": -0.4305926589,
				"element": "C" 
			},
			{
				"x": 5.1889340609,
				"y": -0.4137267349,
				"z": -0.9530375921,
				"element": "C" 
			},
			{
				"x": 6.1815246596,
				"y": 0.2686886375,
				"z": -1.6566324681,
				"element": "C" 
			},
			{
				"x": 6.0856106554,
				"y": 1.6484901253,
				"z": -1.84468116,
				"element": "C" 
			},
			{
				"x": 4.9907704426,
				"y": 2.341224061,
				"z": -1.3237979789,
				"element": "C" 
			},
			{
				"x": 3.9956323628,
				"y": 1.6588495091,
				"z": -0.6242274066,
				"element": "C" 
			},
			{
				"x": 1.6582992191,
				"y": -0.4319802103,
				"z": 0.0429165629,
				"element": "C" 
			},
			{
				"x": 1.1291138992,
				"y": 0.2509535743,
				"z": -1.1003287271,
				"element": "C" 
			},
			{
				"x": -0.2065297302,
				"y": 0.2497805457,
				"z": -1.3735977766,
				"element": "C" 
			},
			{
				"x": -1.141132055,
				"y": -0.4338632904,
				"z": -0.5294509388,
				"element": "C" 
			},
			{
				"x": -0.6643428883,
				"y": -1.1138344273,
				"z": 0.6280614102,
				"element": "C" 
			},
			{
				"x": -1.4837807709,
				"y": -1.7426922261,
				"z": 1.5031749023,
				"element": "N" 
			},
			{
				"x": -2.7896551621,
				"y": -1.7202963494,
				"z": 1.2845565927,
				"element": "C" 
			},
			{
				"x": -3.6724471769,
				"y": -2.4206669912,
				"z": 2.2887178393,
				"element": "C" 
			},
			{
				"x": -3.3572111563,
				"y": -1.0845816971,
				"z": 0.1555026773,
				"element": "C" 
			},
			{
				"x": -2.5502802277,
				"y": -0.4489169443,
				"z": -0.7719571192,
				"element": "C" 
			},
			{
				"x": -3.1716697915,
				"y": 0.1832611258,
				"z": -1.9692919981,
				"element": "C" 
			},
			{
				"x": -4.2046053871,
				"y": 1.1215704905,
				"z": -1.8136062247,
				"element": "C" 
			},
			{
				"x": -4.8268618871,
				"y": 1.6897534982,
				"z": -2.9253161786,
				"element": "C" 
			},
			{
				"x": -4.4318413824,
				"y": 1.3246185034,
				"z": -4.2133611579,
				"element": "C" 
			},
			{
				"x": -3.410876684,
				"y": 0.3870549143,
				"z": -4.382038526,
				"element": "C" 
			},
			{
				"x": -2.7851031766,
				"y": -0.1779755066,
				"z": -3.2709503238,
				"element": "C" 
			},
			{
				"x": 0.769972425,
				"y": -1.1398828989,
				"z": 0.9027349971,
				"element": "C" 
			},
			{
				"x": 1.1921441807,
				"y": -1.8502745988,
				"z": 1.9750467714,
				"element": "N" 
			},
			{
				"x": 2.0472816889,
				"y": -3.1542871051,
				"z": 3.9106194693,
				"element": "H" 
			},
			{
				"x": 3.4519391158,
				"y": -2.0913018303,
				"z": 4.1639516054,
				"element": "H" 
			},
			{
				"x": 3.6091729802,
				"y": -3.517132345,
				"z": 3.1381319425,
				"element": "H" 
			},
			{
				"x": 4.497850398,
				"y": -1.2629945621,
				"z": 1.724505407,
				"element": "H" 
			},
			{
				"x": 5.2616364479,
				"y": -1.4887585457,
				"z": -0.8158427531,
				"element": "H" 
			},
			{
				"x": 7.0285252143,
				"y": -0.2789472594,
				"z": -2.0601231588,
				"element": "H" 
			},
			{
				"x": 6.8587013105,
				"y": 2.1805921586,
				"z": -2.3914153857,
				"element": "H" 
			},
			{
				"x": 4.9133355479,
				"y": 3.4166523254,
				"z": -1.4563462496,
				"element": "H" 
			},
			{
				"x": 3.1556824608,
				"y": 2.2060505807,
				"z": -0.2068804382,
				"element": "H" 
			},
			{
				"x": 1.8118083791,
				"y": 0.7703174914,
				"z": -1.762911288,
				"element": "H" 
			},
			{
				"x": -0.5770229764,
				"y": 0.7829779986,
				"z": -2.2414978993,
				"element": "H" 
			},
			{
				"x": -4.2534128184,
				"y": -3.2210728091,
				"z": 1.8154549362,
				"element": "H" 
			},
			{
				"x": -4.3904726809,
				"y": -1.7247109401,
				"z": 2.7385641942,
				"element": "H" 
			},
			{
				"x": -3.0550261117,
				"y": -2.8513266587,
				"z": 3.0780917698,
				"element": "H" 
			},
			{
				"x": -4.431740804,
				"y": -1.1213246601,
				"z": 0.0002130586,
				"element": "H" 
			},
			{
				"x": -4.5078744254,
				"y": 1.4140792963,
				"z": -0.8124706545,
				"element": "H" 
			},
			{
				"x": -5.6186969691,
				"y": 2.4199862993,
				"z": -2.7843294889,
				"element": "H" 
			},
			{
				"x": -4.9167501967,
				"y": 1.7657352043,
				"z": -5.0793844305,
				"element": "H" 
			},
			{
				"x": -3.1042626642,
				"y": 0.0892209509,
				"z": -5.3807345481,
				"element": "H" 
			},
			{
				"x": -2.0036868799,
				"y": -0.9192391261,
				"z": -3.4089945616,
				"element": "H" 
			}
		],
		 "valence_orbital": [ 
			{
				"type": "occ",
				"energy": -0.2493,
				"method": "rhf"
			},
			{
				"type": "occ",
				"energy": -0.24699,
				"method": "rhf"
			},
			{
				"type": "occ",
				"energy": -0.23071,
				"method": "rhf"
			},
			{
				"type": "occ",
				"energy": -0.2289,
				"method": "rhf"
			},
			{
				"type": "occ",
				"energy": -0.21261,
				"method": "rhf"
			},
			{
				"type": "unocc",
				"energy": -0.04723,
				"method": "rhf"
			},
			{
				"type": "unocc",
				"energy": -0.04613,
				"method": "rhf"
			},
			{
				"type": "unocc",
				"energy": -0.01266,
				"method": "rhf"
			},
			{
				"type": "unocc",
				"energy": -0.01122,
				"method": "rhf"
			},
			{
				"type": "unocc",
				"energy": -0.00639,
				"method": "rhf"
			}
		],
		"cosmo_sigma_profile": { 
			"-0.025": 0.0,
			"-0.024": 0.0,
			"-0.023": 0.0,
			"-0.022": 0.0,
			"-0.021": 0.0,
			"-0.02": 0.0,
			"-0.019": 0.0,
			"-0.018": 0.0,
			"-0.017": 0.0,
			"-0.016": 0.0,
			"-0.015": 0.0,
			"-0.014": 0.0,
			"-0.013": 0.0,
			"-0.012": 0.0,
			"-0.011": 0.0,
			"-0.01": 0.0,
			"-0.009": 0.0,
			"-0.008": 0.0,
			"-0.007": 0.311327115013,
			"-0.006": 15.3183883223,
			"-0.005": 31.2922498544,
			"-0.004": 44.9501686027,
			"-0.003": 40.8693551645,
			"-0.002": 35.3296446575,
			"-0.001": 31.3194676579,
			"0.0": 37.5901832501,
			"0.001": 41.6355802119,
			"0.002": 41.3455540401,
			"0.003": 25.5084007375,
			"0.004": 22.4566644204,
			"0.005": 19.6606890144,
			"0.006": 5.62997945855,
			"0.007": 2.54510030716,
			"0.008": 1.65607658522,
			"0.009": 1.95508846397,
			"0.01": 2.13125197974,
			"0.011": 0.912963802324,
			"0.012": 1.03302124603,
			"0.013": 0.58800452796,
			"0.014": 1.26760087454,
			"0.015": 1.18319615298,
			"0.016": 0.688776854448,
			"0.017": 0.986656543286,
			"0.018": 1.27023064186,
			"0.019": 0.40179137051,
			"0.02": 0.608765621113,
			"0.021": 0.285363287691,
			"0.022": 0.885350273659,
			"0.023": 0.086644195119,
			"0.024": 0.0,
			"0.025": 0.0
		}
	}
}
