{
	 "smiles": "S=C1NCCO1", 
	 "Tm": 369.15, 
	 "num_atms": 11, 
	 "gaussian": { 
		 "optdone": 1, 
		 "sigma_profile": "yes", 
		 "theory": "DFT", 
		 "functional": "B3LYP", 
		 "basiset": "6-31G**", 
		 "properties": { 
			 "R2extent": 1046.3852, 
			 "electric_dipole_moment_norm": 6.27036234519, 
			 "electric_quadrupole_moment_norm": 13.2590107059, 
			 "total_energy": -645.489619976, 
			 "HOMO_LUMO_gap": 0.19982, 
			 "cosmo_polarized_energy": -16.57, 
			 "cosmo_cavitation_energy": 16.2, 
			 "cosmo_dispersion_energy": -13.15, 
			 "cosmo_repulsion_energy": 1.1, 
			 "cosmo_total_nonelectrostatic_energy": 4.15, 
			 "SMD_solvation_energy": 1.43 
		},
		"coords": [
			{
				"x": 0.1679484947,
				"y": -2.9354754076,
				"z": 1.4189461643,
				"element": "S" 
			},
			{
				"x": 0.3289438069,
				"y": -1.6274050628,
				"z": 0.4254687139,
				"element": "C" 
			},
			{
				"x": 1.4332210995,
				"y": -0.8494932757,
				"z": 0.2456556276,
				"element": "N" 
			},
			{
				"x": 1.1246421738,
				"y": 0.3736085752,
				"z": -0.481203403,
				"element": "C" 
			},
			{
				"x": -0.1585932269,
				"y": -0.0834188851,
				"z": -1.1928470197,
				"element": "C" 
			},
			{
				"x": -0.664317161,
				"y": -1.1555756335,
				"z": -0.3660114453,
				"element": "O" 
			},
			{
				"x": 2.1965809411,
				"y": -0.9337074367,
				"z": 0.8993589928,
				"element": "H" 
			},
			{
				"x": 0.9451658172,
				"y": 1.219828463,
				"z": 0.1964620271,
				"element": "H" 
			},
			{
				"x": 1.9169780366,
				"y": 0.6465025547,
				"z": -1.1837027374,
				"element": "H" 
			},
			{
				"x": 0.0495611758,
				"y": -0.4867247649,
				"z": -2.1897487288,
				"element": "H" 
			},
			{
				"x": -0.9274311577,
				"y": 0.6872608735,
				"z": -1.2619781915,
				"element": "H" 
			}
		],
		 "valence_orbital": [ 
			{
				"type": "occ",
				"energy": -0.38279,
				"method": "rhf"
			},
			{
				"type": "occ",
				"energy": -0.36853,
				"method": "rhf"
			},
			{
				"type": "occ",
				"energy": -0.29233,
				"method": "rhf"
			},
			{
				"type": "occ",
				"energy": -0.22723,
				"method": "rhf"
			},
			{
				"type": "occ",
				"energy": -0.21198,
				"method": "rhf"
			},
			{
				"type": "unocc",
				"energy": -0.01216,
				"method": "rhf"
			},
			{
				"type": "unocc",
				"energy": 0.0595,
				"method": "rhf"
			},
			{
				"type": "unocc",
				"energy": 0.08662,
				"method": "rhf"
			},
			{
				"type": "unocc",
				"energy": 0.09551,
				"method": "rhf"
			},
			{
				"type": "unocc",
				"energy": 0.10892,
				"method": "rhf"
			}
		],
		"cosmo_sigma_profile": { 
			"-0.025": 0.0,
			"-0.024": 0.0,
			"-0.023": 0.0,
			"-0.022": 0.0,
			"-0.021": 0.0,
			"-0.02": 0.0,
			"-0.019": 0.0,
			"-0.018": 0.0,
			"-0.017": 0.0,
			"-0.016": 0.422693105033,
			"-0.015": 1.5504816631,
			"-0.014": 0.895133490709,
			"-0.013": 1.31823207474,
			"-0.012": 0.945376233147,
			"-0.011": 0.64069936568,
			"-0.01": 0.829241425278,
			"-0.009": 1.2700363652,
			"-0.008": 3.63767654107,
			"-0.007": 15.5696543878,
			"-0.006": 16.1349157164,
			"-0.005": 10.5062826551,
			"-0.004": 6.75257007488,
			"-0.003": 2.92726228684,
			"-0.002": 3.38243628545,
			"-0.001": 2.67586527016,
			"0.0": 2.47358855688,
			"0.001": 2.19955113951,
			"0.002": 3.58710060996,
			"0.003": 4.73445198692,
			"0.004": 3.83307523673,
			"0.005": 3.7341969798,
			"0.006": 4.36172470544,
			"0.007": 5.41667035202,
			"0.008": 5.84407375417,
			"0.009": 8.93080490714,
			"0.01": 8.0825430748,
			"0.011": 5.94031303565,
			"0.012": 2.40717945398,
			"0.013": 0.345202924464,
			"0.014": 0.0,
			"0.015": 0.0,
			"0.016": 0.0,
			"0.017": 0.0,
			"0.018": 0.0,
			"0.019": 0.0,
			"0.02": 0.0,
			"0.021": 0.0,
			"0.022": 0.0,
			"0.023": 0.0,
			"0.024": 0.0,
			"0.025": 0.0
		}
	}
}
