{
	 "smiles": "CC(C)(C)OC(=O)NC(C(O)=O)C1=CC(Cl)=CC=C1", 
	 "Tm": 402.15, 
	 "num_atms": 35, 
	 "gaussian": { 
		 "optdone": 1, 
		 "sigma_profile": "yes", 
		 "theory": "DFT", 
		 "functional": "B3LYP", 
		 "basiset": "6-31G**", 
		 "properties": { 
			 "R2extent": 5563.7802, 
			 "electric_dipole_moment_norm": 3.37742812655, 
			 "electric_quadrupole_moment_norm": 27.4028582285, 
			 "total_energy": -1320.90932124, 
			 "HOMO_LUMO_gap": 0.22421, 
			 "cosmo_polarized_energy": -19.68, 
			 "cosmo_cavitation_energy": 39.97, 
			 "cosmo_dispersion_energy": -25.75, 
			 "cosmo_repulsion_energy": 1.98, 
			 "cosmo_total_nonelectrostatic_energy": 16.2, 
			 "SMD_solvation_energy": 8.3 
		},
		"coords": [
			{
				"x": 0.079548657,
				"y": 2.6503428962,
				"z": -1.5681170411,
				"element": "C" 
			},
			{
				"x": 1.1629079799,
				"y": 1.9694454733,
				"z": -0.7304795004,
				"element": "C" 
			},
			{
				"x": 2.0577447638,
				"y": 1.0815246737,
				"z": -1.5984160071,
				"element": "C" 
			},
			{
				"x": 1.9585743152,
				"y": 2.9984331882,
				"z": 0.0770861441,
				"element": "C" 
			},
			{
				"x": 0.370318819,
				"y": 1.1232931893,
				"z": 0.1986537749,
				"element": "O" 
			},
			{
				"x": 0.9684860589,
				"y": 0.3644520463,
				"z": 1.1273418727,
				"element": "C" 
			},
			{
				"x": 2.1606969927,
				"y": 0.2284063384,
				"z": 1.3212133011,
				"element": "O" 
			},
			{
				"x": 0.013747931,
				"y": -0.2398342069,
				"z": 1.9534895388,
				"element": "N" 
			},
			{
				"x": -1.3659877144,
				"y": -0.5570750131,
				"z": 1.5283690798,
				"element": "C" 
			},
			{
				"x": -2.2261659541,
				"y": 0.7258991545,
				"z": 1.4627267086,
				"element": "C" 
			},
			{
				"x": -1.8264894024,
				"y": 1.6958685898,
				"z": 2.3048824566,
				"element": "O" 
			},
			{
				"x": -3.2246024703,
				"y": 0.8262251603,
				"z": 0.7952139624,
				"element": "O" 
			},
			{
				"x": -1.4582543279,
				"y": -1.476167657,
				"z": 0.3172336411,
				"element": "C" 
			},
			{
				"x": -1.664553718,
				"y": -0.9961493794,
				"z": -0.9811974952,
				"element": "C" 
			},
			{
				"x": -1.669458103,
				"y": -1.892571519,
				"z": -2.0475640822,
				"element": "C" 
			},
			{
				"x": -1.923545423,
				"y": -1.2772914675,
				"z": -3.6764556625,
				"element": "Cl" 
			},
			{
				"x": -1.4793374209,
				"y": -3.2609364882,
				"z": -1.8597440185,
				"element": "C" 
			},
			{
				"x": -1.2848155852,
				"y": -3.7348163999,
				"z": -0.5626858876,
				"element": "C" 
			},
			{
				"x": -1.2762731865,
				"y": -2.8508788319,
				"z": 0.5154681526,
				"element": "C" 
			},
			{
				"x": -0.6122314833,
				"y": 3.2062573735,
				"z": -0.9292808295,
				"element": "H" 
			},
			{
				"x": -0.4911947664,
				"y": 1.9161295066,
				"z": -2.1433292065,
				"element": "H" 
			},
			{
				"x": 0.5420860012,
				"y": 3.349362712,
				"z": -2.2710025806,
				"element": "H" 
			},
			{
				"x": 1.4592471893,
				"y": 0.3218913108,
				"z": -2.1099618643,
				"element": "H" 
			},
			{
				"x": 2.824304549,
				"y": 0.5879910603,
				"z": -1.0003487839,
				"element": "H" 
			},
			{
				"x": 2.5471167021,
				"y": 1.6971017669,
				"z": -2.3599058463,
				"element": "H" 
			},
			{
				"x": 1.2884037716,
				"y": 3.5833909709,
				"z": 0.7148002221,
				"element": "H" 
			},
			{
				"x": 2.712854995,
				"y": 2.5147971278,
				"z": 0.6986045275,
				"element": "H" 
			},
			{
				"x": 2.4596732946,
				"y": 3.6881945478,
				"z": -0.6092314331,
				"element": "H" 
			},
			{
				"x": 0.4590184959,
				"y": -0.9424669418,
				"z": 2.5304672614,
				"element": "H" 
			},
			{
				"x": -1.7891315988,
				"y": -1.1048566865,
				"z": 2.3808366059,
				"element": "H" 
			},
			{
				"x": -0.9728233662,
				"y": 1.4176362336,
				"z": 2.6850519296,
				"element": "H" 
			},
			{
				"x": -1.8455512952,
				"y": 0.0548501697,
				"z": -1.1554386124,
				"element": "H" 
			},
			{
				"x": -1.4914898052,
				"y": -3.935739409,
				"z": -2.7082426684,
				"element": "H" 
			},
			{
				"x": -1.1450197139,
				"y": -4.7983730625,
				"z": -0.3949667571,
				"element": "H" 
			},
			{
				"x": -1.1291051815,
				"y": -3.2361364272,
				"z": 1.5217290974,
				"element": "H" 
			}
		],
		 "valence_orbital": [ 
			{
				"type": "occ",
				"energy": -0.30113,
				"method": "rhf"
			},
			{
				"type": "occ",
				"energy": -0.28424,
				"method": "rhf"
			},
			{
				"type": "occ",
				"energy": -0.27479,
				"method": "rhf"
			},
			{
				"type": "occ",
				"energy": -0.26012,
				"method": "rhf"
			},
			{
				"type": "occ",
				"energy": -0.25227,
				"method": "rhf"
			},
			{
				"type": "unocc",
				"energy": -0.02806,
				"method": "rhf"
			},
			{
				"type": "unocc",
				"energy": -0.02012,
				"method": "rhf"
			},
			{
				"type": "unocc",
				"energy": 0.00141,
				"method": "rhf"
			},
			{
				"type": "unocc",
				"energy": 0.02146,
				"method": "rhf"
			},
			{
				"type": "unocc",
				"energy": 0.02999,
				"method": "rhf"
			}
		],
		"cosmo_sigma_profile": { 
			"-0.025": 0.0,
			"-0.024": 0.0,
			"-0.023": 0.0,
			"-0.022": 0.0,
			"-0.021": 0.0,
			"-0.02": 0.0,
			"-0.019": 0.0,
			"-0.018": 0.0,
			"-0.017": 0.0,
			"-0.016": 0.0,
			"-0.015": 0.770721535645,
			"-0.014": 2.13923534614,
			"-0.013": 2.06733699871,
			"-0.012": 1.95452866342,
			"-0.011": 3.46545184421,
			"-0.01": 6.43090470555,
			"-0.009": 4.51486923916,
			"-0.008": 3.75403343893,
			"-0.007": 6.95430234463,
			"-0.006": 8.71497243592,
			"-0.005": 11.3556707373,
			"-0.004": 19.4494244581,
			"-0.003": 20.9921066546,
			"-0.002": 27.6906037267,
			"-0.001": 28.376391685,
			"0.0": 36.199596905,
			"0.001": 25.6195603115,
			"0.002": 17.9685903816,
			"0.003": 19.5447287572,
			"0.004": 18.5297902407,
			"0.005": 10.5388596388,
			"0.006": 3.9361416971,
			"0.007": 3.76562927625,
			"0.008": 5.03990396874,
			"0.009": 5.18474892061,
			"0.01": 6.58717710873,
			"0.011": 6.39848028949,
			"0.012": 7.22760080968,
			"0.013": 2.3967602965,
			"0.014": 0.0,
			"0.015": 0.0,
			"0.016": 0.0,
			"0.017": 0.0,
			"0.018": 0.0,
			"0.019": 0.0,
			"0.02": 0.0,
			"0.021": 0.0,
			"0.022": 0.0,
			"0.023": 0.0,
			"0.024": 0.0,
			"0.025": 0.0
		}
	}
}
