{
	 "smiles": "COC1=C(OC)C=C(CCC2=CC(OC)=C3C=CC=CC3=N2)C=C1", 
	 "Tm": 389.15, 
	 "num_atms": 45, 
	 "gaussian": { 
		 "optdone": 1, 
		 "sigma_profile": "yes", 
		 "theory": "DFT", 
		 "functional": "B3LYP", 
		 "basiset": "6-31G**", 
		 "properties": { 
			 "R2extent": 9313.0356, 
			 "electric_dipole_moment_norm": 2.88819543141, 
			 "electric_quadrupole_moment_norm": 14.6836848287, 
			 "total_energy": -1055.1854296, 
			 "HOMO_LUMO_gap": 0.18011, 
			 "cosmo_polarized_energy": -15.18, 
			 "cosmo_cavitation_energy": 48.35, 
			 "cosmo_dispersion_energy": -31.94, 
			 "cosmo_repulsion_energy": 2.49, 
			 "cosmo_total_nonelectrostatic_energy": 18.9, 
			 "SMD_solvation_energy": 8.24 
		},
		"coords": [
			{
				"x": -0.0652134295,
				"y": 4.0435032821,
				"z": -1.6949800836,
				"element": "C" 
			},
			{
				"x": 0.5257274476,
				"y": 3.129850938,
				"z": -2.6264972318,
				"element": "O" 
			},
			{
				"x": 0.4344557967,
				"y": 1.8025688159,
				"z": -2.2625194981,
				"element": "C" 
			},
			{
				"x": 1.1731867851,
				"y": 1.2805030622,
				"z": -1.1855369773,
				"element": "C" 
			},
			{
				"x": 1.9860397292,
				"y": 2.0822108436,
				"z": -0.4117575439,
				"element": "O" 
			},
			{
				"x": 3.1496932848,
				"y": 2.5794336208,
				"z": -1.0807672992,
				"element": "C" 
			},
			{
				"x": 1.0582673277,
				"y": -0.0711882241,
				"z": -0.8590060207,
				"element": "C" 
			},
			{
				"x": 0.2330035959,
				"y": -0.9319213567,
				"z": -1.5923214026,
				"element": "C" 
			},
			{
				"x": 0.0994051812,
				"y": -2.3928456797,
				"z": -1.2174938732,
				"element": "C" 
			},
			{
				"x": -1.1678222802,
				"y": -2.7219577591,
				"z": -0.3851640703,
				"element": "C" 
			},
			{
				"x": -1.2047275665,
				"y": -2.0746012365,
				"z": 0.9829813739,
				"element": "C" 
			},
			{
				"x": -0.266653426,
				"y": -2.484896459,
				"z": 1.9743892113,
				"element": "C" 
			},
			{
				"x": -0.299456704,
				"y": -1.8927880779,
				"z": 3.2193111922,
				"element": "C" 
			},
			{
				"x": 0.5297373592,
				"y": -2.1919548432,
				"z": 4.2497453206,
				"element": "O" 
			},
			{
				"x": 1.5275704866,
				"y": -3.1839403484,
				"z": 4.0474217016,
				"element": "C" 
			},
			{
				"x": -1.2769683681,
				"y": -0.8818075099,
				"z": 3.4839411931,
				"element": "C" 
			},
			{
				"x": -1.3896821315,
				"y": -0.2183882103,
				"z": 4.7298620688,
				"element": "C" 
			},
			{
				"x": -2.3596967735,
				"y": 0.7441856045,
				"z": 4.916421264,
				"element": "C" 
			},
			{
				"x": -3.247896759,
				"y": 1.0750285989,
				"z": 3.8664514184,
				"element": "C" 
			},
			{
				"x": -3.1552043147,
				"y": 0.4408919609,
				"z": 2.6462125581,
				"element": "C" 
			},
			{
				"x": -2.1690536708,
				"y": -0.5536751787,
				"z": 2.4192648267,
				"element": "C" 
			},
			{
				"x": -2.1231682429,
				"y": -1.1509720336,
				"z": 1.1887116218,
				"element": "N" 
			},
			{
				"x": -0.4716155411,
				"y": -0.4048723296,
				"z": -2.6823921471,
				"element": "C" 
			},
			{
				"x": -0.3771397441,
				"y": 0.9472109728,
				"z": -3.0086140777,
				"element": "C" 
			},
			{
				"x": 0.082784305,
				"y": 5.0429154218,
				"z": -2.1100083937,
				"element": "H" 
			},
			{
				"x": -1.14027664,
				"y": 3.8501720084,
				"z": -1.5905460288,
				"element": "H" 
			},
			{
				"x": 0.4120437967,
				"y": 3.9760627764,
				"z": -0.7122962942,
				"element": "H" 
			},
			{
				"x": 3.6844940989,
				"y": 3.1915178887,
				"z": -0.3511845268,
				"element": "H" 
			},
			{
				"x": 3.7965274083,
				"y": 1.75256492,
				"z": -1.4014725126,
				"element": "H" 
			},
			{
				"x": 2.8822699585,
				"y": 3.1884796565,
				"z": -1.9498250013,
				"element": "H" 
			},
			{
				"x": 1.6316046442,
				"y": -0.4370444338,
				"z": -0.0121737915,
				"element": "H" 
			},
			{
				"x": 0.0664859159,
				"y": -3.0012323823,
				"z": -2.1294523596,
				"element": "H" 
			},
			{
				"x": 0.9903973518,
				"y": -2.7136137174,
				"z": -0.6649542178,
				"element": "H" 
			},
			{
				"x": -1.2257887783,
				"y": -3.8129612115,
				"z": -0.2708966554,
				"element": "H" 
			},
			{
				"x": -2.0597270983,
				"y": -2.396956903,
				"z": -0.9270103177,
				"element": "H" 
			},
			{
				"x": 0.4503075311,
				"y": -3.2608741182,
				"z": 1.7344802689,
				"element": "H" 
			},
			{
				"x": 2.2183485484,
				"y": -2.8976472838,
				"z": 3.2450555879,
				"element": "H" 
			},
			{
				"x": 1.0814557248,
				"y": -4.1573671732,
				"z": 3.8100025961,
				"element": "H" 
			},
			{
				"x": 2.0746318309,
				"y": -3.256057108,
				"z": 4.9881760533,
				"element": "H" 
			},
			{
				"x": -0.7034943907,
				"y": -0.4799524174,
				"z": 5.5276644682,
				"element": "H" 
			},
			{
				"x": -2.4433422278,
				"y": 1.251792411,
				"z": 5.8729818033,
				"element": "H" 
			},
			{
				"x": -4.0075308437,
				"y": 1.8351559968,
				"z": 4.0263390153,
				"element": "H" 
			},
			{
				"x": -3.8238347599,
				"y": 0.6769133994,
				"z": 1.8248337847,
				"element": "H" 
			},
			{
				"x": -1.108590479,
				"y": -1.0548149584,
				"z": -3.2771192652,
				"element": "H" 
			},
			{
				"x": -0.9274539393,
				"y": 1.3645687751,
				"z": -3.846257738,
				"element": "H" 
			}
		],
		 "valence_orbital": [ 
			{
				"type": "occ",
				"energy": -0.24299,
				"method": "rhf"
			},
			{
				"type": "occ",
				"energy": -0.23942,
				"method": "rhf"
			},
			{
				"type": "occ",
				"energy": -0.23357,
				"method": "rhf"
			},
			{
				"type": "occ",
				"energy": -0.21642,
				"method": "rhf"
			},
			{
				"type": "occ",
				"energy": -0.2144,
				"method": "rhf"
			},
			{
				"type": "unocc",
				"energy": -0.03429,
				"method": "rhf"
			},
			{
				"type": "unocc",
				"energy": -0.0083,
				"method": "rhf"
			},
			{
				"type": "unocc",
				"energy": 0.00861,
				"method": "rhf"
			},
			{
				"type": "unocc",
				"energy": 0.00948,
				"method": "rhf"
			},
			{
				"type": "unocc",
				"energy": 0.03737,
				"method": "rhf"
			}
		],
		"cosmo_sigma_profile": { 
			"-0.025": 0.0,
			"-0.024": 0.0,
			"-0.023": 0.0,
			"-0.022": 0.0,
			"-0.021": 0.0,
			"-0.02": 0.0,
			"-0.019": 0.0,
			"-0.018": 0.0,
			"-0.017": 0.0,
			"-0.016": 0.0,
			"-0.015": 0.0,
			"-0.014": 0.0,
			"-0.013": 0.0,
			"-0.012": 0.0,
			"-0.011": 0.0,
			"-0.01": 0.0,
			"-0.009": 0.0,
			"-0.008": 0.0,
			"-0.007": 1.91215764345,
			"-0.006": 16.0599273558,
			"-0.005": 29.5774558484,
			"-0.004": 42.8215313458,
			"-0.003": 43.9116169985,
			"-0.002": 39.3406419935,
			"-0.001": 26.7603521514,
			"0.0": 24.8489510534,
			"0.001": 24.5530785206,
			"0.002": 25.9048923511,
			"0.003": 25.6143061395,
			"0.004": 26.4417201732,
			"0.005": 20.6447967343,
			"0.006": 8.71866032998,
			"0.007": 6.83205962805,
			"0.008": 4.5520401792,
			"0.009": 2.82675884008,
			"0.01": 3.5832699386,
			"0.011": 2.86296641594,
			"0.012": 2.87086963523,
			"0.013": 0.892251520019,
			"0.014": 0.76995087402,
			"0.015": 0.671500745434,
			"0.016": 0.60326682676,
			"0.017": 0.0054130336965,
			"0.018": 0.0,
			"0.019": 0.0,
			"0.02": 0.0,
			"0.021": 0.0,
			"0.022": 0.0,
			"0.023": 0.0,
			"0.024": 0.0,
			"0.025": 0.0
		}
	}
}
