{
	 "smiles": "FC(F)(F)C(F)(F)C(F)(F)C1=NNC(=C1)C1=CC=CC=C1", 
	 "Tm": 358.15, 
	 "num_atms": 28, 
	 "gaussian": { 
		 "optdone": 1, 
		 "sigma_profile": "yes", 
		 "theory": "DFT", 
		 "functional": "B3LYP", 
		 "basiset": "6-31G**", 
		 "properties": { 
			 "R2extent": 10285.193, 
			 "electric_dipole_moment_norm": 5.43663975724, 
			 "electric_quadrupole_moment_norm": 14.3232933898, 
			 "total_energy": -1269.85255006, 
			 "HOMO_LUMO_gap": 0.19485, 
			 "cosmo_polarized_energy": -10.92, 
			 "cosmo_cavitation_energy": 36.23, 
			 "cosmo_dispersion_energy": -24.95, 
			 "cosmo_repulsion_energy": 1.77, 
			 "cosmo_total_nonelectrostatic_energy": 13.04, 
			 "SMD_solvation_energy": 7.43 
		},
		"coords": [
			{
				"x": -1.5059292993,
				"y": 1.4220123182,
				"z": -6.1408790585,
				"element": "F" 
			},
			{
				"x": -0.2995401994,
				"y": 1.5067134591,
				"z": -5.5678606783,
				"element": "C" 
			},
			{
				"x": -0.0725766798,
				"y": 2.7787008845,
				"z": -5.2150316826,
				"element": "F" 
			},
			{
				"x": 0.6273381223,
				"y": 1.1419617775,
				"z": -6.4670405804,
				"element": "F" 
			},
			{
				"x": -0.2062342512,
				"y": 0.5686983648,
				"z": -4.3411593179,
				"element": "C" 
			},
			{
				"x": -0.4211004754,
				"y": -0.6929610881,
				"z": -4.781244075,
				"element": "F" 
			},
			{
				"x": 1.0607401867,
				"y": 0.6587003023,
				"z": -3.8594441655,
				"element": "F" 
			},
			{
				"x": -1.1854956971,
				"y": 0.862664305,
				"z": -3.1758459567,
				"element": "C" 
			},
			{
				"x": -0.9224448947,
				"y": 2.1345461269,
				"z": -2.746214559,
				"element": "F" 
			},
			{
				"x": -2.4460770224,
				"y": 0.8310046906,
				"z": -3.681509064,
				"element": "F" 
			},
			{
				"x": -1.0374599581,
				"y": -0.0862369976,
				"z": -2.0270022789,
				"element": "C" 
			},
			{
				"x": -1.7250946225,
				"y": -1.2279382895,
				"z": -1.9963467317,
				"element": "N" 
			},
			{
				"x": -1.3088590941,
				"y": -1.8176579939,
				"z": -0.8648788603,
				"element": "N" 
			},
			{
				"x": -0.3847528356,
				"y": -1.0917919239,
				"z": -0.1628510151,
				"element": "C" 
			},
			{
				"x": -0.1824082868,
				"y": 0.0574889072,
				"z": -0.914823047,
				"element": "C" 
			},
			{
				"x": 0.1956356408,
				"y": -1.5494208615,
				"z": 1.1036490452,
				"element": "C" 
			},
			{
				"x": 0.3284361114,
				"y": -2.9188854385,
				"z": 1.390671121,
				"element": "C" 
			},
			{
				"x": 0.8734682625,
				"y": -3.3397831918,
				"z": 2.6025010079,
				"element": "C" 
			},
			{
				"x": 1.3060911584,
				"y": -2.4019599209,
				"z": 3.5417273018,
				"element": "C" 
			},
			{
				"x": 1.1880543574,
				"y": -1.0384902045,
				"z": 3.2616098259,
				"element": "C" 
			},
			{
				"x": 0.6337790889,
				"y": -0.614232751,
				"z": 2.0562883294,
				"element": "C" 
			},
			{
				"x": -1.7485739367,
				"y": -2.6791624355,
				"z": -0.5778189649,
				"element": "H" 
			},
			{
				"x": 0.4990702651,
				"y": 0.867025863,
				"z": -0.7071009549,
				"element": "H" 
			},
			{
				"x": 0.0345029056,
				"y": -3.6597065207,
				"z": 0.6518486427,
				"element": "H" 
			},
			{
				"x": 0.971827579,
				"y": -4.4018079061,
				"z": 2.8070179958,
				"element": "H" 
			},
			{
				"x": 1.734548691,
				"y": -2.7308080497,
				"z": 4.4836897288,
				"element": "H" 
			},
			{
				"x": 1.520020397,
				"y": -0.3026962865,
				"z": 3.988114441,
				"element": "H" 
			},
			{
				"x": 0.5203344869,
				"y": 0.4463228605,
				"z": 1.8538335512,
				"element": "H" 
			}
		],
		 "valence_orbital": [ 
			{
				"type": "occ",
				"energy": -0.31075,
				"method": "rhf"
			},
			{
				"type": "occ",
				"energy": -0.29772,
				"method": "rhf"
			},
			{
				"type": "occ",
				"energy": -0.27855,
				"method": "rhf"
			},
			{
				"type": "occ",
				"energy": -0.26948,
				"method": "rhf"
			},
			{
				"type": "occ",
				"energy": -0.23844,
				"method": "rhf"
			},
			{
				"type": "unocc",
				"energy": -0.04359,
				"method": "rhf"
			},
			{
				"type": "unocc",
				"energy": -0.02066,
				"method": "rhf"
			},
			{
				"type": "unocc",
				"energy": 0.004,
				"method": "rhf"
			},
			{
				"type": "unocc",
				"energy": 0.04959,
				"method": "rhf"
			},
			{
				"type": "unocc",
				"energy": 0.06087,
				"method": "rhf"
			}
		],
		"cosmo_sigma_profile": { 
			"-0.025": 0.0,
			"-0.024": 0.0,
			"-0.023": 0.0,
			"-0.022": 0.0,
			"-0.021": 0.0,
			"-0.02": 0.0,
			"-0.019": 0.0,
			"-0.018": 0.0,
			"-0.017": 0.817189223549,
			"-0.016": 1.20333954607,
			"-0.015": 1.30807505482,
			"-0.014": 1.13917641506,
			"-0.013": 1.13016867037,
			"-0.012": 1.20221232043,
			"-0.011": 1.32369785706,
			"-0.01": 1.08315398101,
			"-0.009": 1.2491746459,
			"-0.008": 2.67919349075,
			"-0.007": 5.61380190432,
			"-0.006": 10.9675121297,
			"-0.005": 11.1405672542,
			"-0.004": 14.3147067249,
			"-0.003": 11.3430415302,
			"-0.002": 11.9167277491,
			"-0.001": 17.9038772639,
			"0.0": 26.8723233574,
			"0.001": 53.0318106166,
			"0.002": 52.5874958667,
			"0.003": 27.5047358631,
			"0.004": 13.5818835038,
			"0.005": 9.72336503361,
			"0.006": 2.3558548776,
			"0.007": 2.14741602506,
			"0.008": 1.68233832508,
			"0.009": 0.997863226761,
			"0.01": 1.05233641088,
			"0.011": 1.17294396931,
			"0.012": 0.975801286148,
			"0.013": 0.720721848412,
			"0.014": 0.636352019145,
			"0.015": 0.0,
			"0.016": 0.0,
			"0.017": 0.0,
			"0.018": 0.0,
			"0.019": 0.0,
			"0.02": 0.0,
			"0.021": 0.0,
			"0.022": 0.0,
			"0.023": 0.0,
			"0.024": 0.0,
			"0.025": 0.0
		}
	}
}
