{
	 "smiles": "CS(=O)(=O)C1=CC(=C(O)C(=C1)[N+]([O-])=O)[N+]([O-])=O", 
	 "Tm": 495.15, 
	 "num_atms": 23, 
	 "gaussian": { 
		 "optdone": 1, 
		 "sigma_profile": "yes", 
		 "theory": "DFT", 
		 "functional": "B3LYP", 
		 "basiset": "6-31G**", 
		 "properties": { 
			 "R2extent": 4959.7661, 
			 "electric_dipole_moment_norm": 3.97384053153, 
			 "electric_quadrupole_moment_norm": 23.0433253848, 
			 "total_energy": -1304.3363557, 
			 "HOMO_LUMO_gap": 0.15665, 
			 "cosmo_polarized_energy": -22.67, 
			 "cosmo_cavitation_energy": 30.99, 
			 "cosmo_dispersion_energy": -22.78, 
			 "cosmo_repulsion_energy": 1.72, 
			 "cosmo_total_nonelectrostatic_energy": 9.92, 
			 "SMD_solvation_energy": 9.84 
		},
		"coords": [
			{
				"x": -4.0503618823,
				"y": 0.1535296762,
				"z": -1.3819117068,
				"element": "C" 
			},
			{
				"x": -3.1507152306,
				"y": 0.9818513446,
				"z": -0.0515432239,
				"element": "S" 
			},
			{
				"x": -3.8676071213,
				"y": 0.7253591734,
				"z": 1.2039309436,
				"element": "O" 
			},
			{
				"x": -2.8311655432,
				"y": 2.3429611804,
				"z": -0.5015906026,
				"element": "O" 
			},
			{
				"x": -1.5893843795,
				"y": 0.0803692109,
				"z": 0.0387186319,
				"element": "C" 
			},
			{
				"x": -1.4947349969,
				"y": -1.0685163497,
				"z": 0.827694024,
				"element": "C" 
			},
			{
				"x": -0.2871179,
				"y": -1.7398029213,
				"z": 0.9323177817,
				"element": "C" 
			},
			{
				"x": 0.8763181452,
				"y": -1.3056272614,
				"z": 0.2433308039,
				"element": "C" 
			},
			{
				"x": 2.0026181123,
				"y": -1.984835817,
				"z": 0.3215963107,
				"element": "O" 
			},
			{
				"x": 0.726460542,
				"y": -0.1282055236,
				"z": -0.5473803247,
				"element": "C" 
			},
			{
				"x": -0.4814912155,
				"y": 0.5627729674,
				"z": -0.6401773043,
				"element": "C" 
			},
			{
				"x": 1.8589558573,
				"y": 0.3991338007,
				"z": -1.2955962952,
				"element": "N" 
			},
			{
				"x": 2.9434679022,
				"y": -0.2233396319,
				"z": -1.23540491,
				"element": "O" 
			},
			{
				"x": 1.7105677034,
				"y": 1.4165456068,
				"z": -1.9530881417,
				"element": "O" 
			},
			{
				"x": -0.2574990566,
				"y": -2.9273698817,
				"z": 1.8060378816,
				"element": "N" 
			},
			{
				"x": -1.325426021,
				"y": -3.5219485142,
				"z": 1.9531578485,
				"element": "O" 
			},
			{
				"x": 0.8041119731,
				"y": -3.2239835534,
				"z": 2.3380906282,
				"element": "O" 
			},
			{
				"x": -4.2064801814,
				"y": -0.8929242024,
				"z": -1.1160240523,
				"element": "H" 
			},
			{
				"x": -5.0092071604,
				"y": 0.6699895923,
				"z": -1.4632327337,
				"element": "H" 
			},
			{
				"x": -3.4881626914,
				"y": 0.2499593179,
				"z": -2.3117247724,
				"element": "H" 
			},
			{
				"x": -2.350268377,
				"y": -1.4399663606,
				"z": 1.3803146788,
				"element": "H" 
			},
			{
				"x": 2.659065994,
				"y": -1.5046858122,
				"z": -0.2496513215,
				"element": "H" 
			},
			{
				"x": -0.5355444723,
				"y": 1.4709339587,
				"z": -1.2292641439,
				"element": "H" 
			}
		],
		 "valence_orbital": [ 
			{
				"type": "occ",
				"energy": -0.32606,
				"method": "rhf"
			},
			{
				"type": "occ",
				"energy": -0.32177,
				"method": "rhf"
			},
			{
				"type": "occ",
				"energy": -0.31469,
				"method": "rhf"
			},
			{
				"type": "occ",
				"energy": -0.30915,
				"method": "rhf"
			},
			{
				"type": "occ",
				"energy": -0.29435,
				"method": "rhf"
			},
			{
				"type": "unocc",
				"energy": -0.1377,
				"method": "rhf"
			},
			{
				"type": "unocc",
				"energy": -0.10634,
				"method": "rhf"
			},
			{
				"type": "unocc",
				"energy": -0.06637,
				"method": "rhf"
			},
			{
				"type": "unocc",
				"energy": -0.0338,
				"method": "rhf"
			},
			{
				"type": "unocc",
				"energy": 0.0267,
				"method": "rhf"
			}
		],
		"cosmo_sigma_profile": { 
			"-0.025": 0.0,
			"-0.024": 0.0,
			"-0.023": 0.0,
			"-0.022": 0.0,
			"-0.021": 0.0,
			"-0.02": 0.0,
			"-0.019": 0.0,
			"-0.018": 0.0,
			"-0.017": 0.0,
			"-0.016": 0.0,
			"-0.015": 0.0,
			"-0.014": 0.0,
			"-0.013": 0.0158522370342,
			"-0.012": 0.369205212231,
			"-0.011": 1.78213077229,
			"-0.01": 5.15143378599,
			"-0.009": 11.8397629245,
			"-0.008": 14.1639248372,
			"-0.007": 14.7181326353,
			"-0.006": 18.9227665027,
			"-0.005": 19.193204808,
			"-0.004": 17.0329556253,
			"-0.003": 10.6076852024,
			"-0.002": 8.45312150354,
			"-0.001": 7.87030722675,
			"0.0": 6.59770957841,
			"0.001": 8.03248713605,
			"0.002": 5.27549138711,
			"0.003": 7.06996712853,
			"0.004": 9.33227499339,
			"0.005": 10.6465284075,
			"0.006": 14.1237152281,
			"0.007": 16.9709180944,
			"0.008": 12.1630530075,
			"0.009": 8.23772718134,
			"0.01": 9.314180395,
			"0.011": 9.48168005055,
			"0.012": 2.05367143678,
			"0.013": 0.0,
			"0.014": 0.0,
			"0.015": 0.0,
			"0.016": 0.0,
			"0.017": 0.0,
			"0.018": 0.0,
			"0.019": 0.0,
			"0.02": 0.0,
			"0.021": 0.0,
			"0.022": 0.0,
			"0.023": 0.0,
			"0.024": 0.0,
			"0.025": 0.0
		}
	}
}
