{
	 "smiles": "CC1=C(C=NO1)C(=O)NC1=CC=C(CC(O)=O)C=C1", 
	 "Tm": 482.15, 
	 "num_atms": 31, 
	 "gaussian": { 
		 "optdone": 1, 
		 "sigma_profile": "yes", 
		 "theory": "DFT", 
		 "functional": "B3LYP", 
		 "basiset": "6-31G**", 
		 "properties": { 
			 "R2extent": 7039.3694, 
			 "electric_dipole_moment_norm": 3.88139626037, 
			 "electric_quadrupole_moment_norm": 9.05469944394, 
			 "total_energy": -912.996358755, 
			 "HOMO_LUMO_gap": 0.19639, 
			 "cosmo_polarized_energy": -19.7, 
			 "cosmo_cavitation_energy": 36.65, 
			 "cosmo_dispersion_energy": -25.68, 
			 "cosmo_repulsion_energy": 2.01, 
			 "cosmo_total_nonelectrostatic_energy": 12.98, 
			 "SMD_solvation_energy": 8.03 
		},
		"coords": [
			{
				"x": -0.1989987122,
				"y": -3.1280992095,
				"z": 4.5644557877,
				"element": "C" 
			},
			{
				"x": -0.6412820542,
				"y": -2.7987285863,
				"z": 3.1830033094,
				"element": "C" 
			},
			{
				"x": -1.0364187423,
				"y": -1.6324060608,
				"z": 2.5667888474,
				"element": "C" 
			},
			{
				"x": -1.3336273863,
				"y": -2.0531034722,
				"z": 1.2313500026,
				"element": "C" 
			},
			{
				"x": -1.1330481111,
				"y": -3.3318223394,
				"z": 1.0510393833,
				"element": "N" 
			},
			{
				"x": -0.6789203155,
				"y": -3.8066017351,
				"z": 2.2973168678,
				"element": "O" 
			},
			{
				"x": -1.1990649109,
				"y": -0.3254073411,
				"z": 3.2426569401,
				"element": "C" 
			},
			{
				"x": -1.3340549247,
				"y": -0.2406996399,
				"z": 4.4618968427,
				"element": "O" 
			},
			{
				"x": -1.2693500071,
				"y": 0.8196926017,
				"z": 2.4702700371,
				"element": "N" 
			},
			{
				"x": -0.8007988319,
				"y": 1.0820677894,
				"z": 1.1566315169,
				"element": "C" 
			},
			{
				"x": 0.4183162495,
				"y": 0.5766301032,
				"z": 0.6893170503,
				"element": "C" 
			},
			{
				"x": 0.8461387589,
				"y": 0.8773455585,
				"z": -0.6032077695,
				"element": "C" 
			},
			{
				"x": 0.0983233943,
				"y": 1.7107277589,
				"z": -1.4421175933,
				"element": "C" 
			},
			{
				"x": 0.6014655147,
				"y": 2.0464892155,
				"z": -2.8280555749,
				"element": "C" 
			},
			{
				"x": -0.3334477106,
				"y": 1.6299346396,
				"z": -3.9546094794,
				"element": "C" 
			},
			{
				"x": 0.3603714924,
				"y": 1.3606186198,
				"z": -5.0855654133,
				"element": "O" 
			},
			{
				"x": -1.5410839826,
				"y": 1.5752794884,
				"z": -3.8997616613,
				"element": "O" 
			},
			{
				"x": -1.107111914,
				"y": 2.2354049497,
				"z": -0.9552302835,
				"element": "C" 
			},
			{
				"x": -1.5574214943,
				"y": 1.9172739532,
				"z": 0.3227161065,
				"element": "C" 
			},
			{
				"x": -0.8410627459,
				"y": -3.9063264367,
				"z": 4.9899327921,
				"element": "H" 
			},
			{
				"x": -0.2640752088,
				"y": -2.2347993337,
				"z": 5.1841101582,
				"element": "H" 
			},
			{
				"x": 0.8266575813,
				"y": -3.5124708931,
				"z": 4.5593604857,
				"element": "H" 
			},
			{
				"x": -1.6985774275,
				"y": -1.461184806,
				"z": 0.4031760527,
				"element": "H" 
			},
			{
				"x": -1.538753316,
				"y": 1.6214650747,
				"z": 3.0281314323,
				"element": "H" 
			},
			{
				"x": 1.0293931869,
				"y": -0.0449608782,
				"z": 1.33446145,
				"element": "H" 
			},
			{
				"x": 1.790158956,
				"y": 0.4690540808,
				"z": -0.9546347822,
				"element": "H" 
			},
			{
				"x": 0.7304840088,
				"y": 3.1329727842,
				"z": -2.9378850032,
				"element": "H" 
			},
			{
				"x": 1.5843732238,
				"y": 1.604805537,
				"z": -3.0084677934,
				"element": "H" 
			},
			{
				"x": -0.3011350072,
				"y": 1.1468510305,
				"z": -5.7656550736,
				"element": "H" 
			},
			{
				"x": -1.7114073292,
				"y": 2.8717053562,
				"z": -1.5923552845,
				"element": "H" 
			},
			{
				"x": -2.5052422343,
				"y": 2.3088921908,
				"z": 0.6809306492,
				"element": "H" 
			}
		],
		 "valence_orbital": [ 
			{
				"type": "occ",
				"energy": -0.28651,
				"method": "rhf"
			},
			{
				"type": "occ",
				"energy": -0.2673,
				"method": "rhf"
			},
			{
				"type": "occ",
				"energy": -0.26354,
				"method": "rhf"
			},
			{
				"type": "occ",
				"energy": -0.25505,
				"method": "rhf"
			},
			{
				"type": "occ",
				"energy": -0.23418,
				"method": "rhf"
			},
			{
				"type": "unocc",
				"energy": -0.03779,
				"method": "rhf"
			},
			{
				"type": "unocc",
				"energy": -0.02283,
				"method": "rhf"
			},
			{
				"type": "unocc",
				"energy": -0.00997,
				"method": "rhf"
			},
			{
				"type": "unocc",
				"energy": -9e-05,
				"method": "rhf"
			},
			{
				"type": "unocc",
				"energy": 0.00759,
				"method": "rhf"
			}
		],
		"cosmo_sigma_profile": { 
			"-0.025": 0.0,
			"-0.024": 0.0,
			"-0.023": 0.0,
			"-0.022": 0.0,
			"-0.021": 0.0,
			"-0.02": 0.0,
			"-0.019": 0.0201605225529,
			"-0.018": 0.698435817379,
			"-0.017": 0.962250760912,
			"-0.016": 0.624371637691,
			"-0.015": 1.33094051746,
			"-0.014": 1.76020716009,
			"-0.013": 1.57578907233,
			"-0.012": 1.36237247227,
			"-0.011": 1.55916006623,
			"-0.01": 2.45608163638,
			"-0.009": 1.67335174921,
			"-0.008": 3.1199368276,
			"-0.007": 11.4549848133,
			"-0.006": 19.2477959882,
			"-0.005": 19.6026223437,
			"-0.004": 20.6873020883,
			"-0.003": 23.0430948591,
			"-0.002": 24.1213087266,
			"-0.001": 18.3395515493,
			"0.0": 16.6916268541,
			"0.001": 16.3024476931,
			"0.002": 14.8053315209,
			"0.003": 12.7197377039,
			"0.004": 11.7677394846,
			"0.005": 8.26447694179,
			"0.006": 8.30710347559,
			"0.007": 9.52025593278,
			"0.008": 7.10600066276,
			"0.009": 6.68450975728,
			"0.01": 6.04816436776,
			"0.011": 7.50168837044,
			"0.012": 6.68444538283,
			"0.013": 4.91665651114,
			"0.014": 1.2505271763,
			"0.015": 0.0,
			"0.016": 0.0,
			"0.017": 0.0,
			"0.018": 0.0,
			"0.019": 0.0,
			"0.02": 0.0,
			"0.021": 0.0,
			"0.022": 0.0,
			"0.023": 0.0,
			"0.024": 0.0,
			"0.025": 0.0
		}
	}
}
