{
	 "smiles": "CCOC(=O)CN(C)C(=O)C1=NN(N=C1C)C1=CC=CC=C1", 
	 "Tm": 346.15, 
	 "num_atms": 40, 
	 "gaussian": { 
		 "optdone": 1, 
		 "sigma_profile": "yes", 
		 "theory": "DFT", 
		 "functional": "B3LYP", 
		 "basiset": "6-31G**", 
		 "properties": { 
			 "R2extent": 7538.7756, 
			 "electric_dipole_moment_norm": 2.04518960735, 
			 "electric_quadrupole_moment_norm": 14.3258910096, 
			 "total_energy": -1027.12638271, 
			 "HOMO_LUMO_gap": 0.18026, 
			 "cosmo_polarized_energy": -13.69, 
			 "cosmo_cavitation_energy": 43.79, 
			 "cosmo_dispersion_energy": -29.65, 
			 "cosmo_repulsion_energy": 2.28, 
			 "cosmo_total_nonelectrostatic_energy": 16.42, 
			 "SMD_solvation_energy": 7.95 
		},
		"coords": [
			{
				"x": -5.1276451856,
				"y": 0.8536400286,
				"z": 0.7755075104,
				"element": "C" 
			},
			{
				"x": -3.6558524525,
				"y": 1.2031040622,
				"z": 0.9313962986,
				"element": "C" 
			},
			{
				"x": -2.8196064998,
				"y": 0.0235225564,
				"z": 0.8150013159,
				"element": "O" 
			},
			{
				"x": -2.4572727747,
				"y": -0.3357565358,
				"z": -0.4268774036,
				"element": "C" 
			},
			{
				"x": -2.8048172209,
				"y": 0.2278920613,
				"z": -1.4437870147,
				"element": "O" 
			},
			{
				"x": -1.5701333313,
				"y": -1.5815919962,
				"z": -0.4444621243,
				"element": "C" 
			},
			{
				"x": -1.0298539846,
				"y": -2.0200726331,
				"z": 0.8287930196,
				"element": "N" 
			},
			{
				"x": -1.8248911197,
				"y": -2.9946669254,
				"z": 1.5708624611,
				"element": "C" 
			},
			{
				"x": 0.1088691137,
				"y": -1.5261555877,
				"z": 1.4244121092,
				"element": "C" 
			},
			{
				"x": 0.5418026019,
				"y": -1.9827899801,
				"z": 2.4846981407,
				"element": "O" 
			},
			{
				"x": 0.8583296648,
				"y": -0.4093783116,
				"z": 0.7885337181,
				"element": "C" 
			},
			{
				"x": 0.3963996455,
				"y": 0.4073111298,
				"z": -0.1658649895,
				"element": "N" 
			},
			{
				"x": 1.3813251596,
				"y": 1.2741080446,
				"z": -0.3624209922,
				"element": "N" 
			},
			{
				"x": 2.4666343125,
				"y": 1.0819228675,
				"z": 0.4050849735,
				"element": "N" 
			},
			{
				"x": 2.1640832422,
				"y": 0.022817922,
				"z": 1.1539945211,
				"element": "C" 
			},
			{
				"x": 3.1151413567,
				"y": -0.5207813977,
				"z": 2.1681294746,
				"element": "C" 
			},
			{
				"x": 1.2923773553,
				"y": 2.3279127277,
				"z": -1.3158962213,
				"element": "C" 
			},
			{
				"x": 0.1437801266,
				"y": 2.4499373954,
				"z": -2.1051476961,
				"element": "C" 
			},
			{
				"x": 0.0741953525,
				"y": 3.487728346,
				"z": -3.0331581712,
				"element": "C" 
			},
			{
				"x": 1.1303656679,
				"y": 4.3903987218,
				"z": -3.1759514401,
				"element": "C" 
			},
			{
				"x": 2.2690354038,
				"y": 4.2518410086,
				"z": -2.3796403325,
				"element": "C" 
			},
			{
				"x": 2.3591955654,
				"y": 3.2220360506,
				"z": -1.4449716522,
				"element": "C" 
			},
			{
				"x": -5.7398185218,
				"y": 1.7458309232,
				"z": 0.9438975232,
				"element": "H" 
			},
			{
				"x": -5.3304548925,
				"y": 0.4846107669,
				"z": -0.232798934,
				"element": "H" 
			},
			{
				"x": -5.4272485335,
				"y": 0.0915028347,
				"z": 1.5010655923,
				"element": "H" 
			},
			{
				"x": -3.3391741941,
				"y": 1.9297834777,
				"z": 0.1799771254,
				"element": "H" 
			},
			{
				"x": -3.4367534622,
				"y": 1.5907647506,
				"z": 1.9286950698,
				"element": "H" 
			},
			{
				"x": -2.1780914002,
				"y": -2.3967797633,
				"z": -0.8537473788,
				"element": "H" 
			},
			{
				"x": -0.7804833375,
				"y": -1.3825725399,
				"z": -1.1678907154,
				"element": "H" 
			},
			{
				"x": -1.9451864719,
				"y": -3.9138124028,
				"z": 0.9853380378,
				"element": "H" 
			},
			{
				"x": -1.306640865,
				"y": -3.2240730218,
				"z": 2.499663081,
				"element": "H" 
			},
			{
				"x": -2.8151300193,
				"y": -2.5823813967,
				"z": 1.7943145497,
				"element": "H" 
			},
			{
				"x": 4.0544826055,
				"y": 0.0346442139,
				"z": 2.1281682623,
				"element": "H" 
			},
			{
				"x": 3.3112480603,
				"y": -1.5817541112,
				"z": 1.9905445366,
				"element": "H" 
			},
			{
				"x": 2.6873453326,
				"y": -0.450859694,
				"z": 3.1713831526,
				"element": "H" 
			},
			{
				"x": -0.6738646482,
				"y": 1.7473577195,
				"z": -1.992175394,
				"element": "H" 
			},
			{
				"x": -0.8150439684,
				"y": 3.5863522565,
				"z": -3.6484811521,
				"element": "H" 
			},
			{
				"x": 1.066721835,
				"y": 5.1949364948,
				"z": -3.90231278,
				"element": "H" 
			},
			{
				"x": 3.0957295454,
				"y": 4.9483505484,
				"z": -2.4830753499,
				"element": "H" 
			},
			{
				"x": 3.2348009367,
				"y": 3.1002193889,
				"z": -0.8196007315,
				"element": "H" 
			}
		],
		 "valence_orbital": [ 
			{
				"type": "occ",
				"energy": -0.28591,
				"method": "rhf"
			},
			{
				"type": "occ",
				"energy": -0.25757,
				"method": "rhf"
			},
			{
				"type": "occ",
				"energy": -0.25613,
				"method": "rhf"
			},
			{
				"type": "occ",
				"energy": -0.23943,
				"method": "rhf"
			},
			{
				"type": "occ",
				"energy": -0.22928,
				"method": "rhf"
			},
			{
				"type": "unocc",
				"energy": -0.04902,
				"method": "rhf"
			},
			{
				"type": "unocc",
				"energy": -0.01,
				"method": "rhf"
			},
			{
				"type": "unocc",
				"energy": -0.00087,
				"method": "rhf"
			},
			{
				"type": "unocc",
				"energy": 0.00793,
				"method": "rhf"
			},
			{
				"type": "unocc",
				"energy": 0.0316,
				"method": "rhf"
			}
		],
		"cosmo_sigma_profile": { 
			"-0.025": 0.0,
			"-0.024": 0.0,
			"-0.023": 0.0,
			"-0.022": 0.0,
			"-0.021": 0.0,
			"-0.02": 0.0,
			"-0.019": 0.0,
			"-0.018": 0.0,
			"-0.017": 0.0,
			"-0.016": 0.0,
			"-0.015": 0.0,
			"-0.014": 0.0,
			"-0.013": 0.0,
			"-0.012": 0.0,
			"-0.011": 0.0,
			"-0.01": 0.0,
			"-0.009": 0.265882218655,
			"-0.008": 3.17681805855,
			"-0.007": 4.29580973708,
			"-0.006": 15.3287045606,
			"-0.005": 22.2435668168,
			"-0.004": 32.6147957836,
			"-0.003": 32.1136223892,
			"-0.002": 34.4554111952,
			"-0.001": 35.9794596025,
			"0.0": 32.6847390448,
			"0.001": 26.1957751941,
			"0.002": 21.6261228318,
			"0.003": 21.7307753668,
			"0.004": 20.4907841155,
			"0.005": 9.1659216211,
			"0.006": 5.32418119488,
			"0.007": 3.95273237099,
			"0.008": 5.20489398349,
			"0.009": 4.00964507606,
			"0.01": 3.89691003876,
			"0.011": 3.81938086564,
			"0.012": 5.39832032527,
			"0.013": 3.40692781158,
			"0.014": 0.545084445978,
			"0.015": 0.0,
			"0.016": 0.0,
			"0.017": 0.0,
			"0.018": 0.0,
			"0.019": 0.0,
			"0.02": 0.0,
			"0.021": 0.0,
			"0.022": 0.0,
			"0.023": 0.0,
			"0.024": 0.0,
			"0.025": 0.0
		}
	}
}
