{
	 "smiles": "IC1=C(C=CC=C1)C1=NNN=N1", 
	 "Tm": 491.15, 
	 "num_atms": 17, 
	 "gaussian": { 
		 "optdone": 1, 
		 "sigma_profile": "yes", 
		 "theory": "DFT", 
		 "functional": "B3LYP", 
		 "basiset": "6-31G**", 
		 "properties": { 
			 "R2extent": 2900.0013, 
			 "electric_dipole_moment_norm": 3.29278443266, 
			 "electric_quadrupole_moment_norm": 14.9643059368, 
			 "total_energy": -500.090846705, 
			 "HOMO_LUMO_gap": 0.19368, 
			 "cosmo_polarized_energy": -13.88, 
			 "cosmo_cavitation_energy": 25.06, 
			 "cosmo_dispersion_energy": -19.98, 
			 "cosmo_repulsion_energy": 1.56, 
			 "cosmo_total_nonelectrostatic_energy": 6.65, 
			 "SMD_solvation_energy": 1.23 
		},
		"coords": [
			{
				"x": -0.0139063102,
				"y": -0.801328542,
				"z": 3.0206587703,
				"element": "I" 
			},
			{
				"x": 0.9186073373,
				"y": 0.2359338393,
				"z": 1.4198610666,
				"element": "C" 
			},
			{
				"x": 0.3408821652,
				"y": 1.3484176717,
				"z": 0.7799109762,
				"element": "C" 
			},
			{
				"x": 1.0948608615,
				"y": 2.0105489844,
				"z": -0.2068905518,
				"element": "C" 
			},
			{
				"x": 2.3677953268,
				"y": 1.5789172386,
				"z": -0.5620772811,
				"element": "C" 
			},
			{
				"x": 2.9165481895,
				"y": 0.4619455026,
				"z": 0.0676694023,
				"element": "C" 
			},
			{
				"x": 2.195686779,
				"y": -0.203870439,
				"z": 1.0579792297,
				"element": "C" 
			},
			{
				"x": -1.001925842,
				"y": 1.8811640924,
				"z": 1.0670182269,
				"element": "C" 
			},
			{
				"x": -1.2634424277,
				"y": 3.1916844026,
				"z": 1.0861710614,
				"element": "N" 
			},
			{
				"x": -2.5706601607,
				"y": 3.1871040255,
				"z": 1.3098570959,
				"element": "N" 
			},
			{
				"x": -3.1143422639,
				"y": 1.9779305112,
				"z": 1.4255772435,
				"element": "N" 
			},
			{
				"x": -2.1281436232,
				"y": 1.1365295887,
				"z": 1.2686127834,
				"element": "N" 
			},
			{
				"x": 0.651714003,
				"y": 2.8715142232,
				"z": -0.696145381,
				"element": "H" 
			},
			{
				"x": 2.9238066042,
				"y": 2.1073974691,
				"z": -1.3300980331,
				"element": "H" 
			},
			{
				"x": 3.9067926692,
				"y": 0.1070570487,
				"z": -0.2020603546,
				"element": "H" 
			},
			{
				"x": 2.6295147996,
				"y": -1.0610669692,
				"z": 1.559807645,
				"element": "H" 
			},
			{
				"x": -3.1135881077,
				"y": 4.0351213523,
				"z": 1.4019481005,
				"element": "H" 
			}
		],
		 "valence_orbital": [ 
			{
				"type": "occ",
				"energy": -0.30268,
				"method": "rhf"
			},
			{
				"type": "occ",
				"energy": -0.2939,
				"method": "rhf"
			},
			{
				"type": "occ",
				"energy": -0.26142,
				"method": "rhf"
			},
			{
				"type": "occ",
				"energy": -0.2563,
				"method": "rhf"
			},
			{
				"type": "occ",
				"energy": -0.2384,
				"method": "rhf"
			},
			{
				"type": "unocc",
				"energy": -0.04472,
				"method": "rhf"
			},
			{
				"type": "unocc",
				"energy": -0.03787,
				"method": "rhf"
			},
			{
				"type": "unocc",
				"energy": -0.02765,
				"method": "rhf"
			},
			{
				"type": "unocc",
				"energy": -0.02101,
				"method": "rhf"
			},
			{
				"type": "unocc",
				"energy": 0.04318,
				"method": "rhf"
			}
		],
		"cosmo_sigma_profile": { 
			"-0.025": 0.0,
			"-0.024": 0.0,
			"-0.023": 0.0,
			"-0.022": 0.0,
			"-0.021": 0.0,
			"-0.02": 0.736172400212,
			"-0.019": 2.00671048762,
			"-0.018": 1.46995049964,
			"-0.017": 0.492065429268,
			"-0.016": 1.33512527481,
			"-0.015": 1.22859132466,
			"-0.014": 0.776772514391,
			"-0.013": 0.363944625156,
			"-0.012": 0.467851692031,
			"-0.011": 1.31366272435,
			"-0.01": 1.30336580931,
			"-0.009": 0.447357552658,
			"-0.008": 0.580016381669,
			"-0.007": 6.98681268212,
			"-0.006": 11.7246550753,
			"-0.005": 10.5192217303,
			"-0.004": 10.2375781201,
			"-0.003": 12.6224416845,
			"-0.002": 10.0492080777,
			"-0.001": 12.297536743,
			"0.0": 12.1635761693,
			"0.001": 15.5564117814,
			"0.002": 20.6694745888,
			"0.003": 22.1110722234,
			"0.004": 15.0708116708,
			"0.005": 7.19876010543,
			"0.006": 3.52565063064,
			"0.007": 4.06850399758,
			"0.008": 4.39177744485,
			"0.009": 5.54972886365,
			"0.01": 2.87345478376,
			"0.011": 3.57894536535,
			"0.012": 1.94437158119,
			"0.013": 0.842872923266,
			"0.014": 0.737336786883,
			"0.015": 0.0,
			"0.016": 0.0,
			"0.017": 0.0,
			"0.018": 0.0,
			"0.019": 0.0,
			"0.02": 0.0,
			"0.021": 0.0,
			"0.022": 0.0,
			"0.023": 0.0,
			"0.024": 0.0,
			"0.025": 0.0
		}
	}
}
