{
	 "smiles": "CC(C)(C)NCC(N)=O", 
	 "Tm": 323.15, 
	 "num_atms": 23, 
	 "gaussian": { 
		 "optdone": 1, 
		 "sigma_profile": "yes", 
		 "theory": "DFT", 
		 "functional": "B3LYP", 
		 "basiset": "6-31G**", 
		 "properties": { 
			 "R2extent": 1669.5451, 
			 "electric_dipole_moment_norm": 3.38957076044, 
			 "electric_quadrupole_moment_norm": 14.1593341662, 
			 "total_energy": -421.819083008, 
			 "HOMO_LUMO_gap": 0.22685, 
			 "cosmo_polarized_energy": -13.87, 
			 "cosmo_cavitation_energy": 24.37, 
			 "cosmo_dispersion_energy": -17.34, 
			 "cosmo_repulsion_energy": 1.43, 
			 "cosmo_total_nonelectrostatic_energy": 8.46, 
			 "SMD_solvation_energy": 3.67 
		},
		"coords": [
			{
				"x": -0.6368006243,
				"y": 2.1072863959,
				"z": 0.3835719143,
				"element": "C" 
			},
			{
				"x": -1.0947198272,
				"y": 0.642444143,
				"z": 0.5655697478,
				"element": "C" 
			},
			{
				"x": -1.4574087367,
				"y": 0.3904204604,
				"z": 2.0368638048,
				"element": "C" 
			},
			{
				"x": -2.3275025846,
				"y": 0.3858311474,
				"z": -0.3221056892,
				"element": "C" 
			},
			{
				"x": -0.0770607346,
				"y": -0.3451800323,
				"z": 0.1195308127,
				"element": "N" 
			},
			{
				"x": 1.062889224,
				"y": -0.6980359523,
				"z": 0.9618438686,
				"element": "C" 
			},
			{
				"x": 2.0792700102,
				"y": 0.4163144033,
				"z": 1.2684399436,
				"element": "C" 
			},
			{
				"x": 3.0654896309,
				"y": 0.5769404302,
				"z": 0.3317867818,
				"element": "N" 
			},
			{
				"x": 1.9881920848,
				"y": 1.1488767428,
				"z": 2.2466223397,
				"element": "O" 
			},
			{
				"x": -1.4477933526,
				"y": 2.8002536345,
				"z": 0.6352348023,
				"element": "H" 
			},
			{
				"x": -0.355596744,
				"y": 2.2972907486,
				"z": -0.6598724359,
				"element": "H" 
			},
			{
				"x": 0.216280863,
				"y": 2.3410549087,
				"z": 1.0235545723,
				"element": "H" 
			},
			{
				"x": -1.7405923795,
				"y": -0.6558568379,
				"z": 2.1948146925,
				"element": "H" 
			},
			{
				"x": -2.3092600409,
				"y": 1.0171484125,
				"z": 2.3182345142,
				"element": "H" 
			},
			{
				"x": -0.6244813656,
				"y": 0.6387560347,
				"z": 2.7004498639,
				"element": "H" 
			},
			{
				"x": -2.6891888197,
				"y": -0.6377804217,
				"z": -0.1897800023,
				"element": "H" 
			},
			{
				"x": -3.1371929725,
				"y": 1.082191059,
				"z": -0.0795802557,
				"element": "H" 
			},
			{
				"x": -2.0802847603,
				"y": 0.5211465511,
				"z": -1.3821553072,
				"element": "H" 
			},
			{
				"x": 0.242069707,
				"y": -0.0919323017,
				"z": -0.8119837115,
				"element": "H" 
			},
			{
				"x": 0.7027438912,
				"y": -1.0614964797,
				"z": 1.9259770125,
				"element": "H" 
			},
			{
				"x": 1.5772034724,
				"y": -1.5366460479,
				"z": 0.4728929605,
				"element": "H" 
			},
			{
				"x": 3.7689091524,
				"y": 1.2806902291,
				"z": 0.5021154565,
				"element": "H" 
			},
			{
				"x": 3.2368349066,
				"y": -0.1076172278,
				"z": -0.3868256863,
				"element": "H" 
			}
		],
		 "valence_orbital": [ 
			{
				"type": "occ",
				"energy": -0.32382,
				"method": "rhf"
			},
			{
				"type": "occ",
				"energy": -0.31659,
				"method": "rhf"
			},
			{
				"type": "occ",
				"energy": -0.2697,
				"method": "rhf"
			},
			{
				"type": "occ",
				"energy": -0.26107,
				"method": "rhf"
			},
			{
				"type": "occ",
				"energy": -0.20756,
				"method": "rhf"
			},
			{
				"type": "unocc",
				"energy": 0.01929,
				"method": "rhf"
			},
			{
				"type": "unocc",
				"energy": 0.06318,
				"method": "rhf"
			},
			{
				"type": "unocc",
				"energy": 0.0926,
				"method": "rhf"
			},
			{
				"type": "unocc",
				"energy": 0.11699,
				"method": "rhf"
			},
			{
				"type": "unocc",
				"energy": 0.13005,
				"method": "rhf"
			}
		],
		"cosmo_sigma_profile": { 
			"-0.025": 0.0,
			"-0.024": 0.0,
			"-0.023": 0.0,
			"-0.022": 0.0,
			"-0.021": 0.0,
			"-0.02": 0.0,
			"-0.019": 0.0,
			"-0.018": 0.0,
			"-0.017": 0.0,
			"-0.016": 0.0,
			"-0.015": 0.0927317671543,
			"-0.014": 1.48515189068,
			"-0.013": 2.57115486187,
			"-0.012": 2.38642843288,
			"-0.011": 2.91750868993,
			"-0.01": 2.9907926588,
			"-0.009": 4.42767270924,
			"-0.008": 2.91645858618,
			"-0.007": 3.5442845074,
			"-0.006": 3.70675760596,
			"-0.005": 5.33140834695,
			"-0.004": 5.07655879109,
			"-0.003": 13.1195154735,
			"-0.002": 20.4164077376,
			"-0.001": 17.1272627053,
			"0.0": 18.3397211785,
			"0.001": 22.456917901,
			"0.002": 17.4470629551,
			"0.003": 7.42781742693,
			"0.004": 3.67044847067,
			"0.005": 3.20289943568,
			"0.006": 3.16988479395,
			"0.007": 2.5129349835,
			"0.008": 2.95536170591,
			"0.009": 2.37071704593,
			"0.01": 2.15538993876,
			"0.011": 1.34631642592,
			"0.012": 1.97151413147,
			"0.013": 3.29974763449,
			"0.014": 5.17302144532,
			"0.015": 1.69527543618,
			"0.016": 0.358952969167,
			"0.017": 0.113999083031,
			"0.018": 0.0,
			"0.019": 0.0,
			"0.02": 0.0,
			"0.021": 0.0,
			"0.022": 0.0,
			"0.023": 0.0,
			"0.024": 0.0,
			"0.025": 0.0
		}
	}
}
