{
	 "smiles": "NC1=CC=C(C=C1)S(=O)(=O)C(F)F", 
	 "Tm": 376.15, 
	 "num_atms": 20, 
	 "gaussian": { 
		 "optdone": 1, 
		 "sigma_profile": "yes", 
		 "theory": "DFT", 
		 "functional": "B3LYP", 
		 "basiset": "6-31G**", 
		 "properties": { 
			 "R2extent": 3539.2781, 
			 "electric_dipole_moment_norm": 7.64364072285, 
			 "electric_quadrupole_moment_norm": 25.6394369962, 
			 "total_energy": -1073.94525768, 
			 "HOMO_LUMO_gap": 0.19871, 
			 "cosmo_polarized_energy": -18.79, 
			 "cosmo_cavitation_energy": 26.79, 
			 "cosmo_dispersion_energy": -19.64, 
			 "cosmo_repulsion_energy": 1.48, 
			 "cosmo_total_nonelectrostatic_energy": 8.63, 
			 "SMD_solvation_energy": 4.81 
		},
		"coords": [
			{
				"x": -2.4118685713,
				"y": -3.8979677476,
				"z": -1.4181198945,
				"element": "N" 
			},
			{
				"x": -1.3870269875,
				"y": -3.0243677484,
				"z": -1.1190936662,
				"element": "C" 
			},
			{
				"x": -1.4233101816,
				"y": -2.2527283488,
				"z": 0.0612689404,
				"element": "C" 
			},
			{
				"x": -0.4160019664,
				"y": -1.3400359007,
				"z": 0.338385794,
				"element": "C" 
			},
			{
				"x": 0.6465592711,
				"y": -1.1855410619,
				"z": -0.5595084359,
				"element": "C" 
			},
			{
				"x": 0.7030795823,
				"y": -1.947223513,
				"z": -1.7337424747,
				"element": "C" 
			},
			{
				"x": -0.3050915825,
				"y": -2.8571163118,
				"z": -2.010320148,
				"element": "C" 
			},
			{
				"x": 1.9353667401,
				"y": -0.0190102279,
				"z": -0.2001381253,
				"element": "S" 
			},
			{
				"x": 1.8432709815,
				"y": 0.3689107301,
				"z": 1.215619766,
				"element": "O" 
			},
			{
				"x": 3.1900572111,
				"y": -0.4779697777,
				"z": -0.8075967656,
				"element": "O" 
			},
			{
				"x": 1.3978798098,
				"y": 1.4951166449,
				"z": -1.150629784,
				"element": "C" 
			},
			{
				"x": 2.3706433338,
				"y": 2.4165376511,
				"z": -1.0269054455,
				"element": "F" 
			},
			{
				"x": 1.2578900134,
				"y": 1.1615764907,
				"z": -2.4534179523,
				"element": "F" 
			},
			{
				"x": -2.2265583043,
				"y": -4.6155073623,
				"z": -2.1026992193,
				"element": "H" 
			},
			{
				"x": -3.0053170277,
				"y": -4.1963945618,
				"z": -0.6587649447,
				"element": "H" 
			},
			{
				"x": -2.2464689249,
				"y": -2.3800253688,
				"z": 0.7590859084,
				"element": "H" 
			},
			{
				"x": -0.4307103724,
				"y": -0.7611055034,
				"z": 1.2557616415,
				"element": "H" 
			},
			{
				"x": 1.5431382578,
				"y": -1.8338522832,
				"z": -2.4102152966,
				"element": "H" 
			},
			{
				"x": -0.2638728044,
				"y": -3.4516947998,
				"z": -2.9188790765,
				"element": "H" 
			},
			{
				"x": 0.4525415221,
				"y": 1.8733990002,
				"z": -0.7459908211,
				"element": "H" 
			}
		],
		 "valence_orbital": [ 
			{
				"type": "occ",
				"energy": -0.3182,
				"method": "rhf"
			},
			{
				"type": "occ",
				"energy": -0.30274,
				"method": "rhf"
			},
			{
				"type": "occ",
				"energy": -0.28411,
				"method": "rhf"
			},
			{
				"type": "occ",
				"energy": -0.27573,
				"method": "rhf"
			},
			{
				"type": "occ",
				"energy": -0.23301,
				"method": "rhf"
			},
			{
				"type": "unocc",
				"energy": -0.0343,
				"method": "rhf"
			},
			{
				"type": "unocc",
				"energy": -0.02394,
				"method": "rhf"
			},
			{
				"type": "unocc",
				"energy": 0.05258,
				"method": "rhf"
			},
			{
				"type": "unocc",
				"energy": 0.06056,
				"method": "rhf"
			},
			{
				"type": "unocc",
				"energy": 0.06811,
				"method": "rhf"
			}
		],
		"cosmo_sigma_profile": { 
			"-0.025": 0.0,
			"-0.024": 0.0,
			"-0.023": 0.0,
			"-0.022": 0.0,
			"-0.021": 0.0,
			"-0.02": 0.0,
			"-0.019": 0.0,
			"-0.018": 0.0,
			"-0.017": 0.0,
			"-0.016": 0.0,
			"-0.015": 0.0,
			"-0.014": 1.02220105776,
			"-0.013": 3.12287845184,
			"-0.012": 4.62333808015,
			"-0.011": 6.57369199028,
			"-0.01": 4.97129265653,
			"-0.009": 4.87760867742,
			"-0.008": 4.19688926618,
			"-0.007": 7.75222489907,
			"-0.006": 9.60204747598,
			"-0.005": 9.09981684708,
			"-0.004": 7.76426408666,
			"-0.003": 7.38258662252,
			"-0.002": 7.67400402226,
			"-0.001": 8.0555463914,
			"0.0": 8.52318443247,
			"0.001": 14.4900279669,
			"0.002": 27.3720454216,
			"0.003": 27.4247497151,
			"0.004": 9.79885626109,
			"0.005": 4.01505435389,
			"0.006": 3.19008109119,
			"0.007": 4.21551541225,
			"0.008": 4.06773260014,
			"0.009": 3.92223043577,
			"0.01": 10.1665464233,
			"0.011": 8.55688856821,
			"0.012": 1.49354088108,
			"0.013": 0.0,
			"0.014": 0.0,
			"0.015": 0.0,
			"0.016": 0.0,
			"0.017": 0.0,
			"0.018": 0.0,
			"0.019": 0.0,
			"0.02": 0.0,
			"0.021": 0.0,
			"0.022": 0.0,
			"0.023": 0.0,
			"0.024": 0.0,
			"0.025": 0.0
		}
	}
}
