{
	 "smiles": "FC1=CC=C(OCCS(Cl)(=O)=O)C=C1", 
	 "Tm": 308.15, 
	 "num_atms": 22, 
	 "gaussian": { 
		 "optdone": 1, 
		 "sigma_profile": "yes", 
		 "theory": "DFT", 
		 "functional": "B3LYP", 
		 "basiset": "6-31G**", 
		 "properties": { 
			 "R2extent": 4738.0917, 
			 "electric_dipole_moment_norm": 4.41009416113, 
			 "electric_quadrupole_moment_norm": 10.4289378428, 
			 "total_energy": -1493.47697643, 
			 "HOMO_LUMO_gap": 0.15612, 
			 "cosmo_polarized_energy": -13.75, 
			 "cosmo_cavitation_energy": 30.11, 
			 "cosmo_dispersion_energy": -21.99, 
			 "cosmo_repulsion_energy": 1.66, 
			 "cosmo_total_nonelectrostatic_energy": 9.78, 
			 "SMD_solvation_energy": 4.41 
		},
		"coords": [
			{
				"x": 1.0643280268,
				"y": -4.5992376072,
				"z": -3.1684346871,
				"element": "F" 
			},
			{
				"x": 1.0779281929,
				"y": -3.5868274974,
				"z": -2.276797619,
				"element": "C" 
			},
			{
				"x": -0.0687019631,
				"y": -3.3222159672,
				"z": -1.5361783479,
				"element": "C" 
			},
			{
				"x": -0.0537113434,
				"y": -2.2705371357,
				"z": -0.6190575482,
				"element": "C" 
			},
			{
				"x": 1.1075354817,
				"y": -1.5115923421,
				"z": -0.4544077522,
				"element": "C" 
			},
			{
				"x": 1.1186914614,
				"y": -0.5135910342,
				"z": 0.5112178574,
				"element": "O" 
			},
			{
				"x": 1.2361878207,
				"y": 0.8182277805,
				"z": 0.0443454193,
				"element": "C" 
			},
			{
				"x": -0.056386452,
				"y": 1.3569596236,
				"z": -0.5771088407,
				"element": "C" 
			},
			{
				"x": -1.401714607,
				"y": 1.4169354893,
				"z": 0.6542481737,
				"element": "S" 
			},
			{
				"x": -2.7432057229,
				"y": 2.7215342887,
				"z": -0.3870153298,
				"element": "Cl" 
			},
			{
				"x": -2.0758191946,
				"y": 0.1287011992,
				"z": 0.7511228267,
				"element": "O" 
			},
			{
				"x": -0.9331431934,
				"y": 2.1367369841,
				"z": 1.8318418492,
				"element": "O" 
			},
			{
				"x": 2.2566808514,
				"y": -1.7978018197,
				"z": -1.1980007941,
				"element": "C" 
			},
			{
				"x": 2.2424948889,
				"y": -2.841251609,
				"z": -2.1232103574,
				"element": "C" 
			},
			{
				"x": -0.9543353015,
				"y": -3.9306278749,
				"z": -1.6833382924,
				"element": "H" 
			},
			{
				"x": -0.9284724173,
				"y": -2.0291481567,
				"z": -0.0252003646,
				"element": "H" 
			},
			{
				"x": 2.0213133572,
				"y": 0.913667545,
				"z": -0.7186375694,
				"element": "H" 
			},
			{
				"x": 1.5165702834,
				"y": 1.4240451133,
				"z": 0.9089048006,
				"element": "H" 
			},
			{
				"x": 0.0788001172,
				"y": 2.3846987943,
				"z": -0.9211372185,
				"element": "H" 
			},
			{
				"x": -0.4240686638,
				"y": 0.7337681643,
				"z": -1.3951903774,
				"element": "H" 
			},
			{
				"x": 3.1632154873,
				"y": -1.2221487337,
				"z": -1.0381188147,
				"element": "H" 
			},
			{
				"x": 3.1195128902,
				"y": -3.0900952046,
				"z": -2.7106470136,
				"element": "H" 
			}
		],
		 "valence_orbital": [ 
			{
				"type": "occ",
				"energy": -0.33443,
				"method": "rhf"
			},
			{
				"type": "occ",
				"energy": -0.32019,
				"method": "rhf"
			},
			{
				"type": "occ",
				"energy": -0.30485,
				"method": "rhf"
			},
			{
				"type": "occ",
				"energy": -0.27358,
				"method": "rhf"
			},
			{
				"type": "occ",
				"energy": -0.245,
				"method": "rhf"
			},
			{
				"type": "unocc",
				"energy": -0.08888,
				"method": "rhf"
			},
			{
				"type": "unocc",
				"energy": -0.02557,
				"method": "rhf"
			},
			{
				"type": "unocc",
				"energy": -0.00763,
				"method": "rhf"
			},
			{
				"type": "unocc",
				"energy": 0.02519,
				"method": "rhf"
			},
			{
				"type": "unocc",
				"energy": 0.05309,
				"method": "rhf"
			}
		],
		"cosmo_sigma_profile": { 
			"-0.025": 0.0,
			"-0.024": 0.0,
			"-0.023": 0.0,
			"-0.022": 0.0,
			"-0.021": 0.0,
			"-0.02": 0.0,
			"-0.019": 0.0,
			"-0.018": 0.0,
			"-0.017": 0.0,
			"-0.016": 0.0,
			"-0.015": 0.0,
			"-0.014": 0.0,
			"-0.013": 0.0,
			"-0.012": 0.0594793346929,
			"-0.011": 2.08601842046,
			"-0.01": 3.88907930375,
			"-0.009": 5.2354223624,
			"-0.008": 9.24508065543,
			"-0.007": 14.4118515747,
			"-0.006": 12.095485998,
			"-0.005": 11.9238538379,
			"-0.004": 9.72739583844,
			"-0.003": 8.81437065921,
			"-0.002": 9.61739928892,
			"-0.001": 10.5033882858,
			"0.0": 14.0778239938,
			"0.001": 19.6565286638,
			"0.002": 21.8523722187,
			"0.003": 29.1803989688,
			"0.004": 23.4994239127,
			"0.005": 10.1989820375,
			"0.006": 4.19596738364,
			"0.007": 6.75071789074,
			"0.008": 8.85623565273,
			"0.009": 5.97926614315,
			"0.01": 1.25853145726,
			"0.011": 0.236750739444,
			"0.012": 0.0,
			"0.013": 0.0,
			"0.014": 0.0,
			"0.015": 0.0,
			"0.016": 0.0,
			"0.017": 0.0,
			"0.018": 0.0,
			"0.019": 0.0,
			"0.02": 0.0,
			"0.021": 0.0,
			"0.022": 0.0,
			"0.023": 0.0,
			"0.024": 0.0,
			"0.025": 0.0
		}
	}
}
