{
	 "smiles": "O=S1(=O)CC2=CC=CC3=CC=CC(C1)=C23", 
	 "Tm": 512.15, 
	 "num_atms": 25, 
	 "gaussian": { 
		 "optdone": 1, 
		 "sigma_profile": "yes", 
		 "theory": "DFT", 
		 "functional": "B3LYP", 
		 "basiset": "6-31G**", 
		 "properties": { 
			 "R2extent": 4151.4002, 
			 "electric_dipole_moment_norm": 5.22013683537, 
			 "electric_quadrupole_moment_norm": 27.4951210179, 
			 "total_energy": -1011.89083975, 
			 "HOMO_LUMO_gap": 0.16935, 
			 "cosmo_polarized_energy": -17.05, 
			 "cosmo_cavitation_energy": 28.82, 
			 "cosmo_dispersion_energy": -22.03, 
			 "cosmo_repulsion_energy": 1.62, 
			 "cosmo_total_nonelectrostatic_energy": 8.42, 
			 "SMD_solvation_energy": 3.31 
		},
		"coords": [
			{
				"x": -3.4425876475,
				"y": -1.0234544358,
				"z": 3.1802081919,
				"element": "O" 
			},
			{
				"x": -2.0680873454,
				"y": -0.5931366609,
				"z": 2.8793675501,
				"element": "S" 
			},
			{
				"x": -0.9953012396,
				"y": -0.7606582213,
				"z": 3.8696790764,
				"element": "O" 
			},
			{
				"x": -2.1125615048,
				"y": 1.1328155644,
				"z": 2.3257055229,
				"element": "C" 
			},
			{
				"x": -0.8201655276,
				"y": 1.5749877073,
				"z": 1.6774939237,
				"element": "C" 
			},
			{
				"x": -0.4334593095,
				"y": 2.8924245257,
				"z": 1.8291316292,
				"element": "C" 
			},
			{
				"x": 0.7350017969,
				"y": 3.3959072881,
				"z": 1.2174863716,
				"element": "C" 
			},
			{
				"x": 1.5253278128,
				"y": 2.5615359498,
				"z": 0.465142965,
				"element": "C" 
			},
			{
				"x": 1.1844499893,
				"y": 1.1931715943,
				"z": 0.2980319092,
				"element": "C" 
			},
			{
				"x": 2.0239252874,
				"y": 0.3278212874,
				"z": -0.4522977294,
				"element": "C" 
			},
			{
				"x": 1.7170995169,
				"y": -1.0040095209,
				"z": -0.5897289803,
				"element": "C" 
			},
			{
				"x": 0.5516908535,
				"y": -1.5215172823,
				"z": 0.0160324949,
				"element": "C" 
			},
			{
				"x": -0.3088838055,
				"y": -0.7160547914,
				"z": 0.7363116748,
				"element": "C" 
			},
			{
				"x": -1.5602180087,
				"y": -1.342771308,
				"z": 1.3085599138,
				"element": "C" 
			},
			{
				"x": -0.0127558071,
				"y": 0.6773946611,
				"z": 0.9031502152,
				"element": "C" 
			},
			{
				"x": -2.9687354382,
				"y": 1.1892069204,
				"z": 1.6436893785,
				"element": "H" 
			},
			{
				"x": -2.346071305,
				"y": 1.7283725552,
				"z": 3.2120984954,
				"element": "H" 
			},
			{
				"x": -1.046010984,
				"y": 3.557806796,
				"z": 2.4316443811,
				"element": "H" 
			},
			{
				"x": 1.0049582564,
				"y": 4.4387016824,
				"z": 1.3531103411,
				"element": "H" 
			},
			{
				"x": 2.4315561775,
				"y": 2.9324016637,
				"z": -0.00576912,
				"element": "H" 
			},
			{
				"x": 2.9210855644,
				"y": 0.7394390754,
				"z": -0.9064170672,
				"element": "H" 
			},
			{
				"x": 2.367469352,
				"y": -1.6653091312,
				"z": -1.1539909301,
				"element": "H" 
			},
			{
				"x": 0.3236305016,
				"y": -2.5788293911,
				"z": -0.0891081716,
				"element": "H" 
			},
			{
				"x": -2.4283646339,
				"y": -1.2323031727,
				"z": 0.6486530207,
				"element": "H" 
			},
			{
				"x": -1.4233925519,
				"y": -2.4079433554,
				"z": 1.5125149429,
				"element": "H" 
			}
		],
		 "valence_orbital": [ 
			{
				"type": "occ",
				"energy": -0.29499,
				"method": "rhf"
			},
			{
				"type": "occ",
				"energy": -0.29034,
				"method": "rhf"
			},
			{
				"type": "occ",
				"energy": -0.28631,
				"method": "rhf"
			},
			{
				"type": "occ",
				"energy": -0.25913,
				"method": "rhf"
			},
			{
				"type": "occ",
				"energy": -0.22555,
				"method": "rhf"
			},
			{
				"type": "unocc",
				"energy": -0.0562,
				"method": "rhf"
			},
			{
				"type": "unocc",
				"energy": -0.0265,
				"method": "rhf"
			},
			{
				"type": "unocc",
				"energy": 0.00663,
				"method": "rhf"
			},
			{
				"type": "unocc",
				"energy": 0.06156,
				"method": "rhf"
			},
			{
				"type": "unocc",
				"energy": 0.07477,
				"method": "rhf"
			}
		],
		"cosmo_sigma_profile": { 
			"-0.025": 0.0,
			"-0.024": 0.0,
			"-0.023": 0.0,
			"-0.022": 0.0,
			"-0.021": 0.0,
			"-0.02": 0.0,
			"-0.019": 0.0,
			"-0.018": 0.0,
			"-0.017": 0.0,
			"-0.016": 0.0,
			"-0.015": 0.0,
			"-0.014": 0.0,
			"-0.013": 0.0,
			"-0.012": 0.129836490234,
			"-0.011": 0.865686176307,
			"-0.01": 1.81782219356,
			"-0.009": 7.35942972817,
			"-0.008": 9.65180363712,
			"-0.007": 11.7364989769,
			"-0.006": 18.7016246925,
			"-0.005": 18.9839446022,
			"-0.004": 15.9388514426,
			"-0.003": 10.4098310073,
			"-0.002": 9.95995730181,
			"-0.001": 9.49370524029,
			"0.0": 9.15090158654,
			"0.001": 10.6486808453,
			"0.002": 11.8093666521,
			"0.003": 22.1318154693,
			"0.004": 18.646482539,
			"0.005": 4.87470958648,
			"0.006": 3.19602153038,
			"0.007": 2.47063846401,
			"0.008": 3.12723424869,
			"0.009": 3.15658241572,
			"0.01": 4.48689901888,
			"0.011": 11.2014018503,
			"0.012": 9.73533793292,
			"0.013": 0.705648554302,
			"0.014": 0.0,
			"0.015": 0.0,
			"0.016": 0.0,
			"0.017": 0.0,
			"0.018": 0.0,
			"0.019": 0.0,
			"0.02": 0.0,
			"0.021": 0.0,
			"0.022": 0.0,
			"0.023": 0.0,
			"0.024": 0.0,
			"0.025": 0.0
		}
	}
}
