{
	 "smiles": "ClCC1=CSC(COC2=CC=CC=C2)=N1", 
	 "Tm": 323.15, 
	 "num_atms": 25, 
	 "gaussian": { 
		 "optdone": 1, 
		 "sigma_profile": "yes", 
		 "theory": "DFT", 
		 "functional": "B3LYP", 
		 "basiset": "6-31G**", 
		 "properties": { 
			 "R2extent": 5182.5171, 
			 "electric_dipole_moment_norm": 2.23976753258, 
			 "electric_quadrupole_moment_norm": 11.9672104974, 
			 "total_energy": -1413.53510159, 
			 "HOMO_LUMO_gap": 0.18009, 
			 "cosmo_polarized_energy": -10.7, 
			 "cosmo_cavitation_energy": 32.97, 
			 "cosmo_dispersion_energy": -23.73, 
			 "cosmo_repulsion_energy": 1.85, 
			 "cosmo_total_nonelectrostatic_energy": 11.1, 
			 "SMD_solvation_energy": 3.69 
		},
		"coords": [
			{
				"x": 4.4177119476,
				"y": -1.4406965566,
				"z": 1.400039485,
				"element": "Cl" 
			},
			{
				"x": 4.1081542716,
				"y": 0.1541642482,
				"z": 2.2514006108,
				"element": "C" 
			},
			{
				"x": 2.8676869306,
				"y": 0.8250458626,
				"z": 1.7697871017,
				"element": "C" 
			},
			{
				"x": 2.8190551093,
				"y": 1.8468293197,
				"z": 0.8597528825,
				"element": "C" 
			},
			{
				"x": 1.1824008711,
				"y": 2.3242587666,
				"z": 0.5714195201,
				"element": "S" 
			},
			{
				"x": 0.6706395991,
				"y": 1.0930027047,
				"z": 1.7199689657,
				"element": "C" 
			},
			{
				"x": -0.780540911,
				"y": 0.912852141,
				"z": 2.0873943371,
				"element": "C" 
			},
			{
				"x": -1.6641133918,
				"y": 1.0872894467,
				"z": 0.9919135045,
				"element": "O" 
			},
			{
				"x": -1.809042244,
				"y": 0.0605413317,
				"z": 0.0833622858,
				"element": "C" 
			},
			{
				"x": -1.0526835129,
				"y": -1.1157685182,
				"z": 0.0841601553,
				"element": "C" 
			},
			{
				"x": -1.3058166366,
				"y": -2.0878973975,
				"z": -0.8896555893,
				"element": "C" 
			},
			{
				"x": -2.2920996164,
				"y": -1.8976000003,
				"z": -1.8548790364,
				"element": "C" 
			},
			{
				"x": -3.0370157729,
				"y": -0.7136627721,
				"z": -1.8476283798,
				"element": "C" 
			},
			{
				"x": -2.8003750761,
				"y": 0.2625789006,
				"z": -0.8853264796,
				"element": "C" 
			},
			{
				"x": 1.640766573,
				"y": 0.408166185,
				"z": 2.2470717995,
				"element": "N" 
			},
			{
				"x": 4.9926977318,
				"y": 0.7643476732,
				"z": 2.0730948216,
				"element": "H" 
			},
			{
				"x": 4.0304344535,
				"y": -0.0923714215,
				"z": 3.309849603,
				"element": "H" 
			},
			{
				"x": 3.6412048037,
				"y": 2.314586879,
				"z": 0.3363490367,
				"element": "H" 
			},
			{
				"x": -0.8946524617,
				"y": -0.0680346729,
				"z": 2.5628410209,
				"element": "H" 
			},
			{
				"x": -1.0781038427,
				"y": 1.6786273165,
				"z": 2.8114153051,
				"element": "H" 
			},
			{
				"x": -0.2657450921,
				"y": -1.2814019232,
				"z": 0.8103449194,
				"element": "H" 
			},
			{
				"x": -0.7142981096,
				"y": -2.9989405881,
				"z": -0.8870350578,
				"element": "H" 
			},
			{
				"x": -2.4783290589,
				"y": -2.6584735951,
				"z": -2.6064045256,
				"element": "H" 
			},
			{
				"x": -3.8090984218,
				"y": -0.5501806315,
				"z": -2.5941383912,
				"element": "H" 
			},
			{
				"x": -3.3708381428,
				"y": 1.1853373015,
				"z": -0.8600978948,
				"element": "H" 
			}
		],
		 "valence_orbital": [ 
			{
				"type": "occ",
				"energy": -0.29168,
				"method": "rhf"
			},
			{
				"type": "occ",
				"energy": -0.28803,
				"method": "rhf"
			},
			{
				"type": "occ",
				"energy": -0.25541,
				"method": "rhf"
			},
			{
				"type": "occ",
				"energy": -0.24859,
				"method": "rhf"
			},
			{
				"type": "occ",
				"energy": -0.22376,
				"method": "rhf"
			},
			{
				"type": "unocc",
				"energy": -0.04367,
				"method": "rhf"
			},
			{
				"type": "unocc",
				"energy": -0.00781,
				"method": "rhf"
			},
			{
				"type": "unocc",
				"energy": 0.00073,
				"method": "rhf"
			},
			{
				"type": "unocc",
				"energy": 0.00905,
				"method": "rhf"
			},
			{
				"type": "unocc",
				"energy": 0.01518,
				"method": "rhf"
			}
		],
		"cosmo_sigma_profile": { 
			"-0.025": 0.0,
			"-0.024": 0.0,
			"-0.023": 0.0,
			"-0.022": 0.0,
			"-0.021": 0.0,
			"-0.02": 0.0,
			"-0.019": 0.0,
			"-0.018": 0.0,
			"-0.017": 0.0,
			"-0.016": 0.0,
			"-0.015": 0.0,
			"-0.014": 0.0,
			"-0.013": 0.0,
			"-0.012": 0.0,
			"-0.011": 0.0,
			"-0.01": 0.907262302904,
			"-0.009": 3.79977941677,
			"-0.008": 7.96404771484,
			"-0.007": 9.63527410209,
			"-0.006": 14.0312508622,
			"-0.005": 19.3103279299,
			"-0.004": 18.539713275,
			"-0.003": 16.3856816622,
			"-0.002": 12.9859615078,
			"-0.001": 14.3769226679,
			"0.0": 19.659091701,
			"0.001": 22.5804349297,
			"0.002": 22.2101379823,
			"0.003": 17.2833626673,
			"0.004": 17.0366083607,
			"0.005": 17.1530340955,
			"0.006": 18.9034756,
			"0.007": 8.46318574637,
			"0.008": 1.76775917691,
			"0.009": 2.28992928343,
			"0.01": 1.0032036962,
			"0.011": 0.791491745039,
			"0.012": 0.354014222781,
			"0.013": 0.770706737876,
			"0.014": 0.252298988236,
			"0.015": 0.0,
			"0.016": 0.0,
			"0.017": 0.0,
			"0.018": 0.0,
			"0.019": 0.0,
			"0.02": 0.0,
			"0.021": 0.0,
			"0.022": 0.0,
			"0.023": 0.0,
			"0.024": 0.0,
			"0.025": 0.0
		}
	}
}
