{
	 "smiles": "CCOC(=O)C1=CC2=C(N1)C=CC(=C2)[N+]([O-])=O", 
	 "Tm": 495.15, 
	 "num_atms": 27, 
	 "gaussian": { 
		 "optdone": 1, 
		 "sigma_profile": "yes", 
		 "theory": "DFT", 
		 "functional": "B3LYP", 
		 "basiset": "6-31G**", 
		 "properties": { 
			 "R2extent": 6951.265, 
			 "electric_dipole_moment_norm": 7.40972061552, 
			 "electric_quadrupole_moment_norm": 21.9315021987, 
			 "total_energy": -835.524123755, 
			 "HOMO_LUMO_gap": 0.15637, 
			 "cosmo_polarized_energy": -15.76, 
			 "cosmo_cavitation_energy": 33.01, 
			 "cosmo_dispersion_energy": -24.05, 
			 "cosmo_repulsion_energy": 1.87, 
			 "cosmo_total_nonelectrostatic_energy": 10.83, 
			 "SMD_solvation_energy": 8.66 
		},
		"coords": [
			{
				"x": -4.185716654,
				"y": -2.0400145651,
				"z": 1.244623747,
				"element": "C" 
			},
			{
				"x": -2.8322133792,
				"y": -1.9317633394,
				"z": 1.9194637055,
				"element": "C" 
			},
			{
				"x": -1.8955187317,
				"y": -1.4170931749,
				"z": 0.9413727604,
				"element": "O" 
			},
			{
				"x": -0.6206820835,
				"y": -1.2538382595,
				"z": 1.3764442189,
				"element": "C" 
			},
			{
				"x": -0.2431931016,
				"y": -1.5081786848,
				"z": 2.5014528622,
				"element": "O" 
			},
			{
				"x": 0.2372295767,
				"y": -0.7287173657,
				"z": 0.3052157576,
				"element": "C" 
			},
			{
				"x": 1.5793128986,
				"y": -0.4325833621,
				"z": 0.3562117805,
				"element": "C" 
			},
			{
				"x": 1.9479915233,
				"y": 0.0472498499,
				"z": -0.9395374566,
				"element": "C" 
			},
			{
				"x": 0.768058447,
				"y": 0.0192900681,
				"z": -1.7483040125,
				"element": "C" 
			},
			{
				"x": -0.2491048815,
				"y": -0.4544859999,
				"z": -0.9674156126,
				"element": "N" 
			},
			{
				"x": 0.7712393956,
				"y": 0.4287009105,
				"z": -3.0914613844,
				"element": "C" 
			},
			{
				"x": 1.9677685081,
				"y": 0.8694491556,
				"z": -3.6266530709,
				"element": "C" 
			},
			{
				"x": 3.1317800129,
				"y": 0.8968835707,
				"z": -2.8281789878,
				"element": "C" 
			},
			{
				"x": 3.1515047134,
				"y": 0.497532055,
				"z": -1.5006556232,
				"element": "C" 
			},
			{
				"x": 4.380047966,
				"y": 1.3716338037,
				"z": -3.4356009149,
				"element": "N" 
			},
			{
				"x": 5.3910983231,
				"y": 1.3927224754,
				"z": -2.732153498,
				"element": "O" 
			},
			{
				"x": 4.3459906907,
				"y": 1.7226420342,
				"z": -4.6164084158,
				"element": "O" 
			},
			{
				"x": -4.9221641627,
				"y": -2.4270482943,
				"z": 1.9553203864,
				"element": "H" 
			},
			{
				"x": -4.5297157981,
				"y": -1.0624201556,
				"z": 0.8943308451,
				"element": "H" 
			},
			{
				"x": -4.1453154274,
				"y": -2.7209897191,
				"z": 0.3894214234,
				"element": "H" 
			},
			{
				"x": -2.8506770127,
				"y": -1.251634049,
				"z": 2.7764112587,
				"element": "H" 
			},
			{
				"x": -2.4685627191,
				"y": -2.900751602,
				"z": 2.2745712221,
				"element": "H" 
			},
			{
				"x": 2.2087752335,
				"y": -0.5508992364,
				"z": 1.225491706,
				"element": "H" 
			},
			{
				"x": -1.210239704,
				"y": -0.5958221882,
				"z": -1.236385252,
				"element": "H" 
			},
			{
				"x": -0.1313437422,
				"y": 0.402288044,
				"z": -3.6936059923,
				"element": "H" 
			},
			{
				"x": 2.0388770951,
				"y": 1.1988368221,
				"z": -4.6550380487,
				"element": "H" 
			},
			{
				"x": 4.0755730139,
				"y": 0.5409112065,
				"z": -0.9377334039,
				"element": "H" 
			}
		],
		 "valence_orbital": [ 
			{
				"type": "occ",
				"energy": -0.30003,
				"method": "rhf"
			},
			{
				"type": "occ",
				"energy": -0.29064,
				"method": "rhf"
			},
			{
				"type": "occ",
				"energy": -0.28225,
				"method": "rhf"
			},
			{
				"type": "occ",
				"energy": -0.25559,
				"method": "rhf"
			},
			{
				"type": "occ",
				"energy": -0.23717,
				"method": "rhf"
			},
			{
				"type": "unocc",
				"energy": -0.0808,
				"method": "rhf"
			},
			{
				"type": "unocc",
				"energy": -0.06141,
				"method": "rhf"
			},
			{
				"type": "unocc",
				"energy": 0.00034,
				"method": "rhf"
			},
			{
				"type": "unocc",
				"energy": 0.02434,
				"method": "rhf"
			},
			{
				"type": "unocc",
				"energy": 0.06895,
				"method": "rhf"
			}
		],
		"cosmo_sigma_profile": { 
			"-0.025": 0.0,
			"-0.024": 0.0,
			"-0.023": 0.0,
			"-0.022": 0.0,
			"-0.021": 0.0,
			"-0.02": 0.0,
			"-0.019": 0.0,
			"-0.018": 0.0,
			"-0.017": 0.0,
			"-0.016": 0.825460011697,
			"-0.015": 0.973554167582,
			"-0.014": 1.19669338147,
			"-0.013": 1.0081952569,
			"-0.012": 0.878791385363,
			"-0.011": 0.818675051145,
			"-0.01": 1.52209714682,
			"-0.009": 1.22099649995,
			"-0.008": 3.50547722644,
			"-0.007": 6.52900508162,
			"-0.006": 9.88484872644,
			"-0.005": 15.218472523,
			"-0.004": 20.2557852921,
			"-0.003": 21.7382994659,
			"-0.002": 22.1963578885,
			"-0.001": 21.3939978845,
			"0.0": 23.8585996073,
			"0.001": 26.6746681683,
			"0.002": 19.6751593337,
			"0.003": 11.9816357159,
			"0.004": 4.20055536461,
			"0.005": 5.47204144559,
			"0.006": 3.91417209278,
			"0.007": 5.80132817623,
			"0.008": 12.2675609402,
			"0.009": 6.08953646155,
			"0.01": 6.32830203351,
			"0.011": 4.60231188017,
			"0.012": 3.87135548368,
			"0.013": 0.0742340499431,
			"0.014": 0.0,
			"0.015": 0.0,
			"0.016": 0.0,
			"0.017": 0.0,
			"0.018": 0.0,
			"0.019": 0.0,
			"0.02": 0.0,
			"0.021": 0.0,
			"0.022": 0.0,
			"0.023": 0.0,
			"0.024": 0.0,
			"0.025": 0.0
		}
	}
}
