{
	 "smiles": "CC(C)(C)OC(=O)NC1=CC(CC(O)=O)=CC=C1", 
	 "Tm": 371.15, 
	 "num_atms": 35, 
	 "gaussian": { 
		 "optdone": 1, 
		 "sigma_profile": "yes", 
		 "theory": "DFT", 
		 "functional": "B3LYP", 
		 "basiset": "6-31G**", 
		 "properties": { 
			 "R2extent": 5696.1678, 
			 "electric_dipole_moment_norm": 2.23138708879, 
			 "electric_quadrupole_moment_norm": 7.74922653818, 
			 "total_energy": -861.3351399, 
			 "HOMO_LUMO_gap": 0.20341, 
			 "cosmo_polarized_energy": -15.42, 
			 "cosmo_cavitation_energy": 38.49, 
			 "cosmo_dispersion_energy": -25.87, 
			 "cosmo_repulsion_energy": 2.0, 
			 "cosmo_total_nonelectrostatic_energy": 14.62, 
			 "SMD_solvation_energy": 8.55 
		},
		"coords": [
			{
				"x": 0.1077694542,
				"y": 2.7896093428,
				"z": -1.1472853761,
				"element": "C" 
			},
			{
				"x": -0.9233844018,
				"y": 1.6630979371,
				"z": -1.0349059117,
				"element": "C" 
			},
			{
				"x": -0.7655147262,
				"y": 0.6560188941,
				"z": -2.1768173166,
				"element": "C" 
			},
			{
				"x": -2.3599579576,
				"y": 2.1893349501,
				"z": -0.9644900461,
				"element": "C" 
			},
			{
				"x": -0.6265464291,
				"y": 0.8406312442,
				"z": 0.1584889634,
				"element": "O" 
			},
			{
				"x": -0.6588122827,
				"y": 1.3689522155,
				"z": 1.3915992622,
				"element": "C" 
			},
			{
				"x": -0.9840774402,
				"y": 2.5067032876,
				"z": 1.6898532644,
				"element": "O" 
			},
			{
				"x": -0.2815862443,
				"y": 0.4648256962,
				"z": 2.3698304558,
				"element": "N" 
			},
			{
				"x": 0.2250744743,
				"y": -0.8483844908,
				"z": 2.3460725708,
				"element": "C" 
			},
			{
				"x": 0.4610923852,
				"y": -1.5863348514,
				"z": 1.1788419315,
				"element": "C" 
			},
			{
				"x": 0.985773068,
				"y": -2.8815892732,
				"z": 1.2554901395,
				"element": "C" 
			},
			{
				"x": 1.2291576737,
				"y": -3.6566634483,
				"z": -0.0335192637,
				"element": "C" 
			},
			{
				"x": 2.2226242373,
				"y": -2.9380751607,
				"z": -0.927994518,
				"element": "C" 
			},
			{
				"x": 3.4847603363,
				"y": -3.3915878665,
				"z": -0.7514400177,
				"element": "O" 
			},
			{
				"x": 1.9534516778,
				"y": -2.0422222289,
				"z": -1.6998905632,
				"element": "O" 
			},
			{
				"x": 1.2794149762,
				"y": -3.4520181128,
				"z": 2.4960715441,
				"element": "C" 
			},
			{
				"x": 1.0369012814,
				"y": -2.7206609571,
				"z": 3.6608234859,
				"element": "C" 
			},
			{
				"x": 0.5163667298,
				"y": -1.4339718326,
				"z": 3.5923143413,
				"element": "C" 
			},
			{
				"x": 1.1212117497,
				"y": 2.3769210558,
				"z": -1.1647535924,
				"element": "H" 
			},
			{
				"x": 0.0195636531,
				"y": 3.4857585691,
				"z": -0.3123895033,
				"element": "H" 
			},
			{
				"x": -0.0515216367,
				"y": 3.3383038661,
				"z": -2.0810795526,
				"element": "H" 
			},
			{
				"x": -1.5032155581,
				"y": -0.1470168052,
				"z": -2.0865976388,
				"element": "H" 
			},
			{
				"x": -0.9204997581,
				"y": 1.1573257554,
				"z": -3.1369886595,
				"element": "H" 
			},
			{
				"x": 0.2312197951,
				"y": 0.206283239,
				"z": -2.1729900443,
				"element": "H" 
			},
			{
				"x": -2.6106942444,
				"y": 2.6849608482,
				"z": -1.9080615882,
				"element": "H" 
			},
			{
				"x": -2.4799379031,
				"y": 2.9004833889,
				"z": -0.1473494708,
				"element": "H" 
			},
			{
				"x": -3.0607726031,
				"y": 1.3608853891,
				"z": -0.8209963576,
				"element": "H" 
			},
			{
				"x": -0.3438497988,
				"y": 0.8942524716,
				"z": 3.2822126202,
				"element": "H" 
			},
			{
				"x": 0.2493443891,
				"y": -1.1533982938,
				"z": 0.2132883428,
				"element": "H" 
			},
			{
				"x": 1.600005668,
				"y": -4.6585268701,
				"z": 0.1927603455,
				"element": "H" 
			},
			{
				"x": 0.2978787911,
				"y": -3.7455500384,
				"z": -0.6012162096,
				"element": "H" 
			},
			{
				"x": 4.0502961132,
				"y": -2.8508099119,
				"z": -1.3288569126,
				"element": "H" 
			},
			{
				"x": 1.6902950207,
				"y": -4.455594271,
				"z": 2.5535875709,
				"element": "H" 
			},
			{
				"x": 1.2577409734,
				"y": -3.1559416726,
				"z": 4.6311134364,
				"element": "H" 
			},
			{
				"x": 0.3329285368,
				"y": -0.8729020655,
				"z": 4.5055742678,
				"element": "H" 
			}
		],
		 "valence_orbital": [ 
			{
				"type": "occ",
				"energy": -0.29077,
				"method": "rhf"
			},
			{
				"type": "occ",
				"energy": -0.2793,
				"method": "rhf"
			},
			{
				"type": "occ",
				"energy": -0.26806,
				"method": "rhf"
			},
			{
				"type": "occ",
				"energy": -0.24816,
				"method": "rhf"
			},
			{
				"type": "occ",
				"energy": -0.21692,
				"method": "rhf"
			},
			{
				"type": "unocc",
				"energy": -0.01351,
				"method": "rhf"
			},
			{
				"type": "unocc",
				"energy": -0.00522,
				"method": "rhf"
			},
			{
				"type": "unocc",
				"energy": 0.01393,
				"method": "rhf"
			},
			{
				"type": "unocc",
				"energy": 0.06508,
				"method": "rhf"
			},
			{
				"type": "unocc",
				"energy": 0.07577,
				"method": "rhf"
			}
		],
		"cosmo_sigma_profile": { 
			"-0.025": 0.0,
			"-0.024": 0.0,
			"-0.023": 0.0,
			"-0.022": 0.0,
			"-0.021": 0.0,
			"-0.02": 0.0,
			"-0.019": 0.0,
			"-0.018": 0.759780463647,
			"-0.017": 0.855193743953,
			"-0.016": 1.08987632508,
			"-0.015": 1.36845181498,
			"-0.014": 1.31483243771,
			"-0.013": 1.46260809613,
			"-0.012": 1.83797592373,
			"-0.011": 2.10159335699,
			"-0.01": 1.90047784032,
			"-0.009": 1.36876635408,
			"-0.008": 2.10425720379,
			"-0.007": 2.90500912577,
			"-0.006": 10.7753490801,
			"-0.005": 13.6985172832,
			"-0.004": 24.3432855631,
			"-0.003": 22.9955170916,
			"-0.002": 22.7418283165,
			"-0.001": 26.8580969355,
			"0.0": 32.7192555248,
			"0.001": 25.4295512433,
			"0.002": 17.4147792149,
			"0.003": 18.9923810948,
			"0.004": 16.4243350355,
			"0.005": 15.0291122996,
			"0.006": 7.93870770691,
			"0.007": 4.76084721701,
			"0.008": 4.17809314473,
			"0.009": 4.85360732442,
			"0.01": 3.79663308243,
			"0.011": 4.11089459647,
			"0.012": 3.04809496091,
			"0.013": 3.46265661068,
			"0.014": 0.395708893315,
			"0.015": 0.0,
			"0.016": 0.0,
			"0.017": 0.0,
			"0.018": 0.0,
			"0.019": 0.0,
			"0.02": 0.0,
			"0.021": 0.0,
			"0.022": 0.0,
			"0.023": 0.0,
			"0.024": 0.0,
			"0.025": 0.0
		}
	}
}
