{
	 "smiles": "CCCCNCCCC", 
	 "Tm": 212.15, 
	 "num_atms": 28, 
	 "gaussian": { 
		 "optdone": 1, 
		 "sigma_profile": "yes", 
		 "theory": "DFT", 
		 "functional": "B3LYP", 
		 "basiset": "6-31G**", 
		 "properties": { 
			 "R2extent": 2330.9705, 
			 "electric_dipole_moment_norm": 0.938870369114, 
			 "electric_quadrupole_moment_norm": 1.82877233684, 
			 "total_energy": -371.067875743, 
			 "HOMO_LUMO_gap": 0.29666, 
			 "cosmo_polarized_energy": -3.36, 
			 "cosmo_cavitation_energy": 28.51, 
			 "cosmo_dispersion_energy": -20.26, 
			 "cosmo_repulsion_energy": 1.72, 
			 "cosmo_total_nonelectrostatic_energy": 9.98, 
			 "SMD_solvation_energy": 3.12 
		},
		"coords": [
			{
				"x": 1.3669424885,
				"y": -2.7790022823,
				"z": 2.6113599462,
				"element": "C" 
			},
			{
				"x": 0.3309904747,
				"y": -1.8186519097,
				"z": 3.2088394535,
				"element": "C" 
			},
			{
				"x": 0.1385785686,
				"y": -0.5164603744,
				"z": 2.4155406068,
				"element": "C" 
			},
			{
				"x": -0.4634659143,
				"y": -0.7086526349,
				"z": 1.0207311894,
				"element": "C" 
			},
			{
				"x": -0.6462632235,
				"y": 0.577101828,
				"z": 0.3505069776,
				"element": "N" 
			},
			{
				"x": -1.2795122622,
				"y": 0.4949760017,
				"z": -0.9682523147,
				"element": "C" 
			},
			{
				"x": -0.3022412952,
				"y": 0.0631395952,
				"z": -2.073940075,
				"element": "C" 
			},
			{
				"x": 0.9173698165,
				"y": 0.9821173469,
				"z": -2.2460557396,
				"element": "C" 
			},
			{
				"x": 0.5791743666,
				"y": 2.38808632,
				"z": -2.7552257423,
				"element": "C" 
			},
			{
				"x": 2.3419895208,
				"y": -2.2895910289,
				"z": 2.5043670034,
				"element": "H" 
			},
			{
				"x": 1.0687168506,
				"y": -3.1406370067,
				"z": 1.6218942673,
				"element": "H" 
			},
			{
				"x": 1.5044695021,
				"y": -3.6566759698,
				"z": 3.2515449625,
				"element": "H" 
			},
			{
				"x": 0.633920755,
				"y": -1.5608069925,
				"z": 4.2313858409,
				"element": "H" 
			},
			{
				"x": -0.6349432601,
				"y": -2.3339998949,
				"z": 3.3013162279,
				"element": "H" 
			},
			{
				"x": 1.0972800514,
				"y": 0.0079589992,
				"z": 2.3144780342,
				"element": "H" 
			},
			{
				"x": -0.5185915314,
				"y": 0.152408581,
				"z": 2.9901936003,
				"element": "H" 
			},
			{
				"x": 0.2097320126,
				"y": -1.3206381661,
				"z": 0.4097675671,
				"element": "H" 
			},
			{
				"x": -1.4099768426,
				"y": -1.2812546484,
				"z": 1.1041212142,
				"element": "H" 
			},
			{
				"x": -1.2062874322,
				"y": 1.1776750935,
				"z": 0.9499082301,
				"element": "H" 
			},
			{
				"x": -2.1456546785,
				"y": -0.1945201867,
				"z": -0.974613533,
				"element": "H" 
			},
			{
				"x": -1.6746813041,
				"y": 1.4893821138,
				"z": -1.205352713,
				"element": "H" 
			},
			{
				"x": -0.8629048391,
				"y": 0.0061472622,
				"z": -3.0174506766,
				"element": "H" 
			},
			{
				"x": 0.0441953227,
				"y": -0.958276839,
				"z": -1.8705408593,
				"element": "H" 
			},
			{
				"x": 1.434646219,
				"y": 1.0582220683,
				"z": -1.2832811585,
				"element": "H" 
			},
			{
				"x": 1.6170167364,
				"y": 0.5072330223,
				"z": -2.9458434202,
				"element": "H" 
			},
			{
				"x": 1.4879655754,
				"y": 2.9789826225,
				"z": -2.9111797773,
				"element": "H" 
			},
			{
				"x": -0.046401439,
				"y": 2.9381515975,
				"z": -2.0445115013,
				"element": "H" 
			},
			{
				"x": 0.0417357613,
				"y": 2.3483854821,
				"z": -3.7105076104,
				"element": "H" 
			}
		],
		 "valence_orbital": [ 
			{
				"type": "occ",
				"energy": -0.32016,
				"method": "rhf"
			},
			{
				"type": "occ",
				"energy": -0.31589,
				"method": "rhf"
			},
			{
				"type": "occ",
				"energy": -0.31101,
				"method": "rhf"
			},
			{
				"type": "occ",
				"energy": -0.30799,
				"method": "rhf"
			},
			{
				"type": "occ",
				"energy": -0.21458,
				"method": "rhf"
			},
			{
				"type": "unocc",
				"energy": 0.08208,
				"method": "rhf"
			},
			{
				"type": "unocc",
				"energy": 0.0928,
				"method": "rhf"
			},
			{
				"type": "unocc",
				"energy": 0.10196,
				"method": "rhf"
			},
			{
				"type": "unocc",
				"energy": 0.12548,
				"method": "rhf"
			},
			{
				"type": "unocc",
				"energy": 0.13533,
				"method": "rhf"
			}
		],
		"cosmo_sigma_profile": { 
			"-0.025": 0.0,
			"-0.024": 0.0,
			"-0.023": 0.0,
			"-0.022": 0.0,
			"-0.021": 0.0,
			"-0.02": 0.0,
			"-0.019": 0.0,
			"-0.018": 0.0,
			"-0.017": 0.0,
			"-0.016": 0.0,
			"-0.015": 0.0,
			"-0.014": 0.0,
			"-0.013": 0.0,
			"-0.012": 0.0,
			"-0.011": 0.0,
			"-0.01": 0.00969174678937,
			"-0.009": 0.914314147377,
			"-0.008": 1.27811545884,
			"-0.007": 1.40905590406,
			"-0.006": 1.58456001732,
			"-0.005": 1.76048894715,
			"-0.004": 2.02666984746,
			"-0.003": 10.840518425,
			"-0.002": 27.8509015224,
			"-0.001": 42.0515787469,
			"0.0": 50.7604981718,
			"0.001": 42.9607382322,
			"0.002": 20.5911244071,
			"0.003": 2.9467761145,
			"0.004": 1.48999746874,
			"0.005": 1.8834967445,
			"0.006": 1.18164104845,
			"0.007": 1.02274855566,
			"0.008": 0.78360945361,
			"0.009": 0.71906027284,
			"0.01": 1.04337701105,
			"0.011": 0.537205916231,
			"0.012": 1.01815796213,
			"0.013": 0.553638630163,
			"0.014": 0.371269992086,
			"0.015": 0.431850682242,
			"0.016": 0.177536593305,
			"0.017": 0.0,
			"0.018": 0.0,
			"0.019": 0.0,
			"0.02": 0.0,
			"0.021": 0.0,
			"0.022": 0.0,
			"0.023": 0.0,
			"0.024": 0.0,
			"0.025": 0.0
		}
	}
}
