{
	 "smiles": "NC1=NC=C(OC2=CC=C(F)C=C2)C=C1", 
	 "Tm": 348.15, 
	 "num_atms": 24, 
	 "gaussian": { 
		 "optdone": 1, 
		 "sigma_profile": "yes", 
		 "theory": "DFT", 
		 "functional": "B3LYP", 
		 "basiset": "6-31G**", 
		 "properties": { 
			 "R2extent": 4405.2816, 
			 "electric_dipole_moment_norm": 3.20630008733, 
			 "electric_quadrupole_moment_norm": 9.72092154531, 
			 "total_energy": -709.145777851, 
			 "HOMO_LUMO_gap": 0.18371, 
			 "cosmo_polarized_energy": -11.3, 
			 "cosmo_cavitation_energy": 29.57, 
			 "cosmo_dispersion_energy": -21.41, 
			 "cosmo_repulsion_energy": 1.66, 
			 "cosmo_total_nonelectrostatic_energy": 9.83, 
			 "SMD_solvation_energy": 4.39 
		},
		"coords": [
			{
				"x": -3.9030630536,
				"y": 1.8919448517,
				"z": -0.9910784145,
				"element": "N" 
			},
			{
				"x": -2.5604695708,
				"y": 1.5573540346,
				"z": -0.9581837826,
				"element": "C" 
			},
			{
				"x": -2.0936554423,
				"y": 0.8693517899,
				"z": -2.0104263242,
				"element": "N" 
			},
			{
				"x": -0.8166472423,
				"y": 0.4711761162,
				"z": -1.9902071834,
				"element": "C" 
			},
			{
				"x": 0.0554141455,
				"y": 0.7501796463,
				"z": -0.9430471156,
				"element": "C" 
			},
			{
				"x": 1.3880908901,
				"y": 0.3872553957,
				"z": -1.0517302151,
				"element": "O" 
			},
			{
				"x": 1.8991522393,
				"y": -0.5896425474,
				"z": -0.2199195232,
				"element": "C" 
			},
			{
				"x": 3.2947892352,
				"y": -0.6796890373,
				"z": -0.1726739082,
				"element": "C" 
			},
			{
				"x": 3.9047321356,
				"y": -1.6543434022,
				"z": 0.6125467244,
				"element": "C" 
			},
			{
				"x": 3.1068631299,
				"y": -2.5265334145,
				"z": 1.3467798199,
				"element": "C" 
			},
			{
				"x": 3.6968333484,
				"y": -3.4703111746,
				"z": 2.1145250088,
				"element": "F" 
			},
			{
				"x": 1.7210946499,
				"y": -2.4504488237,
				"z": 1.3099416786,
				"element": "C" 
			},
			{
				"x": 1.1093396399,
				"y": -1.475655256,
				"z": 0.518184475,
				"element": "C" 
			},
			{
				"x": -0.424738637,
				"y": 1.4819523478,
				"z": 0.1488525147,
				"element": "C" 
			},
			{
				"x": -1.7497853032,
				"y": 1.887178326,
				"z": 0.1502102264,
				"element": "C" 
			},
			{
				"x": -4.1878040429,
				"y": 2.705842027,
				"z": -0.4668907751,
				"element": "H" 
			},
			{
				"x": -4.3177288121,
				"y": 1.8166797232,
				"z": -1.9095711382,
				"element": "H" 
			},
			{
				"x": -0.4559824628,
				"y": -0.0827213656,
				"z": -2.8547047349,
				"element": "H" 
			},
			{
				"x": 3.8841549172,
				"y": 0.0184311034,
				"z": -0.7574694846,
				"element": "H" 
			},
			{
				"x": 4.9845452664,
				"y": -1.7423000151,
				"z": 0.6639912121,
				"element": "H" 
			},
			{
				"x": 1.1304156736,
				"y": -3.1501362415,
				"z": 1.8914036047,
				"element": "H" 
			},
			{
				"x": 0.0284017225,
				"y": -1.4116621312,
				"z": 0.474744975,
				"element": "H" 
			},
			{
				"x": 0.2371407645,
				"y": 1.7248826738,
				"z": 0.9744185952,
				"element": "H" 
			},
			{
				"x": -2.1589931911,
				"y": 2.4488153736,
				"z": 0.9847037649,
				"element": "H" 
			}
		],
		 "valence_orbital": [ 
			{
				"type": "occ",
				"energy": -0.28617,
				"method": "rhf"
			},
			{
				"type": "occ",
				"energy": -0.26198,
				"method": "rhf"
			},
			{
				"type": "occ",
				"energy": -0.26073,
				"method": "rhf"
			},
			{
				"type": "occ",
				"energy": -0.22442,
				"method": "rhf"
			},
			{
				"type": "occ",
				"energy": -0.21007,
				"method": "rhf"
			},
			{
				"type": "unocc",
				"energy": -0.02636,
				"method": "rhf"
			},
			{
				"type": "unocc",
				"energy": -0.00894,
				"method": "rhf"
			},
			{
				"type": "unocc",
				"energy": 0.00361,
				"method": "rhf"
			},
			{
				"type": "unocc",
				"energy": 0.01611,
				"method": "rhf"
			},
			{
				"type": "unocc",
				"energy": 0.08027,
				"method": "rhf"
			}
		],
		"cosmo_sigma_profile": { 
			"-0.025": 0.0,
			"-0.024": 0.0,
			"-0.023": 0.0,
			"-0.022": 0.0,
			"-0.021": 0.0,
			"-0.02": 0.0,
			"-0.019": 0.0,
			"-0.018": 0.0,
			"-0.017": 0.0,
			"-0.016": 0.0,
			"-0.015": 0.0,
			"-0.014": 0.132096222388,
			"-0.013": 1.61437374702,
			"-0.012": 2.2453515874,
			"-0.011": 2.64522944818,
			"-0.01": 2.4145584769,
			"-0.009": 2.47968533118,
			"-0.008": 3.18964634776,
			"-0.007": 10.9535513958,
			"-0.006": 12.8550621074,
			"-0.005": 13.6978841615,
			"-0.004": 11.9353813345,
			"-0.003": 11.5980605316,
			"-0.002": 11.1852080688,
			"-0.001": 12.926091643,
			"0.0": 14.1781303638,
			"0.001": 18.4507951986,
			"0.002": 24.7663383086,
			"0.003": 23.8549369555,
			"0.004": 22.8208365221,
			"0.005": 11.0545049507,
			"0.006": 3.97124739541,
			"0.007": 3.6515056168,
			"0.008": 3.14932758032,
			"0.009": 2.93271456862,
			"0.01": 2.19678395546,
			"0.011": 2.03291989206,
			"0.012": 1.39065221273,
			"0.013": 1.31523303537,
			"0.014": 0.650225180993,
			"0.015": 0.639591788952,
			"0.016": 0.295030917643,
			"0.017": 0.0,
			"0.018": 0.0,
			"0.019": 0.0,
			"0.02": 0.0,
			"0.021": 0.0,
			"0.022": 0.0,
			"0.023": 0.0,
			"0.024": 0.0,
			"0.025": 0.0
		}
	}
}
