{
	 "smiles": "CC(C)OC(=O)C1=C(Cl)C=C(F)C(=C1)C1=NN(C)C(=C1Br)C(F)(F)F", 
	 "Tm": 353.15, 
	 "num_atms": 37, 
	 "gaussian": { 
		 "optdone": 1, 
		 "sigma_profile": "yes", 
		 "theory": "DFT", 
		 "functional": "B3LYP", 
		 "basiset": "6-31G**", 
		 "properties": { 
			 "R2extent": 15948.1225, 
			 "electric_dipole_moment_norm": 3.97750591326, 
			 "electric_quadrupole_moment_norm": 15.8476760691, 
			 "total_energy": -4269.7301185, 
			 "HOMO_LUMO_gap": 0.1906, 
			 "cosmo_polarized_energy": -11.23, 
			 "cosmo_cavitation_energy": 47.59, 
			 "cosmo_dispersion_energy": -32.74, 
			 "cosmo_repulsion_energy": 2.46, 
			 "cosmo_total_nonelectrostatic_energy": 17.3, 
			 "SMD_solvation_energy": 8.26 
		},
		"coords": [
			{
				"x": -2.3250905605,
				"y": -1.9745209026,
				"z": 2.6043285831,
				"element": "C" 
			},
			{
				"x": -3.3259616555,
				"y": -1.2029126918,
				"z": 1.7560075183,
				"element": "C" 
			},
			{
				"x": -4.1980411504,
				"y": -2.0934478161,
				"z": 0.8770883278,
				"element": "C" 
			},
			{
				"x": -2.533254167,
				"y": -0.3166692626,
				"z": 0.9101534968,
				"element": "O" 
			},
			{
				"x": -3.126058831,
				"y": 0.8268229993,
				"z": 0.4936897693,
				"element": "C" 
			},
			{
				"x": -4.2703297028,
				"y": 1.1258352823,
				"z": 0.7640909034,
				"element": "O" 
			},
			{
				"x": -2.1796185689,
				"y": 1.6611310523,
				"z": -0.3143683763,
				"element": "C" 
			},
			{
				"x": -2.5989637909,
				"y": 2.7291893177,
				"z": -1.1347001711,
				"element": "C" 
			},
			{
				"x": -4.2758745745,
				"y": 3.1558027787,
				"z": -1.3715107062,
				"element": "Cl" 
			},
			{
				"x": -1.6646842182,
				"y": 3.4947215171,
				"z": -1.8315076068,
				"element": "C" 
			},
			{
				"x": -0.3144720225,
				"y": 3.2015202613,
				"z": -1.7120442593,
				"element": "C" 
			},
			{
				"x": 0.5608553789,
				"y": 3.9915239651,
				"z": -2.3542860649,
				"element": "F" 
			},
			{
				"x": 0.1557794543,
				"y": 2.1372858808,
				"z": -0.9361016184,
				"element": "C" 
			},
			{
				"x": -0.8036062763,
				"y": 1.3932929679,
				"z": -0.2445198301,
				"element": "C" 
			},
			{
				"x": 1.5890297251,
				"y": 1.8259888302,
				"z": -0.7931115373,
				"element": "C" 
			},
			{
				"x": 2.0988896084,
				"y": 1.602964701,
				"z": 0.4251369284,
				"element": "N" 
			},
			{
				"x": 3.3901345719,
				"y": 1.2945059734,
				"z": 0.2414459394,
				"element": "N" 
			},
			{
				"x": 4.2403938908,
				"y": 1.0600379125,
				"z": 1.4022162914,
				"element": "C" 
			},
			{
				"x": 3.7419954555,
				"y": 1.3171567254,
				"z": -1.0768371197,
				"element": "C" 
			},
			{
				"x": 2.5931057434,
				"y": 1.6515954179,
				"z": -1.7792766923,
				"element": "C" 
			},
			{
				"x": 2.369869681,
				"y": 1.7421505086,
				"z": -3.6419050704,
				"element": "Br" 
			},
			{
				"x": 5.135839156,
				"y": 0.9928718289,
				"z": -1.5078310071,
				"element": "C" 
			},
			{
				"x": 5.3061456115,
				"y": 1.1416168152,
				"z": -2.8248508723,
				"element": "F" 
			},
			{
				"x": 5.4640065631,
				"y": -0.2836988305,
				"z": -1.1858535672,
				"element": "F" 
			},
			{
				"x": 6.0348450407,
				"y": 1.7877786816,
				"z": -0.8766953562,
				"element": "F" 
			},
			{
				"x": -1.7102165175,
				"y": -1.2928708973,
				"z": 3.1987557418,
				"element": "H" 
			},
			{
				"x": -1.663755043,
				"y": -2.5777884743,
				"z": 1.9740838951,
				"element": "H" 
			},
			{
				"x": -2.8539199282,
				"y": -2.6460076359,
				"z": 3.2877600805,
				"element": "H" 
			},
			{
				"x": -3.9613172057,
				"y": -0.571230205,
				"z": 2.3832616786,
				"element": "H" 
			},
			{
				"x": -4.8940091391,
				"y": -1.4896459028,
				"z": 0.2905665552,
				"element": "H" 
			},
			{
				"x": -4.7810708233,
				"y": -2.7792453386,
				"z": 1.500363292,
				"element": "H" 
			},
			{
				"x": -3.5794772676,
				"y": -2.6875804817,
				"z": 0.1966071985,
				"element": "H" 
			},
			{
				"x": -1.9777935065,
				"y": 4.3234103391,
				"z": -2.4542597551,
				"element": "H" 
			},
			{
				"x": -0.4701102633,
				"y": 0.5721984294,
				"z": 0.3761344767,
				"element": "H" 
			},
			{
				"x": 4.8713944883,
				"y": 1.9297748259,
				"z": 1.6022848421,
				"element": "H" 
			},
			{
				"x": 4.8705899351,
				"y": 0.1867332377,
				"z": 1.2285995636,
				"element": "H" 
			},
			{
				"x": 3.5774509085,
				"y": 0.8819081899,
				"z": 2.247384529,
				"element": "H" 
			}
		],
		 "valence_orbital": [ 
			{
				"type": "occ",
				"energy": -0.28998,
				"method": "rhf"
			},
			{
				"type": "occ",
				"energy": -0.27114,
				"method": "rhf"
			},
			{
				"type": "occ",
				"energy": -0.2666,
				"method": "rhf"
			},
			{
				"type": "occ",
				"energy": -0.26016,
				"method": "rhf"
			},
			{
				"type": "occ",
				"energy": -0.24401,
				"method": "rhf"
			},
			{
				"type": "unocc",
				"energy": -0.05341,
				"method": "rhf"
			},
			{
				"type": "unocc",
				"energy": -0.03894,
				"method": "rhf"
			},
			{
				"type": "unocc",
				"energy": -0.02581,
				"method": "rhf"
			},
			{
				"type": "unocc",
				"energy": 0.00268,
				"method": "rhf"
			},
			{
				"type": "unocc",
				"energy": 0.02515,
				"method": "rhf"
			}
		],
		"cosmo_sigma_profile": { 
			"-0.025": 0.0,
			"-0.024": 0.0,
			"-0.023": 0.0,
			"-0.022": 0.0,
			"-0.021": 0.0,
			"-0.02": 0.0,
			"-0.019": 0.0,
			"-0.018": 0.0,
			"-0.017": 0.0,
			"-0.016": 0.0,
			"-0.015": 0.0,
			"-0.014": 0.0,
			"-0.013": 0.0,
			"-0.012": 0.0,
			"-0.011": 0.0,
			"-0.01": 0.133407044134,
			"-0.009": 1.27862009621,
			"-0.008": 2.11874919614,
			"-0.007": 6.15696338498,
			"-0.006": 8.51080740213,
			"-0.005": 13.78465333,
			"-0.004": 30.6182334212,
			"-0.003": 33.6072801954,
			"-0.002": 35.5303177127,
			"-0.001": 43.4467051677,
			"0.0": 51.7581136248,
			"0.001": 36.1358726439,
			"0.002": 42.9922818924,
			"0.003": 32.8079471768,
			"0.004": 16.7712139563,
			"0.005": 7.2606489614,
			"0.006": 3.34407620742,
			"0.007": 2.89153889585,
			"0.008": 2.55773277433,
			"0.009": 2.93054077908,
			"0.01": 2.96327342385,
			"0.011": 3.91683974134,
			"0.012": 3.9766382658,
			"0.013": 0.177951345206,
			"0.014": 0.0,
			"0.015": 0.0,
			"0.016": 0.0,
			"0.017": 0.0,
			"0.018": 0.0,
			"0.019": 0.0,
			"0.02": 0.0,
			"0.021": 0.0,
			"0.022": 0.0,
			"0.023": 0.0,
			"0.024": 0.0,
			"0.025": 0.0
		}
	}
}
