{
	 "smiles": "OC(=O)C1=CC=CN1CC1=CC=CC=C1", 
	 "Tm": 398.15, 
	 "num_atms": 26, 
	 "gaussian": { 
		 "optdone": 1, 
		 "sigma_profile": "yes", 
		 "theory": "DFT", 
		 "functional": "B3LYP", 
		 "basiset": "6-31G**", 
		 "properties": { 
			 "R2extent": 3726.7911, 
			 "electric_dipole_moment_norm": 3.66655869993, 
			 "electric_quadrupole_moment_norm": 16.2596665738, 
			 "total_energy": -669.10771409, 
			 "HOMO_LUMO_gap": 0.19896, 
			 "cosmo_polarized_energy": -14.23, 
			 "cosmo_cavitation_energy": 29.96, 
			 "cosmo_dispersion_energy": -21.48, 
			 "cosmo_repulsion_energy": 1.65, 
			 "cosmo_total_nonelectrostatic_energy": 10.14, 
			 "SMD_solvation_energy": 6.19 
		},
		"coords": [
			{
				"x": 2.4133046398,
				"y": -0.4487685377,
				"z": 3.8569624726,
				"element": "O" 
			},
			{
				"x": 1.9673127478,
				"y": -0.4484439659,
				"z": 2.5716072141,
				"element": "C" 
			},
			{
				"x": 2.7321001758,
				"y": -0.7630502236,
				"z": 1.6785740024,
				"element": "O" 
			},
			{
				"x": 0.5592080449,
				"y": -0.0723236954,
				"z": 2.4000258618,
				"element": "C" 
			},
			{
				"x": -0.4599711436,
				"y": -0.0432377156,
				"z": 3.3530135855,
				"element": "C" 
			},
			{
				"x": -1.6492899157,
				"y": 0.3386270101,
				"z": 2.7012485228,
				"element": "C" 
			},
			{
				"x": -1.3279358537,
				"y": 0.5357069642,
				"z": 1.3688801926,
				"element": "C" 
			},
			{
				"x": -0.0001129712,
				"y": 0.2857326923,
				"z": 1.1815669946,
				"element": "N" 
			},
			{
				"x": 0.6767184289,
				"y": 0.4192673591,
				"z": -0.1233552243,
				"element": "C" 
			},
			{
				"x": 0.3542005375,
				"y": -0.7143619146,
				"z": -1.077784715,
				"element": "C" 
			},
			{
				"x": -0.5306563626,
				"y": -0.5154208576,
				"z": -2.1432692736,
				"element": "C" 
			},
			{
				"x": -0.8350910621,
				"y": -1.5592521738,
				"z": -3.0199944026,
				"element": "C" 
			},
			{
				"x": -0.2540445967,
				"y": -2.8139732422,
				"z": -2.8358490061,
				"element": "C" 
			},
			{
				"x": 0.6352359551,
				"y": -3.0183965729,
				"z": -1.7770585069,
				"element": "C" 
			},
			{
				"x": 0.9408699684,
				"y": -1.9759038482,
				"z": -0.9032372516,
				"element": "C" 
			},
			{
				"x": 1.7554464639,
				"y": -0.0324775472,
				"z": 4.4314860399,
				"element": "H" 
			},
			{
				"x": -0.3657017161,
				"y": -0.3203995768,
				"z": 4.3952978671,
				"element": "H" 
			},
			{
				"x": -2.6292602947,
				"y": 0.4505814328,
				"z": 3.1422014075,
				"element": "H" 
			},
			{
				"x": -1.9491720259,
				"y": 0.8352107121,
				"z": 0.537187682,
				"element": "H" 
			},
			{
				"x": 1.7461884556,
				"y": 0.4601594801,
				"z": 0.0748967417,
				"element": "H" 
			},
			{
				"x": 0.3623843505,
				"y": 1.3746355176,
				"z": -0.5543606781,
				"element": "H" 
			},
			{
				"x": -0.979318203,
				"y": 0.46407419,
				"z": -2.2947887484,
				"element": "H" 
			},
			{
				"x": -1.52176276,
				"y": -1.3905531006,
				"z": -3.844722614,
				"element": "H" 
			},
			{
				"x": -0.4877246598,
				"y": -3.6277636457,
				"z": -3.5164663588,
				"element": "H" 
			},
			{
				"x": 1.09688967,
				"y": -3.9916180678,
				"z": -1.6358671889,
				"element": "H" 
			},
			{
				"x": 1.641182127,
				"y": -2.1237506726,
				"z": -0.086694616,
				"element": "H" 
			}
		],
		 "valence_orbital": [ 
			{
				"type": "occ",
				"energy": -0.2743,
				"method": "rhf"
			},
			{
				"type": "occ",
				"energy": -0.25727,
				"method": "rhf"
			},
			{
				"type": "occ",
				"energy": -0.25125,
				"method": "rhf"
			},
			{
				"type": "occ",
				"energy": -0.24489,
				"method": "rhf"
			},
			{
				"type": "occ",
				"energy": -0.23127,
				"method": "rhf"
			},
			{
				"type": "unocc",
				"energy": -0.03231,
				"method": "rhf"
			},
			{
				"type": "unocc",
				"energy": -0.00679,
				"method": "rhf"
			},
			{
				"type": "unocc",
				"energy": -0.00204,
				"method": "rhf"
			},
			{
				"type": "unocc",
				"energy": 0.04411,
				"method": "rhf"
			},
			{
				"type": "unocc",
				"energy": 0.07103,
				"method": "rhf"
			}
		],
		"cosmo_sigma_profile": { 
			"-0.025": 0.0,
			"-0.024": 0.0,
			"-0.023": 0.0,
			"-0.022": 0.0,
			"-0.021": 0.0,
			"-0.02": 0.0,
			"-0.019": 0.0,
			"-0.018": 0.324577482715,
			"-0.017": 0.853709921775,
			"-0.016": 1.13288339871,
			"-0.015": 0.873054074958,
			"-0.014": 0.560070871119,
			"-0.013": 1.21779673918,
			"-0.012": 1.29329594829,
			"-0.011": 1.09622701695,
			"-0.01": 0.932733623172,
			"-0.009": 1.11903195627,
			"-0.008": 3.05354661071,
			"-0.007": 7.44745878802,
			"-0.006": 12.4436966744,
			"-0.005": 15.5263886443,
			"-0.004": 18.2726639751,
			"-0.003": 20.7839799422,
			"-0.002": 14.9550395024,
			"-0.001": 14.3021052459,
			"0.0": 13.6615818667,
			"0.001": 12.9902253367,
			"0.002": 14.4287248951,
			"0.003": 16.6504550037,
			"0.004": 16.2408626196,
			"0.005": 16.0285476813,
			"0.006": 12.6343020681,
			"0.007": 2.61709282821,
			"0.008": 2.36108550183,
			"0.009": 2.8835950003,
			"0.01": 3.81313320474,
			"0.011": 3.88276310531,
			"0.012": 2.923357027,
			"0.013": 2.14975864154,
			"0.014": 0.562640540651,
			"0.015": 0.0,
			"0.016": 0.0,
			"0.017": 0.0,
			"0.018": 0.0,
			"0.019": 0.0,
			"0.02": 0.0,
			"0.021": 0.0,
			"0.022": 0.0,
			"0.023": 0.0,
			"0.024": 0.0,
			"0.025": 0.0
		}
	}
}
