{
	 "smiles": "OC(=O)C1=CN=C(CC2=CC=CC=C2)S1", 
	 "Tm": 473.15, 
	 "num_atms": 24, 
	 "gaussian": { 
		 "optdone": 1, 
		 "sigma_profile": "yes", 
		 "theory": "DFT", 
		 "functional": "B3LYP", 
		 "basiset": "6-31G**", 
		 "properties": { 
			 "R2extent": 4654.4397, 
			 "electric_dipole_moment_norm": 5.13561907271, 
			 "electric_quadrupole_moment_norm": 22.763992073, 
			 "total_energy": -1027.98090707, 
			 "HOMO_LUMO_gap": 0.18109, 
			 "cosmo_polarized_energy": -15.62, 
			 "cosmo_cavitation_energy": 30.99, 
			 "cosmo_dispersion_energy": -22.47, 
			 "cosmo_repulsion_energy": 1.72, 
			 "cosmo_total_nonelectrostatic_energy": 10.23, 
			 "SMD_solvation_energy": 4.54 
		},
		"coords": [
			{
				"x": -4.6221894071,
				"y": -0.2592648671,
				"z": -0.7662466511,
				"element": "O" 
			},
			{
				"x": -4.0024042912,
				"y": 0.7053832456,
				"z": -1.4942107298,
				"element": "C" 
			},
			{
				"x": -4.6523255328,
				"y": 1.5596654077,
				"z": -2.0497154906,
				"element": "O" 
			},
			{
				"x": -2.523196684,
				"y": 0.6652611231,
				"z": -1.5755523451,
				"element": "C" 
			},
			{
				"x": -1.7593559972,
				"y": 1.6099143752,
				"z": -2.2140254019,
				"element": "C" 
			},
			{
				"x": -0.4056681252,
				"y": 1.4152147944,
				"z": -2.1966560359,
				"element": "N" 
			},
			{
				"x": -0.0839519359,
				"y": 0.3261632465,
				"z": -1.552874779,
				"element": "C" 
			},
			{
				"x": 1.3288610539,
				"y": -0.1413696659,
				"z": -1.3294107786,
				"element": "C" 
			},
			{
				"x": 1.8530651343,
				"y": 0.1709782015,
				"z": 0.0661236187,
				"element": "C" 
			},
			{
				"x": 2.2449618291,
				"y": -0.8572772799,
				"z": 0.9295372444,
				"element": "C" 
			},
			{
				"x": 2.7329642264,
				"y": -0.5665015581,
				"z": 2.205867898,
				"element": "C" 
			},
			{
				"x": 2.8311505832,
				"y": 0.7581019868,
				"z": 2.6313012818,
				"element": "C" 
			},
			{
				"x": 2.4403152407,
				"y": 1.7909458331,
				"z": 1.7747052186,
				"element": "C" 
			},
			{
				"x": 1.9540486161,
				"y": 1.4997469722,
				"z": 0.5011725272,
				"element": "C" 
			},
			{
				"x": -1.4661357637,
				"y": -0.55648035,
				"z": -0.9063461652,
				"element": "S" 
			},
			{
				"x": -3.9873181181,
				"y": -0.8521128562,
				"z": -0.3393722612,
				"element": "H" 
			},
			{
				"x": -2.1824297491,
				"y": 2.4724204419,
				"z": -2.7141922899,
				"element": "H" 
			},
			{
				"x": 1.3990252633,
				"y": -1.2176983667,
				"z": -1.5170983859,
				"element": "H" 
			},
			{
				"x": 1.9370502264,
				"y": 0.3639898692,
				"z": -2.0867378314,
				"element": "H" 
			},
			{
				"x": 2.174032492,
				"y": -1.8916050057,
				"z": 0.6015148212,
				"element": "H" 
			},
			{
				"x": 3.0356212618,
				"y": -1.3754940375,
				"z": 2.8645625106,
				"element": "H" 
			},
			{
				"x": 3.2104565619,
				"y": 0.9861912066,
				"z": 3.6231019628,
				"element": "H" 
			},
			{
				"x": 2.515280723,
				"y": 2.824839325,
				"z": 2.0993261525,
				"element": "H" 
			},
			{
				"x": 1.6462423924,
				"y": 2.3034879583,
				"z": -0.1624740899,
				"element": "H" 
			}
		],
		 "valence_orbital": [ 
			{
				"type": "occ",
				"energy": -0.29411,
				"method": "rhf"
			},
			{
				"type": "occ",
				"energy": -0.28192,
				"method": "rhf"
			},
			{
				"type": "occ",
				"energy": -0.26609,
				"method": "rhf"
			},
			{
				"type": "occ",
				"energy": -0.26031,
				"method": "rhf"
			},
			{
				"type": "occ",
				"energy": -0.25176,
				"method": "rhf"
			},
			{
				"type": "unocc",
				"energy": -0.07067,
				"method": "rhf"
			},
			{
				"type": "unocc",
				"energy": -0.02317,
				"method": "rhf"
			},
			{
				"type": "unocc",
				"energy": -0.01259,
				"method": "rhf"
			},
			{
				"type": "unocc",
				"energy": -0.00996,
				"method": "rhf"
			},
			{
				"type": "unocc",
				"energy": 0.00983,
				"method": "rhf"
			}
		],
		"cosmo_sigma_profile": { 
			"-0.025": 0.0,
			"-0.024": 0.0,
			"-0.023": 0.0,
			"-0.022": 0.0,
			"-0.021": 0.0,
			"-0.02": 0.0,
			"-0.019": 0.138356637606,
			"-0.018": 0.650876880051,
			"-0.017": 0.849614068736,
			"-0.016": 1.39153512767,
			"-0.015": 0.54079617899,
			"-0.014": 0.785335172079,
			"-0.013": 1.66747224084,
			"-0.012": 1.32829779114,
			"-0.011": 0.772580023253,
			"-0.01": 0.613047113784,
			"-0.009": 1.30713618858,
			"-0.008": 3.19114801994,
			"-0.007": 6.7763288441,
			"-0.006": 12.2683046448,
			"-0.005": 16.3190543783,
			"-0.004": 19.0790106492,
			"-0.003": 19.0602925562,
			"-0.002": 15.8108733275,
			"-0.001": 18.8555352557,
			"0.0": 21.3119970004,
			"0.001": 18.387790481,
			"0.002": 15.6703428147,
			"0.003": 11.5743654042,
			"0.004": 11.5764707083,
			"0.005": 12.4929482303,
			"0.006": 7.03092206757,
			"0.007": 4.55198083776,
			"0.008": 3.91483467209,
			"0.009": 4.08638345977,
			"0.01": 6.28378796041,
			"0.011": 6.05316099898,
			"0.012": 4.31172530562,
			"0.013": 1.46121846765,
			"0.014": 0.485417571102,
			"0.015": 0.00415826665444,
			"0.016": 0.0,
			"0.017": 0.0,
			"0.018": 0.0,
			"0.019": 0.0,
			"0.02": 0.0,
			"0.021": 0.0,
			"0.022": 0.0,
			"0.023": 0.0,
			"0.024": 0.0,
			"0.025": 0.0
		}
	}
}
