{
	 "smiles": "CN1C=NN=C1S(C)(=O)=O", 
	 "Tm": 406.15, 
	 "num_atms": 17, 
	 "gaussian": { 
		 "optdone": 1, 
		 "sigma_profile": "yes", 
		 "theory": "DFT", 
		 "functional": "B3LYP", 
		 "basiset": "6-31G**", 
		 "properties": { 
			 "R2extent": 1551.0063, 
			 "electric_dipole_moment_norm": 2.14452521785, 
			 "electric_quadrupole_moment_norm": 26.7198367149, 
			 "total_energy": -869.430680185, 
			 "HOMO_LUMO_gap": 0.25337, 
			 "cosmo_polarized_energy": -19.01, 
			 "cosmo_cavitation_energy": 22.67, 
			 "cosmo_dispersion_energy": -16.93, 
			 "cosmo_repulsion_energy": 1.3, 
			 "cosmo_total_nonelectrostatic_energy": 7.04, 
			 "SMD_solvation_energy": 2.58 
		},
		"coords": [
			{
				"x": 0.7537721714,
				"y": -0.4173698165,
				"z": -2.6903913269,
				"element": "C" 
			},
			{
				"x": -0.3576390933,
				"y": -0.2374245426,
				"z": -1.7568540488,
				"element": "N" 
			},
			{
				"x": -1.7002027172,
				"y": -0.3297404002,
				"z": -1.9960306843,
				"element": "C" 
			},
			{
				"x": -2.3989148148,
				"y": -0.1027494184,
				"z": -0.9061525402,
				"element": "N" 
			},
			{
				"x": -1.4985819108,
				"y": 0.1515029713,
				"z": 0.1039128948,
				"element": "N" 
			},
			{
				"x": -0.3015849784,
				"y": 0.0654930941,
				"z": -0.4260823113,
				"element": "C" 
			},
			{
				"x": 1.2389064958,
				"y": 0.3089318604,
				"z": 0.4537599897,
				"element": "S" 
			},
			{
				"x": 0.6588278168,
				"y": 0.6678703783,
				"z": 2.116624589,
				"element": "C" 
			},
			{
				"x": 1.9584026133,
				"y": -0.9742065265,
				"z": 0.4502955113,
				"element": "O" 
			},
			{
				"x": 1.8865998216,
				"y": 1.5036191137,
				"z": -0.1095735708,
				"element": "O" 
			},
			{
				"x": 1.3919964484,
				"y": -1.2354639421,
				"z": -2.3504479147,
				"element": "H" 
			},
			{
				"x": 1.3437297758,
				"y": 0.4999180701,
				"z": -2.742299457,
				"element": "H" 
			},
			{
				"x": 0.3456438999,
				"y": -0.6508405143,
				"z": -3.6740382951,
				"element": "H" 
			},
			{
				"x": -2.1075417897,
				"y": -0.5618710587,
				"z": -2.9699413475,
				"element": "H" 
			},
			{
				"x": 1.5652141279,
				"y": 0.8272137578,
				"z": 2.7044087259,
				"element": "H" 
			},
			{
				"x": 0.0412101749,
				"y": 1.5650234937,
				"z": 2.0923464787,
				"element": "H" 
			},
			{
				"x": 0.0923619585,
				"y": -0.18540652,
				"z": 2.4880633073,
				"element": "H" 
			}
		],
		 "valence_orbital": [ 
			{
				"type": "occ",
				"energy": -0.31401,
				"method": "rhf"
			},
			{
				"type": "occ",
				"energy": -0.3119,
				"method": "rhf"
			},
			{
				"type": "occ",
				"energy": -0.3063,
				"method": "rhf"
			},
			{
				"type": "occ",
				"energy": -0.27908,
				"method": "rhf"
			},
			{
				"type": "occ",
				"energy": -0.27669,
				"method": "rhf"
			},
			{
				"type": "unocc",
				"energy": -0.02332,
				"method": "rhf"
			},
			{
				"type": "unocc",
				"energy": 0.01691,
				"method": "rhf"
			},
			{
				"type": "unocc",
				"energy": 0.03527,
				"method": "rhf"
			},
			{
				"type": "unocc",
				"energy": 0.066,
				"method": "rhf"
			},
			{
				"type": "unocc",
				"energy": 0.07235,
				"method": "rhf"
			}
		],
		"cosmo_sigma_profile": { 
			"-0.025": 0.0,
			"-0.024": 0.0,
			"-0.023": 0.0,
			"-0.022": 0.0,
			"-0.021": 0.0,
			"-0.02": 0.0,
			"-0.019": 0.0,
			"-0.018": 0.0,
			"-0.017": 0.0,
			"-0.016": 0.0,
			"-0.015": 0.0,
			"-0.014": 0.0,
			"-0.013": 0.000821863757851,
			"-0.012": 1.65344635994,
			"-0.011": 3.54148616339,
			"-0.01": 4.14552936004,
			"-0.009": 8.4023316469,
			"-0.008": 7.04092526969,
			"-0.007": 12.1236451648,
			"-0.006": 12.2535539649,
			"-0.005": 17.4202330939,
			"-0.004": 13.9861198456,
			"-0.003": 8.03989824874,
			"-0.002": 6.89782995288,
			"-0.001": 6.59002620283,
			"0.0": 5.48208862327,
			"0.001": 4.83696754239,
			"0.002": 5.41881201625,
			"0.003": 3.78710100003,
			"0.004": 3.49256767546,
			"0.005": 3.77462525551,
			"0.006": 4.03833067979,
			"0.007": 3.50306127343,
			"0.008": 4.91768798712,
			"0.009": 6.84328468893,
			"0.01": 13.0862567659,
			"0.011": 10.4274996008,
			"0.012": 3.26784870811,
			"0.013": 2.74712687307,
			"0.014": 1.72908563957,
			"0.015": 1.16719735663,
			"0.016": 0.318670301431,
			"0.017": 0.0,
			"0.018": 0.0,
			"0.019": 0.0,
			"0.02": 0.0,
			"0.021": 0.0,
			"0.022": 0.0,
			"0.023": 0.0,
			"0.024": 0.0,
			"0.025": 0.0
		}
	}
}
