{
	 "smiles": "OC(=O)C1=CC=C(S1)N1CCOCC1", 
	 "Tm": 409.15, 
	 "num_atms": 25, 
	 "gaussian": { 
		 "optdone": 1, 
		 "sigma_profile": "yes", 
		 "theory": "DFT", 
		 "functional": "B3LYP", 
		 "basiset": "6-31G**", 
		 "properties": { 
			 "R2extent": 4153.3061, 
			 "electric_dipole_moment_norm": 6.69107635213, 
			 "electric_quadrupole_moment_norm": 26.8969122568, 
			 "total_energy": -1028.16131367, 
			 "HOMO_LUMO_gap": 0.16332, 
			 "cosmo_polarized_energy": -19.16, 
			 "cosmo_cavitation_energy": 29.32, 
			 "cosmo_dispersion_energy": -22.48, 
			 "cosmo_repulsion_energy": 1.72, 
			 "cosmo_total_nonelectrostatic_energy": 8.56, 
			 "SMD_solvation_energy": 5.01 
		},
		"coords": [
			{
				"x": 4.3394468439,
				"y": -1.1562089378,
				"z": 0.2939706272,
				"element": "O" 
			},
			{
				"x": 3.403211176,
				"y": -1.7791178623,
				"z": 1.0715730432,
				"element": "C" 
			},
			{
				"x": 3.7490558832,
				"y": -2.6415250209,
				"z": 1.8493330641,
				"element": "O" 
			},
			{
				"x": 2.0048162339,
				"y": -1.3630782115,
				"z": 0.9118012607,
				"element": "C" 
			},
			{
				"x": 0.9706066205,
				"y": -1.7240622004,
				"z": 1.7415256001,
				"element": "C" 
			},
			{
				"x": -0.2798703421,
				"y": -1.1550669231,
				"z": 1.4111607215,
				"element": "C" 
			},
			{
				"x": -0.2203666063,
				"y": -0.3348622075,
				"z": 0.2914448082,
				"element": "C" 
			},
			{
				"x": 1.4113335892,
				"y": -0.3025728154,
				"z": -0.3712729346,
				"element": "S" 
			},
			{
				"x": -1.2341011301,
				"y": 0.3471315223,
				"z": -0.3156851648,
				"element": "N" 
			},
			{
				"x": -1.0061599465,
				"y": 1.3128715028,
				"z": -1.3875051697,
				"element": "C" 
			},
			{
				"x": -2.1084794978,
				"y": 2.3702835744,
				"z": -1.364125386,
				"element": "C" 
			},
			{
				"x": -3.417459243,
				"y": 1.8249489612,
				"z": -1.4982351649,
				"element": "O" 
			},
			{
				"x": -3.5514432912,
				"y": 0.4746765095,
				"z": -1.0712986982,
				"element": "C" 
			},
			{
				"x": -2.6215780151,
				"y": 0.1118082804,
				"z": 0.0844913803,
				"element": "C" 
			},
			{
				"x": 3.9641911763,
				"y": -0.3855907938,
				"z": -0.1554388606,
				"element": "H" 
			},
			{
				"x": 1.1406905012,
				"y": -2.3756675224,
				"z": 2.5906350295,
				"element": "H" 
			},
			{
				"x": -1.1826477427,
				"y": -1.3104061265,
				"z": 1.9871142365,
				"element": "H" 
			},
			{
				"x": -0.967210102,
				"y": 0.8198524913,
				"z": -2.3708505363,
				"element": "H" 
			},
			{
				"x": -0.04202791,
				"y": 1.8095456536,
				"z": -1.2297919803,
				"element": "H" 
			},
			{
				"x": -1.9636915606,
				"y": 3.0709242104,
				"z": -2.1930637386,
				"element": "H" 
			},
			{
				"x": -2.034950677,
				"y": 2.9390762467,
				"z": -0.4249136401,
				"element": "H" 
			},
			{
				"x": -4.5925823031,
				"y": 0.3426081213,
				"z": -0.7610366787,
				"element": "H" 
			},
			{
				"x": -3.362494332,
				"y": -0.2113608966,
				"z": -1.9113432472,
				"element": "H" 
			},
			{
				"x": -2.8805971637,
				"y": 0.6928479868,
				"z": 0.9822362733,
				"element": "H" 
			},
			{
				"x": -2.7524921612,
				"y": -0.9491555424,
				"z": 0.3260751556,
				"element": "H" 
			}
		],
		 "valence_orbital": [ 
			{
				"type": "occ",
				"energy": -0.29586,
				"method": "rhf"
			},
			{
				"type": "occ",
				"energy": -0.27059,
				"method": "rhf"
			},
			{
				"type": "occ",
				"energy": -0.26589,
				"method": "rhf"
			},
			{
				"type": "occ",
				"energy": -0.26091,
				"method": "rhf"
			},
			{
				"type": "occ",
				"energy": -0.20264,
				"method": "rhf"
			},
			{
				"type": "unocc",
				"energy": -0.03932,
				"method": "rhf"
			},
			{
				"type": "unocc",
				"energy": -0.00529,
				"method": "rhf"
			},
			{
				"type": "unocc",
				"energy": 0.04087,
				"method": "rhf"
			},
			{
				"type": "unocc",
				"energy": 0.05742,
				"method": "rhf"
			},
			{
				"type": "unocc",
				"energy": 0.06483,
				"method": "rhf"
			}
		],
		"cosmo_sigma_profile": { 
			"-0.025": 0.0,
			"-0.024": 0.0,
			"-0.023": 0.0,
			"-0.022": 0.0,
			"-0.021": 0.0,
			"-0.02": 0.0,
			"-0.019": 0.0,
			"-0.018": 0.0,
			"-0.017": 0.370583954726,
			"-0.016": 1.00703929541,
			"-0.015": 0.709693037445,
			"-0.014": 0.989320679778,
			"-0.013": 0.913665677747,
			"-0.012": 0.774555498079,
			"-0.011": 1.23902329679,
			"-0.01": 0.914065141631,
			"-0.009": 0.419452385413,
			"-0.008": 1.428466235,
			"-0.007": 5.31382918604,
			"-0.006": 17.0001249339,
			"-0.005": 27.8596742082,
			"-0.004": 28.3272943075,
			"-0.003": 16.4336409858,
			"-0.002": 12.9412727876,
			"-0.001": 10.3621197902,
			"0.0": 10.0765332836,
			"0.001": 10.795299272,
			"0.002": 11.9790541122,
			"0.003": 13.0468985575,
			"0.004": 12.7989736749,
			"0.005": 7.62828987671,
			"0.006": 3.61364099175,
			"0.007": 3.40417908387,
			"0.008": 3.89708977677,
			"0.009": 3.80399438622,
			"0.01": 4.44699045065,
			"0.011": 5.97011740421,
			"0.012": 6.56315972174,
			"0.013": 7.17360427813,
			"0.014": 1.54285791669,
			"0.015": 0.0244208699617,
			"0.016": 0.0,
			"0.017": 0.0,
			"0.018": 0.0,
			"0.019": 0.0,
			"0.02": 0.0,
			"0.021": 0.0,
			"0.022": 0.0,
			"0.023": 0.0,
			"0.024": 0.0,
			"0.025": 0.0
		}
	}
}
