{
	 "smiles": "O=C1NN=CC2=C1N=CC=C2", 
	 "Tm": 583.15, 
	 "num_atms": 16, 
	 "gaussian": { 
		 "optdone": 1, 
		 "sigma_profile": "yes", 
		 "theory": "DFT", 
		 "functional": "B3LYP", 
		 "basiset": "6-31G**", 
		 "properties": { 
			 "R2extent": 1735.302, 
			 "electric_dipole_moment_norm": 4.9079919896, 
			 "electric_quadrupole_moment_norm": 10.5512871736, 
			 "total_energy": -509.215319141, 
			 "HOMO_LUMO_gap": 0.17325, 
			 "cosmo_polarized_energy": -17.12, 
			 "cosmo_cavitation_energy": 20.85, 
			 "cosmo_dispersion_energy": -15.91, 
			 "cosmo_repulsion_energy": 1.26, 
			 "cosmo_total_nonelectrostatic_energy": 6.2, 
			 "SMD_solvation_energy": 2.34 
		},
		"coords": [
			{
				"x": 3.4463770111,
				"y": 1.0808006943,
				"z": -0.2451254194,
				"element": "O" 
			},
			{
				"x": 2.5065970595,
				"y": 0.3432805441,
				"z": -0.4852649283,
				"element": "C" 
			},
			{
				"x": 2.5869777446,
				"y": -0.6007992026,
				"z": -1.5169034685,
				"element": "N" 
			},
			{
				"x": 1.6660349106,
				"y": -1.4961043698,
				"z": -1.9352860932,
				"element": "N" 
			},
			{
				"x": 0.5312612112,
				"y": -1.5023365131,
				"z": -1.3055363342,
				"element": "C" 
			},
			{
				"x": 0.2203881149,
				"y": -0.6182431065,
				"z": -0.2092753147,
				"element": "C" 
			},
			{
				"x": 1.1960345729,
				"y": 0.3124098699,
				"z": 0.2152334798,
				"element": "C" 
			},
			{
				"x": 1.0069882968,
				"y": 1.1780553814,
				"z": 1.2236646589,
				"element": "N" 
			},
			{
				"x": -0.1665028756,
				"y": 1.1448844842,
				"z": 1.8460037371,
				"element": "C" 
			},
			{
				"x": -1.2090469992,
				"y": 0.2612732642,
				"z": 1.5081772378,
				"element": "C" 
			},
			{
				"x": -1.0139567385,
				"y": -0.6302991006,
				"z": 0.4691517565,
				"element": "C" 
			},
			{
				"x": 3.4618925825,
				"y": -0.6185506009,
				"z": -2.02677141,
				"element": "H" 
			},
			{
				"x": -0.2002493881,
				"y": -2.2273663077,
				"z": -1.6523369994,
				"element": "H" 
			},
			{
				"x": -0.2989398141,
				"y": 1.8548476894,
				"z": 2.6604732794,
				"element": "H" 
			},
			{
				"x": -2.1438583292,
				"y": 0.287728325,
				"z": 2.0590180962,
				"element": "H" 
			},
			{
				"x": -1.7901973593,
				"y": -1.3307810515,
				"z": 0.173077722,
				"element": "H" 
			}
		],
		 "valence_orbital": [ 
			{
				"type": "occ",
				"energy": -0.31462,
				"method": "rhf"
			},
			{
				"type": "occ",
				"energy": -0.2958,
				"method": "rhf"
			},
			{
				"type": "occ",
				"energy": -0.27251,
				"method": "rhf"
			},
			{
				"type": "occ",
				"energy": -0.25501,
				"method": "rhf"
			},
			{
				"type": "occ",
				"energy": -0.24127,
				"method": "rhf"
			},
			{
				"type": "unocc",
				"energy": -0.06802,
				"method": "rhf"
			},
			{
				"type": "unocc",
				"energy": -0.06149,
				"method": "rhf"
			},
			{
				"type": "unocc",
				"energy": 0.01368,
				"method": "rhf"
			},
			{
				"type": "unocc",
				"energy": 0.05806,
				"method": "rhf"
			},
			{
				"type": "unocc",
				"energy": 0.08087,
				"method": "rhf"
			}
		],
		"cosmo_sigma_profile": { 
			"-0.025": 0.0,
			"-0.024": 0.0,
			"-0.023": 0.0,
			"-0.022": 0.0,
			"-0.021": 0.0,
			"-0.02": 0.0,
			"-0.019": 0.0,
			"-0.018": 0.0,
			"-0.017": 0.0,
			"-0.016": 0.5362784548,
			"-0.015": 1.46350897859,
			"-0.014": 0.610098187197,
			"-0.013": 0.762673346808,
			"-0.012": 0.78222707633,
			"-0.011": 1.14118562392,
			"-0.01": 1.03315542361,
			"-0.009": 4.16886939259,
			"-0.008": 8.96937545849,
			"-0.007": 10.103772412,
			"-0.006": 8.75183570121,
			"-0.005": 7.71557085529,
			"-0.004": 9.26241101163,
			"-0.003": 8.57912162236,
			"-0.002": 13.0017157921,
			"-0.001": 17.2361190912,
			"0.0": 16.1193288025,
			"0.001": 7.19404613477,
			"0.002": 4.73917324989,
			"0.003": 3.31211255413,
			"0.004": 3.44516288375,
			"0.005": 3.99637775897,
			"0.006": 2.74420471301,
			"0.007": 3.59325631567,
			"0.008": 2.27301559152,
			"0.009": 1.91358255354,
			"0.01": 3.40361343854,
			"0.011": 3.73713745391,
			"0.012": 4.49534387029,
			"0.013": 6.10133489799,
			"0.014": 2.76430879366,
			"0.015": 1.67084216242,
			"0.016": 1.23997541309,
			"0.017": 1.38030689442,
			"0.018": 0.244215126676,
			"0.019": 0.0,
			"0.02": 0.0,
			"0.021": 0.0,
			"0.022": 0.0,
			"0.023": 0.0,
			"0.024": 0.0,
			"0.025": 0.0
		}
	}
}
