{
	 "smiles": "CSC1=NC2=CC=CC=C2C(N)=N1", 
	 "Tm": 507.15, 
	 "num_atms": 22, 
	 "gaussian": { 
		 "optdone": 1, 
		 "sigma_profile": "yes", 
		 "theory": "DFT", 
		 "functional": "B3LYP", 
		 "basiset": "6-31G**", 
		 "properties": { 
			 "R2extent": 3236.2545, 
			 "electric_dipole_moment_norm": 3.48163448541, 
			 "electric_quadrupole_moment_norm": 13.9175648937, 
			 "total_energy": -910.851592582, 
			 "HOMO_LUMO_gap": 0.16317, 
			 "cosmo_polarized_energy": -13.83, 
			 "cosmo_cavitation_energy": 27.42, 
			 "cosmo_dispersion_energy": -21.09, 
			 "cosmo_repulsion_energy": 1.62, 
			 "cosmo_total_nonelectrostatic_energy": 7.95, 
			 "SMD_solvation_energy": 2.09 
		},
		"coords": [
			{
				"x": 0.7063734176,
				"y": -1.7702886695,
				"z": 3.8148035314,
				"element": "C" 
			},
			{
				"x": 1.304715376,
				"y": -0.1721570122,
				"z": 3.1734708624,
				"element": "S" 
			},
			{
				"x": 0.9895898033,
				"y": -0.3585809761,
				"z": 1.4358631077,
				"element": "C" 
			},
			{
				"x": 0.4462278692,
				"y": -1.466625721,
				"z": 0.9843605993,
				"element": "N" 
			},
			{
				"x": 0.2569430901,
				"y": -1.5276238176,
				"z": -0.3704521888,
				"element": "C" 
			},
			{
				"x": -0.317559463,
				"y": -2.6937077296,
				"z": -0.9348435676,
				"element": "C" 
			},
			{
				"x": -0.5021772469,
				"y": -2.7927323714,
				"z": -2.2984956331,
				"element": "C" 
			},
			{
				"x": -0.1174512885,
				"y": -1.7391922563,
				"z": -3.1571680074,
				"element": "C" 
			},
			{
				"x": 0.440638043,
				"y": -0.5902662654,
				"z": -2.6311564014,
				"element": "C" 
			},
			{
				"x": 0.6261039232,
				"y": -0.4594766405,
				"z": -1.2365897578,
				"element": "C" 
			},
			{
				"x": 1.1786477616,
				"y": 0.7010133561,
				"z": -0.5797187231,
				"element": "C" 
			},
			{
				"x": 1.5730166543,
				"y": 1.8000369455,
				"z": -1.2900040618,
				"element": "N" 
			},
			{
				"x": 1.3574400202,
				"y": 0.7407915927,
				"z": 0.730132735,
				"element": "N" 
			},
			{
				"x": -0.3540835159,
				"y": -1.9000941186,
				"z": 3.5967660657,
				"element": "H" 
			},
			{
				"x": 0.8662830715,
				"y": -1.7395078023,
				"z": 4.8949754203,
				"element": "H" 
			},
			{
				"x": 1.2681769724,
				"y": -2.5957366764,
				"z": 3.3766090474,
				"element": "H" 
			},
			{
				"x": -0.5969734742,
				"y": -3.495729328,
				"z": -0.2597332989,
				"element": "H" 
			},
			{
				"x": -0.9415014051,
				"y": -3.6924951672,
				"z": -2.7200070156,
				"element": "H" 
			},
			{
				"x": -0.2553032476,
				"y": -1.8362119782,
				"z": -4.2295745525,
				"element": "H" 
			},
			{
				"x": 0.7550101002,
				"y": 0.2033882991,
				"z": -3.3033902443,
				"element": "H" 
			},
			{
				"x": 1.8047272246,
				"y": 2.6073352993,
				"z": -0.7290955557,
				"element": "H" 
			},
			{
				"x": 1.1624563139,
				"y": 1.9819610377,
				"z": -2.1911523614,
				"element": "H" 
			}
		],
		 "valence_orbital": [ 
			{
				"type": "occ",
				"energy": -0.28311,
				"method": "rhf"
			},
			{
				"type": "occ",
				"energy": -0.2645,
				"method": "rhf"
			},
			{
				"type": "occ",
				"energy": -0.24721,
				"method": "rhf"
			},
			{
				"type": "occ",
				"energy": -0.23708,
				"method": "rhf"
			},
			{
				"type": "occ",
				"energy": -0.20996,
				"method": "rhf"
			},
			{
				"type": "unocc",
				"energy": -0.04679,
				"method": "rhf"
			},
			{
				"type": "unocc",
				"energy": -0.0197,
				"method": "rhf"
			},
			{
				"type": "unocc",
				"energy": 0.02825,
				"method": "rhf"
			},
			{
				"type": "unocc",
				"energy": 0.05034,
				"method": "rhf"
			},
			{
				"type": "unocc",
				"energy": 0.0626,
				"method": "rhf"
			}
		],
		"cosmo_sigma_profile": { 
			"-0.025": 0.0,
			"-0.024": 0.0,
			"-0.023": 0.0,
			"-0.022": 0.0,
			"-0.021": 0.0,
			"-0.02": 0.0,
			"-0.019": 0.0,
			"-0.018": 0.0,
			"-0.017": 0.0,
			"-0.016": 0.0,
			"-0.015": 0.749569868568,
			"-0.014": 1.74829686214,
			"-0.013": 2.45606249614,
			"-0.012": 2.76324729812,
			"-0.011": 2.508128191,
			"-0.01": 2.50872309564,
			"-0.009": 2.15195333683,
			"-0.008": 2.70401838264,
			"-0.007": 4.04028718829,
			"-0.006": 10.5038883599,
			"-0.005": 12.1987237114,
			"-0.004": 14.9667494843,
			"-0.003": 11.5156669307,
			"-0.002": 13.0724353074,
			"-0.001": 16.9195831133,
			"0.0": 12.1894503886,
			"0.001": 13.9883495752,
			"0.002": 16.1501745943,
			"0.003": 17.8148106843,
			"0.004": 16.785708811,
			"0.005": 10.2653405633,
			"0.006": 7.8637135769,
			"0.007": 8.43880331578,
			"0.008": 6.94318354032,
			"0.009": 4.05506912877,
			"0.01": 2.39594035494,
			"0.011": 1.54623503641,
			"0.012": 1.31459763258,
			"0.013": 0.656144303236,
			"0.014": 0.118815998147,
			"0.015": 0.0,
			"0.016": 0.0,
			"0.017": 0.0,
			"0.018": 0.0,
			"0.019": 0.0,
			"0.02": 0.0,
			"0.021": 0.0,
			"0.022": 0.0,
			"0.023": 0.0,
			"0.024": 0.0,
			"0.025": 0.0
		}
	}
}
