{
	 "smiles": "NC1=CC2=C(C=C1)N=C(CC1=CC=CC=C1)O2", 
	 "Tm": 378.15, 
	 "num_atms": 29, 
	 "gaussian": { 
		 "optdone": 1, 
		 "sigma_profile": "yes", 
		 "theory": "DFT", 
		 "functional": "B3LYP", 
		 "basiset": "6-31G**", 
		 "properties": { 
			 "R2extent": 5332.6045, 
			 "electric_dipole_moment_norm": 2.41290312487, 
			 "electric_quadrupole_moment_norm": 17.6084455143, 
			 "total_energy": -725.457313843, 
			 "HOMO_LUMO_gap": 0.17951, 
			 "cosmo_polarized_energy": -13.34, 
			 "cosmo_cavitation_energy": 33.72, 
			 "cosmo_dispersion_energy": -24.46, 
			 "cosmo_repulsion_energy": 1.9, 
			 "cosmo_total_nonelectrostatic_energy": 11.15, 
			 "SMD_solvation_energy": 3.63 
		},
		"coords": [
			{
				"x": 1.7093905475,
				"y": -4.9988780303,
				"z": -0.8343873553,
				"element": "N" 
			},
			{
				"x": 0.7075797258,
				"y": -4.0241677148,
				"z": -0.7918877897,
				"element": "C" 
			},
			{
				"x": 1.0198348575,
				"y": -2.6778840525,
				"z": -1.050034285,
				"element": "C" 
			},
			{
				"x": -0.0215141765,
				"y": -1.7731979975,
				"z": -0.9228345291,
				"element": "C" 
			},
			{
				"x": -1.3310920534,
				"y": -2.1173993791,
				"z": -0.5667640727,
				"element": "C" 
			},
			{
				"x": -1.6357934242,
				"y": -3.456718426,
				"z": -0.313873574,
				"element": "C" 
			},
			{
				"x": -0.6124355636,
				"y": -4.3920430281,
				"z": -0.4288895924,
				"element": "C" 
			},
			{
				"x": -2.1115223734,
				"y": -0.9568385616,
				"z": -0.5464938894,
				"element": "N" 
			},
			{
				"x": -1.2915199033,
				"y": -0.0107832768,
				"z": -0.8720169716,
				"element": "C" 
			},
			{
				"x": -1.5681472904,
				"y": 1.4531702014,
				"z": -0.9764185971,
				"element": "C" 
			},
			{
				"x": -0.9893930769,
				"y": 2.259581421,
				"z": 0.1796921282,
				"element": "C" 
			},
			{
				"x": -0.0483917735,
				"y": 3.2680710073,
				"z": -0.0488065937,
				"element": "C" 
			},
			{
				"x": 0.4670424676,
				"y": 4.0146290786,
				"z": 1.0134320304,
				"element": "C" 
			},
			{
				"x": 0.0469553624,
				"y": 3.7565722757,
				"z": 2.3182540776,
				"element": "C" 
			},
			{
				"x": -0.8909697398,
				"y": 2.748184751,
				"z": 2.5554322626,
				"element": "C" 
			},
			{
				"x": -1.4049194563,
				"y": 2.0049514746,
				"z": 1.4937970384,
				"element": "C" 
			},
			{
				"x": 0.0077750521,
				"y": -0.4161415153,
				"z": -1.1210412958,
				"element": "O" 
			},
			{
				"x": 1.3804350315,
				"y": -5.9391007384,
				"z": -1.0058568553,
				"element": "H" 
			},
			{
				"x": 2.5039657078,
				"y": -4.7707450606,
				"z": -1.4160387405,
				"element": "H" 
			},
			{
				"x": 2.0221067139,
				"y": -2.3664377634,
				"z": -1.3250468185,
				"element": "H" 
			},
			{
				"x": -2.6411400954,
				"y": -3.757185423,
				"z": -0.0379149503,
				"element": "H" 
			},
			{
				"x": -0.8207444496,
				"y": -5.4401154988,
				"z": -0.2300439204,
				"element": "H" 
			},
			{
				"x": -2.6561735322,
				"y": 1.5634345227,
				"z": -1.0107027926,
				"element": "H" 
			},
			{
				"x": -1.1656641775,
				"y": 1.8279624921,
				"z": -1.9236787832,
				"element": "H" 
			},
			{
				"x": 0.2835442494,
				"y": 3.4717200163,
				"z": -1.0638891697,
				"element": "H" 
			},
			{
				"x": 1.1972043611,
				"y": 4.7953775106,
				"z": 0.8194589307,
				"element": "H" 
			},
			{
				"x": 0.4469342673,
				"y": 4.3356978459,
				"z": 3.145623765,
				"element": "H" 
			},
			{
				"x": -1.2226080489,
				"y": 2.5406815626,
				"z": 3.5689755301,
				"element": "H" 
			},
			{
				"x": -2.1298392092,
				"y": 1.2166023067,
				"z": 1.6797548133,
				"element": "H" 
			}
		],
		 "valence_orbital": [ 
			{
				"type": "occ",
				"energy": -0.27991,
				"method": "rhf"
			},
			{
				"type": "occ",
				"energy": -0.24768,
				"method": "rhf"
			},
			{
				"type": "occ",
				"energy": -0.24338,
				"method": "rhf"
			},
			{
				"type": "occ",
				"energy": -0.23787,
				"method": "rhf"
			},
			{
				"type": "occ",
				"energy": -0.19473,
				"method": "rhf"
			},
			{
				"type": "unocc",
				"energy": -0.01522,
				"method": "rhf"
			},
			{
				"type": "unocc",
				"energy": -0.00123,
				"method": "rhf"
			},
			{
				"type": "unocc",
				"energy": 0.00458,
				"method": "rhf"
			},
			{
				"type": "unocc",
				"energy": 0.01794,
				"method": "rhf"
			},
			{
				"type": "unocc",
				"energy": 0.05341,
				"method": "rhf"
			}
		],
		"cosmo_sigma_profile": { 
			"-0.025": 0.0,
			"-0.024": 0.0,
			"-0.023": 0.0,
			"-0.022": 0.0,
			"-0.021": 0.0,
			"-0.02": 0.0,
			"-0.019": 0.0,
			"-0.018": 0.0,
			"-0.017": 0.0,
			"-0.016": 0.0,
			"-0.015": 0.0,
			"-0.014": 0.0,
			"-0.013": 0.471791822078,
			"-0.012": 2.72015243527,
			"-0.011": 2.74390232034,
			"-0.01": 3.57022683481,
			"-0.009": 3.39491344992,
			"-0.008": 3.33102592934,
			"-0.007": 5.88995622949,
			"-0.006": 14.7786444732,
			"-0.005": 19.0446057829,
			"-0.004": 20.7983390464,
			"-0.003": 19.4854413727,
			"-0.002": 14.9230491305,
			"-0.001": 15.8614789447,
			"0.0": 14.6092660407,
			"0.001": 16.6056800093,
			"0.002": 17.7162602677,
			"0.003": 17.6928972001,
			"0.004": 23.0798971078,
			"0.005": 21.680390194,
			"0.006": 12.9989610987,
			"0.007": 4.01532551785,
			"0.008": 2.7461730051,
			"0.009": 1.71440430735,
			"0.01": 1.9157177486,
			"0.011": 1.78591786607,
			"0.012": 1.14752082276,
			"0.013": 1.66680989222,
			"0.014": 1.55155407452,
			"0.015": 0.882733262818,
			"0.016": 0.720798014522,
			"0.017": 0.00741678233404,
			"0.018": 0.0,
			"0.019": 0.0,
			"0.02": 0.0,
			"0.021": 0.0,
			"0.022": 0.0,
			"0.023": 0.0,
			"0.024": 0.0,
			"0.025": 0.0
		}
	}
}
