{
	 "smiles": "O=C1CC(N1)C1=CC=CC=C1", 
	 "Tm": 381.15, 
	 "num_atms": 20, 
	 "gaussian": { 
		 "optdone": 1, 
		 "sigma_profile": "yes", 
		 "theory": "DFT", 
		 "functional": "B3LYP", 
		 "basiset": "6-31G**", 
		 "properties": { 
			 "R2extent": 2463.2551, 
			 "electric_dipole_moment_norm": 3.75632906306, 
			 "electric_quadrupole_moment_norm": 12.6379223933, 
			 "total_energy": -478.346305917, 
			 "HOMO_LUMO_gap": 0.22789, 
			 "cosmo_polarized_energy": -11.59, 
			 "cosmo_cavitation_energy": 23.95, 
			 "cosmo_dispersion_energy": -17.56, 
			 "cosmo_repulsion_energy": 1.44, 
			 "cosmo_total_nonelectrostatic_energy": 7.84, 
			 "SMD_solvation_energy": 4.22 
		},
		"coords": [
			{
				"x": 0.1850290047,
				"y": -3.240191798,
				"z": 1.8140300636,
				"element": "O" 
			},
			{
				"x": 0.7311703728,
				"y": -2.2556679992,
				"z": 1.376177792,
				"element": "C" 
			},
			{
				"x": 0.6796005957,
				"y": -0.7348559444,
				"z": 1.6473183911,
				"element": "C" 
			},
			{
				"x": 1.8485225901,
				"y": -0.6224702008,
				"z": 0.6053614303,
				"element": "C" 
			},
			{
				"x": 1.6983668356,
				"y": -2.0743211837,
				"z": 0.4110938183,
				"element": "N" 
			},
			{
				"x": 1.6374567689,
				"y": 0.2490015779,
				"z": -0.6101933574,
				"element": "C" 
			},
			{
				"x": 0.725446799,
				"y": -0.1075420949,
				"z": -1.6127493825,
				"element": "C" 
			},
			{
				"x": 0.5152580776,
				"y": 0.7290061907,
				"z": -2.7086191267,
				"element": "C" 
			},
			{
				"x": 1.2132478649,
				"y": 1.9342380882,
				"z": -2.8180011724,
				"element": "C" 
			},
			{
				"x": 2.1261558748,
				"y": 2.2955428598,
				"z": -1.8261305723,
				"element": "C" 
			},
			{
				"x": 2.3380804085,
				"y": 1.454977054,
				"z": -0.7322110667,
				"element": "C" 
			},
			{
				"x": 0.9267617632,
				"y": -0.4478950542,
				"z": 2.6718007035,
				"element": "H" 
			},
			{
				"x": -0.2507703538,
				"y": -0.2538952094,
				"z": 1.3385825624,
				"element": "H" 
			},
			{
				"x": 2.7984377984,
				"y": -0.3599471656,
				"z": 1.0872614105,
				"element": "H" 
			},
			{
				"x": 2.2650353809,
				"y": -2.7431094403,
				"z": -0.0956501355,
				"element": "H" 
			},
			{
				"x": 0.1894733057,
				"y": -1.049146743,
				"z": -1.5348673529,
				"element": "H" 
			},
			{
				"x": -0.1924754542,
				"y": 0.4386022761,
				"z": -3.480010959,
				"element": "H" 
			},
			{
				"x": 1.0503220691,
				"y": 2.5838782268,
				"z": -3.6730729468,
				"element": "H" 
			},
			{
				"x": 2.6786197439,
				"y": 3.2274494825,
				"z": -1.9062604721,
				"element": "H" 
			},
			{
				"x": 3.0556605541,
				"y": 1.7373470773,
				"z": 0.0349403728,
				"element": "H" 
			}
		],
		 "valence_orbital": [ 
			{
				"type": "occ",
				"energy": -0.34462,
				"method": "rhf"
			},
			{
				"type": "occ",
				"energy": -0.26452,
				"method": "rhf"
			},
			{
				"type": "occ",
				"energy": -0.26029,
				"method": "rhf"
			},
			{
				"type": "occ",
				"energy": -0.25636,
				"method": "rhf"
			},
			{
				"type": "occ",
				"energy": -0.24042,
				"method": "rhf"
			},
			{
				"type": "unocc",
				"energy": -0.01253,
				"method": "rhf"
			},
			{
				"type": "unocc",
				"energy": -0.00836,
				"method": "rhf"
			},
			{
				"type": "unocc",
				"energy": 0.03264,
				"method": "rhf"
			},
			{
				"type": "unocc",
				"energy": 0.08414,
				"method": "rhf"
			},
			{
				"type": "unocc",
				"energy": 0.09383,
				"method": "rhf"
			}
		],
		"cosmo_sigma_profile": { 
			"-0.025": 0.0,
			"-0.024": 0.0,
			"-0.023": 0.0,
			"-0.022": 0.0,
			"-0.021": 0.0,
			"-0.02": 0.0,
			"-0.019": 0.0,
			"-0.018": 0.0,
			"-0.017": 0.0,
			"-0.016": 0.0,
			"-0.015": 0.0827840058294,
			"-0.014": 1.38288783512,
			"-0.013": 1.32550432766,
			"-0.012": 1.22110039432,
			"-0.011": 0.894070379864,
			"-0.01": 0.985112335195,
			"-0.009": 1.02485883141,
			"-0.008": 1.0626949641,
			"-0.007": 1.06352191227,
			"-0.006": 9.87793279163,
			"-0.005": 20.0135459009,
			"-0.004": 20.4300996224,
			"-0.003": 17.4091203395,
			"-0.002": 14.4565223733,
			"-0.001": 12.3587416262,
			"0.0": 11.4288474652,
			"0.001": 9.55195755287,
			"0.002": 9.41167828784,
			"0.003": 9.06805820572,
			"0.004": 8.65859616718,
			"0.005": 9.86456051376,
			"0.006": 8.28837203679,
			"0.007": 0.881165822069,
			"0.008": 1.88194126065,
			"0.009": 1.59129708376,
			"0.01": 0.732101486468,
			"0.011": 2.58519790015,
			"0.012": 2.93050928141,
			"0.013": 6.80625293242,
			"0.014": 3.29575986401,
			"0.015": 0.0747428319939,
			"0.016": 0.0,
			"0.017": 0.0,
			"0.018": 0.0,
			"0.019": 0.0,
			"0.02": 0.0,
			"0.021": 0.0,
			"0.022": 0.0,
			"0.023": 0.0,
			"0.024": 0.0,
			"0.025": 0.0
		}
	}
}
