{
	 "smiles": "CC(C)CC1=CC(=CC2=CC=C(C)O2)C(=O)O1", 
	 "Tm": 361.15, 
	 "num_atms": 33, 
	 "gaussian": { 
		 "optdone": 1, 
		 "sigma_profile": "yes", 
		 "theory": "DFT", 
		 "functional": "B3LYP", 
		 "basiset": "6-31G**", 
		 "properties": { 
			 "R2extent": 5564.1388, 
			 "electric_dipole_moment_norm": 5.68104129012, 
			 "electric_quadrupole_moment_norm": 22.3642703961, 
			 "total_energy": -768.793411474, 
			 "HOMO_LUMO_gap": 0.1222, 
			 "cosmo_polarized_energy": -11.39, 
			 "cosmo_cavitation_energy": 36.83, 
			 "cosmo_dispersion_energy": -25.41, 
			 "cosmo_repulsion_energy": 2.0, 
			 "cosmo_total_nonelectrostatic_energy": 13.42, 
			 "SMD_solvation_energy": 7.82 
		},
		"coords": [
			{
				"x": -0.6901378396,
				"y": 1.5932009085,
				"z": 2.513582871,
				"element": "C" 
			},
			{
				"x": 0.8407777331,
				"y": 1.6622345852,
				"z": 2.3922410867,
				"element": "C" 
			},
			{
				"x": 1.2914756166,
				"y": 2.4785663094,
				"z": 1.1700586966,
				"element": "C" 
			},
			{
				"x": 1.5162392757,
				"y": 0.2767926604,
				"z": 2.4757666591,
				"element": "C" 
			},
			{
				"x": 1.2380001508,
				"y": -0.7290374879,
				"z": 1.405185526,
				"element": "C" 
			},
			{
				"x": 0.4902097435,
				"y": -0.7625996419,
				"z": 0.277906138,
				"element": "C" 
			},
			{
				"x": 0.6645232775,
				"y": -2.0678487771,
				"z": -0.3199860008,
				"element": "C" 
			},
			{
				"x": 0.1734221657,
				"y": -2.6678302522,
				"z": -1.4391091228,
				"element": "C" 
			},
			{
				"x": -0.7207031008,
				"y": -2.1313398814,
				"z": -2.4094681014,
				"element": "C" 
			},
			{
				"x": -1.2538692472,
				"y": -2.6795030965,
				"z": -3.5568853341,
				"element": "C" 
			},
			{
				"x": -2.0881955863,
				"y": -1.6869125245,
				"z": -4.1402464143,
				"element": "C" 
			},
			{
				"x": -2.0226456498,
				"y": -0.588533922,
				"z": -3.3238392063,
				"element": "C" 
			},
			{
				"x": -2.6508183335,
				"y": 0.7583504911,
				"z": -3.3705889696,
				"element": "C" 
			},
			{
				"x": -1.1960538668,
				"y": -0.8449186471,
				"z": -2.2695778693,
				"element": "O" 
			},
			{
				"x": 1.5949966442,
				"y": -2.7985396363,
				"z": 0.5762638322,
				"element": "C" 
			},
			{
				"x": 2.0490856158,
				"y": -3.9148362571,
				"z": 0.5158272652,
				"element": "O" 
			},
			{
				"x": 1.913453989,
				"y": -1.9280067039,
				"z": 1.6175090757,
				"element": "O" 
			},
			{
				"x": -1.1499629519,
				"y": 1.0869933192,
				"z": 1.6600728453,
				"element": "H" 
			},
			{
				"x": -1.1162196644,
				"y": 2.6005074935,
				"z": 2.5713953068,
				"element": "H" 
			},
			{
				"x": -0.9900690722,
				"y": 1.0522140225,
				"z": 3.4177072264,
				"element": "H" 
			},
			{
				"x": 1.2031470728,
				"y": 2.1988453653,
				"z": 3.2802465557,
				"element": "H" 
			},
			{
				"x": 0.8838463026,
				"y": 3.4941117646,
				"z": 1.2155025134,
				"element": "H" 
			},
			{
				"x": 2.3832603811,
				"y": 2.5592753145,
				"z": 1.1305646108,
				"element": "H" 
			},
			{
				"x": 0.960935139,
				"y": 2.0303104015,
				"z": 0.2287889349,
				"element": "H" 
			},
			{
				"x": 1.2545044001,
				"y": -0.1952524165,
				"z": 3.4338339664,
				"element": "H" 
			},
			{
				"x": 2.6072434306,
				"y": 0.4087606719,
				"z": 2.5152532666,
				"element": "H" 
			},
			{
				"x": -0.1252533511,
				"y": 0.0304953152,
				"z": -0.1118988862,
				"element": "H" 
			},
			{
				"x": 0.5011040054,
				"y": -3.6882626683,
				"z": -1.6233963317,
				"element": "H" 
			},
			{
				"x": -1.0611575545,
				"y": -3.6770420309,
				"z": -3.9254271892,
				"element": "H" 
			},
			{
				"x": -2.6671980923,
				"y": -1.7673379486,
				"z": -5.0490314127,
				"element": "H" 
			},
			{
				"x": -3.2677169685,
				"y": 0.9414966418,
				"z": -2.4831431934,
				"element": "H" 
			},
			{
				"x": -3.286556327,
				"y": 0.8428310356,
				"z": -4.2544997753,
				"element": "H" 
			},
			{
				"x": -1.8937673374,
				"y": 1.5500155922,
				"z": -3.4132085697,
				"element": "H" 
			}
		],
		 "valence_orbital": [ 
			{
				"type": "occ",
				"energy": -0.32208,
				"method": "rhf"
			},
			{
				"type": "occ",
				"energy": -0.29041,
				"method": "rhf"
			},
			{
				"type": "occ",
				"energy": -0.26586,
				"method": "rhf"
			},
			{
				"type": "occ",
				"energy": -0.25285,
				"method": "rhf"
			},
			{
				"type": "occ",
				"energy": -0.19512,
				"method": "rhf"
			},
			{
				"type": "unocc",
				"energy": -0.07292,
				"method": "rhf"
			},
			{
				"type": "unocc",
				"energy": 0.02506,
				"method": "rhf"
			},
			{
				"type": "unocc",
				"energy": 0.03834,
				"method": "rhf"
			},
			{
				"type": "unocc",
				"energy": 0.07114,
				"method": "rhf"
			},
			{
				"type": "unocc",
				"energy": 0.07434,
				"method": "rhf"
			}
		],
		"cosmo_sigma_profile": { 
			"-0.025": 0.0,
			"-0.024": 0.0,
			"-0.023": 0.0,
			"-0.022": 0.0,
			"-0.021": 0.0,
			"-0.02": 0.0,
			"-0.019": 0.0,
			"-0.018": 0.0,
			"-0.017": 0.0,
			"-0.016": 0.0,
			"-0.015": 0.0,
			"-0.014": 0.0,
			"-0.013": 0.0,
			"-0.012": 0.0,
			"-0.011": 0.0,
			"-0.01": 0.0,
			"-0.009": 0.0348760510089,
			"-0.008": 2.07631490024,
			"-0.007": 6.29140158579,
			"-0.006": 8.92348780315,
			"-0.005": 15.6484411845,
			"-0.004": 17.623972336,
			"-0.003": 27.9181417289,
			"-0.002": 35.6168419762,
			"-0.001": 32.6607266031,
			"0.0": 25.6117080772,
			"0.001": 33.0658431096,
			"0.002": 28.1609400403,
			"0.003": 18.7005524681,
			"0.004": 10.8807243956,
			"0.005": 2.76759616905,
			"0.006": 1.95358346056,
			"0.007": 2.67694737965,
			"0.008": 3.01469353351,
			"0.009": 4.1313976903,
			"0.01": 3.32928707524,
			"0.011": 4.40339269068,
			"0.012": 5.13107048103,
			"0.013": 0.926744446248,
			"0.014": 0.0,
			"0.015": 0.0,
			"0.016": 0.0,
			"0.017": 0.0,
			"0.018": 0.0,
			"0.019": 0.0,
			"0.02": 0.0,
			"0.021": 0.0,
			"0.022": 0.0,
			"0.023": 0.0,
			"0.024": 0.0,
			"0.025": 0.0
		}
	}
}
