{
	 "smiles": "CNP(=O)(OC)OC1=C(Cl)C=C(C=C1)C(C)(C)C", 
	 "Tm": 333.15, 
	 "num_atms": 37, 
	 "gaussian": { 
		 "optdone": 1, 
		 "sigma_profile": "yes", 
		 "theory": "DFT", 
		 "functional": "B3LYP", 
		 "basiset": "6-31G**", 
		 "properties": { 
			 "R2extent": 7262.3384, 
			 "electric_dipole_moment_norm": 6.05641993343, 
			 "electric_quadrupole_moment_norm": 24.9239455889, 
			 "total_energy": -1550.77007841, 
			 "HOMO_LUMO_gap": 0.22254, 
			 "cosmo_polarized_energy": -15.97, 
			 "cosmo_cavitation_energy": 42.16, 
			 "cosmo_dispersion_energy": -28.63, 
			 "cosmo_repulsion_energy": 2.21, 
			 "cosmo_total_nonelectrostatic_energy": 15.74, 
			 "SMD_solvation_energy": 9.51 
		},
		"coords": [
			{
				"x": 3.1083567591,
				"y": 2.0243176561,
				"z": 2.0775436862,
				"element": "C" 
			},
			{
				"x": 1.6507105457,
				"y": 2.1488890767,
				"z": 2.1849862304,
				"element": "N" 
			},
			{
				"x": 0.8181630794,
				"y": 3.3632877468,
				"z": 1.4093721346,
				"element": "P" 
			},
			{
				"x": 1.567488877,
				"y": 4.6288939498,
				"z": 1.2877054155,
				"element": "O" 
			},
			{
				"x": -0.5966762907,
				"y": 3.3909448126,
				"z": 2.1953895315,
				"element": "O" 
			},
			{
				"x": -0.6202007313,
				"y": 3.9734555888,
				"z": 3.512350653,
				"element": "C" 
			},
			{
				"x": 0.2906886013,
				"y": 2.8375678178,
				"z": -0.050027139,
				"element": "O" 
			},
			{
				"x": -0.238317135,
				"y": 1.584852072,
				"z": -0.2827053548,
				"element": "C" 
			},
			{
				"x": 0.4905420861,
				"y": 0.6420750265,
				"z": -1.0216575324,
				"element": "C" 
			},
			{
				"x": 2.1083668262,
				"y": 1.0241768941,
				"z": -1.5754914463,
				"element": "Cl" 
			},
			{
				"x": -0.0614373337,
				"y": -0.5988574525,
				"z": -1.3268387892,
				"element": "C" 
			},
			{
				"x": -1.3550988751,
				"y": -0.9490623801,
				"z": -0.9080567102,
				"element": "C" 
			},
			{
				"x": -2.0713021901,
				"y": 0.0041488583,
				"z": -0.1719254245,
				"element": "C" 
			},
			{
				"x": -1.5264291997,
				"y": 1.2519560791,
				"z": 0.1332726021,
				"element": "C" 
			},
			{
				"x": -1.9220178386,
				"y": -2.3340119582,
				"z": -1.2713677246,
				"element": "C" 
			},
			{
				"x": -1.9615089556,
				"y": -2.486960712,
				"z": -2.8105741325,
				"element": "C" 
			},
			{
				"x": -3.3504108902,
				"y": -2.5354108695,
				"z": -0.7308032145,
				"element": "C" 
			},
			{
				"x": -1.0172728144,
				"y": -3.4353391372,
				"z": -0.669145448,
				"element": "C" 
			},
			{
				"x": 3.5045124992,
				"y": 1.571078672,
				"z": 2.9913093637,
				"element": "H" 
			},
			{
				"x": 3.420514565,
				"y": 1.4245909184,
				"z": 1.2146667308,
				"element": "H" 
			},
			{
				"x": 3.5294810471,
				"y": 3.0257782592,
				"z": 1.9773296504,
				"element": "H" 
			},
			{
				"x": 1.1493771143,
				"y": 1.2781272577,
				"z": 2.3147430427,
				"element": "H" 
			},
			{
				"x": -1.6551502552,
				"y": 3.9251972237,
				"z": 3.8537697087,
				"element": "H" 
			},
			{
				"x": 0.022830302,
				"y": 3.4077932667,
				"z": 4.1937451163,
				"element": "H" 
			},
			{
				"x": -0.2890819576,
				"y": 5.0144549706,
				"z": 3.4734189666,
				"element": "H" 
			},
			{
				"x": 0.539599021,
				"y": -1.2932336235,
				"z": -1.9032091718,
				"element": "H" 
			},
			{
				"x": -3.0762268618,
				"y": -0.2108114701,
				"z": 0.170901021,
				"element": "H" 
			},
			{
				"x": -2.0915518738,
				"y": 1.9869109389,
				"z": 0.6945727941,
				"element": "H" 
			},
			{
				"x": -2.5987529832,
				"y": -1.7211876167,
				"z": -3.2644834831,
				"element": "H" 
			},
			{
				"x": -0.9660047256,
				"y": -2.3992172522,
				"z": -3.2557442047,
				"element": "H" 
			},
			{
				"x": -2.3622280497,
				"y": -3.4692989383,
				"z": -3.0843089137,
				"element": "H" 
			},
			{
				"x": -4.0505579962,
				"y": -1.8023917472,
				"z": -1.1446488761,
				"element": "H" 
			},
			{
				"x": -3.3874191076,
				"y": -2.4674869817,
				"z": 0.3615080479,
				"element": "H" 
			},
			{
				"x": -3.7119099546,
				"y": -3.5299138357,
				"z": -1.0107532772,
				"element": "H" 
			},
			{
				"x": 0.0075142239,
				"y": -3.3744242465,
				"z": -1.0475559645,
				"element": "H" 
			},
			{
				"x": -0.9762257869,
				"y": -3.356365626,
				"z": 0.4222725086,
				"element": "H" 
			},
			{
				"x": -1.4062637409,
				"y": -4.4276232383,
				"z": -0.9230603973,
				"element": "H" 
			}
		],
		 "valence_orbital": [ 
			{
				"type": "occ",
				"energy": -0.29641,
				"method": "rhf"
			},
			{
				"type": "occ",
				"energy": -0.28643,
				"method": "rhf"
			},
			{
				"type": "occ",
				"energy": -0.26261,
				"method": "rhf"
			},
			{
				"type": "occ",
				"energy": -0.25427,
				"method": "rhf"
			},
			{
				"type": "occ",
				"energy": -0.24161,
				"method": "rhf"
			},
			{
				"type": "unocc",
				"energy": -0.01907,
				"method": "rhf"
			},
			{
				"type": "unocc",
				"energy": -0.01227,
				"method": "rhf"
			},
			{
				"type": "unocc",
				"energy": 0.02541,
				"method": "rhf"
			},
			{
				"type": "unocc",
				"energy": 0.06114,
				"method": "rhf"
			},
			{
				"type": "unocc",
				"energy": 0.07677,
				"method": "rhf"
			}
		],
		"cosmo_sigma_profile": { 
			"-0.025": 0.0,
			"-0.024": 0.0,
			"-0.023": 0.0,
			"-0.022": 0.0,
			"-0.021": 0.0,
			"-0.02": 0.0,
			"-0.019": 0.0,
			"-0.018": 0.0,
			"-0.017": 0.0,
			"-0.016": 0.0,
			"-0.015": 0.0,
			"-0.014": 0.392377335643,
			"-0.013": 0.957225501821,
			"-0.012": 0.705198106733,
			"-0.011": 0.643828684093,
			"-0.01": 1.30549706364,
			"-0.009": 1.1506869644,
			"-0.008": 1.62796775399,
			"-0.007": 2.93465105105,
			"-0.006": 10.8721349027,
			"-0.005": 16.5568767452,
			"-0.004": 21.3342214583,
			"-0.003": 35.5434498723,
			"-0.002": 38.5013091615,
			"-0.001": 33.1940969712,
			"0.0": 30.6960822992,
			"0.001": 37.5630026407,
			"0.002": 24.9922303111,
			"0.003": 20.6040533465,
			"0.004": 15.4271865182,
			"0.005": 7.94617580816,
			"0.006": 3.70913794359,
			"0.007": 3.70587285691,
			"0.008": 3.06087782274,
			"0.009": 2.97123760646,
			"0.01": 1.5053621346,
			"0.011": 1.17049136868,
			"0.012": 1.41579375651,
			"0.013": 2.35005272022,
			"0.014": 6.18509912356,
			"0.015": 2.00807360826,
			"0.016": 0.0,
			"0.017": 0.0,
			"0.018": 0.0,
			"0.019": 0.0,
			"0.02": 0.0,
			"0.021": 0.0,
			"0.022": 0.0,
			"0.023": 0.0,
			"0.024": 0.0,
			"0.025": 0.0
		}
	}
}
