{
	 "smiles": "CCC(CO)(CO)COCC(CC)(CO)CO", 
	 "Tm": 383.15, 
	 "num_atms": 43, 
	 "gaussian": { 
		 "optdone": 1, 
		 "sigma_profile": "yes", 
		 "theory": "DFT", 
		 "functional": "B3LYP", 
		 "basiset": "6-31G**", 
		 "properties": { 
			 "R2extent": 5712.9581, 
			 "electric_dipole_moment_norm": 2.02639690091, 
			 "electric_quadrupole_moment_norm": 14.0817527613, 
			 "total_energy": -849.031093023, 
			 "HOMO_LUMO_gap": 0.30425, 
			 "cosmo_polarized_energy": -18.26, 
			 "cosmo_cavitation_energy": 40.77, 
			 "cosmo_dispersion_energy": -27.63, 
			 "cosmo_repulsion_energy": 2.16, 
			 "cosmo_total_nonelectrostatic_energy": 15.3, 
			 "SMD_solvation_energy": 6.54 
		},
		"coords": [
			{
				"x": -2.7198309391,
				"y": -2.8898237139,
				"z": 0.3050681025,
				"element": "C" 
			},
			{
				"x": -1.8451580095,
				"y": -1.8450826696,
				"z": 1.0074094255,
				"element": "C" 
			},
			{
				"x": -0.3185466671,
				"y": -1.9674044396,
				"z": 0.7688311517,
				"element": "C" 
			},
			{
				"x": 0.2563939014,
				"y": -3.1917177307,
				"z": 1.5200531147,
				"element": "C" 
			},
			{
				"x": 0.0856008638,
				"y": -3.1435384428,
				"z": 2.9329259531,
				"element": "O" 
			},
			{
				"x": 0.0291967969,
				"y": -2.1425886849,
				"z": -0.7301496521,
				"element": "C" 
			},
			{
				"x": -0.6225552776,
				"y": -1.217634155,
				"z": -1.5844768918,
				"element": "O" 
			},
			{
				"x": 0.3851826377,
				"y": -0.7091056996,
				"z": 1.3124052111,
				"element": "C" 
			},
			{
				"x": 0.0611293512,
				"y": 0.4234807134,
				"z": 0.5118889529,
				"element": "O" 
			},
			{
				"x": 0.7243413716,
				"y": 1.6180106633,
				"z": 0.9181748299,
				"element": "C" 
			},
			{
				"x": 0.5107227189,
				"y": 2.7229579801,
				"z": -0.1328679094,
				"element": "C" 
			},
			{
				"x": -1.0121361961,
				"y": 2.968306458,
				"z": -0.3119470747,
				"element": "C" 
			},
			{
				"x": -1.4371058887,
				"y": 4.1215323431,
				"z": -1.2335686949,
				"element": "C" 
			},
			{
				"x": 1.2012347584,
				"y": 4.010990693,
				"z": 0.3894136825,
				"element": "C" 
			},
			{
				"x": 2.523227154,
				"y": 3.8119747369,
				"z": 0.8579399373,
				"element": "O" 
			},
			{
				"x": 1.1342523335,
				"y": 2.2970674019,
				"z": -1.4754174382,
				"element": "C" 
			},
			{
				"x": 2.548812949,
				"y": 2.1216131032,
				"z": -1.3022083665,
				"element": "O" 
			},
			{
				"x": -2.446105205,
				"y": -3.91530647,
				"z": 0.5766769972,
				"element": "H" 
			},
			{
				"x": -2.6532573994,
				"y": -2.7902556214,
				"z": -0.7817509456,
				"element": "H" 
			},
			{
				"x": -3.7685974785,
				"y": -2.7533912479,
				"z": 0.5886808668,
				"element": "H" 
			},
			{
				"x": -2.1645090755,
				"y": -0.8481408638,
				"z": 0.6881546578,
				"element": "H" 
			},
			{
				"x": -2.0059420161,
				"y": -1.8961805238,
				"z": 2.0907630593,
				"element": "H" 
			},
			{
				"x": -0.2656226748,
				"y": -4.0946841493,
				"z": 1.1896662648,
				"element": "H" 
			},
			{
				"x": 1.3187724561,
				"y": -3.3211788141,
				"z": 1.2575627973,
				"element": "H" 
			},
			{
				"x": 0.7537385144,
				"y": -2.5533693916,
				"z": 3.3015190504,
				"element": "H" 
			},
			{
				"x": 1.1258653138,
				"y": -2.087759421,
				"z": -0.8479671121,
				"element": "H" 
			},
			{
				"x": -0.2744433278,
				"y": -3.1409499894,
				"z": -1.0654837915,
				"element": "H" 
			},
			{
				"x": -0.5260894605,
				"y": -0.3583033307,
				"z": -1.1453819893,
				"element": "H" 
			},
			{
				"x": 1.4797847854,
				"y": -0.8551700432,
				"z": 1.3017034466,
				"element": "H" 
			},
			{
				"x": 0.0803254401,
				"y": -0.5234764338,
				"z": 2.3545311883,
				"element": "H" 
			},
			{
				"x": 0.3259271757,
				"y": 1.9510131596,
				"z": 1.8899113292,
				"element": "H" 
			},
			{
				"x": 1.7954476795,
				"y": 1.4274738368,
				"z": 1.0446961369,
				"element": "H" 
			},
			{
				"x": -1.4739622409,
				"y": 2.0400709054,
				"z": -0.6652317611,
				"element": "H" 
			},
			{
				"x": -1.4327421445,
				"y": 3.1448748232,
				"z": 0.686639859,
				"element": "H" 
			},
			{
				"x": -1.091317367,
				"y": 3.9846892267,
				"z": -2.2631687187,
				"element": "H" 
			},
			{
				"x": -1.068838466,
				"y": 5.091080541,
				"z": -0.8848578083,
				"element": "H" 
			},
			{
				"x": -2.5295020636,
				"y": 4.1827452948,
				"z": -1.2683621789,
				"element": "H" 
			},
			{
				"x": 0.6296023329,
				"y": 4.4065418559,
				"z": 1.2379492048,
				"element": "H" 
			},
			{
				"x": 1.1726519572,
				"y": 4.7763939755,
				"z": -0.4026450672,
				"element": "H" 
			},
			{
				"x": 2.9916102471,
				"y": 3.3615777695,
				"z": 0.1366598436,
				"element": "H" 
			},
			{
				"x": 0.9434629225,
				"y": 3.0721206058,
				"z": -2.2300371879,
				"element": "H" 
			},
			{
				"x": 0.6795672703,
				"y": 1.3613633225,
				"z": -1.8257466571,
				"element": "H" 
			},
			{
				"x": 2.9356109664,
				"y": 1.8843824264,
				"z": -2.1534558178,
				"element": "H" 
			}
		],
		 "valence_orbital": [ 
			{
				"type": "occ",
				"energy": -0.28615,
				"method": "rhf"
			},
			{
				"type": "occ",
				"energy": -0.27384,
				"method": "rhf"
			},
			{
				"type": "occ",
				"energy": -0.26573,
				"method": "rhf"
			},
			{
				"type": "occ",
				"energy": -0.25332,
				"method": "rhf"
			},
			{
				"type": "occ",
				"energy": -0.25061,
				"method": "rhf"
			},
			{
				"type": "unocc",
				"energy": 0.05364,
				"method": "rhf"
			},
			{
				"type": "unocc",
				"energy": 0.06069,
				"method": "rhf"
			},
			{
				"type": "unocc",
				"energy": 0.06972,
				"method": "rhf"
			},
			{
				"type": "unocc",
				"energy": 0.08587,
				"method": "rhf"
			},
			{
				"type": "unocc",
				"energy": 0.09559,
				"method": "rhf"
			}
		],
		"cosmo_sigma_profile": { 
			"-0.025": 0.0,
			"-0.024": 0.0,
			"-0.023": 0.0,
			"-0.022": 0.0,
			"-0.021": 0.0,
			"-0.02": 0.0,
			"-0.019": 0.0,
			"-0.018": 0.0,
			"-0.017": 0.187392664293,
			"-0.016": 1.07754670675,
			"-0.015": 2.19281389993,
			"-0.014": 1.4928253432,
			"-0.013": 1.71510929092,
			"-0.012": 2.50958593466,
			"-0.011": 1.68993407238,
			"-0.01": 1.73161467196,
			"-0.009": 1.35467246561,
			"-0.008": 2.69528472669,
			"-0.007": 2.95958645997,
			"-0.006": 3.93314908336,
			"-0.005": 8.37102400869,
			"-0.004": 27.6112665685,
			"-0.003": 40.8213614386,
			"-0.002": 34.0492522788,
			"-0.001": 32.9913574156,
			"0.0": 30.954191992,
			"0.001": 30.0506740958,
			"0.002": 17.8155975839,
			"0.003": 7.89276637701,
			"0.004": 6.77776252656,
			"0.005": 5.54170678131,
			"0.006": 6.24116549622,
			"0.007": 5.73057378086,
			"0.008": 4.22655222816,
			"0.009": 4.42323698503,
			"0.01": 4.43346151867,
			"0.011": 3.97126614163,
			"0.012": 3.12625515079,
			"0.013": 3.99639778476,
			"0.014": 5.30855482613,
			"0.015": 4.01144917146,
			"0.016": 0.318220459898,
			"0.017": 0.0,
			"0.018": 0.0,
			"0.019": 0.0,
			"0.02": 0.0,
			"0.021": 0.0,
			"0.022": 0.0,
			"0.023": 0.0,
			"0.024": 0.0,
			"0.025": 0.0
		}
	}
}
