{
	 "smiles": "COC(=O)C1=C(CC(O)=O)C=CC=C1", 
	 "Tm": 413.15, 
	 "num_atms": 24, 
	 "gaussian": { 
		 "optdone": 1, 
		 "sigma_profile": "yes", 
		 "theory": "DFT", 
		 "functional": "B3LYP", 
		 "basiset": "6-31G**", 
		 "properties": { 
			 "R2extent": 2767.3323, 
			 "electric_dipole_moment_norm": 3.83716147302, 
			 "electric_quadrupole_moment_norm": 18.6596592359, 
			 "total_energy": -688.005095072, 
			 "HOMO_LUMO_gap": 0.19496, 
			 "cosmo_polarized_energy": -16.25, 
			 "cosmo_cavitation_energy": 28.38, 
			 "cosmo_dispersion_energy": -19.9, 
			 "cosmo_repulsion_energy": 1.55, 
			 "cosmo_total_nonelectrostatic_energy": 10.04, 
			 "SMD_solvation_energy": 7.35 
		},
		"coords": [
			{
				"x": -0.1920863236,
				"y": 1.089079517,
				"z": -2.9970382791,
				"element": "C" 
			},
			{
				"x": -0.1731023694,
				"y": 0.7441275344,
				"z": -1.6002075972,
				"element": "O" 
			},
			{
				"x": -0.7878058378,
				"y": 1.5996620409,
				"z": -0.7622124797,
				"element": "C" 
			},
			{
				"x": -1.3199964327,
				"y": 2.6269593938,
				"z": -1.1343563857,
				"element": "O" 
			},
			{
				"x": -0.7755128492,
				"y": 1.1346381261,
				"z": 0.6644435927,
				"element": "C" 
			},
			{
				"x": -0.0312861201,
				"y": 0.0368438676,
				"z": 1.1691214576,
				"element": "C" 
			},
			{
				"x": 0.9182111605,
				"y": -0.8136921125,
				"z": 0.3456566967,
				"element": "C" 
			},
			{
				"x": 0.2756210681,
				"y": -1.8119130173,
				"z": -0.6282422797,
				"element": "C" 
			},
			{
				"x": -0.9713630498,
				"y": -2.2394414207,
				"z": -0.3148246659,
				"element": "O" 
			},
			{
				"x": 0.8531560379,
				"y": -2.2515177784,
				"z": -1.5900588772,
				"element": "O" 
			},
			{
				"x": -0.1728279159,
				"y": -0.2741408083,
				"z": 2.5312354352,
				"element": "C" 
			},
			{
				"x": -1.003540778,
				"y": 0.4605697107,
				"z": 3.3776044197,
				"element": "C" 
			},
			{
				"x": -1.7167514714,
				"y": 1.5472184564,
				"z": 2.8739146114,
				"element": "C" 
			},
			{
				"x": -1.5960481021,
				"y": 1.876107972,
				"z": 1.5274081774,
				"element": "C" 
			},
			{
				"x": 0.3487726709,
				"y": 2.0234283816,
				"z": -3.165100238,
				"element": "H" 
			},
			{
				"x": -1.2209726589,
				"y": 1.2051131508,
				"z": -3.344530627,
				"element": "H" 
			},
			{
				"x": 0.29794519,
				"y": 0.256830403,
				"z": -3.5002616474,
				"element": "H" 
			},
			{
				"x": 1.5337668596,
				"y": -1.4117419004,
				"z": 1.0286889109,
				"element": "H" 
			},
			{
				"x": 1.5996802893,
				"y": -0.2083357926,
				"z": -0.2508892377,
				"element": "H" 
			},
			{
				"x": -1.2923601063,
				"y": -1.764276342,
				"z": 0.4674894108,
				"element": "H" 
			},
			{
				"x": 0.3972726602,
				"y": -1.1057036366,
				"z": 2.93751655,
				"element": "H" 
			},
			{
				"x": -1.0827450232,
				"y": 0.187538869,
				"z": 4.4257908145,
				"element": "H" 
			},
			{
				"x": -2.3611454534,
				"y": 2.1329998534,
				"z": 3.5220542849,
				"element": "H" 
			},
			{
				"x": -2.1374814448,
				"y": 2.7157455323,
				"z": 1.105697953,
				"element": "H" 
			}
		],
		 "valence_orbital": [ 
			{
				"type": "occ",
				"energy": -0.30856,
				"method": "rhf"
			},
			{
				"type": "occ",
				"energy": -0.28491,
				"method": "rhf"
			},
			{
				"type": "occ",
				"energy": -0.28422,
				"method": "rhf"
			},
			{
				"type": "occ",
				"energy": -0.27476,
				"method": "rhf"
			},
			{
				"type": "occ",
				"energy": -0.25645,
				"method": "rhf"
			},
			{
				"type": "unocc",
				"energy": -0.06149,
				"method": "rhf"
			},
			{
				"type": "unocc",
				"energy": -0.028,
				"method": "rhf"
			},
			{
				"type": "unocc",
				"energy": 0.01761,
				"method": "rhf"
			},
			{
				"type": "unocc",
				"energy": 0.04325,
				"method": "rhf"
			},
			{
				"type": "unocc",
				"energy": 0.07765,
				"method": "rhf"
			}
		],
		"cosmo_sigma_profile": { 
			"-0.025": 0.0,
			"-0.024": 0.0,
			"-0.023": 0.0,
			"-0.022": 0.0,
			"-0.021": 0.0,
			"-0.02": 0.0,
			"-0.019": 0.0,
			"-0.018": 0.0,
			"-0.017": 0.0,
			"-0.016": 0.0,
			"-0.015": 0.509290834968,
			"-0.014": 0.280880915805,
			"-0.013": 0.51247450955,
			"-0.012": 0.957710815126,
			"-0.011": 1.71754370275,
			"-0.01": 1.31981085431,
			"-0.009": 2.00445556608,
			"-0.008": 4.4287106371,
			"-0.007": 7.84414662813,
			"-0.006": 17.1019142123,
			"-0.005": 19.5473239006,
			"-0.004": 20.4426613611,
			"-0.003": 19.0731198897,
			"-0.002": 13.6352770214,
			"-0.001": 10.9821258071,
			"0.0": 12.6133503458,
			"0.001": 12.9699979045,
			"0.002": 14.2286140556,
			"0.003": 13.0192662335,
			"0.004": 6.04717605254,
			"0.005": 4.3867976261,
			"0.006": 3.47000376881,
			"0.007": 4.16844152166,
			"0.008": 4.19262610354,
			"0.009": 4.18566367448,
			"0.01": 6.7282678391,
			"0.011": 7.77222575369,
			"0.012": 8.31618875281,
			"0.013": 3.20477884933,
			"0.014": 0.305144971541,
			"0.015": 0.0,
			"0.016": 0.0,
			"0.017": 0.0,
			"0.018": 0.0,
			"0.019": 0.0,
			"0.02": 0.0,
			"0.021": 0.0,
			"0.022": 0.0,
			"0.023": 0.0,
			"0.024": 0.0,
			"0.025": 0.0
		}
	}
}
