{
	 "smiles": "CC(C)(C)OC(=O)NC1(CCC2=CC=CC=C12)C(O)=O", 
	 "Tm": 431.15, 
	 "num_atms": 39, 
	 "gaussian": { 
		 "optdone": 1, 
		 "sigma_profile": "yes", 
		 "theory": "DFT", 
		 "functional": "B3LYP", 
		 "basiset": "6-31G**", 
		 "properties": { 
			 "R2extent": 5523.5776, 
			 "electric_dipole_moment_norm": 3.31310668407, 
			 "electric_quadrupole_moment_norm": 15.2133046295, 
			 "total_energy": -938.747111088, 
			 "HOMO_LUMO_gap": 0.23146, 
			 "cosmo_polarized_energy": -17.37, 
			 "cosmo_cavitation_energy": 40.35, 
			 "cosmo_dispersion_energy": -26.75, 
			 "cosmo_repulsion_energy": 2.05, 
			 "cosmo_total_nonelectrostatic_energy": 15.64, 
			 "SMD_solvation_energy": 8.04 
		},
		"coords": [
			{
				"x": 0.0935848679,
				"y": 2.4723497989,
				"z": -1.6867887597,
				"element": "C" 
			},
			{
				"x": 1.2565844318,
				"y": 1.6306154706,
				"z": -1.155229559,
				"element": "C" 
			},
			{
				"x": 1.9916817553,
				"y": 2.3711910034,
				"z": -0.0334777773,
				"element": "C" 
			},
			{
				"x": 2.1896979107,
				"y": 1.2184813507,
				"z": -2.2989837523,
				"element": "C" 
			},
			{
				"x": 0.5773677524,
				"y": 0.4393172547,
				"z": -0.6112514652,
				"element": "O" 
			},
			{
				"x": 1.3005244677,
				"y": -0.5808584752,
				"z": -0.1009643236,
				"element": "C" 
			},
			{
				"x": 2.5058013381,
				"y": -0.5925698605,
				"z": 0.0843415206,
				"element": "O" 
			},
			{
				"x": 0.5004378735,
				"y": -1.6488985867,
				"z": 0.2350749006,
				"element": "N" 
			},
			{
				"x": -0.8863371439,
				"y": -1.8871818493,
				"z": -0.1620923506,
				"element": "C" 
			},
			{
				"x": -1.2554804115,
				"y": -3.3510097031,
				"z": 0.2482409099,
				"element": "C" 
			},
			{
				"x": -1.722795579,
				"y": -3.2526239326,
				"z": 1.7160448019,
				"element": "C" 
			},
			{
				"x": -2.31615978,
				"y": -1.863921549,
				"z": 1.7737162136,
				"element": "C" 
			},
			{
				"x": -3.1878956503,
				"y": -1.3297517856,
				"z": 2.7206308555,
				"element": "C" 
			},
			{
				"x": -3.6285965051,
				"y": -0.0121961835,
				"z": 2.5708448752,
				"element": "C" 
			},
			{
				"x": -3.2012852997,
				"y": 0.7568684655,
				"z": 1.4844223835,
				"element": "C" 
			},
			{
				"x": -2.3204636394,
				"y": 0.2250177119,
				"z": 0.5388516661,
				"element": "C" 
			},
			{
				"x": -1.8780815693,
				"y": -1.0870190762,
				"z": 0.6927323062,
				"element": "C" 
			},
			{
				"x": -1.0376707644,
				"y": -1.7509681845,
				"z": -1.6851292796,
				"element": "C" 
			},
			{
				"x": -2.3304207418,
				"y": -1.5962939984,
				"z": -2.0533133499,
				"element": "O" 
			},
			{
				"x": -0.136124981,
				"y": -1.8420176462,
				"z": -2.4862508944,
				"element": "O" 
			},
			{
				"x": -0.5917133689,
				"y": 2.744116758,
				"z": -0.8784395236,
				"element": "H" 
			},
			{
				"x": 0.4751904844,
				"y": 3.3940277261,
				"z": -2.1359358754,
				"element": "H" 
			},
			{
				"x": -0.4648285686,
				"y": 1.9230740665,
				"z": -2.4507271622,
				"element": "H" 
			},
			{
				"x": 2.3968933993,
				"y": 3.3121996056,
				"z": -0.4202662572,
				"element": "H" 
			},
			{
				"x": 1.3007734265,
				"y": 2.6075324248,
				"z": 0.7820139967,
				"element": "H" 
			},
			{
				"x": 2.8094652236,
				"y": 1.7675562551,
				"z": 0.359531317,
				"element": "H" 
			},
			{
				"x": 3.0294524596,
				"y": 0.6316989699,
				"z": -1.9267319276,
				"element": "H" 
			},
			{
				"x": 2.5761277763,
				"y": 2.1140526565,
				"z": -2.7965933,
				"element": "H" 
			},
			{
				"x": 1.6421798376,
				"y": 0.6211331754,
				"z": -3.0340196066,
				"element": "H" 
			},
			{
				"x": 1.0552568869,
				"y": -2.4569801339,
				"z": 0.4754780968,
				"element": "H" 
			},
			{
				"x": -2.0910752619,
				"y": -3.6801431211,
				"z": -0.3755615207,
				"element": "H" 
			},
			{
				"x": -0.4217690643,
				"y": -4.0398624069,
				"z": 0.0805226967,
				"element": "H" 
			},
			{
				"x": -2.4377614977,
				"y": -4.0398599413,
				"z": 1.9758814493,
				"element": "H" 
			},
			{
				"x": -0.8759164126,
				"y": -3.3444131374,
				"z": 2.4089441319,
				"element": "H" 
			},
			{
				"x": -3.5311444563,
				"y": -1.9319405842,
				"z": 3.5578926804,
				"element": "H" 
			},
			{
				"x": -4.3156943661,
				"y": 0.4132211321,
				"z": 3.2969158762,
				"element": "H" 
			},
			{
				"x": -3.5599759135,
				"y": 1.7759558357,
				"z": 1.3708812125,
				"element": "H" 
			},
			{
				"x": -1.9947273715,
				"y": 0.8199075042,
				"z": -0.3052299338,
				"element": "H" 
			},
			{
				"x": -2.3316015446,
				"y": -1.5878070097,
				"z": -3.0254752719,
				"element": "H" 
			}
		],
		 "valence_orbital": [ 
			{
				"type": "occ",
				"energy": -0.28147,
				"method": "rhf"
			},
			{
				"type": "occ",
				"energy": -0.25937,
				"method": "rhf"
			},
			{
				"type": "occ",
				"energy": -0.25566,
				"method": "rhf"
			},
			{
				"type": "occ",
				"energy": -0.24614,
				"method": "rhf"
			},
			{
				"type": "occ",
				"energy": -0.23789,
				"method": "rhf"
			},
			{
				"type": "unocc",
				"energy": -0.00643,
				"method": "rhf"
			},
			{
				"type": "unocc",
				"energy": -0.002,
				"method": "rhf"
			},
			{
				"type": "unocc",
				"energy": 0.0008,
				"method": "rhf"
			},
			{
				"type": "unocc",
				"energy": 0.05454,
				"method": "rhf"
			},
			{
				"type": "unocc",
				"energy": 0.07045,
				"method": "rhf"
			}
		],
		"cosmo_sigma_profile": { 
			"-0.025": 0.0,
			"-0.024": 0.0,
			"-0.023": 0.0,
			"-0.022": 0.0,
			"-0.021": 0.0,
			"-0.02": 0.0,
			"-0.019": 0.215678258229,
			"-0.018": 0.950755751082,
			"-0.017": 0.804819561198,
			"-0.016": 0.961863538028,
			"-0.015": 0.422128769219,
			"-0.014": 1.48163200508,
			"-0.013": 1.70060452363,
			"-0.012": 1.56727628807,
			"-0.011": 1.57183011129,
			"-0.01": 2.20003043066,
			"-0.009": 1.38432667779,
			"-0.008": 1.95727015277,
			"-0.007": 2.8783830534,
			"-0.006": 5.40675274959,
			"-0.005": 13.5822442526,
			"-0.004": 29.3433512732,
			"-0.003": 34.924539981,
			"-0.002": 30.4396676949,
			"-0.001": 29.8882811506,
			"0.0": 29.7810160881,
			"0.001": 24.2798772704,
			"0.002": 13.3136319935,
			"0.003": 11.5017655257,
			"0.004": 13.5592415798,
			"0.005": 18.0665782654,
			"0.006": 13.1751091293,
			"0.007": 5.17180910737,
			"0.008": 4.64650246045,
			"0.009": 4.3343074434,
			"0.01": 3.46410850623,
			"0.011": 5.16145863191,
			"0.012": 3.35440391357,
			"0.013": 3.56441517768,
			"0.014": 1.35124933192,
			"0.015": 0.0,
			"0.016": 0.0,
			"0.017": 0.0,
			"0.018": 0.0,
			"0.019": 0.0,
			"0.02": 0.0,
			"0.021": 0.0,
			"0.022": 0.0,
			"0.023": 0.0,
			"0.024": 0.0,
			"0.025": 0.0
		}
	}
}
