{
	 "smiles": "COC(=O)CCC1=C(C=C2CCC(=O)NC2=C1[N+]([O-])=O)[N+]([O-])=O", 
	 "Tm": 439.15, 
	 "num_atms": 36, 
	 "gaussian": { 
		 "optdone": 1, 
		 "sigma_profile": "yes", 
		 "theory": "DFT", 
		 "functional": "B3LYP", 
		 "basiset": "6-31G**", 
		 "properties": { 
			 "R2extent": 9889.1685, 
			 "electric_dipole_moment_norm": 3.15837453447, 
			 "electric_quadrupole_moment_norm": 35.8828880722, 
			 "total_energy": -1193.86823856, 
			 "HOMO_LUMO_gap": 0.14955, 
			 "cosmo_polarized_energy": -22.02, 
			 "cosmo_cavitation_energy": 41.34, 
			 "cosmo_dispersion_energy": -28.93, 
			 "cosmo_repulsion_energy": 2.21, 
			 "cosmo_total_nonelectrostatic_energy": 14.62, 
			 "SMD_solvation_energy": 12.71 
		},
		"coords": [
			{
				"x": 1.3078140278,
				"y": 5.7738504162,
				"z": -1.4311682804,
				"element": "C" 
			},
			{
				"x": 0.719487342,
				"y": 4.4945067224,
				"z": -1.1382102473,
				"element": "O" 
			},
			{
				"x": 1.3344634301,
				"y": 3.7849195778,
				"z": -0.1690952731,
				"element": "C" 
			},
			{
				"x": 2.3111248794,
				"y": 4.1714218182,
				"z": 0.4351448974,
				"element": "O" 
			},
			{
				"x": 0.6373564725,
				"y": 2.4547284136,
				"z": 0.0453410199,
				"element": "C" 
			},
			{
				"x": 1.2967512391,
				"y": 1.6570062264,
				"z": 1.1827657409,
				"element": "C" 
			},
			{
				"x": 0.6015252926,
				"y": 0.3297342141,
				"z": 1.4207962727,
				"element": "C" 
			},
			{
				"x": 1.0244502681,
				"y": -0.8835893966,
				"z": 0.8512836665,
				"element": "C" 
			},
			{
				"x": 0.3899591797,
				"y": -2.1031570057,
				"z": 1.1106086585,
				"element": "C" 
			},
			{
				"x": -0.7552065769,
				"y": -2.1660078073,
				"z": 1.8801896385,
				"element": "C" 
			},
			{
				"x": -1.5279241326,
				"y": -3.4438655179,
				"z": 2.105572944,
				"element": "C" 
			},
			{
				"x": -2.1784952193,
				"y": -3.4504277704,
				"z": 3.4951760517,
				"element": "C" 
			},
			{
				"x": -2.9793870905,
				"y": -2.1850965972,
				"z": 3.7415465643,
				"element": "C" 
			},
			{
				"x": -4.0068650845,
				"y": -2.1288158287,
				"z": 4.3870632187,
				"element": "O" 
			},
			{
				"x": -2.4289614529,
				"y": -1.028658119,
				"z": 3.1851641136,
				"element": "N" 
			},
			{
				"x": -1.2628657146,
				"y": -0.9718499878,
				"z": 2.4378877133,
				"element": "C" 
			},
			{
				"x": -0.546142765,
				"y": 0.2297329459,
				"z": 2.2345633643,
				"element": "C" 
			},
			{
				"x": -1.0478422942,
				"y": 1.421182634,
				"z": 2.9440458156,
				"element": "N" 
			},
			{
				"x": -0.2678044163,
				"y": 2.0727852126,
				"z": 3.6269157007,
				"element": "O" 
			},
			{
				"x": -2.2546259338,
				"y": 1.6719216083,
				"z": 2.8324839744,
				"element": "O" 
			},
			{
				"x": 2.1694385163,
				"y": -0.9620793402,
				"z": -0.0685653656,
				"element": "N" 
			},
			{
				"x": 2.4167983928,
				"y": 0.008239107,
				"z": -0.7862393633,
				"element": "O" 
			},
			{
				"x": 2.798614743,
				"y": -2.0197566769,
				"z": -0.0893134175,
				"element": "O" 
			},
			{
				"x": 1.2964132343,
				"y": 6.4141361126,
				"z": -0.5456808043,
				"element": "H" 
			},
			{
				"x": 0.6954290281,
				"y": 6.204403557,
				"z": -2.2231587402,
				"element": "H" 
			},
			{
				"x": 2.3408862436,
				"y": 5.6539097309,
				"z": -1.7666373923,
				"element": "H" 
			},
			{
				"x": -0.4228167452,
				"y": 2.6522147932,
				"z": 0.2434290687,
				"element": "H" 
			},
			{
				"x": 0.6800855307,
				"y": 1.8909963606,
				"z": -0.8917685279,
				"element": "H" 
			},
			{
				"x": 1.2824350795,
				"y": 2.2459268438,
				"z": 2.0970150691,
				"element": "H" 
			},
			{
				"x": 2.3413604846,
				"y": 1.4901968999,
				"z": 0.9283486353,
				"element": "H" 
			},
			{
				"x": 0.8026659504,
				"y": -3.0002462692,
				"z": 0.6643595359,
				"element": "H" 
			},
			{
				"x": -0.8719549238,
				"y": -4.3100357587,
				"z": 1.9810537094,
				"element": "H" 
			},
			{
				"x": -2.3115324345,
				"y": -3.5293006968,
				"z": 1.3394018586,
				"element": "H" 
			},
			{
				"x": -2.8498917327,
				"y": -4.2994328056,
				"z": 3.6337883274,
				"element": "H" 
			},
			{
				"x": -1.4064712278,
				"y": -3.5102683217,
				"z": 4.2741220584,
				"element": "H" 
			},
			{
				"x": -2.9251715902,
				"y": -0.1644252949,
				"z": 3.375169794,
				"element": "H" 
			}
		],
		 "valence_orbital": [ 
			{
				"type": "occ",
				"energy": -0.30431,
				"method": "rhf"
			},
			{
				"type": "occ",
				"energy": -0.29262,
				"method": "rhf"
			},
			{
				"type": "occ",
				"energy": -0.28191,
				"method": "rhf"
			},
			{
				"type": "occ",
				"energy": -0.27671,
				"method": "rhf"
			},
			{
				"type": "occ",
				"energy": -0.26078,
				"method": "rhf"
			},
			{
				"type": "unocc",
				"energy": -0.11123,
				"method": "rhf"
			},
			{
				"type": "unocc",
				"energy": -0.10052,
				"method": "rhf"
			},
			{
				"type": "unocc",
				"energy": -0.04743,
				"method": "rhf"
			},
			{
				"type": "unocc",
				"energy": -0.03664,
				"method": "rhf"
			},
			{
				"type": "unocc",
				"energy": 0.00463,
				"method": "rhf"
			}
		],
		"cosmo_sigma_profile": { 
			"-0.025": 0.0,
			"-0.024": 0.0,
			"-0.023": 0.0,
			"-0.022": 0.0,
			"-0.021": 0.0,
			"-0.02": 0.0,
			"-0.019": 0.0,
			"-0.018": 0.0,
			"-0.017": 0.0,
			"-0.016": 0.0,
			"-0.015": 0.0,
			"-0.014": 0.0,
			"-0.013": 0.0,
			"-0.012": 0.000124022547176,
			"-0.011": 0.661899815103,
			"-0.01": 1.84445787549,
			"-0.009": 3.6325255033,
			"-0.008": 6.58479075312,
			"-0.007": 15.2880387522,
			"-0.006": 24.7624800232,
			"-0.005": 27.6192872399,
			"-0.004": 30.1772159477,
			"-0.003": 33.7091940505,
			"-0.002": 26.6538254764,
			"-0.001": 19.8058360181,
			"0.0": 12.7870236409,
			"0.001": 9.84224097958,
			"0.002": 10.24353964,
			"0.003": 9.83529373112,
			"0.004": 10.22029984,
			"0.005": 9.77507137,
			"0.006": 14.1664070175,
			"0.007": 16.1914596133,
			"0.008": 12.6901265867,
			"0.009": 9.57039505071,
			"0.01": 5.23039193511,
			"0.011": 7.04348433445,
			"0.012": 8.65345646198,
			"0.013": 1.89874595633,
			"0.014": 0.00412263189795,
			"0.015": 0.0,
			"0.016": 0.0,
			"0.017": 0.0,
			"0.018": 0.0,
			"0.019": 0.0,
			"0.02": 0.0,
			"0.021": 0.0,
			"0.022": 0.0,
			"0.023": 0.0,
			"0.024": 0.0,
			"0.025": 0.0
		}
	}
}
