{
	 "smiles": "CN(C)C(C(O)=O)C1=CC(Cl)=CC(Cl)=C1", 
	 "Tm": 444.15, 
	 "num_atms": 26, 
	 "gaussian": { 
		 "optdone": 1, 
		 "sigma_profile": "yes", 
		 "theory": "DFT", 
		 "functional": "B3LYP", 
		 "basiset": "6-31G**", 
		 "properties": { 
			 "R2extent": 5408.611, 
			 "electric_dipole_moment_norm": 2.56761719499, 
			 "electric_quadrupole_moment_norm": 8.47943342152, 
			 "total_energy": -1513.27755019, 
			 "HOMO_LUMO_gap": 0.19111, 
			 "cosmo_polarized_energy": -11.45, 
			 "cosmo_cavitation_energy": 33.51, 
			 "cosmo_dispersion_energy": -23.29, 
			 "cosmo_repulsion_energy": 1.87, 
			 "cosmo_total_nonelectrostatic_energy": 12.09, 
			 "SMD_solvation_energy": 5.17 
		},
		"coords": [
			{
				"x": -1.2991392317,
				"y": 1.6434663895,
				"z": 1.6599730359,
				"element": "C" 
			},
			{
				"x": -0.9194297465,
				"y": 1.1657486087,
				"z": 0.3300436533,
				"element": "N" 
			},
			{
				"x": -0.8032838853,
				"y": 2.2910741462,
				"z": -0.5967434956,
				"element": "C" 
			},
			{
				"x": 0.2977756497,
				"y": 0.359310809,
				"z": 0.3450276047,
				"element": "C" 
			},
			{
				"x": 0.1785015196,
				"y": -0.8229591358,
				"z": 1.3179163201,
				"element": "C" 
			},
			{
				"x": 1.3923042133,
				"y": -1.1432098131,
				"z": 1.8212571594,
				"element": "O" 
			},
			{
				"x": -0.8291610956,
				"y": -1.4375087152,
				"z": 1.5791157871,
				"element": "O" 
			},
			{
				"x": 0.5878206789,
				"y": -0.2608756396,
				"z": -1.0231415542,
				"element": "C" 
			},
			{
				"x": -0.4367319307,
				"y": -0.9372962688,
				"z": -1.6970704049,
				"element": "C" 
			},
			{
				"x": -0.1620266423,
				"y": -1.5255920541,
				"z": -2.9279015284,
				"element": "C" 
			},
			{
				"x": -1.4409087934,
				"y": -2.3687532678,
				"z": -3.7855453521,
				"element": "Cl" 
			},
			{
				"x": 1.1079199244,
				"y": -1.4690255241,
				"z": -3.5052624337,
				"element": "C" 
			},
			{
				"x": 2.1105423419,
				"y": -0.7974826815,
				"z": -2.8093744408,
				"element": "C" 
			},
			{
				"x": 3.718064385,
				"y": -0.7061029334,
				"z": -3.5099474486,
				"element": "Cl" 
			},
			{
				"x": 1.8685491445,
				"y": -0.1928757727,
				"z": -1.5760003188,
				"element": "C" 
			},
			{
				"x": -2.2214492496,
				"y": 2.2247411081,
				"z": 1.5742924199,
				"element": "H" 
			},
			{
				"x": -1.4969537662,
				"y": 0.8010058746,
				"z": 2.323536894,
				"element": "H" 
			},
			{
				"x": -0.5312037737,
				"y": 2.2936937488,
				"z": 2.1203674764,
				"element": "H" 
			},
			{
				"x": -0.587904094,
				"y": 1.9361757292,
				"z": -1.6064322403,
				"element": "H" 
			},
			{
				"x": -1.7550569229,
				"y": 2.8290659553,
				"z": -0.6224776243,
				"element": "H" 
			},
			{
				"x": -0.0129723465,
				"y": 3.0093669256,
				"z": -0.3068153372,
				"element": "H" 
			},
			{
				"x": 1.1847840749,
				"y": 0.9417203067,
				"z": 0.6560008966,
				"element": "H" 
			},
			{
				"x": 1.2621709697,
				"y": -1.9408979572,
				"z": 2.3620762132,
				"element": "H" 
			},
			{
				"x": -1.4254620282,
				"y": -0.9890776513,
				"z": -1.257108528,
				"element": "H" 
			},
			{
				"x": 1.3066225854,
				"y": -1.9313571407,
				"z": -4.4640175441,
				"element": "H" 
			},
			{
				"x": 2.6686280197,
				"y": 0.3243449537,
				"z": -1.0581692094,
				"element": "H" 
			}
		],
		 "valence_orbital": [ 
			{
				"type": "occ",
				"energy": -0.31695,
				"method": "rhf"
			},
			{
				"type": "occ",
				"energy": -0.28874,
				"method": "rhf"
			},
			{
				"type": "occ",
				"energy": -0.26182,
				"method": "rhf"
			},
			{
				"type": "occ",
				"energy": -0.25456,
				"method": "rhf"
			},
			{
				"type": "occ",
				"energy": -0.23092,
				"method": "rhf"
			},
			{
				"type": "unocc",
				"energy": -0.03981,
				"method": "rhf"
			},
			{
				"type": "unocc",
				"energy": -0.02746,
				"method": "rhf"
			},
			{
				"type": "unocc",
				"energy": 0.00116,
				"method": "rhf"
			},
			{
				"type": "unocc",
				"energy": 0.01336,
				"method": "rhf"
			},
			{
				"type": "unocc",
				"energy": 0.04692,
				"method": "rhf"
			}
		],
		"cosmo_sigma_profile": { 
			"-0.025": 0.0,
			"-0.024": 0.0,
			"-0.023": 0.0,
			"-0.022": 0.0,
			"-0.021": 0.0,
			"-0.02": 0.0,
			"-0.019": 0.197103723111,
			"-0.018": 1.11919103497,
			"-0.017": 0.717912489204,
			"-0.016": 0.951608109778,
			"-0.015": 0.484741643303,
			"-0.014": 1.00180841241,
			"-0.013": 0.345066844285,
			"-0.012": 1.10318738402,
			"-0.011": 1.04225744415,
			"-0.01": 0.565557033606,
			"-0.009": 0.664468085632,
			"-0.008": 3.84183172239,
			"-0.007": 5.1547757213,
			"-0.006": 5.61596703814,
			"-0.005": 8.55498258387,
			"-0.004": 16.7647810871,
			"-0.003": 19.3589267078,
			"-0.002": 25.446321209,
			"-0.001": 30.6151434034,
			"0.0": 27.9661278554,
			"0.001": 29.1857008995,
			"0.002": 17.9018712308,
			"0.003": 16.6317134354,
			"0.004": 24.1368194019,
			"0.005": 7.10091828623,
			"0.006": 3.2379228444,
			"0.007": 3.11769083984,
			"0.008": 2.76845907448,
			"0.009": 3.31804353481,
			"0.01": 2.80461078601,
			"0.011": 4.92248557093,
			"0.012": 2.86748503871,
			"0.013": 0.318756086001,
			"0.014": 0.0,
			"0.015": 0.0,
			"0.016": 0.0,
			"0.017": 0.0,
			"0.018": 0.0,
			"0.019": 0.0,
			"0.02": 0.0,
			"0.021": 0.0,
			"0.022": 0.0,
			"0.023": 0.0,
			"0.024": 0.0,
			"0.025": 0.0
		}
	}
}
