{
	 "smiles": "CCC(CC)(CC=C)C(N)=O", 
	 "Tm": 348.15, 
	 "num_atms": 28, 
	 "gaussian": { 
		 "optdone": 1, 
		 "sigma_profile": "yes", 
		 "theory": "DFT", 
		 "functional": "B3LYP", 
		 "basiset": "6-31G**", 
		 "properties": { 
			 "R2extent": 2002.8181, 
			 "electric_dipole_moment_norm": 3.2680182833, 
			 "electric_quadrupole_moment_norm": 10.6119529381, 
			 "total_energy": -483.185054818, 
			 "HOMO_LUMO_gap": 0.25973, 
			 "cosmo_polarized_energy": -11.55, 
			 "cosmo_cavitation_energy": 28.83, 
			 "cosmo_dispersion_energy": -19.66, 
			 "cosmo_repulsion_energy": 1.58, 
			 "cosmo_total_nonelectrostatic_energy": 10.75, 
			 "SMD_solvation_energy": 5.98 
		},
		"coords": [
			{
				"x": 2.0843782197,
				"y": -0.993301081,
				"z": 1.1446429805,
				"element": "C" 
			},
			{
				"x": 0.8421279506,
				"y": -1.3262337016,
				"z": 0.3074181782,
				"element": "C" 
			},
			{
				"x": 0.3526294203,
				"y": -0.2074973741,
				"z": -0.6472570072,
				"element": "C" 
			},
			{
				"x": 1.4500330113,
				"y": 0.2270635183,
				"z": -1.6593803247,
				"element": "C" 
			},
			{
				"x": 2.0167685212,
				"y": -0.8889235892,
				"z": -2.5445528346,
				"element": "C" 
			},
			{
				"x": -0.0850123527,
				"y": 1.063905192,
				"z": 0.1492729331,
				"element": "C" 
			},
			{
				"x": -1.1665807291,
				"y": 0.8322001951,
				"z": 1.168384839,
				"element": "C" 
			},
			{
				"x": -1.0633698116,
				"y": 1.0937382171,
				"z": 2.4727027357,
				"element": "C" 
			},
			{
				"x": -0.8789129594,
				"y": -0.6262945304,
				"z": -1.4938821371,
				"element": "C" 
			},
			{
				"x": -1.3839633324,
				"y": -1.8834164484,
				"z": -1.3224752861,
				"element": "N" 
			},
			{
				"x": -1.3835448338,
				"y": 0.1527208827,
				"z": -2.2949785846,
				"element": "O" 
			},
			{
				"x": 2.3467763432,
				"y": -1.8442537882,
				"z": 1.7815178363,
				"element": "H" 
			},
			{
				"x": 1.9136054052,
				"y": -0.1357695507,
				"z": 1.8013838015,
				"element": "H" 
			},
			{
				"x": 2.954593308,
				"y": -0.7716302341,
				"z": 0.5196236071,
				"element": "H" 
			},
			{
				"x": 1.0572794196,
				"y": -2.2301704174,
				"z": -0.2761909977,
				"element": "H" 
			},
			{
				"x": 0.0280768397,
				"y": -1.5774438006,
				"z": 0.9990063274,
				"element": "H" 
			},
			{
				"x": 2.265729085,
				"y": 0.707115851,
				"z": -1.1061311721,
				"element": "H" 
			},
			{
				"x": 1.0063672147,
				"y": 0.9969486162,
				"z": -2.2977450098,
				"element": "H" 
			},
			{
				"x": 2.5476915968,
				"y": -1.6520112755,
				"z": -1.9655834215,
				"element": "H" 
			},
			{
				"x": 1.2265327266,
				"y": -1.3886220216,
				"z": -3.1147236284,
				"element": "H" 
			},
			{
				"x": 2.7283428349,
				"y": -0.4752510175,
				"z": -3.266343988,
				"element": "H" 
			},
			{
				"x": 0.7928316789,
				"y": 1.5045823883,
				"z": 0.6340665948,
				"element": "H" 
			},
			{
				"x": -0.4439940688,
				"y": 1.7854285714,
				"z": -0.5941398661,
				"element": "H" 
			},
			{
				"x": -2.1067080117,
				"y": 0.4340025071,
				"z": 0.7846494063,
				"element": "H" 
			},
			{
				"x": -1.8889755316,
				"y": 0.9236417663,
				"z": 3.1578036486,
				"element": "H" 
			},
			{
				"x": -0.1514766894,
				"y": 1.5024728596,
				"z": 2.9029210914,
				"element": "H" 
			},
			{
				"x": -2.1954670445,
				"y": -2.1328709207,
				"z": -1.8674827833,
				"element": "H" 
			},
			{
				"x": -1.021058211,
				"y": -2.5396308142,
				"z": -0.6532269388,
				"element": "H" 
			}
		],
		 "valence_orbital": [ 
			{
				"type": "occ",
				"energy": -0.3204,
				"method": "rhf"
			},
			{
				"type": "occ",
				"energy": -0.30892,
				"method": "rhf"
			},
			{
				"type": "occ",
				"energy": -0.26235,
				"method": "rhf"
			},
			{
				"type": "occ",
				"energy": -0.25297,
				"method": "rhf"
			},
			{
				"type": "occ",
				"energy": -0.23962,
				"method": "rhf"
			},
			{
				"type": "unocc",
				"energy": 0.02011,
				"method": "rhf"
			},
			{
				"type": "unocc",
				"energy": 0.0321,
				"method": "rhf"
			},
			{
				"type": "unocc",
				"energy": 0.07393,
				"method": "rhf"
			},
			{
				"type": "unocc",
				"energy": 0.08487,
				"method": "rhf"
			},
			{
				"type": "unocc",
				"energy": 0.11437,
				"method": "rhf"
			}
		],
		"cosmo_sigma_profile": { 
			"-0.025": 0.0,
			"-0.024": 0.0,
			"-0.023": 0.0,
			"-0.022": 0.0,
			"-0.021": 0.0,
			"-0.02": 0.0,
			"-0.019": 0.0,
			"-0.018": 0.0,
			"-0.017": 0.0,
			"-0.016": 0.0,
			"-0.015": 0.0,
			"-0.014": 0.45768325935,
			"-0.013": 1.70328484903,
			"-0.012": 2.09647176136,
			"-0.011": 2.30253627262,
			"-0.01": 2.06727959954,
			"-0.009": 2.15737604374,
			"-0.008": 2.33199582568,
			"-0.007": 1.99738660836,
			"-0.006": 2.09883844701,
			"-0.005": 3.93979207727,
			"-0.004": 8.22469696257,
			"-0.003": 22.1867742347,
			"-0.002": 29.4605995854,
			"-0.001": 28.1873501827,
			"0.0": 31.0156337319,
			"0.001": 26.4005459317,
			"0.002": 14.6761389918,
			"0.003": 8.4702757222,
			"0.004": 5.9993529196,
			"0.005": 5.28009254793,
			"0.006": 3.27107378283,
			"0.007": 2.42179622161,
			"0.008": 1.29257706751,
			"0.009": 1.76722885986,
			"0.01": 0.904631588755,
			"0.011": 1.52785682783,
			"0.012": 1.56094819915,
			"0.013": 1.80190695186,
			"0.014": 4.7077880408,
			"0.015": 2.76592780838,
			"0.016": 0.0421397859498,
			"0.017": 0.0,
			"0.018": 0.0,
			"0.019": 0.0,
			"0.02": 0.0,
			"0.021": 0.0,
			"0.022": 0.0,
			"0.023": 0.0,
			"0.024": 0.0,
			"0.025": 0.0
		}
	}
}
