{
	 "smiles": "NC1=C(OC2=CC=CC=C2F)N=CC=C1", 
	 "Tm": 361.15, 
	 "num_atms": 24, 
	 "gaussian": { 
		 "optdone": 1, 
		 "sigma_profile": "yes", 
		 "theory": "DFT", 
		 "functional": "B3LYP", 
		 "basiset": "6-31G**", 
		 "properties": { 
			 "R2extent": 3470.5709, 
			 "electric_dipole_moment_norm": 1.60887535875, 
			 "electric_quadrupole_moment_norm": 14.4631476329, 
			 "total_energy": -709.145393606, 
			 "HOMO_LUMO_gap": 0.18324, 
			 "cosmo_polarized_energy": -9.05, 
			 "cosmo_cavitation_energy": 28.99, 
			 "cosmo_dispersion_energy": -21.27, 
			 "cosmo_repulsion_energy": 1.63, 
			 "cosmo_total_nonelectrostatic_energy": 9.35, 
			 "SMD_solvation_energy": 5.07 
		},
		"coords": [
			{
				"x": -1.5019671535,
				"y": 2.1180086242,
				"z": -0.6936932086,
				"element": "N" 
			},
			{
				"x": -0.285840584,
				"y": 2.0871541783,
				"z": -0.0319673829,
				"element": "C" 
			},
			{
				"x": 0.2332861055,
				"y": 0.8519965679,
				"z": 0.4408644331,
				"element": "C" 
			},
			{
				"x": -0.5764411251,
				"y": -0.2151345323,
				"z": 0.1325101144,
				"element": "O" 
			},
			{
				"x": -0.214885495,
				"y": -1.5413441798,
				"z": 0.128058014,
				"element": "C" 
			},
			{
				"x": 0.701104275,
				"y": -2.166934224,
				"z": 0.9767755363,
				"element": "C" 
			},
			{
				"x": 0.9019322149,
				"y": -3.5470901735,
				"z": 0.8698086843,
				"element": "C" 
			},
			{
				"x": 0.1954688497,
				"y": -4.3070874637,
				"z": -0.0611083813,
				"element": "C" 
			},
			{
				"x": -0.7281252042,
				"y": -3.6867450013,
				"z": -0.9074377067,
				"element": "C" 
			},
			{
				"x": -0.9187267691,
				"y": -2.3191342791,
				"z": -0.8031579235,
				"element": "C" 
			},
			{
				"x": -1.803947173,
				"y": -1.7007249504,
				"z": -1.6161248544,
				"element": "F" 
			},
			{
				"x": 1.3534582781,
				"y": 0.7131102855,
				"z": 1.1118220303,
				"element": "N" 
			},
			{
				"x": 2.0785578008,
				"y": 1.8187259189,
				"z": 1.3726596439,
				"element": "C" 
			},
			{
				"x": 1.6780388205,
				"y": 3.0825046895,
				"z": 0.9636031172,
				"element": "C" 
			},
			{
				"x": 0.4809615901,
				"y": 3.217809846,
				"z": 0.2516633931,
				"element": "C" 
			},
			{
				"x": -1.8011255977,
				"y": 1.2266564196,
				"z": -1.0652962914,
				"element": "H" 
			},
			{
				"x": -1.6487739668,
				"y": 2.8980540661,
				"z": -1.317572698,
				"element": "H" 
			},
			{
				"x": 1.2497936271,
				"y": -1.5692315819,
				"z": 1.689551424,
				"element": "H" 
			},
			{
				"x": 1.6187144082,
				"y": -4.0260629994,
				"z": 1.5297593669,
				"element": "H" 
			},
			{
				"x": 0.3564963769,
				"y": -5.3780366834,
				"z": -0.1335055103,
				"element": "H" 
			},
			{
				"x": -1.2972115777,
				"y": -4.2413567492,
				"z": -1.6458462724,
				"element": "H" 
			},
			{
				"x": 3.0011967203,
				"y": 1.6675569768,
				"z": 1.9263521642,
				"element": "H" 
			},
			{
				"x": 2.2851666377,
				"y": 3.9525946214,
				"z": 1.1913014284,
				"element": "H" 
			},
			{
				"x": 0.1427689414,
				"y": 4.1941106236,
				"z": -0.0856191206,
				"element": "H" 
			}
		],
		 "valence_orbital": [ 
			{
				"type": "occ",
				"energy": -0.27186,
				"method": "rhf"
			},
			{
				"type": "occ",
				"energy": -0.26537,
				"method": "rhf"
			},
			{
				"type": "occ",
				"energy": -0.2483,
				"method": "rhf"
			},
			{
				"type": "occ",
				"energy": -0.23505,
				"method": "rhf"
			},
			{
				"type": "occ",
				"energy": -0.20078,
				"method": "rhf"
			},
			{
				"type": "unocc",
				"energy": -0.01754,
				"method": "rhf"
			},
			{
				"type": "unocc",
				"energy": -0.00226,
				"method": "rhf"
			},
			{
				"type": "unocc",
				"energy": 0.00705,
				"method": "rhf"
			},
			{
				"type": "unocc",
				"energy": 0.01745,
				"method": "rhf"
			},
			{
				"type": "unocc",
				"energy": 0.07392,
				"method": "rhf"
			}
		],
		"cosmo_sigma_profile": { 
			"-0.025": 0.0,
			"-0.024": 0.0,
			"-0.023": 0.0,
			"-0.022": 0.0,
			"-0.021": 0.0,
			"-0.02": 0.0,
			"-0.019": 0.0,
			"-0.018": 0.0,
			"-0.017": 0.0,
			"-0.016": 0.0,
			"-0.015": 0.0,
			"-0.014": 0.0548727514462,
			"-0.013": 1.05547938183,
			"-0.012": 1.58917559004,
			"-0.011": 1.45154735362,
			"-0.01": 1.32010546247,
			"-0.009": 3.06871191022,
			"-0.008": 2.49449510065,
			"-0.007": 6.08898398432,
			"-0.006": 12.1493938114,
			"-0.005": 13.4571489054,
			"-0.004": 15.2893505523,
			"-0.003": 12.5757603031,
			"-0.002": 11.2950959274,
			"-0.001": 13.6917531492,
			"0.0": 15.3546248696,
			"0.001": 21.4310688775,
			"0.002": 21.4757101389,
			"0.003": 23.7026051692,
			"0.004": 27.728544171,
			"0.005": 13.5648328156,
			"0.006": 4.39882966929,
			"0.007": 3.92579898936,
			"0.008": 1.58712437452,
			"0.009": 1.27844786603,
			"0.01": 1.22391107302,
			"0.011": 0.819843695819,
			"0.012": 0.498870915121,
			"0.013": 0.484116648813,
			"0.014": 0.0730460087946,
			"0.015": 0.0,
			"0.016": 0.0,
			"0.017": 0.0,
			"0.018": 0.0,
			"0.019": 0.0,
			"0.02": 0.0,
			"0.021": 0.0,
			"0.022": 0.0,
			"0.023": 0.0,
			"0.024": 0.0,
			"0.025": 0.0
		}
	}
}
