{
	 "smiles": "CC(C)CC(=O)CC1=C(Cl)C=C(Cl)C=C1", 
	 "Tm": 302.15, 
	 "num_atms": 29, 
	 "gaussian": { 
		 "optdone": 1, 
		 "sigma_profile": "yes", 
		 "theory": "DFT", 
		 "functional": "B3LYP", 
		 "basiset": "6-31G**", 
		 "properties": { 
			 "R2extent": 7208.8781, 
			 "electric_dipole_moment_norm": 2.65209525847, 
			 "electric_quadrupole_moment_norm": 10.6235775533, 
			 "total_energy": -1461.33641825, 
			 "HOMO_LUMO_gap": 0.2051, 
			 "cosmo_polarized_energy": -9.07, 
			 "cosmo_cavitation_energy": 35.35, 
			 "cosmo_dispersion_energy": -24.46, 
			 "cosmo_repulsion_energy": 1.94, 
			 "cosmo_total_nonelectrostatic_energy": 12.83, 
			 "SMD_solvation_energy": 5.73 
		},
		"coords": [
			{
				"x": 1.0439992631,
				"y": -1.0139105467,
				"z": -2.584944192,
				"element": "C" 
			},
			{
				"x": 0.7109744702,
				"y": -1.8615796817,
				"z": -1.3465688754,
				"element": "C" 
			},
			{
				"x": 1.9799157087,
				"y": -2.3040453103,
				"z": -0.6005420213,
				"element": "C" 
			},
			{
				"x": -0.3071654913,
				"y": -1.1737408331,
				"z": -0.415533235,
				"element": "C" 
			},
			{
				"x": 0.1271858335,
				"y": 0.1124493961,
				"z": 0.2697257129,
				"element": "C" 
			},
			{
				"x": 1.1760379538,
				"y": 0.6822592258,
				"z": 0.0416543174,
				"element": "O" 
			},
			{
				"x": -0.8042251463,
				"y": 0.6793611659,
				"z": 1.3674500932,
				"element": "C" 
			},
			{
				"x": -2.2888354786,
				"y": 0.4624599599,
				"z": 1.2059119909,
				"element": "C" 
			},
			{
				"x": -3.0532436241,
				"y": 1.1601809565,
				"z": 0.2561307703,
				"element": "C" 
			},
			{
				"x": -2.2760598928,
				"y": 2.3224472527,
				"z": -0.8101501934,
				"element": "Cl" 
			},
			{
				"x": -4.4270145487,
				"y": 0.9687501094,
				"z": 0.1141801911,
				"element": "C" 
			},
			{
				"x": -5.0630470777,
				"y": 0.0487340838,
				"z": 0.9450423436,
				"element": "C" 
			},
			{
				"x": -6.7910032425,
				"y": -0.2030408925,
				"z": 0.7772190753,
				"element": "Cl" 
			},
			{
				"x": -4.348569929,
				"y": -0.6674597818,
				"z": 1.9031421033,
				"element": "C" 
			},
			{
				"x": -2.977516362,
				"y": -0.4490840725,
				"z": 2.0195625707,
				"element": "C" 
			},
			{
				"x": 1.6821833966,
				"y": -1.5778372712,
				"z": -3.2739015413,
				"element": "H" 
			},
			{
				"x": 1.5686529847,
				"y": -0.0984650741,
				"z": -2.302951415,
				"element": "H" 
			},
			{
				"x": 0.1351706734,
				"y": -0.7332226859,
				"z": -3.129717044,
				"element": "H" 
			},
			{
				"x": 0.2059111542,
				"y": -2.772038562,
				"z": -1.7005592657,
				"element": "H" 
			},
			{
				"x": 2.5434444017,
				"y": -1.4402511462,
				"z": -0.2393119638,
				"element": "H" 
			},
			{
				"x": 1.7359728873,
				"y": -2.9394425895,
				"z": 0.2592577391,
				"element": "H" 
			},
			{
				"x": 2.6324341776,
				"y": -2.8825352211,
				"z": -1.2631692083,
				"element": "H" 
			},
			{
				"x": -0.6327414998,
				"y": -1.8686494421,
				"z": 0.3726974435,
				"element": "H" 
			},
			{
				"x": -1.2261424616,
				"y": -0.9397215511,
				"z": -0.9719019878,
				"element": "H" 
			},
			{
				"x": -0.5607237869,
				"y": 1.7418622158,
				"z": 1.4507073423,
				"element": "H" 
			},
			{
				"x": -0.4791876228,
				"y": 0.2047644475,
				"z": 2.3026166812,
				"element": "H" 
			},
			{
				"x": -4.985311219,
				"y": 1.5261157279,
				"z": -0.6277331255,
				"element": "H" 
			},
			{
				"x": -4.855702698,
				"y": -1.3769959231,
				"z": 2.546757052,
				"element": "H" 
			},
			{
				"x": -2.4199928236,
				"y": -0.9996639567,
				"z": 2.772428642,
				"element": "H" 
			}
		],
		 "valence_orbital": [ 
			{
				"type": "occ",
				"energy": -0.32709,
				"method": "rhf"
			},
			{
				"type": "occ",
				"energy": -0.32206,
				"method": "rhf"
			},
			{
				"type": "occ",
				"energy": -0.27257,
				"method": "rhf"
			},
			{
				"type": "occ",
				"energy": -0.26395,
				"method": "rhf"
			},
			{
				"type": "occ",
				"energy": -0.23925,
				"method": "rhf"
			},
			{
				"type": "unocc",
				"energy": -0.03415,
				"method": "rhf"
			},
			{
				"type": "unocc",
				"energy": -0.03362,
				"method": "rhf"
			},
			{
				"type": "unocc",
				"energy": -0.01865,
				"method": "rhf"
			},
			{
				"type": "unocc",
				"energy": 0.00223,
				"method": "rhf"
			},
			{
				"type": "unocc",
				"energy": 0.04417,
				"method": "rhf"
			}
		],
		"cosmo_sigma_profile": { 
			"-0.025": 0.0,
			"-0.024": 0.0,
			"-0.023": 0.0,
			"-0.022": 0.0,
			"-0.021": 0.0,
			"-0.02": 0.0,
			"-0.019": 0.0,
			"-0.018": 0.0,
			"-0.017": 0.0,
			"-0.016": 0.0,
			"-0.015": 0.0,
			"-0.014": 0.0,
			"-0.013": 0.0,
			"-0.012": 0.0,
			"-0.011": 0.0,
			"-0.01": 0.0,
			"-0.009": 0.378582648959,
			"-0.008": 5.32547795471,
			"-0.007": 10.0457530647,
			"-0.006": 7.56626644214,
			"-0.005": 10.5934857606,
			"-0.004": 12.6117917354,
			"-0.003": 18.6565920669,
			"-0.002": 29.9248632272,
			"-0.001": 28.4054581929,
			"0.0": 29.6677452998,
			"0.001": 37.2853104428,
			"0.002": 33.9968301733,
			"0.003": 19.6180758032,
			"0.004": 17.8315044032,
			"0.005": 6.13367659308,
			"0.006": 2.32738770645,
			"0.007": 1.38940777967,
			"0.008": 2.01165718436,
			"0.009": 1.53744392404,
			"0.01": 2.06906250623,
			"0.011": 2.28891346566,
			"0.012": 2.67757991409,
			"0.013": 0.793865399503,
			"0.014": 0.0,
			"0.015": 0.0,
			"0.016": 0.0,
			"0.017": 0.0,
			"0.018": 0.0,
			"0.019": 0.0,
			"0.02": 0.0,
			"0.021": 0.0,
			"0.022": 0.0,
			"0.023": 0.0,
			"0.024": 0.0,
			"0.025": 0.0
		}
	}
}
