{
	 "smiles": "NC1=CC=C(OCC2=CN3C=CC=CC3=N2)C=C1", 
	 "Tm": 420.15, 
	 "num_atms": 31, 
	 "gaussian": { 
		 "optdone": 1, 
		 "sigma_profile": "yes", 
		 "theory": "DFT", 
		 "functional": "B3LYP", 
		 "basiset": "6-31G**", 
		 "properties": { 
			 "R2extent": 6302.6605, 
			 "electric_dipole_moment_norm": 2.12017404003, 
			 "electric_quadrupole_moment_norm": 16.4923325576, 
			 "total_energy": -780.786379039, 
			 "HOMO_LUMO_gap": 0.14797, 
			 "cosmo_polarized_energy": -16.11, 
			 "cosmo_cavitation_energy": 35.31, 
			 "cosmo_dispersion_energy": -25.59, 
			 "cosmo_repulsion_energy": 1.97, 
			 "cosmo_total_nonelectrostatic_energy": 11.7, 
			 "SMD_solvation_energy": 4.62 
		},
		"coords": [
			{
				"x": -3.7385460488,
				"y": 1.7123712407,
				"z": -2.5912547368,
				"element": "N" 
			},
			{
				"x": -2.7564548129,
				"y": 0.8841964925,
				"z": -2.0197735813,
				"element": "C" 
			},
			{
				"x": -1.396368721,
				"y": 1.2069063464,
				"z": -2.1062456688,
				"element": "C" 
			},
			{
				"x": -0.4199935985,
				"y": 0.4230275172,
				"z": -1.4860504878,
				"element": "C" 
			},
			{
				"x": -0.7939037979,
				"y": -0.7148473447,
				"z": -0.7654173161,
				"element": "C" 
			},
			{
				"x": 0.0750986659,
				"y": -1.5704973061,
				"z": -0.1238723148,
				"element": "O" 
			},
			{
				"x": 1.4728994502,
				"y": -1.3724811716,
				"z": -0.296209861,
				"element": "C" 
			},
			{
				"x": 2.022104084,
				"y": -0.2523859284,
				"z": 0.5429257961,
				"element": "C" 
			},
			{
				"x": 1.5139771145,
				"y": 0.2228628891,
				"z": 1.7372050158,
				"element": "C" 
			},
			{
				"x": 2.3793988782,
				"y": 1.2219590369,
				"z": 2.1299672378,
				"element": "N" 
			},
			{
				"x": 2.3745527892,
				"y": 2.0492458332,
				"z": 3.2264606003,
				"element": "C" 
			},
			{
				"x": 3.373110116,
				"y": 2.9711002278,
				"z": 3.3740042229,
				"element": "C" 
			},
			{
				"x": 4.4069024638,
				"y": 3.0751838548,
				"z": 2.4003861445,
				"element": "C" 
			},
			{
				"x": 4.4106863789,
				"y": 2.2498579499,
				"z": 1.3012075863,
				"element": "C" 
			},
			{
				"x": 3.3815863301,
				"y": 1.2939455972,
				"z": 1.1407786916,
				"element": "C" 
			},
			{
				"x": 3.1626299759,
				"y": 0.4020751549,
				"z": 0.1761790353,
				"element": "N" 
			},
			{
				"x": -2.1508686978,
				"y": -1.0463347026,
				"z": -0.670724201,
				"element": "C" 
			},
			{
				"x": -3.1169922853,
				"y": -0.2591534443,
				"z": -1.2857651545,
				"element": "C" 
			},
			{
				"x": -3.4086721525,
				"y": 2.2554547353,
				"z": -3.3787501096,
				"element": "H" 
			},
			{
				"x": -4.5949483881,
				"y": 1.2285708155,
				"z": -2.8289037277,
				"element": "H" 
			},
			{
				"x": -1.0899461612,
				"y": 2.0917767588,
				"z": -2.6592300985,
				"element": "H" 
			},
			{
				"x": 0.6192579565,
				"y": 0.7198545698,
				"z": -1.564796303,
				"element": "H" 
			},
			{
				"x": 1.9276838972,
				"y": -2.3241061859,
				"z": 0.0005527989,
				"element": "H" 
			},
			{
				"x": 1.7315534518,
				"y": -1.2003655414,
				"z": -1.3485581122,
				"element": "H" 
			},
			{
				"x": 0.637482872,
				"y": -0.0416962634,
				"z": 2.3060915545,
				"element": "H" 
			},
			{
				"x": 1.5592352118,
				"y": 1.9179106791,
				"z": 3.9276161437,
				"element": "H" 
			},
			{
				"x": 3.3643692531,
				"y": 3.620052294,
				"z": 4.2421895031,
				"element": "H" 
			},
			{
				"x": 5.1924797557,
				"y": 3.8118298472,
				"z": 2.5324843614,
				"element": "H" 
			},
			{
				"x": 5.1796848643,
				"y": 2.2999102116,
				"z": 0.5390366202,
				"element": "H" 
			},
			{
				"x": -2.4308192399,
				"y": -1.9344442049,
				"z": -0.1129052551,
				"element": "H" 
			},
			{
				"x": -4.1660796054,
				"y": -0.5318799586,
				"z": -1.197828384,
				"element": "H" 
			}
		],
		 "valence_orbital": [ 
			{
				"type": "occ",
				"energy": -0.26737,
				"method": "rhf"
			},
			{
				"type": "occ",
				"energy": -0.24216,
				"method": "rhf"
			},
			{
				"type": "occ",
				"energy": -0.23626,
				"method": "rhf"
			},
			{
				"type": "occ",
				"energy": -0.20833,
				"method": "rhf"
			},
			{
				"type": "occ",
				"energy": -0.18022,
				"method": "rhf"
			},
			{
				"type": "unocc",
				"energy": -0.03225,
				"method": "rhf"
			},
			{
				"type": "unocc",
				"energy": 0.00459,
				"method": "rhf"
			},
			{
				"type": "unocc",
				"energy": 0.00832,
				"method": "rhf"
			},
			{
				"type": "unocc",
				"energy": 0.03656,
				"method": "rhf"
			},
			{
				"type": "unocc",
				"energy": 0.06249,
				"method": "rhf"
			}
		],
		"cosmo_sigma_profile": { 
			"-0.025": 0.0,
			"-0.024": 0.0,
			"-0.023": 0.0,
			"-0.022": 0.0,
			"-0.021": 0.0,
			"-0.02": 0.0,
			"-0.019": 0.0,
			"-0.018": 0.0,
			"-0.017": 0.0,
			"-0.016": 0.0,
			"-0.015": 0.0,
			"-0.014": 0.0,
			"-0.013": 0.0,
			"-0.012": 1.2328956174,
			"-0.011": 2.80253956823,
			"-0.01": 3.68357906926,
			"-0.009": 6.54835183577,
			"-0.008": 7.21634218111,
			"-0.007": 10.333483453,
			"-0.006": 16.980701538,
			"-0.005": 19.0738500421,
			"-0.004": 19.4512570058,
			"-0.003": 17.0056565818,
			"-0.002": 14.2761777342,
			"-0.001": 12.9557358053,
			"0.0": 18.1521377048,
			"0.001": 18.1921247158,
			"0.002": 19.3788454731,
			"0.003": 22.2113046113,
			"0.004": 17.4876786706,
			"0.005": 12.2138836454,
			"0.006": 13.7707801254,
			"0.007": 8.61517602336,
			"0.008": 3.80548141575,
			"0.009": 2.52040018434,
			"0.01": 2.75647956327,
			"0.011": 3.09378188249,
			"0.012": 1.93025039149,
			"0.013": 1.07550819786,
			"0.014": 1.42736401026,
			"0.015": 1.68561507494,
			"0.016": 1.30529887974,
			"0.017": 0.709436355547,
			"0.018": 0.407887297508,
			"0.019": 0.0,
			"0.02": 0.0,
			"0.021": 0.0,
			"0.022": 0.0,
			"0.023": 0.0,
			"0.024": 0.0,
			"0.025": 0.0
		}
	}
}
