{
	 "smiles": "CN1CC2CC(C1)C1=CC=CC(=O)N1C2", 
	 "Tm": 410.15, 
	 "num_atms": 31, 
	 "gaussian": { 
		 "optdone": 1, 
		 "sigma_profile": "yes", 
		 "theory": "DFT", 
		 "functional": "B3LYP", 
		 "basiset": "6-31G**", 
		 "properties": { 
			 "R2extent": 3436.2617, 
			 "electric_dipole_moment_norm": 4.75510659923, 
			 "electric_quadrupole_moment_norm": 17.0962283861, 
			 "total_energy": -651.639188855, 
			 "HOMO_LUMO_gap": 0.17017, 
			 "cosmo_polarized_energy": -12.75, 
			 "cosmo_cavitation_energy": 30.2, 
			 "cosmo_dispersion_energy": -22.61, 
			 "cosmo_repulsion_energy": 1.72, 
			 "cosmo_total_nonelectrostatic_energy": 9.31, 
			 "SMD_solvation_energy": 2.82 
		},
		"coords": [
			{
				"x": -2.9458504272,
				"y": -3.0267190019,
				"z": -0.9535342765,
				"element": "C" 
			},
			{
				"x": -2.4243258712,
				"y": -1.8284017658,
				"z": -0.312967384,
				"element": "N" 
			},
			{
				"x": -2.8042634408,
				"y": -0.561127307,
				"z": -0.9186603496,
				"element": "C" 
			},
			{
				"x": -1.9135936471,
				"y": -0.1156327791,
				"z": -2.1351987928,
				"element": "C" 
			},
			{
				"x": -0.7018818437,
				"y": -1.0482050629,
				"z": -2.2850157961,
				"element": "C" 
			},
			{
				"x": -0.0432688303,
				"y": -1.1099896549,
				"z": -0.9051602296,
				"element": "C" 
			},
			{
				"x": -1.0233321033,
				"y": -1.8468353233,
				"z": 0.0926929585,
				"element": "C" 
			},
			{
				"x": 0.3303349545,
				"y": 0.2795908249,
				"z": -0.4167603957,
				"element": "C" 
			},
			{
				"x": 1.3223003911,
				"y": 0.4434683907,
				"z": 0.5208122826,
				"element": "C" 
			},
			{
				"x": 1.6254489715,
				"y": 1.7370158164,
				"z": 1.0136774057,
				"element": "C" 
			},
			{
				"x": 0.9501405303,
				"y": 2.83234481,
				"z": 0.5567126392,
				"element": "C" 
			},
			{
				"x": -0.0787787145,
				"y": 2.7163903063,
				"z": -0.4487686271,
				"element": "C" 
			},
			{
				"x": -0.7073223962,
				"y": 3.6516738566,
				"z": -0.9461543187,
				"element": "O" 
			},
			{
				"x": -0.3561405224,
				"y": 1.3801679003,
				"z": -0.8797274076,
				"element": "N" 
			},
			{
				"x": -1.3895154603,
				"y": 1.3028970813,
				"z": -1.9366298535,
				"element": "C" 
			},
			{
				"x": -4.0366615599,
				"y": -2.9486585459,
				"z": -1.0195471104,
				"element": "H" 
			},
			{
				"x": -2.7190363383,
				"y": -3.8984511227,
				"z": -0.3311137347,
				"element": "H" 
			},
			{
				"x": -2.5689726687,
				"y": -3.2379630004,
				"z": -1.9705671648,
				"element": "H" 
			},
			{
				"x": -2.7482434012,
				"y": 0.2117690868,
				"z": -0.1394043562,
				"element": "H" 
			},
			{
				"x": -3.8543804398,
				"y": -0.6196073719,
				"z": -1.2202160083,
				"element": "H" 
			},
			{
				"x": -2.5090077879,
				"y": -0.1165892246,
				"z": -3.0546416129,
				"element": "H" 
			},
			{
				"x": -0.0088087045,
				"y": -0.6490739639,
				"z": -3.0349258065,
				"element": "H" 
			},
			{
				"x": -0.989119939,
				"y": -2.0485595356,
				"z": -2.6167976537,
				"element": "H" 
			},
			{
				"x": 0.8883007748,
				"y": -1.6829024868,
				"z": -0.9403493042,
				"element": "H" 
			},
			{
				"x": -0.9194445513,
				"y": -1.3850498442,
				"z": 1.0840351053,
				"element": "H" 
			},
			{
				"x": -0.7072962532,
				"y": -2.8897129829,
				"z": 0.1906714153,
				"element": "H" 
			},
			{
				"x": 1.8607526596,
				"y": -0.4281511051,
				"z": 0.8745465893,
				"element": "H" 
			},
			{
				"x": 2.4082721708,
				"y": 1.8528980512,
				"z": 1.7591411838,
				"element": "H" 
			},
			{
				"x": 1.1609476727,
				"y": 3.8363864824,
				"z": 0.9055510085,
				"element": "H" 
			},
			{
				"x": -2.1798575443,
				"y": 2.0018931732,
				"z": -1.6536689207,
				"element": "H" 
			},
			{
				"x": -0.9542956803,
				"y": 1.6950342984,
				"z": -2.8637314849,
				"element": "H" 
			}
		],
		 "valence_orbital": [ 
			{
				"type": "occ",
				"energy": -0.31915,
				"method": "rhf"
			},
			{
				"type": "occ",
				"energy": -0.28362,
				"method": "rhf"
			},
			{
				"type": "occ",
				"energy": -0.23733,
				"method": "rhf"
			},
			{
				"type": "occ",
				"energy": -0.2109,
				"method": "rhf"
			},
			{
				"type": "occ",
				"energy": -0.19842,
				"method": "rhf"
			},
			{
				"type": "unocc",
				"energy": -0.02825,
				"method": "rhf"
			},
			{
				"type": "unocc",
				"energy": 0.02066,
				"method": "rhf"
			},
			{
				"type": "unocc",
				"energy": 0.06277,
				"method": "rhf"
			},
			{
				"type": "unocc",
				"energy": 0.09623,
				"method": "rhf"
			},
			{
				"type": "unocc",
				"energy": 0.10945,
				"method": "rhf"
			}
		],
		"cosmo_sigma_profile": { 
			"-0.025": 0.0,
			"-0.024": 0.0,
			"-0.023": 0.0,
			"-0.022": 0.0,
			"-0.021": 0.0,
			"-0.02": 0.0,
			"-0.019": 0.0,
			"-0.018": 0.0,
			"-0.017": 0.0,
			"-0.016": 0.0,
			"-0.015": 0.0,
			"-0.014": 0.0,
			"-0.013": 0.0,
			"-0.012": 0.0,
			"-0.011": 0.0,
			"-0.01": 0.0,
			"-0.009": 0.0,
			"-0.008": 0.0,
			"-0.007": 0.902761744014,
			"-0.006": 5.85436780018,
			"-0.005": 12.2977019367,
			"-0.004": 33.5848617613,
			"-0.003": 36.9227359663,
			"-0.002": 30.2592321714,
			"-0.001": 25.03763798,
			"0.0": 19.9994306899,
			"0.001": 10.0467019131,
			"0.002": 10.3447003745,
			"0.003": 9.77830831757,
			"0.004": 9.24593582563,
			"0.005": 4.41297058839,
			"0.006": 2.32811209087,
			"0.007": 2.02600925845,
			"0.008": 2.29022960544,
			"0.009": 2.67715157242,
			"0.01": 2.15884795001,
			"0.011": 1.45170152607,
			"0.012": 1.8393897789,
			"0.013": 1.62168998628,
			"0.014": 4.28743895379,
			"0.015": 5.21118122478,
			"0.016": 1.45339526597,
			"0.017": 0.0860097349534,
			"0.018": 0.0,
			"0.019": 0.0,
			"0.02": 0.0,
			"0.021": 0.0,
			"0.022": 0.0,
			"0.023": 0.0,
			"0.024": 0.0,
			"0.025": 0.0
		}
	}
}
