{
	 "smiles": "COC1=CC=C(Br)C=C1[N+]([O-])=O", 
	 "Tm": 360.65, 
	 "num_atms": 18, 
	 "gaussian": { 
		 "optdone": 1, 
		 "sigma_profile": "yes", 
		 "theory": "DFT", 
		 "functional": "B3LYP", 
		 "basiset": "6-31G**", 
		 "properties": { 
			 "R2extent": 3825.2545, 
			 "electric_dipole_moment_norm": 5.47035360923, 
			 "electric_quadrupole_moment_norm": 14.6613192323, 
			 "total_energy": -3122.06229235, 
			 "HOMO_LUMO_gap": 0.15777, 
			 "cosmo_polarized_energy": -11.62, 
			 "cosmo_cavitation_energy": 25.49, 
			 "cosmo_dispersion_energy": -19.13, 
			 "cosmo_repulsion_energy": 1.53, 
			 "cosmo_total_nonelectrostatic_energy": 7.89, 
			 "SMD_solvation_energy": 6.38 
		},
		"coords": [
			{
				"x": -3.0073404604,
				"y": -2.1277088799,
				"z": -0.9691863,
				"element": "C" 
			},
			{
				"x": -2.4246003254,
				"y": -1.5415712626,
				"z": 0.1906726771,
				"element": "O" 
			},
			{
				"x": -1.1087050005,
				"y": -1.2590576607,
				"z": 0.1876544479,
				"element": "C" 
			},
			{
				"x": -0.2568206169,
				"y": -1.5230143045,
				"z": -0.8984146966,
				"element": "C" 
			},
			{
				"x": 1.0921642615,
				"y": -1.1810508205,
				"z": -0.8612488578,
				"element": "C" 
			},
			{
				"x": 1.6212757789,
				"y": -0.5490344215,
				"z": 0.2627414166,
				"element": "C" 
			},
			{
				"x": 3.4674706333,
				"y": -0.0766358792,
				"z": 0.3089879946,
				"element": "Br" 
			},
			{
				"x": 0.8061132788,
				"y": -0.2622742355,
				"z": 1.3488795723,
				"element": "C" 
			},
			{
				"x": -0.5395418539,
				"y": -0.6255864369,
				"z": 1.3182491286,
				"element": "C" 
			},
			{
				"x": -1.3255384603,
				"y": -0.3179237803,
				"z": 2.5227382801,
				"element": "N" 
			},
			{
				"x": -2.3170929522,
				"y": -0.9998369214,
				"z": 2.7615346933,
				"element": "O" 
			},
			{
				"x": -0.9145979934,
				"y": 0.600828885,
				"z": 3.2353406069,
				"element": "O" 
			},
			{
				"x": -2.5701486161,
				"y": -3.109845404,
				"z": -1.1842001967,
				"element": "H" 
			},
			{
				"x": -2.899954339,
				"y": -1.4774689546,
				"z": -1.8456013754,
				"element": "H" 
			},
			{
				"x": -4.0645182165,
				"y": -2.2472505746,
				"z": -0.7327458039,
				"element": "H" 
			},
			{
				"x": -0.6483375814,
				"y": -2.0008185206,
				"z": -1.7873193649,
				"element": "H" 
			},
			{
				"x": 1.7281568477,
				"y": -1.4034796567,
				"z": -1.7106179111,
				"element": "H" 
			},
			{
				"x": 1.1845156159,
				"y": 0.2399288285,
				"z": 2.229235689,
				"element": "H" 
			}
		],
		 "valence_orbital": [ 
			{
				"type": "occ",
				"energy": -0.30364,
				"method": "rhf"
			},
			{
				"type": "occ",
				"energy": -0.29954,
				"method": "rhf"
			},
			{
				"type": "occ",
				"energy": -0.29432,
				"method": "rhf"
			},
			{
				"type": "occ",
				"energy": -0.27895,
				"method": "rhf"
			},
			{
				"type": "occ",
				"energy": -0.24324,
				"method": "rhf"
			},
			{
				"type": "unocc",
				"energy": -0.08547,
				"method": "rhf"
			},
			{
				"type": "unocc",
				"energy": -0.02613,
				"method": "rhf"
			},
			{
				"type": "unocc",
				"energy": -0.01256,
				"method": "rhf"
			},
			{
				"type": "unocc",
				"energy": -0.00441,
				"method": "rhf"
			},
			{
				"type": "unocc",
				"energy": 0.07355,
				"method": "rhf"
			}
		],
		"cosmo_sigma_profile": { 
			"-0.025": 0.0,
			"-0.024": 0.0,
			"-0.023": 0.0,
			"-0.022": 0.0,
			"-0.021": 0.0,
			"-0.02": 0.0,
			"-0.019": 0.0,
			"-0.018": 0.0,
			"-0.017": 0.0,
			"-0.016": 0.0,
			"-0.015": 0.0,
			"-0.014": 0.0,
			"-0.013": 0.0,
			"-0.012": 0.0,
			"-0.011": 0.0,
			"-0.01": 0.0,
			"-0.009": 0.961022173647,
			"-0.008": 5.82214171238,
			"-0.007": 10.5229366234,
			"-0.006": 14.2597918683,
			"-0.005": 14.6156939983,
			"-0.004": 15.2536402672,
			"-0.003": 11.5920655042,
			"-0.002": 11.1215487565,
			"-0.001": 15.3703315645,
			"0.0": 18.0109180757,
			"0.001": 17.1165101587,
			"0.002": 12.5154103009,
			"0.003": 8.93388201006,
			"0.004": 14.1822691095,
			"0.005": 4.85149204608,
			"0.006": 2.90632869173,
			"0.007": 7.09356659936,
			"0.008": 9.83233208696,
			"0.009": 6.44309307703,
			"0.01": 4.30333232273,
			"0.011": 1.54643053699,
			"0.012": 0.537565317312,
			"0.013": 0.000594286510078,
			"0.014": 0.0,
			"0.015": 0.0,
			"0.016": 0.0,
			"0.017": 0.0,
			"0.018": 0.0,
			"0.019": 0.0,
			"0.02": 0.0,
			"0.021": 0.0,
			"0.022": 0.0,
			"0.023": 0.0,
			"0.024": 0.0,
			"0.025": 0.0
		}
	}
}
