{
	 "smiles": "CNCCCOC1=CC=C(C=C1)S(C)(=O)=O", 
	 "Tm": 317.15, 
	 "num_atms": 33, 
	 "gaussian": { 
		 "optdone": 1, 
		 "sigma_profile": "yes", 
		 "theory": "DFT", 
		 "functional": "B3LYP", 
		 "basiset": "6-31G**", 
		 "properties": { 
			 "R2extent": 6292.1114, 
			 "electric_dipole_moment_norm": 6.79857425936, 
			 "electric_quadrupole_moment_norm": 29.3378318674, 
			 "total_energy": -1107.95043793, 
			 "HOMO_LUMO_gap": 0.20954, 
			 "cosmo_polarized_energy": -17.35, 
			 "cosmo_cavitation_energy": 36.92, 
			 "cosmo_dispersion_energy": -26.41, 
			 "cosmo_repulsion_energy": 2.04, 
			 "cosmo_total_nonelectrostatic_energy": 12.55, 
			 "SMD_solvation_energy": 5.23 
		},
		"coords": [
			{
				"x": -4.7347667738,
				"y": 1.3732548211,
				"z": 0.7984198539,
				"element": "C" 
			},
			{
				"x": -4.4877369346,
				"y": 0.1039796876,
				"z": 1.4808719882,
				"element": "N" 
			},
			{
				"x": -4.8665499989,
				"y": -1.0762436546,
				"z": 0.6955636703,
				"element": "C" 
			},
			{
				"x": -3.7349874405,
				"y": -1.5073211564,
				"z": -0.2490787029,
				"element": "C" 
			},
			{
				"x": -2.5475285073,
				"y": -2.0806384065,
				"z": 0.5284624267,
				"element": "C" 
			},
			{
				"x": -1.3619327595,
				"y": -2.1844128822,
				"z": -0.2713178293,
				"element": "O" 
			},
			{
				"x": -0.591774311,
				"y": -1.0841593748,
				"z": -0.4692110894,
				"element": "C" 
			},
			{
				"x": -0.8314455839,
				"y": 0.1778767663,
				"z": 0.1009146202,
				"element": "C" 
			},
			{
				"x": 0.0461216839,
				"y": 1.2285858358,
				"z": -0.1651530655,
				"element": "C" 
			},
			{
				"x": 1.1514541434,
				"y": 1.026827796,
				"z": -0.9910319357,
				"element": "C" 
			},
			{
				"x": 1.3863855456,
				"y": -0.2243067457,
				"z": -1.5747626884,
				"element": "C" 
			},
			{
				"x": 0.5187954293,
				"y": -1.2736630471,
				"z": -1.3122094319,
				"element": "C" 
			},
			{
				"x": 2.2704415306,
				"y": 2.3843996764,
				"z": -1.3195612998,
				"element": "S" 
			},
			{
				"x": 3.5355021147,
				"y": 2.2300189444,
				"z": -0.0336944797,
				"element": "C" 
			},
			{
				"x": 1.549111884,
				"y": 3.6434447743,
				"z": -1.0690308886,
				"element": "O" 
			},
			{
				"x": 2.9320923863,
				"y": 2.131404638,
				"z": -2.6101647082,
				"element": "O" 
			},
			{
				"x": -4.4979337397,
				"y": 2.2014432648,
				"z": 1.4726840041,
				"element": "H" 
			},
			{
				"x": -5.7749191733,
				"y": 1.4968553727,
				"z": 0.4480898656,
				"element": "H" 
			},
			{
				"x": -4.0800117379,
				"y": 1.4673113306,
				"z": -0.0738407298,
				"element": "H" 
			},
			{
				"x": -4.9952858719,
				"y": 0.0997510681,
				"z": 2.3599628647,
				"element": "H" 
			},
			{
				"x": -5.0850343448,
				"y": -1.8941629589,
				"z": 1.3940675645,
				"element": "H" 
			},
			{
				"x": -5.7882034881,
				"y": -0.910031203,
				"z": 0.1104087522,
				"element": "H" 
			},
			{
				"x": -3.4044519431,
				"y": -0.6460729188,
				"z": -0.8395631589,
				"element": "H" 
			},
			{
				"x": -4.1040230325,
				"y": -2.2519028142,
				"z": -0.9632409764,
				"element": "H" 
			},
			{
				"x": -2.7555450398,
				"y": -3.10758099,
				"z": 0.8429428572,
				"element": "H" 
			},
			{
				"x": -2.3551723704,
				"y": -1.4854050256,
				"z": 1.4266782004,
				"element": "H" 
			},
			{
				"x": -1.6936672726,
				"y": 0.3518249266,
				"z": 0.7342190877,
				"element": "H" 
			},
			{
				"x": -0.1384137213,
				"y": 2.2139319191,
				"z": 0.2501831312,
				"element": "H" 
			},
			{
				"x": 2.230725385,
				"y": -0.3572606548,
				"z": -2.243063264,
				"element": "H" 
			},
			{
				"x": 0.6701309691,
				"y": -2.2536109021,
				"z": -1.7522409166,
				"element": "H" 
			},
			{
				"x": 4.244863465,
				"y": 3.0430838173,
				"z": -0.2016065252,
				"element": "H" 
			},
			{
				"x": 3.0661643036,
				"y": 2.330782494,
				"z": 0.9458228085,
				"element": "H" 
			},
			{
				"x": 4.0335952043,
				"y": 1.264695602,
				"z": -0.1337200053,
				"element": "H" 
			}
		],
		 "valence_orbital": [ 
			{
				"type": "occ",
				"energy": -0.28473,
				"method": "rhf"
			},
			{
				"type": "occ",
				"energy": -0.27726,
				"method": "rhf"
			},
			{
				"type": "occ",
				"energy": -0.26573,
				"method": "rhf"
			},
			{
				"type": "occ",
				"energy": -0.24046,
				"method": "rhf"
			},
			{
				"type": "occ",
				"energy": -0.23115,
				"method": "rhf"
			},
			{
				"type": "unocc",
				"energy": -0.02161,
				"method": "rhf"
			},
			{
				"type": "unocc",
				"energy": -0.01582,
				"method": "rhf"
			},
			{
				"type": "unocc",
				"energy": 0.06287,
				"method": "rhf"
			},
			{
				"type": "unocc",
				"energy": 0.07829,
				"method": "rhf"
			},
			{
				"type": "unocc",
				"energy": 0.09037,
				"method": "rhf"
			}
		],
		"cosmo_sigma_profile": { 
			"-0.025": 0.0,
			"-0.024": 0.0,
			"-0.023": 0.0,
			"-0.022": 0.0,
			"-0.021": 0.0,
			"-0.02": 0.0,
			"-0.019": 0.0,
			"-0.018": 0.0,
			"-0.017": 0.0,
			"-0.016": 0.0,
			"-0.015": 0.0,
			"-0.014": 0.0,
			"-0.013": 0.0,
			"-0.012": 0.0,
			"-0.011": 0.0684087904682,
			"-0.01": 1.03593639134,
			"-0.009": 2.40039699903,
			"-0.008": 6.58077311666,
			"-0.007": 10.5003019455,
			"-0.006": 12.5778698138,
			"-0.005": 17.1136931414,
			"-0.004": 25.4649743353,
			"-0.003": 27.4479352901,
			"-0.002": 30.7266078916,
			"-0.001": 29.6092602416,
			"0.0": 23.4291004037,
			"0.001": 12.771922951,
			"0.002": 16.9614657952,
			"0.003": 16.7999719709,
			"0.004": 6.49911828106,
			"0.005": 5.36238518728,
			"0.006": 5.427699298,
			"0.007": 3.87493165848,
			"0.008": 3.78643546234,
			"0.009": 5.89407614864,
			"0.01": 4.91188606141,
			"0.011": 8.36475941502,
			"0.012": 10.1505809836,
			"0.013": 2.92853844249,
			"0.014": 0.0,
			"0.015": 0.0,
			"0.016": 0.0,
			"0.017": 0.0,
			"0.018": 0.0,
			"0.019": 0.0,
			"0.02": 0.0,
			"0.021": 0.0,
			"0.022": 0.0,
			"0.023": 0.0,
			"0.024": 0.0,
			"0.025": 0.0
		}
	}
}
