{
	 "smiles": "CCC1=CC=C(CC2=CC=CC=C2)C=C1", 
	 "Tm": 249.15, 
	 "num_atms": 31, 
	 "gaussian": { 
		 "optdone": 1, 
		 "sigma_profile": "yes", 
		 "theory": "DFT", 
		 "functional": "B3LYP", 
		 "basiset": "6-31G**", 
		 "properties": { 
			 "R2extent": 5023.3825, 
			 "electric_dipole_moment_norm": 0.284780652433, 
			 "electric_quadrupole_moment_norm": 3.40011193345, 
			 "total_energy": -581.258609461, 
			 "HOMO_LUMO_gap": 0.2239, 
			 "cosmo_polarized_energy": -5.38, 
			 "cosmo_cavitation_energy": 34.07, 
			 "cosmo_dispersion_energy": -23.87, 
			 "cosmo_repulsion_energy": 1.9, 
			 "cosmo_total_nonelectrostatic_energy": 12.09, 
			 "SMD_solvation_energy": 5.42 
		},
		"coords": [
			{
				"x": -2.679499385,
				"y": -0.2375810448,
				"z": -3.5981453748,
				"element": "C" 
			},
			{
				"x": -3.5948810609,
				"y": 0.3052681243,
				"z": -2.4858210319,
				"element": "C" 
			},
			{
				"x": -2.9997513942,
				"y": 0.146853305,
				"z": -1.1025484178,
				"element": "C" 
			},
			{
				"x": -2.1514650371,
				"y": 1.1260470552,
				"z": -0.5642069433,
				"element": "C" 
			},
			{
				"x": -1.5701249528,
				"y": 0.9663953837,
				"z": 0.6910890727,
				"element": "C" 
			},
			{
				"x": -1.8189850508,
				"y": -0.1797928871,
				"z": 1.4598461264,
				"element": "C" 
			},
			{
				"x": -1.2068847437,
				"y": -0.3405886022,
				"z": 2.8418001873,
				"element": "C" 
			},
			{
				"x": 0.3105422244,
				"y": -0.2504997429,
				"z": 2.8779902288,
				"element": "C" 
			},
			{
				"x": 1.0970259335,
				"y": -1.1048155002,
				"z": 2.0907844963,
				"element": "C" 
			},
			{
				"x": 2.4884734683,
				"y": -1.0406606114,
				"z": 2.1385072073,
				"element": "C" 
			},
			{
				"x": 3.1220126889,
				"y": -0.115974295,
				"z": 2.9735972528,
				"element": "C" 
			},
			{
				"x": 2.3514789257,
				"y": 0.7413430124,
				"z": 3.7582644176,
				"element": "C" 
			},
			{
				"x": 0.956645439,
				"y": 0.6723216829,
				"z": 3.7085497101,
				"element": "C" 
			},
			{
				"x": -2.6645782962,
				"y": -1.157366223,
				"z": 0.9251309453,
				"element": "C" 
			},
			{
				"x": -3.2456517118,
				"y": -0.996518086,
				"z": -0.3345178156,
				"element": "C" 
			},
			{
				"x": -3.1380335786,
				"y": -0.1059936156,
				"z": -4.5840605236,
				"element": "H" 
			},
			{
				"x": -2.4805319984,
				"y": -1.3047275872,
				"z": -3.4552716803,
				"element": "H" 
			},
			{
				"x": -1.7151471002,
				"y": 0.2808813671,
				"z": -3.5999900837,
				"element": "H" 
			},
			{
				"x": -4.560848659,
				"y": -0.2120556748,
				"z": -2.5298290868,
				"element": "H" 
			},
			{
				"x": -3.8015023523,
				"y": 1.3655683638,
				"z": -2.67590495,
				"element": "H" 
			},
			{
				"x": -1.9470922651,
				"y": 2.0278098143,
				"z": -1.137466053,
				"element": "H" 
			},
			{
				"x": -0.912112395,
				"y": 1.738689097,
				"z": 1.0815217927,
				"element": "H" 
			},
			{
				"x": -1.522405408,
				"y": -1.3073921854,
				"z": 3.254105571,
				"element": "H" 
			},
			{
				"x": -1.6190712726,
				"y": 0.4221905697,
				"z": 3.5144841058,
				"element": "H" 
			},
			{
				"x": 0.610642318,
				"y": -1.8191615944,
				"z": 1.4314837945,
				"element": "H" 
			},
			{
				"x": 3.0806394868,
				"y": -1.7118384148,
				"z": 1.5223833337,
				"element": "H" 
			},
			{
				"x": 4.2065005264,
				"y": -0.0648575037,
				"z": 3.0095077281,
				"element": "H" 
			},
			{
				"x": 2.8328283515,
				"y": 1.4659177715,
				"z": 4.4093839081,
				"element": "H" 
			},
			{
				"x": 0.3620953801,
				"y": 1.3423528453,
				"z": 4.3253065895,
				"element": "H" 
			},
			{
				"x": -2.8785926589,
				"y": -2.0534853097,
				"z": 1.5033004442,
				"element": "H" 
			},
			{
				"x": -3.9025254218,
				"y": -1.7714295138,
				"z": -0.7236749516,
				"element": "H" 
			}
		],
		 "valence_orbital": [ 
			{
				"type": "occ",
				"energy": -0.32073,
				"method": "rhf"
			},
			{
				"type": "occ",
				"energy": -0.24614,
				"method": "rhf"
			},
			{
				"type": "occ",
				"energy": -0.24418,
				"method": "rhf"
			},
			{
				"type": "occ",
				"energy": -0.24048,
				"method": "rhf"
			},
			{
				"type": "occ",
				"energy": -0.22537,
				"method": "rhf"
			},
			{
				"type": "unocc",
				"energy": -0.00147,
				"method": "rhf"
			},
			{
				"type": "unocc",
				"energy": 0.00105,
				"method": "rhf"
			},
			{
				"type": "unocc",
				"energy": 0.00199,
				"method": "rhf"
			},
			{
				"type": "unocc",
				"energy": 0.01377,
				"method": "rhf"
			},
			{
				"type": "unocc",
				"energy": 0.09745,
				"method": "rhf"
			}
		],
		"cosmo_sigma_profile": { 
			"-0.025": 0.0,
			"-0.024": 0.0,
			"-0.023": 0.0,
			"-0.022": 0.0,
			"-0.021": 0.0,
			"-0.02": 0.0,
			"-0.019": 0.0,
			"-0.018": 0.0,
			"-0.017": 0.0,
			"-0.016": 0.0,
			"-0.015": 0.0,
			"-0.014": 0.0,
			"-0.013": 0.0,
			"-0.012": 0.0,
			"-0.011": 0.0,
			"-0.01": 0.0,
			"-0.009": 0.0,
			"-0.008": 0.0,
			"-0.007": 0.0,
			"-0.006": 1.42654219565,
			"-0.005": 17.2694485454,
			"-0.004": 23.2670131742,
			"-0.003": 33.89081794,
			"-0.002": 29.8055068812,
			"-0.001": 31.2067431041,
			"0.0": 24.5899676842,
			"0.001": 24.3997647892,
			"0.002": 16.5178638113,
			"0.003": 13.3583511444,
			"0.004": 15.3251582333,
			"0.005": 16.4921781441,
			"0.006": 15.4981001906,
			"0.007": 6.47714641312,
			"0.008": 0.0206644631144,
			"0.009": 0.0,
			"0.01": 0.0,
			"0.011": 0.0,
			"0.012": 0.0,
			"0.013": 0.0,
			"0.014": 0.0,
			"0.015": 0.0,
			"0.016": 0.0,
			"0.017": 0.0,
			"0.018": 0.0,
			"0.019": 0.0,
			"0.02": 0.0,
			"0.021": 0.0,
			"0.022": 0.0,
			"0.023": 0.0,
			"0.024": 0.0,
			"0.025": 0.0
		}
	}
}
