{
	 "smiles": "O=C(CNC1=CC=CC=C1)C1=CC=C(C=C1)C(=O)CNC1=CC=CC=C1", 
	 "Tm": 473.15, 
	 "num_atms": 46, 
	 "gaussian": { 
		 "optdone": 1, 
		 "sigma_profile": "yes", 
		 "theory": "DFT", 
		 "functional": "B3LYP", 
		 "basiset": "6-31G**", 
		 "properties": { 
			 "R2extent": 18657.9495, 
			 "electric_dipole_moment_norm": 2.67688120581, 
			 "electric_quadrupole_moment_norm": 11.257642151, 
			 "total_energy": -1110.34107567, 
			 "HOMO_LUMO_gap": 0.09544, 
			 "cosmo_polarized_energy": -18.54, 
			 "cosmo_cavitation_energy": 50.93, 
			 "cosmo_dispersion_energy": -36.18, 
			 "cosmo_repulsion_energy": 2.7, 
			 "cosmo_total_nonelectrostatic_energy": 17.45, 
			 "SMD_solvation_energy": 7.96 
		},
		"coords": [
			{
				"x": -0.4328737995,
				"y": 3.6054755289,
				"z": -2.5708624878,
				"element": "O" 
			},
			{
				"x": -0.4805663031,
				"y": 2.6302692134,
				"z": -1.8352623949,
				"element": "C" 
			},
			{
				"x": -1.2423939425,
				"y": 2.7067312974,
				"z": -0.5138868712,
				"element": "C" 
			},
			{
				"x": -1.7147165481,
				"y": 4.0422198376,
				"z": -0.3005881305,
				"element": "N" 
			},
			{
				"x": -2.7013763989,
				"y": 4.3595787393,
				"z": 0.6190605548,
				"element": "C" 
			},
			{
				"x": -3.3180573955,
				"y": 5.6269159894,
				"z": 0.5642220332,
				"element": "C" 
			},
			{
				"x": -4.2928205853,
				"y": 5.9812536264,
				"z": 1.4890870575,
				"element": "C" 
			},
			{
				"x": -4.685151786,
				"y": 5.0905934283,
				"z": 2.4942036423,
				"element": "C" 
			},
			{
				"x": -4.0780316604,
				"y": 3.8372530302,
				"z": 2.5545238808,
				"element": "C" 
			},
			{
				"x": -3.0973459271,
				"y": 3.4665863366,
				"z": 1.6328135443,
				"element": "C" 
			},
			{
				"x": 0.1874782303,
				"y": 1.3457402078,
				"z": -2.2118789977,
				"element": "C" 
			},
			{
				"x": 0.1302998154,
				"y": 0.1959791308,
				"z": -1.4096943381,
				"element": "C" 
			},
			{
				"x": 0.7640749848,
				"y": -0.9777030075,
				"z": -1.8111013075,
				"element": "C" 
			},
			{
				"x": 1.4715499453,
				"y": -1.0186123952,
				"z": -3.0226837985,
				"element": "C" 
			},
			{
				"x": 1.5272612335,
				"y": 0.1337873553,
				"z": -3.8258473545,
				"element": "C" 
			},
			{
				"x": 0.8921271394,
				"y": 1.3004829495,
				"z": -3.4269825302,
				"element": "C" 
			},
			{
				"x": 2.2070152226,
				"y": -2.2367450925,
				"z": -3.4978154618,
				"element": "C" 
			},
			{
				"x": 2.8342171173,
				"y": -2.2183367474,
				"z": -4.544970625,
				"element": "O" 
			},
			{
				"x": 2.2067511757,
				"y": -3.5110031166,
				"z": -2.6458732691,
				"element": "C" 
			},
			{
				"x": 0.8618665685,
				"y": -4.0322891059,
				"z": -2.4612245633,
				"element": "N" 
			},
			{
				"x": 0.6344393617,
				"y": -5.1728513239,
				"z": -1.675161189,
				"element": "C" 
			},
			{
				"x": -0.6129420983,
				"y": -5.820078187,
				"z": -1.7666340923,
				"element": "C" 
			},
			{
				"x": -0.8987759797,
				"y": -6.9247563443,
				"z": -0.9725512127,
				"element": "C" 
			},
			{
				"x": 0.045613083,
				"y": -7.4132496291,
				"z": -0.0640815659,
				"element": "C" 
			},
			{
				"x": 1.2824147334,
				"y": -6.7779287994,
				"z": 0.0278769107,
				"element": "C" 
			},
			{
				"x": 1.5852062472,
				"y": -5.6719404784,
				"z": -0.7697649575,
				"element": "C" 
			},
			{
				"x": -2.0617225193,
				"y": 1.9653324843,
				"z": -0.5559150481,
				"element": "H" 
			},
			{
				"x": -0.5749455469,
				"y": 2.3708445082,
				"z": 0.2957615186,
				"element": "H" 
			},
			{
				"x": -1.6165922444,
				"y": 4.6354566499,
				"z": -1.1147174042,
				"element": "H" 
			},
			{
				"x": -3.0207745235,
				"y": 6.3273941849,
				"z": -0.2126331318,
				"element": "H" 
			},
			{
				"x": -4.7533752585,
				"y": 6.9633760231,
				"z": 1.4226878695,
				"element": "H" 
			},
			{
				"x": -5.4474821723,
				"y": 5.3712259837,
				"z": 3.2140216916,
				"element": "H" 
			},
			{
				"x": -4.3663681349,
				"y": 3.1308317809,
				"z": 3.3285884957,
				"element": "H" 
			},
			{
				"x": -2.634708995,
				"y": 2.4881110989,
				"z": 1.7109381485,
				"element": "H" 
			},
			{
				"x": -0.4117460508,
				"y": 0.2032834734,
				"z": -0.4698468336,
				"element": "H" 
			},
			{
				"x": 0.6876699169,
				"y": -1.8669547988,
				"z": -1.196723592,
				"element": "H" 
			},
			{
				"x": 2.0811103418,
				"y": 0.0851621612,
				"z": -4.7571748571,
				"element": "H" 
			},
			{
				"x": 0.9258258795,
				"y": 2.1968841959,
				"z": -4.036614101,
				"element": "H" 
			},
			{
				"x": 2.6271331953,
				"y": -3.2600922462,
				"z": -1.6629954295,
				"element": "H" 
			},
			{
				"x": 2.8931925142,
				"y": -4.2178249099,
				"z": -3.1331054552,
				"element": "H" 
			},
			{
				"x": 0.312865445,
				"y": -4.0298666163,
				"z": -3.3118351853,
				"element": "H" 
			},
			{
				"x": -1.3580379163,
				"y": -5.4418781039,
				"z": -2.4630178554,
				"element": "H" 
			},
			{
				"x": -1.86791486,
				"y": -7.407427436,
				"z": -1.0637266896,
				"element": "H" 
			},
			{
				"x": -0.1798269299,
				"y": -8.2753810391,
				"z": 0.5554730151,
				"element": "H" 
			},
			{
				"x": 2.0329528417,
				"y": -7.1472419807,
				"z": 0.7213866232,
				"element": "H" 
			},
			{
				"x": 2.5630825836,
				"y": -5.2107078574,
				"z": -0.6862742555,
				"element": "H" 
			}
		],
		 "valence_orbital": [ 
			{
				"type": "occ",
				"energy": -0.26893,
				"method": "rhf"
			},
			{
				"type": "occ",
				"energy": -0.25303,
				"method": "rhf"
			},
			{
				"type": "occ",
				"energy": -0.24093,
				"method": "rhf"
			},
			{
				"type": "occ",
				"energy": -0.21003,
				"method": "rhf"
			},
			{
				"type": "occ",
				"energy": -0.19199,
				"method": "rhf"
			},
			{
				"type": "unocc",
				"energy": -0.09655,
				"method": "rhf"
			},
			{
				"type": "unocc",
				"energy": -0.03288,
				"method": "rhf"
			},
			{
				"type": "unocc",
				"energy": -0.02639,
				"method": "rhf"
			},
			{
				"type": "unocc",
				"energy": -0.00434,
				"method": "rhf"
			},
			{
				"type": "unocc",
				"energy": 0.00856,
				"method": "rhf"
			}
		],
		"cosmo_sigma_profile": { 
			"-0.025": 0.0,
			"-0.024": 0.0,
			"-0.023": 0.0,
			"-0.022": 0.0,
			"-0.021": 0.0,
			"-0.02": 0.0,
			"-0.019": 0.0,
			"-0.018": 0.0,
			"-0.017": 0.0,
			"-0.016": 0.0,
			"-0.015": 0.0,
			"-0.014": 0.179304842593,
			"-0.013": 1.00545006954,
			"-0.012": 1.66400802174,
			"-0.011": 1.19285979095,
			"-0.01": 1.82469777508,
			"-0.009": 2.64390190665,
			"-0.008": 6.24174859259,
			"-0.007": 15.4337286013,
			"-0.006": 22.9109798527,
			"-0.005": 29.2256583677,
			"-0.004": 30.8735964961,
			"-0.003": 33.1489578168,
			"-0.002": 27.9492416608,
			"-0.001": 24.5131680749,
			"0.0": 25.104098709,
			"0.001": 25.2478931595,
			"0.002": 31.8465540856,
			"0.003": 20.7112749379,
			"0.004": 18.1431714788,
			"0.005": 21.0649568027,
			"0.006": 21.3556057274,
			"0.007": 19.988150775,
			"0.008": 7.40753067754,
			"0.009": 4.25722500095,
			"0.01": 6.13555926674,
			"0.011": 5.08035426809,
			"0.012": 1.57243403639,
			"0.013": 0.0999403572004,
			"0.014": 0.0,
			"0.015": 0.0,
			"0.016": 0.0,
			"0.017": 0.0,
			"0.018": 0.0,
			"0.019": 0.0,
			"0.02": 0.0,
			"0.021": 0.0,
			"0.022": 0.0,
			"0.023": 0.0,
			"0.024": 0.0,
			"0.025": 0.0
		}
	}
}
