{
	 "smiles": "CCOC(=O)C1=CC=CC(O)=C1", 
	 "Tm": 347.15, 
	 "num_atms": 22, 
	 "gaussian": { 
		 "optdone": 1, 
		 "sigma_profile": "yes", 
		 "theory": "DFT", 
		 "functional": "B3LYP", 
		 "basiset": "6-31G**", 
		 "properties": { 
			 "R2extent": 3420.4248, 
			 "electric_dipole_moment_norm": 2.38207066856, 
			 "electric_quadrupole_moment_norm": 10.5781760006, 
			 "total_energy": -574.671861122, 
			 "HOMO_LUMO_gap": 0.18467, 
			 "cosmo_polarized_energy": -11.15, 
			 "cosmo_cavitation_energy": 26.35, 
			 "cosmo_dispersion_energy": -19.33, 
			 "cosmo_repulsion_energy": 1.56, 
			 "cosmo_total_nonelectrostatic_energy": 8.58, 
			 "SMD_solvation_energy": 6.02 
		},
		"coords": [
			{
				"x": -1.8988345093,
				"y": -2.0718756965,
				"z": -2.4990188597,
				"element": "C" 
			},
			{
				"x": -2.9374186593,
				"y": -1.1326259318,
				"z": -1.9040181197,
				"element": "C" 
			},
			{
				"x": -2.313030398,
				"y": -0.0351097578,
				"z": -1.1975236089,
				"element": "O" 
			},
			{
				"x": -1.966484253,
				"y": -0.2673261992,
				"z": 0.0912131219,
				"element": "C" 
			},
			{
				"x": -2.1604225914,
				"y": -1.3263020649,
				"z": 0.6574063277,
				"element": "O" 
			},
			{
				"x": -1.3290531369,
				"y": 0.9201309231,
				"z": 0.7305747439,
				"element": "C" 
			},
			{
				"x": -0.9309335414,
				"y": 0.8092976202,
				"z": 2.0675825156,
				"element": "C" 
			},
			{
				"x": -0.3320805343,
				"y": 1.9004280256,
				"z": 2.6966973565,
				"element": "C" 
			},
			{
				"x": -0.1271225469,
				"y": 3.0942050102,
				"z": 2.0081706809,
				"element": "C" 
			},
			{
				"x": -0.5264213214,
				"y": 3.2015026512,
				"z": 0.6697470972,
				"element": "C" 
			},
			{
				"x": -0.3015118441,
				"y": 4.3942412674,
				"z": 0.0429779243,
				"element": "O" 
			},
			{
				"x": -1.1272211201,
				"y": 2.1165241101,
				"z": 0.0290785117,
				"element": "C" 
			},
			{
				"x": -1.2108949651,
				"y": -1.528901051,
				"z": -3.1539202161,
				"element": "H" 
			},
			{
				"x": -2.3958853942,
				"y": -2.8481550066,
				"z": -3.0903921524,
				"element": "H" 
			},
			{
				"x": -1.3247611736,
				"y": -2.5589133201,
				"z": -1.7072501906,
				"element": "H" 
			},
			{
				"x": -3.5339210313,
				"y": -0.6499632501,
				"z": -2.6821330228,
				"element": "H" 
			},
			{
				"x": -3.5987898552,
				"y": -1.6631566017,
				"z": -1.2151257708,
				"element": "H" 
			},
			{
				"x": -1.098218622,
				"y": -0.1268076782,
				"z": 2.5874562001,
				"element": "H" 
			},
			{
				"x": -0.0204631977,
				"y": 1.8230867681,
				"z": 3.7341053455,
				"element": "H" 
			},
			{
				"x": 0.3376970722,
				"y": 3.9511998907,
				"z": 2.4845455192,
				"element": "H" 
			},
			{
				"x": -0.6205167714,
				"y": 4.3387814733,
				"z": -0.8671736803,
				"element": "H" 
			},
			{
				"x": -1.4399116059,
				"y": 2.189938818,
				"z": -1.0079997233,
				"element": "H" 
			}
		],
		 "valence_orbital": [ 
			{
				"type": "occ",
				"energy": -0.33498,
				"method": "rhf"
			},
			{
				"type": "occ",
				"energy": -0.29754,
				"method": "rhf"
			},
			{
				"type": "occ",
				"energy": -0.27174,
				"method": "rhf"
			},
			{
				"type": "occ",
				"energy": -0.25973,
				"method": "rhf"
			},
			{
				"type": "occ",
				"energy": -0.22855,
				"method": "rhf"
			},
			{
				"type": "unocc",
				"energy": -0.04388,
				"method": "rhf"
			},
			{
				"type": "unocc",
				"energy": 0.00421,
				"method": "rhf"
			},
			{
				"type": "unocc",
				"energy": 0.06459,
				"method": "rhf"
			},
			{
				"type": "unocc",
				"energy": 0.06703,
				"method": "rhf"
			},
			{
				"type": "unocc",
				"energy": 0.09829,
				"method": "rhf"
			}
		],
		"cosmo_sigma_profile": { 
			"-0.025": 0.0,
			"-0.024": 0.0,
			"-0.023": 0.0,
			"-0.022": 0.0,
			"-0.021": 0.0,
			"-0.02": 0.0,
			"-0.019": 0.00405502989318,
			"-0.018": 0.719243477538,
			"-0.017": 1.13846136948,
			"-0.016": 1.28167980274,
			"-0.015": 1.14173932302,
			"-0.014": 0.600837306611,
			"-0.013": 0.948964771923,
			"-0.012": 0.725861912914,
			"-0.011": 1.54474829766,
			"-0.01": 0.989797316201,
			"-0.009": 0.738275352769,
			"-0.008": 0.940382797248,
			"-0.007": 2.29502867464,
			"-0.006": 6.80228051791,
			"-0.005": 11.1397601869,
			"-0.004": 16.9129603861,
			"-0.003": 17.4908451805,
			"-0.002": 15.6440963919,
			"-0.001": 16.2590150799,
			"0.0": 18.0679996466,
			"0.001": 13.6593457921,
			"0.002": 15.8548147293,
			"0.003": 18.0290202905,
			"0.004": 14.5528358955,
			"0.005": 6.80680857145,
			"0.006": 4.37682381379,
			"0.007": 2.95228957505,
			"0.008": 2.34779104646,
			"0.009": 2.86056406291,
			"0.01": 3.66392459368,
			"0.011": 4.09514266902,
			"0.012": 4.28160028756,
			"0.013": 0.270476928052,
			"0.014": 0.0,
			"0.015": 0.0,
			"0.016": 0.0,
			"0.017": 0.0,
			"0.018": 0.0,
			"0.019": 0.0,
			"0.02": 0.0,
			"0.021": 0.0,
			"0.022": 0.0,
			"0.023": 0.0,
			"0.024": 0.0,
			"0.025": 0.0
		}
	}
}
