{
	 "smiles": "CC1=CC=C2C(=O)CC2=C1", 
	 "Tm": 326.15, 
	 "num_atms": 18, 
	 "gaussian": { 
		 "optdone": 1, 
		 "sigma_profile": "yes", 
		 "theory": "DFT", 
		 "functional": "B3LYP", 
		 "basiset": "6-31G**", 
		 "properties": { 
			 "R2extent": 1870.1109, 
			 "electric_dipole_moment_norm": 4.06286906754, 
			 "electric_quadrupole_moment_norm": 4.42140123943, 
			 "total_energy": -422.968637389, 
			 "HOMO_LUMO_gap": 0.1902, 
			 "cosmo_polarized_energy": -7.56, 
			 "cosmo_cavitation_energy": 22.08, 
			 "cosmo_dispersion_energy": -16.32, 
			 "cosmo_repulsion_energy": 1.34, 
			 "cosmo_total_nonelectrostatic_energy": 7.11, 
			 "SMD_solvation_energy": 4.28 
		},
		"coords": [
			{
				"x": -2.4596460202,
				"y": -1.0156340356,
				"z": -3.6928667731,
				"element": "C" 
			},
			{
				"x": -1.6362664799,
				"y": -0.7786254656,
				"z": -2.4482611931,
				"element": "C" 
			},
			{
				"x": -2.213849031,
				"y": -1.0159012308,
				"z": -1.1794778813,
				"element": "C" 
			},
			{
				"x": -1.5214619042,
				"y": -0.798481931,
				"z": 0.0127655242,
				"element": "C" 
			},
			{
				"x": -0.2147600681,
				"y": -0.3309496698,
				"z": -0.1181569778,
				"element": "C" 
			},
			{
				"x": 1.0322635322,
				"y": 0.0891748644,
				"z": 0.5946964966,
				"element": "C" 
			},
			{
				"x": 1.3992368709,
				"y": 0.1888260508,
				"z": 1.7382886263,
				"element": "O" 
			},
			{
				"x": 1.7163098438,
				"y": 0.3647361162,
				"z": -0.8001532619,
				"element": "C" 
			},
			{
				"x": 0.3744270813,
				"y": -0.0926659293,
				"z": -1.3660691149,
				"element": "C" 
			},
			{
				"x": -0.313318631,
				"y": -0.3093081083,
				"z": -2.5507309746,
				"element": "C" 
			},
			{
				"x": -3.199531008,
				"y": -0.2176963104,
				"z": -3.8318762627,
				"element": "H" 
			},
			{
				"x": -3.0120261676,
				"y": -1.9590008019,
				"z": -3.6331887829,
				"element": "H" 
			},
			{
				"x": -1.8335552562,
				"y": -1.0442344103,
				"z": -4.5886021069,
				"element": "H" 
			},
			{
				"x": -3.2365684692,
				"y": -1.3832313579,
				"z": -1.1412402237,
				"element": "H" 
			},
			{
				"x": -1.9836888367,
				"y": -0.9893544756,
				"z": 0.9763278518,
				"element": "H" 
			},
			{
				"x": 2.5831425768,
				"y": -0.2704373812,
				"z": -1.0139360776,
				"element": "H" 
			},
			{
				"x": 1.9919064347,
				"y": 1.4111641862,
				"z": -0.9721872157,
				"element": "H" 
			},
			{
				"x": 0.1288855326,
				"y": -0.1329801099,
				"z": -3.5277316527,
				"element": "H" 
			}
		],
		 "valence_orbital": [ 
			{
				"type": "occ",
				"energy": -0.35378,
				"method": "rhf"
			},
			{
				"type": "occ",
				"energy": -0.33424,
				"method": "rhf"
			},
			{
				"type": "occ",
				"energy": -0.26294,
				"method": "rhf"
			},
			{
				"type": "occ",
				"energy": -0.25049,
				"method": "rhf"
			},
			{
				"type": "occ",
				"energy": -0.24445,
				"method": "rhf"
			},
			{
				"type": "unocc",
				"energy": -0.05425,
				"method": "rhf"
			},
			{
				"type": "unocc",
				"energy": -0.01447,
				"method": "rhf"
			},
			{
				"type": "unocc",
				"energy": 0.04827,
				"method": "rhf"
			},
			{
				"type": "unocc",
				"energy": 0.09317,
				"method": "rhf"
			},
			{
				"type": "unocc",
				"energy": 0.11562,
				"method": "rhf"
			}
		],
		"cosmo_sigma_profile": { 
			"-0.025": 0.0,
			"-0.024": 0.0,
			"-0.023": 0.0,
			"-0.022": 0.0,
			"-0.021": 0.0,
			"-0.02": 0.0,
			"-0.019": 0.0,
			"-0.018": 0.0,
			"-0.017": 0.0,
			"-0.016": 0.0,
			"-0.015": 0.0,
			"-0.014": 0.0,
			"-0.013": 0.0,
			"-0.012": 0.0,
			"-0.011": 0.0,
			"-0.01": 0.0,
			"-0.009": 0.0,
			"-0.008": 0.0710232582404,
			"-0.007": 1.68720446864,
			"-0.006": 8.21695667169,
			"-0.005": 14.7336057336,
			"-0.004": 19.0425152149,
			"-0.003": 16.4511438898,
			"-0.002": 18.3335339547,
			"-0.001": 17.578428511,
			"0.0": 16.4413316114,
			"0.001": 11.4874878461,
			"0.002": 8.85604956863,
			"0.003": 11.2915656693,
			"0.004": 10.6175688072,
			"0.005": 1.8377293723,
			"0.006": 0.853556151839,
			"0.007": 2.03050905335,
			"0.008": 2.3066908471,
			"0.009": 1.69123186689,
			"0.01": 2.48458152889,
			"0.011": 5.09330137507,
			"0.012": 4.28560194128,
			"0.013": 1.07791723918,
			"0.014": 0.0,
			"0.015": 0.0,
			"0.016": 0.0,
			"0.017": 0.0,
			"0.018": 0.0,
			"0.019": 0.0,
			"0.02": 0.0,
			"0.021": 0.0,
			"0.022": 0.0,
			"0.023": 0.0,
			"0.024": 0.0,
			"0.025": 0.0
		}
	}
}
