{
	 "smiles": "COC1=C(NC(=S)C2=CC(=C(O)C(=C2)C(C)(C)C)C(C)(C)C)C=CC=C1", 
	 "Tm": 459.15, 
	 "num_atms": 55, 
	 "gaussian": { 
		 "optdone": 1, 
		 "sigma_profile": "yes", 
		 "theory": "DFT", 
		 "functional": "B3LYP", 
		 "basiset": "6-31G**", 
		 "properties": { 
			 "R2extent": 10650.6338, 
			 "electric_dipole_moment_norm": 6.76942004754, 
			 "electric_quadrupole_moment_norm": 22.9264177865, 
			 "total_energy": -1459.21518063, 
			 "HOMO_LUMO_gap": 0.14536, 
			 "cosmo_polarized_energy": -18.63, 
			 "cosmo_cavitation_energy": 55.03, 
			 "cosmo_dispersion_energy": -34.4, 
			 "cosmo_repulsion_energy": 2.57, 
			 "cosmo_total_nonelectrostatic_energy": 23.2, 
			 "SMD_solvation_energy": 9.27 
		},
		"coords": [
			{
				"x": 1.8720023274,
				"y": -3.4839019342,
				"z": -1.4422353342,
				"element": "C" 
			},
			{
				"x": 1.38365584,
				"y": -3.4141204276,
				"z": -0.1106582182,
				"element": "O" 
			},
			{
				"x": 2.1738199533,
				"y": -2.86937693,
				"z": 0.8479814793,
				"element": "C" 
			},
			{
				"x": 1.6124800722,
				"y": -2.7782250513,
				"z": 2.143888165,
				"element": "C" 
			},
			{
				"x": 0.2982432575,
				"y": -3.258152377,
				"z": 2.4165303054,
				"element": "N" 
			},
			{
				"x": -0.8695985107,
				"y": -3.0160768714,
				"z": 1.750668636,
				"element": "C" 
			},
			{
				"x": -2.164736794,
				"y": -4.0551761053,
				"z": 1.966040191,
				"element": "S" 
			},
			{
				"x": -0.9593331494,
				"y": -1.7906231094,
				"z": 0.9214635174,
				"element": "C" 
			},
			{
				"x": -1.6961444304,
				"y": -1.8012486301,
				"z": -0.269291629,
				"element": "C" 
			},
			{
				"x": -1.8378320999,
				"y": -0.6703818269,
				"z": -1.070636112,
				"element": "C" 
			},
			{
				"x": -1.2192667583,
				"y": 0.5228821039,
				"z": -0.616293698,
				"element": "C" 
			},
			{
				"x": -1.3694353491,
				"y": 1.6222786259,
				"z": -1.4238726764,
				"element": "O" 
			},
			{
				"x": -0.4917582411,
				"y": 0.5910326668,
				"z": 0.5976425802,
				"element": "C" 
			},
			{
				"x": -0.3736514509,
				"y": -0.5901728865,
				"z": 1.3363438161,
				"element": "C" 
			},
			{
				"x": 0.1567023667,
				"y": 1.9046933669,
				"z": 1.1042934659,
				"element": "C" 
			},
			{
				"x": 1.247897932,
				"y": 2.3941000169,
				"z": 0.1128566903,
				"element": "C" 
			},
			{
				"x": 0.8690308802,
				"y": 1.7096241905,
				"z": 2.4603407882,
				"element": "C" 
			},
			{
				"x": -0.9194843939,
				"y": 2.9997234188,
				"z": 1.3399466246,
				"element": "C" 
			},
			{
				"x": -2.6433700033,
				"y": -0.7244737809,
				"z": -2.3899135143,
				"element": "C" 
			},
			{
				"x": -3.2147129898,
				"y": -2.1342849897,
				"z": -2.6492019152,
				"element": "C" 
			},
			{
				"x": -1.7343756273,
				"y": -0.3700601535,
				"z": -3.5930933545,
				"element": "C" 
			},
			{
				"x": -3.8460965363,
				"y": 0.2500639927,
				"z": -2.3257547999,
				"element": "C" 
			},
			{
				"x": 2.3894041358,
				"y": -2.2908464877,
				"z": 3.1955902559,
				"element": "C" 
			},
			{
				"x": 3.703057095,
				"y": -1.8656931061,
				"z": 2.9854400497,
				"element": "C" 
			},
			{
				"x": 4.2386546491,
				"y": -1.9211859522,
				"z": 1.7008600128,
				"element": "C" 
			},
			{
				"x": 3.4816008464,
				"y": -2.4178581721,
				"z": 0.6363407123,
				"element": "C" 
			},
			{
				"x": 2.0980862181,
				"y": -2.4868756117,
				"z": -1.8396983957,
				"element": "H" 
			},
			{
				"x": 1.0699782325,
				"y": -3.9325342617,
				"z": -2.0290344534,
				"element": "H" 
			},
			{
				"x": 2.7676251848,
				"y": -4.1141568848,
				"z": -1.510718655,
				"element": "H" 
			},
			{
				"x": 0.2328622763,
				"y": -4.0471306425,
				"z": 3.0504304053,
				"element": "H" 
			},
			{
				"x": -2.1599616401,
				"y": -2.7354645184,
				"z": -0.5530814592,
				"element": "H" 
			},
			{
				"x": -0.9291685236,
				"y": 2.380017556,
				"z": -1.0270975735,
				"element": "H" 
			},
			{
				"x": 0.1622301473,
				"y": -0.5766912638,
				"z": 2.2738740793,
				"element": "H" 
			},
			{
				"x": 1.6967197086,
				"y": 3.3258716233,
				"z": 0.4737972377,
				"element": "H" 
			},
			{
				"x": 0.8876282644,
				"y": 2.5798419549,
				"z": -0.9040648489,
				"element": "H" 
			},
			{
				"x": 2.0406979791,
				"y": 1.6443730027,
				"z": 0.0299710548,
				"element": "H" 
			},
			{
				"x": 0.1734012747,
				"y": 1.395545656,
				"z": 3.2445197687,
				"element": "H" 
			},
			{
				"x": 1.3108598629,
				"y": 2.6608123113,
				"z": 2.7743561047,
				"element": "H" 
			},
			{
				"x": 1.6765076615,
				"y": 0.9739708593,
				"z": 2.3997873199,
				"element": "H" 
			},
			{
				"x": -1.50983364,
				"y": 3.2584439701,
				"z": 0.4552570216,
				"element": "H" 
			},
			{
				"x": -0.4477383158,
				"y": 3.9220505774,
				"z": 1.6956752287,
				"element": "H" 
			},
			{
				"x": -1.6323186868,
				"y": 2.667062714,
				"z": 2.1004788865,
				"element": "H" 
			},
			{
				"x": -2.426693737,
				"y": -2.888463739,
				"z": -2.7462559098,
				"element": "H" 
			},
			{
				"x": -3.8995386959,
				"y": -2.4552287285,
				"z": -1.8581184578,
				"element": "H" 
			},
			{
				"x": -3.7768907919,
				"y": -2.1245198906,
				"z": -3.5885232631,
				"element": "H" 
			},
			{
				"x": -0.9012290108,
				"y": -1.0780564959,
				"z": -3.6680072981,
				"element": "H" 
			},
			{
				"x": -2.3090639228,
				"y": -0.4319436901,
				"z": -4.524415801,
				"element": "H" 
			},
			{
				"x": -1.323457674,
				"y": 0.6364652647,
				"z": -3.5116701234,
				"element": "H" 
			},
			{
				"x": -3.5265733692,
				"y": 1.2836958603,
				"z": -2.1913038035,
				"element": "H" 
			},
			{
				"x": -4.4244357964,
				"y": 0.1879355883,
				"z": -3.2548430039,
				"element": "H" 
			},
			{
				"x": -4.5123475811,
				"y": -0.0163033219,
				"z": -1.4982771074,
				"element": "H" 
			},
			{
				"x": 1.9432024802,
				"y": -2.2408261188,
				"z": 4.1848545934,
				"element": "H" 
			},
			{
				"x": 4.2925515713,
				"y": -1.4898032813,
				"z": 3.8153732932,
				"element": "H" 
			},
			{
				"x": 5.2547639326,
				"y": -1.5850644522,
				"z": 1.5164857479,
				"element": "H" 
			},
			{
				"x": 3.9218835698,
				"y": -2.4716636281,
				"z": -0.3521266265,
				"element": "H" 
			}
		],
		 "valence_orbital": [ 
			{
				"type": "occ",
				"energy": -0.24258,
				"method": "rhf"
			},
			{
				"type": "occ",
				"energy": -0.23634,
				"method": "rhf"
			},
			{
				"type": "occ",
				"energy": -0.21806,
				"method": "rhf"
			},
			{
				"type": "occ",
				"energy": -0.20921,
				"method": "rhf"
			},
			{
				"type": "occ",
				"energy": -0.19145,
				"method": "rhf"
			},
			{
				"type": "unocc",
				"energy": -0.04609,
				"method": "rhf"
			},
			{
				"type": "unocc",
				"energy": -0.01383,
				"method": "rhf"
			},
			{
				"type": "unocc",
				"energy": -0.00115,
				"method": "rhf"
			},
			{
				"type": "unocc",
				"energy": 0.00601,
				"method": "rhf"
			},
			{
				"type": "unocc",
				"energy": 0.03364,
				"method": "rhf"
			}
		],
		"cosmo_sigma_profile": { 
			"-0.025": 0.0,
			"-0.024": 0.0,
			"-0.023": 0.0,
			"-0.022": 0.0,
			"-0.021": 0.0,
			"-0.02": 0.0,
			"-0.019": 0.0,
			"-0.018": 0.0,
			"-0.017": 0.0,
			"-0.016": 0.0,
			"-0.015": 0.200840612755,
			"-0.014": 1.2876351556,
			"-0.013": 1.60091511028,
			"-0.012": 1.625708054,
			"-0.011": 1.57983521795,
			"-0.01": 1.9658755641,
			"-0.009": 1.55887162215,
			"-0.008": 1.17259701175,
			"-0.007": 3.65288270218,
			"-0.006": 14.5537307173,
			"-0.005": 20.4784425678,
			"-0.004": 24.5340575823,
			"-0.003": 43.220169984,
			"-0.002": 45.3797565141,
			"-0.001": 42.8782301886,
			"0.0": 48.0426954237,
			"0.001": 43.3193265418,
			"0.002": 34.7809567341,
			"0.003": 23.553582061,
			"0.004": 22.6845323038,
			"0.005": 15.3717329466,
			"0.006": 7.65170087463,
			"0.007": 6.08790287481,
			"0.008": 6.92593530963,
			"0.009": 8.11015407827,
			"0.01": 5.35871579301,
			"0.011": 3.50477696619,
			"0.012": 2.59496172813,
			"0.013": 0.473947060227,
			"0.014": 0.0,
			"0.015": 0.0,
			"0.016": 0.0,
			"0.017": 0.0,
			"0.018": 0.0,
			"0.019": 0.0,
			"0.02": 0.0,
			"0.021": 0.0,
			"0.022": 0.0,
			"0.023": 0.0,
			"0.024": 0.0,
			"0.025": 0.0
		}
	}
}
