{
	 "smiles": "NC(=O)NC1(CCCCC1)C(O)=O", 
	 "Tm": 453.15, 
	 "num_atms": 27, 
	 "gaussian": { 
		 "optdone": 1, 
		 "sigma_profile": "yes", 
		 "theory": "DFT", 
		 "functional": "B3LYP", 
		 "basiset": "6-31G**", 
		 "properties": { 
			 "R2extent": 2380.3455, 
			 "electric_dipole_moment_norm": 1.48659124846, 
			 "electric_quadrupole_moment_norm": 16.2658310071, 
			 "total_energy": -648.507117087, 
			 "HOMO_LUMO_gap": 0.2566, 
			 "cosmo_polarized_energy": -17.66, 
			 "cosmo_cavitation_energy": 27.7, 
			 "cosmo_dispersion_energy": -20.32, 
			 "cosmo_repulsion_energy": 1.61, 
			 "cosmo_total_nonelectrostatic_energy": 9.0, 
			 "SMD_solvation_energy": 5.73 
		},
		"coords": [
			{
				"x": 0.6432190756,
				"y": -0.2819420714,
				"z": -2.7151538615,
				"element": "N" 
			},
			{
				"x": -0.6689706668,
				"y": -0.3321557993,
				"z": -2.3020643985,
				"element": "C" 
			},
			{
				"x": -1.5393530544,
				"y": -0.9466038579,
				"z": -2.8976028903,
				"element": "O" 
			},
			{
				"x": -0.9715076189,
				"y": 0.4008963387,
				"z": -1.131537958,
				"element": "N" 
			},
			{
				"x": -0.1075838502,
				"y": 0.4740653677,
				"z": 0.0761086078,
				"element": "C" 
			},
			{
				"x": 0.4962790653,
				"y": -0.8863605622,
				"z": 0.5189953207,
				"element": "C" 
			},
			{
				"x": -0.4062401846,
				"y": -1.6121651464,
				"z": 1.5232551204,
				"element": "C" 
			},
			{
				"x": -0.5224219529,
				"y": -0.8162411404,
				"z": 2.8441006071,
				"element": "C" 
			},
			{
				"x": -0.4424362039,
				"y": 0.7102082125,
				"z": 2.6015658367,
				"element": "C" 
			},
			{
				"x": -0.9933162502,
				"y": 1.073742518,
				"z": 1.2190362095,
				"element": "C" 
			},
			{
				"x": 1.0147052991,
				"y": 1.5101319745,
				"z": -0.1750686792,
				"element": "C" 
			},
			{
				"x": 0.7279146713,
				"y": 2.4172763452,
				"z": -1.138602031,
				"element": "O" 
			},
			{
				"x": 2.0462323947,
				"y": 1.5568218022,
				"z": 0.450379548,
				"element": "O" 
			},
			{
				"x": 0.7932174745,
				"y": -0.6893747651,
				"z": -3.6267272957,
				"element": "H" 
			},
			{
				"x": 1.2083470866,
				"y": 0.5265670318,
				"z": -2.4959824477,
				"element": "H" 
			},
			{
				"x": -1.946054606,
				"y": 0.2256602898,
				"z": -0.9132964292,
				"element": "H" 
			},
			{
				"x": 1.4689435887,
				"y": -0.6842863665,
				"z": 0.9771805473,
				"element": "H" 
			},
			{
				"x": 0.6873499189,
				"y": -1.5004907255,
				"z": -0.3647557005,
				"element": "H" 
			},
			{
				"x": -0.0147568437,
				"y": -2.6161745778,
				"z": 1.7166518011,
				"element": "H" 
			},
			{
				"x": -1.4000043177,
				"y": -1.7598347487,
				"z": 1.0804037759,
				"element": "H" 
			},
			{
				"x": 0.2780349321,
				"y": -1.1140153726,
				"z": 3.5304626726,
				"element": "H" 
			},
			{
				"x": -1.4660139679,
				"y": -1.0695895184,
				"z": 3.3413080827,
				"element": "H" 
			},
			{
				"x": -0.9978528835,
				"y": 1.2522631173,
				"z": 3.3738369307,
				"element": "H" 
			},
			{
				"x": 0.5951449621,
				"y": 1.0546348152,
				"z": 2.6647581997,
				"element": "H" 
			},
			{
				"x": -1.0832111462,
				"y": 2.1580459503,
				"z": 1.0925444093,
				"element": "H" 
			},
			{
				"x": -2.0073897728,
				"y": 0.6640072612,
				"z": 1.1167881481,
				"element": "H" 
			},
			{
				"x": -0.1609751492,
				"y": 2.1788136279,
				"z": -1.4768841259,
				"element": "H" 
			}
		],
		 "valence_orbital": [ 
			{
				"type": "occ",
				"energy": -0.31824,
				"method": "rhf"
			},
			{
				"type": "occ",
				"energy": -0.29645,
				"method": "rhf"
			},
			{
				"type": "occ",
				"energy": -0.28509,
				"method": "rhf"
			},
			{
				"type": "occ",
				"energy": -0.27429,
				"method": "rhf"
			},
			{
				"type": "occ",
				"energy": -0.25881,
				"method": "rhf"
			},
			{
				"type": "unocc",
				"energy": -0.00221,
				"method": "rhf"
			},
			{
				"type": "unocc",
				"energy": 0.02763,
				"method": "rhf"
			},
			{
				"type": "unocc",
				"energy": 0.0544,
				"method": "rhf"
			},
			{
				"type": "unocc",
				"energy": 0.08146,
				"method": "rhf"
			},
			{
				"type": "unocc",
				"energy": 0.08785,
				"method": "rhf"
			}
		],
		"cosmo_sigma_profile": { 
			"-0.025": 0.0,
			"-0.024": 0.0,
			"-0.023": 0.0,
			"-0.022": 0.0,
			"-0.021": 0.0,
			"-0.02": 0.0,
			"-0.019": 0.0,
			"-0.018": 0.0,
			"-0.017": 0.0,
			"-0.016": 0.0,
			"-0.015": 0.0,
			"-0.014": 1.22376943248,
			"-0.013": 2.39251245861,
			"-0.012": 3.152404817,
			"-0.011": 4.95998241655,
			"-0.01": 4.61609687566,
			"-0.009": 3.94438313043,
			"-0.008": 5.01970615538,
			"-0.007": 5.15379481149,
			"-0.006": 4.92112085926,
			"-0.005": 6.9427669634,
			"-0.004": 7.81169112827,
			"-0.003": 16.1348917735,
			"-0.002": 27.1249564296,
			"-0.001": 27.6790166807,
			"0.0": 19.242017131,
			"0.001": 14.113467973,
			"0.002": 4.81198929628,
			"0.003": 4.24607194365,
			"0.004": 4.24818020645,
			"0.005": 3.90945623199,
			"0.006": 4.20017964786,
			"0.007": 3.76553140801,
			"0.008": 2.97755186852,
			"0.009": 4.9205756314,
			"0.01": 5.91495446924,
			"0.011": 5.89848397287,
			"0.012": 5.4499367111,
			"0.013": 6.17381716168,
			"0.014": 4.09587125335,
			"0.015": 0.150862031276,
			"0.016": 0.0,
			"0.017": 0.0,
			"0.018": 0.0,
			"0.019": 0.0,
			"0.02": 0.0,
			"0.021": 0.0,
			"0.022": 0.0,
			"0.023": 0.0,
			"0.024": 0.0,
			"0.025": 0.0
		}
	}
}
