{
	 "smiles": "NC(=O)C1=CC=C(OC(F)F)C=C1", 
	 "Tm": 404.15, 
	 "num_atms": 20, 
	 "gaussian": { 
		 "optdone": 1, 
		 "sigma_profile": "yes", 
		 "theory": "DFT", 
		 "functional": "B3LYP", 
		 "basiset": "6-31G**", 
		 "properties": { 
			 "R2extent": 3281.6497, 
			 "electric_dipole_moment_norm": 3.93065287452, 
			 "electric_quadrupole_moment_norm": 11.2711624986, 
			 "total_energy": -713.960816437, 
			 "HOMO_LUMO_gap": 0.20704, 
			 "cosmo_polarized_energy": -14.27, 
			 "cosmo_cavitation_energy": 25.55, 
			 "cosmo_dispersion_energy": -18.81, 
			 "cosmo_repulsion_energy": 1.46, 
			 "cosmo_total_nonelectrostatic_energy": 8.2, 
			 "SMD_solvation_energy": 6.5 
		},
		"coords": [
			{
				"x": 3.1662941761,
				"y": 1.6273654864,
				"z": 1.1576609925,
				"element": "N" 
			},
			{
				"x": 2.1071008345,
				"y": 1.6282336296,
				"z": 0.2781197931,
				"element": "C" 
			},
			{
				"x": 2.0665538972,
				"y": 2.3930660428,
				"z": -0.678112927,
				"element": "O" 
			},
			{
				"x": 1.0231491981,
				"y": 0.6247465528,
				"z": 0.5399129173,
				"element": "C" 
			},
			{
				"x": -0.2017810404,
				"y": 0.8113367989,
				"z": -0.111370062,
				"element": "C" 
			},
			{
				"x": -1.2653775142,
				"y": -0.0673561415,
				"z": 0.0738968042,
				"element": "C" 
			},
			{
				"x": -1.0906370394,
				"y": -1.1652176057,
				"z": 0.9219603214,
				"element": "C" 
			},
			{
				"x": -2.0601419979,
				"y": -2.1224032094,
				"z": 1.1992547969,
				"element": "O" 
			},
			{
				"x": -3.3093765118,
				"y": -2.0554556002,
				"z": 0.646074132,
				"element": "C" 
			},
			{
				"x": -3.2630174645,
				"y": -2.0944510271,
				"z": -0.7126334178,
				"element": "F" 
			},
			{
				"x": -3.9490248026,
				"y": -0.9031048473,
				"z": 0.9830967452,
				"element": "F" 
			},
			{
				"x": 0.1286872713,
				"y": -1.382604343,
				"z": 1.5671856768,
				"element": "C" 
			},
			{
				"x": 1.1785661252,
				"y": -0.4908799287,
				"z": 1.3752896051,
				"element": "C" 
			},
			{
				"x": 3.0466530092,
				"y": 1.2800772046,
				"z": 2.0964923407,
				"element": "H" 
			},
			{
				"x": 3.8192928393,
				"y": 2.3885540321,
				"z": 1.0373774825,
				"element": "H" 
			},
			{
				"x": -0.304018617,
				"y": 1.6651167691,
				"z": -0.7724034511,
				"element": "H" 
			},
			{
				"x": -2.2042043218,
				"y": 0.1019126723,
				"z": -0.4347302136,
				"element": "H" 
			},
			{
				"x": -3.8777856167,
				"y": -2.9111432479,
				"z": 1.0172175967,
				"element": "H" 
			},
			{
				"x": 0.2371086588,
				"y": -2.2545825518,
				"z": 2.203079208,
				"element": "H" 
			},
			{
				"x": 2.1308589167,
				"y": -0.6934106859,
				"z": 1.8560316591,
				"element": "H" 
			}
		],
		 "valence_orbital": [ 
			{
				"type": "occ",
				"energy": -0.34636,
				"method": "rhf"
			},
			{
				"type": "occ",
				"energy": -0.27405,
				"method": "rhf"
			},
			{
				"type": "occ",
				"energy": -0.26617,
				"method": "rhf"
			},
			{
				"type": "occ",
				"energy": -0.25292,
				"method": "rhf"
			},
			{
				"type": "occ",
				"energy": -0.24387,
				"method": "rhf"
			},
			{
				"type": "unocc",
				"energy": -0.03683,
				"method": "rhf"
			},
			{
				"type": "unocc",
				"energy": -0.01607,
				"method": "rhf"
			},
			{
				"type": "unocc",
				"energy": 0.05631,
				"method": "rhf"
			},
			{
				"type": "unocc",
				"energy": 0.07365,
				"method": "rhf"
			},
			{
				"type": "unocc",
				"energy": 0.10038,
				"method": "rhf"
			}
		],
		"cosmo_sigma_profile": { 
			"-0.025": 0.0,
			"-0.024": 0.0,
			"-0.023": 0.0,
			"-0.022": 0.0,
			"-0.021": 0.0,
			"-0.02": 0.0,
			"-0.019": 0.0,
			"-0.018": 0.0,
			"-0.017": 0.0,
			"-0.016": 0.0,
			"-0.015": 0.217841367915,
			"-0.014": 1.34379585336,
			"-0.013": 2.30652604597,
			"-0.012": 2.58111387779,
			"-0.011": 5.3079805344,
			"-0.01": 4.34972629037,
			"-0.009": 4.65680341856,
			"-0.008": 4.34513129143,
			"-0.007": 6.04965537174,
			"-0.006": 7.74601465514,
			"-0.005": 8.79632063177,
			"-0.004": 7.62622595937,
			"-0.003": 7.27413450644,
			"-0.002": 8.51480390042,
			"-0.001": 8.52959537286,
			"0.0": 12.3723366711,
			"0.001": 19.1199895771,
			"0.002": 20.7870358977,
			"0.003": 32.8363749225,
			"0.004": 12.881217636,
			"0.005": 3.30989473431,
			"0.006": 4.26755094503,
			"0.007": 1.34764511639,
			"0.008": 2.52312461588,
			"0.009": 1.52913943526,
			"0.01": 1.68019775971,
			"0.011": 1.594542819,
			"0.012": 1.7892922283,
			"0.013": 4.86545003778,
			"0.014": 3.64485298473,
			"0.015": 0.217166523708,
			"0.016": 0.0,
			"0.017": 0.0,
			"0.018": 0.0,
			"0.019": 0.0,
			"0.02": 0.0,
			"0.021": 0.0,
			"0.022": 0.0,
			"0.023": 0.0,
			"0.024": 0.0,
			"0.025": 0.0
		}
	}
}
