{
	 "smiles": "CN1N=C(C=C1C(F)(F)F)C1=CC=C(S1)S(Cl)(=O)=O", 
	 "Tm": 357.65, 
	 "num_atms": 25, 
	 "gaussian": { 
		 "optdone": 1, 
		 "sigma_profile": "yes", 
		 "theory": "DFT", 
		 "functional": "B3LYP", 
		 "basiset": "6-31G**", 
		 "properties": { 
			 "R2extent": 12150.5129, 
			 "electric_dipole_moment_norm": 6.79433835189, 
			 "electric_quadrupole_moment_norm": 26.1748279635, 
			 "total_energy": -2162.51252009, 
			 "HOMO_LUMO_gap": 0.15088, 
			 "cosmo_polarized_energy": -12.76, 
			 "cosmo_cavitation_energy": 37.19, 
			 "cosmo_dispersion_energy": -27.14, 
			 "cosmo_repulsion_energy": 1.94, 
			 "cosmo_total_nonelectrostatic_energy": 11.99, 
			 "SMD_solvation_energy": 4.87 
		},
		"coords": [
			{
				"x": 1.544755667,
				"y": 2.4408834649,
				"z": -0.6603340509,
				"element": "C" 
			},
			{
				"x": 1.3280308734,
				"y": 1.1586696035,
				"z": -1.3187818929,
				"element": "N" 
			},
			{
				"x": 0.5900034178,
				"y": 0.2165872687,
				"z": -0.7184225845,
				"element": "N" 
			},
			{
				"x": 0.6253509475,
				"y": -0.849022038,
				"z": -1.5332554054,
				"element": "C" 
			},
			{
				"x": 1.4125006856,
				"y": -0.5827877712,
				"z": -2.6802242114,
				"element": "C" 
			},
			{
				"x": 1.8465823782,
				"y": 0.7139507938,
				"z": -2.5004969124,
				"element": "C" 
			},
			{
				"x": 2.7112426448,
				"y": 1.5582133361,
				"z": -3.3747908519,
				"element": "C" 
			},
			{
				"x": 3.114990183,
				"y": 0.8641990917,
				"z": -4.4505830539,
				"element": "F" 
			},
			{
				"x": 3.8102638159,
				"y": 1.994572726,
				"z": -2.7171605384,
				"element": "F" 
			},
			{
				"x": 2.0590754324,
				"y": 2.662668927,
				"z": -3.8102537263,
				"element": "F" 
			},
			{
				"x": -0.0923249197,
				"y": -2.0635905489,
				"z": -1.1834193018,
				"element": "C" 
			},
			{
				"x": -0.1493868674,
				"y": -3.2521780826,
				"z": -1.8865099232,
				"element": "C" 
			},
			{
				"x": -0.9569627075,
				"y": -4.2308127797,
				"z": -1.26132337,
				"element": "C" 
			},
			{
				"x": -1.5108687424,
				"y": -3.7608046675,
				"z": -0.0938247702,
				"element": "C" 
			},
			{
				"x": -1.0494163252,
				"y": -2.1229991357,
				"z": 0.2725288432,
				"element": "S" 
			},
			{
				"x": -2.5489476593,
				"y": -4.691257661,
				"z": 0.965551207,
				"element": "S" 
			},
			{
				"x": -1.1535225337,
				"y": -5.5580262706,
				"z": 2.3331220217,
				"element": "Cl" 
			},
			{
				"x": -3.107944352,
				"y": -5.8067782719,
				"z": 0.2136049207,
				"element": "O" 
			},
			{
				"x": -3.3634064678,
				"y": -3.7806100034,
				"z": 1.7592882924,
				"element": "O" 
			},
			{
				"x": 0.7538568703,
				"y": 2.5633283125,
				"z": 0.0778992835,
				"element": "H" 
			},
			{
				"x": 2.5192347048,
				"y": 2.4601046229,
				"z": -0.1647572626,
				"element": "H" 
			},
			{
				"x": 1.4953404312,
				"y": 3.2428792887,
				"z": -1.3978307732,
				"element": "H" 
			},
			{
				"x": 1.6296467707,
				"y": -1.2257854548,
				"z": -3.5184452315,
				"element": "H" 
			},
			{
				"x": 0.3693013749,
				"y": -3.4123498958,
				"z": -2.8241615194,
				"element": "H" 
			},
			{
				"x": -1.1337956223,
				"y": -5.2290548547,
				"z": -1.6420191885,
				"element": "H" 
			}
		],
		 "valence_orbital": [ 
			{
				"type": "occ",
				"energy": -0.31347,
				"method": "rhf"
			},
			{
				"type": "occ",
				"energy": -0.30967,
				"method": "rhf"
			},
			{
				"type": "occ",
				"energy": -0.29278,
				"method": "rhf"
			},
			{
				"type": "occ",
				"energy": -0.28419,
				"method": "rhf"
			},
			{
				"type": "occ",
				"energy": -0.24747,
				"method": "rhf"
			},
			{
				"type": "unocc",
				"energy": -0.09659,
				"method": "rhf"
			},
			{
				"type": "unocc",
				"energy": -0.05849,
				"method": "rhf"
			},
			{
				"type": "unocc",
				"energy": -0.02887,
				"method": "rhf"
			},
			{
				"type": "unocc",
				"energy": 0.00242,
				"method": "rhf"
			},
			{
				"type": "unocc",
				"energy": 0.00528,
				"method": "rhf"
			}
		],
		"cosmo_sigma_profile": { 
			"-0.025": 0.0,
			"-0.024": 0.0,
			"-0.023": 0.0,
			"-0.022": 0.0,
			"-0.021": 0.0,
			"-0.02": 0.0,
			"-0.019": 0.0,
			"-0.018": 0.0,
			"-0.017": 0.0,
			"-0.016": 0.0,
			"-0.015": 0.0,
			"-0.014": 0.0,
			"-0.013": 0.0,
			"-0.012": 0.0,
			"-0.011": 0.0,
			"-0.01": 1.74976562319,
			"-0.009": 5.68397726499,
			"-0.008": 5.45085324441,
			"-0.007": 9.84240828543,
			"-0.006": 11.739344724,
			"-0.005": 13.1750324852,
			"-0.004": 16.3557377732,
			"-0.003": 14.8942442457,
			"-0.002": 17.1721987407,
			"-0.001": 25.8659295084,
			"0.0": 34.9162938713,
			"0.001": 37.9095490036,
			"0.002": 41.3488862172,
			"0.003": 21.1981640809,
			"0.004": 11.9592187939,
			"0.005": 4.97081038197,
			"0.006": 5.14271684272,
			"0.007": 8.27346041111,
			"0.008": 11.232847949,
			"0.009": 4.61837493012,
			"0.01": 0.849648189699,
			"0.011": 0.0153968111709,
			"0.012": 0.0,
			"0.013": 0.0,
			"0.014": 0.0,
			"0.015": 0.0,
			"0.016": 0.0,
			"0.017": 0.0,
			"0.018": 0.0,
			"0.019": 0.0,
			"0.02": 0.0,
			"0.021": 0.0,
			"0.022": 0.0,
			"0.023": 0.0,
			"0.024": 0.0,
			"0.025": 0.0
		}
	}
}
