{
	 "smiles": "CCC(=N/O)C1=CC2(C)CCC1C2(C)C", 
	 "Tm": 380.15, 
	 "num_atms": 36, 
	 "gaussian": { 
		 "optdone": 1, 
		 "sigma_profile": "yes", 
		 "theory": "DFT", 
		 "functional": "B3LYP", 
		 "basiset": "6-31G**", 
		 "properties": { 
			 "R2extent": 3630.8042, 
			 "electric_dipole_moment_norm": 0.404937698912, 
			 "electric_quadrupole_moment_norm": 4.99857319242, 
			 "total_energy": -637.950982093, 
			 "HOMO_LUMO_gap": 0.18625, 
			 "cosmo_polarized_energy": -6.77, 
			 "cosmo_cavitation_energy": 35.01, 
			 "cosmo_dispersion_energy": -24.08, 
			 "cosmo_repulsion_energy": 1.9, 
			 "cosmo_total_nonelectrostatic_energy": 12.83, 
			 "SMD_solvation_energy": 5.89 
		},
		"coords": [
			{
				"x": 2.087344389,
				"y": -3.5104050916,
				"z": 1.3080982615,
				"element": "C" 
			},
			{
				"x": 2.108443692,
				"y": -2.8973988103,
				"z": -0.104185591,
				"element": "C" 
			},
			{
				"x": 1.9761013214,
				"y": -1.3908036045,
				"z": -0.079430506,
				"element": "C" 
			},
			{
				"x": 2.9660181382,
				"y": -0.5851858184,
				"z": 0.1324452557,
				"element": "N" 
			},
			{
				"x": 4.1718903652,
				"y": -1.2832514978,
				"z": 0.3284571674,
				"element": "O" 
			},
			{
				"x": 0.6749759918,
				"y": -0.7542713526,
				"z": -0.2647840235,
				"element": "C" 
			},
			{
				"x": -0.5342510645,
				"y": -1.340303401,
				"z": -0.3948724688,
				"element": "C" 
			},
			{
				"x": -1.5984292397,
				"y": -0.2528386223,
				"z": -0.4303604,
				"element": "C" 
			},
			{
				"x": -2.9595810537,
				"y": -0.6582064585,
				"z": -0.9781135613,
				"element": "C" 
			},
			{
				"x": -1.6198413852,
				"y": 0.2954197867,
				"z": 1.0449999142,
				"element": "C" 
			},
			{
				"x": -0.2309380549,
				"y": 0.9832796449,
				"z": 1.1959866926,
				"element": "C" 
			},
			{
				"x": 0.4236421836,
				"y": 0.7493618647,
				"z": -0.2048293285,
				"element": "C" 
			},
			{
				"x": -0.7991898647,
				"y": 0.8949789935,
				"z": -1.1683221596,
				"element": "C" 
			},
			{
				"x": -0.4702036061,
				"y": 0.5893188415,
				"z": -2.6402673317,
				"element": "C" 
			},
			{
				"x": -1.473393782,
				"y": 2.2780104925,
				"z": -1.136017328,
				"element": "C" 
			},
			{
				"x": 1.1538324251,
				"y": -3.2720806482,
				"z": 1.8278316079,
				"element": "H" 
			},
			{
				"x": 2.9190622149,
				"y": -3.125515426,
				"z": 1.9035214833,
				"element": "H" 
			},
			{
				"x": 2.1779902813,
				"y": -4.6001941045,
				"z": 1.256496903,
				"element": "H" 
			},
			{
				"x": 1.2997028204,
				"y": -3.3183942106,
				"z": -0.7087460106,
				"element": "H" 
			},
			{
				"x": 3.0518385539,
				"y": -3.1526603233,
				"z": -0.5950786015,
				"element": "H" 
			},
			{
				"x": 4.8028308502,
				"y": -0.5611451208,
				"z": 0.4449462115,
				"element": "H" 
			},
			{
				"x": -0.7586306097,
				"y": -2.4023007712,
				"z": -0.3754552589,
				"element": "H" 
			},
			{
				"x": -2.8863627809,
				"y": -1.0302683471,
				"z": -2.0056738725,
				"element": "H" 
			},
			{
				"x": -3.4060619816,
				"y": -1.4537252747,
				"z": -0.3701400734,
				"element": "H" 
			},
			{
				"x": -3.6572448735,
				"y": 0.1862659235,
				"z": -0.974000024,
				"element": "H" 
			},
			{
				"x": -1.7718754792,
				"y": -0.5182062239,
				"z": 1.7603155149,
				"element": "H" 
			},
			{
				"x": -2.4451048933,
				"y": 1.0024803664,
				"z": 1.1837111799,
				"element": "H" 
			},
			{
				"x": 0.3773340299,
				"y": 0.5455438077,
				"z": 1.9915961573,
				"element": "H" 
			},
			{
				"x": -0.3288009409,
				"y": 2.0509276357,
				"z": 1.4142113304,
				"element": "H" 
			},
			{
				"x": 1.2933975609,
				"y": 1.3746621202,
				"z": -0.4101471864,
				"element": "H" 
			},
			{
				"x": 0.0119323927,
				"y": -0.3802327336,
				"z": -2.7735837258,
				"element": "H" 
			},
			{
				"x": -1.3804499979,
				"y": 0.6019757275,
				"z": -3.2507258286,
				"element": "H" 
			},
			{
				"x": 0.1994379553,
				"y": 1.3569784417,
				"z": -3.0445026459,
				"element": "H" 
			},
			{
				"x": -1.7718307285,
				"y": 2.6076766631,
				"z": -0.1397979112,
				"element": "H" 
			},
			{
				"x": -2.3696881862,
				"y": 2.2817318051,
				"z": -1.766547687,
				"element": "H" 
			},
			{
				"x": -0.7922966433,
				"y": 3.034875726,
				"z": -1.5418361554,
				"element": "H" 
			}
		],
		 "valence_orbital": [ 
			{
				"type": "occ",
				"energy": -0.3018,
				"method": "rhf"
			},
			{
				"type": "occ",
				"energy": -0.28018,
				"method": "rhf"
			},
			{
				"type": "occ",
				"energy": -0.27458,
				"method": "rhf"
			},
			{
				"type": "occ",
				"energy": -0.26259,
				"method": "rhf"
			},
			{
				"type": "occ",
				"energy": -0.21095,
				"method": "rhf"
			},
			{
				"type": "unocc",
				"energy": -0.0247,
				"method": "rhf"
			},
			{
				"type": "unocc",
				"energy": 0.06934,
				"method": "rhf"
			},
			{
				"type": "unocc",
				"energy": 0.08013,
				"method": "rhf"
			},
			{
				"type": "unocc",
				"energy": 0.08344,
				"method": "rhf"
			},
			{
				"type": "unocc",
				"energy": 0.10901,
				"method": "rhf"
			}
		],
		"cosmo_sigma_profile": { 
			"-0.025": 0.0,
			"-0.024": 0.0,
			"-0.023": 0.0,
			"-0.022": 0.0,
			"-0.021": 0.0,
			"-0.02": 0.0,
			"-0.019": 0.0,
			"-0.018": 0.0,
			"-0.017": 0.567346083362,
			"-0.016": 1.18448494974,
			"-0.015": 0.608011534738,
			"-0.014": 0.904626444748,
			"-0.013": 0.859073174489,
			"-0.012": 0.69871968346,
			"-0.011": 0.0734724653662,
			"-0.01": 0.31370726653,
			"-0.009": 0.908848149538,
			"-0.008": 1.11355372058,
			"-0.007": 0.727961497807,
			"-0.006": 1.27318650452,
			"-0.005": 2.85896231552,
			"-0.004": 4.69702798465,
			"-0.003": 18.196065452,
			"-0.002": 39.3771173781,
			"-0.001": 46.9983749673,
			"0.0": 42.8947574919,
			"0.001": 44.784866559,
			"0.002": 25.8651241559,
			"0.003": 5.89354691644,
			"0.004": 4.58304073699,
			"0.005": 4.2355562531,
			"0.006": 4.93725173175,
			"0.007": 5.49056306039,
			"0.008": 3.24183422485,
			"0.009": 3.52224273206,
			"0.01": 1.81133469772,
			"0.011": 1.0230807998,
			"0.012": 0.797869982799,
			"0.013": 0.0398822828745,
			"0.014": 0.0,
			"0.015": 0.0,
			"0.016": 0.0,
			"0.017": 0.0,
			"0.018": 0.0,
			"0.019": 0.0,
			"0.02": 0.0,
			"0.021": 0.0,
			"0.022": 0.0,
			"0.023": 0.0,
			"0.024": 0.0,
			"0.025": 0.0
		}
	}
}
