{
	 "smiles": "OC1=C(C=CC=C1)C(=O)C1=CON=C1", 
	 "Tm": 387.15, 
	 "num_atms": 21, 
	 "gaussian": { 
		 "optdone": 1, 
		 "sigma_profile": "yes", 
		 "theory": "DFT", 
		 "functional": "B3LYP", 
		 "basiset": "6-31G**", 
		 "properties": { 
			 "R2extent": 3493.9165, 
			 "electric_dipole_moment_norm": 3.2955002822, 
			 "electric_quadrupole_moment_norm": 12.9491106417, 
			 "total_energy": -665.650726586, 
			 "HOMO_LUMO_gap": 0.15262, 
			 "cosmo_polarized_energy": -11.22, 
			 "cosmo_cavitation_energy": 25.9, 
			 "cosmo_dispersion_energy": -19.42, 
			 "cosmo_repulsion_energy": 1.49, 
			 "cosmo_total_nonelectrostatic_energy": 7.96, 
			 "SMD_solvation_energy": 5.61 
		},
		"coords": [
			{
				"x": -0.6024339454,
				"y": -1.8426289437,
				"z": 1.3891777973,
				"element": "O" 
			},
			{
				"x": -1.5140947077,
				"y": -1.1596463192,
				"z": 0.6894899063,
				"element": "C" 
			},
			{
				"x": -1.2129060729,
				"y": -0.5369410219,
				"z": -0.5586286074,
				"element": "C" 
			},
			{
				"x": -2.2586749889,
				"y": 0.104376439,
				"z": -1.2595173089,
				"element": "C" 
			},
			{
				"x": -3.5384268807,
				"y": 0.1807095829,
				"z": -0.7371048376,
				"element": "C" 
			},
			{
				"x": -3.8034555675,
				"y": -0.3907404981,
				"z": 0.5191209121,
				"element": "C" 
			},
			{
				"x": -2.8108091325,
				"y": -1.0533260121,
				"z": 1.2228773524,
				"element": "C" 
			},
			{
				"x": 0.1658201394,
				"y": -0.6051530863,
				"z": -1.0596580692,
				"element": "C" 
			},
			{
				"x": 1.0043375476,
				"y": -1.3678736858,
				"z": -0.5385682159,
				"element": "O" 
			},
			{
				"x": 0.6399334901,
				"y": 0.2357374447,
				"z": -2.1789977852,
				"element": "C" 
			},
			{
				"x": 0.2589824195,
				"y": 1.4647583578,
				"z": -2.648788402,
				"element": "C" 
			},
			{
				"x": 1.0796376034,
				"y": 1.8723500495,
				"z": -3.6215444756,
				"element": "O" 
			},
			{
				"x": 2.0650353823,
				"y": 0.8889866349,
				"z": -3.8365587463,
				"element": "N" 
			},
			{
				"x": 1.7986470483,
				"y": -0.0516659888,
				"z": -2.9708479307,
				"element": "C" 
			},
			{
				"x": 0.2174836388,
				"y": -1.869722692,
				"z": 0.8299349917,
				"element": "H" 
			},
			{
				"x": -2.0620494651,
				"y": 0.507814634,
				"z": -2.2460594041,
				"element": "H" 
			},
			{
				"x": -4.3303494733,
				"y": 0.6668431203,
				"z": -1.2969973496,
				"element": "H" 
			},
			{
				"x": -4.8035917958,
				"y": -0.3297413438,
				"z": 0.9389646825,
				"element": "H" 
			},
			{
				"x": -3.0053623321,
				"y": -1.5192651026,
				"z": 2.1828639707,
				"element": "H" 
			},
			{
				"x": -0.5196823188,
				"y": 2.1584074289,
				"z": -2.3684962379,
				"element": "H" 
			},
			{
				"x": 2.4252594112,
				"y": -0.9317789977,
				"z": -2.9174622426,
				"element": "H" 
			}
		],
		 "valence_orbital": [ 
			{
				"type": "occ",
				"energy": -0.32008,
				"method": "rhf"
			},
			{
				"type": "occ",
				"energy": -0.28899,
				"method": "rhf"
			},
			{
				"type": "occ",
				"energy": -0.27819,
				"method": "rhf"
			},
			{
				"type": "occ",
				"energy": -0.27372,
				"method": "rhf"
			},
			{
				"type": "occ",
				"energy": -0.2358,
				"method": "rhf"
			},
			{
				"type": "unocc",
				"energy": -0.08318,
				"method": "rhf"
			},
			{
				"type": "unocc",
				"energy": -0.03461,
				"method": "rhf"
			},
			{
				"type": "unocc",
				"energy": -0.00939,
				"method": "rhf"
			},
			{
				"type": "unocc",
				"energy": 0.00736,
				"method": "rhf"
			},
			{
				"type": "unocc",
				"energy": 0.07431,
				"method": "rhf"
			}
		],
		"cosmo_sigma_profile": { 
			"-0.025": 0.0,
			"-0.024": 0.0,
			"-0.023": 0.0,
			"-0.022": 0.0,
			"-0.021": 0.0,
			"-0.02": 0.0,
			"-0.019": 0.0,
			"-0.018": 0.0,
			"-0.017": 0.0,
			"-0.016": 0.0,
			"-0.015": 0.0,
			"-0.014": 0.0,
			"-0.013": 0.0106157704076,
			"-0.012": 1.24483750937,
			"-0.011": 2.20057384878,
			"-0.01": 3.22488129923,
			"-0.009": 3.39357912068,
			"-0.008": 3.77728808054,
			"-0.007": 6.17296409134,
			"-0.006": 11.3656718728,
			"-0.005": 12.7615521225,
			"-0.004": 13.9114560359,
			"-0.003": 14.91202389,
			"-0.002": 15.3556507785,
			"-0.001": 15.0034553291,
			"0.0": 12.4231648836,
			"0.001": 12.2719636234,
			"0.002": 14.9320475496,
			"0.003": 14.365461885,
			"0.004": 12.1229310917,
			"0.005": 5.76753106606,
			"0.006": 8.04209700975,
			"0.007": 6.03335402323,
			"0.008": 5.15285470115,
			"0.009": 4.23139517459,
			"0.01": 4.60654805674,
			"0.011": 3.85780032515,
			"0.012": 1.51896133708,
			"0.013": 0.8190977239,
			"0.014": 0.0404961219926,
			"0.015": 0.0,
			"0.016": 0.0,
			"0.017": 0.0,
			"0.018": 0.0,
			"0.019": 0.0,
			"0.02": 0.0,
			"0.021": 0.0,
			"0.022": 0.0,
			"0.023": 0.0,
			"0.024": 0.0,
			"0.025": 0.0
		}
	}
}
