{
	 "smiles": "OC(=O)C1=CSC(=N1)C1=CC=CO1", 
	 "Tm": 455.15, 
	 "num_atms": 18, 
	 "gaussian": { 
		 "optdone": 1, 
		 "sigma_profile": "yes", 
		 "theory": "DFT", 
		 "functional": "B3LYP", 
		 "basiset": "6-31G**", 
		 "properties": { 
			 "R2extent": 4310.743, 
			 "electric_dipole_moment_norm": 3.36921463401, 
			 "electric_quadrupole_moment_norm": 25.3837937271, 
			 "total_energy": -986.448968581, 
			 "HOMO_LUMO_gap": 0.15858, 
			 "cosmo_polarized_energy": -16.26, 
			 "cosmo_cavitation_energy": 25.9, 
			 "cosmo_dispersion_energy": -19.64, 
			 "cosmo_repulsion_energy": 1.5, 
			 "cosmo_total_nonelectrostatic_energy": 7.77, 
			 "SMD_solvation_energy": 5.24 
		},
		"coords": [
			{
				"x": -4.8979102142,
				"y": 2.1908824357,
				"z": -1.0228159838,
				"element": "O" 
			},
			{
				"x": -3.6572091233,
				"y": 2.4957653382,
				"z": -1.4907825823,
				"element": "C" 
			},
			{
				"x": -3.4700025762,
				"y": 3.2744004735,
				"z": -2.397003662,
				"element": "O" 
			},
			{
				"x": -2.6030027454,
				"y": 1.7586446461,
				"z": -0.7493480587,
				"element": "C" 
			},
			{
				"x": -2.8432259184,
				"y": 0.8798999281,
				"z": 0.2772874709,
				"element": "C" 
			},
			{
				"x": -1.3562386398,
				"y": 0.2374054737,
				"z": 0.8691043599,
				"element": "S" 
			},
			{
				"x": -0.5010634436,
				"y": 1.2241046954,
				"z": -0.3393344144,
				"element": "C" 
			},
			{
				"x": -1.2849882555,
				"y": 1.9455678586,
				"z": -1.0885368868,
				"element": "N" 
			},
			{
				"x": 0.9411119478,
				"y": 1.1856736114,
				"z": -0.4330698085,
				"element": "C" 
			},
			{
				"x": 1.9070809938,
				"y": 0.4975594887,
				"z": 0.2605768348,
				"element": "C" 
			},
			{
				"x": 3.1593770378,
				"y": 0.8848668714,
				"z": -0.3013482467,
				"element": "C" 
			},
			{
				"x": 2.8667958208,
				"y": 1.7767964789,
				"z": -1.2920581481,
				"element": "C" 
			},
			{
				"x": 1.5270035511,
				"y": 1.9707275138,
				"z": -1.3855772268,
				"element": "O" 
			},
			{
				"x": -5.5155567215,
				"y": 2.7135398336,
				"z": -1.5600582326,
				"element": "H" 
			},
			{
				"x": -3.7956369155,
				"y": 0.5923526124,
				"z": 0.6965250833,
				"element": "H" 
			},
			{
				"x": 1.7437191274,
				"y": -0.1985178803,
				"z": 1.0711284868,
				"element": "H" 
			},
			{
				"x": 4.141809997,
				"y": 0.5454581221,
				"z": -0.0075451966,
				"element": "H" 
			},
			{
				"x": 3.4701360776,
				"y": 2.3369724988,
				"z": -1.9894437884,
				"element": "H" 
			}
		],
		 "valence_orbital": [ 
			{
				"type": "occ",
				"energy": -0.29535,
				"method": "rhf"
			},
			{
				"type": "occ",
				"energy": -0.2843,
				"method": "rhf"
			},
			{
				"type": "occ",
				"energy": -0.2819,
				"method": "rhf"
			},
			{
				"type": "occ",
				"energy": -0.27551,
				"method": "rhf"
			},
			{
				"type": "occ",
				"energy": -0.22146,
				"method": "rhf"
			},
			{
				"type": "unocc",
				"energy": -0.06288,
				"method": "rhf"
			},
			{
				"type": "unocc",
				"energy": -0.03298,
				"method": "rhf"
			},
			{
				"type": "unocc",
				"energy": 0.00345,
				"method": "rhf"
			},
			{
				"type": "unocc",
				"energy": 0.03418,
				"method": "rhf"
			},
			{
				"type": "unocc",
				"energy": 0.07247,
				"method": "rhf"
			}
		],
		"cosmo_sigma_profile": { 
			"-0.025": 0.0,
			"-0.024": 0.0,
			"-0.023": 0.0,
			"-0.022": 0.0,
			"-0.021": 0.0,
			"-0.02": 0.0,
			"-0.019": 0.0637666967489,
			"-0.018": 1.26872126908,
			"-0.017": 0.553472317386,
			"-0.016": 1.05896227932,
			"-0.015": 0.304450564462,
			"-0.014": 0.479135402962,
			"-0.013": 0.535796530176,
			"-0.012": 1.12717783311,
			"-0.011": 1.85006393683,
			"-0.01": 2.61123046364,
			"-0.009": 4.63810256726,
			"-0.008": 7.12478819694,
			"-0.007": 7.68785869963,
			"-0.006": 8.6003752088,
			"-0.005": 7.34269865346,
			"-0.004": 8.64745026958,
			"-0.003": 11.1274831156,
			"-0.002": 14.0783610014,
			"-0.001": 17.8360894536,
			"0.0": 22.3807093906,
			"0.001": 20.2644067785,
			"0.002": 14.0091414226,
			"0.003": 10.6212721958,
			"0.004": 7.64198967677,
			"0.005": 4.7722160408,
			"0.006": 4.41238372103,
			"0.007": 4.57576452754,
			"0.008": 2.67740575635,
			"0.009": 3.19938063381,
			"0.01": 3.89373704946,
			"0.011": 6.10776101124,
			"0.012": 4.45299073484,
			"0.013": 2.29398978638,
			"0.014": 1.98478068006,
			"0.015": 1.23328181237,
			"0.016": 0.164789368839,
			"0.017": 0.0,
			"0.018": 0.0,
			"0.019": 0.0,
			"0.02": 0.0,
			"0.021": 0.0,
			"0.022": 0.0,
			"0.023": 0.0,
			"0.024": 0.0,
			"0.025": 0.0
		}
	}
}
