{
	 "smiles": "COC(=O)C(O)C1=CC=CC=C1", 
	 "Tm": 331.15, 
	 "num_atms": 22, 
	 "gaussian": { 
		 "optdone": 1, 
		 "sigma_profile": "yes", 
		 "theory": "DFT", 
		 "functional": "B3LYP", 
		 "basiset": "6-31G**", 
		 "properties": { 
			 "R2extent": 2835.0962, 
			 "electric_dipole_moment_norm": 2.90289172723, 
			 "electric_quadrupole_moment_norm": 8.471920434, 
			 "total_energy": -574.655234881, 
			 "HOMO_LUMO_gap": 0.22474, 
			 "cosmo_polarized_energy": -9.22, 
			 "cosmo_cavitation_energy": 26.07, 
			 "cosmo_dispersion_energy": -18.8, 
			 "cosmo_repulsion_energy": 1.52, 
			 "cosmo_total_nonelectrostatic_energy": 8.79, 
			 "SMD_solvation_energy": 6.0 
		},
		"coords": [
			{
				"x": -1.6762344911,
				"y": 2.3172889129,
				"z": -1.900154318,
				"element": "C" 
			},
			{
				"x": -0.6924036488,
				"y": 1.9743112647,
				"z": -0.9038457236,
				"element": "O" 
			},
			{
				"x": 0.5748635748,
				"y": 2.2564657867,
				"z": -1.2191957378,
				"element": "C" 
			},
			{
				"x": 0.9258563746,
				"y": 2.8007514871,
				"z": -2.2486939869,
				"element": "O" 
			},
			{
				"x": 1.5768696917,
				"y": 1.8290559984,
				"z": -0.1382172204,
				"element": "C" 
			},
			{
				"x": 2.8262036891,
				"y": 2.393854074,
				"z": -0.4505022385,
				"element": "O" 
			},
			{
				"x": 1.6299648714,
				"y": 0.3036163317,
				"z": -0.0325338183,
				"element": "C" 
			},
			{
				"x": 0.647945761,
				"y": -0.3964642842,
				"z": 0.6783722944,
				"element": "C" 
			},
			{
				"x": 0.693367952,
				"y": -1.7881036279,
				"z": 0.7578009445,
				"element": "C" 
			},
			{
				"x": 1.7228096592,
				"y": -2.493079992,
				"z": 0.1294172915,
				"element": "C" 
			},
			{
				"x": 2.7067480782,
				"y": -1.7972567418,
				"z": -0.5744626195,
				"element": "C" 
			},
			{
				"x": 2.6614619822,
				"y": -0.4042400188,
				"z": -0.6552871204,
				"element": "C" 
			},
			{
				"x": -1.486901372,
				"y": 1.768298806,
				"z": -2.8253082097,
				"element": "H" 
			},
			{
				"x": -1.6497397444,
				"y": 3.3893474662,
				"z": -2.1077656488,
				"element": "H" 
			},
			{
				"x": -2.6363531149,
				"y": 2.0305690084,
				"z": -1.4730006701,
				"element": "H" 
			},
			{
				"x": 1.2153833716,
				"y": 2.234642968,
				"z": 0.8180840562,
				"element": "H" 
			},
			{
				"x": 2.727096595,
				"y": 2.7765693134,
				"z": -1.3396027344,
				"element": "H" 
			},
			{
				"x": -0.1544735391,
				"y": 0.148559197,
				"z": 1.1679261737,
				"element": "H" 
			},
			{
				"x": -0.0712109702,
				"y": -2.3216506627,
				"z": 1.3155790158,
				"element": "H" 
			},
			{
				"x": 1.7607102487,
				"y": -3.5767460009,
				"z": 0.1949048829,
				"element": "H" 
			},
			{
				"x": 3.5150474304,
				"y": -2.3382316452,
				"z": -1.0586513161,
				"element": "H" 
			},
			{
				"x": 3.4338876006,
				"y": 0.1481423588,
				"z": -1.1788632964,
				"element": "H" 
			}
		],
		 "valence_orbital": [ 
			{
				"type": "occ",
				"energy": -0.32027,
				"method": "rhf"
			},
			{
				"type": "occ",
				"energy": -0.30112,
				"method": "rhf"
			},
			{
				"type": "occ",
				"energy": -0.27667,
				"method": "rhf"
			},
			{
				"type": "occ",
				"energy": -0.24797,
				"method": "rhf"
			},
			{
				"type": "occ",
				"energy": -0.24064,
				"method": "rhf"
			},
			{
				"type": "unocc",
				"energy": -0.0159,
				"method": "rhf"
			},
			{
				"type": "unocc",
				"energy": 0.00114,
				"method": "rhf"
			},
			{
				"type": "unocc",
				"energy": 0.01418,
				"method": "rhf"
			},
			{
				"type": "unocc",
				"energy": 0.09473,
				"method": "rhf"
			},
			{
				"type": "unocc",
				"energy": 0.10125,
				"method": "rhf"
			}
		],
		"cosmo_sigma_profile": { 
			"-0.025": 0.0,
			"-0.024": 0.0,
			"-0.023": 0.0,
			"-0.022": 0.0,
			"-0.021": 0.0,
			"-0.02": 0.0,
			"-0.019": 0.0,
			"-0.018": 0.0,
			"-0.017": 0.0,
			"-0.016": 0.0,
			"-0.015": 0.0,
			"-0.014": 0.0,
			"-0.013": 0.0,
			"-0.012": 0.0449027282392,
			"-0.011": 0.476526126292,
			"-0.01": 0.286570961846,
			"-0.009": 0.810622198758,
			"-0.008": 0.423955870219,
			"-0.007": 5.33652277713,
			"-0.006": 13.6031588089,
			"-0.005": 20.2008211664,
			"-0.004": 23.3149638117,
			"-0.003": 19.5297609312,
			"-0.002": 13.4591141906,
			"-0.001": 12.7188159843,
			"0.0": 9.89562211135,
			"0.001": 10.0896950677,
			"0.002": 9.28083705268,
			"0.003": 11.6385548823,
			"0.004": 13.3382484813,
			"0.005": 13.6747922474,
			"0.006": 9.40786202605,
			"0.007": 3.0027069422,
			"0.008": 2.67256482587,
			"0.009": 2.93972149533,
			"0.01": 3.90668408551,
			"0.011": 3.44542661018,
			"0.012": 1.37705208616,
			"0.013": 1.70560920121,
			"0.014": 0.404223529033,
			"0.015": 0.0,
			"0.016": 0.0,
			"0.017": 0.0,
			"0.018": 0.0,
			"0.019": 0.0,
			"0.02": 0.0,
			"0.021": 0.0,
			"0.022": 0.0,
			"0.023": 0.0,
			"0.024": 0.0,
			"0.025": 0.0
		}
	}
}
