{
	 "smiles": "CCC1=NC=C(S1)C(O)=O", 
	 "Tm": 425.15, 
	 "num_atms": 17, 
	 "gaussian": { 
		 "optdone": 1, 
		 "sigma_profile": "yes", 
		 "theory": "DFT", 
		 "functional": "B3LYP", 
		 "basiset": "6-31G**", 
		 "properties": { 
			 "R2extent": 2355.2466, 
			 "electric_dipole_moment_norm": 3.99122099739, 
			 "electric_quadrupole_moment_norm": 20.5282580708, 
			 "total_energy": -836.246832058, 
			 "HOMO_LUMO_gap": 0.19645, 
			 "cosmo_polarized_energy": -14.86, 
			 "cosmo_cavitation_energy": 23.22, 
			 "cosmo_dispersion_energy": -17.52, 
			 "cosmo_repulsion_energy": 1.39, 
			 "cosmo_total_nonelectrostatic_energy": 7.09, 
			 "SMD_solvation_energy": 3.45 
		},
		"coords": [
			{
				"x": -1.7212503768,
				"y": 1.0451600021,
				"z": -1.7016901098,
				"element": "C" 
			},
			{
				"x": -0.833750349,
				"y": -0.2116121428,
				"z": -1.6506809998,
				"element": "C" 
			},
			{
				"x": 0.1245206297,
				"y": -0.1856454387,
				"z": -0.4930897191,
				"element": "C" 
			},
			{
				"x": 1.1616451823,
				"y": 0.6152970462,
				"z": -0.4319718132,
				"element": "N" 
			},
			{
				"x": 1.8347231841,
				"y": 0.4483528382,
				"z": 0.7439381386,
				"element": "C" 
			},
			{
				"x": 1.332445737,
				"y": -0.4902769268,
				"z": 1.6151798702,
				"element": "C" 
			},
			{
				"x": -0.0932133427,
				"y": -1.2014233654,
				"z": 0.9149579204,
				"element": "S" 
			},
			{
				"x": 1.7821385358,
				"y": -0.9118912576,
				"z": 2.958538683,
				"element": "C" 
			},
			{
				"x": 2.9886763662,
				"y": -0.439600205,
				"z": 3.3696358175,
				"element": "O" 
			},
			{
				"x": 1.1307413157,
				"y": -1.6330686826,
				"z": 3.6779565655,
				"element": "O" 
			},
			{
				"x": -2.3749197305,
				"y": 1.0130808275,
				"z": -2.578458829,
				"element": "H" 
			},
			{
				"x": -1.1036724264,
				"y": 1.9449567065,
				"z": -1.7616729576,
				"element": "H" 
			},
			{
				"x": -2.350197544,
				"y": 1.1205265182,
				"z": -0.809374126,
				"element": "H" 
			},
			{
				"x": -1.4539861845,
				"y": -1.1122536897,
				"z": -1.5987755432,
				"element": "H" 
			},
			{
				"x": -0.2402016681,
				"y": -0.2789227409,
				"z": -2.5692302197,
				"element": "H" 
			},
			{
				"x": 2.7067039842,
				"y": 1.0701137653,
				"z": 0.9280497017,
				"element": "H" 
			},
			{
				"x": 3.4417966871,
				"y": 0.0271067453,
				"z": 2.6539876206,
				"element": "H" 
			}
		],
		 "valence_orbital": [ 
			{
				"type": "occ",
				"energy": -0.32503,
				"method": "rhf"
			},
			{
				"type": "occ",
				"energy": -0.30264,
				"method": "rhf"
			},
			{
				"type": "occ",
				"energy": -0.29682,
				"method": "rhf"
			},
			{
				"type": "occ",
				"energy": -0.27431,
				"method": "rhf"
			},
			{
				"type": "occ",
				"energy": -0.2644,
				"method": "rhf"
			},
			{
				"type": "unocc",
				"energy": -0.06795,
				"method": "rhf"
			},
			{
				"type": "unocc",
				"energy": -0.00066,
				"method": "rhf"
			},
			{
				"type": "unocc",
				"energy": 0.00706,
				"method": "rhf"
			},
			{
				"type": "unocc",
				"energy": 0.04839,
				"method": "rhf"
			},
			{
				"type": "unocc",
				"energy": 0.07924,
				"method": "rhf"
			}
		],
		"cosmo_sigma_profile": { 
			"-0.025": 0.0,
			"-0.024": 0.0,
			"-0.023": 0.0,
			"-0.022": 0.0,
			"-0.021": 0.0,
			"-0.02": 0.136297792761,
			"-0.019": 0.982159732524,
			"-0.018": 1.3025163429,
			"-0.017": 1.04868376729,
			"-0.016": 1.15293354877,
			"-0.015": 0.833855592341,
			"-0.014": 0.921652350958,
			"-0.013": 1.05156408159,
			"-0.012": 1.31886435513,
			"-0.011": 1.73729455184,
			"-0.01": 1.29634653509,
			"-0.009": 1.75181346525,
			"-0.008": 1.34650708124,
			"-0.007": 2.9206121886,
			"-0.006": 4.84245221008,
			"-0.005": 6.88139029915,
			"-0.004": 12.2164089516,
			"-0.003": 16.7817157212,
			"-0.002": 17.5969841149,
			"-0.001": 16.7178648427,
			"0.0": 20.8855236168,
			"0.001": 15.8276317161,
			"0.002": 9.02736474988,
			"0.003": 4.73732927063,
			"0.004": 3.60258641799,
			"0.005": 4.58406429015,
			"0.006": 3.93480104281,
			"0.007": 3.33415870141,
			"0.008": 3.63495536078,
			"0.009": 5.3580352677,
			"0.01": 6.11407576829,
			"0.011": 6.30956077074,
			"0.012": 3.96351153982,
			"0.013": 1.85280870389,
			"0.014": 0.736709808313,
			"0.015": 0.22440113678,
			"0.016": 0.0,
			"0.017": 0.0,
			"0.018": 0.0,
			"0.019": 0.0,
			"0.02": 0.0,
			"0.021": 0.0,
			"0.022": 0.0,
			"0.023": 0.0,
			"0.024": 0.0,
			"0.025": 0.0
		}
	}
}
