{
	 "smiles": "OC(=O)C1CCCC(=O)N1", 
	 "Tm": 368.15, 
	 "num_atms": 19, 
	 "gaussian": { 
		 "optdone": 1, 
		 "sigma_profile": "yes", 
		 "theory": "DFT", 
		 "functional": "B3LYP", 
		 "basiset": "6-31G**", 
		 "properties": { 
			 "R2extent": 1395.8108, 
			 "electric_dipole_moment_norm": 2.24742603215, 
			 "electric_quadrupole_moment_norm": 22.7471267788, 
			 "total_energy": -514.511569993, 
			 "HOMO_LUMO_gap": 0.25423, 
			 "cosmo_polarized_energy": -18.13, 
			 "cosmo_cavitation_energy": 21.8, 
			 "cosmo_dispersion_energy": -16.2, 
			 "cosmo_repulsion_energy": 1.33, 
			 "cosmo_total_nonelectrostatic_energy": 6.93, 
			 "SMD_solvation_energy": 5.12 
		},
		"coords": [
			{
				"x": -0.8179734582,
				"y": -1.4306914956,
				"z": 2.045229026,
				"element": "O" 
			},
			{
				"x": -0.6051564839,
				"y": -1.7231869816,
				"z": 0.7497510958,
				"element": "C" 
			},
			{
				"x": -0.1225881575,
				"y": -2.7693564947,
				"z": 0.3895618959,
				"element": "O" 
			},
			{
				"x": -1.045799308,
				"y": -0.6320838006,
				"z": -0.2541018571,
				"element": "C" 
			},
			{
				"x": 0.0289411276,
				"y": -0.4004550563,
				"z": -1.3270861786,
				"element": "C" 
			},
			{
				"x": 1.2933357911,
				"y": 0.2449334512,
				"z": -0.7306041439,
				"element": "C" 
			},
			{
				"x": 0.9811334362,
				"y": 1.2212489315,
				"z": 0.4418728402,
				"element": "C" 
			},
			{
				"x": -0.4683485341,
				"y": 1.6707482282,
				"z": 0.5258535266,
				"element": "C" 
			},
			{
				"x": -0.8271159059,
				"y": 2.8145093629,
				"z": 0.7401106492,
				"element": "O" 
			},
			{
				"x": -1.3946313367,
				"y": 0.6302247555,
				"z": 0.4161642757,
				"element": "N" 
			},
			{
				"x": -1.2006113242,
				"y": -0.5319871765,
				"z": 2.0716466417,
				"element": "H" 
			},
			{
				"x": -1.9539948547,
				"y": -1.0208511905,
				"z": -0.7274807801,
				"element": "H" 
			},
			{
				"x": -0.4073853294,
				"y": 0.2519544675,
				"z": -2.0916950439,
				"element": "H" 
			},
			{
				"x": 0.2692523338,
				"y": -1.3557872654,
				"z": -1.7986716569,
				"element": "H" 
			},
			{
				"x": 1.8285735252,
				"y": 0.7776952243,
				"z": -1.5216886298,
				"element": "H" 
			},
			{
				"x": 1.9666209761,
				"y": -0.5378103013,
				"z": -0.3699573322,
				"element": "H" 
			},
			{
				"x": 1.5955610033,
				"y": 2.1217247924,
				"z": 0.4055969154,
				"element": "H" 
			},
			{
				"x": 1.2015916349,
				"y": 0.7225760219,
				"z": 1.3946965089,
				"element": "H" 
			},
			{
				"x": -2.3448051357,
				"y": 0.9688945271,
				"z": 0.3153022471,
				"element": "H" 
			}
		],
		 "valence_orbital": [ 
			{
				"type": "occ",
				"energy": -0.34661,
				"method": "rhf"
			},
			{
				"type": "occ",
				"energy": -0.32061,
				"method": "rhf"
			},
			{
				"type": "occ",
				"energy": -0.30312,
				"method": "rhf"
			},
			{
				"type": "occ",
				"energy": -0.26997,
				"method": "rhf"
			},
			{
				"type": "occ",
				"energy": -0.25887,
				"method": "rhf"
			},
			{
				"type": "unocc",
				"energy": -0.00464,
				"method": "rhf"
			},
			{
				"type": "unocc",
				"energy": 0.00109,
				"method": "rhf"
			},
			{
				"type": "unocc",
				"energy": 0.05548,
				"method": "rhf"
			},
			{
				"type": "unocc",
				"energy": 0.08652,
				"method": "rhf"
			},
			{
				"type": "unocc",
				"energy": 0.0977,
				"method": "rhf"
			}
		],
		"cosmo_sigma_profile": { 
			"-0.025": 0.0,
			"-0.024": 0.0,
			"-0.023": 0.0,
			"-0.022": 0.0,
			"-0.021": 0.0,
			"-0.02": 0.0,
			"-0.019": 0.0,
			"-0.018": 0.0,
			"-0.017": 0.0,
			"-0.016": 0.0,
			"-0.015": 0.262906133727,
			"-0.014": 1.96401432757,
			"-0.013": 2.15349542856,
			"-0.012": 2.27392111812,
			"-0.011": 3.27792533087,
			"-0.01": 4.47099483443,
			"-0.009": 4.73999640897,
			"-0.008": 4.50884700796,
			"-0.007": 4.07679474491,
			"-0.006": 5.65261347729,
			"-0.005": 12.1627407329,
			"-0.004": 17.2588865255,
			"-0.003": 15.927316444,
			"-0.002": 13.6829504352,
			"-0.001": 11.1254392801,
			"0.0": 4.30432265712,
			"0.001": 3.7002978515,
			"0.002": 3.73848215424,
			"0.003": 2.52821445563,
			"0.004": 3.72758287142,
			"0.005": 3.23715077462,
			"0.006": 2.96123041242,
			"0.007": 3.75269457262,
			"0.008": 4.3024759408,
			"0.009": 4.52772699548,
			"0.01": 6.28343382533,
			"0.011": 6.12366962784,
			"0.012": 8.28304519649,
			"0.013": 7.24198301675,
			"0.014": 2.12634949493,
			"0.015": 0.0859445256644,
			"0.016": 0.0,
			"0.017": 0.0,
			"0.018": 0.0,
			"0.019": 0.0,
			"0.02": 0.0,
			"0.021": 0.0,
			"0.022": 0.0,
			"0.023": 0.0,
			"0.024": 0.0,
			"0.025": 0.0
		}
	}
}
