{
	 "smiles": "COC1=C(C=C(C=C1)C#N)[N+]([O-])=O", 
	 "Tm": 423.15, 
	 "num_atms": 19, 
	 "gaussian": { 
		 "optdone": 1, 
		 "sigma_profile": "yes", 
		 "theory": "DFT", 
		 "functional": "B3LYP", 
		 "basiset": "6-31G**", 
		 "properties": { 
			 "R2extent": 2607.8005, 
			 "electric_dipole_moment_norm": 6.62869052981, 
			 "electric_quadrupole_moment_norm": 20.0041979299, 
			 "total_energy": -643.499557136, 
			 "HOMO_LUMO_gap": 0.16784, 
			 "cosmo_polarized_energy": -16.47, 
			 "cosmo_cavitation_energy": 25.65, 
			 "cosmo_dispersion_energy": -18.1, 
			 "cosmo_repulsion_energy": 1.44, 
			 "cosmo_total_nonelectrostatic_energy": 8.99, 
			 "SMD_solvation_energy": 9.03 
		},
		"coords": [
			{
				"x": -1.8667215403,
				"y": -0.3630279815,
				"z": 2.6326324897,
				"element": "C" 
			},
			{
				"x": -0.7094253265,
				"y": -0.0212389134,
				"z": 1.870880545,
				"element": "O" 
			},
			{
				"x": -0.6352694468,
				"y": -0.3953227432,
				"z": 0.5857856409,
				"element": "C" 
			},
			{
				"x": 0.498407231,
				"y": -0.0091966939,
				"z": -0.1723139012,
				"element": "C" 
			},
			{
				"x": 0.6058238173,
				"y": -0.3173561655,
				"z": -1.5221297515,
				"element": "C" 
			},
			{
				"x": -0.4005437436,
				"y": -1.0513871418,
				"z": -2.1605620651,
				"element": "C" 
			},
			{
				"x": -1.5248668938,
				"y": -1.4518022052,
				"z": -1.4192044747,
				"element": "C" 
			},
			{
				"x": -1.6420905468,
				"y": -1.1227254251,
				"z": -0.076043812,
				"element": "C" 
			},
			{
				"x": -0.2861859462,
				"y": -1.3885560233,
				"z": -3.5475987062,
				"element": "C" 
			},
			{
				"x": -0.202311925,
				"y": -1.6678726528,
				"z": -4.6736728971,
				"element": "N" 
			},
			{
				"x": 1.6224605474,
				"y": 0.730289978,
				"z": 0.4252024635,
				"element": "N" 
			},
			{
				"x": 2.2875896339,
				"y": 1.4350243177,
				"z": -0.3358424073,
				"element": "O" 
			},
			{
				"x": 1.8444037011,
				"y": 0.5807872375,
				"z": 1.621901932,
				"element": "O" 
			},
			{
				"x": -1.6910692374,
				"y": 0.0527479579,
				"z": 3.6242800288,
				"element": "H" 
			},
			{
				"x": -2.772465659,
				"y": 0.0805901937,
				"z": 2.2037130074,
				"element": "H" 
			},
			{
				"x": -1.9858524548,
				"y": -1.4495987429,
				"z": 2.7086344308,
				"element": "H" 
			},
			{
				"x": 1.4811108938,
				"y": 0.022496962,
				"z": -2.061188258,
				"element": "H" 
			},
			{
				"x": -2.3116667329,
				"y": -2.0193311526,
				"z": -1.9046337208,
				"element": "H" 
			},
			{
				"x": -2.5263263715,
				"y": -1.4324208057,
				"z": 0.4656594559,
				"element": "H" 
			}
		],
		 "valence_orbital": [ 
			{
				"type": "occ",
				"energy": -0.31473,
				"method": "rhf"
			},
			{
				"type": "occ",
				"energy": -0.3135,
				"method": "rhf"
			},
			{
				"type": "occ",
				"energy": -0.30624,
				"method": "rhf"
			},
			{
				"type": "occ",
				"energy": -0.28934,
				"method": "rhf"
			},
			{
				"type": "occ",
				"energy": -0.26254,
				"method": "rhf"
			},
			{
				"type": "unocc",
				"energy": -0.0947,
				"method": "rhf"
			},
			{
				"type": "unocc",
				"energy": -0.05953,
				"method": "rhf"
			},
			{
				"type": "unocc",
				"energy": -0.02719,
				"method": "rhf"
			},
			{
				"type": "unocc",
				"energy": 0.02491,
				"method": "rhf"
			},
			{
				"type": "unocc",
				"energy": 0.05152,
				"method": "rhf"
			}
		],
		"cosmo_sigma_profile": { 
			"-0.025": 0.0,
			"-0.024": 0.0,
			"-0.023": 0.0,
			"-0.022": 0.0,
			"-0.021": 0.0,
			"-0.02": 0.0,
			"-0.019": 0.0,
			"-0.018": 0.0,
			"-0.017": 0.0,
			"-0.016": 0.0,
			"-0.015": 0.0,
			"-0.014": 0.0,
			"-0.013": 0.0,
			"-0.012": 0.0,
			"-0.011": 0.0,
			"-0.01": 0.435623021226,
			"-0.009": 5.90240358128,
			"-0.008": 8.87810800732,
			"-0.007": 14.7816187107,
			"-0.006": 12.4213458522,
			"-0.005": 13.9168815927,
			"-0.004": 15.5828583978,
			"-0.003": 11.7700991402,
			"-0.002": 18.0528824542,
			"-0.001": 15.2517162993,
			"0.0": 11.3734262649,
			"0.001": 6.05810037112,
			"0.002": 4.39879950242,
			"0.003": 5.13719160204,
			"0.004": 4.87147968118,
			"0.005": 5.9507853395,
			"0.006": 6.75533607278,
			"0.007": 10.3982907896,
			"0.008": 12.6987099763,
			"0.009": 8.90543327366,
			"0.01": 6.61223878504,
			"0.011": 3.56546185115,
			"0.012": 2.51659708973,
			"0.013": 1.02604242564,
			"0.014": 0.0,
			"0.015": 0.0,
			"0.016": 0.0,
			"0.017": 0.0,
			"0.018": 0.0,
			"0.019": 0.0,
			"0.02": 0.0,
			"0.021": 0.0,
			"0.022": 0.0,
			"0.023": 0.0,
			"0.024": 0.0,
			"0.025": 0.0
		}
	}
}
