{
	 "smiles": "ClC1=C(Br)SC(=C1)S(Cl)(=O)=O", 
	 "Tm": 335.15, 
	 "num_atms": 12, 
	 "gaussian": { 
		 "optdone": 1, 
		 "sigma_profile": "yes", 
		 "theory": "DFT", 
		 "functional": "B3LYP", 
		 "basiset": "6-31G**", 
		 "properties": { 
			 "R2extent": 7183.438, 
			 "electric_dipole_moment_norm": 3.54261663181, 
			 "electric_quadrupole_moment_norm": 6.67778437508, 
			 "total_energy": -4591.53065501, 
			 "HOMO_LUMO_gap": 0.16251, 
			 "cosmo_polarized_energy": -6.98, 
			 "cosmo_cavitation_energy": 26.53, 
			 "cosmo_dispersion_energy": -20.84, 
			 "cosmo_repulsion_energy": 1.6, 
			 "cosmo_total_nonelectrostatic_energy": 7.29, 
			 "SMD_solvation_energy": 1.57 
		},
		"coords": [
			{
				"x": 2.4193075944,
				"y": 2.3348377929,
				"z": 3.2118634694,
				"element": "Cl" 
			},
			{
				"x": 2.2404169834,
				"y": 1.3605879485,
				"z": 1.7934012233,
				"element": "C" 
			},
			{
				"x": 2.8557350647,
				"y": 1.6200842584,
				"z": 0.5880607214,
				"element": "C" 
			},
			{
				"x": 3.9935557417,
				"y": 3.0466127739,
				"z": 0.1786871313,
				"element": "Br" 
			},
			{
				"x": 2.4425587837,
				"y": 0.4541132341,
				"z": -0.6304451901,
				"element": "S" 
			},
			{
				"x": 1.438188749,
				"y": -0.3852367877,
				"z": 0.5168793686,
				"element": "C" 
			},
			{
				"x": 1.4231750081,
				"y": 0.1980143267,
				"z": 1.7564777971,
				"element": "C" 
			},
			{
				"x": 0.5608861002,
				"y": -1.8462439286,
				"z": 0.0790173848,
				"element": "S" 
			},
			{
				"x": 1.9852181829,
				"y": -3.3651680579,
				"z": 0.4994973428,
				"element": "Cl" 
			},
			{
				"x": 0.3741766637,
				"y": -1.8554582642,
				"z": -1.3651142498,
				"element": "O" 
			},
			{
				"x": -0.5250299918,
				"y": -2.0347826573,
				"z": 1.0292636375,
				"element": "O" 
			},
			{
				"x": 0.85611112,
				"y": -0.1776606388,
				"z": 2.5986113636,
				"element": "H" 
			}
		],
		 "valence_orbital": [ 
			{
				"type": "occ",
				"energy": -0.33891,
				"method": "rhf"
			},
			{
				"type": "occ",
				"energy": -0.32836,
				"method": "rhf"
			},
			{
				"type": "occ",
				"energy": -0.32568,
				"method": "rhf"
			},
			{
				"type": "occ",
				"energy": -0.29741,
				"method": "rhf"
			},
			{
				"type": "occ",
				"energy": -0.27138,
				"method": "rhf"
			},
			{
				"type": "unocc",
				"energy": -0.10887,
				"method": "rhf"
			},
			{
				"type": "unocc",
				"energy": -0.06902,
				"method": "rhf"
			},
			{
				"type": "unocc",
				"energy": -0.03944,
				"method": "rhf"
			},
			{
				"type": "unocc",
				"energy": -0.03128,
				"method": "rhf"
			},
			{
				"type": "unocc",
				"energy": -0.00038,
				"method": "rhf"
			}
		],
		"cosmo_sigma_profile": { 
			"-0.025": 0.0,
			"-0.024": 0.0,
			"-0.023": 0.0,
			"-0.022": 0.0,
			"-0.021": 0.0,
			"-0.02": 0.0,
			"-0.019": 0.0,
			"-0.018": 0.0,
			"-0.017": 0.0,
			"-0.016": 0.0,
			"-0.015": 0.0,
			"-0.014": 0.0,
			"-0.013": 0.0,
			"-0.012": 0.0374323219556,
			"-0.011": 0.967288766513,
			"-0.01": 1.01464341009,
			"-0.009": 2.03597122584,
			"-0.008": 2.03241866773,
			"-0.007": 3.43824407539,
			"-0.006": 5.10967403934,
			"-0.005": 7.02412401354,
			"-0.004": 12.9584327232,
			"-0.003": 19.9764837754,
			"-0.002": 29.0153462734,
			"-0.001": 22.3475962248,
			"0.0": 18.8316983672,
			"0.001": 20.8522953388,
			"0.002": 26.891189975,
			"0.003": 23.5946504462,
			"0.004": 3.93684264193,
			"0.005": 3.24596558208,
			"0.006": 3.81644274007,
			"0.007": 9.13307585372,
			"0.008": 7.89063278215,
			"0.009": 0.828484415712,
			"0.01": 0.0,
			"0.011": 0.0,
			"0.012": 0.0,
			"0.013": 0.0,
			"0.014": 0.0,
			"0.015": 0.0,
			"0.016": 0.0,
			"0.017": 0.0,
			"0.018": 0.0,
			"0.019": 0.0,
			"0.02": 0.0,
			"0.021": 0.0,
			"0.022": 0.0,
			"0.023": 0.0,
			"0.024": 0.0,
			"0.025": 0.0
		}
	}
}
