{
	 "smiles": "CC1=CC=C(C=C1)C(=O)C(=O)C1=CC=C(C)C=C1", 
	 "Tm": 376.15, 
	 "num_atms": 32, 
	 "gaussian": { 
		 "optdone": 1, 
		 "sigma_profile": "yes", 
		 "theory": "DFT", 
		 "functional": "B3LYP", 
		 "basiset": "6-31G**", 
		 "properties": { 
			 "R2extent": 6947.8291, 
			 "electric_dipole_moment_norm": 3.08844707256, 
			 "electric_quadrupole_moment_norm": 20.6701534885, 
			 "total_energy": -768.596485438, 
			 "HOMO_LUMO_gap": 0.15157, 
			 "cosmo_polarized_energy": -10.43, 
			 "cosmo_cavitation_energy": 36.59, 
			 "cosmo_dispersion_energy": -26.21, 
			 "cosmo_repulsion_energy": 2.01, 
			 "cosmo_total_nonelectrostatic_energy": 12.39, 
			 "SMD_solvation_energy": 7.19 
		},
		"coords": [
			{
				"x": -3.5312175263,
				"y": 3.927763044,
				"z": -3.2847027521,
				"element": "C" 
			},
			{
				"x": -2.8442821239,
				"y": 2.665888604,
				"z": -2.8238084123,
				"element": "C" 
			},
			{
				"x": -3.5602367452,
				"y": 1.4605495983,
				"z": -2.7179866511,
				"element": "C" 
			},
			{
				"x": -2.9406888339,
				"y": 0.3000901101,
				"z": -2.277787003,
				"element": "C" 
			},
			{
				"x": -1.5769791768,
				"y": 0.303769048,
				"z": -1.9322133087,
				"element": "C" 
			},
			{
				"x": -0.8545569708,
				"y": 1.5027678941,
				"z": -2.0375187817,
				"element": "C" 
			},
			{
				"x": -1.4870089845,
				"y": 2.6637041551,
				"z": -2.4779995717,
				"element": "C" 
			},
			{
				"x": -0.9904146609,
				"y": -0.9676108933,
				"z": -1.4350057648,
				"element": "C" 
			},
			{
				"x": -1.6466486955,
				"y": -1.9974759386,
				"z": -1.3320920424,
				"element": "O" 
			},
			{
				"x": 0.5126132846,
				"y": -1.0320674349,
				"z": -1.0973402094,
				"element": "C" 
			},
			{
				"x": 1.3055265228,
				"y": -0.5922219257,
				"z": -1.9217699908,
				"element": "O" 
			},
			{
				"x": 0.9539178432,
				"y": -1.6759001778,
				"z": 0.1669348584,
				"element": "C" 
			},
			{
				"x": 0.0674196474,
				"y": -2.1673744561,
				"z": 1.1381067537,
				"element": "C" 
			},
			{
				"x": 0.5601535435,
				"y": -2.7245572716,
				"z": 2.3164701339,
				"element": "C" 
			},
			{
				"x": 1.9367173576,
				"y": -2.80864364,
				"z": 2.5610137169,
				"element": "C" 
			},
			{
				"x": 2.4677647293,
				"y": -3.3969766421,
				"z": 3.8449478166,
				"element": "C" 
			},
			{
				"x": 2.818052707,
				"y": -2.3165304088,
				"z": 1.5823970624,
				"element": "C" 
			},
			{
				"x": 2.3376562677,
				"y": -1.7574204808,
				"z": 0.4072767369,
				"element": "C" 
			},
			{
				"x": -2.8110378406,
				"y": 4.719958978,
				"z": -3.5054961423,
				"element": "H" 
			},
			{
				"x": -4.1284673809,
				"y": 3.7492751778,
				"z": -4.1851612221,
				"element": "H" 
			},
			{
				"x": -4.215974561,
				"y": 4.3055560107,
				"z": -2.5155050284,
				"element": "H" 
			},
			{
				"x": -4.613941655,
				"y": 1.4402365132,
				"z": -2.9854535082,
				"element": "H" 
			},
			{
				"x": -3.4903041142,
				"y": -0.6315386028,
				"z": -2.1924661144,
				"element": "H" 
			},
			{
				"x": 0.2010377443,
				"y": 1.5244976328,
				"z": -1.7959926748,
				"element": "H" 
			},
			{
				"x": -0.9148822475,
				"y": 3.5841073868,
				"z": -2.5598083077,
				"element": "H" 
			},
			{
				"x": -1.0013079323,
				"y": -2.1332944809,
				"z": 0.9656362783,
				"element": "H" 
			},
			{
				"x": -0.1369599202,
				"y": -3.106001886,
				"z": 3.0578849276,
				"element": "H" 
			},
			{
				"x": 1.6837725153,
				"y": -3.9131556377,
				"z": 4.4052202307,
				"element": "H" 
			},
			{
				"x": 3.2750138339,
				"y": -4.1112363507,
				"z": 3.6511637861,
				"element": "H" 
			},
			{
				"x": 2.8805752752,
				"y": -2.6149601005,
				"z": 4.4940519308,
				"element": "H" 
			},
			{
				"x": 3.8905094498,
				"y": -2.3761807759,
				"z": 1.751271694,
				"element": "H" 
			},
			{
				"x": 3.0144786482,
				"y": -1.3744170482,
				"z": -0.3493684406,
				"element": "H" 
			}
		],
		 "valence_orbital": [ 
			{
				"type": "occ",
				"energy": -0.25913,
				"method": "rhf"
			},
			{
				"type": "occ",
				"energy": -0.25797,
				"method": "rhf"
			},
			{
				"type": "occ",
				"energy": -0.25255,
				"method": "rhf"
			},
			{
				"type": "occ",
				"energy": -0.24953,
				"method": "rhf"
			},
			{
				"type": "occ",
				"energy": -0.23055,
				"method": "rhf"
			},
			{
				"type": "unocc",
				"energy": -0.07898,
				"method": "rhf"
			},
			{
				"type": "unocc",
				"energy": -0.04747,
				"method": "rhf"
			},
			{
				"type": "unocc",
				"energy": -0.00794,
				"method": "rhf"
			},
			{
				"type": "unocc",
				"energy": -0.00679,
				"method": "rhf"
			},
			{
				"type": "unocc",
				"energy": 0.02412,
				"method": "rhf"
			}
		],
		"cosmo_sigma_profile": { 
			"-0.025": 0.0,
			"-0.024": 0.0,
			"-0.023": 0.0,
			"-0.022": 0.0,
			"-0.021": 0.0,
			"-0.02": 0.0,
			"-0.019": 0.0,
			"-0.018": 0.0,
			"-0.017": 0.0,
			"-0.016": 0.0,
			"-0.015": 0.0,
			"-0.014": 0.0,
			"-0.013": 0.0,
			"-0.012": 0.0,
			"-0.011": 0.0,
			"-0.01": 0.0,
			"-0.009": 0.0,
			"-0.008": 0.0,
			"-0.007": 0.268883475417,
			"-0.006": 10.7913101645,
			"-0.005": 26.2204292243,
			"-0.004": 31.1810367755,
			"-0.003": 26.1972146848,
			"-0.002": 25.8328542492,
			"-0.001": 26.6024935992,
			"0.0": 27.4129599331,
			"0.001": 20.6704018213,
			"0.002": 19.968366267,
			"0.003": 24.3381382014,
			"0.004": 23.34586946,
			"0.005": 3.67403055142,
			"0.006": 3.4150718973,
			"0.007": 3.09711228972,
			"0.008": 3.56231108857,
			"0.009": 3.81859547757,
			"0.01": 4.97266987652,
			"0.011": 6.60331855125,
			"0.012": 0.471879070057,
			"0.013": 0.0,
			"0.014": 0.0,
			"0.015": 0.0,
			"0.016": 0.0,
			"0.017": 0.0,
			"0.018": 0.0,
			"0.019": 0.0,
			"0.02": 0.0,
			"0.021": 0.0,
			"0.022": 0.0,
			"0.023": 0.0,
			"0.024": 0.0,
			"0.025": 0.0
		}
	}
}
