{
	 "smiles": "NC1=C(Br)C=C(F)C(F)=C1F", 
	 "Tm": 332.15, 
	 "num_atms": 14, 
	 "gaussian": { 
		 "optdone": 1, 
		 "sigma_profile": "yes", 
		 "theory": "DFT", 
		 "functional": "B3LYP", 
		 "basiset": "6-31G**", 
		 "properties": { 
			 "R2extent": 3621.0544, 
			 "electric_dipole_moment_norm": 2.38397052415, 
			 "electric_quadrupole_moment_norm": 3.28175868095, 
			 "total_energy": -3156.08827241, 
			 "HOMO_LUMO_gap": 0.19895, 
			 "cosmo_polarized_energy": -5.84, 
			 "cosmo_cavitation_energy": 22.23, 
			 "cosmo_dispersion_energy": -16.7, 
			 "cosmo_repulsion_energy": 1.28, 
			 "cosmo_total_nonelectrostatic_energy": 6.8, 
			 "SMD_solvation_energy": 4.13 
		},
		"coords": [
			{
				"x": -0.556380989,
				"y": -0.8469699725,
				"z": -1.9262346199,
				"element": "N" 
			},
			{
				"x": -0.2328752864,
				"y": 0.2554125875,
				"z": -1.1584545962,
				"element": "C" 
			},
			{
				"x": -0.3947179844,
				"y": 1.5883417524,
				"z": -1.5737056209,
				"element": "C" 
			},
			{
				"x": -1.1993468964,
				"y": 1.9317403976,
				"z": -3.2713189058,
				"element": "Br" 
			},
			{
				"x": 0.005710887,
				"y": 2.6674295765,
				"z": -0.7856933715,
				"element": "C" 
			},
			{
				"x": 0.5810558169,
				"y": 2.4310380506,
				"z": 0.4528005185,
				"element": "C" 
			},
			{
				"x": 0.9777113544,
				"y": 3.4515410576,
				"z": 1.2328851722,
				"element": "F" 
			},
			{
				"x": 0.7529428522,
				"y": 1.1243857439,
				"z": 0.9102055448,
				"element": "C" 
			},
			{
				"x": 1.2971173125,
				"y": 0.884637015,
				"z": 2.1086824019,
				"element": "F" 
			},
			{
				"x": 0.347325181,
				"y": 0.0688621607,
				"z": 0.1078435404,
				"element": "C" 
			},
			{
				"x": 0.4991483717,
				"y": -1.1963835631,
				"z": 0.5549547775,
				"element": "F" 
			},
			{
				"x": -1.2470999494,
				"y": -0.6893415222,
				"z": -2.6463995932,
				"element": "H" 
			},
			{
				"x": -0.6722260606,
				"y": -1.7075268044,
				"z": -1.4111028771,
				"element": "H" 
			},
			{
				"x": -0.1271646096,
				"y": 3.6867335205,
				"z": -1.1257623705,
				"element": "H" 
			}
		],
		 "valence_orbital": [ 
			{
				"type": "occ",
				"energy": -0.33025,
				"method": "rhf"
			},
			{
				"type": "occ",
				"energy": -0.31159,
				"method": "rhf"
			},
			{
				"type": "occ",
				"energy": -0.30604,
				"method": "rhf"
			},
			{
				"type": "occ",
				"energy": -0.25294,
				"method": "rhf"
			},
			{
				"type": "occ",
				"energy": -0.22012,
				"method": "rhf"
			},
			{
				"type": "unocc",
				"energy": -0.02117,
				"method": "rhf"
			},
			{
				"type": "unocc",
				"energy": -0.01341,
				"method": "rhf"
			},
			{
				"type": "unocc",
				"energy": -0.00229,
				"method": "rhf"
			},
			{
				"type": "unocc",
				"energy": 0.05712,
				"method": "rhf"
			},
			{
				"type": "unocc",
				"energy": 0.08636,
				"method": "rhf"
			}
		],
		"cosmo_sigma_profile": { 
			"-0.025": 0.0,
			"-0.024": 0.0,
			"-0.023": 0.0,
			"-0.022": 0.0,
			"-0.021": 0.0,
			"-0.02": 0.0,
			"-0.019": 0.0,
			"-0.018": 0.0,
			"-0.017": 0.0,
			"-0.016": 0.0,
			"-0.015": 0.0,
			"-0.014": 0.139393997312,
			"-0.013": 0.722907692214,
			"-0.012": 1.81048402824,
			"-0.011": 2.0393279436,
			"-0.01": 2.94649671031,
			"-0.009": 2.08973965915,
			"-0.008": 3.48333021543,
			"-0.007": 3.29760886673,
			"-0.006": 4.11555871737,
			"-0.005": 3.87919761653,
			"-0.004": 5.73197331212,
			"-0.003": 4.96929514087,
			"-0.002": 14.00808703,
			"-0.001": 18.2735758076,
			"0.0": 17.9420660894,
			"0.001": 18.4204940345,
			"0.002": 20.0664642191,
			"0.003": 34.7847170129,
			"0.004": 18.392925833,
			"0.005": 1.28822941603,
			"0.006": 0.476532381566,
			"0.007": 0.531127025639,
			"0.008": 0.785530407376,
			"0.009": 0.834884823933,
			"0.01": 0.591799252156,
			"0.011": 0.425867429835,
			"0.012": 0.40785685102,
			"0.013": 0.0671963162018,
			"0.014": 0.0,
			"0.015": 0.0,
			"0.016": 0.0,
			"0.017": 0.0,
			"0.018": 0.0,
			"0.019": 0.0,
			"0.02": 0.0,
			"0.021": 0.0,
			"0.022": 0.0,
			"0.023": 0.0,
			"0.024": 0.0,
			"0.025": 0.0
		}
	}
}
