{
	 "smiles": "ClC1=NC=C(C=C1)S(=O)(=O)N(CC1=CC=CC=C1)CC1=CC=CC=C1", 
	 "Tm": 380.15, 
	 "num_atms": 42, 
	 "gaussian": { 
		 "optdone": 1, 
		 "sigma_profile": "yes", 
		 "theory": "DFT", 
		 "functional": "B3LYP", 
		 "basiset": "6-31G**", 
		 "properties": { 
			 "R2extent": 13072.8076, 
			 "electric_dipole_moment_norm": 5.41250899399, 
			 "electric_quadrupole_moment_norm": 23.8520178128, 
			 "total_energy": -1852.51910501, 
			 "HOMO_LUMO_gap": 0.18618, 
			 "cosmo_polarized_energy": -15.69, 
			 "cosmo_cavitation_energy": 48.63, 
			 "cosmo_dispersion_energy": -32.87, 
			 "cosmo_repulsion_energy": 2.44, 
			 "cosmo_total_nonelectrostatic_energy": 18.19, 
			 "SMD_solvation_energy": 5.49 
		},
		"coords": [
			{
				"x": -1.2252949899,
				"y": -0.2829830394,
				"z": -7.4935621158,
				"element": "Cl" 
			},
			{
				"x": -0.4750113231,
				"y": 0.0766986442,
				"z": -5.946549608,
				"element": "C" 
			},
			{
				"x": 0.8451719932,
				"y": 0.0771183398,
				"z": -5.9136483298,
				"element": "N" 
			},
			{
				"x": 1.4342680346,
				"y": 0.3480620817,
				"z": -4.7399618112,
				"element": "C" 
			},
			{
				"x": 0.7067678725,
				"y": 0.6182233365,
				"z": -3.5809676487,
				"element": "C" 
			},
			{
				"x": -0.690792659,
				"y": 0.6145912065,
				"z": -3.6344557887,
				"element": "C" 
			},
			{
				"x": -1.3049553964,
				"y": 0.3350843858,
				"z": -4.847752721,
				"element": "C" 
			},
			{
				"x": 1.577265386,
				"y": 1.0331110598,
				"z": -2.0616185903,
				"element": "S" 
			},
			{
				"x": 1.1695358844,
				"y": 2.3787201343,
				"z": -1.6438183275,
				"element": "O" 
			},
			{
				"x": 2.9885218276,
				"y": 0.7244173098,
				"z": -2.3250409874,
				"element": "O" 
			},
			{
				"x": 0.9576749338,
				"y": -0.0221340839,
				"z": -0.9320962302,
				"element": "N" 
			},
			{
				"x": 1.2366820453,
				"y": -1.4599354487,
				"z": -1.0659133788,
				"element": "C" 
			},
			{
				"x": 2.1507205469,
				"y": -2.021839267,
				"z": 0.0101393549,
				"element": "C" 
			},
			{
				"x": 3.4099174253,
				"y": -1.4542691739,
				"z": 0.2526603754,
				"element": "C" 
			},
			{
				"x": 4.2485104592,
				"y": -1.9968707952,
				"z": 1.22533939,
				"element": "C" 
			},
			{
				"x": 3.8442881259,
				"y": -3.1123254222,
				"z": 1.9648718885,
				"element": "C" 
			},
			{
				"x": 2.5944149489,
				"y": -3.6834388132,
				"z": 1.7273552842,
				"element": "C" 
			},
			{
				"x": 1.7521712815,
				"y": -3.1369053725,
				"z": 0.7556481314,
				"element": "C" 
			},
			{
				"x": 0.3040980349,
				"y": 0.4759909372,
				"z": 0.2970584098,
				"element": "C" 
			},
			{
				"x": -1.2023203266,
				"y": 0.3050823961,
				"z": 0.2985311875,
				"element": "C" 
			},
			{
				"x": -2.0287514635,
				"y": 1.3111376079,
				"z": -0.2251049787,
				"element": "C" 
			},
			{
				"x": -3.415649209,
				"y": 1.1543758478,
				"z": -0.2424166467,
				"element": "C" 
			},
			{
				"x": -3.995708201,
				"y": -0.0100161505,
				"z": 0.2675948988,
				"element": "C" 
			},
			{
				"x": -3.1833468283,
				"y": -1.0110284261,
				"z": 0.8023502269,
				"element": "C" 
			},
			{
				"x": -1.795927128,
				"y": -0.8512072412,
				"z": 0.8206381452,
				"element": "C" 
			},
			{
				"x": 2.5196087961,
				"y": 0.3466296297,
				"z": -4.7186991945,
				"element": "H" 
			},
			{
				"x": -1.2838816085,
				"y": 0.8121982992,
				"z": -2.7470737469,
				"element": "H" 
			},
			{
				"x": -2.3831525839,
				"y": 0.3137111086,
				"z": -4.9493646664,
				"element": "H" 
			},
			{
				"x": 1.682527826,
				"y": -1.6204883418,
				"z": -2.0523836207,
				"element": "H" 
			},
			{
				"x": 0.2823400469,
				"y": -2.0008438786,
				"z": -1.0599534251,
				"element": "H" 
			},
			{
				"x": 3.7255325571,
				"y": -0.5914273173,
				"z": -0.3266692521,
				"element": "H" 
			},
			{
				"x": 5.2225779866,
				"y": -1.5505969907,
				"z": 1.4045947852,
				"element": "H" 
			},
			{
				"x": 4.500893643,
				"y": -3.5320148288,
				"z": 2.7215732677,
				"element": "H" 
			},
			{
				"x": 2.2713709007,
				"y": -4.5493434948,
				"z": 2.2982201801,
				"element": "H" 
			},
			{
				"x": 0.7787998156,
				"y": -3.5862483767,
				"z": 0.5705671516,
				"element": "H" 
			},
			{
				"x": 0.7517979211,
				"y": -0.0668390572,
				"z": 1.1360283667,
				"element": "H" 
			},
			{
				"x": 0.5656851988,
				"y": 1.5283722032,
				"z": 0.4063444159,
				"element": "H" 
			},
			{
				"x": -1.5765033066,
				"y": 2.2230860339,
				"z": -0.6073750616,
				"element": "H" 
			},
			{
				"x": -4.0440907713,
				"y": 1.945221919,
				"z": -0.6424215025,
				"element": "H" 
			},
			{
				"x": -5.0750790974,
				"y": -0.1307933902,
				"z": 0.2580213705,
				"element": "H" 
			},
			{
				"x": -3.6292423793,
				"y": -1.9127341611,
				"z": 1.2125185157,
				"element": "H" 
			},
			{
				"x": -1.1678362202,
				"y": -1.6244494101,
				"z": 1.2566922866,
				"element": "H" 
			}
		],
		 "valence_orbital": [ 
			{
				"type": "occ",
				"energy": -0.26477,
				"method": "rhf"
			},
			{
				"type": "occ",
				"energy": -0.26297,
				"method": "rhf"
			},
			{
				"type": "occ",
				"energy": -0.2591,
				"method": "rhf"
			},
			{
				"type": "occ",
				"energy": -0.25666,
				"method": "rhf"
			},
			{
				"type": "occ",
				"energy": -0.24674,
				"method": "rhf"
			},
			{
				"type": "unocc",
				"energy": -0.06056,
				"method": "rhf"
			},
			{
				"type": "unocc",
				"energy": -0.04904,
				"method": "rhf"
			},
			{
				"type": "unocc",
				"energy": -0.02127,
				"method": "rhf"
			},
			{
				"type": "unocc",
				"energy": -0.01755,
				"method": "rhf"
			},
			{
				"type": "unocc",
				"energy": -0.01239,
				"method": "rhf"
			}
		],
		"cosmo_sigma_profile": { 
			"-0.025": 0.0,
			"-0.024": 0.0,
			"-0.023": 0.0,
			"-0.022": 0.0,
			"-0.021": 0.0,
			"-0.02": 0.0,
			"-0.019": 0.0,
			"-0.018": 0.0,
			"-0.017": 0.0,
			"-0.016": 0.0,
			"-0.015": 0.0,
			"-0.014": 0.0,
			"-0.013": 0.0,
			"-0.012": 0.0,
			"-0.011": 0.122251079377,
			"-0.01": 0.330604675766,
			"-0.009": 2.11005442673,
			"-0.008": 2.21259429598,
			"-0.007": 5.43576418916,
			"-0.006": 15.0717741232,
			"-0.005": 29.4754891765,
			"-0.004": 39.0740599927,
			"-0.003": 40.6804703704,
			"-0.002": 38.1706273192,
			"-0.001": 32.5831135751,
			"0.0": 26.2341358918,
			"0.001": 23.1335986896,
			"0.002": 22.3096233099,
			"0.003": 27.648483318,
			"0.004": 25.5616407502,
			"0.005": 20.9567417873,
			"0.006": 11.5869440848,
			"0.007": 4.53938786657,
			"0.008": 4.83864159818,
			"0.009": 5.24250008882,
			"0.01": 7.03730201187,
			"0.011": 5.97660369787,
			"0.012": 1.38871369881,
			"0.013": 0.667914230941,
			"0.014": 0.107539041219,
			"0.015": 0.0,
			"0.016": 0.0,
			"0.017": 0.0,
			"0.018": 0.0,
			"0.019": 0.0,
			"0.02": 0.0,
			"0.021": 0.0,
			"0.022": 0.0,
			"0.023": 0.0,
			"0.024": 0.0,
			"0.025": 0.0
		}
	}
}
