{
	 "smiles": "COC(=O)CC1=CC(=O)N(N1)C1=CC(Cl)=CC=C1", 
	 "Tm": 290.15, 
	 "num_atms": 29, 
	 "gaussian": { 
		 "optdone": 1, 
		 "sigma_profile": "yes", 
		 "theory": "DFT", 
		 "functional": "B3LYP", 
		 "basiset": "6-31G**", 
		 "properties": { 
			 "R2extent": 7890.4521, 
			 "electric_dipole_moment_norm": 8.04270648041, 
			 "electric_quadrupole_moment_norm": 11.353501193, 
			 "total_energy": -1259.2512367, 
			 "HOMO_LUMO_gap": 0.18006, 
			 "cosmo_polarized_energy": -22.62, 
			 "cosmo_cavitation_energy": 36.48, 
			 "cosmo_dispersion_energy": -26.04, 
			 "cosmo_repulsion_energy": 2.04, 
			 "cosmo_total_nonelectrostatic_energy": 12.48, 
			 "SMD_solvation_energy": 8.2 
		},
		"coords": [
			{
				"x": 3.578807572,
				"y": -3.5105219579,
				"z": -1.6081622262,
				"element": "C" 
			},
			{
				"x": 3.4374352618,
				"y": -2.1352439986,
				"z": -1.2046061333,
				"element": "O" 
			},
			{
				"x": 2.2639173069,
				"y": -1.5570252958,
				"z": -1.5353570428,
				"element": "C" 
			},
			{
				"x": 1.3614428073,
				"y": -2.1212615234,
				"z": -2.1057179468,
				"element": "O" 
			},
			{
				"x": 2.2773445512,
				"y": -0.0866667812,
				"z": -1.1154336817,
				"element": "C" 
			},
			{
				"x": 0.9143060543,
				"y": 0.5175230412,
				"z": -1.0120685551,
				"element": "C" 
			},
			{
				"x": 0.2674303711,
				"y": 1.3773747554,
				"z": -1.8309520697,
				"element": "C" 
			},
			{
				"x": -1.0202328224,
				"y": 1.7175500937,
				"z": -1.2308138633,
				"element": "C" 
			},
			{
				"x": -1.9243462394,
				"y": 2.4388577919,
				"z": -1.6262083462,
				"element": "O" 
			},
			{
				"x": -1.0349999886,
				"y": 0.9902783971,
				"z": -0.0088276204,
				"element": "N" 
			},
			{
				"x": 0.1071638939,
				"y": 0.1761892518,
				"z": 0.0730664067,
				"element": "N" 
			},
			{
				"x": -2.1358731661,
				"y": 0.7159616858,
				"z": 0.8264814692,
				"element": "C" 
			},
			{
				"x": -3.1991257872,
				"y": 1.6324320509,
				"z": 0.8883401173,
				"element": "C" 
			},
			{
				"x": -4.2595404251,
				"y": 1.3594305284,
				"z": 1.7459210079,
				"element": "C" 
			},
			{
				"x": -5.5940686959,
				"y": 2.5027288986,
				"z": 1.8244545337,
				"element": "Cl" 
			},
			{
				"x": -4.2968663755,
				"y": 0.2203336143,
				"z": 2.5505031512,
				"element": "C" 
			},
			{
				"x": -3.2315666013,
				"y": -0.6752864939,
				"z": 2.4719315645,
				"element": "C" 
			},
			{
				"x": -2.1556324143,
				"y": -0.4430871205,
				"z": 1.6173520007,
				"element": "C" 
			},
			{
				"x": 3.4978647677,
				"y": -3.6013307904,
				"z": -2.6939553792,
				"element": "H" 
			},
			{
				"x": 2.8056838087,
				"y": -4.1266532146,
				"z": -1.1431917643,
				"element": "H" 
			},
			{
				"x": 4.5687564918,
				"y": -3.8149325741,
				"z": -1.2697892707,
				"element": "H" 
			},
			{
				"x": 2.831148713,
				"y": 0.0011967364,
				"z": -0.1735427683,
				"element": "H" 
			},
			{
				"x": 2.859067553,
				"y": 0.4626372312,
				"z": -1.8631254532,
				"element": "H" 
			},
			{
				"x": 0.5992638334,
				"y": 1.7551519455,
				"z": -2.7859033981,
				"element": "H" 
			},
			{
				"x": 0.5467446975,
				"y": 0.2301998236,
				"z": 0.9908412223,
				"element": "H" 
			},
			{
				"x": -3.1916769861,
				"y": 2.514172505,
				"z": 0.2637515373,
				"element": "H" 
			},
			{
				"x": -5.1370752678,
				"y": 0.0418379217,
				"z": 3.2111499187,
				"element": "H" 
			},
			{
				"x": -3.2438978739,
				"y": -1.5759450154,
				"z": 3.0785100445,
				"element": "H" 
			},
			{
				"x": -1.3544750397,
				"y": -1.1681015064,
				"z": 1.5388525453,
				"element": "H" 
			}
		],
		 "valence_orbital": [ 
			{
				"type": "occ",
				"energy": -0.29071,
				"method": "rhf"
			},
			{
				"type": "occ",
				"energy": -0.25703,
				"method": "rhf"
			},
			{
				"type": "occ",
				"energy": -0.25144,
				"method": "rhf"
			},
			{
				"type": "occ",
				"energy": -0.24295,
				"method": "rhf"
			},
			{
				"type": "occ",
				"energy": -0.21748,
				"method": "rhf"
			},
			{
				"type": "unocc",
				"energy": -0.03742,
				"method": "rhf"
			},
			{
				"type": "unocc",
				"energy": -0.01163,
				"method": "rhf"
			},
			{
				"type": "unocc",
				"energy": -0.00727,
				"method": "rhf"
			},
			{
				"type": "unocc",
				"energy": 0.00289,
				"method": "rhf"
			},
			{
				"type": "unocc",
				"energy": 0.03499,
				"method": "rhf"
			}
		],
		"cosmo_sigma_profile": { 
			"-0.025": 0.0,
			"-0.024": 0.0,
			"-0.023": 0.0,
			"-0.022": 0.0,
			"-0.021": 0.0,
			"-0.02": 0.0,
			"-0.019": 0.0,
			"-0.018": 0.0,
			"-0.017": 0.0775443884535,
			"-0.016": 1.4737288296,
			"-0.015": 1.80432835365,
			"-0.014": 1.78016999961,
			"-0.013": 1.12952546386,
			"-0.012": 1.56015816058,
			"-0.011": 1.9417470324,
			"-0.01": 1.48207652999,
			"-0.009": 3.74329223736,
			"-0.008": 7.55467687882,
			"-0.007": 11.0749198101,
			"-0.006": 17.2783206672,
			"-0.005": 18.4203630736,
			"-0.004": 19.0548555196,
			"-0.003": 17.3447872953,
			"-0.002": 13.7325199909,
			"-0.001": 14.3892303274,
			"0.0": 18.3289493497,
			"0.001": 21.171447376,
			"0.002": 23.7094001704,
			"0.003": 24.8144503929,
			"0.004": 19.7627420232,
			"0.005": 12.2167762449,
			"0.006": 3.73952514188,
			"0.007": 4.49558512628,
			"0.008": 5.36243089716,
			"0.009": 4.40218777549,
			"0.01": 3.53460634362,
			"0.011": 6.67851960401,
			"0.012": 4.56277456218,
			"0.013": 3.74779252195,
			"0.014": 3.06031752929,
			"0.015": 0.539658479381,
			"0.016": 0.0,
			"0.017": 0.0,
			"0.018": 0.0,
			"0.019": 0.0,
			"0.02": 0.0,
			"0.021": 0.0,
			"0.022": 0.0,
			"0.023": 0.0,
			"0.024": 0.0,
			"0.025": 0.0
		}
	}
}
