{
	 "smiles": "COC1=CC(C=O)=CC(OC)=C1OCC1=CC=CC=C1", 
	 "Tm": 336.15, 
	 "num_atms": 36, 
	 "gaussian": { 
		 "optdone": 1, 
		 "sigma_profile": "yes", 
		 "theory": "DFT", 
		 "functional": "B3LYP", 
		 "basiset": "6-31G**", 
		 "properties": { 
			 "R2extent": 7311.3625, 
			 "electric_dipole_moment_norm": 4.37530486823, 
			 "electric_quadrupole_moment_norm": 20.6886223048, 
			 "total_energy": -920.185610276, 
			 "HOMO_LUMO_gap": 0.17794, 
			 "cosmo_polarized_energy": -12.33, 
			 "cosmo_cavitation_energy": 40.3, 
			 "cosmo_dispersion_energy": -27.31, 
			 "cosmo_repulsion_energy": 2.1, 
			 "cosmo_total_nonelectrostatic_energy": 15.1, 
			 "SMD_solvation_energy": 9.24 
		},
		"coords": [
			{
				"x": 4.1347616442,
				"y": 0.9761652408,
				"z": 0.1077675716,
				"element": "C" 
			},
			{
				"x": 3.0448944255,
				"y": 1.8954705204,
				"z": -0.0367993609,
				"element": "O" 
			},
			{
				"x": 2.1692219467,
				"y": 1.587317599,
				"z": -1.0527872039,
				"element": "C" 
			},
			{
				"x": 2.1337558772,
				"y": 2.3824843586,
				"z": -2.1915467113,
				"element": "C" 
			},
			{
				"x": 1.2221752023,
				"y": 2.0943656345,
				"z": -3.216779766,
				"element": "C" 
			},
			{
				"x": 1.1782402193,
				"y": 2.9379757502,
				"z": -4.4302393655,
				"element": "C" 
			},
			{
				"x": 1.8926471665,
				"y": 3.9024234931,
				"z": -4.6305402267,
				"element": "O" 
			},
			{
				"x": 0.3625434584,
				"y": 0.9949872769,
				"z": -3.1049487357,
				"element": "C" 
			},
			{
				"x": 0.3826385304,
				"y": 0.1985942638,
				"z": -1.9613916217,
				"element": "C" 
			},
			{
				"x": -0.5263511423,
				"y": -0.8237469861,
				"z": -1.8442521989,
				"element": "O" 
			},
			{
				"x": 0.0280212673,
				"y": -2.1462727223,
				"z": -1.8562210577,
				"element": "C" 
			},
			{
				"x": 1.2779480782,
				"y": 0.5004043361,
				"z": -0.9158349083,
				"element": "C" 
			},
			{
				"x": 1.2678071231,
				"y": -0.2902861842,
				"z": 0.1989534127,
				"element": "O" 
			},
			{
				"x": 0.931198679,
				"y": 0.3536253532,
				"z": 1.4550836997,
				"element": "C" 
			},
			{
				"x": 0.1763189895,
				"y": -0.6248420145,
				"z": 2.318584845,
				"element": "C" 
			},
			{
				"x": 0.5871077509,
				"y": -0.8799647086,
				"z": 3.6302655597,
				"element": "C" 
			},
			{
				"x": -0.1377905648,
				"y": -1.7538087314,
				"z": 4.4444700843,
				"element": "C" 
			},
			{
				"x": -1.2759679652,
				"y": -2.387383593,
				"z": 3.9463374756,
				"element": "C" 
			},
			{
				"x": -1.6880593102,
				"y": -2.1429174716,
				"z": 2.6326318797,
				"element": "C" 
			},
			{
				"x": -0.9688771352,
				"y": -1.2653214999,
				"z": 1.8237332252,
				"element": "C" 
			},
			{
				"x": 3.7786042651,
				"y": -0.0318144263,
				"z": 0.3468138428,
				"element": "H" 
			},
			{
				"x": 4.7470655482,
				"y": 1.3547523573,
				"z": 0.9284092513,
				"element": "H" 
			},
			{
				"x": 4.7375229998,
				"y": 0.9421085536,
				"z": -0.8079359391,
				"element": "H" 
			},
			{
				"x": 2.8084690011,
				"y": 3.2260156976,
				"z": -2.2886933201,
				"element": "H" 
			},
			{
				"x": 0.4201251428,
				"y": 2.6231851312,
				"z": -5.1820156464,
				"element": "H" 
			},
			{
				"x": -0.3488053655,
				"y": 0.75854457,
				"z": -3.8912784551,
				"element": "H" 
			},
			{
				"x": 0.6820422639,
				"y": -2.3106269535,
				"z": -0.9957218334,
				"element": "H" 
			},
			{
				"x": 0.5827240695,
				"y": -2.3240354776,
				"z": -2.7860786139,
				"element": "H" 
			},
			{
				"x": -0.8213776406,
				"y": -2.8302615837,
				"z": -1.8076838786,
				"element": "H" 
			},
			{
				"x": 0.3180115455,
				"y": 1.23598836,
				"z": 1.2366633095,
				"element": "H" 
			},
			{
				"x": 1.8445090438,
				"y": 0.696683344,
				"z": 1.9501290649,
				"element": "H" 
			},
			{
				"x": 1.4785229951,
				"y": -0.3927431481,
				"z": 4.0180712138,
				"element": "H" 
			},
			{
				"x": 0.1912201759,
				"y": -1.9429329652,
				"z": 5.4622966188,
				"element": "H" 
			},
			{
				"x": -1.8394506846,
				"y": -3.0701067067,
				"z": 4.5759586796,
				"element": "H" 
			},
			{
				"x": -2.5736843866,
				"y": -2.6355246068,
				"z": 2.2409841136,
				"element": "H" 
			},
			{
				"x": -1.2810332141,
				"y": -1.0771020606,
				"z": 0.8001949952,
				"element": "H" 
			}
		],
		 "valence_orbital": [ 
			{
				"type": "occ",
				"energy": -0.25431,
				"method": "rhf"
			},
			{
				"type": "occ",
				"energy": -0.25232,
				"method": "rhf"
			},
			{
				"type": "occ",
				"energy": -0.25065,
				"method": "rhf"
			},
			{
				"type": "occ",
				"energy": -0.24659,
				"method": "rhf"
			},
			{
				"type": "occ",
				"energy": -0.2376,
				"method": "rhf"
			},
			{
				"type": "unocc",
				"energy": -0.05966,
				"method": "rhf"
			},
			{
				"type": "unocc",
				"energy": -0.01323,
				"method": "rhf"
			},
			{
				"type": "unocc",
				"energy": -0.00774,
				"method": "rhf"
			},
			{
				"type": "unocc",
				"energy": -0.00427,
				"method": "rhf"
			},
			{
				"type": "unocc",
				"energy": 0.04137,
				"method": "rhf"
			}
		],
		"cosmo_sigma_profile": { 
			"-0.025": 0.0,
			"-0.024": 0.0,
			"-0.023": 0.0,
			"-0.022": 0.0,
			"-0.021": 0.0,
			"-0.02": 0.0,
			"-0.019": 0.0,
			"-0.018": 0.0,
			"-0.017": 0.0,
			"-0.016": 0.0,
			"-0.015": 0.0,
			"-0.014": 0.0,
			"-0.013": 0.0,
			"-0.012": 0.0,
			"-0.011": 0.0,
			"-0.01": 0.0,
			"-0.009": 0.0,
			"-0.008": 1.38624767865,
			"-0.007": 4.32765404113,
			"-0.006": 15.8336815304,
			"-0.005": 25.8214354014,
			"-0.004": 30.7179227415,
			"-0.003": 38.3632875558,
			"-0.002": 30.0867658792,
			"-0.001": 24.4998282846,
			"0.0": 19.1741594334,
			"0.001": 22.621465894,
			"0.002": 23.2600290967,
			"0.003": 15.9528153984,
			"0.004": 14.8690832961,
			"0.005": 15.6632954063,
			"0.006": 11.1828184742,
			"0.007": 4.45946509362,
			"0.008": 3.81444161097,
			"0.009": 4.34543526045,
			"0.01": 4.40223507253,
			"0.011": 5.96187083128,
			"0.012": 3.49150657752,
			"0.013": 0.897119628842,
			"0.014": 0.0,
			"0.015": 0.0,
			"0.016": 0.0,
			"0.017": 0.0,
			"0.018": 0.0,
			"0.019": 0.0,
			"0.02": 0.0,
			"0.021": 0.0,
			"0.022": 0.0,
			"0.023": 0.0,
			"0.024": 0.0,
			"0.025": 0.0
		}
	}
}
