{
	 "smiles": "COC(=O)C1=C(C=C(OC(F)F)C(OC)=C1)[N+]([O-])=O", 
	 "Tm": 370.15, 
	 "num_atms": 28, 
	 "gaussian": { 
		 "optdone": 1, 
		 "sigma_profile": "yes", 
		 "theory": "DFT", 
		 "functional": "B3LYP", 
		 "basiset": "6-31G**", 
		 "properties": { 
			 "R2extent": 6542.8774, 
			 "electric_dipole_moment_norm": 5.56021985716, 
			 "electric_quadrupole_moment_norm": 15.8094893678, 
			 "total_energy": -1092.13488706, 
			 "HOMO_LUMO_gap": 0.16712, 
			 "cosmo_polarized_energy": -15.58, 
			 "cosmo_cavitation_energy": 35.35, 
			 "cosmo_dispersion_energy": -24.21, 
			 "cosmo_repulsion_energy": 1.86, 
			 "cosmo_total_nonelectrostatic_energy": 13.0, 
			 "SMD_solvation_energy": 11.78 
		},
		"coords": [
			{
				"x": 3.355243256,
				"y": -1.5022165355,
				"z": -0.4080513928,
				"element": "C" 
			},
			{
				"x": 1.9448326635,
				"y": -1.2320247839,
				"z": -0.3068218577,
				"element": "O" 
			},
			{
				"x": 1.6056402221,
				"y": 0.0653612539,
				"z": -0.3162850455,
				"element": "C" 
			},
			{
				"x": 2.3682634717,
				"y": 0.9805556476,
				"z": -0.5391815521,
				"element": "O" 
			},
			{
				"x": 0.1234722786,
				"y": 0.252719508,
				"z": -0.1412183809,
				"element": "C" 
			},
			{
				"x": -0.6545816906,
				"y": -0.3494679587,
				"z": 0.8530456247,
				"element": "C" 
			},
			{
				"x": -2.0401776088,
				"y": -0.1898237362,
				"z": 0.8821345249,
				"element": "C" 
			},
			{
				"x": -2.6611136615,
				"y": 0.5937773064,
				"z": -0.0749930581,
				"element": "C" 
			},
			{
				"x": -4.0399879102,
				"y": 0.6796479765,
				"z": -0.0812848321,
				"element": "O" 
			},
			{
				"x": -4.5860724229,
				"y": 1.8844690152,
				"z": 0.3291153946,
				"element": "C" 
			},
			{
				"x": -4.3948879019,
				"y": 2.0455869749,
				"z": 1.6658107223,
				"element": "F" 
			},
			{
				"x": -5.9050795659,
				"y": 1.7939331447,
				"z": 0.0998751626,
				"element": "F" 
			},
			{
				"x": -1.8984837981,
				"y": 1.2446349451,
				"z": -1.0707014438,
				"element": "C" 
			},
			{
				"x": -2.5910817849,
				"y": 2.0083293594,
				"z": -1.9467674015,
				"element": "O" 
			},
			{
				"x": -1.8756704727,
				"y": 2.6747731309,
				"z": -2.9871426417,
				"element": "C" 
			},
			{
				"x": -0.5123131439,
				"y": 1.0616941869,
				"z": -1.0878330246,
				"element": "C" 
			},
			{
				"x": -0.041897436,
				"y": -1.0887473716,
				"z": 1.9627595011,
				"element": "N" 
			},
			{
				"x": 1.1084147374,
				"y": -0.7886290986,
				"z": 2.2797652919,
				"element": "O" 
			},
			{
				"x": -0.7335455801,
				"y": -1.9332314887,
				"z": 2.5300985636,
				"element": "O" 
			},
			{
				"x": 3.4422681244,
				"y": -2.5876773964,
				"z": -0.4343716195,
				"element": "H" 
			},
			{
				"x": 3.8762559498,
				"y": -1.0969839498,
				"z": 0.4625331344,
				"element": "H" 
			},
			{
				"x": 3.7672700954,
				"y": -1.0566436845,
				"z": -1.3161705359,
				"element": "H" 
			},
			{
				"x": -2.6289402701,
				"y": -0.6667281952,
				"z": 1.6550433271,
				"element": "H" 
			},
			{
				"x": -4.1668578871,
				"y": 2.7486336217,
				"z": -0.1939894852,
				"element": "H" 
			},
			{
				"x": -1.1484153942,
				"y": 3.3853287705,
				"z": -2.5783580704,
				"element": "H" 
			},
			{
				"x": -1.3631291015,
				"y": 1.956146053,
				"z": -3.6363098036,
				"element": "H" 
			},
			{
				"x": -2.6280353905,
				"y": 3.2127045836,
				"z": -3.5636903823,
				"element": "H" 
			},
			{
				"x": 0.102810222,
				"y": 1.5357787205,
				"z": -1.8418107195,
				"element": "H" 
			}
		],
		 "valence_orbital": [ 
			{
				"type": "occ",
				"energy": -0.30602,
				"method": "rhf"
			},
			{
				"type": "occ",
				"energy": -0.30109,
				"method": "rhf"
			},
			{
				"type": "occ",
				"energy": -0.29332,
				"method": "rhf"
			},
			{
				"type": "occ",
				"energy": -0.2794,
				"method": "rhf"
			},
			{
				"type": "occ",
				"energy": -0.25908,
				"method": "rhf"
			},
			{
				"type": "unocc",
				"energy": -0.09196,
				"method": "rhf"
			},
			{
				"type": "unocc",
				"energy": -0.05108,
				"method": "rhf"
			},
			{
				"type": "unocc",
				"energy": -0.01512,
				"method": "rhf"
			},
			{
				"type": "unocc",
				"energy": 0.0201,
				"method": "rhf"
			},
			{
				"type": "unocc",
				"energy": 0.06196,
				"method": "rhf"
			}
		],
		"cosmo_sigma_profile": { 
			"-0.025": 0.0,
			"-0.024": 0.0,
			"-0.023": 0.0,
			"-0.022": 0.0,
			"-0.021": 0.0,
			"-0.02": 0.0,
			"-0.019": 0.0,
			"-0.018": 0.0,
			"-0.017": 0.0,
			"-0.016": 0.0,
			"-0.015": 0.0,
			"-0.014": 0.0,
			"-0.013": 0.0,
			"-0.012": 0.0,
			"-0.011": 0.00800861278518,
			"-0.01": 0.887759465209,
			"-0.009": 3.40652738644,
			"-0.008": 6.86060148905,
			"-0.007": 13.3610015678,
			"-0.006": 19.6394922176,
			"-0.005": 19.1996297566,
			"-0.004": 22.4891302462,
			"-0.003": 16.9769679445,
			"-0.002": 19.5192703979,
			"-0.001": 19.5075421742,
			"0.0": 15.6061240226,
			"0.001": 13.059431863,
			"0.002": 13.6446088484,
			"0.003": 24.4353880044,
			"0.004": 18.9733423276,
			"0.005": 10.7715863113,
			"0.006": 8.62166712733,
			"0.007": 12.3835763731,
			"0.008": 8.30550646019,
			"0.009": 5.08592176754,
			"0.01": 4.18293047311,
			"0.011": 4.73579260973,
			"0.012": 0.966186846407,
			"0.013": 0.0,
			"0.014": 0.0,
			"0.015": 0.0,
			"0.016": 0.0,
			"0.017": 0.0,
			"0.018": 0.0,
			"0.019": 0.0,
			"0.02": 0.0,
			"0.021": 0.0,
			"0.022": 0.0,
			"0.023": 0.0,
			"0.024": 0.0,
			"0.025": 0.0
		}
	}
}
