{
	 "smiles": "NCCS(=O)(=O)C1=CC=C(Br)C=C1", 
	 "Tm": 361.15, 
	 "num_atms": 23, 
	 "gaussian": { 
		 "optdone": 1, 
		 "sigma_profile": "yes", 
		 "theory": "DFT", 
		 "functional": "B3LYP", 
		 "basiset": "6-31G**", 
		 "properties": { 
			 "R2extent": 5813.3136, 
			 "electric_dipole_moment_norm": 4.9489846888, 
			 "electric_quadrupole_moment_norm": 13.3987595736, 
			 "total_energy": -3485.59632303, 
			 "HOMO_LUMO_gap": 0.20553, 
			 "cosmo_polarized_energy": -16.35, 
			 "cosmo_cavitation_energy": 29.63, 
			 "cosmo_dispersion_energy": -22.48, 
			 "cosmo_repulsion_energy": 1.75, 
			 "cosmo_total_nonelectrostatic_energy": 8.9, 
			 "SMD_solvation_energy": 2.75 
		},
		"coords": [
			{
				"x": -2.4109114369,
				"y": -0.4572314222,
				"z": 1.7631482469,
				"element": "N" 
			},
			{
				"x": -1.9096563274,
				"y": 0.8864293546,
				"z": 1.4800114462,
				"element": "C" 
			},
			{
				"x": -1.723196093,
				"y": 1.1556091899,
				"z": -0.0138783274,
				"element": "C" 
			},
			{
				"x": -0.8316483227,
				"y": -0.0974033121,
				"z": -1.006380163,
				"element": "S" 
			},
			{
				"x": -0.4335082442,
				"y": 0.5852276285,
				"z": -2.250086445,
				"element": "O" 
			},
			{
				"x": -1.6680782215,
				"y": -1.3073406855,
				"z": -1.0557454741,
				"element": "O" 
			},
			{
				"x": 0.6769395156,
				"y": -0.4741050097,
				"z": -0.0972360613,
				"element": "C" 
			},
			{
				"x": 1.8778892827,
				"y": 0.0819872757,
				"z": -0.5413164644,
				"element": "C" 
			},
			{
				"x": 3.063124381,
				"y": -0.22814992,
				"z": 0.1248459148,
				"element": "C" 
			},
			{
				"x": 3.0189358758,
				"y": -1.0889407786,
				"z": 1.2218317049,
				"element": "C" 
			},
			{
				"x": 4.6385484206,
				"y": -1.5117868961,
				"z": 2.1385318171,
				"element": "Br" 
			},
			{
				"x": 1.8196919519,
				"y": -1.6501225146,
				"z": 1.6641290235,
				"element": "C" 
			},
			{
				"x": 0.6351364278,
				"y": -1.345088261,
				"z": 0.9949663318,
				"element": "C" 
			},
			{
				"x": -3.1314822534,
				"y": -0.7329440892,
				"z": 1.1021080013,
				"element": "H" 
			},
			{
				"x": -2.8075398291,
				"y": -0.4991964129,
				"z": 2.6968862188,
				"element": "H" 
			},
			{
				"x": -0.946407049,
				"y": 1.0115434799,
				"z": 1.9902698192,
				"element": "H" 
			},
			{
				"x": -2.561080637,
				"y": 1.699092507,
				"z": 1.8459080139,
				"element": "H" 
			},
			{
				"x": -1.1930311538,
				"y": 2.0973376594,
				"z": -0.1741596308,
				"element": "H" 
			},
			{
				"x": -2.6851398379,
				"y": 1.2104583793,
				"z": -0.5361906922,
				"element": "H" 
			},
			{
				"x": 1.8793985865,
				"y": 0.7329137628,
				"z": -1.4088948325,
				"element": "H" 
			},
			{
				"x": 4.0077213331,
				"y": 0.1878032239,
				"z": -0.2058063388,
				"element": "H" 
			},
			{
				"x": 1.813863105,
				"y": -2.3206895121,
				"z": 2.5157102064,
				"element": "H" 
			},
			{
				"x": -0.3166694741,
				"y": -1.7521036469,
				"z": 1.3221476847,
				"element": "H" 
			}
		],
		 "valence_orbital": [ 
			{
				"type": "occ",
				"energy": -0.29257,
				"method": "rhf"
			},
			{
				"type": "occ",
				"energy": -0.28527,
				"method": "rhf"
			},
			{
				"type": "occ",
				"energy": -0.27782,
				"method": "rhf"
			},
			{
				"type": "occ",
				"energy": -0.259,
				"method": "rhf"
			},
			{
				"type": "occ",
				"energy": -0.25111,
				"method": "rhf"
			},
			{
				"type": "unocc",
				"energy": -0.04558,
				"method": "rhf"
			},
			{
				"type": "unocc",
				"energy": -0.0279,
				"method": "rhf"
			},
			{
				"type": "unocc",
				"energy": -0.00255,
				"method": "rhf"
			},
			{
				"type": "unocc",
				"energy": 0.05708,
				"method": "rhf"
			},
			{
				"type": "unocc",
				"energy": 0.06805,
				"method": "rhf"
			}
		],
		"cosmo_sigma_profile": { 
			"-0.025": 0.0,
			"-0.024": 0.0,
			"-0.023": 0.0,
			"-0.022": 0.0,
			"-0.021": 0.0,
			"-0.02": 0.0,
			"-0.019": 0.0,
			"-0.018": 0.0,
			"-0.017": 0.0,
			"-0.016": 0.0,
			"-0.015": 0.0,
			"-0.014": 0.0,
			"-0.013": 0.0,
			"-0.012": 0.0,
			"-0.011": 0.549098387291,
			"-0.01": 1.77962986285,
			"-0.009": 3.01828580156,
			"-0.008": 10.5903782827,
			"-0.007": 13.0362444989,
			"-0.006": 12.7986307276,
			"-0.005": 15.7617020958,
			"-0.004": 18.7288880732,
			"-0.003": 15.6296176547,
			"-0.002": 12.8701623347,
			"-0.001": 11.5151459017,
			"0.0": 15.6269389434,
			"0.001": 22.8874592241,
			"0.002": 17.0880587014,
			"0.003": 10.3762652987,
			"0.004": 14.4533287187,
			"0.005": 3.50855272088,
			"0.006": 3.15809563617,
			"0.007": 3.50146054705,
			"0.008": 3.55834304324,
			"0.009": 4.35785243252,
			"0.01": 5.04778357355,
			"0.011": 8.48719156225,
			"0.012": 8.43130482679,
			"0.013": 1.66752824812,
			"0.014": 0.0,
			"0.015": 0.0,
			"0.016": 0.0,
			"0.017": 0.0,
			"0.018": 0.0,
			"0.019": 0.0,
			"0.02": 0.0,
			"0.021": 0.0,
			"0.022": 0.0,
			"0.023": 0.0,
			"0.024": 0.0,
			"0.025": 0.0
		}
	}
}
