{
	 "smiles": "CC1=CC(=O)CCC1", 
	 "Tm": 252.15, 
	 "num_atms": 18, 
	 "gaussian": { 
		 "optdone": 1, 
		 "sigma_profile": "yes", 
		 "theory": "DFT", 
		 "functional": "B3LYP", 
		 "basiset": "6-31G**", 
		 "properties": { 
			 "R2extent": 1332.0535, 
			 "electric_dipole_moment_norm": 4.15153400323, 
			 "electric_quadrupole_moment_norm": 10.6082291397, 
			 "total_energy": -347.995209693, 
			 "HOMO_LUMO_gap": 0.18851, 
			 "cosmo_polarized_energy": -8.83, 
			 "cosmo_cavitation_energy": 20.38, 
			 "cosmo_dispersion_energy": -15.22, 
			 "cosmo_repulsion_energy": 1.28, 
			 "cosmo_total_nonelectrostatic_energy": 6.44, 
			 "SMD_solvation_energy": 3.86 
		},
		"coords": [
			{
				"x": 2.3770978518,
				"y": -1.9733412431,
				"z": 1.5027472271,
				"element": "C" 
			},
			{
				"x": 1.0951783226,
				"y": -1.3055232001,
				"z": 1.0907383414,
				"element": "C" 
			},
			{
				"x": 0.1240475195,
				"y": -1.0095410372,
				"z": 1.9792465463,
				"element": "C" 
			},
			{
				"x": -1.1196520645,
				"y": -0.3000877016,
				"z": 1.6203708884,
				"element": "C" 
			},
			{
				"x": -1.9837549417,
				"y": -0.0602608399,
				"z": 2.452847296,
				"element": "O" 
			},
			{
				"x": -1.24919846,
				"y": 0.1598312098,
				"z": 0.1714850066,
				"element": "C" 
			},
			{
				"x": -0.5135026874,
				"y": -0.7728164837,
				"z": -0.7975451477,
				"element": "C" 
			},
			{
				"x": 0.9493642595,
				"y": -0.9624249822,
				"z": -0.3757633834,
				"element": "C" 
			},
			{
				"x": 2.4904651459,
				"y": -2.9412764174,
				"z": 0.997616166,
				"element": "H" 
			},
			{
				"x": 2.4253359053,
				"y": -2.1374348195,
				"z": 2.5819216256,
				"element": "H" 
			},
			{
				"x": 3.2425047147,
				"y": -1.3664286018,
				"z": 1.2059440884,
				"element": "H" 
			},
			{
				"x": 0.2271525402,
				"y": -1.2670036987,
				"z": 3.030722519,
				"element": "H" 
			},
			{
				"x": -2.3129825068,
				"y": 0.253898949,
				"z": -0.0635303755,
				"element": "H" 
			},
			{
				"x": -0.8194793058,
				"y": 1.171309145,
				"z": 0.1139290797,
				"element": "H" 
			},
			{
				"x": -1.0106473592,
				"y": -1.751045834,
				"z": -0.8036001608,
				"element": "H" 
			},
			{
				"x": -0.5661689046,
				"y": -0.3852771448,
				"z": -1.8206989368,
				"element": "H" 
			},
			{
				"x": 1.4262663629,
				"y": -1.7426504394,
				"z": -0.9824801076,
				"element": "H" 
			},
			{
				"x": 1.5231736077,
				"y": -0.0433268605,
				"z": -0.5756506727,
				"element": "H" 
			}
		],
		 "valence_orbital": [ 
			{
				"type": "occ",
				"energy": -0.34584,
				"method": "rhf"
			},
			{
				"type": "occ",
				"energy": -0.33562,
				"method": "rhf"
			},
			{
				"type": "occ",
				"energy": -0.33236,
				"method": "rhf"
			},
			{
				"type": "occ",
				"energy": -0.25777,
				"method": "rhf"
			},
			{
				"type": "occ",
				"energy": -0.23111,
				"method": "rhf"
			},
			{
				"type": "unocc",
				"energy": -0.0426,
				"method": "rhf"
			},
			{
				"type": "unocc",
				"energy": 0.06171,
				"method": "rhf"
			},
			{
				"type": "unocc",
				"energy": 0.08586,
				"method": "rhf"
			},
			{
				"type": "unocc",
				"energy": 0.11272,
				"method": "rhf"
			},
			{
				"type": "unocc",
				"energy": 0.12762,
				"method": "rhf"
			}
		],
		"cosmo_sigma_profile": { 
			"-0.025": 0.0,
			"-0.024": 0.0,
			"-0.023": 0.0,
			"-0.022": 0.0,
			"-0.021": 0.0,
			"-0.02": 0.0,
			"-0.019": 0.0,
			"-0.018": 0.0,
			"-0.017": 0.0,
			"-0.016": 0.0,
			"-0.015": 0.0,
			"-0.014": 0.0,
			"-0.013": 0.0,
			"-0.012": 0.0,
			"-0.011": 0.0,
			"-0.01": 0.0,
			"-0.009": 0.0,
			"-0.008": 0.0,
			"-0.007": 0.0,
			"-0.006": 0.19518331149,
			"-0.005": 10.5631509429,
			"-0.004": 22.4560612137,
			"-0.003": 24.3734752902,
			"-0.002": 24.4872057771,
			"-0.001": 21.6947703053,
			"0.0": 13.5618917304,
			"0.001": 5.6087886835,
			"0.002": 5.81651243199,
			"0.003": 4.8604247835,
			"0.004": 2.97718080574,
			"0.005": 1.62539795407,
			"0.006": 1.0096822233,
			"0.007": 2.08718263453,
			"0.008": 1.12791881443,
			"0.009": 1.25478713996,
			"0.01": 2.06375203579,
			"0.011": 1.87951839647,
			"0.012": 2.93254654985,
			"0.013": 4.96141429616,
			"0.014": 3.22868901775,
			"0.015": 0.555235515951,
			"0.016": 0.0,
			"0.017": 0.0,
			"0.018": 0.0,
			"0.019": 0.0,
			"0.02": 0.0,
			"0.021": 0.0,
			"0.022": 0.0,
			"0.023": 0.0,
			"0.024": 0.0,
			"0.025": 0.0
		}
	}
}
