{
	 "smiles": "BrC1=CC=C(NC(=O)C=C)C=C1", 
	 "Tm": 471.15, 
	 "num_atms": 20, 
	 "gaussian": { 
		 "optdone": 1, 
		 "sigma_profile": "yes", 
		 "theory": "DFT", 
		 "functional": "B3LYP", 
		 "basiset": "6-31G**", 
		 "properties": { 
			 "R2extent": 6373.629, 
			 "electric_dipole_moment_norm": 4.4312920407, 
			 "electric_quadrupole_moment_norm": 9.41465904215, 
			 "total_energy": -3049.15012789, 
			 "HOMO_LUMO_gap": 0.16886, 
			 "cosmo_polarized_energy": -12.61, 
			 "cosmo_cavitation_energy": 27.24, 
			 "cosmo_dispersion_energy": -20.22, 
			 "cosmo_repulsion_energy": 1.6, 
			 "cosmo_total_nonelectrostatic_energy": 8.62, 
			 "SMD_solvation_energy": 4.78 
		},
		"coords": [
			{
				"x": 4.2564203623,
				"y": 1.3489736107,
				"z": -3.6317289178,
				"element": "Br" 
			},
			{
				"x": 2.7241314519,
				"y": 1.1730064068,
				"z": -2.5024201008,
				"element": "C" 
			},
			{
				"x": 2.4640804996,
				"y": -0.0408962643,
				"z": -1.8707403561,
				"element": "C" 
			},
			{
				"x": 1.349297643,
				"y": -0.1796414704,
				"z": -1.0450129545,
				"element": "C" 
			},
			{
				"x": 0.4860692979,
				"y": 0.9108286067,
				"z": -0.8509301724,
				"element": "C" 
			},
			{
				"x": -0.6645829841,
				"y": 0.8520882073,
				"z": -0.0416931105,
				"element": "N" 
			},
			{
				"x": -1.1199904086,
				"y": -0.1929583511,
				"z": 0.7361254189,
				"element": "C" 
			},
			{
				"x": -0.5345285506,
				"y": -1.2613340802,
				"z": 0.8698502155,
				"element": "O" 
			},
			{
				"x": -2.419143274,
				"y": 0.0524404025,
				"z": 1.4360555112,
				"element": "C" 
			},
			{
				"x": -3.4126954963,
				"y": 0.834326444,
				"z": 1.0052694726,
				"element": "C" 
			},
			{
				"x": 0.7628391536,
				"y": 2.127640617,
				"z": -1.4950026796,
				"element": "C" 
			},
			{
				"x": 1.8761419748,
				"y": 2.2634774157,
				"z": -2.318136516,
				"element": "C" 
			},
			{
				"x": 3.1300009984,
				"y": -0.8835001309,
				"z": -2.0189195242,
				"element": "H" 
			},
			{
				"x": 1.1442594949,
				"y": -1.1158372935,
				"z": -0.5458793559,
				"element": "H" 
			},
			{
				"x": -1.18223429,
				"y": 1.7153810772,
				"z": 0.0355071598,
				"element": "H" 
			},
			{
				"x": -2.5357336786,
				"y": -0.5532639288,
				"z": 2.3304749271,
				"element": "H" 
			},
			{
				"x": -3.3550408733,
				"y": 1.3993791677,
				"z": 0.0780727533,
				"element": "H" 
			},
			{
				"x": -4.3454733934,
				"y": 0.9132417574,
				"z": 1.5548817683,
				"element": "H" 
			},
			{
				"x": 0.1007836136,
				"y": 2.9788151887,
				"z": -1.3527186063,
				"element": "H" 
			},
			{
				"x": 2.0805984591,
				"y": 3.2072326177,
				"z": -2.8104549326,
				"element": "H" 
			}
		],
		 "valence_orbital": [ 
			{
				"type": "occ",
				"energy": -0.28651,
				"method": "rhf"
			},
			{
				"type": "occ",
				"energy": -0.28495,
				"method": "rhf"
			},
			{
				"type": "occ",
				"energy": -0.26535,
				"method": "rhf"
			},
			{
				"type": "occ",
				"energy": -0.26282,
				"method": "rhf"
			},
			{
				"type": "occ",
				"energy": -0.22188,
				"method": "rhf"
			},
			{
				"type": "unocc",
				"energy": -0.05302,
				"method": "rhf"
			},
			{
				"type": "unocc",
				"energy": -0.0151,
				"method": "rhf"
			},
			{
				"type": "unocc",
				"energy": -0.00282,
				"method": "rhf"
			},
			{
				"type": "unocc",
				"energy": 0.00942,
				"method": "rhf"
			},
			{
				"type": "unocc",
				"energy": 0.06683,
				"method": "rhf"
			}
		],
		"cosmo_sigma_profile": { 
			"-0.025": 0.0,
			"-0.024": 0.0,
			"-0.023": 0.0,
			"-0.022": 0.0,
			"-0.021": 0.0,
			"-0.02": 0.0,
			"-0.019": 0.0,
			"-0.018": 0.0,
			"-0.017": 0.0,
			"-0.016": 0.0119938640729,
			"-0.015": 0.791418150546,
			"-0.014": 1.71481132217,
			"-0.013": 0.877113494808,
			"-0.012": 1.77994756467,
			"-0.011": 1.39826583722,
			"-0.01": 1.65028762398,
			"-0.009": 1.9799405243,
			"-0.008": 2.42811643495,
			"-0.007": 7.91402621658,
			"-0.006": 12.2193119891,
			"-0.005": 10.8710269257,
			"-0.004": 12.316086453,
			"-0.003": 12.8422754781,
			"-0.002": 12.3833832275,
			"-0.001": 13.648124263,
			"0.0": 14.9319391632,
			"0.001": 17.0031819396,
			"0.002": 22.0881513174,
			"0.003": 24.842527231,
			"0.004": 20.8701828473,
			"0.005": 11.0092791971,
			"0.006": 1.68600437892,
			"0.007": 2.18436650778,
			"0.008": 1.28855771669,
			"0.009": 0.947461980267,
			"0.01": 1.83561929197,
			"0.011": 2.19066420842,
			"0.012": 2.60983343044,
			"0.013": 2.80302855677,
			"0.014": 1.06805610839,
			"0.015": 0.0,
			"0.016": 0.0,
			"0.017": 0.0,
			"0.018": 0.0,
			"0.019": 0.0,
			"0.02": 0.0,
			"0.021": 0.0,
			"0.022": 0.0,
			"0.023": 0.0,
			"0.024": 0.0,
			"0.025": 0.0
		}
	}
}
