{
	 "smiles": "CC1=C(C)C(Cl)=NC(=N1)C1=CC=NC=C1", 
	 "Tm": 386.15, 
	 "num_atms": 25, 
	 "gaussian": { 
		 "optdone": 1, 
		 "sigma_profile": "yes", 
		 "theory": "DFT", 
		 "functional": "B3LYP", 
		 "basiset": "6-31G**", 
		 "properties": { 
			 "R2extent": 4707.8396, 
			 "electric_dipole_moment_norm": 4.73564470585, 
			 "electric_quadrupole_moment_norm": 9.32891765855, 
			 "total_energy": -1049.66044363, 
			 "HOMO_LUMO_gap": 0.18285, 
			 "cosmo_polarized_energy": -9.27, 
			 "cosmo_cavitation_energy": 30.93, 
			 "cosmo_dispersion_energy": -22.76, 
			 "cosmo_repulsion_energy": 1.77, 
			 "cosmo_total_nonelectrostatic_energy": 9.93, 
			 "SMD_solvation_energy": 1.68 
		},
		"coords": [
			{
				"x": -1.6197659836,
				"y": -2.0289024306,
				"z": 2.1457676068,
				"element": "C" 
			},
			{
				"x": -0.7509910356,
				"y": -1.6022796453,
				"z": 0.9883761883,
				"element": "C" 
			},
			{
				"x": -1.0356123359,
				"y": -1.9802995427,
				"z": -0.3413260778,
				"element": "C" 
			},
			{
				"x": -2.2118476381,
				"y": -2.8312827905,
				"z": -0.7340326183,
				"element": "C" 
			},
			{
				"x": -0.1158602498,
				"y": -1.4883348233,
				"z": -1.2780162722,
				"element": "C" 
			},
			{
				"x": -0.3366566663,
				"y": -1.875427368,
				"z": -2.9837760732,
				"element": "Cl" 
			},
			{
				"x": 0.9291093735,
				"y": -0.7410662009,
				"z": -0.9901884337,
				"element": "N" 
			},
			{
				"x": 1.1091712601,
				"y": -0.438622152,
				"z": 0.3060933473,
				"element": "C" 
			},
			{
				"x": 0.3082962668,
				"y": -0.8421411301,
				"z": 1.2989890501,
				"element": "N" 
			},
			{
				"x": 2.2818862205,
				"y": 0.4034819618,
				"z": 0.6539430714,
				"element": "C" 
			},
			{
				"x": 3.1621363755,
				"y": 0.861367998,
				"z": -0.3343493276,
				"element": "C" 
			},
			{
				"x": 4.2465074294,
				"y": 1.648633344,
				"z": 0.0490214903,
				"element": "C" 
			},
			{
				"x": 4.5058609999,
				"y": 2.0007135034,
				"z": 1.3154487598,
				"element": "N" 
			},
			{
				"x": 3.6570833173,
				"y": 1.5569453663,
				"z": 2.2522719969,
				"element": "C" 
			},
			{
				"x": 2.5427035257,
				"y": 0.7650847854,
				"z": 1.981511573,
				"element": "C" 
			},
			{
				"x": -1.6652427274,
				"y": -3.1200475095,
				"z": 2.23161766,
				"element": "H" 
			},
			{
				"x": -1.206919347,
				"y": -1.6209053862,
				"z": 3.0685493089,
				"element": "H" 
			},
			{
				"x": -2.6476415792,
				"y": -1.6684131049,
				"z": 2.0293291099,
				"element": "H" 
			},
			{
				"x": -1.8818132847,
				"y": -3.7456704265,
				"z": -1.238479414,
				"element": "H" 
			},
			{
				"x": -2.81069353,
				"y": -3.1169478123,
				"z": 0.1307961214,
				"element": "H" 
			},
			{
				"x": -2.860590894,
				"y": -2.3003961328,
				"z": -1.4388693436,
				"element": "H" 
			},
			{
				"x": 2.994994607,
				"y": 0.6033580726,
				"z": -1.3735503504,
				"element": "H" 
			},
			{
				"x": 4.9438289263,
				"y": 2.0158131238,
				"z": -0.7019775501,
				"element": "H" 
			},
			{
				"x": 3.8795233632,
				"y": 1.850331456,
				"z": 3.2768207802,
				"element": "H" 
			},
			{
				"x": 1.8842336064,
				"y": 0.4300068447,
				"z": 2.7740293965,
				"element": "H" 
			}
		],
		 "valence_orbital": [ 
			{
				"type": "occ",
				"energy": -0.29941,
				"method": "rhf"
			},
			{
				"type": "occ",
				"energy": -0.26615,
				"method": "rhf"
			},
			{
				"type": "occ",
				"energy": -0.25957,
				"method": "rhf"
			},
			{
				"type": "occ",
				"energy": -0.25659,
				"method": "rhf"
			},
			{
				"type": "occ",
				"energy": -0.25215,
				"method": "rhf"
			},
			{
				"type": "unocc",
				"energy": -0.0693,
				"method": "rhf"
			},
			{
				"type": "unocc",
				"energy": -0.04859,
				"method": "rhf"
			},
			{
				"type": "unocc",
				"energy": -0.00564,
				"method": "rhf"
			},
			{
				"type": "unocc",
				"energy": 0.01057,
				"method": "rhf"
			},
			{
				"type": "unocc",
				"energy": 0.02476,
				"method": "rhf"
			}
		],
		"cosmo_sigma_profile": { 
			"-0.025": 0.0,
			"-0.024": 0.0,
			"-0.023": 0.0,
			"-0.022": 0.0,
			"-0.021": 0.0,
			"-0.02": 0.0,
			"-0.019": 0.0,
			"-0.018": 0.0,
			"-0.017": 0.0,
			"-0.016": 0.0,
			"-0.015": 0.0,
			"-0.014": 0.0,
			"-0.013": 0.0,
			"-0.012": 0.0,
			"-0.011": 0.0,
			"-0.01": 0.0,
			"-0.009": 0.0,
			"-0.008": 0.0,
			"-0.007": 1.26022862066,
			"-0.006": 11.8118834423,
			"-0.005": 20.0173258007,
			"-0.004": 18.8262917398,
			"-0.003": 22.4931995171,
			"-0.002": 29.4415403266,
			"-0.001": 24.8112340935,
			"0.0": 18.5448154735,
			"0.001": 20.8118751617,
			"0.002": 24.9047051678,
			"0.003": 14.7838512551,
			"0.004": 11.3908545771,
			"0.005": 7.34678423009,
			"0.006": 4.9429535106,
			"0.007": 4.54065597047,
			"0.008": 5.26984570939,
			"0.009": 2.33886714017,
			"0.01": 0.786348369944,
			"0.011": 1.15637942484,
			"0.012": 1.09229891775,
			"0.013": 0.757790826516,
			"0.014": 1.26485773314,
			"0.015": 0.611275927779,
			"0.016": 0.785269781289,
			"0.017": 0.243141291128,
			"0.018": 0.0,
			"0.019": 0.0,
			"0.02": 0.0,
			"0.021": 0.0,
			"0.022": 0.0,
			"0.023": 0.0,
			"0.024": 0.0,
			"0.025": 0.0
		}
	}
}
