{
	 "smiles": "NC1=CC2=C(CCN2CCO)C=C1", 
	 "Tm": 333.15, 
	 "num_atms": 27, 
	 "gaussian": { 
		 "optdone": 1, 
		 "sigma_profile": "yes", 
		 "theory": "DFT", 
		 "functional": "B3LYP", 
		 "basiset": "6-31G**", 
		 "properties": { 
			 "R2extent": 3144.1755, 
			 "electric_dipole_moment_norm": 2.99153365684, 
			 "electric_quadrupole_moment_norm": 10.8563102549, 
			 "total_energy": -574.221796699, 
			 "HOMO_LUMO_gap": 0.19325, 
			 "cosmo_polarized_energy": -12.52, 
			 "cosmo_cavitation_energy": 28.76, 
			 "cosmo_dispersion_energy": -21.22, 
			 "cosmo_repulsion_energy": 1.69, 
			 "cosmo_total_nonelectrostatic_energy": 9.23, 
			 "SMD_solvation_energy": 4.07 
		},
		"coords": [
			{
				"x": 1.5681443227,
				"y": 2.116963239,
				"z": 3.6191294143,
				"element": "N" 
			},
			{
				"x": 1.8663176567,
				"y": 1.3433412867,
				"z": 2.4919872416,
				"element": "C" 
			},
			{
				"x": 0.8209033145,
				"y": 0.8410539593,
				"z": 1.6921838924,
				"element": "C" 
			},
			{
				"x": 1.1362868555,
				"y": 0.0268585778,
				"z": 0.6070619512,
				"element": "C" 
			},
			{
				"x": 2.4697047016,
				"y": -0.2946276813,
				"z": 0.298949371,
				"element": "C" 
			},
			{
				"x": 2.4837915062,
				"y": -1.2264550632,
				"z": -0.8913589296,
				"element": "C" 
			},
			{
				"x": 1.0611217505,
				"y": -1.0350291451,
				"z": -1.4580344614,
				"element": "C" 
			},
			{
				"x": 0.2535749261,
				"y": -0.6085228207,
				"z": -0.293433599,
				"element": "N" 
			},
			{
				"x": -1.057576763,
				"y": -0.0390137151,
				"z": -0.585732691,
				"element": "C" 
			},
			{
				"x": -2.0436343831,
				"y": -1.1448524115,
				"z": -0.9723329707,
				"element": "C" 
			},
			{
				"x": -2.1308305771,
				"y": -2.1236294342,
				"z": 0.0435262737,
				"element": "O" 
			},
			{
				"x": 3.4937269118,
				"y": 0.2002203109,
				"z": 1.0926228709,
				"element": "C" 
			},
			{
				"x": 3.1997647679,
				"y": 1.0232440454,
				"z": 2.1840430725,
				"element": "C" 
			},
			{
				"x": 0.6855119457,
				"y": 2.6080921173,
				"z": 3.5779719196,
				"element": "H" 
			},
			{
				"x": 2.3164332644,
				"y": 2.7235927549,
				"z": 3.9254827729,
				"element": "H" 
			},
			{
				"x": -0.2068856758,
				"y": 1.0881896002,
				"z": 1.9407557379,
				"element": "H" 
			},
			{
				"x": 3.25406003,
				"y": -0.9944712415,
				"z": -1.6332935546,
				"element": "H" 
			},
			{
				"x": 2.6360919945,
				"y": -2.2684786364,
				"z": -0.5772222121,
				"element": "H" 
			},
			{
				"x": 1.0544683826,
				"y": -0.2418808224,
				"z": -2.2255977376,
				"element": "H" 
			},
			{
				"x": 0.6528538515,
				"y": -1.9433714906,
				"z": -1.9092537167,
				"element": "H" 
			},
			{
				"x": -1.4312684058,
				"y": 0.4491902939,
				"z": 0.317334492,
				"element": "H" 
			},
			{
				"x": -0.9998893414,
				"y": 0.7233913554,
				"z": -1.3832638343,
				"element": "H" 
			},
			{
				"x": -1.7506567775,
				"y": -1.5899496526,
				"z": -1.9385797173,
				"element": "H" 
			},
			{
				"x": -3.0425567507,
				"y": -0.7153860554,
				"z": -1.1067381781,
				"element": "H" 
			},
			{
				"x": -1.2179199106,
				"y": -2.2557037011,
				"z": 0.345895048,
				"element": "H" 
			},
			{
				"x": 4.5298428566,
				"y": -0.0394574068,
				"z": 0.8659696014,
				"element": "H" 
			},
			{
				"x": 4.0013195461,
				"y": 1.4156917369,
				"z": 2.803927943,
				"element": "H" 
			}
		],
		 "valence_orbital": [ 
			{
				"type": "occ",
				"energy": -0.31041,
				"method": "rhf"
			},
			{
				"type": "occ",
				"energy": -0.26972,
				"method": "rhf"
			},
			{
				"type": "occ",
				"energy": -0.25639,
				"method": "rhf"
			},
			{
				"type": "occ",
				"energy": -0.20994,
				"method": "rhf"
			},
			{
				"type": "occ",
				"energy": -0.18195,
				"method": "rhf"
			},
			{
				"type": "unocc",
				"energy": 0.0113,
				"method": "rhf"
			},
			{
				"type": "unocc",
				"energy": 0.02837,
				"method": "rhf"
			},
			{
				"type": "unocc",
				"energy": 0.08468,
				"method": "rhf"
			},
			{
				"type": "unocc",
				"energy": 0.08763,
				"method": "rhf"
			},
			{
				"type": "unocc",
				"energy": 0.1059,
				"method": "rhf"
			}
		],
		"cosmo_sigma_profile": { 
			"-0.025": 0.0,
			"-0.024": 0.0,
			"-0.023": 0.0,
			"-0.022": 0.0,
			"-0.021": 0.0,
			"-0.02": 0.0,
			"-0.019": 0.0,
			"-0.018": 0.0,
			"-0.017": 0.0,
			"-0.016": 0.0,
			"-0.015": 0.0,
			"-0.014": 0.0,
			"-0.013": 0.0,
			"-0.012": 1.20092132041,
			"-0.011": 2.98138805108,
			"-0.01": 3.14828072309,
			"-0.009": 3.36021012763,
			"-0.008": 3.82679511774,
			"-0.007": 4.15714819465,
			"-0.006": 5.97741996628,
			"-0.005": 8.68471439434,
			"-0.004": 20.6454548286,
			"-0.003": 31.2421143673,
			"-0.002": 26.6573697909,
			"-0.001": 19.3088391366,
			"0.0": 14.5067628014,
			"0.001": 7.29676922694,
			"0.002": 7.49307218137,
			"0.003": 5.75661033832,
			"0.004": 7.97154767418,
			"0.005": 8.7597689544,
			"0.006": 8.60919546256,
			"0.007": 9.96574399206,
			"0.008": 7.44246114307,
			"0.009": 1.62690783716,
			"0.01": 2.67155405846,
			"0.011": 2.01083396249,
			"0.012": 2.39929403325,
			"0.013": 1.93904224167,
			"0.014": 3.02066069713,
			"0.015": 2.29867609739,
			"0.016": 0.149509748481,
			"0.017": 0.0,
			"0.018": 0.0,
			"0.019": 0.0,
			"0.02": 0.0,
			"0.021": 0.0,
			"0.022": 0.0,
			"0.023": 0.0,
			"0.024": 0.0,
			"0.025": 0.0
		}
	}
}
