{
	 "smiles": "CCCCCCCCCC(O)=O", 
	 "Tm": 304.65, 
	 "num_atms": 32, 
	 "gaussian": { 
		 "optdone": 1, 
		 "sigma_profile": "yes", 
		 "theory": "DFT", 
		 "functional": "B3LYP", 
		 "basiset": "6-31G**", 
		 "properties": { 
			 "R2extent": 4183.1767, 
			 "electric_dipole_moment_norm": 1.63948711492, 
			 "electric_quadrupole_moment_norm": 11.1301509293, 
			 "total_energy": -543.60881419, 
			 "HOMO_LUMO_gap": 0.27881, 
			 "cosmo_polarized_energy": -8.01, 
			 "cosmo_cavitation_energy": 33.34, 
			 "cosmo_dispersion_energy": -22.8, 
			 "cosmo_repulsion_energy": 1.91, 
			 "cosmo_total_nonelectrostatic_energy": 12.45, 
			 "SMD_solvation_energy": 5.82 
		},
		"coords": [
			{
				"x": -1.0136867699,
				"y": 0.685609209,
				"z": -3.2867256418,
				"element": "C" 
			},
			{
				"x": 0.1550539286,
				"y": 0.3962438254,
				"z": -2.3388001686,
				"element": "C" 
			},
			{
				"x": 0.0068759968,
				"y": -0.9393551778,
				"z": -1.5968018026,
				"element": "C" 
			},
			{
				"x": 1.1996637572,
				"y": -1.3137321445,
				"z": -0.6992259317,
				"element": "C" 
			},
			{
				"x": 1.4817880756,
				"y": -0.3651399128,
				"z": 0.4793355148,
				"element": "C" 
			},
			{
				"x": 0.3542853484,
				"y": -0.2839695766,
				"z": 1.5188590883,
				"element": "C" 
			},
			{
				"x": 0.7287906172,
				"y": 0.5909559202,
				"z": 2.7246519905,
				"element": "C" 
			},
			{
				"x": -0.3954236669,
				"y": 0.8419547318,
				"z": 3.7432657952,
				"element": "C" 
			},
			{
				"x": -0.8832990155,
				"y": -0.404323451,
				"z": 4.510674119,
				"element": "C" 
			},
			{
				"x": -1.7491342258,
				"y": -1.3667094016,
				"z": 3.7265509383,
				"element": "C" 
			},
			{
				"x": -2.786123224,
				"y": -0.7368755136,
				"z": 3.1156242338,
				"element": "O" 
			},
			{
				"x": -1.5928183051,
				"y": -2.566429984,
				"z": 3.6534753322,
				"element": "O" 
			},
			{
				"x": -0.8845782388,
				"y": 1.6421239733,
				"z": -3.8039722654,
				"element": "H" 
			},
			{
				"x": -1.107640311,
				"y": -0.0954657412,
				"z": -4.0499863542,
				"element": "H" 
			},
			{
				"x": -1.9641045671,
				"y": 0.7285313553,
				"z": -2.7421611998,
				"element": "H" 
			},
			{
				"x": 0.243967472,
				"y": 1.2177289703,
				"z": -1.6165183916,
				"element": "H" 
			},
			{
				"x": 1.0953656497,
				"y": 0.3898817273,
				"z": -2.9075076018,
				"element": "H" 
			},
			{
				"x": -0.1309280603,
				"y": -1.7388833475,
				"z": -2.3376623657,
				"element": "H" 
			},
			{
				"x": -0.918004839,
				"y": -0.9227403549,
				"z": -1.0043065189,
				"element": "H" 
			},
			{
				"x": 1.0373106256,
				"y": -2.3253437929,
				"z": -0.3032362619,
				"element": "H" 
			},
			{
				"x": 2.1020349033,
				"y": -1.3746655987,
				"z": -1.323068499,
				"element": "H" 
			},
			{
				"x": 1.7032646463,
				"y": 0.6435988563,
				"z": 0.1054048425,
				"element": "H" 
			},
			{
				"x": 2.398728752,
				"y": -0.7037233809,
				"z": 0.9808758271,
				"element": "H" 
			},
			{
				"x": 0.1100772699,
				"y": -1.3002284959,
				"z": 1.8537091718,
				"element": "H" 
			},
			{
				"x": -0.5570968387,
				"y": 0.1166276548,
				"z": 1.0558134603,
				"element": "H" 
			},
			{
				"x": 1.5897095849,
				"y": 0.1435533926,
				"z": 3.2418031408,
				"element": "H" 
			},
			{
				"x": 1.0738720951,
				"y": 1.5672017046,
				"z": 2.3573861857,
				"element": "H" 
			},
			{
				"x": -1.2522049354,
				"y": 1.3137437231,
				"z": 3.24891188,
				"element": "H" 
			},
			{
				"x": -0.0322387492,
				"y": 1.5621533829,
				"z": 4.4860910683,
				"element": "H" 
			},
			{
				"x": -1.4895865726,
				"y": -0.0755580418,
				"z": 5.3648396047,
				"element": "H" 
			},
			{
				"x": -0.0438145339,
				"y": -0.98106173,
				"z": 4.9080027665,
				"element": "H" 
			},
			{
				"x": -3.2874058694,
				"y": -1.4336027815,
				"z": 2.6595980433,
				"element": "H" 
			}
		],
		 "valence_orbital": [ 
			{
				"type": "occ",
				"energy": -0.31227,
				"method": "rhf"
			},
			{
				"type": "occ",
				"energy": -0.30878,
				"method": "rhf"
			},
			{
				"type": "occ",
				"energy": -0.30585,
				"method": "rhf"
			},
			{
				"type": "occ",
				"energy": -0.30292,
				"method": "rhf"
			},
			{
				"type": "occ",
				"energy": -0.26856,
				"method": "rhf"
			},
			{
				"type": "unocc",
				"energy": 0.01025,
				"method": "rhf"
			},
			{
				"type": "unocc",
				"energy": 0.07155,
				"method": "rhf"
			},
			{
				"type": "unocc",
				"energy": 0.08544,
				"method": "rhf"
			},
			{
				"type": "unocc",
				"energy": 0.10078,
				"method": "rhf"
			},
			{
				"type": "unocc",
				"energy": 0.11037,
				"method": "rhf"
			}
		],
		"cosmo_sigma_profile": { 
			"-0.025": 0.0,
			"-0.024": 0.0,
			"-0.023": 0.0,
			"-0.022": 0.0,
			"-0.021": 0.0,
			"-0.02": 0.0,
			"-0.019": 0.0,
			"-0.018": 0.252838918693,
			"-0.017": 1.06189706808,
			"-0.016": 0.674980858251,
			"-0.015": 0.984206637949,
			"-0.014": 0.862521473008,
			"-0.013": 0.608658926596,
			"-0.012": 0.322088843952,
			"-0.011": 0.837138291031,
			"-0.01": 0.910190799165,
			"-0.009": 0.421027715507,
			"-0.008": 0.703019939591,
			"-0.007": 0.834370402596,
			"-0.006": 2.97795746754,
			"-0.005": 4.15551203846,
			"-0.004": 5.78807376462,
			"-0.003": 11.6701631843,
			"-0.002": 35.7698388362,
			"-0.001": 51.6397106791,
			"0.0": 47.6440218367,
			"0.001": 37.4304589992,
			"0.002": 18.8382449858,
			"0.003": 3.84100840335,
			"0.004": 3.18302596798,
			"0.005": 3.31113933676,
			"0.006": 2.37740178194,
			"0.007": 2.05401960761,
			"0.008": 2.71735381968,
			"0.009": 2.61796451904,
			"0.01": 1.56497329916,
			"0.011": 2.82237086961,
			"0.012": 5.11421402576,
			"0.013": 2.00102598825,
			"0.014": 0.174719728411,
			"0.015": 0.0,
			"0.016": 0.0,
			"0.017": 0.0,
			"0.018": 0.0,
			"0.019": 0.0,
			"0.02": 0.0,
			"0.021": 0.0,
			"0.022": 0.0,
			"0.023": 0.0,
			"0.024": 0.0,
			"0.025": 0.0
		}
	}
}
