{
	 "smiles": "ClCC1=CC2=C(OCO2)C=C1", 
	 "Tm": 293.65, 
	 "num_atms": 18, 
	 "gaussian": { 
		 "optdone": 1, 
		 "sigma_profile": "yes", 
		 "theory": "DFT", 
		 "functional": "B3LYP", 
		 "basiset": "6-31G**", 
		 "properties": { 
			 "R2extent": 2708.897, 
			 "electric_dipole_moment_norm": 2.64845886696, 
			 "electric_quadrupole_moment_norm": 9.56746737596, 
			 "total_energy": -919.687003035, 
			 "HOMO_LUMO_gap": 0.19064, 
			 "cosmo_polarized_energy": -8.37, 
			 "cosmo_cavitation_energy": 23.76, 
			 "cosmo_dispersion_energy": -18.07, 
			 "cosmo_repulsion_energy": 1.46, 
			 "cosmo_total_nonelectrostatic_energy": 7.15, 
			 "SMD_solvation_energy": 4.36 
		},
		"coords": [
			{
				"x": 1.811710597,
				"y": -0.3360688098,
				"z": -3.7804777279,
				"element": "Cl" 
			},
			{
				"x": 0.0488843702,
				"y": -0.6566722755,
				"z": -3.3400852454,
				"element": "C" 
			},
			{
				"x": -0.1440822715,
				"y": -0.9329259812,
				"z": -1.8820468753,
				"element": "C" 
			},
			{
				"x": -0.2464928281,
				"y": 0.1456962331,
				"z": -0.9735037485,
				"element": "C" 
			},
			{
				"x": -0.4188919691,
				"y": -0.1651095914,
				"z": 0.3574538666,
				"element": "C" 
			},
			{
				"x": -0.4962325065,
				"y": -1.4840820082,
				"z": 0.8059772955,
				"element": "C" 
			},
			{
				"x": -0.6951264556,
				"y": -1.4998417509,
				"z": 2.1629499582,
				"element": "O" 
			},
			{
				"x": -0.5942889156,
				"y": -0.1346280316,
				"z": 2.5887902652,
				"element": "C" 
			},
			{
				"x": -0.5691023062,
				"y": 0.692320615,
				"z": 1.4200180167,
				"element": "O" 
			},
			{
				"x": -0.4030121835,
				"y": -2.554224033,
				"z": -0.0611825687,
				"element": "C" 
			},
			{
				"x": -0.2211020203,
				"y": -2.2513512159,
				"z": -1.4220166781,
				"element": "C" 
			},
			{
				"x": -0.4846776744,
				"y": 0.2362403894,
				"z": -3.6665105842,
				"element": "H" 
			},
			{
				"x": -0.2497104657,
				"y": -1.5028135838,
				"z": -3.9582033336,
				"element": "H" 
			},
			{
				"x": -0.1853552923,
				"y": 1.175683753,
				"z": -1.3079383229,
				"element": "H" 
			},
			{
				"x": -1.4660622084,
				"y": 0.12150603,
				"z": 3.1988378204,
				"element": "H" 
			},
			{
				"x": 0.3358385447,
				"y": 0.0034275226,
				"z": 3.1576584269,
				"element": "H" 
			},
			{
				"x": -0.4689276732,
				"y": -3.5763088564,
				"z": 0.2935069829,
				"element": "H" 
			},
			{
				"x": -0.1335687416,
				"y": -3.0663484055,
				"z": -2.1344275477,
				"element": "H" 
			}
		],
		 "valence_orbital": [ 
			{
				"type": "occ",
				"energy": -0.31803,
				"method": "rhf"
			},
			{
				"type": "occ",
				"energy": -0.29099,
				"method": "rhf"
			},
			{
				"type": "occ",
				"energy": -0.28904,
				"method": "rhf"
			},
			{
				"type": "occ",
				"energy": -0.2531,
				"method": "rhf"
			},
			{
				"type": "occ",
				"energy": -0.21434,
				"method": "rhf"
			},
			{
				"type": "unocc",
				"energy": -0.0237,
				"method": "rhf"
			},
			{
				"type": "unocc",
				"energy": -0.0048,
				"method": "rhf"
			},
			{
				"type": "unocc",
				"energy": 0.04814,
				"method": "rhf"
			},
			{
				"type": "unocc",
				"energy": 0.0872,
				"method": "rhf"
			},
			{
				"type": "unocc",
				"energy": 0.09594,
				"method": "rhf"
			}
		],
		"cosmo_sigma_profile": { 
			"-0.025": 0.0,
			"-0.024": 0.0,
			"-0.023": 0.0,
			"-0.022": 0.0,
			"-0.021": 0.0,
			"-0.02": 0.0,
			"-0.019": 0.0,
			"-0.018": 0.0,
			"-0.017": 0.0,
			"-0.016": 0.0,
			"-0.015": 0.0,
			"-0.014": 0.0,
			"-0.013": 0.0,
			"-0.012": 0.0,
			"-0.011": 0.0,
			"-0.01": 0.0,
			"-0.009": 0.0475756334357,
			"-0.008": 5.1058138526,
			"-0.007": 17.0987599186,
			"-0.006": 16.5487521556,
			"-0.005": 11.6137021397,
			"-0.004": 11.4978395835,
			"-0.003": 9.01821835324,
			"-0.002": 7.66846886938,
			"-0.001": 8.46841839441,
			"0.0": 9.14704728694,
			"0.001": 11.9492913391,
			"0.002": 14.222423903,
			"0.003": 14.6576274346,
			"0.004": 13.2236845528,
			"0.005": 10.7758479328,
			"0.006": 10.1974333287,
			"0.007": 13.0891732673,
			"0.008": 3.67261071895,
			"0.009": 3.04450032928,
			"0.01": 1.15716124303,
			"0.011": 0.0,
			"0.012": 0.0,
			"0.013": 0.0,
			"0.014": 0.0,
			"0.015": 0.0,
			"0.016": 0.0,
			"0.017": 0.0,
			"0.018": 0.0,
			"0.019": 0.0,
			"0.02": 0.0,
			"0.021": 0.0,
			"0.022": 0.0,
			"0.023": 0.0,
			"0.024": 0.0,
			"0.025": 0.0
		}
	}
}
