{
	 "smiles": "COC(=O)C1=CC=C(I)C(=C1)[N+]([O-])=O", 
	 "Tm": 375.65, 
	 "num_atms": 20, 
	 "gaussian": { 
		 "optdone": 1, 
		 "sigma_profile": "no", 
		 "theory": "DFT", 
		 "functional": "B3LYP", 
		 "basiset": "6-31G**", 
		 "properties": { 
			 "R2extent": 4077.5346, 
			 "electric_dipole_moment_norm": 5.49572281779, 
			 "electric_quadrupole_moment_norm": 10.1498421224, 
			 "total_energy": -675.391353998, 
			 "HOMO_LUMO_gap": 0.18252, 
			 "cosmo_polarized_energy": -93778.14, 
			 "cosmo_cavitation_energy": 29.62, 
			 "cosmo_dispersion_energy": -22.21, 
			 "cosmo_repulsion_energy": 1.72, 
			 "cosmo_total_nonelectrostatic_energy": 9.13, 
			 "SMD_solvation_energy": 8.54 
		},
		"coords": [
			{
				"x": -2.7797403481,
				"y": -1.7259572811,
				"z": -0.533812265,
				"element": "C" 
			},
			{
				"x": -1.6137612703,
				"y": -1.3281209602,
				"z": 0.2092854649,
				"element": "O" 
			},
			{
				"x": -0.6669155774,
				"y": -0.6880631714,
				"z": -0.5058266799,
				"element": "C" 
			},
			{
				"x": -0.7621030278,
				"y": -0.4506842358,
				"z": -1.6930325453,
				"element": "O" 
			},
			{
				"x": 0.5115113566,
				"y": -0.3075521499,
				"z": 0.3291639857,
				"element": "C" 
			},
			{
				"x": 0.5979159029,
				"y": -0.5928717395,
				"z": 1.6972023112,
				"element": "C" 
			},
			{
				"x": 1.7229544979,
				"y": -0.2130429598,
				"z": 2.4254745967,
				"element": "C" 
			},
			{
				"x": 2.7779777562,
				"y": 0.4573021642,
				"z": 1.7972279333,
				"element": "C" 
			},
			{
				"x": 4.4657499018,
				"y": 1.0182660533,
				"z": 2.9264922907,
				"element": "I" 
			},
			{
				"x": 2.6761300463,
				"y": 0.7343021029,
				"z": 0.4318902379,
				"element": "C" 
			},
			{
				"x": 1.5610886652,
				"y": 0.3618103641,
				"z": -0.305946715,
				"element": "C" 
			},
			{
				"x": 3.759044082,
				"y": 1.4397702436,
				"z": -0.2861855782,
				"element": "N" 
			},
			{
				"x": 4.6305077433,
				"y": 0.7423651083,
				"z": -0.7921229954,
				"element": "O" 
			},
			{
				"x": 3.6846531514,
				"y": 2.662107356,
				"z": -0.33260126,
				"element": "O" 
			},
			{
				"x": -3.2745372063,
				"y": -0.8523023404,
				"z": -0.9645325943,
				"element": "H" 
			},
			{
				"x": -2.5038957144,
				"y": -2.4101053788,
				"z": -1.3397022198,
				"element": "H" 
			},
			{
				"x": -3.430511534,
				"y": -2.2212428269,
				"z": 0.1860292152,
				"element": "H" 
			},
			{
				"x": -0.2158053618,
				"y": -1.1118697683,
				"z": 2.1896599996,
				"element": "H" 
			},
			{
				"x": 1.7846471714,
				"y": -0.4363652795,
				"z": 3.4843494684,
				"element": "H" 
			},
			{
				"x": 1.4916897654,
				"y": 0.5816546994,
				"z": -1.3657126506,
				"element": "H" 
			}
		],
		 "valence_orbital": [ 
			{
				"type": "occ",
				"energy": -0.31421,
				"method": "rhf"
			},
			{
				"type": "occ",
				"energy": -0.29478,
				"method": "rhf"
			},
			{
				"type": "occ",
				"energy": -0.28717,
				"method": "rhf"
			},
			{
				"type": "occ",
				"energy": -0.28183,
				"method": "rhf"
			},
			{
				"type": "occ",
				"energy": -0.26393,
				"method": "rhf"
			},
			{
				"type": "unocc",
				"energy": -0.08141,
				"method": "rhf"
			},
			{
				"type": "unocc",
				"energy": -0.07604,
				"method": "rhf"
			},
			{
				"type": "unocc",
				"energy": -0.05913,
				"method": "rhf"
			},
			{
				"type": "unocc",
				"energy": -0.044,
				"method": "rhf"
			},
			{
				"type": "unocc",
				"energy": 0.02502,
				"method": "rhf"
			}
		],
		"cosmo_sigma_profile": { 
			"0.0": 0.0,
			"0.0": 0.0,
			"0.0": 0.0,
			"0.0": 0.0,
			"0.0": 0.0,
			"0.0": 0.0,
			"0.0": 0.0,
			"0.0": 0.0,
			"0.0": 0.0,
			"0.0": 0.0,
			"0.0": 0.0,
			"0.0": 0.0,
			"0.0": 0.0,
			"0.0": 0.0,
			"0.0": 0.0,
			"0.0": 0.0,
			"0.0": 0.0,
			"0.0": 0.0,
			"0.0": 0.0,
			"0.0": 0.0,
			"0.0": 0.0,
			"0.0": 0.0,
			"0.0": 0.0,
			"0.0": 0.0,
			"0.0": 0.0,
			"0.0": 0.0,
			"0.0": 0.0,
			"0.0": 0.0,
			"0.0": 0.0,
			"0.0": 0.0,
			"0.0": 0.0,
			"0.0": 0.0,
			"0.0": 0.0,
			"0.0": 0.0,
			"0.0": 0.0,
			"0.0": 0.0,
			"0.0": 0.0,
			"0.0": 0.0,
			"0.0": 0.0,
			"0.0": 0.0,
			"0.0": 0.0,
			"0.0": 0.0,
			"0.0": 0.0,
			"0.0": 0.0,
			"0.0": 0.0,
			"0.0": 0.0,
			"0.0": 0.0,
			"0.0": 0.0,
			"0.0": 0.0,
			"0.0": 0.0,
			"0.0": 0.0
		}
	}
}
