{
	 "smiles": "ClC1=CC2=NON=C2C=C1", 
	 "Tm": 311.65, 
	 "num_atms": 13, 
	 "gaussian": { 
		 "optdone": 1, 
		 "sigma_profile": "yes", 
		 "theory": "DFT", 
		 "functional": "B3LYP", 
		 "basiset": "6-31G**", 
		 "properties": { 
			 "R2extent": 1719.0682, 
			 "electric_dipole_moment_norm": 2.79616380243, 
			 "electric_quadrupole_moment_norm": 7.48475588045, 
			 "total_energy": -875.263585712, 
			 "HOMO_LUMO_gap": 0.15948, 
			 "cosmo_polarized_energy": -6.84, 
			 "cosmo_cavitation_energy": 19.94, 
			 "cosmo_dispersion_energy": -15.3, 
			 "cosmo_repulsion_energy": 1.22, 
			 "cosmo_total_nonelectrostatic_energy": 5.87, 
			 "SMD_solvation_energy": 2.4 
		},
		"coords": [
			{
				"x": 1.7765470137,
				"y": -0.8692121955,
				"z": -2.8064839111,
				"element": "Cl" 
			},
			{
				"x": 0.9473124596,
				"y": -0.555358663,
				"z": -1.2961992016,
				"element": "C" 
			},
			{
				"x": 0.6092916338,
				"y": 0.7273147723,
				"z": -0.9634601262,
				"element": "C" 
			},
			{
				"x": -0.0626436414,
				"y": 0.8912424377,
				"z": 0.2823351631,
				"element": "C" 
			},
			{
				"x": -0.5094110969,
				"y": 1.9902392023,
				"z": 0.8683087083,
				"element": "N" 
			},
			{
				"x": -1.0652090538,
				"y": 1.5516514255,
				"z": 2.0392463573,
				"element": "O" 
			},
			{
				"x": -0.9804254227,
				"y": 0.1991859326,
				"z": 2.2083766132,
				"element": "N" 
			},
			{
				"x": -0.3588047,
				"y": -0.2330832631,
				"z": 1.1244595488,
				"element": "C" 
			},
			{
				"x": 0.0130173754,
				"y": -1.5540483168,
				"z": 0.7364269853,
				"element": "C" 
			},
			{
				"x": 0.6565826967,
				"y": -1.6943044939,
				"z": -0.4608306988,
				"element": "C" 
			},
			{
				"x": 0.8344920632,
				"y": 1.5725348188,
				"z": -1.601461217,
				"element": "H" 
			},
			{
				"x": -0.2095742276,
				"y": -2.4042313659,
				"z": 1.3706717142,
				"element": "H" 
			},
			{
				"x": 0.9641249,
				"y": -2.6736302912,
				"z": -0.8094899355,
				"element": "H" 
			}
		],
		 "valence_orbital": [ 
			{
				"type": "occ",
				"energy": -0.34474,
				"method": "rhf"
			},
			{
				"type": "occ",
				"energy": -0.3347,
				"method": "rhf"
			},
			{
				"type": "occ",
				"energy": -0.32855,
				"method": "rhf"
			},
			{
				"type": "occ",
				"energy": -0.29308,
				"method": "rhf"
			},
			{
				"type": "occ",
				"energy": -0.25983,
				"method": "rhf"
			},
			{
				"type": "unocc",
				"energy": -0.10035,
				"method": "rhf"
			},
			{
				"type": "unocc",
				"energy": -0.01176,
				"method": "rhf"
			},
			{
				"type": "unocc",
				"energy": -0.00696,
				"method": "rhf"
			},
			{
				"type": "unocc",
				"energy": 0.00857,
				"method": "rhf"
			},
			{
				"type": "unocc",
				"energy": 0.08644,
				"method": "rhf"
			}
		],
		"cosmo_sigma_profile": { 
			"-0.025": 0.0,
			"-0.024": 0.0,
			"-0.023": 0.0,
			"-0.022": 0.0,
			"-0.021": 0.0,
			"-0.02": 0.0,
			"-0.019": 0.0,
			"-0.018": 0.0,
			"-0.017": 0.0,
			"-0.016": 0.0,
			"-0.015": 0.0,
			"-0.014": 0.0,
			"-0.013": 0.0,
			"-0.012": 0.0,
			"-0.011": 0.0,
			"-0.01": 0.617308472262,
			"-0.009": 4.66527753145,
			"-0.008": 5.55951632457,
			"-0.007": 6.03754629002,
			"-0.006": 4.03887467496,
			"-0.005": 5.86512983803,
			"-0.004": 7.01116779138,
			"-0.003": 11.6165194246,
			"-0.002": 14.5210946671,
			"-0.001": 18.8723771361,
			"0.0": 16.6526857144,
			"0.001": 11.0184562053,
			"0.002": 8.27967653376,
			"0.003": 12.8956917503,
			"0.004": 11.3471331992,
			"0.005": 7.75933915231,
			"0.006": 4.04740757459,
			"0.007": 3.34182867434,
			"0.008": 3.14372666459,
			"0.009": 1.54309107557,
			"0.01": 2.8440665621,
			"0.011": 2.27256458032,
			"0.012": 0.430347730599,
			"0.013": 0.0,
			"0.014": 0.0,
			"0.015": 0.0,
			"0.016": 0.0,
			"0.017": 0.0,
			"0.018": 0.0,
			"0.019": 0.0,
			"0.02": 0.0,
			"0.021": 0.0,
			"0.022": 0.0,
			"0.023": 0.0,
			"0.024": 0.0,
			"0.025": 0.0
		}
	}
}
