{
	 "smiles": "OC(=O)C1CCN(CC1)C1=C(Cl)C=C(C=N1)C(F)(F)F", 
	 "Tm": 408.15, 
	 "num_atms": 32, 
	 "gaussian": { 
		 "optdone": 1, 
		 "sigma_profile": "yes", 
		 "theory": "DFT", 
		 "functional": "B3LYP", 
		 "basiset": "6-31G**", 
		 "properties": { 
			 "R2extent": 8360.143, 
			 "electric_dipole_moment_norm": 1.90311007827, 
			 "electric_quadrupole_moment_norm": 25.8702064723, 
			 "total_energy": -1484.18029516, 
			 "HOMO_LUMO_gap": 0.17895, 
			 "cosmo_polarized_energy": -16.18, 
			 "cosmo_cavitation_energy": 37.91, 
			 "cosmo_dispersion_energy": -26.67, 
			 "cosmo_repulsion_energy": 1.98, 
			 "cosmo_total_nonelectrostatic_energy": 13.22, 
			 "SMD_solvation_energy": 6.37 
		},
		"coords": [
			{
				"x": 0.6134795873,
				"y": 0.7059684824,
				"z": -4.7733509033,
				"element": "O" 
			},
			{
				"x": 1.0074695587,
				"y": 1.6742960543,
				"z": -3.9014829669,
				"element": "C" 
			},
			{
				"x": 1.4630506045,
				"y": 2.7096389049,
				"z": -4.3188753299,
				"element": "O" 
			},
			{
				"x": 0.8253099242,
				"y": 1.3374772311,
				"z": -2.4246383641,
				"element": "C" 
			},
			{
				"x": 1.2504579538,
				"y": 2.4975288925,
				"z": -1.518944136,
				"element": "C" 
			},
			{
				"x": 1.2849365173,
				"y": 2.0476250335,
				"z": -0.0433845617,
				"element": "C" 
			},
			{
				"x": 0.1795480384,
				"y": 1.111229239,
				"z": 0.2543932747,
				"element": "N" 
			},
			{
				"x": -0.9752600931,
				"y": 1.2537224986,
				"z": -0.6338959936,
				"element": "C" 
			},
			{
				"x": -0.6373298976,
				"y": 0.9110819199,
				"z": -2.0995285539,
				"element": "C" 
			},
			{
				"x": 0.3917309487,
				"y": -0.0999834773,
				"z": 0.874277863,
				"element": "C" 
			},
			{
				"x": 1.2677629572,
				"y": -0.2793482002,
				"z": 1.9852565368,
				"element": "C" 
			},
			{
				"x": 2.0109044837,
				"y": 1.0727132668,
				"z": 2.8292744786,
				"element": "Cl" 
			},
			{
				"x": 1.4636610483,
				"y": -1.5465591868,
				"z": 2.5057906444,
				"element": "C" 
			},
			{
				"x": 0.7544479427,
				"y": -2.6279284017,
				"z": 1.9729295312,
				"element": "C" 
			},
			{
				"x": -0.1572357659,
				"y": -2.3588414985,
				"z": 0.9551212278,
				"element": "C" 
			},
			{
				"x": -0.320933456,
				"y": -1.1510041716,
				"z": 0.4200973317,
				"element": "N" 
			},
			{
				"x": 0.9811745064,
				"y": -4.0200392797,
				"z": 2.4786173224,
				"element": "C" 
			},
			{
				"x": 1.2524502641,
				"y": -4.0308824003,
				"z": 3.8034564678,
				"element": "F" 
			},
			{
				"x": 2.0291799888,
				"y": -4.6176021996,
				"z": 1.8633722232,
				"element": "F" 
			},
			{
				"x": -0.096525102,
				"y": -4.808034655,
				"z": 2.271840237,
				"element": "F" 
			},
			{
				"x": 0.2710154091,
				"y": -0.0609143634,
				"z": -4.2921125949,
				"element": "H" 
			},
			{
				"x": 1.4829736413,
				"y": 0.4801021865,
				"z": -2.2147202834,
				"element": "H" 
			},
			{
				"x": 2.2380446464,
				"y": 2.8665549763,
				"z": -1.806080126,
				"element": "H" 
			},
			{
				"x": 0.5622652252,
				"y": 3.3374211447,
				"z": -1.6612208732,
				"element": "H" 
			},
			{
				"x": 2.2294728076,
				"y": 1.5347300948,
				"z": 0.1491644273,
				"element": "H" 
			},
			{
				"x": 1.2482536835,
				"y": 2.9203169664,
				"z": 0.6188497623,
				"element": "H" 
			},
			{
				"x": -1.3058665999,
				"y": 2.2958788877,
				"z": -0.5619542003,
				"element": "H" 
			},
			{
				"x": -1.782895722,
				"y": 0.6215215508,
				"z": -0.2683697122,
				"element": "H" 
			},
			{
				"x": -1.3453072572,
				"y": 1.431273341,
				"z": -2.755539717,
				"element": "H" 
			},
			{
				"x": -0.7689387511,
				"y": -0.1652275866,
				"z": -2.2530971374,
				"element": "H" 
			},
			{
				"x": 2.1276688207,
				"y": -1.6842482145,
				"z": 3.35168918,
				"element": "H" 
			},
			{
				"x": -0.7791659132,
				"y": -3.1530670362,
				"z": 0.5502649457,
				"element": "H" 
			}
		],
		 "valence_orbital": [ 
			{
				"type": "occ",
				"energy": -0.31643,
				"method": "rhf"
			},
			{
				"type": "occ",
				"energy": -0.2874,
				"method": "rhf"
			},
			{
				"type": "occ",
				"energy": -0.28345,
				"method": "rhf"
			},
			{
				"type": "occ",
				"energy": -0.27468,
				"method": "rhf"
			},
			{
				"type": "occ",
				"energy": -0.22685,
				"method": "rhf"
			},
			{
				"type": "unocc",
				"energy": -0.0479,
				"method": "rhf"
			},
			{
				"type": "unocc",
				"energy": -0.03563,
				"method": "rhf"
			},
			{
				"type": "unocc",
				"energy": 0.0045,
				"method": "rhf"
			},
			{
				"type": "unocc",
				"energy": 0.01397,
				"method": "rhf"
			},
			{
				"type": "unocc",
				"energy": 0.04511,
				"method": "rhf"
			}
		],
		"cosmo_sigma_profile": { 
			"-0.025": 0.0,
			"-0.024": 0.0,
			"-0.023": 0.0,
			"-0.022": 0.0,
			"-0.021": 0.0,
			"-0.02": 0.0,
			"-0.019": 0.0,
			"-0.018": 0.481596635038,
			"-0.017": 0.699577497498,
			"-0.016": 1.05826818982,
			"-0.015": 1.36522871472,
			"-0.014": 1.55415284446,
			"-0.013": 0.694128791952,
			"-0.012": 0.919559791684,
			"-0.011": 1.14261593877,
			"-0.01": 1.28669864758,
			"-0.009": 1.24580695385,
			"-0.008": 3.17944397235,
			"-0.007": 4.98155242145,
			"-0.006": 9.70986562249,
			"-0.005": 21.257900999,
			"-0.004": 24.8160021086,
			"-0.003": 20.2192181554,
			"-0.002": 21.8873961494,
			"-0.001": 20.6256366008,
			"0.0": 27.2058844474,
			"0.001": 22.1279255562,
			"0.002": 26.3631951948,
			"0.003": 37.0631706516,
			"0.004": 12.6291404706,
			"0.005": 6.07298350963,
			"0.006": 4.28912052135,
			"0.007": 4.82530740258,
			"0.008": 3.1484261193,
			"0.009": 3.64757959461,
			"0.01": 5.00675238758,
			"0.011": 5.44147119645,
			"0.012": 5.49757502332,
			"0.013": 1.81664349834,
			"0.014": 0.0567073733589,
			"0.015": 0.0,
			"0.016": 0.0,
			"0.017": 0.0,
			"0.018": 0.0,
			"0.019": 0.0,
			"0.02": 0.0,
			"0.021": 0.0,
			"0.022": 0.0,
			"0.023": 0.0,
			"0.024": 0.0,
			"0.025": 0.0
		}
	}
}
