{
	 "smiles": "CC(C)C(C)=C(C)C", 
	 "Tm": 160.15, 
	 "num_atms": 24, 
	 "gaussian": { 
		 "optdone": 1, 
		 "sigma_profile": "yes", 
		 "theory": "DFT", 
		 "functional": "B3LYP", 
		 "basiset": "6-31G**", 
		 "properties": { 
			 "R2extent": 1508.6069, 
			 "electric_dipole_moment_norm": 0.0964456841958, 
			 "electric_quadrupole_moment_norm": 1.25179714011, 
			 "total_energy": -314.496606272, 
			 "HOMO_LUMO_gap": 0.25076, 
			 "cosmo_polarized_energy": -1.5, 
			 "cosmo_cavitation_energy": 24.43, 
			 "cosmo_dispersion_energy": -17.43, 
			 "cosmo_repulsion_energy": 1.46, 
			 "cosmo_total_nonelectrostatic_energy": 8.45, 
			 "SMD_solvation_energy": 4.7 
		},
		"coords": [
			{
				"x": -1.7657881963,
				"y": 0.0365250592,
				"z": -2.9928193333,
				"element": "C" 
			},
			{
				"x": -1.4814761535,
				"y": 0.5608208965,
				"z": -1.5710044061,
				"element": "C" 
			},
			{
				"x": -1.795498443,
				"y": 2.0681022704,
				"z": -1.4723808648,
				"element": "C" 
			},
			{
				"x": -0.0570666616,
				"y": 0.2468877896,
				"z": -1.1104422589,
				"element": "C" 
			},
			{
				"x": 1.0210535536,
				"y": 0.6286374261,
				"z": -2.1087487774,
				"element": "C" 
			},
			{
				"x": 0.2248448943,
				"y": -0.3203012749,
				"z": 0.0825687463,
				"element": "C" 
			},
			{
				"x": 1.6236688161,
				"y": -0.683224225,
				"z": 0.5359385974,
				"element": "C" 
			},
			{
				"x": -0.8039246617,
				"y": -0.6778316833,
				"z": 1.1351618784,
				"element": "C" 
			},
			{
				"x": -1.1631061093,
				"y": 0.5506857898,
				"z": -3.7487474543,
				"element": "H" 
			},
			{
				"x": -1.5579346674,
				"y": -1.0359767147,
				"z": -3.0697470541,
				"element": "H" 
			},
			{
				"x": -2.818493301,
				"y": 0.1944933499,
				"z": -3.2517395521,
				"element": "H" 
			},
			{
				"x": -2.1836074702,
				"y": 0.045137729,
				"z": -0.9104962004,
				"element": "H" 
			},
			{
				"x": -2.8279032689,
				"y": 2.2700123278,
				"z": -1.7801703885,
				"element": "H" 
			},
			{
				"x": -1.1397417395,
				"y": 2.661991063,
				"z": -2.1188328006,
				"element": "H" 
			},
			{
				"x": -1.6687193762,
				"y": 2.4302735629,
				"z": -0.4473149231,
				"element": "H" 
			},
			{
				"x": 0.769143898,
				"y": 1.566686418,
				"z": -2.6151255296,
				"element": "H" 
			},
			{
				"x": 1.1331764526,
				"y": -0.1279185256,
				"z": -2.8964463161,
				"element": "H" 
			},
			{
				"x": 1.9993592883,
				"y": 0.7703095098,
				"z": -1.6483036664,
				"element": "H" 
			},
			{
				"x": 1.9223148995,
				"y": -0.0829824994,
				"z": 1.4065638984,
				"element": "H" 
			},
			{
				"x": 1.6518530785,
				"y": -1.7308194428,
				"z": 0.8640725745,
				"element": "H" 
			},
			{
				"x": 2.3875502283,
				"y": -0.5638772617,
				"z": -0.2322832741,
				"element": "H" 
			},
			{
				"x": -0.5098486331,
				"y": -0.2537780353,
				"z": 2.1044357229,
				"element": "H" 
			},
			{
				"x": -0.8524046388,
				"y": -1.7658402677,
				"z": 1.2806078536,
				"element": "H" 
			},
			{
				"x": -1.8125517887,
				"y": -0.3251132617,
				"z": 0.9198535284,
				"element": "H" 
			}
		],
		 "valence_orbital": [ 
			{
				"type": "occ",
				"energy": -0.34542,
				"method": "rhf"
			},
			{
				"type": "occ",
				"energy": -0.33305,
				"method": "rhf"
			},
			{
				"type": "occ",
				"energy": -0.31928,
				"method": "rhf"
			},
			{
				"type": "occ",
				"energy": -0.29848,
				"method": "rhf"
			},
			{
				"type": "occ",
				"energy": -0.21573,
				"method": "rhf"
			},
			{
				"type": "unocc",
				"energy": 0.03503,
				"method": "rhf"
			},
			{
				"type": "unocc",
				"energy": 0.08423,
				"method": "rhf"
			},
			{
				"type": "unocc",
				"energy": 0.1102,
				"method": "rhf"
			},
			{
				"type": "unocc",
				"energy": 0.1269,
				"method": "rhf"
			},
			{
				"type": "unocc",
				"energy": 0.13505,
				"method": "rhf"
			}
		],
		"cosmo_sigma_profile": { 
			"-0.025": 0.0,
			"-0.024": 0.0,
			"-0.023": 0.0,
			"-0.022": 0.0,
			"-0.021": 0.0,
			"-0.02": 0.0,
			"-0.019": 0.0,
			"-0.018": 0.0,
			"-0.017": 0.0,
			"-0.016": 0.0,
			"-0.015": 0.0,
			"-0.014": 0.0,
			"-0.013": 0.0,
			"-0.012": 0.0,
			"-0.011": 0.0,
			"-0.01": 0.0,
			"-0.009": 0.0,
			"-0.008": 0.0,
			"-0.007": 0.0,
			"-0.006": 0.0,
			"-0.005": 0.0681637983107,
			"-0.004": 3.18741660196,
			"-0.003": 16.2027751283,
			"-0.002": 29.5555563499,
			"-0.001": 30.5886311054,
			"0.0": 33.4765030797,
			"0.001": 38.958809951,
			"0.002": 20.6717626505,
			"0.003": 5.85988914405,
			"0.004": 3.52998266239,
			"0.005": 3.37994717784,
			"0.006": 1.70907295919,
			"0.007": 1.53417108158,
			"0.008": 0.0413938880026,
			"0.009": 0.0,
			"0.01": 0.0,
			"0.011": 0.0,
			"0.012": 0.0,
			"0.013": 0.0,
			"0.014": 0.0,
			"0.015": 0.0,
			"0.016": 0.0,
			"0.017": 0.0,
			"0.018": 0.0,
			"0.019": 0.0,
			"0.02": 0.0,
			"0.021": 0.0,
			"0.022": 0.0,
			"0.023": 0.0,
			"0.024": 0.0,
			"0.025": 0.0
		}
	}
}
