{
	 "smiles": "O=C1CCCCCCCC=C/CCCCCCC1", 
	 "Tm": 305.65, 
	 "num_atms": 48, 
	 "gaussian": { 
		 "optdone": 1, 
		 "sigma_profile": "yes", 
		 "theory": "DFT", 
		 "functional": "B3LYP", 
		 "basiset": "6-31G**", 
		 "properties": { 
			 "R2extent": 6192.4221, 
			 "electric_dipole_moment_norm": 2.43287802818, 
			 "electric_quadrupole_moment_norm": 11.7215442327, 
			 "total_energy": -741.116369917, 
			 "HOMO_LUMO_gap": 0.22094, 
			 "cosmo_polarized_energy": -7.64, 
			 "cosmo_cavitation_energy": 44.16, 
			 "cosmo_dispersion_energy": -29.31, 
			 "cosmo_repulsion_energy": 2.26, 
			 "cosmo_total_nonelectrostatic_energy": 17.11, 
			 "SMD_solvation_energy": 5.73 
		},
		"coords": [
			{
				"x": 2.2072358182,
				"y": -1.3054954621,
				"z": 2.1913307115,
				"element": "O" 
			},
			{
				"x": 1.0636529507,
				"y": -1.5967818701,
				"z": 2.4976986042,
				"element": "C" 
			},
			{
				"x": 0.2218372157,
				"y": -2.5247626948,
				"z": 1.6207045031,
				"element": "C" 
			},
			{
				"x": -0.0091378431,
				"y": -1.9269377063,
				"z": 0.2095448656,
				"element": "C" 
			},
			{
				"x": 1.1271324665,
				"y": -2.220578521,
				"z": -0.7802463371,
				"element": "C" 
			},
			{
				"x": 1.0692784132,
				"y": -1.4242353193,
				"z": -2.0975957872,
				"element": "C" 
			},
			{
				"x": -0.2616483994,
				"y": -1.5116466567,
				"z": -2.8847964908,
				"element": "C" 
			},
			{
				"x": -1.2508577497,
				"y": -0.3587692821,
				"z": -2.6035839225,
				"element": "C" 
			},
			{
				"x": -0.8242617758,
				"y": 0.9451873954,
				"z": -3.2927900796,
				"element": "C" 
			},
			{
				"x": -1.5096004066,
				"y": 2.2548318445,
				"z": -2.9767996404,
				"element": "C" 
			},
			{
				"x": -2.5181792755,
				"y": 2.6133865352,
				"z": -2.1696848429,
				"element": "C" 
			},
			{
				"x": -3.4090693195,
				"y": 1.8281271649,
				"z": -1.2390725305,
				"element": "C" 
			},
			{
				"x": -3.1875034639,
				"y": 2.1948382513,
				"z": 0.2487272404,
				"element": "C" 
			},
			{
				"x": -1.9037362219,
				"y": 1.5917200533,
				"z": 0.8298684873,
				"element": "C" 
			},
			{
				"x": -1.55440545,
				"y": 2.0579325461,
				"z": 2.2511839802,
				"element": "C" 
			},
			{
				"x": -0.3784718564,
				"y": 1.2747762866,
				"z": 2.8680462108,
				"element": "C" 
			},
			{
				"x": -0.7902187495,
				"y": -0.0945111749,
				"z": 3.4366290562,
				"element": "C" 
			},
			{
				"x": 0.4009175406,
				"y": -1.0295021193,
				"z": 3.7486071011,
				"element": "C" 
			},
			{
				"x": -0.7364553817,
				"y": -2.7342022383,
				"z": 2.1063269129,
				"element": "H" 
			},
			{
				"x": 0.7555598956,
				"y": -3.479671812,
				"z": 1.5345855972,
				"element": "H" 
			},
			{
				"x": -0.1417061939,
				"y": -0.8428768658,
				"z": 0.3009052572,
				"element": "H" 
			},
			{
				"x": -0.9554939887,
				"y": -2.3168112088,
				"z": -0.1833465811,
				"element": "H" 
			},
			{
				"x": 1.1211030131,
				"y": -3.2972178439,
				"z": -1.0050799171,
				"element": "H" 
			},
			{
				"x": 2.0812628,
				"y": -2.0114128266,
				"z": -0.2846614024,
				"element": "H" 
			},
			{
				"x": 1.8915648412,
				"y": -1.7763679656,
				"z": -2.7320223245,
				"element": "H" 
			},
			{
				"x": 1.296740655,
				"y": -0.3715038934,
				"z": -1.8820193403,
				"element": "H" 
			},
			{
				"x": -0.7480379883,
				"y": -2.4719592438,
				"z": -2.6690715441,
				"element": "H" 
			},
			{
				"x": -0.04886522,
				"y": -1.5258745925,
				"z": -3.9619202419,
				"element": "H" 
			},
			{
				"x": -1.3264075822,
				"y": -0.2024016148,
				"z": -1.5244854097,
				"element": "H" 
			},
			{
				"x": -2.2526030178,
				"y": -0.6430346256,
				"z": -2.9490667291,
				"element": "H" 
			},
			{
				"x": 0.247851397,
				"y": 1.1088564988,
				"z": -3.1047976093,
				"element": "H" 
			},
			{
				"x": -0.883364011,
				"y": 0.7950487843,
				"z": -4.3825767461,
				"element": "H" 
			},
			{
				"x": -1.0580110854,
				"y": 3.0774170596,
				"z": -3.5353122162,
				"element": "H" 
			},
			{
				"x": -2.7488591486,
				"y": 3.6810680815,
				"z": -2.1647387087,
				"element": "H" 
			},
			{
				"x": -3.2954547718,
				"y": 0.7495485565,
				"z": -1.371804019,
				"element": "H" 
			},
			{
				"x": -4.4511934888,
				"y": 2.061982145,
				"z": -1.4984073914,
				"element": "H" 
			},
			{
				"x": -3.1657707347,
				"y": 3.2889905435,
				"z": 0.3505119041,
				"element": "H" 
			},
			{
				"x": -4.0481168644,
				"y": 1.8499855547,
				"z": 0.8371674584,
				"element": "H" 
			},
			{
				"x": -1.0616789696,
				"y": 1.8294469742,
				"z": 0.166431231,
				"element": "H" 
			},
			{
				"x": -2.0036841705,
				"y": 0.4978976478,
				"z": 0.8162459639,
				"element": "H" 
			},
			{
				"x": -2.4350987074,
				"y": 1.9678887307,
				"z": 2.9036927269,
				"element": "H" 
			},
			{
				"x": -1.3088717803,
				"y": 3.1271759172,
				"z": 2.2218548445,
				"element": "H" 
			},
			{
				"x": 0.4056555318,
				"y": 1.1458667171,
				"z": 2.1097984736,
				"element": "H" 
			},
			{
				"x": 0.0811231147,
				"y": 1.8609718271,
				"z": 3.6736448174,
				"element": "H" 
			},
			{
				"x": -1.4751720544,
				"y": -0.599470404,
				"z": 2.7439668912,
				"element": "H" 
			},
			{
				"x": -1.3642114082,
				"y": 0.0614926828,
				"z": 4.3582924005,
				"element": "H" 
			},
			{
				"x": 0.0414102298,
				"y": -1.8750506121,
				"z": 4.3512357843,
				"element": "H" 
			},
			{
				"x": 1.1665211963,
				"y": -0.5017612441,
				"z": 4.3256787882,
				"element": "H" 
			}
		],
		 "valence_orbital": [ 
			{
				"type": "occ",
				"energy": -0.30723,
				"method": "rhf"
			},
			{
				"type": "occ",
				"energy": -0.30329,
				"method": "rhf"
			},
			{
				"type": "occ",
				"energy": -0.30138,
				"method": "rhf"
			},
			{
				"type": "occ",
				"energy": -0.23473,
				"method": "rhf"
			},
			{
				"type": "occ",
				"energy": -0.23425,
				"method": "rhf"
			},
			{
				"type": "unocc",
				"energy": -0.01331,
				"method": "rhf"
			},
			{
				"type": "unocc",
				"energy": 0.03254,
				"method": "rhf"
			},
			{
				"type": "unocc",
				"energy": 0.07991,
				"method": "rhf"
			},
			{
				"type": "unocc",
				"energy": 0.08703,
				"method": "rhf"
			},
			{
				"type": "unocc",
				"energy": 0.09467,
				"method": "rhf"
			}
		],
		"cosmo_sigma_profile": { 
			"-0.025": 0.0,
			"-0.024": 0.0,
			"-0.023": 0.0,
			"-0.022": 0.0,
			"-0.021": 0.0,
			"-0.02": 0.0,
			"-0.019": 0.0,
			"-0.018": 0.0,
			"-0.017": 0.0,
			"-0.016": 0.0,
			"-0.015": 0.0,
			"-0.014": 0.0,
			"-0.013": 0.0,
			"-0.012": 0.0,
			"-0.011": 0.0,
			"-0.01": 0.0,
			"-0.009": 0.0,
			"-0.008": 0.0,
			"-0.007": 0.0,
			"-0.006": 0.133654534777,
			"-0.005": 4.90501285295,
			"-0.004": 12.5766427654,
			"-0.003": 26.4647141034,
			"-0.002": 61.7970920158,
			"-0.001": 77.3341026768,
			"0.0": 61.0134344745,
			"0.001": 37.6515808871,
			"0.002": 15.4724650176,
			"0.003": 7.94539896458,
			"0.004": 5.63486971487,
			"0.005": 4.26818470384,
			"0.006": 4.7533528593,
			"0.007": 3.51838567707,
			"0.008": 2.70419616023,
			"0.009": 1.78437826727,
			"0.01": 1.9210617755,
			"0.011": 2.28352606062,
			"0.012": 3.77581252527,
			"0.013": 2.52597668328,
			"0.014": 0.581906703756,
			"0.015": 0.0,
			"0.016": 0.0,
			"0.017": 0.0,
			"0.018": 0.0,
			"0.019": 0.0,
			"0.02": 0.0,
			"0.021": 0.0,
			"0.022": 0.0,
			"0.023": 0.0,
			"0.024": 0.0,
			"0.025": 0.0
		}
	}
}
