{
	 "smiles": "CC[N+](CC)(CC)CCC(O)(C1CCCCC1)C1=CC=CC=C1", 
	 "Tm": 454.65, 
	 "num_atms": 59, 
	 "gaussian": { 
		 "optdone": 1, 
		 "sigma_profile": "yes", 
		 "theory": "DFT", 
		 "functional": "B3LYP", 
		 "basiset": "6-31G**", 
		 "properties": { 
			 "R2extent": 8984.3028, 
			 "electric_dipole_moment_norm": 10.0196703344, 
			 "electric_quadrupole_moment_norm": 35.0204181323, 
			 "total_energy": -951.717168882, 
			 "HOMO_LUMO_gap": 0.24007, 
			 "cosmo_polarized_energy": -51.84, 
			 "cosmo_cavitation_energy": 51.57, 
			 "cosmo_dispersion_energy": -34.82, 
			 "cosmo_repulsion_energy": 2.66, 
			 "cosmo_total_nonelectrostatic_energy": 19.41, 
			 "SMD_solvation_energy": 7.98 
		},
		"coords": [
			{
				"x": 1.2961028658,
				"y": 3.1680328969,
				"z": 2.0305759419,
				"element": "C" 
			},
			{
				"x": 0.4944429997,
				"y": 3.4600600903,
				"z": 0.7688686486,
				"element": "C" 
			},
			{
				"x": 0.9925854021,
				"y": 2.7871320716,
				"z": -0.517372913,
				"element": "N" 
			},
			{
				"x": 2.3791414282,
				"y": 3.314519849,
				"z": -0.8966337218,
				"element": "C" 
			},
			{
				"x": 2.4861956137,
				"y": 4.811915123,
				"z": -1.1557287614,
				"element": "C" 
			},
			{
				"x": -0.0369776133,
				"y": 3.1031898069,
				"z": -1.6030591352,
				"element": "C" 
			},
			{
				"x": 0.2867957572,
				"y": 2.5935132935,
				"z": -3.0015036661,
				"element": "C" 
			},
			{
				"x": 1.1455123994,
				"y": 1.274102661,
				"z": -0.329861192,
				"element": "C" 
			},
			{
				"x": -0.1354602289,
				"y": 0.5171553979,
				"z": 0.0257086707,
				"element": "C" 
			},
			{
				"x": 0.16237324,
				"y": -0.8143826661,
				"z": 0.7739597447,
				"element": "C" 
			},
			{
				"x": 0.8884246325,
				"y": -0.3604869335,
				"z": 1.9301934004,
				"element": "O" 
			},
			{
				"x": 1.0970774316,
				"y": -1.7854302136,
				"z": -0.0285990078,
				"element": "C" 
			},
			{
				"x": 1.3794947057,
				"y": -3.0973805036,
				"z": 0.7390898365,
				"element": "C" 
			},
			{
				"x": 2.4331950461,
				"y": -3.9598549419,
				"z": 0.0246328645,
				"element": "C" 
			},
			{
				"x": 2.0250586636,
				"y": -4.2652720441,
				"z": -1.4226513689,
				"element": "C" 
			},
			{
				"x": 1.7122500378,
				"y": -2.9754903801,
				"z": -2.1928148642,
				"element": "C" 
			},
			{
				"x": 0.6522993173,
				"y": -2.1294926119,
				"z": -1.4652877025,
				"element": "C" 
			},
			{
				"x": -1.1772178917,
				"y": -1.4478010246,
				"z": 1.1899368723,
				"element": "C" 
			},
			{
				"x": -2.1767784115,
				"y": -1.7404734378,
				"z": 0.2469411008,
				"element": "C" 
			},
			{
				"x": -3.3857245509,
				"y": -2.317930605,
				"z": 0.6368724064,
				"element": "C" 
			},
			{
				"x": -3.6240914083,
				"y": -2.6120889672,
				"z": 1.97991689,
				"element": "C" 
			},
			{
				"x": -2.6466652944,
				"y": -2.3127452401,
				"z": 2.9280990494,
				"element": "C" 
			},
			{
				"x": -1.438856677,
				"y": -1.7317595597,
				"z": 2.5369223785,
				"element": "C" 
			},
			{
				"x": 0.8435002107,
				"y": 3.7492210632,
				"z": 2.839588734,
				"element": "H" 
			},
			{
				"x": 1.2535552782,
				"y": 2.1152462825,
				"z": 2.3186319564,
				"element": "H" 
			},
			{
				"x": 2.3397151288,
				"y": 3.485126539,
				"z": 1.9576966234,
				"element": "H" 
			},
			{
				"x": -0.5400226973,
				"y": 3.1390864748,
				"z": 0.8941491888,
				"element": "H" 
			},
			{
				"x": 0.4750420362,
				"y": 4.5285346049,
				"z": 0.5510187333,
				"element": "H" 
			},
			{
				"x": 3.0410322848,
				"y": 3.0154329044,
				"z": -0.0830324457,
				"element": "H" 
			},
			{
				"x": 2.6790969696,
				"y": 2.7506226442,
				"z": -1.7807661069,
				"element": "H" 
			},
			{
				"x": 2.2703387567,
				"y": 5.4171759211,
				"z": -0.2725322312,
				"element": "H" 
			},
			{
				"x": 3.5223444155,
				"y": 5.0187842279,
				"z": -1.4389142019,
				"element": "H" 
			},
			{
				"x": 1.8551065745,
				"y": 5.1504357251,
				"z": -1.9809375312,
				"element": "H" 
			},
			{
				"x": -0.9769872746,
				"y": 2.6776493723,
				"z": -1.2486619707,
				"element": "H" 
			},
			{
				"x": -0.1508984617,
				"y": 4.188497928,
				"z": -1.6054229758,
				"element": "H" 
			},
			{
				"x": 1.1861267063,
				"y": 3.0464640699,
				"z": -3.4250730862,
				"element": "H" 
			},
			{
				"x": 0.3825499624,
				"y": 1.506094078,
				"z": -3.0472098694,
				"element": "H" 
			},
			{
				"x": -0.5484497619,
				"y": 2.8702234275,
				"z": -3.6512626678,
				"element": "H" 
			},
			{
				"x": 1.8766664849,
				"y": 1.1429596431,
				"z": 0.4659638668,
				"element": "H" 
			},
			{
				"x": 1.5833724327,
				"y": 0.9032986845,
				"z": -1.2571149328,
				"element": "H" 
			},
			{
				"x": -0.7548537007,
				"y": 1.0969558585,
				"z": 0.7148670577,
				"element": "H" 
			},
			{
				"x": -0.738486348,
				"y": 0.3214448238,
				"z": -0.8625277609,
				"element": "H" 
			},
			{
				"x": 1.2888922946,
				"y": -1.1255378151,
				"z": 2.3635709337,
				"element": "H" 
			},
			{
				"x": 2.0566765757,
				"y": -1.2500910965,
				"z": -0.106068559,
				"element": "H" 
			},
			{
				"x": 0.4447390977,
				"y": -3.6619408033,
				"z": 0.8392992492,
				"element": "H" 
			},
			{
				"x": 1.7268823163,
				"y": -2.8980824786,
				"z": 1.7628629661,
				"element": "H" 
			},
			{
				"x": 3.3974594297,
				"y": -3.4323883839,
				"z": 0.02873535,
				"element": "H" 
			},
			{
				"x": 2.5859405536,
				"y": -4.8898315128,
				"z": 0.5827973989,
				"element": "H" 
			},
			{
				"x": 1.1355586157,
				"y": -4.9098705659,
				"z": -1.4210481311,
				"element": "H" 
			},
			{
				"x": 2.8165664522,
				"y": -4.8275426964,
				"z": -1.929800654,
				"element": "H" 
			},
			{
				"x": 2.6335453679,
				"y": -2.3863168443,
				"z": -2.3075033608,
				"element": "H" 
			},
			{
				"x": 1.3643270122,
				"y": -3.209608416,
				"z": -3.205086423,
				"element": "H" 
			},
			{
				"x": 0.4520509419,
				"y": -1.2186220687,
				"z": -2.0458041112,
				"element": "H" 
			},
			{
				"x": -0.2867241975,
				"y": -2.6933405836,
				"z": -1.434067527,
				"element": "H" 
			},
			{
				"x": -2.026688489,
				"y": -1.5180083033,
				"z": -0.8044671976,
				"element": "H" 
			},
			{
				"x": -4.1416512167,
				"y": -2.5356395232,
				"z": -0.1117813653,
				"element": "H" 
			},
			{
				"x": -4.5638402757,
				"y": -3.0627442936,
				"z": 2.2835819927,
				"element": "H" 
			},
			{
				"x": -2.8226240611,
				"y": -2.524837413,
				"z": 3.9784748969,
				"element": "H" 
			},
			{
				"x": -0.7045368793,
				"y": -1.4782835351,
				"z": 3.2926386899,
				"element": "H" 
			}
		],
		 "valence_orbital": [ 
			{
				"type": "occ",
				"energy": -0.40162,
				"method": "rhf"
			},
			{
				"type": "occ",
				"energy": -0.38759,
				"method": "rhf"
			},
			{
				"type": "occ",
				"energy": -0.3744,
				"method": "rhf"
			},
			{
				"type": "occ",
				"energy": -0.33415,
				"method": "rhf"
			},
			{
				"type": "occ",
				"energy": -0.33087,
				"method": "rhf"
			},
			{
				"type": "unocc",
				"energy": -0.0908,
				"method": "rhf"
			},
			{
				"type": "unocc",
				"energy": -0.0865,
				"method": "rhf"
			},
			{
				"type": "unocc",
				"energy": -0.07775,
				"method": "rhf"
			},
			{
				"type": "unocc",
				"energy": -0.05758,
				"method": "rhf"
			},
			{
				"type": "unocc",
				"energy": -0.05,
				"method": "rhf"
			}
		],
		"cosmo_sigma_profile": { 
			"-0.025": 0.0,
			"-0.024": 0.0,
			"-0.023": 0.0,
			"-0.022": 0.0,
			"-0.021": 0.0,
			"-0.02": 0.0,
			"-0.019": 0.0,
			"-0.018": 0.0,
			"-0.017": 0.0,
			"-0.016": 0.0,
			"-0.015": 0.00222865797175,
			"-0.014": 0.675713553224,
			"-0.013": 0.826811272632,
			"-0.012": 1.03070346899,
			"-0.011": 1.35347996676,
			"-0.01": 2.98981299533,
			"-0.009": 7.69734061204,
			"-0.008": 18.5207744357,
			"-0.007": 22.7157823309,
			"-0.006": 35.4171915844,
			"-0.005": 42.0700047244,
			"-0.004": 28.6909320778,
			"-0.003": 32.0566448369,
			"-0.002": 47.4212623795,
			"-0.001": 46.2916932789,
			"0.0": 35.5048493405,
			"0.001": 25.0632089985,
			"0.002": 10.2909502733,
			"0.003": 8.87089216195,
			"0.004": 9.21300615155,
			"0.005": 10.3143207917,
			"0.006": 7.63327003188,
			"0.007": 1.18664941887,
			"0.008": 0.776801963678,
			"0.009": 0.6356960025,
			"0.01": 0.355961792153,
			"0.011": 0.00903935200081,
			"0.012": 0.0,
			"0.013": 0.0,
			"0.014": 0.0,
			"0.015": 0.0,
			"0.016": 0.0,
			"0.017": 0.0,
			"0.018": 0.0,
			"0.019": 0.0,
			"0.02": 0.0,
			"0.021": 0.0,
			"0.022": 0.0,
			"0.023": 0.0,
			"0.024": 0.0,
			"0.025": 0.0
		}
	}
}
