{
	 "smiles": "O=C1NC2=C(C=C3OCCCOC3=C2)C1=O", 
	 "Tm": 504.15, 
	 "num_atms": 25, 
	 "gaussian": { 
		 "optdone": 1, 
		 "sigma_profile": "yes", 
		 "theory": "DFT", 
		 "functional": "B3LYP", 
		 "basiset": "6-31G**", 
		 "properties": { 
			 "R2extent": 4644.1221, 
			 "electric_dipole_moment_norm": 7.94794509103, 
			 "electric_quadrupole_moment_norm": 23.6427253918, 
			 "total_energy": -780.218502956, 
			 "HOMO_LUMO_gap": 0.13083, 
			 "cosmo_polarized_energy": -18.28, 
			 "cosmo_cavitation_energy": 29.14, 
			 "cosmo_dispersion_energy": -21.96, 
			 "cosmo_repulsion_energy": 1.7, 
			 "cosmo_total_nonelectrostatic_energy": 8.88, 
			 "SMD_solvation_energy": 6.38 
		},
		"coords": [
			{
				"x": -0.2109611255,
				"y": -2.4513123197,
				"z": -5.4142526774,
				"element": "O" 
			},
			{
				"x": -0.1361665469,
				"y": -2.0075677253,
				"z": -4.2911277531,
				"element": "C" 
			},
			{
				"x": 0.8503454061,
				"y": -1.1732955676,
				"z": -3.7855776819,
				"element": "N" 
			},
			{
				"x": 0.6218379797,
				"y": -0.8480290024,
				"z": -2.439782657,
				"element": "C" 
			},
			{
				"x": -0.5536736398,
				"y": -1.4741367093,
				"z": -1.9795457935,
				"element": "C" 
			},
			{
				"x": -0.9916727649,
				"y": -1.2773178447,
				"z": -0.6726810651,
				"element": "C" 
			},
			{
				"x": -0.2481272042,
				"y": -0.4752385102,
				"z": 0.1913723395,
				"element": "C" 
			},
			{
				"x": -0.7272639733,
				"y": -0.3070426234,
				"z": 1.4725894257,
				"element": "O" 
			},
			{
				"x": -0.6501941078,
				"y": 1.0258682471,
				"z": 1.9983590266,
				"element": "C" 
			},
			{
				"x": 0.6935305547,
				"y": 1.2713819299,
				"z": 2.6923194177,
				"element": "C" 
			},
			{
				"x": 1.8276735595,
				"y": 0.6103393763,
				"z": 1.9131675819,
				"element": "C" 
			},
			{
				"x": 1.7596012198,
				"y": 0.901056088,
				"z": 0.5035662838,
				"element": "O" 
			},
			{
				"x": 0.9570904291,
				"y": 0.1162138828,
				"z": -0.2702301399,
				"element": "C" 
			},
			{
				"x": 1.3852332614,
				"y": -0.0575341785,
				"z": -1.5993308986,
				"element": "C" 
			},
			{
				"x": -1.1237882314,
				"y": -2.2424867155,
				"z": -3.0903225967,
				"element": "C" 
			},
			{
				"x": -2.1228720289,
				"y": -2.9277080862,
				"z": -3.1516102736,
				"element": "O" 
			},
			{
				"x": 1.6295756385,
				"y": -0.8485719806,
				"z": -4.3386813631,
				"element": "H" 
			},
			{
				"x": -1.9115580921,
				"y": -1.7295248232,
				"z": -0.3168447542,
				"element": "H" 
			},
			{
				"x": -1.4821125128,
				"y": 1.1215958548,
				"z": 2.7013988116,
				"element": "H" 
			},
			{
				"x": -0.8062484512,
				"y": 1.7469760101,
				"z": 1.1875870859,
				"element": "H" 
			},
			{
				"x": 0.6900186352,
				"y": 0.8546415397,
				"z": 3.7063707808,
				"element": "H" 
			},
			{
				"x": 0.8599738096,
				"y": 2.3508876471,
				"z": 2.7823254099,
				"element": "H" 
			},
			{
				"x": 2.8013978888,
				"y": 0.9877965337,
				"z": 2.2347980306,
				"element": "H" 
			},
			{
				"x": 1.8140774265,
				"y": -0.4747971145,
				"z": 2.0566762406,
				"element": "H" 
			},
			{
				"x": 2.3088828699,
				"y": 0.4181060916,
				"z": -1.9104427804,
				"element": "H" 
			}
		],
		 "valence_orbital": [ 
			{
				"type": "occ",
				"energy": -0.3019,
				"method": "rhf"
			},
			{
				"type": "occ",
				"energy": -0.29001,
				"method": "rhf"
			},
			{
				"type": "occ",
				"energy": -0.25571,
				"method": "rhf"
			},
			{
				"type": "occ",
				"energy": -0.23935,
				"method": "rhf"
			},
			{
				"type": "occ",
				"energy": -0.21857,
				"method": "rhf"
			},
			{
				"type": "unocc",
				"energy": -0.08774,
				"method": "rhf"
			},
			{
				"type": "unocc",
				"energy": -0.01658,
				"method": "rhf"
			},
			{
				"type": "unocc",
				"energy": 0.01913,
				"method": "rhf"
			},
			{
				"type": "unocc",
				"energy": 0.06118,
				"method": "rhf"
			},
			{
				"type": "unocc",
				"energy": 0.08011,
				"method": "rhf"
			}
		],
		"cosmo_sigma_profile": { 
			"-0.025": 0.0,
			"-0.024": 0.0,
			"-0.023": 0.0,
			"-0.022": 0.0,
			"-0.021": 0.0,
			"-0.02": 0.0,
			"-0.019": 0.0,
			"-0.018": 0.0,
			"-0.017": 0.220329921412,
			"-0.016": 1.46791779676,
			"-0.015": 1.68223487193,
			"-0.014": 0.767876067802,
			"-0.013": 1.07750111031,
			"-0.012": 1.09862637004,
			"-0.011": 1.67418742478,
			"-0.01": 1.0882654349,
			"-0.009": 1.29109690421,
			"-0.008": 3.05027511089,
			"-0.007": 4.57482659003,
			"-0.006": 10.8097764625,
			"-0.005": 21.6908445067,
			"-0.004": 23.7625179922,
			"-0.003": 19.1433832602,
			"-0.002": 13.9498115682,
			"-0.001": 15.0195839437,
			"0.0": 14.0634493674,
			"0.001": 18.5355360953,
			"0.002": 15.2200349997,
			"0.003": 5.48250937114,
			"0.004": 5.07781481292,
			"0.005": 5.09881357895,
			"0.006": 4.15165423033,
			"0.007": 4.74429937109,
			"0.008": 5.86404831174,
			"0.009": 5.93714024558,
			"0.01": 8.47166511763,
			"0.011": 10.614568993,
			"0.012": 6.10320724428,
			"0.013": 0.794446545294,
			"0.014": 0.0,
			"0.015": 0.0,
			"0.016": 0.0,
			"0.017": 0.0,
			"0.018": 0.0,
			"0.019": 0.0,
			"0.02": 0.0,
			"0.021": 0.0,
			"0.022": 0.0,
			"0.023": 0.0,
			"0.024": 0.0,
			"0.025": 0.0
		}
	}
}
