{
	 "smiles": "COC1=C(OC(C)C)C=CC(C=CC(O)=O)=C1", 
	 "Tm": 358.15, 
	 "num_atms": 33, 
	 "gaussian": { 
		 "optdone": 1, 
		 "sigma_profile": "yes", 
		 "theory": "DFT", 
		 "functional": "B3LYP", 
		 "basiset": "6-31G**", 
		 "properties": { 
			 "R2extent": 6193.7675, 
			 "electric_dipole_moment_norm": 4.03174093662, 
			 "electric_quadrupole_moment_norm": 23.2439629149, 
			 "total_energy": -805.901055172, 
			 "HOMO_LUMO_gap": 0.15142, 
			 "cosmo_polarized_energy": -14.25, 
			 "cosmo_cavitation_energy": 36.92, 
			 "cosmo_dispersion_energy": -25.69, 
			 "cosmo_repulsion_energy": 2.03, 
			 "cosmo_total_nonelectrostatic_energy": 13.26, 
			 "SMD_solvation_energy": 8.71 
		},
		"coords": [
			{
				"x": 3.7671441555,
				"y": -0.0067821457,
				"z": -0.4331125189,
				"element": "C" 
			},
			{
				"x": 2.5623352641,
				"y": -0.616796138,
				"z": 0.0025774274,
				"element": "O" 
			},
			{
				"x": 1.3771526276,
				"y": -0.0437061015,
				"z": -0.3659496357,
				"element": "C" 
			},
			{
				"x": 0.202905361,
				"y": -0.7144550643,
				"z": 0.055765184,
				"element": "C" 
			},
			{
				"x": 0.2529621233,
				"y": -1.8926065569,
				"z": 0.7444945848,
				"element": "O" 
			},
			{
				"x": 0.8128232538,
				"y": -1.8817569603,
				"z": 2.0864173955,
				"element": "C" 
			},
			{
				"x": -0.223202235,
				"y": -1.3487049765,
				"z": 3.0731193266,
				"element": "C" 
			},
			{
				"x": 1.2289271149,
				"y": -3.317936786,
				"z": 2.3698925561,
				"element": "C" 
			},
			{
				"x": -1.0382280569,
				"y": -0.1970408877,
				"z": -0.3143060762,
				"element": "C" 
			},
			{
				"x": -1.148764562,
				"y": 0.9553140691,
				"z": -1.0887010692,
				"element": "C" 
			},
			{
				"x": 0.0042497666,
				"y": 1.635735495,
				"z": -1.5058211024,
				"element": "C" 
			},
			{
				"x": 0.0148943137,
				"y": 2.8909712834,
				"z": -2.2657095455,
				"element": "C" 
			},
			{
				"x": -0.8341439873,
				"y": 3.4902077266,
				"z": -3.132142048,
				"element": "C" 
			},
			{
				"x": -2.0958283466,
				"y": 3.0651217235,
				"z": -3.7651428067,
				"element": "C" 
			},
			{
				"x": -2.4506099388,
				"y": 1.7666216836,
				"z": -3.5853268818,
				"element": "O" 
			},
			{
				"x": -2.7682633613,
				"y": 3.8147593898,
				"z": -4.4504439573,
				"element": "O" 
			},
			{
				"x": 1.2627633221,
				"y": 1.1264651855,
				"z": -1.1114120805,
				"element": "C" 
			},
			{
				"x": 4.5753159615,
				"y": -0.6367514533,
				"z": -0.0586171674,
				"element": "H" 
			},
			{
				"x": 3.8220224557,
				"y": 0.0390107316,
				"z": -1.5281308776,
				"element": "H" 
			},
			{
				"x": 3.8811530212,
				"y": 1.0060813967,
				"z": -0.0253621715,
				"element": "H" 
			},
			{
				"x": 1.6979082808,
				"y": -1.2378408066,
				"z": 2.089509419,
				"element": "H" 
			},
			{
				"x": -1.1104049719,
				"y": -1.9903902368,
				"z": 3.082566719,
				"element": "H" 
			},
			{
				"x": 0.1929004526,
				"y": -1.3186547029,
				"z": 4.0858711597,
				"element": "H" 
			},
			{
				"x": -0.5343056038,
				"y": -0.3343378376,
				"z": 2.8054295484,
				"element": "H" 
			},
			{
				"x": 0.362552823,
				"y": -3.9848079492,
				"z": 2.3118849305,
				"element": "H" 
			},
			{
				"x": 1.6625227173,
				"y": -3.4005237162,
				"z": 3.3714829558,
				"element": "H" 
			},
			{
				"x": 1.9698251054,
				"y": -3.6499543862,
				"z": 1.6380169302,
				"element": "H" 
			},
			{
				"x": -1.9229307271,
				"y": -0.729167614,
				"z": 0.0200312642,
				"element": "H" 
			},
			{
				"x": -2.1264553675,
				"y": 1.3307357486,
				"z": -1.3545155305,
				"element": "H" 
			},
			{
				"x": 0.9196910034,
				"y": 3.4723796525,
				"z": -2.0829585059,
				"element": "H" 
			},
			{
				"x": -0.5541595079,
				"y": 4.4765550128,
				"z": -3.4888395724,
				"element": "H" 
			},
			{
				"x": -3.2697059354,
				"y": 1.6552579495,
				"z": -4.0964565801,
				"element": "H" 
			},
			{
				"x": 2.1559534781,
				"y": 1.6554972715,
				"z": -1.4242112737,
				"element": "H" 
			}
		],
		 "valence_orbital": [ 
			{
				"type": "occ",
				"energy": -0.28711,
				"method": "rhf"
			},
			{
				"type": "occ",
				"energy": -0.27227,
				"method": "rhf"
			},
			{
				"type": "occ",
				"energy": -0.26816,
				"method": "rhf"
			},
			{
				"type": "occ",
				"energy": -0.24024,
				"method": "rhf"
			},
			{
				"type": "occ",
				"energy": -0.21216,
				"method": "rhf"
			},
			{
				"type": "unocc",
				"energy": -0.06074,
				"method": "rhf"
			},
			{
				"type": "unocc",
				"energy": 0.00338,
				"method": "rhf"
			},
			{
				"type": "unocc",
				"energy": 0.0221,
				"method": "rhf"
			},
			{
				"type": "unocc",
				"energy": 0.07581,
				"method": "rhf"
			},
			{
				"type": "unocc",
				"energy": 0.08424,
				"method": "rhf"
			}
		],
		"cosmo_sigma_profile": { 
			"-0.025": 0.0,
			"-0.024": 0.0,
			"-0.023": 0.0,
			"-0.022": 0.0,
			"-0.021": 0.0,
			"-0.02": 0.0,
			"-0.019": 0.0,
			"-0.018": 0.231213230071,
			"-0.017": 0.892474346112,
			"-0.016": 1.13712749361,
			"-0.015": 0.401290841587,
			"-0.014": 0.778947640388,
			"-0.013": 1.00976324997,
			"-0.012": 0.671314527128,
			"-0.011": 0.504861733739,
			"-0.01": 0.94137289122,
			"-0.009": 0.380072603857,
			"-0.008": 0.949413207705,
			"-0.007": 5.81795691384,
			"-0.006": 13.811033622,
			"-0.005": 15.3819610471,
			"-0.004": 19.4154995725,
			"-0.003": 30.6683471357,
			"-0.002": 26.0384659196,
			"-0.001": 26.2413077843,
			"0.0": 28.2694760513,
			"0.001": 22.3850486812,
			"0.002": 18.0870665114,
			"0.003": 18.445287133,
			"0.004": 14.4502760623,
			"0.005": 7.80339498762,
			"0.006": 5.59655188362,
			"0.007": 4.51401105459,
			"0.008": 5.20473819112,
			"0.009": 5.07605620348,
			"0.01": 4.47059232773,
			"0.011": 3.46061986052,
			"0.012": 5.90299859633,
			"0.013": 2.54107557985,
			"0.014": 0.0779993863184,
			"0.015": 0.0,
			"0.016": 0.0,
			"0.017": 0.0,
			"0.018": 0.0,
			"0.019": 0.0,
			"0.02": 0.0,
			"0.021": 0.0,
			"0.022": 0.0,
			"0.023": 0.0,
			"0.024": 0.0,
			"0.025": 0.0
		}
	}
}
