{
	 "smiles": "CC(C)C(=O)C1=CC=C(C=C1)S(Cl)(=O)=O", 
	 "Tm": 338.15, 
	 "num_atms": 26, 
	 "gaussian": { 
		 "optdone": 1, 
		 "sigma_profile": "yes", 
		 "theory": "DFT", 
		 "functional": "B3LYP", 
		 "basiset": "6-31G**", 
		 "properties": { 
			 "R2extent": 8109.8544, 
			 "electric_dipole_moment_norm": 4.94276984999, 
			 "electric_quadrupole_moment_norm": 22.8482030101, 
			 "total_energy": -1471.67891676, 
			 "HOMO_LUMO_gap": 0.1622, 
			 "cosmo_polarized_energy": -11.75, 
			 "cosmo_cavitation_energy": 32.99, 
			 "cosmo_dispersion_energy": -24.08, 
			 "cosmo_repulsion_energy": 1.85, 
			 "cosmo_total_nonelectrostatic_energy": 10.76, 
			 "SMD_solvation_energy": 5.02 
		},
		"coords": [
			{
				"x": 1.5003373588,
				"y": 0.467028845,
				"z": 1.5728591815,
				"element": "C" 
			},
			{
				"x": 0.8645170614,
				"y": 1.8047250751,
				"z": 1.1430992445,
				"element": "C" 
			},
			{
				"x": 1.7844291339,
				"y": 2.6423836931,
				"z": 0.2323757206,
				"element": "C" 
			},
			{
				"x": -0.5587527754,
				"y": 1.6472414117,
				"z": 0.5909994084,
				"element": "C" 
			},
			{
				"x": -1.4903132024,
				"y": 2.1290896621,
				"z": 1.2178081176,
				"element": "O" 
			},
			{
				"x": -0.8662486624,
				"y": 0.9208695854,
				"z": -0.7031447847,
				"element": "C" 
			},
			{
				"x": 0.0949452881,
				"y": 0.2935557149,
				"z": -1.5109053061,
				"element": "C" 
			},
			{
				"x": -0.2752817237,
				"y": -0.3537767623,
				"z": -2.6888923313,
				"element": "C" 
			},
			{
				"x": -1.6218584831,
				"y": -0.3645368518,
				"z": -3.0462313902,
				"element": "C" 
			},
			{
				"x": -2.6061757084,
				"y": 0.2449660819,
				"z": -2.2657333267,
				"element": "C" 
			},
			{
				"x": -2.2158355758,
				"y": 0.8841058088,
				"z": -1.0950883382,
				"element": "C" 
			},
			{
				"x": -2.1069497856,
				"y": -1.2117207156,
				"z": -4.5466760014,
				"element": "S" 
			},
			{
				"x": -1.9796502934,
				"y": 0.3719827604,
				"z": -5.9697920878,
				"element": "Cl" 
			},
			{
				"x": -1.0741442768,
				"y": -2.1725280037,
				"z": -4.9127986204,
				"element": "O" 
			},
			{
				"x": -3.5160163416,
				"y": -1.57254703,
				"z": -4.4625099042,
				"element": "O" 
			},
			{
				"x": 2.4251269013,
				"y": 0.6654413097,
				"z": 2.1241328897,
				"element": "H" 
			},
			{
				"x": 0.8323254875,
				"y": -0.0926627927,
				"z": 2.2348661596,
				"element": "H" 
			},
			{
				"x": 1.754647592,
				"y": -0.1799964089,
				"z": 0.7291505159,
				"element": "H" 
			},
			{
				"x": 0.6942435666,
				"y": 2.3874111913,
				"z": 2.054453768,
				"element": "H" 
			},
			{
				"x": 1.312946265,
				"y": 3.5919734122,
				"z": -0.0393285942,
				"element": "H" 
			},
			{
				"x": 2.0588041379,
				"y": 2.1285462263,
				"z": -0.6926619794,
				"element": "H" 
			},
			{
				"x": 2.7116144014,
				"y": 2.8729219735,
				"z": 0.7668806323,
				"element": "H" 
			},
			{
				"x": 1.1402068895,
				"y": 0.2969283495,
				"z": -1.2330436688,
				"element": "H" 
			},
			{
				"x": 0.460827533,
				"y": -0.8480061421,
				"z": -3.3125948117,
				"element": "H" 
			},
			{
				"x": -3.6467441724,
				"y": 0.2071213251,
				"z": -2.5678518466,
				"element": "H" 
			},
			{
				"x": -2.9453006154,
				"y": 1.3672822813,
				"z": -0.4549726465,
				"element": "H" 
			}
		],
		 "valence_orbital": [ 
			{
				"type": "occ",
				"energy": -0.33529,
				"method": "rhf"
			},
			{
				"type": "occ",
				"energy": -0.31745,
				"method": "rhf"
			},
			{
				"type": "occ",
				"energy": -0.29584,
				"method": "rhf"
			},
			{
				"type": "occ",
				"energy": -0.29253,
				"method": "rhf"
			},
			{
				"type": "occ",
				"energy": -0.26647,
				"method": "rhf"
			},
			{
				"type": "unocc",
				"energy": -0.10427,
				"method": "rhf"
			},
			{
				"type": "unocc",
				"energy": -0.07217,
				"method": "rhf"
			},
			{
				"type": "unocc",
				"energy": -0.04387,
				"method": "rhf"
			},
			{
				"type": "unocc",
				"energy": -0.00323,
				"method": "rhf"
			},
			{
				"type": "unocc",
				"energy": 0.0495,
				"method": "rhf"
			}
		],
		"cosmo_sigma_profile": { 
			"-0.025": 0.0,
			"-0.024": 0.0,
			"-0.023": 0.0,
			"-0.022": 0.0,
			"-0.021": 0.0,
			"-0.02": 0.0,
			"-0.019": 0.0,
			"-0.018": 0.0,
			"-0.017": 0.0,
			"-0.016": 0.0,
			"-0.015": 0.0,
			"-0.014": 0.0,
			"-0.013": 0.0,
			"-0.012": 0.0,
			"-0.011": 0.0,
			"-0.01": 0.0,
			"-0.009": 2.72667266115,
			"-0.008": 5.98631110828,
			"-0.007": 7.78477704442,
			"-0.006": 8.04893482817,
			"-0.005": 9.84209352414,
			"-0.004": 19.1382702928,
			"-0.003": 23.9288529657,
			"-0.002": 27.6843705966,
			"-0.001": 29.4676191683,
			"0.0": 35.9252184153,
			"0.001": 17.0967095897,
			"0.002": 10.6025397906,
			"0.003": 16.3095265843,
			"0.004": 9.15310287066,
			"0.005": 4.04140270177,
			"0.006": 5.43500632331,
			"0.007": 8.1987500082,
			"0.008": 10.8321154407,
			"0.009": 5.05265388444,
			"0.01": 2.52336497664,
			"0.011": 3.58081892734,
			"0.012": 1.7188621997,
			"0.013": 0.319410237768,
			"0.014": 0.0,
			"0.015": 0.0,
			"0.016": 0.0,
			"0.017": 0.0,
			"0.018": 0.0,
			"0.019": 0.0,
			"0.02": 0.0,
			"0.021": 0.0,
			"0.022": 0.0,
			"0.023": 0.0,
			"0.024": 0.0,
			"0.025": 0.0
		}
	}
}
