{
	 "smiles": "OC(=O)C1=C(I)C=C(F)C(F)=C1", 
	 "Tm": 401.15, 
	 "num_atms": 15, 
	 "gaussian": { 
		 "optdone": 1, 
		 "sigma_profile": "yes", 
		 "theory": "DFT", 
		 "functional": "B3LYP", 
		 "basiset": "6-31G**", 
		 "properties": { 
			 "R2extent": 2434.402, 
			 "electric_dipole_moment_norm": 1.47916446009, 
			 "electric_quadrupole_moment_norm": 4.0139257741, 
			 "total_energy": -630.050726237, 
			 "HOMO_LUMO_gap": 0.18595, 
			 "cosmo_polarized_energy": -8.43, 
			 "cosmo_cavitation_energy": 24.34, 
			 "cosmo_dispersion_energy": -19.07, 
			 "cosmo_repulsion_energy": 1.44, 
			 "cosmo_total_nonelectrostatic_energy": 6.7, 
			 "SMD_solvation_energy": 5.71 
		},
		"coords": [
			{
				"x": 2.9795229953,
				"y": 0.2916550532,
				"z": -1.477881748,
				"element": "O" 
			},
			{
				"x": 1.6364853426,
				"y": 0.2934136472,
				"z": -1.5510905776,
				"element": "C" 
			},
			{
				"x": 1.0412716173,
				"y": 0.805630714,
				"z": -2.4792083577,
				"element": "O" 
			},
			{
				"x": 0.939977892,
				"y": -0.4069058912,
				"z": -0.4242891447,
				"element": "C" 
			},
			{
				"x": 1.4811619299,
				"y": -0.8545310256,
				"z": 0.7989453207,
				"element": "C" 
			},
			{
				"x": 3.4853602309,
				"y": -0.6029617975,
				"z": 1.4534020268,
				"element": "I" 
			},
			{
				"x": 0.6580110886,
				"y": -1.5001783554,
				"z": 1.7303726992,
				"element": "C" 
			},
			{
				"x": -0.6853883711,
				"y": -1.7039790401,
				"z": 1.4550154451,
				"element": "C" 
			},
			{
				"x": -1.4670593798,
				"y": -2.3253504607,
				"z": 2.344988321,
				"element": "F" 
			},
			{
				"x": -1.2344976401,
				"y": -1.2585090275,
				"z": 0.2529341672,
				"element": "C" 
			},
			{
				"x": -2.5367020415,
				"y": -1.4610951808,
				"z": 0.0106464913,
				"element": "F" 
			},
			{
				"x": -0.4315128676,
				"y": -0.6175330765,
				"z": -0.6670256578,
				"element": "C" 
			},
			{
				"x": 3.2896153063,
				"y": 0.7740614641,
				"z": -2.2630334838,
				"element": "H" 
			},
			{
				"x": 1.0457792183,
				"y": -1.8493269836,
				"z": 2.6792881085,
				"element": "H" 
			},
			{
				"x": -0.852625321,
				"y": -0.2624900396,
				"z": -1.6001636102,
				"element": "H" 
			}
		],
		 "valence_orbital": [ 
			{
				"type": "occ",
				"energy": -0.30454,
				"method": "rhf"
			},
			{
				"type": "occ",
				"energy": -0.29591,
				"method": "rhf"
			},
			{
				"type": "occ",
				"energy": -0.27952,
				"method": "rhf"
			},
			{
				"type": "occ",
				"energy": -0.26991,
				"method": "rhf"
			},
			{
				"type": "occ",
				"energy": -0.25286,
				"method": "rhf"
			},
			{
				"type": "unocc",
				"energy": -0.06691,
				"method": "rhf"
			},
			{
				"type": "unocc",
				"energy": -0.05445,
				"method": "rhf"
			},
			{
				"type": "unocc",
				"energy": -0.03619,
				"method": "rhf"
			},
			{
				"type": "unocc",
				"energy": 0.03243,
				"method": "rhf"
			},
			{
				"type": "unocc",
				"energy": 0.04082,
				"method": "rhf"
			}
		],
		"cosmo_sigma_profile": { 
			"-0.025": 0.0,
			"-0.024": 0.0,
			"-0.023": 0.0,
			"-0.022": 0.0,
			"-0.021": 0.0,
			"-0.02": 0.0,
			"-0.019": 0.213826706385,
			"-0.018": 1.02407939567,
			"-0.017": 0.937747535978,
			"-0.016": 0.770088187287,
			"-0.015": 0.507789674698,
			"-0.014": 0.986859312927,
			"-0.013": 0.709635957285,
			"-0.012": 0.917276798636,
			"-0.011": 0.648542583024,
			"-0.01": 0.445871486207,
			"-0.009": 1.4406999894,
			"-0.008": 3.51802791426,
			"-0.007": 5.08177463339,
			"-0.006": 4.47378369225,
			"-0.005": 5.78948590273,
			"-0.004": 7.38907041358,
			"-0.003": 13.7289093257,
			"-0.002": 19.3832470093,
			"-0.001": 20.4960318742,
			"0.0": 20.0944131044,
			"0.001": 12.7487770561,
			"0.002": 16.248323603,
			"0.003": 29.1397291142,
			"0.004": 12.0240332871,
			"0.005": 3.01613054973,
			"0.006": 3.79279488487,
			"0.007": 3.64778859434,
			"0.008": 2.44061243002,
			"0.009": 1.65724678218,
			"0.01": 2.46330343165,
			"0.011": 4.53081036955,
			"0.012": 1.0758315389,
			"0.013": 0.0,
			"0.014": 0.0,
			"0.015": 0.0,
			"0.016": 0.0,
			"0.017": 0.0,
			"0.018": 0.0,
			"0.019": 0.0,
			"0.02": 0.0,
			"0.021": 0.0,
			"0.022": 0.0,
			"0.023": 0.0,
			"0.024": 0.0,
			"0.025": 0.0
		}
	}
}
