{
	 "smiles": "CC(C)C1CCC(C)CC1OC(=O)C(C1=CC=CC=C1)C1=CC=CC=C1", 
	 "Tm": 326.15, 
	 "num_atms": 56, 
	 "gaussian": { 
		 "optdone": 1, 
		 "sigma_profile": "yes", 
		 "theory": "DFT", 
		 "functional": "B3LYP", 
		 "basiset": "6-31G**", 
		 "properties": { 
			 "R2extent": 10668.5038, 
			 "electric_dipole_moment_norm": 1.67092784404, 
			 "electric_quadrupole_moment_norm": 6.90575504634, 
			 "total_energy": -1083.11522497, 
			 "HOMO_LUMO_gap": 0.22343, 
			 "cosmo_polarized_energy": -9.04, 
			 "cosmo_cavitation_energy": 53.99, 
			 "cosmo_dispersion_energy": -35.19, 
			 "cosmo_repulsion_energy": 2.71, 
			 "cosmo_total_nonelectrostatic_energy": 21.5, 
			 "SMD_solvation_energy": 8.88 
		},
		"coords": [
			{
				"x": 3.2531067852,
				"y": -1.4143272644,
				"z": -2.951522847,
				"element": "C" 
			},
			{
				"x": 3.0216337195,
				"y": -0.2798533688,
				"z": -1.9408858002,
				"element": "C" 
			},
			{
				"x": 4.3575823539,
				"y": 0.1654159362,
				"z": -1.3242473948,
				"element": "C" 
			},
			{
				"x": 1.9493544728,
				"y": -0.5776161078,
				"z": -0.8452464441,
				"element": "C" 
			},
			{
				"x": 2.2679702393,
				"y": -1.793290814,
				"z": 0.0663989716,
				"element": "C" 
			},
			{
				"x": 1.6672407334,
				"y": -3.1357185564,
				"z": -0.380564774,
				"element": "C" 
			},
			{
				"x": 0.1489907924,
				"y": -3.0438248122,
				"z": -0.5861135987,
				"element": "C" 
			},
			{
				"x": -0.4576790905,
				"y": -4.392494401,
				"z": -0.9897580219,
				"element": "C" 
			},
			{
				"x": -0.145212091,
				"y": -1.9776451387,
				"z": -1.6531009636,
				"element": "C" 
			},
			{
				"x": 0.5218526013,
				"y": -0.602515314,
				"z": -1.4685592406,
				"element": "C" 
			},
			{
				"x": -0.3875997317,
				"y": 0.3661452061,
				"z": -0.8282794764,
				"element": "O" 
			},
			{
				"x": -0.7211976766,
				"y": 0.3069495347,
				"z": 0.467982902,
				"element": "C" 
			},
			{
				"x": -0.3272556318,
				"y": -0.522177282,
				"z": 1.2630720381,
				"element": "O" 
			},
			{
				"x": -1.6605079022,
				"y": 1.4589166687,
				"z": 0.8693462806,
				"element": "C" 
			},
			{
				"x": -3.0525666701,
				"y": 1.3164736942,
				"z": 0.2628265718,
				"element": "C" 
			},
			{
				"x": -3.2746945695,
				"y": 1.2072312415,
				"z": -1.1190957897,
				"element": "C" 
			},
			{
				"x": -4.5702797227,
				"y": 1.0820741307,
				"z": -1.6227682244,
				"element": "C" 
			},
			{
				"x": -5.6666243044,
				"y": 1.0629971819,
				"z": -0.7585537884,
				"element": "C" 
			},
			{
				"x": -5.4579376099,
				"y": 1.1706804644,
				"z": 0.6166460026,
				"element": "C" 
			},
			{
				"x": -4.1620433382,
				"y": 1.2955939076,
				"z": 1.1191684496,
				"element": "C" 
			},
			{
				"x": -0.9612020474,
				"y": 2.8089495783,
				"z": 0.6549952491,
				"element": "C" 
			},
			{
				"x": 0.2396073253,
				"y": 3.0438304332,
				"z": 1.3437605617,
				"element": "C" 
			},
			{
				"x": 0.9198404004,
				"y": 4.2520303556,
				"z": 1.2058086832,
				"element": "C" 
			},
			{
				"x": 0.4059222653,
				"y": 5.2542336059,
				"z": 0.3789322836,
				"element": "C" 
			},
			{
				"x": -0.7904527953,
				"y": 5.0333243423,
				"z": -0.3016142953,
				"element": "C" 
			},
			{
				"x": -1.4704181271,
				"y": 3.8195627798,
				"z": -0.1649665185,
				"element": "C" 
			},
			{
				"x": 3.9453796383,
				"y": -1.0892923239,
				"z": -3.7360416825,
				"element": "H" 
			},
			{
				"x": 2.3274119176,
				"y": -1.7299426264,
				"z": -3.4439922933,
				"element": "H" 
			},
			{
				"x": 3.6941168651,
				"y": -2.2946889231,
				"z": -2.4724152903,
				"element": "H" 
			},
			{
				"x": 2.6356204944,
				"y": 0.5834497403,
				"z": -2.5033383484,
				"element": "H" 
			},
			{
				"x": 5.0501263252,
				"y": 0.4943591222,
				"z": -2.1066078476,
				"element": "H" 
			},
			{
				"x": 4.2179830064,
				"y": 1.0000721347,
				"z": -0.6286319908,
				"element": "H" 
			},
			{
				"x": 4.8489670079,
				"y": -0.6468320742,
				"z": -0.7777886843,
				"element": "H" 
			},
			{
				"x": 1.964174686,
				"y": 0.3125841201,
				"z": -0.2057548742,
				"element": "H" 
			},
			{
				"x": 1.8795900279,
				"y": -1.573229751,
				"z": 1.0637760355,
				"element": "H" 
			},
			{
				"x": 3.3542349309,
				"y": -1.8942365684,
				"z": 0.1688777035,
				"element": "H" 
			},
			{
				"x": 2.132876045,
				"y": -3.4855699359,
				"z": -1.3125323001,
				"element": "H" 
			},
			{
				"x": 1.8941316096,
				"y": -3.8953348361,
				"z": 0.3783486232,
				"element": "H" 
			},
			{
				"x": -0.3013396812,
				"y": -2.7244890136,
				"z": 0.3591780417,
				"element": "H" 
			},
			{
				"x": -1.5421497276,
				"y": -4.3184702903,
				"z": -1.1298250424,
				"element": "H" 
			},
			{
				"x": -0.0252810325,
				"y": -4.7574812218,
				"z": -1.9302032377,
				"element": "H" 
			},
			{
				"x": -0.2722157619,
				"y": -5.1529206164,
				"z": -0.2232697787,
				"element": "H" 
			},
			{
				"x": -1.2242436059,
				"y": -1.819259284,
				"z": -1.7673177778,
				"element": "H" 
			},
			{
				"x": 0.2049943436,
				"y": -2.368967953,
				"z": -2.6193211115,
				"element": "H" 
			},
			{
				"x": 0.5848926943,
				"y": -0.1417858867,
				"z": -2.4579709228,
				"element": "H" 
			},
			{
				"x": -1.7687929896,
				"y": 1.321307579,
				"z": 1.9492627286,
				"element": "H" 
			},
			{
				"x": -2.4288466093,
				"y": 1.2142990527,
				"z": -1.7967727612,
				"element": "H" 
			},
			{
				"x": -4.7219446008,
				"y": 0.9975415049,
				"z": -2.6953568131,
				"element": "H" 
			},
			{
				"x": -6.6735356577,
				"y": 0.9633852101,
				"z": -1.1536571778,
				"element": "H" 
			},
			{
				"x": -6.3017275758,
				"y": 1.1548967636,
				"z": 1.300673602,
				"element": "H" 
			},
			{
				"x": -4.0083040444,
				"y": 1.3768732994,
				"z": 2.1922182343,
				"element": "H" 
			},
			{
				"x": 0.6406000809,
				"y": 2.2706638339,
				"z": 1.995357686,
				"element": "H" 
			},
			{
				"x": 1.8474406975,
				"y": 4.413360677,
				"z": 1.7480441941,
				"element": "H" 
			},
			{
				"x": 0.9317930408,
				"y": 6.1985788861,
				"z": 0.2714699179,
				"element": "H" 
			},
			{
				"x": -1.2033037332,
				"y": 5.807812118,
				"z": -0.9421944466,
				"element": "H" 
			},
			{
				"x": -2.4033787716,
				"y": 3.6657712605,
				"z": -0.6956752021,
				"element": "H" 
			}
		],
		 "valence_orbital": [ 
			{
				"type": "occ",
				"energy": -0.27194,
				"method": "rhf"
			},
			{
				"type": "occ",
				"energy": -0.25124,
				"method": "rhf"
			},
			{
				"type": "occ",
				"energy": -0.24724,
				"method": "rhf"
			},
			{
				"type": "occ",
				"energy": -0.24368,
				"method": "rhf"
			},
			{
				"type": "occ",
				"energy": -0.23698,
				"method": "rhf"
			},
			{
				"type": "unocc",
				"energy": -0.01355,
				"method": "rhf"
			},
			{
				"type": "unocc",
				"energy": -0.00789,
				"method": "rhf"
			},
			{
				"type": "unocc",
				"energy": 0.00094,
				"method": "rhf"
			},
			{
				"type": "unocc",
				"energy": 0.00358,
				"method": "rhf"
			},
			{
				"type": "unocc",
				"energy": 0.02568,
				"method": "rhf"
			}
		],
		"cosmo_sigma_profile": { 
			"-0.025": 0.0,
			"-0.024": 0.0,
			"-0.023": 0.0,
			"-0.022": 0.0,
			"-0.021": 0.0,
			"-0.02": 0.0,
			"-0.019": 0.0,
			"-0.018": 0.0,
			"-0.017": 0.0,
			"-0.016": 0.0,
			"-0.015": 0.0,
			"-0.014": 0.0,
			"-0.013": 0.0,
			"-0.012": 0.0,
			"-0.011": 0.0,
			"-0.01": 0.0,
			"-0.009": 0.0,
			"-0.008": 0.0,
			"-0.007": 0.907399101192,
			"-0.006": 9.10883420913,
			"-0.005": 20.2969845953,
			"-0.004": 29.1751337752,
			"-0.003": 36.1703980046,
			"-0.002": 52.6433084132,
			"-0.001": 53.4162587576,
			"0.0": 49.7027227625,
			"0.001": 53.686294111,
			"0.002": 36.4321956548,
			"0.003": 18.7324090876,
			"0.004": 17.5571711751,
			"0.005": 18.6859534339,
			"0.006": 13.6964068925,
			"0.007": 3.32313093856,
			"0.008": 2.13943234603,
			"0.009": 1.61365769369,
			"0.01": 1.35474241832,
			"0.011": 1.11506386528,
			"0.012": 1.8660640208,
			"0.013": 1.02179257661,
			"0.014": 0.0,
			"0.015": 0.0,
			"0.016": 0.0,
			"0.017": 0.0,
			"0.018": 0.0,
			"0.019": 0.0,
			"0.02": 0.0,
			"0.021": 0.0,
			"0.022": 0.0,
			"0.023": 0.0,
			"0.024": 0.0,
			"0.025": 0.0
		}
	}
}
