{
	 "smiles": "CC1=C(C)C2=C(CCC(C)(O2)C(O)=O)C(C)=C1O", 
	 "Tm": 462.15, 
	 "num_atms": 36, 
	 "gaussian": { 
		 "optdone": 1, 
		 "sigma_profile": "yes", 
		 "theory": "DFT", 
		 "functional": "B3LYP", 
		 "basiset": "6-31G**", 
		 "properties": { 
			 "R2extent": 5121.8779, 
			 "electric_dipole_moment_norm": 1.11601610203, 
			 "electric_quadrupole_moment_norm": 15.2655793719, 
			 "total_energy": -845.265175302, 
			 "HOMO_LUMO_gap": 0.18817, 
			 "cosmo_polarized_energy": -15.69, 
			 "cosmo_cavitation_energy": 36.62, 
			 "cosmo_dispersion_energy": -25.84, 
			 "cosmo_repulsion_energy": 1.99, 
			 "cosmo_total_nonelectrostatic_energy": 12.77, 
			 "SMD_solvation_energy": 7.16 
		},
		"coords": [
			{
				"x": -0.431968451,
				"y": 0.8811152105,
				"z": 4.9832251819,
				"element": "C" 
			},
			{
				"x": -0.5930982203,
				"y": 0.7404752999,
				"z": 3.4847601771,
				"element": "C" 
			},
			{
				"x": 0.4007866482,
				"y": 0.1608412697,
				"z": 2.6797013267,
				"element": "C" 
			},
			{
				"x": 1.7139796723,
				"y": -0.3216874037,
				"z": 3.2543066226,
				"element": "C" 
			},
			{
				"x": 0.1561409331,
				"y": 0.0344944396,
				"z": 1.3014553838,
				"element": "C" 
			},
			{
				"x": -1.0319760089,
				"y": 0.4846688159,
				"z": 0.7131241123,
				"element": "C" 
			},
			{
				"x": -1.2505441823,
				"y": 0.3234142657,
				"z": -0.7778164109,
				"element": "C" 
			},
			{
				"x": -0.2597924621,
				"y": -0.6655677196,
				"z": -1.3979544653,
				"element": "C" 
			},
			{
				"x": 1.1540238307,
				"y": -0.4372575124,
				"z": -0.8436337868,
				"element": "C" 
			},
			{
				"x": 2.1561225996,
				"y": -1.4703636308,
				"z": -1.3742708013,
				"element": "C" 
			},
			{
				"x": 1.1508154174,
				"y": -0.596169258,
				"z": 0.5680447292,
				"element": "O" 
			},
			{
				"x": 1.6818601297,
				"y": 0.9712756021,
				"z": -1.1841920015,
				"element": "C" 
			},
			{
				"x": 1.5614469312,
				"y": 1.2339208593,
				"z": -2.512402212,
				"element": "O" 
			},
			{
				"x": 2.177699159,
				"y": 1.7505476105,
				"z": -0.4073995702,
				"element": "O" 
			},
			{
				"x": -2.0108792138,
				"y": 1.099012247,
				"z": 1.5145428803,
				"element": "C" 
			},
			{
				"x": -3.2938123019,
				"y": 1.6238479784,
				"z": 0.9141804608,
				"element": "C" 
			},
			{
				"x": -1.7769965291,
				"y": 1.2112330145,
				"z": 2.8895278516,
				"element": "C" 
			},
			{
				"x": -2.7678614459,
				"y": 1.7981931945,
				"z": 3.6470360839,
				"element": "O" 
			},
			{
				"x": -1.2929921971,
				"y": 0.4602014124,
				"z": 5.520243698,
				"element": "H" 
			},
			{
				"x": 0.4505520528,
				"y": 0.3584390921,
				"z": 5.3510299387,
				"element": "H" 
			},
			{
				"x": -0.3310402807,
				"y": 1.9315822016,
				"z": 5.2933546627,
				"element": "H" 
			},
			{
				"x": 1.5910858175,
				"y": -1.2456750748,
				"z": 3.8339434032,
				"element": "H" 
			},
			{
				"x": 2.1587273689,
				"y": 0.4248847888,
				"z": 3.9197648044,
				"element": "H" 
			},
			{
				"x": 2.4255122987,
				"y": -0.5244522944,
				"z": 2.4549690943,
				"element": "H" 
			},
			{
				"x": -2.2740819977,
				"y": -0.013412827,
				"z": -0.9761100929,
				"element": "H" 
			},
			{
				"x": -1.1596631246,
				"y": 1.2991186018,
				"z": -1.2774197314,
				"element": "H" 
			},
			{
				"x": -0.5388224794,
				"y": -1.693152266,
				"z": -1.1383192317,
				"element": "H" 
			},
			{
				"x": -0.2554874353,
				"y": -0.5851294309,
				"z": -2.4877258968,
				"element": "H" 
			},
			{
				"x": 3.136208481,
				"y": -1.316036046,
				"z": -0.9146518291,
				"element": "H" 
			},
			{
				"x": 1.80794717,
				"y": -2.4741257942,
				"z": -1.1166437316,
				"element": "H" 
			},
			{
				"x": 2.253801655,
				"y": -1.3906659119,
				"z": -2.4593090905,
				"element": "H" 
			},
			{
				"x": 1.9469594409,
				"y": 2.1163885578,
				"z": -2.6463648721,
				"element": "H" 
			},
			{
				"x": -3.9441008935,
				"y": 0.8080780949,
				"z": 0.5718208418,
				"element": "H" 
			},
			{
				"x": -3.0982012932,
				"y": 2.2616281152,
				"z": 0.0447477244,
				"element": "H" 
			},
			{
				"x": -3.853075638,
				"y": 2.206926373,
				"z": 1.645621561,
				"element": "H" 
			},
			{
				"x": -2.4445754512,
				"y": 1.9241081246,
				"z": 4.5464131855,
				"element": "H" 
			}
		],
		 "valence_orbital": [ 
			{
				"type": "occ",
				"energy": -0.29873,
				"method": "rhf"
			},
			{
				"type": "occ",
				"energy": -0.27989,
				"method": "rhf"
			},
			{
				"type": "occ",
				"energy": -0.27036,
				"method": "rhf"
			},
			{
				"type": "occ",
				"energy": -0.21766,
				"method": "rhf"
			},
			{
				"type": "occ",
				"energy": -0.18594,
				"method": "rhf"
			},
			{
				"type": "unocc",
				"energy": 0.00223,
				"method": "rhf"
			},
			{
				"type": "unocc",
				"energy": 0.01153,
				"method": "rhf"
			},
			{
				"type": "unocc",
				"energy": 0.03698,
				"method": "rhf"
			},
			{
				"type": "unocc",
				"energy": 0.07025,
				"method": "rhf"
			},
			{
				"type": "unocc",
				"energy": 0.07417,
				"method": "rhf"
			}
		],
		"cosmo_sigma_profile": { 
			"-0.025": 0.0,
			"-0.024": 0.0,
			"-0.023": 0.0,
			"-0.022": 0.0,
			"-0.021": 0.0,
			"-0.02": 0.0,
			"-0.019": 0.0772797368793,
			"-0.018": 0.949105170973,
			"-0.017": 0.857173489721,
			"-0.016": 0.85795353208,
			"-0.015": 1.34717339639,
			"-0.014": 1.77153293179,
			"-0.013": 0.751482883431,
			"-0.012": 1.93245257974,
			"-0.011": 1.92172438088,
			"-0.01": 1.76567499222,
			"-0.009": 1.35475512836,
			"-0.008": 2.37690999397,
			"-0.007": 2.51485669728,
			"-0.006": 2.67261376793,
			"-0.005": 8.22946047348,
			"-0.004": 25.6691459035,
			"-0.003": 32.3747103452,
			"-0.002": 30.8532458186,
			"-0.001": 32.6334845189,
			"0.0": 25.4472672405,
			"0.001": 18.5463279545,
			"0.002": 10.7274627801,
			"0.003": 10.8057436966,
			"0.004": 10.2873087539,
			"0.005": 13.6245825086,
			"0.006": 11.7199648982,
			"0.007": 8.64966653937,
			"0.008": 5.32851434862,
			"0.009": 4.91269617877,
			"0.01": 5.70411604246,
			"0.011": 6.70672505803,
			"0.012": 2.77646085791,
			"0.013": 0.0,
			"0.014": 0.0,
			"0.015": 0.0,
			"0.016": 0.0,
			"0.017": 0.0,
			"0.018": 0.0,
			"0.019": 0.0,
			"0.02": 0.0,
			"0.021": 0.0,
			"0.022": 0.0,
			"0.023": 0.0,
			"0.024": 0.0,
			"0.025": 0.0
		}
	}
}
