{
	 "smiles": "COC1=CC(C=CC(O)=O)=CC(OC)=C1O", 
	 "Tm": 477.15, 
	 "num_atms": 28, 
	 "gaussian": { 
		 "optdone": 1, 
		 "sigma_profile": "yes", 
		 "theory": "DFT", 
		 "functional": "B3LYP", 
		 "basiset": "6-31G**", 
		 "properties": { 
			 "R2extent": 5287.1415, 
			 "electric_dipole_moment_norm": 1.93095225472, 
			 "electric_quadrupole_moment_norm": 8.98853502691, 
			 "total_energy": -802.488852601, 
			 "HOMO_LUMO_gap": 0.14505, 
			 "cosmo_polarized_energy": -12.67, 
			 "cosmo_cavitation_energy": 32.49, 
			 "cosmo_dispersion_energy": -23.53, 
			 "cosmo_repulsion_energy": 1.83, 
			 "cosmo_total_nonelectrostatic_energy": 10.79, 
			 "SMD_solvation_energy": 8.67 
		},
		"coords": [
			{
				"x": -2.304675735,
				"y": 0.8333971177,
				"z": 4.4947575088,
				"element": "C" 
			},
			{
				"x": -1.4797872607,
				"y": -0.2851951587,
				"z": 4.154275382,
				"element": "O" 
			},
			{
				"x": -0.7970206785,
				"y": -0.2006708984,
				"z": 2.9675781022,
				"element": "C" 
			},
			{
				"x": 0.5930697129,
				"y": -0.2959560146,
				"z": 2.9896712488,
				"element": "C" 
			},
			{
				"x": 1.3609032597,
				"y": -0.2857306803,
				"z": 1.8087083709,
				"element": "C" 
			},
			{
				"x": 2.8043278367,
				"y": -0.4008256949,
				"z": 1.9745867788,
				"element": "C" 
			},
			{
				"x": 3.8853952709,
				"y": -0.4239797112,
				"z": 1.1511850513,
				"element": "C" 
			},
			{
				"x": 3.9874133267,
				"y": -0.3327953975,
				"z": -0.3091261487,
				"element": "C" 
			},
			{
				"x": 5.2939505202,
				"y": -0.4010311637,
				"z": -0.6895973872,
				"element": "O" 
			},
			{
				"x": 3.1067941253,
				"y": -0.2124975898,
				"z": -1.1496409187,
				"element": "O" 
			},
			{
				"x": 0.6935649346,
				"y": -0.1591567069,
				"z": 0.5689257173,
				"element": "C" 
			},
			{
				"x": -0.6876673713,
				"y": -0.0626813706,
				"z": 0.5472916719,
				"element": "C" 
			},
			{
				"x": -1.4630411891,
				"y": 0.0535554749,
				"z": -0.5807280152,
				"element": "O" 
			},
			{
				"x": -0.8046720342,
				"y": 0.0543532671,
				"z": -1.8434004792,
				"element": "C" 
			},
			{
				"x": -1.4531301411,
				"y": -0.0933892162,
				"z": 1.7332444679,
				"element": "C" 
			},
			{
				"x": -2.8077035947,
				"y": -0.0282951546,
				"z": 1.6668078446,
				"element": "O" 
			},
			{
				"x": -2.7004215761,
				"y": 0.6218431654,
				"z": 5.4901184554,
				"element": "H" 
			},
			{
				"x": -1.7135418619,
				"y": 1.7577113956,
				"z": 4.5310266334,
				"element": "H" 
			},
			{
				"x": -3.1312067216,
				"y": 0.956566353,
				"z": 3.789781158,
				"element": "H" 
			},
			{
				"x": 1.0704164345,
				"y": -0.388628218,
				"z": 3.9600763517,
				"element": "H" 
			},
			{
				"x": 3.0783192539,
				"y": -0.4910539224,
				"z": 3.0257176826,
				"element": "H" 
			},
			{
				"x": 4.8532605379,
				"y": -0.5265781348,
				"z": 1.6313222069,
				"element": "H" 
			},
			{
				"x": 5.2859875619,
				"y": -0.3354636611,
				"z": -1.658348555,
				"element": "H" 
			},
			{
				"x": 1.276654307,
				"y": -0.1433901304,
				"z": -0.3408409776,
				"element": "H" 
			},
			{
				"x": -1.5911585992,
				"y": 0.1437717143,
				"z": -2.5940009163,
				"element": "H" 
			},
			{
				"x": -0.1142372395,
				"y": 0.9009711777,
				"z": -1.9296759874,
				"element": "H" 
			},
			{
				"x": -0.2479984461,
				"y": -0.8764981322,
				"z": -2.0001795217,
				"element": "H" 
			},
			{
				"x": -3.0336946333,
				"y": 0.0362472906,
				"z": 0.7243642746,
				"element": "H" 
			}
		],
		 "valence_orbital": [ 
			{
				"type": "occ",
				"energy": -0.28517,
				"method": "rhf"
			},
			{
				"type": "occ",
				"energy": -0.26912,
				"method": "rhf"
			},
			{
				"type": "occ",
				"energy": -0.26855,
				"method": "rhf"
			},
			{
				"type": "occ",
				"energy": -0.22658,
				"method": "rhf"
			},
			{
				"type": "occ",
				"energy": -0.20646,
				"method": "rhf"
			},
			{
				"type": "unocc",
				"energy": -0.06141,
				"method": "rhf"
			},
			{
				"type": "unocc",
				"energy": 0.01197,
				"method": "rhf"
			},
			{
				"type": "unocc",
				"energy": 0.02692,
				"method": "rhf"
			},
			{
				"type": "unocc",
				"energy": 0.0685,
				"method": "rhf"
			},
			{
				"type": "unocc",
				"energy": 0.08818,
				"method": "rhf"
			}
		],
		"cosmo_sigma_profile": { 
			"-0.025": 0.0,
			"-0.024": 0.0,
			"-0.023": 0.0,
			"-0.022": 0.0,
			"-0.021": 0.0,
			"-0.02": 0.0,
			"-0.019": 0.0,
			"-0.018": 0.296589908368,
			"-0.017": 0.771307145813,
			"-0.016": 0.954459735952,
			"-0.015": 0.905563507413,
			"-0.014": 1.13069596434,
			"-0.013": 1.58935744236,
			"-0.012": 1.20924174464,
			"-0.011": 0.992505129099,
			"-0.01": 1.49877096845,
			"-0.009": 1.25379774492,
			"-0.008": 1.40682540234,
			"-0.007": 5.58695382362,
			"-0.006": 12.3430296783,
			"-0.005": 15.9951011812,
			"-0.004": 18.4289471833,
			"-0.003": 21.3574591544,
			"-0.002": 17.5688025809,
			"-0.001": 16.623865803,
			"0.0": 15.5311571299,
			"0.001": 19.5259472851,
			"0.002": 21.6484621785,
			"0.003": 23.6472633664,
			"0.004": 16.9066459694,
			"0.005": 6.99057137888,
			"0.006": 6.29143964877,
			"0.007": 6.6517650158,
			"0.008": 5.43354957858,
			"0.009": 4.71977063234,
			"0.01": 5.8733367394,
			"0.011": 2.92201270291,
			"0.012": 2.28088070876,
			"0.013": 0.157698494804,
			"0.014": 0.0,
			"0.015": 0.0,
			"0.016": 0.0,
			"0.017": 0.0,
			"0.018": 0.0,
			"0.019": 0.0,
			"0.02": 0.0,
			"0.021": 0.0,
			"0.022": 0.0,
			"0.023": 0.0,
			"0.024": 0.0,
			"0.025": 0.0
		}
	}
}
