{
	 "smiles": "C1CCC1", 
	 "Tm": 182.35, 
	 "num_atms": 12, 
	 "gaussian": { 
		 "optdone": 1, 
		 "sigma_profile": "yes", 
		 "theory": "DFT", 
		 "functional": "B3LYP", 
		 "basiset": "6-31G**", 
		 "properties": { 
			 "R2extent": 642.5246, 
			 "electric_dipole_moment_norm": 0.0, 
			 "electric_quadrupole_moment_norm": 0.735062208252, 
			 "total_energy": -157.221574955, 
			 "HOMO_LUMO_gap": 0.39572, 
			 "cosmo_polarized_energy": -0.45, 
			 "cosmo_cavitation_energy": 13.69, 
			 "cosmo_dispersion_energy": -10.71, 
			 "cosmo_repulsion_energy": 0.99, 
			 "cosmo_total_nonelectrostatic_energy": 3.97, 
			 "SMD_solvation_energy": 2.06 
		},
		"coords": [
			{
				"x": 2.2518248596,
				"y": -1.4592861097,
				"z": -1.0764833383,
				"element": "C" 
			},
			{
				"x": 1.5411567397,
				"y": -0.1676095235,
				"z": -1.5656714669,
				"element": "C" 
			},
			{
				"x": 0.635306886,
				"y": -0.2378237766,
				"z": -0.3058153729,
				"element": "C" 
			},
			{
				"x": 1.0323762568,
				"y": -1.7317939055,
				"z": -0.1537600251,
				"element": "C" 
			},
			{
				"x": 2.5076613053,
				"y": -2.2167658368,
				"z": -1.8234488594,
				"element": "H" 
			},
			{
				"x": 3.1514841944,
				"y": -1.2283820956,
				"z": -0.4964901191,
				"element": "H" 
			},
			{
				"x": 0.9695580253,
				"y": -0.3455800614,
				"z": -2.4825711488,
				"element": "H" 
			},
			{
				"x": 2.1512059159,
				"y": 0.7294957369,
				"z": -1.7079074744,
				"element": "H" 
			},
			{
				"x": 1.0359522581,
				"y": 0.3701453032,
				"z": 0.5120826723,
				"element": "H" 
			},
			{
				"x": -0.4260478671,
				"y": -0.0000110158,
				"z": -0.4248073831,
				"element": "H" 
			},
			{
				"x": 1.2278287361,
				"y": -2.1092416151,
				"z": 0.8544654216,
				"element": "H" 
			},
			{
				"x": 0.3036926901,
				"y": -2.3926471003,
				"z": -0.634792906,
				"element": "H" 
			}
		],
		 "valence_orbital": [ 
			{
				"type": "occ",
				"energy": -0.37801,
				"method": "rhf"
			},
			{
				"type": "occ",
				"energy": -0.34391,
				"method": "rhf"
			},
			{
				"type": "occ",
				"energy": -0.30953,
				"method": "rhf"
			},
			{
				"type": "occ",
				"energy": -0.29893,
				"method": "rhf"
			},
			{
				"type": "occ",
				"energy": -0.29892,
				"method": "rhf"
			},
			{
				"type": "unocc",
				"energy": 0.0968,
				"method": "rhf"
			},
			{
				"type": "unocc",
				"energy": 0.10326,
				"method": "rhf"
			},
			{
				"type": "unocc",
				"energy": 0.13748,
				"method": "rhf"
			},
			{
				"type": "unocc",
				"energy": 0.13748,
				"method": "rhf"
			},
			{
				"type": "unocc",
				"energy": 0.1829,
				"method": "rhf"
			}
		],
		"cosmo_sigma_profile": { 
			"-0.025": 0.0,
			"-0.024": 0.0,
			"-0.023": 0.0,
			"-0.022": 0.0,
			"-0.021": 0.0,
			"-0.02": 0.0,
			"-0.019": 0.0,
			"-0.018": 0.0,
			"-0.017": 0.0,
			"-0.016": 0.0,
			"-0.015": 0.0,
			"-0.014": 0.0,
			"-0.013": 0.0,
			"-0.012": 0.0,
			"-0.011": 0.0,
			"-0.01": 0.0,
			"-0.009": 0.0,
			"-0.008": 0.0,
			"-0.007": 0.0,
			"-0.006": 0.0,
			"-0.005": 0.0,
			"-0.004": 0.0,
			"-0.003": 5.03650927441,
			"-0.002": 16.8017301675,
			"-0.001": 18.629942347,
			"0.0": 23.4709444465,
			"0.001": 20.9382910875,
			"0.002": 16.2693790407,
			"0.003": 4.98792484541,
			"0.004": 0.0,
			"0.005": 0.0,
			"0.006": 0.0,
			"0.007": 0.0,
			"0.008": 0.0,
			"0.009": 0.0,
			"0.01": 0.0,
			"0.011": 0.0,
			"0.012": 0.0,
			"0.013": 0.0,
			"0.014": 0.0,
			"0.015": 0.0,
			"0.016": 0.0,
			"0.017": 0.0,
			"0.018": 0.0,
			"0.019": 0.0,
			"0.02": 0.0,
			"0.021": 0.0,
			"0.022": 0.0,
			"0.023": 0.0,
			"0.024": 0.0,
			"0.025": 0.0
		}
	}
}
