{
	 "smiles": "FC(F)(F)C(F)(F)C(F)(F)C(F)(F)C(F)(F)C(F)(F)C(F)(F)C(F)(F)F", 
	 "Tm": 249.05, 
	 "num_atms": 26, 
	 "gaussian": { 
		 "optdone": 1, 
		 "sigma_profile": "yes", 
		 "theory": "DFT", 
		 "functional": "B3LYP", 
		 "basiset": "6-31G**", 
		 "properties": { 
			 "R2extent": 7926.2243, 
			 "electric_dipole_moment_norm": 0.203912579308, 
			 "electric_quadrupole_moment_norm": 1.25984223219, 
			 "total_energy": -2101.90798671, 
			 "HOMO_LUMO_gap": 0.35274, 
			 "cosmo_polarized_energy": -1.13, 
			 "cosmo_cavitation_energy": 36.18, 
			 "cosmo_dispersion_energy": -23.64, 
			 "cosmo_repulsion_energy": 1.46, 
			 "cosmo_total_nonelectrostatic_energy": 14.0, 
			 "SMD_solvation_energy": 11.76 
		},
		"coords": [
			{
				"x": -2.8984034265,
				"y": 3.4793074916,
				"z": -1.4459792773,
				"element": "F" 
			},
			{
				"x": -1.9505928256,
				"y": 2.787381193,
				"z": -0.8051901189,
				"element": "C" 
			},
			{
				"x": -1.3750349381,
				"y": 3.5784384264,
				"z": 0.1079244863,
				"element": "F" 
			},
			{
				"x": -1.0270791302,
				"y": 2.397795079,
				"z": -1.6942314079,
				"element": "F" 
			},
			{
				"x": -2.5994475931,
				"y": 1.5565399434,
				"z": -0.1277529285,
				"element": "C" 
			},
			{
				"x": -3.0615031967,
				"y": 0.7376977092,
				"z": -1.0965935888,
				"element": "F" 
			},
			{
				"x": -3.6448042485,
				"y": 2.0056395634,
				"z": 0.6051757545,
				"element": "F" 
			},
			{
				"x": -1.7120667457,
				"y": 0.7311730032,
				"z": 0.853822272,
				"element": "C" 
			},
			{
				"x": -2.4781354388,
				"y": -0.3085983154,
				"z": 1.2641407658,
				"element": "F" 
			},
			{
				"x": -1.4229514124,
				"y": 1.5148814269,
				"z": 1.9137027032,
				"element": "F" 
			},
			{
				"x": -0.3816317564,
				"y": 0.1664184504,
				"z": 0.2770367058,
				"element": "C" 
			},
			{
				"x": 0.5030245993,
				"y": 1.1883185591,
				"z": 0.2025403896,
				"element": "F" 
			},
			{
				"x": -0.6098554874,
				"y": -0.3170872161,
				"z": -0.9652819044,
				"element": "F" 
			},
			{
				"x": 0.2274363802,
				"y": -0.976827247,
				"z": 1.1419593992,
				"element": "C" 
			},
			{
				"x": 0.1127955141,
				"y": -0.6276130988,
				"z": 2.4459052998,
				"element": "F" 
			},
			{
				"x": -0.4808284812,
				"y": -2.1078736988,
				"z": 0.9275573213,
				"element": "F" 
			},
			{
				"x": 1.7381860109,
				"y": -1.30451038,
				"z": 0.9301321073,
				"element": "C" 
			},
			{
				"x": 2.4551798163,
				"y": -0.2251555501,
				"z": 1.3148808284,
				"element": "F" 
			},
			{
				"x": 2.0147465345,
				"y": -2.3310647667,
				"z": 1.7681047517,
				"element": "F" 
			},
			{
				"x": 2.2549125636,
				"y": -1.6964721848,
				"z": -0.4827598998,
				"element": "C" 
			},
			{
				"x": 3.5862293171,
				"y": -1.8957346846,
				"z": -0.3482697504,
				"element": "F" 
			},
			{
				"x": 2.0493855413,
				"y": -0.6561794205,
				"z": -1.3243015874,
				"element": "F" 
			},
			{
				"x": 1.6737832954,
				"y": -2.9715621295,
				"z": -1.1451260607,
				"element": "C" 
			},
			{
				"x": 2.3857695558,
				"y": -3.2379793087,
				"z": -2.2461912642,
				"element": "F" 
			},
			{
				"x": 1.752739168,
				"y": -4.0155542982,
				"z": -0.3129807263,
				"element": "F" 
			},
			{
				"x": 0.3961463841,
				"y": -2.7846785463,
				"z": -1.4963242703,
				"element": "F" 
			}
		],
		 "valence_orbital": [ 
			{
				"type": "occ",
				"energy": -0.42697,
				"method": "rhf"
			},
			{
				"type": "occ",
				"energy": -0.40985,
				"method": "rhf"
			},
			{
				"type": "occ",
				"energy": -0.38745,
				"method": "rhf"
			},
			{
				"type": "occ",
				"energy": -0.37239,
				"method": "rhf"
			},
			{
				"type": "occ",
				"energy": -0.35162,
				"method": "rhf"
			},
			{
				"type": "unocc",
				"energy": 0.00112,
				"method": "rhf"
			},
			{
				"type": "unocc",
				"energy": 0.01042,
				"method": "rhf"
			},
			{
				"type": "unocc",
				"energy": 0.03575,
				"method": "rhf"
			},
			{
				"type": "unocc",
				"energy": 0.04188,
				"method": "rhf"
			},
			{
				"type": "unocc",
				"energy": 0.07118,
				"method": "rhf"
			}
		],
		"cosmo_sigma_profile": { 
			"-0.025": 0.0,
			"-0.024": 0.0,
			"-0.023": 0.0,
			"-0.022": 0.0,
			"-0.021": 0.0,
			"-0.02": 0.0,
			"-0.019": 0.0,
			"-0.018": 0.0,
			"-0.017": 0.0,
			"-0.016": 0.0,
			"-0.015": 0.0,
			"-0.014": 0.0,
			"-0.013": 0.0,
			"-0.012": 0.0,
			"-0.011": 0.0,
			"-0.01": 0.0,
			"-0.009": 0.0,
			"-0.008": 0.0,
			"-0.007": 0.0,
			"-0.006": 0.0,
			"-0.005": 0.781384471377,
			"-0.004": 3.43427676225,
			"-0.003": 8.56679353053,
			"-0.002": 18.6376247152,
			"-0.001": 38.0661224083,
			"0.0": 104.282018092,
			"0.001": 114.951388392,
			"0.002": 2.64997103663,
			"0.003": 0.0,
			"0.004": 0.0,
			"0.005": 0.0,
			"0.006": 0.0,
			"0.007": 0.0,
			"0.008": 0.0,
			"0.009": 0.0,
			"0.01": 0.0,
			"0.011": 0.0,
			"0.012": 0.0,
			"0.013": 0.0,
			"0.014": 0.0,
			"0.015": 0.0,
			"0.016": 0.0,
			"0.017": 0.0,
			"0.018": 0.0,
			"0.019": 0.0,
			"0.02": 0.0,
			"0.021": 0.0,
			"0.022": 0.0,
			"0.023": 0.0,
			"0.024": 0.0,
			"0.025": 0.0
		}
	}
}
