{
	 "smiles": "CC1(C)N[C@@H](CC2=C1NC1=CC=CC=C21)C(O)=O", 
	 "Tm": 501.15, 
	 "num_atms": 34, 
	 "gaussian": { 
		 "optdone": 1, 
		 "sigma_profile": "yes", 
		 "theory": "DFT", 
		 "functional": "B3LYP", 
		 "basiset": "6-31G**", 
		 "properties": { 
			 "R2extent": 5497.2776, 
			 "electric_dipole_moment_norm": 2.98166750158, 
			 "electric_quadrupole_moment_norm": 6.44524683391, 
			 "total_energy": -803.10525445, 
			 "HOMO_LUMO_gap": 0.19019, 
			 "cosmo_polarized_energy": -18.74, 
			 "cosmo_cavitation_energy": 35.46, 
			 "cosmo_dispersion_energy": -25.02, 
			 "cosmo_repulsion_energy": 1.91, 
			 "cosmo_total_nonelectrostatic_energy": 12.35, 
			 "SMD_solvation_energy": 4.89 
		},
		"coords": [
			{
				"x": -1.391870144,
				"y": -1.4791830095,
				"z": 0.7100988823,
				"element": "C" 
			},
			{
				"x": -2.0591569047,
				"y": -0.1852574462,
				"z": 0.1885086353,
				"element": "C" 
			},
			{
				"x": -2.8791798871,
				"y": 0.4500905779,
				"z": 1.3284370176,
				"element": "C" 
			},
			{
				"x": -3.0254600984,
				"y": -0.5175288248,
				"z": -0.8902865677,
				"element": "N" 
			},
			{
				"x": -2.5087187737,
				"y": -0.6241015094,
				"z": -2.2634501179,
				"element": "C" 
			},
			{
				"x": -1.6946781494,
				"y": 0.5950789787,
				"z": -2.755005189,
				"element": "C" 
			},
			{
				"x": -0.8326253882,
				"y": 1.1220685691,
				"z": -1.6485628308,
				"element": "C" 
			},
			{
				"x": -1.0141838197,
				"y": 0.7720263494,
				"z": -0.3349757814,
				"element": "C" 
			},
			{
				"x": -0.0547877153,
				"y": 1.4011363162,
				"z": 0.4469354752,
				"element": "N" 
			},
			{
				"x": 0.752742246,
				"y": 2.1792093028,
				"z": -0.3617879994,
				"element": "C" 
			},
			{
				"x": 1.8394753281,
				"y": 2.9970590825,
				"z": -0.0396840413,
				"element": "C" 
			},
			{
				"x": 2.4694025671,
				"y": 3.670450434,
				"z": -1.0820176131,
				"element": "C" 
			},
			{
				"x": 2.0272855235,
				"y": 3.5320518766,
				"z": -2.4129089671,
				"element": "C" 
			},
			{
				"x": 0.945039901,
				"y": 2.7184647287,
				"z": -2.7286725183,
				"element": "C" 
			},
			{
				"x": 0.2871809965,
				"y": 2.0261907714,
				"z": -1.6982613672,
				"element": "C" 
			},
			{
				"x": -1.7475557607,
				"y": -1.9368596218,
				"z": -2.4849099345,
				"element": "C" 
			},
			{
				"x": -2.4444804753,
				"y": -3.00826933,
				"z": -2.042956875,
				"element": "O" 
			},
			{
				"x": -0.6783842561,
				"y": -2.0466813211,
				"z": -3.0449865015,
				"element": "O" 
			},
			{
				"x": -0.7610023223,
				"y": -1.9397464683,
				"z": -0.0531587413,
				"element": "H" 
			},
			{
				"x": -0.7508782043,
				"y": -1.2594762155,
				"z": 1.5708875698,
				"element": "H" 
			},
			{
				"x": -2.1584400641,
				"y": -2.1970855348,
				"z": 1.0128688557,
				"element": "H" 
			},
			{
				"x": -2.2541151307,
				"y": 0.6546715832,
				"z": 2.202914072,
				"element": "H" 
			},
			{
				"x": -3.6773740007,
				"y": -0.232779088,
				"z": 1.6354865316,
				"element": "H" 
			},
			{
				"x": -3.3280539185,
				"y": 1.3969109104,
				"z": 1.009121427,
				"element": "H" 
			},
			{
				"x": -3.7502678595,
				"y": 0.1943834109,
				"z": -0.8959655546,
				"element": "H" 
			},
			{
				"x": -3.3995211864,
				"y": -0.7338692025,
				"z": -2.8966767633,
				"element": "H" 
			},
			{
				"x": -1.0887842005,
				"y": 0.3019669735,
				"z": -3.6182250908,
				"element": "H" 
			},
			{
				"x": -2.3952128439,
				"y": 1.3668010982,
				"z": -3.1059139048,
				"element": "H" 
			},
			{
				"x": 0.0396612916,
				"y": 1.3094907091,
				"z": 1.444714589,
				"element": "H" 
			},
			{
				"x": 2.1826703523,
				"y": 3.1034772074,
				"z": 0.9859234174,
				"element": "H" 
			},
			{
				"x": 3.3180586621,
				"y": 4.3127208863,
				"z": -0.8651132526,
				"element": "H" 
			},
			{
				"x": 2.5434900691,
				"y": 4.0705746647,
				"z": -3.2024223949,
				"element": "H" 
			},
			{
				"x": 0.6138285986,
				"y": 2.6172928555,
				"z": -3.7585882403,
				"element": "H" 
			},
			{
				"x": -1.9026044326,
				"y": -3.7828797146,
				"z": -2.269566226,
				"element": "H" 
			}
		],
		 "valence_orbital": [ 
			{
				"type": "occ",
				"energy": -0.27479,
				"method": "rhf"
			},
			{
				"type": "occ",
				"energy": -0.26179,
				"method": "rhf"
			},
			{
				"type": "occ",
				"energy": -0.23158,
				"method": "rhf"
			},
			{
				"type": "occ",
				"energy": -0.21106,
				"method": "rhf"
			},
			{
				"type": "occ",
				"energy": -0.19132,
				"method": "rhf"
			},
			{
				"type": "unocc",
				"energy": -0.00113,
				"method": "rhf"
			},
			{
				"type": "unocc",
				"energy": 0.00413,
				"method": "rhf"
			},
			{
				"type": "unocc",
				"energy": 0.03416,
				"method": "rhf"
			},
			{
				"type": "unocc",
				"energy": 0.06186,
				"method": "rhf"
			},
			{
				"type": "unocc",
				"energy": 0.0728,
				"method": "rhf"
			}
		],
		"cosmo_sigma_profile": { 
			"-0.025": 0.0,
			"-0.024": 0.0,
			"-0.023": 0.0,
			"-0.022": 0.0,
			"-0.021": 0.0,
			"-0.02": 0.0,
			"-0.019": 0.0,
			"-0.018": 0.560584131683,
			"-0.017": 0.723739506993,
			"-0.016": 0.960484990381,
			"-0.015": 1.12065378096,
			"-0.014": 2.13019523448,
			"-0.013": 1.80248375517,
			"-0.012": 1.59033194512,
			"-0.011": 2.27969167819,
			"-0.01": 3.93323200459,
			"-0.009": 4.51605233067,
			"-0.008": 3.62933413315,
			"-0.007": 7.46106245554,
			"-0.006": 9.28702793291,
			"-0.005": 11.869307518,
			"-0.004": 17.0308483853,
			"-0.003": 23.6465824526,
			"-0.002": 24.4923671772,
			"-0.001": 22.4392094498,
			"0.0": 24.1781816943,
			"0.001": 15.4067382086,
			"0.002": 10.6311302427,
			"0.003": 10.093430922,
			"0.004": 10.3682204278,
			"0.005": 15.2247843902,
			"0.006": 13.6651165413,
			"0.007": 13.1787931509,
			"0.008": 6.371792624,
			"0.009": 3.84263446613,
			"0.01": 2.81613241439,
			"0.011": 4.95090074799,
			"0.012": 4.66291277768,
			"0.013": 1.01564041849,
			"0.014": 1.02587572334,
			"0.015": 0.36640808871,
			"0.016": 0.761823186278,
			"0.017": 0.484170186807,
			"0.018": 0.0671106286697,
			"0.019": 0.0,
			"0.02": 0.0,
			"0.021": 0.0,
			"0.022": 0.0,
			"0.023": 0.0,
			"0.024": 0.0,
			"0.025": 0.0
		}
	}
}
