{
	 "smiles": "ClC1=CC2=C(OCC(=O)N2CCC#N)C=C1", 
	 "Tm": 404.15, 
	 "num_atms": 25, 
	 "gaussian": { 
		 "optdone": 1, 
		 "sigma_profile": "yes", 
		 "theory": "DFT", 
		 "functional": "B3LYP", 
		 "basiset": "6-31G**", 
		 "properties": { 
			 "R2extent": 4773.5445, 
			 "electric_dipole_moment_norm": 4.65922804872, 
			 "electric_quadrupole_moment_norm": 18.5375133036, 
			 "total_energy": -1144.72157086, 
			 "HOMO_LUMO_gap": 0.19241, 
			 "cosmo_polarized_energy": -16.47, 
			 "cosmo_cavitation_energy": 31.86, 
			 "cosmo_dispersion_energy": -22.48, 
			 "cosmo_repulsion_energy": 1.76, 
			 "cosmo_total_nonelectrostatic_energy": 11.14, 
			 "SMD_solvation_energy": 7.15 
		},
		"coords": [
			{
				"x": 1.7718060775,
				"y": 4.3211096862,
				"z": 0.3150399333,
				"element": "Cl" 
			},
			{
				"x": 0.9576362341,
				"y": 2.8138493632,
				"z": 0.7022442472,
				"element": "C" 
			},
			{
				"x": 0.9475330398,
				"y": 1.7932556045,
				"z": -0.2493238365,
				"element": "C" 
			},
			{
				"x": 0.2993367971,
				"y": 0.5860623144,
				"z": 0.0363966692,
				"element": "C" 
			},
			{
				"x": -0.3169366814,
				"y": 0.4262078772,
				"z": 1.2929995357,
				"element": "C" 
			},
			{
				"x": -0.9868638917,
				"y": -0.7281074839,
				"z": 1.5955150781,
				"element": "O" 
			},
			{
				"x": -0.4374492745,
				"y": -1.8940255037,
				"z": 0.987192872,
				"element": "C" 
			},
			{
				"x": -0.1997749456,
				"y": -1.7357342218,
				"z": -0.5078886333,
				"element": "C" 
			},
			{
				"x": -0.317946601,
				"y": -2.6735888133,
				"z": -1.2796112815,
				"element": "O" 
			},
			{
				"x": 0.2040792395,
				"y": -0.4707854317,
				"z": -0.9041541388,
				"element": "N" 
			},
			{
				"x": 0.5082870778,
				"y": -0.2668581916,
				"z": -2.3192003921,
				"element": "C" 
			},
			{
				"x": -0.6328912774,
				"y": 0.4830871793,
				"z": -3.0442670874,
				"element": "C" 
			},
			{
				"x": -0.3023923242,
				"y": 0.73711122,
				"z": -4.447397554,
				"element": "C" 
			},
			{
				"x": -0.0144901265,
				"y": 0.9323590234,
				"z": -5.5545146955,
				"element": "N" 
			},
			{
				"x": -0.2946511617,
				"y": 1.4544878816,
				"z": 2.2293018801,
				"element": "C" 
			},
			{
				"x": 0.3369686519,
				"y": 2.6636086986,
				"z": 1.9392417726,
				"element": "C" 
			},
			{
				"x": 1.4380524896,
				"y": 1.9563354467,
				"z": -1.1999317426,
				"element": "H" 
			},
			{
				"x": -1.1536649577,
				"y": -2.7017431151,
				"z": 1.1336213113,
				"element": "H" 
			},
			{
				"x": 0.512585516,
				"y": -2.1695298708,
				"z": 1.4711265648,
				"element": "H" 
			},
			{
				"x": 1.4524204461,
				"y": 0.2724541449,
				"z": -2.4243949631,
				"element": "H" 
			},
			{
				"x": 0.6338191575,
				"y": -1.2573245516,
				"z": -2.7552477522,
				"element": "H" 
			},
			{
				"x": -1.5486157079,
				"y": -0.1157206397,
				"z": -2.9950139787,
				"element": "H" 
			},
			{
				"x": -0.838923791,
				"y": 1.4399361675,
				"z": -2.5520110464,
				"element": "H" 
			},
			{
				"x": -0.7864209639,
				"y": 1.2934214859,
				"z": 3.1825624884,
				"element": "H" 
			},
			{
				"x": 0.3532969777,
				"y": 3.4689317296,
				"z": 2.6639147493,
				"element": "H" 
			}
		],
		 "valence_orbital": [ 
			{
				"type": "occ",
				"energy": -0.32548,
				"method": "rhf"
			},
			{
				"type": "occ",
				"energy": -0.31514,
				"method": "rhf"
			},
			{
				"type": "occ",
				"energy": -0.28148,
				"method": "rhf"
			},
			{
				"type": "occ",
				"energy": -0.2627,
				"method": "rhf"
			},
			{
				"type": "occ",
				"energy": -0.23343,
				"method": "rhf"
			},
			{
				"type": "unocc",
				"energy": -0.04102,
				"method": "rhf"
			},
			{
				"type": "unocc",
				"energy": -0.02828,
				"method": "rhf"
			},
			{
				"type": "unocc",
				"energy": 0.00095,
				"method": "rhf"
			},
			{
				"type": "unocc",
				"energy": 0.01482,
				"method": "rhf"
			},
			{
				"type": "unocc",
				"energy": 0.0238,
				"method": "rhf"
			}
		],
		"cosmo_sigma_profile": { 
			"-0.025": 0.0,
			"-0.024": 0.0,
			"-0.023": 0.0,
			"-0.022": 0.0,
			"-0.021": 0.0,
			"-0.02": 0.0,
			"-0.019": 0.0,
			"-0.018": 0.0,
			"-0.017": 0.0,
			"-0.016": 0.0,
			"-0.015": 0.0,
			"-0.014": 0.0,
			"-0.013": 0.0,
			"-0.012": 0.0521849789572,
			"-0.011": 0.956691088236,
			"-0.01": 1.90272588436,
			"-0.009": 4.16519139896,
			"-0.008": 13.4883326993,
			"-0.007": 17.4789615097,
			"-0.006": 17.0775963472,
			"-0.005": 18.0024803234,
			"-0.004": 15.6634927078,
			"-0.003": 11.2339949474,
			"-0.002": 12.7371671644,
			"-0.001": 11.2126142054,
			"0.0": 11.997495677,
			"0.001": 17.3198636865,
			"0.002": 20.2575518563,
			"0.003": 17.3824501916,
			"0.004": 14.0041481524,
			"0.005": 10.7654097335,
			"0.006": 5.27113884617,
			"0.007": 4.60750343228,
			"0.008": 6.06301160513,
			"0.009": 6.02523338091,
			"0.01": 5.52184748943,
			"0.011": 5.49690403405,
			"0.012": 6.70245766242,
			"0.013": 2.71625723403,
			"0.014": 0.10089544107,
			"0.015": 0.0,
			"0.016": 0.0,
			"0.017": 0.0,
			"0.018": 0.0,
			"0.019": 0.0,
			"0.02": 0.0,
			"0.021": 0.0,
			"0.022": 0.0,
			"0.023": 0.0,
			"0.024": 0.0,
			"0.025": 0.0
		}
	}
}
