{
	 "smiles": "CCOCCOC(=O)C=C", 
	 "Tm": 226.15, 
	 "num_atms": 22, 
	 "gaussian": { 
		 "optdone": 1, 
		 "sigma_profile": "yes", 
		 "theory": "DFT", 
		 "functional": "B3LYP", 
		 "basiset": "6-31G**", 
		 "properties": { 
			 "R2extent": 2367.5228, 
			 "electric_dipole_moment_norm": 1.27199033408, 
			 "electric_quadrupole_moment_norm": 10.7553281205, 
			 "total_energy": -499.620888734, 
			 "HOMO_LUMO_gap": 0.20172, 
			 "cosmo_polarized_energy": -8.01, 
			 "cosmo_cavitation_energy": 26.12, 
			 "cosmo_dispersion_energy": -18.32, 
			 "cosmo_repulsion_energy": 1.54, 
			 "cosmo_total_nonelectrostatic_energy": 9.33, 
			 "SMD_solvation_energy": 6.51 
		},
		"coords": [
			{
				"x": 0.8345134182,
				"y": -3.0291038396,
				"z": 1.3662425388,
				"element": "C" 
			},
			{
				"x": 1.3293660627,
				"y": -1.5885803765,
				"z": 1.4593693632,
				"element": "C" 
			},
			{
				"x": 0.3424373187,
				"y": -0.7155908496,
				"z": 2.0116517125,
				"element": "O" 
			},
			{
				"x": -0.5730885447,
				"y": -0.1844028311,
				"z": 1.0689210265,
				"element": "C" 
			},
			{
				"x": -0.0661905399,
				"y": 1.1682264552,
				"z": 0.5612556398,
				"element": "C" 
			},
			{
				"x": -1.0172047538,
				"y": 1.7718031157,
				"z": -0.3397362207,
				"element": "O" 
			},
			{
				"x": -0.9393242431,
				"y": 1.3923017887,
				"z": -1.6383610776,
				"element": "C" 
			},
			{
				"x": -0.1341997248,
				"y": 0.5838915105,
				"z": -2.0604186683,
				"element": "O" 
			},
			{
				"x": -1.9385821795,
				"y": 2.0700881483,
				"z": -2.5001918217,
				"element": "C" 
			},
			{
				"x": -2.8346727237,
				"y": 2.9605104611,
				"z": -2.0677977601,
				"element": "C" 
			},
			{
				"x": 1.6277996389,
				"y": -3.6831715074,
				"z": 0.9878456296,
				"element": "H" 
			},
			{
				"x": -0.0208414177,
				"y": -3.1146115176,
				"z": 0.6881433143,
				"element": "H" 
			},
			{
				"x": 0.5268392685,
				"y": -3.3901403901,
				"z": 2.3520202864,
				"element": "H" 
			},
			{
				"x": 2.1909750139,
				"y": -1.5271289556,
				"z": 2.1329576334,
				"element": "H" 
			},
			{
				"x": 1.6567143611,
				"y": -1.2297823279,
				"z": 0.4727909559,
				"element": "H" 
			},
			{
				"x": -0.7298568221,
				"y": -0.8618224445,
				"z": 0.2199335481,
				"element": "H" 
			},
			{
				"x": -1.5340846873,
				"y": -0.0496749737,
				"z": 1.5773863976,
				"element": "H" 
			},
			{
				"x": 0.0363357594,
				"y": 1.8687870326,
				"z": 1.3921403235,
				"element": "H" 
			},
			{
				"x": 0.8948484567,
				"y": 1.0543071162,
				"z": 0.0543819446,
				"element": "H" 
			},
			{
				"x": -1.8806876241,
				"y": 1.7731911414,
				"z": -3.5429072445,
				"element": "H" 
			},
			{
				"x": -3.5419581349,
				"y": 3.4222013722,
				"z": -2.7499930572,
				"element": "H" 
			},
			{
				"x": -2.8840379026,
				"y": 3.2500018716,
				"z": -1.023534464,
				"element": "H" 
			}
		],
		 "valence_orbital": [ 
			{
				"type": "occ",
				"energy": -0.31037,
				"method": "rhf"
			},
			{
				"type": "occ",
				"energy": -0.30518,
				"method": "rhf"
			},
			{
				"type": "occ",
				"energy": -0.2874,
				"method": "rhf"
			},
			{
				"type": "occ",
				"energy": -0.27488,
				"method": "rhf"
			},
			{
				"type": "occ",
				"energy": -0.25061,
				"method": "rhf"
			},
			{
				"type": "unocc",
				"energy": -0.04889,
				"method": "rhf"
			},
			{
				"type": "unocc",
				"energy": 0.08043,
				"method": "rhf"
			},
			{
				"type": "unocc",
				"energy": 0.08586,
				"method": "rhf"
			},
			{
				"type": "unocc",
				"energy": 0.10588,
				"method": "rhf"
			},
			{
				"type": "unocc",
				"energy": 0.11949,
				"method": "rhf"
			}
		],
		"cosmo_sigma_profile": { 
			"-0.025": 0.0,
			"-0.024": 0.0,
			"-0.023": 0.0,
			"-0.022": 0.0,
			"-0.021": 0.0,
			"-0.02": 0.0,
			"-0.019": 0.0,
			"-0.018": 0.0,
			"-0.017": 0.0,
			"-0.016": 0.0,
			"-0.015": 0.0,
			"-0.014": 0.0,
			"-0.013": 0.0,
			"-0.012": 0.0,
			"-0.011": 0.0,
			"-0.01": 0.0,
			"-0.009": 0.0,
			"-0.008": 0.215182045404,
			"-0.007": 3.48867475884,
			"-0.006": 6.27102653017,
			"-0.005": 11.760612153,
			"-0.004": 21.7967004988,
			"-0.003": 26.5601768611,
			"-0.002": 25.7515727605,
			"-0.001": 20.9290859178,
			"0.0": 16.6895410691,
			"0.001": 16.0735155213,
			"0.002": 11.0557935467,
			"0.003": 8.73351065104,
			"0.004": 4.95725400408,
			"0.005": 4.78856137999,
			"0.006": 4.12021262632,
			"0.007": 2.19718735289,
			"0.008": 3.73298068515,
			"0.009": 1.83509070728,
			"0.01": 2.45045269578,
			"0.011": 3.5095734404,
			"0.012": 5.50091884136,
			"0.013": 2.39071091053,
			"0.014": 0.441602750372,
			"0.015": 0.0,
			"0.016": 0.0,
			"0.017": 0.0,
			"0.018": 0.0,
			"0.019": 0.0,
			"0.02": 0.0,
			"0.021": 0.0,
			"0.022": 0.0,
			"0.023": 0.0,
			"0.024": 0.0,
			"0.025": 0.0
		}
	}
}
