{
	 "smiles": "CNC(NC#N)=N/CCSCC1=C(C)NC=N1", 
	 "Tm": 414.15, 
	 "num_atms": 33, 
	 "gaussian": { 
		 "optdone": 1, 
		 "sigma_profile": "yes", 
		 "theory": "DFT", 
		 "functional": "B3LYP", 
		 "basiset": "6-31G**", 
		 "properties": { 
			 "R2extent": 7527.1843, 
			 "electric_dipole_moment_norm": 7.90304438682, 
			 "electric_quadrupole_moment_norm": 25.264352582, 
			 "total_energy": -1117.37012481, 
			 "HOMO_LUMO_gap": 0.21997, 
			 "cosmo_polarized_energy": -26.57, 
			 "cosmo_cavitation_energy": 39.17, 
			 "cosmo_dispersion_energy": -27.04, 
			 "cosmo_repulsion_energy": 2.12, 
			 "cosmo_total_nonelectrostatic_energy": 14.25, 
			 "SMD_solvation_energy": 4.6 
		},
		"coords": [
			{
				"x": 2.840139258,
				"y": 3.2222776125,
				"z": -2.5368069544,
				"element": "C" 
			},
			{
				"x": 2.2919999009,
				"y": 1.9754592645,
				"z": -1.9963936075,
				"element": "N" 
			},
			{
				"x": 1.9703593577,
				"y": 0.8759545794,
				"z": -2.7617761115,
				"element": "C" 
			},
			{
				"x": 2.8219334317,
				"y": 0.6367726295,
				"z": -3.8835339507,
				"element": "N" 
			},
			{
				"x": 4.1566991872,
				"y": 0.7852213739,
				"z": -3.8467444545,
				"element": "C" 
			},
			{
				"x": 5.31112656,
				"y": 0.9534755863,
				"z": -3.8603325982,
				"element": "N" 
			},
			{
				"x": 1.0203816745,
				"y": 0.0390211589,
				"z": -2.6028714324,
				"element": "N" 
			},
			{
				"x": 0.0281105697,
				"y": 0.2837071027,
				"z": -1.5735374651,
				"element": "C" 
			},
			{
				"x": -1.1225747623,
				"y": -0.7224172505,
				"z": -1.6455978879,
				"element": "C" 
			},
			{
				"x": -0.6785844275,
				"y": -2.4779057979,
				"z": -1.3542056647,
				"element": "S" 
			},
			{
				"x": -0.0594674456,
				"y": -2.4283813321,
				"z": 0.3930180509,
				"element": "C" 
			},
			{
				"x": -0.9987395792,
				"y": -1.8567364208,
				"z": 1.4022319578,
				"element": "C" 
			},
			{
				"x": -1.9824721795,
				"y": -2.4951513926,
				"z": 2.1304773308,
				"element": "C" 
			},
			{
				"x": -2.4517742799,
				"y": -3.9118324885,
				"z": 2.170109977,
				"element": "C" 
			},
			{
				"x": -2.5475012506,
				"y": -1.4969537679,
				"z": 2.9052449667,
				"element": "N" 
			},
			{
				"x": -1.9005303543,
				"y": -0.328107466,
				"z": 2.6176457474,
				"element": "C" 
			},
			{
				"x": -0.9628728436,
				"y": -0.5071710096,
				"z": 1.7152487641,
				"element": "N" 
			},
			{
				"x": 2.9377377004,
				"y": 3.9293745866,
				"z": -1.7103796077,
				"element": "H" 
			},
			{
				"x": 3.8350011187,
				"y": 3.066219829,
				"z": -2.9561410604,
				"element": "H" 
			},
			{
				"x": 2.1975378563,
				"y": 3.6703049901,
				"z": -3.3059823956,
				"element": "H" 
			},
			{
				"x": 1.6565462454,
				"y": 2.1015255083,
				"z": -1.22212301,
				"element": "H" 
			},
			{
				"x": 2.4783630486,
				"y": -0.1539774665,
				"z": -4.4193187298,
				"element": "H" 
			},
			{
				"x": -0.4168693761,
				"y": 1.2914895897,
				"z": -1.6744358282,
				"element": "H" 
			},
			{
				"x": 0.4604502964,
				"y": 0.2445953339,
				"z": -0.5627174362,
				"element": "H" 
			},
			{
				"x": -1.5548884344,
				"y": -0.7206773216,
				"z": -2.6508768679,
				"element": "H" 
			},
			{
				"x": -1.9011714589,
				"y": -0.4321302013,
				"z": -0.9351766038,
				"element": "H" 
			},
			{
				"x": 0.8828667894,
				"y": -1.8760761367,
				"z": 0.4189404763,
				"element": "H" 
			},
			{
				"x": 0.1695175792,
				"y": -3.4759748032,
				"z": 0.6082037154,
				"element": "H" 
			},
			{
				"x": -2.4110950245,
				"y": -4.3316270155,
				"z": 3.1829043966,
				"element": "H" 
			},
			{
				"x": -3.4826472816,
				"y": -4.0128547051,
				"z": 1.8087799923,
				"element": "H" 
			},
			{
				"x": -1.8235471655,
				"y": -4.5322194837,
				"z": 1.5276271095,
				"element": "H" 
			},
			{
				"x": -3.2950416269,
				"y": -1.6189569589,
				"z": 3.5718779306,
				"element": "H" 
			},
			{
				"x": -2.1526930841,
				"y": 0.6077518731,
				"z": 3.0975412508,
				"element": "H" 
			}
		],
		 "valence_orbital": [ 
			{
				"type": "occ",
				"energy": -0.26607,
				"method": "rhf"
			},
			{
				"type": "occ",
				"energy": -0.25638,
				"method": "rhf"
			},
			{
				"type": "occ",
				"energy": -0.22862,
				"method": "rhf"
			},
			{
				"type": "occ",
				"energy": -0.221,
				"method": "rhf"
			},
			{
				"type": "occ",
				"energy": -0.20261,
				"method": "rhf"
			},
			{
				"type": "unocc",
				"energy": 0.01736,
				"method": "rhf"
			},
			{
				"type": "unocc",
				"energy": 0.02012,
				"method": "rhf"
			},
			{
				"type": "unocc",
				"energy": 0.03767,
				"method": "rhf"
			},
			{
				"type": "unocc",
				"energy": 0.04177,
				"method": "rhf"
			},
			{
				"type": "unocc",
				"energy": 0.06304,
				"method": "rhf"
			}
		],
		"cosmo_sigma_profile": { 
			"-0.025": 0.0,
			"-0.024": 0.0,
			"-0.023": 0.0,
			"-0.022": 0.0,
			"-0.021": 0.0,
			"-0.02": 0.0,
			"-0.019": 0.0,
			"-0.018": 0.0,
			"-0.017": 0.613181267435,
			"-0.016": 2.26721217271,
			"-0.015": 2.64941176873,
			"-0.014": 2.48681181778,
			"-0.013": 2.43166148203,
			"-0.012": 3.25911991741,
			"-0.011": 3.25089485297,
			"-0.01": 3.44148558798,
			"-0.009": 3.91693951485,
			"-0.008": 6.69853318784,
			"-0.007": 6.24682094214,
			"-0.006": 10.1669707314,
			"-0.005": 17.5237062842,
			"-0.004": 24.2412827814,
			"-0.003": 27.8772942138,
			"-0.002": 27.3468893012,
			"-0.001": 21.9065034695,
			"0.0": 17.2871354284,
			"0.001": 14.5605491346,
			"0.002": 13.0633203943,
			"0.003": 14.141869061,
			"0.004": 12.7392205815,
			"0.005": 9.51353109838,
			"0.006": 10.2343186616,
			"0.007": 9.45674944232,
			"0.008": 6.5464185614,
			"0.009": 7.91063705721,
			"0.01": 7.67977189989,
			"0.011": 5.9754475424,
			"0.012": 5.53454252602,
			"0.013": 4.98361776584,
			"0.014": 2.21975796424,
			"0.015": 1.43021756842,
			"0.016": 1.69379050002,
			"0.017": 0.558142690998,
			"0.018": 0.0733401511151,
			"0.019": 0.0,
			"0.02": 0.0,
			"0.021": 0.0,
			"0.022": 0.0,
			"0.023": 0.0,
			"0.024": 0.0,
			"0.025": 0.0
		}
	}
}
