{
	 "smiles": "FC(F)(F)C(F)(F)C(F)(F)C(F)(F)C(F)(F)C(F)(F)C(F)(F)C(F)(F)C(F)(F)C(F)(F)I", 
	 "Tm": 339.15, 
	 "num_atms": 32, 
	 "gaussian": { 
		 "optdone": 1, 
		 "sigma_profile": "no", 
		 "theory": "DFT", 
		 "functional": "B3LYP", 
		 "basiset": "6-31G**", 
		 "properties": { 
			 "R2extent": 12570.7913, 
			 "electric_dipole_moment_norm": 0.742519528363, 
			 "electric_quadrupole_moment_norm": 4.62497869941, 
			 "total_energy": -2488.98720266, 
			 "HOMO_LUMO_gap": 0.20873, 
			 "cosmo_polarized_energy": -88156.76, 
			 "cosmo_cavitation_energy": 45.48, 
			 "cosmo_dispersion_energy": -29.97, 
			 "cosmo_repulsion_energy": 1.86, 
			 "cosmo_total_nonelectrostatic_energy": 17.37, 
			 "SMD_solvation_energy": 12.96 
		},
		"coords": [
			{
				"x": 0.5260678545,
				"y": 3.3240644048,
				"z": 3.2121208115,
				"element": "F" 
			},
			{
				"x": -0.4697069812,
				"y": 3.6038347661,
				"z": 2.3616349861,
				"element": "C" 
			},
			{
				"x": -1.0767004073,
				"y": 4.7247608381,
				"z": 2.7655784751,
				"element": "F" 
			},
			{
				"x": -1.3555987915,
				"y": 2.6001074026,
				"z": 2.374728969,
				"element": "F" 
			},
			{
				"x": 0.0867183551,
				"y": 3.8221202874,
				"z": 0.9334283593,
				"element": "C" 
			},
			{
				"x": -0.9194053174,
				"y": 4.3288508411,
				"z": 0.1828826694,
				"element": "F" 
			},
			{
				"x": 1.0821635247,
				"y": 4.7304766722,
				"z": 1.0049612888,
				"element": "F" 
			},
			{
				"x": 0.5999302057,
				"y": 2.5664097349,
				"z": 0.1634069164,
				"element": "C" 
			},
			{
				"x": 1.0981785842,
				"y": 3.0259711556,
				"z": -1.0087401434,
				"element": "F" 
			},
			{
				"x": -0.4642320385,
				"y": 1.7703499553,
				"z": -0.0882793433,
				"element": "F" 
			},
			{
				"x": 1.6939527644,
				"y": 1.7228123852,
				"z": 0.8659441307,
				"element": "C" 
			},
			{
				"x": 2.6236410797,
				"y": 2.5700996311,
				"z": 1.370719493,
				"element": "F" 
			},
			{
				"x": 1.1287267408,
				"y": 1.0485429918,
				"z": 1.8918854363,
				"element": "F" 
			},
			{
				"x": 2.4975387167,
				"y": 0.71514199,
				"z": -0.0227824678,
				"element": "C" 
			},
			{
				"x": 3.3008021192,
				"y": 1.4516600407,
				"z": -0.8226101657,
				"element": "F" 
			},
			{
				"x": 3.2650040667,
				"y": 0.00016189,
				"z": 0.8333627461,
				"element": "F" 
			},
			{
				"x": 1.784945937,
				"y": -0.3027489085,
				"z": -0.972928552,
				"element": "C" 
			},
			{
				"x": 1.0233402002,
				"y": 0.3858181158,
				"z": -1.85484134,
				"element": "F" 
			},
			{
				"x": 2.7864638948,
				"y": -0.9155017187,
				"z": -1.6439292974,
				"element": "F" 
			},
			{
				"x": 0.920304235,
				"y": -1.4116129135,
				"z": -0.3076206995,
				"element": "C" 
			},
			{
				"x": 1.7424574268,
				"y": -2.2157923768,
				"z": 0.4000795402,
				"element": "F" 
			},
			{
				"x": 0.0293691423,
				"y": -0.8308691618,
				"z": 0.531892019,
				"element": "F" 
			},
			{
				"x": 0.105437718,
				"y": -2.2634656256,
				"z": -1.325634455,
				"element": "C" 
			},
			{
				"x": -0.9142196239,
				"y": -1.5078807922,
				"z": -1.787357364,
				"element": "F" 
			},
			{
				"x": 0.9080697715,
				"y": -2.5905751399,
				"z": -2.3661517103,
				"element": "F" 
			},
			{
				"x": -0.4685366256,
				"y": -3.621649269,
				"z": -0.8058241119,
				"element": "C" 
			},
			{
				"x": -1.2066891833,
				"y": -4.1282878742,
				"z": -1.8178719739,
				"element": "F" 
			},
			{
				"x": 0.5843897791,
				"y": -4.4437171169,
				"z": -0.5821323346,
				"element": "F" 
			},
			{
				"x": -1.3331408625,
				"y": -3.6696581825,
				"z": 0.4883410012,
				"element": "C" 
			},
			{
				"x": -1.6254700037,
				"y": -4.9659501859,
				"z": 0.695476513,
				"element": "F" 
			},
			{
				"x": -0.5925655305,
				"y": -3.2345501878,
				"z": 1.5234565535,
				"element": "F" 
			},
			{
				"x": -3.2099367511,
				"y": -2.5571236493,
				"z": 0.4040040504,
				"element": "I" 
			}
		],
		 "valence_orbital": [ 
			{
				"type": "occ",
				"energy": -0.36569,
				"method": "rhf"
			},
			{
				"type": "occ",
				"energy": -0.35844,
				"method": "rhf"
			},
			{
				"type": "occ",
				"energy": -0.3497,
				"method": "rhf"
			},
			{
				"type": "occ",
				"energy": -0.29512,
				"method": "rhf"
			},
			{
				"type": "occ",
				"energy": -0.29416,
				"method": "rhf"
			},
			{
				"type": "unocc",
				"energy": -0.08543,
				"method": "rhf"
			},
			{
				"type": "unocc",
				"energy": -0.00351,
				"method": "rhf"
			},
			{
				"type": "unocc",
				"energy": 0.0069,
				"method": "rhf"
			},
			{
				"type": "unocc",
				"energy": 0.02289,
				"method": "rhf"
			},
			{
				"type": "unocc",
				"energy": 0.0246,
				"method": "rhf"
			}
		],
		"cosmo_sigma_profile": { 
			"0.0": 0.0,
			"0.0": 0.0,
			"0.0": 0.0,
			"0.0": 0.0,
			"0.0": 0.0,
			"0.0": 0.0,
			"0.0": 0.0,
			"0.0": 0.0,
			"0.0": 0.0,
			"0.0": 0.0,
			"0.0": 0.0,
			"0.0": 0.0,
			"0.0": 0.0,
			"0.0": 0.0,
			"0.0": 0.0,
			"0.0": 0.0,
			"0.0": 0.0,
			"0.0": 0.0,
			"0.0": 0.0,
			"0.0": 0.0,
			"0.0": 0.0,
			"0.0": 0.0,
			"0.0": 0.0,
			"0.0": 0.0,
			"0.0": 0.0,
			"0.0": 0.0,
			"0.0": 0.0,
			"0.0": 0.0,
			"0.0": 0.0,
			"0.0": 0.0,
			"0.0": 0.0,
			"0.0": 0.0,
			"0.0": 0.0,
			"0.0": 0.0,
			"0.0": 0.0,
			"0.0": 0.0,
			"0.0": 0.0,
			"0.0": 0.0,
			"0.0": 0.0,
			"0.0": 0.0,
			"0.0": 0.0,
			"0.0": 0.0,
			"0.0": 0.0,
			"0.0": 0.0,
			"0.0": 0.0,
			"0.0": 0.0,
			"0.0": 0.0,
			"0.0": 0.0,
			"0.0": 0.0,
			"0.0": 0.0,
			"0.0": 0.0
		}
	}
}
