{
	 "smiles": "CN1C2=C(N(CCO)C=N2)C(=O)N(C)C1=O", 
	 "Tm": 431.15, 
	 "num_atms": 28, 
	 "gaussian": { 
		 "optdone": 1, 
		 "sigma_profile": "yes", 
		 "theory": "DFT", 
		 "functional": "B3LYP", 
		 "basiset": "6-31G**", 
		 "properties": { 
			 "R2extent": 3897.945, 
			 "electric_dipole_moment_norm": 2.11767886612, 
			 "electric_quadrupole_moment_norm": 7.84840246929, 
			 "total_energy": -794.904761727, 
			 "HOMO_LUMO_gap": 0.18696, 
			 "cosmo_polarized_energy": -17.24, 
			 "cosmo_cavitation_energy": 31.27, 
			 "cosmo_dispersion_energy": -22.62, 
			 "cosmo_repulsion_energy": 1.73, 
			 "cosmo_total_nonelectrostatic_energy": 10.38, 
			 "SMD_solvation_energy": 5.23 
		},
		"coords": [
			{
				"x": 2.9306250709,
				"y": 2.5559864085,
				"z": 1.0366005591,
				"element": "C" 
			},
			{
				"x": 1.6128163151,
				"y": 1.9224639932,
				"z": 1.0384851956,
				"element": "N" 
			},
			{
				"x": 1.2834500206,
				"y": 0.9921950567,
				"z": 0.0815564819,
				"element": "C" 
			},
			{
				"x": 0.0481540014,
				"y": 0.3736998209,
				"z": 0.0634658828,
				"element": "C" 
			},
			{
				"x": 0.0943856855,
				"y": -0.4952926855,
				"z": -1.018882215,
				"element": "N" 
			},
			{
				"x": -0.9912885854,
				"y": -1.34384642,
				"z": -1.5127202216,
				"element": "C" 
			},
			{
				"x": -1.9634836548,
				"y": -0.5642114833,
				"z": -2.4044261271,
				"element": "C" 
			},
			{
				"x": -1.3311251913,
				"y": -0.0504918586,
				"z": -3.5642978864,
				"element": "O" 
			},
			{
				"x": 1.3254035721,
				"y": -0.3281011628,
				"z": -1.5700398483,
				"element": "C" 
			},
			{
				"x": 2.0817584439,
				"y": 0.5620911132,
				"z": -0.9315870576,
				"element": "N" 
			},
			{
				"x": -0.9889620195,
				"y": 0.6489109132,
				"z": 1.0126365394,
				"element": "C" 
			},
			{
				"x": -2.1107865715,
				"y": 0.1441166017,
				"z": 1.0339227521,
				"element": "O" 
			},
			{
				"x": -0.5696153235,
				"y": 1.6131376026,
				"z": 1.961605843,
				"element": "N" 
			},
			{
				"x": -1.5193244088,
				"y": 2.0034940432,
				"z": 3.0095690981,
				"element": "C" 
			},
			{
				"x": 0.6808901549,
				"y": 2.2610009617,
				"z": 2.0207761644,
				"element": "C" 
			},
			{
				"x": 0.9203810434,
				"y": 3.0798084893,
				"z": 2.8966438168,
				"element": "O" 
			},
			{
				"x": 2.9725567156,
				"y": 3.223107374,
				"z": 1.8947734812,
				"element": "H" 
			},
			{
				"x": 3.7107548581,
				"y": 1.7939870136,
				"z": 1.1072945213,
				"element": "H" 
			},
			{
				"x": 3.0759479372,
				"y": 3.1199405717,
				"z": 0.1113889425,
				"element": "H" 
			},
			{
				"x": -1.5201386583,
				"y": -1.754958714,
				"z": -0.6505542477,
				"element": "H" 
			},
			{
				"x": -0.535271715,
				"y": -2.1572733826,
				"z": -2.083148107,
				"element": "H" 
			},
			{
				"x": -2.7417746129,
				"y": -1.2534036286,
				"z": -2.747890813,
				"element": "H" 
			},
			{
				"x": -2.4507501848,
				"y": 0.2194542749,
				"z": -1.809534263,
				"element": "H" 
			},
			{
				"x": -0.8297189291,
				"y": 0.7344165473,
				"z": -3.3099250996,
				"element": "H" 
			},
			{
				"x": 1.6350725731,
				"y": -0.8889620613,
				"z": -2.441302368,
				"element": "H" 
			},
			{
				"x": -2.4336194195,
				"y": 1.4378290259,
				"z": 2.8446730686,
				"element": "H" 
			},
			{
				"x": -1.7153725049,
				"y": 3.0763155658,
				"z": 2.9551973108,
				"element": "H" 
			},
			{
				"x": -1.1015646126,
				"y": 1.7810860194,
				"z": 3.9936185968,
				"element": "H" 
			}
		],
		 "valence_orbital": [ 
			{
				"type": "occ",
				"energy": -0.28949,
				"method": "rhf"
			},
			{
				"type": "occ",
				"energy": -0.27757,
				"method": "rhf"
			},
			{
				"type": "occ",
				"energy": -0.26986,
				"method": "rhf"
			},
			{
				"type": "occ",
				"energy": -0.26304,
				"method": "rhf"
			},
			{
				"type": "occ",
				"energy": -0.224,
				"method": "rhf"
			},
			{
				"type": "unocc",
				"energy": -0.03704,
				"method": "rhf"
			},
			{
				"type": "unocc",
				"energy": 0.01945,
				"method": "rhf"
			},
			{
				"type": "unocc",
				"energy": 0.02952,
				"method": "rhf"
			},
			{
				"type": "unocc",
				"energy": 0.06726,
				"method": "rhf"
			},
			{
				"type": "unocc",
				"energy": 0.10083,
				"method": "rhf"
			}
		],
		"cosmo_sigma_profile": { 
			"-0.025": 0.0,
			"-0.024": 0.0,
			"-0.023": 0.0,
			"-0.022": 0.0,
			"-0.021": 0.0,
			"-0.02": 0.0,
			"-0.019": 0.0,
			"-0.018": 0.0,
			"-0.017": 0.0,
			"-0.016": 0.0964385974127,
			"-0.015": 0.718323383593,
			"-0.014": 0.476739109023,
			"-0.013": 1.0126542343,
			"-0.012": 1.13454191881,
			"-0.011": 1.54298794679,
			"-0.01": 3.37801742819,
			"-0.009": 3.28175978849,
			"-0.008": 2.98497583267,
			"-0.007": 4.54489063896,
			"-0.006": 12.2643052684,
			"-0.005": 20.5479272507,
			"-0.004": 23.6704227488,
			"-0.003": 27.9762483905,
			"-0.002": 30.0709160194,
			"-0.001": 17.4770059513,
			"0.0": 11.8684454346,
			"0.001": 8.38053061025,
			"0.002": 6.97752877998,
			"0.003": 6.3493155287,
			"0.004": 6.36234597445,
			"0.005": 5.73233300338,
			"0.006": 5.01500446866,
			"0.007": 5.74813060481,
			"0.008": 4.39928293766,
			"0.009": 5.07851762655,
			"0.01": 5.49606847703,
			"0.011": 5.2693088654,
			"0.012": 8.75573859195,
			"0.013": 8.03935496016,
			"0.014": 2.25306941215,
			"0.015": 0.856017004095,
			"0.016": 0.0300095267843,
			"0.017": 0.0,
			"0.018": 0.0,
			"0.019": 0.0,
			"0.02": 0.0,
			"0.021": 0.0,
			"0.022": 0.0,
			"0.023": 0.0,
			"0.024": 0.0,
			"0.025": 0.0
		}
	}
}
