{
	 "smiles": "COC1=CC=C(C(=O)C=CC2=CC=CC=C2)C(O)=C1", 
	 "Tm": 380.15, 
	 "num_atms": 33, 
	 "gaussian": { 
		 "optdone": 1, 
		 "sigma_profile": "yes", 
		 "theory": "DFT", 
		 "functional": "B3LYP", 
		 "basiset": "6-31G**", 
		 "properties": { 
			 "R2extent": 8648.0463, 
			 "electric_dipole_moment_norm": 5.27734021359, 
			 "electric_quadrupole_moment_norm": 25.2582026098, 
			 "total_energy": -843.803592887, 
			 "HOMO_LUMO_gap": 0.13957, 
			 "cosmo_polarized_energy": -13.14, 
			 "cosmo_cavitation_energy": 37.5, 
			 "cosmo_dispersion_energy": -27.69, 
			 "cosmo_repulsion_energy": 2.08, 
			 "cosmo_total_nonelectrostatic_energy": 11.88, 
			 "SMD_solvation_energy": 7.79 
		},
		"coords": [
			{
				"x": -0.8319131778,
				"y": 5.7493327943,
				"z": -1.5896179911,
				"element": "C" 
			},
			{
				"x": 0.4806214206,
				"y": 5.2408684796,
				"z": -1.3926275283,
				"element": "O" 
			},
			{
				"x": 0.636729488,
				"y": 3.9219698966,
				"z": -1.1111068287,
				"element": "C" 
			},
			{
				"x": -0.4323209379,
				"y": 3.0076844679,
				"z": -1.000031062,
				"element": "C" 
			},
			{
				"x": -0.1524379802,
				"y": 1.6833215888,
				"z": -0.7084539691,
				"element": "C" 
			},
			{
				"x": 1.1607258492,
				"y": 1.2080705513,
				"z": -0.5170044868,
				"element": "C" 
			},
			{
				"x": 1.4853411462,
				"y": -0.189752157,
				"z": -0.2072142748,
				"element": "C" 
			},
			{
				"x": 2.6790256367,
				"y": -0.5399641241,
				"z": -0.0482721908,
				"element": "O" 
			},
			{
				"x": 0.4164499911,
				"y": -1.2023625896,
				"z": -0.0782283034,
				"element": "C" 
			},
			{
				"x": 0.7258216729,
				"y": -2.4834235008,
				"z": 0.2096405683,
				"element": "C" 
			},
			{
				"x": -0.1875833807,
				"y": -3.6127851525,
				"z": 0.3739697617,
				"element": "C" 
			},
			{
				"x": -1.5869912049,
				"y": -3.5046476989,
				"z": 0.246001346,
				"element": "C" 
			},
			{
				"x": -2.4046035045,
				"y": -4.6167936176,
				"z": 0.4138136831,
				"element": "C" 
			},
			{
				"x": -1.8471320427,
				"y": -5.8646774954,
				"z": 0.7134900025,
				"element": "C" 
			},
			{
				"x": -0.4634206296,
				"y": -5.990533091,
				"z": 0.8439845232,
				"element": "C" 
			},
			{
				"x": 0.3555387043,
				"y": -4.8759644018,
				"z": 0.6757652158,
				"element": "C" 
			},
			{
				"x": 2.2287386372,
				"y": 2.1580655933,
				"z": -0.6351102466,
				"element": "C" 
			},
			{
				"x": 3.5057951105,
				"y": 1.8033919199,
				"z": -0.4705025607,
				"element": "O" 
			},
			{
				"x": 1.9511065364,
				"y": 3.4953460588,
				"z": -0.9294705562,
				"element": "C" 
			},
			{
				"x": -1.3279160405,
				"y": 5.268343573,
				"z": -2.4415452888,
				"element": "H" 
			},
			{
				"x": -0.710974458,
				"y": 6.8130764941,
				"z": -1.7985462342,
				"element": "H" 
			},
			{
				"x": -1.4517813978,
				"y": 5.6257760518,
				"z": -0.6931579352,
				"element": "H" 
			},
			{
				"x": -1.4584989391,
				"y": 3.3229120908,
				"z": -1.1380208745,
				"element": "H" 
			},
			{
				"x": -0.9886689193,
				"y": 0.9984972188,
				"z": -0.6274807671,
				"element": "H" 
			},
			{
				"x": -0.6132823733,
				"y": -0.8979135814,
				"z": -0.2187497028,
				"element": "H" 
			},
			{
				"x": 1.7848253382,
				"y": -2.7027210277,
				"z": 0.3346481009,
				"element": "H" 
			},
			{
				"x": -2.0369736766,
				"y": -2.5443792604,
				"z": 0.0138199595,
				"element": "H" 
			},
			{
				"x": -3.4810682131,
				"y": -4.5141592884,
				"z": 0.3113420357,
				"element": "H" 
			},
			{
				"x": -2.4893208424,
				"y": -6.7307996073,
				"z": 0.8437691606,
				"element": "H" 
			},
			{
				"x": -0.0224301095,
				"y": -6.9553887323,
				"z": 1.0764464784,
				"element": "H" 
			},
			{
				"x": 1.4329978849,
				"y": -4.9749120451,
				"z": 0.7775383864,
				"element": "H" 
			},
			{
				"x": 3.4893532893,
				"y": 0.8235843736,
				"z": -0.2701369238,
				"element": "H" 
			},
			{
				"x": 2.7677471223,
				"y": 4.2022362187,
				"z": -1.0158514971,
				"element": "H" 
			}
		],
		 "valence_orbital": [ 
			{
				"type": "occ",
				"energy": -0.26233,
				"method": "rhf"
			},
			{
				"type": "occ",
				"energy": -0.25587,
				"method": "rhf"
			},
			{
				"type": "occ",
				"energy": -0.23889,
				"method": "rhf"
			},
			{
				"type": "occ",
				"energy": -0.22981,
				"method": "rhf"
			},
			{
				"type": "occ",
				"energy": -0.21904,
				"method": "rhf"
			},
			{
				"type": "unocc",
				"energy": -0.07947,
				"method": "rhf"
			},
			{
				"type": "unocc",
				"energy": -0.02305,
				"method": "rhf"
			},
			{
				"type": "unocc",
				"energy": -0.01073,
				"method": "rhf"
			},
			{
				"type": "unocc",
				"energy": 0.00985,
				"method": "rhf"
			},
			{
				"type": "unocc",
				"energy": 0.03715,
				"method": "rhf"
			}
		],
		"cosmo_sigma_profile": { 
			"-0.025": 0.0,
			"-0.024": 0.0,
			"-0.023": 0.0,
			"-0.022": 0.0,
			"-0.021": 0.0,
			"-0.02": 0.0,
			"-0.019": 0.0,
			"-0.018": 0.0,
			"-0.017": 0.0,
			"-0.016": 0.0,
			"-0.015": 0.0,
			"-0.014": 0.0,
			"-0.013": 0.0,
			"-0.012": 0.0,
			"-0.011": 0.0,
			"-0.01": 0.707427425719,
			"-0.009": 2.35526924761,
			"-0.008": 2.22266552123,
			"-0.007": 7.17524347818,
			"-0.006": 22.5410915862,
			"-0.005": 24.715663385,
			"-0.004": 25.6050402322,
			"-0.003": 19.6562866003,
			"-0.002": 16.6183704745,
			"-0.001": 16.9248619046,
			"0.0": 21.9242578507,
			"0.001": 19.270358316,
			"0.002": 25.3881187827,
			"0.003": 31.5325203151,
			"0.004": 24.582115853,
			"0.005": 12.5237082719,
			"0.006": 4.9063995187,
			"0.007": 3.75506372167,
			"0.008": 3.5540366785,
			"0.009": 5.22009215995,
			"0.01": 3.88920357418,
			"0.011": 3.83272987456,
			"0.012": 1.9252835209,
			"0.013": 0.0179435574566,
			"0.014": 0.0,
			"0.015": 0.0,
			"0.016": 0.0,
			"0.017": 0.0,
			"0.018": 0.0,
			"0.019": 0.0,
			"0.02": 0.0,
			"0.021": 0.0,
			"0.022": 0.0,
			"0.023": 0.0,
			"0.024": 0.0,
			"0.025": 0.0
		}
	}
}
