{
	 "smiles": "NC(C(O)=O)(C1=CC(Cl)=CC=C1)C(F)(F)F", 
	 "Tm": 383.15, 
	 "num_atms": 23, 
	 "gaussian": { 
		 "optdone": 1, 
		 "sigma_profile": "yes", 
		 "theory": "DFT", 
		 "functional": "B3LYP", 
		 "basiset": "6-31G**", 
		 "properties": { 
			 "R2extent": 4070.2361, 
			 "electric_dipole_moment_norm": 1.25044848355, 
			 "electric_quadrupole_moment_norm": 9.9534049134, 
			 "total_energy": -1312.10066928, 
			 "HOMO_LUMO_gap": 0.2168, 
			 "cosmo_polarized_energy": -11.34, 
			 "cosmo_cavitation_energy": 30.01, 
			 "cosmo_dispersion_energy": -21.14, 
			 "cosmo_repulsion_energy": 1.62, 
			 "cosmo_total_nonelectrostatic_energy": 10.49, 
			 "SMD_solvation_energy": 6.71 
		},
		"coords": [
			{
				"x": 1.3539702351,
				"y": 2.182844806,
				"z": 0.7100008471,
				"element": "N" 
			},
			{
				"x": 0.0092173143,
				"y": 1.6584596299,
				"z": 0.5442201025,
				"element": "C" 
			},
			{
				"x": -0.7880293366,
				"y": 2.0972507884,
				"z": 1.7998214749,
				"element": "C" 
			},
			{
				"x": -1.9624045772,
				"y": 1.457291842,
				"z": 1.9146442067,
				"element": "O" 
			},
			{
				"x": -0.4019082181,
				"y": 2.938878345,
				"z": 2.5765890299,
				"element": "O" 
			},
			{
				"x": 0.0481854848,
				"y": 0.1212133211,
				"z": 0.414812714,
				"element": "C" 
			},
			{
				"x": -0.9964210712,
				"y": -0.6153486756,
				"z": -0.1613923877,
				"element": "C" 
			},
			{
				"x": -0.9024116627,
				"y": -2.0032775959,
				"z": -0.2244249132,
				"element": "C" 
			},
			{
				"x": -2.2176304357,
				"y": -2.9111113565,
				"z": -0.9609559519,
				"element": "Cl" 
			},
			{
				"x": 0.1997137937,
				"y": -2.6904196464,
				"z": 0.2811387153,
				"element": "C" 
			},
			{
				"x": 1.2274562984,
				"y": -1.9517673898,
				"z": 0.8640720319,
				"element": "C" 
			},
			{
				"x": 1.1571190526,
				"y": -0.5601157352,
				"z": 0.9320912067,
				"element": "C" 
			},
			{
				"x": -0.657762928,
				"y": 2.3446808271,
				"z": -0.6848164363,
				"element": "C" 
			},
			{
				"x": 0.0025381517,
				"y": 2.0176708851,
				"z": -1.8142163462,
				"element": "F" 
			},
			{
				"x": -1.9593656788,
				"y": 2.0401941387,
				"z": -0.8651714265,
				"element": "F" 
			},
			{
				"x": -0.5912563772,
				"y": 3.6870701896,
				"z": -0.5473650937,
				"element": "F" 
			},
			{
				"x": 1.8523170354,
				"y": 2.1653424606,
				"z": -0.1743702806,
				"element": "H" 
			},
			{
				"x": 1.3136512859,
				"y": 3.1329207129,
				"z": 1.0645259253,
				"element": "H" 
			},
			{
				"x": -2.3981668832,
				"y": 1.8134609312,
				"z": 2.7076027544,
				"element": "H" 
			},
			{
				"x": -1.877293681,
				"y": -0.1302159979,
				"z": -0.5559909227,
				"element": "H" 
			},
			{
				"x": 0.2458558592,
				"y": -3.7719179311,
				"z": 0.2196483063,
				"element": "H" 
			},
			{
				"x": 2.0936571951,
				"y": -2.4665156249,
				"z": 1.2691359136,
				"element": "H" 
			},
			{
				"x": 1.9570691436,
				"y": 0.0135110759,
				"z": 1.3835005302,
				"element": "H" 
			}
		],
		 "valence_orbital": [ 
			{
				"type": "occ",
				"energy": -0.31416,
				"method": "rhf"
			},
			{
				"type": "occ",
				"energy": -0.306,
				"method": "rhf"
			},
			{
				"type": "occ",
				"energy": -0.2704,
				"method": "rhf"
			},
			{
				"type": "occ",
				"energy": -0.26152,
				"method": "rhf"
			},
			{
				"type": "occ",
				"energy": -0.24909,
				"method": "rhf"
			},
			{
				"type": "unocc",
				"energy": -0.03229,
				"method": "rhf"
			},
			{
				"type": "unocc",
				"energy": -0.01744,
				"method": "rhf"
			},
			{
				"type": "unocc",
				"energy": -0.00712,
				"method": "rhf"
			},
			{
				"type": "unocc",
				"energy": 0.02911,
				"method": "rhf"
			},
			{
				"type": "unocc",
				"energy": 0.06053,
				"method": "rhf"
			}
		],
		"cosmo_sigma_profile": { 
			"-0.025": 0.0,
			"-0.024": 0.0,
			"-0.023": 0.0,
			"-0.022": 0.0,
			"-0.021": 0.0,
			"-0.02": 0.198370720123,
			"-0.019": 0.917608599929,
			"-0.018": 1.17556728872,
			"-0.017": 0.545393468799,
			"-0.016": 0.94338907936,
			"-0.015": 0.917032001214,
			"-0.014": 0.8257053205,
			"-0.013": 0.477949222242,
			"-0.012": 0.869594578343,
			"-0.011": 2.3982985098,
			"-0.01": 2.13391622985,
			"-0.009": 2.95256074802,
			"-0.008": 4.52753343626,
			"-0.007": 5.74675643935,
			"-0.006": 7.04020879968,
			"-0.005": 9.81459013429,
			"-0.004": 10.4916290562,
			"-0.003": 10.5731335731,
			"-0.002": 12.1048873823,
			"-0.001": 12.601647159,
			"0.0": 19.1356629979,
			"0.001": 25.2012572544,
			"0.002": 39.8940228091,
			"0.003": 24.5600468396,
			"0.004": 15.2835385733,
			"0.005": 10.183879937,
			"0.006": 4.54610432828,
			"0.007": 3.09264650951,
			"0.008": 2.30817316588,
			"0.009": 3.76836720986,
			"0.01": 4.81136191871,
			"0.011": 1.44238584164,
			"0.012": 0.417992763707,
			"0.013": 0.0,
			"0.014": 0.0,
			"0.015": 0.0,
			"0.016": 0.0,
			"0.017": 0.0,
			"0.018": 0.0,
			"0.019": 0.0,
			"0.02": 0.0,
			"0.021": 0.0,
			"0.022": 0.0,
			"0.023": 0.0,
			"0.024": 0.0,
			"0.025": 0.0
		}
	}
}
