{
	 "smiles": "CCCCCCCS", 
	 "Tm": 230.15, 
	 "num_atms": 24, 
	 "gaussian": { 
		 "optdone": 1, 
		 "sigma_profile": "yes", 
		 "theory": "DFT", 
		 "functional": "B3LYP", 
		 "basiset": "6-31G**", 
		 "properties": { 
			 "R2extent": 2855.5333, 
			 "electric_dipole_moment_norm": 2.01540659421, 
			 "electric_quadrupole_moment_norm": 12.7039980671, 
			 "total_energy": -674.59447334, 
			 "HOMO_LUMO_gap": 0.26086, 
			 "cosmo_polarized_energy": -4.28, 
			 "cosmo_cavitation_energy": 26.76, 
			 "cosmo_dispersion_energy": -19.64, 
			 "cosmo_repulsion_energy": 1.62, 
			 "cosmo_total_nonelectrostatic_energy": 8.75, 
			 "SMD_solvation_energy": 3.45 
		},
		"coords": [
			{
				"x": 0.8838760741,
				"y": 0.3722001916,
				"z": -3.1814135841,
				"element": "C" 
			},
			{
				"x": 0.2098195129,
				"y": 1.1465545065,
				"z": -2.0423134917,
				"element": "C" 
			},
			{
				"x": 1.018427752,
				"y": 1.194435348,
				"z": -0.7342226809,
				"element": "C" 
			},
			{
				"x": 1.1817402577,
				"y": -0.1650295134,
				"z": -0.0384003203,
				"element": "C" 
			},
			{
				"x": 2.0231226331,
				"y": -0.1248699867,
				"z": 1.2508970141,
				"element": "C" 
			},
			{
				"x": 1.4603710969,
				"y": 0.7194929223,
				"z": 2.4107119493,
				"element": "C" 
			},
			{
				"x": 0.1310061446,
				"y": 0.1970539174,
				"z": 2.9609879889,
				"element": "C" 
			},
			{
				"x": -0.475559517,
				"y": 1.0928521669,
				"z": 4.454945167,
				"element": "S" 
			},
			{
				"x": 0.2853526895,
				"y": 0.4205591004,
				"z": -4.0970480004,
				"element": "H" 
			},
			{
				"x": 1.0189541348,
				"y": -0.6860636115,
				"z": -2.9357932287,
				"element": "H" 
			},
			{
				"x": 1.8724489557,
				"y": 0.7879926931,
				"z": -3.4092111592,
				"element": "H" 
			},
			{
				"x": -0.7788053213,
				"y": 0.7119336296,
				"z": -1.8393063204,
				"element": "H" 
			},
			{
				"x": 0.0237141074,
				"y": 2.1755111285,
				"z": -2.3755385652,
				"element": "H" 
			},
			{
				"x": 2.0132236257,
				"y": 1.6166017869,
				"z": -0.93947982,
				"element": "H" 
			},
			{
				"x": 0.5271325763,
				"y": 1.8984834261,
				"z": -0.0504491347,
				"element": "H" 
			},
			{
				"x": 1.6603415668,
				"y": -0.87133135,
				"z": -0.7276192128,
				"element": "H" 
			},
			{
				"x": 0.1879436197,
				"y": -0.5841008289,
				"z": 0.1719333931,
				"element": "H" 
			},
			{
				"x": 2.1729258029,
				"y": -1.1531675907,
				"z": 1.607210609,
				"element": "H" 
			},
			{
				"x": 3.0233626694,
				"y": 0.2568427677,
				"z": 1.005707962,
				"element": "H" 
			},
			{
				"x": 1.3356555043,
				"y": 1.7623591556,
				"z": 2.0933644401,
				"element": "H" 
			},
			{
				"x": 2.1923654109,
				"y": 0.7368645165,
				"z": 3.22596646,
				"element": "H" 
			},
			{
				"x": -0.6577818087,
				"y": 0.2103935204,
				"z": 2.204622061,
				"element": "H" 
			},
			{
				"x": 0.2356843806,
				"y": -0.8398131359,
				"z": 3.2977786615,
				"element": "H" 
			},
			{
				"x": -0.6069218683,
				"y": 2.3028452396,
				"z": 3.8732698122,
				"element": "H" 
			}
		],
		 "valence_orbital": [ 
			{
				"type": "occ",
				"energy": -0.32457,
				"method": "rhf"
			},
			{
				"type": "occ",
				"energy": -0.31961,
				"method": "rhf"
			},
			{
				"type": "occ",
				"energy": -0.31235,
				"method": "rhf"
			},
			{
				"type": "occ",
				"energy": -0.30739,
				"method": "rhf"
			},
			{
				"type": "occ",
				"energy": -0.23283,
				"method": "rhf"
			},
			{
				"type": "unocc",
				"energy": 0.02803,
				"method": "rhf"
			},
			{
				"type": "unocc",
				"energy": 0.07016,
				"method": "rhf"
			},
			{
				"type": "unocc",
				"energy": 0.08592,
				"method": "rhf"
			},
			{
				"type": "unocc",
				"energy": 0.10742,
				"method": "rhf"
			},
			{
				"type": "unocc",
				"energy": 0.11086,
				"method": "rhf"
			}
		],
		"cosmo_sigma_profile": { 
			"-0.025": 0.0,
			"-0.024": 0.0,
			"-0.023": 0.0,
			"-0.022": 0.0,
			"-0.021": 0.0,
			"-0.02": 0.0,
			"-0.019": 0.0,
			"-0.018": 0.0,
			"-0.017": 0.0,
			"-0.016": 0.0,
			"-0.015": 0.0,
			"-0.014": 0.0,
			"-0.013": 0.0,
			"-0.012": 0.0,
			"-0.011": 0.0,
			"-0.01": 0.0,
			"-0.009": 0.358820481728,
			"-0.008": 1.99304124842,
			"-0.007": 1.95860593307,
			"-0.006": 2.45147876283,
			"-0.005": 4.43309465909,
			"-0.004": 7.43588602121,
			"-0.003": 13.782108481,
			"-0.002": 30.5226515024,
			"-0.001": 35.5134553316,
			"0.0": 37.7732838155,
			"0.001": 31.8579261186,
			"0.002": 13.3541102654,
			"0.003": 3.44159699255,
			"0.004": 3.26471954764,
			"0.005": 3.4267068628,
			"0.006": 4.51945413849,
			"0.007": 2.3017513114,
			"0.008": 3.29612615395,
			"0.009": 2.15650351299,
			"0.01": 2.46041038539,
			"0.011": 1.88030656315,
			"0.012": 0.289254597733,
			"0.013": 0.0,
			"0.014": 0.0,
			"0.015": 0.0,
			"0.016": 0.0,
			"0.017": 0.0,
			"0.018": 0.0,
			"0.019": 0.0,
			"0.02": 0.0,
			"0.021": 0.0,
			"0.022": 0.0,
			"0.023": 0.0,
			"0.024": 0.0,
			"0.025": 0.0
		}
	}
}
