{
	 "smiles": "CN1CCC(O)(CC2=C(Cl)C=CC=C2)CC1", 
	 "Tm": 347.15, 
	 "num_atms": 34, 
	 "gaussian": { 
		 "optdone": 1, 
		 "sigma_profile": "yes", 
		 "theory": "DFT", 
		 "functional": "B3LYP", 
		 "basiset": "6-31G**", 
		 "properties": { 
			 "R2extent": 4500.4854, 
			 "electric_dipole_moment_norm": 2.06471024602, 
			 "electric_quadrupole_moment_norm": 5.45147001826, 
			 "total_energy": -1096.38892819, 
			 "HOMO_LUMO_gap": 0.2038, 
			 "cosmo_polarized_energy": -9.37, 
			 "cosmo_cavitation_energy": 35.42, 
			 "cosmo_dispersion_energy": -24.85, 
			 "cosmo_repulsion_energy": 1.91, 
			 "cosmo_total_nonelectrostatic_energy": 12.47, 
			 "SMD_solvation_energy": 4.7 
		},
		"coords": [
			{
				"x": -1.8645710909,
				"y": -0.7657967729,
				"z": -3.7993595257,
				"element": "C" 
			},
			{
				"x": -1.1187514437,
				"y": -0.1656263936,
				"z": -2.7082750392,
				"element": "N" 
			},
			{
				"x": 0.279769649,
				"y": 0.0961860644,
				"z": -3.0316548636,
				"element": "C" 
			},
			{
				"x": 1.0973477121,
				"y": 0.3513142361,
				"z": -1.7443850542,
				"element": "C" 
			},
			{
				"x": 0.2522836393,
				"y": 0.9756565191,
				"z": -0.6034403022,
				"element": "C" 
			},
			{
				"x": 1.0638647557,
				"y": 1.8199525699,
				"z": 0.2242650135,
				"element": "O" 
			},
			{
				"x": -0.3447309564,
				"y": -0.0820050175,
				"z": 0.3597424565,
				"element": "C" 
			},
			{
				"x": 0.6596581288,
				"y": -0.9464592844,
				"z": 1.0956786281,
				"element": "C" 
			},
			{
				"x": 0.8766981194,
				"y": -2.3044300454,
				"z": 0.8124046781,
				"element": "C" 
			},
			{
				"x": -0.0159127607,
				"y": -3.1185411306,
				"z": -0.4801958011,
				"element": "Cl" 
			},
			{
				"x": 1.7891852992,
				"y": -3.0816092509,
				"z": 1.5304503274,
				"element": "C" 
			},
			{
				"x": 2.5175969628,
				"y": -2.5049928089,
				"z": 2.5671355804,
				"element": "C" 
			},
			{
				"x": 2.3248748767,
				"y": -1.1580363324,
				"z": 2.879368782,
				"element": "C" 
			},
			{
				"x": 1.4091983345,
				"y": -0.4013573662,
				"z": 2.1540927209,
				"element": "C" 
			},
			{
				"x": -0.8700719759,
				"y": 1.8226734786,
				"z": -1.2344676389,
				"element": "C" 
			},
			{
				"x": -1.7888994817,
				"y": 1.0259329074,
				"z": -2.1848902342,
				"element": "C" 
			},
			{
				"x": -2.8823507938,
				"y": -0.9963927467,
				"z": -3.4664145948,
				"element": "H" 
			},
			{
				"x": -1.3894665506,
				"y": -1.7027992985,
				"z": -4.1060839248,
				"element": "H" 
			},
			{
				"x": -1.9432269829,
				"y": -0.110348445,
				"z": -4.6894685363,
				"element": "H" 
			},
			{
				"x": 0.3822283709,
				"y": 0.9516744392,
				"z": -3.7307706969,
				"element": "H" 
			},
			{
				"x": 0.6807964145,
				"y": -0.7768079346,
				"z": -3.5558381908,
				"element": "H" 
			},
			{
				"x": 1.9211487117,
				"y": 1.0376343517,
				"z": -1.979345528,
				"element": "H" 
			},
			{
				"x": 1.5596321405,
				"y": -0.5745097103,
				"z": -1.3927290946,
				"element": "H" 
			},
			{
				"x": 1.491405531,
				"y": 2.471879825,
				"z": -0.3465567803,
				"element": "H" 
			},
			{
				"x": -1.0263806333,
				"y": -0.7070496821,
				"z": -0.2173146528,
				"element": "H" 
			},
			{
				"x": -0.9348490018,
				"y": 0.4674317534,
				"z": 1.1030106526,
				"element": "H" 
			},
			{
				"x": 1.9168591557,
				"y": -4.1273403622,
				"z": 1.2733905739,
				"element": "H" 
			},
			{
				"x": 3.226148824,
				"y": -3.1079819408,
				"z": 3.1273955443,
				"element": "H" 
			},
			{
				"x": 2.8844220033,
				"y": -0.6983537123,
				"z": 3.6887676258,
				"element": "H" 
			},
			{
				"x": 1.2641409328,
				"y": 0.6471110477,
				"z": 2.3880792541,
				"element": "H" 
			},
			{
				"x": -0.3830140447,
				"y": 2.6339742059,
				"z": -1.7928280239,
				"element": "H" 
			},
			{
				"x": -1.4558806772,
				"y": 2.302048486,
				"z": -0.4437336567,
				"element": "H" 
			},
			{
				"x": -2.1220868431,
				"y": 1.695004156,
				"z": -3.0033442395,
				"element": "H" 
			},
			{
				"x": -2.6961663252,
				"y": 0.699264195,
				"z": -1.661485459,
				"element": "H" 
			}
		],
		 "valence_orbital": [ 
			{
				"type": "occ",
				"energy": -0.29836,
				"method": "rhf"
			},
			{
				"type": "occ",
				"energy": -0.262,
				"method": "rhf"
			},
			{
				"type": "occ",
				"energy": -0.24222,
				"method": "rhf"
			},
			{
				"type": "occ",
				"energy": -0.23376,
				"method": "rhf"
			},
			{
				"type": "occ",
				"energy": -0.20707,
				"method": "rhf"
			},
			{
				"type": "unocc",
				"energy": -0.00327,
				"method": "rhf"
			},
			{
				"type": "unocc",
				"energy": 0.00042,
				"method": "rhf"
			},
			{
				"type": "unocc",
				"energy": 0.03957,
				"method": "rhf"
			},
			{
				"type": "unocc",
				"energy": 0.06751,
				"method": "rhf"
			},
			{
				"type": "unocc",
				"energy": 0.08747,
				"method": "rhf"
			}
		],
		"cosmo_sigma_profile": { 
			"-0.025": 0.0,
			"-0.024": 0.0,
			"-0.023": 0.0,
			"-0.022": 0.0,
			"-0.021": 0.0,
			"-0.02": 0.0,
			"-0.019": 0.0,
			"-0.018": 0.0,
			"-0.017": 0.0,
			"-0.016": 0.0,
			"-0.015": 0.23425876727,
			"-0.014": 0.891170430705,
			"-0.013": 1.00563670645,
			"-0.012": 1.06191038001,
			"-0.011": 1.30768495933,
			"-0.01": 0.872326204494,
			"-0.009": 0.837063002548,
			"-0.008": 1.02782969331,
			"-0.007": 2.31838062268,
			"-0.006": 6.80156834346,
			"-0.005": 8.42940679567,
			"-0.004": 14.959956835,
			"-0.003": 25.6858396721,
			"-0.002": 31.1003159749,
			"-0.001": 41.0027767806,
			"0.0": 37.0413858134,
			"0.001": 17.245138228,
			"0.002": 15.99566911,
			"0.003": 15.296549472,
			"0.004": 17.0295424384,
			"0.005": 17.4878501292,
			"0.006": 4.82549257644,
			"0.007": 3.58960564419,
			"0.008": 3.4270083625,
			"0.009": 3.83746983059,
			"0.01": 2.38241414439,
			"0.011": 1.85940409468,
			"0.012": 0.432649373135,
			"0.013": 0.568525273667,
			"0.014": 0.0902491188254,
			"0.015": 0.0,
			"0.016": 0.0,
			"0.017": 0.0,
			"0.018": 0.0,
			"0.019": 0.0,
			"0.02": 0.0,
			"0.021": 0.0,
			"0.022": 0.0,
			"0.023": 0.0,
			"0.024": 0.0,
			"0.025": 0.0
		}
	}
}
