{
	 "smiles": "O=CC1=CC2=NSN=C2C=C1", 
	 "Tm": 364.15, 
	 "num_atms": 15, 
	 "gaussian": { 
		 "optdone": 1, 
		 "sigma_profile": "yes", 
		 "theory": "DFT", 
		 "functional": "B3LYP", 
		 "basiset": "6-31G**", 
		 "properties": { 
			 "R2extent": 2504.3547, 
			 "electric_dipole_moment_norm": 2.54100328414, 
			 "electric_quadrupole_moment_norm": 11.2564589614, 
			 "total_energy": -852.032164291, 
			 "HOMO_LUMO_gap": 0.14776, 
			 "cosmo_polarized_energy": -9.01, 
			 "cosmo_cavitation_energy": 21.94, 
			 "cosmo_dispersion_energy": -17.02, 
			 "cosmo_repulsion_energy": 1.28, 
			 "cosmo_total_nonelectrostatic_energy": 6.2, 
			 "SMD_solvation_energy": 1.48 
		},
		"coords": [
			{
				"x": 0.3278795804,
				"y": -1.738538503,
				"z": -3.0161270898,
				"element": "O" 
			},
			{
				"x": 0.8204653476,
				"y": -1.3352998943,
				"z": -1.9812343121,
				"element": "C" 
			},
			{
				"x": 0.1108144697,
				"y": -0.4900199912,
				"z": -0.9858128101,
				"element": "C" 
			},
			{
				"x": -1.196625443,
				"y": -0.1196127217,
				"z": -1.2204761993,
				"element": "C" 
			},
			{
				"x": -1.8470177335,
				"y": 0.6874293243,
				"z": -0.2515363731,
				"element": "C" 
			},
			{
				"x": -3.1094034181,
				"y": 1.1391982145,
				"z": -0.3138923369,
				"element": "N" 
			},
			{
				"x": -3.3482254063,
				"y": 2.0144036472,
				"z": 1.0509519701,
				"element": "S" 
			},
			{
				"x": -1.8783844606,
				"y": 1.8593040781,
				"z": 1.7703680745,
				"element": "N" 
			},
			{
				"x": -1.1399568829,
				"y": 1.1026177556,
				"z": 0.9483766081,
				"element": "C" 
			},
			{
				"x": 0.2118737011,
				"y": 0.7005527194,
				"z": 1.1576711896,
				"element": "C" 
			},
			{
				"x": 0.8064675402,
				"y": -0.0779804139,
				"z": 0.2008226495,
				"element": "C" 
			},
			{
				"x": 1.8703248486,
				"y": -1.5863380092,
				"z": -1.7125865559,
				"element": "H" 
			},
			{
				"x": -1.7061011253,
				"y": -0.4402654632,
				"z": -2.122438339,
				"element": "H" 
			},
			{
				"x": 0.7327381635,
				"y": 1.0143158151,
				"z": 2.0553207836,
				"element": "H" 
			},
			{
				"x": 1.8364508186,
				"y": -0.4013665576,
				"z": 0.330592741,
				"element": "H" 
			}
		],
		 "valence_orbital": [ 
			{
				"type": "occ",
				"energy": -0.33455,
				"method": "rhf"
			},
			{
				"type": "occ",
				"energy": -0.31333,
				"method": "rhf"
			},
			{
				"type": "occ",
				"energy": -0.27973,
				"method": "rhf"
			},
			{
				"type": "occ",
				"energy": -0.26781,
				"method": "rhf"
			},
			{
				"type": "occ",
				"energy": -0.25693,
				"method": "rhf"
			},
			{
				"type": "unocc",
				"energy": -0.10917,
				"method": "rhf"
			},
			{
				"type": "unocc",
				"energy": -0.05447,
				"method": "rhf"
			},
			{
				"type": "unocc",
				"energy": -0.0068,
				"method": "rhf"
			},
			{
				"type": "unocc",
				"energy": 0.0007,
				"method": "rhf"
			},
			{
				"type": "unocc",
				"energy": 0.03894,
				"method": "rhf"
			}
		],
		"cosmo_sigma_profile": { 
			"-0.025": 0.0,
			"-0.024": 0.0,
			"-0.023": 0.0,
			"-0.022": 0.0,
			"-0.021": 0.0,
			"-0.02": 0.0,
			"-0.019": 0.0,
			"-0.018": 0.0,
			"-0.017": 0.0,
			"-0.016": 0.0,
			"-0.015": 0.0,
			"-0.014": 0.0,
			"-0.013": 0.0,
			"-0.012": 0.0,
			"-0.011": 0.0,
			"-0.01": 0.0,
			"-0.009": 0.908934548981,
			"-0.008": 5.69283867072,
			"-0.007": 8.46395674795,
			"-0.006": 7.45983925987,
			"-0.005": 11.2688739072,
			"-0.004": 11.8201173149,
			"-0.003": 16.3589431671,
			"-0.002": 20.6141075305,
			"-0.001": 15.5900497911,
			"0.0": 18.4339203695,
			"0.001": 11.5683097182,
			"0.002": 8.01713070499,
			"0.003": 5.21315109342,
			"0.004": 4.83127308984,
			"0.005": 3.7037727204,
			"0.006": 3.9770876707,
			"0.007": 2.75513753086,
			"0.008": 3.90169934691,
			"0.009": 4.35129083231,
			"0.01": 5.45941113902,
			"0.011": 6.17724848283,
			"0.012": 3.08898943382,
			"0.013": 0.843024749806,
			"0.014": 0.0,
			"0.015": 0.0,
			"0.016": 0.0,
			"0.017": 0.0,
			"0.018": 0.0,
			"0.019": 0.0,
			"0.02": 0.0,
			"0.021": 0.0,
			"0.022": 0.0,
			"0.023": 0.0,
			"0.024": 0.0,
			"0.025": 0.0
		}
	}
}
