{
	 "smiles": "NC1=CC(OCC(F)(F)F)=CC=C1", 
	 "Tm": 308.15, 
	 "num_atms": 21, 
	 "gaussian": { 
		 "optdone": 1, 
		 "sigma_profile": "yes", 
		 "theory": "DFT", 
		 "functional": "B3LYP", 
		 "basiset": "6-31G**", 
		 "properties": { 
			 "R2extent": 3153.5104, 
			 "electric_dipole_moment_norm": 3.31559539148, 
			 "electric_quadrupole_moment_norm": 10.2149169933, 
			 "total_energy": -739.163702658, 
			 "HOMO_LUMO_gap": 0.20745, 
			 "cosmo_polarized_energy": -10.85, 
			 "cosmo_cavitation_energy": 26.33, 
			 "cosmo_dispersion_energy": -18.93, 
			 "cosmo_repulsion_energy": 1.46, 
			 "cosmo_total_nonelectrostatic_energy": 8.86, 
			 "SMD_solvation_energy": 5.84 
		},
		"coords": [
			{
				"x": -2.2046051035,
				"y": -0.776106175,
				"z": 2.3074899678,
				"element": "N" 
			},
			{
				"x": -1.7103708489,
				"y": -0.1289943185,
				"z": 1.1745864578,
				"element": "C" 
			},
			{
				"x": -0.4929030096,
				"y": -0.5463305635,
				"z": 0.6047520496,
				"element": "C" 
			},
			{
				"x": -0.0301426839,
				"y": 0.0625147198,
				"z": -0.5615765224,
				"element": "C" 
			},
			{
				"x": 1.1520351083,
				"y": -0.277140135,
				"z": -1.1905036784,
				"element": "O" 
			},
			{
				"x": 2.2020306099,
				"y": -0.8605902191,
				"z": -0.4559791418,
				"element": "C" 
			},
			{
				"x": 2.2933117294,
				"y": -2.366670674,
				"z": -0.6665215061,
				"element": "C" 
			},
			{
				"x": 3.3886580815,
				"y": -2.8341967662,
				"z": -0.0241680761,
				"element": "F" 
			},
			{
				"x": 2.4070867577,
				"y": -2.6806384019,
				"z": -1.9668010797,
				"element": "F" 
			},
			{
				"x": 1.2221065422,
				"y": -3.027593599,
				"z": -0.1783201675,
				"element": "F" 
			},
			{
				"x": -0.7650048748,
				"y": 1.0741350586,
				"z": -1.1889420193,
				"element": "C" 
			},
			{
				"x": -1.9730995951,
				"y": 1.4712666939,
				"z": -0.6221630335,
				"element": "C" 
			},
			{
				"x": -2.4482155442,
				"y": 0.8904872241,
				"z": 0.5523587209,
				"element": "C" 
			},
			{
				"x": -2.8803995155,
				"y": -0.2502493238,
				"z": 2.843617079,
				"element": "H" 
			},
			{
				"x": -1.5113384228,
				"y": -1.2163100624,
				"z": 2.895924938,
				"element": "H" 
			},
			{
				"x": 0.0422384938,
				"y": -1.3763098765,
				"z": 1.050309255,
				"element": "H" 
			},
			{
				"x": 3.1386031936,
				"y": -0.434024779,
				"z": -0.8286029592,
				"element": "H" 
			},
			{
				"x": 2.1276591846,
				"y": -0.6604512459,
				"z": 0.6178636103,
				"element": "H" 
			},
			{
				"x": -0.3755892576,
				"y": 1.5288655797,
				"z": -2.0924353493,
				"element": "H" 
			},
			{
				"x": -2.5509728359,
				"y": 2.2589922425,
				"z": -1.0973777803,
				"element": "H" 
			},
			{
				"x": -3.3923880094,
				"y": 1.2125446214,
				"z": 0.9829892354,
				"element": "H" 
			}
		],
		 "valence_orbital": [ 
			{
				"type": "occ",
				"energy": -0.34757,
				"method": "rhf"
			},
			{
				"type": "occ",
				"energy": -0.33087,
				"method": "rhf"
			},
			{
				"type": "occ",
				"energy": -0.29172,
				"method": "rhf"
			},
			{
				"type": "occ",
				"energy": -0.23167,
				"method": "rhf"
			},
			{
				"type": "occ",
				"energy": -0.20075,
				"method": "rhf"
			},
			{
				"type": "unocc",
				"energy": 0.0067,
				"method": "rhf"
			},
			{
				"type": "unocc",
				"energy": 0.01983,
				"method": "rhf"
			},
			{
				"type": "unocc",
				"energy": 0.07853,
				"method": "rhf"
			},
			{
				"type": "unocc",
				"energy": 0.08877,
				"method": "rhf"
			},
			{
				"type": "unocc",
				"energy": 0.10136,
				"method": "rhf"
			}
		],
		"cosmo_sigma_profile": { 
			"-0.025": 0.0,
			"-0.024": 0.0,
			"-0.023": 0.0,
			"-0.022": 0.0,
			"-0.021": 0.0,
			"-0.02": 0.0,
			"-0.019": 0.0,
			"-0.018": 0.0,
			"-0.017": 0.0,
			"-0.016": 0.0,
			"-0.015": 0.0,
			"-0.014": 0.0,
			"-0.013": 0.20896552149,
			"-0.012": 2.58940832991,
			"-0.011": 2.82205672752,
			"-0.01": 3.35594888847,
			"-0.009": 5.6182267728,
			"-0.008": 7.11290338049,
			"-0.007": 7.78891411557,
			"-0.006": 7.66442507981,
			"-0.005": 10.9155396738,
			"-0.004": 9.57610637541,
			"-0.003": 9.84224286672,
			"-0.002": 8.63472668325,
			"-0.001": 8.21562420221,
			"0.0": 7.87478343888,
			"0.001": 12.4233974352,
			"0.002": 26.3973588098,
			"0.003": 29.8841462969,
			"0.004": 11.6174155075,
			"0.005": 10.7476010175,
			"0.006": 12.1699895051,
			"0.007": 6.47989961979,
			"0.008": 1.73367278284,
			"0.009": 2.19080226546,
			"0.01": 0.911550430922,
			"0.011": 0.678315504523,
			"0.012": 0.684594095242,
			"0.013": 0.834826100656,
			"0.014": 0.469455128665,
			"0.015": 0.121003207547,
			"0.016": 0.0,
			"0.017": 0.0,
			"0.018": 0.0,
			"0.019": 0.0,
			"0.02": 0.0,
			"0.021": 0.0,
			"0.022": 0.0,
			"0.023": 0.0,
			"0.024": 0.0,
			"0.025": 0.0
		}
	}
}
