{
	 "smiles": "OC1CSC(O)CS1", 
	 "Tm": 399.15, 
	 "num_atms": 16, 
	 "gaussian": { 
		 "optdone": 1, 
		 "sigma_profile": "yes", 
		 "theory": "DFT", 
		 "functional": "B3LYP", 
		 "basiset": "6-31G**", 
		 "properties": { 
			 "R2extent": 1551.3503, 
			 "electric_dipole_moment_norm": 1.63029073787, 
			 "electric_quadrupole_moment_norm": 10.501450257, 
			 "total_energy": -1104.04765082, 
			 "HOMO_LUMO_gap": 0.24303, 
			 "cosmo_polarized_energy": -13.61, 
			 "cosmo_cavitation_energy": 21.15, 
			 "cosmo_dispersion_energy": -17.05, 
			 "cosmo_repulsion_energy": 1.32, 
			 "cosmo_total_nonelectrostatic_energy": 5.41, 
			 "SMD_solvation_energy": 2.42 
		},
		"coords": [
			{
				"x": -0.952652843,
				"y": -3.1112573221,
				"z": 1.0866803921,
				"element": "O" 
			},
			{
				"x": -0.5283087373,
				"y": -1.8944408104,
				"z": 0.5252779373,
				"element": "C" 
			},
			{
				"x": -1.5378685849,
				"y": -0.8289220323,
				"z": 0.9303295188,
				"element": "C" 
			},
			{
				"x": -1.254667724,
				"y": 0.7724509492,
				"z": 0.0800778384,
				"element": "S" 
			},
			{
				"x": 0.4557288984,
				"y": 1.1856411054,
				"z": 0.6668987958,
				"element": "C" 
			},
			{
				"x": 0.5226980819,
				"y": 1.4759174967,
				"z": 2.0372822708,
				"element": "O" 
			},
			{
				"x": 1.4765670742,
				"y": 0.0910243137,
				"z": 0.3521951367,
				"element": "C" 
			},
			{
				"x": 1.168035164,
				"y": -1.5126718797,
				"z": 1.1873922818,
				"element": "S" 
			},
			{
				"x": -0.3548981862,
				"y": -3.8099674793,
				"z": 0.7863240393,
				"element": "H" 
			},
			{
				"x": -0.463318572,
				"y": -1.9452743055,
				"z": -0.5708487647,
				"element": "H" 
			},
			{
				"x": -1.5261118763,
				"y": -0.6916921665,
				"z": 2.0135303238,
				"element": "H" 
			},
			{
				"x": -2.5390297894,
				"y": -1.1472926187,
				"z": 0.6230255515,
				"element": "H" 
			},
			{
				"x": 0.7026055489,
				"y": 2.0632639308,
				"z": 0.0478753428,
				"element": "H" 
			},
			{
				"x": -0.168578105,
				"y": 2.120869381,
				"z": 2.2388151082,
				"element": "H" 
			},
			{
				"x": 1.5335964979,
				"y": -0.0493165681,
				"z": -0.730491125,
				"element": "H" 
			},
			{
				"x": 2.4579031529,
				"y": 0.4151680058,
				"z": 0.7118353524,
				"element": "H" 
			}
		],
		 "valence_orbital": [ 
			{
				"type": "occ",
				"energy": -0.31339,
				"method": "rhf"
			},
			{
				"type": "occ",
				"energy": -0.28547,
				"method": "rhf"
			},
			{
				"type": "occ",
				"energy": -0.27824,
				"method": "rhf"
			},
			{
				"type": "occ",
				"energy": -0.23984,
				"method": "rhf"
			},
			{
				"type": "occ",
				"energy": -0.22515,
				"method": "rhf"
			},
			{
				"type": "unocc",
				"energy": 0.01788,
				"method": "rhf"
			},
			{
				"type": "unocc",
				"energy": 0.0282,
				"method": "rhf"
			},
			{
				"type": "unocc",
				"energy": 0.05685,
				"method": "rhf"
			},
			{
				"type": "unocc",
				"energy": 0.0752,
				"method": "rhf"
			},
			{
				"type": "unocc",
				"energy": 0.08273,
				"method": "rhf"
			}
		],
		"cosmo_sigma_profile": { 
			"-0.025": 0.0,
			"-0.024": 0.0,
			"-0.023": 0.0,
			"-0.022": 0.0,
			"-0.021": 0.0,
			"-0.02": 0.0,
			"-0.019": 0.0,
			"-0.018": 0.0,
			"-0.017": 0.379675897079,
			"-0.016": 1.5603670566,
			"-0.015": 1.62961503615,
			"-0.014": 1.63853100681,
			"-0.013": 1.9342177567,
			"-0.012": 1.46106350395,
			"-0.011": 1.75350976776,
			"-0.01": 1.75825855082,
			"-0.009": 1.52293543731,
			"-0.008": 1.76664162814,
			"-0.007": 7.8398677987,
			"-0.006": 12.5228291163,
			"-0.005": 13.663210311,
			"-0.004": 10.7002497938,
			"-0.003": 10.1390837762,
			"-0.002": 9.7625102926,
			"-0.001": 6.43715749935,
			"0.0": 6.39985556392,
			"0.001": 5.69877311473,
			"0.002": 6.20418650132,
			"0.003": 6.30873622718,
			"0.004": 6.03908625986,
			"0.005": 8.97027707073,
			"0.006": 8.79982390772,
			"0.007": 7.34772774037,
			"0.008": 5.15667824657,
			"0.009": 6.13431951559,
			"0.01": 5.03039866652,
			"0.011": 3.5176806397,
			"0.012": 3.54322031639,
			"0.013": 1.79211751678,
			"0.014": 1.0872508608,
			"0.015": 0.250024262567,
			"0.016": 0.0,
			"0.017": 0.0,
			"0.018": 0.0,
			"0.019": 0.0,
			"0.02": 0.0,
			"0.021": 0.0,
			"0.022": 0.0,
			"0.023": 0.0,
			"0.024": 0.0,
			"0.025": 0.0
		}
	}
}
