{
	 "smiles": "C1OC1C1CCC2OC2C1", 
	 "Tm": 164.15, 
	 "num_atms": 22, 
	 "gaussian": { 
		 "optdone": 1, 
		 "sigma_profile": "yes", 
		 "theory": "DFT", 
		 "functional": "B3LYP", 
		 "basiset": "6-31G**", 
		 "properties": { 
			 "R2extent": 2187.6555, 
			 "electric_dipole_moment_norm": 3.50501929381, 
			 "electric_quadrupole_moment_norm": 6.40217901031, 
			 "total_energy": -462.449868369, 
			 "HOMO_LUMO_gap": 0.34242, 
			 "cosmo_polarized_energy": -9.44, 
			 "cosmo_cavitation_energy": 23.2, 
			 "cosmo_dispersion_energy": -17.54, 
			 "cosmo_repulsion_energy": 1.42, 
			 "cosmo_total_nonelectrostatic_energy": 7.09, 
			 "SMD_solvation_energy": 3.08 
		},
		"coords": [
			{
				"x": -2.6659156079,
				"y": -0.1919126535,
				"z": -0.0796537207,
				"element": "C" 
			},
			{
				"x": -1.5120209302,
				"y": -0.7070708089,
				"z": 0.5984617169,
				"element": "O" 
			},
			{
				"x": -1.3621259229,
				"y": 0.4789889483,
				"z": -0.1952669312,
				"element": "C" 
			},
			{
				"x": -0.4327634558,
				"y": 0.4077841821,
				"z": -1.3953699343,
				"element": "C" 
			},
			{
				"x": -0.6343485185,
				"y": -0.8204297788,
				"z": -2.2970263815,
				"element": "C" 
			},
			{
				"x": 0.2347593956,
				"y": -0.7252508282,
				"z": -3.5606563226,
				"element": "C" 
			},
			{
				"x": 1.6863521397,
				"y": -0.4379627261,
				"z": -3.2472136906,
				"element": "C" 
			},
			{
				"x": 2.2793453134,
				"y": -1.2385797663,
				"z": -2.2171915548,
				"element": "O" 
			},
			{
				"x": 2.0676635342,
				"y": 0.1612175486,
				"z": -1.9542774027,
				"element": "C" 
			},
			{
				"x": 1.0297604873,
				"y": 0.4910405835,
				"z": -0.8948221904,
				"element": "C" 
			},
			{
				"x": -3.0450252509,
				"y": -0.8117335538,
				"z": -0.8900226495,
				"element": "H" 
			},
			{
				"x": -3.4326620677,
				"y": 0.2406273455,
				"z": 0.5641689743,
				"element": "H" 
			},
			{
				"x": -1.2259650662,
				"y": 1.3829265813,
				"z": 0.4065330744,
				"element": "H" 
			},
			{
				"x": -0.6363924548,
				"y": 1.3060080718,
				"z": -2.0002920079,
				"element": "H" 
			},
			{
				"x": -1.682912255,
				"y": -0.9037822853,
				"z": -2.6010994978,
				"element": "H" 
			},
			{
				"x": -0.3843270817,
				"y": -1.7265261816,
				"z": -1.7367358844,
				"element": "H" 
			},
			{
				"x": -0.137746072,
				"y": 0.0774095087,
				"z": -4.2129900741,
				"element": "H" 
			},
			{
				"x": 0.1661419113,
				"y": -1.6548916654,
				"z": -4.1393101347,
				"element": "H" 
			},
			{
				"x": 2.334002341,
				"y": -0.2684193344,
				"z": -4.1107607379,
				"element": "H" 
			},
			{
				"x": 2.995196749,
				"y": 0.7349070781,
				"z": -1.9063258894,
				"element": "H" 
			},
			{
				"x": 1.2261449479,
				"y": 1.495109346,
				"z": -0.4992912606,
				"element": "H" 
			},
			{
				"x": 1.1642378643,
				"y": -0.2094596116,
				"z": -0.0614575006,
				"element": "H" 
			}
		],
		 "valence_orbital": [ 
			{
				"type": "occ",
				"energy": -0.32401,
				"method": "rhf"
			},
			{
				"type": "occ",
				"energy": -0.30097,
				"method": "rhf"
			},
			{
				"type": "occ",
				"energy": -0.28161,
				"method": "rhf"
			},
			{
				"type": "occ",
				"energy": -0.26347,
				"method": "rhf"
			},
			{
				"type": "occ",
				"energy": -0.25802,
				"method": "rhf"
			},
			{
				"type": "unocc",
				"energy": 0.0844,
				"method": "rhf"
			},
			{
				"type": "unocc",
				"energy": 0.0958,
				"method": "rhf"
			},
			{
				"type": "unocc",
				"energy": 0.10243,
				"method": "rhf"
			},
			{
				"type": "unocc",
				"energy": 0.11176,
				"method": "rhf"
			},
			{
				"type": "unocc",
				"energy": 0.11549,
				"method": "rhf"
			}
		],
		"cosmo_sigma_profile": { 
			"-0.025": 0.0,
			"-0.024": 0.0,
			"-0.023": 0.0,
			"-0.022": 0.0,
			"-0.021": 0.0,
			"-0.02": 0.0,
			"-0.019": 0.0,
			"-0.018": 0.0,
			"-0.017": 0.0,
			"-0.016": 0.0,
			"-0.015": 0.0,
			"-0.014": 0.0,
			"-0.013": 0.0,
			"-0.012": 0.0,
			"-0.011": 0.0,
			"-0.01": 0.0,
			"-0.009": 0.0,
			"-0.008": 0.0,
			"-0.007": 0.0451567566363,
			"-0.006": 5.1971094838,
			"-0.005": 14.1182903334,
			"-0.004": 23.3654660615,
			"-0.003": 29.7063552663,
			"-0.002": 22.916005725,
			"-0.001": 19.8083859189,
			"0.0": 14.0475117001,
			"0.001": 5.51380795078,
			"0.002": 5.51302873385,
			"0.003": 3.71750784597,
			"0.004": 3.05439913196,
			"0.005": 4.05610319931,
			"0.006": 3.00499017834,
			"0.007": 2.83754747069,
			"0.008": 3.91798195116,
			"0.009": 2.47406213198,
			"0.01": 3.75380103721,
			"0.011": 3.913062692,
			"0.012": 6.53208640599,
			"0.013": 2.85369715031,
			"0.014": 0.179204236779,
			"0.015": 0.0,
			"0.016": 0.0,
			"0.017": 0.0,
			"0.018": 0.0,
			"0.019": 0.0,
			"0.02": 0.0,
			"0.021": 0.0,
			"0.022": 0.0,
			"0.023": 0.0,
			"0.024": 0.0,
			"0.025": 0.0
		}
	}
}
