{
	 "smiles": "O=C=NC1=CC=C(OC2=CC=C(C=C2)N=C=O)C=C1", 
	 "Tm": 337.15, 
	 "num_atms": 27, 
	 "gaussian": { 
		 "optdone": 1, 
		 "sigma_profile": "yes", 
		 "theory": "DFT", 
		 "functional": "B3LYP", 
		 "basiset": "6-31G**", 
		 "properties": { 
			 "R2extent": 8993.795, 
			 "electric_dipole_moment_norm": 0.737757595691, 
			 "electric_quadrupole_moment_norm": 26.4981461386, 
			 "total_energy": -873.473710031, 
			 "HOMO_LUMO_gap": 0.18637, 
			 "cosmo_polarized_energy": -9.01, 
			 "cosmo_cavitation_energy": 35.68, 
			 "cosmo_dispersion_energy": -24.89, 
			 "cosmo_repulsion_energy": 1.91, 
			 "cosmo_total_nonelectrostatic_energy": 12.71, 
			 "SMD_solvation_energy": 10.96 
		},
		"coords": [
			{
				"x": -4.4293211259,
				"y": -3.7278181247,
				"z": -5.2265830726,
				"element": "O" 
			},
			{
				"x": -3.6271864637,
				"y": -3.3381050885,
				"z": -4.4553484608,
				"element": "C" 
			},
			{
				"x": -2.7477598642,
				"y": -3.0699342551,
				"z": -3.6698604191,
				"element": "N" 
			},
			{
				"x": -2.2776642766,
				"y": -2.0012959075,
				"z": -2.9016561774,
				"element": "C" 
			},
			{
				"x": -2.9021888089,
				"y": -0.7448219015,
				"z": -2.9098217585,
				"element": "C" 
			},
			{
				"x": -2.40281208,
				"y": 0.2876655614,
				"z": -2.1229780279,
				"element": "C" 
			},
			{
				"x": -1.2730039466,
				"y": 0.0771069379,
				"z": -1.3283572328,
				"element": "C" 
			},
			{
				"x": -0.7890164445,
				"y": 1.1700996708,
				"z": -0.6381055687,
				"element": "O" 
			},
			{
				"x": -0.244655095,
				"y": 1.0273660783,
				"z": 0.6223206866,
				"element": "C" 
			},
			{
				"x": -0.7775214988,
				"y": 0.1682275871,
				"z": 1.5880332549,
				"element": "C" 
			},
			{
				"x": -0.2182949963,
				"y": 0.1342331497,
				"z": 2.8626790716,
				"element": "C" 
			},
			{
				"x": 0.8651020174,
				"y": 0.9606257408,
				"z": 3.1851715162,
				"element": "C" 
			},
			{
				"x": 1.3867026313,
				"y": 1.8273289574,
				"z": 2.212785655,
				"element": "C" 
			},
			{
				"x": 0.8352962404,
				"y": 1.8564430728,
				"z": 0.9361982163,
				"element": "C" 
			},
			{
				"x": 1.3909458635,
				"y": 0.8917338532,
				"z": 4.4781497433,
				"element": "N" 
			},
			{
				"x": 2.2606609016,
				"y": 1.3839810261,
				"z": 5.1589540585,
				"element": "C" 
			},
			{
				"x": 3.0635148883,
				"y": 1.7814268539,
				"z": 5.9254953014,
				"element": "O" 
			},
			{
				"x": -0.6381568952,
				"y": -1.1685175536,
				"z": -1.3219549844,
				"element": "C" 
			},
			{
				"x": -1.1450331636,
				"y": -2.2033159684,
				"z": -2.1035584669,
				"element": "C" 
			},
			{
				"x": -3.7798472744,
				"y": -0.5823564668,
				"z": -3.5280129399,
				"element": "H" 
			},
			{
				"x": -2.8748098266,
				"y": 1.2643245684,
				"z": -2.1172221257,
				"element": "H" 
			},
			{
				"x": -1.6238061776,
				"y": -0.4650509444,
				"z": 1.3462100525,
				"element": "H" 
			},
			{
				"x": -0.6212168117,
				"y": -0.526332358,
				"z": 3.6227428168,
				"element": "H" 
			},
			{
				"x": 2.2257168223,
				"y": 2.4713329949,
				"z": 2.4580380495,
				"element": "H" 
			},
			{
				"x": 1.2278084942,
				"y": 2.5198432756,
				"z": 0.1729734374,
				"element": "H" 
			},
			{
				"x": 0.2460257948,
				"y": -1.326087747,
				"z": -0.7144060708,
				"element": "H" 
			},
			{
				"x": -0.6629789044,
				"y": -3.1749030127,
				"z": -2.1097865544,
				"element": "H" 
			}
		],
		 "valence_orbital": [ 
			{
				"type": "occ",
				"energy": -0.3074,
				"method": "rhf"
			},
			{
				"type": "occ",
				"energy": -0.2757,
				"method": "rhf"
			},
			{
				"type": "occ",
				"energy": -0.27116,
				"method": "rhf"
			},
			{
				"type": "occ",
				"energy": -0.2433,
				"method": "rhf"
			},
			{
				"type": "occ",
				"energy": -0.21995,
				"method": "rhf"
			},
			{
				"type": "unocc",
				"energy": -0.03358,
				"method": "rhf"
			},
			{
				"type": "unocc",
				"energy": -0.02716,
				"method": "rhf"
			},
			{
				"type": "unocc",
				"energy": -0.02028,
				"method": "rhf"
			},
			{
				"type": "unocc",
				"energy": -0.0143,
				"method": "rhf"
			},
			{
				"type": "unocc",
				"energy": 0.00879,
				"method": "rhf"
			}
		],
		"cosmo_sigma_profile": { 
			"-0.025": 0.0,
			"-0.024": 0.0,
			"-0.023": 0.0,
			"-0.022": 0.0,
			"-0.021": 0.0,
			"-0.02": 0.0,
			"-0.019": 0.0,
			"-0.018": 0.0,
			"-0.017": 0.0,
			"-0.016": 0.0,
			"-0.015": 0.0,
			"-0.014": 0.0,
			"-0.013": 0.0,
			"-0.012": 0.0,
			"-0.011": 0.0,
			"-0.01": 0.0,
			"-0.009": 0.070358005125,
			"-0.008": 5.28310989372,
			"-0.007": 12.5107227467,
			"-0.006": 17.3040855563,
			"-0.005": 17.0082926843,
			"-0.004": 16.6729310532,
			"-0.003": 19.4367765902,
			"-0.002": 21.0886929098,
			"-0.001": 19.3121434994,
			"0.0": 20.1813895941,
			"0.001": 23.1046065755,
			"0.002": 30.4466825262,
			"0.003": 34.5534782935,
			"0.004": 15.3248979471,
			"0.005": 7.98581801479,
			"0.006": 6.83373607596,
			"0.007": 14.0935516028,
			"0.008": 8.76597846746,
			"0.009": 0.373781488884,
			"0.01": 0.0,
			"0.011": 0.0,
			"0.012": 0.0,
			"0.013": 0.0,
			"0.014": 0.0,
			"0.015": 0.0,
			"0.016": 0.0,
			"0.017": 0.0,
			"0.018": 0.0,
			"0.019": 0.0,
			"0.02": 0.0,
			"0.021": 0.0,
			"0.022": 0.0,
			"0.023": 0.0,
			"0.024": 0.0,
			"0.025": 0.0
		}
	}
}
