{
	 "smiles": "N#CC1=CC=NC=C1", 
	 "Tm": 350.65, 
	 "num_atms": 12, 
	 "gaussian": { 
		 "optdone": 1, 
		 "sigma_profile": "yes", 
		 "theory": "DFT", 
		 "functional": "B3LYP", 
		 "basiset": "6-31G**", 
		 "properties": { 
			 "R2extent": 945.6683, 
			 "electric_dipole_moment_norm": 1.97753095804, 
			 "electric_quadrupole_moment_norm": 17.6783885745, 
			 "total_energy": -340.522462565, 
			 "HOMO_LUMO_gap": 0.2027, 
			 "cosmo_polarized_energy": -9.05, 
			 "cosmo_cavitation_energy": 17.62, 
			 "cosmo_dispersion_energy": -12.59, 
			 "cosmo_repulsion_energy": 1.04, 
			 "cosmo_total_nonelectrostatic_energy": 6.08, 
			 "SMD_solvation_energy": 3.28 
		},
		"coords": [
			{
				"x": -0.3378416305,
				"y": 0.6726300154,
				"z": -3.4891068329,
				"element": "N" 
			},
			{
				"x": -0.1517718659,
				"y": 0.3615209767,
				"z": -2.3844694127,
				"element": "C" 
			},
			{
				"x": 0.0771572895,
				"y": -0.0213572519,
				"z": -1.0201458776,
				"element": "C" 
			},
			{
				"x": -0.4657066022,
				"y": 0.727838161,
				"z": 0.0333936254,
				"element": "C" 
			},
			{
				"x": -0.2097368185,
				"y": 0.3079046316,
				"z": 1.3377799011,
				"element": "C" 
			},
			{
				"x": 0.5242068669,
				"y": -0.7690901614,
				"z": 1.6441615716,
				"element": "N" 
			},
			{
				"x": 1.0362980658,
				"y": -1.4750036777,
				"z": 0.6283263577,
				"element": "C" 
			},
			{
				"x": 0.8480628866,
				"y": -1.1519720314,
				"z": -0.7146175591,
				"element": "C" 
			},
			{
				"x": -1.0671322124,
				"y": 1.6083371797,
				"z": -0.1630378375,
				"element": "H" 
			},
			{
				"x": -0.6163865012,
				"y": 0.8672069527,
				"z": 2.1777310332,
				"element": "H" 
			},
			{
				"x": 1.6293251107,
				"y": -2.3460354428,
				"z": 0.8991117949,
				"element": "H" 
			},
			{
				"x": 1.2844254111,
				"y": -1.756379352,
				"z": -1.5019267639,
				"element": "H" 
			}
		],
		 "valence_orbital": [ 
			{
				"type": "occ",
				"energy": -0.37391,
				"method": "rhf"
			},
			{
				"type": "occ",
				"energy": -0.345,
				"method": "rhf"
			},
			{
				"type": "occ",
				"energy": -0.29945,
				"method": "rhf"
			},
			{
				"type": "occ",
				"energy": -0.29022,
				"method": "rhf"
			},
			{
				"type": "occ",
				"energy": -0.27903,
				"method": "rhf"
			},
			{
				"type": "unocc",
				"energy": -0.07633,
				"method": "rhf"
			},
			{
				"type": "unocc",
				"energy": -0.03771,
				"method": "rhf"
			},
			{
				"type": "unocc",
				"energy": 0.0219,
				"method": "rhf"
			},
			{
				"type": "unocc",
				"energy": 0.06106,
				"method": "rhf"
			},
			{
				"type": "unocc",
				"energy": 0.07957,
				"method": "rhf"
			}
		],
		"cosmo_sigma_profile": { 
			"-0.025": 0.0,
			"-0.024": 0.0,
			"-0.023": 0.0,
			"-0.022": 0.0,
			"-0.021": 0.0,
			"-0.02": 0.0,
			"-0.019": 0.0,
			"-0.018": 0.0,
			"-0.017": 0.0,
			"-0.016": 0.0,
			"-0.015": 0.0,
			"-0.014": 0.0,
			"-0.013": 0.0,
			"-0.012": 0.0,
			"-0.011": 0.0,
			"-0.01": 0.0,
			"-0.009": 3.45918670262,
			"-0.008": 6.8344638873,
			"-0.007": 11.1986452332,
			"-0.006": 7.65224897199,
			"-0.005": 7.17117417608,
			"-0.004": 7.67705854149,
			"-0.003": 9.55905956502,
			"-0.002": 10.1282735695,
			"-0.001": 12.7514179778,
			"0.0": 14.9228895918,
			"0.001": 7.02250996744,
			"0.002": 3.9325112046,
			"0.003": 4.00292054124,
			"0.004": 3.75008146474,
			"0.005": 3.70540962575,
			"0.006": 4.05933190951,
			"0.007": 5.18698994586,
			"0.008": 4.33922469312,
			"0.009": 3.78144224746,
			"0.01": 3.56018558178,
			"0.011": 2.77144992748,
			"0.012": 3.36991230891,
			"0.013": 0.96695835425,
			"0.014": 0.959699311536,
			"0.015": 0.691095116744,
			"0.016": 0.204404545737,
			"0.017": 0.0,
			"0.018": 0.0,
			"0.019": 0.0,
			"0.02": 0.0,
			"0.021": 0.0,
			"0.022": 0.0,
			"0.023": 0.0,
			"0.024": 0.0,
			"0.025": 0.0
		}
	}
}
