{
	 "smiles": "ClS(=O)(=O)C1=CC(Br)=C(Br)C=C1", 
	 "Tm": 307.15, 
	 "num_atms": 15, 
	 "gaussian": { 
		 "optdone": 1, 
		 "sigma_profile": "yes", 
		 "theory": "DFT", 
		 "functional": "B3LYP", 
		 "basiset": "6-31G**", 
		 "properties": { 
			 "R2extent": 6086.8297, 
			 "electric_dipole_moment_norm": 3.68500717503, 
			 "electric_quadrupole_moment_norm": 10.464929919, 
			 "total_energy": -6382.00273042, 
			 "HOMO_LUMO_gap": 0.1747, 
			 "cosmo_polarized_energy": -8.29, 
			 "cosmo_cavitation_energy": 27.96, 
			 "cosmo_dispersion_energy": -21.71, 
			 "cosmo_repulsion_energy": 1.69, 
			 "cosmo_total_nonelectrostatic_energy": 7.95, 
			 "SMD_solvation_energy": 1.34 
		},
		"coords": [
			{
				"x": -1.0963197132,
				"y": -2.7407464157,
				"z": 2.1963168691,
				"element": "Cl" 
			},
			{
				"x": -0.6280478924,
				"y": -2.5037408298,
				"z": 0.1331823231,
				"element": "S" 
			},
			{
				"x": -1.8476448147,
				"y": -2.8101536912,
				"z": -0.6020006554,
				"element": "O" 
			},
			{
				"x": 0.6227599649,
				"y": -3.2174660245,
				"z": -0.0867530484,
				"element": "O" 
			},
			{
				"x": -0.3159999197,
				"y": -0.7447092303,
				"z": 0.0485016311,
				"element": "C" 
			},
			{
				"x": -1.3753429008,
				"y": 0.1048100479,
				"z": -0.2579728318,
				"element": "C" 
			},
			{
				"x": -1.1370422762,
				"y": 1.4772067259,
				"z": -0.3402793633,
				"element": "C" 
			},
			{
				"x": -2.5957394661,
				"y": 2.6100662039,
				"z": -0.7652488656,
				"element": "Br" 
			},
			{
				"x": 0.156169805,
				"y": 1.9733867932,
				"z": -0.1141609626,
				"element": "C" 
			},
			{
				"x": 0.5484477588,
				"y": 3.8232384026,
				"z": -0.2091149815,
				"element": "Br" 
			},
			{
				"x": 1.2032151649,
				"y": 1.0957296862,
				"z": 0.1885251743,
				"element": "C" 
			},
			{
				"x": 0.9770914519,
				"y": -0.2735767126,
				"z": 0.2732733188,
				"element": "C" 
			},
			{
				"x": -2.3667350895,
				"y": -0.2918412593,
				"z": -0.439383047,
				"element": "H" 
			},
			{
				"x": 2.1966012682,
				"y": 1.4959191649,
				"z": 0.3533018459,
				"element": "H" 
			},
			{
				"x": 1.7844866589,
				"y": -0.9607228613,
				"z": 0.4980125931,
				"element": "H" 
			}
		],
		 "valence_orbital": [ 
			{
				"type": "occ",
				"energy": -0.32997,
				"method": "rhf"
			},
			{
				"type": "occ",
				"energy": -0.32242,
				"method": "rhf"
			},
			{
				"type": "occ",
				"energy": -0.30056,
				"method": "rhf"
			},
			{
				"type": "occ",
				"energy": -0.29079,
				"method": "rhf"
			},
			{
				"type": "occ",
				"energy": -0.27608,
				"method": "rhf"
			},
			{
				"type": "unocc",
				"energy": -0.10138,
				"method": "rhf"
			},
			{
				"type": "unocc",
				"energy": -0.06163,
				"method": "rhf"
			},
			{
				"type": "unocc",
				"energy": -0.05817,
				"method": "rhf"
			},
			{
				"type": "unocc",
				"energy": -0.04362,
				"method": "rhf"
			},
			{
				"type": "unocc",
				"energy": 0.01054,
				"method": "rhf"
			}
		],
		"cosmo_sigma_profile": { 
			"-0.025": 0.0,
			"-0.024": 0.0,
			"-0.023": 0.0,
			"-0.022": 0.0,
			"-0.021": 0.0,
			"-0.02": 0.0,
			"-0.019": 0.0,
			"-0.018": 0.0,
			"-0.017": 0.0,
			"-0.016": 0.0,
			"-0.015": 0.0,
			"-0.014": 0.0,
			"-0.013": 0.0,
			"-0.012": 0.0,
			"-0.011": 0.0,
			"-0.01": 0.939779277076,
			"-0.009": 4.43214383479,
			"-0.008": 5.23300772532,
			"-0.007": 5.91327350439,
			"-0.006": 8.22469354436,
			"-0.005": 8.74180732919,
			"-0.004": 10.4262697463,
			"-0.003": 13.4504807718,
			"-0.002": 25.8947372462,
			"-0.001": 26.5628705327,
			"0.0": 16.2999912234,
			"0.001": 17.6772996882,
			"0.002": 23.308487933,
			"0.003": 31.4729461325,
			"0.004": 10.340292863,
			"0.005": 3.41305739027,
			"0.006": 4.32656677301,
			"0.007": 7.07715266455,
			"0.008": 8.88375360031,
			"0.009": 2.25051619381,
			"0.01": 0.0,
			"0.011": 0.0,
			"0.012": 0.0,
			"0.013": 0.0,
			"0.014": 0.0,
			"0.015": 0.0,
			"0.016": 0.0,
			"0.017": 0.0,
			"0.018": 0.0,
			"0.019": 0.0,
			"0.02": 0.0,
			"0.021": 0.0,
			"0.022": 0.0,
			"0.023": 0.0,
			"0.024": 0.0,
			"0.025": 0.0
		}
	}
}
