{
	 "smiles": "COC1=CC(=C(OC)C=C1)S(=O)(=O)N1CCNCC1", 
	 "Tm": 377.15, 
	 "num_atms": 37, 
	 "gaussian": { 
		 "optdone": 1, 
		 "sigma_profile": "yes", 
		 "theory": "DFT", 
		 "functional": "B3LYP", 
		 "basiset": "6-31G**", 
		 "properties": { 
			 "R2extent": 6129.4589, 
			 "electric_dipole_moment_norm": 3.40356841124, 
			 "electric_quadrupole_moment_norm": 16.38514095, 
			 "total_energy": -1276.59321398, 
			 "HOMO_LUMO_gap": 0.18888, 
			 "cosmo_polarized_energy": -16.11, 
			 "cosmo_cavitation_energy": 39.18, 
			 "cosmo_dispersion_energy": -27.88, 
			 "cosmo_repulsion_energy": 2.11, 
			 "cosmo_total_nonelectrostatic_energy": 13.41, 
			 "SMD_solvation_energy": 3.84 
		},
		"coords": [
			{
				"x": -4.7770877657,
				"y": -1.2152261549,
				"z": 0.8195099801,
				"element": "C" 
			},
			{
				"x": -3.7477109489,
				"y": -2.1364670863,
				"z": 0.4856611353,
				"element": "O" 
			},
			{
				"x": -2.5542366615,
				"y": -1.6383642448,
				"z": 0.0572127897,
				"element": "C" 
			},
			{
				"x": -2.2605071248,
				"y": -0.2770359621,
				"z": -0.0593005626,
				"element": "C" 
			},
			{
				"x": -0.9993755189,
				"y": 0.123390287,
				"z": -0.5180874321,
				"element": "C" 
			},
			{
				"x": -0.0195318381,
				"y": -0.8189971951,
				"z": -0.8513828186,
				"element": "C" 
			},
			{
				"x": 1.2412776787,
				"y": -0.4281224158,
				"z": -1.2340095095,
				"element": "O" 
			},
			{
				"x": 1.5034002041,
				"y": -0.5142474067,
				"z": -2.6430179812,
				"element": "C" 
			},
			{
				"x": -0.3271682304,
				"y": -2.1795358685,
				"z": -0.7224931747,
				"element": "C" 
			},
			{
				"x": -1.5765747558,
				"y": -2.5884700601,
				"z": -0.2770420887,
				"element": "C" 
			},
			{
				"x": -0.7023111011,
				"y": 1.9018385622,
				"z": -0.6813918647,
				"element": "S" 
			},
			{
				"x": -0.1292190147,
				"y": 2.1605112315,
				"z": -2.0057549081,
				"element": "O" 
			},
			{
				"x": -1.9539767224,
				"y": 2.5449932037,
				"z": -0.2652763786,
				"element": "O" 
			},
			{
				"x": 0.4432258917,
				"y": 2.3412138979,
				"z": 0.4472542669,
				"element": "N" 
			},
			{
				"x": 0.0844374173,
				"y": 2.2285317153,
				"z": 1.8713366558,
				"element": "C" 
			},
			{
				"x": 1.2092425075,
				"y": 2.8890795379,
				"z": 2.7119395289,
				"element": "C" 
			},
			{
				"x": 1.8691017004,
				"y": 3.9905649752,
				"z": 2.0209846252,
				"element": "N" 
			},
			{
				"x": 2.5502796473,
				"y": 3.5222575368,
				"z": 0.8037561845,
				"element": "C" 
			},
			{
				"x": 1.8784157603,
				"y": 2.285623518,
				"z": 0.1487912486,
				"element": "C" 
			},
			{
				"x": -4.4811941334,
				"y": -0.5630259043,
				"z": 1.6509019146,
				"element": "H" 
			},
			{
				"x": -5.0576893946,
				"y": -0.5946647024,
				"z": -0.0405732507,
				"element": "H" 
			},
			{
				"x": -5.6330258594,
				"y": -1.8193160392,
				"z": 1.1231882115,
				"element": "H" 
			},
			{
				"x": -2.9825308832,
				"y": 0.4925626485,
				"z": 0.1790997922,
				"element": "H" 
			},
			{
				"x": 0.8794660724,
				"y": 0.1978895598,
				"z": -3.1905480227,
				"element": "H" 
			},
			{
				"x": 1.3309888362,
				"y": -1.5320099007,
				"z": -3.0135653263,
				"element": "H" 
			},
			{
				"x": 2.556589763,
				"y": -0.258016962,
				"z": -2.7723252961,
				"element": "H" 
			},
			{
				"x": 0.4379657079,
				"y": -2.9107953944,
				"z": -0.9642959157,
				"element": "H" 
			},
			{
				"x": -1.8184293905,
				"y": -3.64093227,
				"z": -0.1718923951,
				"element": "H" 
			},
			{
				"x": -0.8639768523,
				"y": 2.7513048704,
				"z": 2.0171592831,
				"element": "H" 
			},
			{
				"x": -0.0536512743,
				"y": 1.178268783,
				"z": 2.1762213232,
				"element": "H" 
			},
			{
				"x": 1.9734790852,
				"y": 2.1455726399,
				"z": 2.9674309901,
				"element": "H" 
			},
			{
				"x": 0.7878010415,
				"y": 3.2438018656,
				"z": 3.6580206603,
				"element": "H" 
			},
			{
				"x": 1.1644714012,
				"y": 4.6739776483,
				"z": 1.7562686734,
				"element": "H" 
			},
			{
				"x": 3.5907119954,
				"y": 3.2644209975,
				"z": 1.0446094473,
				"element": "H" 
			},
			{
				"x": 2.5787902534,
				"y": 4.3534306397,
				"z": 0.0932469554,
				"element": "H" 
			},
			{
				"x": 2.31319235,
				"y": 1.3500035317,
				"z": 0.5243644886,
				"element": "H" 
			},
			{
				"x": 2.0087601568,
				"y": 2.2976899175,
				"z": -0.9322012292,
				"element": "H" 
			}
		],
		 "valence_orbital": [ 
			{
				"type": "occ",
				"energy": -0.28348,
				"method": "rhf"
			},
			{
				"type": "occ",
				"energy": -0.2702,
				"method": "rhf"
			},
			{
				"type": "occ",
				"energy": -0.24786,
				"method": "rhf"
			},
			{
				"type": "occ",
				"energy": -0.22617,
				"method": "rhf"
			},
			{
				"type": "occ",
				"energy": -0.22211,
				"method": "rhf"
			},
			{
				"type": "unocc",
				"energy": -0.03323,
				"method": "rhf"
			},
			{
				"type": "unocc",
				"energy": -0.00372,
				"method": "rhf"
			},
			{
				"type": "unocc",
				"energy": 0.05872,
				"method": "rhf"
			},
			{
				"type": "unocc",
				"energy": 0.07522,
				"method": "rhf"
			},
			{
				"type": "unocc",
				"energy": 0.09007,
				"method": "rhf"
			}
		],
		"cosmo_sigma_profile": { 
			"-0.025": 0.0,
			"-0.024": 0.0,
			"-0.023": 0.0,
			"-0.022": 0.0,
			"-0.021": 0.0,
			"-0.02": 0.0,
			"-0.019": 0.0,
			"-0.018": 0.0,
			"-0.017": 0.0,
			"-0.016": 0.0,
			"-0.015": 0.0,
			"-0.014": 0.0,
			"-0.013": 0.0,
			"-0.012": 0.0,
			"-0.011": 0.0377841371633,
			"-0.01": 0.942940875884,
			"-0.009": 1.31925842309,
			"-0.008": 1.40329464373,
			"-0.007": 5.88413947249,
			"-0.006": 13.4991330452,
			"-0.005": 28.0537747321,
			"-0.004": 39.0005690544,
			"-0.003": 38.511069534,
			"-0.002": 27.0583931077,
			"-0.001": 19.2950440704,
			"0.0": 15.5623843881,
			"0.001": 17.8968272512,
			"0.002": 20.1443599855,
			"0.003": 13.7284144339,
			"0.004": 8.75508478271,
			"0.005": 7.85347438286,
			"0.006": 7.56864473854,
			"0.007": 5.4947523994,
			"0.008": 5.75613029002,
			"0.009": 7.10275032547,
			"0.01": 6.88443557939,
			"0.011": 7.04322543721,
			"0.012": 6.01610301959,
			"0.013": 0.619652813428,
			"0.014": 0.609574875246,
			"0.015": 0.662893048764,
			"0.016": 0.557923369027,
			"0.017": 0.50837208221,
			"0.018": 0.454804754431,
			"0.019": 0.0261177348594,
			"0.02": 0.0,
			"0.021": 0.0,
			"0.022": 0.0,
			"0.023": 0.0,
			"0.024": 0.0,
			"0.025": 0.0
		}
	}
}
