{
	 "smiles": "OC(=O)C1=C(NC(=O)C2CC2)C=C2C=CC=CC2=C1", 
	 "Tm": 509.15, 
	 "num_atms": 32, 
	 "gaussian": { 
		 "optdone": 1, 
		 "sigma_profile": "yes", 
		 "theory": "DFT", 
		 "functional": "B3LYP", 
		 "basiset": "6-31G**", 
		 "properties": { 
			 "R2extent": 6506.282, 
			 "electric_dipole_moment_norm": 7.3042389542, 
			 "electric_quadrupole_moment_norm": 23.2103841577, 
			 "total_energy": -859.86374557, 
			 "HOMO_LUMO_gap": 0.14821, 
			 "cosmo_polarized_energy": -19.73, 
			 "cosmo_cavitation_energy": 36.03, 
			 "cosmo_dispersion_energy": -25.78, 
			 "cosmo_repulsion_energy": 1.96, 
			 "cosmo_total_nonelectrostatic_energy": 12.2, 
			 "SMD_solvation_energy": 6.98 
		},
		"coords": [
			{
				"x": -0.815587902,
				"y": 4.8743570635,
				"z": -0.6432302934,
				"element": "O" 
			},
			{
				"x": -0.2412069621,
				"y": 4.1210210057,
				"z": 0.3276859988,
				"element": "C" 
			},
			{
				"x": -0.0884568223,
				"y": 4.5973539857,
				"z": 1.4340486734,
				"element": "O" 
			},
			{
				"x": 0.1880162453,
				"y": 2.7417185834,
				"z": -0.0592966026,
				"element": "C" 
			},
			{
				"x": 0.2680164513,
				"y": 1.69292502,
				"z": 0.9289113732,
				"element": "C" 
			},
			{
				"x": -0.0999563654,
				"y": 1.978828764,
				"z": 2.2453665638,
				"element": "N" 
			},
			{
				"x": -0.6111588507,
				"y": 1.170109405,
				"z": 3.2541423754,
				"element": "C" 
			},
			{
				"x": -0.6337003124,
				"y": 1.5949480543,
				"z": 4.4024112919,
				"element": "O" 
			},
			{
				"x": -1.1795338727,
				"y": -0.1663710929,
				"z": 2.8966360155,
				"element": "C" 
			},
			{
				"x": -0.8111220403,
				"y": -1.3376760729,
				"z": 3.8017559733,
				"element": "C" 
			},
			{
				"x": -2.1820187878,
				"y": -0.7497193787,
				"z": 3.8736698989,
				"element": "C" 
			},
			{
				"x": 0.7427636935,
				"y": 0.4504455855,
				"z": 0.5382310692,
				"element": "C" 
			},
			{
				"x": 1.1170552682,
				"y": 0.1732542268,
				"z": -0.7991224407,
				"element": "C" 
			},
			{
				"x": 1.5962036676,
				"y": -1.1039479937,
				"z": -1.2009222237,
				"element": "C" 
			},
			{
				"x": 1.9757755244,
				"y": -1.3330428624,
				"z": -2.5041537198,
				"element": "C" 
			},
			{
				"x": 1.9010190435,
				"y": -0.2995074056,
				"z": -3.4721241625,
				"element": "C" 
			},
			{
				"x": 1.4480238401,
				"y": 0.9493624257,
				"z": -3.1137155952,
				"element": "C" 
			},
			{
				"x": 1.0452998794,
				"y": 1.2155368117,
				"z": -1.77755092,
				"element": "C" 
			},
			{
				"x": 0.5842986542,
				"y": 2.4857685933,
				"z": -1.3608502788,
				"element": "C" 
			},
			{
				"x": -1.0311584632,
				"y": 4.319433844,
				"z": -1.4057078697,
				"element": "H" 
			},
			{
				"x": 0.0201835805,
				"y": 2.9499024652,
				"z": 2.5250598071,
				"element": "H" 
			},
			{
				"x": -1.3312935887,
				"y": -0.379507708,
				"z": 1.8452909188,
				"element": "H" 
			},
			{
				"x": -0.6747871657,
				"y": -2.3078448036,
				"z": 3.3336604119,
				"element": "H" 
			},
			{
				"x": -0.1296008002,
				"y": -1.1133779493,
				"z": 4.6159131814,
				"element": "H" 
			},
			{
				"x": -2.4151095709,
				"y": -0.1309562224,
				"z": 4.7329223825,
				"element": "H" 
			},
			{
				"x": -3.011072213,
				"y": -1.3070851269,
				"z": 3.4493626265,
				"element": "H" 
			},
			{
				"x": 0.8636213384,
				"y": -0.3301810535,
				"z": 1.2804504137,
				"element": "H" 
			},
			{
				"x": 1.6582259975,
				"y": -1.8975392275,
				"z": -0.4613391304,
				"element": "H" 
			},
			{
				"x": 2.3384709895,
				"y": -2.3138930452,
				"z": -2.7974306767,
				"element": "H" 
			},
			{
				"x": 2.2052020156,
				"y": -0.497919548,
				"z": -4.4952198905,
				"element": "H" 
			},
			{
				"x": 1.3922849375,
				"y": 1.7486212881,
				"z": -3.8483860485,
				"element": "H" 
			},
			{
				"x": 0.5865025913,
				"y": 3.2901823687,
				"z": -2.0931691228,
				"element": "H" 
			}
		],
		 "valence_orbital": [ 
			{
				"type": "occ",
				"energy": -0.2878,
				"method": "rhf"
			},
			{
				"type": "occ",
				"energy": -0.28631,
				"method": "rhf"
			},
			{
				"type": "occ",
				"energy": -0.25441,
				"method": "rhf"
			},
			{
				"type": "occ",
				"energy": -0.2519,
				"method": "rhf"
			},
			{
				"type": "occ",
				"energy": -0.22144,
				"method": "rhf"
			},
			{
				"type": "unocc",
				"energy": -0.07323,
				"method": "rhf"
			},
			{
				"type": "unocc",
				"energy": -0.0443,
				"method": "rhf"
			},
			{
				"type": "unocc",
				"energy": 0.0019,
				"method": "rhf"
			},
			{
				"type": "unocc",
				"energy": 0.01681,
				"method": "rhf"
			},
			{
				"type": "unocc",
				"energy": 0.02801,
				"method": "rhf"
			}
		],
		"cosmo_sigma_profile": { 
			"-0.025": 0.0,
			"-0.024": 0.0,
			"-0.023": 0.0,
			"-0.022": 0.0,
			"-0.021": 0.0,
			"-0.02": 0.0,
			"-0.019": 0.198923606645,
			"-0.018": 1.00117698421,
			"-0.017": 0.938216529461,
			"-0.016": 1.04114999229,
			"-0.015": 0.897727683262,
			"-0.014": 0.732312723894,
			"-0.013": 1.15063231166,
			"-0.012": 1.51535324588,
			"-0.011": 1.05940136657,
			"-0.01": 1.19683551423,
			"-0.009": 1.7244804404,
			"-0.008": 2.27471035768,
			"-0.007": 5.791781689,
			"-0.006": 13.0074341735,
			"-0.005": 22.2024798629,
			"-0.004": 22.6198993488,
			"-0.003": 20.2669028786,
			"-0.002": 20.4633795689,
			"-0.001": 23.0568382242,
			"0.0": 21.1131834674,
			"0.001": 21.3185718085,
			"0.002": 24.0696749587,
			"0.003": 20.0724018904,
			"0.004": 15.2775830086,
			"0.005": 5.65185465977,
			"0.006": 3.58681946041,
			"0.007": 4.53783723836,
			"0.008": 3.98485101593,
			"0.009": 5.58419370009,
			"0.01": 5.97075896574,
			"0.011": 4.38534595462,
			"0.012": 3.83123670074,
			"0.013": 5.59613774528,
			"0.014": 2.01780672636,
			"0.015": 0.0,
			"0.016": 0.0,
			"0.017": 0.0,
			"0.018": 0.0,
			"0.019": 0.0,
			"0.02": 0.0,
			"0.021": 0.0,
			"0.022": 0.0,
			"0.023": 0.0,
			"0.024": 0.0,
			"0.025": 0.0
		}
	}
}
