{
	 "smiles": "CNC(=O)OC1=CC2=C(C=C1)N(C)C1ON(C)CCC21C", 
	 "Tm": 402.15, 
	 "num_atms": 42, 
	 "gaussian": { 
		 "optdone": 1, 
		 "sigma_profile": "yes", 
		 "theory": "DFT", 
		 "functional": "B3LYP", 
		 "basiset": "6-31G**", 
		 "properties": { 
			 "R2extent": 6967.7698, 
			 "electric_dipole_moment_norm": 1.34949618377, 
			 "electric_quadrupole_moment_norm": 17.2368155609, 
			 "total_energy": -974.14131214, 
			 "HOMO_LUMO_gap": 0.18529, 
			 "cosmo_polarized_energy": -15.46, 
			 "cosmo_cavitation_energy": 42.98, 
			 "cosmo_dispersion_energy": -29.16, 
			 "cosmo_repulsion_energy": 2.24, 
			 "cosmo_total_nonelectrostatic_energy": 16.06, 
			 "SMD_solvation_energy": 6.71 
		},
		"coords": [
			{
				"x": -6.2960552839,
				"y": 0.6924008001,
				"z": -0.7377368372,
				"element": "C" 
			},
			{
				"x": -5.2756546532,
				"y": 1.7219347204,
				"z": -0.8519923029,
				"element": "N" 
			},
			{
				"x": -3.9510721795,
				"y": 1.5701891776,
				"z": -0.5586174838,
				"element": "C" 
			},
			{
				"x": -3.1444835218,
				"y": 2.4791211021,
				"z": -0.5252004754,
				"element": "O" 
			},
			{
				"x": -3.6714345454,
				"y": 0.2468690272,
				"z": -0.336417985,
				"element": "O" 
			},
			{
				"x": -2.3599670894,
				"y": -0.1387167055,
				"z": -0.0330114501,
				"element": "C" 
			},
			{
				"x": -1.2691821521,
				"y": 0.2461088027,
				"z": -0.8271974129,
				"element": "C" 
			},
			{
				"x": -0.0170028086,
				"y": -0.235098848,
				"z": -0.4920221453,
				"element": "C" 
			},
			{
				"x": 0.1586211462,
				"y": -1.101932162,
				"z": 0.6016212518,
				"element": "C" 
			},
			{
				"x": -0.9284776632,
				"y": -1.4922055196,
				"z": 1.3816094057,
				"element": "C" 
			},
			{
				"x": -2.1964589086,
				"y": -0.9935076393,
				"z": 1.050193736,
				"element": "C" 
			},
			{
				"x": 1.4974845931,
				"y": -1.4747070992,
				"z": 0.7166667355,
				"element": "N" 
			},
			{
				"x": 2.0350635257,
				"y": -2.0592156593,
				"z": 1.9256318817,
				"element": "C" 
			},
			{
				"x": 2.3233541856,
				"y": -0.6202736431,
				"z": -0.1141812623,
				"element": "C" 
			},
			{
				"x": 3.0424911627,
				"y": 0.3894058515,
				"z": 0.5965021101,
				"element": "O" 
			},
			{
				"x": 2.0630597436,
				"y": 1.3544504841,
				"z": 1.079156167,
				"element": "N" 
			},
			{
				"x": 2.6860780035,
				"y": 2.0129021747,
				"z": 2.2117197565,
				"element": "C" 
			},
			{
				"x": 1.7809485253,
				"y": 2.2701369444,
				"z": -0.0363083725,
				"element": "C" 
			},
			{
				"x": 1.6908746983,
				"y": 1.4835531454,
				"z": -1.3593514818,
				"element": "C" 
			},
			{
				"x": 1.330381504,
				"y": -0.0016319705,
				"z": -1.1584087376,
				"element": "C" 
			},
			{
				"x": 1.4105836745,
				"y": -0.7644870676,
				"z": -2.4948826896,
				"element": "C" 
			},
			{
				"x": -6.5436663438,
				"y": 0.4536871991,
				"z": 0.3047199956,
				"element": "H" 
			},
			{
				"x": -5.9613735519,
				"y": -0.2232765364,
				"z": -1.2280115165,
				"element": "H" 
			},
			{
				"x": -7.2014325159,
				"y": 1.0428838382,
				"z": -1.2389039623,
				"element": "H" 
			},
			{
				"x": -5.5571863053,
				"y": 2.687553593,
				"z": -0.9201098296,
				"element": "H" 
			},
			{
				"x": -1.4157810654,
				"y": 0.9256090306,
				"z": -1.6584357578,
				"element": "H" 
			},
			{
				"x": -0.8093312105,
				"y": -2.1509871573,
				"z": 2.2352367723,
				"element": "H" 
			},
			{
				"x": -3.0672063439,
				"y": -1.2670357073,
				"z": 1.6373304789,
				"element": "H" 
			},
			{
				"x": 1.4959043913,
				"y": -2.9805716471,
				"z": 2.1713509562,
				"element": "H" 
			},
			{
				"x": 1.9774399946,
				"y": -1.381686204,
				"z": 2.790285677,
				"element": "H" 
			},
			{
				"x": 3.0847950029,
				"y": -2.3166921258,
				"z": 1.763358805,
				"element": "H" 
			},
			{
				"x": 3.1309884209,
				"y": -1.1946057354,
				"z": -0.5836936463,
				"element": "H" 
			},
			{
				"x": 3.6348617204,
				"y": 2.51047694,
				"z": 1.9493856361,
				"element": "H" 
			},
			{
				"x": 2.8747345345,
				"y": 1.2799723004,
				"z": 2.9996456518,
				"element": "H" 
			},
			{
				"x": 1.9871504426,
				"y": 2.7648987428,
				"z": 2.5907289606,
				"element": "H" 
			},
			{
				"x": 0.8274302163,
				"y": 2.7559303029,
				"z": 0.1979941166,
				"element": "H" 
			},
			{
				"x": 2.5501764099,
				"y": 3.0558968156,
				"z": -0.1295822397,
				"element": "H" 
			},
			{
				"x": 0.9625052514,
				"y": 1.9571865509,
				"z": -2.0259422997,
				"element": "H" 
			},
			{
				"x": 2.659072075,
				"y": 1.5259290448,
				"z": -1.8695945697,
				"element": "H" 
			},
			{
				"x": 2.4028397605,
				"y": -0.6586900794,
				"z": -2.9488330372,
				"element": "H" 
			},
			{
				"x": 1.2120021917,
				"y": -1.8303808882,
				"z": -2.3455059062,
				"element": "H" 
			},
			{
				"x": 0.6697249679,
				"y": -0.3816941937,
				"z": -3.2040966929,
				"element": "H" 
			}
		],
		 "valence_orbital": [ 
			{
				"type": "occ",
				"energy": -0.26517,
				"method": "rhf"
			},
			{
				"type": "occ",
				"energy": -0.24985,
				"method": "rhf"
			},
			{
				"type": "occ",
				"energy": -0.235,
				"method": "rhf"
			},
			{
				"type": "occ",
				"energy": -0.21441,
				"method": "rhf"
			},
			{
				"type": "occ",
				"energy": -0.17668,
				"method": "rhf"
			},
			{
				"type": "unocc",
				"energy": 0.00861,
				"method": "rhf"
			},
			{
				"type": "unocc",
				"energy": 0.02568,
				"method": "rhf"
			},
			{
				"type": "unocc",
				"energy": 0.063,
				"method": "rhf"
			},
			{
				"type": "unocc",
				"energy": 0.0838,
				"method": "rhf"
			},
			{
				"type": "unocc",
				"energy": 0.08779,
				"method": "rhf"
			}
		],
		"cosmo_sigma_profile": { 
			"-0.025": 0.0,
			"-0.024": 0.0,
			"-0.023": 0.0,
			"-0.022": 0.0,
			"-0.021": 0.0,
			"-0.02": 0.0,
			"-0.019": 0.0,
			"-0.018": 0.0,
			"-0.017": 0.0,
			"-0.016": 0.0,
			"-0.015": 0.10983098283,
			"-0.014": 0.967447757318,
			"-0.013": 1.26199683602,
			"-0.012": 1.0355954877,
			"-0.011": 0.952187622993,
			"-0.01": 0.624140269186,
			"-0.009": 0.921756748823,
			"-0.008": 1.35083650876,
			"-0.007": 1.75083482181,
			"-0.006": 5.41874276563,
			"-0.005": 20.5332305517,
			"-0.004": 30.1051529397,
			"-0.003": 45.286173164,
			"-0.002": 44.5501564499,
			"-0.001": 42.0366715006,
			"0.0": 23.7308701964,
			"0.001": 18.1361972398,
			"0.002": 13.8590172836,
			"0.003": 11.2018828675,
			"0.004": 13.6566826014,
			"0.005": 14.2025366506,
			"0.006": 10.6367907254,
			"0.007": 6.39795391139,
			"0.008": 4.76731121847,
			"0.009": 3.7213160449,
			"0.01": 3.38234994051,
			"0.011": 3.39546986786,
			"0.012": 4.3654264252,
			"0.013": 5.6197956132,
			"0.014": 2.17142677479,
			"0.015": 0.0,
			"0.016": 0.0,
			"0.017": 0.0,
			"0.018": 0.0,
			"0.019": 0.0,
			"0.02": 0.0,
			"0.021": 0.0,
			"0.022": 0.0,
			"0.023": 0.0,
			"0.024": 0.0,
			"0.025": 0.0
		}
	}
}
