{
	 "smiles": "C1CCC(C1)C1=NN=NN1", 
	 "Tm": 393.15, 
	 "num_atms": 20, 
	 "gaussian": { 
		 "optdone": 1, 
		 "sigma_profile": "yes", 
		 "theory": "DFT", 
		 "functional": "B3LYP", 
		 "basiset": "6-31G**", 
		 "properties": { 
			 "R2extent": 2144.8096, 
			 "electric_dipole_moment_norm": 5.70953653898, 
			 "electric_quadrupole_moment_norm": 21.0104877066, 
			 "total_energy": -453.624706404, 
			 "HOMO_LUMO_gap": 0.26796, 
			 "cosmo_polarized_energy": -16.84, 
			 "cosmo_cavitation_energy": 22.7, 
			 "cosmo_dispersion_energy": -17.08, 
			 "cosmo_repulsion_energy": 1.41, 
			 "cosmo_total_nonelectrostatic_energy": 7.03, 
			 "SMD_solvation_energy": 1.53 
		},
		"coords": [
			{
				"x": 1.2129127123,
				"y": 0.6860601793,
				"z": 1.5571623143,
				"element": "C" 
			},
			{
				"x": 1.7863035858,
				"y": -0.4415977698,
				"z": 0.6494557613,
				"element": "C" 
			},
			{
				"x": 0.5612035237,
				"y": -1.2174366287,
				"z": 0.098958344,
				"element": "C" 
			},
			{
				"x": -0.6242372967,
				"y": -0.7929035122,
				"z": 1.0016931898,
				"element": "C" 
			},
			{
				"x": -0.3049113378,
				"y": 0.6907840977,
				"z": 1.3002609568,
				"element": "C" 
			},
			{
				"x": -1.9627359895,
				"y": -1.0080262573,
				"z": 0.3728115746,
				"element": "C" 
			},
			{
				"x": -2.3742203589,
				"y": -0.5438737843,
				"z": -0.7947203241,
				"element": "N" 
			},
			{
				"x": -3.6556263518,
				"y": -0.9769663834,
				"z": -0.9535717172,
				"element": "N" 
			},
			{
				"x": -4.042448766,
				"y": -1.6807918534,
				"z": 0.0583173679,
				"element": "N" 
			},
			{
				"x": -2.9863370869,
				"y": -1.7109873018,
				"z": 0.9065734345,
				"element": "N" 
			},
			{
				"x": 1.4101025922,
				"y": 0.4582821421,
				"z": 2.6109597468,
				"element": "H" 
			},
			{
				"x": 1.665636894,
				"y": 1.6609531296,
				"z": 1.3550901936,
				"element": "H" 
			},
			{
				"x": 2.4481038595,
				"y": -1.0993265363,
				"z": 1.2213923736,
				"element": "H" 
			},
			{
				"x": 2.3837221671,
				"y": -0.034539071,
				"z": -0.1713764981,
				"element": "H" 
			},
			{
				"x": 0.7071180907,
				"y": -2.3017462695,
				"z": 0.0893753936,
				"element": "H" 
			},
			{
				"x": 0.3346147812,
				"y": -0.9107213388,
				"z": -0.9265320478,
				"element": "H" 
			},
			{
				"x": -0.5852698502,
				"y": -1.3589233888,
				"z": 1.942812025,
				"element": "H" 
			},
			{
				"x": -0.5520572104,
				"y": 1.2821677727,
				"z": 0.4119071727,
				"element": "H" 
			},
			{
				"x": -0.8860295814,
				"y": 1.0911466539,
				"z": 2.1369633462,
				"element": "H" 
			},
			{
				"x": -3.0503443768,
				"y": -2.2111538799,
				"z": 1.7813673923,
				"element": "H" 
			}
		],
		 "valence_orbital": [ 
			{
				"type": "occ",
				"energy": -0.32901,
				"method": "rhf"
			},
			{
				"type": "occ",
				"energy": -0.32,
				"method": "rhf"
			},
			{
				"type": "occ",
				"energy": -0.29256,
				"method": "rhf"
			},
			{
				"type": "occ",
				"energy": -0.28296,
				"method": "rhf"
			},
			{
				"type": "occ",
				"energy": -0.27773,
				"method": "rhf"
			},
			{
				"type": "unocc",
				"energy": -0.00977,
				"method": "rhf"
			},
			{
				"type": "unocc",
				"energy": 0.02303,
				"method": "rhf"
			},
			{
				"type": "unocc",
				"energy": 0.05427,
				"method": "rhf"
			},
			{
				"type": "unocc",
				"energy": 0.07562,
				"method": "rhf"
			},
			{
				"type": "unocc",
				"energy": 0.09234,
				"method": "rhf"
			}
		],
		"cosmo_sigma_profile": { 
			"-0.025": 0.0,
			"-0.024": 0.0,
			"-0.023": 0.0,
			"-0.022": 0.0,
			"-0.021": 0.0,
			"-0.02": 0.0,
			"-0.019": 0.489012245818,
			"-0.018": 2.04434849648,
			"-0.017": 1.25205135708,
			"-0.016": 1.4489876449,
			"-0.015": 1.06691350711,
			"-0.014": 1.27820580426,
			"-0.013": 1.32044224091,
			"-0.012": 0.706593108567,
			"-0.011": 0.711138477555,
			"-0.01": 1.59332824988,
			"-0.009": 1.87265826734,
			"-0.008": 1.12316106958,
			"-0.007": 1.08467614637,
			"-0.006": 1.95474465254,
			"-0.005": 3.6052799247,
			"-0.004": 7.79114364851,
			"-0.003": 20.588685712,
			"-0.002": 27.2137336911,
			"-0.001": 22.3130738455,
			"0.0": 18.0690860142,
			"0.001": 13.1136958115,
			"0.002": 3.40304897739,
			"0.003": 2.90887131643,
			"0.004": 3.45810039925,
			"0.005": 2.63727428006,
			"0.006": 3.0759167762,
			"0.007": 3.3160905736,
			"0.008": 3.92919209907,
			"0.009": 5.09115780159,
			"0.01": 5.20349981015,
			"0.011": 5.03992495552,
			"0.012": 3.60700167728,
			"0.013": 2.58436131778,
			"0.014": 2.22812599875,
			"0.015": 0.897776374865,
			"0.016": 0.134537650105,
			"0.017": 0.0,
			"0.018": 0.0,
			"0.019": 0.0,
			"0.02": 0.0,
			"0.021": 0.0,
			"0.022": 0.0,
			"0.023": 0.0,
			"0.024": 0.0,
			"0.025": 0.0
		}
	}
}
