{
	 "smiles": "CC(=O)NC=C(Cl)Cl", 
	 "Tm": 359.15, 
	 "num_atms": 13, 
	 "gaussian": { 
		 "optdone": 1, 
		 "sigma_profile": "yes", 
		 "theory": "DFT", 
		 "functional": "B3LYP", 
		 "basiset": "6-31G**", 
		 "properties": { 
			 "R2extent": 2018.2222, 
			 "electric_dipole_moment_norm": 4.57514966422, 
			 "electric_quadrupole_moment_norm": 13.3182543252, 
			 "total_energy": -1205.77828619, 
			 "HOMO_LUMO_gap": 0.22077, 
			 "cosmo_polarized_energy": -13.55, 
			 "cosmo_cavitation_energy": 21.17, 
			 "cosmo_dispersion_energy": -15.71, 
			 "cosmo_repulsion_energy": 1.35, 
			 "cosmo_total_nonelectrostatic_energy": 6.81, 
			 "SMD_solvation_energy": 4.52 
		},
		"coords": [
			{
				"x": -3.6573908119,
				"y": -0.4384960865,
				"z": 1.5101853131,
				"element": "C" 
			},
			{
				"x": -2.1498617513,
				"y": -0.3811241907,
				"z": 1.7075784815,
				"element": "C" 
			},
			{
				"x": -1.5726943756,
				"y": -0.9858236337,
				"z": 2.5890488923,
				"element": "O" 
			},
			{
				"x": -1.4926126842,
				"y": 0.4472389211,
				"z": 0.7989439087,
				"element": "N" 
			},
			{
				"x": -0.1285185772,
				"y": 0.7761262342,
				"z": 0.8446350667,
				"element": "C" 
			},
			{
				"x": 0.8850945944,
				"y": -0.1004278488,
				"z": 0.8128697074,
				"element": "C" 
			},
			{
				"x": 2.5289754489,
				"y": 0.4669618764,
				"z": 0.9709865606,
				"element": "Cl" 
			},
			{
				"x": 0.7130769109,
				"y": -1.8056639434,
				"z": 0.6064711693,
				"element": "Cl" 
			},
			{
				"x": -4.0001678742,
				"y": -1.4407789702,
				"z": 1.7705238209,
				"element": "H" 
			},
			{
				"x": -3.9699044318,
				"y": -0.2021391701,
				"z": 0.4890016357,
				"element": "H" 
			},
			{
				"x": -4.1395112937,
				"y": 0.2674681833,
				"z": 2.1952429781,
				"element": "H" 
			},
			{
				"x": -2.0726120069,
				"y": 1.0399754778,
				"z": 0.2214037559,
				"element": "H" 
			},
			{
				"x": 0.1176268524,
				"y": 1.8328831506,
				"z": 0.9047087097,
				"element": "H" 
			}
		],
		 "valence_orbital": [ 
			{
				"type": "occ",
				"energy": -0.32873,
				"method": "rhf"
			},
			{
				"type": "occ",
				"energy": -0.31368,
				"method": "rhf"
			},
			{
				"type": "occ",
				"energy": -0.29939,
				"method": "rhf"
			},
			{
				"type": "occ",
				"energy": -0.25971,
				"method": "rhf"
			},
			{
				"type": "occ",
				"energy": -0.23968,
				"method": "rhf"
			},
			{
				"type": "unocc",
				"energy": -0.01891,
				"method": "rhf"
			},
			{
				"type": "unocc",
				"energy": 0.00079,
				"method": "rhf"
			},
			{
				"type": "unocc",
				"energy": 0.02626,
				"method": "rhf"
			},
			{
				"type": "unocc",
				"energy": 0.03461,
				"method": "rhf"
			},
			{
				"type": "unocc",
				"energy": 0.07353,
				"method": "rhf"
			}
		],
		"cosmo_sigma_profile": { 
			"-0.025": 0.0,
			"-0.024": 0.0,
			"-0.023": 0.0,
			"-0.022": 0.0,
			"-0.021": 0.0,
			"-0.02": 0.0,
			"-0.019": 0.0,
			"-0.018": 0.0,
			"-0.017": 0.0,
			"-0.016": 0.53092606341,
			"-0.015": 1.66511882,
			"-0.014": 1.17203033324,
			"-0.013": 1.53164355095,
			"-0.012": 1.37703147026,
			"-0.011": 1.51758615033,
			"-0.01": 2.07802718717,
			"-0.009": 3.52564670049,
			"-0.008": 2.59846536967,
			"-0.007": 4.34833816935,
			"-0.006": 6.32308841381,
			"-0.005": 7.53530077997,
			"-0.004": 8.83970220348,
			"-0.003": 9.61189063096,
			"-0.002": 13.7642438217,
			"-0.001": 11.4050760512,
			"0.0": 11.8466323858,
			"0.001": 12.9296237197,
			"0.002": 14.5148456165,
			"0.003": 22.9195037893,
			"0.004": 9.99822658587,
			"0.005": 1.60330340104,
			"0.006": 1.91924192997,
			"0.007": 1.87728228271,
			"0.008": 1.77899898518,
			"0.009": 1.43980443161,
			"0.01": 2.19196555196,
			"0.011": 2.49713132998,
			"0.012": 2.75834483083,
			"0.013": 4.88898102383,
			"0.014": 1.90379886281,
			"0.015": 0.0719078357761,
			"0.016": 0.0,
			"0.017": 0.0,
			"0.018": 0.0,
			"0.019": 0.0,
			"0.02": 0.0,
			"0.021": 0.0,
			"0.022": 0.0,
			"0.023": 0.0,
			"0.024": 0.0,
			"0.025": 0.0
		}
	}
}
