{
	 "smiles": "OC(=O)CN1C(=O)CSC1=S", 
	 "Tm": 420.15, 
	 "num_atms": 16, 
	 "gaussian": { 
		 "optdone": 1, 
		 "sigma_profile": "yes", 
		 "theory": "DFT", 
		 "functional": "B3LYP", 
		 "basiset": "6-31G**", 
		 "properties": { 
			 "R2extent": 3197.9791, 
			 "electric_dipole_moment_norm": 5.78219733752, 
			 "electric_quadrupole_moment_norm": 16.3227217553, 
			 "total_energy": -1270.36169879, 
			 "HOMO_LUMO_gap": 0.15918, 
			 "cosmo_polarized_energy": -18.37, 
			 "cosmo_cavitation_energy": 23.81, 
			 "cosmo_dispersion_energy": -18.45, 
			 "cosmo_repulsion_energy": 1.39, 
			 "cosmo_total_nonelectrostatic_energy": 6.75, 
			 "SMD_solvation_energy": 4.5 
		},
		"coords": [
			{
				"x": 2.829004954,
				"y": 2.5971133681,
				"z": 0.9535989618,
				"element": "O" 
			},
			{
				"x": 1.8692968771,
				"y": 3.3886294997,
				"z": 0.4471810558,
				"element": "C" 
			},
			{
				"x": 2.1203717223,
				"y": 4.3707492806,
				"z": -0.2031402996,
				"element": "O" 
			},
			{
				"x": 0.4171918709,
				"y": 2.9921525022,
				"z": 0.7917596287,
				"element": "C" 
			},
			{
				"x": 0.0193533,
				"y": 1.6594553394,
				"z": 0.3076209329,
				"element": "N" 
			},
			{
				"x": 0.4635746839,
				"y": 0.5269828802,
				"z": 0.9667784459,
				"element": "C" 
			},
			{
				"x": 1.2539526061,
				"y": 0.557850081,
				"z": 1.9007191401,
				"element": "O" 
			},
			{
				"x": -0.131452897,
				"y": -0.7436480773,
				"z": 0.3967590442,
				"element": "C" 
			},
			{
				"x": -1.1786483974,
				"y": -0.2423432464,
				"z": -1.0131182832,
				"element": "S" 
			},
			{
				"x": -0.8531879202,
				"y": 1.4794279503,
				"z": -0.7717664029,
				"element": "C" 
			},
			{
				"x": -1.5156369123,
				"y": 2.6524983944,
				"z": -1.702782981,
				"element": "S" 
			},
			{
				"x": 2.4348954979,
				"y": 1.8806736419,
				"z": 1.4941068901,
				"element": "H" 
			},
			{
				"x": -0.2460613612,
				"y": 3.7204286083,
				"z": 0.3302349051,
				"element": "H" 
			},
			{
				"x": 0.2881060929,
				"y": 2.9957252454,
				"z": 1.8792293699,
				"element": "H" 
			},
			{
				"x": -0.7181498198,
				"y": -1.2488737457,
				"z": 1.1688050951,
				"element": "H" 
			},
			{
				"x": 0.6748897029,
				"y": -1.4102217222,
				"z": 0.080814497,
				"element": "H" 
			}
		],
		 "valence_orbital": [ 
			{
				"type": "occ",
				"energy": -0.31876,
				"method": "rhf"
			},
			{
				"type": "occ",
				"energy": -0.30975,
				"method": "rhf"
			},
			{
				"type": "occ",
				"energy": -0.27546,
				"method": "rhf"
			},
			{
				"type": "occ",
				"energy": -0.26702,
				"method": "rhf"
			},
			{
				"type": "occ",
				"energy": -0.25312,
				"method": "rhf"
			},
			{
				"type": "unocc",
				"energy": -0.09394,
				"method": "rhf"
			},
			{
				"type": "unocc",
				"energy": -0.03182,
				"method": "rhf"
			},
			{
				"type": "unocc",
				"energy": -0.02344,
				"method": "rhf"
			},
			{
				"type": "unocc",
				"energy": -0.00319,
				"method": "rhf"
			},
			{
				"type": "unocc",
				"energy": 0.02929,
				"method": "rhf"
			}
		],
		"cosmo_sigma_profile": { 
			"-0.025": 0.0,
			"-0.024": 0.0,
			"-0.023": 0.0,
			"-0.022": 0.0,
			"-0.021": 0.0,
			"-0.02": 0.0,
			"-0.019": 0.0,
			"-0.018": 0.0,
			"-0.017": 0.0,
			"-0.016": 0.0,
			"-0.015": 0.0,
			"-0.014": 0.0,
			"-0.013": 0.0,
			"-0.012": 0.0953422409054,
			"-0.011": 3.35891475369,
			"-0.01": 10.1661657868,
			"-0.009": 10.0036908431,
			"-0.008": 11.2015229196,
			"-0.007": 10.703701674,
			"-0.006": 9.53474423465,
			"-0.005": 8.15557817791,
			"-0.004": 5.34061931927,
			"-0.003": 5.14335029954,
			"-0.002": 5.95520544999,
			"-0.001": 6.35199865695,
			"0.0": 10.2443604585,
			"0.001": 10.8048553071,
			"0.002": 12.7004271971,
			"0.003": 11.5691578411,
			"0.004": 10.860668135,
			"0.005": 11.6466064656,
			"0.006": 6.75992169426,
			"0.007": 6.11898776078,
			"0.008": 7.03631419694,
			"0.009": 5.44629800897,
			"0.01": 6.66150865316,
			"0.011": 6.26361338768,
			"0.012": 3.44370604239,
			"0.013": 0.436919652051,
			"0.014": 0.0,
			"0.015": 0.0,
			"0.016": 0.0,
			"0.017": 0.0,
			"0.018": 0.0,
			"0.019": 0.0,
			"0.02": 0.0,
			"0.021": 0.0,
			"0.022": 0.0,
			"0.023": 0.0,
			"0.024": 0.0,
			"0.025": 0.0
		}
	}
}
