{
	 "smiles": "CC1=CC=CC=C1C(O)C1=CC=CC=C1", 
	 "Tm": 367.15, 
	 "num_atms": 29, 
	 "gaussian": { 
		 "optdone": 1, 
		 "sigma_profile": "yes", 
		 "theory": "DFT", 
		 "functional": "B3LYP", 
		 "basiset": "6-31G**", 
		 "properties": { 
			 "R2extent": 3613.2368, 
			 "electric_dipole_moment_norm": 1.61479588184, 
			 "electric_quadrupole_moment_norm": 7.9734972001, 
			 "total_energy": -617.14930426, 
			 "HOMO_LUMO_gap": 0.2326, 
			 "cosmo_polarized_energy": -8.57, 
			 "cosmo_cavitation_energy": 31.2, 
			 "cosmo_dispersion_energy": -22.25, 
			 "cosmo_repulsion_energy": 1.72, 
			 "cosmo_total_nonelectrostatic_energy": 10.68, 
			 "SMD_solvation_energy": 5.04 
		},
		"coords": [
			{
				"x": -0.2568803688,
				"y": 1.5768427636,
				"z": 0.386127309,
				"element": "C" 
			},
			{
				"x": 1.2135729038,
				"y": 1.2267865785,
				"z": 0.3092255287,
				"element": "C" 
			},
			{
				"x": 2.1344937682,
				"y": 2.2389453889,
				"z": 0.0127897576,
				"element": "C" 
			},
			{
				"x": 3.5062299268,
				"y": 1.990824881,
				"z": -0.0497287153,
				"element": "C" 
			},
			{
				"x": 3.9822333209,
				"y": 0.7042752829,
				"z": 0.1901794034,
				"element": "C" 
			},
			{
				"x": 3.0762612898,
				"y": -0.3135338083,
				"z": 0.4904648973,
				"element": "C" 
			},
			{
				"x": 1.6974242778,
				"y": -0.0786546777,
				"z": 0.5516910698,
				"element": "C" 
			},
			{
				"x": 0.7843796279,
				"y": -1.2593854172,
				"z": 0.8787907125,
				"element": "C" 
			},
			{
				"x": -0.010113073,
				"y": -1.0382699863,
				"z": 2.0461562898,
				"element": "O" 
			},
			{
				"x": -0.0592972972,
				"y": -1.7537946235,
				"z": -0.30278335,
				"element": "C" 
			},
			{
				"x": -1.2625816738,
				"y": -2.4300450761,
				"z": -0.056652565,
				"element": "C" 
			},
			{
				"x": -2.0252351807,
				"y": -2.9347334369,
				"z": -1.1109062749,
				"element": "C" 
			},
			{
				"x": -1.5933030231,
				"y": -2.7773382464,
				"z": -2.428797152,
				"element": "C" 
			},
			{
				"x": -0.391884968,
				"y": -2.1134669671,
				"z": -2.6829558902,
				"element": "C" 
			},
			{
				"x": 0.3693701214,
				"y": -1.6055808008,
				"z": -1.628965496,
				"element": "C" 
			},
			{
				"x": -0.8867682441,
				"y": 0.8270699572,
				"z": -0.1031586457,
				"element": "H" 
			},
			{
				"x": -0.5881150141,
				"y": 1.674988925,
				"z": 1.4280934176,
				"element": "H" 
			},
			{
				"x": -0.4530327557,
				"y": 2.5361329395,
				"z": -0.1005730354,
				"element": "H" 
			},
			{
				"x": 1.7638905673,
				"y": 3.2439668701,
				"z": -0.1746767139,
				"element": "H" 
			},
			{
				"x": 4.1937249294,
				"y": 2.7986129872,
				"z": -0.2839075992,
				"element": "H" 
			},
			{
				"x": 5.0465041815,
				"y": 0.4915158566,
				"z": 0.148569409,
				"element": "H" 
			},
			{
				"x": 3.4464682222,
				"y": -1.3176069488,
				"z": 0.6840914435,
				"element": "H" 
			},
			{
				"x": 1.439965868,
				"y": -2.0884381923,
				"z": 1.1734746899,
				"element": "H" 
			},
			{
				"x": -0.7356805954,
				"y": -0.4492386204,
				"z": 1.8024604686,
				"element": "H" 
			},
			{
				"x": -1.5914492576,
				"y": -2.5628054593,
				"z": 0.9689882811,
				"element": "H" 
			},
			{
				"x": -2.9563777325,
				"y": -3.4539735136,
				"z": -0.9008730105,
				"element": "H" 
			},
			{
				"x": -2.186329331,
				"y": -3.169372594,
				"z": -3.2501687439,
				"element": "H" 
			},
			{
				"x": -0.0460112092,
				"y": -1.9858528432,
				"z": -3.705049869,
				"element": "H" 
			},
			{
				"x": 1.2998407191,
				"y": -1.0870712187,
				"z": -1.837905617,
				"element": "H" 
			}
		],
		 "valence_orbital": [ 
			{
				"type": "occ",
				"energy": -0.27652,
				"method": "rhf"
			},
			{
				"type": "occ",
				"energy": -0.24926,
				"method": "rhf"
			},
			{
				"type": "occ",
				"energy": -0.24678,
				"method": "rhf"
			},
			{
				"type": "occ",
				"energy": -0.24112,
				"method": "rhf"
			},
			{
				"type": "occ",
				"energy": -0.23856,
				"method": "rhf"
			},
			{
				"type": "unocc",
				"energy": -0.00596,
				"method": "rhf"
			},
			{
				"type": "unocc",
				"energy": -0.00515,
				"method": "rhf"
			},
			{
				"type": "unocc",
				"energy": -0.00299,
				"method": "rhf"
			},
			{
				"type": "unocc",
				"energy": 0.00602,
				"method": "rhf"
			},
			{
				"type": "unocc",
				"energy": 0.08502,
				"method": "rhf"
			}
		],
		"cosmo_sigma_profile": { 
			"-0.025": 0.0,
			"-0.024": 0.0,
			"-0.023": 0.0,
			"-0.022": 0.0,
			"-0.021": 0.0,
			"-0.02": 0.0,
			"-0.019": 0.0,
			"-0.018": 0.0,
			"-0.017": 0.0,
			"-0.016": 0.0,
			"-0.015": 0.0,
			"-0.014": 0.031165269757,
			"-0.013": 0.425929588824,
			"-0.012": 0.781826164368,
			"-0.011": 0.734325629702,
			"-0.01": 1.67414357934,
			"-0.009": 0.753312086025,
			"-0.008": 0.620606822165,
			"-0.007": 1.93077572884,
			"-0.006": 8.65223567494,
			"-0.005": 20.3354193616,
			"-0.004": 22.3968311404,
			"-0.003": 25.9028848944,
			"-0.002": 18.9125547265,
			"-0.001": 22.3265062845,
			"0.0": 17.6792036799,
			"0.001": 15.2317247115,
			"0.002": 16.4835283751,
			"0.003": 14.6144605651,
			"0.004": 16.7504886555,
			"0.005": 15.8050182184,
			"0.006": 14.6339302645,
			"0.007": 2.16920654117,
			"0.008": 1.18507036528,
			"0.009": 0.637550216258,
			"0.01": 1.26118600762,
			"0.011": 1.78106821673,
			"0.012": 1.00798173399,
			"0.013": 1.82089810536,
			"0.014": 1.4045446903,
			"0.015": 0.0,
			"0.016": 0.0,
			"0.017": 0.0,
			"0.018": 0.0,
			"0.019": 0.0,
			"0.02": 0.0,
			"0.021": 0.0,
			"0.022": 0.0,
			"0.023": 0.0,
			"0.024": 0.0,
			"0.025": 0.0
		}
	}
}
