{
	 "smiles": "CC1=CC=C(C=C1)S(Cl)(=O)=O", 
	 "Tm": 342.65, 
	 "num_atms": 18, 
	 "gaussian": { 
		 "optdone": 1, 
		 "sigma_profile": "yes", 
		 "theory": "DFT", 
		 "functional": "B3LYP", 
		 "basiset": "6-31G**", 
		 "properties": { 
			 "R2extent": 3592.9855, 
			 "electric_dipole_moment_norm": 6.18654678799, 
			 "electric_quadrupole_moment_norm": 11.9183391867, 
			 "total_energy": -1279.73056735, 
			 "HOMO_LUMO_gap": 0.19154, 
			 "cosmo_polarized_energy": -9.1, 
			 "cosmo_cavitation_energy": 25.54, 
			 "cosmo_dispersion_energy": -19.22, 
			 "cosmo_repulsion_energy": 1.5, 
			 "cosmo_total_nonelectrostatic_energy": 7.83, 
			 "SMD_solvation_energy": 3.18 
		},
		"coords": [
			{
				"x": 2.2513023854,
				"y": -0.902027782,
				"z": 1.4824750068,
				"element": "C" 
			},
			{
				"x": 1.2066283559,
				"y": -0.5645105077,
				"z": 0.4476452879,
				"element": "C" 
			},
			{
				"x": 0.1029844838,
				"y": 0.2363257095,
				"z": 0.7794079225,
				"element": "C" 
			},
			{
				"x": -0.8837683133,
				"y": 0.5296872771,
				"z": -0.1579969936,
				"element": "C" 
			},
			{
				"x": -0.7504582328,
				"y": 0.0121061026,
				"z": -1.4468639956,
				"element": "C" 
			},
			{
				"x": 0.3347179001,
				"y": -0.7833208227,
				"z": -1.8163572767,
				"element": "C" 
			},
			{
				"x": 1.3079922493,
				"y": -1.0621571717,
				"z": -0.8605942473,
				"element": "C" 
			},
			{
				"x": -1.993451112,
				"y": 0.3974913432,
				"z": -2.6652065978,
				"element": "S" 
			},
			{
				"x": -3.3691042797,
				"y": -1.2195837579,
				"z": -2.3954984525,
				"element": "Cl" 
			},
			{
				"x": -1.4349326204,
				"y": 0.2288677809,
				"z": -4.001293101,
				"element": "O" 
			},
			{
				"x": -2.7097795042,
				"y": 1.6028941237,
				"z": -2.2660015353,
				"element": "O" 
			},
			{
				"x": 3.2313532074,
				"y": -1.0628466408,
				"z": 1.024842258,
				"element": "H" 
			},
			{
				"x": 2.3469835216,
				"y": -0.1085937242,
				"z": 2.2288720767,
				"element": "H" 
			},
			{
				"x": 1.9844450889,
				"y": -1.8226230839,
				"z": 2.0161122729,
				"element": "H" 
			},
			{
				"x": 0.0172107999,
				"y": 0.6397774554,
				"z": 1.7844423754,
				"element": "H" 
			},
			{
				"x": -1.7318344838,
				"y": 1.1560887163,
				"z": 0.0948464904,
				"element": "H" 
			},
			{
				"x": 0.4170843037,
				"y": -1.1595422264,
				"z": -2.8298662484,
				"element": "H" 
			},
			{
				"x": 2.1632262502,
				"y": -1.6727327912,
				"z": -1.1362652424,
				"element": "H" 
			}
		],
		 "valence_orbital": [ 
			{
				"type": "occ",
				"energy": -0.33252,
				"method": "rhf"
			},
			{
				"type": "occ",
				"energy": -0.327,
				"method": "rhf"
			},
			{
				"type": "occ",
				"energy": -0.3093,
				"method": "rhf"
			},
			{
				"type": "occ",
				"energy": -0.28519,
				"method": "rhf"
			},
			{
				"type": "occ",
				"energy": -0.27839,
				"method": "rhf"
			},
			{
				"type": "unocc",
				"energy": -0.08685,
				"method": "rhf"
			},
			{
				"type": "unocc",
				"energy": -0.03947,
				"method": "rhf"
			},
			{
				"type": "unocc",
				"energy": -0.0353,
				"method": "rhf"
			},
			{
				"type": "unocc",
				"energy": 0.05149,
				"method": "rhf"
			},
			{
				"type": "unocc",
				"energy": 0.07646,
				"method": "rhf"
			}
		],
		"cosmo_sigma_profile": { 
			"-0.025": 0.0,
			"-0.024": 0.0,
			"-0.023": 0.0,
			"-0.022": 0.0,
			"-0.021": 0.0,
			"-0.02": 0.0,
			"-0.019": 0.0,
			"-0.018": 0.0,
			"-0.017": 0.0,
			"-0.016": 0.0,
			"-0.015": 0.0,
			"-0.014": 0.0,
			"-0.013": 0.0,
			"-0.012": 0.0,
			"-0.011": 0.0,
			"-0.01": 0.0,
			"-0.009": 0.127181430403,
			"-0.008": 2.40040835301,
			"-0.007": 7.49016939155,
			"-0.006": 11.2070982958,
			"-0.005": 15.028047407,
			"-0.004": 13.2787454611,
			"-0.003": 13.5159434244,
			"-0.002": 15.5206024056,
			"-0.001": 19.6464034345,
			"0.0": 16.6621383117,
			"0.001": 17.9219917196,
			"0.002": 19.439707046,
			"0.003": 13.427186193,
			"0.004": 13.6631567448,
			"0.005": 3.02877047634,
			"0.006": 3.64031119541,
			"0.007": 5.16670877692,
			"0.008": 9.78150647193,
			"0.009": 5.81975017974,
			"0.01": 0.212140712082,
			"0.011": 0.0,
			"0.012": 0.0,
			"0.013": 0.0,
			"0.014": 0.0,
			"0.015": 0.0,
			"0.016": 0.0,
			"0.017": 0.0,
			"0.018": 0.0,
			"0.019": 0.0,
			"0.02": 0.0,
			"0.021": 0.0,
			"0.022": 0.0,
			"0.023": 0.0,
			"0.024": 0.0,
			"0.025": 0.0
		}
	}
}
