{
	 "smiles": "CNC1=CC(=O)OC2=CC=CC=C12", 
	 "Tm": 471.15, 
	 "num_atms": 22, 
	 "gaussian": { 
		 "optdone": 1, 
		 "sigma_profile": "yes", 
		 "theory": "DFT", 
		 "functional": "B3LYP", 
		 "basiset": "6-31G**", 
		 "properties": { 
			 "R2extent": 2545.9066, 
			 "electric_dipole_moment_norm": 6.63186652836, 
			 "electric_quadrupole_moment_norm": 17.9972850377, 
			 "total_energy": -591.696915805, 
			 "HOMO_LUMO_gap": 0.17083, 
			 "cosmo_polarized_energy": -16.88, 
			 "cosmo_cavitation_energy": 25.79, 
			 "cosmo_dispersion_energy": -19.46, 
			 "cosmo_repulsion_energy": 1.52, 
			 "cosmo_total_nonelectrostatic_energy": 7.84, 
			 "SMD_solvation_energy": 4.96 
		},
		"coords": [
			{
				"x": -0.1487411567,
				"y": 1.1263374143,
				"z": -3.0893732382,
				"element": "C" 
			},
			{
				"x": 0.3100966557,
				"y": 0.1779218768,
				"z": -2.0915124711,
				"element": "N" 
			},
			{
				"x": -0.3669940519,
				"y": -0.0420746859,
				"z": -0.9234882404,
				"element": "C" 
			},
			{
				"x": -1.5932154392,
				"y": 0.5145376585,
				"z": -0.6595348898,
				"element": "C" 
			},
			{
				"x": -2.3149892814,
				"y": 0.2841816974,
				"z": 0.5658674156,
				"element": "C" 
			},
			{
				"x": -3.3958409043,
				"y": 0.7376151803,
				"z": 0.8677323051,
				"element": "O" 
			},
			{
				"x": -1.6818548049,
				"y": -0.5370537366,
				"z": 1.5178664965,
				"element": "O" 
			},
			{
				"x": -0.4787784339,
				"y": -1.1199087353,
				"z": 1.2787585384,
				"element": "C" 
			},
			{
				"x": 0.031669109,
				"y": -1.9357148526,
				"z": 2.2950863298,
				"element": "C" 
			},
			{
				"x": 1.2467670234,
				"y": -2.5827903255,
				"z": 2.1140479053,
				"element": "C" 
			},
			{
				"x": 1.9573589704,
				"y": -2.4288058746,
				"z": 0.9159680089,
				"element": "C" 
			},
			{
				"x": 1.4482898928,
				"y": -1.615639946,
				"z": -0.0879037379,
				"element": "C" 
			},
			{
				"x": 0.2289608661,
				"y": -0.9317369356,
				"z": 0.0757671591,
				"element": "C" 
			},
			{
				"x": -1.1244734244,
				"y": 0.8233976009,
				"z": -3.4829314424,
				"element": "H" 
			},
			{
				"x": 0.5619268515,
				"y": 1.1360570142,
				"z": -3.9177949625,
				"element": "H" 
			},
			{
				"x": -0.2414780541,
				"y": 2.1468251887,
				"z": -2.6913997628,
				"element": "H" 
			},
			{
				"x": 1.3003577393,
				"y": -0.0049563764,
				"z": -2.0766259755,
				"element": "H" 
			},
			{
				"x": -2.0848939371,
				"y": 1.1787632961,
				"z": -1.3568692167,
				"element": "H" 
			},
			{
				"x": -0.5469031208,
				"y": -2.0456994972,
				"z": 3.205753662,
				"element": "H" 
			},
			{
				"x": 1.6403644791,
				"y": -3.2168576287,
				"z": 2.9027449905,
				"element": "H" 
			},
			{
				"x": 2.8987004448,
				"y": -2.9479363017,
				"z": 0.7673582478,
				"element": "H" 
			},
			{
				"x": 1.9982705764,
				"y": -1.5350620311,
				"z": -1.0209171218,
				"element": "H" 
			}
		],
		 "valence_orbital": [ 
			{
				"type": "occ",
				"energy": -0.32446,
				"method": "rhf"
			},
			{
				"type": "occ",
				"energy": -0.26535,
				"method": "rhf"
			},
			{
				"type": "occ",
				"energy": -0.25672,
				"method": "rhf"
			},
			{
				"type": "occ",
				"energy": -0.24148,
				"method": "rhf"
			},
			{
				"type": "occ",
				"energy": -0.21964,
				"method": "rhf"
			},
			{
				"type": "unocc",
				"energy": -0.04881,
				"method": "rhf"
			},
			{
				"type": "unocc",
				"energy": -0.00853,
				"method": "rhf"
			},
			{
				"type": "unocc",
				"energy": 0.01624,
				"method": "rhf"
			},
			{
				"type": "unocc",
				"energy": 0.05716,
				"method": "rhf"
			},
			{
				"type": "unocc",
				"energy": 0.08839,
				"method": "rhf"
			}
		],
		"cosmo_sigma_profile": { 
			"-0.025": 0.0,
			"-0.024": 0.0,
			"-0.023": 0.0,
			"-0.022": 0.0,
			"-0.021": 0.0,
			"-0.02": 0.0,
			"-0.019": 0.0,
			"-0.018": 0.0,
			"-0.017": 0.0,
			"-0.016": 0.0838223049717,
			"-0.015": 0.797220267972,
			"-0.014": 1.34959910045,
			"-0.013": 1.26184566505,
			"-0.012": 0.935186025698,
			"-0.011": 1.44106742473,
			"-0.01": 1.96325511117,
			"-0.009": 1.40363180027,
			"-0.008": 1.58150479548,
			"-0.007": 5.49116348283,
			"-0.006": 12.7064647596,
			"-0.005": 16.6716516406,
			"-0.004": 15.7124651166,
			"-0.003": 14.5500274652,
			"-0.002": 17.0555657124,
			"-0.001": 10.0962283007,
			"0.0": 13.4450971806,
			"0.001": 14.3813536336,
			"0.002": 15.4622298444,
			"0.003": 16.4581980556,
			"0.004": 11.6341347901,
			"0.005": 3.8055059896,
			"0.006": 2.33290588963,
			"0.007": 2.07283119633,
			"0.008": 2.56170451002,
			"0.009": 1.61635536666,
			"0.01": 2.49682725053,
			"0.011": 3.01357819549,
			"0.012": 2.92240843235,
			"0.013": 7.11953511914,
			"0.014": 3.80651857863,
			"0.015": 0.242417295681,
			"0.016": 0.0,
			"0.017": 0.0,
			"0.018": 0.0,
			"0.019": 0.0,
			"0.02": 0.0,
			"0.021": 0.0,
			"0.022": 0.0,
			"0.023": 0.0,
			"0.024": 0.0,
			"0.025": 0.0
		}
	}
}
