{
	 "smiles": "ClC1=CC=CC(Cl)=C1CBr", 
	 "Tm": 329.15, 
	 "num_atms": 15, 
	 "gaussian": { 
		 "optdone": 1, 
		 "sigma_profile": "yes", 
		 "theory": "DFT", 
		 "functional": "B3LYP", 
		 "basiset": "6-31G**", 
		 "properties": { 
			 "R2extent": 3138.6594, 
			 "electric_dipole_moment_norm": 3.09161975993, 
			 "electric_quadrupole_moment_norm": 9.08926731921, 
			 "total_energy": -3761.54963338, 
			 "HOMO_LUMO_gap": 0.20489, 
			 "cosmo_polarized_energy": -6.1, 
			 "cosmo_cavitation_energy": 24.59, 
			 "cosmo_dispersion_energy": -18.5, 
			 "cosmo_repulsion_energy": 1.49, 
			 "cosmo_total_nonelectrostatic_energy": 7.58, 
			 "SMD_solvation_energy": 2.49 
		},
		"coords": [
			{
				"x": 1.75347962,
				"y": 1.1943468669,
				"z": -1.5366443306,
				"element": "Cl" 
			},
			{
				"x": 0.0321452921,
				"y": 0.9044929062,
				"z": -1.3348837918,
				"element": "C" 
			},
			{
				"x": -0.7962651727,
				"y": 1.1727047757,
				"z": -2.4221981363,
				"element": "C" 
			},
			{
				"x": -2.1679713042,
				"y": 0.9632205024,
				"z": -2.3019025652,
				"element": "C" 
			},
			{
				"x": -2.7048212113,
				"y": 0.4902151084,
				"z": -1.1069184684,
				"element": "C" 
			},
			{
				"x": -1.8554222365,
				"y": 0.2294533167,
				"z": -0.034081342,
				"element": "C" 
			},
			{
				"x": -2.5848278848,
				"y": -0.3572420468,
				"z": 1.45300839,
				"element": "Cl" 
			},
			{
				"x": -0.461856804,
				"y": 0.4217320561,
				"z": -0.1071897778,
				"element": "C" 
			},
			{
				"x": 0.4392507965,
				"y": 0.1183456927,
				"z": 1.042926159,
				"element": "C" 
			},
			{
				"x": 0.69033663,
				"y": 1.7060224078,
				"z": 2.2315338008,
				"element": "Br" 
			},
			{
				"x": -0.3654514014,
				"y": 1.5415482482,
				"z": -3.3456300856,
				"element": "H" 
			},
			{
				"x": -2.8217806676,
				"y": 1.1701920654,
				"z": -3.1432262058,
				"element": "H" 
			},
			{
				"x": -3.7702588381,
				"y": 0.3240488775,
				"z": -0.9992062921,
				"element": "H" 
			},
			{
				"x": 1.4425183095,
				"y": -0.1430809073,
				"z": 0.7202094142,
				"element": "H" 
			},
			{
				"x": 0.0298248724,
				"y": -0.6483998699,
				"z": 1.6937032316,
				"element": "H" 
			}
		],
		 "valence_orbital": [ 
			{
				"type": "occ",
				"energy": -0.32297,
				"method": "rhf"
			},
			{
				"type": "occ",
				"energy": -0.2795,
				"method": "rhf"
			},
			{
				"type": "occ",
				"energy": -0.27175,
				"method": "rhf"
			},
			{
				"type": "occ",
				"energy": -0.26345,
				"method": "rhf"
			},
			{
				"type": "occ",
				"energy": -0.2594,
				"method": "rhf"
			},
			{
				"type": "unocc",
				"energy": -0.05451,
				"method": "rhf"
			},
			{
				"type": "unocc",
				"energy": -0.03221,
				"method": "rhf"
			},
			{
				"type": "unocc",
				"energy": -0.00199,
				"method": "rhf"
			},
			{
				"type": "unocc",
				"energy": 0.01854,
				"method": "rhf"
			},
			{
				"type": "unocc",
				"energy": 0.04306,
				"method": "rhf"
			}
		],
		"cosmo_sigma_profile": { 
			"-0.025": 0.0,
			"-0.024": 0.0,
			"-0.023": 0.0,
			"-0.022": 0.0,
			"-0.021": 0.0,
			"-0.02": 0.0,
			"-0.019": 0.0,
			"-0.018": 0.0,
			"-0.017": 0.0,
			"-0.016": 0.0,
			"-0.015": 0.0,
			"-0.014": 0.0,
			"-0.013": 0.0,
			"-0.012": 0.0,
			"-0.011": 0.0,
			"-0.01": 0.0,
			"-0.009": 0.0500166410314,
			"-0.008": 4.93459958619,
			"-0.007": 9.42509618087,
			"-0.006": 10.160915082,
			"-0.005": 9.61503400582,
			"-0.004": 8.88312912584,
			"-0.003": 10.1099306646,
			"-0.002": 12.3546180262,
			"-0.001": 13.0166318711,
			"0.0": 19.5679115338,
			"0.001": 25.5589880205,
			"0.002": 23.6033052907,
			"0.003": 18.0727925834,
			"0.004": 18.5738718244,
			"0.005": 10.9635111956,
			"0.006": 9.9324053828,
			"0.007": 0.288153669175,
			"0.008": 0.0,
			"0.009": 0.0,
			"0.01": 0.0,
			"0.011": 0.0,
			"0.012": 0.0,
			"0.013": 0.0,
			"0.014": 0.0,
			"0.015": 0.0,
			"0.016": 0.0,
			"0.017": 0.0,
			"0.018": 0.0,
			"0.019": 0.0,
			"0.02": 0.0,
			"0.021": 0.0,
			"0.022": 0.0,
			"0.023": 0.0,
			"0.024": 0.0,
			"0.025": 0.0
		}
	}
}
