{
	 "smiles": "CCCCCCCCCCl", 
	 "Tm": 233.95, 
	 "num_atms": 29, 
	 "gaussian": { 
		 "optdone": 1, 
		 "sigma_profile": "yes", 
		 "theory": "DFT", 
		 "functional": "B3LYP", 
		 "basiset": "6-31G**", 
		 "properties": { 
			 "R2extent": 3537.0864, 
			 "electric_dipole_moment_norm": 2.63686634853, 
			 "electric_quadrupole_moment_norm": 13.2668201043, 
			 "total_energy": -814.628668228, 
			 "HOMO_LUMO_gap": 0.31335, 
			 "cosmo_polarized_energy": -3.97, 
			 "cosmo_cavitation_energy": 30.71, 
			 "cosmo_dispersion_energy": -21.75, 
			 "cosmo_repulsion_energy": 1.8, 
			 "cosmo_total_nonelectrostatic_energy": 10.77, 
			 "SMD_solvation_energy": 3.98 
		},
		"coords": [
			{
				"x": 1.8181262452,
				"y": 2.5464668092,
				"z": 2.4149763883,
				"element": "C" 
			},
			{
				"x": 0.5719836325,
				"y": 1.6809479072,
				"z": 2.6364941875,
				"element": "C" 
			},
			{
				"x": -0.4120762065,
				"y": 1.6704344235,
				"z": 1.4532573187,
				"element": "C" 
			},
			{
				"x": 0.136234029,
				"y": 1.1033226712,
				"z": 0.1301532665,
				"element": "C" 
			},
			{
				"x": 0.6143338351,
				"y": -0.3598803859,
				"z": 0.178465035,
				"element": "C" 
			},
			{
				"x": -0.4479875937,
				"y": -1.4016863931,
				"z": 0.5739195241,
				"element": "C" 
			},
			{
				"x": -1.6860496844,
				"y": -1.5327900689,
				"z": -0.334225309,
				"element": "C" 
			},
			{
				"x": -1.4307885702,
				"y": -2.0766500821,
				"z": -1.7601170356,
				"element": "C" 
			},
			{
				"x": -1.1312686983,
				"y": -0.9894574542,
				"z": -2.7866647342,
				"element": "C" 
			},
			{
				"x": -0.8994053364,
				"y": -1.6923322381,
				"z": -4.4525630829,
				"element": "Cl" 
			},
			{
				"x": 2.4359858297,
				"y": 2.1725916407,
				"z": 1.591826058,
				"element": "H" 
			},
			{
				"x": 1.5431381671,
				"y": 3.5808703604,
				"z": 2.177443633,
				"element": "H" 
			},
			{
				"x": 2.4468444828,
				"y": 2.5680973975,
				"z": 3.3111761005,
				"element": "H" 
			},
			{
				"x": 0.8788850408,
				"y": 0.6547510862,
				"z": 2.8768861742,
				"element": "H" 
			},
			{
				"x": 0.0376336665,
				"y": 2.0458237013,
				"z": 3.5229740734,
				"element": "H" 
			},
			{
				"x": -1.3094481736,
				"y": 1.1105362964,
				"z": 1.7468643639,
				"element": "H" 
			},
			{
				"x": -0.7509583432,
				"y": 2.6993294238,
				"z": 1.2700661111,
				"element": "H" 
			},
			{
				"x": -0.6422161494,
				"y": 1.2120576035,
				"z": -0.6362344693,
				"element": "H" 
			},
			{
				"x": 0.9710882672,
				"y": 1.7266404691,
				"z": -0.2139111459,
				"element": "H" 
			},
			{
				"x": 1.4482044088,
				"y": -0.4430018177,
				"z": 0.8871201269,
				"element": "H" 
			},
			{
				"x": 1.0432065775,
				"y": -0.6236581929,
				"z": -0.7968842171,
				"element": "H" 
			},
			{
				"x": -0.7977288133,
				"y": -1.1854088035,
				"z": 1.5914546942,
				"element": "H" 
			},
			{
				"x": 0.0390362176,
				"y": -2.384429186,
				"z": 0.6325078185,
				"element": "H" 
			},
			{
				"x": -2.2203803237,
				"y": -0.5749546322,
				"z": -0.3932839418,
				"element": "H" 
			},
			{
				"x": -2.3802536376,
				"y": -2.221063717,
				"z": 0.162416938,
				"element": "H" 
			},
			{
				"x": -0.6070503528,
				"y": -2.8001414329,
				"z": -1.7449584439,
				"element": "H" 
			},
			{
				"x": -2.3156239254,
				"y": -2.6229174832,
				"z": -2.1041812607,
				"element": "H" 
			},
			{
				"x": -1.9586599914,
				"y": -0.2821416922,
				"z": -2.8725792185,
				"element": "H" 
			},
			{
				"x": -0.2173046,
				"y": -0.4380562102,
				"z": -2.5685989529,
				"element": "H" 
			}
		],
		 "valence_orbital": [ 
			{
				"type": "occ",
				"energy": -0.31621,
				"method": "rhf"
			},
			{
				"type": "occ",
				"energy": -0.30867,
				"method": "rhf"
			},
			{
				"type": "occ",
				"energy": -0.30833,
				"method": "rhf"
			},
			{
				"type": "occ",
				"energy": -0.28856,
				"method": "rhf"
			},
			{
				"type": "occ",
				"energy": -0.28782,
				"method": "rhf"
			},
			{
				"type": "unocc",
				"energy": 0.02553,
				"method": "rhf"
			},
			{
				"type": "unocc",
				"energy": 0.06996,
				"method": "rhf"
			},
			{
				"type": "unocc",
				"energy": 0.09415,
				"method": "rhf"
			},
			{
				"type": "unocc",
				"energy": 0.09843,
				"method": "rhf"
			},
			{
				"type": "unocc",
				"energy": 0.10686,
				"method": "rhf"
			}
		],
		"cosmo_sigma_profile": { 
			"-0.025": 0.0,
			"-0.024": 0.0,
			"-0.023": 0.0,
			"-0.022": 0.0,
			"-0.021": 0.0,
			"-0.02": 0.0,
			"-0.019": 0.0,
			"-0.018": 0.0,
			"-0.017": 0.0,
			"-0.016": 0.0,
			"-0.015": 0.0,
			"-0.014": 0.0,
			"-0.013": 0.0,
			"-0.012": 0.0,
			"-0.011": 0.0,
			"-0.01": 0.0,
			"-0.009": 0.0,
			"-0.008": 0.0,
			"-0.007": 0.176165619667,
			"-0.006": 2.69293100751,
			"-0.005": 5.13862457033,
			"-0.004": 7.84249664131,
			"-0.003": 16.9268567129,
			"-0.002": 36.3940711756,
			"-0.001": 43.9526397751,
			"0.0": 42.1958166132,
			"0.001": 36.2978311358,
			"0.002": 15.691921226,
			"0.003": 4.38819491411,
			"0.004": 4.11903586472,
			"0.005": 4.69833028262,
			"0.006": 7.11850997771,
			"0.007": 9.87180869626,
			"0.008": 0.99087612124,
			"0.009": 0.0,
			"0.01": 0.0,
			"0.011": 0.0,
			"0.012": 0.0,
			"0.013": 0.0,
			"0.014": 0.0,
			"0.015": 0.0,
			"0.016": 0.0,
			"0.017": 0.0,
			"0.018": 0.0,
			"0.019": 0.0,
			"0.02": 0.0,
			"0.021": 0.0,
			"0.022": 0.0,
			"0.023": 0.0,
			"0.024": 0.0,
			"0.025": 0.0
		}
	}
}
