{
	 "smiles": "CNC1=CC=C(C=C1)C(=O)OC", 
	 "Tm": 368.15, 
	 "num_atms": 23, 
	 "gaussian": { 
		 "optdone": 1, 
		 "sigma_profile": "yes", 
		 "theory": "DFT", 
		 "functional": "B3LYP", 
		 "basiset": "6-31G**", 
		 "properties": { 
			 "R2extent": 3230.3117, 
			 "electric_dipole_moment_norm": 4.01375567518, 
			 "electric_quadrupole_moment_norm": 12.6646702393, 
			 "total_energy": -554.800648776, 
			 "HOMO_LUMO_gap": 0.17865, 
			 "cosmo_polarized_energy": -11.89, 
			 "cosmo_cavitation_energy": 26.95, 
			 "cosmo_dispersion_energy": -19.93, 
			 "cosmo_repulsion_energy": 1.59, 
			 "cosmo_total_nonelectrostatic_energy": 8.61, 
			 "SMD_solvation_energy": 5.61 
		},
		"coords": [
			{
				"x": 1.1399904732,
				"y": -3.0172392432,
				"z": 1.860829072,
				"element": "C" 
			},
			{
				"x": 1.2304389106,
				"y": -2.5309396932,
				"z": 0.499195525,
				"element": "N" 
			},
			{
				"x": 0.46043698,
				"y": -1.4958826542,
				"z": 0.0134910678,
				"element": "C" 
			},
			{
				"x": 0.4482565349,
				"y": -1.2257311962,
				"z": -1.3743638779,
				"element": "C" 
			},
			{
				"x": -0.2924824019,
				"y": -0.1748502583,
				"z": -1.8874533323,
				"element": "C" 
			},
			{
				"x": -1.0512671389,
				"y": 0.6496860928,
				"z": -1.0379854976,
				"element": "C" 
			},
			{
				"x": -1.0422736568,
				"y": 0.3827967946,
				"z": 0.338000856,
				"element": "C" 
			},
			{
				"x": -0.3058150892,
				"y": -0.6699203185,
				"z": 0.8638849818,
				"element": "C" 
			},
			{
				"x": -1.8615510803,
				"y": 1.7848118393,
				"z": -1.5284732445,
				"element": "C" 
			},
			{
				"x": -2.5320854118,
				"y": 2.5205127302,
				"z": -0.825952304,
				"element": "O" 
			},
			{
				"x": -1.7857515611,
				"y": 1.9348491889,
				"z": -2.8776923472,
				"element": "O" 
			},
			{
				"x": -2.551754024,
				"y": 3.0220208255,
				"z": -3.4106014249,
				"element": "C" 
			},
			{
				"x": 0.1254165594,
				"y": -3.3431110677,
				"z": 2.1357151849,
				"element": "H" 
			},
			{
				"x": 1.8171623914,
				"y": -3.8661193378,
				"z": 1.9760583992,
				"element": "H" 
			},
			{
				"x": 1.4526730805,
				"y": -2.2455381243,
				"z": 2.5735150059,
				"element": "H" 
			},
			{
				"x": 1.559844079,
				"y": -3.1895932404,
				"z": -0.1894083344,
				"element": "H" 
			},
			{
				"x": 1.0343795313,
				"y": -1.8533962999,
				"z": -2.0418065055,
				"element": "H" 
			},
			{
				"x": -0.2908959646,
				"y": 0.0172691867,
				"z": -2.9544801597,
				"element": "H" 
			},
			{
				"x": -1.6321475993,
				"y": 1.0196477585,
				"z": 0.9891479181,
				"element": "H" 
			},
			{
				"x": -0.323041394,
				"y": -0.8532527811,
				"z": 1.9322622151,
				"element": "H" 
			},
			{
				"x": -2.3828363151,
				"y": 3.0028604798,
				"z": -4.4877781012,
				"element": "H" 
			},
			{
				"x": -3.6145463754,
				"y": 2.8944662629,
				"z": -3.1879569395,
				"element": "H" 
			},
			{
				"x": -2.220250528,
				"y": 3.9745530557,
				"z": -2.988548157,
				"element": "H" 
			}
		],
		 "valence_orbital": [ 
			{
				"type": "occ",
				"energy": -0.29668,
				"method": "rhf"
			},
			{
				"type": "occ",
				"energy": -0.28648,
				"method": "rhf"
			},
			{
				"type": "occ",
				"energy": -0.25769,
				"method": "rhf"
			},
			{
				"type": "occ",
				"energy": -0.25022,
				"method": "rhf"
			},
			{
				"type": "occ",
				"energy": -0.20153,
				"method": "rhf"
			},
			{
				"type": "unocc",
				"energy": -0.02288,
				"method": "rhf"
			},
			{
				"type": "unocc",
				"energy": 0.00237,
				"method": "rhf"
			},
			{
				"type": "unocc",
				"energy": 0.07194,
				"method": "rhf"
			},
			{
				"type": "unocc",
				"energy": 0.07953,
				"method": "rhf"
			},
			{
				"type": "unocc",
				"energy": 0.10058,
				"method": "rhf"
			}
		],
		"cosmo_sigma_profile": { 
			"-0.025": 0.0,
			"-0.024": 0.0,
			"-0.023": 0.0,
			"-0.022": 0.0,
			"-0.021": 0.0,
			"-0.02": 0.0,
			"-0.019": 0.0,
			"-0.018": 0.0,
			"-0.017": 0.0,
			"-0.016": 0.0,
			"-0.015": 0.0,
			"-0.014": 0.145717094974,
			"-0.013": 1.45817026063,
			"-0.012": 1.58660413237,
			"-0.011": 0.891638911545,
			"-0.01": 1.8545236516,
			"-0.009": 1.40202009133,
			"-0.008": 1.7070239706,
			"-0.007": 2.72668600527,
			"-0.006": 7.32097784067,
			"-0.005": 16.0109104123,
			"-0.004": 20.8925165215,
			"-0.003": 22.0434223591,
			"-0.002": 19.5240655519,
			"-0.001": 14.9362624415,
			"0.0": 9.6885607849,
			"0.001": 10.1495731484,
			"0.002": 13.2953921862,
			"0.003": 13.3761718305,
			"0.004": 13.4112476031,
			"0.005": 15.0347504538,
			"0.006": 7.76586612264,
			"0.007": 4.02270039735,
			"0.008": 1.52795023294,
			"0.009": 1.73441937218,
			"0.01": 1.90101857914,
			"0.011": 1.97590393828,
			"0.012": 3.19568111353,
			"0.013": 4.07150615528,
			"0.014": 0.0241819544724,
			"0.015": 0.0,
			"0.016": 0.0,
			"0.017": 0.0,
			"0.018": 0.0,
			"0.019": 0.0,
			"0.02": 0.0,
			"0.021": 0.0,
			"0.022": 0.0,
			"0.023": 0.0,
			"0.024": 0.0,
			"0.025": 0.0
		}
	}
}
