{
	 "smiles": "COC(OC)C1=NC(S)=C(C=C1)C#N", 
	 "Tm": 411.15, 
	 "num_atms": 24, 
	 "gaussian": { 
		 "optdone": 1, 
		 "sigma_profile": "yes", 
		 "theory": "DFT", 
		 "functional": "B3LYP", 
		 "basiset": "6-31G**", 
		 "properties": { 
			 "R2extent": 4716.6048, 
			 "electric_dipole_moment_norm": 4.26738367387, 
			 "electric_quadrupole_moment_norm": 12.0193362625, 
			 "total_energy": -1007.0724694, 
			 "HOMO_LUMO_gap": 0.17528, 
			 "cosmo_polarized_energy": -12.58, 
			 "cosmo_cavitation_energy": 30.92, 
			 "cosmo_dispersion_energy": -21.78, 
			 "cosmo_repulsion_energy": 1.69, 
			 "cosmo_total_nonelectrostatic_energy": 10.84, 
			 "SMD_solvation_energy": 5.82 
		},
		"coords": [
			{
				"x": -1.0683964742,
				"y": -1.9910760316,
				"z": 2.1535168917,
				"element": "C" 
			},
			{
				"x": -0.0378714485,
				"y": -2.1085068083,
				"z": 1.1750415585,
				"element": "O" 
			},
			{
				"x": 0.3426629002,
				"y": -0.9065814653,
				"z": 0.5509571638,
				"element": "C" 
			},
			{
				"x": 0.9188447658,
				"y": 0.0151313048,
				"z": 1.4411912899,
				"element": "O" 
			},
			{
				"x": 2.1635976778,
				"y": -0.4162548044,
				"z": 1.9795094763,
				"element": "C" 
			},
			{
				"x": -0.8144677446,
				"y": -0.2045898224,
				"z": -0.1579510835,
				"element": "C" 
			},
			{
				"x": -1.4069572944,
				"y": -0.9336785391,
				"z": -1.110732811,
				"element": "N" 
			},
			{
				"x": -2.4259247711,
				"y": -0.4162253729,
				"z": -1.792733193,
				"element": "C" 
			},
			{
				"x": -3.0907829626,
				"y": -1.5150296929,
				"z": -3.0189343711,
				"element": "S" 
			},
			{
				"x": -2.9113084389,
				"y": 0.8943670507,
				"z": -1.5421182951,
				"element": "C" 
			},
			{
				"x": -2.2762010475,
				"y": 1.6462774803,
				"z": -0.5431502629,
				"element": "C" 
			},
			{
				"x": -1.2123283279,
				"y": 1.0970972929,
				"z": 0.1610165688,
				"element": "C" 
			},
			{
				"x": -4.0055054967,
				"y": 1.4460716297,
				"z": -2.2752577779,
				"element": "C" 
			},
			{
				"x": -4.8992160409,
				"y": 1.8827800461,
				"z": -2.8804709783,
				"element": "N" 
			},
			{
				"x": -0.8244728559,
				"y": -1.2349761521,
				"z": 2.9085695945,
				"element": "H" 
			},
			{
				"x": -1.1446624378,
				"y": -2.9687651661,
				"z": 2.6327997097,
				"element": "H" 
			},
			{
				"x": -2.0347678737,
				"y": -1.7444992571,
				"z": 1.6962355467,
				"element": "H" 
			},
			{
				"x": 1.0735469833,
				"y": -1.2262801512,
				"z": -0.2064480312,
				"element": "H" 
			},
			{
				"x": 2.0579927349,
				"y": -1.3573894364,
				"z": 2.5295081427,
				"element": "H" 
			},
			{
				"x": 2.5028108012,
				"y": 0.3691270156,
				"z": 2.6575132535,
				"element": "H" 
			},
			{
				"x": 2.9101694486,
				"y": -0.5533944316,
				"z": 1.1841146294,
				"element": "H" 
			},
			{
				"x": -4.0439657597,
				"y": -0.6824639965,
				"z": -3.482912175,
				"element": "H" 
			},
			{
				"x": -2.6261017653,
				"y": 2.6519806423,
				"z": -0.3333819929,
				"element": "H" 
			},
			{
				"x": -0.6926945721,
				"y": 1.6487786657,
				"z": 0.9328171463,
				"element": "H" 
			}
		],
		 "valence_orbital": [ 
			{
				"type": "occ",
				"energy": -0.29736,
				"method": "rhf"
			},
			{
				"type": "occ",
				"energy": -0.28885,
				"method": "rhf"
			},
			{
				"type": "occ",
				"energy": -0.28037,
				"method": "rhf"
			},
			{
				"type": "occ",
				"energy": -0.27676,
				"method": "rhf"
			},
			{
				"type": "occ",
				"energy": -0.24662,
				"method": "rhf"
			},
			{
				"type": "unocc",
				"energy": -0.07134,
				"method": "rhf"
			},
			{
				"type": "unocc",
				"energy": -0.04312,
				"method": "rhf"
			},
			{
				"type": "unocc",
				"energy": 0.00521,
				"method": "rhf"
			},
			{
				"type": "unocc",
				"energy": 0.02547,
				"method": "rhf"
			},
			{
				"type": "unocc",
				"energy": 0.05242,
				"method": "rhf"
			}
		],
		"cosmo_sigma_profile": { 
			"-0.025": 0.0,
			"-0.024": 0.0,
			"-0.023": 0.0,
			"-0.022": 0.0,
			"-0.021": 0.0,
			"-0.02": 0.0,
			"-0.019": 0.0,
			"-0.018": 0.0,
			"-0.017": 0.0,
			"-0.016": 0.0,
			"-0.015": 0.0,
			"-0.014": 0.0,
			"-0.013": 0.0,
			"-0.012": 0.0161677126736,
			"-0.011": 0.694641041129,
			"-0.01": 1.61452258164,
			"-0.009": 3.67625081485,
			"-0.008": 3.9469140011,
			"-0.007": 6.19738902087,
			"-0.006": 11.0058721334,
			"-0.005": 15.1277309569,
			"-0.004": 20.1686036121,
			"-0.003": 26.1609325505,
			"-0.002": 30.6902248353,
			"-0.001": 21.2460943621,
			"0.0": 14.905341912,
			"0.001": 11.385932337,
			"0.002": 11.146081417,
			"0.003": 10.3346321374,
			"0.004": 10.7346740914,
			"0.005": 9.29398630683,
			"0.006": 9.22819527135,
			"0.007": 7.04282489796,
			"0.008": 5.51074715482,
			"0.009": 4.76658152299,
			"0.01": 4.44751722513,
			"0.011": 4.00334716464,
			"0.012": 4.77914618727,
			"0.013": 1.62455114714,
			"0.014": 0.0676695603278,
			"0.015": 0.0,
			"0.016": 0.0,
			"0.017": 0.0,
			"0.018": 0.0,
			"0.019": 0.0,
			"0.02": 0.0,
			"0.021": 0.0,
			"0.022": 0.0,
			"0.023": 0.0,
			"0.024": 0.0,
			"0.025": 0.0
		}
	}
}
