{
	 "smiles": "CC1=CC(N)=NN1C1=C(F)C=C(F)C=C1", 
	 "Tm": 394.15, 
	 "num_atms": 24, 
	 "gaussian": { 
		 "optdone": 1, 
		 "sigma_profile": "yes", 
		 "theory": "DFT", 
		 "functional": "B3LYP", 
		 "basiset": "6-31G**", 
		 "properties": { 
			 "R2extent": 4876.1755, 
			 "electric_dipole_moment_norm": 2.44483080805, 
			 "electric_quadrupole_moment_norm": 13.1089791498, 
			 "total_energy": -750.392828399, 
			 "HOMO_LUMO_gap": 0.17689, 
			 "cosmo_polarized_energy": -11.08, 
			 "cosmo_cavitation_energy": 29.14, 
			 "cosmo_dispersion_energy": -20.94, 
			 "cosmo_repulsion_energy": 1.6, 
			 "cosmo_total_nonelectrostatic_energy": 9.8, 
			 "SMD_solvation_energy": 5.16 
		},
		"coords": [
			{
				"x": -2.1089743992,
				"y": -1.5537913372,
				"z": 1.301780631,
				"element": "C" 
			},
			{
				"x": -2.6750076171,
				"y": -0.7011920476,
				"z": 0.211286468,
				"element": "C" 
			},
			{
				"x": -3.8515741839,
				"y": 0.0192437239,
				"z": 0.1794023732,
				"element": "C" 
			},
			{
				"x": -3.8469252259,
				"y": 0.692224754,
				"z": -1.0715572238,
				"element": "C" 
			},
			{
				"x": -4.8569015375,
				"y": 1.4916817475,
				"z": -1.6033953812,
				"element": "N" 
			},
			{
				"x": -2.7515744226,
				"y": 0.4257460228,
				"z": -1.7727228227,
				"element": "N" 
			},
			{
				"x": -2.0455845738,
				"y": -0.4583293129,
				"z": -0.9858414926,
				"element": "N" 
			},
			{
				"x": -0.7644010218,
				"y": -0.8608959714,
				"z": -1.4234749492,
				"element": "C" 
			},
			{
				"x": -0.3702029854,
				"y": -2.2040578449,
				"z": -1.4243041819,
				"element": "C" 
			},
			{
				"x": -1.2312026519,
				"y": -3.1508995885,
				"z": -1.0011468357,
				"element": "F" 
			},
			{
				"x": 0.8856741224,
				"y": -2.607289635,
				"z": -1.8606749258,
				"element": "C" 
			},
			{
				"x": 1.7486749218,
				"y": -1.6332119221,
				"z": -2.347452466,
				"element": "C" 
			},
			{
				"x": 2.966444428,
				"y": -2.0088480065,
				"z": -2.7829663524,
				"element": "F" 
			},
			{
				"x": 1.3898245101,
				"y": -0.2899637718,
				"z": -2.4025711227,
				"element": "C" 
			},
			{
				"x": 0.1336929718,
				"y": 0.0854626162,
				"z": -1.9349591118,
				"element": "C" 
			},
			{
				"x": -2.2160352579,
				"y": -2.6204338479,
				"z": 1.0865162144,
				"element": "H" 
			},
			{
				"x": -2.6285071649,
				"y": -1.3380962348,
				"z": 2.2379749228,
				"element": "H" 
			},
			{
				"x": -1.0423458269,
				"y": -1.3555197137,
				"z": 1.4531760812,
				"element": "H" 
			},
			{
				"x": -4.6089595798,
				"y": 0.0508872452,
				"z": 0.9490915808,
				"element": "H" 
			},
			{
				"x": -5.3036647664,
				"y": 2.0911451034,
				"z": -0.921691545,
				"element": "H" 
			},
			{
				"x": -4.5388954022,
				"y": 2.0203648909,
				"z": -2.4066453507,
				"element": "H" 
			},
			{
				"x": 1.1655160613,
				"y": -3.6534643542,
				"z": -1.8451202921,
				"element": "H" 
			},
			{
				"x": 2.0885476746,
				"y": 0.4379606467,
				"z": -2.7983971989,
				"element": "H" 
			},
			{
				"x": -0.1859180729,
				"y": 1.120176838,
				"z": -1.9686070188,
				"element": "H" 
			}
		],
		 "valence_orbital": [ 
			{
				"type": "occ",
				"energy": -0.2819,
				"method": "rhf"
			},
			{
				"type": "occ",
				"energy": -0.2653,
				"method": "rhf"
			},
			{
				"type": "occ",
				"energy": -0.257,
				"method": "rhf"
			},
			{
				"type": "occ",
				"energy": -0.22974,
				"method": "rhf"
			},
			{
				"type": "occ",
				"energy": -0.19835,
				"method": "rhf"
			},
			{
				"type": "unocc",
				"energy": -0.02146,
				"method": "rhf"
			},
			{
				"type": "unocc",
				"energy": -0.01119,
				"method": "rhf"
			},
			{
				"type": "unocc",
				"energy": 0.03486,
				"method": "rhf"
			},
			{
				"type": "unocc",
				"energy": 0.0732,
				"method": "rhf"
			},
			{
				"type": "unocc",
				"energy": 0.08235,
				"method": "rhf"
			}
		],
		"cosmo_sigma_profile": { 
			"-0.025": 0.0,
			"-0.024": 0.0,
			"-0.023": 0.0,
			"-0.022": 0.0,
			"-0.021": 0.0,
			"-0.02": 0.0,
			"-0.019": 0.0,
			"-0.018": 0.0,
			"-0.017": 0.0,
			"-0.016": 0.0,
			"-0.015": 0.0,
			"-0.014": 0.0,
			"-0.013": 0.19816882725,
			"-0.012": 2.14239877529,
			"-0.011": 2.37273013134,
			"-0.01": 2.08926642678,
			"-0.009": 3.60663423387,
			"-0.008": 5.48648048804,
			"-0.007": 6.34998449714,
			"-0.006": 8.57168735052,
			"-0.005": 12.2051358195,
			"-0.004": 13.1132522362,
			"-0.003": 14.389753338,
			"-0.002": 13.2798269802,
			"-0.001": 19.91245434,
			"0.0": 25.5811671855,
			"0.001": 19.5345409496,
			"0.002": 15.4462234757,
			"0.003": 18.3433256605,
			"0.004": 18.1519123956,
			"0.005": 7.77250539404,
			"0.006": 5.81479772505,
			"0.007": 2.87080614119,
			"0.008": 2.5298018136,
			"0.009": 2.40715337135,
			"0.01": 2.64409979809,
			"0.011": 1.88245299986,
			"0.012": 1.6091520189,
			"0.013": 1.15761983755,
			"0.014": 1.93331629883,
			"0.015": 1.19588221079,
			"0.016": 0.486953439812,
			"0.017": 0.0,
			"0.018": 0.0,
			"0.019": 0.0,
			"0.02": 0.0,
			"0.021": 0.0,
			"0.022": 0.0,
			"0.023": 0.0,
			"0.024": 0.0,
			"0.025": 0.0
		}
	}
}
