{
	 "smiles": "OC(=O)C1=CC(Cl)=CC(Cl)=C1", 
	 "Tm": 460.15, 
	 "num_atms": 15, 
	 "gaussian": { 
		 "optdone": 1, 
		 "sigma_profile": "yes", 
		 "theory": "DFT", 
		 "functional": "B3LYP", 
		 "basiset": "6-31G**", 
		 "properties": { 
			 "R2extent": 3291.9046, 
			 "electric_dipole_moment_norm": 1.52114483531, 
			 "electric_quadrupole_moment_norm": 8.90729476946, 
			 "total_energy": -1340.00547903, 
			 "HOMO_LUMO_gap": 0.19298, 
			 "cosmo_polarized_energy": -8.32, 
			 "cosmo_cavitation_energy": 24.02, 
			 "cosmo_dispersion_energy": -17.98, 
			 "cosmo_repulsion_energy": 1.46, 
			 "cosmo_total_nonelectrostatic_energy": 7.49, 
			 "SMD_solvation_energy": 4.87 
		},
		"coords": [
			{
				"x": 0.3341636839,
				"y": 2.621525971,
				"z": 2.1394689767,
				"element": "O" 
			},
			{
				"x": 0.7412867529,
				"y": 2.6955941005,
				"z": 0.8508174468,
				"element": "C" 
			},
			{
				"x": 0.8460849813,
				"y": 3.7484732793,
				"z": 0.2567587776,
				"element": "O" 
			},
			{
				"x": 1.0375443572,
				"y": 1.3584581606,
				"z": 0.2589106924,
				"element": "C" 
			},
			{
				"x": 1.4659577094,
				"y": 1.3253589739,
				"z": -1.0730460504,
				"element": "C" 
			},
			{
				"x": 1.7509849664,
				"y": 0.0955237931,
				"z": -1.6565133165,
				"element": "C" 
			},
			{
				"x": 2.2890144436,
				"y": 0.0320709183,
				"z": -3.3235017448,
				"element": "Cl" 
			},
			{
				"x": 1.6189140965,
				"y": -1.097894758,
				"z": -0.9442931413,
				"element": "C" 
			},
			{
				"x": 1.1899807116,
				"y": -1.0353122688,
				"z": 0.3818375057,
				"element": "C" 
			},
			{
				"x": 1.0194717852,
				"y": -2.5263528907,
				"z": 1.2889098174,
				"element": "Cl" 
			},
			{
				"x": 0.8957111744,
				"y": 0.1782464907,
				"z": 0.9982461238,
				"element": "C" 
			},
			{
				"x": 0.1694822803,
				"y": 3.5357454086,
				"z": 2.4236006321,
				"element": "H" 
			},
			{
				"x": 1.5676857248,
				"y": 2.2525774849,
				"z": -1.6236028722,
				"element": "H" 
			},
			{
				"x": 1.8440038931,
				"y": -2.0495456337,
				"z": -1.4098858436,
				"element": "H" 
			},
			{
				"x": 0.5640134395,
				"y": 0.2096309703,
				"z": 2.0278929963,
				"element": "H" 
			}
		],
		 "valence_orbital": [ 
			{
				"type": "occ",
				"energy": -0.32883,
				"method": "rhf"
			},
			{
				"type": "occ",
				"energy": -0.32488,
				"method": "rhf"
			},
			{
				"type": "occ",
				"energy": -0.2936,
				"method": "rhf"
			},
			{
				"type": "occ",
				"energy": -0.27765,
				"method": "rhf"
			},
			{
				"type": "occ",
				"energy": -0.26369,
				"method": "rhf"
			},
			{
				"type": "unocc",
				"energy": -0.07071,
				"method": "rhf"
			},
			{
				"type": "unocc",
				"energy": -0.0353,
				"method": "rhf"
			},
			{
				"type": "unocc",
				"energy": -0.00181,
				"method": "rhf"
			},
			{
				"type": "unocc",
				"energy": 0.03474,
				"method": "rhf"
			},
			{
				"type": "unocc",
				"energy": 0.04018,
				"method": "rhf"
			}
		],
		"cosmo_sigma_profile": { 
			"-0.025": 0.0,
			"-0.024": 0.0,
			"-0.023": 0.0,
			"-0.022": 0.0,
			"-0.021": 0.0,
			"-0.02": 0.0,
			"-0.019": 0.356858384884,
			"-0.018": 1.01386241864,
			"-0.017": 0.769663473375,
			"-0.016": 0.972406613811,
			"-0.015": 1.11784337852,
			"-0.014": 0.669777938358,
			"-0.013": 0.140084320417,
			"-0.012": 0.374389447986,
			"-0.011": 1.19397018935,
			"-0.01": 0.65327405915,
			"-0.009": 1.75925322593,
			"-0.008": 2.76245235834,
			"-0.007": 4.71680641597,
			"-0.006": 4.14909141838,
			"-0.005": 5.69951792012,
			"-0.004": 7.18345122143,
			"-0.003": 10.7339518677,
			"-0.002": 14.6423316106,
			"-0.001": 20.3439359747,
			"0.0": 32.1426174651,
			"0.001": 17.2816582624,
			"0.002": 12.0104694473,
			"0.003": 18.6539184834,
			"0.004": 18.7569077421,
			"0.005": 3.30054179499,
			"0.006": 2.97715282564,
			"0.007": 2.26266290882,
			"0.008": 1.3147104156,
			"0.009": 1.55566804319,
			"0.01": 2.49605782444,
			"0.011": 4.96068749876,
			"0.012": 0.919247801618,
			"0.013": 0.0,
			"0.014": 0.0,
			"0.015": 0.0,
			"0.016": 0.0,
			"0.017": 0.0,
			"0.018": 0.0,
			"0.019": 0.0,
			"0.02": 0.0,
			"0.021": 0.0,
			"0.022": 0.0,
			"0.023": 0.0,
			"0.024": 0.0,
			"0.025": 0.0
		}
	}
}
