{
	 "smiles": "BrCC1=NC2=C(S1)C=CC=C2", 
	 "Tm": 320.15, 
	 "num_atms": 17, 
	 "gaussian": { 
		 "optdone": 1, 
		 "sigma_profile": "yes", 
		 "theory": "DFT", 
		 "functional": "B3LYP", 
		 "basiset": "6-31G**", 
		 "properties": { 
			 "R2extent": 5339.8394, 
			 "electric_dipole_moment_norm": 2.30882024853, 
			 "electric_quadrupole_moment_norm": 8.72096535941, 
			 "total_energy": -3332.81909742, 
			 "HOMO_LUMO_gap": 0.17987, 
			 "cosmo_polarized_energy": -7.39, 
			 "cosmo_cavitation_energy": 25.17, 
			 "cosmo_dispersion_energy": -19.59, 
			 "cosmo_repulsion_energy": 1.53, 
			 "cosmo_total_nonelectrostatic_energy": 7.11, 
			 "SMD_solvation_energy": 0.74 
		},
		"coords": [
			{
				"x": 0.2901553228,
				"y": 3.7094839784,
				"z": 3.6228515576,
				"element": "Br" 
			},
			{
				"x": -0.7073128152,
				"y": 1.9897659792,
				"z": 3.7695410523,
				"element": "C" 
			},
			{
				"x": -0.4525085131,
				"y": 1.0901820341,
				"z": 2.6135106118,
				"element": "C" 
			},
			{
				"x": -1.3307145144,
				"y": 0.8751380988,
				"z": 1.6861408617,
				"element": "N" 
			},
			{
				"x": -0.8546307814,
				"y": -0.0205827319,
				"z": 0.7435798383,
				"element": "C" 
			},
			{
				"x": 0.4575598967,
				"y": -0.5039974264,
				"z": 0.9756833458,
				"element": "C" 
			},
			{
				"x": 1.0868932154,
				"y": 0.2161995571,
				"z": 2.4422242282,
				"element": "S" 
			},
			{
				"x": 1.0625424293,
				"y": -1.4127769886,
				"z": 0.1034194546,
				"element": "C" 
			},
			{
				"x": 0.336907361,
				"y": -1.8349883471,
				"z": -1.0071983369,
				"element": "C" 
			},
			{
				"x": -0.966192017,
				"y": -1.36293635,
				"z": -1.2482333456,
				"element": "C" 
			},
			{
				"x": -1.5681003233,
				"y": -0.4594850082,
				"z": -0.3822846594,
				"element": "C" 
			},
			{
				"x": -1.7614014424,
				"y": 2.2556059217,
				"z": 3.7946139139,
				"element": "H" 
			},
			{
				"x": -0.3870261088,
				"y": 1.5642614948,
				"z": 4.7190526401,
				"element": "H" 
			},
			{
				"x": 2.0676230783,
				"y": -1.7803649688,
				"z": 0.2828146975,
				"element": "H" 
			},
			{
				"x": 0.786954752,
				"y": -2.541126856,
				"z": -1.6985500822,
				"element": "H" 
			},
			{
				"x": -1.5060340841,
				"y": -1.7103299373,
				"z": -2.1237640295,
				"element": "H" 
			},
			{
				"x": -2.5715154559,
				"y": -0.0841484498,
				"z": -0.5533017482,
				"element": "H" 
			}
		],
		 "valence_orbital": [ 
			{
				"type": "occ",
				"energy": -0.28962,
				"method": "rhf"
			},
			{
				"type": "occ",
				"energy": -0.28085,
				"method": "rhf"
			},
			{
				"type": "occ",
				"energy": -0.27873,
				"method": "rhf"
			},
			{
				"type": "occ",
				"energy": -0.24536,
				"method": "rhf"
			},
			{
				"type": "occ",
				"energy": -0.24189,
				"method": "rhf"
			},
			{
				"type": "unocc",
				"energy": -0.06202,
				"method": "rhf"
			},
			{
				"type": "unocc",
				"energy": -0.01311,
				"method": "rhf"
			},
			{
				"type": "unocc",
				"energy": -0.00035,
				"method": "rhf"
			},
			{
				"type": "unocc",
				"energy": 0.00547,
				"method": "rhf"
			},
			{
				"type": "unocc",
				"energy": 0.03831,
				"method": "rhf"
			}
		],
		"cosmo_sigma_profile": { 
			"-0.025": 0.0,
			"-0.024": 0.0,
			"-0.023": 0.0,
			"-0.022": 0.0,
			"-0.021": 0.0,
			"-0.02": 0.0,
			"-0.019": 0.0,
			"-0.018": 0.0,
			"-0.017": 0.0,
			"-0.016": 0.0,
			"-0.015": 0.0,
			"-0.014": 0.0,
			"-0.013": 0.0,
			"-0.012": 0.0,
			"-0.011": 0.0,
			"-0.01": 0.296399355867,
			"-0.009": 3.44486252238,
			"-0.008": 4.46616983564,
			"-0.007": 8.01747086194,
			"-0.006": 12.9658197706,
			"-0.005": 13.105645338,
			"-0.004": 12.2051843698,
			"-0.003": 10.2244337662,
			"-0.002": 10.6302774462,
			"-0.001": 10.7009586498,
			"0.0": 14.9906601198,
			"0.001": 18.0424171839,
			"0.002": 19.8471493307,
			"0.003": 22.3138459942,
			"0.004": 19.9076651084,
			"0.005": 14.8042219772,
			"0.006": 5.46723977284,
			"0.007": 0.878775168488,
			"0.008": 1.26665539653,
			"0.009": 0.674630173972,
			"0.01": 1.19709081244,
			"0.011": 0.699797625311,
			"0.012": 0.800594013539,
			"0.013": 0.80129758108,
			"0.014": 0.325626375342,
			"0.015": 0.0,
			"0.016": 0.0,
			"0.017": 0.0,
			"0.018": 0.0,
			"0.019": 0.0,
			"0.02": 0.0,
			"0.021": 0.0,
			"0.022": 0.0,
			"0.023": 0.0,
			"0.024": 0.0,
			"0.025": 0.0
		}
	}
}
