{
	 "smiles": "NC(=S)C1=C(Cl)C=CC=C1Cl", 
	 "Tm": 424.15, 
	 "num_atms": 16, 
	 "gaussian": { 
		 "optdone": 1, 
		 "sigma_profile": "yes", 
		 "theory": "DFT", 
		 "functional": "B3LYP", 
		 "basiset": "6-31G**", 
		 "properties": { 
			 "R2extent": 2603.1841, 
			 "electric_dipole_moment_norm": 4.81183014975, 
			 "electric_quadrupole_moment_norm": 11.2141417233, 
			 "total_energy": -1643.07967216, 
			 "HOMO_LUMO_gap": 0.17073, 
			 "cosmo_polarized_energy": -16.17, 
			 "cosmo_cavitation_energy": 25.95, 
			 "cosmo_dispersion_energy": -18.91, 
			 "cosmo_repulsion_energy": 1.5, 
			 "cosmo_total_nonelectrostatic_energy": 8.53, 
			 "SMD_solvation_energy": 2.88 
		},
		"coords": [
			{
				"x": -1.608173513,
				"y": 2.481059252,
				"z": 0.087175517,
				"element": "N" 
			},
			{
				"x": -0.8975532988,
				"y": 1.4572226208,
				"z": 0.5931907474,
				"element": "C" 
			},
			{
				"x": -0.7216008725,
				"y": 1.1568165746,
				"z": 2.2118201166,
				"element": "S" 
			},
			{
				"x": -0.2580465267,
				"y": 0.5792499999,
				"z": -0.4471419494,
				"element": "C" 
			},
			{
				"x": -0.9202261816,
				"y": -0.5466445191,
				"z": -0.9656489689,
				"element": "C" 
			},
			{
				"x": -2.5605771003,
				"y": -0.9067074812,
				"z": -0.4580978241,
				"element": "Cl" 
			},
			{
				"x": -0.3156533414,
				"y": -1.3972905183,
				"z": -1.8894793424,
				"element": "C" 
			},
			{
				"x": 0.9799175072,
				"y": -1.124655964,
				"z": -2.3231059984,
				"element": "C" 
			},
			{
				"x": 1.6619312586,
				"y": -0.0069310749,
				"z": -1.8472778632,
				"element": "C" 
			},
			{
				"x": 1.0397378824,
				"y": 0.8313137462,
				"z": -0.9238140702,
				"element": "C" 
			},
			{
				"x": 1.918500395,
				"y": 2.2423234257,
				"z": -0.3627320467,
				"element": "Cl" 
			},
			{
				"x": -1.6914297074,
				"y": 2.628856047,
				"z": -0.9078810639,
				"element": "H" 
			},
			{
				"x": -2.07060621,
				"y": 3.1179980802,
				"z": 0.720949972,
				"element": "H" 
			},
			{
				"x": -0.8603217934,
				"y": -2.2583622587,
				"z": -2.2590176801,
				"element": "H" 
			},
			{
				"x": 1.4592044664,
				"y": -1.7846372871,
				"z": -3.0391705863,
				"element": "H" 
			},
			{
				"x": 2.6665970356,
				"y": 0.2212893569,
				"z": -2.1837689595,
				"element": "H" 
			}
		],
		 "valence_orbital": [ 
			{
				"type": "occ",
				"energy": -0.31896,
				"method": "rhf"
			},
			{
				"type": "occ",
				"energy": -0.27482,
				"method": "rhf"
			},
			{
				"type": "occ",
				"energy": -0.25821,
				"method": "rhf"
			},
			{
				"type": "occ",
				"energy": -0.23828,
				"method": "rhf"
			},
			{
				"type": "occ",
				"energy": -0.21336,
				"method": "rhf"
			},
			{
				"type": "unocc",
				"energy": -0.04263,
				"method": "rhf"
			},
			{
				"type": "unocc",
				"energy": -0.0359,
				"method": "rhf"
			},
			{
				"type": "unocc",
				"energy": -0.03114,
				"method": "rhf"
			},
			{
				"type": "unocc",
				"energy": 0.00082,
				"method": "rhf"
			},
			{
				"type": "unocc",
				"energy": 0.04572,
				"method": "rhf"
			}
		],
		"cosmo_sigma_profile": { 
			"-0.025": 0.0,
			"-0.024": 0.0,
			"-0.023": 0.0,
			"-0.022": 0.0,
			"-0.021": 0.0,
			"-0.02": 0.0,
			"-0.019": 0.0,
			"-0.018": 0.0,
			"-0.017": 0.257976336356,
			"-0.016": 1.6902699628,
			"-0.015": 2.59371345052,
			"-0.014": 2.88368423892,
			"-0.013": 2.04448855326,
			"-0.012": 2.49285472993,
			"-0.011": 2.01224250143,
			"-0.01": 1.86208674825,
			"-0.009": 1.7074806519,
			"-0.008": 5.32639190641,
			"-0.007": 9.06555015582,
			"-0.006": 7.10330908439,
			"-0.005": 6.91257503125,
			"-0.004": 7.15199205938,
			"-0.003": 7.81302618635,
			"-0.002": 9.66577418628,
			"-0.001": 11.2811618189,
			"0.0": 14.6373541633,
			"0.001": 19.1406166662,
			"0.002": 22.1708329905,
			"0.003": 18.8882113979,
			"0.004": 18.6857048111,
			"0.005": 7.16591015785,
			"0.006": 7.78206581659,
			"0.007": 7.30648112989,
			"0.008": 6.60306734902,
			"0.009": 4.02436635524,
			"0.01": 3.87015678824,
			"0.011": 2.43747875593,
			"0.012": 0.580708245953,
			"0.013": 0.0,
			"0.014": 0.0,
			"0.015": 0.0,
			"0.016": 0.0,
			"0.017": 0.0,
			"0.018": 0.0,
			"0.019": 0.0,
			"0.02": 0.0,
			"0.021": 0.0,
			"0.022": 0.0,
			"0.023": 0.0,
			"0.024": 0.0,
			"0.025": 0.0
		}
	}
}
