{
	 "smiles": "NC(=S)NC1=CC=C2OCOC2=C1", 
	 "Tm": 472.15, 
	 "num_atms": 21, 
	 "gaussian": { 
		 "optdone": 1, 
		 "sigma_profile": "yes", 
		 "theory": "DFT", 
		 "functional": "B3LYP", 
		 "basiset": "6-31G**", 
		 "properties": { 
			 "R2extent": 3632.0279, 
			 "electric_dipole_moment_norm": 6.08557292784, 
			 "electric_quadrupole_moment_norm": 21.8998008534, 
			 "total_energy": -967.798426717, 
			 "HOMO_LUMO_gap": 0.17687, 
			 "cosmo_polarized_energy": -18.7, 
			 "cosmo_cavitation_energy": 27.0, 
			 "cosmo_dispersion_energy": -20.93, 
			 "cosmo_repulsion_energy": 1.63, 
			 "cosmo_total_nonelectrostatic_energy": 7.7, 
			 "SMD_solvation_energy": 4.43 
		},
		"coords": [
			{
				"x": -0.2532520069,
				"y": -2.2762460992,
				"z": 2.4244174432,
				"element": "N" 
			},
			{
				"x": 0.2803269248,
				"y": -2.9248179303,
				"z": 1.3544937371,
				"element": "C" 
			},
			{
				"x": 0.8793009109,
				"y": -4.4927112002,
				"z": 1.4605794319,
				"element": "S" 
			},
			{
				"x": 0.3261930486,
				"y": -2.2361293085,
				"z": 0.1729753338,
				"element": "N" 
			},
			{
				"x": -0.0838220817,
				"y": -0.9074905647,
				"z": -0.1127245686,
				"element": "C" 
			},
			{
				"x": -0.8111446861,
				"y": -0.6702601,
				"z": -1.2850807193,
				"element": "C" 
			},
			{
				"x": -1.1925061075,
				"y": 0.628768641,
				"z": -1.6621808998,
				"element": "C" 
			},
			{
				"x": -0.8383993657,
				"y": 1.6590746089,
				"z": -0.814542857,
				"element": "C" 
			},
			{
				"x": -1.1137948276,
				"y": 2.9999640905,
				"z": -0.9276322621,
				"element": "O" 
			},
			{
				"x": -0.3831525223,
				"y": 3.6346666429,
				"z": 0.128056877,
				"element": "C" 
			},
			{
				"x": 0.0948541611,
				"y": 2.6102950568,
				"z": 1.0116362016,
				"element": "O" 
			},
			{
				"x": -0.1171706783,
				"y": 1.4253323049,
				"z": 0.355122036,
				"element": "C" 
			},
			{
				"x": 0.2924383002,
				"y": 0.1631276259,
				"z": 0.733860419,
				"element": "C" 
			},
			{
				"x": -0.4047531414,
				"y": -2.8439551877,
				"z": 3.2432654516,
				"element": "H" 
			},
			{
				"x": -0.844484194,
				"y": -1.467061572,
				"z": 2.2925522138,
				"element": "H" 
			},
			{
				"x": 0.649103243,
				"y": -2.8032592324,
				"z": -0.5984480444,
				"element": "H" 
			},
			{
				"x": -1.0878646846,
				"y": -1.5117467482,
				"z": -1.9121959017,
				"element": "H" 
			},
			{
				"x": -1.7532459238,
				"y": 0.8120330143,
				"z": -2.5714275583,
				"element": "H" 
			},
			{
				"x": -1.0469926588,
				"y": 4.3083206006,
				"z": 0.6776351667,
				"element": "H" 
			},
			{
				"x": 0.4723030008,
				"y": 4.1820007705,
				"z": -0.2920834248,
				"element": "H" 
			},
			{
				"x": 0.8960632892,
				"y": 0.0035945869,
				"z": 1.6186219241,
				"element": "H" 
			}
		],
		 "valence_orbital": [ 
			{
				"type": "occ",
				"energy": -0.28882,
				"method": "rhf"
			},
			{
				"type": "occ",
				"energy": -0.25968,
				"method": "rhf"
			},
			{
				"type": "occ",
				"energy": -0.22658,
				"method": "rhf"
			},
			{
				"type": "occ",
				"energy": -0.20411,
				"method": "rhf"
			},
			{
				"type": "occ",
				"energy": -0.20281,
				"method": "rhf"
			},
			{
				"type": "unocc",
				"energy": -0.02594,
				"method": "rhf"
			},
			{
				"type": "unocc",
				"energy": -0.0184,
				"method": "rhf"
			},
			{
				"type": "unocc",
				"energy": 0.01951,
				"method": "rhf"
			},
			{
				"type": "unocc",
				"energy": 0.0709,
				"method": "rhf"
			},
			{
				"type": "unocc",
				"energy": 0.08674,
				"method": "rhf"
			}
		],
		"cosmo_sigma_profile": { 
			"-0.025": 0.0,
			"-0.024": 0.0,
			"-0.023": 0.0,
			"-0.022": 0.0,
			"-0.021": 0.0,
			"-0.02": 0.0,
			"-0.019": 0.0,
			"-0.018": 0.0,
			"-0.017": 0.0,
			"-0.016": 0.0,
			"-0.015": 0.386899624641,
			"-0.014": 2.16961244822,
			"-0.013": 2.65108146679,
			"-0.012": 2.83759902754,
			"-0.011": 3.84788792884,
			"-0.01": 2.88381414444,
			"-0.009": 2.81647828493,
			"-0.008": 7.55444952212,
			"-0.007": 14.6164895742,
			"-0.006": 14.5532797261,
			"-0.005": 11.4363257966,
			"-0.004": 8.05665722562,
			"-0.003": 9.09720095759,
			"-0.002": 8.81315923871,
			"-0.001": 10.2555258044,
			"0.0": 11.8342769194,
			"0.001": 13.8261816203,
			"0.002": 14.5751830823,
			"0.003": 13.1991473946,
			"0.004": 9.19884677976,
			"0.005": 6.20861207928,
			"0.006": 7.37671036297,
			"0.007": 4.69512273533,
			"0.008": 6.41681960948,
			"0.009": 8.02083632317,
			"0.01": 5.6191447724,
			"0.011": 6.90856221897,
			"0.012": 7.11662147574,
			"0.013": 1.65551748772,
			"0.014": 0.0,
			"0.015": 0.0,
			"0.016": 0.0,
			"0.017": 0.0,
			"0.018": 0.0,
			"0.019": 0.0,
			"0.02": 0.0,
			"0.021": 0.0,
			"0.022": 0.0,
			"0.023": 0.0,
			"0.024": 0.0,
			"0.025": 0.0
		}
	}
}
