{
	 "smiles": "OC(=O)C1=CN=C(OCC(F)F)C=C1", 
	 "Tm": 432.15, 
	 "num_atms": 21, 
	 "gaussian": { 
		 "optdone": 1, 
		 "sigma_profile": "yes", 
		 "theory": "DFT", 
		 "functional": "B3LYP", 
		 "basiset": "6-31G**", 
		 "properties": { 
			 "R2extent": 4665.647, 
			 "electric_dipole_moment_norm": 4.21346097407, 
			 "electric_quadrupole_moment_norm": 22.3840082271, 
			 "total_energy": -789.16703899, 
			 "HOMO_LUMO_gap": 0.20027, 
			 "cosmo_polarized_energy": -16.85, 
			 "cosmo_cavitation_energy": 27.3, 
			 "cosmo_dispersion_energy": -19.66, 
			 "cosmo_repulsion_energy": 1.52, 
			 "cosmo_total_nonelectrostatic_energy": 9.16, 
			 "SMD_solvation_energy": 6.48 
		},
		"coords": [
			{
				"x": 5.276540544,
				"y": -0.5426151896,
				"z": 1.0497354788,
				"element": "O" 
			},
			{
				"x": 4.0332032687,
				"y": -0.9458474741,
				"z": 0.670267107,
				"element": "C" 
			},
			{
				"x": 3.7739136042,
				"y": -2.1247750766,
				"z": 0.611005384,
				"element": "O" 
			},
			{
				"x": 3.045162758,
				"y": 0.125523929,
				"z": 0.3436313377,
				"element": "C" 
			},
			{
				"x": 1.9076733282,
				"y": -0.2322028611,
				"z": -0.3853978901,
				"element": "C" 
			},
			{
				"x": 0.9453568256,
				"y": 0.6288038973,
				"z": -0.7346046881,
				"element": "N" 
			},
			{
				"x": 1.0814125777,
				"y": 1.8969657561,
				"z": -0.3530311968,
				"element": "C" 
			},
			{
				"x": 0.1367834221,
				"y": 2.8001347773,
				"z": -0.6900196093,
				"element": "O" 
			},
			{
				"x": -0.9461111883,
				"y": 2.374519229,
				"z": -1.5223502552,
				"element": "C" 
			},
			{
				"x": -2.0323545643,
				"y": 1.6613818929,
				"z": -0.7327317987,
				"element": "C" 
			},
			{
				"x": -3.051429165,
				"y": 1.3906036177,
				"z": -1.6051257875,
				"element": "F" 
			},
			{
				"x": -2.5109407793,
				"y": 2.4869654109,
				"z": 0.2418605143,
				"element": "F" 
			},
			{
				"x": 2.1677505717,
				"y": 2.3743153005,
				"z": 0.4033922961,
				"element": "C" 
			},
			{
				"x": 3.1535736941,
				"y": 1.4689689217,
				"z": 0.7502396152,
				"element": "C" 
			},
			{
				"x": 5.3947511216,
				"y": 0.402832233,
				"z": 0.8861895604,
				"element": "H" 
			},
			{
				"x": 1.7811567859,
				"y": -1.2661656316,
				"z": -0.6938863875,
				"element": "H" 
			},
			{
				"x": -1.3708615397,
				"y": 3.2904097879,
				"z": -1.9381544737,
				"element": "H" 
			},
			{
				"x": -0.5945350264,
				"y": 1.7207364596,
				"z": -2.3231326133,
				"element": "H" 
			},
			{
				"x": -1.7014339123,
				"y": 0.7269036149,
				"z": -0.271443736,
				"element": "H" 
			},
			{
				"x": 2.2026094268,
				"y": 3.4160513276,
				"z": 0.6989501698,
				"element": "H" 
			},
			{
				"x": 3.9863782467,
				"y": 1.8071900775,
				"z": 1.3624069732,
				"element": "H" 
			}
		],
		 "valence_orbital": [ 
			{
				"type": "occ",
				"energy": -0.32267,
				"method": "rhf"
			},
			{
				"type": "occ",
				"energy": -0.31693,
				"method": "rhf"
			},
			{
				"type": "occ",
				"energy": -0.29748,
				"method": "rhf"
			},
			{
				"type": "occ",
				"energy": -0.28081,
				"method": "rhf"
			},
			{
				"type": "occ",
				"energy": -0.25937,
				"method": "rhf"
			},
			{
				"type": "unocc",
				"energy": -0.0591,
				"method": "rhf"
			},
			{
				"type": "unocc",
				"energy": -0.05093,
				"method": "rhf"
			},
			{
				"type": "unocc",
				"energy": 0.03656,
				"method": "rhf"
			},
			{
				"type": "unocc",
				"energy": 0.04853,
				"method": "rhf"
			},
			{
				"type": "unocc",
				"energy": 0.08093,
				"method": "rhf"
			}
		],
		"cosmo_sigma_profile": { 
			"-0.025": 0.0,
			"-0.024": 0.0,
			"-0.023": 0.0,
			"-0.022": 0.0,
			"-0.021": 0.0,
			"-0.02": 0.176566775868,
			"-0.019": 0.604541042282,
			"-0.018": 1.24662982862,
			"-0.017": 0.842136090752,
			"-0.016": 1.26826029581,
			"-0.015": 0.947696627035,
			"-0.014": 0.87200349849,
			"-0.013": 1.30246768892,
			"-0.012": 0.980336946897,
			"-0.011": 1.48517120917,
			"-0.01": 1.63627053996,
			"-0.009": 1.53078605496,
			"-0.008": 6.99603870158,
			"-0.007": 9.53545264871,
			"-0.006": 10.1563891623,
			"-0.005": 10.563696322,
			"-0.004": 10.3676159919,
			"-0.003": 11.7619643031,
			"-0.002": 12.4550775895,
			"-0.001": 15.5861509748,
			"0.0": 18.2705039511,
			"0.001": 12.2670626032,
			"0.002": 6.95579938258,
			"0.003": 12.2465041641,
			"0.004": 20.7178783558,
			"0.005": 13.5467786828,
			"0.006": 5.82635147471,
			"0.007": 4.17070542998,
			"0.008": 4.97021750985,
			"0.009": 3.13955077392,
			"0.01": 5.2406768856,
			"0.011": 5.65666792024,
			"0.012": 3.84628402862,
			"0.013": 1.45063792353,
			"0.014": 0.0138803413189,
			"0.015": 0.0,
			"0.016": 0.0,
			"0.017": 0.0,
			"0.018": 0.0,
			"0.019": 0.0,
			"0.02": 0.0,
			"0.021": 0.0,
			"0.022": 0.0,
			"0.023": 0.0,
			"0.024": 0.0,
			"0.025": 0.0
		}
	}
}
