{
	 "smiles": "OC1=C(N=O)C(O)=C(C=C1)N=O", 
	 "Tm": 441.15, 
	 "num_atms": 16, 
	 "gaussian": { 
		 "optdone": 1, 
		 "sigma_profile": "yes", 
		 "theory": "DFT", 
		 "functional": "B3LYP", 
		 "basiset": "6-31G**", 
		 "properties": { 
			 "R2extent": 1982.2836, 
			 "electric_dipole_moment_norm": 3.07140731425, 
			 "electric_quadrupole_moment_norm": 8.505919286, 
			 "total_energy": -641.292859138, 
			 "HOMO_LUMO_gap": 0.12061, 
			 "cosmo_polarized_energy": -11.01, 
			 "cosmo_cavitation_energy": 21.35, 
			 "cosmo_dispersion_energy": -16.5, 
			 "cosmo_repulsion_energy": 1.29, 
			 "cosmo_total_nonelectrostatic_energy": 6.14, 
			 "SMD_solvation_energy": 4.66 
		},
		"coords": [
			{
				"x": -0.5819804154,
				"y": -2.49150985,
				"z": -0.545296309,
				"element": "O" 
			},
			{
				"x": -0.3227119177,
				"y": -1.3726361544,
				"z": 0.0956954796,
				"element": "C" 
			},
			{
				"x": -0.5911470239,
				"y": -0.1114140654,
				"z": -0.5360289719,
				"element": "C" 
			},
			{
				"x": -1.119809319,
				"y": 0.0152749298,
				"z": -1.8104983622,
				"element": "N" 
			},
			{
				"x": -1.3648413978,
				"y": -1.0545553713,
				"z": -2.415805455,
				"element": "O" 
			},
			{
				"x": -0.3062753525,
				"y": 1.0973426392,
				"z": 0.1674267917,
				"element": "C" 
			},
			{
				"x": -0.5382380012,
				"y": 2.2653123976,
				"z": -0.3783856666,
				"element": "O" 
			},
			{
				"x": 0.2398099127,
				"y": 1.0107060508,
				"z": 1.4856159527,
				"element": "C" 
			},
			{
				"x": 0.4870161588,
				"y": -0.2594031132,
				"z": 2.0666660425,
				"element": "C" 
			},
			{
				"x": 0.2183337789,
				"y": -1.4311302007,
				"z": 1.4020691935,
				"element": "C" 
			},
			{
				"x": 0.5527007789,
				"y": 2.1135791629,
				"z": 2.2564580493,
				"element": "N" 
			},
			{
				"x": 0.3323006777,
				"y": 3.2374060168,
				"z": 1.7381563478,
				"element": "O" 
			},
			{
				"x": -0.9556323041,
				"y": -2.2049580975,
				"z": -1.4434280845,
				"element": "H" 
			},
			{
				"x": -0.2495988789,
				"y": 2.9387077583,
				"z": 0.3279431909,
				"element": "H" 
			},
			{
				"x": 0.9021422522,
				"y": -0.2636832758,
				"z": 3.0701122395,
				"element": "H" 
			},
			{
				"x": 0.4047310512,
				"y": -2.4045388269,
				"z": 1.8397995619,
				"element": "H" 
			}
		],
		 "valence_orbital": [ 
			{
				"type": "occ",
				"energy": -0.35851,
				"method": "rhf"
			},
			{
				"type": "occ",
				"energy": -0.29232,
				"method": "rhf"
			},
			{
				"type": "occ",
				"energy": -0.26807,
				"method": "rhf"
			},
			{
				"type": "occ",
				"energy": -0.25312,
				"method": "rhf"
			},
			{
				"type": "occ",
				"energy": -0.24505,
				"method": "rhf"
			},
			{
				"type": "unocc",
				"energy": -0.12444,
				"method": "rhf"
			},
			{
				"type": "unocc",
				"energy": -0.11684,
				"method": "rhf"
			},
			{
				"type": "unocc",
				"energy": -0.01984,
				"method": "rhf"
			},
			{
				"type": "unocc",
				"energy": 0.00799,
				"method": "rhf"
			},
			{
				"type": "unocc",
				"energy": 0.07402,
				"method": "rhf"
			}
		],
		"cosmo_sigma_profile": { 
			"-0.025": 0.0,
			"-0.024": 0.0,
			"-0.023": 0.0,
			"-0.022": 0.0,
			"-0.021": 0.0,
			"-0.02": 0.0,
			"-0.019": 0.0,
			"-0.018": 0.0,
			"-0.017": 0.0,
			"-0.016": 0.0,
			"-0.015": 0.0,
			"-0.014": 0.0,
			"-0.013": 0.0,
			"-0.012": 0.0,
			"-0.011": 0.0,
			"-0.01": 0.523753171985,
			"-0.009": 4.84354138442,
			"-0.008": 7.56259527004,
			"-0.007": 8.61013448353,
			"-0.006": 11.8174645252,
			"-0.005": 13.4833620627,
			"-0.004": 11.7587294789,
			"-0.003": 10.6452034524,
			"-0.002": 13.5336340399,
			"-0.001": 11.4511087226,
			"0.0": 9.29768698154,
			"0.001": 5.79553709019,
			"0.002": 5.80986367105,
			"0.003": 5.34817334593,
			"0.004": 6.35846209609,
			"0.005": 6.32197979139,
			"0.006": 6.91587033625,
			"0.007": 7.34309542606,
			"0.008": 7.91944810979,
			"0.009": 7.47891745724,
			"0.01": 5.81157754666,
			"0.011": 3.70964278324,
			"0.012": 0.750605969808,
			"0.013": 0.0,
			"0.014": 0.0,
			"0.015": 0.0,
			"0.016": 0.0,
			"0.017": 0.0,
			"0.018": 0.0,
			"0.019": 0.0,
			"0.02": 0.0,
			"0.021": 0.0,
			"0.022": 0.0,
			"0.023": 0.0,
			"0.024": 0.0,
			"0.025": 0.0
		}
	}
}
