{
	 "smiles": "NNC(=O)CC1=CC=CS1", 
	 "Tm": 338.15, 
	 "num_atms": 18, 
	 "gaussian": { 
		 "optdone": 1, 
		 "sigma_profile": "yes", 
		 "theory": "DFT", 
		 "functional": "B3LYP", 
		 "basiset": "6-31G**", 
		 "properties": { 
			 "R2extent": 2035.0138, 
			 "electric_dipole_moment_norm": 2.7638553164, 
			 "electric_quadrupole_moment_norm": 7.42014433485, 
			 "total_energy": -816.340826513, 
			 "HOMO_LUMO_gap": 0.20818, 
			 "cosmo_polarized_energy": -12.45, 
			 "cosmo_cavitation_energy": 23.91, 
			 "cosmo_dispersion_energy": -17.72, 
			 "cosmo_repulsion_energy": 1.42, 
			 "cosmo_total_nonelectrostatic_energy": 7.61, 
			 "SMD_solvation_energy": 5.07 
		},
		"coords": [
			{
				"x": 0.4105535847,
				"y": -2.5888472026,
				"z": 0.4409315229,
				"element": "N" 
			},
			{
				"x": 0.0014283026,
				"y": -1.2786734686,
				"z": 0.128934847,
				"element": "N" 
			},
			{
				"x": -1.3053254097,
				"y": -0.9653426722,
				"z": -0.0860583613,
				"element": "C" 
			},
			{
				"x": -2.2076475079,
				"y": -1.7854429208,
				"z": 0.027511677,
				"element": "O" 
			},
			{
				"x": -1.5894212419,
				"y": 0.4807657144,
				"z": -0.5327175208,
				"element": "C" 
			},
			{
				"x": -0.5002387012,
				"y": 1.4955031284,
				"z": -0.3360386297,
				"element": "C" 
			},
			{
				"x": 0.4538561444,
				"y": 1.9053566168,
				"z": -1.2349157021,
				"element": "C" 
			},
			{
				"x": 1.3631932619,
				"y": 2.8716898979,
				"z": -0.7047255809,
				"element": "C" 
			},
			{
				"x": 1.0933745338,
				"y": 3.1898233461,
				"z": 0.5968335937,
				"element": "C" 
			},
			{
				"x": -0.2784165831,
				"y": 2.3118766178,
				"z": 1.194720099,
				"element": "S" 
			},
			{
				"x": -0.0977987099,
				"y": -3.2143270205,
				"z": -0.1849010723,
				"element": "H" 
			},
			{
				"x": 0.0581442778,
				"y": -2.8060491159,
				"z": 1.3735347578,
				"element": "H" 
			},
			{
				"x": 0.7376851249,
				"y": -0.6111162321,
				"z": -0.0457355346,
				"element": "H" 
			},
			{
				"x": -2.5116377896,
				"y": 0.7709253666,
				"z": -0.0210137011,
				"element": "H" 
			},
			{
				"x": -1.8402795028,
				"y": 0.4279053171,
				"z": -1.5988148708,
				"element": "H" 
			},
			{
				"x": 0.4959953552,
				"y": 1.5326596248,
				"z": -2.2533463256,
				"element": "H" 
			},
			{
				"x": 2.1756383093,
				"y": 3.312007439,
				"z": -1.2714416678,
				"element": "H" 
			},
			{
				"x": 1.6098965515,
				"y": 3.8893855638,
				"z": 1.2392424697,
				"element": "H" 
			}
		],
		 "valence_orbital": [ 
			{
				"type": "occ",
				"energy": -0.28206,
				"method": "rhf"
			},
			{
				"type": "occ",
				"energy": -0.26471,
				"method": "rhf"
			},
			{
				"type": "occ",
				"energy": -0.26201,
				"method": "rhf"
			},
			{
				"type": "occ",
				"energy": -0.25383,
				"method": "rhf"
			},
			{
				"type": "occ",
				"energy": -0.23105,
				"method": "rhf"
			},
			{
				"type": "unocc",
				"energy": -0.02287,
				"method": "rhf"
			},
			{
				"type": "unocc",
				"energy": 0.02016,
				"method": "rhf"
			},
			{
				"type": "unocc",
				"energy": 0.02774,
				"method": "rhf"
			},
			{
				"type": "unocc",
				"energy": 0.05589,
				"method": "rhf"
			},
			{
				"type": "unocc",
				"energy": 0.08564,
				"method": "rhf"
			}
		],
		"cosmo_sigma_profile": { 
			"-0.025": 0.0,
			"-0.024": 0.0,
			"-0.023": 0.0,
			"-0.022": 0.0,
			"-0.021": 0.0,
			"-0.02": 0.0,
			"-0.019": 0.0,
			"-0.018": 0.0,
			"-0.017": 0.0,
			"-0.016": 0.0,
			"-0.015": 0.0,
			"-0.014": 0.0,
			"-0.013": 0.0,
			"-0.012": 0.365040662239,
			"-0.011": 2.19130535439,
			"-0.01": 3.57872251491,
			"-0.009": 3.11077256831,
			"-0.008": 4.66005944693,
			"-0.007": 8.97193256683,
			"-0.006": 15.0155922342,
			"-0.005": 12.9541526969,
			"-0.004": 12.7093621628,
			"-0.003": 12.8750928147,
			"-0.002": 11.7757571472,
			"-0.001": 9.97044390717,
			"0.0": 10.7029586966,
			"0.001": 10.4997169844,
			"0.002": 12.0585950875,
			"0.003": 10.5593087622,
			"0.004": 13.2760582351,
			"0.005": 9.02861749433,
			"0.006": 3.13094934969,
			"0.007": 2.45246860567,
			"0.008": 2.44734766562,
			"0.009": 1.578192965,
			"0.01": 0.996247415592,
			"0.011": 1.96318072596,
			"0.012": 2.88240551659,
			"0.013": 4.20811248072,
			"0.014": 5.24886392561,
			"0.015": 1.75877543092,
			"0.016": 0.575551733984,
			"0.017": 0.20545805989,
			"0.018": 0.0,
			"0.019": 0.0,
			"0.02": 0.0,
			"0.021": 0.0,
			"0.022": 0.0,
			"0.023": 0.0,
			"0.024": 0.0,
			"0.025": 0.0
		}
	}
}
