{
	 "smiles": "COC1=CC(=CC=C1)C1=NN(C)C(N)=C1", 
	 "Tm": 368.15, 
	 "num_atms": 28, 
	 "gaussian": { 
		 "optdone": 1, 
		 "sigma_profile": "yes", 
		 "theory": "DFT", 
		 "functional": "B3LYP", 
		 "basiset": "6-31G**", 
		 "properties": { 
			 "R2extent": 4526.7796, 
			 "electric_dipole_moment_norm": 2.71833581811, 
			 "electric_quadrupole_moment_norm": 26.7545711771, 
			 "total_energy": -666.457107876, 
			 "HOMO_LUMO_gap": 0.19091, 
			 "cosmo_polarized_energy": -16.35, 
			 "cosmo_cavitation_energy": 31.83, 
			 "cosmo_dispersion_energy": -23.51, 
			 "cosmo_repulsion_energy": 1.84, 
			 "cosmo_total_nonelectrostatic_energy": 10.16, 
			 "SMD_solvation_energy": 5.46 
		},
		"coords": [
			{
				"x": 0.2913905349,
				"y": 1.4291466709,
				"z": 4.5111136357,
				"element": "C" 
			},
			{
				"x": 0.4144952561,
				"y": 0.6913539598,
				"z": 3.3084278872,
				"element": "O" 
			},
			{
				"x": -0.0900693174,
				"y": 1.2381809258,
				"z": 2.1598969673,
				"element": "C" 
			},
			{
				"x": 0.061333904,
				"y": 0.460388871,
				"z": 1.0072569484,
				"element": "C" 
			},
			{
				"x": -0.4139433383,
				"y": 0.9119721618,
				"z": -0.2279669414,
				"element": "C" 
			},
			{
				"x": -1.0492048918,
				"y": 2.1657503924,
				"z": -0.2959670351,
				"element": "C" 
			},
			{
				"x": -1.1945396856,
				"y": 2.9349221349,
				"z": 0.8529291672,
				"element": "C" 
			},
			{
				"x": -0.7205158132,
				"y": 2.4870364055,
				"z": 2.0897688342,
				"element": "C" 
			},
			{
				"x": -0.2471947682,
				"y": 0.0793845289,
				"z": -1.4317970782,
				"element": "C" 
			},
			{
				"x": 0.2547059504,
				"y": -1.157166302,
				"z": -1.3398689496,
				"element": "N" 
			},
			{
				"x": 0.2573584669,
				"y": -1.6349628056,
				"z": -2.6082527501,
				"element": "N" 
			},
			{
				"x": 0.733398372,
				"y": -2.9734529647,
				"z": -2.8840565248,
				"element": "C" 
			},
			{
				"x": -0.2008142321,
				"y": -0.7161140572,
				"z": -3.5071815521,
				"element": "C" 
			},
			{
				"x": -0.3152695953,
				"y": -1.0383420025,
				"z": -4.8679170108,
				"element": "N" 
			},
			{
				"x": -0.546166292,
				"y": 0.4099389632,
				"z": -2.7803867305,
				"element": "C" 
			},
			{
				"x": 0.7507912612,
				"y": 0.8175894573,
				"z": 5.289751312,
				"element": "H" 
			},
			{
				"x": -0.7595705429,
				"y": 1.6123004145,
				"z": 4.7719163589,
				"element": "H" 
			},
			{
				"x": 0.8162141921,
				"y": 2.3922588811,
				"z": 4.4548874476,
				"element": "H" 
			},
			{
				"x": 0.5536302725,
				"y": -0.5022396946,
				"z": 1.0811093526,
				"element": "H" 
			},
			{
				"x": -1.4341461833,
				"y": 2.5321601489,
				"z": -1.2419242974,
				"element": "H" 
			},
			{
				"x": -1.6869251694,
				"y": 3.9018589918,
				"z": 0.7945843951,
				"element": "H" 
			},
			{
				"x": -0.8460662388,
				"y": 3.1053495805,
				"z": 2.9704505687,
				"element": "H" 
			},
			{
				"x": 0.5170554124,
				"y": -3.5963994394,
				"z": -2.0155799633,
				"element": "H" 
			},
			{
				"x": 0.2088032455,
				"y": -3.3628343237,
				"z": -3.7597715711,
				"element": "H" 
			},
			{
				"x": 1.8141705563,
				"y": -2.9919044228,
				"z": -3.0709188092,
				"element": "H" 
			},
			{
				"x": -0.7979573686,
				"y": -0.3086477481,
				"z": -5.3779191836,
				"element": "H" 
			},
			{
				"x": 0.579335975,
				"y": -1.2158460993,
				"z": -5.3152938906,
				"element": "H" 
			},
			{
				"x": -0.9358999623,
				"y": 1.3353173716,
				"z": -3.1767905872,
				"element": "H" 
			}
		],
		 "valence_orbital": [ 
			{
				"type": "occ",
				"energy": -0.27283,
				"method": "rhf"
			},
			{
				"type": "occ",
				"energy": -0.26276,
				"method": "rhf"
			},
			{
				"type": "occ",
				"energy": -0.21845,
				"method": "rhf"
			},
			{
				"type": "occ",
				"energy": -0.20631,
				"method": "rhf"
			},
			{
				"type": "occ",
				"energy": -0.19848,
				"method": "rhf"
			},
			{
				"type": "unocc",
				"energy": -0.00757,
				"method": "rhf"
			},
			{
				"type": "unocc",
				"energy": 0.02249,
				"method": "rhf"
			},
			{
				"type": "unocc",
				"energy": 0.04739,
				"method": "rhf"
			},
			{
				"type": "unocc",
				"energy": 0.06919,
				"method": "rhf"
			},
			{
				"type": "unocc",
				"energy": 0.10193,
				"method": "rhf"
			}
		],
		"cosmo_sigma_profile": { 
			"-0.025": 0.0,
			"-0.024": 0.0,
			"-0.023": 0.0,
			"-0.022": 0.0,
			"-0.021": 0.0,
			"-0.02": 0.0,
			"-0.019": 0.0,
			"-0.018": 0.0,
			"-0.017": 0.0,
			"-0.016": 0.0,
			"-0.015": 0.0,
			"-0.014": 0.0206286103005,
			"-0.013": 1.42671703198,
			"-0.012": 3.02234763683,
			"-0.011": 2.84632092354,
			"-0.01": 3.14718741503,
			"-0.009": 2.62351140195,
			"-0.008": 2.35579022519,
			"-0.007": 4.35257450801,
			"-0.006": 12.555886971,
			"-0.005": 23.9437151327,
			"-0.004": 21.3723206939,
			"-0.003": 26.2852406515,
			"-0.002": 15.0117242024,
			"-0.001": 9.70494523517,
			"0.0": 9.79799534912,
			"0.001": 10.1210634011,
			"0.002": 10.2083198932,
			"0.003": 11.318037085,
			"0.004": 18.5327785362,
			"0.005": 21.6271808274,
			"0.006": 17.6104983429,
			"0.007": 5.44473714583,
			"0.008": 4.58152283846,
			"0.009": 3.82114569286,
			"0.01": 3.32818172542,
			"0.011": 3.42131509922,
			"0.012": 1.34316460999,
			"0.013": 1.94171341345,
			"0.014": 0.977008620944,
			"0.015": 0.000545666587441,
			"0.016": 0.0,
			"0.017": 0.0,
			"0.018": 0.0,
			"0.019": 0.0,
			"0.02": 0.0,
			"0.021": 0.0,
			"0.022": 0.0,
			"0.023": 0.0,
			"0.024": 0.0,
			"0.025": 0.0
		}
	}
}
