{
	 "smiles": "COC1=C(OC)C=C2CN(CCC2=C1)C(N)=O", 
	 "Tm": 472.15, 
	 "num_atms": 33, 
	 "gaussian": { 
		 "optdone": 1, 
		 "sigma_profile": "yes", 
		 "theory": "DFT", 
		 "functional": "B3LYP", 
		 "basiset": "6-31G**", 
		 "properties": { 
			 "R2extent": 5356.8611, 
			 "electric_dipole_moment_norm": 3.41681234194, 
			 "electric_quadrupole_moment_norm": 27.1430865868, 
			 "total_energy": -802.089558002, 
			 "HOMO_LUMO_gap": 0.21801, 
			 "cosmo_polarized_energy": -16.69, 
			 "cosmo_cavitation_energy": 35.06, 
			 "cosmo_dispersion_energy": -25.31, 
			 "cosmo_repulsion_energy": 1.98, 
			 "cosmo_total_nonelectrostatic_energy": 11.73, 
			 "SMD_solvation_energy": 6.85 
		},
		"coords": [
			{
				"x": -3.9004772298,
				"y": -1.3591252785,
				"z": 1.2509453742,
				"element": "C" 
			},
			{
				"x": -2.6164413183,
				"y": -1.0707518821,
				"z": 1.8169507511,
				"element": "O" 
			},
			{
				"x": -1.6447390027,
				"y": -0.7390953539,
				"z": 0.8968871671,
				"element": "C" 
			},
			{
				"x": -1.1090159765,
				"y": -1.6957231801,
				"z": 0.0121904302,
				"element": "C" 
			},
			{
				"x": -1.5740468051,
				"y": -2.9929856053,
				"z": -0.0166096453,
				"element": "O" 
			},
			{
				"x": -1.2411598186,
				"y": -3.7741333954,
				"z": 1.1364783965,
				"element": "C" 
			},
			{
				"x": -0.1177258614,
				"y": -1.3118847907,
				"z": -0.8858281061,
				"element": "C" 
			},
			{
				"x": 0.3665329921,
				"y": 0.0015957159,
				"z": -0.923085599,
				"element": "C" 
			},
			{
				"x": 1.4647201295,
				"y": 0.3533742799,
				"z": -1.9139751447,
				"element": "C" 
			},
			{
				"x": 1.7384311679,
				"y": 1.7857621432,
				"z": -1.9892048872,
				"element": "N" 
			},
			{
				"x": 1.7548546526,
				"y": 2.4568243531,
				"z": -0.6912244619,
				"element": "C" 
			},
			{
				"x": 0.3745880247,
				"y": 2.372485894,
				"z": -0.0283062652,
				"element": "C" 
			},
			{
				"x": -0.1430267765,
				"y": 0.9476610919,
				"z": -0.0210687399,
				"element": "C" 
			},
			{
				"x": -1.1496378095,
				"y": 0.5612605025,
				"z": 0.8736436045,
				"element": "C" 
			},
			{
				"x": 1.5066006279,
				"y": 2.4239755487,
				"z": -3.1967043838,
				"element": "C" 
			},
			{
				"x": 1.698566741,
				"y": 3.8072901048,
				"z": -3.1989910358,
				"element": "N" 
			},
			{
				"x": 1.1434643819,
				"y": 1.8336521126,
				"z": -4.2085864105,
				"element": "O" 
			},
			{
				"x": -3.8502375835,
				"y": -2.2046058004,
				"z": 0.5578178762,
				"element": "H" 
			},
			{
				"x": -4.5558841687,
				"y": -1.6065041279,
				"z": 2.0887468891,
				"element": "H" 
			},
			{
				"x": -4.2991604278,
				"y": -0.4815025086,
				"z": 0.7265057517,
				"element": "H" 
			},
			{
				"x": -1.6757704066,
				"y": -4.762501888,
				"z": 0.9726625634,
				"element": "H" 
			},
			{
				"x": -0.1526923001,
				"y": -3.8707507938,
				"z": 1.2389190733,
				"element": "H" 
			},
			{
				"x": -1.6544616621,
				"y": -3.3346516865,
				"z": 2.0496797567,
				"element": "H" 
			},
			{
				"x": 0.2698701724,
				"y": -2.0650625654,
				"z": -1.5669553267,
				"element": "H" 
			},
			{
				"x": 1.1940801222,
				"y": 0.0288571544,
				"z": -2.9201450167,
				"element": "H" 
			},
			{
				"x": 2.3895809793,
				"y": -0.1739870055,
				"z": -1.6326993008,
				"element": "H" 
			},
			{
				"x": 2.5060160263,
				"y": 1.9621346914,
				"z": -0.0614810132,
				"element": "H" 
			},
			{
				"x": 2.0595212576,
				"y": 3.4980551199,
				"z": -0.7965287919,
				"element": "H" 
			},
			{
				"x": 0.4266675362,
				"y": 2.7624208671,
				"z": 0.9956324131,
				"element": "H" 
			},
			{
				"x": -0.3162848317,
				"y": 3.0244681416,
				"z": -0.5798305964,
				"element": "H" 
			},
			{
				"x": -1.5679201167,
				"y": 1.2767453163,
				"z": 1.5766690055,
				"element": "H" 
			},
			{
				"x": 2.4637631362,
				"y": 4.1740298574,
				"z": -2.6498619409,
				"element": "H" 
			},
			{
				"x": 1.6889241478,
				"y": 4.1579729672,
				"z": -4.1472423867,
				"element": "H" 
			}
		],
		 "valence_orbital": [ 
			{
				"type": "occ",
				"energy": -0.26086,
				"method": "rhf"
			},
			{
				"type": "occ",
				"energy": -0.2484,
				"method": "rhf"
			},
			{
				"type": "occ",
				"energy": -0.23977,
				"method": "rhf"
			},
			{
				"type": "occ",
				"energy": -0.22996,
				"method": "rhf"
			},
			{
				"type": "occ",
				"energy": -0.21991,
				"method": "rhf"
			},
			{
				"type": "unocc",
				"energy": -0.0019,
				"method": "rhf"
			},
			{
				"type": "unocc",
				"energy": 0.00677,
				"method": "rhf"
			},
			{
				"type": "unocc",
				"energy": 0.05434,
				"method": "rhf"
			},
			{
				"type": "unocc",
				"energy": 0.07315,
				"method": "rhf"
			},
			{
				"type": "unocc",
				"energy": 0.09127,
				"method": "rhf"
			}
		],
		"cosmo_sigma_profile": { 
			"-0.025": 0.0,
			"-0.024": 0.0,
			"-0.023": 0.0,
			"-0.022": 0.0,
			"-0.021": 0.0,
			"-0.02": 0.0,
			"-0.019": 0.0,
			"-0.018": 0.0,
			"-0.017": 0.0,
			"-0.016": 0.0,
			"-0.015": 0.0,
			"-0.014": 0.661474609486,
			"-0.013": 1.8140649369,
			"-0.012": 2.50509164932,
			"-0.011": 2.2570187134,
			"-0.01": 2.99001664204,
			"-0.009": 2.34232887532,
			"-0.008": 1.70043894856,
			"-0.007": 2.54762701049,
			"-0.006": 5.27520940938,
			"-0.005": 17.0144122669,
			"-0.004": 29.6654257415,
			"-0.003": 34.4682119667,
			"-0.002": 30.6326821344,
			"-0.001": 19.7457883226,
			"0.0": 18.1682260633,
			"0.001": 13.2908072988,
			"0.002": 12.6246733861,
			"0.003": 14.0169998447,
			"0.004": 12.7936164988,
			"0.005": 13.3122670208,
			"0.006": 4.67196968917,
			"0.007": 4.54071912994,
			"0.008": 3.80421010243,
			"0.009": 3.74605328128,
			"0.01": 4.0290268848,
			"0.011": 3.07430045615,
			"0.012": 3.92445881266,
			"0.013": 2.32237647807,
			"0.014": 5.15570159863,
			"0.015": 2.7683155233,
			"0.016": 0.00798310898606,
			"0.017": 0.0,
			"0.018": 0.0,
			"0.019": 0.0,
			"0.02": 0.0,
			"0.021": 0.0,
			"0.022": 0.0,
			"0.023": 0.0,
			"0.024": 0.0,
			"0.025": 0.0
		}
	}
}
