{
	 "smiles": "CC1=CC=C(N=C=S)C(=C1)[N+]([O-])=O", 
	 "Tm": 338.15, 
	 "num_atms": 19, 
	 "gaussian": { 
		 "optdone": 1, 
		 "sigma_profile": "yes", 
		 "theory": "DFT", 
		 "functional": "B3LYP", 
		 "basiset": "6-31G**", 
		 "properties": { 
			 "R2extent": 3755.9681, 
			 "electric_dipole_moment_norm": 6.19471601448, 
			 "electric_quadrupole_moment_norm": 8.32021346781, 
			 "total_energy": -966.497277919, 
			 "HOMO_LUMO_gap": 0.14521, 
			 "cosmo_polarized_energy": -10.21, 
			 "cosmo_cavitation_energy": 27.42, 
			 "cosmo_dispersion_energy": -20.05, 
			 "cosmo_repulsion_energy": 1.56, 
			 "cosmo_total_nonelectrostatic_energy": 8.93, 
			 "SMD_solvation_energy": 7.5 
		},
		"coords": [
			{
				"x": -3.3910507578,
				"y": -0.2446659137,
				"z": -0.1957865921,
				"element": "C" 
			},
			{
				"x": -1.88637023,
				"y": -0.3560572799,
				"z": -0.1975017894,
				"element": "C" 
			},
			{
				"x": -1.1812672465,
				"y": -0.6438046582,
				"z": 0.9841135065,
				"element": "C" 
			},
			{
				"x": 0.201330089,
				"y": -0.7441810393,
				"z": 0.9958132874,
				"element": "C" 
			},
			{
				"x": 0.9533278432,
				"y": -0.5546704288,
				"z": -0.180948842,
				"element": "C" 
			},
			{
				"x": 2.3141281484,
				"y": -0.6729078663,
				"z": -0.1332666794,
				"element": "N" 
			},
			{
				"x": 3.3629293621,
				"y": -0.854178382,
				"z": 0.4106278702,
				"element": "C" 
			},
			{
				"x": 4.7991018674,
				"y": -1.0823597711,
				"z": 1.0406496455,
				"element": "S" 
			},
			{
				"x": 0.245479181,
				"y": -0.2669028023,
				"z": -1.3663388571,
				"element": "C" 
			},
			{
				"x": -1.1475724953,
				"y": -0.1747088608,
				"z": -1.364916916,
				"element": "C" 
			},
			{
				"x": 0.9314336442,
				"y": -0.0485162291,
				"z": -2.6499276099,
				"element": "N" 
			},
			{
				"x": 0.2261362025,
				"y": 0.0348161364,
				"z": -3.6569429828,
				"element": "O" 
			},
			{
				"x": 2.1562441362,
				"y": 0.0444749386,
				"z": -2.6473611367,
				"element": "O" 
			},
			{
				"x": -3.855125781,
				"y": -1.1578997215,
				"z": 0.1926634032,
				"element": "H" 
			},
			{
				"x": -3.7252687138,
				"y": 0.5830817229,
				"z": 0.4401034527,
				"element": "H" 
			},
			{
				"x": -3.7790567438,
				"y": -0.0715943284,
				"z": -1.2022754607,
				"element": "H" 
			},
			{
				"x": -1.7273736078,
				"y": -0.793739097,
				"z": 1.9117679043,
				"element": "H" 
			},
			{
				"x": 0.7335398553,
				"y": -0.9724483719,
				"z": 1.9130130018,
				"element": "H" 
			},
			{
				"x": -1.6350647531,
				"y": 0.0429619526,
				"z": -2.3071852055,
				"element": "H" 
			}
		],
		 "valence_orbital": [ 
			{
				"type": "occ",
				"energy": -0.30266,
				"method": "rhf"
			},
			{
				"type": "occ",
				"energy": -0.29904,
				"method": "rhf"
			},
			{
				"type": "occ",
				"energy": -0.2921,
				"method": "rhf"
			},
			{
				"type": "occ",
				"energy": -0.26141,
				"method": "rhf"
			},
			{
				"type": "occ",
				"energy": -0.24458,
				"method": "rhf"
			},
			{
				"type": "unocc",
				"energy": -0.09937,
				"method": "rhf"
			},
			{
				"type": "unocc",
				"energy": -0.05591,
				"method": "rhf"
			},
			{
				"type": "unocc",
				"energy": -0.02118,
				"method": "rhf"
			},
			{
				"type": "unocc",
				"energy": -0.01369,
				"method": "rhf"
			},
			{
				"type": "unocc",
				"energy": 0.02887,
				"method": "rhf"
			}
		],
		"cosmo_sigma_profile": { 
			"-0.025": 0.0,
			"-0.024": 0.0,
			"-0.023": 0.0,
			"-0.022": 0.0,
			"-0.021": 0.0,
			"-0.02": 0.0,
			"-0.019": 0.0,
			"-0.018": 0.0,
			"-0.017": 0.0,
			"-0.016": 0.0,
			"-0.015": 0.0,
			"-0.014": 0.0,
			"-0.013": 0.0,
			"-0.012": 0.0,
			"-0.011": 0.0,
			"-0.01": 0.0,
			"-0.009": 0.390391357018,
			"-0.008": 3.55814346385,
			"-0.007": 9.0608757215,
			"-0.006": 9.47289292738,
			"-0.005": 13.7592974477,
			"-0.004": 14.9340993489,
			"-0.003": 15.548456651,
			"-0.002": 21.3108546692,
			"-0.001": 23.7003909427,
			"0.0": 21.0991531159,
			"0.001": 18.1082100558,
			"0.002": 9.76686654974,
			"0.003": 10.2272455618,
			"0.004": 13.7500469988,
			"0.005": 13.0949102013,
			"0.006": 5.23422179577,
			"0.007": 8.00035864447,
			"0.008": 6.7693472225,
			"0.009": 4.36052331815,
			"0.01": 2.17080235829,
			"0.011": 0.0339633461653,
			"0.012": 0.0,
			"0.013": 0.0,
			"0.014": 0.0,
			"0.015": 0.0,
			"0.016": 0.0,
			"0.017": 0.0,
			"0.018": 0.0,
			"0.019": 0.0,
			"0.02": 0.0,
			"0.021": 0.0,
			"0.022": 0.0,
			"0.023": 0.0,
			"0.024": 0.0,
			"0.025": 0.0
		}
	}
}
