{
	 "smiles": "CN(C(=O)OC(C)(C)C)C1=CC=C(C=C1)C(N)=N", 
	 "Tm": 416.15, 
	 "num_atms": 37, 
	 "gaussian": { 
		 "optdone": 1, 
		 "sigma_profile": "yes", 
		 "theory": "DFT", 
		 "functional": "B3LYP", 
		 "basiset": "6-31G**", 
		 "properties": { 
			 "R2extent": 6106.1809, 
			 "electric_dipole_moment_norm": 3.62999109365, 
			 "electric_quadrupole_moment_norm": 12.9970625658, 
			 "total_energy": -821.570022334, 
			 "HOMO_LUMO_gap": 0.188, 
			 "cosmo_polarized_energy": -17.59, 
			 "cosmo_cavitation_energy": 39.39, 
			 "cosmo_dispersion_energy": -27.01, 
			 "cosmo_repulsion_energy": 2.11, 
			 "cosmo_total_nonelectrostatic_energy": 14.49, 
			 "SMD_solvation_energy": 7.02 
		},
		"coords": [
			{
				"x": 1.8689687227,
				"y": 2.9226460744,
				"z": 0.6654952377,
				"element": "C" 
			},
			{
				"x": 1.2244036556,
				"y": 1.7884310393,
				"z": -0.0033879404,
				"element": "N" 
			},
			{
				"x": 0.9439667749,
				"y": 1.9617881134,
				"z": -1.3497297998,
				"element": "C" 
			},
			{
				"x": 1.297867957,
				"y": 2.9532860515,
				"z": -1.969747137,
				"element": "O" 
			},
			{
				"x": 0.2452405229,
				"y": 0.9258247328,
				"z": -1.8572571127,
				"element": "O" 
			},
			{
				"x": -0.1920145871,
				"y": 0.9285299158,
				"z": -3.264491369,
				"element": "C" 
			},
			{
				"x": -1.138227782,
				"y": 2.1069745808,
				"z": -3.5177422671,
				"element": "C" 
			},
			{
				"x": -0.9422438664,
				"y": -0.4013314889,
				"z": -3.3776143069,
				"element": "C" 
			},
			{
				"x": 1.0246520783,
				"y": 0.9480080362,
				"z": -4.1956308458,
				"element": "C" 
			},
			{
				"x": 0.7799527342,
				"y": 0.6922383126,
				"z": 0.7907985076,
				"element": "C" 
			},
			{
				"x": 0.1946897508,
				"y": 0.9370512704,
				"z": 2.0433223375,
				"element": "C" 
			},
			{
				"x": -0.1970101456,
				"y": -0.11634558,
				"z": 2.8617301589,
				"element": "C" 
			},
			{
				"x": -0.0271030104,
				"y": -1.4451296473,
				"z": 2.4521193482,
				"element": "C" 
			},
			{
				"x": 0.5714697285,
				"y": -1.6856312536,
				"z": 1.2061730529,
				"element": "C" 
			},
			{
				"x": 0.9785551987,
				"y": -0.6356308408,
				"z": 0.3885268195,
				"element": "C" 
			},
			{
				"x": -0.4689534911,
				"y": -2.5481922437,
				"z": 3.355124455,
				"element": "C" 
			},
			{
				"x": -0.6366085213,
				"y": -3.786406827,
				"z": 2.7362952078,
				"element": "N" 
			},
			{
				"x": -0.6166018585,
				"y": -2.3070435299,
				"z": 4.608057531,
				"element": "N" 
			},
			{
				"x": 2.5373663512,
				"y": 3.409061441,
				"z": -0.0435581626,
				"element": "H" 
			},
			{
				"x": 2.4378284793,
				"y": 2.5524109768,
				"z": 1.520034984,
				"element": "H" 
			},
			{
				"x": 1.1424762182,
				"y": 3.6672576798,
				"z": 1.0134781612,
				"element": "H" 
			},
			{
				"x": -0.6145894991,
				"y": 3.0579074761,
				"z": -3.419572269,
				"element": "H" 
			},
			{
				"x": -1.9712320662,
				"y": 2.0838527401,
				"z": -2.8080046607,
				"element": "H" 
			},
			{
				"x": -1.5516418251,
				"y": 2.0331664138,
				"z": -4.5288747476,
				"element": "H" 
			},
			{
				"x": -0.2758528392,
				"y": -1.2420633635,
				"z": -3.1634151961,
				"element": "H" 
			},
			{
				"x": -1.3378063796,
				"y": -0.5231922394,
				"z": -4.3903332941,
				"element": "H" 
			},
			{
				"x": -1.7766747149,
				"y": -0.434601212,
				"z": -2.6714175962,
				"element": "H" 
			},
			{
				"x": 1.6979930269,
				"y": 0.117636554,
				"z": -3.9595577527,
				"element": "H" 
			},
			{
				"x": 0.6936624404,
				"y": 0.8305825575,
				"z": -5.2326924769,
				"element": "H" 
			},
			{
				"x": 1.5727087569,
				"y": 1.8856368364,
				"z": -4.1035576204,
				"element": "H" 
			},
			{
				"x": 0.0345457408,
				"y": 1.958219495,
				"z": 2.3732197677,
				"element": "H" 
			},
			{
				"x": -0.6477983685,
				"y": 0.0704213267,
				"z": 3.8300135105,
				"element": "H" 
			},
			{
				"x": 0.7704588622,
				"y": -2.7041879007,
				"z": 0.887062268,
				"element": "H" 
			},
			{
				"x": 1.4593277767,
				"y": -0.8402531422,
				"z": -0.5596126223,
				"element": "H" 
			},
			{
				"x": -0.9646554492,
				"y": -3.7676829231,
				"z": 1.7802374302,
				"element": "H" 
			},
			{
				"x": -1.0956820877,
				"y": -4.491075616,
				"z": 3.2976776956,
				"element": "H" 
			},
			{
				"x": -0.9518382844,
				"y": -3.1350638164,
				"z": 5.107830704,
				"element": "H" 
			}
		],
		 "valence_orbital": [ 
			{
				"type": "occ",
				"energy": -0.26553,
				"method": "rhf"
			},
			{
				"type": "occ",
				"energy": -0.26086,
				"method": "rhf"
			},
			{
				"type": "occ",
				"energy": -0.25379,
				"method": "rhf"
			},
			{
				"type": "occ",
				"energy": -0.24253,
				"method": "rhf"
			},
			{
				"type": "occ",
				"energy": -0.21581,
				"method": "rhf"
			},
			{
				"type": "unocc",
				"energy": -0.02781,
				"method": "rhf"
			},
			{
				"type": "unocc",
				"energy": -0.00327,
				"method": "rhf"
			},
			{
				"type": "unocc",
				"energy": 0.0455,
				"method": "rhf"
			},
			{
				"type": "unocc",
				"energy": 0.06592,
				"method": "rhf"
			},
			{
				"type": "unocc",
				"energy": 0.07696,
				"method": "rhf"
			}
		],
		"cosmo_sigma_profile": { 
			"-0.025": 0.0,
			"-0.024": 0.0,
			"-0.023": 0.0,
			"-0.022": 0.0,
			"-0.021": 0.0,
			"-0.02": 0.0,
			"-0.019": 0.0,
			"-0.018": 0.0,
			"-0.017": 0.0,
			"-0.016": 0.0,
			"-0.015": 0.0,
			"-0.014": 0.150811481192,
			"-0.013": 2.56070729768,
			"-0.012": 3.22150358401,
			"-0.011": 3.14946349855,
			"-0.01": 3.41735124906,
			"-0.009": 3.11066599459,
			"-0.008": 3.69925852732,
			"-0.007": 3.80127994409,
			"-0.006": 7.05282346125,
			"-0.005": 12.9458899374,
			"-0.004": 25.4556811046,
			"-0.003": 29.438762124,
			"-0.002": 30.0440354537,
			"-0.001": 27.4172762882,
			"0.0": 32.4799796359,
			"0.001": 26.8731544072,
			"0.002": 14.4665373534,
			"0.003": 12.6284045537,
			"0.004": 15.6388518064,
			"0.005": 11.4606634428,
			"0.006": 6.24290655409,
			"0.007": 5.64398578429,
			"0.008": 4.51167734403,
			"0.009": 3.96235469665,
			"0.01": 4.01074207995,
			"0.011": 3.52510390851,
			"0.012": 3.50848450984,
			"0.013": 3.84948863118,
			"0.014": 1.52241712346,
			"0.015": 1.28116907648,
			"0.016": 0.462594816584,
			"0.017": 1.13105381314,
			"0.018": 0.600320902773,
			"0.019": 0.0,
			"0.02": 0.0,
			"0.021": 0.0,
			"0.022": 0.0,
			"0.023": 0.0,
			"0.024": 0.0,
			"0.025": 0.0
		}
	}
}
