{
	 "smiles": "OC(=O)C1CCCN1C(=O)C1CCCC1", 
	 "Tm": 399.15, 
	 "num_atms": 32, 
	 "gaussian": { 
		 "optdone": 1, 
		 "sigma_profile": "yes", 
		 "theory": "DFT", 
		 "functional": "B3LYP", 
		 "basiset": "6-31G**", 
		 "properties": { 
			 "R2extent": 4103.4919, 
			 "electric_dipole_moment_norm": 4.85064567352, 
			 "electric_quadrupole_moment_norm": 17.0604781014, 
			 "total_energy": -709.87596942, 
			 "HOMO_LUMO_gap": 0.25232, 
			 "cosmo_polarized_energy": -16.25, 
			 "cosmo_cavitation_energy": 32.78, 
			 "cosmo_dispersion_energy": -23.2, 
			 "cosmo_repulsion_energy": 1.85, 
			 "cosmo_total_nonelectrostatic_energy": 11.43, 
			 "SMD_solvation_energy": 5.64 
		},
		"coords": [
			{
				"x": -1.4441469283,
				"y": 1.563980733,
				"z": -2.5500862993,
				"element": "O" 
			},
			{
				"x": -2.5189982665,
				"y": 0.7397820749,
				"z": -2.6130516551,
				"element": "C" 
			},
			{
				"x": -3.1025002428,
				"y": 0.4939704479,
				"z": -3.6427368945,
				"element": "O" 
			},
			{
				"x": -2.9787264649,
				"y": 0.2708275284,
				"z": -1.2381168731,
				"element": "C" 
			},
			{
				"x": -3.8341158299,
				"y": 1.3571220652,
				"z": -0.5383212245,
				"element": "C" 
			},
			{
				"x": -3.5131398224,
				"y": 1.1713238785,
				"z": 0.9524595643,
				"element": "C" 
			},
			{
				"x": -2.0235110896,
				"y": 0.8039193382,
				"z": 0.9446546674,
				"element": "C" 
			},
			{
				"x": -1.8863533681,
				"y": 0.0248621308,
				"z": -0.2915998288,
				"element": "N" 
			},
			{
				"x": -0.8738911057,
				"y": -0.8197798387,
				"z": -0.6640395132,
				"element": "C" 
			},
			{
				"x": -0.92588882,
				"y": -1.3907199236,
				"z": -1.753540809,
				"element": "O" 
			},
			{
				"x": 0.3249696312,
				"y": -0.9485368849,
				"z": 0.2749458248,
				"element": "C" 
			},
			{
				"x": 1.3555072342,
				"y": 0.1936425491,
				"z": -0.0405379162,
				"element": "C" 
			},
			{
				"x": 2.4797144766,
				"y": -0.5028311867,
				"z": -0.8252622106,
				"element": "C" 
			},
			{
				"x": 2.5738939592,
				"y": -1.8802850353,
				"z": -0.1541524388,
				"element": "C" 
			},
			{
				"x": 1.0985949099,
				"y": -2.278414113,
				"z": 0.0514074076,
				"element": "C" 
			},
			{
				"x": -1.2509091408,
				"y": 1.813786937,
				"z": -3.4689142748,
				"element": "H" 
			},
			{
				"x": -3.5489791593,
				"y": -0.6461480119,
				"z": -1.4153241155,
				"element": "H" 
			},
			{
				"x": -4.8945947538,
				"y": 1.2525589438,
				"z": -0.776413708,
				"element": "H" 
			},
			{
				"x": -3.5105470945,
				"y": 2.3503592628,
				"z": -0.8675397043,
				"element": "H" 
			},
			{
				"x": -4.0966299804,
				"y": 0.3418780589,
				"z": 1.3669421366,
				"element": "H" 
			},
			{
				"x": -3.7219662788,
				"y": 2.0631528868,
				"z": 1.5493901516,
				"element": "H" 
			},
			{
				"x": -1.7369568516,
				"y": 0.2154686124,
				"z": 1.8198168791,
				"element": "H" 
			},
			{
				"x": -1.3930363682,
				"y": 1.7040509765,
				"z": 0.9200631281,
				"element": "H" 
			},
			{
				"x": -0.0099085009,
				"y": -0.8632172704,
				"z": 1.3120696637,
				"element": "H" 
			},
			{
				"x": 0.9034141631,
				"y": 1.0261040596,
				"z": -0.5887736724,
				"element": "H" 
			},
			{
				"x": 1.7500359632,
				"y": 0.5957571466,
				"z": 0.8999072727,
				"element": "H" 
			},
			{
				"x": 2.1796546605,
				"y": -0.6221220489,
				"z": -1.8730499634,
				"element": "H" 
			},
			{
				"x": 3.4190267044,
				"y": 0.0597340091,
				"z": -0.8076169985,
				"element": "H" 
			},
			{
				"x": 3.0878864112,
				"y": -1.7872824637,
				"z": 0.8118059816,
				"element": "H" 
			},
			{
				"x": 3.1279151619,
				"y": -2.6143088552,
				"z": -0.7479329445,
				"element": "H" 
			},
			{
				"x": 0.709542836,
				"y": -2.7516996226,
				"z": -0.8540012939,
				"element": "H" 
			},
			{
				"x": 0.9595439549,
				"y": -2.9761363846,
				"z": 0.8828496609,
				"element": "H" 
			}
		],
		 "valence_orbital": [ 
			{
				"type": "occ",
				"energy": -0.31576,
				"method": "rhf"
			},
			{
				"type": "occ",
				"energy": -0.3113,
				"method": "rhf"
			},
			{
				"type": "occ",
				"energy": -0.27358,
				"method": "rhf"
			},
			{
				"type": "occ",
				"energy": -0.24372,
				"method": "rhf"
			},
			{
				"type": "occ",
				"energy": -0.23881,
				"method": "rhf"
			},
			{
				"type": "unocc",
				"energy": 0.01351,
				"method": "rhf"
			},
			{
				"type": "unocc",
				"energy": 0.02682,
				"method": "rhf"
			},
			{
				"type": "unocc",
				"energy": 0.06379,
				"method": "rhf"
			},
			{
				"type": "unocc",
				"energy": 0.07798,
				"method": "rhf"
			},
			{
				"type": "unocc",
				"energy": 0.09484,
				"method": "rhf"
			}
		],
		"cosmo_sigma_profile": { 
			"-0.025": 0.0,
			"-0.024": 0.0,
			"-0.023": 0.0,
			"-0.022": 0.0,
			"-0.021": 0.0,
			"-0.02": 0.0,
			"-0.019": 0.0,
			"-0.018": 0.569992638545,
			"-0.017": 0.949692021046,
			"-0.016": 0.890168902126,
			"-0.015": 1.02172406376,
			"-0.014": 0.608824921994,
			"-0.013": 0.47409551585,
			"-0.012": 0.606636968978,
			"-0.011": 0.637316756307,
			"-0.01": 1.2645801902,
			"-0.009": 0.389387049349,
			"-0.008": 0.496174922547,
			"-0.007": 1.53469267238,
			"-0.006": 5.63709452206,
			"-0.005": 11.3049051628,
			"-0.004": 23.8476314953,
			"-0.003": 29.0371155917,
			"-0.002": 35.0017790778,
			"-0.001": 30.3709392943,
			"0.0": 24.0931784877,
			"0.001": 22.6652497555,
			"0.002": 8.84197818071,
			"0.003": 5.02090601184,
			"0.004": 6.21142747499,
			"0.005": 3.66239196155,
			"0.006": 4.12674994902,
			"0.007": 4.30635361276,
			"0.008": 3.48194974448,
			"0.009": 4.75548382006,
			"0.01": 3.67835354573,
			"0.011": 5.53869149634,
			"0.012": 6.84895673126,
			"0.013": 3.23146468579,
			"0.014": 2.99866616379,
			"0.015": 0.266362619404,
			"0.016": 0.0,
			"0.017": 0.0,
			"0.018": 0.0,
			"0.019": 0.0,
			"0.02": 0.0,
			"0.021": 0.0,
			"0.022": 0.0,
			"0.023": 0.0,
			"0.024": 0.0,
			"0.025": 0.0
		}
	}
}
