{
	 "smiles": "COC1=C(OC)C=C(C(O)=O)C(NC(=O)C2=CC=CC=C2)=C1", 
	 "Tm": 290.15, 
	 "num_atms": 37, 
	 "gaussian": { 
		 "optdone": 1, 
		 "sigma_profile": "yes", 
		 "theory": "DFT", 
		 "functional": "B3LYP", 
		 "basiset": "6-31G**", 
		 "properties": { 
			 "R2extent": 8024.5921, 
			 "electric_dipole_moment_norm": 4.11016912547, 
			 "electric_quadrupole_moment_norm": 13.3291672583, 
			 "total_energy": -1049.61306573, 
			 "HOMO_LUMO_gap": 0.15865, 
			 "cosmo_polarized_energy": -18.07, 
			 "cosmo_cavitation_energy": 41.62, 
			 "cosmo_dispersion_energy": -28.42, 
			 "cosmo_repulsion_energy": 2.19, 
			 "cosmo_total_nonelectrostatic_energy": 15.39, 
			 "SMD_solvation_energy": 10.4 
		},
		"coords": [
			{
				"x": 0.3859454956,
				"y": -1.9217737758,
				"z": -2.2864864755,
				"element": "C" 
			},
			{
				"x": 0.9279984135,
				"y": -2.1132280558,
				"z": -0.9738323002,
				"element": "O" 
			},
			{
				"x": 0.9757085003,
				"y": -1.0200202959,
				"z": -0.1576631377,
				"element": "C" 
			},
			{
				"x": 1.7784589857,
				"y": 0.1109514785,
				"z": -0.451641486,
				"element": "C" 
			},
			{
				"x": 2.463876666,
				"y": 0.0854501264,
				"z": -1.6321593321,
				"element": "O" 
			},
			{
				"x": 3.3210689472,
				"y": 1.1805903807,
				"z": -1.9247357855,
				"element": "C" 
			},
			{
				"x": 1.840956187,
				"y": 1.1328050773,
				"z": 0.4815458612,
				"element": "C" 
			},
			{
				"x": 1.1308532514,
				"y": 1.0843890489,
				"z": 1.6995440268,
				"element": "C" 
			},
			{
				"x": 1.348631401,
				"y": 2.2598387666,
				"z": 2.5769416745,
				"element": "C" 
			},
			{
				"x": 0.8495020449,
				"y": 2.1327558343,
				"z": 3.8395385783,
				"element": "O" 
			},
			{
				"x": 1.9427580692,
				"y": 3.2692224871,
				"z": 2.2469829335,
				"element": "O" 
			},
			{
				"x": 0.3169820528,
				"y": -0.0390599041,
				"z": 1.9854297452,
				"element": "C" 
			},
			{
				"x": -0.4101205723,
				"y": -0.1386041195,
				"z": 3.1823479377,
				"element": "N" 
			},
			{
				"x": -1.5311133086,
				"y": -0.8846200211,
				"z": 3.524311716,
				"element": "C" 
			},
			{
				"x": -1.7414067475,
				"y": -1.1367275664,
				"z": 4.7050200892,
				"element": "O" 
			},
			{
				"x": -2.5175977884,
				"y": -1.2872078847,
				"z": 2.468650409,
				"element": "C" 
			},
			{
				"x": -2.8446451468,
				"y": -0.4602928392,
				"z": 1.3843665787,
				"element": "C" 
			},
			{
				"x": -3.8505036732,
				"y": -0.8374299987,
				"z": 0.4952859558,
				"element": "C" 
			},
			{
				"x": -4.5271253687,
				"y": -2.0464492972,
				"z": 0.6734838509,
				"element": "C" 
			},
			{
				"x": -4.2105860243,
				"y": -2.8696507582,
				"z": 1.7570115851,
				"element": "C" 
			},
			{
				"x": -3.2215284336,
				"y": -2.4839874068,
				"z": 2.6596183863,
				"element": "C" 
			},
			{
				"x": 0.2801413639,
				"y": -1.0805679452,
				"z": 1.0421702609,
				"element": "C" 
			},
			{
				"x": 0.3952963665,
				"y": -2.9060550523,
				"z": -2.7578212045,
				"element": "H" 
			},
			{
				"x": -0.6482936008,
				"y": -1.560504597,
				"z": -2.2264077837,
				"element": "H" 
			},
			{
				"x": 0.9882855181,
				"y": -1.2246438938,
				"z": -2.8733808635,
				"element": "H" 
			},
			{
				"x": 2.763339056,
				"y": 2.12282371,
				"z": -1.9961961086,
				"element": "H" 
			},
			{
				"x": 4.1081888806,
				"y": 1.2864614601,
				"z": -1.1680340202,
				"element": "H" 
			},
			{
				"x": 3.7759278089,
				"y": 0.9553227543,
				"z": -2.8902159501,
				"element": "H" 
			},
			{
				"x": 2.451563546,
				"y": 2.0105140492,
				"z": 0.3148657123,
				"element": "H" 
			},
			{
				"x": 1.0736490633,
				"y": 2.9609295723,
				"z": 4.2955252488,
				"element": "H" 
			},
			{
				"x": -0.0052434161,
				"y": 0.3257860024,
				"z": 3.9859900817,
				"element": "H" 
			},
			{
				"x": -2.325466081,
				"y": 0.4822755257,
				"z": 1.2460931106,
				"element": "H" 
			},
			{
				"x": -4.1091597984,
				"y": -0.1856704349,
				"z": -0.3342521319,
				"element": "H" 
			},
			{
				"x": -5.3049702918,
				"y": -2.3417022269,
				"z": -0.0250103941,
				"element": "H" 
			},
			{
				"x": -4.7418809841,
				"y": -3.8054188564,
				"z": 1.903940856,
				"element": "H" 
			},
			{
				"x": -2.9851340503,
				"y": -3.0941623866,
				"z": 3.5250085139,
				"element": "H" 
			},
			{
				"x": -0.2912563322,
				"y": -1.9785389575,
				"z": 1.2364638613,
				"element": "H" 
			}
		],
		 "valence_orbital": [ 
			{
				"type": "occ",
				"energy": -0.26608,
				"method": "rhf"
			},
			{
				"type": "occ",
				"energy": -0.26069,
				"method": "rhf"
			},
			{
				"type": "occ",
				"energy": -0.2469,
				"method": "rhf"
			},
			{
				"type": "occ",
				"energy": -0.24502,
				"method": "rhf"
			},
			{
				"type": "occ",
				"energy": -0.21203,
				"method": "rhf"
			},
			{
				"type": "unocc",
				"energy": -0.05338,
				"method": "rhf"
			},
			{
				"type": "unocc",
				"energy": -0.03691,
				"method": "rhf"
			},
			{
				"type": "unocc",
				"energy": -0.00824,
				"method": "rhf"
			},
			{
				"type": "unocc",
				"energy": -9e-05,
				"method": "rhf"
			},
			{
				"type": "unocc",
				"energy": 0.05372,
				"method": "rhf"
			}
		],
		"cosmo_sigma_profile": { 
			"-0.025": 0.0,
			"-0.024": 0.0,
			"-0.023": 0.0,
			"-0.022": 0.0,
			"-0.021": 0.0,
			"-0.02": 0.0,
			"-0.019": 0.122756798454,
			"-0.018": 1.06698812297,
			"-0.017": 0.725973360822,
			"-0.016": 0.770037859017,
			"-0.015": 0.906705055067,
			"-0.014": 0.556809153865,
			"-0.013": 0.928191716099,
			"-0.012": 0.423714643125,
			"-0.011": 0.897737469375,
			"-0.01": 0.695384045301,
			"-0.009": 0.298701924036,
			"-0.008": 1.39444357189,
			"-0.007": 3.67246639695,
			"-0.006": 20.6419282694,
			"-0.005": 27.0365311541,
			"-0.004": 29.1793831636,
			"-0.003": 32.0430138413,
			"-0.002": 26.5453330862,
			"-0.001": 21.5117433068,
			"0.0": 21.7641029258,
			"0.001": 23.8560074781,
			"0.002": 27.5473187669,
			"0.003": 19.8693829982,
			"0.004": 15.9985487954,
			"0.005": 8.28598917231,
			"0.006": 5.14371767725,
			"0.007": 4.83072407078,
			"0.008": 4.59124266136,
			"0.009": 5.68230025661,
			"0.01": 5.80577637701,
			"0.011": 7.09242879863,
			"0.012": 6.5261962635,
			"0.013": 5.02690002771,
			"0.014": 0.720820634114,
			"0.015": 0.0,
			"0.016": 0.0,
			"0.017": 0.0,
			"0.018": 0.0,
			"0.019": 0.0,
			"0.02": 0.0,
			"0.021": 0.0,
			"0.022": 0.0,
			"0.023": 0.0,
			"0.024": 0.0,
			"0.025": 0.0
		}
	}
}
