{
	 "smiles": "CNC1=CC=C2C=C3C=CC(=CC3=NC2=C1CO)N(C)S(C)(=O)=O", 
	 "Tm": 423.15, 
	 "num_atms": 43, 
	 "gaussian": { 
		 "optdone": 1, 
		 "sigma_profile": "yes", 
		 "theory": "DFT", 
		 "functional": "B3LYP", 
		 "basiset": "6-31G**", 
		 "properties": { 
			 "R2extent": 11950.2007, 
			 "electric_dipole_moment_norm": 6.41994798577, 
			 "electric_quadrupole_moment_norm": 18.0534386472, 
			 "total_energy": -1447.30488697, 
			 "HOMO_LUMO_gap": 0.1204, 
			 "cosmo_polarized_energy": -21.93, 
			 "cosmo_cavitation_energy": 46.25, 
			 "cosmo_dispersion_energy": -33.19, 
			 "cosmo_repulsion_energy": 2.44, 
			 "cosmo_total_nonelectrostatic_energy": 15.5, 
			 "SMD_solvation_energy": 5.6 
		},
		"coords": [
			{
				"x": 0.7794302426,
				"y": -1.8409732222,
				"z": -5.6879316363,
				"element": "C" 
			},
			{
				"x": 1.9996777804,
				"y": -1.9373941683,
				"z": -4.8873573555,
				"element": "N" 
			},
			{
				"x": 2.0735089646,
				"y": -1.6332361231,
				"z": -3.5399951906,
				"element": "C" 
			},
			{
				"x": 2.9437732811,
				"y": -2.4601171299,
				"z": -2.7383571271,
				"element": "C" 
			},
			{
				"x": 3.0405234999,
				"y": -2.3078898688,
				"z": -1.388865599,
				"element": "C" 
			},
			{
				"x": 2.2468252193,
				"y": -1.3294044752,
				"z": -0.7139175419,
				"element": "C" 
			},
			{
				"x": 2.2421289321,
				"y": -1.167242516,
				"z": 0.6679654873,
				"element": "C" 
			},
			{
				"x": 1.4195182457,
				"y": -0.2006419296,
				"z": 1.2649820921,
				"element": "C" 
			},
			{
				"x": 1.357188758,
				"y": 0.0195868743,
				"z": 2.6723110625,
				"element": "C" 
			},
			{
				"x": 0.5255965928,
				"y": 0.9709678102,
				"z": 3.2025351964,
				"element": "C" 
			},
			{
				"x": -0.2987839059,
				"y": 1.7577577338,
				"z": 2.3391406854,
				"element": "C" 
			},
			{
				"x": -0.2665607506,
				"y": 1.5708079039,
				"z": 0.9774351733,
				"element": "C" 
			},
			{
				"x": 0.591658291,
				"y": 0.5914734136,
				"z": 0.3920009884,
				"element": "C" 
			},
			{
				"x": 0.5890216776,
				"y": 0.4483968217,
				"z": -0.9468721413,
				"element": "N" 
			},
			{
				"x": 1.3960568776,
				"y": -0.4729717404,
				"z": -1.5097650381,
				"element": "C" 
			},
			{
				"x": 1.3845550236,
				"y": -0.5819688517,
				"z": -2.9392796463,
				"element": "C" 
			},
			{
				"x": 0.6302093831,
				"y": 0.4932290817,
				"z": -3.6925808637,
				"element": "C" 
			},
			{
				"x": -0.7877594462,
				"y": 0.3635650828,
				"z": -3.6080770228,
				"element": "O" 
			},
			{
				"x": -1.14791924,
				"y": 2.8012457451,
				"z": 2.864864936,
				"element": "N" 
			},
			{
				"x": -0.4403947735,
				"y": 3.9907076768,
				"z": 3.3776446356,
				"element": "C" 
			},
			{
				"x": -2.4891385264,
				"y": 2.2903964866,
				"z": 3.7983966086,
				"element": "S" 
			},
			{
				"x": -3.5936639711,
				"y": 1.6964711974,
				"z": 2.5081276083,
				"element": "C" 
			},
			{
				"x": -2.1516629811,
				"y": 1.1448785478,
				"z": 4.6539086721,
				"element": "O" 
			},
			{
				"x": -3.0581614563,
				"y": 3.5046352924,
				"z": 4.3911549665,
				"element": "O" 
			},
			{
				"x": 0.5878258621,
				"y": -2.8001991191,
				"z": -6.1814921744,
				"element": "H" 
			},
			{
				"x": 0.8521681018,
				"y": -1.0713190961,
				"z": -6.4656533839,
				"element": "H" 
			},
			{
				"x": -0.0762232254,
				"y": -1.6043310546,
				"z": -5.0512262382,
				"element": "H" 
			},
			{
				"x": 2.6167400561,
				"y": -2.6846220935,
				"z": -5.1678977919,
				"element": "H" 
			},
			{
				"x": 3.5186921334,
				"y": -3.2366721495,
				"z": -3.2383256724,
				"element": "H" 
			},
			{
				"x": 3.6986496616,
				"y": -2.9475484249,
				"z": -0.8068983507,
				"element": "H" 
			},
			{
				"x": 2.8747535733,
				"y": -1.7974995148,
				"z": 1.2899302813,
				"element": "H" 
			},
			{
				"x": 1.9797082075,
				"y": -0.5884174013,
				"z": 3.3236510227,
				"element": "H" 
			},
			{
				"x": 0.4598506684,
				"y": 1.1204882006,
				"z": 4.2737111979,
				"element": "H" 
			},
			{
				"x": -0.8815658292,
				"y": 2.1774667478,
				"z": 0.3214647178,
				"element": "H" 
			},
			{
				"x": 0.8868384797,
				"y": 0.4848395606,
				"z": -4.7522575446,
				"element": "H" 
			},
			{
				"x": 0.9455701562,
				"y": 1.4653229605,
				"z": -3.2903274679,
				"element": "H" 
			},
			{
				"x": -0.9750973392,
				"y": 0.4635673708,
				"z": -2.6613010521,
				"element": "H" 
			},
			{
				"x": 0.1522265041,
				"y": 4.3990020896,
				"z": 2.5555406132,
				"element": "H" 
			},
			{
				"x": 0.2279588727,
				"y": 3.7626432727,
				"z": 4.2178880822,
				"element": "H" 
			},
			{
				"x": -1.1757494199,
				"y": 4.7291709423,
				"z": 3.6951249958,
				"element": "H" 
			},
			{
				"x": -4.4682945427,
				"y": 1.2847060853,
				"z": 3.0144465933,
				"element": "H" 
			},
			{
				"x": -3.0865781365,
				"y": 0.9189189126,
				"z": 1.936306285,
				"element": "H" 
			},
			{
				"x": -3.8700015023,
				"y": 2.5371030685,
				"z": 1.8724469366,
				"element": "H" 
			}
		],
		 "valence_orbital": [ 
			{
				"type": "occ",
				"energy": -0.25847,
				"method": "rhf"
			},
			{
				"type": "occ",
				"energy": -0.25518,
				"method": "rhf"
			},
			{
				"type": "occ",
				"energy": -0.24916,
				"method": "rhf"
			},
			{
				"type": "occ",
				"energy": -0.23008,
				"method": "rhf"
			},
			{
				"type": "occ",
				"energy": -0.19912,
				"method": "rhf"
			},
			{
				"type": "unocc",
				"energy": -0.07872,
				"method": "rhf"
			},
			{
				"type": "unocc",
				"energy": -0.02361,
				"method": "rhf"
			},
			{
				"type": "unocc",
				"energy": -0.00641,
				"method": "rhf"
			},
			{
				"type": "unocc",
				"energy": 0.02138,
				"method": "rhf"
			},
			{
				"type": "unocc",
				"energy": 0.04681,
				"method": "rhf"
			}
		],
		"cosmo_sigma_profile": { 
			"-0.025": 0.0,
			"-0.024": 0.0,
			"-0.023": 0.0,
			"-0.022": 0.0,
			"-0.021": 0.0,
			"-0.02": 0.0,
			"-0.019": 0.0,
			"-0.018": 0.0,
			"-0.017": 0.0,
			"-0.016": 0.0,
			"-0.015": 0.0,
			"-0.014": 0.103951811566,
			"-0.013": 1.68528063638,
			"-0.012": 1.25348186606,
			"-0.011": 1.6064431694,
			"-0.01": 1.56493650039,
			"-0.009": 3.79776265288,
			"-0.008": 6.79028836826,
			"-0.007": 14.0389230303,
			"-0.006": 19.8101570895,
			"-0.005": 25.6725182096,
			"-0.004": 30.4340492392,
			"-0.003": 27.1781346272,
			"-0.002": 28.0510350572,
			"-0.001": 23.8574420883,
			"0.0": 19.109999247,
			"0.001": 24.362370765,
			"0.002": 33.3488198733,
			"0.003": 27.2474250777,
			"0.004": 16.4773277084,
			"0.005": 7.10111152494,
			"0.006": 6.2022280605,
			"0.007": 6.49126830963,
			"0.008": 5.6341421443,
			"0.009": 7.02332840804,
			"0.01": 6.96276523203,
			"0.011": 10.8964088827,
			"0.012": 6.16852405873,
			"0.013": 1.64311843761,
			"0.014": 1.48658143169,
			"0.015": 1.06156170467,
			"0.016": 0.105758722341,
			"0.017": 0.0,
			"0.018": 0.0,
			"0.019": 0.0,
			"0.02": 0.0,
			"0.021": 0.0,
			"0.022": 0.0,
			"0.023": 0.0,
			"0.024": 0.0,
			"0.025": 0.0
		}
	}
}
