{
	 "smiles": "CCCC(NC(=O)CC1=CC=CC=C1)C(O)=O", 
	 "Tm": 407.15, 
	 "num_atms": 34, 
	 "gaussian": { 
		 "optdone": 1, 
		 "sigma_profile": "yes", 
		 "theory": "DFT", 
		 "functional": "B3LYP", 
		 "basiset": "6-31G**", 
		 "properties": { 
			 "R2extent": 5817.3239, 
			 "electric_dipole_moment_norm": 2.69924138602, 
			 "electric_quadrupole_moment_norm": 13.0578882657, 
			 "total_energy": -786.101033897, 
			 "HOMO_LUMO_gap": 0.22653, 
			 "cosmo_polarized_energy": -14.71, 
			 "cosmo_cavitation_energy": 37.29, 
			 "cosmo_dispersion_energy": -24.91, 
			 "cosmo_repulsion_energy": 1.99, 
			 "cosmo_total_nonelectrostatic_energy": 14.37, 
			 "SMD_solvation_energy": 7.53 
		},
		"coords": [
			{
				"x": 1.3446271813,
				"y": 1.6148056528,
				"z": 4.1707383557,
				"element": "C" 
			},
			{
				"x": 1.7251651131,
				"y": 0.4000474381,
				"z": 3.316573033,
				"element": "C" 
			},
			{
				"x": 2.8762044386,
				"y": 0.6496129687,
				"z": 2.331090003,
				"element": "C" 
			},
			{
				"x": 2.5598498045,
				"y": 1.6867070276,
				"z": 1.2210501321,
				"element": "C" 
			},
			{
				"x": 1.4500025455,
				"y": 1.2971803197,
				"z": 0.3726258509,
				"element": "N" 
			},
			{
				"x": 0.252514072,
				"y": 1.9494877203,
				"z": 0.4043795795,
				"element": "C" 
			},
			{
				"x": -0.0261689643,
				"y": 2.8071487014,
				"z": 1.2359735853,
				"element": "O" 
			},
			{
				"x": -0.7628699273,
				"y": 1.5679268599,
				"z": -0.6881183686,
				"element": "C" 
			},
			{
				"x": -0.4825419733,
				"y": 0.3250298847,
				"z": -1.5012410946,
				"element": "C" 
			},
			{
				"x": 0.2856250369,
				"y": 0.3881536812,
				"z": -2.6734853811,
				"element": "C" 
			},
			{
				"x": 0.5626501666,
				"y": -0.7646281689,
				"z": -3.4112763658,
				"element": "C" 
			},
			{
				"x": 0.070796724,
				"y": -2.000601972,
				"z": -2.9894679758,
				"element": "C" 
			},
			{
				"x": -0.6977205904,
				"y": -2.0769010228,
				"z": -1.8255718963,
				"element": "C" 
			},
			{
				"x": -0.9692498778,
				"y": -0.9242600648,
				"z": -1.0886876117,
				"element": "C" 
			},
			{
				"x": 3.7897234937,
				"y": 1.8824094413,
				"z": 0.3448431646,
				"element": "C" 
			},
			{
				"x": 4.7746552489,
				"y": 2.5345733887,
				"z": 0.998411856,
				"element": "O" 
			},
			{
				"x": 3.9068705371,
				"y": 1.4779941441,
				"z": -0.7924866104,
				"element": "O" 
			},
			{
				"x": 0.5955399044,
				"y": 1.3384547227,
				"z": 4.92011059,
				"element": "H" 
			},
			{
				"x": 0.9162890795,
				"y": 2.4122825963,
				"z": 3.5572955768,
				"element": "H" 
			},
			{
				"x": 2.2154287536,
				"y": 2.0128204179,
				"z": 4.7056244303,
				"element": "H" 
			},
			{
				"x": 2.0263525592,
				"y": -0.4290832142,
				"z": 3.9694807992,
				"element": "H" 
			},
			{
				"x": 0.8467647369,
				"y": 0.0481347532,
				"z": 2.7626210984,
				"element": "H" 
			},
			{
				"x": 3.153595729,
				"y": -0.2949600822,
				"z": 1.8450963584,
				"element": "H" 
			},
			{
				"x": 3.7612368111,
				"y": 0.9999607772,
				"z": 2.8751792975,
				"element": "H" 
			},
			{
				"x": 2.2979462428,
				"y": 2.643759615,
				"z": 1.6809844308,
				"element": "H" 
			},
			{
				"x": 1.6673126259,
				"y": 0.7084765629,
				"z": -0.4215420637,
				"element": "H" 
			},
			{
				"x": -0.8344115093,
				"y": 2.4457989733,
				"z": -1.3413955738,
				"element": "H" 
			},
			{
				"x": -1.72693083,
				"y": 1.4933622506,
				"z": -0.1765142479,
				"element": "H" 
			},
			{
				"x": 0.6670542494,
				"y": 1.3485175141,
				"z": -3.0120178352,
				"element": "H" 
			},
			{
				"x": 1.1584127665,
				"y": -0.6944334,
				"z": -4.316775654,
				"element": "H" 
			},
			{
				"x": 0.2817268109,
				"y": -2.8975522084,
				"z": -3.5644655993,
				"element": "H" 
			},
			{
				"x": -1.0879228614,
				"y": -3.034524772,
				"z": -1.4925260135,
				"element": "H" 
			},
			{
				"x": -1.5694536977,
				"y": -0.9899576295,
				"z": -0.1844198784,
				"element": "H" 
			},
			{
				"x": 5.5280255998,
				"y": 2.5815571232,
				"z": 0.3856140284,
				"element": "H" 
			}
		],
		 "valence_orbital": [ 
			{
				"type": "occ",
				"energy": -0.28741,
				"method": "rhf"
			},
			{
				"type": "occ",
				"energy": -0.26398,
				"method": "rhf"
			},
			{
				"type": "occ",
				"energy": -0.25849,
				"method": "rhf"
			},
			{
				"type": "occ",
				"energy": -0.25246,
				"method": "rhf"
			},
			{
				"type": "occ",
				"energy": -0.23616,
				"method": "rhf"
			},
			{
				"type": "unocc",
				"energy": -0.00963,
				"method": "rhf"
			},
			{
				"type": "unocc",
				"energy": -0.00904,
				"method": "rhf"
			},
			{
				"type": "unocc",
				"energy": 0.00011,
				"method": "rhf"
			},
			{
				"type": "unocc",
				"energy": 0.0301,
				"method": "rhf"
			},
			{
				"type": "unocc",
				"energy": 0.0693,
				"method": "rhf"
			}
		],
		"cosmo_sigma_profile": { 
			"-0.025": 0.0,
			"-0.024": 0.0,
			"-0.023": 0.0,
			"-0.022": 0.0,
			"-0.021": 0.0,
			"-0.02": 0.0,
			"-0.019": 0.345844811683,
			"-0.018": 0.816734669076,
			"-0.017": 1.11951210514,
			"-0.016": 0.707191631094,
			"-0.015": 0.630247927168,
			"-0.014": 0.851446254819,
			"-0.013": 0.269225437985,
			"-0.012": 0.979880252332,
			"-0.011": 1.17566648925,
			"-0.01": 0.342596363018,
			"-0.009": 0.456851438872,
			"-0.008": 1.39953000533,
			"-0.007": 2.17620713978,
			"-0.006": 13.0645752674,
			"-0.005": 21.4488346772,
			"-0.004": 21.6430632199,
			"-0.003": 26.5316048809,
			"-0.002": 29.366608651,
			"-0.001": 27.7349001882,
			"0.0": 24.5565124944,
			"0.001": 23.8223981976,
			"0.002": 18.0662798645,
			"0.003": 13.0023010695,
			"0.004": 12.8866491812,
			"0.005": 12.2799094647,
			"0.006": 6.82842306504,
			"0.007": 3.92132508441,
			"0.008": 4.8225512642,
			"0.009": 3.56822107803,
			"0.01": 4.06746165136,
			"0.011": 5.42539396859,
			"0.012": 2.50098841666,
			"0.013": 2.77134286243,
			"0.014": 2.74605384212,
			"0.015": 1.0786109492,
			"0.016": 0.0,
			"0.017": 0.0,
			"0.018": 0.0,
			"0.019": 0.0,
			"0.02": 0.0,
			"0.021": 0.0,
			"0.022": 0.0,
			"0.023": 0.0,
			"0.024": 0.0,
			"0.025": 0.0
		}
	}
}
