{
	 "smiles": "CCC(=O)OC", 
	 "Tm": 185.35, 
	 "num_atms": 14, 
	 "gaussian": { 
		 "optdone": 1, 
		 "sigma_profile": "yes", 
		 "theory": "DFT", 
		 "functional": "B3LYP", 
		 "basiset": "6-31G**", 
		 "properties": { 
			 "R2extent": 942.0615, 
			 "electric_dipole_moment_norm": 1.84501060702, 
			 "electric_quadrupole_moment_norm": 4.28726523789, 
			 "total_energy": -307.707182609, 
			 "HOMO_LUMO_gap": 0.27914, 
			 "cosmo_polarized_energy": -6.14, 
			 "cosmo_cavitation_energy": 17.46, 
			 "cosmo_dispersion_energy": -12.84, 
			 "cosmo_repulsion_energy": 1.14, 
			 "cosmo_total_nonelectrostatic_energy": 5.76, 
			 "SMD_solvation_energy": 4.92 
		},
		"coords": [
			{
				"x": 0.9767518449,
				"y": 1.0603467005,
				"z": -2.9672997246,
				"element": "C" 
			},
			{
				"x": 1.1375988179,
				"y": -0.233639419,
				"z": -2.1552295992,
				"element": "C" 
			},
			{
				"x": 0.1975735557,
				"y": -0.3276018927,
				"z": -0.9693591733,
				"element": "C" 
			},
			{
				"x": 0.5302781335,
				"y": -0.516255424,
				"z": 0.1807250037,
				"element": "O" 
			},
			{
				"x": -1.093728549,
				"y": -0.1826056317,
				"z": -1.3529284389,
				"element": "O" 
			},
			{
				"x": -2.0607263485,
				"y": -0.2626466955,
				"z": -0.294114226,
				"element": "C" 
			},
			{
				"x": 1.1725329169,
				"y": 1.9417065761,
				"z": -2.3484243858,
				"element": "H" 
			},
			{
				"x": 1.6825866807,
				"y": 1.0745519744,
				"z": -3.8029564456,
				"element": "H" 
			},
			{
				"x": -0.035351778,
				"y": 1.1456260247,
				"z": -3.3696860121,
				"element": "H" 
			},
			{
				"x": 2.151582158,
				"y": -0.3329470836,
				"z": -1.7613999737,
				"element": "H" 
			},
			{
				"x": 0.944838962,
				"y": -1.0987025926,
				"z": -2.8020325493,
				"element": "H" 
			},
			{
				"x": -2.0157482441,
				"y": -1.2383204748,
				"z": 0.1966725706,
				"element": "H" 
			},
			{
				"x": -3.0314721498,
				"y": -0.1179980928,
				"z": -0.7685281716,
				"element": "H" 
			},
			{
				"x": -1.8798160003,
				"y": 0.513486031,
				"z": 0.4538611257,
				"element": "H" 
			}
		],
		 "valence_orbital": [ 
			{
				"type": "occ",
				"energy": -0.36211,
				"method": "rhf"
			},
			{
				"type": "occ",
				"energy": -0.3537,
				"method": "rhf"
			},
			{
				"type": "occ",
				"energy": -0.34777,
				"method": "rhf"
			},
			{
				"type": "occ",
				"energy": -0.29846,
				"method": "rhf"
			},
			{
				"type": "occ",
				"energy": -0.26507,
				"method": "rhf"
			},
			{
				"type": "unocc",
				"energy": 0.01407,
				"method": "rhf"
			},
			{
				"type": "unocc",
				"energy": 0.09917,
				"method": "rhf"
			},
			{
				"type": "unocc",
				"energy": 0.11827,
				"method": "rhf"
			},
			{
				"type": "unocc",
				"energy": 0.13811,
				"method": "rhf"
			},
			{
				"type": "unocc",
				"energy": 0.14759,
				"method": "rhf"
			}
		],
		"cosmo_sigma_profile": { 
			"-0.025": 0.0,
			"-0.024": 0.0,
			"-0.023": 0.0,
			"-0.022": 0.0,
			"-0.021": 0.0,
			"-0.02": 0.0,
			"-0.019": 0.0,
			"-0.018": 0.0,
			"-0.017": 0.0,
			"-0.016": 0.0,
			"-0.015": 0.0,
			"-0.014": 0.0,
			"-0.013": 0.0,
			"-0.012": 0.0,
			"-0.011": 0.0,
			"-0.01": 0.0,
			"-0.009": 0.0,
			"-0.008": 0.0,
			"-0.007": 0.342274368237,
			"-0.006": 5.22921341606,
			"-0.005": 9.71996486051,
			"-0.004": 15.7099988764,
			"-0.003": 21.0533347459,
			"-0.002": 17.6038853043,
			"-0.001": 13.5691347236,
			"0.0": 11.9558483959,
			"0.001": 6.37231553048,
			"0.002": 4.2766475201,
			"0.003": 3.56635392631,
			"0.004": 3.33372322623,
			"0.005": 2.76613395257,
			"0.006": 2.98814792168,
			"0.007": 2.34335023439,
			"0.008": 2.05219900327,
			"0.009": 2.25942779417,
			"0.01": 1.93799148465,
			"0.011": 2.48809615394,
			"0.012": 4.86260812705,
			"0.013": 2.12293004274,
			"0.014": 0.109015066601,
			"0.015": 0.0,
			"0.016": 0.0,
			"0.017": 0.0,
			"0.018": 0.0,
			"0.019": 0.0,
			"0.02": 0.0,
			"0.021": 0.0,
			"0.022": 0.0,
			"0.023": 0.0,
			"0.024": 0.0,
			"0.025": 0.0
		}
	}
}
