{
	 "smiles": "CCOC(=O)N=C(/N1CCOCC1)C1=CC=CN1", 
	 "Tm": 421.15, 
	 "num_atms": 35, 
	 "gaussian": { 
		 "optdone": 1, 
		 "sigma_profile": "yes", 
		 "theory": "DFT", 
		 "functional": "B3LYP", 
		 "basiset": "6-31G**", 
		 "properties": { 
			 "R2extent": 5664.6306, 
			 "electric_dipole_moment_norm": 2.38430441219, 
			 "electric_quadrupole_moment_norm": 11.2887896659, 
			 "total_energy": -857.432420482, 
			 "HOMO_LUMO_gap": 0.18306, 
			 "cosmo_polarized_energy": -13.93, 
			 "cosmo_cavitation_energy": 37.21, 
			 "cosmo_dispersion_energy": -26.5, 
			 "cosmo_repulsion_energy": 2.09, 
			 "cosmo_total_nonelectrostatic_energy": 12.8, 
			 "SMD_solvation_energy": 6.0 
		},
		"coords": [
			{
				"x": 4.5004312145,
				"y": 1.7502051231,
				"z": 0.0753658115,
				"element": "C" 
			},
			{
				"x": 3.3163704217,
				"y": 1.5346860748,
				"z": 1.0071922737,
				"element": "C" 
			},
			{
				"x": 2.6297124276,
				"y": 0.2999010974,
				"z": 0.7153370411,
				"element": "O" 
			},
			{
				"x": 1.7059439363,
				"y": 0.349572239,
				"z": -0.2836918589,
				"element": "C" 
			},
			{
				"x": 1.4574748323,
				"y": 1.3823010986,
				"z": -0.8965329072,
				"element": "O" 
			},
			{
				"x": 1.2486852905,
				"y": -0.9143163723,
				"z": -0.5297247787,
				"element": "N" 
			},
			{
				"x": 0.0630078865,
				"y": -1.4490197074,
				"z": -0.6107913639,
				"element": "C" 
			},
			{
				"x": -1.1623796289,
				"y": -0.8644029105,
				"z": -0.4033510416,
				"element": "N" 
			},
			{
				"x": -2.2948833015,
				"y": -1.569230752,
				"z": 0.2123530136,
				"element": "C" 
			},
			{
				"x": -2.6511157655,
				"y": -0.8957642,
				"z": 1.5443250719,
				"element": "C" 
			},
			{
				"x": -2.9237087514,
				"y": 0.4866497745,
				"z": 1.3859655709,
				"element": "O" 
			},
			{
				"x": -1.80806581,
				"y": 1.1722910484,
				"z": 0.8246088383,
				"element": "C" 
			},
			{
				"x": -1.4251019144,
				"y": 0.575862304,
				"z": -0.5284455028,
				"element": "C" 
			},
			{
				"x": 0.0813083133,
				"y": -2.8790720234,
				"z": -0.9592343856,
				"element": "C" 
			},
			{
				"x": -0.832254115,
				"y": -3.7525667699,
				"z": -1.5457858476,
				"element": "C" 
			},
			{
				"x": -0.1738596677,
				"y": -4.9896287599,
				"z": -1.7441060377,
				"element": "C" 
			},
			{
				"x": 1.1237453272,
				"y": -4.8437357961,
				"z": -1.2785534648,
				"element": "C" 
			},
			{
				"x": 1.2596871131,
				"y": -3.5735617725,
				"z": -0.8078583187,
				"element": "N" 
			},
			{
				"x": 4.1556084683,
				"y": 1.8752772696,
				"z": -0.9538037891,
				"element": "H" 
			},
			{
				"x": 5.1890926779,
				"y": 0.9010035892,
				"z": 0.1186638937,
				"element": "H" 
			},
			{
				"x": 5.0480569217,
				"y": 2.6528197167,
				"z": 0.3676856077,
				"element": "H" 
			},
			{
				"x": 3.6422592034,
				"y": 1.4241149085,
				"z": 2.0451133314,
				"element": "H" 
			},
			{
				"x": 2.6101055131,
				"y": 2.3658365444,
				"z": 0.9370316232,
				"element": "H" 
			},
			{
				"x": -2.0371147754,
				"y": -2.6133183938,
				"z": 0.3841270418,
				"element": "H" 
			},
			{
				"x": -3.1622370634,
				"y": -1.5262959572,
				"z": -0.4606807954,
				"element": "H" 
			},
			{
				"x": -3.554895221,
				"y": -1.3485851606,
				"z": 1.9640982198,
				"element": "H" 
			},
			{
				"x": -1.8218156576,
				"y": -1.0450667515,
				"z": 2.2563488662,
				"element": "H" 
			},
			{
				"x": -2.1095555709,
				"y": 2.217453677,
				"z": 0.7111393065,
				"element": "H" 
			},
			{
				"x": -0.9474846163,
				"y": 1.1289953878,
				"z": 1.5119788838,
				"element": "H" 
			},
			{
				"x": -2.2795455528,
				"y": 0.6885417777,
				"z": -1.2107548368,
				"element": "H" 
			},
			{
				"x": -0.5612570119,
				"y": 1.0793481145,
				"z": -0.9587088618,
				"element": "H" 
			},
			{
				"x": -1.8476062459,
				"y": -3.513932904,
				"z": -1.8269370011,
				"element": "H" 
			},
			{
				"x": -0.5951207988,
				"y": -5.885346971,
				"z": -2.1779834833,
				"element": "H" 
			},
			{
				"x": 1.9432709316,
				"y": -5.5464239117,
				"z": -1.245294898,
				"element": "H" 
			},
			{
				"x": 2.0943409893,
				"y": -3.1126906316,
				"z": -0.4722952218,
				"element": "H" 
			}
		],
		 "valence_orbital": [ 
			{
				"type": "occ",
				"energy": -0.27121,
				"method": "rhf"
			},
			{
				"type": "occ",
				"energy": -0.25385,
				"method": "rhf"
			},
			{
				"type": "occ",
				"energy": -0.2446,
				"method": "rhf"
			},
			{
				"type": "occ",
				"energy": -0.2252,
				"method": "rhf"
			},
			{
				"type": "occ",
				"energy": -0.2164,
				"method": "rhf"
			},
			{
				"type": "unocc",
				"energy": -0.03334,
				"method": "rhf"
			},
			{
				"type": "unocc",
				"energy": 0.04149,
				"method": "rhf"
			},
			{
				"type": "unocc",
				"energy": 0.06247,
				"method": "rhf"
			},
			{
				"type": "unocc",
				"energy": 0.08992,
				"method": "rhf"
			},
			{
				"type": "unocc",
				"energy": 0.09611,
				"method": "rhf"
			}
		],
		"cosmo_sigma_profile": { 
			"-0.025": 0.0,
			"-0.024": 0.0,
			"-0.023": 0.0,
			"-0.022": 0.0,
			"-0.021": 0.0,
			"-0.02": 0.0,
			"-0.019": 0.0,
			"-0.018": 0.0,
			"-0.017": 0.0,
			"-0.016": 0.0,
			"-0.015": 0.0258043444541,
			"-0.014": 0.708121304167,
			"-0.013": 0.76547604231,
			"-0.012": 0.669628828143,
			"-0.011": 0.957995528926,
			"-0.01": 0.907648722185,
			"-0.009": 0.691844864564,
			"-0.008": 2.56184762262,
			"-0.007": 2.84810302016,
			"-0.006": 8.83477505012,
			"-0.005": 23.7903014254,
			"-0.004": 37.1316242125,
			"-0.003": 32.6396680172,
			"-0.002": 27.460740841,
			"-0.001": 21.4786565666,
			"0.0": 21.6898769792,
			"0.001": 17.0175079575,
			"0.002": 13.0941775646,
			"0.003": 10.8827822508,
			"0.004": 11.8991165155,
			"0.005": 10.9425094484,
			"0.006": 10.6851143788,
			"0.007": 8.80224398561,
			"0.008": 4.79675488651,
			"0.009": 4.73223406485,
			"0.01": 4.0866418661,
			"0.011": 4.14506541221,
			"0.012": 5.00241642026,
			"0.013": 4.22086865261,
			"0.014": 0.0955641668234,
			"0.015": 0.0,
			"0.016": 0.0,
			"0.017": 0.0,
			"0.018": 0.0,
			"0.019": 0.0,
			"0.02": 0.0,
			"0.021": 0.0,
			"0.022": 0.0,
			"0.023": 0.0,
			"0.024": 0.0,
			"0.025": 0.0
		}
	}
}
