{
	 "smiles": "O1C=NC=C1C1=CC=CC=C1", 
	 "Tm": 311.15, 
	 "num_atms": 18, 
	 "gaussian": { 
		 "optdone": 1, 
		 "sigma_profile": "yes", 
		 "theory": "DFT", 
		 "functional": "B3LYP", 
		 "basiset": "6-31G**", 
		 "properties": { 
			 "R2extent": 2013.5155, 
			 "electric_dipole_moment_norm": 1.8967409549, 
			 "electric_quadrupole_moment_norm": 9.20667723883, 
			 "total_energy": -477.135444944, 
			 "HOMO_LUMO_gap": 0.17999, 
			 "cosmo_polarized_energy": -7.33, 
			 "cosmo_cavitation_energy": 22.53, 
			 "cosmo_dispersion_energy": -16.85, 
			 "cosmo_repulsion_energy": 1.32, 
			 "cosmo_total_nonelectrostatic_energy": 6.99, 
			 "SMD_solvation_energy": 3.21 
		},
		"coords": [
			{
				"x": 0.6058876888,
				"y": 2.1250810592,
				"z": 1.6930382479,
				"element": "O" 
			},
			{
				"x": 1.5218079932,
				"y": 3.1211699262,
				"z": 1.7850581282,
				"element": "C" 
			},
			{
				"x": 2.4074476408,
				"y": 3.1294754333,
				"z": 0.8402829502,
				"element": "N" 
			},
			{
				"x": 2.0599180499,
				"y": 2.048844789,
				"z": 0.0439856204,
				"element": "C" 
			},
			{
				"x": 0.9562830171,
				"y": 1.4254851355,
				"z": 0.5577567941,
				"element": "C" 
			},
			{
				"x": 0.1488498123,
				"y": 0.2734568868,
				"z": 0.179737868,
				"element": "C" 
			},
			{
				"x": -0.9595087262,
				"y": -0.1172033655,
				"z": 0.9508046905,
				"element": "C" 
			},
			{
				"x": -1.7233642144,
				"y": -1.2212227634,
				"z": 0.5777484214,
				"element": "C" 
			},
			{
				"x": -1.3974039798,
				"y": -1.9525324551,
				"z": -0.5658347549,
				"element": "C" 
			},
			{
				"x": -0.2968338915,
				"y": -1.5704474183,
				"z": -1.3377681017,
				"element": "C" 
			},
			{
				"x": 0.4704625758,
				"y": -0.4688893408,
				"z": -0.9710751412,
				"element": "C" 
			},
			{
				"x": 1.4237071946,
				"y": 3.796459908,
				"z": 2.6222037687,
				"element": "H" 
			},
			{
				"x": 2.6273082976,
				"y": 1.797255218,
				"z": -0.8397237081,
				"element": "H" 
			},
			{
				"x": -1.2152606909,
				"y": 0.4489549369,
				"z": 1.8397864234,
				"element": "H" 
			},
			{
				"x": -2.5769793319,
				"y": -1.510726814,
				"z": 1.1838962015,
				"element": "H" 
			},
			{
				"x": -1.9945385534,
				"y": -2.8124626806,
				"z": -0.8541179448,
				"element": "H" 
			},
			{
				"x": -0.0351583972,
				"y": -2.1330291168,
				"z": -2.229266873,
				"element": "H" 
			},
			{
				"x": 1.3232755151,
				"y": -0.1815693386,
				"z": -1.5787125907,
				"element": "H" 
			}
		],
		 "valence_orbital": [ 
			{
				"type": "occ",
				"energy": -0.32226,
				"method": "rhf"
			},
			{
				"type": "occ",
				"energy": -0.29174,
				"method": "rhf"
			},
			{
				"type": "occ",
				"energy": -0.28955,
				"method": "rhf"
			},
			{
				"type": "occ",
				"energy": -0.25813,
				"method": "rhf"
			},
			{
				"type": "occ",
				"energy": -0.21983,
				"method": "rhf"
			},
			{
				"type": "unocc",
				"energy": -0.03984,
				"method": "rhf"
			},
			{
				"type": "unocc",
				"energy": -0.00784,
				"method": "rhf"
			},
			{
				"type": "unocc",
				"energy": 0.02443,
				"method": "rhf"
			},
			{
				"type": "unocc",
				"energy": 0.07414,
				"method": "rhf"
			},
			{
				"type": "unocc",
				"energy": 0.0873,
				"method": "rhf"
			}
		],
		"cosmo_sigma_profile": { 
			"-0.025": 0.0,
			"-0.024": 0.0,
			"-0.023": 0.0,
			"-0.022": 0.0,
			"-0.021": 0.0,
			"-0.02": 0.0,
			"-0.019": 0.0,
			"-0.018": 0.0,
			"-0.017": 0.0,
			"-0.016": 0.0,
			"-0.015": 0.0,
			"-0.014": 0.0,
			"-0.013": 0.0,
			"-0.012": 0.0,
			"-0.011": 0.979464527628,
			"-0.01": 2.18210069646,
			"-0.009": 1.65356678835,
			"-0.008": 4.78741989314,
			"-0.007": 3.69292012405,
			"-0.006": 10.2817973129,
			"-0.005": 11.6596190737,
			"-0.004": 13.592529146,
			"-0.003": 11.0741719996,
			"-0.002": 9.99431417244,
			"-0.001": 11.871264658,
			"0.0": 12.6661094716,
			"0.001": 16.8772740508,
			"0.002": 16.1952681766,
			"0.003": 14.0438391945,
			"0.004": 14.4033185136,
			"0.005": 12.3664488922,
			"0.006": 2.29352465376,
			"0.007": 1.87680647899,
			"0.008": 1.61054554634,
			"0.009": 0.899949629704,
			"0.01": 0.734734059191,
			"0.011": 1.41277810141,
			"0.012": 0.833401341032,
			"0.013": 1.28366846681,
			"0.014": 1.08970415848,
			"0.015": 0.914523246908,
			"0.016": 0.734154086185,
			"0.017": 0.0356920445033,
			"0.018": 0.0,
			"0.019": 0.0,
			"0.02": 0.0,
			"0.021": 0.0,
			"0.022": 0.0,
			"0.023": 0.0,
			"0.024": 0.0,
			"0.025": 0.0
		}
	}
}
