{
	 "smiles": "O=C(CC#N)C1=CC=CO1", 
	 "Tm": 355.15, 
	 "num_atms": 15, 
	 "gaussian": { 
		 "optdone": 1, 
		 "sigma_profile": "yes", 
		 "theory": "DFT", 
		 "functional": "B3LYP", 
		 "basiset": "6-31G**", 
		 "properties": { 
			 "R2extent": 1635.4215, 
			 "electric_dipole_moment_norm": 4.38013556183, 
			 "electric_quadrupole_moment_norm": 11.7607254904, 
			 "total_energy": -474.903648341, 
			 "HOMO_LUMO_gap": 0.18273, 
			 "cosmo_polarized_energy": -13.02, 
			 "cosmo_cavitation_energy": 21.44, 
			 "cosmo_dispersion_energy": -14.78, 
			 "cosmo_repulsion_energy": 1.21, 
			 "cosmo_total_nonelectrostatic_energy": 7.88, 
			 "SMD_solvation_energy": 6.81 
		},
		"coords": [
			{
				"x": -2.8508431374,
				"y": -0.66296561,
				"z": 1.4985026903,
				"element": "O" 
			},
			{
				"x": -1.6605726313,
				"y": -0.5520494781,
				"z": 1.260997895,
				"element": "C" 
			},
			{
				"x": -0.6047272488,
				"y": -0.9629617287,
				"z": 2.3144964167,
				"element": "C" 
			},
			{
				"x": 0.1688003024,
				"y": 0.172717479,
				"z": 2.8168070168,
				"element": "C" 
			},
			{
				"x": 0.7691499839,
				"y": 1.0821322779,
				"z": 3.2161080855,
				"element": "N" 
			},
			{
				"x": -1.1740651711,
				"y": -0.0534044747,
				"z": -0.0198715269,
				"element": "C" 
			},
			{
				"x": -1.8393566975,
				"y": 0.420734912,
				"z": -1.123986558,
				"element": "C" 
			},
			{
				"x": -0.8425133414,
				"y": 0.7700741312,
				"z": -2.0758687786,
				"element": "C" 
			},
			{
				"x": 0.3598351015,
				"y": 0.483637473,
				"z": -1.4878819621,
				"element": "C" 
			},
			{
				"x": 0.1807695846,
				"y": -0.0175720265,
				"z": -0.244477479,
				"element": "O" 
			},
			{
				"x": 0.087241797,
				"y": -1.6942454963,
				"z": 1.8807287214,
				"element": "H" 
			},
			{
				"x": -1.146357271,
				"y": -1.4345239388,
				"z": 3.1385539661,
				"element": "H" 
			},
			{
				"x": -2.9118949462,
				"y": 0.5038160269,
				"z": -1.2184571309,
				"element": "H" 
			},
			{
				"x": -0.9911122774,
				"y": 1.1804271248,
				"z": -3.0639369069,
				"element": "H" 
			},
			{
				"x": 1.3840459526,
				"y": 0.5786833282,
				"z": -1.8151144493,
				"element": "H" 
			}
		],
		 "valence_orbital": [ 
			{
				"type": "occ",
				"energy": -0.33839,
				"method": "rhf"
			},
			{
				"type": "occ",
				"energy": -0.32804,
				"method": "rhf"
			},
			{
				"type": "occ",
				"energy": -0.30752,
				"method": "rhf"
			},
			{
				"type": "occ",
				"energy": -0.27361,
				"method": "rhf"
			},
			{
				"type": "occ",
				"energy": -0.25794,
				"method": "rhf"
			},
			{
				"type": "unocc",
				"energy": -0.07521,
				"method": "rhf"
			},
			{
				"type": "unocc",
				"energy": 0.01396,
				"method": "rhf"
			},
			{
				"type": "unocc",
				"energy": 0.03404,
				"method": "rhf"
			},
			{
				"type": "unocc",
				"energy": 0.03644,
				"method": "rhf"
			},
			{
				"type": "unocc",
				"energy": 0.07839,
				"method": "rhf"
			}
		],
		"cosmo_sigma_profile": { 
			"-0.025": 0.0,
			"-0.024": 0.0,
			"-0.023": 0.0,
			"-0.022": 0.0,
			"-0.021": 0.0,
			"-0.02": 0.0,
			"-0.019": 0.0,
			"-0.018": 0.0,
			"-0.017": 0.0,
			"-0.016": 0.0,
			"-0.015": 0.0,
			"-0.014": 0.0,
			"-0.013": 0.0,
			"-0.012": 0.0,
			"-0.011": 0.430249132923,
			"-0.01": 5.04655196452,
			"-0.009": 6.91891100751,
			"-0.008": 10.0112115932,
			"-0.007": 8.01091105659,
			"-0.006": 9.78842818049,
			"-0.005": 9.13804412484,
			"-0.004": 9.2555318644,
			"-0.003": 7.01296911734,
			"-0.002": 8.70548342003,
			"-0.001": 9.17272139373,
			"0.0": 13.2938696375,
			"0.001": 11.4621442024,
			"0.002": 11.2722241517,
			"0.003": 7.53327006368,
			"0.004": 5.12436446236,
			"0.005": 4.91661630359,
			"0.006": 3.76229968796,
			"0.007": 4.17235556225,
			"0.008": 4.79223442982,
			"0.009": 6.11537342846,
			"0.01": 5.7844185682,
			"0.011": 7.44081583326,
			"0.012": 3.20406327638,
			"0.013": 1.30506032519,
			"0.014": 0.0148421366059,
			"0.015": 0.0,
			"0.016": 0.0,
			"0.017": 0.0,
			"0.018": 0.0,
			"0.019": 0.0,
			"0.02": 0.0,
			"0.021": 0.0,
			"0.022": 0.0,
			"0.023": 0.0,
			"0.024": 0.0,
			"0.025": 0.0
		}
	}
}
