{
	 "smiles": "BrC1=CC(C=O)=C(OCC2=NC=CC=C2)C=C1", 
	 "Tm": 412.15, 
	 "num_atms": 27, 
	 "gaussian": { 
		 "optdone": 1, 
		 "sigma_profile": "yes", 
		 "theory": "DFT", 
		 "functional": "B3LYP", 
		 "basiset": "6-31G**", 
		 "properties": { 
			 "R2extent": 8789.2896, 
			 "electric_dipole_moment_norm": 7.44889269153, 
			 "electric_quadrupole_moment_norm": 14.2033577319, 
			 "total_energy": -3277.98540056, 
			 "HOMO_LUMO_gap": 0.16609, 
			 "cosmo_polarized_energy": -14.68, 
			 "cosmo_cavitation_energy": 34.63, 
			 "cosmo_dispersion_energy": -24.77, 
			 "cosmo_repulsion_energy": 1.94, 
			 "cosmo_total_nonelectrostatic_energy": 11.81, 
			 "SMD_solvation_energy": 4.75 
		},
		"coords": [
			{
				"x": 5.2509830169,
				"y": -1.5519442935,
				"z": 2.4983251542,
				"element": "Br" 
			},
			{
				"x": 3.9168287647,
				"y": -0.7238267228,
				"z": 1.4083396002,
				"element": "C" 
			},
			{
				"x": 3.9043192271,
				"y": 0.6534543597,
				"z": 1.2477272595,
				"element": "C" 
			},
			{
				"x": 2.9269660342,
				"y": 1.2607046876,
				"z": 0.4491960546,
				"element": "C" 
			},
			{
				"x": 2.9427766683,
				"y": 2.7376957857,
				"z": 0.309829592,
				"element": "C" 
			},
			{
				"x": 3.7770625924,
				"y": 3.4501382027,
				"z": 0.8411617507,
				"element": "O" 
			},
			{
				"x": 1.9543918201,
				"y": 0.463664984,
				"z": -0.1964756217,
				"element": "C" 
			},
			{
				"x": 1.0606172825,
				"y": 1.1248068306,
				"z": -0.9789946614,
				"element": "O" 
			},
			{
				"x": 0.041595979,
				"y": 0.4067673423,
				"z": -1.663287339,
				"element": "C" 
			},
			{
				"x": -1.0679145102,
				"y": -0.1190452978,
				"z": -0.7651275307,
				"element": "C" 
			},
			{
				"x": -1.4037816665,
				"y": 0.6395531493,
				"z": 0.2855823796,
				"element": "N" 
			},
			{
				"x": -2.4077085277,
				"y": 0.2188276556,
				"z": 1.0623138101,
				"element": "C" 
			},
			{
				"x": -3.1293039737,
				"y": -0.9536134176,
				"z": 0.8289517166,
				"element": "C" 
			},
			{
				"x": -2.7778922268,
				"y": -1.7347838344,
				"z": -0.2703441889,
				"element": "C" 
			},
			{
				"x": -1.7235861552,
				"y": -1.3147020058,
				"z": -1.0803033975,
				"element": "C" 
			},
			{
				"x": 1.9747532406,
				"y": -0.9264152436,
				"z": -0.0185405855,
				"element": "C" 
			},
			{
				"x": 2.9539179864,
				"y": -1.5150088044,
				"z": 0.7802824435,
				"element": "C" 
			},
			{
				"x": 4.6363532647,
				"y": 1.2936028826,
				"z": 1.7271609124,
				"element": "H" 
			},
			{
				"x": 2.1376880708,
				"y": 3.166800226,
				"z": -0.312961182,
				"element": "H" 
			},
			{
				"x": 0.4733009877,
				"y": -0.4078362141,
				"z": -2.2595160913,
				"element": "H" 
			},
			{
				"x": -0.374987879,
				"y": 1.141633535,
				"z": -2.3594808054,
				"element": "H" 
			},
			{
				"x": -2.6501174897,
				"y": 0.8535394062,
				"z": 1.9128120779,
				"element": "H" 
			},
			{
				"x": -3.938267387,
				"y": -1.2421697433,
				"z": 1.4922522192,
				"element": "H" 
			},
			{
				"x": -3.3072771908,
				"y": -2.6575690347,
				"z": -0.4892956554,
				"element": "H" 
			},
			{
				"x": -1.4134987593,
				"y": -1.9030733589,
				"z": -1.9396572967,
				"element": "H" 
			},
			{
				"x": 1.2280085068,
				"y": -1.5586270693,
				"z": -0.4816883239,
				"element": "H" 
			},
			{
				"x": 2.9635723236,
				"y": -2.5908740073,
				"z": 0.9153377086,
				"element": "H" 
			}
		],
		 "valence_orbital": [ 
			{
				"type": "occ",
				"energy": -0.27563,
				"method": "rhf"
			},
			{
				"type": "occ",
				"energy": -0.26867,
				"method": "rhf"
			},
			{
				"type": "occ",
				"energy": -0.26721,
				"method": "rhf"
			},
			{
				"type": "occ",
				"energy": -0.24709,
				"method": "rhf"
			},
			{
				"type": "occ",
				"energy": -0.22871,
				"method": "rhf"
			},
			{
				"type": "unocc",
				"energy": -0.06262,
				"method": "rhf"
			},
			{
				"type": "unocc",
				"energy": -0.04216,
				"method": "rhf"
			},
			{
				"type": "unocc",
				"energy": -0.02988,
				"method": "rhf"
			},
			{
				"type": "unocc",
				"energy": -0.00782,
				"method": "rhf"
			},
			{
				"type": "unocc",
				"energy": 0.00823,
				"method": "rhf"
			}
		],
		"cosmo_sigma_profile": { 
			"-0.025": 0.0,
			"-0.024": 0.0,
			"-0.023": 0.0,
			"-0.022": 0.0,
			"-0.021": 0.0,
			"-0.02": 0.0,
			"-0.019": 0.0,
			"-0.018": 0.0,
			"-0.017": 0.0,
			"-0.016": 0.0,
			"-0.015": 0.0,
			"-0.014": 0.0,
			"-0.013": 0.0,
			"-0.012": 0.0,
			"-0.011": 0.0,
			"-0.01": 0.0215370916722,
			"-0.009": 0.887686108757,
			"-0.008": 5.71909103088,
			"-0.007": 14.9335377859,
			"-0.006": 19.6974468193,
			"-0.005": 19.911463844,
			"-0.004": 17.1982386312,
			"-0.003": 16.4256695189,
			"-0.002": 15.5393644836,
			"-0.001": 15.8974089956,
			"0.0": 22.1580092325,
			"0.001": 28.4405130699,
			"0.002": 31.8504116682,
			"0.003": 19.3505505453,
			"0.004": 15.567049868,
			"0.005": 10.9405599652,
			"0.006": 1.76196081591,
			"0.007": 3.38282198283,
			"0.008": 2.95497146054,
			"0.009": 3.05526567766,
			"0.01": 4.00895679774,
			"0.011": 4.79756272307,
			"0.012": 3.37572087895,
			"0.013": 1.88696419905,
			"0.014": 0.913967716902,
			"0.015": 0.630588621624,
			"0.016": 0.522309957345,
			"0.017": 0.0538344314085,
			"0.018": 0.0,
			"0.019": 0.0,
			"0.02": 0.0,
			"0.021": 0.0,
			"0.022": 0.0,
			"0.023": 0.0,
			"0.024": 0.0,
			"0.025": 0.0
		}
	}
}
