{
	 "smiles": "COC1=CC=C(C=C2/SC(NC2=O)=N/N=C/C(C)C)C=C1", 
	 "Tm": 532.15, 
	 "num_atms": 38, 
	 "gaussian": { 
		 "optdone": 1, 
		 "sigma_profile": "yes", 
		 "theory": "DFT", 
		 "functional": "B3LYP", 
		 "basiset": "6-31G**", 
		 "properties": { 
			 "R2extent": 11952.4617, 
			 "electric_dipole_moment_norm": 4.1050550045, 
			 "electric_quadrupole_moment_norm": 20.6003923009, 
			 "total_energy": -1294.70176599, 
			 "HOMO_LUMO_gap": 0.13756, 
			 "cosmo_polarized_energy": -15.47, 
			 "cosmo_cavitation_energy": 44.46, 
			 "cosmo_dispersion_energy": -32.1, 
			 "cosmo_repulsion_energy": 2.44, 
			 "cosmo_total_nonelectrostatic_energy": 14.8, 
			 "SMD_solvation_energy": 7.97 
		},
		"coords": [
			{
				"x": 1.8058301018,
				"y": 4.9504075846,
				"z": -0.9359867114,
				"element": "C" 
			},
			{
				"x": 0.4820816552,
				"y": 4.945096509,
				"z": -1.4529432166,
				"element": "O" 
			},
			{
				"x": -0.2563759245,
				"y": 3.8103273253,
				"z": -1.3352713327,
				"element": "C" 
			},
			{
				"x": 0.1908110328,
				"y": 2.6247495724,
				"z": -0.7349000759,
				"element": "C" 
			},
			{
				"x": -0.6524360447,
				"y": 1.5184469383,
				"z": -0.6685697474,
				"element": "C" 
			},
			{
				"x": -1.9588683114,
				"y": 1.5525798221,
				"z": -1.1927052065,
				"element": "C" 
			},
			{
				"x": -2.8973112842,
				"y": 0.445446178,
				"z": -1.1633735083,
				"element": "C" 
			},
			{
				"x": -2.802262928,
				"y": -0.8128292897,
				"z": -0.6748790771,
				"element": "C" 
			},
			{
				"x": -1.4393116063,
				"y": -1.6119113938,
				"z": 0.1458212402,
				"element": "S" 
			},
			{
				"x": -2.3893252568,
				"y": -3.1189538109,
				"z": 0.3141249888,
				"element": "C" 
			},
			{
				"x": -3.6408303348,
				"y": -2.961455089,
				"z": -0.2331204296,
				"element": "N" 
			},
			{
				"x": -3.9663865972,
				"y": -1.7330925249,
				"z": -0.800977229,
				"element": "C" 
			},
			{
				"x": -5.0456483276,
				"y": -1.4885172627,
				"z": -1.3114755117,
				"element": "O" 
			},
			{
				"x": -2.0026915554,
				"y": -4.2146197512,
				"z": 0.8586930247,
				"element": "N" 
			},
			{
				"x": -0.6922466425,
				"y": -4.1112815711,
				"z": 1.3354755445,
				"element": "N" 
			},
			{
				"x": -0.263855329,
				"y": -5.1835619554,
				"z": 1.8871101733,
				"element": "C" 
			},
			{
				"x": 1.1216038565,
				"y": -5.2953486221,
				"z": 2.463272845,
				"element": "C" 
			},
			{
				"x": 1.9357573581,
				"y": -4.0029340945,
				"z": 2.3473596329,
				"element": "C" 
			},
			{
				"x": 1.8528522717,
				"y": -6.4966668767,
				"z": 1.8274844383,
				"element": "C" 
			},
			{
				"x": -2.3826510104,
				"y": 2.7621826255,
				"z": -1.7924863604,
				"element": "C" 
			},
			{
				"x": -1.5561609087,
				"y": 3.8687099838,
				"z": -1.8654692593,
				"element": "C" 
			},
			{
				"x": 1.8167792839,
				"y": 4.7691580681,
				"z": 0.1459948817,
				"element": "H" 
			},
			{
				"x": 2.2023103279,
				"y": 5.9462854289,
				"z": -1.1377874262,
				"element": "H" 
			},
			{
				"x": 2.4358736919,
				"y": 4.2026253273,
				"z": -1.4335057021,
				"element": "H" 
			},
			{
				"x": 1.1883105827,
				"y": 2.5532638935,
				"z": -0.318393492,
				"element": "H" 
			},
			{
				"x": -0.2725875743,
				"y": 0.6193861128,
				"z": -0.1973048947,
				"element": "H" 
			},
			{
				"x": -3.8686260429,
				"y": 0.6440735481,
				"z": -1.6152993435,
				"element": "H" 
			},
			{
				"x": -4.3066883994,
				"y": -3.7222863927,
				"z": -0.220627735,
				"element": "H" 
			},
			{
				"x": -0.91163328,
				"y": -6.0664154542,
				"z": 1.9455847722,
				"element": "H" 
			},
			{
				"x": 0.9882913663,
				"y": -5.5312343503,
				"z": 3.5319485698,
				"element": "H" 
			},
			{
				"x": 1.4202074225,
				"y": -3.1648627585,
				"z": 2.8229662215,
				"element": "H" 
			},
			{
				"x": 2.0951016917,
				"y": -3.7366330529,
				"z": 1.2980850571,
				"element": "H" 
			},
			{
				"x": 2.9136251576,
				"y": -4.1275798058,
				"z": 2.8237074093,
				"element": "H" 
			},
			{
				"x": 1.2720970376,
				"y": -7.4202528089,
				"z": 1.9238821378,
				"element": "H" 
			},
			{
				"x": 2.8209399081,
				"y": -6.6557151357,
				"z": 2.3128554729,
				"element": "H" 
			},
			{
				"x": 2.0322803909,
				"y": -6.3208789347,
				"z": 0.7613737899,
				"element": "H" 
			},
			{
				"x": -3.3857282083,
				"y": 2.8201428668,
				"z": -2.2062693142,
				"element": "H" 
			},
			{
				"x": -1.8872275711,
				"y": 4.7931491513,
				"z": -2.3266946262,
				"element": "H" 
			}
		],
		 "valence_orbital": [ 
			{
				"type": "occ",
				"energy": -0.26572,
				"method": "rhf"
			},
			{
				"type": "occ",
				"energy": -0.25892,
				"method": "rhf"
			},
			{
				"type": "occ",
				"energy": -0.23774,
				"method": "rhf"
			},
			{
				"type": "occ",
				"energy": -0.23707,
				"method": "rhf"
			},
			{
				"type": "occ",
				"energy": -0.20465,
				"method": "rhf"
			},
			{
				"type": "unocc",
				"energy": -0.06709,
				"method": "rhf"
			},
			{
				"type": "unocc",
				"energy": -0.01759,
				"method": "rhf"
			},
			{
				"type": "unocc",
				"energy": -0.01044,
				"method": "rhf"
			},
			{
				"type": "unocc",
				"energy": 0.01701,
				"method": "rhf"
			},
			{
				"type": "unocc",
				"energy": 0.02645,
				"method": "rhf"
			}
		],
		"cosmo_sigma_profile": { 
			"-0.025": 0.0,
			"-0.024": 0.0,
			"-0.023": 0.0,
			"-0.022": 0.0,
			"-0.021": 0.0,
			"-0.02": 0.0,
			"-0.019": 0.0,
			"-0.018": 0.0,
			"-0.017": 0.486860561016,
			"-0.016": 1.16622692004,
			"-0.015": 0.886116279726,
			"-0.014": 1.06006949204,
			"-0.013": 0.858506041179,
			"-0.012": 0.456172311947,
			"-0.011": 0.925006809662,
			"-0.01": 0.740929970538,
			"-0.009": 0.766349336655,
			"-0.008": 1.85097703649,
			"-0.007": 6.6363716707,
			"-0.006": 16.0886876288,
			"-0.005": 21.7761898194,
			"-0.004": 26.496631737,
			"-0.003": 30.5315245067,
			"-0.002": 33.0173148422,
			"-0.001": 29.8413351999,
			"0.0": 28.0104592042,
			"0.001": 30.3832087932,
			"0.002": 26.5018577119,
			"0.003": 24.0766371577,
			"0.004": 20.7236989362,
			"0.005": 12.1365203512,
			"0.006": 8.23375186188,
			"0.007": 5.57685076863,
			"0.008": 4.95707901054,
			"0.009": 5.35498904627,
			"0.01": 3.63419927806,
			"0.011": 3.47420504419,
			"0.012": 6.87957447753,
			"0.013": 1.57782954058,
			"0.014": 0.015075435976,
			"0.015": 0.0,
			"0.016": 0.0,
			"0.017": 0.0,
			"0.018": 0.0,
			"0.019": 0.0,
			"0.02": 0.0,
			"0.021": 0.0,
			"0.022": 0.0,
			"0.023": 0.0,
			"0.024": 0.0,
			"0.025": 0.0
		}
	}
}
