{
	 "smiles": "COC1=CC=C(OC)C(=C1)N=C=O", 
	 "Tm": 313.15, 
	 "num_atms": 22, 
	 "gaussian": { 
		 "optdone": 1, 
		 "sigma_profile": "yes", 
		 "theory": "DFT", 
		 "functional": "B3LYP", 
		 "basiset": "6-31G**", 
		 "properties": { 
			 "R2extent": 3398.1047, 
			 "electric_dipole_moment_norm": 2.39609082674, 
			 "electric_quadrupole_moment_norm": 14.7181028635, 
			 "total_energy": -628.778188471, 
			 "HOMO_LUMO_gap": 0.18508, 
			 "cosmo_polarized_energy": -8.04, 
			 "cosmo_cavitation_energy": 27.19, 
			 "cosmo_dispersion_energy": -19.62, 
			 "cosmo_repulsion_energy": 1.55, 
			 "cosmo_total_nonelectrostatic_energy": 9.13, 
			 "SMD_solvation_energy": 8.23 
		},
		"coords": [
			{
				"x": -1.9396709272,
				"y": 4.6051114367,
				"z": 0.6707904894,
				"element": "C" 
			},
			{
				"x": -0.7238946308,
				"y": 4.200426511,
				"z": 0.0640014091,
				"element": "O" 
			},
			{
				"x": -0.5792961989,
				"y": 2.8832568534,
				"z": -0.27293884,
				"element": "C" 
			},
			{
				"x": 0.6362344067,
				"y": 2.5310841571,
				"z": -0.869140662,
				"element": "C" 
			},
			{
				"x": 0.8806154298,
				"y": 1.2125894394,
				"z": -1.2492566772,
				"element": "C" 
			},
			{
				"x": -0.0834950743,
				"y": 0.223485822,
				"z": -1.0409649137,
				"element": "C" 
			},
			{
				"x": 0.0460791592,
				"y": -1.0960210437,
				"z": -1.3717788541,
				"element": "O" 
			},
			{
				"x": 1.2541445282,
				"y": -1.5241608254,
				"z": -1.9806174525,
				"element": "C" 
			},
			{
				"x": -1.3078742594,
				"y": 0.5789802625,
				"z": -0.4402577271,
				"element": "C" 
			},
			{
				"x": -1.552470335,
				"y": 1.9019073951,
				"z": -0.0591145418,
				"element": "C" 
			},
			{
				"x": -2.2983094003,
				"y": -0.3775187859,
				"z": -0.2138363226,
				"element": "N" 
			},
			{
				"x": -2.4135838371,
				"y": -1.5718701005,
				"z": -0.4131284422,
				"element": "C" 
			},
			{
				"x": -2.6936404307,
				"y": -2.7090187945,
				"z": -0.5297415836,
				"element": "O" 
			},
			{
				"x": -2.107892217,
				"y": 4.0913217007,
				"z": 1.6264720437,
				"element": "H" 
			},
			{
				"x": -1.8443469472,
				"y": 5.6767227399,
				"z": 0.8529453534,
				"element": "H" 
			},
			{
				"x": -2.8010758262,
				"y": 4.4271294944,
				"z": 0.0136016684,
				"element": "H" 
			},
			{
				"x": 1.3819604475,
				"y": 3.3021302678,
				"z": -1.0290143453,
				"element": "H" 
			},
			{
				"x": 1.8296441906,
				"y": 0.9633784564,
				"z": -1.7092754411,
				"element": "H" 
			},
			{
				"x": 1.4228454239,
				"y": -1.0163563702,
				"z": -2.9387618299,
				"element": "H" 
			},
			{
				"x": 2.1171594221,
				"y": -1.352563477,
				"z": -1.3247920015,
				"element": "H" 
			},
			{
				"x": 1.1402482246,
				"y": -2.5948197042,
				"z": -2.154638785,
				"element": "H" 
			},
			{
				"x": -2.5072811485,
				"y": 2.1261045651,
				"z": 0.3982474555,
				"element": "H" 
			}
		],
		 "valence_orbital": [ 
			{
				"type": "occ",
				"energy": -0.32684,
				"method": "rhf"
			},
			{
				"type": "occ",
				"energy": -0.30201,
				"method": "rhf"
			},
			{
				"type": "occ",
				"energy": -0.28954,
				"method": "rhf"
			},
			{
				"type": "occ",
				"energy": -0.2404,
				"method": "rhf"
			},
			{
				"type": "occ",
				"energy": -0.20132,
				"method": "rhf"
			},
			{
				"type": "unocc",
				"energy": -0.01624,
				"method": "rhf"
			},
			{
				"type": "unocc",
				"energy": 0.01528,
				"method": "rhf"
			},
			{
				"type": "unocc",
				"energy": 0.02568,
				"method": "rhf"
			},
			{
				"type": "unocc",
				"energy": 0.08621,
				"method": "rhf"
			},
			{
				"type": "unocc",
				"energy": 0.08833,
				"method": "rhf"
			}
		],
		"cosmo_sigma_profile": { 
			"-0.025": 0.0,
			"-0.024": 0.0,
			"-0.023": 0.0,
			"-0.022": 0.0,
			"-0.021": 0.0,
			"-0.02": 0.0,
			"-0.019": 0.0,
			"-0.018": 0.0,
			"-0.017": 0.0,
			"-0.016": 0.0,
			"-0.015": 0.0,
			"-0.014": 0.0,
			"-0.013": 0.0,
			"-0.012": 0.0,
			"-0.011": 0.0,
			"-0.01": 0.0,
			"-0.009": 0.0,
			"-0.008": 0.0503628931979,
			"-0.007": 3.51589541837,
			"-0.006": 14.8657761168,
			"-0.005": 20.143665826,
			"-0.004": 19.9049551516,
			"-0.003": 21.3530882122,
			"-0.002": 16.2951837942,
			"-0.001": 11.7694728507,
			"0.0": 11.4043203363,
			"0.001": 12.1096260697,
			"0.002": 14.0244266065,
			"0.003": 18.8867594274,
			"0.004": 18.4841806903,
			"0.005": 11.5163687816,
			"0.006": 6.01120614405,
			"0.007": 8.04210588845,
			"0.008": 6.25903206355,
			"0.009": 0.938059984723,
			"0.01": 1.72845984699,
			"0.011": 0.501836765552,
			"0.012": 0.0,
			"0.013": 0.0,
			"0.014": 0.0,
			"0.015": 0.0,
			"0.016": 0.0,
			"0.017": 0.0,
			"0.018": 0.0,
			"0.019": 0.0,
			"0.02": 0.0,
			"0.021": 0.0,
			"0.022": 0.0,
			"0.023": 0.0,
			"0.024": 0.0,
			"0.025": 0.0
		}
	}
}
