{
	 "smiles": "FC1=CC=C(NC(=O)CN2CCNCC2)C=C1", 
	 "Tm": 349.65, 
	 "num_atms": 33, 
	 "gaussian": { 
		 "optdone": 1, 
		 "sigma_profile": "yes", 
		 "theory": "DFT", 
		 "functional": "B3LYP", 
		 "basiset": "6-31G**", 
		 "properties": { 
			 "R2extent": 7718.9153, 
			 "electric_dipole_moment_norm": 4.38842043223, 
			 "electric_quadrupole_moment_norm": 14.144318453, 
			 "total_energy": -806.215408179, 
			 "HOMO_LUMO_gap": 0.19426, 
			 "cosmo_polarized_energy": -18.33, 
			 "cosmo_cavitation_energy": 35.62, 
			 "cosmo_dispersion_energy": -26.12, 
			 "cosmo_repulsion_energy": 2.0, 
			 "cosmo_total_nonelectrostatic_energy": 11.49, 
			 "SMD_solvation_energy": 2.03 
		},
		"coords": [
			{
				"x": 3.9523248355,
				"y": 2.7743589411,
				"z": 5.6225502271,
				"element": "F" 
			},
			{
				"x": 3.4396822235,
				"y": 2.2854423595,
				"z": 4.4718679427,
				"element": "C" 
			},
			{
				"x": 4.269362426,
				"y": 1.5839873128,
				"z": 3.6054159272,
				"element": "C" 
			},
			{
				"x": 3.7330204889,
				"y": 1.0839235947,
				"z": 2.4219754308,
				"element": "C" 
			},
			{
				"x": 2.3796609447,
				"y": 1.2804666542,
				"z": 2.1040335205,
				"element": "C" 
			},
			{
				"x": 1.9117194772,
				"y": 0.7418552262,
				"z": 0.8855874121,
				"element": "N" 
			},
			{
				"x": 0.6511728559,
				"y": 0.8152611267,
				"z": 0.3321304019,
				"element": "C" 
			},
			{
				"x": -0.3066496169,
				"y": 1.3448570458,
				"z": 0.8713662416,
				"element": "O" 
			},
			{
				"x": 0.589420845,
				"y": 0.1768752451,
				"z": -1.0711726206,
				"element": "C" 
			},
			{
				"x": -0.7576029826,
				"y": -0.095782061,
				"z": -1.4972409426,
				"element": "N" 
			},
			{
				"x": -0.9401378044,
				"y": -0.2567066611,
				"z": -2.9501995236,
				"element": "C" 
			},
			{
				"x": -1.076795603,
				"y": -1.7219140661,
				"z": -3.3751174563,
				"element": "C" 
			},
			{
				"x": -2.2850756432,
				"y": -2.2945265931,
				"z": -2.7598345308,
				"element": "N" 
			},
			{
				"x": -2.6252746864,
				"y": -1.687856453,
				"z": -1.4609165552,
				"element": "C" 
			},
			{
				"x": -1.409486255,
				"y": -1.1477402783,
				"z": -0.7048227653,
				"element": "C" 
			},
			{
				"x": 1.5596507478,
				"y": 1.9917597548,
				"z": 2.9953493695,
				"element": "C" 
			},
			{
				"x": 2.097704982,
				"y": 2.493322738,
				"z": 4.1801420796,
				"element": "C" 
			},
			{
				"x": 5.3135730445,
				"y": 1.4365566439,
				"z": 3.8582373923,
				"element": "H" 
			},
			{
				"x": 4.375296458,
				"y": 0.5347826584,
				"z": 1.737202307,
				"element": "H" 
			},
			{
				"x": 2.6060092092,
				"y": 0.246454991,
				"z": 0.3435455644,
				"element": "H" 
			},
			{
				"x": 1.044053344,
				"y": 0.8995053189,
				"z": -1.7611073653,
				"element": "H" 
			},
			{
				"x": 1.2482458336,
				"y": -0.7207155809,
				"z": -1.0742869238,
				"element": "H" 
			},
			{
				"x": -0.0963059431,
				"y": 0.2045011465,
				"z": -3.4721098878,
				"element": "H" 
			},
			{
				"x": -1.8414091899,
				"y": 0.2842079059,
				"z": -3.2686979084,
				"element": "H" 
			},
			{
				"x": -1.1545026574,
				"y": -1.7856683964,
				"z": -4.4687861736,
				"element": "H" 
			},
			{
				"x": -0.1536462111,
				"y": -2.2570102631,
				"z": -3.0899590313,
				"element": "H" 
			},
			{
				"x": -2.1679479904,
				"y": -3.2960328772,
				"z": -2.6496144081,
				"element": "H" 
			},
			{
				"x": -3.1428875814,
				"y": -2.4318694047,
				"z": -0.8479505256,
				"element": "H" 
			},
			{
				"x": -3.3338518821,
				"y": -0.8634617916,
				"z": -1.614969415,
				"element": "H" 
			},
			{
				"x": -0.7141521355,
				"y": -1.988068463,
				"z": -0.5015692111,
				"element": "H" 
			},
			{
				"x": -1.7069254387,
				"y": -0.7313116961,
				"z": 0.2631817473,
				"element": "H" 
			},
			{
				"x": 0.5177421668,
				"y": 2.1416047147,
				"z": 2.7515293576,
				"element": "H" 
			},
			{
				"x": 1.4788117387,
				"y": 3.0451412074,
				"z": 4.8795403226,
				"element": "H" 
			}
		],
		 "valence_orbital": [ 
			{
				"type": "occ",
				"energy": -0.26112,
				"method": "rhf"
			},
			{
				"type": "occ",
				"energy": -0.25606,
				"method": "rhf"
			},
			{
				"type": "occ",
				"energy": -0.21914,
				"method": "rhf"
			},
			{
				"type": "occ",
				"energy": -0.21485,
				"method": "rhf"
			},
			{
				"type": "occ",
				"energy": -0.20593,
				"method": "rhf"
			},
			{
				"type": "unocc",
				"energy": -0.01167,
				"method": "rhf"
			},
			{
				"type": "unocc",
				"energy": -0.01119,
				"method": "rhf"
			},
			{
				"type": "unocc",
				"energy": 0.04011,
				"method": "rhf"
			},
			{
				"type": "unocc",
				"energy": 0.06112,
				"method": "rhf"
			},
			{
				"type": "unocc",
				"energy": 0.07056,
				"method": "rhf"
			}
		],
		"cosmo_sigma_profile": { 
			"-0.025": 0.0,
			"-0.024": 0.0,
			"-0.023": 0.0,
			"-0.022": 0.0,
			"-0.021": 0.0,
			"-0.02": 0.0,
			"-0.019": 0.0,
			"-0.018": 0.0,
			"-0.017": 0.0,
			"-0.016": 0.0,
			"-0.015": 1.06927639078,
			"-0.014": 1.35427579095,
			"-0.013": 1.65718879314,
			"-0.012": 1.52325548753,
			"-0.011": 1.4516711666,
			"-0.01": 2.46128100527,
			"-0.009": 2.11971788563,
			"-0.008": 4.41621280305,
			"-0.007": 8.26634759834,
			"-0.006": 11.98065473,
			"-0.005": 12.9089194754,
			"-0.004": 15.4454548225,
			"-0.003": 22.9073062082,
			"-0.002": 33.8568641004,
			"-0.001": 23.8527084167,
			"0.0": 18.8142002063,
			"0.001": 15.8252462283,
			"0.002": 19.2586558008,
			"0.003": 18.4187107124,
			"0.004": 22.1574188313,
			"0.005": 10.781128301,
			"0.006": 3.25030939912,
			"0.007": 2.79750150898,
			"0.008": 2.44744810919,
			"0.009": 2.29278062709,
			"0.01": 2.6233207368,
			"0.011": 2.58826389488,
			"0.012": 3.0970559063,
			"0.013": 2.69480766955,
			"0.014": 2.17293140401,
			"0.015": 1.4722563614,
			"0.016": 1.34279447284,
			"0.017": 1.2105982867,
			"0.018": 1.23045416519,
			"0.019": 0.411897957384,
			"0.02": 0.0,
			"0.021": 0.0,
			"0.022": 0.0,
			"0.023": 0.0,
			"0.024": 0.0,
			"0.025": 0.0
		}
	}
}
