{
	 "smiles": "S=C=NC1=C2C=CC=CC2=CC=C1", 
	 "Tm": 330.15, 
	 "num_atms": 20, 
	 "gaussian": { 
		 "optdone": 1, 
		 "sigma_profile": "yes", 
		 "theory": "DFT", 
		 "functional": "B3LYP", 
		 "basiset": "6-31G**", 
		 "properties": { 
			 "R2extent": 3944.2313, 
			 "electric_dipole_moment_norm": 3.93138798518, 
			 "electric_quadrupole_moment_norm": 15.2246530427, 
			 "total_energy": -876.334962621, 
			 "HOMO_LUMO_gap": 0.15204, 
			 "cosmo_polarized_energy": -6.15, 
			 "cosmo_cavitation_energy": 27.15, 
			 "cosmo_dispersion_energy": -20.26, 
			 "cosmo_repulsion_energy": 1.54, 
			 "cosmo_total_nonelectrostatic_energy": 8.44, 
			 "SMD_solvation_energy": 4.85 
		},
		"coords": [
			{
				"x": -4.5205667287,
				"y": -1.3537009766,
				"z": -3.3502309932,
				"element": "S" 
			},
			{
				"x": -3.1736872362,
				"y": -0.739316474,
				"z": -2.7569810735,
				"element": "C" 
			},
			{
				"x": -2.1703933581,
				"y": -0.2835022707,
				"z": -2.3160511722,
				"element": "N" 
			},
			{
				"x": -1.0148621051,
				"y": 0.2502531076,
				"z": -1.8037507957,
				"element": "C" 
			},
			{
				"x": -0.3853788016,
				"y": -0.3817867581,
				"z": -0.6796977763,
				"element": "C" 
			},
			{
				"x": -0.905192137,
				"y": -1.5476845429,
				"z": -0.0624689545,
				"element": "C" 
			},
			{
				"x": -0.2611708102,
				"y": -2.1151062258,
				"z": 1.0152236867,
				"element": "C" 
			},
			{
				"x": 0.929548206,
				"y": -1.5428994453,
				"z": 1.5230158747,
				"element": "C" 
			},
			{
				"x": 1.4554359178,
				"y": -0.4113154971,
				"z": 0.9424002481,
				"element": "C" 
			},
			{
				"x": 0.8197070345,
				"y": 0.2025362481,
				"z": -0.1706390642,
				"element": "C" 
			},
			{
				"x": 1.3471039871,
				"y": 1.3705749925,
				"z": -0.7835099636,
				"element": "C" 
			},
			{
				"x": 0.7136759327,
				"y": 1.9480747146,
				"z": -1.8615305666,
				"element": "C" 
			},
			{
				"x": -0.4732526672,
				"y": 1.3899209039,
				"z": -2.3788369724,
				"element": "C" 
			},
			{
				"x": -1.8176812399,
				"y": -1.9893637262,
				"z": -0.4487517819,
				"element": "H" 
			},
			{
				"x": -0.6694296704,
				"y": -3.008014037,
				"z": 1.4790734291,
				"element": "H" 
			},
			{
				"x": 1.4267677869,
				"y": -2.0006140301,
				"z": 2.3730441081,
				"element": "H" 
			},
			{
				"x": 2.3694174957,
				"y": 0.0323848336,
				"z": 1.3280736534,
				"element": "H" 
			},
			{
				"x": 2.2615811362,
				"y": 1.8021088226,
				"z": -0.3863194311,
				"element": "H" 
			},
			{
				"x": 1.1233140523,
				"y": 2.8405598061,
				"z": -2.3241746872,
				"element": "H" 
			},
			{
				"x": -0.9741367948,
				"y": 1.8425905546,
				"z": -3.2275877677,
				"element": "H" 
			}
		],
		 "valence_orbital": [ 
			{
				"type": "occ",
				"energy": -0.30601,
				"method": "rhf"
			},
			{
				"type": "occ",
				"energy": -0.25939,
				"method": "rhf"
			},
			{
				"type": "occ",
				"energy": -0.25921,
				"method": "rhf"
			},
			{
				"type": "occ",
				"energy": -0.25159,
				"method": "rhf"
			},
			{
				"type": "occ",
				"energy": -0.21703,
				"method": "rhf"
			},
			{
				"type": "unocc",
				"energy": -0.06499,
				"method": "rhf"
			},
			{
				"type": "unocc",
				"energy": -0.02365,
				"method": "rhf"
			},
			{
				"type": "unocc",
				"energy": -0.00735,
				"method": "rhf"
			},
			{
				"type": "unocc",
				"energy": 0.0045,
				"method": "rhf"
			},
			{
				"type": "unocc",
				"energy": 0.05299,
				"method": "rhf"
			}
		],
		"cosmo_sigma_profile": { 
			"-0.025": 0.0,
			"-0.024": 0.0,
			"-0.023": 0.0,
			"-0.022": 0.0,
			"-0.021": 0.0,
			"-0.02": 0.0,
			"-0.019": 0.0,
			"-0.018": 0.0,
			"-0.017": 0.0,
			"-0.016": 0.0,
			"-0.015": 0.0,
			"-0.014": 0.0,
			"-0.013": 0.0,
			"-0.012": 0.0,
			"-0.011": 0.0,
			"-0.01": 0.0,
			"-0.009": 0.0,
			"-0.008": 0.493150990627,
			"-0.007": 5.39595663267,
			"-0.006": 14.9717266302,
			"-0.005": 15.720276775,
			"-0.004": 16.4876052489,
			"-0.003": 11.2267296296,
			"-0.002": 14.2259651864,
			"-0.001": 19.5622137781,
			"0.0": 16.2044293938,
			"0.001": 18.3959001689,
			"0.002": 21.8658284794,
			"0.003": 24.9209695504,
			"0.004": 18.2582218612,
			"0.005": 9.88589129057,
			"0.006": 13.2163970061,
			"0.007": 2.43205666394,
			"0.008": 0.0,
			"0.009": 0.0,
			"0.01": 0.0,
			"0.011": 0.0,
			"0.012": 0.0,
			"0.013": 0.0,
			"0.014": 0.0,
			"0.015": 0.0,
			"0.016": 0.0,
			"0.017": 0.0,
			"0.018": 0.0,
			"0.019": 0.0,
			"0.02": 0.0,
			"0.021": 0.0,
			"0.022": 0.0,
			"0.023": 0.0,
			"0.024": 0.0,
			"0.025": 0.0
		}
	}
}
