{
	 "smiles": "CC1=NN=C(NS(=O)(=O)C2=CC=C(N)C=C2)S1", 
	 "Tm": 481.15, 
	 "num_atms": 27, 
	 "gaussian": { 
		 "optdone": 1, 
		 "sigma_profile": "yes", 
		 "theory": "DFT", 
		 "functional": "B3LYP", 
		 "basiset": "6-31G**", 
		 "properties": { 
			 "R2extent": 6592.1845, 
			 "electric_dipole_moment_norm": 7.12268081975, 
			 "electric_quadrupole_moment_norm": 32.9206209302, 
			 "total_energy": -1514.71745277, 
			 "HOMO_LUMO_gap": 0.19503, 
			 "cosmo_polarized_energy": -23.91, 
			 "cosmo_cavitation_energy": 35.08, 
			 "cosmo_dispersion_energy": -26.35, 
			 "cosmo_repulsion_energy": 1.96, 
			 "cosmo_total_nonelectrostatic_energy": 10.69, 
			 "SMD_solvation_energy": 3.34 
		},
		"coords": [
			{
				"x": -1.5357575826,
				"y": -2.8199914529,
				"z": 5.3124470571,
				"element": "C" 
			},
			{
				"x": -1.3432277461,
				"y": -1.7275758088,
				"z": 4.3087672949,
				"element": "C" 
			},
			{
				"x": -1.5736287003,
				"y": -0.4730093364,
				"z": 4.5579027313,
				"element": "N" 
			},
			{
				"x": -1.2906075366,
				"y": 0.3566789855,
				"z": 3.5037381983,
				"element": "N" 
			},
			{
				"x": -0.8535374194,
				"y": -0.2930003069,
				"z": 2.4603593053,
				"element": "C" 
			},
			{
				"x": -0.6373644696,
				"y": 0.373139447,
				"z": 1.2522201327,
				"element": "N" 
			},
			{
				"x": 0.7339783507,
				"y": 0.0219887416,
				"z": 0.2583408903,
				"element": "S" 
			},
			{
				"x": 0.7637443372,
				"y": -1.440773494,
				"z": 0.1888199722,
				"element": "O" 
			},
			{
				"x": 1.9009942603,
				"y": 0.7796158465,
				"z": 0.7171772961,
				"element": "O" 
			},
			{
				"x": 0.1842836208,
				"y": 0.711884242,
				"z": -1.2775069125,
				"element": "C" 
			},
			{
				"x": -0.8236612894,
				"y": 0.0692837929,
				"z": -2.007574333,
				"element": "C" 
			},
			{
				"x": -1.2384509005,
				"y": 0.6012389722,
				"z": -3.2174202649,
				"element": "C" 
			},
			{
				"x": -0.6502107288,
				"y": 1.7811859219,
				"z": -3.7242502968,
				"element": "C" 
			},
			{
				"x": -1.0333987342,
				"y": 2.2822624546,
				"z": -4.9498008213,
				"element": "N" 
			},
			{
				"x": 0.3694342383,
				"y": 2.4072278362,
				"z": -2.9783885608,
				"element": "C" 
			},
			{
				"x": 0.7858921299,
				"y": 1.8759194934,
				"z": -1.7657006805,
				"element": "C" 
			},
			{
				"x": -0.7364836456,
				"y": -2.0279956999,
				"z": 2.6777363032,
				"element": "S" 
			},
			{
				"x": -2.249075676,
				"y": -3.5719189381,
				"z": 4.9591931836,
				"element": "H" 
			},
			{
				"x": -0.5927231498,
				"y": -3.3310456756,
				"z": 5.5333965386,
				"element": "H" 
			},
			{
				"x": -1.9185050715,
				"y": -2.3745722348,
				"z": 6.2327594664,
				"element": "H" 
			},
			{
				"x": -0.7501561729,
				"y": 1.3768525197,
				"z": 1.3905594214,
				"element": "H" 
			},
			{
				"x": -1.2733016654,
				"y": -0.841570716,
				"z": -1.6271029449,
				"element": "H" 
			},
			{
				"x": -2.0173778323,
				"y": 0.1037770705,
				"z": -3.7886389503,
				"element": "H" 
			},
			{
				"x": -0.7951436463,
				"y": 3.2392459107,
				"z": -5.1611409843,
				"element": "H" 
			},
			{
				"x": -1.9202313999,
				"y": 1.9811959262,
				"z": -5.3240960255,
				"element": "H" 
			},
			{
				"x": 0.8381351828,
				"y": 3.3089218155,
				"z": -3.3627011049,
				"element": "H" 
			},
			{
				"x": 1.5765812472,
				"y": 2.3503346871,
				"z": -1.1948959117,
				"element": "H" 
			}
		],
		 "valence_orbital": [ 
			{
				"type": "occ",
				"energy": -0.28312,
				"method": "rhf"
			},
			{
				"type": "occ",
				"energy": -0.27772,
				"method": "rhf"
			},
			{
				"type": "occ",
				"energy": -0.25721,
				"method": "rhf"
			},
			{
				"type": "occ",
				"energy": -0.24009,
				"method": "rhf"
			},
			{
				"type": "occ",
				"energy": -0.23131,
				"method": "rhf"
			},
			{
				"type": "unocc",
				"energy": -0.03628,
				"method": "rhf"
			},
			{
				"type": "unocc",
				"energy": -0.02622,
				"method": "rhf"
			},
			{
				"type": "unocc",
				"energy": -0.02164,
				"method": "rhf"
			},
			{
				"type": "unocc",
				"energy": 0.01468,
				"method": "rhf"
			},
			{
				"type": "unocc",
				"energy": 0.03697,
				"method": "rhf"
			}
		],
		"cosmo_sigma_profile": { 
			"-0.025": 0.0,
			"-0.024": 0.0,
			"-0.023": 0.0,
			"-0.022": 0.0,
			"-0.021": 0.0,
			"-0.02": 0.0,
			"-0.019": 0.0,
			"-0.018": 0.0,
			"-0.017": 0.216234983376,
			"-0.016": 0.984421920365,
			"-0.015": 0.662582343643,
			"-0.014": 1.83600083398,
			"-0.013": 3.88046433145,
			"-0.012": 4.0871974328,
			"-0.011": 4.52330974987,
			"-0.01": 3.9724762634,
			"-0.009": 4.07177206544,
			"-0.008": 4.33230547502,
			"-0.007": 7.79950180315,
			"-0.006": 16.7729627292,
			"-0.005": 16.6808427723,
			"-0.004": 14.1248759799,
			"-0.003": 16.390035732,
			"-0.002": 18.1379815475,
			"-0.001": 18.4552799184,
			"0.0": 17.2665175179,
			"0.001": 15.2562218052,
			"0.002": 18.5018244904,
			"0.003": 20.3381965513,
			"0.004": 13.6056801478,
			"0.005": 6.96070743925,
			"0.006": 5.04463514694,
			"0.007": 7.25401963505,
			"0.008": 5.86839139592,
			"0.009": 8.11524503371,
			"0.01": 11.210036389,
			"0.011": 8.04662742668,
			"0.012": 2.76894214431,
			"0.013": 2.86552467737,
			"0.014": 1.81002049893,
			"0.015": 0.601226041436,
			"0.016": 0.0,
			"0.017": 0.0,
			"0.018": 0.0,
			"0.019": 0.0,
			"0.02": 0.0,
			"0.021": 0.0,
			"0.022": 0.0,
			"0.023": 0.0,
			"0.024": 0.0,
			"0.025": 0.0
		}
	}
}
