{
	 "smiles": "OC(=O)C1=C(N2CCS(=O)(=O)N=C2S1)C1=CC=CC=C1", 
	 "Tm": 518.15, 
	 "num_atms": 30, 
	 "gaussian": { 
		 "optdone": 1, 
		 "sigma_profile": "yes", 
		 "theory": "DFT", 
		 "functional": "B3LYP", 
		 "basiset": "6-31G**", 
		 "properties": { 
			 "R2extent": 6818.5548, 
			 "electric_dipole_moment_norm": 10.508566771, 
			 "electric_quadrupole_moment_norm": 20.7098943966, 
			 "total_energy": -1670.00720018, 
			 "HOMO_LUMO_gap": 0.16014, 
			 "cosmo_polarized_energy": -28.89, 
			 "cosmo_cavitation_energy": 37.18, 
			 "cosmo_dispersion_energy": -27.35, 
			 "cosmo_repulsion_energy": 2.02, 
			 "cosmo_total_nonelectrostatic_energy": 11.85, 
			 "SMD_solvation_energy": 4.85 
		},
		"coords": [
			{
				"x": 2.8362524309,
				"y": 2.3719281353,
				"z": -0.4086205716,
				"element": "O" 
			},
			{
				"x": 1.7282020529,
				"y": 2.9366400668,
				"z": 0.1212531226,
				"element": "C" 
			},
			{
				"x": 1.7096666438,
				"y": 4.0714571055,
				"z": 0.5603513762,
				"element": "O" 
			},
			{
				"x": 0.5483853496,
				"y": 2.0662155837,
				"z": 0.1293219411,
				"element": "C" 
			},
			{
				"x": 0.3661641678,
				"y": 0.7832346519,
				"z": -0.2962717749,
				"element": "C" 
			},
			{
				"x": -0.9265428238,
				"y": 0.3150990974,
				"z": -0.0465172182,
				"element": "N" 
			},
			{
				"x": -1.4066095547,
				"y": -1.0248451857,
				"z": -0.4341901131,
				"element": "C" 
			},
			{
				"x": -2.8962043928,
				"y": -0.9895977547,
				"z": -0.7535720984,
				"element": "C" 
			},
			{
				"x": -3.7825245937,
				"y": -0.3716946911,
				"z": 0.7055163653,
				"element": "S" 
			},
			{
				"x": -3.4775466851,
				"y": -1.2959321865,
				"z": 1.8053054127,
				"element": "O" 
			},
			{
				"x": -5.1651881574,
				"y": -0.0818130745,
				"z": 0.3390951029,
				"element": "O" 
			},
			{
				"x": -3.0023798936,
				"y": 1.0843046457,
				"z": 0.9617684619,
				"element": "N" 
			},
			{
				"x": -1.7651743521,
				"y": 1.2172200529,
				"z": 0.6015904671,
				"element": "C" 
			},
			{
				"x": -0.9074993495,
				"y": 2.734643928,
				"z": 0.8723337365,
				"element": "S" 
			},
			{
				"x": 1.3520625725,
				"y": -0.114143576,
				"z": -0.9508289832,
				"element": "C" 
			},
			{
				"x": 1.8937157515,
				"y": -1.1993393972,
				"z": -0.2452799558,
				"element": "C" 
			},
			{
				"x": 2.8064887357,
				"y": -2.0521027946,
				"z": -0.8649637642,
				"element": "C" 
			},
			{
				"x": 3.1803931117,
				"y": -1.8324082002,
				"z": -2.1923932262,
				"element": "C" 
			},
			{
				"x": 2.6431198376,
				"y": -0.7545778915,
				"z": -2.8989248381,
				"element": "C" 
			},
			{
				"x": 1.7335938634,
				"y": 0.1038297439,
				"z": -2.2820655313,
				"element": "C" 
			},
			{
				"x": 3.5317304492,
				"y": 3.047549977,
				"z": -0.3401199385,
				"element": "H" 
			},
			{
				"x": -1.2257690758,
				"y": -1.7280493681,
				"z": 0.3850630359,
				"element": "H" 
			},
			{
				"x": -0.8348773069,
				"y": -1.3504148074,
				"z": -1.3041596143,
				"element": "H" 
			},
			{
				"x": -3.1344448402,
				"y": -0.3300917192,
				"z": -1.5916623888,
				"element": "H" 
			},
			{
				"x": -3.269332904,
				"y": -1.9947860737,
				"z": -0.9593727148,
				"element": "H" 
			},
			{
				"x": 1.6105050478,
				"y": -1.3646722588,
				"z": 0.7902624238,
				"element": "H" 
			},
			{
				"x": 3.2271469894,
				"y": -2.8849748497,
				"z": -0.3097689608,
				"element": "H" 
			},
			{
				"x": 3.8901184835,
				"y": -2.498383712,
				"z": -2.6740359253,
				"element": "H" 
			},
			{
				"x": 2.9332898106,
				"y": -0.5795698619,
				"z": -3.9304959454,
				"element": "H" 
			},
			{
				"x": 1.3200586317,
				"y": 0.9470744148,
				"z": -2.8261178831,
				"element": "H" 
			}
		],
		 "valence_orbital": [ 
			{
				"type": "occ",
				"energy": -0.29507,
				"method": "rhf"
			},
			{
				"type": "occ",
				"energy": -0.2832,
				"method": "rhf"
			},
			{
				"type": "occ",
				"energy": -0.28263,
				"method": "rhf"
			},
			{
				"type": "occ",
				"energy": -0.27932,
				"method": "rhf"
			},
			{
				"type": "occ",
				"energy": -0.23174,
				"method": "rhf"
			},
			{
				"type": "unocc",
				"energy": -0.0716,
				"method": "rhf"
			},
			{
				"type": "unocc",
				"energy": -0.04108,
				"method": "rhf"
			},
			{
				"type": "unocc",
				"energy": -0.03416,
				"method": "rhf"
			},
			{
				"type": "unocc",
				"energy": -0.01477,
				"method": "rhf"
			},
			{
				"type": "unocc",
				"energy": -0.0003,
				"method": "rhf"
			}
		],
		"cosmo_sigma_profile": { 
			"-0.025": 0.0,
			"-0.024": 0.0,
			"-0.023": 0.0,
			"-0.022": 0.0,
			"-0.021": 0.0,
			"-0.02": 0.0,
			"-0.019": 0.417582918556,
			"-0.018": 0.864680714677,
			"-0.017": 0.860401772423,
			"-0.016": 1.43069630353,
			"-0.015": 0.550940412292,
			"-0.014": 0.0349016875229,
			"-0.013": 0.201074849191,
			"-0.012": 1.29121617102,
			"-0.011": 1.16232853173,
			"-0.01": 3.5740657063,
			"-0.009": 7.83202291326,
			"-0.008": 12.5709093357,
			"-0.007": 15.3447072797,
			"-0.006": 20.796297972,
			"-0.005": 20.6458221,
			"-0.004": 16.3216330542,
			"-0.003": 18.0768388907,
			"-0.002": 15.8528653743,
			"-0.001": 13.3083107348,
			"0.0": 15.7562303987,
			"0.001": 17.4725839881,
			"0.002": 16.5755762217,
			"0.003": 13.4205697008,
			"0.004": 11.3118816052,
			"0.005": 7.71275905754,
			"0.006": 6.90459590491,
			"0.007": 8.25605765513,
			"0.008": 6.33479932275,
			"0.009": 6.83456995386,
			"0.01": 9.69258779664,
			"0.011": 18.3024620713,
			"0.012": 9.80716108694,
			"0.013": 0.460381739621,
			"0.014": 0.0,
			"0.015": 0.0,
			"0.016": 0.0,
			"0.017": 0.0,
			"0.018": 0.0,
			"0.019": 0.0,
			"0.02": 0.0,
			"0.021": 0.0,
			"0.022": 0.0,
			"0.023": 0.0,
			"0.024": 0.0,
			"0.025": 0.0
		}
	}
}
