{
	 "smiles": "CCOC(=O)C=CC1=CC=C(C=C1)[N+]([O-])=O", 
	 "Tm": 412.15, 
	 "num_atms": 27, 
	 "gaussian": { 
		 "optdone": 1, 
		 "sigma_profile": "yes", 
		 "theory": "DFT", 
		 "functional": "B3LYP", 
		 "basiset": "6-31G**", 
		 "properties": { 
			 "R2extent": 8207.5515, 
			 "electric_dipole_moment_norm": 4.28884243357, 
			 "electric_quadrupole_moment_norm": 26.2562772708, 
			 "total_energy": -781.350128779, 
			 "HOMO_LUMO_gap": 0.15371, 
			 "cosmo_polarized_energy": -13.55, 
			 "cosmo_cavitation_energy": 33.28, 
			 "cosmo_dispersion_energy": -23.85, 
			 "cosmo_repulsion_energy": 1.87, 
			 "cosmo_total_nonelectrostatic_energy": 11.3, 
			 "SMD_solvation_energy": 9.27 
		},
		"coords": [
			{
				"x": -1.2033681719,
				"y": -2.2626250107,
				"z": 2.9860355029,
				"element": "C" 
			},
			{
				"x": -1.2458871261,
				"y": -0.7624875134,
				"z": 3.2051001111,
				"element": "C" 
			},
			{
				"x": -0.6734301843,
				"y": -0.1351128975,
				"z": 2.0348805908,
				"element": "O" 
			},
			{
				"x": -0.6292191538,
				"y": 1.2165103259,
				"z": 2.0569132067,
				"element": "C" 
			},
			{
				"x": -1.0361754484,
				"y": 1.8894035101,
				"z": 2.9852600453,
				"element": "O" 
			},
			{
				"x": -0.0343166896,
				"y": 1.8023101131,
				"z": 0.8351035089,
				"element": "C" 
			},
			{
				"x": 0.4222022528,
				"y": 1.0814156678,
				"z": -0.2046116927,
				"element": "C" 
			},
			{
				"x": 1.019976956,
				"y": 1.5982294778,
				"z": -1.4390345988,
				"element": "C" 
			},
			{
				"x": 1.4383713844,
				"y": 0.676993241,
				"z": -2.4187158543,
				"element": "C" 
			},
			{
				"x": 2.0128951196,
				"y": 1.1002076996,
				"z": -3.6118541567,
				"element": "C" 
			},
			{
				"x": 2.1701754375,
				"y": 2.4672301241,
				"z": -3.8256316961,
				"element": "C" 
			},
			{
				"x": 1.7687796888,
				"y": 3.4124818897,
				"z": -2.8800429954,
				"element": "C" 
			},
			{
				"x": 1.1970434517,
				"y": 2.9737554845,
				"z": -1.6942932259,
				"element": "C" 
			},
			{
				"x": 2.7764218665,
				"y": 2.9285166304,
				"z": -5.0831830442,
				"element": "N" 
			},
			{
				"x": 3.1205187559,
				"y": 2.0724693192,
				"z": -5.8977308337,
				"element": "O" 
			},
			{
				"x": 2.9022998766,
				"y": 4.1422330353,
				"z": -5.2434705569,
				"element": "O" 
			},
			{
				"x": -0.1748195506,
				"y": -2.6103846482,
				"z": 2.8529990457,
				"element": "H" 
			},
			{
				"x": -1.7813197398,
				"y": -2.5462201036,
				"z": 2.1016739709,
				"element": "H" 
			},
			{
				"x": -1.6296329029,
				"y": -2.775591553,
				"z": 3.8536641815,
				"element": "H" 
			},
			{
				"x": -2.2679714503,
				"y": -0.39400595,
				"z": 3.3381043987,
				"element": "H" 
			},
			{
				"x": -0.6708272335,
				"y": -0.4578222349,
				"z": 4.0852140784,
				"element": "H" 
			},
			{
				"x": -0.0012851227,
				"y": 2.8866166363,
				"z": 0.8585253038,
				"element": "H" 
			},
			{
				"x": 0.3464249677,
				"y": -0.001076623,
				"z": -0.1369139479,
				"element": "H" 
			},
			{
				"x": 1.3087267297,
				"y": -0.3858451613,
				"z": -2.2367022625,
				"element": "H" 
			},
			{
				"x": 2.337775545,
				"y": 0.4002272374,
				"z": -4.3712334244,
				"element": "H" 
			},
			{
				"x": 1.9106194025,
				"y": 4.4653451405,
				"z": -3.0889341128,
				"element": "H" 
			},
			{
				"x": 0.8852213391,
				"y": 3.7079261626,
				"z": -0.9594215426,
				"element": "H" 
			}
		],
		 "valence_orbital": [ 
			{
				"type": "occ",
				"energy": -0.30546,
				"method": "rhf"
			},
			{
				"type": "occ",
				"energy": -0.29505,
				"method": "rhf"
			},
			{
				"type": "occ",
				"energy": -0.28709,
				"method": "rhf"
			},
			{
				"type": "occ",
				"energy": -0.27865,
				"method": "rhf"
			},
			{
				"type": "occ",
				"energy": -0.26032,
				"method": "rhf"
			},
			{
				"type": "unocc",
				"energy": -0.10661,
				"method": "rhf"
			},
			{
				"type": "unocc",
				"energy": -0.05772,
				"method": "rhf"
			},
			{
				"type": "unocc",
				"energy": -0.03467,
				"method": "rhf"
			},
			{
				"type": "unocc",
				"energy": 0.01516,
				"method": "rhf"
			},
			{
				"type": "unocc",
				"energy": 0.0739,
				"method": "rhf"
			}
		],
		"cosmo_sigma_profile": { 
			"-0.025": 0.0,
			"-0.024": 0.0,
			"-0.023": 0.0,
			"-0.022": 0.0,
			"-0.021": 0.0,
			"-0.02": 0.0,
			"-0.019": 0.0,
			"-0.018": 0.0,
			"-0.017": 0.0,
			"-0.016": 0.0271419943382,
			"-0.015": 0.117233552417,
			"-0.014": 0.210860501209,
			"-0.013": 0.322199454845,
			"-0.012": 0.870896353223,
			"-0.011": 0.66951609961,
			"-0.01": 0.580782777359,
			"-0.009": 1.85019747026,
			"-0.008": 6.09722650405,
			"-0.007": 8.46997988867,
			"-0.006": 10.2704418305,
			"-0.005": 13.9996284547,
			"-0.004": 20.5585271954,
			"-0.003": 21.5708658179,
			"-0.002": 23.1489094578,
			"-0.001": 25.6656549421,
			"0.0": 30.0113431387,
			"0.001": 26.4539022446,
			"0.002": 12.1961545862,
			"0.003": 6.42818740793,
			"0.004": 5.29487027114,
			"0.005": 7.38433361855,
			"0.006": 5.88627943741,
			"0.007": 9.29412504447,
			"0.008": 8.69623973999,
			"0.009": 5.9651728857,
			"0.01": 4.36665337485,
			"0.011": 2.52012176038,
			"0.012": 5.11453234337,
			"0.013": 1.71512589124,
			"0.014": 0.0148727151589,
			"0.015": 0.0,
			"0.016": 0.0,
			"0.017": 0.0,
			"0.018": 0.0,
			"0.019": 0.0,
			"0.02": 0.0,
			"0.021": 0.0,
			"0.022": 0.0,
			"0.023": 0.0,
			"0.024": 0.0,
			"0.025": 0.0
		}
	}
}
