{
	 "smiles": "ClC1=C2C=CC=CC2=C(Cl)C2=CC=CC=C12", 
	 "Tm": 485.65, 
	 "num_atms": 24, 
	 "gaussian": { 
		 "optdone": 1, 
		 "sigma_profile": "yes", 
		 "theory": "DFT", 
		 "functional": "B3LYP", 
		 "basiset": "6-31G**", 
		 "properties": { 
			 "R2extent": 4418.7015, 
			 "electric_dipole_moment_norm": 0.0, 
			 "electric_quadrupole_moment_norm": 13.0279256768, 
			 "total_energy": -1458.70897254, 
			 "HOMO_LUMO_gap": 0.12406, 
			 "cosmo_polarized_energy": -4.31, 
			 "cosmo_cavitation_energy": 30.26, 
			 "cosmo_dispersion_energy": -23.18, 
			 "cosmo_repulsion_energy": 1.73, 
			 "cosmo_total_nonelectrostatic_energy": 8.81, 
			 "SMD_solvation_energy": 4.13 
		},
		"coords": [
			{
				"x": 1.5193876756,
				"y": -2.14987568,
				"z": -0.8648531754,
				"element": "Cl" 
			},
			{
				"x": 0.3533017588,
				"y": -1.0940305066,
				"z": -0.0693100302,
				"element": "C" 
			},
			{
				"x": -0.3043106412,
				"y": -1.5642112362,
				"z": 1.0807280919,
				"element": "C" 
			},
			{
				"x": -0.0729692468,
				"y": -2.8609578647,
				"z": 1.6385287524,
				"element": "C" 
			},
			{
				"x": -0.7344357816,
				"y": -3.2812835273,
				"z": 2.7606774912,
				"element": "C" 
			},
			{
				"x": -1.6746709864,
				"y": -2.4299595779,
				"z": 3.402164077,
				"element": "C" 
			},
			{
				"x": -1.9290397811,
				"y": -1.1803966973,
				"z": 2.9048507526,
				"element": "C" 
			},
			{
				"x": -1.2634130825,
				"y": -0.6957941898,
				"z": 1.735098715,
				"element": "C" 
			},
			{
				"x": -1.4954016712,
				"y": 0.5798714459,
				"z": 1.191999514,
				"element": "C" 
			},
			{
				"x": -2.6614868469,
				"y": 1.6357198605,
				"z": 1.9875440206,
				"element": "Cl" 
			},
			{
				"x": -0.8377905106,
				"y": 1.0500520152,
				"z": 0.0419601678,
				"element": "C" 
			},
			{
				"x": -1.0691298195,
				"y": 2.3467993397,
				"z": -0.515836314,
				"element": "C" 
			},
			{
				"x": -0.4076636204,
				"y": 2.7671260944,
				"z": -1.6379855194,
				"element": "C" 
			},
			{
				"x": 0.5325709634,
				"y": 1.9158011518,
				"z": -2.2794723069,
				"element": "C" 
			},
			{
				"x": 0.7869389991,
				"y": 0.6662387683,
				"z": -1.7821590336,
				"element": "C" 
			},
			{
				"x": 0.121312874,
				"y": 0.1816348574,
				"z": -0.6124064324,
				"element": "C" 
			},
			{
				"x": 0.6426709107,
				"y": -3.5118446842,
				"z": 1.1522176426,
				"element": "H" 
			},
			{
				"x": -0.5400121049,
				"y": -4.270741547,
				"z": 3.1634146233,
				"element": "H" 
			},
			{
				"x": -2.1939937402,
				"y": -2.7731685986,
				"z": 4.2918491418,
				"element": "H" 
			},
			{
				"x": -2.6458633263,
				"y": -0.5343159296,
				"z": 3.395806066,
				"element": "H" 
			},
			{
				"x": -1.7847687225,
				"y": 2.9976856534,
				"z": -0.0295230674,
				"element": "H" 
			},
			{
				"x": -0.6020884688,
				"y": 3.7565841923,
				"z": -2.0407212965,
				"element": "H" 
			},
			{
				"x": 1.051893608,
				"y": 2.2590101745,
				"z": -3.1691573707,
				"element": "H" 
			},
			{
				"x": 1.5037615612,
				"y": 0.0201564857,
				"z": -2.2731145098,
				"element": "H" 
			}
		],
		 "valence_orbital": [ 
			{
				"type": "occ",
				"energy": -0.30123,
				"method": "rhf"
			},
			{
				"type": "occ",
				"energy": -0.28291,
				"method": "rhf"
			},
			{
				"type": "occ",
				"energy": -0.26671,
				"method": "rhf"
			},
			{
				"type": "occ",
				"energy": -0.25479,
				"method": "rhf"
			},
			{
				"type": "occ",
				"energy": -0.20352,
				"method": "rhf"
			},
			{
				"type": "unocc",
				"energy": -0.07946,
				"method": "rhf"
			},
			{
				"type": "unocc",
				"energy": -0.02837,
				"method": "rhf"
			},
			{
				"type": "unocc",
				"energy": -0.00464,
				"method": "rhf"
			},
			{
				"type": "unocc",
				"energy": 0.02774,
				"method": "rhf"
			},
			{
				"type": "unocc",
				"energy": 0.03096,
				"method": "rhf"
			}
		],
		"cosmo_sigma_profile": { 
			"-0.025": 0.0,
			"-0.024": 0.0,
			"-0.023": 0.0,
			"-0.022": 0.0,
			"-0.021": 0.0,
			"-0.02": 0.0,
			"-0.019": 0.0,
			"-0.018": 0.0,
			"-0.017": 0.0,
			"-0.016": 0.0,
			"-0.015": 0.0,
			"-0.014": 0.0,
			"-0.013": 0.0,
			"-0.012": 0.0,
			"-0.011": 0.0,
			"-0.01": 0.0,
			"-0.009": 0.0,
			"-0.008": 0.0,
			"-0.007": 2.98784102844,
			"-0.006": 11.3328072951,
			"-0.005": 16.4217385569,
			"-0.004": 15.5671408511,
			"-0.003": 11.8009178029,
			"-0.002": 14.811182182,
			"-0.001": 14.2111626628,
			"0.0": 24.6727688208,
			"0.001": 46.5888127,
			"0.002": 35.3119005091,
			"0.003": 30.4517146275,
			"0.004": 22.309253515,
			"0.005": 2.67126633522,
			"0.006": 0.0,
			"0.007": 0.0,
			"0.008": 0.0,
			"0.009": 0.0,
			"0.01": 0.0,
			"0.011": 0.0,
			"0.012": 0.0,
			"0.013": 0.0,
			"0.014": 0.0,
			"0.015": 0.0,
			"0.016": 0.0,
			"0.017": 0.0,
			"0.018": 0.0,
			"0.019": 0.0,
			"0.02": 0.0,
			"0.021": 0.0,
			"0.022": 0.0,
			"0.023": 0.0,
			"0.024": 0.0,
			"0.025": 0.0
		}
	}
}
