{
	 "smiles": "OC(=O)C1CC1C1=C(Cl)C(Cl)=CC=C1", 
	 "Tm": 398.15, 
	 "num_atms": 22, 
	 "gaussian": { 
		 "optdone": 1, 
		 "sigma_profile": "yes", 
		 "theory": "DFT", 
		 "functional": "B3LYP", 
		 "basiset": "6-31G**", 
		 "properties": { 
			 "R2extent": 4399.8234, 
			 "electric_dipole_moment_norm": 5.20636501025, 
			 "electric_quadrupole_moment_norm": 13.6246201639, 
			 "total_energy": -1456.69769299, 
			 "HOMO_LUMO_gap": 0.22131, 
			 "cosmo_polarized_energy": -15.86, 
			 "cosmo_cavitation_energy": 29.89, 
			 "cosmo_dispersion_energy": -21.36, 
			 "cosmo_repulsion_energy": 1.67, 
			 "cosmo_total_nonelectrostatic_energy": 10.2, 
			 "SMD_solvation_energy": 5.35 
		},
		"coords": [
			{
				"x": -4.1904694489,
				"y": -1.0851573626,
				"z": -1.6257940236,
				"element": "O" 
			},
			{
				"x": -2.9623328943,
				"y": -1.6634508827,
				"z": -1.6405665658,
				"element": "C" 
			},
			{
				"x": -2.8547181332,
				"y": -2.864327559,
				"z": -1.7271593939,
				"element": "O" 
			},
			{
				"x": -1.7923238185,
				"y": -0.7376803259,
				"z": -1.5331011758,
				"element": "C" 
			},
			{
				"x": -0.4704094396,
				"y": -1.2151750633,
				"z": -2.1010614462,
				"element": "C" 
			},
			{
				"x": -0.6520694832,
				"y": -1.1930719895,
				"z": -0.6189616214,
				"element": "C" 
			},
			{
				"x": 0.0440237428,
				"y": -0.2038008758,
				"z": 0.2603181457,
				"element": "C" 
			},
			{
				"x": -0.545744741,
				"y": 0.2295816529,
				"z": 1.4646102747,
				"element": "C" 
			},
			{
				"x": -2.1225657869,
				"y": -0.3812515053,
				"z": 1.911966123,
				"element": "Cl" 
			},
			{
				"x": 0.1197576794,
				"y": 1.1415492823,
				"z": 2.2952013735,
				"element": "C" 
			},
			{
				"x": -0.5941742358,
				"y": 1.7004155586,
				"z": 3.789389131,
				"element": "Cl" 
			},
			{
				"x": 1.3792209669,
				"y": 1.6276953803,
				"z": 1.9382662343,
				"element": "C" 
			},
			{
				"x": 1.9720302571,
				"y": 1.1993313458,
				"z": 0.7547575371,
				"element": "C" 
			},
			{
				"x": 1.3098629525,
				"y": 0.2926144538,
				"z": -0.0710087715,
				"element": "C" 
			},
			{
				"x": -4.1104145174,
				"y": -0.1291118844,
				"z": -1.5026545186,
				"element": "H" 
			},
			{
				"x": -1.9834806753,
				"y": 0.3320614614,
				"z": -1.5668012163,
				"element": "H" 
			},
			{
				"x": 0.1550048653,
				"y": -0.4623251271,
				"z": -2.5698636527,
				"element": "H" 
			},
			{
				"x": -0.4889143418,
				"y": -2.1837264598,
				"z": -2.5888211104,
				"element": "H" 
			},
			{
				"x": -0.848261536,
				"y": -2.1605270427,
				"z": -0.1616099445,
				"element": "H" 
			},
			{
				"x": 1.878439249,
				"y": 2.3322990448,
				"z": 2.5936762522,
				"element": "H" 
			},
			{
				"x": 2.9544158406,
				"y": 1.5701971,
				"z": 0.4800243028,
				"element": "H" 
			},
			{
				"x": 1.7816234986,
				"y": -0.0517392019,
				"z": -0.9852059334,
				"element": "H" 
			}
		],
		 "valence_orbital": [ 
			{
				"type": "occ",
				"energy": -0.31245,
				"method": "rhf"
			},
			{
				"type": "occ",
				"energy": -0.30564,
				"method": "rhf"
			},
			{
				"type": "occ",
				"energy": -0.27703,
				"method": "rhf"
			},
			{
				"type": "occ",
				"energy": -0.26096,
				"method": "rhf"
			},
			{
				"type": "occ",
				"energy": -0.25759,
				"method": "rhf"
			},
			{
				"type": "unocc",
				"energy": -0.03628,
				"method": "rhf"
			},
			{
				"type": "unocc",
				"energy": -0.03059,
				"method": "rhf"
			},
			{
				"type": "unocc",
				"energy": -0.00357,
				"method": "rhf"
			},
			{
				"type": "unocc",
				"energy": 0.00846,
				"method": "rhf"
			},
			{
				"type": "unocc",
				"energy": 0.05248,
				"method": "rhf"
			}
		],
		"cosmo_sigma_profile": { 
			"-0.025": 0.0,
			"-0.024": 0.0,
			"-0.023": 0.0,
			"-0.022": 0.0,
			"-0.021": 0.0,
			"-0.02": 0.0694778404735,
			"-0.019": 0.856299333872,
			"-0.018": 0.925650172794,
			"-0.017": 0.637934068267,
			"-0.016": 1.55832860382,
			"-0.015": 0.677729207421,
			"-0.014": 0.915744431214,
			"-0.013": 0.885908591057,
			"-0.012": 1.11222575557,
			"-0.011": 1.10257482495,
			"-0.01": 1.36367709703,
			"-0.009": 0.92690485332,
			"-0.008": 2.35462367661,
			"-0.007": 9.35727220065,
			"-0.006": 11.1185724673,
			"-0.005": 13.6505218454,
			"-0.004": 10.1415982577,
			"-0.003": 12.6456361384,
			"-0.002": 15.0249070488,
			"-0.001": 17.7642702911,
			"0.0": 24.921305499,
			"0.001": 23.5588248318,
			"0.002": 20.8637424671,
			"0.003": 19.0789351904,
			"0.004": 16.1259236186,
			"0.005": 7.71706516231,
			"0.006": 3.54572619988,
			"0.007": 1.75271705956,
			"0.008": 2.51401958726,
			"0.009": 3.29628508683,
			"0.01": 3.95529486177,
			"0.011": 4.6150338683,
			"0.012": 5.06856952047,
			"0.013": 2.46530669536,
			"0.014": 0.290150538553,
			"0.015": 0.0,
			"0.016": 0.0,
			"0.017": 0.0,
			"0.018": 0.0,
			"0.019": 0.0,
			"0.02": 0.0,
			"0.021": 0.0,
			"0.022": 0.0,
			"0.023": 0.0,
			"0.024": 0.0,
			"0.025": 0.0
		}
	}
}
