{
	 "smiles": "CC1=CC(Br)=CN=C1F", 
	 "Tm": 335.15, 
	 "num_atms": 14, 
	 "gaussian": { 
		 "optdone": 1, 
		 "sigma_profile": "yes", 
		 "theory": "DFT", 
		 "functional": "B3LYP", 
		 "basiset": "6-31G**", 
		 "properties": { 
			 "R2extent": 2618.4874, 
			 "electric_dipole_moment_norm": 2.40498730558, 
			 "electric_quadrupole_moment_norm": 5.28282560757, 
			 "total_energy": -2957.64719417, 
			 "HOMO_LUMO_gap": 0.20926, 
			 "cosmo_polarized_energy": -5.56, 
			 "cosmo_cavitation_energy": 21.03, 
			 "cosmo_dispersion_energy": -15.92, 
			 "cosmo_repulsion_energy": 1.28, 
			 "cosmo_total_nonelectrostatic_energy": 6.39, 
			 "SMD_solvation_energy": 1.56 
		},
		"coords": [
			{
				"x": 1.8162709734,
				"y": -0.5811080487,
				"z": 0.7158846522,
				"element": "C" 
			},
			{
				"x": 0.3602106053,
				"y": -0.2735539917,
				"z": 0.4946874042,
				"element": "C" 
			},
			{
				"x": -0.0945529999,
				"y": 0.8506655036,
				"z": -0.1919021274,
				"element": "C" 
			},
			{
				"x": -1.4687431779,
				"y": 1.0510106296,
				"z": -0.3465888274,
				"element": "C" 
			},
			{
				"x": -2.1221621815,
				"y": 2.5782240417,
				"z": -1.2799657135,
				"element": "Br" 
			},
			{
				"x": -2.3611929278,
				"y": 0.126893195,
				"z": 0.1860969926,
				"element": "C" 
			},
			{
				"x": -1.9388671628,
				"y": -0.959272492,
				"z": 0.8490452096,
				"element": "N" 
			},
			{
				"x": -0.6439699509,
				"y": -1.1248521985,
				"z": 0.9809330707,
				"element": "C" 
			},
			{
				"x": -0.2504316044,
				"y": -2.2231220498,
				"z": 1.6505961399,
				"element": "F" 
			},
			{
				"x": 2.0850688841,
				"y": -1.5472773817,
				"z": 0.2762620772,
				"element": "H" 
			},
			{
				"x": 2.4512001694,
				"y": 0.1884328978,
				"z": 0.2706270387,
				"element": "H" 
			},
			{
				"x": 2.0468304131,
				"y": -0.643132395,
				"z": 1.7845138783,
				"element": "H" 
			},
			{
				"x": 0.6127727504,
				"y": 1.5636476693,
				"z": -0.6023729616,
				"element": "H" 
			},
			{
				"x": -3.4340337905,
				"y": 0.2575446204,
				"z": 0.0807831666,
				"element": "H" 
			}
		],
		 "valence_orbital": [ 
			{
				"type": "occ",
				"energy": -0.33163,
				"method": "rhf"
			},
			{
				"type": "occ",
				"energy": -0.30324,
				"method": "rhf"
			},
			{
				"type": "occ",
				"energy": -0.29147,
				"method": "rhf"
			},
			{
				"type": "occ",
				"energy": -0.28398,
				"method": "rhf"
			},
			{
				"type": "occ",
				"energy": -0.25012,
				"method": "rhf"
			},
			{
				"type": "unocc",
				"energy": -0.04086,
				"method": "rhf"
			},
			{
				"type": "unocc",
				"energy": -0.02316,
				"method": "rhf"
			},
			{
				"type": "unocc",
				"energy": -0.00225,
				"method": "rhf"
			},
			{
				"type": "unocc",
				"energy": 0.10124,
				"method": "rhf"
			},
			{
				"type": "unocc",
				"energy": 0.11621,
				"method": "rhf"
			}
		],
		"cosmo_sigma_profile": { 
			"-0.025": 0.0,
			"-0.024": 0.0,
			"-0.023": 0.0,
			"-0.022": 0.0,
			"-0.021": 0.0,
			"-0.02": 0.0,
			"-0.019": 0.0,
			"-0.018": 0.0,
			"-0.017": 0.0,
			"-0.016": 0.0,
			"-0.015": 0.0,
			"-0.014": 0.0,
			"-0.013": 0.0,
			"-0.012": 0.0,
			"-0.011": 0.0,
			"-0.01": 0.0,
			"-0.009": 0.182056744805,
			"-0.008": 3.6348371908,
			"-0.007": 3.65692608892,
			"-0.006": 5.15345719467,
			"-0.005": 10.3490194749,
			"-0.004": 9.27367304612,
			"-0.003": 12.4167935611,
			"-0.002": 17.8784246303,
			"-0.001": 20.9463174543,
			"0.0": 19.0569005095,
			"0.001": 12.8467845459,
			"0.002": 9.56289743567,
			"0.003": 14.1080877018,
			"0.004": 17.8329729153,
			"0.005": 4.39803406801,
			"0.006": 1.94495972222,
			"0.007": 1.35872352095,
			"0.008": 1.33008420516,
			"0.009": 1.56986972558,
			"0.01": 0.860562229799,
			"0.011": 1.31503061529,
			"0.012": 0.884942197774,
			"0.013": 0.900407900266,
			"0.014": 0.660000460767,
			"0.015": 0.0,
			"0.016": 0.0,
			"0.017": 0.0,
			"0.018": 0.0,
			"0.019": 0.0,
			"0.02": 0.0,
			"0.021": 0.0,
			"0.022": 0.0,
			"0.023": 0.0,
			"0.024": 0.0,
			"0.025": 0.0
		}
	}
}
