{
	 "smiles": "OC(=O)CN1C2=C(C=C1C1=CC=CC=C1)C=CC=C2", 
	 "Tm": 419.15, 
	 "num_atms": 32, 
	 "gaussian": { 
		 "optdone": 1, 
		 "sigma_profile": "yes", 
		 "theory": "DFT", 
		 "functional": "B3LYP", 
		 "basiset": "6-31G**", 
		 "properties": { 
			 "R2extent": 5533.4247, 
			 "electric_dipole_moment_norm": 2.01611378895, 
			 "electric_quadrupole_moment_norm": 10.7290215388, 
			 "total_energy": -822.757273666, 
			 "HOMO_LUMO_gap": 0.16623, 
			 "cosmo_polarized_energy": -13.19, 
			 "cosmo_cavitation_energy": 35.9, 
			 "cosmo_dispersion_energy": -25.35, 
			 "cosmo_repulsion_energy": 1.94, 
			 "cosmo_total_nonelectrostatic_energy": 12.48, 
			 "SMD_solvation_energy": 6.87 
		},
		"coords": [
			{
				"x": 1.0477671768,
				"y": 2.3556384706,
				"z": 0.8289176183,
				"element": "O" 
			},
			{
				"x": 0.1180994608,
				"y": 1.8702263212,
				"z": 1.6796794409,
				"element": "C" 
			},
			{
				"x": 0.0845669944,
				"y": 2.1458947801,
				"z": 2.8570507069,
				"element": "O" 
			},
			{
				"x": -0.9101732187,
				"y": 0.9785460763,
				"z": 0.9875190452,
				"element": "C" 
			},
			{
				"x": -0.3834650189,
				"y": 0.1323801707,
				"z": -0.0578657856,
				"element": "N" 
			},
			{
				"x": 0.3482153967,
				"y": -1.0166452998,
				"z": 0.2035532221,
				"element": "C" 
			},
			{
				"x": 0.4979105468,
				"y": -1.7294846022,
				"z": -1.0161961121,
				"element": "C" 
			},
			{
				"x": -0.1868961256,
				"y": -0.971564345,
				"z": -2.0194134698,
				"element": "C" 
			},
			{
				"x": -0.7145936937,
				"y": 0.1506972962,
				"z": -1.4211635481,
				"element": "C" 
			},
			{
				"x": -1.4841518307,
				"y": 1.2312585759,
				"z": -2.0584551341,
				"element": "C" 
			},
			{
				"x": -1.199779052,
				"y": 2.5907052354,
				"z": -1.8291985521,
				"element": "C" 
			},
			{
				"x": -1.9287287606,
				"y": 3.5865831343,
				"z": -2.479346613,
				"element": "C" 
			},
			{
				"x": -2.9431559656,
				"y": 3.2480290171,
				"z": -3.3767440759,
				"element": "C" 
			},
			{
				"x": -3.2253867828,
				"y": 1.9022340349,
				"z": -3.6219241497,
				"element": "C" 
			},
			{
				"x": -2.5077599822,
				"y": 0.903966147,
				"z": -2.9660953267,
				"element": "C" 
			},
			{
				"x": 1.2196447187,
				"y": -2.9356896621,
				"z": -1.0147195713,
				"element": "C" 
			},
			{
				"x": 1.7505096565,
				"y": -3.4016405096,
				"z": 0.181773214,
				"element": "C" 
			},
			{
				"x": 1.5771892336,
				"y": -2.685200574,
				"z": 1.383179056,
				"element": "C" 
			},
			{
				"x": 0.8750947499,
				"y": -1.4838917865,
				"z": 1.4127548798,
				"element": "C" 
			},
			{
				"x": 1.6384549829,
				"y": 2.9167219825,
				"z": 1.3597110282,
				"element": "H" 
			},
			{
				"x": -1.3809495649,
				"y": 0.3792469289,
				"z": 1.7727380005,
				"element": "H" 
			},
			{
				"x": -1.6783744541,
				"y": 1.631274931,
				"z": 0.5631693805,
				"element": "H" 
			},
			{
				"x": -0.2450336963,
				"y": -1.1934253526,
				"z": -3.0756726938,
				"element": "H" 
			},
			{
				"x": -0.3832015716,
				"y": 2.8626567068,
				"z": -1.1679183917,
				"element": "H" 
			},
			{
				"x": -1.6926601951,
				"y": 4.6307696957,
				"z": -2.2942004594,
				"element": "H" 
			},
			{
				"x": -3.5072755452,
				"y": 4.0259755084,
				"z": -3.8828688445,
				"element": "H" 
			},
			{
				"x": -4.013569781,
				"y": 1.6288949049,
				"z": -4.3177238668,
				"element": "H" 
			},
			{
				"x": -2.742040273,
				"y": -0.1417703806,
				"z": -3.1399298197,
				"element": "H" 
			},
			{
				"x": 1.3540648569,
				"y": -3.4963737313,
				"z": -1.935601272,
				"element": "H" 
			},
			{
				"x": 2.3079179893,
				"y": -4.3337302691,
				"z": 0.1957747147,
				"element": "H" 
			},
			{
				"x": 2.0023259291,
				"y": -3.0749661158,
				"z": 2.3033721402,
				"element": "H" 
			},
			{
				"x": 0.7517338197,
				"y": -0.9336172891,
				"z": 2.3409452392,
				"element": "H" 
			}
		],
		 "valence_orbital": [ 
			{
				"type": "occ",
				"energy": -0.27294,
				"method": "rhf"
			},
			{
				"type": "occ",
				"energy": -0.26034,
				"method": "rhf"
			},
			{
				"type": "occ",
				"energy": -0.25685,
				"method": "rhf"
			},
			{
				"type": "occ",
				"energy": -0.21584,
				"method": "rhf"
			},
			{
				"type": "occ",
				"energy": -0.1976,
				"method": "rhf"
			},
			{
				"type": "unocc",
				"energy": -0.03137,
				"method": "rhf"
			},
			{
				"type": "unocc",
				"energy": -0.01109,
				"method": "rhf"
			},
			{
				"type": "unocc",
				"energy": -0.00543,
				"method": "rhf"
			},
			{
				"type": "unocc",
				"energy": 0.01096,
				"method": "rhf"
			},
			{
				"type": "unocc",
				"energy": 0.02711,
				"method": "rhf"
			}
		],
		"cosmo_sigma_profile": { 
			"-0.025": 0.0,
			"-0.024": 0.0,
			"-0.023": 0.0,
			"-0.022": 0.0,
			"-0.021": 0.0,
			"-0.02": 0.0,
			"-0.019": 0.483988956838,
			"-0.018": 1.13684015059,
			"-0.017": 1.12438090846,
			"-0.016": 0.559944948115,
			"-0.015": 0.291967489305,
			"-0.014": 0.227052309929,
			"-0.013": 1.00965926941,
			"-0.012": 1.53917679334,
			"-0.011": 0.595248532403,
			"-0.01": 0.136729010531,
			"-0.009": 1.36088430741,
			"-0.008": 2.98065562472,
			"-0.007": 5.10277654832,
			"-0.006": 13.1306637422,
			"-0.005": 22.1797587531,
			"-0.004": 26.1142080366,
			"-0.003": 24.3721460122,
			"-0.002": 19.3135580448,
			"-0.001": 15.6095361117,
			"0.0": 16.1725492847,
			"0.001": 16.722408541,
			"0.002": 16.4872528929,
			"0.003": 18.6049518156,
			"0.004": 21.292731226,
			"0.005": 23.642207133,
			"0.006": 16.8705092871,
			"0.007": 7.04264928111,
			"0.008": 1.87313645898,
			"0.009": 1.84940707076,
			"0.01": 2.69678160373,
			"0.011": 4.79491104568,
			"0.012": 2.25741407662,
			"0.013": 0.0176740927797,
			"0.014": 0.0,
			"0.015": 0.0,
			"0.016": 0.0,
			"0.017": 0.0,
			"0.018": 0.0,
			"0.019": 0.0,
			"0.02": 0.0,
			"0.021": 0.0,
			"0.022": 0.0,
			"0.023": 0.0,
			"0.024": 0.0,
			"0.025": 0.0
		}
	}
}
