{
	 "smiles": "NNC1=NC=C(C=C1)S(=O)(=O)NC1=NC=CC=C1", 
	 "Tm": 492.15, 
	 "num_atms": 29, 
	 "gaussian": { 
		 "optdone": 1, 
		 "sigma_profile": "yes", 
		 "theory": "DFT", 
		 "functional": "B3LYP", 
		 "basiset": "6-31G**", 
		 "properties": { 
			 "R2extent": 6354.1997, 
			 "electric_dipole_moment_norm": 5.85722841795, 
			 "electric_quadrupole_moment_norm": 22.0484924199, 
			 "total_energy": -1209.98495526, 
			 "HOMO_LUMO_gap": 0.18823, 
			 "cosmo_polarized_energy": -20.47, 
			 "cosmo_cavitation_energy": 35.35, 
			 "cosmo_dispersion_energy": -25.62, 
			 "cosmo_repulsion_energy": 1.95, 
			 "cosmo_total_nonelectrostatic_energy": 11.69, 
			 "SMD_solvation_energy": 3.31 
		},
		"coords": [
			{
				"x": -2.6645557136,
				"y": 2.4174449978,
				"z": -3.1936736161,
				"element": "N" 
			},
			{
				"x": -1.3717229258,
				"y": 2.2782807037,
				"z": -2.6596945501,
				"element": "N" 
			},
			{
				"x": -0.8336956001,
				"y": 1.0708026056,
				"z": -2.3045010345,
				"element": "C" 
			},
			{
				"x": -1.5294309515,
				"y": -0.0281812689,
				"z": -2.6488121361,
				"element": "N" 
			},
			{
				"x": -1.015970254,
				"y": -1.2179347065,
				"z": -2.3266199321,
				"element": "C" 
			},
			{
				"x": 0.1950700525,
				"y": -1.3720801951,
				"z": -1.6528977631,
				"element": "C" 
			},
			{
				"x": 0.9260400748,
				"y": -0.2230093754,
				"z": -1.3017871182,
				"element": "C" 
			},
			{
				"x": 0.4107898234,
				"y": 1.0137455767,
				"z": -1.6262102044,
				"element": "C" 
			},
			{
				"x": 0.7927335911,
				"y": -2.9962724337,
				"z": -1.242911976,
				"element": "S" 
			},
			{
				"x": 0.1511854611,
				"y": -3.9560466845,
				"z": -2.1389285548,
				"element": "O" 
			},
			{
				"x": 2.2451161227,
				"y": -2.9044878181,
				"z": -1.0896232274,
				"element": "O" 
			},
			{
				"x": 0.159170432,
				"y": -3.3901143722,
				"z": 0.2852230239,
				"element": "N" 
			},
			{
				"x": 0.4171064279,
				"y": -2.6825763213,
				"z": 1.4805402343,
				"element": "C" 
			},
			{
				"x": -0.6638858998,
				"y": -2.5041026413,
				"z": 2.2481384049,
				"element": "N" 
			},
			{
				"x": -0.49546079,
				"y": -1.89574465,
				"z": 3.4288255013,
				"element": "C" 
			},
			{
				"x": 0.7317612908,
				"y": -1.4175684549,
				"z": 3.8817492507,
				"element": "C" 
			},
			{
				"x": 1.8489138794,
				"y": -1.6119901607,
				"z": 3.0654639837,
				"element": "C" 
			},
			{
				"x": 1.7071657177,
				"y": -2.2668888563,
				"z": 1.8468873774,
				"element": "C" 
			},
			{
				"x": -2.6430563387,
				"y": 2.0652359282,
				"z": -4.1498904072,
				"element": "H" 
			},
			{
				"x": -3.2858021702,
				"y": 1.7852184326,
				"z": -2.6878486457,
				"element": "H" 
			},
			{
				"x": -0.9989078032,
				"y": 3.1196522094,
				"z": -2.2474647931,
				"element": "H" 
			},
			{
				"x": -1.5853027978,
				"y": -2.0926575025,
				"z": -2.6313931264,
				"element": "H" 
			},
			{
				"x": 1.8842331282,
				"y": -0.3185388765,
				"z": -0.8034910937,
				"element": "H" 
			},
			{
				"x": 0.9473163146,
				"y": 1.9259153177,
				"z": -1.3834074478,
				"element": "H" 
			},
			{
				"x": -0.817982732,
				"y": -3.6636346413,
				"z": 0.2162889781,
				"element": "H" 
			},
			{
				"x": -1.3930426273,
				"y": -1.7818530473,
				"z": 4.0337000702,
				"element": "H" 
			},
			{
				"x": 0.8103385724,
				"y": -0.9204027495,
				"z": 4.842606904,
				"element": "H" 
			},
			{
				"x": 2.830542367,
				"y": -1.2728007873,
				"z": 3.3838145591,
				"element": "H" 
			},
			{
				"x": 2.5508333485,
				"y": -2.4725102282,
				"z": 1.2006173393,
				"element": "H" 
			}
		],
		 "valence_orbital": [ 
			{
				"type": "occ",
				"energy": -0.28915,
				"method": "rhf"
			},
			{
				"type": "occ",
				"energy": -0.275,
				"method": "rhf"
			},
			{
				"type": "occ",
				"energy": -0.27294,
				"method": "rhf"
			},
			{
				"type": "occ",
				"energy": -0.24728,
				"method": "rhf"
			},
			{
				"type": "occ",
				"energy": -0.22922,
				"method": "rhf"
			},
			{
				"type": "unocc",
				"energy": -0.04099,
				"method": "rhf"
			},
			{
				"type": "unocc",
				"energy": -0.03703,
				"method": "rhf"
			},
			{
				"type": "unocc",
				"energy": -0.02882,
				"method": "rhf"
			},
			{
				"type": "unocc",
				"energy": -0.01343,
				"method": "rhf"
			},
			{
				"type": "unocc",
				"energy": 0.06259,
				"method": "rhf"
			}
		],
		"cosmo_sigma_profile": { 
			"-0.025": 0.0,
			"-0.024": 0.0,
			"-0.023": 0.0,
			"-0.022": 0.0,
			"-0.021": 0.0,
			"-0.02": 0.0,
			"-0.019": 0.0,
			"-0.018": 0.0,
			"-0.017": 0.0,
			"-0.016": 0.0,
			"-0.015": 0.782714335044,
			"-0.014": 2.15697553028,
			"-0.013": 2.07281486812,
			"-0.012": 2.76800950552,
			"-0.011": 3.25361492114,
			"-0.01": 4.05505936591,
			"-0.009": 5.0586479237,
			"-0.008": 6.35301189505,
			"-0.007": 13.3973376453,
			"-0.006": 14.8102791598,
			"-0.005": 16.0237090841,
			"-0.004": 13.401620451,
			"-0.003": 12.7256035712,
			"-0.002": 14.416569752,
			"-0.001": 16.608209826,
			"0.0": 22.18206963,
			"0.001": 25.3430538739,
			"0.002": 23.5941270039,
			"0.003": 15.6269969347,
			"0.004": 9.31496596934,
			"0.005": 6.30949583809,
			"0.006": 8.20353477943,
			"0.007": 7.63437306379,
			"0.008": 5.84147936295,
			"0.009": 5.57047226605,
			"0.01": 10.0415617526,
			"0.011": 8.82552453933,
			"0.012": 2.67576811175,
			"0.013": 1.32912171164,
			"0.014": 1.0284829313,
			"0.015": 0.865346758876,
			"0.016": 0.454558322265,
			"0.017": 0.134787919961,
			"0.018": 0.0,
			"0.019": 0.0,
			"0.02": 0.0,
			"0.021": 0.0,
			"0.022": 0.0,
			"0.023": 0.0,
			"0.024": 0.0,
			"0.025": 0.0
		}
	}
}
