{
	 "smiles": "COC1=CC(=C(Cl)C=C1)S(Cl)(=O)=O", 
	 "Tm": 315.15, 
	 "num_atms": 19, 
	 "gaussian": { 
		 "optdone": 1, 
		 "sigma_profile": "yes", 
		 "theory": "DFT", 
		 "functional": "B3LYP", 
		 "basiset": "6-31G**", 
		 "properties": { 
			 "R2extent": 5600.401, 
			 "electric_dipole_moment_norm": 5.48970500938, 
			 "electric_quadrupole_moment_norm": 16.6233763767, 
			 "total_energy": -1814.51276188, 
			 "HOMO_LUMO_gap": 0.15904, 
			 "cosmo_polarized_energy": -10.15, 
			 "cosmo_cavitation_energy": 28.35, 
			 "cosmo_dispersion_energy": -21.3, 
			 "cosmo_repulsion_energy": 1.64, 
			 "cosmo_total_nonelectrostatic_energy": 8.69, 
			 "SMD_solvation_energy": 4.23 
		},
		"coords": [
			{
				"x": 1.9111967968,
				"y": -0.9972207461,
				"z": -1.3694561175,
				"element": "C" 
			},
			{
				"x": 2.1094114642,
				"y": 0.2004192062,
				"z": -0.6237636864,
				"element": "O" 
			},
			{
				"x": 1.0663171246,
				"y": 1.0542485293,
				"z": -0.483978307,
				"element": "C" 
			},
			{
				"x": -0.2050561877,
				"y": 0.8476126273,
				"z": -1.0250431831,
				"element": "C" 
			},
			{
				"x": -1.2071407788,
				"y": 1.8043009924,
				"z": -0.818186143,
				"element": "C" 
			},
			{
				"x": -0.9680415624,
				"y": 2.9633033211,
				"z": -0.0721390242,
				"element": "C" 
			},
			{
				"x": -2.1831425863,
				"y": 4.1705710692,
				"z": 0.247626219,
				"element": "Cl" 
			},
			{
				"x": 0.3117685749,
				"y": 3.1530464221,
				"z": 0.4637351736,
				"element": "C" 
			},
			{
				"x": 1.314971156,
				"y": 2.2177946473,
				"z": 0.2613082736,
				"element": "C" 
			},
			{
				"x": -2.7793911884,
				"y": 1.4370939596,
				"z": -1.6188961631,
				"element": "S" 
			},
			{
				"x": -4.0148563362,
				"y": 0.9939614007,
				"z": 0.0512463387,
				"element": "Cl" 
			},
			{
				"x": -2.6308532209,
				"y": 0.182738488,
				"z": -2.3489188815,
				"element": "O" 
			},
			{
				"x": -3.3267521447,
				"y": 2.6247754477,
				"z": -2.2558683088,
				"element": "O" 
			},
			{
				"x": 2.8673321643,
				"y": -1.520542509,
				"z": -1.3512195091,
				"element": "H" 
			},
			{
				"x": 1.6352747973,
				"y": -0.7805965936,
				"z": -2.4084512436,
				"element": "H" 
			},
			{
				"x": 1.1414295887,
				"y": -1.6304281929,
				"z": -0.9121752762,
				"element": "H" 
			},
			{
				"x": -0.4444602921,
				"y": -0.0317118135,
				"z": -1.6068498954,
				"element": "H" 
			},
			{
				"x": 0.5080896316,
				"y": 4.0476730781,
				"z": 1.0440357825,
				"element": "H" 
			},
			{
				"x": 2.305802999,
				"y": 2.3671606661,
				"z": 0.6766939516,
				"element": "H" 
			}
		],
		 "valence_orbital": [ 
			{
				"type": "occ",
				"energy": -0.32778,
				"method": "rhf"
			},
			{
				"type": "occ",
				"energy": -0.31994,
				"method": "rhf"
			},
			{
				"type": "occ",
				"energy": -0.31352,
				"method": "rhf"
			},
			{
				"type": "occ",
				"energy": -0.29512,
				"method": "rhf"
			},
			{
				"type": "occ",
				"energy": -0.24931,
				"method": "rhf"
			},
			{
				"type": "unocc",
				"energy": -0.09027,
				"method": "rhf"
			},
			{
				"type": "unocc",
				"energy": -0.05166,
				"method": "rhf"
			},
			{
				"type": "unocc",
				"energy": -0.03133,
				"method": "rhf"
			},
			{
				"type": "unocc",
				"energy": 0.00884,
				"method": "rhf"
			},
			{
				"type": "unocc",
				"energy": 0.05768,
				"method": "rhf"
			}
		],
		"cosmo_sigma_profile": { 
			"-0.025": 0.0,
			"-0.024": 0.0,
			"-0.023": 0.0,
			"-0.022": 0.0,
			"-0.021": 0.0,
			"-0.02": 0.0,
			"-0.019": 0.0,
			"-0.018": 0.0,
			"-0.017": 0.0,
			"-0.016": 0.0,
			"-0.015": 0.0,
			"-0.014": 0.0,
			"-0.013": 0.0,
			"-0.012": 0.0,
			"-0.011": 0.0,
			"-0.01": 0.0,
			"-0.009": 1.43749138325,
			"-0.008": 5.97948800653,
			"-0.007": 8.84046408775,
			"-0.006": 13.1724368599,
			"-0.005": 12.1327165777,
			"-0.004": 14.8739254128,
			"-0.003": 13.6291799268,
			"-0.002": 13.5886229311,
			"-0.001": 21.0878687311,
			"0.0": 24.2744061846,
			"0.001": 18.0534725776,
			"0.002": 16.2711315147,
			"0.003": 24.7756328229,
			"0.004": 9.75309049738,
			"0.005": 4.27513119824,
			"0.006": 5.75473393864,
			"0.007": 8.33927952273,
			"0.008": 12.4268526165,
			"0.009": 3.49760880898,
			"0.01": 0.0200837768418,
			"0.011": 0.0,
			"0.012": 0.0,
			"0.013": 0.0,
			"0.014": 0.0,
			"0.015": 0.0,
			"0.016": 0.0,
			"0.017": 0.0,
			"0.018": 0.0,
			"0.019": 0.0,
			"0.02": 0.0,
			"0.021": 0.0,
			"0.022": 0.0,
			"0.023": 0.0,
			"0.024": 0.0,
			"0.025": 0.0
		}
	}
}
