{
	 "smiles": "ClS(=O)(=O)CCS(=O)(=O)C1=CC=CC=C1", 
	 "Tm": 446.15, 
	 "num_atms": 24, 
	 "gaussian": { 
		 "optdone": 1, 
		 "sigma_profile": "yes", 
		 "theory": "DFT", 
		 "functional": "B3LYP", 
		 "basiset": "6-31G**", 
		 "properties": { 
			 "R2extent": 7600.1411, 
			 "electric_dipole_moment_norm": 5.60937936941, 
			 "electric_quadrupole_moment_norm": 14.8592583311, 
			 "total_energy": -1867.60595513, 
			 "HOMO_LUMO_gap": 0.19286, 
			 "cosmo_polarized_energy": -19.07, 
			 "cosmo_cavitation_energy": 33.12, 
			 "cosmo_dispersion_energy": -24.1, 
			 "cosmo_repulsion_energy": 1.82, 
			 "cosmo_total_nonelectrostatic_energy": 10.84, 
			 "SMD_solvation_energy": 3.31 
		},
		"coords": [
			{
				"x": 2.4179312088,
				"y": -4.5290822722,
				"z": 0.3337432731,
				"element": "Cl" 
			},
			{
				"x": 3.0190497719,
				"y": -3.5141927487,
				"z": 2.1161423427,
				"element": "S" 
			},
			{
				"x": 2.6477129426,
				"y": -4.3685235822,
				"z": 3.2361168899,
				"element": "O" 
			},
			{
				"x": 4.3836265194,
				"y": -3.054442048,
				"z": 1.9034297609,
				"element": "O" 
			},
			{
				"x": 1.9040382807,
				"y": -2.0751177688,
				"z": 2.0520668356,
				"element": "C" 
			},
			{
				"x": 0.4501617635,
				"y": -2.4481706275,
				"z": 2.2752752855,
				"element": "C" 
			},
			{
				"x": -0.6121289699,
				"y": -0.9584753911,
				"z": 2.391243346,
				"element": "S" 
			},
			{
				"x": 0.1112745117,
				"y": 0.0144023014,
				"z": 3.2262301176,
				"element": "O" 
			},
			{
				"x": -1.951541743,
				"y": -1.4432504534,
				"z": 2.7468286318,
				"element": "O" 
			},
			{
				"x": -0.6652828511,
				"y": -0.3220706473,
				"z": 0.7107378242,
				"element": "C" 
			},
			{
				"x": -1.5817866469,
				"y": -0.8672850866,
				"z": -0.1923701857,
				"element": "C" 
			},
			{
				"x": -1.6143322571,
				"y": -0.3744451357,
				"z": -1.4963596687,
				"element": "C" 
			},
			{
				"x": -0.7458146985,
				"y": 0.6514905522,
				"z": -1.8798633657,
				"element": "C" 
			},
			{
				"x": 0.1545736992,
				"y": 1.1970180721,
				"z": -0.9620695776,
				"element": "C" 
			},
			{
				"x": 0.1997676689,
				"y": 0.7121982606,
				"z": 0.3460907415,
				"element": "C" 
			},
			{
				"x": 2.0903611977,
				"y": -1.6001301701,
				"z": 1.0866329631,
				"element": "H" 
			},
			{
				"x": 2.2747751696,
				"y": -1.4251105736,
				"z": 2.8508966706,
				"element": "H" 
			},
			{
				"x": 0.3092244951,
				"y": -2.9538121426,
				"z": 3.234254368,
				"element": "H" 
			},
			{
				"x": 0.0455613671,
				"y": -3.0759731451,
				"z": 1.478716923,
				"element": "H" 
			},
			{
				"x": -2.2668443765,
				"y": -1.6439578382,
				"z": 0.1312755027,
				"element": "H" 
			},
			{
				"x": -2.322467311,
				"y": -0.7844240322,
				"z": -2.2097165467,
				"element": "H" 
			},
			{
				"x": -0.7774636088,
				"y": 1.0326535754,
				"z": -2.8961614491,
				"element": "H" 
			},
			{
				"x": 0.8163866409,
				"y": 2.0041043474,
				"z": -1.2605485047,
				"element": "H" 
			},
			{
				"x": 0.8718172257,
				"y": 1.1377965544,
				"z": 1.0836078223,
				"element": "H" 
			}
		],
		 "valence_orbital": [ 
			{
				"type": "occ",
				"energy": -0.32806,
				"method": "rhf"
			},
			{
				"type": "occ",
				"energy": -0.31834,
				"method": "rhf"
			},
			{
				"type": "occ",
				"energy": -0.30557,
				"method": "rhf"
			},
			{
				"type": "occ",
				"energy": -0.29261,
				"method": "rhf"
			},
			{
				"type": "occ",
				"energy": -0.28853,
				"method": "rhf"
			},
			{
				"type": "unocc",
				"energy": -0.09567,
				"method": "rhf"
			},
			{
				"type": "unocc",
				"energy": -0.0588,
				"method": "rhf"
			},
			{
				"type": "unocc",
				"energy": -0.03995,
				"method": "rhf"
			},
			{
				"type": "unocc",
				"energy": 0.01349,
				"method": "rhf"
			},
			{
				"type": "unocc",
				"energy": 0.03707,
				"method": "rhf"
			}
		],
		"cosmo_sigma_profile": { 
			"-0.025": 0.0,
			"-0.024": 0.0,
			"-0.023": 0.0,
			"-0.022": 0.0,
			"-0.021": 0.0,
			"-0.02": 0.0,
			"-0.019": 0.0,
			"-0.018": 0.0,
			"-0.017": 0.0,
			"-0.016": 0.0,
			"-0.015": 0.0,
			"-0.014": 0.0391300333496,
			"-0.013": 0.658270094801,
			"-0.012": 1.24152847787,
			"-0.011": 1.98810850625,
			"-0.01": 4.01840761484,
			"-0.009": 6.2571290606,
			"-0.008": 8.65808276785,
			"-0.007": 17.0090068259,
			"-0.006": 20.6699205423,
			"-0.005": 14.9571279103,
			"-0.004": 11.4896784051,
			"-0.003": 10.9934617199,
			"-0.002": 11.8335636181,
			"-0.001": 13.9579949376,
			"0.0": 14.5496418396,
			"0.001": 18.6646031504,
			"0.002": 21.5404418843,
			"0.003": 23.2751538867,
			"0.004": 6.80088211123,
			"0.005": 4.7630038902,
			"0.006": 5.62659004705,
			"0.007": 11.1505927685,
			"0.008": 13.4027672406,
			"0.009": 6.26201234996,
			"0.01": 7.31837477796,
			"0.011": 8.25548250035,
			"0.012": 1.88213904238,
			"0.013": 0.0,
			"0.014": 0.0,
			"0.015": 0.0,
			"0.016": 0.0,
			"0.017": 0.0,
			"0.018": 0.0,
			"0.019": 0.0,
			"0.02": 0.0,
			"0.021": 0.0,
			"0.022": 0.0,
			"0.023": 0.0,
			"0.024": 0.0,
			"0.025": 0.0
		}
	}
}
