{
	 "smiles": "CC(C)(C)OC(=O)NCC1CCCC1N", 
	 "Tm": 317.15, 
	 "num_atms": 37, 
	 "gaussian": { 
		 "optdone": 1, 
		 "sigma_profile": "yes", 
		 "theory": "DFT", 
		 "functional": "B3LYP", 
		 "basiset": "6-31G**", 
		 "properties": { 
			 "R2extent": 4508.3662, 
			 "electric_dipole_moment_norm": 2.91839853687, 
			 "electric_quadrupole_moment_norm": 7.38979945195, 
			 "total_energy": -692.422342661, 
			 "HOMO_LUMO_gap": 0.28445, 
			 "cosmo_polarized_energy": -13.2, 
			 "cosmo_cavitation_energy": 36.94, 
			 "cosmo_dispersion_energy": -25.09, 
			 "cosmo_repulsion_energy": 2.0, 
			 "cosmo_total_nonelectrostatic_energy": 13.85, 
			 "SMD_solvation_energy": 5.27 
		},
		"coords": [
			{
				"x": 0.9777338926,
				"y": -1.2872443039,
				"z": 3.2445987201,
				"element": "C" 
			},
			{
				"x": 0.2375904614,
				"y": -2.1473667238,
				"z": 2.2168007378,
				"element": "C" 
			},
			{
				"x": -0.8043000593,
				"y": -3.0377016436,
				"z": 2.9027194657,
				"element": "C" 
			},
			{
				"x": 1.2273727018,
				"y": -2.9576160196,
				"z": 1.3727683227,
				"element": "C" 
			},
			{
				"x": -0.4316558174,
				"y": -1.1393880655,
				"z": 1.3799160508,
				"element": "O" 
			},
			{
				"x": -1.2184272577,
				"y": -1.5120778848,
				"z": 0.3410133781,
				"element": "C" 
			},
			{
				"x": -1.4311640556,
				"y": -2.6577505389,
				"z": -0.0264452276,
				"element": "O" 
			},
			{
				"x": -1.767499026,
				"y": -0.4219688849,
				"z": -0.2790608695,
				"element": "N" 
			},
			{
				"x": -1.6489586717,
				"y": 0.9801941981,
				"z": 0.1015311563,
				"element": "C" 
			},
			{
				"x": -0.7444954067,
				"y": 1.8223370176,
				"z": -0.8126288592,
				"element": "C" 
			},
			{
				"x": 0.7238742925,
				"y": 1.3500690645,
				"z": -0.9119415035,
				"element": "C" 
			},
			{
				"x": 1.2154170319,
				"y": 1.7694009151,
				"z": -2.3319428387,
				"element": "C" 
			},
			{
				"x": 0.0271096647,
				"y": 2.5005771198,
				"z": -2.9910023961,
				"element": "C" 
			},
			{
				"x": -1.2145024419,
				"y": 1.9334889814,
				"z": -2.2875986308,
				"element": "C" 
			},
			{
				"x": -2.4175623701,
				"y": 2.7152105004,
				"z": -2.5648815762,
				"element": "N" 
			},
			{
				"x": 1.6857551756,
				"y": -0.6168269426,
				"z": 2.7486689173,
				"element": "H" 
			},
			{
				"x": 1.5326137515,
				"y": -1.92530013,
				"z": 3.9388222718,
				"element": "H" 
			},
			{
				"x": 0.2729265078,
				"y": -0.6803296753,
				"z": 3.8207032409,
				"element": "H" 
			},
			{
				"x": -1.5182320446,
				"y": -2.4248041873,
				"z": 3.4623753939,
				"element": "H" 
			},
			{
				"x": -0.3056345905,
				"y": -3.708490554,
				"z": 3.6099828459,
				"element": "H" 
			},
			{
				"x": -1.3477580629,
				"y": -3.6356286297,
				"z": 2.1710134653,
				"element": "H" 
			},
			{
				"x": 1.7982913692,
				"y": -3.6306213875,
				"z": 2.0209069516,
				"element": "H" 
			},
			{
				"x": 0.7039879398,
				"y": -3.5488319651,
				"z": 0.6213162363,
				"element": "H" 
			},
			{
				"x": 1.9346705035,
				"y": -2.2892967545,
				"z": 0.8711611018,
				"element": "H" 
			},
			{
				"x": -2.3630115639,
				"y": -0.6770577569,
				"z": -1.0521275539,
				"element": "H" 
			},
			{
				"x": -1.2804125344,
				"y": 1.0111799067,
				"z": 1.127859141,
				"element": "H" 
			},
			{
				"x": -2.6561329136,
				"y": 1.4204336422,
				"z": 0.1105134911,
				"element": "H" 
			},
			{
				"x": -0.7641813749,
				"y": 2.8453321161,
				"z": -0.4033302771,
				"element": "H" 
			},
			{
				"x": 0.7787965162,
				"y": 0.2643414146,
				"z": -0.7922359951,
				"element": "H" 
			},
			{
				"x": 1.3355636349,
				"y": 1.7837840596,
				"z": -0.1146476569,
				"element": "H" 
			},
			{
				"x": 1.4832695733,
				"y": 0.882034535,
				"z": -2.9151980834,
				"element": "H" 
			},
			{
				"x": 2.1099115842,
				"y": 2.3980292901,
				"z": -2.2924579319,
				"element": "H" 
			},
			{
				"x": 0.079482772,
				"y": 3.5797708677,
				"z": -2.7884099218,
				"element": "H" 
			},
			{
				"x": -0.0156395273,
				"y": 2.3801774484,
				"z": -4.0769210076,
				"element": "H" 
			},
			{
				"x": -1.3929626698,
				"y": 0.9178227674,
				"z": -2.6716927072,
				"element": "H" 
			},
			{
				"x": -3.2312954957,
				"y": 2.3037574111,
				"z": -2.1134939382,
				"element": "H" 
			},
			{
				"x": -2.3158414889,
				"y": 3.6520607918,
				"z": -2.1775539138,
				"element": "H" 
			}
		],
		 "valence_orbital": [ 
			{
				"type": "occ",
				"energy": -0.31402,
				"method": "rhf"
			},
			{
				"type": "occ",
				"energy": -0.28513,
				"method": "rhf"
			},
			{
				"type": "occ",
				"energy": -0.25716,
				"method": "rhf"
			},
			{
				"type": "occ",
				"energy": -0.24735,
				"method": "rhf"
			},
			{
				"type": "occ",
				"energy": -0.23054,
				"method": "rhf"
			},
			{
				"type": "unocc",
				"energy": 0.05391,
				"method": "rhf"
			},
			{
				"type": "unocc",
				"energy": 0.06592,
				"method": "rhf"
			},
			{
				"type": "unocc",
				"energy": 0.08107,
				"method": "rhf"
			},
			{
				"type": "unocc",
				"energy": 0.0844,
				"method": "rhf"
			},
			{
				"type": "unocc",
				"energy": 0.09775,
				"method": "rhf"
			}
		],
		"cosmo_sigma_profile": { 
			"-0.025": 0.0,
			"-0.024": 0.0,
			"-0.023": 0.0,
			"-0.022": 0.0,
			"-0.021": 0.0,
			"-0.02": 0.0,
			"-0.019": 0.0,
			"-0.018": 0.0,
			"-0.017": 0.0,
			"-0.016": 0.0,
			"-0.015": 0.0,
			"-0.014": 0.0,
			"-0.013": 0.606213851753,
			"-0.012": 0.942163528423,
			"-0.011": 1.04184132306,
			"-0.01": 1.86270882519,
			"-0.009": 4.26203653707,
			"-0.008": 4.24552865413,
			"-0.007": 4.23867785678,
			"-0.006": 4.53541606975,
			"-0.005": 5.49709403971,
			"-0.004": 15.3574174916,
			"-0.003": 26.0516955486,
			"-0.002": 36.7030617692,
			"-0.001": 38.9178942187,
			"0.0": 41.5709215975,
			"0.001": 33.1948513049,
			"0.002": 18.2029844834,
			"0.003": 7.50673001614,
			"0.004": 5.48475045664,
			"0.005": 4.54808199318,
			"0.006": 4.68903094298,
			"0.007": 2.11057528333,
			"0.008": 2.81328562757,
			"0.009": 2.42656486016,
			"0.01": 2.03316771624,
			"0.011": 2.2896573513,
			"0.012": 2.03808377105,
			"0.013": 3.16739026405,
			"0.014": 4.17816204769,
			"0.015": 0.854997141647,
			"0.016": 1.05048536889,
			"0.017": 0.493515172353,
			"0.018": 0.47611890753,
			"0.019": 0.715743565551,
			"0.02": 0.28662570405,
			"0.021": 0.0,
			"0.022": 0.0,
			"0.023": 0.0,
			"0.024": 0.0,
			"0.025": 0.0
		}
	}
}
