{
	 "smiles": "FC1=CC(F)=C(N=C1)C#N", 
	 "Tm": 305.15, 
	 "num_atms": 12, 
	 "gaussian": { 
		 "optdone": 1, 
		 "sigma_profile": "yes", 
		 "theory": "DFT", 
		 "functional": "B3LYP", 
		 "basiset": "6-31G**", 
		 "properties": { 
			 "R2extent": 1696.7085, 
			 "electric_dipole_moment_norm": 4.74903382805, 
			 "electric_quadrupole_moment_norm": 8.21961043663, 
			 "total_energy": -538.975870048, 
			 "HOMO_LUMO_gap": 0.20207, 
			 "cosmo_polarized_energy": -9.52, 
			 "cosmo_cavitation_energy": 19.37, 
			 "cosmo_dispersion_energy": -13.5, 
			 "cosmo_repulsion_energy": 1.05, 
			 "cosmo_total_nonelectrostatic_energy": 6.93, 
			 "SMD_solvation_energy": 4.49 
		},
		"coords": [
			{
				"x": 3.7542483025,
				"y": 0.6174495152,
				"z": 0.2674190708,
				"element": "F" 
			},
			{
				"x": 2.5677878774,
				"y": 0.0980124417,
				"z": -0.0673087866,
				"element": "C" 
			},
			{
				"x": 1.5945303437,
				"y": -0.0747840875,
				"z": 0.9067604842,
				"element": "C" 
			},
			{
				"x": 0.3898034823,
				"y": -0.6190470552,
				"z": 0.483824745,
				"element": "C" 
			},
			{
				"x": -0.5949916414,
				"y": -0.8152512051,
				"z": 1.3639484508,
				"element": "F" 
			},
			{
				"x": 0.2000710713,
				"y": -0.9643875921,
				"z": -0.8626414886,
				"element": "C" 
			},
			{
				"x": 1.1640250664,
				"y": -0.7837699739,
				"z": -1.7806777966,
				"element": "N" 
			},
			{
				"x": 2.3255032497,
				"y": -0.2637713702,
				"z": -1.3961455602,
				"element": "C" 
			},
			{
				"x": -1.0517056034,
				"y": -1.5275477703,
				"z": -1.2905016391,
				"element": "C" 
			},
			{
				"x": -2.0697629789,
				"y": -1.981418739,
				"z": -1.6181740167,
				"element": "N" 
			},
			{
				"x": 1.7607741952,
				"y": 0.1984380755,
				"z": 1.9418464359,
				"element": "H" 
			},
			{
				"x": 3.0961166351,
				"y": -0.1232222392,
				"z": -2.1489498988,
				"element": "H" 
			}
		],
		 "valence_orbital": [ 
			{
				"type": "occ",
				"energy": -0.36252,
				"method": "rhf"
			},
			{
				"type": "occ",
				"energy": -0.34718,
				"method": "rhf"
			},
			{
				"type": "occ",
				"energy": -0.322,
				"method": "rhf"
			},
			{
				"type": "occ",
				"energy": -0.3046,
				"method": "rhf"
			},
			{
				"type": "occ",
				"energy": -0.28171,
				"method": "rhf"
			},
			{
				"type": "unocc",
				"energy": -0.07964,
				"method": "rhf"
			},
			{
				"type": "unocc",
				"energy": -0.05424,
				"method": "rhf"
			},
			{
				"type": "unocc",
				"energy": 0.01497,
				"method": "rhf"
			},
			{
				"type": "unocc",
				"energy": 0.0578,
				"method": "rhf"
			},
			{
				"type": "unocc",
				"energy": 0.06494,
				"method": "rhf"
			}
		],
		"cosmo_sigma_profile": { 
			"-0.025": 0.0,
			"-0.024": 0.0,
			"-0.023": 0.0,
			"-0.022": 0.0,
			"-0.021": 0.0,
			"-0.02": 0.0,
			"-0.019": 0.0,
			"-0.018": 0.0,
			"-0.017": 0.0,
			"-0.016": 0.0,
			"-0.015": 0.0,
			"-0.014": 0.0,
			"-0.013": 0.0,
			"-0.012": 0.218542033525,
			"-0.011": 1.80035066831,
			"-0.01": 1.83819262281,
			"-0.009": 3.83006071741,
			"-0.008": 2.55958576464,
			"-0.007": 3.97365233315,
			"-0.006": 4.32672833821,
			"-0.005": 10.0077102684,
			"-0.004": 16.4623822557,
			"-0.003": 15.6271465018,
			"-0.002": 9.53824310908,
			"-0.001": 7.55976347491,
			"0.0": 7.0708691957,
			"0.001": 9.78933838781,
			"0.002": 21.17548135,
			"0.003": 9.19465721788,
			"0.004": 4.64272973132,
			"0.005": 4.12913246831,
			"0.006": 3.86399030277,
			"0.007": 5.07681954873,
			"0.008": 3.40034311024,
			"0.009": 3.63627645125,
			"0.01": 3.64625068179,
			"0.011": 3.12171203481,
			"0.012": 2.14859634366,
			"0.013": 0.166854246806,
			"0.014": 0.0,
			"0.015": 0.0,
			"0.016": 0.0,
			"0.017": 0.0,
			"0.018": 0.0,
			"0.019": 0.0,
			"0.02": 0.0,
			"0.021": 0.0,
			"0.022": 0.0,
			"0.023": 0.0,
			"0.024": 0.0,
			"0.025": 0.0
		}
	}
}
