{
	 "smiles": "CC1=NN(CC2=CC=CC=C2)C(C)=C1CN", 
	 "Tm": 313.15, 
	 "num_atms": 33, 
	 "gaussian": { 
		 "optdone": 1, 
		 "sigma_profile": "yes", 
		 "theory": "DFT", 
		 "functional": "B3LYP", 
		 "basiset": "6-31G**", 
		 "properties": { 
			 "R2extent": 4834.3698, 
			 "electric_dipole_moment_norm": 1.45275163397, 
			 "electric_quadrupole_moment_norm": 11.3922354488, 
			 "total_energy": -669.877899766, 
			 "HOMO_LUMO_gap": 0.21262, 
			 "cosmo_polarized_energy": -11.03, 
			 "cosmo_cavitation_energy": 35.64, 
			 "cosmo_dispersion_energy": -24.66, 
			 "cosmo_repulsion_energy": 1.97, 
			 "cosmo_total_nonelectrostatic_energy": 12.96, 
			 "SMD_solvation_energy": 4.39 
		},
		"coords": [
			{
				"x": 0.6616944243,
				"y": 3.8225025189,
				"z": -1.1018763219,
				"element": "C" 
			},
			{
				"x": 0.69561359,
				"y": 2.4390412496,
				"z": -0.5229349969,
				"element": "C" 
			},
			{
				"x": 0.801617655,
				"y": 2.2733583512,
				"z": 0.796282368,
				"element": "N" 
			},
			{
				"x": 0.8143932602,
				"y": 0.9271031378,
				"z": 0.9816785762,
				"element": "N" 
			},
			{
				"x": 0.8434780303,
				"y": 0.4037666691,
				"z": 2.3390678219,
				"element": "C" 
			},
			{
				"x": -0.5266455174,
				"y": 0.0495259864,
				"z": 2.8947868169,
				"element": "C" 
			},
			{
				"x": -0.7398555095,
				"y": -1.1780389656,
				"z": 3.5299367045,
				"element": "C" 
			},
			{
				"x": -1.9886875465,
				"y": -1.491262368,
				"z": 4.0725560684,
				"element": "C" 
			},
			{
				"x": -3.038730885,
				"y": -0.5781689914,
				"z": 3.9777190812,
				"element": "C" 
			},
			{
				"x": -2.8337705191,
				"y": 0.6489602718,
				"z": 3.3402674913,
				"element": "C" 
			},
			{
				"x": -1.5860902148,
				"y": 0.962723295,
				"z": 2.8035008702,
				"element": "C" 
			},
			{
				"x": 0.7054908592,
				"y": 0.2345213995,
				"z": -0.1893613241,
				"element": "C" 
			},
			{
				"x": 0.6746567149,
				"y": -1.2594074338,
				"z": -0.2597846869,
				"element": "C" 
			},
			{
				"x": 0.6304309648,
				"y": 1.1904456017,
				"z": -1.1973684919,
				"element": "C" 
			},
			{
				"x": 0.5113011113,
				"y": 0.9537664873,
				"z": -2.6765782296,
				"element": "C" 
			},
			{
				"x": 1.5600064781,
				"y": 0.0401801893,
				"z": -3.1665954559,
				"element": "N" 
			},
			{
				"x": 1.4649727296,
				"y": 3.9791638164,
				"z": -1.8313278277,
				"element": "H" 
			},
			{
				"x": -0.2854675793,
				"y": 4.0279551794,
				"z": -1.6142477177,
				"element": "H" 
			},
			{
				"x": 0.7810162148,
				"y": 4.5556359671,
				"z": -0.3008576233,
				"element": "H" 
			},
			{
				"x": 1.3124750945,
				"y": 1.1860484232,
				"z": 2.9426995185,
				"element": "H" 
			},
			{
				"x": 1.4969769512,
				"y": -0.4737248221,
				"z": 2.3673583584,
				"element": "H" 
			},
			{
				"x": 0.0752519912,
				"y": -1.8946836677,
				"z": 3.6022002518,
				"element": "H" 
			},
			{
				"x": -2.1402689465,
				"y": -2.4492017884,
				"z": 4.5621343271,
				"element": "H" 
			},
			{
				"x": -4.0118083363,
				"y": -0.8202469756,
				"z": 4.3955454815,
				"element": "H" 
			},
			{
				"x": -3.6484603536,
				"y": 1.3636604937,
				"z": 3.2632343405,
				"element": "H" 
			},
			{
				"x": -1.4213296526,
				"y": 1.9143496885,
				"z": 2.3062417644,
				"element": "H" 
			},
			{
				"x": -0.2623951559,
				"y": -1.6665177482,
				"z": 0.138824204,
				"element": "H" 
			},
			{
				"x": 1.4947167868,
				"y": -1.7091144743,
				"z": 0.3128298858,
				"element": "H" 
			},
			{
				"x": 0.7892760249,
				"y": -1.5666955687,
				"z": -1.3004550825,
				"element": "H" 
			},
			{
				"x": 0.5040605355,
				"y": 1.9329516036,
				"z": -3.184371256,
				"element": "H" 
			},
			{
				"x": -0.4546195685,
				"y": 0.4858521314,
				"z": -2.9126009703,
				"element": "H" 
			},
			{
				"x": 1.4811166553,
				"y": -0.0652226153,
				"z": -4.1759468324,
				"element": "H" 
			},
			{
				"x": 2.473283713,
				"y": 0.4507729581,
				"z": -2.9852571138,
				"element": "H" 
			}
		],
		 "valence_orbital": [ 
			{
				"type": "occ",
				"energy": -0.24862,
				"method": "rhf"
			},
			{
				"type": "occ",
				"energy": -0.24586,
				"method": "rhf"
			},
			{
				"type": "occ",
				"energy": -0.23495,
				"method": "rhf"
			},
			{
				"type": "occ",
				"energy": -0.22251,
				"method": "rhf"
			},
			{
				"type": "occ",
				"energy": -0.2163,
				"method": "rhf"
			},
			{
				"type": "unocc",
				"energy": -0.00368,
				"method": "rhf"
			},
			{
				"type": "unocc",
				"energy": 0.00054,
				"method": "rhf"
			},
			{
				"type": "unocc",
				"energy": 0.03214,
				"method": "rhf"
			},
			{
				"type": "unocc",
				"energy": 0.06292,
				"method": "rhf"
			},
			{
				"type": "unocc",
				"energy": 0.08943,
				"method": "rhf"
			}
		],
		"cosmo_sigma_profile": { 
			"-0.025": 0.0,
			"-0.024": 0.0,
			"-0.023": 0.0,
			"-0.022": 0.0,
			"-0.021": 0.0,
			"-0.02": 0.0,
			"-0.019": 0.0,
			"-0.018": 0.0,
			"-0.017": 0.0,
			"-0.016": 0.0,
			"-0.015": 0.0,
			"-0.014": 0.0,
			"-0.013": 0.0,
			"-0.012": 0.0,
			"-0.011": 0.0,
			"-0.01": 0.638475794295,
			"-0.009": 2.36396087561,
			"-0.008": 2.32400160993,
			"-0.007": 5.06380878887,
			"-0.006": 11.8998695193,
			"-0.005": 16.0425054558,
			"-0.004": 21.5868463016,
			"-0.003": 28.4115382882,
			"-0.002": 30.2023065068,
			"-0.001": 26.0571626389,
			"0.0": 28.0040826342,
			"0.001": 18.7782015445,
			"0.002": 12.8494887033,
			"0.003": 16.0798023428,
			"0.004": 15.1194125985,
			"0.005": 15.1518741286,
			"0.006": 11.5197160735,
			"0.007": 3.46303324352,
			"0.008": 3.22501759422,
			"0.009": 2.28931326407,
			"0.01": 1.4270500237,
			"0.011": 1.61496410405,
			"0.012": 1.7890259669,
			"0.013": 1.61590175863,
			"0.014": 1.43228223799,
			"0.015": 1.19307144253,
			"0.016": 0.442198669491,
			"0.017": 0.259004876269,
			"0.018": 0.0,
			"0.019": 0.0,
			"0.02": 0.0,
			"0.021": 0.0,
			"0.022": 0.0,
			"0.023": 0.0,
			"0.024": 0.0,
			"0.025": 0.0
		}
	}
}
