{
	 "smiles": "CN1CCC(CC1)NC1=C2C=CC=CC2=CC=C1", 
	 "Tm": 357.15, 
	 "num_atms": 38, 
	 "gaussian": { 
		 "optdone": 1, 
		 "sigma_profile": "yes", 
		 "theory": "DFT", 
		 "functional": "B3LYP", 
		 "basiset": "6-31G**", 
		 "properties": { 
			 "R2extent": 6205.3638, 
			 "electric_dipole_moment_norm": 1.79589641962, 
			 "electric_quadrupole_moment_norm": 5.49283453965, 
			 "total_energy": -731.269959755, 
			 "HOMO_LUMO_gap": 0.15608, 
			 "cosmo_polarized_energy": -8.84, 
			 "cosmo_cavitation_energy": 37.74, 
			 "cosmo_dispersion_energy": -27.24, 
			 "cosmo_repulsion_energy": 2.07, 
			 "cosmo_total_nonelectrostatic_energy": 12.57, 
			 "SMD_solvation_energy": 2.24 
		},
		"coords": [
			{
				"x": 1.6570898141,
				"y": -3.5421081021,
				"z": -1.6673236355,
				"element": "C" 
			},
			{
				"x": 1.9097733573,
				"y": -2.2134013636,
				"z": -1.1317414132,
				"element": "N" 
			},
			{
				"x": 1.3913507393,
				"y": -1.1653088594,
				"z": -2.0118678005,
				"element": "C" 
			},
			{
				"x": 1.7829778753,
				"y": 0.2269437994,
				"z": -1.5083021191,
				"element": "C" 
			},
			{
				"x": 1.3068561655,
				"y": 0.4662455585,
				"z": -0.0564883426,
				"element": "C" 
			},
			{
				"x": 1.770771332,
				"y": -0.7096746105,
				"z": 0.8219206191,
				"element": "C" 
			},
			{
				"x": 1.3917865821,
				"y": -2.0704931347,
				"z": 0.2262604017,
				"element": "C" 
			},
			{
				"x": -0.1392209151,
				"y": 0.6373787954,
				"z": 0.0740445007,
				"element": "N" 
			},
			{
				"x": -0.820543689,
				"y": 1.7712830649,
				"z": -0.3555609485,
				"element": "C" 
			},
			{
				"x": -2.26627013,
				"y": 1.7669944434,
				"z": -0.32209515,
				"element": "C" 
			},
			{
				"x": -3.0196822286,
				"y": 0.6610774723,
				"z": 0.1545795828,
				"element": "C" 
			},
			{
				"x": -4.398752482,
				"y": 0.6734120673,
				"z": 0.1514383152,
				"element": "C" 
			},
			{
				"x": -5.0977791873,
				"y": 1.8043996578,
				"z": -0.3263024968,
				"element": "C" 
			},
			{
				"x": -4.3985024247,
				"y": 2.9041193249,
				"z": -0.7697186641,
				"element": "C" 
			},
			{
				"x": -2.9775585863,
				"y": 2.9274414811,
				"z": -0.7741490711,
				"element": "C" 
			},
			{
				"x": -2.2608338083,
				"y": 4.0767668484,
				"z": -1.2040855717,
				"element": "C" 
			},
			{
				"x": -0.8871258815,
				"y": 4.0680663125,
				"z": -1.1836567241,
				"element": "C" 
			},
			{
				"x": -0.1661176629,
				"y": 2.9252612541,
				"z": -0.7734393668,
				"element": "C" 
			},
			{
				"x": 2.1109002589,
				"y": -3.6345153258,
				"z": -2.6593808471,
				"element": "H" 
			},
			{
				"x": 2.1094730989,
				"y": -4.2972873162,
				"z": -1.016105172,
				"element": "H" 
			},
			{
				"x": 0.5789242052,
				"y": -3.7780378941,
				"z": -1.7637825703,
				"element": "H" 
			},
			{
				"x": 1.8021474918,
				"y": -1.3232807105,
				"z": -3.0153839265,
				"element": "H" 
			},
			{
				"x": 0.2871276225,
				"y": -1.231284702,
				"z": -2.1118819641,
				"element": "H" 
			},
			{
				"x": 1.3665865329,
				"y": 0.9898487214,
				"z": -2.1736417236,
				"element": "H" 
			},
			{
				"x": 2.8755227901,
				"y": 0.3179337295,
				"z": -1.539828322,
				"element": "H" 
			},
			{
				"x": 1.7711749387,
				"y": 1.3802169737,
				"z": 0.3292118933,
				"element": "H" 
			},
			{
				"x": 2.8620348272,
				"y": -0.6666421478,
				"z": 0.9074382717,
				"element": "H" 
			},
			{
				"x": 1.3498056401,
				"y": -0.6086893122,
				"z": 1.8278082177,
				"element": "H" 
			},
			{
				"x": 1.8132933493,
				"y": -2.8703686481,
				"z": 0.8459698238,
				"element": "H" 
			},
			{
				"x": 0.2881535977,
				"y": -2.2122693989,
				"z": 0.2561368239,
				"element": "H" 
			},
			{
				"x": -0.6617690988,
				"y": -0.2202070056,
				"z": -0.0221980619,
				"element": "H" 
			},
			{
				"x": -2.5127239728,
				"y": -0.2055484702,
				"z": 0.5678446645,
				"element": "H" 
			},
			{
				"x": -4.9485956596,
				"y": -0.1845990673,
				"z": 0.527236461,
				"element": "H" 
			},
			{
				"x": -6.1840669867,
				"y": 1.8081551478,
				"z": -0.3302850671,
				"element": "H" 
			},
			{
				"x": -4.9283639026,
				"y": 3.7853944229,
				"z": -1.122625095,
				"element": "H" 
			},
			{
				"x": -2.8121720056,
				"y": 4.9507789715,
				"z": -1.5382190581,
				"element": "H" 
			},
			{
				"x": -0.3319253601,
				"y": 4.9453761589,
				"z": -1.5046189018,
				"element": "H" 
			},
			{
				"x": 0.9164537631,
				"y": 2.9580218635,
				"z": -0.8017075619,
				"element": "H" 
			}
		],
		 "valence_orbital": [ 
			{
				"type": "occ",
				"energy": -0.29252,
				"method": "rhf"
			},
			{
				"type": "occ",
				"energy": -0.24137,
				"method": "rhf"
			},
			{
				"type": "occ",
				"energy": -0.2344,
				"method": "rhf"
			},
			{
				"type": "occ",
				"energy": -0.21632,
				"method": "rhf"
			},
			{
				"type": "occ",
				"energy": -0.18054,
				"method": "rhf"
			},
			{
				"type": "unocc",
				"energy": -0.02446,
				"method": "rhf"
			},
			{
				"type": "unocc",
				"energy": -0.00027,
				"method": "rhf"
			},
			{
				"type": "unocc",
				"energy": 0.05028,
				"method": "rhf"
			},
			{
				"type": "unocc",
				"energy": 0.06311,
				"method": "rhf"
			},
			{
				"type": "unocc",
				"energy": 0.08692,
				"method": "rhf"
			}
		],
		"cosmo_sigma_profile": { 
			"-0.025": 0.0,
			"-0.024": 0.0,
			"-0.023": 0.0,
			"-0.022": 0.0,
			"-0.021": 0.0,
			"-0.02": 0.0,
			"-0.019": 0.0,
			"-0.018": 0.0,
			"-0.017": 0.0,
			"-0.016": 0.0,
			"-0.015": 0.0,
			"-0.014": 0.0,
			"-0.013": 0.0,
			"-0.012": 0.0,
			"-0.011": 0.270518604709,
			"-0.01": 0.906168135713,
			"-0.009": 1.64323629148,
			"-0.008": 1.86813990593,
			"-0.007": 1.57920532998,
			"-0.006": 4.93282078277,
			"-0.005": 14.6136613258,
			"-0.004": 22.0450782762,
			"-0.003": 34.6987045188,
			"-0.002": 35.7216435598,
			"-0.001": 39.1838631137,
			"0.0": 33.1613801711,
			"0.001": 16.8118345726,
			"0.002": 11.7277700826,
			"0.003": 11.5349915052,
			"0.004": 14.1316446731,
			"0.005": 21.7548750407,
			"0.006": 16.7110440675,
			"0.007": 5.8880535473,
			"0.008": 1.60997504248,
			"0.009": 1.70264740211,
			"0.01": 0.781504427604,
			"0.011": 0.284950003709,
			"0.012": 1.05279457201,
			"0.013": 0.352597375241,
			"0.014": 0.4929379605,
			"0.015": 0.273310838601,
			"0.016": 0.498758369638,
			"0.017": 0.0563859700374,
			"0.018": 0.0,
			"0.019": 0.0,
			"0.02": 0.0,
			"0.021": 0.0,
			"0.022": 0.0,
			"0.023": 0.0,
			"0.024": 0.0,
			"0.025": 0.0
		}
	}
}
