{
	 "smiles": "NC1=C(Cl)C=CC=C1", 
	 "Tm": 270.15, 
	 "num_atms": 14, 
	 "gaussian": { 
		 "optdone": 1, 
		 "sigma_profile": "yes", 
		 "theory": "DFT", 
		 "functional": "B3LYP", 
		 "basiset": "6-31G**", 
		 "properties": { 
			 "R2extent": 2436.6388, 
			 "electric_dipole_moment_norm": 2.02109891148, 
			 "electric_quadrupole_moment_norm": 11.8230703555, 
			 "total_energy": -747.202869797, 
			 "HOMO_LUMO_gap": 0.20273, 
			 "cosmo_polarized_energy": -7.06, 
			 "cosmo_cavitation_energy": 19.24, 
			 "cosmo_dispersion_energy": -14.83, 
			 "cosmo_repulsion_energy": 1.23, 
			 "cosmo_total_nonelectrostatic_energy": 5.65, 
			 "SMD_solvation_energy": 3.01 
		},
		"coords": [
			{
				"x": 0.0798951715,
				"y": -1.1259731602,
				"z": 3.7158507779,
				"element": "N" 
			},
			{
				"x": -0.2044144389,
				"y": -1.2004641905,
				"z": 2.3607274648,
				"element": "C" 
			},
			{
				"x": -1.519796071,
				"y": -1.103699754,
				"z": 1.8673493258,
				"element": "C" 
			},
			{
				"x": -2.8380871375,
				"y": -0.7937242528,
				"z": 3.0033405847,
				"element": "Cl" 
			},
			{
				"x": -1.8124354779,
				"y": -1.2366073323,
				"z": 0.5131671354,
				"element": "C" 
			},
			{
				"x": -0.7857740847,
				"y": -1.4706940652,
				"z": -0.4008055688,
				"element": "C" 
			},
			{
				"x": 0.5286391235,
				"y": -1.56754735,
				"z": 0.0620727412,
				"element": "C" 
			},
			{
				"x": 0.8141514118,
				"y": -1.434372584,
				"z": 1.4165462126,
				"element": "C" 
			},
			{
				"x": 1.0252657854,
				"y": -0.8579648672,
				"z": 3.9474693902,
				"element": "H" 
			},
			{
				"x": -0.618664009,
				"y": -0.6709421023,
				"z": 4.2865654773,
				"element": "H" 
			},
			{
				"x": -2.8430027525,
				"y": -1.1518080028,
				"z": 0.1855282077,
				"element": "H" 
			},
			{
				"x": -1.0125415213,
				"y": -1.5745086589,
				"z": -1.4567279577,
				"element": "H" 
			},
			{
				"x": 1.3406418968,
				"y": -1.7475007673,
				"z": -0.6364244533,
				"element": "H" 
			},
			{
				"x": 1.8392221038,
				"y": -1.5175929124,
				"z": 1.7691406624,
				"element": "H" 
			}
		],
		 "valence_orbital": [ 
			{
				"type": "occ",
				"energy": -0.33293,
				"method": "rhf"
			},
			{
				"type": "occ",
				"energy": -0.31521,
				"method": "rhf"
			},
			{
				"type": "occ",
				"energy": -0.31315,
				"method": "rhf"
			},
			{
				"type": "occ",
				"energy": -0.24472,
				"method": "rhf"
			},
			{
				"type": "occ",
				"energy": -0.20769,
				"method": "rhf"
			},
			{
				"type": "unocc",
				"energy": -0.00496,
				"method": "rhf"
			},
			{
				"type": "unocc",
				"energy": 0.01096,
				"method": "rhf"
			},
			{
				"type": "unocc",
				"energy": 0.03255,
				"method": "rhf"
			},
			{
				"type": "unocc",
				"energy": 0.0847,
				"method": "rhf"
			},
			{
				"type": "unocc",
				"energy": 0.11219,
				"method": "rhf"
			}
		],
		"cosmo_sigma_profile": { 
			"-0.025": 0.0,
			"-0.024": 0.0,
			"-0.023": 0.0,
			"-0.022": 0.0,
			"-0.021": 0.0,
			"-0.02": 0.0,
			"-0.019": 0.0,
			"-0.018": 0.0,
			"-0.017": 0.0,
			"-0.016": 0.0,
			"-0.015": 0.0,
			"-0.014": 0.0185757140165,
			"-0.013": 1.1355839177,
			"-0.012": 1.29521631169,
			"-0.011": 2.35288416053,
			"-0.01": 2.59348500548,
			"-0.009": 2.98626340988,
			"-0.008": 1.64165615349,
			"-0.007": 3.40894488196,
			"-0.006": 7.70497379412,
			"-0.005": 8.7818355296,
			"-0.004": 8.97670206286,
			"-0.003": 9.76516641035,
			"-0.002": 6.94875370829,
			"-0.001": 7.85675818554,
			"0.0": 10.3348559041,
			"0.001": 8.51407673474,
			"0.002": 10.1940370323,
			"0.003": 15.8644765571,
			"0.004": 15.1673574161,
			"0.005": 17.2445934015,
			"0.006": 7.62756874371,
			"0.007": 1.35491296962,
			"0.008": 0.751357497979,
			"0.009": 0.59663888487,
			"0.01": 0.85685918423,
			"0.011": 0.404897977557,
			"0.012": 0.80335365511,
			"0.013": 0.555515170878,
			"0.014": 0.0420537496843,
			"0.015": 0.0,
			"0.016": 0.0,
			"0.017": 0.0,
			"0.018": 0.0,
			"0.019": 0.0,
			"0.02": 0.0,
			"0.021": 0.0,
			"0.022": 0.0,
			"0.023": 0.0,
			"0.024": 0.0,
			"0.025": 0.0
		}
	}
}
