{
	 "smiles": "CC(C)(CCC(O)=O)NC(=O)OCC1C2=C(C=CC=C2)C2=C1C=CC=C2", 
	 "Tm": 393.15, 
	 "num_atms": 49, 
	 "gaussian": { 
		 "optdone": 1, 
		 "sigma_profile": "yes", 
		 "theory": "DFT", 
		 "functional": "B3LYP", 
		 "basiset": "6-31G**", 
		 "properties": { 
			 "R2extent": 8347.9238, 
			 "electric_dipole_moment_norm": 2.98796105229, 
			 "electric_quadrupole_moment_norm": 24.1392779824, 
			 "total_energy": -1169.80316901, 
			 "HOMO_LUMO_gap": 0.18313, 
			 "cosmo_polarized_energy": -19.52, 
			 "cosmo_cavitation_energy": 48.86, 
			 "cosmo_dispersion_energy": -31.39, 
			 "cosmo_repulsion_energy": 2.32, 
			 "cosmo_total_nonelectrostatic_energy": 19.79, 
			 "SMD_solvation_energy": 8.78 
		},
		"coords": [
			{
				"x": -1.9665580627,
				"y": 2.3024595189,
				"z": 1.4135642526,
				"element": "C" 
			},
			{
				"x": -1.8150412307,
				"y": 2.4241232421,
				"z": -0.1115304965,
				"element": "C" 
			},
			{
				"x": -2.7234477313,
				"y": 3.5679999603,
				"z": -0.6069556516,
				"element": "C" 
			},
			{
				"x": -2.2396202362,
				"y": 1.1350608164,
				"z": -0.8766277705,
				"element": "C" 
			},
			{
				"x": -1.8103029232,
				"y": -0.221810028,
				"z": -0.3036026133,
				"element": "C" 
			},
			{
				"x": -2.7927333493,
				"y": -0.7800470588,
				"z": 0.7222747872,
				"element": "C" 
			},
			{
				"x": -2.3810871986,
				"y": -1.8875156874,
				"z": 1.3836385351,
				"element": "O" 
			},
			{
				"x": -3.89070374,
				"y": -0.3229990819,
				"z": 0.9431217134,
				"element": "O" 
			},
			{
				"x": -0.4402083432,
				"y": 2.8574229689,
				"z": -0.4870085174,
				"element": "N" 
			},
			{
				"x": 0.8060051344,
				"y": 2.501038477,
				"z": -0.0729421293,
				"element": "C" 
			},
			{
				"x": 1.8105649904,
				"y": 3.1341307285,
				"z": -0.3608497966,
				"element": "O" 
			},
			{
				"x": 0.8202917076,
				"y": 1.3612527113,
				"z": 0.6848512267,
				"element": "O" 
			},
			{
				"x": 2.1002707816,
				"y": 0.969602503,
				"z": 1.2089381969,
				"element": "C" 
			},
			{
				"x": 2.6445963219,
				"y": -0.2954067557,
				"z": 0.5311336693,
				"element": "C" 
			},
			{
				"x": 1.8021256449,
				"y": -1.5496566314,
				"z": 0.7119142219,
				"element": "C" 
			},
			{
				"x": 1.55850738,
				"y": -2.1578512404,
				"z": -0.5380638353,
				"element": "C" 
			},
			{
				"x": 0.8169390247,
				"y": -3.3388974794,
				"z": -0.6177771661,
				"element": "C" 
			},
			{
				"x": 0.318526662,
				"y": -3.9055803258,
				"z": 0.5599214702,
				"element": "C" 
			},
			{
				"x": 0.5618599957,
				"y": -3.3023404198,
				"z": 1.8013802907,
				"element": "C" 
			},
			{
				"x": 1.3088354021,
				"y": -2.1177809625,
				"z": 1.8808403484,
				"element": "C" 
			},
			{
				"x": 2.1858187983,
				"y": -1.3423525664,
				"z": -1.586007692,
				"element": "C" 
			},
			{
				"x": 2.80624597,
				"y": -0.2298690472,
				"z": -0.9818727662,
				"element": "C" 
			},
			{
				"x": 3.4658838975,
				"y": 0.7166610136,
				"z": -1.7588313284,
				"element": "C" 
			},
			{
				"x": 3.5090081108,
				"y": 0.5388961231,
				"z": -3.1461637679,
				"element": "C" 
			},
			{
				"x": 2.9023844556,
				"y": -0.5707181552,
				"z": -3.745554642,
				"element": "C" 
			},
			{
				"x": 2.2334679389,
				"y": -1.5197715786,
				"z": -2.9705602479,
				"element": "C" 
			},
			{
				"x": -1.2986601298,
				"y": 1.5483240728,
				"z": 1.8317711512,
				"element": "H" 
			},
			{
				"x": -2.9936433596,
				"y": 2.0243846545,
				"z": 1.6601181711,
				"element": "H" 
			},
			{
				"x": -1.733048911,
				"y": 3.2603123338,
				"z": 1.8894225185,
				"element": "H" 
			},
			{
				"x": -2.4341629034,
				"y": 4.5206927568,
				"z": -0.1509878432,
				"element": "H" 
			},
			{
				"x": -2.6686387987,
				"y": 3.6721636126,
				"z": -1.6971093971,
				"element": "H" 
			},
			{
				"x": -3.7632643215,
				"y": 3.3646039291,
				"z": -0.3408458482,
				"element": "H" 
			},
			{
				"x": -3.3326754001,
				"y": 1.1249272529,
				"z": -0.9317266119,
				"element": "H" 
			},
			{
				"x": -1.8624546782,
				"y": 1.2318365756,
				"z": -1.8997869746,
				"element": "H" 
			},
			{
				"x": -1.7610244259,
				"y": -0.9620331313,
				"z": -1.1138908089,
				"element": "H" 
			},
			{
				"x": -0.8061896203,
				"y": -0.1833918787,
				"z": 0.1267620374,
				"element": "H" 
			},
			{
				"x": -1.4784723407,
				"y": -2.1397203698,
				"z": 1.1271773882,
				"element": "H" 
			},
			{
				"x": -0.3870746708,
				"y": 3.6883012642,
				"z": -1.0585839929,
				"element": "H" 
			},
			{
				"x": 2.797899463,
				"y": 1.7990538486,
				"z": 1.0854435637,
				"element": "H" 
			},
			{
				"x": 1.9484609768,
				"y": 0.7826102159,
				"z": 2.2766371611,
				"element": "H" 
			},
			{
				"x": 3.6313828712,
				"y": -0.4633076581,
				"z": 0.9923793884,
				"element": "H" 
			},
			{
				"x": 0.6272572307,
				"y": -3.814490526,
				"z": -1.5759154582,
				"element": "H" 
			},
			{
				"x": -0.2591421043,
				"y": -4.8241860264,
				"z": 0.5140935136,
				"element": "H" 
			},
			{
				"x": 0.1708371994,
				"y": -3.7558522369,
				"z": 2.70718197,
				"element": "H" 
			},
			{
				"x": 1.493831948,
				"y": -1.6586718512,
				"z": 2.8486155142,
				"element": "H" 
			},
			{
				"x": 3.9144454433,
				"y": 1.5948106242,
				"z": -1.306444495,
				"element": "H" 
			},
			{
				"x": 4.0158338437,
				"y": 1.2738527342,
				"z": -3.7645510798,
				"element": "H" 
			},
			{
				"x": 2.9486788586,
				"y": -0.6919458948,
				"z": -4.8240281561,
				"element": "H" 
			},
			{
				"x": 1.7601944286,
				"y": -2.3778253465,
				"z": -3.4400620026,
				"element": "H" 
			}
		],
		 "valence_orbital": [ 
			{
				"type": "occ",
				"energy": -0.26465,
				"method": "rhf"
			},
			{
				"type": "occ",
				"energy": -0.25986,
				"method": "rhf"
			},
			{
				"type": "occ",
				"energy": -0.25238,
				"method": "rhf"
			},
			{
				"type": "occ",
				"energy": -0.2479,
				"method": "rhf"
			},
			{
				"type": "occ",
				"energy": -0.226,
				"method": "rhf"
			},
			{
				"type": "unocc",
				"energy": -0.04287,
				"method": "rhf"
			},
			{
				"type": "unocc",
				"energy": -0.0254,
				"method": "rhf"
			},
			{
				"type": "unocc",
				"energy": -0.00122,
				"method": "rhf"
			},
			{
				"type": "unocc",
				"energy": 0.02195,
				"method": "rhf"
			},
			{
				"type": "unocc",
				"energy": 0.03004,
				"method": "rhf"
			}
		],
		"cosmo_sigma_profile": { 
			"-0.025": 0.0,
			"-0.024": 0.0,
			"-0.023": 0.0,
			"-0.022": 0.0,
			"-0.021": 0.0,
			"-0.02": 0.0,
			"-0.019": 0.0,
			"-0.018": 0.0,
			"-0.017": 0.0,
			"-0.016": 0.0,
			"-0.015": 0.0,
			"-0.014": 0.0,
			"-0.013": 0.239802695166,
			"-0.012": 1.11834122795,
			"-0.011": 0.270489701076,
			"-0.01": 0.929825707184,
			"-0.009": 1.47669402448,
			"-0.008": 1.84798097916,
			"-0.007": 6.63886897026,
			"-0.006": 23.9052849199,
			"-0.005": 27.8108350802,
			"-0.004": 35.6298345771,
			"-0.003": 37.8914660116,
			"-0.002": 33.0292634847,
			"-0.001": 33.3566784024,
			"0.0": 33.7096331196,
			"0.001": 28.1262473482,
			"0.002": 20.6283163496,
			"0.003": 17.8540650768,
			"0.004": 16.3023813358,
			"0.005": 16.7027128051,
			"0.006": 8.84325201838,
			"0.007": 4.47359513718,
			"0.008": 4.3796127183,
			"0.009": 4.28797617794,
			"0.01": 4.63907623922,
			"0.011": 6.50345767418,
			"0.012": 6.80242003468,
			"0.013": 5.82151092685,
			"0.014": 2.5888140009,
			"0.015": 0.0536672591632,
			"0.016": 0.0,
			"0.017": 0.0,
			"0.018": 0.0,
			"0.019": 0.0,
			"0.02": 0.0,
			"0.021": 0.0,
			"0.022": 0.0,
			"0.023": 0.0,
			"0.024": 0.0,
			"0.025": 0.0
		}
	}
}
