{
	 "smiles": "CN(N=CC1=CC=C(F)C=C1)P(=O)(N1CC1)N1CC1", 
	 "Tm": 379.15, 
	 "num_atms": 35, 
	 "gaussian": { 
		 "optdone": 1, 
		 "sigma_profile": "yes", 
		 "theory": "DFT", 
		 "functional": "B3LYP", 
		 "basiset": "6-31G**", 
		 "properties": { 
			 "R2extent": 8321.2397, 
			 "electric_dipole_moment_norm": 3.70157649793, 
			 "electric_quadrupole_moment_norm": 8.98432507593, 
			 "total_energy": -1202.25964285, 
			 "HOMO_LUMO_gap": 0.17112, 
			 "cosmo_polarized_energy": -13.04, 
			 "cosmo_cavitation_energy": 41.05, 
			 "cosmo_dispersion_energy": -27.64, 
			 "cosmo_repulsion_energy": 2.09, 
			 "cosmo_total_nonelectrostatic_energy": 15.5, 
			 "SMD_solvation_energy": 4.28 
		},
		"coords": [
			{
				"x": -1.7690228954,
				"y": 0.8740444667,
				"z": 0.0396244749,
				"element": "C" 
			},
			{
				"x": -0.3051372304,
				"y": 0.9408186688,
				"z": -0.0808868545,
				"element": "N" 
			},
			{
				"x": 0.2512479723,
				"y": -0.3261639823,
				"z": -0.0508693816,
				"element": "N" 
			},
			{
				"x": 1.5176643887,
				"y": -0.5367412849,
				"z": -0.1389206025,
				"element": "C" 
			},
			{
				"x": 2.0258608083,
				"y": -1.9151556644,
				"z": -0.1363374222,
				"element": "C" 
			},
			{
				"x": 1.1774315717,
				"y": -3.0338951599,
				"z": -0.0368874508,
				"element": "C" 
			},
			{
				"x": 1.6951257155,
				"y": -4.3235451961,
				"z": -0.0421553252,
				"element": "C" 
			},
			{
				"x": 3.0744014967,
				"y": -4.4951406156,
				"z": -0.1457614969,
				"element": "C" 
			},
			{
				"x": 3.5781752254,
				"y": -5.7479134587,
				"z": -0.1494245969,
				"element": "F" 
			},
			{
				"x": 3.9440185894,
				"y": -3.4164168556,
				"z": -0.2439775504,
				"element": "C" 
			},
			{
				"x": 3.410222545,
				"y": -2.1282733272,
				"z": -0.2381704099,
				"element": "C" 
			},
			{
				"x": 0.47765375,
				"y": 2.403369205,
				"z": 0.3005173823,
				"element": "P" 
			},
			{
				"x": 1.9686252345,
				"y": 2.3531126968,
				"z": 0.184653541,
				"element": "O" 
			},
			{
				"x": -0.3302176632,
				"y": 3.5131351946,
				"z": -0.6995687074,
				"element": "N" 
			},
			{
				"x": 0.2835111473,
				"y": 4.8309193659,
				"z": -0.9403640644,
				"element": "C" 
			},
			{
				"x": 0.2548316962,
				"y": 3.8080442809,
				"z": -2.0172798857,
				"element": "C" 
			},
			{
				"x": -0.1405490372,
				"y": 2.8328039283,
				"z": 1.8263630175,
				"element": "N" 
			},
			{
				"x": 0.5687292916,
				"y": 2.3423953022,
				"z": 3.0209825594,
				"element": "C" 
			},
			{
				"x": 0.6078339346,
				"y": 3.7840420725,
				"z": 2.6674029224,
				"element": "C" 
			},
			{
				"x": -2.0734394348,
				"y": 0.5293478604,
				"z": 1.0341762916,
				"element": "H" 
			},
			{
				"x": -2.1451929766,
				"y": 0.1757247384,
				"z": -0.7114809225,
				"element": "H" 
			},
			{
				"x": -2.1887816551,
				"y": 1.8626930829,
				"z": -0.1443216098,
				"element": "H" 
			},
			{
				"x": 2.249654988,
				"y": 0.2665808465,
				"z": -0.2126261609,
				"element": "H" 
			},
			{
				"x": 0.1082887744,
				"y": -2.8705029391,
				"z": 0.0437507638,
				"element": "H" 
			},
			{
				"x": 1.0538782211,
				"y": -5.195436289,
				"z": 0.0330354727,
				"element": "H" 
			},
			{
				"x": 5.0114297971,
				"y": -3.5920481852,
				"z": -0.3225435679,
				"element": "H" 
			},
			{
				"x": 4.0766631987,
				"y": -1.2731736458,
				"z": -0.314384528,
				"element": "H" 
			},
			{
				"x": 1.2505818227,
				"y": 5.0376538824,
				"z": -0.4868770559,
				"element": "H" 
			},
			{
				"x": -0.4180980617,
				"y": 5.6607507131,
				"z": -0.9492619143,
				"element": "H" 
			},
			{
				"x": -0.4693164487,
				"y": 3.8824841634,
				"z": -2.8240464971,
				"element": "H" 
			},
			{
				"x": 1.1994644105,
				"y": 3.3324551219,
				"z": -2.2720527185,
				"element": "H" 
			},
			{
				"x": 1.4847692983,
				"y": 1.7740766521,
				"z": 2.8747214266,
				"element": "H" 
			},
			{
				"x": -0.0815497104,
				"y": 1.9906491004,
				"z": 3.8174241409,
				"element": "H" 
			},
			{
				"x": 1.5514666341,
				"y": 4.1700035765,
				"z": 2.2878335063,
				"element": "H" 
			},
			{
				"x": -0.0129253988,
				"y": 4.497501684,
				"z": 3.2029132239,
				"element": "H" 
			}
		],
		 "valence_orbital": [ 
			{
				"type": "occ",
				"energy": -0.2648,
				"method": "rhf"
			},
			{
				"type": "occ",
				"energy": -0.25523,
				"method": "rhf"
			},
			{
				"type": "occ",
				"energy": -0.25276,
				"method": "rhf"
			},
			{
				"type": "occ",
				"energy": -0.25191,
				"method": "rhf"
			},
			{
				"type": "occ",
				"energy": -0.20349,
				"method": "rhf"
			},
			{
				"type": "unocc",
				"energy": -0.03237,
				"method": "rhf"
			},
			{
				"type": "unocc",
				"energy": -0.00369,
				"method": "rhf"
			},
			{
				"type": "unocc",
				"energy": 0.05574,
				"method": "rhf"
			},
			{
				"type": "unocc",
				"energy": 0.06332,
				"method": "rhf"
			},
			{
				"type": "unocc",
				"energy": 0.07519,
				"method": "rhf"
			}
		],
		"cosmo_sigma_profile": { 
			"-0.025": 0.0,
			"-0.024": 0.0,
			"-0.023": 0.0,
			"-0.022": 0.0,
			"-0.021": 0.0,
			"-0.02": 0.0,
			"-0.019": 0.0,
			"-0.018": 0.0,
			"-0.017": 0.0,
			"-0.016": 0.0,
			"-0.015": 0.0,
			"-0.014": 0.0,
			"-0.013": 0.0,
			"-0.012": 0.0,
			"-0.011": 0.0,
			"-0.01": 0.0,
			"-0.009": 0.0,
			"-0.008": 0.350830844035,
			"-0.007": 8.5479052834,
			"-0.006": 20.0438256227,
			"-0.005": 24.8339085963,
			"-0.004": 27.6579107518,
			"-0.003": 30.5276969498,
			"-0.002": 27.777838899,
			"-0.001": 22.6288209058,
			"0.0": 24.9366836332,
			"0.001": 24.0563865986,
			"0.002": 19.3610941253,
			"0.003": 23.4783229685,
			"0.004": 27.9209332829,
			"0.005": 11.7559811352,
			"0.006": 5.31131257065,
			"0.007": 5.17271981659,
			"0.008": 4.97142684261,
			"0.009": 2.6623072873,
			"0.01": 2.96178036837,
			"0.011": 2.25994433866,
			"0.012": 2.18084417248,
			"0.013": 1.7852112295,
			"0.014": 2.84121789007,
			"0.015": 0.917706148201,
			"0.016": 0.0,
			"0.017": 0.0,
			"0.018": 0.0,
			"0.019": 0.0,
			"0.02": 0.0,
			"0.021": 0.0,
			"0.022": 0.0,
			"0.023": 0.0,
			"0.024": 0.0,
			"0.025": 0.0
		}
	}
}
