{
	 "smiles": "CC(=O)C1=C(O)C2=C(C=CC=C2)C=C1C1=CC=CC=C1", 
	 "Tm": 328.15, 
	 "num_atms": 34, 
	 "gaussian": { 
		 "optdone": 1, 
		 "sigma_profile": "yes", 
		 "theory": "DFT", 
		 "functional": "B3LYP", 
		 "basiset": "6-31G**", 
		 "properties": { 
			 "R2extent": 5916.7112, 
			 "electric_dipole_moment_norm": 3.78535251331, 
			 "electric_quadrupole_moment_norm": 14.5029207055, 
			 "total_energy": -844.80685714, 
			 "HOMO_LUMO_gap": 0.1614, 
			 "cosmo_polarized_energy": -14.14, 
			 "cosmo_cavitation_energy": 37.53, 
			 "cosmo_dispersion_energy": -26.5, 
			 "cosmo_repulsion_energy": 2.01, 
			 "cosmo_total_nonelectrostatic_energy": 13.03, 
			 "SMD_solvation_energy": 6.76 
		},
		"coords": [
			{
				"x": 2.8408271798,
				"y": -1.6285321929,
				"z": -1.2085769283,
				"element": "C" 
			},
			{
				"x": 1.487311776,
				"y": -1.2574697241,
				"z": -1.7749408129,
				"element": "C" 
			},
			{
				"x": 1.2137868415,
				"y": -1.3985079192,
				"z": -2.9516125459,
				"element": "O" 
			},
			{
				"x": 0.4834249036,
				"y": -0.6819885805,
				"z": -0.7909143928,
				"element": "C" 
			},
			{
				"x": -0.1652389515,
				"y": -1.5656982027,
				"z": 0.0545569517,
				"element": "C" 
			},
			{
				"x": 0.1487277692,
				"y": -2.8933615242,
				"z": -0.0839006097,
				"element": "O" 
			},
			{
				"x": -1.1192491689,
				"y": -1.1254722043,
				"z": 1.0203645951,
				"element": "C" 
			},
			{
				"x": -1.3459153672,
				"y": 0.2827565116,
				"z": 1.1366946092,
				"element": "C" 
			},
			{
				"x": -2.2718004321,
				"y": 0.7446828353,
				"z": 2.1117056466,
				"element": "C" 
			},
			{
				"x": -2.9476770243,
				"y": -0.1363373085,
				"z": 2.9246451102,
				"element": "C" 
			},
			{
				"x": -2.7383548111,
				"y": -1.5299844605,
				"z": 2.7924411943,
				"element": "C" 
			},
			{
				"x": -1.8476012045,
				"y": -2.0115350347,
				"z": 1.8585412809,
				"element": "C" 
			},
			{
				"x": -0.6568324507,
				"y": 1.1721779129,
				"z": 0.2768077035,
				"element": "C" 
			},
			{
				"x": 0.2273017638,
				"y": 0.7223228445,
				"z": -0.6891981871,
				"element": "C" 
			},
			{
				"x": 0.9215385592,
				"y": 1.725267195,
				"z": -1.5485946774,
				"element": "C" 
			},
			{
				"x": 0.9017516781,
				"y": 1.6442846177,
				"z": -2.9514699208,
				"element": "C" 
			},
			{
				"x": 1.5181471561,
				"y": 2.6278202939,
				"z": -3.7252256902,
				"element": "C" 
			},
			{
				"x": 2.1651910104,
				"y": 3.7053508828,
				"z": -3.1177122892,
				"element": "C" 
			},
			{
				"x": 2.1920337609,
				"y": 3.7964001609,
				"z": -1.7249523882,
				"element": "C" 
			},
			{
				"x": 1.5741118148,
				"y": 2.8165713916,
				"z": -0.9487143822,
				"element": "C" 
			},
			{
				"x": 2.7181693777,
				"y": -2.3220788238,
				"z": -0.371170561,
				"element": "H" 
			},
			{
				"x": 3.3320875846,
				"y": -0.7277655853,
				"z": -0.8212130311,
				"element": "H" 
			},
			{
				"x": 3.4589051848,
				"y": -2.0799787122,
				"z": -1.9867237902,
				"element": "H" 
			},
			{
				"x": -0.1508579223,
				"y": -3.3818175738,
				"z": 0.6924445252,
				"element": "H" 
			},
			{
				"x": -2.4396275573,
				"y": 1.8147364989,
				"z": 2.2003659445,
				"element": "H" 
			},
			{
				"x": -3.6520435776,
				"y": 0.2336233588,
				"z": 3.6637843163,
				"element": "H" 
			},
			{
				"x": -3.2906135966,
				"y": -2.221097729,
				"z": 3.4219827314,
				"element": "H" 
			},
			{
				"x": -1.7358805109,
				"y": -3.088583824,
				"z": 1.7540596005,
				"element": "H" 
			},
			{
				"x": -0.85408136,
				"y": 2.2365612449,
				"z": 0.3615948512,
				"element": "H" 
			},
			{
				"x": 0.4029111466,
				"y": 0.8096921001,
				"z": -3.4298720372,
				"element": "H" 
			},
			{
				"x": 1.487875557,
				"y": 2.5515786956,
				"z": -4.8084353213,
				"element": "H" 
			},
			{
				"x": 2.6459014539,
				"y": 4.467410579,
				"z": -3.7245741351,
				"element": "H" 
			},
			{
				"x": 2.697605372,
				"y": 4.6276229228,
				"z": -1.2413356928,
				"element": "H" 
			},
			{
				"x": 1.6059640451,
				"y": 2.8840493535,
				"z": 0.135048333,
				"element": "H" 
			}
		],
		 "valence_orbital": [ 
			{
				"type": "occ",
				"energy": -0.26139,
				"method": "rhf"
			},
			{
				"type": "occ",
				"energy": -0.24704,
				"method": "rhf"
			},
			{
				"type": "occ",
				"energy": -0.24511,
				"method": "rhf"
			},
			{
				"type": "occ",
				"energy": -0.23305,
				"method": "rhf"
			},
			{
				"type": "occ",
				"energy": -0.20796,
				"method": "rhf"
			},
			{
				"type": "unocc",
				"energy": -0.04656,
				"method": "rhf"
			},
			{
				"type": "unocc",
				"energy": -0.0277,
				"method": "rhf"
			},
			{
				"type": "unocc",
				"energy": -0.01216,
				"method": "rhf"
			},
			{
				"type": "unocc",
				"energy": 0.00278,
				"method": "rhf"
			},
			{
				"type": "unocc",
				"energy": 0.01021,
				"method": "rhf"
			}
		],
		"cosmo_sigma_profile": { 
			"-0.025": 0.0,
			"-0.024": 0.0,
			"-0.023": 0.0,
			"-0.022": 0.0,
			"-0.021": 0.0,
			"-0.02": 0.0,
			"-0.019": 0.0,
			"-0.018": 0.456531367965,
			"-0.017": 1.20219813043,
			"-0.016": 0.882734548939,
			"-0.015": 0.487661730815,
			"-0.014": 1.11943603058,
			"-0.013": 1.18062081764,
			"-0.012": 0.995963177386,
			"-0.011": 0.941351594947,
			"-0.01": 0.953910306492,
			"-0.009": 1.04438370781,
			"-0.008": 1.2031527149,
			"-0.007": 1.82740959686,
			"-0.006": 13.7363315876,
			"-0.005": 21.7188388979,
			"-0.004": 25.271359626,
			"-0.003": 24.9987201971,
			"-0.002": 21.2501094726,
			"-0.001": 22.0333651456,
			"0.0": 18.9121056344,
			"0.001": 17.6689594327,
			"0.002": 22.1730994475,
			"0.003": 27.6066058945,
			"0.004": 27.5184175383,
			"0.005": 17.7537109132,
			"0.006": 8.92461160051,
			"0.007": 3.32178824264,
			"0.008": 2.69893891041,
			"0.009": 3.18472884059,
			"0.01": 2.92645022102,
			"0.011": 3.50102058081,
			"0.012": 2.50733893036,
			"0.013": 0.4794835614,
			"0.014": 0.0,
			"0.015": 0.0,
			"0.016": 0.0,
			"0.017": 0.0,
			"0.018": 0.0,
			"0.019": 0.0,
			"0.02": 0.0,
			"0.021": 0.0,
			"0.022": 0.0,
			"0.023": 0.0,
			"0.024": 0.0,
			"0.025": 0.0
		}
	}
}
