{
	 "smiles": "C[C@]12CC[C@H]3[C@@H](CC[C@H]4[C@@H](O)[C@H](O)CC[C@]34C)[C@@H]1CCC2=O", 
	 "Tm": 506.15, 
	 "num_atms": 52, 
	 "gaussian": { 
		 "optdone": 1, 
		 "sigma_profile": "yes", 
		 "theory": "DFT", 
		 "functional": "B3LYP", 
		 "basiset": "6-31G**", 
		 "properties": { 
			 "R2extent": 7778.6804, 
			 "electric_dipole_moment_norm": 4.09431612849, 
			 "electric_quadrupole_moment_norm": 16.8994203563, 
			 "total_energy": -967.78976636, 
			 "HOMO_LUMO_gap": 0.21784, 
			 "cosmo_polarized_energy": -15.68, 
			 "cosmo_cavitation_energy": 44.26, 
			 "cosmo_dispersion_energy": -31.34, 
			 "cosmo_repulsion_energy": 2.3, 
			 "cosmo_total_nonelectrostatic_energy": 15.22, 
			 "SMD_solvation_energy": 6.51 
		},
		"coords": [
			{
				"x": -0.9633255222,
				"y": 0.7870383839,
				"z": 3.4499610387,
				"element": "C" 
			},
			{
				"x": 0.4521969949,
				"y": 0.8884642262,
				"z": 2.820843567,
				"element": "C" 
			},
			{
				"x": 0.5069693252,
				"y": 1.9993418656,
				"z": 1.7679104541,
				"element": "C" 
			},
			{
				"x": -0.3023938793,
				"y": 1.5979459005,
				"z": 0.5162684059,
				"element": "C" 
			},
			{
				"x": 0.098469233,
				"y": 0.2227978053,
				"z": -0.0757115708,
				"element": "C" 
			},
			{
				"x": 0.1029551799,
				"y": -0.9018035665,
				"z": 1.0078405613,
				"element": "C" 
			},
			{
				"x": 0.6098450815,
				"y": -2.2342281615,
				"z": 0.4299174732,
				"element": "C" 
			},
			{
				"x": -0.1309908005,
				"y": -2.6405412529,
				"z": -0.8498467607,
				"element": "C" 
			},
			{
				"x": -0.0808897986,
				"y": -1.5119458853,
				"z": -1.889921577,
				"element": "C" 
			},
			{
				"x": -0.5701355788,
				"y": -1.9628367187,
				"z": -3.2809561951,
				"element": "C" 
			},
			{
				"x": -1.9352992867,
				"y": -2.3769095593,
				"z": -3.3400561617,
				"element": "O" 
			},
			{
				"x": -0.4083941388,
				"y": -0.8452290194,
				"z": -4.3265397464,
				"element": "C" 
			},
			{
				"x": 0.9769571813,
				"y": -0.5870332166,
				"z": -4.5639554759,
				"element": "O" 
			},
			{
				"x": -1.0356838843,
				"y": 0.461330635,
				"z": -3.8469190493,
				"element": "C" 
			},
			{
				"x": -0.5100307606,
				"y": 0.8918585544,
				"z": -2.4681335044,
				"element": "C" 
			},
			{
				"x": -0.7093385112,
				"y": -0.1795282059,
				"z": -1.3617446296,
				"element": "C" 
			},
			{
				"x": -2.2192075748,
				"y": -0.3146448502,
				"z": -1.04931206,
				"element": "C" 
			},
			{
				"x": 0.9586226031,
				"y": -0.4309684705,
				"z": 2.18994279,
				"element": "C" 
			},
			{
				"x": 1.2309891119,
				"y": -1.3518295322,
				"z": 3.3986730117,
				"element": "C" 
			},
			{
				"x": 1.8650401047,
				"y": -0.3845292456,
				"z": 4.4263054897,
				"element": "C" 
			},
			{
				"x": 1.4065427568,
				"y": 1.0284546234,
				"z": 4.0119753014,
				"element": "C" 
			},
			{
				"x": 1.7476868118,
				"y": 2.0629695518,
				"z": 4.5439828932,
				"element": "O" 
			},
			{
				"x": -1.0292464985,
				"y": 0.0022003035,
				"z": 4.2097449377,
				"element": "H" 
			},
			{
				"x": -1.2082050485,
				"y": 1.7368314644,
				"z": 3.935623173,
				"element": "H" 
			},
			{
				"x": -1.7315934469,
				"y": 0.5819959813,
				"z": 2.700889692,
				"element": "H" 
			},
			{
				"x": 1.5541809807,
				"y": 2.1748903487,
				"z": 1.4890118107,
				"element": "H" 
			},
			{
				"x": 0.1328000093,
				"y": 2.9446241411,
				"z": 2.176595501,
				"element": "H" 
			},
			{
				"x": -1.3699163765,
				"y": 1.5991888575,
				"z": 0.7641398432,
				"element": "H" 
			},
			{
				"x": -0.1705683131,
				"y": 2.3740887557,
				"z": -0.2440289047,
				"element": "H" 
			},
			{
				"x": 1.1467098756,
				"y": 0.3218093957,
				"z": -0.4043821975,
				"element": "H" 
			},
			{
				"x": -0.9249205054,
				"y": -1.060454094,
				"z": 1.3626271809,
				"element": "H" 
			},
			{
				"x": 1.6812932172,
				"y": -2.1368738847,
				"z": 0.1998237959,
				"element": "H" 
			},
			{
				"x": 0.5255169046,
				"y": -3.0258437579,
				"z": 1.1841798046,
				"element": "H" 
			},
			{
				"x": 0.3231183388,
				"y": -3.5501784798,
				"z": -1.2666496018,
				"element": "H" 
			},
			{
				"x": -1.1709107528,
				"y": -2.8976417254,
				"z": -0.6028491331,
				"element": "H" 
			},
			{
				"x": 0.9832492858,
				"y": -1.2883673001,
				"z": -2.0583386012,
				"element": "H" 
			},
			{
				"x": 0.0752912118,
				"y": -2.8065356417,
				"z": -3.5934244306,
				"element": "H" 
			},
			{
				"x": -2.0748861151,
				"y": -3.0487078572,
				"z": -2.6609080313,
				"element": "H" 
			},
			{
				"x": -0.9055032414,
				"y": -1.1750922854,
				"z": -5.251239451,
				"element": "H" 
			},
			{
				"x": 1.3727115633,
				"y": -1.3904649153,
				"z": -4.9261622016,
				"element": "H" 
			},
			{
				"x": -2.1221381012,
				"y": 0.329428652,
				"z": -3.8240460625,
				"element": "H" 
			},
			{
				"x": -0.8218044549,
				"y": 1.2404866965,
				"z": -4.5866884165,
				"element": "H" 
			},
			{
				"x": -1.005655153,
				"y": 1.8252570595,
				"z": -2.1802798677,
				"element": "H" 
			},
			{
				"x": 0.5602952838,
				"y": 1.1151877281,
				"z": -2.558167389,
				"element": "H" 
			},
			{
				"x": -2.7677307976,
				"y": -0.6954254375,
				"z": -1.9110915946,
				"element": "H" 
			},
			{
				"x": -2.6447411892,
				"y": 0.6568181409,
				"z": -0.778318729,
				"element": "H" 
			},
			{
				"x": -2.4149172991,
				"y": -0.9963036589,
				"z": -0.2162496971,
				"element": "H" 
			},
			{
				"x": 1.951533214,
				"y": -0.1932457882,
				"z": 1.7691574183,
				"element": "H" 
			},
			{
				"x": 1.8925235244,
				"y": -2.1866858712,
				"z": 3.1515774775,
				"element": "H" 
			},
			{
				"x": 0.3000509565,
				"y": -1.7826309238,
				"z": 3.7847276413,
				"element": "H" 
			},
			{
				"x": 1.5931938647,
				"y": -0.5823211129,
				"z": 5.4680536897,
				"element": "H" 
			},
			{
				"x": 2.960484414,
				"y": -0.4037086526,
				"z": 4.382548088,
				"element": "H" 
			}
		],
		 "valence_orbital": [ 
			{
				"type": "occ",
				"energy": -0.29323,
				"method": "rhf"
			},
			{
				"type": "occ",
				"energy": -0.27731,
				"method": "rhf"
			},
			{
				"type": "occ",
				"energy": -0.26245,
				"method": "rhf"
			},
			{
				"type": "occ",
				"energy": -0.25645,
				"method": "rhf"
			},
			{
				"type": "occ",
				"energy": -0.2282,
				"method": "rhf"
			},
			{
				"type": "unocc",
				"energy": -0.01036,
				"method": "rhf"
			},
			{
				"type": "unocc",
				"energy": 0.06258,
				"method": "rhf"
			},
			{
				"type": "unocc",
				"energy": 0.06681,
				"method": "rhf"
			},
			{
				"type": "unocc",
				"energy": 0.07832,
				"method": "rhf"
			},
			{
				"type": "unocc",
				"energy": 0.08173,
				"method": "rhf"
			}
		],
		"cosmo_sigma_profile": { 
			"-0.025": 0.0,
			"-0.024": 0.0,
			"-0.023": 0.0,
			"-0.022": 0.0,
			"-0.021": 0.0,
			"-0.02": 0.0,
			"-0.019": 0.0,
			"-0.018": 0.0,
			"-0.017": 0.0,
			"-0.016": 0.0,
			"-0.015": 0.888629283725,
			"-0.014": 1.20944757024,
			"-0.013": 2.26776214624,
			"-0.012": 1.11490121125,
			"-0.011": 1.97756921331,
			"-0.01": 2.21293273378,
			"-0.009": 1.6283701953,
			"-0.008": 1.79991171167,
			"-0.007": 2.67311782217,
			"-0.006": 2.76586901519,
			"-0.005": 7.97652989307,
			"-0.004": 15.0796636763,
			"-0.003": 32.2246402949,
			"-0.002": 51.7975084024,
			"-0.001": 62.0627358194,
			"0.0": 48.1106223674,
			"0.001": 30.8933575489,
			"0.002": 12.464960369,
			"0.003": 7.39129268318,
			"0.004": 4.05361222296,
			"0.005": 5.11580945883,
			"0.006": 4.48223801574,
			"0.007": 4.63182081984,
			"0.008": 3.50519238178,
			"0.009": 3.87613779148,
			"0.01": 4.65518866612,
			"0.011": 5.38411600344,
			"0.012": 7.1024784965,
			"0.013": 5.56352456729,
			"0.014": 2.558696122,
			"0.015": 0.271609451618,
			"0.016": 0.0,
			"0.017": 0.0,
			"0.018": 0.0,
			"0.019": 0.0,
			"0.02": 0.0,
			"0.021": 0.0,
			"0.022": 0.0,
			"0.023": 0.0,
			"0.024": 0.0,
			"0.025": 0.0
		}
	}
}
