{
	 "smiles": "CC(=O)CSC1=C(C=CC=C1)[N+]([O-])=O", 
	 "Tm": 348.15, 
	 "num_atms": 23, 
	 "gaussian": { 
		 "optdone": 1, 
		 "sigma_profile": "yes", 
		 "theory": "DFT", 
		 "functional": "B3LYP", 
		 "basiset": "6-31G**", 
		 "properties": { 
			 "R2extent": 3723.1646, 
			 "electric_dipole_moment_norm": 2.97774877382, 
			 "electric_quadrupole_moment_norm": 20.9338989398, 
			 "total_energy": -1026.87801318, 
			 "HOMO_LUMO_gap": 0.14846, 
			 "cosmo_polarized_energy": -13.2, 
			 "cosmo_cavitation_energy": 29.3, 
			 "cosmo_dispersion_energy": -21.19, 
			 "cosmo_repulsion_energy": 1.64, 
			 "cosmo_total_nonelectrostatic_energy": 9.75, 
			 "SMD_solvation_energy": 7.4 
		},
		"coords": [
			{
				"x": 3.79252125,
				"y": -0.3056803849,
				"z": 2.2214264606,
				"element": "C" 
			},
			{
				"x": 2.2930799796,
				"y": -0.4720950786,
				"z": 2.407149962,
				"element": "C" 
			},
			{
				"x": 1.6247206228,
				"y": 0.3462900523,
				"z": 3.0040886792,
				"element": "O" 
			},
			{
				"x": 1.7073597834,
				"y": -1.7352990161,
				"z": 1.7746316668,
				"element": "C" 
			},
			{
				"x": -0.0577598489,
				"y": -2.0592230893,
				"z": 2.1093067882,
				"element": "S" 
			},
			{
				"x": -0.8831587853,
				"y": -0.792478995,
				"z": 1.1395386217,
				"element": "C" 
			},
			{
				"x": -1.2375586574,
				"y": -0.9195222563,
				"z": -0.2179260308,
				"element": "C" 
			},
			{
				"x": -2.0334426529,
				"y": 0.0270984998,
				"z": -0.8646818102,
				"element": "C" 
			},
			{
				"x": -2.4723686456,
				"y": 1.1492481015,
				"z": -0.1688837146,
				"element": "C" 
			},
			{
				"x": -2.1304868713,
				"y": 1.3048423453,
				"z": 1.1748801835,
				"element": "C" 
			},
			{
				"x": -1.3559226589,
				"y": 0.3399548128,
				"z": 1.8187608462,
				"element": "C" 
			},
			{
				"x": -0.7927414888,
				"y": -2.0488842869,
				"z": -1.0506363879,
				"element": "N" 
			},
			{
				"x": 0.3448595848,
				"y": -2.4861347068,
				"z": -0.8805605684,
				"element": "O" 
			},
			{
				"x": -1.5828068797,
				"y": -2.4676943268,
				"z": -1.8951406615,
				"element": "O" 
			},
			{
				"x": 4.3297124996,
				"y": -1.1184652108,
				"z": 2.7242416478,
				"element": "H" 
			},
			{
				"x": 4.061148375,
				"y": -0.3542020758,
				"z": 1.1602395942,
				"element": "H" 
			},
			{
				"x": 4.1079565577,
				"y": 0.6510089465,
				"z": 2.6396639343,
				"element": "H" 
			},
			{
				"x": 2.2426821071,
				"y": -2.6130618378,
				"z": 2.1562632442,
				"element": "H" 
			},
			{
				"x": 1.867515008,
				"y": -1.7249063454,
				"z": 0.6920992885,
				"element": "H" 
			},
			{
				"x": -2.2918235489,
				"y": -0.1333899335,
				"z": -1.9044856755,
				"element": "H" 
			},
			{
				"x": -3.0789082847,
				"y": 1.8935824451,
				"z": -0.6749106617,
				"element": "H" 
			},
			{
				"x": -2.4679645628,
				"y": 2.176429052,
				"z": 1.7274121487,
				"element": "H" 
			},
			{
				"x": -1.0839128828,
				"y": 0.4550832887,
				"z": 2.8608224446,
				"element": "H" 
			}
		],
		 "valence_orbital": [ 
			{
				"type": "occ",
				"energy": -0.30419,
				"method": "rhf"
			},
			{
				"type": "occ",
				"energy": -0.27623,
				"method": "rhf"
			},
			{
				"type": "occ",
				"energy": -0.27422,
				"method": "rhf"
			},
			{
				"type": "occ",
				"energy": -0.25782,
				"method": "rhf"
			},
			{
				"type": "occ",
				"energy": -0.23552,
				"method": "rhf"
			},
			{
				"type": "unocc",
				"energy": -0.08706,
				"method": "rhf"
			},
			{
				"type": "unocc",
				"energy": -0.03785,
				"method": "rhf"
			},
			{
				"type": "unocc",
				"energy": -0.02187,
				"method": "rhf"
			},
			{
				"type": "unocc",
				"energy": -0.01353,
				"method": "rhf"
			},
			{
				"type": "unocc",
				"energy": 0.037,
				"method": "rhf"
			}
		],
		"cosmo_sigma_profile": { 
			"-0.025": 0.0,
			"-0.024": 0.0,
			"-0.023": 0.0,
			"-0.022": 0.0,
			"-0.021": 0.0,
			"-0.02": 0.0,
			"-0.019": 0.0,
			"-0.018": 0.0,
			"-0.017": 0.0,
			"-0.016": 0.0,
			"-0.015": 0.0,
			"-0.014": 0.0,
			"-0.013": 0.0,
			"-0.012": 0.0,
			"-0.011": 0.0,
			"-0.01": 0.0,
			"-0.009": 1.33502077393,
			"-0.008": 8.27431998436,
			"-0.007": 13.9394984868,
			"-0.006": 18.0028221628,
			"-0.005": 16.5540493721,
			"-0.004": 13.7879380191,
			"-0.003": 14.5481558137,
			"-0.002": 17.495217181,
			"-0.001": 16.7821201616,
			"0.0": 14.6937459439,
			"0.001": 15.4032740054,
			"0.002": 15.7389562275,
			"0.003": 6.89187538981,
			"0.004": 8.2877006437,
			"0.005": 8.24334604984,
			"0.006": 7.33118740402,
			"0.007": 10.9593107557,
			"0.008": 11.6882873556,
			"0.009": 5.89462119134,
			"0.01": 5.32030207572,
			"0.011": 2.47364462465,
			"0.012": 1.67340808871,
			"0.013": 0.503669202754,
			"0.014": 0.0,
			"0.015": 0.0,
			"0.016": 0.0,
			"0.017": 0.0,
			"0.018": 0.0,
			"0.019": 0.0,
			"0.02": 0.0,
			"0.021": 0.0,
			"0.022": 0.0,
			"0.023": 0.0,
			"0.024": 0.0,
			"0.025": 0.0
		}
	}
}
