{
	 "smiles": "O=C1CC(C(=O)O1)C1=CC=CC=C1", 
	 "Tm": 326.15, 
	 "num_atms": 21, 
	 "gaussian": { 
		 "optdone": 1, 
		 "sigma_profile": "yes", 
		 "theory": "DFT", 
		 "functional": "B3LYP", 
		 "basiset": "6-31G**", 
		 "properties": { 
			 "R2extent": 2640.1475, 
			 "electric_dipole_moment_norm": 4.71870890923, 
			 "electric_quadrupole_moment_norm": 14.4600252313, 
			 "total_energy": -611.571972194, 
			 "HOMO_LUMO_gap": 0.22667, 
			 "cosmo_polarized_energy": -14.53, 
			 "cosmo_cavitation_energy": 25.82, 
			 "cosmo_dispersion_energy": -18.65, 
			 "cosmo_repulsion_energy": 1.49, 
			 "cosmo_total_nonelectrostatic_energy": 8.66, 
			 "SMD_solvation_energy": 6.24 
		},
		"coords": [
			{
				"x": 3.0249059907,
				"y": 2.1176925397,
				"z": 1.9383559279,
				"element": "O" 
			},
			{
				"x": 2.2329856244,
				"y": 1.2741531731,
				"z": 1.6347825004,
				"element": "C" 
			},
			{
				"x": 0.7824838347,
				"y": 1.4213697417,
				"z": 1.2133195678,
				"element": "C" 
			},
			{
				"x": 0.2155054299,
				"y": -0.0092160776,
				"z": 1.2731318855,
				"element": "C" 
			},
			{
				"x": 1.4817705421,
				"y": -0.8742685866,
				"z": 1.2980347687,
				"element": "C" 
			},
			{
				"x": 1.5958096693,
				"y": -2.0523637079,
				"z": 1.1310864325,
				"element": "O" 
			},
			{
				"x": 2.5784815902,
				"y": -0.0728595446,
				"z": 1.6004173876,
				"element": "O" 
			},
			{
				"x": -0.7789200328,
				"y": -0.3899354194,
				"z": 0.1964716385,
				"element": "C" 
			},
			{
				"x": -2.1269775975,
				"y": -0.5783347554,
				"z": 0.5186484988,
				"element": "C" 
			},
			{
				"x": -3.0598353041,
				"y": -0.8890395802,
				"z": -0.4724519297,
				"element": "C" 
			},
			{
				"x": -2.651832737,
				"y": -1.0176403535,
				"z": -1.7999799747,
				"element": "C" 
			},
			{
				"x": -1.306846255,
				"y": -0.836247734,
				"z": -2.1309491169,
				"element": "C" 
			},
			{
				"x": -0.3776749081,
				"y": -0.5238840992,
				"z": -1.1401051462,
				"element": "C" 
			},
			{
				"x": 0.2732644826,
				"y": 2.1439924333,
				"z": 1.8535895225,
				"element": "H" 
			},
			{
				"x": 0.763721784,
				"y": 1.8170474363,
				"z": 0.1916230852,
				"element": "H" 
			},
			{
				"x": -0.2523141055,
				"y": -0.1685926244,
				"z": 2.2533975135,
				"element": "H" 
			},
			{
				"x": -2.4503730137,
				"y": -0.483004953,
				"z": 1.5522680051,
				"element": "H" 
			},
			{
				"x": -4.1025335363,
				"y": -1.0328598764,
				"z": -0.2049282683,
				"element": "H" 
			},
			{
				"x": -3.3749444426,
				"y": -1.2623309113,
				"z": -2.572316676,
				"element": "H" 
			},
			{
				"x": -0.9796015982,
				"y": -0.9433612225,
				"z": -3.1609133744,
				"element": "H" 
			},
			{
				"x": 0.6683245829,
				"y": -0.398715878,
				"z": -1.4094822477,
				"element": "H" 
			}
		],
		 "valence_orbital": [ 
			{
				"type": "occ",
				"energy": -0.3341,
				"method": "rhf"
			},
			{
				"type": "occ",
				"energy": -0.31274,
				"method": "rhf"
			},
			{
				"type": "occ",
				"energy": -0.28392,
				"method": "rhf"
			},
			{
				"type": "occ",
				"energy": -0.26538,
				"method": "rhf"
			},
			{
				"type": "occ",
				"energy": -0.26011,
				"method": "rhf"
			},
			{
				"type": "unocc",
				"energy": -0.03344,
				"method": "rhf"
			},
			{
				"type": "unocc",
				"energy": -0.02053,
				"method": "rhf"
			},
			{
				"type": "unocc",
				"energy": -0.01755,
				"method": "rhf"
			},
			{
				"type": "unocc",
				"energy": -0.00712,
				"method": "rhf"
			},
			{
				"type": "unocc",
				"energy": 0.0764,
				"method": "rhf"
			}
		],
		"cosmo_sigma_profile": { 
			"-0.025": 0.0,
			"-0.024": 0.0,
			"-0.023": 0.0,
			"-0.022": 0.0,
			"-0.021": 0.0,
			"-0.02": 0.0,
			"-0.019": 0.0,
			"-0.018": 0.0,
			"-0.017": 0.0,
			"-0.016": 0.0,
			"-0.015": 0.0,
			"-0.014": 0.0,
			"-0.013": 0.12540242178,
			"-0.012": 0.899384569805,
			"-0.011": 2.47221124133,
			"-0.01": 2.73116706185,
			"-0.009": 6.09345283016,
			"-0.008": 9.31574403981,
			"-0.007": 9.23641881569,
			"-0.006": 12.7418697236,
			"-0.005": 14.6039925969,
			"-0.004": 14.6030048526,
			"-0.003": 11.5604336037,
			"-0.002": 9.61907379956,
			"-0.001": 9.19295770475,
			"0.0": 9.01929289656,
			"0.001": 6.96076545282,
			"0.002": 9.87337509406,
			"0.003": 9.93663080472,
			"0.004": 11.0983558245,
			"0.005": 12.9218908566,
			"0.006": 8.78307901927,
			"0.007": 7.0767139658,
			"0.008": 6.17693043918,
			"0.009": 7.18953603247,
			"0.01": 11.1098134287,
			"0.011": 3.3889214154,
			"0.012": 0.00915503824671,
			"0.013": 0.0,
			"0.014": 0.0,
			"0.015": 0.0,
			"0.016": 0.0,
			"0.017": 0.0,
			"0.018": 0.0,
			"0.019": 0.0,
			"0.02": 0.0,
			"0.021": 0.0,
			"0.022": 0.0,
			"0.023": 0.0,
			"0.024": 0.0,
			"0.025": 0.0
		}
	}
}
