{
	 "smiles": "CCOC1=C(C=C(C=C1)S(Cl)(=O)=O)C1=CC=CC=C1", 
	 "Tm": 352.15, 
	 "num_atms": 32, 
	 "gaussian": { 
		 "optdone": 1, 
		 "sigma_profile": "yes", 
		 "theory": "DFT", 
		 "functional": "B3LYP", 
		 "basiset": "6-31G**", 
		 "properties": { 
			 "R2extent": 9435.2103, 
			 "electric_dipole_moment_norm": 7.57795195881, 
			 "electric_quadrupole_moment_norm": 33.6565106127, 
			 "total_energy": -1625.31254123, 
			 "HOMO_LUMO_gap": 0.15642, 
			 "cosmo_polarized_energy": -12.67, 
			 "cosmo_cavitation_energy": 39.59, 
			 "cosmo_dispersion_energy": -28.1, 
			 "cosmo_repulsion_energy": 2.16, 
			 "cosmo_total_nonelectrostatic_energy": 13.64, 
			 "SMD_solvation_energy": 5.57 
		},
		"coords": [
			{
				"x": 2.7204017346,
				"y": -0.1238084698,
				"z": -2.8766125627,
				"element": "C" 
			},
			{
				"x": 1.559290549,
				"y": -1.0752839735,
				"z": -2.6525715643,
				"element": "C" 
			},
			{
				"x": 0.9211880201,
				"y": -0.6919099354,
				"z": -1.4272182058,
				"element": "O" 
			},
			{
				"x": -0.1272280732,
				"y": -1.4092886984,
				"z": -0.9614610711,
				"element": "C" 
			},
			{
				"x": -0.6552385297,
				"y": -1.0077815381,
				"z": 0.2972253185,
				"element": "C" 
			},
			{
				"x": -1.7236093218,
				"y": -1.7386362409,
				"z": 0.8184771823,
				"element": "C" 
			},
			{
				"x": -2.2531815119,
				"y": -2.8243917252,
				"z": 0.1165736837,
				"element": "C" 
			},
			{
				"x": -1.7401422176,
				"y": -3.2180208362,
				"z": -1.1164300914,
				"element": "C" 
			},
			{
				"x": -0.6751257546,
				"y": -2.50163183,
				"z": -1.6530141059,
				"element": "C" 
			},
			{
				"x": -3.6204826991,
				"y": -3.7180999371,
				"z": 0.8091124829,
				"element": "S" 
			},
			{
				"x": -2.6199696868,
				"y": -5.1999903033,
				"z": 1.996899856,
				"element": "Cl" 
			},
			{
				"x": -4.3068809842,
				"y": -4.4560153275,
				"z": -0.2450117462,
				"element": "O" 
			},
			{
				"x": -4.3332916999,
				"y": -2.8711902591,
				"z": 1.7580617013,
				"element": "O" 
			},
			{
				"x": -0.1001307147,
				"y": 0.1341602106,
				"z": 1.074165712,
				"element": "C" 
			},
			{
				"x": 0.1336293524,
				"y": -0.0134915525,
				"z": 2.451438214,
				"element": "C" 
			},
			{
				"x": 0.6072294014,
				"y": 1.0530260805,
				"z": 3.2150094923,
				"element": "C" 
			},
			{
				"x": 0.853856765,
				"y": 2.2883918458,
				"z": 2.6150544734,
				"element": "C" 
			},
			{
				"x": 0.625617872,
				"y": 2.4476195602,
				"z": 1.2464684727,
				"element": "C" 
			},
			{
				"x": 0.1561745427,
				"y": 1.3816547228,
				"z": 0.4813326473,
				"element": "C" 
			},
			{
				"x": 3.2420399578,
				"y": -0.3858462164,
				"z": -3.8019650259,
				"element": "H" 
			},
			{
				"x": 3.4309129163,
				"y": -0.1807446523,
				"z": -2.0478685017,
				"element": "H" 
			},
			{
				"x": 2.366505343,
				"y": 0.9074112717,
				"z": -2.9586874664,
				"element": "H" 
			},
			{
				"x": 0.837508695,
				"y": -1.0185047444,
				"z": -3.4783416103,
				"element": "H" 
			},
			{
				"x": 1.9087498278,
				"y": -2.1132486228,
				"z": -2.5746343922,
				"element": "H" 
			},
			{
				"x": -2.1636926508,
				"y": -1.4434946804,
				"z": 1.7642080635,
				"element": "H" 
			},
			{
				"x": -2.171217848,
				"y": -4.057371932,
				"z": -1.6499170159,
				"element": "H" 
			},
			{
				"x": -0.273052359,
				"y": -2.8008996171,
				"z": -2.612287109,
				"element": "H" 
			},
			{
				"x": -0.0407125026,
				"y": -0.9768010254,
				"z": 2.9221608567,
				"element": "H" 
			},
			{
				"x": 0.787013996,
				"y": 0.915488149,
				"z": 4.2772815503,
				"element": "H" 
			},
			{
				"x": 1.222254334,
				"y": 3.1203714065,
				"z": 3.2081140366,
				"element": "H" 
			},
			{
				"x": 0.809621075,
				"y": 3.4075911337,
				"z": 0.7724660767,
				"element": "H" 
			},
			{
				"x": -0.0215378281,
				"y": 1.5162377372,
				"z": -0.5794293514,
				"element": "H" 
			}
		],
		 "valence_orbital": [ 
			{
				"type": "occ",
				"energy": -0.3041,
				"method": "rhf"
			},
			{
				"type": "occ",
				"energy": -0.2914,
				"method": "rhf"
			},
			{
				"type": "occ",
				"energy": -0.26291,
				"method": "rhf"
			},
			{
				"type": "occ",
				"energy": -0.25743,
				"method": "rhf"
			},
			{
				"type": "occ",
				"energy": -0.23767,
				"method": "rhf"
			},
			{
				"type": "unocc",
				"energy": -0.08125,
				"method": "rhf"
			},
			{
				"type": "unocc",
				"energy": -0.04625,
				"method": "rhf"
			},
			{
				"type": "unocc",
				"energy": -0.02801,
				"method": "rhf"
			},
			{
				"type": "unocc",
				"energy": -0.00807,
				"method": "rhf"
			},
			{
				"type": "unocc",
				"energy": 0.00454,
				"method": "rhf"
			}
		],
		"cosmo_sigma_profile": { 
			"-0.025": 0.0,
			"-0.024": 0.0,
			"-0.023": 0.0,
			"-0.022": 0.0,
			"-0.021": 0.0,
			"-0.02": 0.0,
			"-0.019": 0.0,
			"-0.018": 0.0,
			"-0.017": 0.0,
			"-0.016": 0.0,
			"-0.015": 0.0,
			"-0.014": 0.0,
			"-0.013": 0.0,
			"-0.012": 0.0,
			"-0.011": 0.0,
			"-0.01": 0.0,
			"-0.009": 0.28189482722,
			"-0.008": 3.75268790728,
			"-0.007": 5.70177446256,
			"-0.006": 17.0304156995,
			"-0.005": 23.256963485,
			"-0.004": 28.0246406814,
			"-0.003": 24.2407777352,
			"-0.002": 22.9427561648,
			"-0.001": 24.3857807674,
			"0.0": 30.0426731689,
			"0.001": 28.1347853003,
			"0.002": 20.3868868101,
			"0.003": 18.7251933913,
			"0.004": 23.9557547263,
			"0.005": 15.0807585582,
			"0.006": 8.26787505044,
			"0.007": 7.01035614743,
			"0.008": 10.5317008219,
			"0.009": 6.96600226576,
			"0.01": 0.365469654985,
			"0.011": 0.0,
			"0.012": 0.0,
			"0.013": 0.0,
			"0.014": 0.0,
			"0.015": 0.0,
			"0.016": 0.0,
			"0.017": 0.0,
			"0.018": 0.0,
			"0.019": 0.0,
			"0.02": 0.0,
			"0.021": 0.0,
			"0.022": 0.0,
			"0.023": 0.0,
			"0.024": 0.0,
			"0.025": 0.0
		}
	}
}
