{
	 "smiles": "CC1(C)OC2C(CO)OC(=O)C2O1", 
	 "Tm": 411.15, 
	 "num_atms": 25, 
	 "gaussian": { 
		 "optdone": 1, 
		 "sigma_profile": "yes", 
		 "theory": "DFT", 
		 "functional": "B3LYP", 
		 "basiset": "6-31G**", 
		 "properties": { 
			 "R2extent": 2659.3155, 
			 "electric_dipole_moment_norm": 3.12345325721, 
			 "electric_quadrupole_moment_norm": 12.6499349018, 
			 "total_energy": -688.187049465, 
			 "HOMO_LUMO_gap": 0.24865, 
			 "cosmo_polarized_energy": -14.4, 
			 "cosmo_cavitation_energy": 27.63, 
			 "cosmo_dispersion_energy": -19.88, 
			 "cosmo_repulsion_energy": 1.59, 
			 "cosmo_total_nonelectrostatic_energy": 9.34, 
			 "SMD_solvation_energy": 5.6 
		},
		"coords": [
			{
				"x": -1.9958661891,
				"y": -2.3899816907,
				"z": -0.7055369526,
				"element": "C" 
			},
			{
				"x": -1.4324177929,
				"y": -1.838066914,
				"z": 0.6045198527,
				"element": "C" 
			},
			{
				"x": -1.7716037115,
				"y": -2.6949999211,
				"z": 1.8137269251,
				"element": "C" 
			},
			{
				"x": -1.9308933347,
				"y": -0.5016800899,
				"z": 0.8097573705,
				"element": "O" 
			},
			{
				"x": -0.8990220502,
				"y": 0.4234384803,
				"z": 0.5069349096,
				"element": "C" 
			},
			{
				"x": -0.3449815812,
				"y": 1.1239729337,
				"z": 1.7745125873,
				"element": "C" 
			},
			{
				"x": -0.6607592994,
				"y": 2.6122370069,
				"z": 1.859318244,
				"element": "C" 
			},
			{
				"x": -0.1851685341,
				"y": 3.3110067036,
				"z": 0.7228864584,
				"element": "O" 
			},
			{
				"x": 1.0995275179,
				"y": 0.9922225444,
				"z": 1.71406225,
				"element": "O" 
			},
			{
				"x": 1.5057483932,
				"y": 0.1440475968,
				"z": 0.7251301213,
				"element": "C" 
			},
			{
				"x": 2.6624094291,
				"y": -0.0798046879,
				"z": 0.4955150076,
				"element": "O" 
			},
			{
				"x": 0.2759228608,
				"y": -0.4201209915,
				"z": 0.0094443176,
				"element": "C" 
			},
			{
				"x": -0.0084872294,
				"y": -1.7123659309,
				"z": 0.532084354,
				"element": "O" 
			},
			{
				"x": -1.6144404111,
				"y": -3.3980540867,
				"z": -0.8893582432,
				"element": "H" 
			},
			{
				"x": -1.7121766645,
				"y": -1.7507604704,
				"z": -1.5464442668,
				"element": "H" 
			},
			{
				"x": -3.0875937161,
				"y": -2.4263141186,
				"z": -0.6593534033,
				"element": "H" 
			},
			{
				"x": -2.8557149351,
				"y": -2.7500902564,
				"z": 1.9409298932,
				"element": "H" 
			},
			{
				"x": -1.3284871138,
				"y": -2.2583563556,
				"z": 2.7113669734,
				"element": "H" 
			},
			{
				"x": -1.3804916946,
				"y": -3.7072132758,
				"z": 1.6824425338,
				"element": "H" 
			},
			{
				"x": -1.2472209873,
				"y": 1.1632395004,
				"z": -0.2192033013,
				"element": "H" 
			},
			{
				"x": -0.7029166004,
				"y": 0.598859812,
				"z": 2.6663300065,
				"element": "H" 
			},
			{
				"x": -0.2496649242,
				"y": 3.0227016313,
				"z": 2.7928973428,
				"element": "H" 
			},
			{
				"x": -1.7476785981,
				"y": 2.743343626,
				"z": 1.884368686,
				"element": "H" 
			},
			{
				"x": 0.7803191575,
				"y": 3.2543984878,
				"z": 0.743461701,
				"element": "H" 
			},
			{
				"x": 0.4279580093,
				"y": -0.4341595337,
				"z": -1.0754933675,
				"element": "H" 
			}
		],
		 "valence_orbital": [ 
			{
				"type": "occ",
				"energy": -0.31395,
				"method": "rhf"
			},
			{
				"type": "occ",
				"energy": -0.29815,
				"method": "rhf"
			},
			{
				"type": "occ",
				"energy": -0.28845,
				"method": "rhf"
			},
			{
				"type": "occ",
				"energy": -0.27687,
				"method": "rhf"
			},
			{
				"type": "occ",
				"energy": -0.26362,
				"method": "rhf"
			},
			{
				"type": "unocc",
				"energy": -0.01497,
				"method": "rhf"
			},
			{
				"type": "unocc",
				"energy": 0.0609,
				"method": "rhf"
			},
			{
				"type": "unocc",
				"energy": 0.07825,
				"method": "rhf"
			},
			{
				"type": "unocc",
				"energy": 0.08877,
				"method": "rhf"
			},
			{
				"type": "unocc",
				"energy": 0.09305,
				"method": "rhf"
			}
		],
		"cosmo_sigma_profile": { 
			"-0.025": 0.0,
			"-0.024": 0.0,
			"-0.023": 0.0,
			"-0.022": 0.0,
			"-0.021": 0.0,
			"-0.02": 0.0,
			"-0.019": 0.0,
			"-0.018": 0.0,
			"-0.017": 0.0,
			"-0.016": 0.0,
			"-0.015": 0.524509669606,
			"-0.014": 0.586605690132,
			"-0.013": 0.788140860519,
			"-0.012": 1.14862338233,
			"-0.011": 0.380374445203,
			"-0.01": 1.04351618923,
			"-0.009": 1.46579337643,
			"-0.008": 5.58149146917,
			"-0.007": 8.91820704749,
			"-0.006": 13.1936832497,
			"-0.005": 18.520143205,
			"-0.004": 21.0192680662,
			"-0.003": 16.1531132364,
			"-0.002": 15.2668627462,
			"-0.001": 17.0145134734,
			"0.0": 16.7907751274,
			"0.001": 7.50473005328,
			"0.002": 5.50889720442,
			"0.003": 5.53671432442,
			"0.004": 5.78289623096,
			"0.005": 6.91658693409,
			"0.006": 5.12805137677,
			"0.007": 5.38355589918,
			"0.008": 6.31117401608,
			"0.009": 6.72464248521,
			"0.01": 7.26936425452,
			"0.011": 9.23372036612,
			"0.012": 3.63429966353,
			"0.013": 1.69871870574,
			"0.014": 0.809187726226,
			"0.015": 0.0,
			"0.016": 0.0,
			"0.017": 0.0,
			"0.018": 0.0,
			"0.019": 0.0,
			"0.02": 0.0,
			"0.021": 0.0,
			"0.022": 0.0,
			"0.023": 0.0,
			"0.024": 0.0,
			"0.025": 0.0
		}
	}
}
