{
	 "smiles": "COC1=C(C)C=CC(=C1)C1(CCCC1)C(O)=O", 
	 "Tm": 437.15, 
	 "num_atms": 35, 
	 "gaussian": { 
		 "optdone": 1, 
		 "sigma_profile": "yes", 
		 "theory": "DFT", 
		 "functional": "B3LYP", 
		 "basiset": "6-31G**", 
		 "properties": { 
			 "R2extent": 4695.9292, 
			 "electric_dipole_moment_norm": 4.75809492444, 
			 "electric_quadrupole_moment_norm": 13.148691744, 
			 "total_energy": -770.021807254, 
			 "HOMO_LUMO_gap": 0.21024, 
			 "cosmo_polarized_energy": -13.21, 
			 "cosmo_cavitation_energy": 35.8, 
			 "cosmo_dispersion_energy": -25.19, 
			 "cosmo_repulsion_energy": 1.96, 
			 "cosmo_total_nonelectrostatic_energy": 12.57, 
			 "SMD_solvation_energy": 7.18 
		},
		"coords": [
			{
				"x": -0.3069458587,
				"y": -1.3136351822,
				"z": -3.7670590604,
				"element": "C" 
			},
			{
				"x": -1.1996334447,
				"y": -2.0708113631,
				"z": -2.9655081588,
				"element": "O" 
			},
			{
				"x": -1.204505691,
				"y": -1.8691246477,
				"z": -1.614300431,
				"element": "C" 
			},
			{
				"x": -2.120435133,
				"y": -2.6615643061,
				"z": -0.8932390842,
				"element": "C" 
			},
			{
				"x": -3.006725926,
				"y": -3.6425424488,
				"z": -1.6152455526,
				"element": "C" 
			},
			{
				"x": -2.1617658349,
				"y": -2.4964087259,
				"z": 0.490736475,
				"element": "C" 
			},
			{
				"x": -1.337504166,
				"y": -1.5859698402,
				"z": 1.1555350251,
				"element": "C" 
			},
			{
				"x": -0.4232798897,
				"y": -0.80552273,
				"z": 0.4400542671,
				"element": "C" 
			},
			{
				"x": -0.3718543884,
				"y": -0.9533450815,
				"z": -0.9591851066,
				"element": "C" 
			},
			{
				"x": 0.4428084316,
				"y": 0.225115745,
				"z": 1.1643767117,
				"element": "C" 
			},
			{
				"x": 1.7060143741,
				"y": 0.6892003928,
				"z": 0.3757061405,
				"element": "C" 
			},
			{
				"x": 2.6102969416,
				"y": 1.3342382832,
				"z": 1.4381160833,
				"element": "C" 
			},
			{
				"x": 2.364130803,
				"y": 0.5132555678,
				"z": 2.7303326979,
				"element": "C" 
			},
			{
				"x": 1.0637337379,
				"y": -0.2996954615,
				"z": 2.4890528793,
				"element": "C" 
			},
			{
				"x": -0.3936369371,
				"y": 1.494564769,
				"z": 1.4602027054,
				"element": "C" 
			},
			{
				"x": -1.2233410074,
				"y": 1.901521799,
				"z": 0.4685783529,
				"element": "O" 
			},
			{
				"x": -0.2954733572,
				"y": 2.1462095376,
				"z": 2.4731290367,
				"element": "O" 
			},
			{
				"x": -0.4782428348,
				"y": -1.6361747358,
				"z": -4.7950922214,
				"element": "H" 
			},
			{
				"x": 0.7401091826,
				"y": -1.5044940032,
				"z": -3.499210611,
				"element": "H" 
			},
			{
				"x": -0.5064333097,
				"y": -0.2369207638,
				"z": -3.6900197812,
				"element": "H" 
			},
			{
				"x": -2.4150241521,
				"y": -4.3828418672,
				"z": -2.1648696845,
				"element": "H" 
			},
			{
				"x": -3.6550676057,
				"y": -4.1717139219,
				"z": -0.9122384304,
				"element": "H" 
			},
			{
				"x": -3.6375434493,
				"y": -3.1382846576,
				"z": -2.355481059,
				"element": "H" 
			},
			{
				"x": -2.8625477883,
				"y": -3.0969044206,
				"z": 1.0653191693,
				"element": "H" 
			},
			{
				"x": -1.4108928077,
				"y": -1.4859485561,
				"z": 2.2335194571,
				"element": "H" 
			},
			{
				"x": 0.341135663,
				"y": -0.3730526571,
				"z": -1.5312163158,
				"element": "H" 
			},
			{
				"x": 1.4737210721,
				"y": 1.3672691113,
				"z": -0.4524724961,
				"element": "H" 
			},
			{
				"x": 2.1861006516,
				"y": -0.2009536028,
				"z": -0.048444926,
				"element": "H" 
			},
			{
				"x": 3.6600336027,
				"y": 1.3384095814,
				"z": 1.1293547841,
				"element": "H" 
			},
			{
				"x": 2.313766744,
				"y": 2.3751489348,
				"z": 1.5951627907,
				"element": "H" 
			},
			{
				"x": 2.2601405849,
				"y": 1.173967044,
				"z": 3.5935026273,
				"element": "H" 
			},
			{
				"x": 3.2012832069,
				"y": -0.1616093542,
				"z": 2.93587039,
				"element": "H" 
			},
			{
				"x": 1.2908872602,
				"y": -1.3626078159,
				"z": 2.3615726449,
				"element": "H" 
			},
			{
				"x": 0.3641622112,
				"y": -0.2048442301,
				"z": 3.3218825211,
				"element": "H" 
			},
			{
				"x": -1.2733708858,
				"y": 1.2090696072,
				"z": -0.2111218402,
				"element": "H" 
			}
		],
		 "valence_orbital": [ 
			{
				"type": "occ",
				"energy": -0.31493,
				"method": "rhf"
			},
			{
				"type": "occ",
				"energy": -0.30467,
				"method": "rhf"
			},
			{
				"type": "occ",
				"energy": -0.26738,
				"method": "rhf"
			},
			{
				"type": "occ",
				"energy": -0.24913,
				"method": "rhf"
			},
			{
				"type": "occ",
				"energy": -0.22374,
				"method": "rhf"
			},
			{
				"type": "unocc",
				"energy": -0.0135,
				"method": "rhf"
			},
			{
				"type": "unocc",
				"energy": -0.00366,
				"method": "rhf"
			},
			{
				"type": "unocc",
				"energy": 0.02008,
				"method": "rhf"
			},
			{
				"type": "unocc",
				"energy": 0.07238,
				"method": "rhf"
			},
			{
				"type": "unocc",
				"energy": 0.09376,
				"method": "rhf"
			}
		],
		"cosmo_sigma_profile": { 
			"-0.025": 0.0,
			"-0.024": 0.0,
			"-0.023": 0.0,
			"-0.022": 0.0,
			"-0.021": 0.0,
			"-0.02": 0.0,
			"-0.019": 0.0,
			"-0.018": 0.0,
			"-0.017": 0.0,
			"-0.016": 0.0,
			"-0.015": 0.0,
			"-0.014": 0.0,
			"-0.013": 0.288993037768,
			"-0.012": 0.538116110657,
			"-0.011": 0.963094425395,
			"-0.01": 1.73261241034,
			"-0.009": 1.16110151206,
			"-0.008": 1.22971747243,
			"-0.007": 1.55734350338,
			"-0.006": 8.8547771564,
			"-0.005": 18.8564709466,
			"-0.004": 22.4006201162,
			"-0.003": 31.6958297328,
			"-0.002": 30.8681619345,
			"-0.001": 29.994949271,
			"0.0": 27.8908945441,
			"0.001": 23.8952344155,
			"0.002": 12.9395865727,
			"0.003": 10.9144913079,
			"0.004": 9.79324284469,
			"0.005": 9.76201457566,
			"0.006": 5.14483046051,
			"0.007": 4.44549413284,
			"0.008": 4.84256383428,
			"0.009": 4.11377909042,
			"0.01": 4.19235423739,
			"0.011": 5.08889449752,
			"0.012": 4.83361968992,
			"0.013": 2.04701018512,
			"0.014": 0.149836753098,
			"0.015": 0.0,
			"0.016": 0.0,
			"0.017": 0.0,
			"0.018": 0.0,
			"0.019": 0.0,
			"0.02": 0.0,
			"0.021": 0.0,
			"0.022": 0.0,
			"0.023": 0.0,
			"0.024": 0.0,
			"0.025": 0.0
		}
	}
}
