{
	 "smiles": "FC1=CC=C(C=C1)C1=CC(=O)C=C(O1)C1=CC=C(F)C=C1", 
	 "Tm": 441.15, 
	 "num_atms": 31, 
	 "gaussian": { 
		 "optdone": 1, 
		 "sigma_profile": "yes", 
		 "theory": "DFT", 
		 "functional": "B3LYP", 
		 "basiset": "6-31G**", 
		 "properties": { 
			 "R2extent": 8465.4483, 
			 "electric_dipole_moment_norm": 3.59519105751, 
			 "electric_quadrupole_moment_norm": 22.2594290266, 
			 "total_energy": -1003.93857738, 
			 "HOMO_LUMO_gap": 0.16901, 
			 "cosmo_polarized_energy": -14.47, 
			 "cosmo_cavitation_energy": 37.75, 
			 "cosmo_dispersion_energy": -26.75, 
			 "cosmo_repulsion_energy": 1.93, 
			 "cosmo_total_nonelectrostatic_energy": 12.94, 
			 "SMD_solvation_energy": 8.2 
		},
		"coords": [
			{
				"x": -1.7087750503,
				"y": -5.0620673593,
				"z": 3.3493377898,
				"element": "F" 
			},
			{
				"x": -0.9570711059,
				"y": -4.048886796,
				"z": 2.8805134023,
				"element": "C" 
			},
			{
				"x": -1.3616371696,
				"y": -3.3829116383,
				"z": 1.7290790044,
				"element": "C" 
			},
			{
				"x": -0.5800814992,
				"y": -2.3347673579,
				"z": 1.2509597695,
				"element": "C" 
			},
			{
				"x": 0.6004172629,
				"y": -1.9529917842,
				"z": 1.9111048028,
				"element": "C" 
			},
			{
				"x": 0.9709319569,
				"y": -2.6421835572,
				"z": 3.0795070767,
				"element": "C" 
			},
			{
				"x": 0.1999797489,
				"y": -3.6924947713,
				"z": 3.5664586134,
				"element": "C" 
			},
			{
				"x": 1.4372273601,
				"y": -0.8559583107,
				"z": 1.3913181922,
				"element": "C" 
			},
			{
				"x": 2.7523844186,
				"y": -0.6567309983,
				"z": 1.647322492,
				"element": "C" 
			},
			{
				"x": 3.4857782025,
				"y": 0.4786306655,
				"z": 1.0851288161,
				"element": "C" 
			},
			{
				"x": 4.6782855709,
				"y": 0.6912764867,
				"z": 1.3089826781,
				"element": "O" 
			},
			{
				"x": 2.6678942383,
				"y": 1.3251915968,
				"z": 0.214868474,
				"element": "C" 
			},
			{
				"x": 1.3550838079,
				"y": 1.0710375337,
				"z": -0.0014931608,
				"element": "C" 
			},
			{
				"x": 0.7360952559,
				"y": -0.006748241,
				"z": 0.5757179515,
				"element": "O" 
			},
			{
				"x": 0.4379483519,
				"y": 1.8595103731,
				"z": -0.8447617798,
				"element": "C" 
			},
			{
				"x": 0.7228033197,
				"y": 3.2028462257,
				"z": -1.147689035,
				"element": "C" 
			},
			{
				"x": -0.1246873206,
				"y": 3.9492100475,
				"z": -1.959675422,
				"element": "C" 
			},
			{
				"x": -1.272171096,
				"y": 3.3456906753,
				"z": -2.4649913782,
				"element": "C" 
			},
			{
				"x": -2.0976284122,
				"y": 4.0644036931,
				"z": -3.2482311895,
				"element": "F" 
			},
			{
				"x": -1.5929927258,
				"y": 2.0238307058,
				"z": -2.1773490994,
				"element": "C" 
			},
			{
				"x": -0.7353668952,
				"y": 1.2870742301,
				"z": -1.3651175323,
				"element": "C" 
			},
			{
				"x": -2.2707884539,
				"y": -3.6895789188,
				"z": 1.223732886,
				"element": "H" 
			},
			{
				"x": -0.8827979371,
				"y": -1.8129845203,
				"z": 0.3511201042,
				"element": "H" 
			},
			{
				"x": 1.858255568,
				"y": -2.3425640241,
				"z": 3.6265217627,
				"element": "H" 
			},
			{
				"x": 0.4742160209,
				"y": -4.225989208,
				"z": 4.4697623732,
				"element": "H" 
			},
			{
				"x": 3.3038184425,
				"y": -1.3542663611,
				"z": 2.2652076872,
				"element": "H" 
			},
			{
				"x": 3.1540628612,
				"y": 2.1597485498,
				"z": -0.2745738294,
				"element": "H" 
			},
			{
				"x": 1.6034552148,
				"y": 3.6774070094,
				"z": -0.7286782547,
				"element": "H" 
			},
			{
				"x": 0.0833481054,
				"y": 4.987269942,
				"z": -2.1940345242,
				"element": "H" 
			},
			{
				"x": -2.4974587118,
				"y": 1.589797596,
				"z": -2.5890962809,
				"element": "H" 
			},
			{
				"x": -0.9726293295,
				"y": 0.2543985159,
				"z": -1.1395523899,
				"element": "H" 
			}
		],
		 "valence_orbital": [ 
			{
				"type": "occ",
				"energy": -0.27862,
				"method": "rhf"
			},
			{
				"type": "occ",
				"energy": -0.27436,
				"method": "rhf"
			},
			{
				"type": "occ",
				"energy": -0.24056,
				"method": "rhf"
			},
			{
				"type": "occ",
				"energy": -0.23798,
				"method": "rhf"
			},
			{
				"type": "occ",
				"energy": -0.23284,
				"method": "rhf"
			},
			{
				"type": "unocc",
				"energy": -0.06383,
				"method": "rhf"
			},
			{
				"type": "unocc",
				"energy": -0.0532,
				"method": "rhf"
			},
			{
				"type": "unocc",
				"energy": -0.02809,
				"method": "rhf"
			},
			{
				"type": "unocc",
				"energy": -0.02737,
				"method": "rhf"
			},
			{
				"type": "unocc",
				"energy": 0.01248,
				"method": "rhf"
			}
		],
		"cosmo_sigma_profile": { 
			"-0.025": 0.0,
			"-0.024": 0.0,
			"-0.023": 0.0,
			"-0.022": 0.0,
			"-0.021": 0.0,
			"-0.02": 0.0,
			"-0.019": 0.0,
			"-0.018": 0.0,
			"-0.017": 0.0,
			"-0.016": 0.0,
			"-0.015": 0.0,
			"-0.014": 0.0,
			"-0.013": 0.0,
			"-0.012": 0.0,
			"-0.011": 0.0,
			"-0.01": 0.0,
			"-0.009": 1.78237595817,
			"-0.008": 9.82770714876,
			"-0.007": 16.187873786,
			"-0.006": 16.4505747407,
			"-0.005": 16.6664296724,
			"-0.004": 11.7816268478,
			"-0.003": 16.7543389282,
			"-0.002": 17.3466781407,
			"-0.001": 23.7669248092,
			"0.0": 33.8788747817,
			"0.001": 34.0348635303,
			"0.002": 35.9188654253,
			"0.003": 25.9527015607,
			"0.004": 21.134669433,
			"0.005": 2.09658273559,
			"0.006": 1.33457710907,
			"0.007": 1.09771156357,
			"0.008": 1.92248045624,
			"0.009": 1.07398080715,
			"0.01": 1.05335905355,
			"0.011": 1.46644839137,
			"0.012": 2.02517620621,
			"0.013": 2.91258815931,
			"0.014": 5.53763097898,
			"0.015": 3.17018516293,
			"0.016": 0.41328897511,
			"0.017": 0.0,
			"0.018": 0.0,
			"0.019": 0.0,
			"0.02": 0.0,
			"0.021": 0.0,
			"0.022": 0.0,
			"0.023": 0.0,
			"0.024": 0.0,
			"0.025": 0.0
		}
	}
}
