{
	 "smiles": "CSC(SC)=CC(=O)C1=CC=CC=C1", 
	 "Tm": 366.15, 
	 "num_atms": 26, 
	 "gaussian": { 
		 "optdone": 1, 
		 "sigma_profile": "yes", 
		 "theory": "DFT", 
		 "functional": "B3LYP", 
		 "basiset": "6-31G**", 
		 "properties": { 
			 "R2extent": 4803.0673, 
			 "electric_dipole_moment_norm": 2.94929806225, 
			 "electric_quadrupole_moment_norm": 14.5397672316, 
			 "total_energy": -1297.98142685, 
			 "HOMO_LUMO_gap": 0.1531, 
			 "cosmo_polarized_energy": -10.17, 
			 "cosmo_cavitation_energy": 32.71, 
			 "cosmo_dispersion_energy": -24.36, 
			 "cosmo_repulsion_energy": 1.84, 
			 "cosmo_total_nonelectrostatic_energy": 10.19, 
			 "SMD_solvation_energy": 6.27 
		},
		"coords": [
			{
				"x": -1.7231181093,
				"y": -2.8201899289,
				"z": 1.0942095989,
				"element": "C" 
			},
			{
				"x": -2.7707640847,
				"y": -1.3277865964,
				"z": 1.0318823433,
				"element": "S" 
			},
			{
				"x": -1.847588253,
				"y": -0.1350038974,
				"z": 0.1302901365,
				"element": "C" 
			},
			{
				"x": -2.8357697009,
				"y": 1.0485805055,
				"z": -0.7647955511,
				"element": "S" 
			},
			{
				"x": -4.2198882463,
				"y": 0.0889890293,
				"z": -1.4847542623,
				"element": "C" 
			},
			{
				"x": -0.4979479417,
				"y": 0.0730028525,
				"z": 0.0943697579,
				"element": "C" 
			},
			{
				"x": 0.5139780131,
				"y": -0.4018948773,
				"z": 1.0486420074,
				"element": "C" 
			},
			{
				"x": 0.2330750925,
				"y": -0.9653345586,
				"z": 2.1102235625,
				"element": "O" 
			},
			{
				"x": 1.9566651611,
				"y": -0.1184989363,
				"z": 0.7258707745,
				"element": "C" 
			},
			{
				"x": 2.8855723967,
				"y": -0.1954658096,
				"z": 1.7758453832,
				"element": "C" 
			},
			{
				"x": 4.2377913318,
				"y": 0.0384214568,
				"z": 1.5444154619,
				"element": "C" 
			},
			{
				"x": 4.6855134289,
				"y": 0.3382576365,
				"z": 0.2542498792,
				"element": "C" 
			},
			{
				"x": 3.7735676417,
				"y": 0.4004694945,
				"z": -0.8007377382,
				"element": "C" 
			},
			{
				"x": 2.4163673944,
				"y": 0.177632953,
				"z": -0.5666406135,
				"element": "C" 
			},
			{
				"x": -0.9562535844,
				"y": -2.7136346351,
				"z": 1.8599141586,
				"element": "H" 
			},
			{
				"x": -2.4064107313,
				"y": -3.6414298461,
				"z": 1.321948911,
				"element": "H" 
			},
			{
				"x": -1.2628180277,
				"y": -2.9890968826,
				"z": 0.1185708335,
				"element": "H" 
			},
			{
				"x": -3.8471378695,
				"y": -0.7614682894,
				"z": -2.0575313705,
				"element": "H" 
			},
			{
				"x": -4.9228486636,
				"y": -0.2473971836,
				"z": -0.7238441655,
				"element": "H" 
			},
			{
				"x": -4.7222866029,
				"y": 0.7864426078,
				"z": -2.1596984581,
				"element": "H" 
			},
			{
				"x": -0.1559783873,
				"y": 0.7802692469,
				"z": -0.653846757,
				"element": "H" 
			},
			{
				"x": 2.5175029548,
				"y": -0.4415764996,
				"z": 2.7661162909,
				"element": "H" 
			},
			{
				"x": 4.9453360358,
				"y": -0.0141522547,
				"z": 2.3669940095,
				"element": "H" 
			},
			{
				"x": 5.7411632913,
				"y": 0.5186265414,
				"z": 0.071797547,
				"element": "H" 
			},
			{
				"x": 4.1184154551,
				"y": 0.6203633784,
				"z": -1.8069805969,
				"element": "H" 
			},
			{
				"x": 1.7234620055,
				"y": 0.210074493,
				"z": -1.4013111432,
				"element": "H" 
			}
		],
		 "valence_orbital": [ 
			{
				"type": "occ",
				"energy": -0.25645,
				"method": "rhf"
			},
			{
				"type": "occ",
				"energy": -0.25502,
				"method": "rhf"
			},
			{
				"type": "occ",
				"energy": -0.25186,
				"method": "rhf"
			},
			{
				"type": "occ",
				"energy": -0.2359,
				"method": "rhf"
			},
			{
				"type": "occ",
				"energy": -0.2241,
				"method": "rhf"
			},
			{
				"type": "unocc",
				"energy": -0.071,
				"method": "rhf"
			},
			{
				"type": "unocc",
				"energy": -0.0098,
				"method": "rhf"
			},
			{
				"type": "unocc",
				"energy": -0.00328,
				"method": "rhf"
			},
			{
				"type": "unocc",
				"energy": 0.02536,
				"method": "rhf"
			},
			{
				"type": "unocc",
				"energy": 0.04353,
				"method": "rhf"
			}
		],
		"cosmo_sigma_profile": { 
			"-0.025": 0.0,
			"-0.024": 0.0,
			"-0.023": 0.0,
			"-0.022": 0.0,
			"-0.021": 0.0,
			"-0.02": 0.0,
			"-0.019": 0.0,
			"-0.018": 0.0,
			"-0.017": 0.0,
			"-0.016": 0.0,
			"-0.015": 0.0,
			"-0.014": 0.0,
			"-0.013": 0.0,
			"-0.012": 0.0,
			"-0.011": 0.0,
			"-0.01": 0.0,
			"-0.009": 0.0,
			"-0.008": 0.735258001866,
			"-0.007": 6.96816782999,
			"-0.006": 15.7061967101,
			"-0.005": 19.6249578033,
			"-0.004": 22.064930478,
			"-0.003": 21.0275530921,
			"-0.002": 26.0792413211,
			"-0.001": 21.4467146528,
			"0.0": 16.8724016715,
			"0.001": 17.3747609124,
			"0.002": 18.0419342188,
			"0.003": 20.1419289667,
			"0.004": 21.9970998719,
			"0.005": 13.1757133201,
			"0.006": 5.78243305578,
			"0.007": 4.77636978558,
			"0.008": 3.08018335085,
			"0.009": 1.35713524531,
			"0.01": 2.20086072395,
			"0.011": 2.52249445222,
			"0.012": 2.90857012338,
			"0.013": 0.956573643326,
			"0.014": 0.0,
			"0.015": 0.0,
			"0.016": 0.0,
			"0.017": 0.0,
			"0.018": 0.0,
			"0.019": 0.0,
			"0.02": 0.0,
			"0.021": 0.0,
			"0.022": 0.0,
			"0.023": 0.0,
			"0.024": 0.0,
			"0.025": 0.0
		}
	}
}
