{
	 "smiles": "OC(C1CC1)C(O)=O", 
	 "Tm": 340.15, 
	 "num_atms": 16, 
	 "gaussian": { 
		 "optdone": 1, 
		 "sigma_profile": "yes", 
		 "theory": "DFT", 
		 "functional": "B3LYP", 
		 "basiset": "6-31G**", 
		 "properties": { 
			 "R2extent": 1727.7324, 
			 "electric_dipole_moment_norm": 3.77778184256, 
			 "electric_quadrupole_moment_norm": 13.5329262804, 
			 "total_energy": -420.993466372, 
			 "HOMO_LUMO_gap": 0.26504, 
			 "cosmo_polarized_energy": -15.35, 
			 "cosmo_cavitation_energy": 19.7, 
			 "cosmo_dispersion_energy": -14.32, 
			 "cosmo_repulsion_energy": 1.22, 
			 "cosmo_total_nonelectrostatic_energy": 6.6, 
			 "SMD_solvation_energy": 4.44 
		},
		"coords": [
			{
				"x": 2.5692320455,
				"y": 1.2281365216,
				"z": 1.2356950284,
				"element": "O" 
			},
			{
				"x": 1.1674610911,
				"y": 1.1066690324,
				"z": 0.932631612,
				"element": "C" 
			},
			{
				"x": 0.9784379617,
				"y": 1.3489320354,
				"z": -0.5471611426,
				"element": "C" 
			},
			{
				"x": 1.043003194,
				"y": 0.1924877355,
				"z": -1.5144355611,
				"element": "C" 
			},
			{
				"x": -0.2768081904,
				"y": 0.8618214365,
				"z": -1.2241188719,
				"element": "C" 
			},
			{
				"x": 0.3570160406,
				"y": 2.1292565065,
				"z": 1.7543397148,
				"element": "C" 
			},
			{
				"x": 1.1048328035,
				"y": 3.1230913635,
				"z": 2.2709316664,
				"element": "O" 
			},
			{
				"x": -0.8391134126,
				"y": 2.0597579273,
				"z": 1.8975242324,
				"element": "O" 
			},
			{
				"x": 2.7623465712,
				"y": 0.6899160545,
				"z": 2.0148753982,
				"element": "H" 
			},
			{
				"x": 0.7894698913,
				"y": 0.1105452962,
				"z": 1.1917905017,
				"element": "H" 
			},
			{
				"x": 1.3863087844,
				"y": 2.2999019098,
				"z": -0.883314856,
				"element": "H" 
			},
			{
				"x": 1.2159156228,
				"y": -0.7998802244,
				"z": -1.1071269816,
				"element": "H" 
			},
			{
				"x": 1.5125636768,
				"y": 0.3631905087,
				"z": -2.4780341375,
				"element": "H" 
			},
			{
				"x": -0.7176959809,
				"y": 1.4967270152,
				"z": -1.9857103209,
				"element": "H" 
			},
			{
				"x": -1.0036351321,
				"y": 0.3354571084,
				"z": -0.6137835817,
				"element": "H" 
			},
			{
				"x": 2.0295650332,
				"y": 2.9113897728,
				"z": 2.0333972993,
				"element": "H" 
			}
		],
		 "valence_orbital": [ 
			{
				"type": "occ",
				"energy": -0.33799,
				"method": "rhf"
			},
			{
				"type": "occ",
				"energy": -0.31122,
				"method": "rhf"
			},
			{
				"type": "occ",
				"energy": -0.30745,
				"method": "rhf"
			},
			{
				"type": "occ",
				"energy": -0.29942,
				"method": "rhf"
			},
			{
				"type": "occ",
				"energy": -0.25616,
				"method": "rhf"
			},
			{
				"type": "unocc",
				"energy": 0.00888,
				"method": "rhf"
			},
			{
				"type": "unocc",
				"energy": 0.04171,
				"method": "rhf"
			},
			{
				"type": "unocc",
				"energy": 0.09199,
				"method": "rhf"
			},
			{
				"type": "unocc",
				"energy": 0.10126,
				"method": "rhf"
			},
			{
				"type": "unocc",
				"energy": 0.12676,
				"method": "rhf"
			}
		],
		"cosmo_sigma_profile": { 
			"-0.025": 0.0,
			"-0.024": 0.0,
			"-0.023": 0.0,
			"-0.022": 0.0,
			"-0.021": 0.0,
			"-0.02": 0.0,
			"-0.019": 0.0,
			"-0.018": 0.459297914732,
			"-0.017": 1.30139058018,
			"-0.016": 1.65992515853,
			"-0.015": 1.03178394061,
			"-0.014": 1.54314392258,
			"-0.013": 1.16615687257,
			"-0.012": 2.4306473378,
			"-0.011": 2.22675991558,
			"-0.01": 2.14042654494,
			"-0.009": 1.66557693575,
			"-0.008": 3.56526375857,
			"-0.007": 5.07265505356,
			"-0.006": 5.58987482249,
			"-0.005": 10.4646254642,
			"-0.004": 11.7233205041,
			"-0.003": 10.497595248,
			"-0.002": 8.58421782964,
			"-0.001": 8.09740400564,
			"0.0": 7.97452756975,
			"0.001": 6.14490087712,
			"0.002": 6.78522818836,
			"0.003": 5.08467613448,
			"0.004": 6.29688378177,
			"0.005": 4.73222084706,
			"0.006": 3.43644483707,
			"0.007": 4.61207725413,
			"0.008": 3.90225397262,
			"0.009": 4.9913231435,
			"0.01": 6.16544815097,
			"0.011": 5.32539817959,
			"0.012": 6.95397938955,
			"0.013": 2.56160314485,
			"0.014": 0.159204169657,
			"0.015": 0.0,
			"0.016": 0.0,
			"0.017": 0.0,
			"0.018": 0.0,
			"0.019": 0.0,
			"0.02": 0.0,
			"0.021": 0.0,
			"0.022": 0.0,
			"0.023": 0.0,
			"0.024": 0.0,
			"0.025": 0.0
		}
	}
}
