{
	 "smiles": "COP(=S)(OC)SCC1=NC(N)=NC(N)=N1", 
	 "Tm": 438.15, 
	 "num_atms": 28, 
	 "gaussian": { 
		 "optdone": 1, 
		 "sigma_profile": "yes", 
		 "theory": "DFT", 
		 "functional": "B3LYP", 
		 "basiset": "6-31G**", 
		 "properties": { 
			 "R2extent": 5990.3783, 
			 "electric_dipole_moment_norm": 4.30307444974, 
			 "electric_quadrupole_moment_norm": 17.7401868296, 
			 "total_energy": -1797.89802779, 
			 "HOMO_LUMO_gap": 0.19977, 
			 "cosmo_polarized_energy": -19.4, 
			 "cosmo_cavitation_energy": 37.19, 
			 "cosmo_dispersion_energy": -26.74, 
			 "cosmo_repulsion_energy": 2.02, 
			 "cosmo_total_nonelectrostatic_energy": 12.47, 
			 "SMD_solvation_energy": 3.22 
		},
		"coords": [
			{
				"x": 0.7223794441,
				"y": 0.2492074636,
				"z": 2.4248882326,
				"element": "C" 
			},
			{
				"x": 0.4184880472,
				"y": 1.6439479775,
				"z": 2.2282426631,
				"element": "O" 
			},
			{
				"x": 0.782289456,
				"y": 2.3742951054,
				"z": 0.8216344273,
				"element": "P" 
			},
			{
				"x": 2.5658669207,
				"y": 1.9935644696,
				"z": 0.1352972212,
				"element": "S" 
			},
			{
				"x": 0.42163435,
				"y": 3.8964029048,
				"z": 1.2281541854,
				"element": "O" 
			},
			{
				"x": 1.1435641149,
				"y": 4.5386995873,
				"z": 2.2983874873,
				"element": "C" 
			},
			{
				"x": -0.869049184,
				"y": 2.1018585913,
				"z": -0.4807500261,
				"element": "S" 
			},
			{
				"x": -0.2188945274,
				"y": 0.9177824612,
				"z": -1.7432844312,
				"element": "C" 
			},
			{
				"x": -0.8420454434,
				"y": -0.4489039043,
				"z": -1.6107749426,
				"element": "C" 
			},
			{
				"x": -1.8466624226,
				"y": -0.722804938,
				"z": -2.4434210634,
				"element": "N" 
			},
			{
				"x": -2.3712170693,
				"y": -1.9606332702,
				"z": -2.2863930194,
				"element": "C" 
			},
			{
				"x": -3.3918929188,
				"y": -2.2951074354,
				"z": -3.1087860977,
				"element": "N" 
			},
			{
				"x": -1.9574544117,
				"y": -2.883685282,
				"z": -1.406007237,
				"element": "N" 
			},
			{
				"x": -0.937741249,
				"y": -2.4791001108,
				"z": -0.6353336254,
				"element": "C" 
			},
			{
				"x": -0.4747443236,
				"y": -3.356499807,
				"z": 0.2929956193,
				"element": "N" 
			},
			{
				"x": -0.3382039965,
				"y": -1.2698214649,
				"z": -0.6836960225,
				"element": "N" 
			},
			{
				"x": 0.2960467777,
				"y": -0.0141801719,
				"z": 3.3942213481,
				"element": "H" 
			},
			{
				"x": 0.2730517273,
				"y": -0.3593563536,
				"z": 1.6343350694,
				"element": "H" 
			},
			{
				"x": 1.8055034561,
				"y": 0.0979027559,
				"z": 2.4358171554,
				"element": "H" 
			},
			{
				"x": 0.7667162362,
				"y": 5.5610573379,
				"z": 2.3414464015,
				"element": "H" 
			},
			{
				"x": 2.2160512567,
				"y": 4.5475447623,
				"z": 2.0832503839,
				"element": "H" 
			},
			{
				"x": 0.9544925166,
				"y": 4.0275830108,
				"z": 3.2455108852,
				"element": "H" 
			},
			{
				"x": -0.4784759143,
				"y": 1.3422106126,
				"z": -2.7130837032,
				"element": "H" 
			},
			{
				"x": 0.8677462918,
				"y": 0.8710830717,
				"z": -1.6317423711,
				"element": "H" 
			},
			{
				"x": -3.781452097,
				"y": -1.5857452935,
				"z": -3.7068919232,
				"element": "H" 
			},
			{
				"x": -3.8767948016,
				"y": -3.1639957437,
				"z": -2.959036803,
				"element": "H" 
			},
			{
				"x": -0.7822203204,
				"y": -4.3134718721,
				"z": 0.2255126537,
				"element": "H" 
			},
			{
				"x": 0.4145180842,
				"y": -3.1569344648,
				"z": 0.7217075324,
				"element": "H" 
			}
		],
		 "valence_orbital": [ 
			{
				"type": "occ",
				"energy": -0.26003,
				"method": "rhf"
			},
			{
				"type": "occ",
				"energy": -0.25518,
				"method": "rhf"
			},
			{
				"type": "occ",
				"energy": -0.24617,
				"method": "rhf"
			},
			{
				"type": "occ",
				"energy": -0.24137,
				"method": "rhf"
			},
			{
				"type": "occ",
				"energy": -0.23195,
				"method": "rhf"
			},
			{
				"type": "unocc",
				"energy": -0.03218,
				"method": "rhf"
			},
			{
				"type": "unocc",
				"energy": -0.00982,
				"method": "rhf"
			},
			{
				"type": "unocc",
				"energy": 0.00248,
				"method": "rhf"
			},
			{
				"type": "unocc",
				"energy": 0.04041,
				"method": "rhf"
			},
			{
				"type": "unocc",
				"energy": 0.04757,
				"method": "rhf"
			}
		],
		"cosmo_sigma_profile": { 
			"-0.025": 0.0,
			"-0.024": 0.0,
			"-0.023": 0.0,
			"-0.022": 0.0,
			"-0.021": 0.0,
			"-0.02": 0.0,
			"-0.019": 0.0,
			"-0.018": 0.0,
			"-0.017": 0.0,
			"-0.016": 0.0,
			"-0.015": 0.290245237552,
			"-0.014": 3.34954721373,
			"-0.013": 4.05719469847,
			"-0.012": 4.25060834155,
			"-0.011": 3.60751255745,
			"-0.01": 4.93201403772,
			"-0.009": 3.25071626964,
			"-0.008": 3.40349763855,
			"-0.007": 7.01713405196,
			"-0.006": 11.6384560108,
			"-0.005": 15.381999904,
			"-0.004": 21.1102566789,
			"-0.003": 19.3405443547,
			"-0.002": 15.6413751902,
			"-0.001": 16.1592721699,
			"0.0": 17.4494308283,
			"0.001": 19.4106575905,
			"0.002": 19.9738055652,
			"0.003": 19.6623022466,
			"0.004": 20.1168162105,
			"0.005": 15.7554632408,
			"0.006": 15.4264245626,
			"0.007": 13.8297437791,
			"0.008": 9.57862571918,
			"0.009": 5.45363405569,
			"0.01": 2.45237070914,
			"0.011": 2.1247131797,
			"0.012": 2.0483701063,
			"0.013": 1.15709727328,
			"0.014": 0.439733412156,
			"0.015": 0.0,
			"0.016": 0.0,
			"0.017": 0.0,
			"0.018": 0.0,
			"0.019": 0.0,
			"0.02": 0.0,
			"0.021": 0.0,
			"0.022": 0.0,
			"0.023": 0.0,
			"0.024": 0.0,
			"0.025": 0.0
		}
	}
}
