{
	 "smiles": "CCOC(=O)CN(C(=O)CCl)C1=C(CC)C=CC=C1CC", 
	 "Tm": 323.15, 
	 "num_atms": 43, 
	 "gaussian": { 
		 "optdone": 1, 
		 "sigma_profile": "yes", 
		 "theory": "DFT", 
		 "functional": "B3LYP", 
		 "basiset": "6-31G**", 
		 "properties": { 
			 "R2extent": 6884.4572, 
			 "electric_dipole_moment_norm": 2.57493978376, 
			 "electric_quadrupole_moment_norm": 22.6082278666, 
			 "total_energy": -1363.60983592, 
			 "HOMO_LUMO_gap": 0.21129, 
			 "cosmo_polarized_energy": -15.28, 
			 "cosmo_cavitation_energy": 45.46, 
			 "cosmo_dispersion_energy": -28.97, 
			 "cosmo_repulsion_energy": 2.25, 
			 "cosmo_total_nonelectrostatic_energy": 18.74, 
			 "SMD_solvation_energy": 9.05 
		},
		"coords": [
			{
				"x": -4.3196141421,
				"y": -0.0978394748,
				"z": -2.2138072233,
				"element": "C" 
			},
			{
				"x": -3.7717352677,
				"y": 0.4882902502,
				"z": -0.9276470328,
				"element": "C" 
			},
			{
				"x": -2.3512653006,
				"y": 0.724720994,
				"z": -1.121167368,
				"element": "O" 
			},
			{
				"x": -1.6998908569,
				"y": 1.2904883641,
				"z": -0.0835721713,
				"element": "C" 
			},
			{
				"x": -2.2301659494,
				"y": 1.6035397996,
				"z": 0.9589653429,
				"element": "O" 
			},
			{
				"x": -0.2251050101,
				"y": 1.5564038298,
				"z": -0.3976670272,
				"element": "C" 
			},
			{
				"x": 0.5269312618,
				"y": 0.4376047662,
				"z": -0.964621193,
				"element": "N" 
			},
			{
				"x": 0.6404477555,
				"y": 0.1758420782,
				"z": -2.3147212304,
				"element": "C" 
			},
			{
				"x": 1.237027679,
				"y": -0.7992755541,
				"z": -2.7447784579,
				"element": "O" 
			},
			{
				"x": -0.0249038151,
				"y": 1.1403744608,
				"z": -3.3006352819,
				"element": "C" 
			},
			{
				"x": 0.8877044497,
				"y": 2.710886875,
				"z": -3.4512671051,
				"element": "Cl" 
			},
			{
				"x": 1.2638542593,
				"y": -0.4099118965,
				"z": -0.0469539438,
				"element": "C" 
			},
			{
				"x": 2.5284912946,
				"y": 0.0251504904,
				"z": 0.4022721396,
				"element": "C" 
			},
			{
				"x": 3.1653748053,
				"y": 1.327091271,
				"z": -0.047850138,
				"element": "C" 
			},
			{
				"x": 3.2334096657,
				"y": 2.3958738738,
				"z": 1.0587571017,
				"element": "C" 
			},
			{
				"x": 3.2315544529,
				"y": -0.7917219943,
				"z": 1.295702295,
				"element": "C" 
			},
			{
				"x": 2.7074805096,
				"y": -2.0073632262,
				"z": 1.7250062294,
				"element": "C" 
			},
			{
				"x": 1.4656275212,
				"y": -2.4259574894,
				"z": 1.2578938516,
				"element": "C" 
			},
			{
				"x": 0.7214766001,
				"y": -1.6415147222,
				"z": 0.3676150735,
				"element": "C" 
			},
			{
				"x": -0.6219645127,
				"y": -2.1581569178,
				"z": -0.1083555469,
				"element": "C" 
			},
			{
				"x": -1.679616977,
				"y": -2.2128823994,
				"z": 1.0095698554,
				"element": "C" 
			},
			{
				"x": -5.3898688481,
				"y": -0.2958112906,
				"z": -2.1000283477,
				"element": "H" 
			},
			{
				"x": -4.1884525733,
				"y": 0.5945138987,
				"z": -3.0505616627,
				"element": "H" 
			},
			{
				"x": -3.8215411072,
				"y": -1.0395713313,
				"z": -2.4612580202,
				"element": "H" 
			},
			{
				"x": -4.2481988735,
				"y": 1.4381032136,
				"z": -0.6678588143,
				"element": "H" 
			},
			{
				"x": -3.8960585028,
				"y": -0.1900155413,
				"z": -0.0790433731,
				"element": "H" 
			},
			{
				"x": -0.1748887041,
				"y": 2.4254691025,
				"z": -1.0614949364,
				"element": "H" 
			},
			{
				"x": 0.2359595761,
				"y": 1.8453902793,
				"z": 0.5462469439,
				"element": "H" 
			},
			{
				"x": -1.0503007993,
				"y": 1.3878085301,
				"z": -3.0314117625,
				"element": "H" 
			},
			{
				"x": 0.0142007128,
				"y": 0.6662103384,
				"z": -4.2781712757,
				"element": "H" 
			},
			{
				"x": 4.1855825409,
				"y": 1.1093451626,
				"z": -0.3865970212,
				"element": "H" 
			},
			{
				"x": 2.6385293833,
				"y": 1.7311766091,
				"z": -0.915322916,
				"element": "H" 
			},
			{
				"x": 3.7257155263,
				"y": 3.3015713671,
				"z": 0.6901398264,
				"element": "H" 
			},
			{
				"x": 3.7962642494,
				"y": 2.0355562012,
				"z": 1.9257010269,
				"element": "H" 
			},
			{
				"x": 2.2360876618,
				"y": 2.6776086989,
				"z": 1.4126420991,
				"element": "H" 
			},
			{
				"x": 4.2114091292,
				"y": -0.472293595,
				"z": 1.6416444459,
				"element": "H" 
			},
			{
				"x": 3.2722491164,
				"y": -2.6336879728,
				"z": 2.4097620431,
				"element": "H" 
			},
			{
				"x": 1.0640889937,
				"y": -3.3845424728,
				"z": 1.5763768515,
				"element": "H" 
			},
			{
				"x": -0.4786113717,
				"y": -3.1665259021,
				"z": -0.5153488036,
				"element": "H" 
			},
			{
				"x": -0.9932549868,
				"y": -1.5449790196,
				"z": -0.9306868433,
				"element": "H" 
			},
			{
				"x": -1.3570200759,
				"y": -2.8560984522,
				"z": 1.834483285,
				"element": "H" 
			},
			{
				"x": -2.6249933648,
				"y": -2.6141361118,
				"z": 0.6279099862,
				"element": "H" 
			},
			{
				"x": -1.8731161055,
				"y": -1.2195350905,
				"z": 1.4268390997,
				"element": "H" 
			}
		],
		 "valence_orbital": [ 
			{
				"type": "occ",
				"energy": -0.29643,
				"method": "rhf"
			},
			{
				"type": "occ",
				"energy": -0.25914,
				"method": "rhf"
			},
			{
				"type": "occ",
				"energy": -0.25383,
				"method": "rhf"
			},
			{
				"type": "occ",
				"energy": -0.24349,
				"method": "rhf"
			},
			{
				"type": "occ",
				"energy": -0.2369,
				"method": "rhf"
			},
			{
				"type": "unocc",
				"energy": -0.02561,
				"method": "rhf"
			},
			{
				"type": "unocc",
				"energy": -0.01091,
				"method": "rhf"
			},
			{
				"type": "unocc",
				"energy": -0.00533,
				"method": "rhf"
			},
			{
				"type": "unocc",
				"energy": -0.00025,
				"method": "rhf"
			},
			{
				"type": "unocc",
				"energy": 0.05146,
				"method": "rhf"
			}
		],
		"cosmo_sigma_profile": { 
			"-0.025": 0.0,
			"-0.024": 0.0,
			"-0.023": 0.0,
			"-0.022": 0.0,
			"-0.021": 0.0,
			"-0.02": 0.0,
			"-0.019": 0.0,
			"-0.018": 0.0,
			"-0.017": 0.0,
			"-0.016": 0.0,
			"-0.015": 0.0,
			"-0.014": 0.0,
			"-0.013": 0.0,
			"-0.012": 0.0,
			"-0.011": 1.51836670196e-05,
			"-0.01": 0.276348139876,
			"-0.009": 1.47324575161,
			"-0.008": 3.22076072324,
			"-0.007": 4.61621724579,
			"-0.006": 9.22493048971,
			"-0.005": 20.3970041319,
			"-0.004": 34.9983658658,
			"-0.003": 40.4429813558,
			"-0.002": 35.6883850877,
			"-0.001": 42.0076493941,
			"0.0": 40.1674519367,
			"0.001": 28.7672830064,
			"0.002": 16.3263613457,
			"0.003": 13.9310437835,
			"0.004": 13.4326861113,
			"0.005": 15.2928515851,
			"0.006": 7.75797953456,
			"0.007": 3.51675284315,
			"0.008": 3.08038647439,
			"0.009": 2.93334922231,
			"0.01": 3.83340262023,
			"0.011": 7.09271872519,
			"0.012": 5.89546534807,
			"0.013": 4.56722287714,
			"0.014": 0.494876150034,
			"0.015": 0.0,
			"0.016": 0.0,
			"0.017": 0.0,
			"0.018": 0.0,
			"0.019": 0.0,
			"0.02": 0.0,
			"0.021": 0.0,
			"0.022": 0.0,
			"0.023": 0.0,
			"0.024": 0.0,
			"0.025": 0.0
		}
	}
}
