{
	 "smiles": "CCCCC#CCC", 
	 "Tm": 169.15, 
	 "num_atms": 22, 
	 "gaussian": { 
		 "optdone": 1, 
		 "sigma_profile": "yes", 
		 "theory": "DFT", 
		 "functional": "B3LYP", 
		 "basiset": "6-31G**", 
		 "properties": { 
			 "R2extent": 1709.8468, 
			 "electric_dipole_moment_norm": 0.0668694250013, 
			 "electric_quadrupole_moment_norm": 3.93833335689, 
			 "total_energy": -313.24378682, 
			 "HOMO_LUMO_gap": 0.29478, 
			 "cosmo_polarized_energy": -2.99, 
			 "cosmo_cavitation_energy": 24.71, 
			 "cosmo_dispersion_energy": -17.41, 
			 "cosmo_repulsion_energy": 1.52, 
			 "cosmo_total_nonelectrostatic_energy": 8.82, 
			 "SMD_solvation_energy": 4.39 
		},
		"coords": [
			{
				"x": -0.7114618214,
				"y": -1.7507217024,
				"z": 1.2814578193,
				"element": "C" 
			},
			{
				"x": 0.3521372969,
				"y": -1.287899058,
				"z": 2.2842698504,
				"element": "C" 
			},
			{
				"x": 1.4308580892,
				"y": -0.3453973271,
				"z": 1.7244786592,
				"element": "C" 
			},
			{
				"x": 0.9627485797,
				"y": 1.0904472816,
				"z": 1.3824752473,
				"element": "C" 
			},
			{
				"x": 0.175236144,
				"y": 1.2302606368,
				"z": 0.1542478807,
				"element": "C" 
			},
			{
				"x": -0.444905838,
				"y": 1.3671333335,
				"z": -0.8767643958,
				"element": "C" 
			},
			{
				"x": -1.2190262275,
				"y": 1.5350963648,
				"z": -2.1090687141,
				"element": "C" 
			},
			{
				"x": -2.5697572621,
				"y": 2.241060048,
				"z": -1.8865726705,
				"element": "C" 
			},
			{
				"x": -0.2497734432,
				"y": -2.2583747185,
				"z": 0.4267303331,
				"element": "H" 
			},
			{
				"x": -1.4057558258,
				"y": -2.4555611312,
				"z": 1.7519109777,
				"element": "H" 
			},
			{
				"x": -1.2915947659,
				"y": -0.9124058011,
				"z": 0.8886779179,
				"element": "H" 
			},
			{
				"x": 0.8578179307,
				"y": -2.17136663,
				"z": 2.6957570851,
				"element": "H" 
			},
			{
				"x": -0.1369703513,
				"y": -0.7988656378,
				"z": 3.1385469154,
				"element": "H" 
			},
			{
				"x": 2.2260017419,
				"y": -0.2516567115,
				"z": 2.4749088586,
				"element": "H" 
			},
			{
				"x": 1.8939582288,
				"y": -0.7921007626,
				"z": 0.8357545487,
				"element": "H" 
			},
			{
				"x": 1.8505802078,
				"y": 1.7315177911,
				"z": 1.2951084214,
				"element": "H" 
			},
			{
				"x": 0.3908267021,
				"y": 1.4903579738,
				"z": 2.2320654759,
				"element": "H" 
			},
			{
				"x": -0.6259040552,
				"y": 2.1037838997,
				"z": -2.8378763575,
				"element": "H" 
			},
			{
				"x": -1.392423572,
				"y": 0.5514047078,
				"z": -2.5658444219,
				"element": "H" 
			},
			{
				"x": -3.1093124202,
				"y": 2.3433886024,
				"z": -2.8335258727,
				"element": "H" 
			},
			{
				"x": -3.1962528977,
				"y": 1.6726137469,
				"z": -1.1932184473,
				"element": "H" 
			},
			{
				"x": -2.4222264409,
				"y": 3.2394850938,
				"z": -1.4650191109,
				"element": "H" 
			}
		],
		 "valence_orbital": [ 
			{
				"type": "occ",
				"energy": -0.32926,
				"method": "rhf"
			},
			{
				"type": "occ",
				"energy": -0.3268,
				"method": "rhf"
			},
			{
				"type": "occ",
				"energy": -0.32267,
				"method": "rhf"
			},
			{
				"type": "occ",
				"energy": -0.24007,
				"method": "rhf"
			},
			{
				"type": "occ",
				"energy": -0.23634,
				"method": "rhf"
			},
			{
				"type": "unocc",
				"energy": 0.05844,
				"method": "rhf"
			},
			{
				"type": "unocc",
				"energy": 0.06459,
				"method": "rhf"
			},
			{
				"type": "unocc",
				"energy": 0.10455,
				"method": "rhf"
			},
			{
				"type": "unocc",
				"energy": 0.11027,
				"method": "rhf"
			},
			{
				"type": "unocc",
				"energy": 0.13511,
				"method": "rhf"
			}
		],
		"cosmo_sigma_profile": { 
			"-0.025": 0.0,
			"-0.024": 0.0,
			"-0.023": 0.0,
			"-0.022": 0.0,
			"-0.021": 0.0,
			"-0.02": 0.0,
			"-0.019": 0.0,
			"-0.018": 0.0,
			"-0.017": 0.0,
			"-0.016": 0.0,
			"-0.015": 0.0,
			"-0.014": 0.0,
			"-0.013": 0.0,
			"-0.012": 0.0,
			"-0.011": 0.0,
			"-0.01": 0.0,
			"-0.009": 0.0,
			"-0.008": 0.0,
			"-0.007": 0.0,
			"-0.006": 0.0,
			"-0.005": 2.56678755895,
			"-0.004": 9.98256729247,
			"-0.003": 18.8181487261,
			"-0.002": 31.5680397238,
			"-0.001": 33.0360875436,
			"0.0": 29.0933370534,
			"0.001": 25.3670099227,
			"0.002": 13.1520136117,
			"0.003": 6.78556071694,
			"0.004": 3.98027867578,
			"0.005": 4.12360759615,
			"0.006": 4.28058017419,
			"0.007": 5.49900883835,
			"0.008": 4.09267452389,
			"0.009": 0.0379972909758,
			"0.01": 0.0,
			"0.011": 0.0,
			"0.012": 0.0,
			"0.013": 0.0,
			"0.014": 0.0,
			"0.015": 0.0,
			"0.016": 0.0,
			"0.017": 0.0,
			"0.018": 0.0,
			"0.019": 0.0,
			"0.02": 0.0,
			"0.021": 0.0,
			"0.022": 0.0,
			"0.023": 0.0,
			"0.024": 0.0,
			"0.025": 0.0
		}
	}
}
