{
	 "smiles": "CC1=C(OCC(O)=O)C=CC=C1Cl", 
	 "Tm": 417.15, 
	 "num_atms": 22, 
	 "gaussian": { 
		 "optdone": 1, 
		 "sigma_profile": "yes", 
		 "theory": "DFT", 
		 "functional": "B3LYP", 
		 "basiset": "6-31G**", 
		 "properties": { 
			 "R2extent": 4071.6518, 
			 "electric_dipole_moment_norm": 3.68749346305, 
			 "electric_quadrupole_moment_norm": 21.7699629242, 
			 "total_energy": -1034.24627665, 
			 "HOMO_LUMO_gap": 0.22819, 
			 "cosmo_polarized_energy": -12.6, 
			 "cosmo_cavitation_energy": 28.29, 
			 "cosmo_dispersion_energy": -20.34, 
			 "cosmo_repulsion_energy": 1.63, 
			 "cosmo_total_nonelectrostatic_energy": 9.58, 
			 "SMD_solvation_energy": 6.19 
		},
		"coords": [
			{
				"x": -2.083484597,
				"y": 1.5569236668,
				"z": 1.5832552939,
				"element": "C" 
			},
			{
				"x": -1.4929376986,
				"y": 0.4248375822,
				"z": 0.7844792295,
				"element": "C" 
			},
			{
				"x": -0.6915853762,
				"y": 0.6578162194,
				"z": -0.346529093,
				"element": "C" 
			},
			{
				"x": -0.4698943308,
				"y": 1.9709298895,
				"z": -0.7491157277,
				"element": "O" 
			},
			{
				"x": 0.8249806276,
				"y": 2.5101729659,
				"z": -0.4649907643,
				"element": "C" 
			},
			{
				"x": 1.0041195781,
				"y": 3.8131114165,
				"z": -1.2447947885,
				"element": "C" 
			},
			{
				"x": 0.0060036322,
				"y": 4.113591886,
				"z": -2.0919666946,
				"element": "O" 
			},
			{
				"x": 1.9836422217,
				"y": 4.5017286448,
				"z": -1.1065726571,
				"element": "O" 
			},
			{
				"x": -0.1481526782,
				"y": -0.3796096676,
				"z": -1.1051867647,
				"element": "C" 
			},
			{
				"x": -0.3903820607,
				"y": -1.7003183417,
				"z": -0.7368327396,
				"element": "C" 
			},
			{
				"x": -1.1769389135,
				"y": -1.9790160625,
				"z": 0.3800089133,
				"element": "C" 
			},
			{
				"x": -1.7137980224,
				"y": -0.9226843379,
				"z": 1.1136773257,
				"element": "C" 
			},
			{
				"x": -2.7073835572,
				"y": -1.3108133704,
				"z": 2.5146734168,
				"element": "Cl" 
			},
			{
				"x": -1.7137988527,
				"y": 1.5459128716,
				"z": 2.6141067337,
				"element": "H" 
			},
			{
				"x": -1.8370704711,
				"y": 2.5170789042,
				"z": 1.130387963,
				"element": "H" 
			},
			{
				"x": -3.1730952544,
				"y": 1.4679296048,
				"z": 1.6376154185,
				"element": "H" 
			},
			{
				"x": 1.6189286372,
				"y": 1.8156322629,
				"z": -0.7645966789,
				"element": "H" 
			},
			{
				"x": 0.9415241576,
				"y": 2.7211888042,
				"z": 0.6045755997,
				"element": "H" 
			},
			{
				"x": -0.6671003654,
				"y": 3.4121947397,
				"z": -2.0184266944,
				"element": "H" 
			},
			{
				"x": 0.445245765,
				"y": -0.1416477661,
				"z": -1.982236426,
				"element": "H" 
			},
			{
				"x": 0.0252177405,
				"y": -2.514655473,
				"z": -1.3217151248,
				"element": "H" 
			},
			{
				"x": -1.380140182,
				"y": -3.0004044392,
				"z": 0.6805842594,
				"element": "H" 
			}
		],
		 "valence_orbital": [ 
			{
				"type": "occ",
				"energy": -0.32145,
				"method": "rhf"
			},
			{
				"type": "occ",
				"energy": -0.30553,
				"method": "rhf"
			},
			{
				"type": "occ",
				"energy": -0.27731,
				"method": "rhf"
			},
			{
				"type": "occ",
				"energy": -0.26282,
				"method": "rhf"
			},
			{
				"type": "occ",
				"energy": -0.2571,
				"method": "rhf"
			},
			{
				"type": "unocc",
				"energy": -0.02891,
				"method": "rhf"
			},
			{
				"type": "unocc",
				"energy": -0.02304,
				"method": "rhf"
			},
			{
				"type": "unocc",
				"energy": 0.00612,
				"method": "rhf"
			},
			{
				"type": "unocc",
				"energy": 0.01889,
				"method": "rhf"
			},
			{
				"type": "unocc",
				"energy": 0.06879,
				"method": "rhf"
			}
		],
		"cosmo_sigma_profile": { 
			"-0.025": 0.0,
			"-0.024": 0.0,
			"-0.023": 0.0,
			"-0.022": 0.0,
			"-0.021": 0.0,
			"-0.02": 0.0,
			"-0.019": 0.0,
			"-0.018": 0.0,
			"-0.017": 0.0,
			"-0.016": 0.0,
			"-0.015": 0.269320686509,
			"-0.014": 0.61963546529,
			"-0.013": 0.112785911024,
			"-0.012": 0.633901270015,
			"-0.011": 1.04778581556,
			"-0.01": 0.769112789563,
			"-0.009": 0.897097471182,
			"-0.008": 5.40554742221,
			"-0.007": 12.6441514478,
			"-0.006": 12.5026017938,
			"-0.005": 14.738547835,
			"-0.004": 14.0157125543,
			"-0.003": 13.3172313481,
			"-0.002": 15.6572026407,
			"-0.001": 16.3216077061,
			"0.0": 15.2052256493,
			"0.001": 16.8742468387,
			"0.002": 18.8980797542,
			"0.003": 18.1513516699,
			"0.004": 14.5554313947,
			"0.005": 7.36922498934,
			"0.006": 2.17643444516,
			"0.007": 2.12088759189,
			"0.008": 3.0770281035,
			"0.009": 4.29200921782,
			"0.01": 4.87275117434,
			"0.011": 4.40224046473,
			"0.012": 5.35364658129,
			"0.013": 1.27770760902,
			"0.014": 0.0,
			"0.015": 0.0,
			"0.016": 0.0,
			"0.017": 0.0,
			"0.018": 0.0,
			"0.019": 0.0,
			"0.02": 0.0,
			"0.021": 0.0,
			"0.022": 0.0,
			"0.023": 0.0,
			"0.024": 0.0,
			"0.025": 0.0
		}
	}
}
