{
	 "smiles": "CCS(=O)(=O)C1=CC=CN=C1S(=O)(=O)NC(=O)NC1=NC(OC)=CC(OC)=N1", 
	 "Tm": 450.15, 
	 "num_atms": 45, 
	 "gaussian": { 
		 "optdone": 1, 
		 "sigma_profile": "yes", 
		 "theory": "DFT", 
		 "functional": "B3LYP", 
		 "basiset": "6-31G**", 
		 "properties": { 
			 "R2extent": 18132.339, 
			 "electric_dipole_moment_norm": 8.5287025936, 
			 "electric_quadrupole_moment_norm": 36.8161258705, 
			 "total_energy": -2140.29668903, 
			 "HOMO_LUMO_gap": 0.16223, 
			 "cosmo_polarized_energy": -38.9, 
			 "cosmo_cavitation_energy": 53.17, 
			 "cosmo_dispersion_energy": -37.34, 
			 "cosmo_repulsion_energy": 2.76, 
			 "cosmo_total_nonelectrostatic_energy": 18.59, 
			 "SMD_solvation_energy": 8.59 
		},
		"coords": [
			{
				"x": 3.8632741778,
				"y": 3.3444572952,
				"z": -4.4918351318,
				"element": "C" 
			},
			{
				"x": 2.3709377701,
				"y": 3.3707067579,
				"z": -4.8015101832,
				"element": "C" 
			},
			{
				"x": 1.4057979736,
				"y": 4.3955070984,
				"z": -3.6502906848,
				"element": "S" 
			},
			{
				"x": 0.0028907092,
				"y": 4.3752288096,
				"z": -4.0718218883,
				"element": "O" 
			},
			{
				"x": 2.1237069519,
				"y": 5.6700636436,
				"z": -3.4694726057,
				"element": "O" 
			},
			{
				"x": 1.5402244157,
				"y": 3.5473098781,
				"z": -2.0265358248,
				"element": "C" 
			},
			{
				"x": 2.3840523825,
				"y": 4.1656194485,
				"z": -1.101343222,
				"element": "C" 
			},
			{
				"x": 2.5588125695,
				"y": 3.6009272531,
				"z": 0.1605605278,
				"element": "C" 
			},
			{
				"x": 1.8921500347,
				"y": 2.4138064867,
				"z": 0.446301039,
				"element": "C" 
			},
			{
				"x": 1.0719443487,
				"y": 1.8173478732,
				"z": -0.4270485208,
				"element": "N" 
			},
			{
				"x": 0.8805979612,
				"y": 2.3748319088,
				"z": -1.6131215626,
				"element": "C" 
			},
			{
				"x": -0.3099032988,
				"y": 1.4443013964,
				"z": -2.6684391611,
				"element": "S" 
			},
			{
				"x": -1.5647191033,
				"y": 2.1600683693,
				"z": -2.7765025602,
				"element": "O" 
			},
			{
				"x": 0.4525407058,
				"y": 0.9918981799,
				"z": -3.83876621,
				"element": "O" 
			},
			{
				"x": -0.5776554274,
				"y": 0.0137931922,
				"z": -1.811351501,
				"element": "N" 
			},
			{
				"x": -1.3560594352,
				"y": -0.0729098816,
				"z": -0.6228289392,
				"element": "C" 
			},
			{
				"x": -1.8518070098,
				"y": 0.8771864541,
				"z": -0.0731790363,
				"element": "O" 
			},
			{
				"x": -1.4589665954,
				"y": -1.4101837047,
				"z": -0.2434243158,
				"element": "N" 
			},
			{
				"x": -2.064465761,
				"y": -1.9311796303,
				"z": 0.9042438003,
				"element": "C" 
			},
			{
				"x": -2.2835745808,
				"y": -3.2515176447,
				"z": 0.8283063791,
				"element": "N" 
			},
			{
				"x": -2.842554924,
				"y": -3.7999711712,
				"z": 1.9131886376,
				"element": "C" 
			},
			{
				"x": -3.0933169577,
				"y": -5.1195976613,
				"z": 1.9258240362,
				"element": "O" 
			},
			{
				"x": -2.7559802763,
				"y": -5.8729521062,
				"z": 0.7557662507,
				"element": "C" 
			},
			{
				"x": -3.1911209381,
				"y": -3.0655129226,
				"z": 3.0477586703,
				"element": "C" 
			},
			{
				"x": -2.9017786611,
				"y": -1.7015464257,
				"z": 2.9826187356,
				"element": "C" 
			},
			{
				"x": -3.2188406235,
				"y": -0.9405815565,
				"z": 4.0389470396,
				"element": "O" 
			},
			{
				"x": -2.9368978042,
				"y": 0.4657410365,
				"z": 3.9467024682,
				"element": "C" 
			},
			{
				"x": -2.3244340099,
				"y": -1.1223914248,
				"z": 1.9225230044,
				"element": "N" 
			},
			{
				"x": 4.2784123754,
				"y": 4.3545927088,
				"z": -4.4712988454,
				"element": "H" 
			},
			{
				"x": 4.0685169105,
				"y": 2.8616322894,
				"z": -3.5317102078,
				"element": "H" 
			},
			{
				"x": 4.3806985267,
				"y": 2.771916672,
				"z": -5.2673224344,
				"element": "H" 
			},
			{
				"x": 2.1584268163,
				"y": 3.8483583944,
				"z": -5.7639090474,
				"element": "H" 
			},
			{
				"x": 1.9008567932,
				"y": 2.3853082946,
				"z": -4.791782622,
				"element": "H" 
			},
			{
				"x": 2.8814735603,
				"y": 5.0851541139,
				"z": -1.390692611,
				"element": "H" 
			},
			{
				"x": 3.203776872,
				"y": 4.0666146443,
				"z": 0.8980230778,
				"element": "H" 
			},
			{
				"x": 2.0100466087,
				"y": 1.9160537687,
				"z": 1.4055697806,
				"element": "H" 
			},
			{
				"x": 0.1477499391,
				"y": -0.675376718,
				"z": -1.9735313566,
				"element": "H" 
			},
			{
				"x": -1.2893386125,
				"y": -2.1196206738,
				"z": -0.9436738381,
				"element": "H" 
			},
			{
				"x": -3.0488950133,
				"y": -6.8988069735,
				"z": 0.9813476556,
				"element": "H" 
			},
			{
				"x": -3.3002843722,
				"y": -5.5066742516,
				"z": -0.1189155158,
				"element": "H" 
			},
			{
				"x": -1.6831754454,
				"y": -5.8221329971,
				"z": 0.5499816005,
				"element": "H" 
			},
			{
				"x": -3.6541850508,
				"y": -3.5211015142,
				"z": 3.911649792,
				"element": "H" 
			},
			{
				"x": -3.3489436546,
				"y": 0.8975336891,
				"z": 4.8592138007,
				"element": "H" 
			},
			{
				"x": -1.8594818037,
				"y": 0.6431926611,
				"z": 3.8935261426,
				"element": "H" 
			},
			{
				"x": -3.4043090437,
				"y": 0.90330494,
				"z": 3.0621553877,
				"element": "H" 
			}
		],
		 "valence_orbital": [ 
			{
				"type": "occ",
				"energy": -0.28408,
				"method": "rhf"
			},
			{
				"type": "occ",
				"energy": -0.28253,
				"method": "rhf"
			},
			{
				"type": "occ",
				"energy": -0.27454,
				"method": "rhf"
			},
			{
				"type": "occ",
				"energy": -0.26422,
				"method": "rhf"
			},
			{
				"type": "occ",
				"energy": -0.23497,
				"method": "rhf"
			},
			{
				"type": "unocc",
				"energy": -0.07274,
				"method": "rhf"
			},
			{
				"type": "unocc",
				"energy": -0.06539,
				"method": "rhf"
			},
			{
				"type": "unocc",
				"energy": -0.02495,
				"method": "rhf"
			},
			{
				"type": "unocc",
				"energy": -0.00697,
				"method": "rhf"
			},
			{
				"type": "unocc",
				"energy": 0.01835,
				"method": "rhf"
			}
		],
		"cosmo_sigma_profile": { 
			"-0.025": 0.0,
			"-0.024": 0.0,
			"-0.023": 0.0,
			"-0.022": 0.0,
			"-0.021": 0.0,
			"-0.02": 0.0831947063808,
			"-0.019": 0.866143392603,
			"-0.018": 1.63919641071,
			"-0.017": 1.82246855075,
			"-0.016": 1.57433270607,
			"-0.015": 1.03826369636,
			"-0.014": 1.41106991498,
			"-0.013": 1.29111052236,
			"-0.012": 1.86657349491,
			"-0.011": 0.776468598487,
			"-0.01": 1.48263946851,
			"-0.009": 7.63569527893,
			"-0.008": 12.3414855041,
			"-0.007": 10.0305389362,
			"-0.006": 16.4603529808,
			"-0.005": 29.5337391055,
			"-0.004": 36.6300752149,
			"-0.003": 39.2253839754,
			"-0.002": 34.8932189177,
			"-0.001": 32.4220340655,
			"0.0": 22.5172949224,
			"0.001": 19.4099388097,
			"0.002": 19.9093126434,
			"0.003": 12.9600202069,
			"0.004": 12.7364033508,
			"0.005": 10.1035035928,
			"0.006": 11.232512667,
			"0.007": 12.0197746834,
			"0.008": 11.7058183885,
			"0.009": 15.0433121246,
			"0.01": 16.0873909721,
			"0.011": 17.2094623667,
			"0.012": 8.76149787235,
			"0.013": 1.31642403857,
			"0.014": 0.463579570272,
			"0.015": 0.0253006192354,
			"0.016": 0.0,
			"0.017": 0.0,
			"0.018": 0.0,
			"0.019": 0.0,
			"0.02": 0.0,
			"0.021": 0.0,
			"0.022": 0.0,
			"0.023": 0.0,
			"0.024": 0.0,
			"0.025": 0.0
		}
	}
}
