{
	 "smiles": "[O-][N+](=O)C1=CC=C(OC(F)F)C=C1", 
	 "Tm": 307.15, 
	 "num_atms": 18, 
	 "gaussian": { 
		 "optdone": 1, 
		 "sigma_profile": "yes", 
		 "theory": "DFT", 
		 "functional": "B3LYP", 
		 "basiset": "6-31G**", 
		 "properties": { 
			 "R2extent": 3284.2397, 
			 "electric_dipole_moment_norm": 3.13811099389, 
			 "electric_quadrupole_moment_norm": 20.2414481994, 
			 "total_energy": -749.751857151, 
			 "HOMO_LUMO_gap": 0.18059, 
			 "cosmo_polarized_energy": -10.07, 
			 "cosmo_cavitation_energy": 24.51, 
			 "cosmo_dispersion_energy": -17.91, 
			 "cosmo_repulsion_energy": 1.37, 
			 "cosmo_total_nonelectrostatic_energy": 7.97, 
			 "SMD_solvation_energy": 7.86 
		},
		"coords": [
			{
				"x": -3.6524466521,
				"y": -0.3356435386,
				"z": 0.6238997744,
				"element": "O" 
			},
			{
				"x": -2.8035672401,
				"y": -0.9247300575,
				"z": -0.0452166329,
				"element": "N" 
			},
			{
				"x": -3.0390869217,
				"y": -1.8531709735,
				"z": -0.8183068132,
				"element": "O" 
			},
			{
				"x": -1.4085662325,
				"y": -0.4879535999,
				"z": 0.0871731873,
				"element": "C" 
			},
			{
				"x": -0.4210917411,
				"y": -1.1309030859,
				"z": -0.6616139096,
				"element": "C" 
			},
			{
				"x": 0.8950128642,
				"y": -0.7092557054,
				"z": -0.5393810112,
				"element": "C" 
			},
			{
				"x": 1.2104300648,
				"y": 0.3414996364,
				"z": 0.3314395722,
				"element": "C" 
			},
			{
				"x": 2.5433533997,
				"y": 0.6805990192,
				"z": 0.388321055,
				"element": "O" 
			},
			{
				"x": 2.8914245635,
				"y": 1.9453401273,
				"z": 0.8156869477,
				"element": "C" 
			},
			{
				"x": 2.7946861168,
				"y": 2.0373001959,
				"z": 2.1714821107,
				"element": "F" 
			},
			{
				"x": 4.1779037458,
				"y": 2.1176980886,
				"z": 0.4816677506,
				"element": "F" 
			},
			{
				"x": 0.2173632217,
				"y": 0.9688984488,
				"z": 1.094183679,
				"element": "C" 
			},
			{
				"x": -1.104784835,
				"y": 0.5522134124,
				"z": 0.9610782674,
				"element": "C" 
			},
			{
				"x": -0.6985630033,
				"y": -1.9381435402,
				"z": -1.3275310352,
				"element": "H" 
			},
			{
				"x": 1.6913076881,
				"y": -1.1741417449,
				"z": -1.109686422,
				"element": "H" 
			},
			{
				"x": 2.2687781417,
				"y": 2.7288687423,
				"z": 0.3677520822,
				"element": "H" 
			},
			{
				"x": 0.4714853985,
				"y": 1.745058772,
				"z": 1.8048040988,
				"element": "H" 
			},
			{
				"x": -1.899138579,
				"y": 1.0137658029,
				"z": 1.5340472989,
				"element": "H" 
			}
		],
		 "valence_orbital": [ 
			{
				"type": "occ",
				"energy": -0.31369,
				"method": "rhf"
			},
			{
				"type": "occ",
				"energy": -0.3115,
				"method": "rhf"
			},
			{
				"type": "occ",
				"energy": -0.29476,
				"method": "rhf"
			},
			{
				"type": "occ",
				"energy": -0.29168,
				"method": "rhf"
			},
			{
				"type": "occ",
				"energy": -0.27338,
				"method": "rhf"
			},
			{
				"type": "unocc",
				"energy": -0.09279,
				"method": "rhf"
			},
			{
				"type": "unocc",
				"energy": -0.04084,
				"method": "rhf"
			},
			{
				"type": "unocc",
				"energy": -0.00368,
				"method": "rhf"
			},
			{
				"type": "unocc",
				"energy": 0.0691,
				"method": "rhf"
			},
			{
				"type": "unocc",
				"energy": 0.10011,
				"method": "rhf"
			}
		],
		"cosmo_sigma_profile": { 
			"-0.025": 0.0,
			"-0.024": 0.0,
			"-0.023": 0.0,
			"-0.022": 0.0,
			"-0.021": 0.0,
			"-0.02": 0.0,
			"-0.019": 0.0,
			"-0.018": 0.0,
			"-0.017": 0.0,
			"-0.016": 0.0,
			"-0.015": 0.0,
			"-0.014": 0.0,
			"-0.013": 0.0,
			"-0.012": 0.0,
			"-0.011": 2.79785092927,
			"-0.01": 3.17173132134,
			"-0.009": 2.78635411859,
			"-0.008": 6.62786727796,
			"-0.007": 9.11049147837,
			"-0.006": 8.25541548076,
			"-0.005": 7.25362415983,
			"-0.004": 7.91806250501,
			"-0.003": 9.73267063648,
			"-0.002": 10.8492805463,
			"-0.001": 15.2836676187,
			"0.0": 20.7921857758,
			"0.001": 16.5975650915,
			"0.002": 12.362660022,
			"0.003": 22.1335601021,
			"0.004": 7.90726011834,
			"0.005": 5.3262037463,
			"0.006": 5.17631381328,
			"0.007": 7.84028894841,
			"0.008": 7.97284786343,
			"0.009": 4.46687068327,
			"0.01": 2.88260682291,
			"0.011": 0.200555890109,
			"0.012": 0.0,
			"0.013": 0.0,
			"0.014": 0.0,
			"0.015": 0.0,
			"0.016": 0.0,
			"0.017": 0.0,
			"0.018": 0.0,
			"0.019": 0.0,
			"0.02": 0.0,
			"0.021": 0.0,
			"0.022": 0.0,
			"0.023": 0.0,
			"0.024": 0.0,
			"0.025": 0.0
		}
	}
}
