{
	 "smiles": "ClC1=CC=C2C(=O)C3=CC=CC=C3C(=O)C2=C1", 
	 "Tm": 483.15, 
	 "num_atms": 24, 
	 "gaussian": { 
		 "optdone": 1, 
		 "sigma_profile": "yes", 
		 "theory": "DFT", 
		 "functional": "B3LYP", 
		 "basiset": "6-31G**", 
		 "properties": { 
			 "R2extent": 6971.1698, 
			 "electric_dipole_moment_norm": 1.94640347564, 
			 "electric_quadrupole_moment_norm": 11.3708961102, 
			 "total_energy": -1148.36763136, 
			 "HOMO_LUMO_gap": 0.15409, 
			 "cosmo_polarized_energy": -9.03, 
			 "cosmo_cavitation_energy": 30.67, 
			 "cosmo_dispersion_energy": -22.88, 
			 "cosmo_repulsion_energy": 1.7, 
			 "cosmo_total_nonelectrostatic_energy": 9.5, 
			 "SMD_solvation_energy": 5.49 
		},
		"coords": [
			{
				"x": -0.7897904863,
				"y": -5.4499377636,
				"z": -3.8282498813,
				"element": "Cl" 
			},
			{
				"x": -0.5588970118,
				"y": -3.7655828824,
				"z": -3.4048648079,
				"element": "C" 
			},
			{
				"x": -0.8959556123,
				"y": -2.7751287542,
				"z": -4.3348423171,
				"element": "C" 
			},
			{
				"x": -0.7124453258,
				"y": -1.4385762127,
				"z": -3.9979562057,
				"element": "C" 
			},
			{
				"x": -0.1973114621,
				"y": -1.0838684864,
				"z": -2.7454548421,
				"element": "C" 
			},
			{
				"x": -0.0137706653,
				"y": 0.3586754859,
				"z": -2.4177569154,
				"element": "C" 
			},
			{
				"x": -0.3055703958,
				"y": 1.2348184371,
				"z": -3.224808504,
				"element": "O" 
			},
			{
				"x": 0.5374064748,
				"y": 0.6926045268,
				"z": -1.0727682563,
				"element": "C" 
			},
			{
				"x": 0.7228268215,
				"y": 2.0370463118,
				"z": -0.7308900958,
				"element": "C" 
			},
			{
				"x": 1.2358308061,
				"y": 2.3766434204,
				"z": 0.5185021709,
				"element": "C" 
			},
			{
				"x": 1.5683057619,
				"y": 1.374586845,
				"z": 1.4378573224,
				"element": "C" 
			},
			{
				"x": 1.3872759254,
				"y": 0.0342256358,
				"z": 1.1064838082,
				"element": "C" 
			},
			{
				"x": 0.8722010373,
				"y": -0.3162762942,
				"z": -0.1470695967,
				"element": "C" 
			},
			{
				"x": 0.6893322187,
				"y": -1.7588682838,
				"z": -0.4740605566,
				"element": "C" 
			},
			{
				"x": 0.9779718796,
				"y": -2.640202405,
				"z": 0.3270883982,
				"element": "O" 
			},
			{
				"x": 0.1364587655,
				"y": -2.0926261037,
				"z": -1.8222032914,
				"element": "C" 
			},
			{
				"x": -0.0454322511,
				"y": -3.4386700977,
				"z": -2.1540779239,
				"element": "C" 
			},
			{
				"x": -1.294560285,
				"y": -3.0560638003,
				"z": -5.3033806071,
				"element": "H" 
			},
			{
				"x": -0.9633894576,
				"y": -0.6462506796,
				"z": -4.6951634119,
				"element": "H" 
			},
			{
				"x": 0.457204564,
				"y": 2.7936625545,
				"z": -1.4615127107,
				"element": "H" 
			},
			{
				"x": 1.3779765078,
				"y": 3.4212180001,
				"z": 0.7793861559,
				"element": "H" 
			},
			{
				"x": 1.9681956725,
				"y": 1.6421430981,
				"z": 2.4114362237,
				"element": "H" 
			},
			{
				"x": 1.6367277709,
				"y": -0.761687246,
				"z": 1.8001199619,
				"element": "H" 
			},
			{
				"x": 0.217708747,
				"y": -4.200085306,
				"z": -1.4291141173,
				"element": "H" 
			}
		],
		 "valence_orbital": [ 
			{
				"type": "occ",
				"energy": -0.27754,
				"method": "rhf"
			},
			{
				"type": "occ",
				"energy": -0.276,
				"method": "rhf"
			},
			{
				"type": "occ",
				"energy": -0.27285,
				"method": "rhf"
			},
			{
				"type": "occ",
				"energy": -0.26444,
				"method": "rhf"
			},
			{
				"type": "occ",
				"energy": -0.26425,
				"method": "rhf"
			},
			{
				"type": "unocc",
				"energy": -0.11016,
				"method": "rhf"
			},
			{
				"type": "unocc",
				"energy": -0.06607,
				"method": "rhf"
			},
			{
				"type": "unocc",
				"energy": -0.03189,
				"method": "rhf"
			},
			{
				"type": "unocc",
				"energy": -0.02076,
				"method": "rhf"
			},
			{
				"type": "unocc",
				"energy": 0.01958,
				"method": "rhf"
			}
		],
		"cosmo_sigma_profile": { 
			"-0.025": 0.0,
			"-0.024": 0.0,
			"-0.023": 0.0,
			"-0.022": 0.0,
			"-0.021": 0.0,
			"-0.02": 0.0,
			"-0.019": 0.0,
			"-0.018": 0.0,
			"-0.017": 0.0,
			"-0.016": 0.0,
			"-0.015": 0.0,
			"-0.014": 0.0,
			"-0.013": 0.0,
			"-0.012": 0.0,
			"-0.011": 0.0,
			"-0.01": 0.0,
			"-0.009": 0.391736679226,
			"-0.008": 2.88520575007,
			"-0.007": 9.64463348177,
			"-0.006": 14.6411432186,
			"-0.005": 15.0462587659,
			"-0.004": 13.8138168084,
			"-0.003": 14.8551144804,
			"-0.002": 16.7400343909,
			"-0.001": 22.7407941484,
			"0.0": 36.7188093378,
			"0.001": 27.2001806136,
			"0.002": 21.6680824039,
			"0.003": 12.8181211939,
			"0.004": 12.7881840515,
			"0.005": 3.15743536236,
			"0.006": 1.78466072565,
			"0.007": 3.40254864854,
			"0.008": 3.9354422269,
			"0.009": 3.39975064959,
			"0.01": 5.73551576809,
			"0.011": 6.91172787049,
			"0.012": 0.622876955991,
			"0.013": 0.0,
			"0.014": 0.0,
			"0.015": 0.0,
			"0.016": 0.0,
			"0.017": 0.0,
			"0.018": 0.0,
			"0.019": 0.0,
			"0.02": 0.0,
			"0.021": 0.0,
			"0.022": 0.0,
			"0.023": 0.0,
			"0.024": 0.0,
			"0.025": 0.0
		}
	}
}
