{
	 "smiles": "NC1=NN=C(N1)C1=CC=NC=C1", 
	 "Tm": 545.15, 
	 "num_atms": 19, 
	 "gaussian": { 
		 "optdone": 1, 
		 "sigma_profile": "yes", 
		 "theory": "DFT", 
		 "functional": "B3LYP", 
		 "basiset": "6-31G**", 
		 "properties": { 
			 "R2extent": 3031.4217, 
			 "electric_dipole_moment_norm": 5.54144660987, 
			 "electric_quadrupole_moment_norm": 25.8820406014, 
			 "total_energy": -544.699209068, 
			 "HOMO_LUMO_gap": 0.17291, 
			 "cosmo_polarized_energy": -24.74, 
			 "cosmo_cavitation_energy": 24.01, 
			 "cosmo_dispersion_energy": -18.13, 
			 "cosmo_repulsion_energy": 1.43, 
			 "cosmo_total_nonelectrostatic_energy": 7.31, 
			 "SMD_solvation_energy": 0.59 
		},
		"coords": [
			{
				"x": -0.3653423099,
				"y": -3.2009997307,
				"z": -3.7016005272,
				"element": "N" 
			},
			{
				"x": -0.2980761042,
				"y": -2.2001966408,
				"z": -2.7465667676,
				"element": "C" 
			},
			{
				"x": 0.4092883948,
				"y": -1.0924374154,
				"z": -2.8295155031,
				"element": "N" 
			},
			{
				"x": 0.1103223271,
				"y": -0.3369204093,
				"z": -1.7171622179,
				"element": "N" 
			},
			{
				"x": -0.7525507038,
				"y": -1.0027705294,
				"z": -0.9815129198,
				"element": "C" 
			},
			{
				"x": -1.0429779084,
				"y": -2.2076255394,
				"z": -1.5998521524,
				"element": "N" 
			},
			{
				"x": -1.3074138635,
				"y": -0.5568000431,
				"z": 0.2931520347,
				"element": "C" 
			},
			{
				"x": -1.0118501812,
				"y": 0.7313622306,
				"z": 0.7669076032,
				"element": "C" 
			},
			{
				"x": -1.5512614709,
				"y": 1.1388930542,
				"z": 1.9822238853,
				"element": "C" 
			},
			{
				"x": -2.3493615164,
				"y": 0.3770548398,
				"z": 2.7467281671,
				"element": "N" 
			},
			{
				"x": -2.6246626606,
				"y": -0.8491483313,
				"z": 2.2893922615,
				"element": "C" 
			},
			{
				"x": -2.1369731444,
				"y": -1.3611264513,
				"z": 1.0874991081,
				"element": "C" 
			},
			{
				"x": 0.2720765769,
				"y": -2.9969876311,
				"z": -4.4629574302,
				"element": "H" 
			},
			{
				"x": -0.2068788227,
				"y": -4.1362673397,
				"z": -3.3429388086,
				"element": "H" 
			},
			{
				"x": -1.7579943554,
				"y": -2.8735620389,
				"z": -1.3519046928,
				"element": "H" 
			},
			{
				"x": -0.3734620278,
				"y": 1.3851022904,
				"z": 0.1837719432,
				"element": "H" 
			},
			{
				"x": -1.3328592403,
				"y": 2.1341195744,
				"z": 2.364950042,
				"element": "H" 
			},
			{
				"x": -3.2699924625,
				"y": -1.4624715674,
				"z": 2.9162627739,
				"element": "H" 
			},
			{
				"x": -2.4004305267,
				"y": -2.3744183216,
				"z": 0.7973232006,
				"element": "H" 
			}
		],
		 "valence_orbital": [ 
			{
				"type": "occ",
				"energy": -0.29626,
				"method": "rhf"
			},
			{
				"type": "occ",
				"energy": -0.26683,
				"method": "rhf"
			},
			{
				"type": "occ",
				"energy": -0.26093,
				"method": "rhf"
			},
			{
				"type": "occ",
				"energy": -0.25403,
				"method": "rhf"
			},
			{
				"type": "occ",
				"energy": -0.22407,
				"method": "rhf"
			},
			{
				"type": "unocc",
				"energy": -0.05116,
				"method": "rhf"
			},
			{
				"type": "unocc",
				"energy": -0.01456,
				"method": "rhf"
			},
			{
				"type": "unocc",
				"energy": 0.03857,
				"method": "rhf"
			},
			{
				"type": "unocc",
				"energy": 0.04477,
				"method": "rhf"
			},
			{
				"type": "unocc",
				"energy": 0.06293,
				"method": "rhf"
			}
		],
		"cosmo_sigma_profile": { 
			"-0.025": 0.0,
			"-0.024": 0.0,
			"-0.023": 0.0,
			"-0.022": 0.0,
			"-0.021": 0.0,
			"-0.02": 0.0,
			"-0.019": 0.0,
			"-0.018": 0.431792337624,
			"-0.017": 1.66685715338,
			"-0.016": 1.66223147561,
			"-0.015": 1.54501802956,
			"-0.014": 4.08226734926,
			"-0.013": 4.63020559267,
			"-0.012": 3.97926626895,
			"-0.011": 3.8551288485,
			"-0.01": 3.04369492469,
			"-0.009": 2.99614237981,
			"-0.008": 2.94745315806,
			"-0.007": 5.39211234782,
			"-0.006": 10.6025573616,
			"-0.005": 8.39529661903,
			"-0.004": 7.64895083571,
			"-0.003": 6.61537083539,
			"-0.002": 7.4761808734,
			"-0.001": 10.5846301166,
			"0.0": 11.8734863834,
			"0.001": 15.0183787369,
			"0.002": 19.3233387718,
			"0.003": 6.29996892184,
			"0.004": 5.4883457366,
			"0.005": 4.36453282123,
			"0.006": 4.13834107606,
			"0.007": 3.9780728649,
			"0.008": 3.8657421639,
			"0.009": 3.20636152517,
			"0.01": 3.95091591702,
			"0.011": 3.56657032386,
			"0.012": 3.94609649384,
			"0.013": 4.21924535705,
			"0.014": 4.56614946303,
			"0.015": 3.34673655365,
			"0.016": 2.74932007458,
			"0.017": 1.2303527496,
			"0.018": 0.0,
			"0.019": 0.0,
			"0.02": 0.0,
			"0.021": 0.0,
			"0.022": 0.0,
			"0.023": 0.0,
			"0.024": 0.0,
			"0.025": 0.0
		}
	}
}
