{
	 "smiles": "ClC1=NC(OCC2=CC=CC=C2)=CC=N1", 
	 "Tm": 323.15, 
	 "num_atms": 24, 
	 "gaussian": { 
		 "optdone": 1, 
		 "sigma_profile": "yes", 
		 "theory": "DFT", 
		 "functional": "B3LYP", 
		 "basiset": "6-31G**", 
		 "properties": { 
			 "R2extent": 4500.3614, 
			 "electric_dipole_moment_norm": 3.39701800113, 
			 "electric_quadrupole_moment_norm": 12.9281728276, 
			 "total_energy": -1069.50966267, 
			 "HOMO_LUMO_gap": 0.21182, 
			 "cosmo_polarized_energy": -8.94, 
			 "cosmo_cavitation_energy": 30.79, 
			 "cosmo_dispersion_energy": -22.08, 
			 "cosmo_repulsion_energy": 1.74, 
			 "cosmo_total_nonelectrostatic_energy": 10.45, 
			 "SMD_solvation_energy": 3.39 
		},
		"coords": [
			{
				"x": 0.8144413808,
				"y": 3.7994424918,
				"z": -2.2887606981,
				"element": "Cl" 
			},
			{
				"x": 0.7691596414,
				"y": 3.2015438034,
				"z": -0.6365512708,
				"element": "C" 
			},
			{
				"x": 0.1597271009,
				"y": 2.0303218276,
				"z": -0.4765737558,
				"element": "N" 
			},
			{
				"x": 0.117615533,
				"y": 1.5647269671,
				"z": 0.7728843351,
				"element": "C" 
			},
			{
				"x": -0.4875895062,
				"y": 0.404579879,
				"z": 1.0425381919,
				"element": "O" 
			},
			{
				"x": -1.0365971058,
				"y": -0.3797866883,
				"z": -0.0583291101,
				"element": "C" 
			},
			{
				"x": -0.0044170683,
				"y": -1.2946754541,
				"z": -0.6688097656,
				"element": "C" 
			},
			{
				"x": 0.6035343171,
				"y": -0.9786212783,
				"z": -1.8902066418,
				"element": "C" 
			},
			{
				"x": 1.5577647471,
				"y": -1.8331032622,
				"z": -2.4450493376,
				"element": "C" 
			},
			{
				"x": 1.9168889122,
				"y": -3.0075925438,
				"z": -1.7816755647,
				"element": "C" 
			},
			{
				"x": 1.3176546396,
				"y": -3.3283805813,
				"z": -0.5610080701,
				"element": "C" 
			},
			{
				"x": 0.3609652163,
				"y": -2.4767283011,
				"z": -0.0103173362,
				"element": "C" 
			},
			{
				"x": 0.6856210877,
				"y": 2.2738397548,
				"z": 1.8489849833,
				"element": "C" 
			},
			{
				"x": 1.2861774408,
				"y": 3.4760754921,
				"z": 1.529920704,
				"element": "C" 
			},
			{
				"x": 1.3409474722,
				"y": 3.9669751242,
				"z": 0.2734427569,
				"element": "N" 
			},
			{
				"x": -1.8348359813,
				"y": -0.9512045564,
				"z": 0.420032123,
				"element": "H" 
			},
			{
				"x": -1.4633187294,
				"y": 0.2956593003,
				"z": -0.8006256773,
				"element": "H" 
			},
			{
				"x": 0.3338304987,
				"y": -0.0564782054,
				"z": -2.395547576,
				"element": "H" 
			},
			{
				"x": 2.0213883143,
				"y": -1.5799340821,
				"z": -3.3941194513,
				"element": "H" 
			},
			{
				"x": 2.6593602462,
				"y": -3.6722070552,
				"z": -2.2142168428,
				"element": "H" 
			},
			{
				"x": 1.5914592261,
				"y": -4.2430438788,
				"z": -0.0429781152,
				"element": "H" 
			},
			{
				"x": -0.1087415371,
				"y": -2.7291156685,
				"z": 0.9373090818,
				"element": "H" 
			},
			{
				"x": 0.6443053259,
				"y": 1.8842821188,
				"z": 2.8581087498,
				"element": "H" 
			},
			{
				"x": 1.7507588277,
				"y": 4.0889247963,
				"z": 2.2988482875,
				"element": "H" 
			}
		],
		 "valence_orbital": [ 
			{
				"type": "occ",
				"energy": -0.29834,
				"method": "rhf"
			},
			{
				"type": "occ",
				"energy": -0.27241,
				"method": "rhf"
			},
			{
				"type": "occ",
				"energy": -0.26225,
				"method": "rhf"
			},
			{
				"type": "occ",
				"energy": -0.25461,
				"method": "rhf"
			},
			{
				"type": "occ",
				"energy": -0.25251,
				"method": "rhf"
			},
			{
				"type": "unocc",
				"energy": -0.04069,
				"method": "rhf"
			},
			{
				"type": "unocc",
				"energy": -0.02723,
				"method": "rhf"
			},
			{
				"type": "unocc",
				"energy": -0.01605,
				"method": "rhf"
			},
			{
				"type": "unocc",
				"energy": -0.00541,
				"method": "rhf"
			},
			{
				"type": "unocc",
				"energy": 0.03868,
				"method": "rhf"
			}
		],
		"cosmo_sigma_profile": { 
			"-0.025": 0.0,
			"-0.024": 0.0,
			"-0.023": 0.0,
			"-0.022": 0.0,
			"-0.021": 0.0,
			"-0.02": 0.0,
			"-0.019": 0.0,
			"-0.018": 0.0,
			"-0.017": 0.0,
			"-0.016": 0.0,
			"-0.015": 0.0,
			"-0.014": 0.0,
			"-0.013": 0.0,
			"-0.012": 0.0,
			"-0.011": 0.0,
			"-0.01": 0.0,
			"-0.009": 1.15051307877,
			"-0.008": 4.53357754795,
			"-0.007": 6.33068334232,
			"-0.006": 12.9148820112,
			"-0.005": 15.3252965487,
			"-0.004": 20.3954769232,
			"-0.003": 20.7231681946,
			"-0.002": 19.2992879856,
			"-0.001": 19.1315811735,
			"0.0": 18.3029572222,
			"0.001": 15.6375920924,
			"0.002": 16.3642957446,
			"0.003": 19.5930069213,
			"0.004": 23.4267851379,
			"0.005": 16.4715737914,
			"0.006": 8.56198420916,
			"0.007": 2.97078740704,
			"0.008": 2.54880653158,
			"0.009": 1.56697616109,
			"0.01": 0.73790337606,
			"0.011": 1.31956619169,
			"0.012": 1.08425903165,
			"0.013": 0.760649759086,
			"0.014": 0.687311906755,
			"0.015": 0.124960896185,
			"0.016": 0.0,
			"0.017": 0.0,
			"0.018": 0.0,
			"0.019": 0.0,
			"0.02": 0.0,
			"0.021": 0.0,
			"0.022": 0.0,
			"0.023": 0.0,
			"0.024": 0.0,
			"0.025": 0.0
		}
	}
}
