{
	 "smiles": "CC1=NN(C(C)=C1)C1=CC=C(CO)C=C1", 
	 "Tm": 290.15, 
	 "num_atms": 29, 
	 "gaussian": { 
		 "optdone": 1, 
		 "sigma_profile": "yes", 
		 "theory": "DFT", 
		 "functional": "B3LYP", 
		 "basiset": "6-31G**", 
		 "properties": { 
			 "R2extent": 4443.2488, 
			 "electric_dipole_moment_norm": 1.0449658559, 
			 "electric_quadrupole_moment_norm": 9.03721049661, 
			 "total_energy": -650.425857748, 
			 "HOMO_LUMO_gap": 0.19857, 
			 "cosmo_polarized_energy": -11.71, 
			 "cosmo_cavitation_energy": 32.34, 
			 "cosmo_dispersion_energy": -23.46, 
			 "cosmo_repulsion_energy": 1.86, 
			 "cosmo_total_nonelectrostatic_energy": 10.74, 
			 "SMD_solvation_energy": 4.91 
		},
		"coords": [
			{
				"x": -2.2525864495,
				"y": 1.6045767163,
				"z": -4.2988278007,
				"element": "C" 
			},
			{
				"x": -1.1946513262,
				"y": 0.9919719333,
				"z": -3.4324508717,
				"element": "C" 
			},
			{
				"x": -1.203243301,
				"y": 1.1905549707,
				"z": -2.1184054449,
				"element": "N" 
			},
			{
				"x": -0.1128459942,
				"y": 0.5184701809,
				"z": -1.6419914286,
				"element": "N" 
			},
			{
				"x": 0.5760290879,
				"y": -0.1216261986,
				"z": -2.6485275543,
				"element": "C" 
			},
			{
				"x": 1.7745114772,
				"y": -0.9965176586,
				"z": -2.4481333312,
				"element": "C" 
			},
			{
				"x": -0.100981997,
				"y": 0.1753561773,
				"z": -3.8145598541,
				"element": "C" 
			},
			{
				"x": 0.1108552976,
				"y": 0.5018748799,
				"z": -0.2398833534,
				"element": "C" 
			},
			{
				"x": -0.9924361661,
				"y": 0.460366751,
				"z": 0.6223176762,
				"element": "C" 
			},
			{
				"x": -0.7945668548,
				"y": 0.4618812341,
				"z": 1.9995643364,
				"element": "C" 
			},
			{
				"x": 0.4945631231,
				"y": 0.4848047938,
				"z": 2.5471777605,
				"element": "C" 
			},
			{
				"x": 0.7064908033,
				"y": 0.4400776129,
				"z": 4.0482654317,
				"element": "C" 
			},
			{
				"x": 1.8829179214,
				"y": 1.1095462649,
				"z": 4.4797163006,
				"element": "O" 
			},
			{
				"x": 1.587375191,
				"y": 0.5358296842,
				"z": 1.6757547117,
				"element": "C" 
			},
			{
				"x": 1.4032753639,
				"y": 0.5586808775,
				"z": 0.2938350442,
				"element": "C" 
			},
			{
				"x": -2.9637730175,
				"y": 2.1578476315,
				"z": -3.6815099854,
				"element": "H" 
			},
			{
				"x": -2.8017149853,
				"y": 0.8397730904,
				"z": -4.8596039621,
				"element": "H" 
			},
			{
				"x": -1.8198506178,
				"y": 2.296302611,
				"z": -5.0304422959,
				"element": "H" 
			},
			{
				"x": 1.8805030608,
				"y": -1.6614362286,
				"z": -3.3087846932,
				"element": "H" 
			},
			{
				"x": 1.6835865079,
				"y": -1.6135402419,
				"z": -1.5492728951,
				"element": "H" 
			},
			{
				"x": 2.7052018375,
				"y": -0.423417553,
				"z": -2.3615678009,
				"element": "H" 
			},
			{
				"x": 0.1568030854,
				"y": -0.1657650289,
				"z": -4.8073175507,
				"element": "H" 
			},
			{
				"x": -1.9882975346,
				"y": 0.4480493195,
				"z": 0.1961134753,
				"element": "H" 
			},
			{
				"x": -1.6590446113,
				"y": 0.4407545086,
				"z": 2.6592446709,
				"element": "H" 
			},
			{
				"x": 0.8329854298,
				"y": -0.5978457074,
				"z": 4.3799974436,
				"element": "H" 
			},
			{
				"x": -0.1903115241,
				"y": 0.8266846641,
				"z": 4.5580036555,
				"element": "H" 
			},
			{
				"x": 1.8157189061,
				"y": 2.0287361737,
				"z": 4.1878909223,
				"element": "H" 
			},
			{
				"x": 2.5892352193,
				"y": 0.5819149197,
				"z": 2.0910870288,
				"element": "H" 
			},
			{
				"x": 2.2610520671,
				"y": 0.6462936218,
				"z": -0.3623896353,
				"element": "H" 
			}
		],
		 "valence_orbital": [ 
			{
				"type": "occ",
				"energy": -0.27748,
				"method": "rhf"
			},
			{
				"type": "occ",
				"energy": -0.26631,
				"method": "rhf"
			},
			{
				"type": "occ",
				"energy": -0.25546,
				"method": "rhf"
			},
			{
				"type": "occ",
				"energy": -0.23211,
				"method": "rhf"
			},
			{
				"type": "occ",
				"energy": -0.2166,
				"method": "rhf"
			},
			{
				"type": "unocc",
				"energy": -0.01803,
				"method": "rhf"
			},
			{
				"type": "unocc",
				"energy": -0.00775,
				"method": "rhf"
			},
			{
				"type": "unocc",
				"energy": 0.03658,
				"method": "rhf"
			},
			{
				"type": "unocc",
				"energy": 0.07214,
				"method": "rhf"
			},
			{
				"type": "unocc",
				"energy": 0.08463,
				"method": "rhf"
			}
		],
		"cosmo_sigma_profile": { 
			"-0.025": 0.0,
			"-0.024": 0.0,
			"-0.023": 0.0,
			"-0.022": 0.0,
			"-0.021": 0.0,
			"-0.02": 0.0,
			"-0.019": 0.0,
			"-0.018": 0.0,
			"-0.017": 0.0,
			"-0.016": 0.202875358252,
			"-0.015": 0.905362578152,
			"-0.014": 0.766864218162,
			"-0.013": 0.907238598312,
			"-0.012": 1.15507051381,
			"-0.011": 0.472911272749,
			"-0.01": 0.529248621743,
			"-0.009": 1.05045825775,
			"-0.008": 0.756815421999,
			"-0.007": 3.30926013471,
			"-0.006": 8.21881867983,
			"-0.005": 18.31313408,
			"-0.004": 25.4635217091,
			"-0.003": 23.9579314151,
			"-0.002": 24.5054228161,
			"-0.001": 24.6453149836,
			"0.0": 20.5187060848,
			"0.001": 15.2026287272,
			"0.002": 13.1871970037,
			"0.003": 12.55707425,
			"0.004": 15.7327558173,
			"0.005": 15.6272795069,
			"0.006": 5.85941946253,
			"0.007": 3.21947834016,
			"0.008": 3.13408910674,
			"0.009": 2.23996059167,
			"0.01": 2.869114219,
			"0.011": 2.16201387955,
			"0.012": 2.66270358993,
			"0.013": 2.43604986411,
			"0.014": 2.46684400148,
			"0.015": 0.809685140188,
			"0.016": 0.186385041589,
			"0.017": 0.0,
			"0.018": 0.0,
			"0.019": 0.0,
			"0.02": 0.0,
			"0.021": 0.0,
			"0.022": 0.0,
			"0.023": 0.0,
			"0.024": 0.0,
			"0.025": 0.0
		}
	}
}
