{
	 "smiles": "CON=C(C(O)=O)C1=CSC(NC=O)=N1", 
	 "Tm": 435.15, 
	 "num_atms": 22, 
	 "gaussian": { 
		 "optdone": 1, 
		 "sigma_profile": "yes", 
		 "theory": "DFT", 
		 "functional": "B3LYP", 
		 "basiset": "6-31G**", 
		 "properties": { 
			 "R2extent": 4721.1936, 
			 "electric_dipole_moment_norm": 6.51551921876, 
			 "electric_quadrupole_moment_norm": 19.5527887602, 
			 "total_energy": -1134.23399203, 
			 "HOMO_LUMO_gap": 0.16861, 
			 "cosmo_polarized_energy": -23.24, 
			 "cosmo_cavitation_energy": 29.86, 
			 "cosmo_dispersion_energy": -22.39, 
			 "cosmo_repulsion_energy": 1.73, 
			 "cosmo_total_nonelectrostatic_energy": 9.2, 
			 "SMD_solvation_energy": 8.08 
		},
		"coords": [
			{
				"x": -2.8629251576,
				"y": 1.7047612958,
				"z": -2.380092188,
				"element": "C" 
			},
			{
				"x": -2.0668802134,
				"y": 0.9563893978,
				"z": -1.4495491362,
				"element": "O" 
			},
			{
				"x": -1.0945511278,
				"y": 1.775596169,
				"z": -0.9360414224,
				"element": "N" 
			},
			{
				"x": -0.3084106781,
				"y": 1.20811226,
				"z": -0.0786567604,
				"element": "C" 
			},
			{
				"x": 0.747362083,
				"y": 2.206449586,
				"z": 0.4398344948,
				"element": "C" 
			},
			{
				"x": 1.6263411607,
				"y": 1.7467917981,
				"z": 1.3377973401,
				"element": "O" 
			},
			{
				"x": 0.7730976958,
				"y": 3.3473131885,
				"z": 0.0492937145,
				"element": "O" 
			},
			{
				"x": -0.3771286146,
				"y": -0.197570615,
				"z": 0.3696358428,
				"element": "C" 
			},
			{
				"x": -1.2645276702,
				"y": -1.1684116872,
				"z": -0.0198779454,
				"element": "C" 
			},
			{
				"x": -0.9369586627,
				"y": -2.6723760473,
				"z": 0.7934144486,
				"element": "S" 
			},
			{
				"x": 0.3963447709,
				"y": -1.888114535,
				"z": 1.6212886957,
				"element": "C" 
			},
			{
				"x": 1.2135708247,
				"y": -2.5271907598,
				"z": 2.5312910336,
				"element": "N" 
			},
			{
				"x": 1.1427208777,
				"y": -3.8464769534,
				"z": 2.9470521192,
				"element": "C" 
			},
			{
				"x": 1.906126376,
				"y": -4.324900396,
				"z": 3.7542696989,
				"element": "O" 
			},
			{
				"x": 0.5584204805,
				"y": -0.6366638413,
				"z": 1.3062400551,
				"element": "N" 
			},
			{
				"x": -3.3456296023,
				"y": 2.547083018,
				"z": -1.8775701353,
				"element": "H" 
			},
			{
				"x": -3.6125077554,
				"y": 1.0035837513,
				"z": -2.7509589035,
				"element": "H" 
			},
			{
				"x": -2.2437737206,
				"y": 2.0704643175,
				"z": -3.2034677895,
				"element": "H" 
			},
			{
				"x": 1.4485202488,
				"y": 0.7942061406,
				"z": 1.5331678944,
				"element": "H" 
			},
			{
				"x": -2.0761142761,
				"y": -1.0971325485,
				"z": -0.7209262563,
				"element": "H" 
			},
			{
				"x": 1.9515003698,
				"y": -1.9648432844,
				"z": 2.9429019033,
				"element": "H" 
			},
			{
				"x": 0.3222025909,
				"y": -4.4098702548,
				"z": 2.4671532961,
				"element": "H" 
			}
		],
		 "valence_orbital": [ 
			{
				"type": "occ",
				"energy": -0.30021,
				"method": "rhf"
			},
			{
				"type": "occ",
				"energy": -0.29102,
				"method": "rhf"
			},
			{
				"type": "occ",
				"energy": -0.28084,
				"method": "rhf"
			},
			{
				"type": "occ",
				"energy": -0.26016,
				"method": "rhf"
			},
			{
				"type": "occ",
				"energy": -0.24783,
				"method": "rhf"
			},
			{
				"type": "unocc",
				"energy": -0.07922,
				"method": "rhf"
			},
			{
				"type": "unocc",
				"energy": -0.05666,
				"method": "rhf"
			},
			{
				"type": "unocc",
				"energy": -0.02517,
				"method": "rhf"
			},
			{
				"type": "unocc",
				"energy": 0.00313,
				"method": "rhf"
			},
			{
				"type": "unocc",
				"energy": 0.02327,
				"method": "rhf"
			}
		],
		"cosmo_sigma_profile": { 
			"-0.025": 0.0,
			"-0.024": 0.0,
			"-0.023": 0.0,
			"-0.022": 0.0,
			"-0.021": 0.0,
			"-0.02": 0.0,
			"-0.019": 0.0,
			"-0.018": 0.0,
			"-0.017": 0.578432070048,
			"-0.016": 1.1357277945,
			"-0.015": 1.00018353694,
			"-0.014": 0.900371518515,
			"-0.013": 1.1775993973,
			"-0.012": 0.668052430126,
			"-0.011": 0.863888577775,
			"-0.01": 4.07580813902,
			"-0.009": 6.05227912743,
			"-0.008": 5.13605226277,
			"-0.007": 7.756923375,
			"-0.006": 13.1139589388,
			"-0.005": 16.5565405377,
			"-0.004": 18.0301527948,
			"-0.003": 21.5180770759,
			"-0.002": 17.82996368,
			"-0.001": 18.5844091091,
			"0.0": 16.093642319,
			"0.001": 15.5645465818,
			"0.002": 9.14673936335,
			"0.003": 5.53751561073,
			"0.004": 5.17462949187,
			"0.005": 3.40438062776,
			"0.006": 4.17410878972,
			"0.007": 4.39501866203,
			"0.008": 3.81644209636,
			"0.009": 5.4188171404,
			"0.01": 6.47146512428,
			"0.011": 11.676006416,
			"0.012": 9.22463340782,
			"0.013": 3.92668027584,
			"0.014": 1.48776631549,
			"0.015": 1.10548170491,
			"0.016": 0.829522136849,
			"0.017": 0.048898855001,
			"0.018": 0.0,
			"0.019": 0.0,
			"0.02": 0.0,
			"0.021": 0.0,
			"0.022": 0.0,
			"0.023": 0.0,
			"0.024": 0.0,
			"0.025": 0.0
		}
	}
}
