{
	 "smiles": "COC(=O)C1=CC(=CC=C1)C(N)=S", 
	 "Tm": 411.15, 
	 "num_atms": 22, 
	 "gaussian": { 
		 "optdone": 1, 
		 "sigma_profile": "yes", 
		 "theory": "DFT", 
		 "functional": "B3LYP", 
		 "basiset": "6-31G**", 
		 "properties": { 
			 "R2extent": 3439.2083, 
			 "electric_dipole_moment_norm": 3.6962208078, 
			 "electric_quadrupole_moment_norm": 21.7560398605, 
			 "total_energy": -951.78881625, 
			 "HOMO_LUMO_gap": 0.14352, 
			 "cosmo_polarized_energy": -18.36, 
			 "cosmo_cavitation_energy": 28.59, 
			 "cosmo_dispersion_energy": -21.19, 
			 "cosmo_repulsion_energy": 1.65, 
			 "cosmo_total_nonelectrostatic_energy": 9.05, 
			 "SMD_solvation_energy": 5.65 
		},
		"coords": [
			{
				"x": -2.6574901298,
				"y": -3.492856229,
				"z": 1.0720295943,
				"element": "C" 
			},
			{
				"x": -1.6872344138,
				"y": -2.461685407,
				"z": 0.8305856421,
				"element": "O" 
			},
			{
				"x": -2.0144460114,
				"y": -1.5746669032,
				"z": -0.131788468,
				"element": "C" 
			},
			{
				"x": -3.0483623453,
				"y": -1.6297816164,
				"z": -0.7691445206,
				"element": "O" 
			},
			{
				"x": -0.9677256718,
				"y": -0.5265020361,
				"z": -0.3225955739,
				"element": "C" 
			},
			{
				"x": 0.200743174,
				"y": -0.4933415943,
				"z": 0.4419882817,
				"element": "C" 
			},
			{
				"x": 1.1649667407,
				"y": 0.4994981068,
				"z": 0.2191470802,
				"element": "C" 
			},
			{
				"x": 0.9247564125,
				"y": 1.4714665799,
				"z": -0.7681149029,
				"element": "C" 
			},
			{
				"x": -0.2502882536,
				"y": 1.4466109726,
				"z": -1.520519245,
				"element": "C" 
			},
			{
				"x": -1.1940052761,
				"y": 0.4466786064,
				"z": -1.3065013278,
				"element": "C" 
			},
			{
				"x": 2.4163027548,
				"y": 0.5201488665,
				"z": 1.0304711376,
				"element": "C" 
			},
			{
				"x": 3.5012443807,
				"y": 1.0191642033,
				"z": 0.3930439338,
				"element": "N" 
			},
			{
				"x": 2.492122446,
				"y": 0.0097236668,
				"z": 2.6158070148,
				"element": "S" 
			},
			{
				"x": -2.817837253,
				"y": -4.0881916876,
				"z": 0.169672472,
				"element": "H" 
			},
			{
				"x": -3.6110622017,
				"y": -3.0576677032,
				"z": 1.3810699632,
				"element": "H" 
			},
			{
				"x": -2.239692689,
				"y": -4.1074245904,
				"z": 1.8689697253,
				"element": "H" 
			},
			{
				"x": 0.3740906778,
				"y": -1.2338745344,
				"z": 1.2127318849,
				"element": "H" 
			},
			{
				"x": 1.6375990265,
				"y": 2.2766921074,
				"z": -0.9203337658,
				"element": "H" 
			},
			{
				"x": -0.4293022002,
				"y": 2.2140258111,
				"z": -2.267395918,
				"element": "H" 
			},
			{
				"x": -2.1133130197,
				"y": 0.4014162718,
				"z": -1.8802610375,
				"element": "H" 
			},
			{
				"x": 4.3794261021,
				"y": 1.0306587049,
				"z": 0.8911955158,
				"element": "H" 
			},
			{
				"x": 3.5171077504,
				"y": 1.1231084041,
				"z": -0.6108574863,
				"element": "H" 
			}
		],
		 "valence_orbital": [ 
			{
				"type": "occ",
				"energy": -0.27789,
				"method": "rhf"
			},
			{
				"type": "occ",
				"energy": -0.27289,
				"method": "rhf"
			},
			{
				"type": "occ",
				"energy": -0.27154,
				"method": "rhf"
			},
			{
				"type": "occ",
				"energy": -0.23409,
				"method": "rhf"
			},
			{
				"type": "occ",
				"energy": -0.21136,
				"method": "rhf"
			},
			{
				"type": "unocc",
				"energy": -0.06784,
				"method": "rhf"
			},
			{
				"type": "unocc",
				"energy": -0.04764,
				"method": "rhf"
			},
			{
				"type": "unocc",
				"energy": 0.00424,
				"method": "rhf"
			},
			{
				"type": "unocc",
				"energy": 0.05625,
				"method": "rhf"
			},
			{
				"type": "unocc",
				"energy": 0.06801,
				"method": "rhf"
			}
		],
		"cosmo_sigma_profile": { 
			"-0.025": 0.0,
			"-0.024": 0.0,
			"-0.023": 0.0,
			"-0.022": 0.0,
			"-0.021": 0.0,
			"-0.02": 0.0,
			"-0.019": 0.0,
			"-0.018": 0.0,
			"-0.017": 0.0,
			"-0.016": 0.465414973019,
			"-0.015": 2.01270777259,
			"-0.014": 2.54924864291,
			"-0.013": 2.49528906498,
			"-0.012": 2.75297439437,
			"-0.011": 2.27876511065,
			"-0.01": 2.43742467158,
			"-0.009": 1.98019032882,
			"-0.008": 2.74442225975,
			"-0.007": 6.69206382759,
			"-0.006": 11.2689828582,
			"-0.005": 13.9166158404,
			"-0.004": 13.7679869026,
			"-0.003": 16.3596692938,
			"-0.002": 12.9267379869,
			"-0.001": 13.9422986269,
			"0.0": 15.2374899039,
			"0.001": 17.0975189269,
			"0.002": 18.7631322282,
			"0.003": 11.691978558,
			"0.004": 6.93787982219,
			"0.005": 7.932170039,
			"0.006": 5.53037878387,
			"0.007": 7.0184978121,
			"0.008": 8.42277363087,
			"0.009": 7.35788954581,
			"0.01": 5.59461581041,
			"0.011": 6.56805484069,
			"0.012": 4.32981881047,
			"0.013": 0.0599986154335,
			"0.014": 0.0,
			"0.015": 0.0,
			"0.016": 0.0,
			"0.017": 0.0,
			"0.018": 0.0,
			"0.019": 0.0,
			"0.02": 0.0,
			"0.021": 0.0,
			"0.022": 0.0,
			"0.023": 0.0,
			"0.024": 0.0,
			"0.025": 0.0
		}
	}
}
