{
	 "smiles": "CC1=C(C=CC=C1C(O)=O)S(N)(=O)=O", 
	 "Tm": 492.15, 
	 "num_atms": 23, 
	 "gaussian": { 
		 "optdone": 1, 
		 "sigma_profile": "yes", 
		 "theory": "DFT", 
		 "functional": "B3LYP", 
		 "basiset": "6-31G**", 
		 "properties": { 
			 "R2extent": 4030.269, 
			 "electric_dipole_moment_norm": 5.90164149453, 
			 "electric_quadrupole_moment_norm": 29.1738938567, 
			 "total_energy": -1064.04481845, 
			 "HOMO_LUMO_gap": 0.21296, 
			 "cosmo_polarized_energy": -26.68, 
			 "cosmo_cavitation_energy": 27.91, 
			 "cosmo_dispersion_energy": -21.2, 
			 "cosmo_repulsion_energy": 1.6, 
			 "cosmo_total_nonelectrostatic_energy": 8.31, 
			 "SMD_solvation_energy": 5.48 
		},
		"coords": [
			{
				"x": -0.6733600922,
				"y": -0.5312200632,
				"z": 1.250477393,
				"element": "C" 
			},
			{
				"x": 0.6681839167,
				"y": -0.3994195283,
				"z": 0.5627632722,
				"element": "C" 
			},
			{
				"x": 1.5387432761,
				"y": -1.4963614453,
				"z": 0.3952600147,
				"element": "C" 
			},
			{
				"x": 2.780555807,
				"y": -1.3802684631,
				"z": -0.2351960677,
				"element": "C" 
			},
			{
				"x": 3.1894844368,
				"y": -0.1494668872,
				"z": -0.7386303739,
				"element": "C" 
			},
			{
				"x": 2.3391280205,
				"y": 0.944502911,
				"z": -0.6261238106,
				"element": "C" 
			},
			{
				"x": 1.0905110692,
				"y": 0.8323988136,
				"z": 0.0072471129,
				"element": "C" 
			},
			{
				"x": 0.2525955288,
				"y": 2.0832478934,
				"z": 0.1085595109,
				"element": "C" 
			},
			{
				"x": 0.2558416035,
				"y": 2.8689284394,
				"z": -1.0030311606,
				"element": "O" 
			},
			{
				"x": -0.3693481445,
				"y": 2.4334414218,
				"z": 1.0822873358,
				"element": "O" 
			},
			{
				"x": 1.1474696923,
				"y": -3.1618478395,
				"z": 1.0153422301,
				"element": "S" 
			},
			{
				"x": -0.2435402017,
				"y": -3.665465516,
				"z": 0.2301454402,
				"element": "N" 
			},
			{
				"x": 2.2092093875,
				"y": -4.0425129116,
				"z": 0.5316379336,
				"element": "O" 
			},
			{
				"x": 0.8053322717,
				"y": -3.0673668617,
				"z": 2.4333340114,
				"element": "O" 
			},
			{
				"x": -0.9612165608,
				"y": 0.4136803577,
				"z": 1.7062137095,
				"element": "H" 
			},
			{
				"x": -0.6442021286,
				"y": -1.2966492616,
				"z": 2.0263895724,
				"element": "H" 
			},
			{
				"x": -1.4545088733,
				"y": -0.7925695007,
				"z": 0.5230410927,
				"element": "H" 
			},
			{
				"x": 3.4102053875,
				"y": -2.258627354,
				"z": -0.3159031337,
				"element": "H" 
			},
			{
				"x": 4.1602737993,
				"y": -0.0460011841,
				"z": -1.212274184,
				"element": "H" 
			},
			{
				"x": 2.6617829764,
				"y": 1.9119052528,
				"z": -1.0015954167,
				"element": "H" 
			},
			{
				"x": 0.682584322,
				"y": 2.4037977053,
				"z": -1.7364719187,
				"element": "H" 
			},
			{
				"x": -0.119383247,
				"y": -3.7938060189,
				"z": -0.7683856112,
				"element": "H" 
			},
			{
				"x": -1.0759422471,
				"y": -3.1449199598,
				"z": 0.4832130476,
				"element": "H" 
			}
		],
		 "valence_orbital": [ 
			{
				"type": "occ",
				"energy": -0.31463,
				"method": "rhf"
			},
			{
				"type": "occ",
				"energy": -0.30999,
				"method": "rhf"
			},
			{
				"type": "occ",
				"energy": -0.29196,
				"method": "rhf"
			},
			{
				"type": "occ",
				"energy": -0.28232,
				"method": "rhf"
			},
			{
				"type": "occ",
				"energy": -0.27824,
				"method": "rhf"
			},
			{
				"type": "unocc",
				"energy": -0.06528,
				"method": "rhf"
			},
			{
				"type": "unocc",
				"energy": -0.05466,
				"method": "rhf"
			},
			{
				"type": "unocc",
				"energy": 0.01544,
				"method": "rhf"
			},
			{
				"type": "unocc",
				"energy": 0.04308,
				"method": "rhf"
			},
			{
				"type": "unocc",
				"energy": 0.05549,
				"method": "rhf"
			}
		],
		"cosmo_sigma_profile": { 
			"-0.025": 0.0,
			"-0.024": 0.0,
			"-0.023": 0.0,
			"-0.022": 0.0,
			"-0.021": 0.0,
			"-0.02": 0.0,
			"-0.019": 0.48046133427,
			"-0.018": 0.553747702802,
			"-0.017": 0.739557334975,
			"-0.016": 1.75756664352,
			"-0.015": 2.48708928165,
			"-0.014": 2.79831308331,
			"-0.013": 4.47678822527,
			"-0.012": 4.53552110983,
			"-0.011": 3.41878544148,
			"-0.01": 3.90024225834,
			"-0.009": 3.85783913002,
			"-0.008": 5.3386035955,
			"-0.007": 9.84255549493,
			"-0.006": 10.0072276042,
			"-0.005": 9.44093500769,
			"-0.004": 8.0592626883,
			"-0.003": 8.98511096494,
			"-0.002": 11.5993690722,
			"-0.001": 13.1216197135,
			"0.0": 15.0110591505,
			"0.001": 15.9167322701,
			"0.002": 9.5466039789,
			"0.003": 4.35837916051,
			"0.004": 5.48977278209,
			"0.005": 4.95793898959,
			"0.006": 6.04096718327,
			"0.007": 7.15377033076,
			"0.008": 8.13689750997,
			"0.009": 8.0525592082,
			"0.01": 13.1747534251,
			"0.011": 14.6660510035,
			"0.012": 4.48008658394,
			"0.013": 0.366021056691,
			"0.014": 0.0,
			"0.015": 0.0,
			"0.016": 0.0,
			"0.017": 0.0,
			"0.018": 0.0,
			"0.019": 0.0,
			"0.02": 0.0,
			"0.021": 0.0,
			"0.022": 0.0,
			"0.023": 0.0,
			"0.024": 0.0,
			"0.025": 0.0
		}
	}
}
