{
	 "smiles": "COC1=CC(=CC=C1)C1=NN(CCO)C(N)=C1", 
	 "Tm": 422.15, 
	 "num_atms": 32, 
	 "gaussian": { 
		 "optdone": 1, 
		 "sigma_profile": "yes", 
		 "theory": "DFT", 
		 "functional": "B3LYP", 
		 "basiset": "6-31G**", 
		 "properties": { 
			 "R2extent": 5886.5888, 
			 "electric_dipole_moment_norm": 2.63933287025, 
			 "electric_quadrupole_moment_norm": 21.6869478519, 
			 "total_energy": -780.987738784, 
			 "HOMO_LUMO_gap": 0.18698, 
			 "cosmo_polarized_energy": -17.97, 
			 "cosmo_cavitation_energy": 35.21, 
			 "cosmo_dispersion_energy": -25.77, 
			 "cosmo_repulsion_energy": 2.01, 
			 "cosmo_total_nonelectrostatic_energy": 11.45, 
			 "SMD_solvation_energy": 5.85 
		},
		"coords": [
			{
				"x": 1.4713410761,
				"y": -4.5623904085,
				"z": 0.3943511854,
				"element": "C" 
			},
			{
				"x": 0.2437382759,
				"y": -4.8796605767,
				"z": -0.2410078057,
				"element": "O" 
			},
			{
				"x": -0.6359119642,
				"y": -3.8633128993,
				"z": -0.4884926852,
				"element": "C" 
			},
			{
				"x": -0.4102871496,
				"y": -2.5281558884,
				"z": -0.1528536577,
				"element": "C" 
			},
			{
				"x": -1.3782941718,
				"y": -1.5510709489,
				"z": -0.4497781875,
				"element": "C" 
			},
			{
				"x": -2.567145518,
				"y": -1.9316591533,
				"z": -1.0838183199,
				"element": "C" 
			},
			{
				"x": -2.783869305,
				"y": -3.2718806802,
				"z": -1.4142392294,
				"element": "C" 
			},
			{
				"x": -1.8309794257,
				"y": -4.2398361197,
				"z": -1.1226261097,
				"element": "C" 
			},
			{
				"x": -1.1240129388,
				"y": -0.1453748333,
				"z": -0.089733338,
				"element": "C" 
			},
			{
				"x": 0.0406116929,
				"y": 0.219098291,
				"z": 0.4562309247,
				"element": "N" 
			},
			{
				"x": -0.0513634927,
				"y": 1.5585444403,
				"z": 0.6576363965,
				"element": "N" 
			},
			{
				"x": 1.0936770467,
				"y": 2.2721994088,
				"z": 1.2199010112,
				"element": "C" 
			},
			{
				"x": 1.7791931736,
				"y": 3.2399681617,
				"z": 0.2441499402,
				"element": "C" 
			},
			{
				"x": 1.1168388208,
				"y": 4.4782124901,
				"z": 0.1012912789,
				"element": "O" 
			},
			{
				"x": -1.2662703622,
				"y": 2.042077852,
				"z": 0.2649304726,
				"element": "C" 
			},
			{
				"x": -1.5557857241,
				"y": 3.4232009348,
				"z": 0.3208633578,
				"element": "N" 
			},
			{
				"x": -1.9888172463,
				"y": 0.9731085801,
				"z": -0.2272021397,
				"element": "C" 
			},
			{
				"x": 2.0133313986,
				"y": -5.5047855132,
				"z": 0.4906416319,
				"element": "H" 
			},
			{
				"x": 1.3132565148,
				"y": -4.1330024537,
				"z": 1.3921371352,
				"element": "H" 
			},
			{
				"x": 2.0684879264,
				"y": -3.8613660826,
				"z": -0.2029750675,
				"element": "H" 
			},
			{
				"x": 0.5009769457,
				"y": -2.2112140009,
				"z": 0.3372306246,
				"element": "H" 
			},
			{
				"x": -3.3209613831,
				"y": -1.1895517271,
				"z": -1.3254338345,
				"element": "H" 
			},
			{
				"x": -3.7077656582,
				"y": -3.5622402516,
				"z": -1.9066185269,
				"element": "H" 
			},
			{
				"x": -1.9825981957,
				"y": -5.2847392652,
				"z": -1.372176817,
				"element": "H" 
			},
			{
				"x": 0.7881080359,
				"y": 2.824396714,
				"z": 2.1173565389,
				"element": "H" 
			},
			{
				"x": 1.7868323428,
				"y": 1.4849673429,
				"z": 1.5229897334,
				"element": "H" 
			},
			{
				"x": 1.9205077815,
				"y": 2.7229185714,
				"z": -0.7188595761,
				"element": "H" 
			},
			{
				"x": 2.7750357496,
				"y": 3.4669430493,
				"z": 0.642261331,
				"element": "H" 
			},
			{
				"x": 0.1944178785,
				"y": 4.2934733994,
				"z": -0.1527149317,
				"element": "H" 
			},
			{
				"x": -1.586479191,
				"y": 3.7824237164,
				"z": 1.2728455508,
				"element": "H" 
			},
			{
				"x": -2.4432797816,
				"y": 3.6219667768,
				"z": -0.1272942722,
				"element": "H" 
			},
			{
				"x": -2.9973331519,
				"y": 1.0021410737,
				"z": -0.6114926147,
				"element": "H" 
			}
		],
		 "valence_orbital": [ 
			{
				"type": "occ",
				"energy": -0.27139,
				"method": "rhf"
			},
			{
				"type": "occ",
				"energy": -0.25678,
				"method": "rhf"
			},
			{
				"type": "occ",
				"energy": -0.2336,
				"method": "rhf"
			},
			{
				"type": "occ",
				"energy": -0.21761,
				"method": "rhf"
			},
			{
				"type": "occ",
				"energy": -0.20271,
				"method": "rhf"
			},
			{
				"type": "unocc",
				"energy": -0.01573,
				"method": "rhf"
			},
			{
				"type": "unocc",
				"energy": 0.01942,
				"method": "rhf"
			},
			{
				"type": "unocc",
				"energy": 0.03525,
				"method": "rhf"
			},
			{
				"type": "unocc",
				"energy": 0.05314,
				"method": "rhf"
			},
			{
				"type": "unocc",
				"energy": 0.09659,
				"method": "rhf"
			}
		],
		"cosmo_sigma_profile": { 
			"-0.025": 0.0,
			"-0.024": 0.0,
			"-0.023": 0.0,
			"-0.022": 0.0,
			"-0.021": 0.0,
			"-0.02": 0.0,
			"-0.019": 0.0,
			"-0.018": 0.0,
			"-0.017": 0.0,
			"-0.016": 0.0,
			"-0.015": 0.0,
			"-0.014": 0.592998483221,
			"-0.013": 2.86454105125,
			"-0.012": 3.54271441747,
			"-0.011": 3.49786743028,
			"-0.01": 2.74548790107,
			"-0.009": 2.82191332051,
			"-0.008": 2.46658637339,
			"-0.007": 5.16693795188,
			"-0.006": 11.7380403648,
			"-0.005": 23.228541435,
			"-0.004": 24.299745322,
			"-0.003": 27.7320720064,
			"-0.002": 19.3517617542,
			"-0.001": 15.1235817136,
			"0.0": 11.4117323555,
			"0.001": 11.2553479852,
			"0.002": 11.7109940784,
			"0.003": 13.094698765,
			"0.004": 20.0950184207,
			"0.005": 22.1752825927,
			"0.006": 14.4602086555,
			"0.007": 4.41950696779,
			"0.008": 4.78585971861,
			"0.009": 3.76833607391,
			"0.01": 4.40095762661,
			"0.011": 3.25277055678,
			"0.012": 2.36770732749,
			"0.013": 1.69249618722,
			"0.014": 2.23300296644,
			"0.015": 2.16501674607,
			"0.016": 0.160667960079,
			"0.017": 0.0,
			"0.018": 0.0,
			"0.019": 0.0,
			"0.02": 0.0,
			"0.021": 0.0,
			"0.022": 0.0,
			"0.023": 0.0,
			"0.024": 0.0,
			"0.025": 0.0
		}
	}
}
