{
	 "smiles": "BrC1=CC2=C(NC=C(C#N)C2=O)C=C1", 
	 "Tm": 633.15, 
	 "num_atms": 19, 
	 "gaussian": { 
		 "optdone": 1, 
		 "sigma_profile": "yes", 
		 "theory": "DFT", 
		 "functional": "B3LYP", 
		 "basiset": "6-31G**", 
		 "properties": { 
			 "R2extent": 5546.5946, 
			 "electric_dipole_moment_norm": 9.02934988302, 
			 "electric_quadrupole_moment_norm": 37.3227991836, 
			 "total_energy": -3140.19844313, 
			 "HOMO_LUMO_gap": 0.16588, 
			 "cosmo_polarized_energy": -26.86, 
			 "cosmo_cavitation_energy": 27.56, 
			 "cosmo_dispersion_energy": -20.28, 
			 "cosmo_repulsion_energy": 1.57, 
			 "cosmo_total_nonelectrostatic_energy": 8.85, 
			 "SMD_solvation_energy": 5.45 
		},
		"coords": [
			{
				"x": -2.7172414866,
				"y": -1.2222278423,
				"z": 0.9159996255,
				"element": "Br" 
			},
			{
				"x": -0.9149221695,
				"y": -0.6902428843,
				"z": 0.5921687785,
				"element": "C" 
			},
			{
				"x": 0.1302893997,
				"y": -1.517002036,
				"z": 0.9652618282,
				"element": "C" 
			},
			{
				"x": 1.4553478762,
				"y": -1.1216296137,
				"z": 0.7250887023,
				"element": "C" 
			},
			{
				"x": 1.7004486573,
				"y": 0.1188647476,
				"z": 0.1039405187,
				"element": "C" 
			},
			{
				"x": 3.0158947356,
				"y": 0.5030256634,
				"z": -0.1305169475,
				"element": "N" 
			},
			{
				"x": 4.0705418155,
				"y": -0.2750153649,
				"z": 0.2181274361,
				"element": "C" 
			},
			{
				"x": 3.9118235555,
				"y": -1.494079293,
				"z": 0.8256483255,
				"element": "C" 
			},
			{
				"x": 5.0658970156,
				"y": -2.260857842,
				"z": 1.1651400792,
				"element": "C" 
			},
			{
				"x": 6.0216481064,
				"y": -2.8680485353,
				"z": 1.4325526509,
				"element": "N" 
			},
			{
				"x": 2.5681105547,
				"y": -2.021344029,
				"z": 1.1318364194,
				"element": "C" 
			},
			{
				"x": 2.3738717578,
				"y": -3.1041322987,
				"z": 1.6734314764,
				"element": "O" 
			},
			{
				"x": 0.6314307736,
				"y": 0.9498850012,
				"z": -0.2704475998,
				"element": "C" 
			},
			{
				"x": -0.6715726932,
				"y": 0.5462450778,
				"z": -0.0269294085,
				"element": "C" 
			},
			{
				"x": -0.0333808456,
				"y": -2.475333982,
				"z": 1.4442605772,
				"element": "H" 
			},
			{
				"x": 3.1886033408,
				"y": 1.3925812637,
				"z": -0.5752664096,
				"element": "H" 
			},
			{
				"x": 5.0521361973,
				"y": 0.1236786233,
				"z": -0.0120750555,
				"element": "H" 
			},
			{
				"x": 0.8245513454,
				"y": 1.9061714521,
				"z": -0.7494310637,
				"element": "H" 
			},
			{
				"x": -1.5020779365,
				"y": 1.181361892,
				"z": -0.3125899333,
				"element": "H" 
			}
		],
		 "valence_orbital": [ 
			{
				"type": "occ",
				"energy": -0.30051,
				"method": "rhf"
			},
			{
				"type": "occ",
				"energy": -0.28686,
				"method": "rhf"
			},
			{
				"type": "occ",
				"energy": -0.27466,
				"method": "rhf"
			},
			{
				"type": "occ",
				"energy": -0.25816,
				"method": "rhf"
			},
			{
				"type": "occ",
				"energy": -0.23866,
				"method": "rhf"
			},
			{
				"type": "unocc",
				"energy": -0.07278,
				"method": "rhf"
			},
			{
				"type": "unocc",
				"energy": -0.05962,
				"method": "rhf"
			},
			{
				"type": "unocc",
				"energy": -0.01736,
				"method": "rhf"
			},
			{
				"type": "unocc",
				"energy": -0.00723,
				"method": "rhf"
			},
			{
				"type": "unocc",
				"energy": 0.02382,
				"method": "rhf"
			}
		],
		"cosmo_sigma_profile": { 
			"-0.025": 0.0,
			"-0.024": 0.0,
			"-0.023": 0.0,
			"-0.022": 0.0,
			"-0.021": 0.0,
			"-0.02": 0.0,
			"-0.019": 0.203463726519,
			"-0.018": 2.36111790072,
			"-0.017": 2.20209160057,
			"-0.016": 1.27732056344,
			"-0.015": 1.66222929778,
			"-0.014": 1.95055433568,
			"-0.013": 1.32191715741,
			"-0.012": 2.9551753216,
			"-0.011": 2.94127849202,
			"-0.01": 2.82149105865,
			"-0.009": 3.8368967139,
			"-0.008": 6.13768555571,
			"-0.007": 5.0899377293,
			"-0.006": 6.3143820525,
			"-0.005": 6.39604311542,
			"-0.004": 10.6951781833,
			"-0.003": 12.2886486662,
			"-0.002": 14.911965428,
			"-0.001": 16.4171138771,
			"0.0": 18.0351210015,
			"0.001": 22.1955541963,
			"0.002": 11.236500213,
			"0.003": 11.2813710191,
			"0.004": 14.3879139694,
			"0.005": 5.24476170776,
			"0.006": 4.31043587878,
			"0.007": 4.51850754975,
			"0.008": 5.42470118321,
			"0.009": 5.52437967994,
			"0.01": 5.30168321536,
			"0.011": 5.26707218996,
			"0.012": 5.78443922383,
			"0.013": 6.19469273699,
			"0.014": 0.550690878376,
			"0.015": 0.0,
			"0.016": 0.0,
			"0.017": 0.0,
			"0.018": 0.0,
			"0.019": 0.0,
			"0.02": 0.0,
			"0.021": 0.0,
			"0.022": 0.0,
			"0.023": 0.0,
			"0.024": 0.0,
			"0.025": 0.0
		}
	}
}
