{
	 "smiles": "NC1=C(C=CC=C1)C1=NN=NN1C1CC1", 
	 "Tm": 371.15, 
	 "num_atms": 26, 
	 "gaussian": { 
		 "optdone": 1, 
		 "sigma_profile": "yes", 
		 "theory": "DFT", 
		 "functional": "B3LYP", 
		 "basiset": "6-31G**", 
		 "properties": { 
			 "R2extent": 3454.6981, 
			 "electric_dipole_moment_norm": 4.42389645788, 
			 "electric_quadrupole_moment_norm": 14.8977914202, 
			 "total_energy": -661.37723486, 
			 "HOMO_LUMO_gap": 0.16324, 
			 "cosmo_polarized_energy": -14.29, 
			 "cosmo_cavitation_energy": 29.22, 
			 "cosmo_dispersion_energy": -21.47, 
			 "cosmo_repulsion_energy": 1.67, 
			 "cosmo_total_nonelectrostatic_energy": 9.43, 
			 "SMD_solvation_energy": 2.65 
		},
		"coords": [
			{
				"x": 1.850570217,
				"y": -1.1068301372,
				"z": -1.2855548201,
				"element": "N" 
			},
			{
				"x": 2.1248497951,
				"y": 0.1275416934,
				"z": -0.7592199391,
				"element": "C" 
			},
			{
				"x": 1.0921916412,
				"y": 1.0323977341,
				"z": -0.3571026966,
				"element": "C" 
			},
			{
				"x": 1.4576265236,
				"y": 2.2831726691,
				"z": 0.1774705868,
				"element": "C" 
			},
			{
				"x": 2.7835147484,
				"y": 2.6526301552,
				"z": 0.3529236234,
				"element": "C" 
			},
			{
				"x": 3.790834607,
				"y": 1.7518740518,
				"z": -0.014009705,
				"element": "C" 
			},
			{
				"x": 3.467436069,
				"y": 0.5202813186,
				"z": -0.5588183467,
				"element": "C" 
			},
			{
				"x": -0.3118443577,
				"y": 0.6600561035,
				"z": -0.5329328728,
				"element": "C" 
			},
			{
				"x": -0.7520159603,
				"y": -0.2813445656,
				"z": -1.3689492599,
				"element": "N" 
			},
			{
				"x": -2.0984910697,
				"y": -0.3310212755,
				"z": -1.2490845031,
				"element": "N" 
			},
			{
				"x": -2.5147955891,
				"y": 0.5267810605,
				"z": -0.3855121704,
				"element": "N" 
			},
			{
				"x": -1.4123927996,
				"y": 1.1672459267,
				"z": 0.0998346151,
				"element": "N" 
			},
			{
				"x": -1.5693637022,
				"y": 2.1650441942,
				"z": 1.126458511,
				"element": "C" 
			},
			{
				"x": -2.4787649561,
				"y": 1.8450240647,
				"z": 2.2811640425,
				"element": "C" 
			},
			{
				"x": -0.989904033,
				"y": 1.9019976762,
				"z": 2.4953413186,
				"element": "C" 
			},
			{
				"x": 0.917096123,
				"y": -1.2580454563,
				"z": -1.6552980437,
				"element": "H" 
			},
			{
				"x": 2.6122902282,
				"y": -1.6053983069,
				"z": -1.7173253985,
				"element": "H" 
			},
			{
				"x": 0.6804905115,
				"y": 2.9883050653,
				"z": 0.4432517504,
				"element": "H" 
			},
			{
				"x": 3.0306033921,
				"y": 3.6267815084,
				"z": 0.7612219166,
				"element": "H" 
			},
			{
				"x": 4.8359345262,
				"y": 2.0187575653,
				"z": 0.1165107837,
				"element": "H" 
			},
			{
				"x": 4.2548174157,
				"y": -0.1700047832,
				"z": -0.8510389168,
				"element": "H" 
			},
			{
				"x": -1.5684585058,
				"y": 3.1835665172,
				"z": 0.7478575247,
				"element": "H" 
			},
			{
				"x": -3.0956748774,
				"y": 2.6536117511,
				"z": 2.6587917166,
				"element": "H" 
			},
			{
				"x": -2.9593747163,
				"y": 0.8736300496,
				"z": 2.2709300823,
				"element": "H" 
			},
			{
				"x": -0.4600606139,
				"y": 0.9657659967,
				"z": 2.6354327307,
				"element": "H" 
			},
			{
				"x": -0.561814617,
				"y": 2.7469794231,
				"z": 3.02485747,
				"element": "H" 
			}
		],
		 "valence_orbital": [ 
			{
				"type": "occ",
				"energy": -0.29836,
				"method": "rhf"
			},
			{
				"type": "occ",
				"energy": -0.2891,
				"method": "rhf"
			},
			{
				"type": "occ",
				"energy": -0.276,
				"method": "rhf"
			},
			{
				"type": "occ",
				"energy": -0.24777,
				"method": "rhf"
			},
			{
				"type": "occ",
				"energy": -0.20336,
				"method": "rhf"
			},
			{
				"type": "unocc",
				"energy": -0.04012,
				"method": "rhf"
			},
			{
				"type": "unocc",
				"energy": 0.00532,
				"method": "rhf"
			},
			{
				"type": "unocc",
				"energy": 0.00836,
				"method": "rhf"
			},
			{
				"type": "unocc",
				"energy": 0.05225,
				"method": "rhf"
			},
			{
				"type": "unocc",
				"energy": 0.07556,
				"method": "rhf"
			}
		],
		"cosmo_sigma_profile": { 
			"-0.025": 0.0,
			"-0.024": 0.0,
			"-0.023": 0.0,
			"-0.022": 0.0,
			"-0.021": 0.0,
			"-0.02": 0.0,
			"-0.019": 0.0,
			"-0.018": 0.0,
			"-0.017": 0.0,
			"-0.016": 0.0,
			"-0.015": 0.0,
			"-0.014": 0.0023364588559,
			"-0.013": 1.11268346917,
			"-0.012": 1.10974281886,
			"-0.011": 1.47111455682,
			"-0.01": 1.78398654463,
			"-0.009": 2.06737293481,
			"-0.008": 5.76019729538,
			"-0.007": 7.45570029684,
			"-0.006": 17.0414366623,
			"-0.005": 17.2383241829,
			"-0.004": 18.0148952144,
			"-0.003": 15.8520076342,
			"-0.002": 15.9077089849,
			"-0.001": 11.4407153332,
			"0.0": 12.9301741587,
			"0.001": 11.5583078935,
			"0.002": 14.3036780763,
			"0.003": 14.6878653338,
			"0.004": 13.5779662756,
			"0.005": 11.7390325409,
			"0.006": 8.80692201732,
			"0.007": 5.48619132933,
			"0.008": 4.72005294067,
			"0.009": 6.66415325586,
			"0.01": 5.03401568897,
			"0.011": 3.56105306856,
			"0.012": 2.05214548053,
			"0.013": 1.38674213761,
			"0.014": 0.750594789018,
			"0.015": 0.0323651181061,
			"0.016": 0.0,
			"0.017": 0.0,
			"0.018": 0.0,
			"0.019": 0.0,
			"0.02": 0.0,
			"0.021": 0.0,
			"0.022": 0.0,
			"0.023": 0.0,
			"0.024": 0.0,
			"0.025": 0.0
		}
	}
}
