{
	 "smiles": "OCCO", 
	 "Tm": 260.15, 
	 "num_atms": 10, 
	 "gaussian": { 
		 "optdone": 1, 
		 "sigma_profile": "yes", 
		 "theory": "DFT", 
		 "functional": "B3LYP", 
		 "basiset": "6-31G**", 
		 "properties": { 
			 "R2extent": 406.7703, 
			 "electric_dipole_moment_norm": 2.22444964205, 
			 "electric_quadrupole_moment_norm": 5.48254537875, 
			 "total_energy": -230.248397001, 
			 "HOMO_LUMO_gap": 0.33231, 
			 "cosmo_polarized_energy": -10.14, 
			 "cosmo_cavitation_energy": 13.11, 
			 "cosmo_dispersion_energy": -10.05, 
			 "cosmo_repulsion_energy": 0.96, 
			 "cosmo_total_nonelectrostatic_energy": 4.02, 
			 "SMD_solvation_energy": 2.63 
		},
		"coords": [
			{
				"x": -0.9577612184,
				"y": -1.3149516268,
				"z": -0.7357704702,
				"element": "O" 
			},
			{
				"x": -0.3975932809,
				"y": -0.2714928156,
				"z": 0.0471977463,
				"element": "C" 
			},
			{
				"x": 0.8369478098,
				"y": -0.8352574596,
				"z": 0.7459748448,
				"element": "C" 
			},
			{
				"x": 1.477178796,
				"y": 0.1405749507,
				"z": 1.5542166367,
				"element": "O" 
			},
			{
				"x": -1.6991240643,
				"y": -0.9544516012,
				"z": -1.2363471683,
				"element": "H" 
			},
			{
				"x": -1.1104538976,
				"y": 0.0939604394,
				"z": 0.8080146172,
				"element": "H" 
			},
			{
				"x": -0.0972237089,
				"y": 0.5938567116,
				"z": -0.5627837933,
				"element": "H" 
			},
			{
				"x": 0.5518907912,
				"y": -1.7313145644,
				"z": 1.317337285,
				"element": "H" 
			},
			{
				"x": 1.5671374304,
				"y": -1.1463484981,
				"z": -0.0067472603,
				"element": "H" 
			},
			{
				"x": 0.9037013427,
				"y": 0.322924464,
				"z": 2.3095075619,
				"element": "H" 
			}
		],
		 "valence_orbital": [ 
			{
				"type": "occ",
				"energy": -0.39362,
				"method": "rhf"
			},
			{
				"type": "occ",
				"energy": -0.34513,
				"method": "rhf"
			},
			{
				"type": "occ",
				"energy": -0.3236,
				"method": "rhf"
			},
			{
				"type": "occ",
				"energy": -0.27117,
				"method": "rhf"
			},
			{
				"type": "occ",
				"energy": -0.26782,
				"method": "rhf"
			},
			{
				"type": "unocc",
				"energy": 0.06449,
				"method": "rhf"
			},
			{
				"type": "unocc",
				"energy": 0.07902,
				"method": "rhf"
			},
			{
				"type": "unocc",
				"energy": 0.1394,
				"method": "rhf"
			},
			{
				"type": "unocc",
				"energy": 0.15366,
				"method": "rhf"
			},
			{
				"type": "unocc",
				"energy": 0.15758,
				"method": "rhf"
			}
		],
		"cosmo_sigma_profile": { 
			"-0.025": 0.0,
			"-0.024": 0.0,
			"-0.023": 0.0,
			"-0.022": 0.0,
			"-0.021": 0.0,
			"-0.02": 0.0,
			"-0.019": 0.0,
			"-0.018": 0.0,
			"-0.017": 0.0,
			"-0.016": 0.956795655115,
			"-0.015": 2.11021934966,
			"-0.014": 1.8363579984,
			"-0.013": 1.81197744526,
			"-0.012": 2.05282851987,
			"-0.011": 1.5176913722,
			"-0.01": 1.79892926409,
			"-0.009": 1.8481020557,
			"-0.008": 1.53248986473,
			"-0.007": 2.27551930177,
			"-0.006": 2.36872822155,
			"-0.005": 2.71822326435,
			"-0.004": 7.15823361789,
			"-0.003": 10.7090047586,
			"-0.002": 8.28639599421,
			"-0.001": 8.13693608021,
			"0.0": 4.17734076633,
			"0.001": 3.27697416515,
			"0.002": 2.97017422256,
			"0.003": 2.683729464,
			"0.004": 2.70893266837,
			"0.005": 2.5556876231,
			"0.006": 2.43068284585,
			"0.007": 2.09109314162,
			"0.008": 2.81630041048,
			"0.009": 1.8371508801,
			"0.01": 1.94497387525,
			"0.011": 3.32215596306,
			"0.012": 2.98865151096,
			"0.013": 3.14393854595,
			"0.014": 4.23689312732,
			"0.015": 0.73594990927,
			"0.016": 0.0,
			"0.017": 0.0,
			"0.018": 0.0,
			"0.019": 0.0,
			"0.02": 0.0,
			"0.021": 0.0,
			"0.022": 0.0,
			"0.023": 0.0,
			"0.024": 0.0,
			"0.025": 0.0
		}
	}
}
