{
	 "smiles": "COC1=C(N)C=C(C=C1)S(=O)(=O)NC1=CN=CC=C1", 
	 "Tm": 427.15, 
	 "num_atms": 32, 
	 "gaussian": { 
		 "optdone": 1, 
		 "sigma_profile": "yes", 
		 "theory": "DFT", 
		 "functional": "B3LYP", 
		 "basiset": "6-31G**", 
		 "properties": { 
			 "R2extent": 7872.4848, 
			 "electric_dipole_moment_norm": 7.81265624356, 
			 "electric_quadrupole_moment_norm": 37.4906174089, 
			 "total_energy": -1253.1388693, 
			 "HOMO_LUMO_gap": 0.17958, 
			 "cosmo_polarized_energy": -23.39, 
			 "cosmo_cavitation_energy": 37.71, 
			 "cosmo_dispersion_energy": -26.86, 
			 "cosmo_repulsion_energy": 2.04, 
			 "cosmo_total_nonelectrostatic_energy": 12.89, 
			 "SMD_solvation_energy": 4.8 
		},
		"coords": [
			{
				"x": 1.5703083325,
				"y": 2.3593373592,
				"z": 3.1301297608,
				"element": "C" 
			},
			{
				"x": 1.3530842597,
				"y": 0.9669730834,
				"z": 3.3144209334,
				"element": "O" 
			},
			{
				"x": 0.2190109428,
				"y": 0.4107317503,
				"z": 2.7938906878,
				"element": "C" 
			},
			{
				"x": 0.0813744157,
				"y": -0.9786205083,
				"z": 3.0593465694,
				"element": "C" 
			},
			{
				"x": 1.0947933941,
				"y": -1.6396645341,
				"z": 3.7407782869,
				"element": "N" 
			},
			{
				"x": -1.0531914253,
				"y": -1.6345538229,
				"z": 2.581513416,
				"element": "C" 
			},
			{
				"x": -2.02216219,
				"y": -0.9245702405,
				"z": 1.861854102,
				"element": "C" 
			},
			{
				"x": -1.8913050639,
				"y": 0.4361773182,
				"z": 1.6031710601,
				"element": "C" 
			},
			{
				"x": -0.756726599,
				"y": 1.1018951183,
				"z": 2.0796016957,
				"element": "C" 
			},
			{
				"x": -3.4364981602,
				"y": -1.8115845887,
				"z": 1.2259766608,
				"element": "S" 
			},
			{
				"x": -3.6066194672,
				"y": -3.0378156377,
				"z": 2.0071925132,
				"element": "O" 
			},
			{
				"x": -4.5188068831,
				"y": -0.8506785151,
				"z": 1.0211436332,
				"element": "O" 
			},
			{
				"x": -2.9940545574,
				"y": -2.3931909106,
				"z": -0.3206605107,
				"element": "N" 
			},
			{
				"x": -2.5947092103,
				"y": -1.5452786356,
				"z": -1.3830408739,
				"element": "C" 
			},
			{
				"x": -3.4288565472,
				"y": -0.5113734871,
				"z": -1.8448355651,
				"element": "C" 
			},
			{
				"x": -3.1017414493,
				"y": 0.2894449902,
				"z": -2.8623838246,
				"element": "N" 
			},
			{
				"x": -1.9376857429,
				"y": 0.0738540422,
				"z": -3.4881481973,
				"element": "C" 
			},
			{
				"x": -1.0506736183,
				"y": -0.9384936367,
				"z": -3.1222480208,
				"element": "C" 
			},
			{
				"x": -1.3783438517,
				"y": -1.7534478414,
				"z": -2.0422133185,
				"element": "C" 
			},
			{
				"x": 0.770767724,
				"y": 2.9539071738,
				"z": 3.5889543702,
				"element": "H" 
			},
			{
				"x": 1.645804452,
				"y": 2.6141321326,
				"z": 2.0660865904,
				"element": "H" 
			},
			{
				"x": 2.5169708907,
				"y": 2.5847068351,
				"z": 3.6227857453,
				"element": "H" 
			},
			{
				"x": 0.8160606576,
				"y": -2.4785706559,
				"z": 4.2291177112,
				"element": "H" 
			},
			{
				"x": 1.6948825254,
				"y": -1.0357245225,
				"z": 4.284718285,
				"element": "H" 
			},
			{
				"x": -1.200533977,
				"y": -2.689579253,
				"z": 2.7893066015,
				"element": "H" 
			},
			{
				"x": -2.6636372088,
				"y": 0.9719897539,
				"z": 1.0654488828,
				"element": "H" 
			},
			{
				"x": -0.6505877188,
				"y": 2.1640673898,
				"z": 1.8948093325,
				"element": "H" 
			},
			{
				"x": -2.4303486888,
				"y": -3.2302330564,
				"z": -0.2081003605,
				"element": "H" 
			},
			{
				"x": -4.3850946041,
				"y": -0.3372688727,
				"z": -1.3611679045,
				"element": "H" 
			},
			{
				"x": -1.7088719616,
				"y": 0.7347186533,
				"z": -4.3219042389,
				"element": "H" 
			},
			{
				"x": -0.1192767589,
				"y": -1.0787494509,
				"z": -3.6619307334,
				"element": "H" 
			},
			{
				"x": -0.7053319105,
				"y": -2.5418374301,
				"z": -1.71381329,
				"element": "H" 
			}
		],
		 "valence_orbital": [ 
			{
				"type": "occ",
				"energy": -0.2839,
				"method": "rhf"
			},
			{
				"type": "occ",
				"energy": -0.25636,
				"method": "rhf"
			},
			{
				"type": "occ",
				"energy": -0.25381,
				"method": "rhf"
			},
			{
				"type": "occ",
				"energy": -0.23532,
				"method": "rhf"
			},
			{
				"type": "occ",
				"energy": -0.21212,
				"method": "rhf"
			},
			{
				"type": "unocc",
				"energy": -0.03254,
				"method": "rhf"
			},
			{
				"type": "unocc",
				"energy": -0.02491,
				"method": "rhf"
			},
			{
				"type": "unocc",
				"energy": -0.01245,
				"method": "rhf"
			},
			{
				"type": "unocc",
				"energy": -0.00398,
				"method": "rhf"
			},
			{
				"type": "unocc",
				"energy": 0.06159,
				"method": "rhf"
			}
		],
		"cosmo_sigma_profile": { 
			"-0.025": 0.0,
			"-0.024": 0.0,
			"-0.023": 0.0,
			"-0.022": 0.0,
			"-0.021": 0.0,
			"-0.02": 0.0,
			"-0.019": 0.0,
			"-0.018": 0.0,
			"-0.017": 0.0,
			"-0.016": 0.482153228092,
			"-0.015": 1.25602033999,
			"-0.014": 1.37113310521,
			"-0.013": 2.31992716469,
			"-0.012": 2.50353106492,
			"-0.011": 3.59433648526,
			"-0.01": 4.28582680507,
			"-0.009": 4.44843325883,
			"-0.008": 5.56906624387,
			"-0.007": 10.0999709947,
			"-0.006": 19.5575150881,
			"-0.005": 21.6673315975,
			"-0.004": 18.7283829627,
			"-0.003": 17.0834553716,
			"-0.002": 14.0596929075,
			"-0.001": 13.0774918344,
			"0.0": 16.1674202822,
			"0.001": 20.7795797154,
			"0.002": 25.1411560063,
			"0.003": 22.7502584485,
			"0.004": 15.1873674837,
			"0.005": 8.80620014439,
			"0.006": 6.48404623604,
			"0.007": 7.60640162429,
			"0.008": 6.63614026663,
			"0.009": 5.87021968059,
			"0.01": 9.29494457411,
			"0.011": 8.56625331821,
			"0.012": 2.66130861226,
			"0.013": 2.50832491335,
			"0.014": 0.822504847728,
			"0.015": 0.519953291539,
			"0.016": 1.03887224068,
			"0.017": 0.17692628758,
			"0.018": 0.0,
			"0.019": 0.0,
			"0.02": 0.0,
			"0.021": 0.0,
			"0.022": 0.0,
			"0.023": 0.0,
			"0.024": 0.0,
			"0.025": 0.0
		}
	}
}
