{
	 "smiles": "COC1=C(F)C=C(C=C1)C(=O)C1=C(C=CC=C1)C(O)=O", 
	 "Tm": 421.15, 
	 "num_atms": 31, 
	 "gaussian": { 
		 "optdone": 1, 
		 "sigma_profile": "yes", 
		 "theory": "DFT", 
		 "functional": "B3LYP", 
		 "basiset": "6-31G**", 
		 "properties": { 
			 "R2extent": 6284.1333, 
			 "electric_dipole_moment_norm": 4.19007242539, 
			 "electric_quadrupole_moment_norm": 15.2634197715, 
			 "total_energy": -978.951442382, 
			 "HOMO_LUMO_gap": 0.1689, 
			 "cosmo_polarized_energy": -17.23, 
			 "cosmo_cavitation_energy": 36.84, 
			 "cosmo_dispersion_energy": -25.54, 
			 "cosmo_repulsion_energy": 1.94, 
			 "cosmo_total_nonelectrostatic_energy": 13.24, 
			 "SMD_solvation_energy": 9.24 
		},
		"coords": [
			{
				"x": 2.2839254469,
				"y": -1.2599854196,
				"z": -4.0998374039,
				"element": "C" 
			},
			{
				"x": 2.8647399144,
				"y": -1.3608032951,
				"z": -2.8056650578,
				"element": "O" 
			},
			{
				"x": 2.1190752857,
				"y": -0.9845326305,
				"z": -1.7407930778,
				"element": "C" 
			},
			{
				"x": 2.7414454118,
				"y": -1.1040964698,
				"z": -0.479549819,
				"element": "C" 
			},
			{
				"x": 4.0016051527,
				"y": -1.5743355277,
				"z": -0.4419473898,
				"element": "F" 
			},
			{
				"x": 2.0951398333,
				"y": -0.7578359732,
				"z": 0.6845889274,
				"element": "C" 
			},
			{
				"x": 0.7802276512,
				"y": -0.2568478555,
				"z": 0.6333265957,
				"element": "C" 
			},
			{
				"x": 0.1486529833,
				"y": -0.1395961474,
				"z": -0.6089590578,
				"element": "C" 
			},
			{
				"x": 0.807924507,
				"y": -0.4990583723,
				"z": -1.7869870165,
				"element": "C" 
			},
			{
				"x": 0.1139753618,
				"y": 0.0741105982,
				"z": 1.9247944949,
				"element": "C" 
			},
			{
				"x": 0.6131159818,
				"y": -0.2382137603,
				"z": 2.9966601925,
				"element": "O" 
			},
			{
				"x": -1.2698352234,
				"y": 0.6943244758,
				"z": 1.9139335128,
				"element": "C" 
			},
			{
				"x": -1.5964053348,
				"y": 1.9675341696,
				"z": 1.4005815762,
				"element": "C" 
			},
			{
				"x": -2.9295485471,
				"y": 2.4036037797,
				"z": 1.4164042859,
				"element": "C" 
			},
			{
				"x": -3.9346311428,
				"y": 1.6050788983,
				"z": 1.9525869935,
				"element": "C" 
			},
			{
				"x": -3.6104989792,
				"y": 0.3581153756,
				"z": 2.490913032,
				"element": "C" 
			},
			{
				"x": -2.2896795023,
				"y": -0.086843013,
				"z": 2.4733773786,
				"element": "C" 
			},
			{
				"x": -0.598830197,
				"y": 2.9430915763,
				"z": 0.8708991288,
				"element": "C" 
			},
			{
				"x": 0.6627626653,
				"y": 2.6939127363,
				"z": 1.2884428656,
				"element": "O" 
			},
			{
				"x": -0.8741833455,
				"y": 3.8950287841,
				"z": 0.1678184957,
				"element": "O" 
			},
			{
				"x": 2.0161122727,
				"y": -0.2236963479,
				"z": -4.3398670123,
				"element": "H" 
			},
			{
				"x": 1.3939714321,
				"y": -1.8947890722,
				"z": -4.1907655361,
				"element": "H" 
			},
			{
				"x": 3.0478227276,
				"y": -1.6067435803,
				"z": -4.7963930009,
				"element": "H" 
			},
			{
				"x": 2.593182027,
				"y": -0.8679007246,
				"z": 1.6410874798,
				"element": "H" 
			},
			{
				"x": -0.8706754856,
				"y": 0.2255422451,
				"z": -0.6701029826,
				"element": "H" 
			},
			{
				"x": 0.2951529296,
				"y": -0.4016055481,
				"z": -2.7362235305,
				"element": "H" 
			},
			{
				"x": -3.148548322,
				"y": 3.3853647173,
				"z": 1.010566682,
				"element": "H" 
			},
			{
				"x": -4.9616865506,
				"y": 1.9569571034,
				"z": 1.9610485906,
				"element": "H" 
			},
			{
				"x": -4.3843033978,
				"y": -0.2683430663,
				"z": 2.9249910185,
				"element": "H" 
			},
			{
				"x": -2.0331743999,
				"y": -1.0549446409,
				"z": 2.8916373665,
				"element": "H" 
			},
			{
				"x": 1.2264688439,
				"y": 3.372006985,
				"z": 0.8804322682,
				"element": "H" 
			}
		],
		 "valence_orbital": [ 
			{
				"type": "occ",
				"energy": -0.27223,
				"method": "rhf"
			},
			{
				"type": "occ",
				"energy": -0.26755,
				"method": "rhf"
			},
			{
				"type": "occ",
				"energy": -0.26032,
				"method": "rhf"
			},
			{
				"type": "occ",
				"energy": -0.24815,
				"method": "rhf"
			},
			{
				"type": "occ",
				"energy": -0.23224,
				"method": "rhf"
			},
			{
				"type": "unocc",
				"energy": -0.06334,
				"method": "rhf"
			},
			{
				"type": "unocc",
				"energy": -0.04734,
				"method": "rhf"
			},
			{
				"type": "unocc",
				"energy": -0.01881,
				"method": "rhf"
			},
			{
				"type": "unocc",
				"energy": -0.00877,
				"method": "rhf"
			},
			{
				"type": "unocc",
				"energy": 0.04487,
				"method": "rhf"
			}
		],
		"cosmo_sigma_profile": { 
			"-0.025": 0.0,
			"-0.024": 0.0,
			"-0.023": 0.0,
			"-0.022": 0.0,
			"-0.021": 0.0,
			"-0.02": 0.0,
			"-0.019": 0.279258005442,
			"-0.018": 1.21213366701,
			"-0.017": 0.738995443913,
			"-0.016": 0.557052071427,
			"-0.015": 0.844816185332,
			"-0.014": 0.59476665162,
			"-0.013": 0.657939100569,
			"-0.012": 0.63063183993,
			"-0.011": 0.825996861324,
			"-0.01": 0.807710094244,
			"-0.009": 0.282556059929,
			"-0.008": 1.80019115765,
			"-0.007": 12.145566599,
			"-0.006": 22.4365322813,
			"-0.005": 22.8437334589,
			"-0.004": 20.0634644948,
			"-0.003": 16.9884043399,
			"-0.002": 15.2120513371,
			"-0.001": 18.5356123312,
			"0.0": 21.9949370788,
			"0.001": 20.9961184307,
			"0.002": 25.2834263416,
			"0.003": 22.6983418831,
			"0.004": 15.4909555268,
			"0.005": 8.79253779475,
			"0.006": 6.10160509469,
			"0.007": 6.33969642478,
			"0.008": 5.27883570996,
			"0.009": 5.22799747856,
			"0.01": 5.22172241333,
			"0.011": 8.05146391449,
			"0.012": 5.67632659309,
			"0.013": 0.695847981658,
			"0.014": 0.0,
			"0.015": 0.0,
			"0.016": 0.0,
			"0.017": 0.0,
			"0.018": 0.0,
			"0.019": 0.0,
			"0.02": 0.0,
			"0.021": 0.0,
			"0.022": 0.0,
			"0.023": 0.0,
			"0.024": 0.0,
			"0.025": 0.0
		}
	}
}
