{
	 "smiles": "OCCCC1CCCCC1", 
	 "Tm": 213.15, 
	 "num_atms": 28, 
	 "gaussian": { 
		 "optdone": 1, 
		 "sigma_profile": "yes", 
		 "theory": "DFT", 
		 "functional": "B3LYP", 
		 "basiset": "6-31G**", 
		 "properties": { 
			 "R2extent": 2264.7613, 
			 "electric_dipole_moment_norm": 1.49493899876, 
			 "electric_quadrupole_moment_norm": 9.2291636257, 
			 "total_energy": -429.034769309, 
			 "HOMO_LUMO_gap": 0.33584, 
			 "cosmo_polarized_energy": -5.8, 
			 "cosmo_cavitation_energy": 27.54, 
			 "cosmo_dispersion_energy": -20.16, 
			 "cosmo_repulsion_energy": 1.67, 
			 "cosmo_total_nonelectrostatic_energy": 9.05, 
			 "SMD_solvation_energy": 3.59 
		},
		"coords": [
			{
				"x": -2.8139810857,
				"y": -0.6997852714,
				"z": 3.4120197338,
				"element": "O" 
			},
			{
				"x": -2.227811295,
				"y": 0.0946857975,
				"z": 2.386298977,
				"element": "C" 
			},
			{
				"x": -2.4096687781,
				"y": -0.6464483318,
				"z": 1.0663054005,
				"element": "C" 
			},
			{
				"x": -1.9199322694,
				"y": 0.1308262264,
				"z": -0.1663496222,
				"element": "C" 
			},
			{
				"x": -0.408132555,
				"y": 0.4177731818,
				"z": -0.2326986555,
				"element": "C" 
			},
			{
				"x": -0.0442132626,
				"y": 1.2348099585,
				"z": -1.4845536976,
				"element": "C" 
			},
			{
				"x": 1.4260814891,
				"y": 1.7151773509,
				"z": -1.4506772072,
				"element": "C" 
			},
			{
				"x": 2.3514355094,
				"y": 0.7201061175,
				"z": -0.7099417477,
				"element": "C" 
			},
			{
				"x": 1.8326733808,
				"y": -0.7163040266,
				"z": -0.8510988906,
				"element": "C" 
			},
			{
				"x": 0.4437435968,
				"y": -0.8791300097,
				"z": -0.1873380698,
				"element": "C" 
			},
			{
				"x": -2.6812696276,
				"y": -0.2477365467,
				"z": 4.2541694845,
				"element": "H" 
			},
			{
				"x": -1.1582582882,
				"y": 0.2681966633,
				"z": 2.5862110991,
				"element": "H" 
			},
			{
				"x": -2.7103181845,
				"y": 1.0851758482,
				"z": 2.3228451598,
				"element": "H" 
			},
			{
				"x": -1.9053789065,
				"y": -1.6169472055,
				"z": 1.1399630019,
				"element": "H" 
			},
			{
				"x": -3.478731336,
				"y": -0.8638347602,
				"z": 0.9551434567,
				"element": "H" 
			},
			{
				"x": -2.4632703188,
				"y": 1.0848839135,
				"z": -0.2247974064,
				"element": "H" 
			},
			{
				"x": -2.2037581215,
				"y": -0.4319242673,
				"z": -1.0665973142,
				"element": "H" 
			},
			{
				"x": -0.1398324037,
				"y": 1.0331663361,
				"z": 0.6389714167,
				"element": "H" 
			},
			{
				"x": -0.2151711231,
				"y": 0.6086807651,
				"z": -2.3713196904,
				"element": "H" 
			},
			{
				"x": -0.7174107964,
				"y": 2.0943240359,
				"z": -1.5884501027,
				"element": "H" 
			},
			{
				"x": 1.4855470949,
				"y": 2.6971722685,
				"z": -0.9659959822,
				"element": "H" 
			},
			{
				"x": 1.781465011,
				"y": 1.8602037564,
				"z": -2.477965823,
				"element": "H" 
			},
			{
				"x": 3.3765628283,
				"y": 0.8023294677,
				"z": -1.0884497052,
				"element": "H" 
			},
			{
				"x": 2.3994671224,
				"y": 0.9766033746,
				"z": 0.3566249224,
				"element": "H" 
			},
			{
				"x": 1.7667974883,
				"y": -0.964240088,
				"z": -1.918658959,
				"element": "H" 
			},
			{
				"x": 2.5418505519,
				"y": -1.4305778374,
				"z": -0.4176634476,
				"element": "H" 
			},
			{
				"x": -0.1022419194,
				"y": -1.690353123,
				"z": -0.6870843841,
				"element": "H" 
			},
			{
				"x": 0.5686561987,
				"y": -1.1952335942,
				"z": 0.855288053,
				"element": "H" 
			}
		],
		 "valence_orbital": [ 
			{
				"type": "occ",
				"energy": -0.31256,
				"method": "rhf"
			},
			{
				"type": "occ",
				"energy": -0.29135,
				"method": "rhf"
			},
			{
				"type": "occ",
				"energy": -0.29094,
				"method": "rhf"
			},
			{
				"type": "occ",
				"energy": -0.2876,
				"method": "rhf"
			},
			{
				"type": "occ",
				"energy": -0.26028,
				"method": "rhf"
			},
			{
				"type": "unocc",
				"energy": 0.07556,
				"method": "rhf"
			},
			{
				"type": "unocc",
				"energy": 0.08065,
				"method": "rhf"
			},
			{
				"type": "unocc",
				"energy": 0.09779,
				"method": "rhf"
			},
			{
				"type": "unocc",
				"energy": 0.10687,
				"method": "rhf"
			},
			{
				"type": "unocc",
				"energy": 0.12207,
				"method": "rhf"
			}
		],
		"cosmo_sigma_profile": { 
			"-0.025": 0.0,
			"-0.024": 0.0,
			"-0.023": 0.0,
			"-0.022": 0.0,
			"-0.021": 0.0,
			"-0.02": 0.0,
			"-0.019": 0.0,
			"-0.018": 0.0,
			"-0.017": 0.0,
			"-0.016": 0.13877292349,
			"-0.015": 0.829144623386,
			"-0.014": 1.31304506255,
			"-0.013": 0.779585277399,
			"-0.012": 0.390234757524,
			"-0.011": 1.36475303966,
			"-0.01": 0.769263044174,
			"-0.009": 0.472996061836,
			"-0.008": 0.739989127083,
			"-0.007": 1.19334592978,
			"-0.006": 1.22746360184,
			"-0.005": 0.736416790392,
			"-0.004": 0.990766252792,
			"-0.003": 5.43701458038,
			"-0.002": 30.9472931863,
			"-0.001": 51.5235962922,
			"0.0": 46.2863345434,
			"0.001": 29.7174251562,
			"0.002": 16.0737715239,
			"0.003": 1.8216452848,
			"0.004": 1.72838332985,
			"0.005": 1.03325778569,
			"0.006": 1.48424561924,
			"0.007": 1.12598186474,
			"0.008": 0.94659087932,
			"0.009": 2.02073345313,
			"0.01": 1.21320365659,
			"0.011": 0.948626999056,
			"0.012": 1.29119862511,
			"0.013": 1.84197051733,
			"0.014": 2.13790150457,
			"0.015": 1.36551763333,
			"0.016": 0.0,
			"0.017": 0.0,
			"0.018": 0.0,
			"0.019": 0.0,
			"0.02": 0.0,
			"0.021": 0.0,
			"0.022": 0.0,
			"0.023": 0.0,
			"0.024": 0.0,
			"0.025": 0.0
		}
	}
}
