{
	 "smiles": "OC(=O)C1=NOC(COC2=C(Cl)C=CC=C2Cl)=C1", 
	 "Tm": 433.15, 
	 "num_atms": 25, 
	 "gaussian": { 
		 "optdone": 1, 
		 "sigma_profile": "yes", 
		 "theory": "DFT", 
		 "functional": "B3LYP", 
		 "basiset": "6-31G**", 
		 "properties": { 
			 "R2extent": 8040.7418, 
			 "electric_dipole_moment_norm": 3.794914057, 
			 "electric_quadrupole_moment_norm": 22.9812053122, 
			 "total_energy": -1699.35285576, 
			 "HOMO_LUMO_gap": 0.20715, 
			 "cosmo_polarized_energy": -15.2, 
			 "cosmo_cavitation_energy": 35.5, 
			 "cosmo_dispersion_energy": -25.2, 
			 "cosmo_repulsion_energy": 1.97, 
			 "cosmo_total_nonelectrostatic_energy": 12.27, 
			 "SMD_solvation_energy": 7.04 
		},
		"coords": [
			{
				"x": 3.3292876023,
				"y": -3.5124693955,
				"z": 1.1705622275,
				"element": "O" 
			},
			{
				"x": 2.7737427115,
				"y": -2.2871656854,
				"z": 1.1881043331,
				"element": "C" 
			},
			{
				"x": 3.1480949495,
				"y": -1.3848251085,
				"z": 1.9072537333,
				"element": "O" 
			},
			{
				"x": 1.6452264549,
				"y": -2.1390802746,
				"z": 0.2334589014,
				"element": "C" 
			},
			{
				"x": 1.2466560654,
				"y": -3.1264777899,
				"z": -0.5433839633,
				"element": "N" 
			},
			{
				"x": 0.1890080531,
				"y": -2.5993888665,
				"z": -1.2738033737,
				"element": "O" 
			},
			{
				"x": -0.013177258,
				"y": -1.3109020168,
				"z": -0.9110099703,
				"element": "C" 
			},
			{
				"x": -1.1237675453,
				"y": -0.5994095302,
				"z": -1.6105179335,
				"element": "C" 
			},
			{
				"x": -1.1619396761,
				"y": 0.7312890893,
				"z": -1.0880149264,
				"element": "O" 
			},
			{
				"x": -2.1287290328,
				"y": 1.5411641928,
				"z": -1.6159859815,
				"element": "C" 
			},
			{
				"x": -1.8628810165,
				"y": 2.3521577177,
				"z": -2.7310982426,
				"element": "C" 
			},
			{
				"x": -0.290125823,
				"y": 2.2602956577,
				"z": -3.4928276079,
				"element": "Cl" 
			},
			{
				"x": -2.8207171657,
				"y": 3.2322976846,
				"z": -3.2319723741,
				"element": "C" 
			},
			{
				"x": -4.0696232877,
				"y": 3.3071630985,
				"z": -2.6171050504,
				"element": "C" 
			},
			{
				"x": -4.3630414446,
				"y": 2.5140962198,
				"z": -1.5087758275,
				"element": "C" 
			},
			{
				"x": -3.39578732,
				"y": 1.6383048399,
				"z": -1.0184891605,
				"element": "C" 
			},
			{
				"x": -3.7547554577,
				"y": 0.6466409506,
				"z": 0.3779132165,
				"element": "Cl" 
			},
			{
				"x": 0.8806154129,
				"y": -0.951771737,
				"z": 0.046450375,
				"element": "C" 
			},
			{
				"x": 4.0467227703,
				"y": -3.4916664596,
				"z": 1.8260753758,
				"element": "H" 
			},
			{
				"x": -0.9413161895,
				"y": -0.5854711602,
				"z": -2.6932971454,
				"element": "H" 
			},
			{
				"x": -2.0765840989,
				"y": -1.1142564561,
				"z": -1.4288442697,
				"element": "H" 
			},
			{
				"x": -2.5819106015,
				"y": 3.8477506153,
				"z": -4.0917141681,
				"element": "H" 
			},
			{
				"x": -4.8184292779,
				"y": 3.9918516639,
				"z": -3.0019547477,
				"element": "H" 
			},
			{
				"x": -5.3298322637,
				"y": 2.5681496536,
				"z": -1.0215776308,
				"element": "H" 
			},
			{
				"x": 0.9918634389,
				"y": -0.0048769034,
				"z": 0.5471542109,
				"element": "H" 
			}
		],
		 "valence_orbital": [ 
			{
				"type": "occ",
				"energy": -0.30513,
				"method": "rhf"
			},
			{
				"type": "occ",
				"energy": -0.29035,
				"method": "rhf"
			},
			{
				"type": "occ",
				"energy": -0.27075,
				"method": "rhf"
			},
			{
				"type": "occ",
				"energy": -0.26587,
				"method": "rhf"
			},
			{
				"type": "occ",
				"energy": -0.26287,
				"method": "rhf"
			},
			{
				"type": "unocc",
				"energy": -0.05572,
				"method": "rhf"
			},
			{
				"type": "unocc",
				"energy": -0.03572,
				"method": "rhf"
			},
			{
				"type": "unocc",
				"energy": -0.03299,
				"method": "rhf"
			},
			{
				"type": "unocc",
				"energy": -0.00578,
				"method": "rhf"
			},
			{
				"type": "unocc",
				"energy": 0.00419,
				"method": "rhf"
			}
		],
		"cosmo_sigma_profile": { 
			"-0.025": 0.0,
			"-0.024": 0.0,
			"-0.023": 0.0,
			"-0.022": 0.0,
			"-0.021": 0.0,
			"-0.02": 0.0488747261136,
			"-0.019": 0.800793734422,
			"-0.018": 1.04990501272,
			"-0.017": 1.02579080979,
			"-0.016": 0.882519753684,
			"-0.015": 0.410520851121,
			"-0.014": 0.301284467051,
			"-0.013": 0.69288531268,
			"-0.012": 1.26684951,
			"-0.011": 0.772193792367,
			"-0.01": 0.425104546026,
			"-0.009": 1.53546762798,
			"-0.008": 8.32955298688,
			"-0.007": 13.7188105791,
			"-0.006": 14.5948686496,
			"-0.005": 11.4772628761,
			"-0.004": 12.2251192882,
			"-0.003": 16.7882580988,
			"-0.002": 16.5301720602,
			"-0.001": 20.5984756165,
			"0.0": 28.0240415879,
			"0.001": 28.0264382036,
			"0.002": 23.8618162073,
			"0.003": 19.2097363464,
			"0.004": 19.4327763414,
			"0.005": 8.88008110164,
			"0.006": 9.6842905353,
			"0.007": 6.73154642271,
			"0.008": 3.78239226072,
			"0.009": 4.13443284702,
			"0.01": 6.62870436506,
			"0.011": 5.78379928686,
			"0.012": 1.78722737921,
			"0.013": 0.589036621715,
			"0.014": 0.0,
			"0.015": 0.0,
			"0.016": 0.0,
			"0.017": 0.0,
			"0.018": 0.0,
			"0.019": 0.0,
			"0.02": 0.0,
			"0.021": 0.0,
			"0.022": 0.0,
			"0.023": 0.0,
			"0.024": 0.0,
			"0.025": 0.0
		}
	}
}
