{
	 "smiles": "CN1N(C(=O)C(NN=C2/C(=O)NN=C2C2=C(O)C3=CC=CC=C3N(C)C2=O)=C1C)C1=CC=CC=C1", 
	 "Tm": 473.15, 
	 "num_atms": 56, 
	 "gaussian": { 
		 "optdone": 1, 
		 "sigma_profile": "yes", 
		 "theory": "DFT", 
		 "functional": "B3LYP", 
		 "basiset": "6-31G**", 
		 "properties": { 
			 "R2extent": 20517.5544, 
			 "electric_dipole_moment_norm": 4.55243490124, 
			 "electric_quadrupole_moment_norm": 25.6460358488, 
			 "total_energy": -1611.32290556, 
			 "HOMO_LUMO_gap": 0.12189, 
			 "cosmo_polarized_energy": -33.03, 
			 "cosmo_cavitation_energy": 60.09, 
			 "cosmo_dispersion_energy": -41.69, 
			 "cosmo_repulsion_energy": 3.08, 
			 "cosmo_total_nonelectrostatic_energy": 21.49, 
			 "SMD_solvation_energy": 10.63 
		},
		"coords": [
			{
				"x": 4.1152680441,
				"y": 1.2822102182,
				"z": -3.4529939343,
				"element": "C" 
			},
			{
				"x": 2.8007564975,
				"y": 1.1656848244,
				"z": -2.800749435,
				"element": "N" 
			},
			{
				"x": 2.838038133,
				"y": 1.4136188087,
				"z": -1.4103218313,
				"element": "N" 
			},
			{
				"x": 2.0621392439,
				"y": 0.4548937414,
				"z": -0.7098223795,
				"element": "C" 
			},
			{
				"x": 1.8646807925,
				"y": 0.4552172765,
				"z": 0.4924617106,
				"element": "O" 
			},
			{
				"x": 1.6001441632,
				"y": -0.4489404314,
				"z": -1.770776658,
				"element": "C" 
			},
			{
				"x": 0.8193880034,
				"y": -1.586138093,
				"z": -1.5749044955,
				"element": "N" 
			},
			{
				"x": -0.0908443974,
				"y": -1.6225610307,
				"z": -0.6320602988,
				"element": "N" 
			},
			{
				"x": -0.7141006832,
				"y": -2.7715351766,
				"z": -0.4706953263,
				"element": "C" 
			},
			{
				"x": -0.4053738181,
				"y": -4.0168660188,
				"z": -1.1904210837,
				"element": "C" 
			},
			{
				"x": 0.3736760425,
				"y": -4.1893892336,
				"z": -2.1445608344,
				"element": "O" 
			},
			{
				"x": -1.1541995066,
				"y": -4.9569334707,
				"z": -0.5377474842,
				"element": "N" 
			},
			{
				"x": -1.9424375878,
				"y": -4.4272476473,
				"z": 0.4707431527,
				"element": "N" 
			},
			{
				"x": -1.7066350015,
				"y": -3.1268704835,
				"z": 0.5306443036,
				"element": "C" 
			},
			{
				"x": -2.3248633354,
				"y": -2.333468959,
				"z": 1.5908240676,
				"element": "C" 
			},
			{
				"x": -2.7085505279,
				"y": -2.9399415783,
				"z": 2.7750819834,
				"element": "C" 
			},
			{
				"x": -2.6495486746,
				"y": -4.2601099492,
				"z": 2.9780273182,
				"element": "O" 
			},
			{
				"x": -3.1739898507,
				"y": -2.1482958516,
				"z": 3.8898182683,
				"element": "C" 
			},
			{
				"x": -3.4978427702,
				"y": -2.7403975513,
				"z": 5.123845277,
				"element": "C" 
			},
			{
				"x": -3.9139312703,
				"y": -1.966561867,
				"z": 6.1954056383,
				"element": "C" 
			},
			{
				"x": -4.0153729446,
				"y": -0.5777161093,
				"z": 6.0368265638,
				"element": "C" 
			},
			{
				"x": -3.7092732656,
				"y": 0.0298678774,
				"z": 4.8259914136,
				"element": "C" 
			},
			{
				"x": -3.2837071356,
				"y": -0.7438754543,
				"z": 3.7265116222,
				"element": "C" 
			},
			{
				"x": -2.9968531771,
				"y": -0.166374807,
				"z": 2.4987977269,
				"element": "N" 
			},
			{
				"x": -3.1791487524,
				"y": 1.2708843722,
				"z": 2.3057368654,
				"element": "C" 
			},
			{
				"x": -2.5859959481,
				"y": -0.9105025096,
				"z": 1.3685817788,
				"element": "C" 
			},
			{
				"x": -2.4862593798,
				"y": -0.3668463779,
				"z": 0.2724452392,
				"element": "O" 
			},
			{
				"x": 2.0851371965,
				"y": -0.017546425,
				"z": -2.969283301,
				"element": "C" 
			},
			{
				"x": 1.9413030679,
				"y": -0.6430890782,
				"z": -4.3183459201,
				"element": "C" 
			},
			{
				"x": 3.0839385735,
				"y": 2.7339537566,
				"z": -0.9493917832,
				"element": "C" 
			},
			{
				"x": 3.5354799277,
				"y": 2.9220462093,
				"z": 0.3644472578,
				"element": "C" 
			},
			{
				"x": 3.776698227,
				"y": 4.2148257413,
				"z": 0.8258140651,
				"element": "C" 
			},
			{
				"x": 3.5949798561,
				"y": 5.3188157844,
				"z": -0.0101157437,
				"element": "C" 
			},
			{
				"x": 3.1483121233,
				"y": 5.1229705837,
				"z": -1.317513367,
				"element": "C" 
			},
			{
				"x": 2.8813789213,
				"y": 3.8378286786,
				"z": -1.7892007078,
				"element": "C" 
			},
			{
				"x": 4.5050636318,
				"y": 2.2868560442,
				"z": -3.2875040704,
				"element": "H" 
			},
			{
				"x": 3.9837240375,
				"y": 1.134364201,
				"z": -4.5258452608,
				"element": "H" 
			},
			{
				"x": 4.829033355,
				"y": 0.5463992416,
				"z": -3.0608727939,
				"element": "H" 
			},
			{
				"x": 0.9782090081,
				"y": -2.4490234461,
				"z": -2.1184376908,
				"element": "H" 
			},
			{
				"x": -1.2517506889,
				"y": -5.9286323965,
				"z": -0.7865669123,
				"element": "H" 
			},
			{
				"x": -2.4008113594,
				"y": -4.6864152007,
				"z": 2.1162914969,
				"element": "H" 
			},
			{
				"x": -3.4083521337,
				"y": -3.8169183056,
				"z": 5.2125558966,
				"element": "H" 
			},
			{
				"x": -4.1591239213,
				"y": -2.4306930286,
				"z": 7.1452212628,
				"element": "H" 
			},
			{
				"x": -4.3406679559,
				"y": 0.0406901813,
				"z": 6.8686598667,
				"element": "H" 
			},
			{
				"x": -3.8012522202,
				"y": 1.1041011985,
				"z": 4.7327954039,
				"element": "H" 
			},
			{
				"x": -2.9166910042,
				"y": 1.4886390731,
				"z": 1.2730674397,
				"element": "H" 
			},
			{
				"x": -4.2195332629,
				"y": 1.5602262058,
				"z": 2.487359906,
				"element": "H" 
			},
			{
				"x": -2.5259645508,
				"y": 1.8344286601,
				"z": 2.9792173041,
				"element": "H" 
			},
			{
				"x": 1.1173580815,
				"y": -1.3604593257,
				"z": -4.3100543006,
				"element": "H" 
			},
			{
				"x": 2.847292128,
				"y": -1.1804148399,
				"z": -4.6236866011,
				"element": "H" 
			},
			{
				"x": 1.7261447933,
				"y": 0.113979346,
				"z": -5.0785181003,
				"element": "H" 
			},
			{
				"x": 3.6701081261,
				"y": 2.0635989632,
				"z": 1.0090967969,
				"element": "H" 
			},
			{
				"x": 4.1190598857,
				"y": 4.356216673,
				"z": 1.8468164269,
				"element": "H" 
			},
			{
				"x": 3.7960479592,
				"y": 6.3213761451,
				"z": 0.3550262614,
				"element": "H" 
			},
			{
				"x": 2.9908755112,
				"y": 5.9736650799,
				"z": -1.97440138,
				"element": "H" 
			},
			{
				"x": 2.4979397937,
				"y": 3.6852057606,
				"z": -2.7920206203,
				"element": "H" 
			}
		],
		 "valence_orbital": [ 
			{
				"type": "occ",
				"energy": -0.23878,
				"method": "rhf"
			},
			{
				"type": "occ",
				"energy": -0.22469,
				"method": "rhf"
			},
			{
				"type": "occ",
				"energy": -0.21626,
				"method": "rhf"
			},
			{
				"type": "occ",
				"energy": -0.20578,
				"method": "rhf"
			},
			{
				"type": "occ",
				"energy": -0.2004,
				"method": "rhf"
			},
			{
				"type": "unocc",
				"energy": -0.07851,
				"method": "rhf"
			},
			{
				"type": "unocc",
				"energy": -0.04019,
				"method": "rhf"
			},
			{
				"type": "unocc",
				"energy": -0.02684,
				"method": "rhf"
			},
			{
				"type": "unocc",
				"energy": -0.00507,
				"method": "rhf"
			},
			{
				"type": "unocc",
				"energy": 0.00195,
				"method": "rhf"
			}
		],
		"cosmo_sigma_profile": { 
			"-0.025": 0.0,
			"-0.024": 0.0,
			"-0.023": 0.0,
			"-0.022": 0.0,
			"-0.021": 0.0,
			"-0.02": 0.0,
			"-0.019": 0.0,
			"-0.018": 0.0,
			"-0.017": 0.680254697114,
			"-0.016": 1.22154331535,
			"-0.015": 1.24904677629,
			"-0.014": 1.23508383611,
			"-0.013": 0.316389697117,
			"-0.012": 1.16442130109,
			"-0.011": 1.36700232276,
			"-0.01": 1.35488242531,
			"-0.009": 1.26891946805,
			"-0.008": 2.16939486578,
			"-0.007": 11.8243424372,
			"-0.006": 33.235074334,
			"-0.005": 39.6392703552,
			"-0.004": 41.7283872638,
			"-0.003": 41.2246979594,
			"-0.002": 37.811676116,
			"-0.001": 35.0159551538,
			"0.0": 36.2298414369,
			"0.001": 30.7573499385,
			"0.002": 28.6011528473,
			"0.003": 25.2907821923,
			"0.004": 24.7485953493,
			"0.005": 18.8866084303,
			"0.006": 8.40744515941,
			"0.007": 7.93356659969,
			"0.008": 6.0314314774,
			"0.009": 4.80972373842,
			"0.01": 4.58385973135,
			"0.011": 6.18812681191,
			"0.012": 7.0891216177,
			"0.013": 9.89342014044,
			"0.014": 8.13897455761,
			"0.015": 1.79240049792,
			"0.016": 0.0536651230829,
			"0.017": 0.0,
			"0.018": 0.0,
			"0.019": 0.0,
			"0.02": 0.0,
			"0.021": 0.0,
			"0.022": 0.0,
			"0.023": 0.0,
			"0.024": 0.0,
			"0.025": 0.0
		}
	}
}
