{
	 "smiles": "ClC(Cl)=CNC(=O)C1=CC=C(Br)C=C1", 
	 "Tm": 384.15, 
	 "num_atms": 20, 
	 "gaussian": { 
		 "optdone": 1, 
		 "sigma_profile": "yes", 
		 "theory": "DFT", 
		 "functional": "B3LYP", 
		 "basiset": "6-31G**", 
		 "properties": { 
			 "R2extent": 12339.9628, 
			 "electric_dipole_moment_norm": 3.7135745933, 
			 "electric_quadrupole_moment_norm": 12.3306042334, 
			 "total_energy": -3968.31783958, 
			 "HOMO_LUMO_gap": 0.18128, 
			 "cosmo_polarized_energy": -14.19, 
			 "cosmo_cavitation_energy": 31.44, 
			 "cosmo_dispersion_energy": -23.42, 
			 "cosmo_repulsion_energy": 1.86, 
			 "cosmo_total_nonelectrostatic_energy": 9.88, 
			 "SMD_solvation_energy": 4.59 
		},
		"coords": [
			{
				"x": -4.7653113211,
				"y": 0.3624287677,
				"z": 1.069973055,
				"element": "Cl" 
			},
			{
				"x": -3.6670172414,
				"y": 1.1897249493,
				"z": 0.0263602424,
				"element": "C" 
			},
			{
				"x": -4.3461510687,
				"y": 2.5319526099,
				"z": -0.8580880386,
				"element": "Cl" 
			},
			{
				"x": -2.3773601045,
				"y": 0.8637998025,
				"z": -0.1421939345,
				"element": "C" 
			},
			{
				"x": -1.6921171739,
				"y": -0.1478889568,
				"z": 0.5462407594,
				"element": "N" 
			},
			{
				"x": -1.5749339942,
				"y": -0.2249635636,
				"z": 1.9342999165,
				"element": "C" 
			},
			{
				"x": -2.0961587254,
				"y": 0.5802291504,
				"z": 2.6864618733,
				"element": "O" 
			},
			{
				"x": -0.7433113282,
				"y": -1.3698488718,
				"z": 2.4332428596,
				"element": "C" 
			},
			{
				"x": -0.2055055424,
				"y": -1.2559482522,
				"z": 3.7225949599,
				"element": "C" 
			},
			{
				"x": 0.5776567081,
				"y": -2.272746928,
				"z": 4.2598426208,
				"element": "C" 
			},
			{
				"x": 0.8116160806,
				"y": -3.4220858263,
				"z": 3.5028587171,
				"element": "C" 
			},
			{
				"x": 1.8827581925,
				"y": -4.8229129136,
				"z": 4.2308604929,
				"element": "Br" 
			},
			{
				"x": 0.2686572435,
				"y": -3.5694600662,
				"z": 2.2272690098,
				"element": "C" 
			},
			{
				"x": -0.5082807004,
				"y": -2.5398361048,
				"z": 1.6974445625,
				"element": "C" 
			},
			{
				"x": -1.8072553489,
				"y": 1.4153589919,
				"z": -0.8841386214,
				"element": "H" 
			},
			{
				"x": -0.9890389811,
				"y": -0.6389049947,
				"z": 0.0121775719,
				"element": "H" 
			},
			{
				"x": -0.4155508087,
				"y": -0.3573127107,
				"z": 4.2925753861,
				"element": "H" 
			},
			{
				"x": 1.0003387564,
				"y": -2.1795587248,
				"z": 5.2535920211,
				"element": "H" 
			},
			{
				"x": 0.4416172883,
				"y": -4.4779004108,
				"z": 1.6619820519,
				"element": "H" 
			},
			{
				"x": -0.9613519306,
				"y": -2.6794259476,
				"z": 0.7202444943,
				"element": "H" 
			}
		],
		 "valence_orbital": [ 
			{
				"type": "occ",
				"energy": -0.29843,
				"method": "rhf"
			},
			{
				"type": "occ",
				"energy": -0.27974,
				"method": "rhf"
			},
			{
				"type": "occ",
				"energy": -0.27191,
				"method": "rhf"
			},
			{
				"type": "occ",
				"energy": -0.25628,
				"method": "rhf"
			},
			{
				"type": "occ",
				"energy": -0.2408,
				"method": "rhf"
			},
			{
				"type": "unocc",
				"energy": -0.05952,
				"method": "rhf"
			},
			{
				"type": "unocc",
				"energy": -0.03046,
				"method": "rhf"
			},
			{
				"type": "unocc",
				"energy": -0.01282,
				"method": "rhf"
			},
			{
				"type": "unocc",
				"energy": -0.00369,
				"method": "rhf"
			},
			{
				"type": "unocc",
				"energy": 0.00153,
				"method": "rhf"
			}
		],
		"cosmo_sigma_profile": { 
			"-0.025": 0.0,
			"-0.024": 0.0,
			"-0.023": 0.0,
			"-0.022": 0.0,
			"-0.021": 0.0,
			"-0.02": 0.0,
			"-0.019": 0.0,
			"-0.018": 0.0,
			"-0.017": 0.0587121214398,
			"-0.016": 1.16191627197,
			"-0.015": 1.28995490137,
			"-0.014": 1.07068838381,
			"-0.013": 1.68967837134,
			"-0.012": 1.82402060513,
			"-0.011": 1.30915816328,
			"-0.01": 2.50304902355,
			"-0.009": 3.52339761397,
			"-0.008": 4.68438863376,
			"-0.007": 7.2507242896,
			"-0.006": 9.97706746114,
			"-0.005": 8.65316811704,
			"-0.004": 10.7282752327,
			"-0.003": 12.8789239709,
			"-0.002": 13.6285981164,
			"-0.001": 16.6432238336,
			"0.0": 20.858014105,
			"0.001": 30.6459335379,
			"0.002": 36.2050289316,
			"0.003": 32.2535082496,
			"0.004": 19.4388943212,
			"0.005": 3.37979123401,
			"0.006": 2.06444947753,
			"0.007": 1.87920689581,
			"0.008": 2.14368093903,
			"0.009": 2.10535778936,
			"0.01": 2.1289210902,
			"0.011": 2.34189992445,
			"0.012": 4.14161816778,
			"0.013": 2.3323188666,
			"0.014": 0.0,
			"0.015": 0.0,
			"0.016": 0.0,
			"0.017": 0.0,
			"0.018": 0.0,
			"0.019": 0.0,
			"0.02": 0.0,
			"0.021": 0.0,
			"0.022": 0.0,
			"0.023": 0.0,
			"0.024": 0.0,
			"0.025": 0.0
		}
	}
}
