{
	 "smiles": "ClC1=CC(Cl)=C(C=C(/C#N)C2=NC(=CS2)C2=C3C=CC=CC3=CC=C2)C=C1", 
	 "Tm": 405.15, 
	 "num_atms": 39, 
	 "gaussian": { 
		 "optdone": 1, 
		 "sigma_profile": "yes", 
		 "theory": "DFT", 
		 "functional": "B3LYP", 
		 "basiset": "6-31G**", 
		 "properties": { 
			 "R2extent": 16793.1775, 
			 "electric_dipole_moment_norm": 2.47743389417, 
			 "electric_quadrupole_moment_norm": 14.60819617, 
			 "total_energy": -2273.62663624, 
			 "HOMO_LUMO_gap": 0.11096, 
			 "cosmo_polarized_energy": -11.73, 
			 "cosmo_cavitation_energy": 50.46, 
			 "cosmo_dispersion_energy": -35.31, 
			 "cosmo_repulsion_energy": 2.59, 
			 "cosmo_total_nonelectrostatic_energy": 17.74, 
			 "SMD_solvation_energy": 7.57 
		},
		"coords": [
			{
				"x": 3.0299774501,
				"y": 1.8062334901,
				"z": 7.3860550048,
				"element": "Cl" 
			},
			{
				"x": 2.2799003106,
				"y": 1.1270647312,
				"z": 5.9597487652,
				"element": "C" 
			},
			{
				"x": 1.4387761134,
				"y": 1.9258378112,
				"z": 5.1881313204,
				"element": "C" 
			},
			{
				"x": 0.8454867062,
				"y": 1.3815729323,
				"z": 4.052704162,
				"element": "C" 
			},
			{
				"x": -0.2097253915,
				"y": 2.4419628762,
				"z": 3.1339471593,
				"element": "Cl" 
			},
			{
				"x": 1.0609959888,
				"y": 0.0372241449,
				"z": 3.6562415427,
				"element": "C" 
			},
			{
				"x": 0.4331045605,
				"y": -0.4759542218,
				"z": 2.4487552173,
				"element": "C" 
			},
			{
				"x": 0.2762113671,
				"y": -1.7565648819,
				"z": 2.0041125435,
				"element": "C" 
			},
			{
				"x": 0.6911323368,
				"y": -2.9185083957,
				"z": 2.7311874051,
				"element": "C" 
			},
			{
				"x": 1.010578816,
				"y": -3.889126504,
				"z": 3.2896833627,
				"element": "N" 
			},
			{
				"x": -0.3804966898,
				"y": -2.0071799736,
				"z": 0.7108860705,
				"element": "C" 
			},
			{
				"x": -0.7851583149,
				"y": -1.0617127836,
				"z": -0.0948213058,
				"element": "N" 
			},
			{
				"x": -1.3881751886,
				"y": -1.5667734645,
				"z": -1.2254555529,
				"element": "C" 
			},
			{
				"x": -1.4257462737,
				"y": -2.9433312413,
				"z": -1.2784615056,
				"element": "C" 
			},
			{
				"x": -0.7053831559,
				"y": -3.6365402711,
				"z": 0.1272353654,
				"element": "S" 
			},
			{
				"x": -1.9732430476,
				"y": -0.6820621531,
				"z": -2.2602102782,
				"element": "C" 
			},
			{
				"x": -1.2907726925,
				"y": 0.4804501109,
				"z": -2.7616202094,
				"element": "C" 
			},
			{
				"x": 0.003595653,
				"y": 0.8789435138,
				"z": -2.3260980559,
				"element": "C" 
			},
			{
				"x": 0.6183136909,
				"y": 1.9946444212,
				"z": -2.8505273562,
				"element": "C" 
			},
			{
				"x": -0.0235177492,
				"y": 2.7752315674,
				"z": -3.8402178474,
				"element": "C" 
			},
			{
				"x": -1.2715696313,
				"y": 2.4147564967,
				"z": -4.2916997282,
				"element": "C" 
			},
			{
				"x": -1.9334696907,
				"y": 1.2668679238,
				"z": -3.7774336608,
				"element": "C" 
			},
			{
				"x": -3.2122137833,
				"y": 0.8837769844,
				"z": -4.2624866787,
				"element": "C" 
			},
			{
				"x": -3.8409505596,
				"y": -0.2357964239,
				"z": -3.7721668705,
				"element": "C" 
			},
			{
				"x": -3.2193912751,
				"y": -1.0121074459,
				"z": -2.7701651615,
				"element": "C" 
			},
			{
				"x": 1.9284686991,
				"y": -0.7233566678,
				"z": 4.4726866479,
				"element": "C" 
			},
			{
				"x": 2.5319503412,
				"y": -0.1993978573,
				"z": 5.6070757205,
				"element": "C" 
			},
			{
				"x": 1.2452307206,
				"y": 2.9545444002,
				"z": 5.4649233774,
				"element": "H" 
			},
			{
				"x": 0.0051639792,
				"y": 0.2690547155,
				"z": 1.7861990189,
				"element": "H" 
			},
			{
				"x": -1.8102966337,
				"y": -3.5663490656,
				"z": -2.0726822103,
				"element": "H" 
			},
			{
				"x": 0.5014798064,
				"y": 0.299518395,
				"z": -1.5593008594,
				"element": "H" 
			},
			{
				"x": 1.6067129828,
				"y": 2.2782818836,
				"z": -2.5004118792,
				"element": "H" 
			},
			{
				"x": 0.4721310374,
				"y": 3.6539410891,
				"z": -4.2426244421,
				"element": "H" 
			},
			{
				"x": -1.772877452,
				"y": 3.0021750558,
				"z": -5.0567174549,
				"element": "H" 
			},
			{
				"x": -3.6843322988,
				"y": 1.4934440417,
				"z": -5.0284987571,
				"element": "H" 
			},
			{
				"x": -4.8211971645,
				"y": -0.5234136957,
				"z": -4.1403808404,
				"element": "H" 
			},
			{
				"x": -3.7412137988,
				"y": -1.8752745335,
				"z": -2.3679995378,
				"element": "H" 
			},
			{
				"x": 2.1463900029,
				"y": -1.7488441209,
				"z": 4.2045337266,
				"element": "H" 
			},
			{
				"x": 3.1952302288,
				"y": -0.809132884,
				"z": 6.2093737822,
				"element": "H" 
			}
		],
		 "valence_orbital": [ 
			{
				"type": "occ",
				"energy": -0.27529,
				"method": "rhf"
			},
			{
				"type": "occ",
				"energy": -0.26785,
				"method": "rhf"
			},
			{
				"type": "occ",
				"energy": -0.24665,
				"method": "rhf"
			},
			{
				"type": "occ",
				"energy": -0.23424,
				"method": "rhf"
			},
			{
				"type": "occ",
				"energy": -0.21251,
				"method": "rhf"
			},
			{
				"type": "unocc",
				"energy": -0.10155,
				"method": "rhf"
			},
			{
				"type": "unocc",
				"energy": -0.05033,
				"method": "rhf"
			},
			{
				"type": "unocc",
				"energy": -0.03667,
				"method": "rhf"
			},
			{
				"type": "unocc",
				"energy": -0.02457,
				"method": "rhf"
			},
			{
				"type": "unocc",
				"energy": -0.01283,
				"method": "rhf"
			}
		],
		"cosmo_sigma_profile": { 
			"-0.025": 0.0,
			"-0.024": 0.0,
			"-0.023": 0.0,
			"-0.022": 0.0,
			"-0.021": 0.0,
			"-0.02": 0.0,
			"-0.019": 0.0,
			"-0.018": 0.0,
			"-0.017": 0.0,
			"-0.016": 0.0,
			"-0.015": 0.0,
			"-0.014": 0.0,
			"-0.013": 0.0,
			"-0.012": 0.0,
			"-0.011": 0.0,
			"-0.01": 0.491729549827,
			"-0.009": 3.31127652595,
			"-0.008": 5.17922795775,
			"-0.007": 6.71260297211,
			"-0.006": 17.8141752593,
			"-0.005": 21.7335954762,
			"-0.004": 23.9952618206,
			"-0.003": 28.1049375797,
			"-0.002": 31.7411082554,
			"-0.001": 42.7227561087,
			"0.0": 50.512902597,
			"0.001": 43.0067692056,
			"0.002": 32.9970607532,
			"0.003": 34.9981278738,
			"0.004": 34.4463082287,
			"0.005": 16.8014191667,
			"0.006": 3.87823918713,
			"0.007": 3.41678520243,
			"0.008": 4.0591333005,
			"0.009": 3.61415986748,
			"0.01": 2.65930750154,
			"0.011": 2.40521626069,
			"0.012": 1.47577712501,
			"0.013": 0.0466626026816,
			"0.014": 0.0,
			"0.015": 0.0,
			"0.016": 0.0,
			"0.017": 0.0,
			"0.018": 0.0,
			"0.019": 0.0,
			"0.02": 0.0,
			"0.021": 0.0,
			"0.022": 0.0,
			"0.023": 0.0,
			"0.024": 0.0,
			"0.025": 0.0
		}
	}
}
