{
	 "smiles": "OC(=O)C1=NN=C(O)C=C1", 
	 "Tm": 519.15, 
	 "num_atms": 14, 
	 "gaussian": { 
		 "optdone": 1, 
		 "sigma_profile": "yes", 
		 "theory": "DFT", 
		 "functional": "B3LYP", 
		 "basiset": "6-31G**", 
		 "properties": { 
			 "R2extent": 1810.3954, 
			 "electric_dipole_moment_norm": 4.56786374249, 
			 "electric_quadrupole_moment_norm": 9.91861704322, 
			 "total_energy": -528.095207565, 
			 "HOMO_LUMO_gap": 0.1946, 
			 "cosmo_polarized_energy": -14.06, 
			 "cosmo_cavitation_energy": 19.51, 
			 "cosmo_dispersion_energy": -14.9, 
			 "cosmo_repulsion_energy": 1.21, 
			 "cosmo_total_nonelectrostatic_energy": 5.82, 
			 "SMD_solvation_energy": 3.88 
		},
		"coords": [
			{
				"x": -2.8529396827,
				"y": 1.7735561805,
				"z": 0.6199913677,
				"element": "O" 
			},
			{
				"x": -1.8508118727,
				"y": 1.7880929714,
				"z": -0.2697822075,
				"element": "C" 
			},
			{
				"x": -1.493680436,
				"y": 2.7848427244,
				"z": -0.8559764963,
				"element": "O" 
			},
			{
				"x": -1.1952132748,
				"y": 0.4499272273,
				"z": -0.4797788008,
				"element": "C" 
			},
			{
				"x": -1.6933317602,
				"y": -0.5565774132,
				"z": 0.2355641735,
				"element": "N" 
			},
			{
				"x": -1.1867664525,
				"y": -1.7782540703,
				"z": 0.1246060824,
				"element": "N" 
			},
			{
				"x": -0.1694885896,
				"y": -1.9802818495,
				"z": -0.7162839165,
				"element": "C" 
			},
			{
				"x": 0.3099394669,
				"y": -3.2293390784,
				"z": -0.7957580226,
				"element": "O" 
			},
			{
				"x": 0.4113410676,
				"y": -0.9682501758,
				"z": -1.5059634971,
				"element": "C" 
			},
			{
				"x": -0.1257158056,
				"y": 0.2918611754,
				"z": -1.3787650431,
				"element": "C" 
			},
			{
				"x": -2.9331643933,
				"y": 0.8519779653,
				"z": 0.9433953565,
				"element": "H" 
			},
			{
				"x": -0.216986352,
				"y": -3.7703084317,
				"z": -0.1829513046,
				"element": "H" 
			},
			{
				"x": 1.2365947481,
				"y": -1.2011357774,
				"z": -2.1692097593,
				"element": "H" 
			},
			{
				"x": 0.2358233367,
				"y": 1.150488552,
				"z": -1.933187932,
				"element": "H" 
			}
		],
		 "valence_orbital": [ 
			{
				"type": "occ",
				"energy": -0.33522,
				"method": "rhf"
			},
			{
				"type": "occ",
				"energy": -0.31504,
				"method": "rhf"
			},
			{
				"type": "occ",
				"energy": -0.28334,
				"method": "rhf"
			},
			{
				"type": "occ",
				"energy": -0.27964,
				"method": "rhf"
			},
			{
				"type": "occ",
				"energy": -0.27458,
				"method": "rhf"
			},
			{
				"type": "unocc",
				"energy": -0.07998,
				"method": "rhf"
			},
			{
				"type": "unocc",
				"energy": -0.06215,
				"method": "rhf"
			},
			{
				"type": "unocc",
				"energy": 0.0412,
				"method": "rhf"
			},
			{
				"type": "unocc",
				"energy": 0.06268,
				"method": "rhf"
			},
			{
				"type": "unocc",
				"energy": 0.08966,
				"method": "rhf"
			}
		],
		"cosmo_sigma_profile": { 
			"-0.025": 0.0,
			"-0.024": 0.0,
			"-0.023": 0.0,
			"-0.022": 0.0,
			"-0.021": 0.0,
			"-0.02": 0.0,
			"-0.019": 0.0959106358548,
			"-0.018": 0.950281785639,
			"-0.017": 1.06810867376,
			"-0.016": 0.507816066771,
			"-0.015": 0.529499610864,
			"-0.014": 0.544138262051,
			"-0.013": 1.24213628991,
			"-0.012": 1.83807815981,
			"-0.011": 1.91783053878,
			"-0.01": 1.62882667702,
			"-0.009": 4.43634787048,
			"-0.008": 5.11508777026,
			"-0.007": 4.96383793109,
			"-0.006": 6.63263173276,
			"-0.005": 8.26396780255,
			"-0.004": 9.87346691126,
			"-0.003": 14.254736336,
			"-0.002": 13.2895260266,
			"-0.001": 9.3244506647,
			"0.0": 5.69542709394,
			"0.001": 4.53624466483,
			"0.002": 4.28339071276,
			"0.003": 4.85407301644,
			"0.004": 5.58189285495,
			"0.005": 3.84534354106,
			"0.006": 5.136249396,
			"0.007": 5.59851918419,
			"0.008": 5.80008236834,
			"0.009": 7.65396649603,
			"0.01": 6.29254891116,
			"0.011": 6.53983771556,
			"0.012": 3.7892211431,
			"0.013": 1.00209928449,
			"0.014": 0.0,
			"0.015": 0.0,
			"0.016": 0.0,
			"0.017": 0.0,
			"0.018": 0.0,
			"0.019": 0.0,
			"0.02": 0.0,
			"0.021": 0.0,
			"0.022": 0.0,
			"0.023": 0.0,
			"0.024": 0.0,
			"0.025": 0.0
		}
	}
}
