{
	 "smiles": "CN1C=CN=C1CC#N", 
	 "Tm": 313.15, 
	 "num_atms": 16, 
	 "gaussian": { 
		 "optdone": 1, 
		 "sigma_profile": "yes", 
		 "theory": "DFT", 
		 "functional": "B3LYP", 
		 "basiset": "6-31G**", 
		 "properties": { 
			 "R2extent": 1583.2862, 
			 "electric_dipole_moment_norm": 3.96987309747, 
			 "electric_quadrupole_moment_norm": 13.1810536775, 
			 "total_energy": -397.08444059, 
			 "HOMO_LUMO_gap": 0.24052, 
			 "cosmo_polarized_energy": -14.2, 
			 "cosmo_cavitation_energy": 20.85, 
			 "cosmo_dispersion_energy": -14.63, 
			 "cosmo_repulsion_energy": 1.19, 
			 "cosmo_total_nonelectrostatic_energy": 7.41, 
			 "SMD_solvation_energy": 3.76 
		},
		"coords": [
			{
				"x": 0.9390179074,
				"y": -2.3691976861,
				"z": 1.449703078,
				"element": "C" 
			},
			{
				"x": 0.046792208,
				"y": -1.219607705,
				"z": 1.5224458491,
				"element": "N" 
			},
			{
				"x": -1.3327166773,
				"y": -1.2584695219,
				"z": 1.5844036345,
				"element": "C" 
			},
			{
				"x": -1.7452092446,
				"y": 0.0497541521,
				"z": 1.6192119661,
				"element": "C" 
			},
			{
				"x": -0.6629047146,
				"y": 0.8957679084,
				"z": 1.5763888915,
				"element": "N" 
			},
			{
				"x": 0.3927750859,
				"y": 0.1082554922,
				"z": 1.51822958,
				"element": "C" 
			},
			{
				"x": 1.8092720699,
				"y": 0.613883155,
				"z": 1.4790343694,
				"element": "C" 
			},
			{
				"x": 2.5573011763,
				"y": 0.1890977562,
				"z": 0.2868962646,
				"element": "C" 
			},
			{
				"x": 3.1403907995,
				"y": -0.1806926973,
				"z": -0.6460747594,
				"element": "N" 
			},
			{
				"x": 0.3490997516,
				"y": -3.2788665828,
				"z": 1.5676284525,
				"element": "H" 
			},
			{
				"x": 1.6812407303,
				"y": -2.3341112048,
				"z": 2.253053408,
				"element": "H" 
			},
			{
				"x": 1.4595911703,
				"y": -2.402989276,
				"z": 0.4888632162,
				"element": "H" 
			},
			{
				"x": -1.8704705761,
				"y": -2.1944289487,
				"z": 1.5951525328,
				"element": "H" 
			},
			{
				"x": -2.756289264,
				"y": 0.4281627011,
				"z": 1.6732911501,
				"element": "H" 
			},
			{
				"x": 2.3791479303,
				"y": 0.3029414985,
				"z": 2.3654634699,
				"element": "H" 
			},
			{
				"x": 1.7518616471,
				"y": 1.705800959,
				"z": 1.4979088967,
				"element": "H" 
			}
		],
		 "valence_orbital": [ 
			{
				"type": "occ",
				"energy": -0.33433,
				"method": "rhf"
			},
			{
				"type": "occ",
				"energy": -0.33182,
				"method": "rhf"
			},
			{
				"type": "occ",
				"energy": -0.27815,
				"method": "rhf"
			},
			{
				"type": "occ",
				"energy": -0.27442,
				"method": "rhf"
			},
			{
				"type": "occ",
				"energy": -0.23216,
				"method": "rhf"
			},
			{
				"type": "unocc",
				"energy": 0.00836,
				"method": "rhf"
			},
			{
				"type": "unocc",
				"energy": 0.02709,
				"method": "rhf"
			},
			{
				"type": "unocc",
				"energy": 0.03791,
				"method": "rhf"
			},
			{
				"type": "unocc",
				"energy": 0.06465,
				"method": "rhf"
			},
			{
				"type": "unocc",
				"energy": 0.07261,
				"method": "rhf"
			}
		],
		"cosmo_sigma_profile": { 
			"-0.025": 0.0,
			"-0.024": 0.0,
			"-0.023": 0.0,
			"-0.022": 0.0,
			"-0.021": 0.0,
			"-0.02": 0.0,
			"-0.019": 0.0,
			"-0.018": 0.0,
			"-0.017": 0.0,
			"-0.016": 0.0,
			"-0.015": 0.0,
			"-0.014": 0.0,
			"-0.013": 0.0,
			"-0.012": 0.0,
			"-0.011": 0.0,
			"-0.01": 1.81450609854,
			"-0.009": 7.54096106998,
			"-0.008": 8.88037982519,
			"-0.007": 9.70890253933,
			"-0.006": 11.3667886455,
			"-0.005": 11.5421728768,
			"-0.004": 11.8029702866,
			"-0.003": 13.2676113709,
			"-0.002": 8.11332956142,
			"-0.001": 8.40001557465,
			"0.0": 6.49613538083,
			"0.001": 4.79445824882,
			"0.002": 6.66792368844,
			"0.003": 6.58686215377,
			"0.004": 5.74516088345,
			"0.005": 7.02348942999,
			"0.006": 6.94966984568,
			"0.007": 4.118499209,
			"0.008": 4.00520962731,
			"0.009": 4.7693265664,
			"0.01": 4.44861694088,
			"0.011": 3.38711098803,
			"0.012": 2.98776079129,
			"0.013": 2.83992235955,
			"0.014": 0.887260509958,
			"0.015": 1.24798304781,
			"0.016": 0.779862927156,
			"0.017": 0.983189127089,
			"0.018": 0.185335055673,
			"0.019": 0.0,
			"0.02": 0.0,
			"0.021": 0.0,
			"0.022": 0.0,
			"0.023": 0.0,
			"0.024": 0.0,
			"0.025": 0.0
		}
	}
}
