{
	 "smiles": "CN1C2=CC=CC=C2SC2=CC=C(CC(O)=O)C=C12", 
	 "Tm": 419.15, 
	 "num_atms": 32, 
	 "gaussian": { 
		 "optdone": 1, 
		 "sigma_profile": "yes", 
		 "theory": "DFT", 
		 "functional": "B3LYP", 
		 "basiset": "6-31G**", 
		 "properties": { 
			 "R2extent": 6496.2998, 
			 "electric_dipole_moment_norm": 1.40346179499, 
			 "electric_quadrupole_moment_norm": 10.5602105097, 
			 "total_energy": -1182.83557205, 
			 "HOMO_LUMO_gap": 0.16731, 
			 "cosmo_polarized_energy": -13.22, 
			 "cosmo_cavitation_energy": 36.75, 
			 "cosmo_dispersion_energy": -26.87, 
			 "cosmo_repulsion_energy": 2.0, 
			 "cosmo_total_nonelectrostatic_energy": 11.88, 
			 "SMD_solvation_energy": 6.23 
		},
		"coords": [
			{
				"x": 0.9251454069,
				"y": 1.596675499,
				"z": -0.2801744174,
				"element": "C" 
			},
			{
				"x": 0.3115065587,
				"y": 0.4997299291,
				"z": 0.4536069628,
				"element": "N" 
			},
			{
				"x": 1.1539756039,
				"y": -0.3599840491,
				"z": 1.1973744568,
				"element": "C" 
			},
			{
				"x": 2.5432055125,
				"y": -0.3910797812,
				"z": 0.9997463908,
				"element": "C" 
			},
			{
				"x": 3.3564651902,
				"y": -1.2210509189,
				"z": 1.7741684514,
				"element": "C" 
			},
			{
				"x": 2.7992010394,
				"y": -2.0625151147,
				"z": 2.7340169121,
				"element": "C" 
			},
			{
				"x": 1.4149927007,
				"y": -2.066557496,
				"z": 2.9174149851,
				"element": "C" 
			},
			{
				"x": 0.6008023685,
				"y": -1.2127894199,
				"z": 2.1739600138,
				"element": "C" 
			},
			{
				"x": -1.145507722,
				"y": -1.1264403005,
				"z": 2.5171827073,
				"element": "S" 
			},
			{
				"x": -1.7212053454,
				"y": -0.7903855589,
				"z": 0.8667068811,
				"element": "C" 
			},
			{
				"x": -2.960499791,
				"y": -1.2658427137,
				"z": 0.4457098313,
				"element": "C" 
			},
			{
				"x": -3.4727638264,
				"y": -0.9071336238,
				"z": -0.8030037566,
				"element": "C" 
			},
			{
				"x": -2.7264749185,
				"y": -0.0885023331,
				"z": -1.6507720336,
				"element": "C" 
			},
			{
				"x": -3.2721373089,
				"y": 0.3195804425,
				"z": -3.0122240044,
				"element": "C" 
			},
			{
				"x": -2.3431293135,
				"y": -0.0990879434,
				"z": -4.1370100136,
				"element": "C" 
			},
			{
				"x": -2.7766074408,
				"y": -1.2119699191,
				"z": -4.7710337366,
				"element": "O" 
			},
			{
				"x": -1.3144651153,
				"y": 0.4676260976,
				"z": -4.4392393647,
				"element": "O" 
			},
			{
				"x": -1.4609032538,
				"y": 0.3560073125,
				"z": -1.2440289922,
				"element": "C" 
			},
			{
				"x": -0.9466964419,
				"y": 0.0274193085,
				"z": 0.0171211497,
				"element": "C" 
			},
			{
				"x": 1.6861028518,
				"y": 2.0620899367,
				"z": 0.3495119672,
				"element": "H" 
			},
			{
				"x": 1.3939514294,
				"y": 1.2888349718,
				"z": -1.2268813682,
				"element": "H" 
			},
			{
				"x": 0.1625607818,
				"y": 2.3458665074,
				"z": -0.5020981689,
				"element": "H" 
			},
			{
				"x": 2.9969066876,
				"y": 0.2301148636,
				"z": 0.2365332615,
				"element": "H" 
			},
			{
				"x": 4.429795658,
				"y": -1.2142714764,
				"z": 1.6087647369,
				"element": "H" 
			},
			{
				"x": 3.4284377428,
				"y": -2.71482923,
				"z": 3.331259618,
				"element": "H" 
			},
			{
				"x": 0.9588312313,
				"y": -2.7234781155,
				"z": 3.6520699007,
				"element": "H" 
			},
			{
				"x": -3.534188834,
				"y": -1.9081706835,
				"z": 1.1070426433,
				"element": "H" 
			},
			{
				"x": -4.4495802333,
				"y": -1.2684637784,
				"z": -1.110582702,
				"element": "H" 
			},
			{
				"x": -3.362527703,
				"y": 1.4097222892,
				"z": -3.0692001383,
				"element": "H" 
			},
			{
				"x": -4.259318337,
				"y": -0.1192811176,
				"z": -3.1687843704,
				"element": "H" 
			},
			{
				"x": -2.1064521558,
				"y": -1.4188765438,
				"z": -5.4448595621,
				"element": "H" 
			},
			{
				"x": -0.8761230232,
				"y": 0.9491429595,
				"z": -1.9367982407,
				"element": "H" 
			}
		],
		 "valence_orbital": [ 
			{
				"type": "occ",
				"energy": -0.27814,
				"method": "rhf"
			},
			{
				"type": "occ",
				"energy": -0.25454,
				"method": "rhf"
			},
			{
				"type": "occ",
				"energy": -0.24967,
				"method": "rhf"
			},
			{
				"type": "occ",
				"energy": -0.2235,
				"method": "rhf"
			},
			{
				"type": "occ",
				"energy": -0.18553,
				"method": "rhf"
			},
			{
				"type": "unocc",
				"energy": -0.01822,
				"method": "rhf"
			},
			{
				"type": "unocc",
				"energy": -0.00924,
				"method": "rhf"
			},
			{
				"type": "unocc",
				"energy": -0.00231,
				"method": "rhf"
			},
			{
				"type": "unocc",
				"energy": 0.00582,
				"method": "rhf"
			},
			{
				"type": "unocc",
				"energy": 0.01821,
				"method": "rhf"
			}
		],
		"cosmo_sigma_profile": { 
			"-0.025": 0.0,
			"-0.024": 0.0,
			"-0.023": 0.0,
			"-0.022": 0.0,
			"-0.021": 0.0,
			"-0.02": 0.0,
			"-0.019": 0.0,
			"-0.018": 0.84616063557,
			"-0.017": 1.0347553969,
			"-0.016": 0.502315988321,
			"-0.015": 0.867646556169,
			"-0.014": 0.952677434137,
			"-0.013": 0.923032256455,
			"-0.012": 0.581834771886,
			"-0.011": 0.474496571506,
			"-0.01": 0.619251697373,
			"-0.009": 0.565622617177,
			"-0.008": 0.634684594459,
			"-0.007": 3.69037495501,
			"-0.006": 18.3129016821,
			"-0.005": 26.4743934812,
			"-0.004": 27.8893128543,
			"-0.003": 22.7818715127,
			"-0.002": 19.1446101593,
			"-0.001": 16.2358598738,
			"0.0": 14.1561782729,
			"0.001": 16.9392555898,
			"0.002": 18.712718576,
			"0.003": 22.2400106335,
			"0.004": 27.6298070768,
			"0.005": 20.6340312853,
			"0.006": 8.56218038787,
			"0.007": 6.5939986721,
			"0.008": 4.04632962387,
			"0.009": 3.69557465745,
			"0.01": 2.20903753838,
			"0.011": 3.46085310554,
			"0.012": 3.65174012119,
			"0.013": 0.203763586904,
			"0.014": 0.0,
			"0.015": 0.0,
			"0.016": 0.0,
			"0.017": 0.0,
			"0.018": 0.0,
			"0.019": 0.0,
			"0.02": 0.0,
			"0.021": 0.0,
			"0.022": 0.0,
			"0.023": 0.0,
			"0.024": 0.0,
			"0.025": 0.0
		}
	}
}
