{
	 "smiles": "CC1=CNC(=S)NC1=O", 
	 "Tm": 557.65, 
	 "num_atms": 15, 
	 "gaussian": { 
		 "optdone": 1, 
		 "sigma_profile": "yes", 
		 "theory": "DFT", 
		 "functional": "B3LYP", 
		 "basiset": "6-31G**", 
		 "properties": { 
			 "R2extent": 2050.2772, 
			 "electric_dipole_moment_norm": 4.78322050819, 
			 "electric_quadrupole_moment_norm": 18.1415677434, 
			 "total_energy": -777.094389579, 
			 "HOMO_LUMO_gap": 0.17555, 
			 "cosmo_polarized_energy": -18.0, 
			 "cosmo_cavitation_energy": 21.1, 
			 "cosmo_dispersion_energy": -16.29, 
			 "cosmo_repulsion_energy": 1.29, 
			 "cosmo_total_nonelectrostatic_energy": 6.1, 
			 "SMD_solvation_energy": 3.72 
		},
		"coords": [
			{
				"x": -1.8326143237,
				"y": 1.4611242013,
				"z": -2.0268334373,
				"element": "C" 
			},
			{
				"x": -1.2729316095,
				"y": 0.1871106249,
				"z": -1.4682558931,
				"element": "C" 
			},
			{
				"x": -2.0145473853,
				"y": -0.9061520672,
				"z": -1.1764396277,
				"element": "C" 
			},
			{
				"x": -1.4600691914,
				"y": -2.0609654511,
				"z": -0.6628260919,
				"element": "N" 
			},
			{
				"x": -0.1224021096,
				"y": -2.2215439649,
				"z": -0.398004127,
				"element": "C" 
			},
			{
				"x": 0.512556299,
				"y": -3.6322075017,
				"z": 0.2229197589,
				"element": "S" 
			},
			{
				"x": 0.6201627989,
				"y": -1.1087932838,
				"z": -0.6968669052,
				"element": "N" 
			},
			{
				"x": 0.1717675757,
				"y": 0.1228847195,
				"z": -1.2227313321,
				"element": "C" 
			},
			{
				"x": 0.966343422,
				"y": 1.0244109116,
				"z": -1.4351150497,
				"element": "O" 
			},
			{
				"x": -1.6162358265,
				"y": 2.3030018039,
				"z": -1.3608597146,
				"element": "H" 
			},
			{
				"x": -1.3666112536,
				"y": 1.6989076116,
				"z": -2.9888092074,
				"element": "H" 
			},
			{
				"x": -2.9143615957,
				"y": 1.3934059672,
				"z": -2.1675843732,
				"element": "H" 
			},
			{
				"x": -3.0881676568,
				"y": -0.9421425038,
				"z": -1.3278482457,
				"element": "H" 
			},
			{
				"x": -2.0396310111,
				"y": -2.8618985084,
				"z": -0.454608725,
				"element": "H" 
			},
			{
				"x": 1.6160418676,
				"y": -1.1734425591,
				"z": -0.5199370289,
				"element": "H" 
			}
		],
		 "valence_orbital": [ 
			{
				"type": "occ",
				"energy": -0.34563,
				"method": "rhf"
			},
			{
				"type": "occ",
				"energy": -0.27965,
				"method": "rhf"
			},
			{
				"type": "occ",
				"energy": -0.27157,
				"method": "rhf"
			},
			{
				"type": "occ",
				"energy": -0.22864,
				"method": "rhf"
			},
			{
				"type": "occ",
				"energy": -0.22807,
				"method": "rhf"
			},
			{
				"type": "unocc",
				"energy": -0.05252,
				"method": "rhf"
			},
			{
				"type": "unocc",
				"energy": -0.03475,
				"method": "rhf"
			},
			{
				"type": "unocc",
				"energy": 0.04219,
				"method": "rhf"
			},
			{
				"type": "unocc",
				"energy": 0.08789,
				"method": "rhf"
			},
			{
				"type": "unocc",
				"energy": 0.09307,
				"method": "rhf"
			}
		],
		"cosmo_sigma_profile": { 
			"-0.025": 0.0,
			"-0.024": 0.0,
			"-0.023": 0.0,
			"-0.022": 0.0,
			"-0.021": 0.0,
			"-0.02": 0.0,
			"-0.019": 0.0,
			"-0.018": 0.34130516088,
			"-0.017": 1.29683308764,
			"-0.016": 2.07187570382,
			"-0.015": 1.51900551459,
			"-0.014": 1.65294218161,
			"-0.013": 1.78880463005,
			"-0.012": 2.33164022483,
			"-0.011": 2.1013784287,
			"-0.01": 4.2540982401,
			"-0.009": 3.1876332887,
			"-0.008": 2.74623270253,
			"-0.007": 3.28380077765,
			"-0.006": 5.06128902048,
			"-0.005": 8.11067693731,
			"-0.004": 10.0758903503,
			"-0.003": 13.2939195111,
			"-0.002": 16.2997484473,
			"-0.001": 14.5358441357,
			"0.0": 10.6175871813,
			"0.001": 3.95923660114,
			"0.002": 3.70094264938,
			"0.003": 4.062240875,
			"0.004": 4.25501526935,
			"0.005": 4.29819633932,
			"0.006": 5.25408190908,
			"0.007": 4.29197691577,
			"0.008": 5.94492864311,
			"0.009": 9.67341606418,
			"0.01": 7.56905185086,
			"0.011": 4.97679332345,
			"0.012": 4.84092750941,
			"0.013": 3.47677052962,
			"0.014": 0.0633695487896,
			"0.015": 0.0,
			"0.016": 0.0,
			"0.017": 0.0,
			"0.018": 0.0,
			"0.019": 0.0,
			"0.02": 0.0,
			"0.021": 0.0,
			"0.022": 0.0,
			"0.023": 0.0,
			"0.024": 0.0,
			"0.025": 0.0
		}
	}
}
