{
	 "smiles": "NC1=CC(OCC(=O)NC2=CC=CC=C2)=CC=C1", 
	 "Tm": 394.15, 
	 "num_atms": 32, 
	 "gaussian": { 
		 "optdone": 1, 
		 "sigma_profile": "yes", 
		 "theory": "DFT", 
		 "functional": "B3LYP", 
		 "basiset": "6-31G**", 
		 "properties": { 
			 "R2extent": 6133.577, 
			 "electric_dipole_moment_norm": 3.26113924572, 
			 "electric_quadrupole_moment_norm": 19.4298662157, 
			 "total_energy": -801.877510914, 
			 "HOMO_LUMO_gap": 0.17934, 
			 "cosmo_polarized_energy": -18.17, 
			 "cosmo_cavitation_energy": 36.48, 
			 "cosmo_dispersion_energy": -25.91, 
			 "cosmo_repulsion_energy": 2.03, 
			 "cosmo_total_nonelectrostatic_energy": 12.6, 
			 "SMD_solvation_energy": 6.89 
		},
		"coords": [
			{
				"x": -0.2399279513,
				"y": 4.9069080093,
				"z": 2.8513427543,
				"element": "N" 
			},
			{
				"x": 0.6978723768,
				"y": 3.9661987471,
				"z": 2.4184972409,
				"element": "C" 
			},
			{
				"x": 0.2886709064,
				"y": 2.6481968789,
				"z": 2.1381612951,
				"element": "C" 
			},
			{
				"x": 1.2131176114,
				"y": 1.7226617814,
				"z": 1.6525727799,
				"element": "C" 
			},
			{
				"x": 0.902165856,
				"y": 0.4185427398,
				"z": 1.3494587582,
				"element": "O" 
			},
			{
				"x": -0.4310350735,
				"y": -0.0263821864,
				"z": 1.5720914006,
				"element": "C" 
			},
			{
				"x": -0.4637594464,
				"y": -1.5357063834,
				"z": 1.3259037791,
				"element": "C" 
			},
			{
				"x": -0.3174563016,
				"y": -2.3222976405,
				"z": 2.2498477226,
				"element": "O" 
			},
			{
				"x": -0.7045141752,
				"y": -1.9965051673,
				"z": 0.0494191156,
				"element": "N" 
			},
			{
				"x": -0.9441232971,
				"y": -1.3252263804,
				"z": -1.1748562719,
				"element": "C" 
			},
			{
				"x": -1.8967673951,
				"y": -1.8699467865,
				"z": -2.0499454109,
				"element": "C" 
			},
			{
				"x": -2.1454673397,
				"y": -1.267453261,
				"z": -3.2807633898,
				"element": "C" 
			},
			{
				"x": -1.46052086,
				"y": -0.1070243472,
				"z": -3.6487100465,
				"element": "C" 
			},
			{
				"x": -0.5099497682,
				"y": 0.4307903451,
				"z": -2.7805168134,
				"element": "C" 
			},
			{
				"x": -0.2337390874,
				"y": -0.17844514,
				"z": -1.5556071141,
				"element": "C" 
			},
			{
				"x": 2.5492861496,
				"y": 2.0854551435,
				"z": 1.4356016649,
				"element": "C" 
			},
			{
				"x": 2.9403949501,
				"y": 3.3906232556,
				"z": 1.7142605623,
				"element": "C" 
			},
			{
				"x": 2.0343474081,
				"y": 4.3326150784,
				"z": 2.2022908331,
				"element": "C" 
			},
			{
				"x": 0.1502923579,
				"y": 5.6994812583,
				"z": 3.3424941031,
				"element": "H" 
			},
			{
				"x": -1.0400096517,
				"y": 4.5245368101,
				"z": 3.336608211,
				"element": "H" 
			},
			{
				"x": -0.7486582163,
				"y": 2.375467954,
				"z": 2.2969587667,
				"element": "H" 
			},
			{
				"x": -0.7162588614,
				"y": 0.1144016565,
				"z": 2.6196160084,
				"element": "H" 
			},
			{
				"x": -1.13464726,
				"y": 0.510715906,
				"z": 0.9225177496,
				"element": "H" 
			},
			{
				"x": -0.8093378458,
				"y": -3.0043547314,
				"z": 0.0384706191,
				"element": "H" 
			},
			{
				"x": -2.4457806457,
				"y": -2.7603461131,
				"z": -1.7547515401,
				"element": "H" 
			},
			{
				"x": -2.8841053694,
				"y": -1.7012993617,
				"z": -3.9485523919,
				"element": "H" 
			},
			{
				"x": -1.6603293097,
				"y": 0.3668682576,
				"z": -4.6048287674,
				"element": "H" 
			},
			{
				"x": 0.0421818897,
				"y": 1.3226116721,
				"z": -3.0625434797,
				"element": "H" 
			},
			{
				"x": 0.5408927775,
				"y": 0.2142533806,
				"z": -0.9077638929,
				"element": "H" 
			},
			{
				"x": 3.2456469935,
				"y": 1.341853892,
				"z": 1.0650337187,
				"element": "H" 
			},
			{
				"x": 3.9746176425,
				"y": 3.6820472674,
				"z": 1.5534909477,
				"element": "H" 
			},
			{
				"x": 2.3563009359,
				"y": 5.3487574653,
				"z": 2.4129010875,
				"element": "H" 
			}
		],
		 "valence_orbital": [ 
			{
				"type": "occ",
				"energy": -0.25821,
				"method": "rhf"
			},
			{
				"type": "occ",
				"energy": -0.25696,
				"method": "rhf"
			},
			{
				"type": "occ",
				"energy": -0.2295,
				"method": "rhf"
			},
			{
				"type": "occ",
				"energy": -0.22757,
				"method": "rhf"
			},
			{
				"type": "occ",
				"energy": -0.19863,
				"method": "rhf"
			},
			{
				"type": "unocc",
				"energy": -0.01929,
				"method": "rhf"
			},
			{
				"type": "unocc",
				"energy": -0.0093,
				"method": "rhf"
			},
			{
				"type": "unocc",
				"energy": 0.0101,
				"method": "rhf"
			},
			{
				"type": "unocc",
				"energy": 0.01972,
				"method": "rhf"
			},
			{
				"type": "unocc",
				"energy": 0.02159,
				"method": "rhf"
			}
		],
		"cosmo_sigma_profile": { 
			"-0.025": 0.0,
			"-0.024": 0.0,
			"-0.023": 0.0,
			"-0.022": 0.0,
			"-0.021": 0.0,
			"-0.02": 0.0,
			"-0.019": 0.0,
			"-0.018": 0.0,
			"-0.017": 0.0,
			"-0.016": 0.0,
			"-0.015": 0.220273981653,
			"-0.014": 1.09465998207,
			"-0.013": 1.09647165281,
			"-0.012": 3.97788797265,
			"-0.011": 3.56731430929,
			"-0.01": 3.92909524084,
			"-0.009": 4.35166648391,
			"-0.008": 4.50582913392,
			"-0.007": 8.63157178764,
			"-0.006": 18.7234178428,
			"-0.005": 19.2494891093,
			"-0.004": 19.7424212355,
			"-0.003": 18.9873336418,
			"-0.002": 16.6857401688,
			"-0.001": 15.9644336599,
			"0.0": 14.5968638365,
			"0.001": 17.418319932,
			"0.002": 15.8032333991,
			"0.003": 16.847260131,
			"0.004": 18.1077531448,
			"0.005": 20.1746582865,
			"0.006": 14.6640259049,
			"0.007": 9.16940995753,
			"0.008": 3.77441111767,
			"0.009": 2.11317766122,
			"0.01": 2.18602738023,
			"0.011": 3.06413030775,
			"0.012": 3.85512783681,
			"0.013": 5.76074943196,
			"0.014": 2.03780378601,
			"0.015": 0.265364301976,
			"0.016": 0.0,
			"0.017": 0.0,
			"0.018": 0.0,
			"0.019": 0.0,
			"0.02": 0.0,
			"0.021": 0.0,
			"0.022": 0.0,
			"0.023": 0.0,
			"0.024": 0.0,
			"0.025": 0.0
		}
	}
}
