{
	 "smiles": "NC1CCC(C1)C(O)=O", 
	 "Tm": 465.15, 
	 "num_atms": 20, 
	 "gaussian": { 
		 "optdone": 1, 
		 "sigma_profile": "yes", 
		 "theory": "DFT", 
		 "functional": "B3LYP", 
		 "basiset": "6-31G**", 
		 "properties": { 
			 "R2extent": 1513.4054, 
			 "electric_dipole_moment_norm": 3.16381064541, 
			 "electric_quadrupole_moment_norm": 21.2896345537, 
			 "total_energy": -440.474609345, 
			 "HOMO_LUMO_gap": 0.25131, 
			 "cosmo_polarized_energy": -15.82, 
			 "cosmo_cavitation_energy": 22.12, 
			 "cosmo_dispersion_energy": -16.42, 
			 "cosmo_repulsion_energy": 1.38, 
			 "cosmo_total_nonelectrostatic_energy": 7.08, 
			 "SMD_solvation_energy": 3.47 
		},
		"coords": [
			{
				"x": -1.973644505,
				"y": 0.7341435342,
				"z": 0.8622598429,
				"element": "N" 
			},
			{
				"x": -0.5890850466,
				"y": 0.3865953313,
				"z": 0.5389284549,
				"element": "C" 
			},
			{
				"x": -0.3511071656,
				"y": -1.1296265805,
				"z": 0.5294968289,
				"element": "C" 
			},
			{
				"x": 0.9540657218,
				"y": -1.3044539346,
				"z": -0.2718380251,
				"element": "C" 
			},
			{
				"x": 1.0172879265,
				"y": -0.0976368416,
				"z": -1.2495589631,
				"element": "C" 
			},
			{
				"x": -0.2259197513,
				"y": 0.7824111645,
				"z": -0.9014951078,
				"element": "C" 
			},
			{
				"x": 2.3124663936,
				"y": 0.7033208461,
				"z": -1.1049259185,
				"element": "C" 
			},
			{
				"x": 2.5081701864,
				"y": 1.6524826972,
				"z": -2.0635864035,
				"element": "O" 
			},
			{
				"x": 3.1246858064,
				"y": 0.575749103,
				"z": -0.2223248121,
				"element": "O" 
			},
			{
				"x": -2.2008778127,
				"y": 0.3967298536,
				"z": 1.7953532403,
				"element": "H" 
			},
			{
				"x": -2.0772491116,
				"y": 1.7461988508,
				"z": 0.9010133978,
				"element": "H" 
			},
			{
				"x": 0.1495832014,
				"y": 0.8473446574,
				"z": 1.2199770586,
				"element": "H" 
			},
			{
				"x": -0.2876204311,
				"y": -1.5590082342,
				"z": 1.5351472752,
				"element": "H" 
			},
			{
				"x": -1.1997002216,
				"y": -1.6019222451,
				"z": 0.0195083479,
				"element": "H" 
			},
			{
				"x": 1.8267484644,
				"y": -1.2588811313,
				"z": 0.3848583991,
				"element": "H" 
			},
			{
				"x": 0.9909142644,
				"y": -2.2593823846,
				"z": -0.8029510459,
				"element": "H" 
			},
			{
				"x": 0.9574181799,
				"y": -0.426592948,
				"z": -2.2948753627,
				"element": "H" 
			},
			{
				"x": -1.0712934373,
				"y": 0.5167294809,
				"z": -1.5457130852,
				"element": "H" 
			},
			{
				"x": -0.0415724521,
				"y": 1.8562329239,
				"z": -1.0202755671,
				"element": "H" 
			},
			{
				"x": 1.7833297903,
				"y": 1.628765857,
				"z": -2.7043985547,
				"element": "H" 
			}
		],
		 "valence_orbital": [ 
			{
				"type": "occ",
				"energy": -0.33292,
				"method": "rhf"
			},
			{
				"type": "occ",
				"energy": -0.32681,
				"method": "rhf"
			},
			{
				"type": "occ",
				"energy": -0.31302,
				"method": "rhf"
			},
			{
				"type": "occ",
				"energy": -0.26773,
				"method": "rhf"
			},
			{
				"type": "occ",
				"energy": -0.24133,
				"method": "rhf"
			},
			{
				"type": "unocc",
				"energy": 0.00998,
				"method": "rhf"
			},
			{
				"type": "unocc",
				"energy": 0.05618,
				"method": "rhf"
			},
			{
				"type": "unocc",
				"energy": 0.07232,
				"method": "rhf"
			},
			{
				"type": "unocc",
				"energy": 0.09359,
				"method": "rhf"
			},
			{
				"type": "unocc",
				"energy": 0.10981,
				"method": "rhf"
			}
		],
		"cosmo_sigma_profile": { 
			"-0.025": 0.0,
			"-0.024": 0.0,
			"-0.023": 0.0,
			"-0.022": 0.0,
			"-0.021": 0.0,
			"-0.02": 0.0,
			"-0.019": 0.0432958149814,
			"-0.018": 0.716522326669,
			"-0.017": 0.927903876605,
			"-0.016": 1.23036477137,
			"-0.015": 1.03227871003,
			"-0.014": 0.972494417423,
			"-0.013": 0.675493301782,
			"-0.012": 1.0576839212,
			"-0.011": 1.51706012353,
			"-0.01": 2.39219967458,
			"-0.009": 3.31205291529,
			"-0.008": 3.7251629438,
			"-0.007": 4.74288784605,
			"-0.006": 6.26778307998,
			"-0.005": 6.20039594953,
			"-0.004": 10.4484849821,
			"-0.003": 15.8918598746,
			"-0.002": 18.7869218388,
			"-0.001": 18.5667688545,
			"0.0": 10.6794507107,
			"0.001": 10.7215890268,
			"0.002": 3.71990583471,
			"0.003": 3.36442011718,
			"0.004": 3.58880688614,
			"0.005": 3.26997880297,
			"0.006": 2.40548978754,
			"0.007": 3.75029751184,
			"0.008": 4.31840363665,
			"0.009": 3.72127364853,
			"0.01": 4.56691188341,
			"0.011": 6.33797405464,
			"0.012": 5.87031775858,
			"0.013": 2.74700468406,
			"0.014": 0.865351723202,
			"0.015": 0.514576312176,
			"0.016": 0.381460864685,
			"0.017": 0.556162996813,
			"0.018": 0.510029173777,
			"0.019": 0.505608825608,
			"0.02": 0.142270748145,
			"0.021": 0.0,
			"0.022": 0.0,
			"0.023": 0.0,
			"0.024": 0.0,
			"0.025": 0.0
		}
	}
}
