{
	 "smiles": "FC(F)(F)C1=CC(=NNC1=O)C1=CC=CC=C1", 
	 "Tm": 458.15, 
	 "num_atms": 24, 
	 "gaussian": { 
		 "optdone": 1, 
		 "sigma_profile": "yes", 
		 "theory": "DFT", 
		 "functional": "B3LYP", 
		 "basiset": "6-31G**", 
		 "properties": { 
			 "R2extent": 8205.8376, 
			 "electric_dipole_moment_norm": 4.87027815838, 
			 "electric_quadrupole_moment_norm": 24.2073765995, 
			 "total_energy": -907.622059331, 
			 "HOMO_LUMO_gap": 0.15045, 
			 "cosmo_polarized_energy": -13.17, 
			 "cosmo_cavitation_energy": 30.58, 
			 "cosmo_dispersion_energy": -22.02, 
			 "cosmo_repulsion_energy": 1.63, 
			 "cosmo_total_nonelectrostatic_energy": 10.18, 
			 "SMD_solvation_energy": 6.32 
		},
		"coords": [
			{
				"x": 3.4177495939,
				"y": 4.1928308526,
				"z": -3.3618436149,
				"element": "F" 
			},
			{
				"x": 2.6470637339,
				"y": 4.4767724291,
				"z": -2.2978434827,
				"element": "C" 
			},
			{
				"x": 3.4485990888,
				"y": 4.4791851012,
				"z": -1.2054328609,
				"element": "F" 
			},
			{
				"x": 2.1706523454,
				"y": 5.7242725976,
				"z": -2.45030734,
				"element": "F" 
			},
			{
				"x": 1.5304722111,
				"y": 3.4755122417,
				"z": -2.1456388624,
				"element": "C" 
			},
			{
				"x": 1.3994296704,
				"y": 2.7098485796,
				"z": -1.0315520404,
				"element": "C" 
			},
			{
				"x": 0.3170496318,
				"y": 1.7698215767,
				"z": -0.9053700033,
				"element": "C" 
			},
			{
				"x": -0.5746852699,
				"y": 1.6461381278,
				"z": -1.8642607833,
				"element": "N" 
			},
			{
				"x": -0.428844436,
				"y": 2.415613533,
				"z": -2.9461134981,
				"element": "N" 
			},
			{
				"x": 0.5671710974,
				"y": 3.3580745057,
				"z": -3.2400473169,
				"element": "C" 
			},
			{
				"x": 0.5597201615,
				"y": 3.9706421116,
				"z": -4.2975449996,
				"element": "O" 
			},
			{
				"x": 0.1436547009,
				"y": 0.9234434299,
				"z": 0.300043755,
				"element": "C" 
			},
			{
				"x": 1.2244622503,
				"y": 0.6327190556,
				"z": 1.1477784465,
				"element": "C" 
			},
			{
				"x": 1.0475622781,
				"y": -0.1682912017,
				"z": 2.2758442895,
				"element": "C" 
			},
			{
				"x": -0.2100649665,
				"y": -0.6925972322,
				"z": 2.5745960019,
				"element": "C" 
			},
			{
				"x": -1.2911120348,
				"y": -0.4135918475,
				"z": 1.7338592121,
				"element": "C" 
			},
			{
				"x": -1.1180847048,
				"y": 0.386262514,
				"z": 0.6081397109,
				"element": "C" 
			},
			{
				"x": 2.107826118,
				"y": 2.8265826665,
				"z": -0.2202054402,
				"element": "H" 
			},
			{
				"x": -1.1322174219,
				"y": 2.2852730851,
				"z": -3.6652013565,
				"element": "H" 
			},
			{
				"x": 2.217367218,
				"y": 1.0086856529,
				"z": 0.9213127648,
				"element": "H" 
			},
			{
				"x": 1.8966211479,
				"y": -0.3864004052,
				"z": 2.9167924195,
				"element": "H" 
			},
			{
				"x": -0.3477823224,
				"y": -1.3139837187,
				"z": 3.4544758578,
				"element": "H" 
			},
			{
				"x": -2.2742887067,
				"y": -0.8157990115,
				"z": 1.9601473527,
				"element": "H" 
			},
			{
				"x": -1.9564213843,
				"y": 0.6080853563,
				"z": -0.0428282116,
				"element": "H" 
			}
		],
		 "valence_orbital": [ 
			{
				"type": "occ",
				"energy": -0.32903,
				"method": "rhf"
			},
			{
				"type": "occ",
				"energy": -0.28309,
				"method": "rhf"
			},
			{
				"type": "occ",
				"energy": -0.26712,
				"method": "rhf"
			},
			{
				"type": "occ",
				"energy": -0.26555,
				"method": "rhf"
			},
			{
				"type": "occ",
				"energy": -0.23746,
				"method": "rhf"
			},
			{
				"type": "unocc",
				"energy": -0.08701,
				"method": "rhf"
			},
			{
				"type": "unocc",
				"energy": -0.045,
				"method": "rhf"
			},
			{
				"type": "unocc",
				"energy": -0.01533,
				"method": "rhf"
			},
			{
				"type": "unocc",
				"energy": 0.01651,
				"method": "rhf"
			},
			{
				"type": "unocc",
				"energy": 0.07974,
				"method": "rhf"
			}
		],
		"cosmo_sigma_profile": { 
			"-0.025": 0.0,
			"-0.024": 0.0,
			"-0.023": 0.0,
			"-0.022": 0.0,
			"-0.021": 0.0,
			"-0.02": 0.0,
			"-0.019": 0.0,
			"-0.018": 0.0,
			"-0.017": 0.406269152294,
			"-0.016": 1.42854909661,
			"-0.015": 0.87940493993,
			"-0.014": 1.1430125455,
			"-0.013": 0.846650066924,
			"-0.012": 0.781010023497,
			"-0.011": 0.657600415039,
			"-0.01": 1.74030513364,
			"-0.009": 2.83156403294,
			"-0.008": 3.24901678002,
			"-0.007": 3.26946312435,
			"-0.006": 10.3721916682,
			"-0.005": 15.705994754,
			"-0.004": 19.0388850181,
			"-0.003": 19.0660951821,
			"-0.002": 15.6372105976,
			"-0.001": 14.3185548846,
			"0.0": 13.6705393868,
			"0.001": 16.1845812932,
			"0.002": 31.93317949,
			"0.003": 23.5709008543,
			"0.004": 15.0177071516,
			"0.005": 10.4784919932,
			"0.006": 3.94576924556,
			"0.007": 3.25648447791,
			"0.008": 1.97356997293,
			"0.009": 2.64546977895,
			"0.01": 2.32401235745,
			"0.011": 1.84435792181,
			"0.012": 5.00869659159,
			"0.013": 3.25331673957,
			"0.014": 0.0487052657036,
			"0.015": 0.0,
			"0.016": 0.0,
			"0.017": 0.0,
			"0.018": 0.0,
			"0.019": 0.0,
			"0.02": 0.0,
			"0.021": 0.0,
			"0.022": 0.0,
			"0.023": 0.0,
			"0.024": 0.0,
			"0.025": 0.0
		}
	}
}
