{
	 "smiles": "OC(=O)C=CC(=O)NC1=CC=C(F)C=C1", 
	 "Tm": 483.15, 
	 "num_atms": 23, 
	 "gaussian": { 
		 "optdone": 1, 
		 "sigma_profile": "yes", 
		 "theory": "DFT", 
		 "functional": "B3LYP", 
		 "basiset": "6-31G**", 
		 "properties": { 
			 "R2extent": 4555.927, 
			 "electric_dipole_moment_norm": 4.11754085468, 
			 "electric_quadrupole_moment_norm": 22.415741037, 
			 "total_energy": -766.129788569, 
			 "HOMO_LUMO_gap": 0.16196, 
			 "cosmo_polarized_energy": -21.38, 
			 "cosmo_cavitation_energy": 29.76, 
			 "cosmo_dispersion_energy": -20.47, 
			 "cosmo_repulsion_energy": 1.62, 
			 "cosmo_total_nonelectrostatic_energy": 10.91, 
			 "SMD_solvation_energy": 7.77 
		},
		"coords": [
			{
				"x": -3.1292002648,
				"y": -0.4190836938,
				"z": 3.4492638859,
				"element": "O" 
			},
			{
				"x": -3.0814052417,
				"y": -0.7708758857,
				"z": 2.1383966774,
				"element": "C" 
			},
			{
				"x": -3.9796581064,
				"y": -0.470505046,
				"z": 1.3889336782,
				"element": "O" 
			},
			{
				"x": -1.892365198,
				"y": -1.5444140688,
				"z": 1.669874402,
				"element": "C" 
			},
			{
				"x": -1.0995486471,
				"y": -2.2835092913,
				"z": 2.4577346503,
				"element": "C" 
			},
			{
				"x": -0.0455423152,
				"y": -3.2466263136,
				"z": 2.0082271329,
				"element": "C" 
			},
			{
				"x": 0.111276334,
				"y": -4.2846007856,
				"z": 2.640145856,
				"element": "O" 
			},
			{
				"x": 0.6778897019,
				"y": -2.9984115159,
				"z": 0.8620019155,
				"element": "N" 
			},
			{
				"x": 0.9069278273,
				"y": -1.7780756202,
				"z": 0.1654220565,
				"element": "C" 
			},
			{
				"x": 0.8250540819,
				"y": -1.76759369,
				"z": -1.2331321643,
				"element": "C" 
			},
			{
				"x": 1.0902258806,
				"y": -0.6015091327,
				"z": -1.9494332533,
				"element": "C" 
			},
			{
				"x": 1.4172047685,
				"y": 0.5546004574,
				"z": -1.2496499215,
				"element": "C" 
			},
			{
				"x": 1.6636158648,
				"y": 1.6876263293,
				"z": -1.9345723395,
				"element": "F" 
			},
			{
				"x": 1.5038235927,
				"y": 0.572149407,
				"z": 0.1386521356,
				"element": "C" 
			},
			{
				"x": 1.263432926,
				"y": -0.6048559069,
				"z": 0.8442467774,
				"element": "C" 
			},
			{
				"x": -2.2874756133,
				"y": -0.6144156423,
				"z": 3.8839006575,
				"element": "H" 
			},
			{
				"x": -1.7647569503,
				"y": -1.5262220141,
				"z": 0.5929372522,
				"element": "H" 
			},
			{
				"x": -1.2897730021,
				"y": -2.3761791266,
				"z": 3.5254930691,
				"element": "H" 
			},
			{
				"x": 1.2543922585,
				"y": -3.7920753115,
				"z": 0.606615895,
				"element": "H" 
			},
			{
				"x": 0.5466791512,
				"y": -2.676462565,
				"z": -1.757904925,
				"element": "H" 
			},
			{
				"x": 1.0337549926,
				"y": -0.5763637132,
				"z": -3.0319888925,
				"element": "H" 
			},
			{
				"x": 1.7761377353,
				"y": 1.4907220039,
				"z": 0.6466149017,
				"element": "H" 
			},
			{
				"x": 1.3597102236,
				"y": -0.6170188745,
				"z": 1.9246205529,
				"element": "H" 
			}
		],
		 "valence_orbital": [ 
			{
				"type": "occ",
				"energy": -0.30155,
				"method": "rhf"
			},
			{
				"type": "occ",
				"energy": -0.29021,
				"method": "rhf"
			},
			{
				"type": "occ",
				"energy": -0.28216,
				"method": "rhf"
			},
			{
				"type": "occ",
				"energy": -0.26856,
				"method": "rhf"
			},
			{
				"type": "occ",
				"energy": -0.2468,
				"method": "rhf"
			},
			{
				"type": "unocc",
				"energy": -0.08484,
				"method": "rhf"
			},
			{
				"type": "unocc",
				"energy": -0.03394,
				"method": "rhf"
			},
			{
				"type": "unocc",
				"energy": -0.02368,
				"method": "rhf"
			},
			{
				"type": "unocc",
				"energy": 0.02298,
				"method": "rhf"
			},
			{
				"type": "unocc",
				"energy": 0.05273,
				"method": "rhf"
			}
		],
		"cosmo_sigma_profile": { 
			"-0.025": 0.0,
			"-0.024": 0.0,
			"-0.023": 0.0,
			"-0.022": 0.0,
			"-0.021": 0.0,
			"-0.02": 0.0216082998633,
			"-0.019": 0.777932702931,
			"-0.018": 1.05042724797,
			"-0.017": 1.0600642277,
			"-0.016": 0.962202276908,
			"-0.015": 1.43715619844,
			"-0.014": 2.24629441671,
			"-0.013": 2.19520965928,
			"-0.012": 2.06064188047,
			"-0.011": 2.21608917324,
			"-0.01": 2.17794034002,
			"-0.009": 2.26668456621,
			"-0.008": 5.40755959361,
			"-0.007": 10.9782295964,
			"-0.006": 12.7528343775,
			"-0.005": 13.9020339111,
			"-0.004": 11.85043443,
			"-0.003": 12.6160200865,
			"-0.002": 12.1385786129,
			"-0.001": 14.2229938116,
			"0.0": 15.6979855033,
			"0.001": 17.2210856815,
			"0.002": 15.4880231709,
			"0.003": 13.5543153016,
			"0.004": 13.9247119775,
			"0.005": 5.05663351752,
			"0.006": 3.28029877634,
			"0.007": 4.64625420738,
			"0.008": 3.32113066834,
			"0.009": 5.17374483952,
			"0.01": 6.59946712495,
			"0.011": 7.5961721318,
			"0.012": 8.34692128854,
			"0.013": 5.58178933751,
			"0.014": 0.61664377118,
			"0.015": 0.0,
			"0.016": 0.0,
			"0.017": 0.0,
			"0.018": 0.0,
			"0.019": 0.0,
			"0.02": 0.0,
			"0.021": 0.0,
			"0.022": 0.0,
			"0.023": 0.0,
			"0.024": 0.0,
			"0.025": 0.0
		}
	}
}
