{
	 "smiles": "CS(=O)(=O)NC1=CC=C(C=C1)C(O)=O", 
	 "Tm": 472.15, 
	 "num_atms": 23, 
	 "gaussian": { 
		 "optdone": 1, 
		 "sigma_profile": "yes", 
		 "theory": "DFT", 
		 "functional": "B3LYP", 
		 "basiset": "6-31G**", 
		 "properties": { 
			 "R2extent": 4490.4149, 
			 "electric_dipole_moment_norm": 4.88198482996, 
			 "electric_quadrupole_moment_norm": 32.1367254846, 
			 "total_energy": -1064.05225354, 
			 "HOMO_LUMO_gap": 0.194, 
			 "cosmo_polarized_energy": -26.34, 
			 "cosmo_cavitation_energy": 29.0, 
			 "cosmo_dispersion_energy": -21.72, 
			 "cosmo_repulsion_energy": 1.65, 
			 "cosmo_total_nonelectrostatic_energy": 8.94, 
			 "SMD_solvation_energy": 5.82 
		},
		"coords": [
			{
				"x": 3.0150514187,
				"y": 0.2245503279,
				"z": -2.1013848856,
				"element": "C" 
			},
			{
				"x": 1.930130889,
				"y": 1.5109007126,
				"z": -2.7509155021,
				"element": "S" 
			},
			{
				"x": 2.0898426104,
				"y": 1.5794649214,
				"z": -4.2013002075,
				"element": "O" 
			},
			{
				"x": 2.0830583511,
				"y": 2.6846928461,
				"z": -1.8952798509,
				"element": "O" 
			},
			{
				"x": 0.3659466027,
				"y": 0.891067909,
				"z": -2.5478477082,
				"element": "N" 
			},
			{
				"x": -0.2419726415,
				"y": 0.5085648368,
				"z": -1.3371992308,
				"element": "C" 
			},
			{
				"x": 0.0686224313,
				"y": 1.1269679499,
				"z": -0.1128545502,
				"element": "C" 
			},
			{
				"x": -0.5686056912,
				"y": 0.7084536159,
				"z": 1.0483938872,
				"element": "C" 
			},
			{
				"x": -1.5500513493,
				"y": -0.2921651536,
				"z": 1.0234128698,
				"element": "C" 
			},
			{
				"x": -1.8576163754,
				"y": -0.8976501495,
				"z": -0.2032830747,
				"element": "C" 
			},
			{
				"x": -1.2058228853,
				"y": -0.5127289577,
				"z": -1.3689895392,
				"element": "C" 
			},
			{
				"x": -2.1854881624,
				"y": -0.6835379169,
				"z": 2.3193431138,
				"element": "C" 
			},
			{
				"x": -3.3803892628,
				"y": -1.3330798245,
				"z": 2.2461455143,
				"element": "O" 
			},
			{
				"x": -1.6900672176,
				"y": -0.4539615883,
				"z": 3.3978216384,
				"element": "O" 
			},
			{
				"x": 2.9167194008,
				"y": -0.6672656344,
				"z": -2.7211408319,
				"element": "H" 
			},
			{
				"x": 2.741564744,
				"y": 0.01898188,
				"z": -1.0653155667,
				"element": "H" 
			},
			{
				"x": 4.0324661161,
				"y": 0.6162397953,
				"z": -2.1520203013,
				"element": "H" 
			},
			{
				"x": 0.0475528249,
				"y": 0.4317950431,
				"z": -3.3931217055,
				"element": "H" 
			},
			{
				"x": 0.7871804869,
				"y": 1.9371108056,
				"z": -0.0843306372,
				"element": "H" 
			},
			{
				"x": -0.326516716,
				"y": 1.166777719,
				"z": 2.0012696901,
				"element": "H" 
			},
			{
				"x": -2.5737051265,
				"y": -1.7139469475,
				"z": -0.2592119318,
				"element": "H" 
			},
			{
				"x": -1.4364244972,
				"y": -1.0087219971,
				"z": -2.308042109,
				"element": "H" 
			},
			{
				"x": -3.7362759506,
				"y": -1.2785101929,
				"z": 1.3487509189,
				"element": "H" 
			}
		],
		 "valence_orbital": [ 
			{
				"type": "occ",
				"energy": -0.32004,
				"method": "rhf"
			},
			{
				"type": "occ",
				"energy": -0.31635,
				"method": "rhf"
			},
			{
				"type": "occ",
				"energy": -0.28328,
				"method": "rhf"
			},
			{
				"type": "occ",
				"energy": -0.27675,
				"method": "rhf"
			},
			{
				"type": "occ",
				"energy": -0.2493,
				"method": "rhf"
			},
			{
				"type": "unocc",
				"energy": -0.0553,
				"method": "rhf"
			},
			{
				"type": "unocc",
				"energy": -0.03427,
				"method": "rhf"
			},
			{
				"type": "unocc",
				"energy": 0.03337,
				"method": "rhf"
			},
			{
				"type": "unocc",
				"energy": 0.0455,
				"method": "rhf"
			},
			{
				"type": "unocc",
				"energy": 0.04902,
				"method": "rhf"
			}
		],
		"cosmo_sigma_profile": { 
			"-0.025": 0.0,
			"-0.024": 0.0,
			"-0.023": 0.0,
			"-0.022": 0.0,
			"-0.021": 0.0,
			"-0.02": 0.0,
			"-0.019": 0.130965987196,
			"-0.018": 0.955446178845,
			"-0.017": 1.14918598331,
			"-0.016": 1.51067142686,
			"-0.015": 2.35924255523,
			"-0.014": 2.18581551719,
			"-0.013": 2.35831117466,
			"-0.012": 2.36076111172,
			"-0.011": 2.27913582571,
			"-0.01": 3.86329509701,
			"-0.009": 6.28731444642,
			"-0.008": 8.90243076318,
			"-0.007": 10.536249551,
			"-0.006": 12.8616864731,
			"-0.005": 15.2823685915,
			"-0.004": 11.2746633145,
			"-0.003": 9.1893965376,
			"-0.002": 8.743858768,
			"-0.001": 9.66044626517,
			"0.0": 8.99454994999,
			"0.001": 9.87319208868,
			"0.002": 15.9839320585,
			"0.003": 14.8322431013,
			"0.004": 6.34878974442,
			"0.005": 4.68156312431,
			"0.006": 5.6675778662,
			"0.007": 5.57650372639,
			"0.008": 5.14712947153,
			"0.009": 7.81807756902,
			"0.01": 12.9524486274,
			"0.011": 13.5035721817,
			"0.012": 6.14457417437,
			"0.013": 2.1469969485,
			"0.014": 0.164033588438,
			"0.015": 0.0,
			"0.016": 0.0,
			"0.017": 0.0,
			"0.018": 0.0,
			"0.019": 0.0,
			"0.02": 0.0,
			"0.021": 0.0,
			"0.022": 0.0,
			"0.023": 0.0,
			"0.024": 0.0,
			"0.025": 0.0
		}
	}
}
