{
	 "smiles": "NS(=O)(=O)C1=CC=C(SCCO)C(F)=C1", 
	 "Tm": 383.15, 
	 "num_atms": 25, 
	 "gaussian": { 
		 "optdone": 1, 
		 "sigma_profile": "yes", 
		 "theory": "DFT", 
		 "functional": "B3LYP", 
		 "basiset": "6-31G**", 
		 "properties": { 
			 "R2extent": 5547.5709, 
			 "electric_dipole_moment_norm": 5.90503052659, 
			 "electric_quadrupole_moment_norm": 15.2090758733, 
			 "total_energy": -1487.42507211, 
			 "HOMO_LUMO_gap": 0.18459, 
			 "cosmo_polarized_energy": -19.89, 
			 "cosmo_cavitation_energy": 32.36, 
			 "cosmo_dispersion_energy": -24.01, 
			 "cosmo_repulsion_energy": 1.82, 
			 "cosmo_total_nonelectrostatic_energy": 10.17, 
			 "SMD_solvation_energy": 5.24 
		},
		"coords": [
			{
				"x": 3.7543764976,
				"y": -0.838459166,
				"z": 2.4458170988,
				"element": "N" 
			},
			{
				"x": 3.3998884196,
				"y": -2.2322287401,
				"z": 1.5462775428,
				"element": "S" 
			},
			{
				"x": 4.5747616481,
				"y": -2.4982763248,
				"z": 0.7114954336,
				"element": "O" 
			},
			{
				"x": 2.8500251355,
				"y": -3.2268307297,
				"z": 2.4723392923,
				"element": "O" 
			},
			{
				"x": 2.0707980458,
				"y": -1.7049867157,
				"z": 0.4675232024,
				"element": "C" 
			},
			{
				"x": 2.3710798809,
				"y": -1.1285631299,
				"z": -0.7663836885,
				"element": "C" 
			},
			{
				"x": 1.3267271696,
				"y": -0.7041338463,
				"z": -1.5852878534,
				"element": "C" 
			},
			{
				"x": -0.0127812074,
				"y": -0.8640976158,
				"z": -1.2014147526,
				"element": "C" 
			},
			{
				"x": -1.2998271595,
				"y": -0.4175999135,
				"z": -2.3487587979,
				"element": "S" 
			},
			{
				"x": -2.4864362369,
				"y": 0.5836367937,
				"z": -1.3568284709,
				"element": "C" 
			},
			{
				"x": -1.9999597882,
				"y": 1.9764698915,
				"z": -0.9873163575,
				"element": "C" 
			},
			{
				"x": -0.9721323609,
				"y": 1.8463713376,
				"z": -0.0189490949,
				"element": "O" 
			},
			{
				"x": -0.2641175068,
				"y": -1.4795593116,
				"z": 0.0319717814,
				"element": "C" 
			},
			{
				"x": -1.5375469679,
				"y": -1.6987955733,
				"z": 0.4167842525,
				"element": "F" 
			},
			{
				"x": 0.7516334445,
				"y": -1.8919044922,
				"z": 0.8803983316,
				"element": "C" 
			},
			{
				"x": 3.5237892759,
				"y": -0.9984848672,
				"z": 3.423034829,
				"element": "H" 
			},
			{
				"x": 4.7395534281,
				"y": -0.6152095624,
				"z": 2.3301572096,
				"element": "H" 
			},
			{
				"x": 3.4032506856,
				"y": -1.0184676916,
				"z": -1.078333547,
				"element": "H" 
			},
			{
				"x": 1.542509369,
				"y": -0.2366139322,
				"z": -2.5404007514,
				"element": "H" 
			},
			{
				"x": -2.7656415426,
				"y": 0.025671926,
				"z": -0.462546793,
				"element": "H" 
			},
			{
				"x": -3.3646156165,
				"y": 0.6573917123,
				"z": -2.0056507257,
				"element": "H" 
			},
			{
				"x": -2.8594625943,
				"y": 2.5406859947,
				"z": -0.5849417198,
				"element": "H" 
			},
			{
				"x": -1.64920479,
				"y": 2.4991461115,
				"z": -1.8893947222,
				"element": "H" 
			},
			{
				"x": -0.5612648005,
				"y": 2.7093883815,
				"z": 0.1112130921,
				"element": "H" 
			},
			{
				"x": 0.5144975714,
				"y": -2.3763505368,
				"z": 1.8201952091,
				"element": "H" 
			}
		],
		 "valence_orbital": [ 
			{
				"type": "occ",
				"energy": -0.30269,
				"method": "rhf"
			},
			{
				"type": "occ",
				"energy": -0.28369,
				"method": "rhf"
			},
			{
				"type": "occ",
				"energy": -0.27467,
				"method": "rhf"
			},
			{
				"type": "occ",
				"energy": -0.2631,
				"method": "rhf"
			},
			{
				"type": "occ",
				"energy": -0.22874,
				"method": "rhf"
			},
			{
				"type": "unocc",
				"energy": -0.04415,
				"method": "rhf"
			},
			{
				"type": "unocc",
				"energy": -0.01752,
				"method": "rhf"
			},
			{
				"type": "unocc",
				"energy": 0.03047,
				"method": "rhf"
			},
			{
				"type": "unocc",
				"energy": 0.05282,
				"method": "rhf"
			},
			{
				"type": "unocc",
				"energy": 0.06138,
				"method": "rhf"
			}
		],
		"cosmo_sigma_profile": { 
			"-0.025": 0.0,
			"-0.024": 0.0,
			"-0.023": 0.0,
			"-0.022": 0.0,
			"-0.021": 0.0,
			"-0.02": 0.0,
			"-0.019": 0.0,
			"-0.018": 0.0,
			"-0.017": 2.10073528941e-05,
			"-0.016": 0.624412838674,
			"-0.015": 2.42199099279,
			"-0.014": 3.58991237141,
			"-0.013": 3.15164535674,
			"-0.012": 3.38970090247,
			"-0.011": 3.58814734782,
			"-0.01": 2.59093857549,
			"-0.009": 2.78207630041,
			"-0.008": 4.53045676451,
			"-0.007": 8.88057625334,
			"-0.006": 11.7090656905,
			"-0.005": 12.8154144389,
			"-0.004": 19.1010066956,
			"-0.003": 14.954892641,
			"-0.002": 13.2439081826,
			"-0.001": 13.7526403265,
			"0.0": 17.5611028522,
			"0.001": 13.7528981929,
			"0.002": 13.9076491293,
			"0.003": 16.7582594017,
			"0.004": 12.8381320541,
			"0.005": 9.31986060236,
			"0.006": 8.17529217195,
			"0.007": 7.06619944026,
			"0.008": 7.98557591164,
			"0.009": 7.74609063759,
			"0.01": 9.90058405083,
			"0.011": 9.24296209924,
			"0.012": 2.61677400558,
			"0.013": 0.733627342189,
			"0.014": 0.0,
			"0.015": 0.0,
			"0.016": 0.0,
			"0.017": 0.0,
			"0.018": 0.0,
			"0.019": 0.0,
			"0.02": 0.0,
			"0.021": 0.0,
			"0.022": 0.0,
			"0.023": 0.0,
			"0.024": 0.0,
			"0.025": 0.0
		}
	}
}
