{
	 "smiles": "COCCCC(N)=NO", 
	 "Tm": 358.15, 
	 "num_atms": 21, 
	 "gaussian": { 
		 "optdone": 1, 
		 "sigma_profile": "yes", 
		 "theory": "DFT", 
		 "functional": "B3LYP", 
		 "basiset": "6-31G**", 
		 "properties": { 
			 "R2extent": 1875.2941, 
			 "electric_dipole_moment_norm": 2.33321765166, 
			 "electric_quadrupole_moment_norm": 5.54121739602, 
			 "total_energy": -457.65489875, 
			 "HOMO_LUMO_gap": 0.24877, 
			 "cosmo_polarized_energy": -10.9, 
			 "cosmo_cavitation_energy": 23.52, 
			 "cosmo_dispersion_energy": -17.35, 
			 "cosmo_repulsion_energy": 1.47, 
			 "cosmo_total_nonelectrostatic_energy": 7.64, 
			 "SMD_solvation_energy": 4.41 
		},
		"coords": [
			{
				"x": 1.0026192668,
				"y": -1.5294893777,
				"z": -3.2616162079,
				"element": "C" 
			},
			{
				"x": 0.9182627891,
				"y": -0.9963716702,
				"z": -1.9545417131,
				"element": "O" 
			},
			{
				"x": 0.3001976584,
				"y": -1.8937759756,
				"z": -1.0349082598,
				"element": "C" 
			},
			{
				"x": 0.4085694701,
				"y": -1.3250908601,
				"z": 0.3781989905,
				"element": "C" 
			},
			{
				"x": -0.0088295258,
				"y": 0.1531103527,
				"z": 0.5360609772,
				"element": "C" 
			},
			{
				"x": -1.4092029374,
				"y": 0.4909636132,
				"z": 0.0914956078,
				"element": "C" 
			},
			{
				"x": -1.6941047199,
				"y": 0.4225440188,
				"z": -1.2503335755,
				"element": "N" 
			},
			{
				"x": -2.263489304,
				"y": 0.8065778167,
				"z": 1.0077455058,
				"element": "N" 
			},
			{
				"x": -3.524225269,
				"y": 1.1026417749,
				"z": 0.389137029,
				"element": "O" 
			},
			{
				"x": 0.0087584553,
				"y": -1.7621402832,
				"z": -3.6750940624,
				"element": "H" 
			},
			{
				"x": 1.6071814998,
				"y": -2.4490621202,
				"z": -3.2843861622,
				"element": "H" 
			},
			{
				"x": 1.4823106798,
				"y": -0.7765013936,
				"z": -3.8919903229,
				"element": "H" 
			},
			{
				"x": -0.752762102,
				"y": -2.0410970802,
				"z": -1.3153989567,
				"element": "H" 
			},
			{
				"x": 0.7998477441,
				"y": -2.8751874217,
				"z": -1.077500611,
				"element": "H" 
			},
			{
				"x": -0.2018669093,
				"y": -1.952495585,
				"z": 1.0384240024,
				"element": "H" 
			},
			{
				"x": 1.4465211946,
				"y": -1.4142398428,
				"z": 0.71989789,
				"element": "H" 
			},
			{
				"x": 0.6956069861,
				"y": 0.7772483174,
				"z": -0.0264439584,
				"element": "H" 
			},
			{
				"x": 0.0717754629,
				"y": 0.4325047181,
				"z": 1.5893004078,
				"element": "H" 
			},
			{
				"x": -0.9076791346,
				"y": 0.4221546602,
				"z": -1.8835026787,
				"element": "H" 
			},
			{
				"x": -2.5475959107,
				"y": 0.8750985426,
				"z": -1.5422193441,
				"element": "H" 
			},
			{
				"x": -4.0448953944,
				"y": 1.3973077956,
				"z": 1.1452754423,
				"element": "H" 
			}
		],
		 "valence_orbital": [ 
			{
				"type": "occ",
				"energy": -0.32112,
				"method": "rhf"
			},
			{
				"type": "occ",
				"energy": -0.29394,
				"method": "rhf"
			},
			{
				"type": "occ",
				"energy": -0.26447,
				"method": "rhf"
			},
			{
				"type": "occ",
				"energy": -0.25748,
				"method": "rhf"
			},
			{
				"type": "occ",
				"energy": -0.19769,
				"method": "rhf"
			},
			{
				"type": "unocc",
				"energy": 0.05108,
				"method": "rhf"
			},
			{
				"type": "unocc",
				"energy": 0.07631,
				"method": "rhf"
			},
			{
				"type": "unocc",
				"energy": 0.09112,
				"method": "rhf"
			},
			{
				"type": "unocc",
				"energy": 0.11712,
				"method": "rhf"
			},
			{
				"type": "unocc",
				"energy": 0.12488,
				"method": "rhf"
			}
		],
		"cosmo_sigma_profile": { 
			"-0.025": 0.0,
			"-0.024": 0.0,
			"-0.023": 0.0,
			"-0.022": 0.0,
			"-0.021": 0.0,
			"-0.02": 0.0,
			"-0.019": 0.0,
			"-0.018": 0.0,
			"-0.017": 0.0,
			"-0.016": 0.469432644801,
			"-0.015": 1.19856078249,
			"-0.014": 0.796529280713,
			"-0.013": 0.391083697903,
			"-0.012": 0.900320447804,
			"-0.011": 1.36632532592,
			"-0.01": 1.47601122558,
			"-0.009": 2.26047130283,
			"-0.008": 2.60834609934,
			"-0.007": 2.29924766927,
			"-0.006": 2.48257907632,
			"-0.005": 4.30036734148,
			"-0.004": 16.3833110022,
			"-0.003": 26.5912213789,
			"-0.002": 30.2209019962,
			"-0.001": 19.4333513795,
			"0.0": 8.89139165545,
			"0.001": 6.52878355552,
			"0.002": 5.13712117282,
			"0.003": 3.9593493369,
			"0.004": 5.31864222308,
			"0.005": 4.70623993883,
			"0.006": 4.42680380473,
			"0.007": 4.43946963826,
			"0.008": 5.43304611012,
			"0.009": 5.76350988352,
			"0.01": 4.52048504677,
			"0.011": 3.52005954624,
			"0.012": 2.35043913075,
			"0.013": 1.46885235537,
			"0.014": 0.853409222535,
			"0.015": 1.22709419996,
			"0.016": 0.714171007002,
			"0.017": 0.0283662688506,
			"0.018": 0.0,
			"0.019": 0.0,
			"0.02": 0.0,
			"0.021": 0.0,
			"0.022": 0.0,
			"0.023": 0.0,
			"0.024": 0.0,
			"0.025": 0.0
		}
	}
}
