{
	 "smiles": "CC(C)(C)C1=CC=C(C=C1)C(=O)CC#N", 
	 "Tm": 352.15, 
	 "num_atms": 30, 
	 "gaussian": { 
		 "optdone": 1, 
		 "sigma_profile": "yes", 
		 "theory": "DFT", 
		 "functional": "B3LYP", 
		 "basiset": "6-31G**", 
		 "properties": { 
			 "R2extent": 4498.7754, 
			 "electric_dipole_moment_norm": 4.4137685372, 
			 "electric_quadrupole_moment_norm": 15.8012942302, 
			 "total_energy": -634.392733048, 
			 "HOMO_LUMO_gap": 0.18811, 
			 "cosmo_polarized_energy": -12.62, 
			 "cosmo_cavitation_energy": 33.41, 
			 "cosmo_dispersion_energy": -22.84, 
			 "cosmo_repulsion_energy": 1.78, 
			 "cosmo_total_nonelectrostatic_energy": 12.35, 
			 "SMD_solvation_energy": 7.7 
		},
		"coords": [
			{
				"x": 1.8950818566,
				"y": 1.3222019318,
				"z": -1.9958654912,
				"element": "C" 
			},
			{
				"x": 0.479453638,
				"y": 0.6969023633,
				"z": -2.0313781351,
				"element": "C" 
			},
			{
				"x": -0.5569240623,
				"y": 1.7903761887,
				"z": -2.3868380001,
				"element": "C" 
			},
			{
				"x": 0.451982963,
				"y": -0.3718691009,
				"z": -3.1404489723,
				"element": "C" 
			},
			{
				"x": 0.1479578497,
				"y": 0.1135186464,
				"z": -0.6473675158,
				"element": "C" 
			},
			{
				"x": 0.1278880892,
				"y": 0.9544591082,
				"z": 0.4800170728,
				"element": "C" 
			},
			{
				"x": -0.163415179,
				"y": 0.4685227777,
				"z": 1.7495012144,
				"element": "C" 
			},
			{
				"x": -0.4493104611,
				"y": -0.8931549518,
				"z": 1.9404146232,
				"element": "C" 
			},
			{
				"x": -0.4336150938,
				"y": -1.7413614057,
				"z": 0.8235424327,
				"element": "C" 
			},
			{
				"x": -0.1401540891,
				"y": -1.2461500081,
				"z": -0.4425862248,
				"element": "C" 
			},
			{
				"x": -0.7835505531,
				"y": -1.484123133,
				"z": 3.2618813007,
				"element": "C" 
			},
			{
				"x": -1.0722764005,
				"y": -2.6593086767,
				"z": 3.3999213431,
				"element": "O" 
			},
			{
				"x": -0.8142620213,
				"y": -0.5728374015,
				"z": 4.5185064376,
				"element": "C" 
			},
			{
				"x": 0.4826292609,
				"y": 0.0047275577,
				"z": 4.868426086,
				"element": "C" 
			},
			{
				"x": 1.5164094223,
				"y": 0.4578123746,
				"z": 5.1402124773,
				"element": "N" 
			},
			{
				"x": 1.969777104,
				"y": 2.1249596498,
				"z": -1.2566115039,
				"element": "H" 
			},
			{
				"x": 2.1443911146,
				"y": 1.7465865272,
				"z": -2.9746120011,
				"element": "H" 
			},
			{
				"x": 2.6508770127,
				"y": 0.5694567863,
				"z": -1.7496232016,
				"element": "H" 
			},
			{
				"x": -0.5555555842,
				"y": 2.6075870734,
				"z": -1.6596607268,
				"element": "H" 
			},
			{
				"x": -0.3307628379,
				"y": 2.2191845422,
				"z": -3.369235461,
				"element": "H" 
			},
			{
				"x": -1.569458751,
				"y": 1.3752969294,
				"z": -2.4228813085,
				"element": "H" 
			},
			{
				"x": 0.6930258174,
				"y": 0.0919554554,
				"z": -4.1020694041,
				"element": "H" 
			},
			{
				"x": -0.5351631899,
				"y": -0.8356046902,
				"z": -3.2374028124,
				"element": "H" 
			},
			{
				"x": 1.1876699441,
				"y": -1.1632274574,
				"z": -2.9637463124,
				"element": "H" 
			},
			{
				"x": 0.3476226937,
				"y": 2.011501209,
				"z": 0.3688320006,
				"element": "H" 
			},
			{
				"x": -0.1529721525,
				"y": 1.1579998665,
				"z": 2.5871368846,
				"element": "H" 
			},
			{
				"x": -0.6560233068,
				"y": -2.7929002289,
				"z": 0.9713004557,
				"element": "H" 
			},
			{
				"x": -0.1368925257,
				"y": -1.9353257672,
				"z": -1.2786614588,
				"element": "H" 
			},
			{
				"x": -1.535706851,
				"y": 0.2399028384,
				"z": 4.3699062283,
				"element": "H" 
			},
			{
				"x": -1.1690237071,
				"y": -1.1968890046,
				"z": 5.342589973,
				"element": "H" 
			}
		],
		 "valence_orbital": [ 
			{
				"type": "occ",
				"energy": -0.32894,
				"method": "rhf"
			},
			{
				"type": "occ",
				"energy": -0.32735,
				"method": "rhf"
			},
			{
				"type": "occ",
				"energy": -0.26744,
				"method": "rhf"
			},
			{
				"type": "occ",
				"energy": -0.26683,
				"method": "rhf"
			},
			{
				"type": "occ",
				"energy": -0.25902,
				"method": "rhf"
			},
			{
				"type": "unocc",
				"energy": -0.07091,
				"method": "rhf"
			},
			{
				"type": "unocc",
				"energy": -0.01731,
				"method": "rhf"
			},
			{
				"type": "unocc",
				"energy": 0.01855,
				"method": "rhf"
			},
			{
				"type": "unocc",
				"energy": 0.03145,
				"method": "rhf"
			},
			{
				"type": "unocc",
				"energy": 0.04249,
				"method": "rhf"
			}
		],
		"cosmo_sigma_profile": { 
			"-0.025": 0.0,
			"-0.024": 0.0,
			"-0.023": 0.0,
			"-0.022": 0.0,
			"-0.021": 0.0,
			"-0.02": 0.0,
			"-0.019": 0.0,
			"-0.018": 0.0,
			"-0.017": 0.0,
			"-0.016": 0.0,
			"-0.015": 0.0,
			"-0.014": 0.0,
			"-0.013": 0.0,
			"-0.012": 0.0,
			"-0.011": 0.598119205613,
			"-0.01": 3.9356051685,
			"-0.009": 4.8789825883,
			"-0.008": 4.67444464504,
			"-0.007": 4.77338626693,
			"-0.006": 10.5325824635,
			"-0.005": 11.9564740991,
			"-0.004": 13.9331601898,
			"-0.003": 26.1514627299,
			"-0.002": 25.1214701307,
			"-0.001": 23.914475459,
			"0.0": 24.5055556145,
			"0.001": 30.3098450341,
			"0.002": 15.2314987962,
			"0.003": 13.786179954,
			"0.004": 11.38622205,
			"0.005": 4.00037674284,
			"0.006": 3.52311691203,
			"0.007": 3.83036747234,
			"0.008": 5.03809442229,
			"0.009": 4.96533530889,
			"0.01": 6.23100313022,
			"0.011": 6.57963919756,
			"0.012": 3.10635448548,
			"0.013": 1.30852629959,
			"0.014": 0.00939359148262,
			"0.015": 0.0,
			"0.016": 0.0,
			"0.017": 0.0,
			"0.018": 0.0,
			"0.019": 0.0,
			"0.02": 0.0,
			"0.021": 0.0,
			"0.022": 0.0,
			"0.023": 0.0,
			"0.024": 0.0,
			"0.025": 0.0
		}
	}
}
