{
	 "smiles": "CC1=CC2=C(C=C1)C(C)=CC(=O)N2", 
	 "Tm": 483.15, 
	 "num_atms": 24, 
	 "gaussian": { 
		 "optdone": 1, 
		 "sigma_profile": "yes", 
		 "theory": "DFT", 
		 "functional": "B3LYP", 
		 "basiset": "6-31G**", 
		 "properties": { 
			 "R2extent": 3351.2952, 
			 "electric_dipole_moment_norm": 4.58004458166, 
			 "electric_quadrupole_moment_norm": 14.2390646557, 
			 "total_energy": -555.816260735, 
			 "HOMO_LUMO_gap": 0.16619, 
			 "cosmo_polarized_energy": -12.93, 
			 "cosmo_cavitation_energy": 27.29, 
			 "cosmo_dispersion_energy": -20.2, 
			 "cosmo_repulsion_energy": 1.57, 
			 "cosmo_total_nonelectrostatic_energy": 8.66, 
			 "SMD_solvation_energy": 5.21 
		},
		"coords": [
			{
				"x": -2.5898013698,
				"y": 3.9264460778,
				"z": 0.9713635363,
				"element": "C" 
			},
			{
				"x": -2.2168110686,
				"y": 2.4638852641,
				"z": 0.9907968446,
				"element": "C" 
			},
			{
				"x": -0.9154073081,
				"y": 2.0599565168,
				"z": 1.266675827,
				"element": "C" 
			},
			{
				"x": -0.5685762455,
				"y": 0.6978103235,
				"z": 1.2851875622,
				"element": "C" 
			},
			{
				"x": -1.5423174994,
				"y": -0.2970246876,
				"z": 1.0218423064,
				"element": "C" 
			},
			{
				"x": -2.8558295135,
				"y": 0.132989299,
				"z": 0.7443874217,
				"element": "C" 
			},
			{
				"x": -3.1892435266,
				"y": 1.4768780767,
				"z": 0.7281262654,
				"element": "C" 
			},
			{
				"x": -1.1342511486,
				"y": -1.6930094116,
				"z": 1.0526380824,
				"element": "C" 
			},
			{
				"x": -2.147315429,
				"y": -2.7747296709,
				"z": 0.7767643424,
				"element": "C" 
			},
			{
				"x": 0.1594831569,
				"y": -2.0091268564,
				"z": 1.3306564248,
				"element": "C" 
			},
			{
				"x": 1.1882094036,
				"y": -1.0111087327,
				"z": 1.60649857,
				"element": "C" 
			},
			{
				"x": 2.3646855943,
				"y": -1.2512465433,
				"z": 1.8612334232,
				"element": "O" 
			},
			{
				"x": 0.7254151523,
				"y": 0.3061160374,
				"z": 1.5599296058,
				"element": "N" 
			},
			{
				"x": -2.9841038823,
				"y": 4.2205216263,
				"z": -0.008088319,
				"element": "H" 
			},
			{
				"x": -1.7306422917,
				"y": 4.5650223727,
				"z": 1.1927970023,
				"element": "H" 
			},
			{
				"x": -3.3702637827,
				"y": 4.1446585101,
				"z": 1.7093359404,
				"element": "H" 
			},
			{
				"x": -0.1479971298,
				"y": 2.8026822278,
				"z": 1.4723520767,
				"element": "H" 
			},
			{
				"x": -3.6225429098,
				"y": -0.6067164232,
				"z": 0.53893767,
				"element": "H" 
			},
			{
				"x": -4.210603818,
				"y": 1.7769979324,
				"z": 0.510803681,
				"element": "H" 
			},
			{
				"x": -1.6873633314,
				"y": -3.7633289708,
				"z": 0.835890444,
				"element": "H" 
			},
			{
				"x": -2.9724186512,
				"y": -2.7390048914,
				"z": 1.4974705035,
				"element": "H" 
			},
			{
				"x": -2.586541559,
				"y": -2.6622444943,
				"z": -0.2211691724,
				"element": "H" 
			},
			{
				"x": 0.4956628866,
				"y": -3.0398438558,
				"z": 1.3612136541,
				"element": "H" 
			},
			{
				"x": 1.4310742713,
				"y": 1.0069202735,
				"z": 1.7497563071,
				"element": "H" 
			}
		],
		 "valence_orbital": [ 
			{
				"type": "occ",
				"energy": -0.31045,
				"method": "rhf"
			},
			{
				"type": "occ",
				"energy": -0.29039,
				"method": "rhf"
			},
			{
				"type": "occ",
				"energy": -0.24397,
				"method": "rhf"
			},
			{
				"type": "occ",
				"energy": -0.24113,
				"method": "rhf"
			},
			{
				"type": "occ",
				"energy": -0.21362,
				"method": "rhf"
			},
			{
				"type": "unocc",
				"energy": -0.04743,
				"method": "rhf"
			},
			{
				"type": "unocc",
				"energy": -0.00653,
				"method": "rhf"
			},
			{
				"type": "unocc",
				"energy": 0.01814,
				"method": "rhf"
			},
			{
				"type": "unocc",
				"energy": 0.08476,
				"method": "rhf"
			},
			{
				"type": "unocc",
				"energy": 0.09477,
				"method": "rhf"
			}
		],
		"cosmo_sigma_profile": { 
			"-0.025": 0.0,
			"-0.024": 0.0,
			"-0.023": 0.0,
			"-0.022": 0.0,
			"-0.021": 0.0,
			"-0.02": 0.0,
			"-0.019": 0.0,
			"-0.018": 0.0,
			"-0.017": 0.0,
			"-0.016": 0.0,
			"-0.015": 0.529446389037,
			"-0.014": 1.38262566721,
			"-0.013": 1.05156533084,
			"-0.012": 1.16669822978,
			"-0.011": 0.998833485681,
			"-0.01": 1.4988496442,
			"-0.009": 1.19959005989,
			"-0.008": 0.652659578834,
			"-0.007": 2.03449506803,
			"-0.006": 6.30980358375,
			"-0.005": 17.0365199806,
			"-0.004": 20.3727066703,
			"-0.003": 18.0300658929,
			"-0.002": 17.9808510621,
			"-0.001": 20.5499905012,
			"0.0": 21.0982851394,
			"0.001": 17.9126701565,
			"0.002": 14.7007719044,
			"0.003": 12.8160563693,
			"0.004": 10.8581634793,
			"0.005": 6.83182675924,
			"0.006": 1.5706397241,
			"0.007": 1.06554834658,
			"0.008": 1.45256248458,
			"0.009": 1.09275959897,
			"0.01": 1.19252893403,
			"0.011": 1.26942372172,
			"0.012": 1.53966371913,
			"0.013": 2.12488074012,
			"0.014": 5.58491373282,
			"0.015": 4.26697156403,
			"0.016": 0.448805742552,
			"0.017": 0.0,
			"0.018": 0.0,
			"0.019": 0.0,
			"0.02": 0.0,
			"0.021": 0.0,
			"0.022": 0.0,
			"0.023": 0.0,
			"0.024": 0.0,
			"0.025": 0.0
		}
	}
}
