{
	 "smiles": "CCCC1=CC=CC(O)=C1", 
	 "Tm": 299.15, 
	 "num_atms": 22, 
	 "gaussian": { 
		 "optdone": 1, 
		 "sigma_profile": "yes", 
		 "theory": "DFT", 
		 "functional": "B3LYP", 
		 "basiset": "6-31G**", 
		 "properties": { 
			 "R2extent": 1864.2098, 
			 "electric_dipole_moment_norm": 1.51553058036, 
			 "electric_quadrupole_moment_norm": 7.72901498511, 
			 "total_energy": -425.42333788, 
			 "HOMO_LUMO_gap": 0.21832, 
			 "cosmo_polarized_energy": -7.55, 
			 "cosmo_cavitation_energy": 24.72, 
			 "cosmo_dispersion_energy": -17.83, 
			 "cosmo_repulsion_energy": 1.47, 
			 "cosmo_total_nonelectrostatic_energy": 8.36, 
			 "SMD_solvation_energy": 4.37 
		},
		"coords": [
			{
				"x": -2.2172435348,
				"y": -1.7530775826,
				"z": -2.1408739,
				"element": "C" 
			},
			{
				"x": -2.6229075548,
				"y": -0.2915461443,
				"z": -1.9306096467,
				"element": "C" 
			},
			{
				"x": -1.4554242175,
				"y": 0.7109752323,
				"z": -2.0689471628,
				"element": "C" 
			},
			{
				"x": -0.3869230603,
				"y": 0.5648468208,
				"z": -1.0042935039,
				"element": "C" 
			},
			{
				"x": -0.6103126707,
				"y": 1.0347868088,
				"z": 0.2973469046,
				"element": "C" 
			},
			{
				"x": 0.3677995918,
				"y": 0.8797887723,
				"z": 1.2810227162,
				"element": "C" 
			},
			{
				"x": 1.5816026732,
				"y": 0.2595884441,
				"z": 0.992300169,
				"element": "C" 
			},
			{
				"x": 1.8130758569,
				"y": -0.2093251945,
				"z": -0.3041280216,
				"element": "C" 
			},
			{
				"x": 3.0168009278,
				"y": -0.8094702962,
				"z": -0.5527884408,
				"element": "O" 
			},
			{
				"x": 0.8345017594,
				"y": -0.0558202159,
				"z": -1.2925782076,
				"element": "C" 
			},
			{
				"x": -3.0793307429,
				"y": -2.4199270211,
				"z": -2.0365944223,
				"element": "H" 
			},
			{
				"x": -1.4617119399,
				"y": -2.0655812869,
				"z": -1.4133622604,
				"element": "H" 
			},
			{
				"x": -1.7985566944,
				"y": -1.9067469022,
				"z": -3.1426964992,
				"element": "H" 
			},
			{
				"x": -3.3989123438,
				"y": -0.0189711419,
				"z": -2.6573174788,
				"element": "H" 
			},
			{
				"x": -3.0758438694,
				"y": -0.1753213603,
				"z": -0.9378836887,
				"element": "H" 
			},
			{
				"x": -1.8638368975,
				"y": 1.728418871,
				"z": -2.0281017015,
				"element": "H" 
			},
			{
				"x": -1.0031617964,
				"y": 0.597714928,
				"z": -3.0623186996,
				"element": "H" 
			},
			{
				"x": -1.548582708,
				"y": 1.5277592106,
				"z": 0.5375817507,
				"element": "H" 
			},
			{
				"x": 0.186069295,
				"y": 1.2513708486,
				"z": 2.2857730769,
				"element": "H" 
			},
			{
				"x": 2.3529613222,
				"y": 0.1350376975,
				"z": 1.7448394324,
				"element": "H" 
			},
			{
				"x": 3.0462354277,
				"y": -1.0825981754,
				"z": -1.4788135064,
				"element": "H" 
			},
			{
				"x": 1.0275011764,
				"y": -0.4206023127,
				"z": -2.3006569098,
				"element": "H" 
			}
		],
		 "valence_orbital": [ 
			{
				"type": "occ",
				"energy": -0.3292,
				"method": "rhf"
			},
			{
				"type": "occ",
				"energy": -0.31899,
				"method": "rhf"
			},
			{
				"type": "occ",
				"energy": -0.31722,
				"method": "rhf"
			},
			{
				"type": "occ",
				"energy": -0.24146,
				"method": "rhf"
			},
			{
				"type": "occ",
				"energy": -0.21507,
				"method": "rhf"
			},
			{
				"type": "unocc",
				"energy": 0.00325,
				"method": "rhf"
			},
			{
				"type": "unocc",
				"energy": 0.0158,
				"method": "rhf"
			},
			{
				"type": "unocc",
				"energy": 0.07367,
				"method": "rhf"
			},
			{
				"type": "unocc",
				"energy": 0.09242,
				"method": "rhf"
			},
			{
				"type": "unocc",
				"energy": 0.11396,
				"method": "rhf"
			}
		],
		"cosmo_sigma_profile": { 
			"-0.025": 0.0,
			"-0.024": 0.0,
			"-0.023": 0.0,
			"-0.022": 0.0,
			"-0.021": 0.0,
			"-0.02": 0.0,
			"-0.019": 0.0,
			"-0.018": 0.161879347649,
			"-0.017": 0.77320735343,
			"-0.016": 1.09242432685,
			"-0.015": 1.29693947568,
			"-0.014": 0.782612208831,
			"-0.013": 0.616332471616,
			"-0.012": 1.01163890003,
			"-0.011": 1.36962864279,
			"-0.01": 0.691702287162,
			"-0.009": 1.61754948046,
			"-0.008": 0.573639903565,
			"-0.007": 0.694158483435,
			"-0.006": 2.74672080898,
			"-0.005": 5.99278153876,
			"-0.004": 9.09321053521,
			"-0.003": 16.5610809246,
			"-0.002": 21.9468998885,
			"-0.001": 20.9398932145,
			"0.0": 22.5623476689,
			"0.001": 20.0018924719,
			"0.002": 12.9364309525,
			"0.003": 9.47160371816,
			"0.004": 8.86548955985,
			"0.005": 10.7387192349,
			"0.006": 9.49542721311,
			"0.007": 4.0176544077,
			"0.008": 1.66780546153,
			"0.009": 1.17846734146,
			"0.01": 1.6422002127,
			"0.011": 1.92659599547,
			"0.012": 1.39000403677,
			"0.013": 0.0,
			"0.014": 0.0,
			"0.015": 0.0,
			"0.016": 0.0,
			"0.017": 0.0,
			"0.018": 0.0,
			"0.019": 0.0,
			"0.02": 0.0,
			"0.021": 0.0,
			"0.022": 0.0,
			"0.023": 0.0,
			"0.024": 0.0,
			"0.025": 0.0
		}
	}
}
