{
	 "smiles": "O=C1CC2=C(O1)C=CC=C2", 
	 "Tm": 323.15, 
	 "num_atms": 16, 
	 "gaussian": { 
		 "optdone": 1, 
		 "sigma_profile": "yes", 
		 "theory": "DFT", 
		 "functional": "B3LYP", 
		 "basiset": "6-31G**", 
		 "properties": { 
			 "R2extent": 1633.7605, 
			 "electric_dipole_moment_norm": 3.79436375958, 
			 "electric_quadrupole_moment_norm": 15.6316223787, 
			 "total_energy": -458.921679183, 
			 "HOMO_LUMO_gap": 0.21524, 
			 "cosmo_polarized_energy": -8.83, 
			 "cosmo_cavitation_energy": 20.23, 
			 "cosmo_dispersion_energy": -15.44, 
			 "cosmo_repulsion_energy": 1.25, 
			 "cosmo_total_nonelectrostatic_energy": 6.04, 
			 "SMD_solvation_energy": 4.5 
		},
		"coords": [
			{
				"x": -3.7704949574,
				"y": 1.4329174373,
				"z": -1.4056441404,
				"element": "O" 
			},
			{
				"x": -2.7046439706,
				"y": 1.0079148122,
				"z": -1.0613452619,
				"element": "C" 
			},
			{
				"x": -1.3032196745,
				"y": 1.5713439008,
				"z": -1.3216686688,
				"element": "C" 
			},
			{
				"x": -0.4152205871,
				"y": 0.5781925291,
				"z": -0.6290145365,
				"element": "C" 
			},
			{
				"x": -1.2435040657,
				"y": -0.3958348006,
				"z": -0.0681917,
				"element": "C" 
			},
			{
				"x": -2.5858822841,
				"y": -0.15694291,
				"z": -0.3134883216,
				"element": "O" 
			},
			{
				"x": -0.7638045429,
				"y": -1.4775731609,
				"z": 0.6523225899,
				"element": "C" 
			},
			{
				"x": 0.6251248891,
				"y": -1.5673188842,
				"z": 0.8062447331,
				"element": "C" 
			},
			{
				"x": 1.4779524054,
				"y": -0.6060734699,
				"z": 0.255229582,
				"element": "C" 
			},
			{
				"x": 0.961629583,
				"y": 0.476796698,
				"z": -0.4685666502,
				"element": "C" 
			},
			{
				"x": -1.2462238892,
				"y": 2.5888669796,
				"z": -0.9186629492,
				"element": "H" 
			},
			{
				"x": -1.1428640676,
				"y": 1.6458967708,
				"z": -2.4032184942,
				"element": "H" 
			},
			{
				"x": -1.4393464423,
				"y": -2.2139207046,
				"z": 1.0728880074,
				"element": "H" 
			},
			{
				"x": 1.0434099825,
				"y": -2.3997390973,
				"z": 1.3641385607,
				"element": "H" 
			},
			{
				"x": 2.5511065477,
				"y": -0.6995082655,
				"z": 0.3894437725,
				"element": "H" 
			},
			{
				"x": 1.6276810738,
				"y": 1.221482165,
				"z": -0.8950665229,
				"element": "H" 
			}
		],
		 "valence_orbital": [ 
			{
				"type": "occ",
				"energy": -0.35476,
				"method": "rhf"
			},
			{
				"type": "occ",
				"energy": -0.33589,
				"method": "rhf"
			},
			{
				"type": "occ",
				"energy": -0.2823,
				"method": "rhf"
			},
			{
				"type": "occ",
				"energy": -0.26381,
				"method": "rhf"
			},
			{
				"type": "occ",
				"energy": -0.24057,
				"method": "rhf"
			},
			{
				"type": "unocc",
				"energy": -0.02533,
				"method": "rhf"
			},
			{
				"type": "unocc",
				"energy": -0.01152,
				"method": "rhf"
			},
			{
				"type": "unocc",
				"energy": 0.01183,
				"method": "rhf"
			},
			{
				"type": "unocc",
				"energy": 0.0841,
				"method": "rhf"
			},
			{
				"type": "unocc",
				"energy": 0.10177,
				"method": "rhf"
			}
		],
		"cosmo_sigma_profile": { 
			"-0.025": 0.0,
			"-0.024": 0.0,
			"-0.023": 0.0,
			"-0.022": 0.0,
			"-0.021": 0.0,
			"-0.02": 0.0,
			"-0.019": 0.0,
			"-0.018": 0.0,
			"-0.017": 0.0,
			"-0.016": 0.0,
			"-0.015": 0.0,
			"-0.014": 0.0,
			"-0.013": 0.0,
			"-0.012": 0.0,
			"-0.011": 0.0,
			"-0.01": 0.0,
			"-0.009": 0.647849424716,
			"-0.008": 5.31924188416,
			"-0.007": 8.31688393796,
			"-0.006": 13.2608115202,
			"-0.005": 13.3509644403,
			"-0.004": 15.4335898285,
			"-0.003": 10.0872041025,
			"-0.002": 7.18505145751,
			"-0.001": 7.34662867649,
			"0.0": 8.5712569144,
			"0.001": 10.3161065525,
			"0.002": 9.30632902177,
			"0.003": 9.64051494308,
			"0.004": 11.5822956446,
			"0.005": 7.76454519156,
			"0.006": 2.38369099474,
			"0.007": 3.15411462762,
			"0.008": 4.27946681189,
			"0.009": 3.53583154859,
			"0.01": 4.25276797442,
			"0.011": 5.61621151456,
			"0.012": 1.33125543098,
			"0.013": 0.0,
			"0.014": 0.0,
			"0.015": 0.0,
			"0.016": 0.0,
			"0.017": 0.0,
			"0.018": 0.0,
			"0.019": 0.0,
			"0.02": 0.0,
			"0.021": 0.0,
			"0.022": 0.0,
			"0.023": 0.0,
			"0.024": 0.0,
			"0.025": 0.0
		}
	}
}
