{
	 "smiles": "OC(C1=CC=CC=C1)(C1=CC=C(F)C=C1)C1=CC=C(F)C=C1", 
	 "Tm": 360.15, 
	 "num_atms": 36, 
	 "gaussian": { 
		 "optdone": 1, 
		 "sigma_profile": "yes", 
		 "theory": "DFT", 
		 "functional": "B3LYP", 
		 "basiset": "6-31G**", 
		 "properties": { 
			 "R2extent": 7563.3896, 
			 "electric_dipole_moment_norm": 0.573239199637, 
			 "electric_quadrupole_moment_norm": 10.3890675308, 
			 "total_energy": -1007.34244371, 
			 "HOMO_LUMO_gap": 0.21207, 
			 "cosmo_polarized_energy": -9.95, 
			 "cosmo_cavitation_energy": 40.2, 
			 "cosmo_dispersion_energy": -27.36, 
			 "cosmo_repulsion_energy": 2.04, 
			 "cosmo_total_nonelectrostatic_energy": 14.88, 
			 "SMD_solvation_energy": 7.87 
		},
		"coords": [
			{
				"x": 2.6941987632,
				"y": -0.1042323726,
				"z": -1.0293419993,
				"element": "O" 
			},
			{
				"x": 1.482211668,
				"y": 0.2362445573,
				"z": -0.329788425,
				"element": "C" 
			},
			{
				"x": 0.7118921973,
				"y": -1.0874672751,
				"z": -0.1796356259,
				"element": "C" 
			},
			{
				"x": -0.1129194156,
				"y": -1.3438527369,
				"z": 0.9220422803,
				"element": "C" 
			},
			{
				"x": -0.8447718423,
				"y": -2.5311864282,
				"z": 1.0027384548,
				"element": "C" 
			},
			{
				"x": -0.7554664758,
				"y": -3.4810428928,
				"z": -0.0140699979,
				"element": "C" 
			},
			{
				"x": 0.0696187243,
				"y": -3.2341695969,
				"z": -1.1138701972,
				"element": "C" 
			},
			{
				"x": 0.7942602262,
				"y": -2.0462669645,
				"z": -1.1987581651,
				"element": "C" 
			},
			{
				"x": 1.8960777453,
				"y": 0.8255841257,
				"z": 1.0318535628,
				"element": "C" 
			},
			{
				"x": 1.5670825965,
				"y": 2.1168864368,
				"z": 1.4586706621,
				"element": "C" 
			},
			{
				"x": 2.0307321645,
				"y": 2.613226815,
				"z": 2.6807741424,
				"element": "C" 
			},
			{
				"x": 2.8348033656,
				"y": 1.8044976976,
				"z": 3.4704017428,
				"element": "C" 
			},
			{
				"x": 3.2862531986,
				"y": 2.2752539971,
				"z": 4.6510811053,
				"element": "F" 
			},
			{
				"x": 3.1929564129,
				"y": 0.5181606005,
				"z": 3.0750005167,
				"element": "C" 
			},
			{
				"x": 2.7227165643,
				"y": 0.0400284056,
				"z": 1.8563225135,
				"element": "C" 
			},
			{
				"x": 0.636791456,
				"y": 1.2080284958,
				"z": -1.1823916313,
				"element": "C" 
			},
			{
				"x": -0.6754613077,
				"y": 1.5436892911,
				"z": -0.812814068,
				"element": "C" 
			},
			{
				"x": -1.4409802439,
				"y": 2.4207157637,
				"z": -1.57830492,
				"element": "C" 
			},
			{
				"x": -0.8863924995,
				"y": 2.9582419207,
				"z": -2.7353226537,
				"element": "C" 
			},
			{
				"x": -1.6237916254,
				"y": 3.8055540957,
				"z": -3.4838895666,
				"element": "F" 
			},
			{
				"x": 0.4010500416,
				"y": 2.6375538621,
				"z": -3.1416801896,
				"element": "C" 
			},
			{
				"x": 1.154758976,
				"y": 1.7601828832,
				"z": -2.3587860866,
				"element": "C" 
			},
			{
				"x": 3.3140126148,
				"y": 0.6251119063,
				"z": -0.893886055,
				"element": "H" 
			},
			{
				"x": -0.1752257632,
				"y": -0.6223906328,
				"z": 1.7307977596,
				"element": "H" 
			},
			{
				"x": -1.4773869868,
				"y": -2.7134913123,
				"z": 1.8669649629,
				"element": "H" 
			},
			{
				"x": -1.3200705307,
				"y": -4.4067910271,
				"z": 0.0502284921,
				"element": "H" 
			},
			{
				"x": 0.1497391907,
				"y": -3.9693616075,
				"z": -1.9098359092,
				"element": "H" 
			},
			{
				"x": 1.4357251952,
				"y": -1.8580858322,
				"z": -2.0520702089,
				"element": "H" 
			},
			{
				"x": 0.9451689398,
				"y": 2.7518437682,
				"z": 0.8387563848,
				"element": "H" 
			},
			{
				"x": 1.7785637329,
				"y": 3.6129400281,
				"z": 3.0176113328,
				"element": "H" 
			},
			{
				"x": 3.8273785055,
				"y": -0.083705062,
				"z": 3.716815533,
				"element": "H" 
			},
			{
				"x": 2.9981651985,
				"y": -0.9573309158,
				"z": 1.5295314735,
				"element": "H" 
			},
			{
				"x": -1.1140374685,
				"y": 1.1072713503,
				"z": 0.078686716,
				"element": "H" 
			},
			{
				"x": -2.4555448799,
				"y": 2.6823621932,
				"z": -1.2975652792,
				"element": "H" 
			},
			{
				"x": 0.7975168724,
				"y": 3.0639143764,
				"z": -4.0569774256,
				"element": "H" 
			},
			{
				"x": 2.1507746891,
				"y": 1.4819820864,
				"z": -2.6821892314,
				"element": "H" 
			}
		],
		 "valence_orbital": [ 
			{
				"type": "occ",
				"energy": -0.26157,
				"method": "rhf"
			},
			{
				"type": "occ",
				"energy": -0.25288,
				"method": "rhf"
			},
			{
				"type": "occ",
				"energy": -0.24914,
				"method": "rhf"
			},
			{
				"type": "occ",
				"energy": -0.24303,
				"method": "rhf"
			},
			{
				"type": "occ",
				"energy": -0.23415,
				"method": "rhf"
			},
			{
				"type": "unocc",
				"energy": -0.02208,
				"method": "rhf"
			},
			{
				"type": "unocc",
				"energy": -0.01304,
				"method": "rhf"
			},
			{
				"type": "unocc",
				"energy": -0.01071,
				"method": "rhf"
			},
			{
				"type": "unocc",
				"energy": -0.01043,
				"method": "rhf"
			},
			{
				"type": "unocc",
				"energy": 0.00357,
				"method": "rhf"
			}
		],
		"cosmo_sigma_profile": { 
			"-0.025": 0.0,
			"-0.024": 0.0,
			"-0.023": 0.0,
			"-0.022": 0.0,
			"-0.021": 0.0,
			"-0.02": 0.0,
			"-0.019": 0.0,
			"-0.018": 0.0,
			"-0.017": 0.0,
			"-0.016": 0.0162039829327,
			"-0.015": 1.14000618743,
			"-0.014": 0.376773181598,
			"-0.013": 0.518904778946,
			"-0.012": 0.916569461825,
			"-0.011": 1.10620110159,
			"-0.01": 0.950112188261,
			"-0.009": 1.24699816183,
			"-0.008": 1.19708669628,
			"-0.007": 7.18270544908,
			"-0.006": 12.8749777479,
			"-0.005": 23.6529343863,
			"-0.004": 24.445690383,
			"-0.003": 22.0290825349,
			"-0.002": 18.5327448637,
			"-0.001": 18.4795618681,
			"0.0": 22.0190053393,
			"0.001": 31.1626669838,
			"0.002": 28.3644221492,
			"0.003": 34.0924561636,
			"0.004": 37.6875935965,
			"0.005": 20.0661475679,
			"0.006": 7.53258535878,
			"0.007": 1.55793212763,
			"0.008": 1.07127847435,
			"0.009": 1.22500163074,
			"0.01": 1.38147120601,
			"0.011": 1.01212606357,
			"0.012": 0.488497205139,
			"0.013": 0.0128632567447,
			"0.014": 0.0,
			"0.015": 0.0,
			"0.016": 0.0,
			"0.017": 0.0,
			"0.018": 0.0,
			"0.019": 0.0,
			"0.02": 0.0,
			"0.021": 0.0,
			"0.022": 0.0,
			"0.023": 0.0,
			"0.024": 0.0,
			"0.025": 0.0
		}
	}
}
