{
	 "smiles": "ClC(=O)C1=CN=C(C=C1)N1CCOCC1", 
	 "Tm": 431.15, 
	 "num_atms": 26, 
	 "gaussian": { 
		 "optdone": 1, 
		 "sigma_profile": "yes", 
		 "theory": "DFT", 
		 "functional": "B3LYP", 
		 "basiset": "6-31G**", 
		 "properties": { 
			 "R2extent": 5665.6577, 
			 "electric_dipole_moment_norm": 5.89352744967, 
			 "electric_quadrupole_moment_norm": 26.4068285911, 
			 "total_energy": -1107.8271894, 
			 "HOMO_LUMO_gap": 0.16274, 
			 "cosmo_polarized_energy": -12.1, 
			 "cosmo_cavitation_energy": 30.8, 
			 "cosmo_dispersion_energy": -23.25, 
			 "cosmo_repulsion_energy": 1.81, 
			 "cosmo_total_nonelectrostatic_energy": 9.36, 
			 "SMD_solvation_energy": 4.09 
		},
		"coords": [
			{
				"x": -1.4027332991,
				"y": -5.0492364696,
				"z": 2.2004836341,
				"element": "Cl" 
			},
			{
				"x": -0.1456166643,
				"y": -3.7925240518,
				"z": 2.6865399409,
				"element": "C" 
			},
			{
				"x": 0.46855044,
				"y": -3.9645561675,
				"z": 3.699429111,
				"element": "O" 
			},
			{
				"x": -0.0105769584,
				"y": -2.6671252292,
				"z": 1.7624137968,
				"element": "C" 
			},
			{
				"x": -0.747021246,
				"y": -2.4914036524,
				"z": 0.5804523088,
				"element": "C" 
			},
			{
				"x": -0.5980856092,
				"y": -1.4600638897,
				"z": -0.2408478722,
				"element": "N" 
			},
			{
				"x": 0.3115452876,
				"y": -0.5059141743,
				"z": 0.0655959426,
				"element": "C" 
			},
			{
				"x": 1.1085386687,
				"y": -0.5888123891,
				"z": 1.2426628668,
				"element": "C" 
			},
			{
				"x": 0.9381427727,
				"y": -1.6695851194,
				"z": 2.0775568874,
				"element": "C" 
			},
			{
				"x": 0.4321508894,
				"y": 0.5390230616,
				"z": -0.8035655922,
				"element": "N" 
			},
			{
				"x": 1.3907044296,
				"y": 1.6213728769,
				"z": -0.5699763154,
				"element": "C" 
			},
			{
				"x": 1.2828857271,
				"y": 2.6517218958,
				"z": -1.6956860652,
				"element": "C" 
			},
			{
				"x": -0.0506893325,
				"y": 3.0913413977,
				"z": -1.8605063961,
				"element": "O" 
			},
			{
				"x": -0.9862268137,
				"y": 2.0399528171,
				"z": -2.1329159618,
				"element": "C" 
			},
			{
				"x": -0.3800982468,
				"y": 0.6396557955,
				"z": -2.0159938538,
				"element": "C" 
			},
			{
				"x": -1.4914668662,
				"y": -3.2274422684,
				"z": 0.2907900015,
				"element": "H" 
			},
			{
				"x": 1.8348825443,
				"y": 0.1761273111,
				"z": 1.4846324366,
				"element": "H" 
			},
			{
				"x": 1.5259045896,
				"y": -1.7705244385,
				"z": 2.9839505855,
				"element": "H" 
			},
			{
				"x": 2.4186063597,
				"y": 1.2328668169,
				"z": -0.5201076969,
				"element": "H" 
			},
			{
				"x": 1.1709387892,
				"y": 2.1139224515,
				"z": 0.3865749281,
				"element": "H" 
			},
			{
				"x": 1.6972974851,
				"y": 2.2443821504,
				"z": -2.6309581979,
				"element": "H" 
			},
			{
				"x": 1.872038653,
				"y": 3.5350653476,
				"z": -1.4354501268,
				"element": "H" 
			},
			{
				"x": -1.8097560924,
				"y": 2.149831735,
				"z": -1.4172949198,
				"element": "H" 
			},
			{
				"x": -1.3954417557,
				"y": 2.1711523265,
				"z": -3.1445325948,
				"element": "H" 
			},
			{
				"x": -1.1665884541,
				"y": -0.1118360226,
				"z": -1.9612314846,
				"element": "H" 
			},
			{
				"x": 0.2331147025,
				"y": 0.4075078887,
				"z": -2.8971153625,
				"element": "H" 
			}
		],
		 "valence_orbital": [ 
			{
				"type": "occ",
				"energy": -0.29855,
				"method": "rhf"
			},
			{
				"type": "occ",
				"energy": -0.28616,
				"method": "rhf"
			},
			{
				"type": "occ",
				"energy": -0.27181,
				"method": "rhf"
			},
			{
				"type": "occ",
				"energy": -0.26735,
				"method": "rhf"
			},
			{
				"type": "occ",
				"energy": -0.22634,
				"method": "rhf"
			},
			{
				"type": "unocc",
				"energy": -0.0636,
				"method": "rhf"
			},
			{
				"type": "unocc",
				"energy": -0.03391,
				"method": "rhf"
			},
			{
				"type": "unocc",
				"energy": 0.02622,
				"method": "rhf"
			},
			{
				"type": "unocc",
				"energy": 0.03653,
				"method": "rhf"
			},
			{
				"type": "unocc",
				"energy": 0.07016,
				"method": "rhf"
			}
		],
		"cosmo_sigma_profile": { 
			"-0.025": 0.0,
			"-0.024": 0.0,
			"-0.023": 0.0,
			"-0.022": 0.0,
			"-0.021": 0.0,
			"-0.02": 0.0,
			"-0.019": 0.0,
			"-0.018": 0.0,
			"-0.017": 0.0,
			"-0.016": 0.0,
			"-0.015": 0.0,
			"-0.014": 0.0,
			"-0.013": 0.0,
			"-0.012": 0.0,
			"-0.011": 0.0,
			"-0.01": 0.0,
			"-0.009": 0.0,
			"-0.008": 0.94373001117,
			"-0.007": 4.85794037236,
			"-0.006": 15.8507238395,
			"-0.005": 27.9256912206,
			"-0.004": 23.3803313446,
			"-0.003": 17.4184140635,
			"-0.002": 16.7121840523,
			"-0.001": 18.6592287435,
			"0.0": 22.4405354295,
			"0.001": 17.205262968,
			"0.002": 13.9922146997,
			"0.003": 10.7394058352,
			"0.004": 10.7742236142,
			"0.005": 11.6611565371,
			"0.006": 6.68939618636,
			"0.007": 6.2342280048,
			"0.008": 4.54217566401,
			"0.009": 6.68485956881,
			"0.01": 5.44633346207,
			"0.011": 1.58328696234,
			"0.012": 1.42653392936,
			"0.013": 1.66800122356,
			"0.014": 0.207523117428,
			"0.015": 0.0,
			"0.016": 0.0,
			"0.017": 0.0,
			"0.018": 0.0,
			"0.019": 0.0,
			"0.02": 0.0,
			"0.021": 0.0,
			"0.022": 0.0,
			"0.023": 0.0,
			"0.024": 0.0,
			"0.025": 0.0
		}
	}
}
