{
	 "smiles": "ClC(=O)C1=C(Cl)C(Cl)=C(Cl)S1", 
	 "Tm": 312.15, 
	 "num_atms": 11, 
	 "gaussian": { 
		 "optdone": 1, 
		 "sigma_profile": "yes", 
		 "theory": "DFT", 
		 "functional": "B3LYP", 
		 "basiset": "6-31G**", 
		 "properties": { 
			 "R2extent": 5335.8942, 
			 "electric_dipole_moment_norm": 2.23301563586, 
			 "electric_quadrupole_moment_norm": 4.80633657893, 
			 "total_energy": -2504.67761766, 
			 "HOMO_LUMO_gap": 0.16561, 
			 "cosmo_polarized_energy": -4.25, 
			 "cosmo_cavitation_energy": 25.06, 
			 "cosmo_dispersion_energy": -19.51, 
			 "cosmo_repulsion_energy": 1.53, 
			 "cosmo_total_nonelectrostatic_energy": 7.07, 
			 "SMD_solvation_energy": 3.96 
		},
		"coords": [
			{
				"x": -0.6991593599,
				"y": -1.0185464117,
				"z": -1.8816728653,
				"element": "Cl" 
			},
			{
				"x": -0.9490283241,
				"y": 0.1386352661,
				"z": -0.5352012025,
				"element": "C" 
			},
			{
				"x": -1.1259348962,
				"y": 1.303055214,
				"z": -0.7752370834,
				"element": "O" 
			},
			{
				"x": -0.9259050213,
				"y": -0.3984209595,
				"z": 0.8256475764,
				"element": "C" 
			},
			{
				"x": -0.7532370098,
				"y": -1.6434008246,
				"z": 1.4107628661,
				"element": "C" 
			},
			{
				"x": -0.4764350113,
				"y": -3.1361380331,
				"z": 0.5982569317,
				"element": "Cl" 
			},
			{
				"x": -0.825712222,
				"y": -1.6010282707,
				"z": 2.8398799737,
				"element": "C" 
			},
			{
				"x": -0.6500852022,
				"y": -2.9855297182,
				"z": 3.8528253392,
				"element": "Cl" 
			},
			{
				"x": -1.0514106198,
				"y": -0.3283578839,
				"z": 3.3109497506,
				"element": "C" 
			},
			{
				"x": -1.2018695041,
				"y": 0.1423106821,
				"z": 4.9536876811,
				"element": "Cl" 
			},
			{
				"x": -1.1811228293,
				"y": 0.8400209394,
				"z": 2.0463010324,
				"element": "S" 
			}
		],
		 "valence_orbital": [ 
			{
				"type": "occ",
				"energy": -0.33376,
				"method": "rhf"
			},
			{
				"type": "occ",
				"energy": -0.32309,
				"method": "rhf"
			},
			{
				"type": "occ",
				"energy": -0.30896,
				"method": "rhf"
			},
			{
				"type": "occ",
				"energy": -0.28186,
				"method": "rhf"
			},
			{
				"type": "occ",
				"energy": -0.27099,
				"method": "rhf"
			},
			{
				"type": "unocc",
				"energy": -0.10538,
				"method": "rhf"
			},
			{
				"type": "unocc",
				"energy": -0.03418,
				"method": "rhf"
			},
			{
				"type": "unocc",
				"energy": -0.02786,
				"method": "rhf"
			},
			{
				"type": "unocc",
				"energy": -0.02102,
				"method": "rhf"
			},
			{
				"type": "unocc",
				"energy": 0.00202,
				"method": "rhf"
			}
		],
		"cosmo_sigma_profile": { 
			"-0.025": 0.0,
			"-0.024": 0.0,
			"-0.023": 0.0,
			"-0.022": 0.0,
			"-0.021": 0.0,
			"-0.02": 0.0,
			"-0.019": 0.0,
			"-0.018": 0.0,
			"-0.017": 0.0,
			"-0.016": 0.0,
			"-0.015": 0.0,
			"-0.014": 0.0,
			"-0.013": 0.0,
			"-0.012": 0.0,
			"-0.011": 0.0,
			"-0.01": 0.0,
			"-0.009": 0.0,
			"-0.008": 0.0,
			"-0.007": 0.0,
			"-0.006": 1.50471020677,
			"-0.005": 9.27871394591,
			"-0.004": 16.5779106785,
			"-0.003": 27.3667936657,
			"-0.002": 21.5389859944,
			"-0.001": 19.9303936213,
			"0.0": 23.5657713372,
			"0.001": 23.9952445833,
			"0.002": 30.2286886868,
			"0.003": 21.0499842,
			"0.004": 5.29626531046,
			"0.005": 2.78223471319,
			"0.006": 1.80125685842,
			"0.007": 2.85983246643,
			"0.008": 3.8060586882,
			"0.009": 2.25361196809,
			"0.01": 0.29653510637,
			"0.011": 0.0,
			"0.012": 0.0,
			"0.013": 0.0,
			"0.014": 0.0,
			"0.015": 0.0,
			"0.016": 0.0,
			"0.017": 0.0,
			"0.018": 0.0,
			"0.019": 0.0,
			"0.02": 0.0,
			"0.021": 0.0,
			"0.022": 0.0,
			"0.023": 0.0,
			"0.024": 0.0,
			"0.025": 0.0
		}
	}
}
