{
	 "smiles": "NC(=O)NC1CCCC1", 
	 "Tm": 466.15, 
	 "num_atms": 21, 
	 "gaussian": { 
		 "optdone": 1, 
		 "sigma_profile": "yes", 
		 "theory": "DFT", 
		 "functional": "B3LYP", 
		 "basiset": "6-31G**", 
		 "properties": { 
			 "R2extent": 1557.6825, 
			 "electric_dipole_moment_norm": 4.007438546, 
			 "electric_quadrupole_moment_norm": 14.2867496286, 
			 "total_energy": -420.628797612, 
			 "HOMO_LUMO_gap": 0.29478, 
			 "cosmo_polarized_energy": -13.64, 
			 "cosmo_cavitation_energy": 22.92, 
			 "cosmo_dispersion_energy": -17.1, 
			 "cosmo_repulsion_energy": 1.44, 
			 "cosmo_total_nonelectrostatic_energy": 7.27, 
			 "SMD_solvation_energy": 3.63 
		},
		"coords": [
			{
				"x": 0.8778542995,
				"y": 0.5939029911,
				"z": 2.6789124903,
				"element": "N" 
			},
			{
				"x": 1.4821346058,
				"y": 0.8656052142,
				"z": 1.4568322737,
				"element": "C" 
			},
			{
				"x": 2.6675861926,
				"y": 1.1587083933,
				"z": 1.3660340874,
				"element": "O" 
			},
			{
				"x": 0.6615758802,
				"y": 0.7736769159,
				"z": 0.3461691994,
				"element": "N" 
			},
			{
				"x": -0.5861691263,
				"y": 0.0292563016,
				"z": 0.2577468343,
				"element": "C" 
			},
			{
				"x": -1.3149005969,
				"y": 0.2806138022,
				"z": -1.0757005474,
				"element": "C" 
			},
			{
				"x": -2.3241500413,
				"y": -0.8879278812,
				"z": -1.2093125638,
				"element": "C" 
			},
			{
				"x": -1.8639190678,
				"y": -1.9743761969,
				"z": -0.1874965927,
				"element": "C" 
			},
			{
				"x": -0.4835460682,
				"y": -1.5093686686,
				"z": 0.3096592895,
				"element": "C" 
			},
			{
				"x": -0.1084045164,
				"y": 0.7862030413,
				"z": 2.7824538799,
				"element": "H" 
			},
			{
				"x": 1.4476749441,
				"y": 0.8972168067,
				"z": 3.4558367431,
				"element": "H" 
			},
			{
				"x": 1.2071881848,
				"y": 0.830316716,
				"z": -0.5042881733,
				"element": "H" 
			},
			{
				"x": -1.2474070617,
				"y": 0.3619634022,
				"z": 1.0708989661,
				"element": "H" 
			},
			{
				"x": -1.7821851296,
				"y": 1.2684081109,
				"z": -1.11823758,
				"element": "H" 
			},
			{
				"x": -0.5766798725,
				"y": 0.2392028943,
				"z": -1.887742867,
				"element": "H" 
			},
			{
				"x": -3.3434254969,
				"y": -0.5558174658,
				"z": -0.9892347641,
				"element": "H" 
			},
			{
				"x": -2.3380797533,
				"y": -1.2759270247,
				"z": -2.2319591263,
				"element": "H" 
			},
			{
				"x": -1.8333546012,
				"y": -2.9758261544,
				"z": -0.625962602,
				"element": "H" 
			},
			{
				"x": -2.5667954007,
				"y": -2.0209925378,
				"z": 0.6521321376,
				"element": "H" 
			},
			{
				"x": -0.2218994646,
				"y": -1.8826018446,
				"z": 1.3035117089,
				"element": "H" 
			},
			{
				"x": 0.3077020904,
				"y": -1.8273368156,
				"z": -0.3816527935,
				"element": "H" 
			}
		],
		 "valence_orbital": [ 
			{
				"type": "occ",
				"energy": -0.33801,
				"method": "rhf"
			},
			{
				"type": "occ",
				"energy": -0.32449,
				"method": "rhf"
			},
			{
				"type": "occ",
				"energy": -0.26516,
				"method": "rhf"
			},
			{
				"type": "occ",
				"energy": -0.24827,
				"method": "rhf"
			},
			{
				"type": "occ",
				"energy": -0.23575,
				"method": "rhf"
			},
			{
				"type": "unocc",
				"energy": 0.05903,
				"method": "rhf"
			},
			{
				"type": "unocc",
				"energy": 0.06508,
				"method": "rhf"
			},
			{
				"type": "unocc",
				"energy": 0.07962,
				"method": "rhf"
			},
			{
				"type": "unocc",
				"energy": 0.09348,
				"method": "rhf"
			},
			{
				"type": "unocc",
				"energy": 0.11215,
				"method": "rhf"
			}
		],
		"cosmo_sigma_profile": { 
			"-0.025": 0.0,
			"-0.024": 0.0,
			"-0.023": 0.0,
			"-0.022": 0.0,
			"-0.021": 0.0,
			"-0.02": 0.0,
			"-0.019": 0.0,
			"-0.018": 0.0,
			"-0.017": 0.0,
			"-0.016": 0.0,
			"-0.015": 0.0,
			"-0.014": 0.0657824583239,
			"-0.013": 1.63677451092,
			"-0.012": 2.90336727132,
			"-0.011": 2.93666657462,
			"-0.01": 4.34369919675,
			"-0.009": 3.50463038061,
			"-0.008": 2.96638150019,
			"-0.007": 3.47826424451,
			"-0.006": 3.12931935568,
			"-0.005": 4.43512956773,
			"-0.004": 5.19319013298,
			"-0.003": 14.5661321905,
			"-0.002": 22.8577335407,
			"-0.001": 24.0428263739,
			"0.0": 18.9620215206,
			"0.001": 18.2414652381,
			"0.002": 6.44967391385,
			"0.003": 2.4125324578,
			"0.004": 2.33445449551,
			"0.005": 4.01519410266,
			"0.006": 3.87922664529,
			"0.007": 2.69926578585,
			"0.008": 2.29863850915,
			"0.009": 2.76669752032,
			"0.01": 1.79005056808,
			"0.011": 1.08762777456,
			"0.012": 1.22341836072,
			"0.013": 2.02283126528,
			"0.014": 4.41863629103,
			"0.015": 6.05532413247,
			"0.016": 0.626315847069,
			"0.017": 0.0,
			"0.018": 0.0,
			"0.019": 0.0,
			"0.02": 0.0,
			"0.021": 0.0,
			"0.022": 0.0,
			"0.023": 0.0,
			"0.024": 0.0,
			"0.025": 0.0
		}
	}
}
