{
	 "smiles": "CC1=C(F)C(F)=C(C)C(F)=C1F", 
	 "Tm": 309.15, 
	 "num_atms": 18, 
	 "gaussian": { 
		 "optdone": 1, 
		 "sigma_profile": "yes", 
		 "theory": "DFT", 
		 "functional": "B3LYP", 
		 "basiset": "6-31G**", 
		 "properties": { 
			 "R2extent": 2633.5384, 
			 "electric_dipole_moment_norm": 0.0, 
			 "electric_quadrupole_moment_norm": 8.23332478832, 
			 "total_energy": -707.80368449, 
			 "HOMO_LUMO_gap": 0.22267, 
			 "cosmo_polarized_energy": -2.81, 
			 "cosmo_cavitation_energy": 23.7, 
			 "cosmo_dispersion_energy": -16.91, 
			 "cosmo_repulsion_energy": 1.27, 
			 "cosmo_total_nonelectrostatic_energy": 8.06, 
			 "SMD_solvation_energy": 6.1 
		},
		"coords": [
			{
				"x": -1.9766520591,
				"y": -1.7238833431,
				"z": 2.9763893228,
				"element": "C" 
			},
			{
				"x": -1.4103152789,
				"y": -0.7129678615,
				"z": 2.0140128692,
				"element": "C" 
			},
			{
				"x": -1.1472720776,
				"y": -1.0330662287,
				"z": 0.6818423483,
				"element": "C" 
			},
			{
				"x": -1.3926546716,
				"y": -2.2808013054,
				"z": 0.2384635456,
				"element": "F" 
			},
			{
				"x": -0.6299215455,
				"y": -0.0972268151,
				"z": -0.2090598042,
				"element": "C" 
			},
			{
				"x": -0.3990324904,
				"y": -0.4745120743,
				"z": -1.4810594466,
				"element": "F" 
			},
			{
				"x": -0.3523394639,
				"y": 1.2134018641,
				"z": 0.1801861214,
				"element": "C" 
			},
			{
				"x": 0.2139964384,
				"y": 2.2243321288,
				"z": -0.7821751506,
				"element": "C" 
			},
			{
				"x": -0.6153848761,
				"y": 1.5335036954,
				"z": 1.5123692879,
				"element": "C" 
			},
			{
				"x": -0.3699889092,
				"y": 2.7812498532,
				"z": 1.9557288015,
				"element": "F" 
			},
			{
				"x": -1.1327325933,
				"y": 0.5976763807,
				"z": 2.403270198,
				"element": "C" 
			},
			{
				"x": -1.3636340696,
				"y": 0.9749343765,
				"z": 3.6752758123,
				"element": "F" 
			},
			{
				"x": -1.6617805472,
				"y": -2.7328287687,
				"z": 2.7036988968,
				"element": "H" 
			},
			{
				"x": -3.072518037,
				"y": -1.7047359109,
				"z": 2.9675873441,
				"element": "H" 
			},
			{
				"x": -1.6507670785,
				"y": -1.5090598411,
				"z": 3.995765951,
				"element": "H" 
			},
			{
				"x": 1.3098628539,
				"y": 2.2052174839,
				"z": -0.7733382715,
				"element": "H" 
			},
			{
				"x": -0.1009122174,
				"y": 3.2332732128,
				"z": -0.5094968536,
				"element": "H" 
			},
			{
				"x": -0.1118533769,
				"y": 2.0094931535,
				"z": -1.8015609725,
				"element": "H" 
			}
		],
		 "valence_orbital": [ 
			{
				"type": "occ",
				"energy": -0.37179,
				"method": "rhf"
			},
			{
				"type": "occ",
				"energy": -0.36765,
				"method": "rhf"
			},
			{
				"type": "occ",
				"energy": -0.33681,
				"method": "rhf"
			},
			{
				"type": "occ",
				"energy": -0.25236,
				"method": "rhf"
			},
			{
				"type": "occ",
				"energy": -0.24061,
				"method": "rhf"
			},
			{
				"type": "unocc",
				"energy": -0.01794,
				"method": "rhf"
			},
			{
				"type": "unocc",
				"energy": -0.00028,
				"method": "rhf"
			},
			{
				"type": "unocc",
				"energy": 0.04742,
				"method": "rhf"
			},
			{
				"type": "unocc",
				"energy": 0.11438,
				"method": "rhf"
			},
			{
				"type": "unocc",
				"energy": 0.11481,
				"method": "rhf"
			}
		],
		"cosmo_sigma_profile": { 
			"-0.025": 0.0,
			"-0.024": 0.0,
			"-0.023": 0.0,
			"-0.022": 0.0,
			"-0.021": 0.0,
			"-0.02": 0.0,
			"-0.019": 0.0,
			"-0.018": 0.0,
			"-0.017": 0.0,
			"-0.016": 0.0,
			"-0.015": 0.0,
			"-0.014": 0.0,
			"-0.013": 0.0,
			"-0.012": 0.0,
			"-0.011": 0.0,
			"-0.01": 0.0,
			"-0.009": 0.0,
			"-0.008": 0.0,
			"-0.007": 0.0,
			"-0.006": 1.71988650616,
			"-0.005": 7.15129220281,
			"-0.004": 11.8031260319,
			"-0.003": 12.8573468976,
			"-0.002": 20.4072558286,
			"-0.001": 38.6691476473,
			"0.0": 25.2680266587,
			"0.001": 10.7346714665,
			"0.002": 9.00514414158,
			"0.003": 26.9402532228,
			"0.004": 24.4460350685,
			"0.005": 0.9147851555,
			"0.006": 0.0,
			"0.007": 0.0,
			"0.008": 0.0,
			"0.009": 0.0,
			"0.01": 0.0,
			"0.011": 0.0,
			"0.012": 0.0,
			"0.013": 0.0,
			"0.014": 0.0,
			"0.015": 0.0,
			"0.016": 0.0,
			"0.017": 0.0,
			"0.018": 0.0,
			"0.019": 0.0,
			"0.02": 0.0,
			"0.021": 0.0,
			"0.022": 0.0,
			"0.023": 0.0,
			"0.024": 0.0,
			"0.025": 0.0
		}
	}
}
