{
	 "smiles": "CC1=C(CBr)C(CBr)=C(CBr)C(CBr)=C1C", 
	 "Tm": 478.15, 
	 "num_atms": 30, 
	 "gaussian": { 
		 "optdone": 1, 
		 "sigma_profile": "yes", 
		 "theory": "DFT", 
		 "functional": "B3LYP", 
		 "basiset": "6-31G**", 
		 "properties": { 
			 "R2extent": 10264.1908, 
			 "electric_dipole_moment_norm": 3.97366105626, 
			 "electric_quadrupole_moment_norm": 15.2683788085, 
			 "total_energy": -10751.3523411, 
			 "HOMO_LUMO_gap": 0.18311, 
			 "cosmo_polarized_energy": -14.77, 
			 "cosmo_cavitation_energy": 38.82, 
			 "cosmo_dispersion_energy": -28.32, 
			 "cosmo_repulsion_energy": 2.19, 
			 "cosmo_total_nonelectrostatic_energy": 12.69, 
			 "SMD_solvation_energy": 1.84 
		},
		"coords": [
			{
				"x": -1.453883238,
				"y": 0.4348558268,
				"z": 3.4066250135,
				"element": "C" 
			},
			{
				"x": -0.5226042528,
				"y": 0.3629116291,
				"z": 2.2126766456,
				"element": "C" 
			},
			{
				"x": -0.2148479984,
				"y": 1.5314362812,
				"z": 1.4819838991,
				"element": "C" 
			},
			{
				"x": -0.7532363632,
				"y": 2.8397567231,
				"z": 1.9807012728,
				"element": "C" 
			},
			{
				"x": -2.6117213248,
				"y": 3.2192288784,
				"z": 1.324422636,
				"element": "Br" 
			},
			{
				"x": 0.6114733888,
				"y": 1.4649789446,
				"z": 0.3330835006,
				"element": "C" 
			},
			{
				"x": 1.0043860897,
				"y": 2.7156203327,
				"z": -0.3973547268,
				"element": "C" 
			},
			{
				"x": -0.1715634545,
				"y": 3.1323568257,
				"z": -1.9591850472,
				"element": "Br" 
			},
			{
				"x": 1.0899284057,
				"y": 0.2087184311,
				"z": -0.1023095106,
				"element": "C" 
			},
			{
				"x": 1.9463702005,
				"y": 0.0795826591,
				"z": -1.3276146133,
				"element": "C" 
			},
			{
				"x": 0.9289994188,
				"y": -0.5798722281,
				"z": -2.9307316253,
				"element": "Br" 
			},
			{
				"x": 0.7973354165,
				"y": -0.9513472219,
				"z": 0.6483643842,
				"element": "C" 
			},
			{
				"x": 1.2642456672,
				"y": -2.289921792,
				"z": 0.1643416664,
				"element": "C" 
			},
			{
				"x": 3.1071237614,
				"y": -2.7458166286,
				"z": 0.8372997937,
				"element": "Br" 
			},
			{
				"x": 0.0373512551,
				"y": -0.8705363516,
				"z": 1.8313363019,
				"element": "C" 
			},
			{
				"x": -0.1642617501,
				"y": -2.1025101492,
				"z": 2.6910468353,
				"element": "C" 
			},
			{
				"x": -1.961329687,
				"y": -0.5159154158,
				"z": 3.5732977883,
				"element": "H" 
			},
			{
				"x": -0.9158010291,
				"y": 0.681626874,
				"z": 4.3319273414,
				"element": "H" 
			},
			{
				"x": -2.2323108085,
				"y": 1.1855224466,
				"z": 3.2604621072,
				"element": "H" 
			},
			{
				"x": -0.8481000194,
				"y": 2.864178353,
				"z": 3.062532037,
				"element": "H" 
			},
			{
				"x": -0.187365967,
				"y": 3.7079494857,
				"z": 1.6626464978,
				"element": "H" 
			},
			{
				"x": 2.003694869,
				"y": 2.6636325939,
				"z": -0.8187636248,
				"element": "H" 
			},
			{
				"x": 0.9517074086,
				"y": 3.6072437266,
				"z": 0.2171254363,
				"element": "H" 
			},
			{
				"x": 2.7447187743,
				"y": -0.6479129038,
				"z": -1.2010473224,
				"element": "H" 
			},
			{
				"x": 2.3695867079,
				"y": 1.0149390213,
				"z": -1.6739327138,
				"element": "H" 
			},
			{
				"x": 0.6462730809,
				"y": -3.1082530312,
				"z": 0.5197529201,
				"element": "H" 
			},
			{
				"x": 1.347601502,
				"y": -2.3509310711,
				"z": -0.9161416284,
				"element": "H" 
			},
			{
				"x": -0.2842764838,
				"y": -1.8377395495,
				"z": 3.7425196927,
				"element": "H" 
			},
			{
				"x": -1.0562932983,
				"y": -2.670457839,
				"z": 2.3953601314,
				"element": "H" 
			},
			{
				"x": 0.6950997284,
				"y": -2.7729248512,
				"z": 2.6319749114,
				"element": "H" 
			}
		],
		 "valence_orbital": [ 
			{
				"type": "occ",
				"energy": -0.27442,
				"method": "rhf"
			},
			{
				"type": "occ",
				"energy": -0.26892,
				"method": "rhf"
			},
			{
				"type": "occ",
				"energy": -0.26145,
				"method": "rhf"
			},
			{
				"type": "occ",
				"energy": -0.25341,
				"method": "rhf"
			},
			{
				"type": "occ",
				"energy": -0.25176,
				"method": "rhf"
			},
			{
				"type": "unocc",
				"energy": -0.06865,
				"method": "rhf"
			},
			{
				"type": "unocc",
				"energy": -0.05726,
				"method": "rhf"
			},
			{
				"type": "unocc",
				"energy": -0.01491,
				"method": "rhf"
			},
			{
				"type": "unocc",
				"energy": -0.00575,
				"method": "rhf"
			},
			{
				"type": "unocc",
				"energy": 0.02431,
				"method": "rhf"
			}
		],
		"cosmo_sigma_profile": { 
			"-0.025": 0.0,
			"-0.024": 0.0,
			"-0.023": 0.0,
			"-0.022": 0.0,
			"-0.021": 0.0,
			"-0.02": 0.0,
			"-0.019": 0.0,
			"-0.018": 0.0,
			"-0.017": 0.0,
			"-0.016": 0.0,
			"-0.015": 0.0,
			"-0.014": 0.0,
			"-0.013": 0.0,
			"-0.012": 0.443936343862,
			"-0.011": 2.58904713518,
			"-0.01": 3.09501750191,
			"-0.009": 3.45668711885,
			"-0.008": 6.14806202241,
			"-0.007": 8.78241696456,
			"-0.006": 13.1850760671,
			"-0.005": 21.6757198242,
			"-0.004": 22.4914352137,
			"-0.003": 19.3907498314,
			"-0.002": 21.5921955652,
			"-0.001": 23.5410055788,
			"0.0": 21.5510334393,
			"0.001": 18.6695155937,
			"0.002": 23.507766309,
			"0.003": 19.7933809613,
			"0.004": 22.5696201969,
			"0.005": 27.0433071124,
			"0.006": 29.2938050361,
			"0.007": 10.1498263362,
			"0.008": 1.79463777413,
			"0.009": 0.0,
			"0.01": 0.0,
			"0.011": 0.0,
			"0.012": 0.0,
			"0.013": 0.0,
			"0.014": 0.0,
			"0.015": 0.0,
			"0.016": 0.0,
			"0.017": 0.0,
			"0.018": 0.0,
			"0.019": 0.0,
			"0.02": 0.0,
			"0.021": 0.0,
			"0.022": 0.0,
			"0.023": 0.0,
			"0.024": 0.0,
			"0.025": 0.0
		}
	}
}
