{
	 "smiles": "CN(C)C(=O)N1C=C(F)C(=O)NC1=O", 
	 "Tm": 499.15, 
	 "num_atms": 22, 
	 "gaussian": { 
		 "optdone": 1, 
		 "sigma_profile": "yes", 
		 "theory": "DFT", 
		 "functional": "B3LYP", 
		 "basiset": "6-31G**", 
		 "properties": { 
			 "R2extent": 4060.7667, 
			 "electric_dipole_moment_norm": 4.84919437536, 
			 "electric_quadrupole_moment_norm": 13.4658177022, 
			 "total_energy": -761.350097459, 
			 "HOMO_LUMO_gap": 0.19756, 
			 "cosmo_polarized_energy": -16.93, 
			 "cosmo_cavitation_energy": 27.1, 
			 "cosmo_dispersion_energy": -19.5, 
			 "cosmo_repulsion_energy": 1.5, 
			 "cosmo_total_nonelectrostatic_energy": 9.1, 
			 "SMD_solvation_energy": 8.17 
		},
		"coords": [
			{
				"x": 1.5130580479,
				"y": 1.0657687621,
				"z": -0.4314990659,
				"element": "C" 
			},
			{
				"x": 0.7919350148,
				"y": 0.3658317279,
				"z": 0.6251774579,
				"element": "N" 
			},
			{
				"x": 1.6174792729,
				"y": -0.3169103049,
				"z": 1.617680263,
				"element": "C" 
			},
			{
				"x": -0.550067683,
				"y": 0.339861889,
				"z": 0.7959956261,
				"element": "C" 
			},
			{
				"x": -1.1286040397,
				"y": -0.0339422216,
				"z": 1.8036051312,
				"element": "O" 
			},
			{
				"x": -1.3509391964,
				"y": 0.8642792155,
				"z": -0.310831239,
				"element": "N" 
			},
			{
				"x": -2.4718485536,
				"y": 1.6065827785,
				"z": 0.0614662614,
				"element": "C" 
			},
			{
				"x": -3.3964440018,
				"y": 1.997334607,
				"z": -0.8309410902,
				"element": "C" 
			},
			{
				"x": -4.4437825528,
				"y": 2.744905627,
				"z": -0.464125866,
				"element": "F" 
			},
			{
				"x": -3.3182941561,
				"y": 1.6129946188,
				"z": -2.2394152723,
				"element": "C" 
			},
			{
				"x": -4.1022504539,
				"y": 1.9172715493,
				"z": -3.1174526073,
				"element": "O" 
			},
			{
				"x": -2.1972671819,
				"y": 0.8013669104,
				"z": -2.4901689961,
				"element": "N" 
			},
			{
				"x": -1.2369512259,
				"y": 0.3270186584,
				"z": -1.6072332678,
				"element": "C" 
			},
			{
				"x": -0.3786927251,
				"y": -0.4683475986,
				"z": -1.9417509754,
				"element": "O" 
			},
			{
				"x": 2.3677601856,
				"y": 1.5809547562,
				"z": 0.0192646478,
				"element": "H" 
			},
			{
				"x": 0.8758144221,
				"y": 1.8147142947,
				"z": -0.9000621504,
				"element": "H" 
			},
			{
				"x": 1.8660404001,
				"y": 0.3723628396,
				"z": -1.1993255451,
				"element": "H" 
			},
			{
				"x": 2.3144982919,
				"y": -0.9933314761,
				"z": 1.1116138346,
				"element": "H" 
			},
			{
				"x": 2.1942107624,
				"y": 0.4084983595,
				"z": 2.2038797055,
				"element": "H" 
			},
			{
				"x": 0.9742369526,
				"y": -0.8837438349,
				"z": 2.2875381761,
				"element": "H" 
			},
			{
				"x": -2.5440275213,
				"y": 1.8458735543,
				"z": 1.1137895229,
				"element": "H" 
			},
			{
				"x": -2.1205640586,
				"y": 0.4359552881,
				"z": -3.432504551,
				"element": "H" 
			}
		],
		 "valence_orbital": [ 
			{
				"type": "occ",
				"energy": -0.29975,
				"method": "rhf"
			},
			{
				"type": "occ",
				"energy": -0.29436,
				"method": "rhf"
			},
			{
				"type": "occ",
				"energy": -0.27898,
				"method": "rhf"
			},
			{
				"type": "occ",
				"energy": -0.26334,
				"method": "rhf"
			},
			{
				"type": "occ",
				"energy": -0.25126,
				"method": "rhf"
			},
			{
				"type": "unocc",
				"energy": -0.0537,
				"method": "rhf"
			},
			{
				"type": "unocc",
				"energy": -0.01268,
				"method": "rhf"
			},
			{
				"type": "unocc",
				"energy": 0.01729,
				"method": "rhf"
			},
			{
				"type": "unocc",
				"energy": 0.06773,
				"method": "rhf"
			},
			{
				"type": "unocc",
				"energy": 0.08357,
				"method": "rhf"
			}
		],
		"cosmo_sigma_profile": { 
			"-0.025": 0.0,
			"-0.024": 0.0,
			"-0.023": 0.0,
			"-0.022": 0.0,
			"-0.021": 0.0,
			"-0.02": 0.0,
			"-0.019": 0.0,
			"-0.018": 0.0,
			"-0.017": 0.516421949637,
			"-0.016": 0.737672010385,
			"-0.015": 0.791448549911,
			"-0.014": 0.860222066677,
			"-0.013": 1.05066734171,
			"-0.012": 0.913450192931,
			"-0.011": 1.14609767273,
			"-0.01": 1.44505847114,
			"-0.009": 2.2981341162,
			"-0.008": 4.37858278609,
			"-0.007": 5.36141384325,
			"-0.006": 15.051097827,
			"-0.005": 18.2023420463,
			"-0.004": 19.2069105201,
			"-0.003": 22.8916651574,
			"-0.002": 19.8052112587,
			"-0.001": 10.8617547204,
			"0.0": 7.43999435417,
			"0.001": 5.74819007232,
			"0.002": 7.02739480381,
			"0.003": 11.7553854446,
			"0.004": 7.69800936847,
			"0.005": 4.43237033983,
			"0.006": 4.37414469334,
			"0.007": 3.73781249224,
			"0.008": 4.98873507392,
			"0.009": 4.75586565494,
			"0.01": 5.97470285878,
			"0.011": 10.192378387,
			"0.012": 11.5656447804,
			"0.013": 0.830836188796,
			"0.014": 0.0,
			"0.015": 0.0,
			"0.016": 0.0,
			"0.017": 0.0,
			"0.018": 0.0,
			"0.019": 0.0,
			"0.02": 0.0,
			"0.021": 0.0,
			"0.022": 0.0,
			"0.023": 0.0,
			"0.024": 0.0,
			"0.025": 0.0
		}
	}
}
