{
	 "smiles": "CC1=NC(=CN1CCC#N)[N+]([O-])=O", 
	 "Tm": 388.15, 
	 "num_atms": 21, 
	 "gaussian": { 
		 "optdone": 1, 
		 "sigma_profile": "yes", 
		 "theory": "DFT", 
		 "functional": "B3LYP", 
		 "basiset": "6-31G**", 
		 "properties": { 
			 "R2extent": 2884.5433, 
			 "electric_dipole_moment_norm": 9.71523538521, 
			 "electric_quadrupole_moment_norm": 11.3341312918, 
			 "total_energy": -640.896142809, 
			 "HOMO_LUMO_gap": 0.18746, 
			 "cosmo_polarized_energy": -28.15, 
			 "cosmo_cavitation_energy": 27.49, 
			 "cosmo_dispersion_energy": -18.61, 
			 "cosmo_repulsion_energy": 1.49, 
			 "cosmo_total_nonelectrostatic_energy": 10.37, 
			 "SMD_solvation_energy": 7.01 
		},
		"coords": [
			{
				"x": -0.4947713422,
				"y": 2.0603612253,
				"z": 0.9947591672,
				"element": "C" 
			},
			{
				"x": -0.1760263542,
				"y": 0.7058687671,
				"z": 0.4505053282,
				"element": "C" 
			},
			{
				"x": 0.2163227576,
				"y": -0.3213120229,
				"z": 1.1705611561,
				"element": "N" 
			},
			{
				"x": 0.4041542397,
				"y": -1.3286338886,
				"z": 0.2720800462,
				"element": "C" 
			},
			{
				"x": 0.1320139331,
				"y": -0.9392420389,
				"z": -1.0155661399,
				"element": "C" 
			},
			{
				"x": -0.2415510109,
				"y": 0.3791868529,
				"z": -0.8987301158,
				"element": "N" 
			},
			{
				"x": -0.6540239016,
				"y": 1.2507996652,
				"z": -1.9897615903,
				"element": "C" 
			},
			{
				"x": -2.1540661031,
				"y": 1.1319290628,
				"z": -2.3437602396,
				"element": "C" 
			},
			{
				"x": -2.5002348725,
				"y": -0.1689999259,
				"z": -2.9204242653,
				"element": "C" 
			},
			{
				"x": -2.7477238822,
				"y": -1.2019770897,
				"z": -3.3873594787,
				"element": "N" 
			},
			{
				"x": 0.8506983879,
				"y": -2.6452946492,
				"z": 0.6598936253,
				"element": "N" 
			},
			{
				"x": 1.0075280111,
				"y": -3.4570713923,
				"z": -0.2593599685,
				"element": "O" 
			},
			{
				"x": 1.0423035366,
				"y": -2.867105131,
				"z": 1.8504160143,
				"element": "O" 
			},
			{
				"x": -1.5281597546,
				"y": 2.3624978454,
				"z": 0.7886920637,
				"element": "H" 
			},
			{
				"x": -0.35913215,
				"y": 2.0251606722,
				"z": 2.0761083944,
				"element": "H" 
			},
			{
				"x": 0.1685273897,
				"y": 2.8348529656,
				"z": 0.5916889711,
				"element": "H" 
			},
			{
				"x": 0.1621430475,
				"y": -1.4713293306,
				"z": -1.9520114784,
				"element": "H" 
			},
			{
				"x": -0.0437127341,
				"y": 1.0242919328,
				"z": -2.8674419539,
				"element": "H" 
			},
			{
				"x": -0.4457336695,
				"y": 2.2826411599,
				"z": -1.6994468265,
				"element": "H" 
			},
			{
				"x": -2.7672329376,
				"y": 1.3023220299,
				"z": -1.4521880965,
				"element": "H" 
			},
			{
				"x": -2.4092225907,
				"y": 1.9138532899,
				"z": -3.0683546132,
				"element": "H" 
			}
		],
		 "valence_orbital": [ 
			{
				"type": "occ",
				"energy": -0.30341,
				"method": "rhf"
			},
			{
				"type": "occ",
				"energy": -0.29377,
				"method": "rhf"
			},
			{
				"type": "occ",
				"energy": -0.29353,
				"method": "rhf"
			},
			{
				"type": "occ",
				"energy": -0.27706,
				"method": "rhf"
			},
			{
				"type": "occ",
				"energy": -0.25747,
				"method": "rhf"
			},
			{
				"type": "unocc",
				"energy": -0.07001,
				"method": "rhf"
			},
			{
				"type": "unocc",
				"energy": -0.00836,
				"method": "rhf"
			},
			{
				"type": "unocc",
				"energy": 0.00126,
				"method": "rhf"
			},
			{
				"type": "unocc",
				"energy": 0.01014,
				"method": "rhf"
			},
			{
				"type": "unocc",
				"energy": 0.05757,
				"method": "rhf"
			}
		],
		"cosmo_sigma_profile": { 
			"-0.025": 0.0,
			"-0.024": 0.0,
			"-0.023": 0.0,
			"-0.022": 0.0,
			"-0.021": 0.0,
			"-0.02": 0.0,
			"-0.019": 0.0,
			"-0.018": 0.0,
			"-0.017": 0.0,
			"-0.016": 0.0,
			"-0.015": 0.0,
			"-0.014": 0.0,
			"-0.013": 0.0,
			"-0.012": 0.0421104554131,
			"-0.011": 1.08749539789,
			"-0.01": 4.98637536575,
			"-0.009": 17.2660614798,
			"-0.008": 14.5799936502,
			"-0.007": 12.2047479109,
			"-0.006": 13.0980717587,
			"-0.005": 10.4628713017,
			"-0.004": 10.6203306357,
			"-0.003": 11.4147754334,
			"-0.002": 12.7479670668,
			"-0.001": 12.0675365551,
			"0.0": 8.86520675931,
			"0.001": 6.31222020489,
			"0.002": 5.36250753847,
			"0.003": 4.30923173399,
			"0.004": 5.92441701179,
			"0.005": 5.81014211728,
			"0.006": 6.02291541865,
			"0.007": 6.50759253298,
			"0.008": 15.1307580145,
			"0.009": 10.9405682738,
			"0.01": 8.85969372047,
			"0.011": 5.41688714892,
			"0.012": 3.32543561069,
			"0.013": 2.96099422148,
			"0.014": 1.28081789723,
			"0.015": 1.44857875105,
			"0.016": 0.747608614954,
			"0.017": 0.0532173303265,
			"0.018": 0.0,
			"0.019": 0.0,
			"0.02": 0.0,
			"0.021": 0.0,
			"0.022": 0.0,
			"0.023": 0.0,
			"0.024": 0.0,
			"0.025": 0.0
		}
	}
}
