{
	 "smiles": "FC(F)(F)C1=CC2=C(SC(S)=N2)C=C1", 
	 "Tm": 495.15, 
	 "num_atms": 18, 
	 "gaussian": { 
		 "optdone": 1, 
		 "sigma_profile": "yes", 
		 "theory": "DFT", 
		 "functional": "B3LYP", 
		 "basiset": "6-31G**", 
		 "properties": { 
			 "R2extent": 4777.1466, 
			 "electric_dipole_moment_norm": 2.14124776941, 
			 "electric_quadrupole_moment_norm": 8.56453247644, 
			 "total_energy": -1457.91654276, 
			 "HOMO_LUMO_gap": 0.19133, 
			 "cosmo_polarized_energy": -6.47, 
			 "cosmo_cavitation_energy": 27.68, 
			 "cosmo_dispersion_energy": -21.11, 
			 "cosmo_repulsion_energy": 1.49, 
			 "cosmo_total_nonelectrostatic_energy": 8.06, 
			 "SMD_solvation_energy": 3.19 
		},
		"coords": [
			{
				"x": -3.2923401635,
				"y": -0.7526619183,
				"z": -1.5579934314,
				"element": "F" 
			},
			{
				"x": -2.3260558647,
				"y": 0.1943326497,
				"z": -1.6007221841,
				"element": "C" 
			},
			{
				"x": -2.9349806679,
				"y": 1.3520429329,
				"z": -1.9456758018,
				"element": "F" 
			},
			{
				"x": -1.487321734,
				"y": -0.1391185979,
				"z": -2.6042171947,
				"element": "F" 
			},
			{
				"x": -1.6137310968,
				"y": 0.3167020227,
				"z": -0.2802920937,
				"element": "C" 
			},
			{
				"x": -0.3585432015,
				"y": -0.2567636024,
				"z": -0.1078722028,
				"element": "C" 
			},
			{
				"x": 0.257575985,
				"y": -0.1640413365,
				"z": 1.1459983492,
				"element": "C" 
			},
			{
				"x": -0.4048906188,
				"y": 0.5043639201,
				"z": 2.2035465873,
				"element": "C" 
			},
			{
				"x": 0.6031255315,
				"y": 0.4621567036,
				"z": 3.6388979437,
				"element": "S" 
			},
			{
				"x": 1.8087088896,
				"y": -0.4427907982,
				"z": 2.6871562251,
				"element": "C" 
			},
			{
				"x": 3.3095972696,
				"y": -0.9394306905,
				"z": 3.473383283,
				"element": "S" 
			},
			{
				"x": 1.505485237,
				"y": -0.6856038737,
				"z": 1.4552655944,
				"element": "N" 
			},
			{
				"x": -1.6649556434,
				"y": 1.0799277322,
				"z": 2.0277140555,
				"element": "C" 
			},
			{
				"x": -2.2634625554,
				"y": 0.9800738156,
				"z": 0.7767091422,
				"element": "C" 
			},
			{
				"x": 0.1474098747,
				"y": -0.7639101997,
				"z": -0.9203766026,
				"element": "H" 
			},
			{
				"x": 3.7934754248,
				"y": -1.5332285168,
				"z": 2.3647605937,
				"element": "H" 
			},
			{
				"x": -2.1676000992,
				"y": 1.5953090148,
				"z": 2.8391798658,
				"element": "H" 
			},
			{
				"x": -3.2381965671,
				"y": 1.4249407425,
				"z": 0.6084378714,
				"element": "H" 
			}
		],
		 "valence_orbital": [ 
			{
				"type": "occ",
				"energy": -0.32169,
				"method": "rhf"
			},
			{
				"type": "occ",
				"energy": -0.30284,
				"method": "rhf"
			},
			{
				"type": "occ",
				"energy": -0.2972,
				"method": "rhf"
			},
			{
				"type": "occ",
				"energy": -0.25615,
				"method": "rhf"
			},
			{
				"type": "occ",
				"energy": -0.2413,
				"method": "rhf"
			},
			{
				"type": "unocc",
				"energy": -0.04997,
				"method": "rhf"
			},
			{
				"type": "unocc",
				"energy": -0.03341,
				"method": "rhf"
			},
			{
				"type": "unocc",
				"energy": -0.02363,
				"method": "rhf"
			},
			{
				"type": "unocc",
				"energy": 0.01181,
				"method": "rhf"
			},
			{
				"type": "unocc",
				"energy": 0.01234,
				"method": "rhf"
			}
		],
		"cosmo_sigma_profile": { 
			"-0.025": 0.0,
			"-0.024": 0.0,
			"-0.023": 0.0,
			"-0.022": 0.0,
			"-0.021": 0.0,
			"-0.02": 0.0,
			"-0.019": 0.0,
			"-0.018": 0.0,
			"-0.017": 0.0,
			"-0.016": 0.0,
			"-0.015": 0.0,
			"-0.014": 0.0,
			"-0.013": 0.250492088836,
			"-0.012": 1.5394419052,
			"-0.011": 1.57876181514,
			"-0.01": 1.25764861018,
			"-0.009": 1.44655880691,
			"-0.008": 4.70406831858,
			"-0.007": 7.21088485898,
			"-0.006": 7.61015787004,
			"-0.005": 7.94660126987,
			"-0.004": 8.1144280961,
			"-0.003": 9.5336309759,
			"-0.002": 12.2612644585,
			"-0.001": 17.8446197418,
			"0.0": 22.3740471454,
			"0.001": 30.9000087696,
			"0.002": 37.7140282463,
			"0.003": 36.8557053945,
			"0.004": 6.75869684896,
			"0.005": 3.3084627888,
			"0.006": 3.30305721599,
			"0.007": 1.50861211614,
			"0.008": 0.787783006907,
			"0.009": 0.939164473492,
			"0.01": 0.928916044193,
			"0.011": 0.645407281671,
			"0.012": 0.919199086703,
			"0.013": 0.265789343259,
			"0.014": 0.0,
			"0.015": 0.0,
			"0.016": 0.0,
			"0.017": 0.0,
			"0.018": 0.0,
			"0.019": 0.0,
			"0.02": 0.0,
			"0.021": 0.0,
			"0.022": 0.0,
			"0.023": 0.0,
			"0.024": 0.0,
			"0.025": 0.0
		}
	}
}
