{
	 "smiles": "CC(C)CC1=NC(C#N)=C(NN)O1", 
	 "Tm": 376.15, 
	 "num_atms": 25, 
	 "gaussian": { 
		 "optdone": 1, 
		 "sigma_profile": "yes", 
		 "theory": "DFT", 
		 "functional": "B3LYP", 
		 "basiset": "6-31G**", 
		 "properties": { 
			 "R2extent": 3523.8085, 
			 "electric_dipole_moment_norm": 5.30935061472, 
			 "electric_quadrupole_moment_norm": 15.9513462777, 
			 "total_energy": -606.259621558, 
			 "HOMO_LUMO_gap": 0.20595, 
			 "cosmo_polarized_energy": -16.02, 
			 "cosmo_cavitation_energy": 29.68, 
			 "cosmo_dispersion_energy": -20.32, 
			 "cosmo_repulsion_energy": 1.64, 
			 "cosmo_total_nonelectrostatic_energy": 11.01, 
			 "SMD_solvation_energy": 5.28 
		},
		"coords": [
			{
				"x": -2.1360968198,
				"y": -0.1193172724,
				"z": -0.2561016903,
				"element": "C" 
			},
			{
				"x": -1.5850728699,
				"y": -0.0257610569,
				"z": 1.1728205488,
				"element": "C" 
			},
			{
				"x": -1.1402747556,
				"y": 1.4027347721,
				"z": 1.5161690601,
				"element": "C" 
			},
			{
				"x": -0.4648183365,
				"y": -1.0734268825,
				"z": 1.4276059082,
				"element": "C" 
			},
			{
				"x": 0.7595349421,
				"y": -0.9237724707,
				"z": 0.5899052516,
				"element": "C" 
			},
			{
				"x": 1.0792974566,
				"y": -1.5070436194,
				"z": -0.5121570961,
				"element": "N" 
			},
			{
				"x": 2.3330784296,
				"y": -0.9874993805,
				"z": -0.8666156258,
				"element": "C" 
			},
			{
				"x": 3.0517899381,
				"y": -1.3893193398,
				"z": -2.0181632816,
				"element": "C" 
			},
			{
				"x": 3.6638452222,
				"y": -1.7024788805,
				"z": -2.9596426965,
				"element": "N" 
			},
			{
				"x": 2.7122860891,
				"y": -0.0755916203,
				"z": 0.0981260331,
				"element": "C" 
			},
			{
				"x": 3.8178165867,
				"y": 0.6921226146,
				"z": 0.3121944123,
				"element": "N" 
			},
			{
				"x": 4.730047449,
				"y": 0.952885475,
				"z": -0.7276630144,
				"element": "N" 
			},
			{
				"x": 1.7293623758,
				"y": -0.0176145633,
				"z": 1.0279449076,
				"element": "O" 
			},
			{
				"x": -1.3655165811,
				"y": 0.1173837603,
				"z": -0.9972285641,
				"element": "H" 
			},
			{
				"x": -2.5047684589,
				"y": -1.1263378656,
				"z": -0.4773389097,
				"element": "H" 
			},
			{
				"x": -2.9651539989,
				"y": 0.5819756081,
				"z": -0.3968577131,
				"element": "H" 
			},
			{
				"x": -2.3936419728,
				"y": -0.2981317908,
				"z": 1.8652440499,
				"element": "H" 
			},
			{
				"x": -0.7600084104,
				"y": 1.4713723011,
				"z": 2.5412785616,
				"element": "H" 
			},
			{
				"x": -1.9797770825,
				"y": 2.0992922939,
				"z": 1.4225214191,
				"element": "H" 
			},
			{
				"x": -0.3479812131,
				"y": 1.7483357075,
				"z": 0.8434277626,
				"element": "H" 
			},
			{
				"x": -0.1698503284,
				"y": -1.0383368957,
				"z": 2.4827384653,
				"element": "H" 
			},
			{
				"x": -0.8582640579,
				"y": -2.0743478008,
				"z": 1.2274048863,
				"element": "H" 
			},
			{
				"x": 3.7143936858,
				"y": 1.4517655639,
				"z": 0.9716046674,
				"element": "H" 
			},
			{
				"x": 4.23477892,
				"y": 1.1360027975,
				"z": -1.6001376744,
				"element": "H" 
			},
			{
				"x": 5.3111937906,
				"y": 0.1307085453,
				"z": -0.8689796681,
				"element": "H" 
			}
		],
		 "valence_orbital": [ 
			{
				"type": "occ",
				"energy": -0.33215,
				"method": "rhf"
			},
			{
				"type": "occ",
				"energy": -0.31319,
				"method": "rhf"
			},
			{
				"type": "occ",
				"energy": -0.3027,
				"method": "rhf"
			},
			{
				"type": "occ",
				"energy": -0.29179,
				"method": "rhf"
			},
			{
				"type": "occ",
				"energy": -0.22005,
				"method": "rhf"
			},
			{
				"type": "unocc",
				"energy": -0.0141,
				"method": "rhf"
			},
			{
				"type": "unocc",
				"energy": 0.0025,
				"method": "rhf"
			},
			{
				"type": "unocc",
				"energy": 0.02467,
				"method": "rhf"
			},
			{
				"type": "unocc",
				"energy": 0.06939,
				"method": "rhf"
			},
			{
				"type": "unocc",
				"energy": 0.0746,
				"method": "rhf"
			}
		],
		"cosmo_sigma_profile": { 
			"-0.025": 0.0,
			"-0.024": 0.0,
			"-0.023": 0.0,
			"-0.022": 0.0,
			"-0.021": 0.0,
			"-0.02": 0.0,
			"-0.019": 0.0,
			"-0.018": 0.0,
			"-0.017": 0.0,
			"-0.016": 0.160179020189,
			"-0.015": 1.27588815579,
			"-0.014": 0.969620651124,
			"-0.013": 1.06603201205,
			"-0.012": 2.52763161706,
			"-0.011": 4.3163049235,
			"-0.01": 3.14485885726,
			"-0.009": 3.18047020289,
			"-0.008": 3.91921899111,
			"-0.007": 3.52199807665,
			"-0.006": 5.50813263329,
			"-0.005": 7.51500058572,
			"-0.004": 11.1117386534,
			"-0.003": 25.6624921325,
			"-0.002": 25.7382222727,
			"-0.001": 20.5576694522,
			"0.0": 19.9387968933,
			"0.001": 21.9608515552,
			"0.002": 12.2650876247,
			"0.003": 7.86209411443,
			"0.004": 6.8656673319,
			"0.005": 6.3683617117,
			"0.006": 5.1081743885,
			"0.007": 4.74751514241,
			"0.008": 4.4114780469,
			"0.009": 4.00753659065,
			"0.01": 4.78766775298,
			"0.011": 4.58574200308,
			"0.012": 4.26644888909,
			"0.013": 3.94177662283,
			"0.014": 1.71910587383,
			"0.015": 0.915823966141,
			"0.016": 0.11215949187,
			"0.017": 0.0,
			"0.018": 0.0,
			"0.019": 0.0,
			"0.02": 0.0,
			"0.021": 0.0,
			"0.022": 0.0,
			"0.023": 0.0,
			"0.024": 0.0,
			"0.025": 0.0
		}
	}
}
