{
	 "smiles": "COC(=O)C1=C(Cl)C=C(Br)C(=C1)S(Cl)(=O)=O", 
	 "Tm": 409.15, 
	 "num_atms": 21, 
	 "gaussian": { 
		 "optdone": 1, 
		 "sigma_profile": "yes", 
		 "theory": "DFT", 
		 "functional": "B3LYP", 
		 "basiset": "6-31G**", 
		 "properties": { 
			 "R2extent": 7701.8888, 
			 "electric_dipole_moment_norm": 5.50276743012, 
			 "electric_quadrupole_moment_norm": 14.3441889823, 
			 "total_energy": -4498.65367828, 
			 "HOMO_LUMO_gap": 0.18297, 
			 "cosmo_polarized_energy": -11.24, 
			 "cosmo_cavitation_energy": 33.57, 
			 "cosmo_dispersion_energy": -25.1, 
			 "cosmo_repulsion_energy": 1.91, 
			 "cosmo_total_nonelectrostatic_energy": 10.38, 
			 "SMD_solvation_energy": 4.89 
		},
		"coords": [
			{
				"x": 1.765314765,
				"y": 3.6620581832,
				"z": 1.689970309,
				"element": "C" 
			},
			{
				"x": 0.9060043201,
				"y": 2.575833945,
				"z": 1.2921692035,
				"element": "O" 
			},
			{
				"x": 1.52876733,
				"y": 1.5253191072,
				"z": 0.7471517537,
				"element": "C" 
			},
			{
				"x": 2.7316889142,
				"y": 1.4634231124,
				"z": 0.5865902951,
				"element": "O" 
			},
			{
				"x": 0.6106397371,
				"y": 0.4036757338,
				"z": 0.3400170169,
				"element": "C" 
			},
			{
				"x": -0.791017277,
				"y": 0.3264054034,
				"z": 0.4558692431,
				"element": "C" 
			},
			{
				"x": -1.7887552114,
				"y": 1.5870446088,
				"z": 1.1299725284,
				"element": "Cl" 
			},
			{
				"x": -1.4801038685,
				"y": -0.80868107,
				"z": 0.0156189218,
				"element": "C" 
			},
			{
				"x": -0.80687412,
				"y": -1.8911955282,
				"z": -0.5418042989,
				"element": "C" 
			},
			{
				"x": -1.85022161,
				"y": -3.3594547606,
				"z": -1.1199048177,
				"element": "Br" 
			},
			{
				"x": 0.5908827546,
				"y": -1.8275782398,
				"z": -0.6579454898,
				"element": "C" 
			},
			{
				"x": 1.2715403731,
				"y": -0.6953699145,
				"z": -0.2263578871,
				"element": "C" 
			},
			{
				"x": 1.6225100539,
				"y": -3.1581197484,
				"z": -1.2995560574,
				"element": "S" 
			},
			{
				"x": 1.1475383873,
				"y": -3.0953027143,
				"z": -3.3660096453,
				"element": "Cl" 
			},
			{
				"x": 1.1655880724,
				"y": -4.4423609409,
				"z": -0.7916466129,
				"element": "O" 
			},
			{
				"x": 3.0131751763,
				"y": -2.740184459,
				"z": -1.1904809763,
				"element": "O" 
			},
			{
				"x": 1.1003303393,
				"y": 4.4178487516,
				"z": 2.1056151184,
				"element": "H" 
			},
			{
				"x": 2.3074940262,
				"y": 4.0535849181,
				"z": 0.8264481264,
				"element": "H" 
			},
			{
				"x": 2.4846615346,
				"y": 3.3229065026,
				"z": 2.438603363,
				"element": "H" 
			},
			{
				"x": -2.5578463014,
				"y": -0.8442366635,
				"z": 0.1102251988,
				"element": "H" 
			},
			{
				"x": 2.3500826043,
				"y": -0.6413162269,
				"z": -0.3189452928,
				"element": "H" 
			}
		],
		 "valence_orbital": [ 
			{
				"type": "occ",
				"energy": -0.31999,
				"method": "rhf"
			},
			{
				"type": "occ",
				"energy": -0.31106,
				"method": "rhf"
			},
			{
				"type": "occ",
				"energy": -0.30128,
				"method": "rhf"
			},
			{
				"type": "occ",
				"energy": -0.29325,
				"method": "rhf"
			},
			{
				"type": "occ",
				"energy": -0.28395,
				"method": "rhf"
			},
			{
				"type": "unocc",
				"energy": -0.10098,
				"method": "rhf"
			},
			{
				"type": "unocc",
				"energy": -0.08367,
				"method": "rhf"
			},
			{
				"type": "unocc",
				"energy": -0.06248,
				"method": "rhf"
			},
			{
				"type": "unocc",
				"energy": -0.03102,
				"method": "rhf"
			},
			{
				"type": "unocc",
				"energy": 0.00634,
				"method": "rhf"
			}
		],
		"cosmo_sigma_profile": { 
			"-0.025": 0.0,
			"-0.024": 0.0,
			"-0.023": 0.0,
			"-0.022": 0.0,
			"-0.021": 0.0,
			"-0.02": 0.0,
			"-0.019": 0.0,
			"-0.018": 0.0,
			"-0.017": 0.0,
			"-0.016": 0.0,
			"-0.015": 0.0,
			"-0.014": 0.0,
			"-0.013": 0.0,
			"-0.012": 0.0,
			"-0.011": 0.0,
			"-0.01": 0.545790509585,
			"-0.009": 1.44966119574,
			"-0.008": 1.84958864892,
			"-0.007": 5.74091021909,
			"-0.006": 11.5280752119,
			"-0.005": 17.4350609322,
			"-0.004": 25.7629859452,
			"-0.003": 32.8630722766,
			"-0.002": 25.5040988426,
			"-0.001": 15.8460091793,
			"0.0": 16.5716836717,
			"0.001": 20.7778417534,
			"0.002": 27.0706513813,
			"0.003": 23.9341276142,
			"0.004": 6.15123926696,
			"0.005": 8.46719156249,
			"0.006": 7.55177049819,
			"0.007": 10.4949668359,
			"0.008": 9.76067040969,
			"0.009": 2.54820142905,
			"0.01": 2.8057669657,
			"0.011": 3.24275359932,
			"0.012": 0.239518528008,
			"0.013": 0.0,
			"0.014": 0.0,
			"0.015": 0.0,
			"0.016": 0.0,
			"0.017": 0.0,
			"0.018": 0.0,
			"0.019": 0.0,
			"0.02": 0.0,
			"0.021": 0.0,
			"0.022": 0.0,
			"0.023": 0.0,
			"0.024": 0.0,
			"0.025": 0.0
		}
	}
}
