{
	 "smiles": "OC(=O)CC1=CC(=O)N(N1)C1=CC=CC=C1", 
	 "Tm": 373.15, 
	 "num_atms": 26, 
	 "gaussian": { 
		 "optdone": 1, 
		 "sigma_profile": "yes", 
		 "theory": "DFT", 
		 "functional": "B3LYP", 
		 "basiset": "6-31G**", 
		 "properties": { 
			 "R2extent": 4676.4005, 
			 "electric_dipole_moment_norm": 5.71432693674, 
			 "electric_quadrupole_moment_norm": 14.2603933091, 
			 "total_energy": -760.355609599, 
			 "HOMO_LUMO_gap": 0.17813, 
			 "cosmo_polarized_energy": -23.91, 
			 "cosmo_cavitation_energy": 31.42, 
			 "cosmo_dispersion_energy": -22.51, 
			 "cosmo_repulsion_energy": 1.76, 
			 "cosmo_total_nonelectrostatic_energy": 10.67, 
			 "SMD_solvation_energy": 7.33 
		},
		"coords": [
			{
				"x": -4.002415204,
				"y": 0.8483358477,
				"z": 2.757546592,
				"element": "O" 
			},
			{
				"x": -2.8666727453,
				"y": 0.3882431451,
				"z": 2.1799717703,
				"element": "C" 
			},
			{
				"x": -1.7780013567,
				"y": 0.4742400461,
				"z": 2.6922789971,
				"element": "O" 
			},
			{
				"x": -3.1909725214,
				"y": -0.2498536626,
				"z": 0.8326663459,
				"element": "C" 
			},
			{
				"x": -1.9875787092,
				"y": -0.6578466479,
				"z": 0.0463573657,
				"element": "C" 
			},
			{
				"x": -1.4671072584,
				"y": -1.885000942,
				"z": -0.1863494671,
				"element": "C" 
			},
			{
				"x": -0.3269240716,
				"y": -1.746095403,
				"z": -1.0899929812,
				"element": "C" 
			},
			{
				"x": 0.4388780487,
				"y": -2.583442042,
				"z": -1.5471393397,
				"element": "O" 
			},
			{
				"x": -0.2622461442,
				"y": -0.352401474,
				"z": -1.3518792542,
				"element": "N" 
			},
			{
				"x": -1.2160506902,
				"y": 0.3211622157,
				"z": -0.5731213832,
				"element": "N" 
			},
			{
				"x": 0.7965685004,
				"y": 0.3802465139,
				"z": -1.9321542463,
				"element": "C" 
			},
			{
				"x": 1.6228556726,
				"y": -0.2302667576,
				"z": -2.8900910929,
				"element": "C" 
			},
			{
				"x": 2.6440851342,
				"y": 0.5107146003,
				"z": -3.4804102176,
				"element": "C" 
			},
			{
				"x": 2.848977401,
				"y": 1.8513094367,
				"z": -3.1457352322,
				"element": "C" 
			},
			{
				"x": 2.0239987526,
				"y": 2.4493315704,
				"z": -2.1932436126,
				"element": "C" 
			},
			{
				"x": 1.0038060747,
				"y": 1.722528322,
				"z": -1.5803296894,
				"element": "C" 
			},
			{
				"x": -3.7411739765,
				"y": 1.2190949318,
				"z": 3.6174389304,
				"element": "H" 
			},
			{
				"x": -3.8208055659,
				"y": 0.4527674451,
				"z": 0.2720624423,
				"element": "H" 
			},
			{
				"x": -3.8200232748,
				"y": -1.125173988,
				"z": 1.0232809759,
				"element": "H" 
			},
			{
				"x": -1.7927281315,
				"y": -2.8286204296,
				"z": 0.2241720943,
				"element": "H" 
			},
			{
				"x": -1.7184811899,
				"y": 1.0278665235,
				"z": -1.1074065409,
				"element": "H" 
			},
			{
				"x": 1.466170226,
				"y": -1.270860404,
				"z": -3.139109729,
				"element": "H" 
			},
			{
				"x": 3.2828631895,
				"y": 0.030910704,
				"z": -4.2164533002,
				"element": "H" 
			},
			{
				"x": 3.6442551914,
				"y": 2.4201151071,
				"z": -3.6177080771,
				"element": "H" 
			},
			{
				"x": 2.1776509239,
				"y": 3.4870672603,
				"z": -1.9110893234,
				"element": "H" 
			},
			{
				"x": 0.3927717243,
				"y": 2.182328081,
				"z": -0.811862027,
				"element": "H" 
			}
		],
		 "valence_orbital": [ 
			{
				"type": "occ",
				"energy": -0.29301,
				"method": "rhf"
			},
			{
				"type": "occ",
				"energy": -0.25287,
				"method": "rhf"
			},
			{
				"type": "occ",
				"energy": -0.2469,
				"method": "rhf"
			},
			{
				"type": "occ",
				"energy": -0.23998,
				"method": "rhf"
			},
			{
				"type": "occ",
				"energy": -0.20895,
				"method": "rhf"
			},
			{
				"type": "unocc",
				"energy": -0.03082,
				"method": "rhf"
			},
			{
				"type": "unocc",
				"energy": -0.00846,
				"method": "rhf"
			},
			{
				"type": "unocc",
				"energy": 0.00025,
				"method": "rhf"
			},
			{
				"type": "unocc",
				"energy": 0.0123,
				"method": "rhf"
			},
			{
				"type": "unocc",
				"energy": 0.06102,
				"method": "rhf"
			}
		],
		"cosmo_sigma_profile": { 
			"-0.025": 0.0,
			"-0.024": 0.0,
			"-0.023": 0.0,
			"-0.022": 0.0,
			"-0.021": 0.0,
			"-0.02": 0.0,
			"-0.019": 0.319865074536,
			"-0.018": 0.737943876065,
			"-0.017": 0.94708681211,
			"-0.016": 2.29845588627,
			"-0.015": 2.96774442687,
			"-0.014": 2.25206109157,
			"-0.013": 1.55192662215,
			"-0.012": 1.99662293917,
			"-0.011": 2.75097435168,
			"-0.01": 2.31544388608,
			"-0.009": 4.25684062804,
			"-0.008": 7.8553744266,
			"-0.007": 8.53898617205,
			"-0.006": 11.1491326939,
			"-0.005": 15.2867608869,
			"-0.004": 14.9833100194,
			"-0.003": 13.2321132897,
			"-0.002": 12.0009989251,
			"-0.001": 11.2644363699,
			"0.0": 12.8155005846,
			"0.001": 15.2781939259,
			"0.002": 15.6306979227,
			"0.003": 13.8539085956,
			"0.004": 13.4120114933,
			"0.005": 15.0935940786,
			"0.006": 8.71560307244,
			"0.007": 4.72327199062,
			"0.008": 4.09814704828,
			"0.009": 5.59856480609,
			"0.01": 4.94283438551,
			"0.011": 7.69393647349,
			"0.012": 3.85379489598,
			"0.013": 3.27855704441,
			"0.014": 4.07526889679,
			"0.015": 1.29130807972,
			"0.016": 0.0,
			"0.017": 0.0,
			"0.018": 0.0,
			"0.019": 0.0,
			"0.02": 0.0,
			"0.021": 0.0,
			"0.022": 0.0,
			"0.023": 0.0,
			"0.024": 0.0,
			"0.025": 0.0
		}
	}
}
