{
	 "smiles": "CC(C)(C)NS(=O)(=O)C1=CC(C(O)=O)=C(Cl)C=C1", 
	 "Tm": 453.15, 
	 "num_atms": 32, 
	 "gaussian": { 
		 "optdone": 1, 
		 "sigma_profile": "yes", 
		 "theory": "DFT", 
		 "functional": "B3LYP", 
		 "basiset": "6-31G**", 
		 "properties": { 
			 "R2extent": 7390.9744, 
			 "electric_dipole_moment_norm": 7.28090383263, 
			 "electric_quadrupole_moment_norm": 17.7761055833, 
			 "total_energy": -1641.57635856, 
			 "HOMO_LUMO_gap": 0.19698, 
			 "cosmo_polarized_energy": -22.87, 
			 "cosmo_cavitation_energy": 38.53, 
			 "cosmo_dispersion_energy": -26.55, 
			 "cosmo_repulsion_energy": 2.01, 
			 "cosmo_total_nonelectrostatic_energy": 14.0, 
			 "SMD_solvation_energy": 6.7 
		},
		"coords": [
			{
				"x": 0.2475831551,
				"y": 0.2270762851,
				"z": 3.5903129529,
				"element": "C" 
			},
			{
				"x": 0.2587088741,
				"y": 0.9033793685,
				"z": 2.2068844669,
				"element": "C" 
			},
			{
				"x": -0.1618295319,
				"y": 2.3776214437,
				"z": 2.3353471715,
				"element": "C" 
			},
			{
				"x": 1.6518432187,
				"y": 0.8177994976,
				"z": 1.5663474884,
				"element": "C" 
			},
			{
				"x": -0.7602923245,
				"y": 0.2974732116,
				"z": 1.2901250158,
				"element": "N" 
			},
			{
				"x": -0.6822444359,
				"y": -1.2680702802,
				"z": 0.6787810285,
				"element": "S" 
			},
			{
				"x": 0.2497932386,
				"y": -2.120589463,
				"z": 1.4297080846,
				"element": "O" 
			},
			{
				"x": -2.0835253234,
				"y": -1.6595021297,
				"z": 0.4959410019,
				"element": "O" 
			},
			{
				"x": 0.0535610647,
				"y": -1.0320418378,
				"z": -0.9457368672,
				"element": "C" 
			},
			{
				"x": 1.0930926522,
				"y": -1.8693065409,
				"z": -1.3360698331,
				"element": "C" 
			},
			{
				"x": 1.6439215819,
				"y": -1.7767413726,
				"z": -2.6239449527,
				"element": "C" 
			},
			{
				"x": 2.7226495411,
				"y": -2.7518519165,
				"z": -3.0238395367,
				"element": "C" 
			},
			{
				"x": 3.6518156951,
				"y": -3.0082706527,
				"z": -2.0649721964,
				"element": "O" 
			},
			{
				"x": 2.7681333687,
				"y": -3.3137018999,
				"z": -4.0868552711,
				"element": "O" 
			},
			{
				"x": 1.1160490455,
				"y": -0.8167002898,
				"z": -3.5052690706,
				"element": "C" 
			},
			{
				"x": 1.7598351403,
				"y": -0.5920042916,
				"z": -5.1101994138,
				"element": "Cl" 
			},
			{
				"x": 0.074294925,
				"y": 0.0262879088,
				"z": -3.1039445408,
				"element": "C" 
			},
			{
				"x": -0.4676249958,
				"y": -0.084691887,
				"z": -1.8280971859,
				"element": "C" 
			},
			{
				"x": -0.7453011337,
				"y": 0.2992393263,
				"z": 4.0483248403,
				"element": "H" 
			},
			{
				"x": 0.5149129771,
				"y": -0.8281918548,
				"z": 3.5112017254,
				"element": "H" 
			},
			{
				"x": 0.9601976968,
				"y": 0.7206038254,
				"z": 4.2595839725,
				"element": "H" 
			},
			{
				"x": 0.5279198991,
				"y": 2.9066488468,
				"z": 2.9997849435,
				"element": "H" 
			},
			{
				"x": -1.1670559116,
				"y": 2.4672585251,
				"z": 2.7631916056,
				"element": "H" 
			},
			{
				"x": -0.1574993577,
				"y": 2.8731691212,
				"z": 1.3604487988,
				"element": "H" 
			},
			{
				"x": 1.9889284734,
				"y": -0.217944602,
				"z": 1.4829433453,
				"element": "H" 
			},
			{
				"x": 1.6541920207,
				"y": 1.275793892,
				"z": 0.5727859845,
				"element": "H" 
			},
			{
				"x": 2.3710451253,
				"y": 1.3545444584,
				"z": 2.191852701,
				"element": "H" 
			},
			{
				"x": -1.7134395295,
				"y": 0.4171720893,
				"z": 1.6270922966,
				"element": "H" 
			},
			{
				"x": 1.453848597,
				"y": -2.6148856204,
				"z": -0.6345048402,
				"element": "H" 
			},
			{
				"x": 3.5552606758,
				"y": -2.3909541726,
				"z": -1.3259911446,
				"element": "H" 
			},
			{
				"x": -0.304580674,
				"y": 0.7661923447,
				"z": -3.7997841557,
				"element": "H" 
			},
			{
				"x": -1.2757937483,
				"y": 0.5676886671,
				"z": -1.5167484151,
				"element": "H" 
			}
		],
		 "valence_orbital": [ 
			{
				"type": "occ",
				"energy": -0.31405,
				"method": "rhf"
			},
			{
				"type": "occ",
				"energy": -0.29918,
				"method": "rhf"
			},
			{
				"type": "occ",
				"energy": -0.28883,
				"method": "rhf"
			},
			{
				"type": "occ",
				"energy": -0.28147,
				"method": "rhf"
			},
			{
				"type": "occ",
				"energy": -0.26883,
				"method": "rhf"
			},
			{
				"type": "unocc",
				"energy": -0.07185,
				"method": "rhf"
			},
			{
				"type": "unocc",
				"energy": -0.05674,
				"method": "rhf"
			},
			{
				"type": "unocc",
				"energy": 0.00971,
				"method": "rhf"
			},
			{
				"type": "unocc",
				"energy": 0.01486,
				"method": "rhf"
			},
			{
				"type": "unocc",
				"energy": 0.04241,
				"method": "rhf"
			}
		],
		"cosmo_sigma_profile": { 
			"-0.025": 0.0,
			"-0.024": 0.0,
			"-0.023": 0.0,
			"-0.022": 0.0,
			"-0.021": 0.0,
			"-0.02": 0.0,
			"-0.019": 0.405965598994,
			"-0.018": 1.01462733097,
			"-0.017": 1.09290710147,
			"-0.016": 1.31217677784,
			"-0.015": 0.664909750154,
			"-0.014": 1.27359758297,
			"-0.013": 1.97969687845,
			"-0.012": 2.24771591448,
			"-0.011": 1.56060597102,
			"-0.01": 1.84052429273,
			"-0.009": 5.52205508598,
			"-0.008": 7.45873824338,
			"-0.007": 6.93932112514,
			"-0.006": 7.16298603192,
			"-0.005": 8.32721780023,
			"-0.004": 18.6652735505,
			"-0.003": 25.4024356347,
			"-0.002": 26.663452844,
			"-0.001": 33.6895299431,
			"0.0": 37.4265430812,
			"0.001": 20.8531015198,
			"0.002": 11.8389326799,
			"0.003": 14.427863362,
			"0.004": 7.4134517437,
			"0.005": 6.31165472097,
			"0.006": 4.70347260648,
			"0.007": 6.51061965716,
			"0.008": 6.13283097554,
			"0.009": 8.81179531923,
			"0.01": 12.1723687391,
			"0.011": 13.2511784437,
			"0.012": 3.71835107374,
			"0.013": 0.042425951558,
			"0.014": 0.0,
			"0.015": 0.0,
			"0.016": 0.0,
			"0.017": 0.0,
			"0.018": 0.0,
			"0.019": 0.0,
			"0.02": 0.0,
			"0.021": 0.0,
			"0.022": 0.0,
			"0.023": 0.0,
			"0.024": 0.0,
			"0.025": 0.0
		}
	}
}
