{
	 "smiles": "COC1=CC2=C(C=C1)C=C(C=CC(O)=O)C=C2", 
	 "Tm": 462.15, 
	 "num_atms": 29, 
	 "gaussian": { 
		 "optdone": 1, 
		 "sigma_profile": "yes", 
		 "theory": "DFT", 
		 "functional": "B3LYP", 
		 "basiset": "6-31G**", 
		 "properties": { 
			 "R2extent": 6793.032, 
			 "electric_dipole_moment_norm": 4.51365397433, 
			 "electric_quadrupole_moment_norm": 7.2473022091, 
			 "total_energy": -766.397557589, 
			 "HOMO_LUMO_gap": 0.13646, 
			 "cosmo_polarized_energy": -13.9, 
			 "cosmo_cavitation_energy": 34.18, 
			 "cosmo_dispersion_energy": -24.93, 
			 "cosmo_repulsion_energy": 1.9, 
			 "cosmo_total_nonelectrostatic_energy": 11.14, 
			 "SMD_solvation_energy": 7.58 
		},
		"coords": [
			{
				"x": 4.954622143,
				"y": -0.5539051164,
				"z": -2.8212018861,
				"element": "C" 
			},
			{
				"x": 4.0351559565,
				"y": -1.397625934,
				"z": -2.1439022129,
				"element": "O" 
			},
			{
				"x": 2.9115263556,
				"y": -0.8485963609,
				"z": -1.6015597365,
				"element": "C" 
			},
			{
				"x": 2.0532852694,
				"y": -1.7216331641,
				"z": -0.9538723485,
				"element": "C" 
			},
			{
				"x": 0.8615181663,
				"y": -1.2564819212,
				"z": -0.3574741352,
				"element": "C" 
			},
			{
				"x": 0.5384179906,
				"y": 0.1415310697,
				"z": -0.4254836724,
				"element": "C" 
			},
			{
				"x": 1.4404291984,
				"y": 1.0082141781,
				"z": -1.0971345258,
				"element": "C" 
			},
			{
				"x": 2.5983369262,
				"y": 0.5362735824,
				"z": -1.6729755125,
				"element": "C" 
			},
			{
				"x": -0.6543589977,
				"y": 0.6103565428,
				"z": 0.1710344633,
				"element": "C" 
			},
			{
				"x": -1.5290438928,
				"y": -0.2476077931,
				"z": 0.8255760312,
				"element": "C" 
			},
			{
				"x": -2.7704124177,
				"y": 0.1940303333,
				"z": 1.4552088236,
				"element": "C" 
			},
			{
				"x": -3.2728940493,
				"y": 1.4427691492,
				"z": 1.5192322605,
				"element": "C" 
			},
			{
				"x": -4.5519746944,
				"y": 1.6853949558,
				"z": 2.2061085036,
				"element": "C" 
			},
			{
				"x": -4.8964085205,
				"y": 3.0014386799,
				"z": 2.1682202976,
				"element": "O" 
			},
			{
				"x": -5.2503983489,
				"y": 0.8512275827,
				"z": 2.7533835306,
				"element": "O" 
			},
			{
				"x": -1.1943429561,
				"y": -1.6358776002,
				"z": 0.8848861465,
				"element": "C" 
			},
			{
				"x": -0.0450071948,
				"y": -2.1234035498,
				"z": 0.3166221383,
				"element": "C" 
			},
			{
				"x": 5.7604308066,
				"y": -1.2050106446,
				"z": -3.1631667274,
				"element": "H" 
			},
			{
				"x": 5.3712737004,
				"y": 0.212285621,
				"z": -2.155175038,
				"element": "H" 
			},
			{
				"x": 4.4955183211,
				"y": -0.0654521807,
				"z": -3.6900432764,
				"element": "H" 
			},
			{
				"x": 2.313185122,
				"y": -2.7747344511,
				"z": -0.9120073056,
				"element": "H" 
			},
			{
				"x": 1.2050533706,
				"y": 2.0677772843,
				"z": -1.1541712533,
				"element": "H" 
			},
			{
				"x": 3.2642914417,
				"y": 1.2257124909,
				"z": -2.1777962263,
				"element": "H" 
			},
			{
				"x": -0.8767357526,
				"y": 1.6720016493,
				"z": 0.1061447744,
				"element": "H" 
			},
			{
				"x": -3.3656885519,
				"y": -0.5826908635,
				"z": 1.9337002282,
				"element": "H" 
			},
			{
				"x": -2.7805877542,
				"y": 2.3061711081,
				"z": 1.0843782037,
				"element": "H" 
			},
			{
				"x": -5.7429847965,
				"y": 3.063770455,
				"z": 2.6403619383,
				"element": "H" 
			},
			{
				"x": -1.8746258314,
				"y": -2.3123882622,
				"z": 1.3954611043,
				"element": "H" 
			},
			{
				"x": 0.1883189903,
				"y": -3.1830468408,
				"z": 0.3746454126,
				"element": "H" 
			}
		],
		 "valence_orbital": [ 
			{
				"type": "occ",
				"energy": -0.29769,
				"method": "rhf"
			},
			{
				"type": "occ",
				"energy": -0.26639,
				"method": "rhf"
			},
			{
				"type": "occ",
				"energy": -0.26259,
				"method": "rhf"
			},
			{
				"type": "occ",
				"energy": -0.23927,
				"method": "rhf"
			},
			{
				"type": "occ",
				"energy": -0.20541,
				"method": "rhf"
			},
			{
				"type": "unocc",
				"energy": -0.06895,
				"method": "rhf"
			},
			{
				"type": "unocc",
				"energy": -0.03429,
				"method": "rhf"
			},
			{
				"type": "unocc",
				"energy": 0.01186,
				"method": "rhf"
			},
			{
				"type": "unocc",
				"energy": 0.02913,
				"method": "rhf"
			},
			{
				"type": "unocc",
				"energy": 0.08625,
				"method": "rhf"
			}
		],
		"cosmo_sigma_profile": { 
			"-0.025": 0.0,
			"-0.024": 0.0,
			"-0.023": 0.0,
			"-0.022": 0.0,
			"-0.021": 0.0,
			"-0.02": 0.0,
			"-0.019": 0.0,
			"-0.018": 0.297325666884,
			"-0.017": 1.00946545182,
			"-0.016": 0.883770950301,
			"-0.015": 0.554903455779,
			"-0.014": 0.961045088177,
			"-0.013": 0.499692895396,
			"-0.012": 0.764160196095,
			"-0.011": 0.542739175106,
			"-0.01": 0.845824617828,
			"-0.009": 0.561413808201,
			"-0.008": 2.09522358854,
			"-0.007": 8.86311702516,
			"-0.006": 22.2090185175,
			"-0.005": 21.1618177146,
			"-0.004": 19.4054502176,
			"-0.003": 17.4492102219,
			"-0.002": 13.9900564568,
			"-0.001": 13.5955281948,
			"0.0": 14.6514254368,
			"0.001": 16.9792046022,
			"0.002": 19.4839718402,
			"0.003": 32.6934661771,
			"0.004": 26.138682498,
			"0.005": 6.84096960708,
			"0.006": 5.07528279118,
			"0.007": 3.12724776504,
			"0.008": 3.08654862914,
			"0.009": 5.03440299819,
			"0.01": 4.66500513155,
			"0.011": 2.22527905619,
			"0.012": 4.95120116004,
			"0.013": 2.51684862766,
			"0.014": 0.0,
			"0.015": 0.0,
			"0.016": 0.0,
			"0.017": 0.0,
			"0.018": 0.0,
			"0.019": 0.0,
			"0.02": 0.0,
			"0.021": 0.0,
			"0.022": 0.0,
			"0.023": 0.0,
			"0.024": 0.0,
			"0.025": 0.0
		}
	}
}
