{
	 "smiles": "COC1=CC(C(O)=O)=C(C(OC)=C1OC)[N+]([O-])=O", 
	 "Tm": 441.15, 
	 "num_atms": 29, 
	 "gaussian": { 
		 "optdone": 1, 
		 "sigma_profile": "yes", 
		 "theory": "DFT", 
		 "functional": "B3LYP", 
		 "basiset": "6-31G**", 
		 "properties": { 
			 "R2extent": 4637.73, 
			 "electric_dipole_moment_norm": 7.00179296181, 
			 "electric_quadrupole_moment_norm": 19.1434048602, 
			 "total_energy": -968.861232975, 
			 "HOMO_LUMO_gap": 0.17263, 
			 "cosmo_polarized_energy": -18.28, 
			 "cosmo_cavitation_energy": 34.48, 
			 "cosmo_dispersion_energy": -23.75, 
			 "cosmo_repulsion_energy": 1.86, 
			 "cosmo_total_nonelectrostatic_energy": 12.58, 
			 "SMD_solvation_energy": 11.96 
		},
		"coords": [
			{
				"x": 3.861693498,
				"y": 0.9853592431,
				"z": 1.5900622443,
				"element": "C" 
			},
			{
				"x": 3.1036434442,
				"y": 0.9525979677,
				"z": 0.3860853918,
				"element": "O" 
			},
			{
				"x": 1.9161174431,
				"y": 0.292036936,
				"z": 0.3915081391,
				"element": "C" 
			},
			{
				"x": 1.3713227286,
				"y": -0.3555870772,
				"z": 1.5006664566,
				"element": "C" 
			},
			{
				"x": 0.1380765343,
				"y": -1.0192448633,
				"z": 1.4127917416,
				"element": "C" 
			},
			{
				"x": -0.3916380662,
				"y": -1.7746711081,
				"z": 2.5812105782,
				"element": "C" 
			},
			{
				"x": 0.2427198112,
				"y": -1.4530379093,
				"z": 3.7373096816,
				"element": "O" 
			},
			{
				"x": -1.2728869853,
				"y": -2.6050598951,
				"z": 2.5338855786,
				"element": "O" 
			},
			{
				"x": -0.5390968069,
				"y": -1.0231597248,
				"z": 0.1905704158,
				"element": "C" 
			},
			{
				"x": -0.0190808617,
				"y": -0.3680667209,
				"z": -0.9314071169,
				"element": "C" 
			},
			{
				"x": -0.7563316671,
				"y": -0.3031512067,
				"z": -2.0751681903,
				"element": "O" 
			},
			{
				"x": -0.3194150048,
				"y": -1.1640734631,
				"z": -3.1430726474,
				"element": "C" 
			},
			{
				"x": 1.219849163,
				"y": 0.2823864802,
				"z": -0.8377771708,
				"element": "C" 
			},
			{
				"x": 1.7458687947,
				"y": 0.8570323629,
				"z": -1.9568793086,
				"element": "O" 
			},
			{
				"x": 1.7001907954,
				"y": 2.2914347797,
				"z": -1.997456152,
				"element": "C" 
			},
			{
				"x": -1.8629486496,
				"y": -1.6553774544,
				"z": 0.0193445792,
				"element": "N" 
			},
			{
				"x": -2.8172769051,
				"y": -1.1020002455,
				"z": 0.5478803953,
				"element": "O" 
			},
			{
				"x": -1.9046637693,
				"y": -2.6611150815,
				"z": -0.6821788916,
				"element": "O" 
			},
			{
				"x": 4.1422739692,
				"y": -0.0242704987,
				"z": 1.9133472752,
				"element": "H" 
			},
			{
				"x": 3.3135918683,
				"y": 1.4858580201,
				"z": 2.3976130624,
				"element": "H" 
			},
			{
				"x": 4.7631683931,
				"y": 1.5532905577,
				"z": 1.3580894097,
				"element": "H" 
			},
			{
				"x": 1.8928341393,
				"y": -0.3715862151,
				"z": 2.4471087026,
				"element": "H" 
			},
			{
				"x": -0.1573701788,
				"y": -2.0170029008,
				"z": 4.4196629352,
				"element": "H" 
			},
			{
				"x": -0.3899704797,
				"y": -2.211242564,
				"z": -2.8338048004,
				"element": "H" 
			},
			{
				"x": 0.7020051842,
				"y": -0.9166770748,
				"z": -3.4457689312,
				"element": "H" 
			},
			{
				"x": -1.0056368661,
				"y": -0.9795570617,
				"z": -3.970788364,
				"element": "H" 
			},
			{
				"x": 2.145592803,
				"y": 2.5789462412,
				"z": -2.9511082314,
				"element": "H" 
			},
			{
				"x": 0.6638338562,
				"y": 2.6447162191,
				"z": -1.9567152719,
				"element": "H" 
			},
			{
				"x": 2.2782338149,
				"y": 2.7259222575,
				"z": -1.1767115107,
				"element": "H" 
			}
		],
		 "valence_orbital": [ 
			{
				"type": "occ",
				"energy": -0.29342,
				"method": "rhf"
			},
			{
				"type": "occ",
				"energy": -0.28707,
				"method": "rhf"
			},
			{
				"type": "occ",
				"energy": -0.28371,
				"method": "rhf"
			},
			{
				"type": "occ",
				"energy": -0.25482,
				"method": "rhf"
			},
			{
				"type": "occ",
				"energy": -0.24047,
				"method": "rhf"
			},
			{
				"type": "unocc",
				"energy": -0.06784,
				"method": "rhf"
			},
			{
				"type": "unocc",
				"energy": -0.05276,
				"method": "rhf"
			},
			{
				"type": "unocc",
				"energy": -0.01439,
				"method": "rhf"
			},
			{
				"type": "unocc",
				"energy": 0.04372,
				"method": "rhf"
			},
			{
				"type": "unocc",
				"energy": 0.05502,
				"method": "rhf"
			}
		],
		"cosmo_sigma_profile": { 
			"-0.025": 0.0,
			"-0.024": 0.0,
			"-0.023": 0.0,
			"-0.022": 0.0,
			"-0.021": 0.0,
			"-0.02": 0.0,
			"-0.019": 0.325175010996,
			"-0.018": 0.997100663034,
			"-0.017": 1.11977424017,
			"-0.016": 0.514216992547,
			"-0.015": 0.545625619593,
			"-0.014": 0.853914568646,
			"-0.013": 0.678211547589,
			"-0.012": 0.785530112415,
			"-0.011": 1.1324787966,
			"-0.01": 0.463338799272,
			"-0.009": 0.381625528755,
			"-0.008": 1.66679002297,
			"-0.007": 6.53245278474,
			"-0.006": 15.7601612413,
			"-0.005": 17.9809762794,
			"-0.004": 25.1126654294,
			"-0.003": 30.5842346524,
			"-0.002": 20.1237072198,
			"-0.001": 19.2800164678,
			"0.0": 15.8737709916,
			"0.001": 14.1799429447,
			"0.002": 12.2613949796,
			"0.003": 9.18392879891,
			"0.004": 9.4861480443,
			"0.005": 11.9354307741,
			"0.006": 11.0189957301,
			"0.007": 16.6423082254,
			"0.008": 11.8807152753,
			"0.009": 7.99528223181,
			"0.01": 6.00722721912,
			"0.011": 2.65213005862,
			"0.012": 0.217843607989,
			"0.013": 0.0,
			"0.014": 0.0,
			"0.015": 0.0,
			"0.016": 0.0,
			"0.017": 0.0,
			"0.018": 0.0,
			"0.019": 0.0,
			"0.02": 0.0,
			"0.021": 0.0,
			"0.022": 0.0,
			"0.023": 0.0,
			"0.024": 0.0,
			"0.025": 0.0
		}
	}
}
