{
	 "smiles": "CC1=NN(C(N)=C1)C1=CC=NC=C1", 
	 "Tm": 370.15, 
	 "num_atms": 23, 
	 "gaussian": { 
		 "optdone": 1, 
		 "sigma_profile": "yes", 
		 "theory": "DFT", 
		 "functional": "B3LYP", 
		 "basiset": "6-31G**", 
		 "properties": { 
			 "R2extent": 3965.2356, 
			 "electric_dipole_moment_norm": 4.18346546418, 
			 "electric_quadrupole_moment_norm": 9.56650444154, 
			 "total_energy": -567.969143268, 
			 "HOMO_LUMO_gap": 0.18543, 
			 "cosmo_polarized_energy": -13.7, 
			 "cosmo_cavitation_energy": 26.84, 
			 "cosmo_dispersion_energy": -20.04, 
			 "cosmo_repulsion_energy": 1.59, 
			 "cosmo_total_nonelectrostatic_energy": 8.39, 
			 "SMD_solvation_energy": 2.77 
		},
		"coords": [
			{
				"x": 3.4314936338,
				"y": -0.8203365561,
				"z": 3.1208038535,
				"element": "C" 
			},
			{
				"x": 2.4386744065,
				"y": -0.2536416226,
				"z": 2.1533554531,
				"element": "C" 
			},
			{
				"x": 1.5660867621,
				"y": 0.6591618999,
				"z": 2.5508814897,
				"element": "N" 
			},
			{
				"x": 0.8330545744,
				"y": 0.9725813273,
				"z": 1.4246300182,
				"element": "N" 
			},
			{
				"x": 1.2364483461,
				"y": 0.2198746375,
				"z": 0.3420495758,
				"element": "C" 
			},
			{
				"x": 0.6629316195,
				"y": 0.3378480107,
				"z": -0.9231221649,
				"element": "N" 
			},
			{
				"x": 2.278260781,
				"y": -0.572883541,
				"z": 0.7778209051,
				"element": "C" 
			},
			{
				"x": -0.1984901585,
				"y": 1.9264966697,
				"z": 1.5292198277,
				"element": "C" 
			},
			{
				"x": -0.8096110929,
				"y": 2.1471126314,
				"z": 2.7708757146,
				"element": "C" 
			},
			{
				"x": -1.8232178752,
				"y": 3.0964856481,
				"z": 2.8484083314,
				"element": "C" 
			},
			{
				"x": -2.2664872904,
				"y": 3.8211091641,
				"z": 1.8098243862,
				"element": "N" 
			},
			{
				"x": -1.6597287743,
				"y": 3.6074788447,
				"z": 0.6374681061,
				"element": "C" 
			},
			{
				"x": -0.6272245488,
				"y": 2.6908617859,
				"z": 0.4354850531,
				"element": "C" 
			},
			{
				"x": 4.4591171569,
				"y": -0.6102884025,
				"z": 2.8037572587,
				"element": "H" 
			},
			{
				"x": 3.2777929181,
				"y": -0.3825443887,
				"z": 4.1093131141,
				"element": "H" 
			},
			{
				"x": 3.3313719248,
				"y": -1.908538765,
				"z": 3.2018961259,
				"element": "H" 
			},
			{
				"x": 0.9541494888,
				"y": -0.4149736063,
				"z": -1.5341011656,
				"element": "H" 
			},
			{
				"x": -0.3488182241,
				"y": 0.4102030877,
				"z": -0.912114927,
				"element": "H" 
			},
			{
				"x": 2.8314526816,
				"y": -1.2922995541,
				"z": 0.1916170696,
				"element": "H" 
			},
			{
				"x": -0.4829536376,
				"y": 1.5899586391,
				"z": 3.6393079736,
				"element": "H" 
			},
			{
				"x": -2.3126642475,
				"y": 3.2810997688,
				"z": 3.8030998442,
				"element": "H" 
			},
			{
				"x": -2.0069816356,
				"y": 4.2110263851,
				"z": -0.1997616217,
				"element": "H" 
			},
			{
				"x": -0.1522568087,
				"y": 2.6047079363,
				"z": -0.5338142212,
				"element": "H" 
			}
		],
		 "valence_orbital": [ 
			{
				"type": "occ",
				"energy": -0.28511,
				"method": "rhf"
			},
			{
				"type": "occ",
				"energy": -0.26212,
				"method": "rhf"
			},
			{
				"type": "occ",
				"energy": -0.25259,
				"method": "rhf"
			},
			{
				"type": "occ",
				"energy": -0.23192,
				"method": "rhf"
			},
			{
				"type": "occ",
				"energy": -0.21532,
				"method": "rhf"
			},
			{
				"type": "unocc",
				"energy": -0.02989,
				"method": "rhf"
			},
			{
				"type": "unocc",
				"energy": -0.01194,
				"method": "rhf"
			},
			{
				"type": "unocc",
				"energy": 0.04159,
				"method": "rhf"
			},
			{
				"type": "unocc",
				"energy": 0.06577,
				"method": "rhf"
			},
			{
				"type": "unocc",
				"energy": 0.07868,
				"method": "rhf"
			}
		],
		"cosmo_sigma_profile": { 
			"-0.025": 0.0,
			"-0.024": 0.0,
			"-0.023": 0.0,
			"-0.022": 0.0,
			"-0.021": 0.0,
			"-0.02": 0.0,
			"-0.019": 0.0,
			"-0.018": 0.0,
			"-0.017": 0.0,
			"-0.016": 0.0,
			"-0.015": 0.0,
			"-0.014": 0.397352936509,
			"-0.013": 2.54161516878,
			"-0.012": 2.32839279823,
			"-0.011": 3.27698885855,
			"-0.01": 2.92856478078,
			"-0.009": 2.80549793165,
			"-0.008": 2.27567824704,
			"-0.007": 4.87242476222,
			"-0.006": 10.9049277844,
			"-0.005": 11.2259222722,
			"-0.004": 13.7182234951,
			"-0.003": 12.7679182866,
			"-0.002": 15.0391684647,
			"-0.001": 16.878970698,
			"0.0": 16.1797073999,
			"0.001": 15.3462186475,
			"0.002": 18.2097731586,
			"0.003": 12.4806857488,
			"0.004": 10.0290201403,
			"0.005": 9.44456455733,
			"0.006": 6.26099690484,
			"0.007": 3.86443258074,
			"0.008": 3.40877747302,
			"0.009": 3.02104017355,
			"0.01": 3.4459076589,
			"0.011": 2.65682537719,
			"0.012": 2.83383245634,
			"0.013": 0.945124181467,
			"0.014": 2.09712039568,
			"0.015": 0.882017402705,
			"0.016": 0.931172394924,
			"0.017": 0.421509896187,
			"0.018": 0.00188812252197,
			"0.019": 0.0,
			"0.02": 0.0,
			"0.021": 0.0,
			"0.022": 0.0,
			"0.023": 0.0,
			"0.024": 0.0,
			"0.025": 0.0
		}
	}
}
