{
	 "smiles": "CC(OCC1=CC=CC=C1)C(O)=O", 
	 "Tm": 325.15, 
	 "num_atms": 25, 
	 "gaussian": { 
		 "optdone": 1, 
		 "sigma_profile": "yes", 
		 "theory": "DFT", 
		 "functional": "B3LYP", 
		 "basiset": "6-31G**", 
		 "properties": { 
			 "R2extent": 3404.953, 
			 "electric_dipole_moment_norm": 5.31812084387, 
			 "electric_quadrupole_moment_norm": 22.6056279081, 
			 "total_energy": -613.971545814, 
			 "HOMO_LUMO_gap": 0.23545, 
			 "cosmo_polarized_energy": -13.23, 
			 "cosmo_cavitation_energy": 29.21, 
			 "cosmo_dispersion_energy": -20.54, 
			 "cosmo_repulsion_energy": 1.65, 
			 "cosmo_total_nonelectrostatic_energy": 10.32, 
			 "SMD_solvation_energy": 6.32 
		},
		"coords": [
			{
				"x": 0.995607795,
				"y": 1.8362485517,
				"z": -2.1900744957,
				"element": "C" 
			},
			{
				"x": 1.3465848659,
				"y": 0.4157921747,
				"z": -1.7519970783,
				"element": "C" 
			},
			{
				"x": 0.7270575012,
				"y": 0.0410054353,
				"z": -0.5192190743,
				"element": "O" 
			},
			{
				"x": -0.621302304,
				"y": -0.4358964275,
				"z": -0.6254364125,
				"element": "C" 
			},
			{
				"x": -1.0628541761,
				"y": -0.9380332376,
				"z": 0.7243652497,
				"element": "C" 
			},
			{
				"x": -0.7906502171,
				"y": -2.2559230877,
				"z": 1.1126701471,
				"element": "C" 
			},
			{
				"x": -1.1666971451,
				"y": -2.7156555553,
				"z": 2.3748141108,
				"element": "C" 
			},
			{
				"x": -1.8197193917,
				"y": -1.8586462803,
				"z": 3.2634218629,
				"element": "C" 
			},
			{
				"x": -2.0943149801,
				"y": -0.5427521682,
				"z": 2.8857713124,
				"element": "C" 
			},
			{
				"x": -1.7161345855,
				"y": -0.0862263244,
				"z": 1.6227260694,
				"element": "C" 
			},
			{
				"x": 2.8669728077,
				"y": 0.2524343848,
				"z": -1.5635294708,
				"element": "C" 
			},
			{
				"x": 3.2270898826,
				"y": -0.3571741184,
				"z": -0.4240008954,
				"element": "O" 
			},
			{
				"x": 3.6619697398,
				"y": 0.6254917884,
				"z": -2.3925741702,
				"element": "O" 
			},
			{
				"x": -0.0659889902,
				"y": 1.9230357862,
				"z": -2.4381565485,
				"element": "H" 
			},
			{
				"x": 1.227568323,
				"y": 2.5451263433,
				"z": -1.3901064832,
				"element": "H" 
			},
			{
				"x": 1.5853139088,
				"y": 2.0981043459,
				"z": -3.0709798434,
				"element": "H" 
			},
			{
				"x": 1.0580350579,
				"y": -0.2987429144,
				"z": -2.5398591442,
				"element": "H" 
			},
			{
				"x": -1.2764646577,
				"y": 0.376036152,
				"z": -0.9674922861,
				"element": "H" 
			},
			{
				"x": -0.6632992991,
				"y": -1.2418461101,
				"z": -1.3735675702,
				"element": "H" 
			},
			{
				"x": -0.2853169287,
				"y": -2.9251756684,
				"z": 0.4204658212,
				"element": "H" 
			},
			{
				"x": -0.9540650865,
				"y": -3.740940664,
				"z": 2.6633008079,
				"element": "H" 
			},
			{
				"x": -2.1161053905,
				"y": -2.2161426834,
				"z": 4.2453077534,
				"element": "H" 
			},
			{
				"x": -2.6033881816,
				"y": 0.1264566147,
				"z": 3.5732646813,
				"element": "H" 
			},
			{
				"x": -1.9285528884,
				"y": 0.9388957208,
				"z": 1.329912803,
				"element": "H" 
			},
			{
				"x": 2.3997543402,
				"y": -0.525672058,
				"z": 0.0698728536,
				"element": "H" 
			}
		],
		 "valence_orbital": [ 
			{
				"type": "occ",
				"energy": -0.30749,
				"method": "rhf"
			},
			{
				"type": "occ",
				"energy": -0.28849,
				"method": "rhf"
			},
			{
				"type": "occ",
				"energy": -0.26448,
				"method": "rhf"
			},
			{
				"type": "occ",
				"energy": -0.26166,
				"method": "rhf"
			},
			{
				"type": "occ",
				"energy": -0.25768,
				"method": "rhf"
			},
			{
				"type": "unocc",
				"energy": -0.02223,
				"method": "rhf"
			},
			{
				"type": "unocc",
				"energy": -0.01344,
				"method": "rhf"
			},
			{
				"type": "unocc",
				"energy": 0.01555,
				"method": "rhf"
			},
			{
				"type": "unocc",
				"energy": 0.07431,
				"method": "rhf"
			},
			{
				"type": "unocc",
				"energy": 0.08802,
				"method": "rhf"
			}
		],
		"cosmo_sigma_profile": { 
			"-0.025": 0.0,
			"-0.024": 0.0,
			"-0.023": 0.0,
			"-0.022": 0.0,
			"-0.021": 0.0,
			"-0.02": 0.0,
			"-0.019": 0.0,
			"-0.018": 0.0,
			"-0.017": 0.0,
			"-0.016": 0.0,
			"-0.015": 0.0,
			"-0.014": 0.0,
			"-0.013": 0.0940172507684,
			"-0.012": 0.421748675748,
			"-0.011": 0.320892145999,
			"-0.01": 0.723278144891,
			"-0.009": 0.729809478234,
			"-0.008": 0.945305268587,
			"-0.007": 5.39728153334,
			"-0.006": 14.2895431432,
			"-0.005": 27.3668143244,
			"-0.004": 24.9756388046,
			"-0.003": 20.3193355902,
			"-0.002": 15.2076452094,
			"-0.001": 15.9046887653,
			"0.0": 15.1484758208,
			"0.001": 9.68753917666,
			"0.002": 9.38544177809,
			"0.003": 9.74649650511,
			"0.004": 11.5868553731,
			"0.005": 13.0139130882,
			"0.006": 7.72812242986,
			"0.007": 3.53488942407,
			"0.008": 3.64727401758,
			"0.009": 4.01306950067,
			"0.01": 5.14929186316,
			"0.011": 3.95795934123,
			"0.012": 5.62184937098,
			"0.013": 2.06600595188,
			"0.014": 0.164454033041,
			"0.015": 0.0,
			"0.016": 0.0,
			"0.017": 0.0,
			"0.018": 0.0,
			"0.019": 0.0,
			"0.02": 0.0,
			"0.021": 0.0,
			"0.022": 0.0,
			"0.023": 0.0,
			"0.024": 0.0,
			"0.025": 0.0
		}
	}
}
