{
	 "smiles": "CC1=C(C=CC=C1)N1C(S)=NN=C1N1CCOCC1", 
	 "Tm": 290.15, 
	 "num_atms": 35, 
	 "gaussian": { 
		 "optdone": 1, 
		 "sigma_profile": "yes", 
		 "theory": "DFT", 
		 "functional": "B3LYP", 
		 "basiset": "6-31G**", 
		 "properties": { 
			 "R2extent": 5611.6604, 
			 "electric_dipole_moment_norm": 6.11312836034, 
			 "electric_quadrupole_moment_norm": 23.1014095615, 
			 "total_energy": -1197.39860446, 
			 "HOMO_LUMO_gap": 0.18353, 
			 "cosmo_polarized_energy": -18.85, 
			 "cosmo_cavitation_energy": 38.48, 
			 "cosmo_dispersion_energy": -26.55, 
			 "cosmo_repulsion_energy": 2.01, 
			 "cosmo_total_nonelectrostatic_energy": 13.95, 
			 "SMD_solvation_energy": 3.38 
		},
		"coords": [
			{
				"x": -0.7462935219,
				"y": -3.3868166383,
				"z": 0.3634761477,
				"element": "C" 
			},
			{
				"x": 0.3025448509,
				"y": -2.7071262065,
				"z": -0.4810542688,
				"element": "C" 
			},
			{
				"x": 0.9704552486,
				"y": -1.5461196209,
				"z": -0.0463435522,
				"element": "C" 
			},
			{
				"x": 1.9308812697,
				"y": -0.9153575665,
				"z": -0.8432454891,
				"element": "C" 
			},
			{
				"x": 2.2525213238,
				"y": -1.4376199103,
				"z": -2.0946389421,
				"element": "C" 
			},
			{
				"x": 1.6104472821,
				"y": -2.5932011488,
				"z": -2.5409690198,
				"element": "C" 
			},
			{
				"x": 0.649607919,
				"y": -3.2125259222,
				"z": -1.741339802,
				"element": "C" 
			},
			{
				"x": 0.6727010995,
				"y": -0.9754400332,
				"z": 1.2354100252,
				"element": "N" 
			},
			{
				"x": 1.1769000454,
				"y": -1.3694796843,
				"z": 2.4737264324,
				"element": "C" 
			},
			{
				"x": 2.0433423083,
				"y": -2.8767049527,
				"z": 2.7849636258,
				"element": "S" 
			},
			{
				"x": 0.8490493799,
				"y": -0.5105582124,
				"z": 3.4020436777,
				"element": "N" 
			},
			{
				"x": 0.1065189759,
				"y": 0.4889980276,
				"z": 2.8053098873,
				"element": "N" 
			},
			{
				"x": 0.0302447513,
				"y": 0.2197068421,
				"z": 1.5186615075,
				"element": "C" 
			},
			{
				"x": -0.5143718701,
				"y": 1.0542473754,
				"z": 0.5546557634,
				"element": "N" 
			},
			{
				"x": -1.5691705231,
				"y": 0.5058491791,
				"z": -0.317790171,
				"element": "C" 
			},
			{
				"x": -1.8291139954,
				"y": 1.4858136767,
				"z": -1.4596719113,
				"element": "C" 
			},
			{
				"x": -2.1848029041,
				"y": 2.7697994512,
				"z": -0.9727992773,
				"element": "O" 
			},
			{
				"x": -1.156229899,
				"y": 3.300788092,
				"z": -0.1458403743,
				"element": "C" 
			},
			{
				"x": -0.8719348383,
				"y": 2.3949690026,
				"z": 1.0484286669,
				"element": "C" 
			},
			{
				"x": -1.4593304674,
				"y": -2.6676718613,
				"z": 0.7787719227,
				"element": "H" 
			},
			{
				"x": -1.302357603,
				"y": -4.1188299818,
				"z": -0.2274919321,
				"element": "H" 
			},
			{
				"x": -0.2895036326,
				"y": -3.9088902759,
				"z": 1.2109105357,
				"element": "H" 
			},
			{
				"x": 2.4123612348,
				"y": -0.01619963,
				"z": -0.4726139242,
				"element": "H" 
			},
			{
				"x": 2.9985604204,
				"y": -0.9469963101,
				"z": -2.7120092707,
				"element": "H" 
			},
			{
				"x": 1.8531987129,
				"y": -3.0113209925,
				"z": -3.5134329649,
				"element": "H" 
			},
			{
				"x": 0.1495379966,
				"y": -4.1083470917,
				"z": -2.0993774648,
				"element": "H" 
			},
			{
				"x": 3.0393041136,
				"y": -2.6808174683,
				"z": 1.8938357377,
				"element": "H" 
			},
			{
				"x": -2.499773205,
				"y": 0.3502538366,
				"z": 0.2525042832,
				"element": "H" 
			},
			{
				"x": -1.2486289344,
				"y": -0.4535379344,
				"z": -0.7282303537,
				"element": "H" 
			},
			{
				"x": -0.9292263317,
				"y": 1.550699192,
				"z": -2.0932227395,
				"element": "H" 
			},
			{
				"x": -2.6655109247,
				"y": 1.1381982441,
				"z": -2.072944737,
				"element": "H" 
			},
			{
				"x": -0.2333810323,
				"y": 3.440968603,
				"z": -0.7322603849,
				"element": "H" 
			},
			{
				"x": -1.5048739442,
				"y": 4.2791765747,
				"z": 0.1965291218,
				"element": "H" 
			},
			{
				"x": -0.0413614636,
				"y": 2.7835473357,
				"z": 1.6415920115,
				"element": "H" 
			},
			{
				"x": -1.7543118418,
				"y": 2.3501460093,
				"z": 1.7042572332,
				"element": "H" 
			}
		],
		 "valence_orbital": [ 
			{
				"type": "occ",
				"energy": -0.26652,
				"method": "rhf"
			},
			{
				"type": "occ",
				"energy": -0.26557,
				"method": "rhf"
			},
			{
				"type": "occ",
				"energy": -0.25586,
				"method": "rhf"
			},
			{
				"type": "occ",
				"energy": -0.24459,
				"method": "rhf"
			},
			{
				"type": "occ",
				"energy": -0.21519,
				"method": "rhf"
			},
			{
				"type": "unocc",
				"energy": -0.03166,
				"method": "rhf"
			},
			{
				"type": "unocc",
				"energy": -0.02284,
				"method": "rhf"
			},
			{
				"type": "unocc",
				"energy": 0.0034,
				"method": "rhf"
			},
			{
				"type": "unocc",
				"energy": 0.03455,
				"method": "rhf"
			},
			{
				"type": "unocc",
				"energy": 0.05142,
				"method": "rhf"
			}
		],
		"cosmo_sigma_profile": { 
			"-0.025": 0.0,
			"-0.024": 0.0,
			"-0.023": 0.0,
			"-0.022": 0.0,
			"-0.021": 0.0,
			"-0.02": 0.0,
			"-0.019": 0.0,
			"-0.018": 0.0,
			"-0.017": 0.0,
			"-0.016": 0.0,
			"-0.015": 0.0,
			"-0.014": 0.0,
			"-0.013": 0.0,
			"-0.012": 0.109635679296,
			"-0.011": 1.6087701232,
			"-0.01": 1.42738387761,
			"-0.009": 1.82846974624,
			"-0.008": 1.92040398523,
			"-0.007": 4.16459626324,
			"-0.006": 13.9783154628,
			"-0.005": 25.3114027067,
			"-0.004": 38.0041665558,
			"-0.003": 35.0067059413,
			"-0.002": 26.9609397889,
			"-0.001": 22.768657775,
			"0.0": 20.6753518811,
			"0.001": 16.9208565595,
			"0.002": 15.8217193499,
			"0.003": 16.487303313,
			"0.004": 14.9763799934,
			"0.005": 6.78414349775,
			"0.006": 5.02597421171,
			"0.007": 3.81221452363,
			"0.008": 4.19033959747,
			"0.009": 3.82953764431,
			"0.01": 3.47658779856,
			"0.011": 4.17720227634,
			"0.012": 4.06904714353,
			"0.013": 4.70552833753,
			"0.014": 3.81162795121,
			"0.015": 2.32581957578,
			"0.016": 2.31836149292,
			"0.017": 0.411775156989,
			"0.018": 0.0,
			"0.019": 0.0,
			"0.02": 0.0,
			"0.021": 0.0,
			"0.022": 0.0,
			"0.023": 0.0,
			"0.024": 0.0,
			"0.025": 0.0
		}
	}
}
