{
	 "smiles": "CC(C)(C)OC(=O)N[C@H](CO)CC1=CC=CC=C1", 
	 "Tm": 370.15, 
	 "num_atms": 39, 
	 "gaussian": { 
		 "optdone": 1, 
		 "sigma_profile": "yes", 
		 "theory": "DFT", 
		 "functional": "B3LYP", 
		 "basiset": "6-31G**", 
		 "properties": { 
			 "R2extent": 5800.2959, 
			 "electric_dipole_moment_norm": 2.86964019522, 
			 "electric_quadrupole_moment_norm": 9.90318921712, 
			 "total_energy": -826.607555445, 
			 "HOMO_LUMO_gap": 0.2354, 
			 "cosmo_polarized_energy": -13.12, 
			 "cosmo_cavitation_energy": 40.63, 
			 "cosmo_dispersion_energy": -26.84, 
			 "cosmo_repulsion_energy": 2.1, 
			 "cosmo_total_nonelectrostatic_energy": 15.89, 
			 "SMD_solvation_energy": 7.22 
		},
		"coords": [
			{
				"x": -1.5877859928,
				"y": -3.0203447613,
				"z": -2.8478024678,
				"element": "C" 
			},
			{
				"x": -1.5764331091,
				"y": -3.1430561232,
				"z": -1.3204334193,
				"element": "C" 
			},
			{
				"x": -0.2569925171,
				"y": -3.7177402663,
				"z": -0.7938588346,
				"element": "C" 
			},
			{
				"x": -2.7643338722,
				"y": -3.9764097616,
				"z": -0.8322762937,
				"element": "C" 
			},
			{
				"x": -1.8363829401,
				"y": -1.8298366395,
				"z": -0.7084190919,
				"element": "O" 
			},
			{
				"x": -0.9965625601,
				"y": -0.7852715377,
				"z": -0.9062976334,
				"element": "C" 
			},
			{
				"x": 0.0387731632,
				"y": -0.8044999988,
				"z": -1.5564070237,
				"element": "O" 
			},
			{
				"x": -1.5070956511,
				"y": 0.3248864168,
				"z": -0.2812350605,
				"element": "N" 
			},
			{
				"x": -0.7479228655,
				"y": 1.5728230388,
				"z": -0.1000921043,
				"element": "C" 
			},
			{
				"x": -0.6072233482,
				"y": 2.3052641961,
				"z": -1.4447290082,
				"element": "C" 
			},
			{
				"x": -1.8699978586,
				"y": 2.5976666714,
				"z": -2.0175800714,
				"element": "O" 
			},
			{
				"x": 0.6162062663,
				"y": 1.382616017,
				"z": 0.6038500199,
				"element": "C" 
			},
			{
				"x": 0.5067473515,
				"y": 0.7509230665,
				"z": 1.9745019135,
				"element": "C" 
			},
			{
				"x": 0.1005727527,
				"y": 1.507478044,
				"z": 3.0837331842,
				"element": "C" 
			},
			{
				"x": -0.0287150105,
				"y": 0.9222027547,
				"z": 4.3434565718,
				"element": "C" 
			},
			{
				"x": 0.2487155362,
				"y": -0.4358152513,
				"z": 4.5167970419,
				"element": "C" 
			},
			{
				"x": 0.6576880665,
				"y": -1.1993858809,
				"z": 3.4226313165,
				"element": "C" 
			},
			{
				"x": 0.7848093367,
				"y": -0.6095722262,
				"z": 2.1631810564,
				"element": "C" 
			},
			{
				"x": -2.5287175131,
				"y": -2.5750367937,
				"z": -3.1865209442,
				"element": "H" 
			},
			{
				"x": -0.757980851,
				"y": -2.4052404354,
				"z": -3.1970113408,
				"element": "H" 
			},
			{
				"x": -1.5030485368,
				"y": -4.0151060897,
				"z": -3.2971309636,
				"element": "H" 
			},
			{
				"x": -0.1380951865,
				"y": -4.7474614963,
				"z": -1.1463884292,
				"element": "H" 
			},
			{
				"x": 0.5923272182,
				"y": -3.1275536692,
				"z": -1.1387055893,
				"element": "H" 
			},
			{
				"x": -0.2608588578,
				"y": -3.7321465457,
				"z": 0.3007658779,
				"element": "H" 
			},
			{
				"x": -2.7781337318,
				"y": -4.0264166954,
				"z": 0.2603783531,
				"element": "H" 
			},
			{
				"x": -3.7081322551,
				"y": -3.5380358352,
				"z": -1.1693420493,
				"element": "H" 
			},
			{
				"x": -2.695359994,
				"y": -4.9950222011,
				"z": -1.2253584744,
				"element": "H" 
			},
			{
				"x": -2.2619045613,
				"y": 0.1382416896,
				"z": 0.3624658998,
				"element": "H" 
			},
			{
				"x": -1.3878553964,
				"y": 2.1946949983,
				"z": 0.5354366102,
				"element": "H" 
			},
			{
				"x": 0.021317981,
				"y": 1.7095734898,
				"z": -2.1200278335,
				"element": "H" 
			},
			{
				"x": -0.1120991253,
				"y": 3.2673085453,
				"z": -1.2768389338,
				"element": "H" 
			},
			{
				"x": -2.3330209485,
				"y": 1.7516619561,
				"z": -2.0939604153,
				"element": "H" 
			},
			{
				"x": 1.2599573105,
				"y": 0.7788107054,
				"z": -0.0407020064,
				"element": "H" 
			},
			{
				"x": 1.0772472774,
				"y": 2.3745144048,
				"z": 0.6890573873,
				"element": "H" 
			},
			{
				"x": -0.1084487765,
				"y": 2.5681162989,
				"z": 2.9601114179,
				"element": "H" 
			},
			{
				"x": -0.3395311802,
				"y": 1.5270651476,
				"z": 5.1909180211,
				"element": "H" 
			},
			{
				"x": 0.1524963334,
				"y": -0.8923412381,
				"z": 5.4977607698,
				"element": "H" 
			},
			{
				"x": 0.8828946336,
				"y": -2.2548778101,
				"z": 3.5490441549,
				"element": "H" 
			},
			{
				"x": 1.1108794123,
				"y": -1.2060761844,
				"z": 1.3151283924,
				"element": "H" 
			}
		],
		 "valence_orbital": [ 
			{
				"type": "occ",
				"energy": -0.27703,
				"method": "rhf"
			},
			{
				"type": "occ",
				"energy": -0.26307,
				"method": "rhf"
			},
			{
				"type": "occ",
				"energy": -0.25616,
				"method": "rhf"
			},
			{
				"type": "occ",
				"energy": -0.24917,
				"method": "rhf"
			},
			{
				"type": "occ",
				"energy": -0.23843,
				"method": "rhf"
			},
			{
				"type": "unocc",
				"energy": -0.00303,
				"method": "rhf"
			},
			{
				"type": "unocc",
				"energy": -0.00025,
				"method": "rhf"
			},
			{
				"type": "unocc",
				"energy": 0.04399,
				"method": "rhf"
			},
			{
				"type": "unocc",
				"energy": 0.07063,
				"method": "rhf"
			},
			{
				"type": "unocc",
				"energy": 0.08555,
				"method": "rhf"
			}
		],
		"cosmo_sigma_profile": { 
			"-0.025": 0.0,
			"-0.024": 0.0,
			"-0.023": 0.0,
			"-0.022": 0.0,
			"-0.021": 0.0,
			"-0.02": 0.0,
			"-0.019": 0.0,
			"-0.018": 0.0,
			"-0.017": 0.0,
			"-0.016": 0.0,
			"-0.015": 0.0,
			"-0.014": 0.320037086034,
			"-0.013": 1.50335201843,
			"-0.012": 1.30088390294,
			"-0.011": 1.71426277736,
			"-0.01": 1.55471542253,
			"-0.009": 1.49619987629,
			"-0.008": 1.88718503479,
			"-0.007": 2.71573956572,
			"-0.006": 3.84206866135,
			"-0.005": 17.855852085,
			"-0.004": 29.3756154884,
			"-0.003": 32.782496588,
			"-0.002": 32.5240410779,
			"-0.001": 34.2409555816,
			"0.0": 37.0508993988,
			"0.001": 26.6291230027,
			"0.002": 14.7344093956,
			"0.003": 12.6199092249,
			"0.004": 11.3188737515,
			"0.005": 11.8835237781,
			"0.006": 12.7271179628,
			"0.007": 7.22553926516,
			"0.008": 3.11097189766,
			"0.009": 1.90822119055,
			"0.01": 2.36069029367,
			"0.011": 2.85233175596,
			"0.012": 3.10934142463,
			"0.013": 2.77677598583,
			"0.014": 2.85192439191,
			"0.015": 0.818647192005,
			"0.016": 0.0,
			"0.017": 0.0,
			"0.018": 0.0,
			"0.019": 0.0,
			"0.02": 0.0,
			"0.021": 0.0,
			"0.022": 0.0,
			"0.023": 0.0,
			"0.024": 0.0,
			"0.025": 0.0
		}
	}
}
