{
	 "smiles": "CC=C(C1=CC=CC=C1)C1=CC=CC=C1", 
	 "Tm": 322.15, 
	 "num_atms": 29, 
	 "gaussian": { 
		 "optdone": 1, 
		 "sigma_profile": "yes", 
		 "theory": "DFT", 
		 "functional": "B3LYP", 
		 "basiset": "6-31G**", 
		 "properties": { 
			 "R2extent": 3627.2718, 
			 "electric_dipole_moment_norm": 0.335756384898, 
			 "electric_quadrupole_moment_norm": 4.76803714121, 
			 "total_energy": -580.028051497, 
			 "HOMO_LUMO_gap": 0.18757, 
			 "cosmo_polarized_energy": -5.17, 
			 "cosmo_cavitation_energy": 32.06, 
			 "cosmo_dispersion_energy": -22.59, 
			 "cosmo_repulsion_energy": 1.79, 
			 "cosmo_total_nonelectrostatic_energy": 11.26, 
			 "SMD_solvation_energy": 5.46 
		},
		"coords": [
			{
				"x": -1.4272642935,
				"y": 2.438190586,
				"z": -2.0306491293,
				"element": "C" 
			},
			{
				"x": -0.509554274,
				"y": 1.2642197547,
				"z": -2.2122305762,
				"element": "C" 
			},
			{
				"x": -0.0638963389,
				"y": 0.4019304475,
				"z": -1.2733970127,
				"element": "C" 
			},
			{
				"x": 0.9349630262,
				"y": -0.647014493,
				"z": -1.6333590514,
				"element": "C" 
			},
			{
				"x": 0.8576636937,
				"y": -1.93501317,
				"z": -1.0736448982,
				"element": "C" 
			},
			{
				"x": 1.7645208854,
				"y": -2.9302357497,
				"z": -1.4347730842,
				"element": "C" 
			},
			{
				"x": 2.7785063966,
				"y": -2.6593652367,
				"z": -2.3559393983,
				"element": "C" 
			},
			{
				"x": 2.8791926679,
				"y": -1.3811457148,
				"z": -2.9082775179,
				"element": "C" 
			},
			{
				"x": 1.9715428302,
				"y": -0.3861821144,
				"z": -2.5469904717,
				"element": "C" 
			},
			{
				"x": -0.5316743823,
				"y": 0.437724336,
				"z": 0.1451275026,
				"element": "C" 
			},
			{
				"x": -1.898494807,
				"y": 0.4037134432,
				"z": 0.4659494172,
				"element": "C" 
			},
			{
				"x": -2.3250078415,
				"y": 0.4405616017,
				"z": 1.7948006816,
				"element": "C" 
			},
			{
				"x": -1.3913204986,
				"y": 0.50949035,
				"z": 2.8293761735,
				"element": "C" 
			},
			{
				"x": -0.0275645148,
				"y": 0.5330313775,
				"z": 2.5261004704,
				"element": "C" 
			},
			{
				"x": 0.3970882305,
				"y": 0.4899689198,
				"z": 1.199320042,
				"element": "C" 
			},
			{
				"x": -0.9825366546,
				"y": 3.3360304389,
				"z": -2.4787290664,
				"element": "H" 
			},
			{
				"x": -1.6393356681,
				"y": 2.6479914767,
				"z": -0.9806948447,
				"element": "H" 
			},
			{
				"x": -2.3845441124,
				"y": 2.2812149423,
				"z": -2.5457836214,
				"element": "H" 
			},
			{
				"x": -0.152318925,
				"y": 1.1141256389,
				"z": -3.2301697513,
				"element": "H" 
			},
			{
				"x": 0.071823597,
				"y": -2.1563625052,
				"z": -0.3580961571,
				"element": "H" 
			},
			{
				"x": 1.6777545651,
				"y": -3.9206500648,
				"z": -0.996377531,
				"element": "H" 
			},
			{
				"x": 3.4886072495,
				"y": -3.4333784695,
				"z": -2.632745499,
				"element": "H" 
			},
			{
				"x": 3.6750165232,
				"y": -1.1528745445,
				"z": -3.6120380928,
				"element": "H" 
			},
			{
				"x": 2.0765531944,
				"y": 0.613350043,
				"z": -2.9581112421,
				"element": "H" 
			},
			{
				"x": -2.6283771628,
				"y": 0.3318841586,
				"z": -0.3348574524,
				"element": "H" 
			},
			{
				"x": -3.3874112755,
				"y": 0.4086032608,
				"z": 2.0202686143,
				"element": "H" 
			},
			{
				"x": -1.7219843423,
				"y": 0.5379398532,
				"z": 3.8637210354,
				"element": "H" 
			},
			{
				"x": 0.7068491948,
				"y": 0.583451219,
				"z": 3.3252255206,
				"element": "H" 
			},
			{
				"x": 1.4586030369,
				"y": 0.5019002148,
				"z": 0.9698749405,
				"element": "H" 
			}
		],
		 "valence_orbital": [ 
			{
				"type": "occ",
				"energy": -0.27881,
				"method": "rhf"
			},
			{
				"type": "occ",
				"energy": -0.25104,
				"method": "rhf"
			},
			{
				"type": "occ",
				"energy": -0.24667,
				"method": "rhf"
			},
			{
				"type": "occ",
				"energy": -0.24393,
				"method": "rhf"
			},
			{
				"type": "occ",
				"energy": -0.21109,
				"method": "rhf"
			},
			{
				"type": "unocc",
				"energy": -0.02352,
				"method": "rhf"
			},
			{
				"type": "unocc",
				"energy": -0.00367,
				"method": "rhf"
			},
			{
				"type": "unocc",
				"energy": -0.00229,
				"method": "rhf"
			},
			{
				"type": "unocc",
				"energy": 0.00895,
				"method": "rhf"
			},
			{
				"type": "unocc",
				"energy": 0.06233,
				"method": "rhf"
			}
		],
		"cosmo_sigma_profile": { 
			"-0.025": 0.0,
			"-0.024": 0.0,
			"-0.023": 0.0,
			"-0.022": 0.0,
			"-0.021": 0.0,
			"-0.02": 0.0,
			"-0.019": 0.0,
			"-0.018": 0.0,
			"-0.017": 0.0,
			"-0.016": 0.0,
			"-0.015": 0.0,
			"-0.014": 0.0,
			"-0.013": 0.0,
			"-0.012": 0.0,
			"-0.011": 0.0,
			"-0.01": 0.0,
			"-0.009": 0.0,
			"-0.008": 0.0,
			"-0.007": 0.0,
			"-0.006": 4.05202376056,
			"-0.005": 17.8682107374,
			"-0.004": 25.8564210995,
			"-0.003": 27.4480653687,
			"-0.002": 23.235169433,
			"-0.001": 25.3373638164,
			"0.0": 22.8229196455,
			"0.001": 20.2521304972,
			"0.002": 18.0391692198,
			"0.003": 18.266840798,
			"0.004": 19.4016934764,
			"0.005": 18.2405154617,
			"0.006": 13.9214956474,
			"0.007": 1.0139263754,
			"0.008": 0.0,
			"0.009": 0.0,
			"0.01": 0.0,
			"0.011": 0.0,
			"0.012": 0.0,
			"0.013": 0.0,
			"0.014": 0.0,
			"0.015": 0.0,
			"0.016": 0.0,
			"0.017": 0.0,
			"0.018": 0.0,
			"0.019": 0.0,
			"0.02": 0.0,
			"0.021": 0.0,
			"0.022": 0.0,
			"0.023": 0.0,
			"0.024": 0.0,
			"0.025": 0.0
		}
	}
}
