{
	 "smiles": "[O-][N+](=O)C1=C(Br)C=C(C=C1)S(Cl)(=O)=O", 
	 "Tm": 333.15, 
	 "num_atms": 17, 
	 "gaussian": { 
		 "optdone": 1, 
		 "sigma_profile": "yes", 
		 "theory": "DFT", 
		 "functional": "B3LYP", 
		 "basiset": "6-31G**", 
		 "properties": { 
			 "R2extent": 5173.7801, 
			 "electric_dipole_moment_norm": 0.779209426278, 
			 "electric_quadrupole_moment_norm": 20.121374953, 
			 "total_energy": -4015.68434755, 
			 "HOMO_LUMO_gap": 0.16697, 
			 "cosmo_polarized_energy": -12.0, 
			 "cosmo_cavitation_energy": 28.77, 
			 "cosmo_dispersion_energy": -21.71, 
			 "cosmo_repulsion_energy": 1.67, 
			 "cosmo_total_nonelectrostatic_energy": 8.73, 
			 "SMD_solvation_energy": 4.86 
		},
		"coords": [
			{
				"x": -2.6675966121,
				"y": 1.9694324483,
				"z": 1.6426329069,
				"element": "O" 
			},
			{
				"x": -1.4726410132,
				"y": 2.0509937666,
				"z": 1.3673213942,
				"element": "N" 
			},
			{
				"x": -0.7609543917,
				"y": 3.0315281758,
				"z": 1.5436670146,
				"element": "O" 
			},
			{
				"x": -0.8638779037,
				"y": 0.86390527,
				"z": 0.72969808,
				"element": "C" 
			},
			{
				"x": 0.4572129019,
				"y": 0.4616547244,
				"z": 0.9738367023,
				"element": "C" 
			},
			{
				"x": 1.6138070085,
				"y": 1.2971000503,
				"z": 2.2166955822,
				"element": "Br" 
			},
			{
				"x": 0.944984783,
				"y": -0.664243129,
				"z": 0.3046624746,
				"element": "C" 
			},
			{
				"x": 0.1170035483,
				"y": -1.3350758341,
				"z": -0.5894712541,
				"element": "C" 
			},
			{
				"x": -1.201522961,
				"y": -0.9507153446,
				"z": -0.8298949576,
				"element": "C" 
			},
			{
				"x": -1.6890771072,
				"y": 0.1565723479,
				"z": -0.147266318,
				"element": "C" 
			},
			{
				"x": 0.7672564938,
				"y": -2.7819891281,
				"z": -1.4324327998,
				"element": "S" 
			},
			{
				"x": 1.5399498371,
				"y": -1.8952472334,
				"z": -3.1979971387,
				"element": "Cl" 
			},
			{
				"x": 1.9088000013,
				"y": -3.2919552661,
				"z": -0.6863248659,
				"element": "O" 
			},
			{
				"x": -0.3477749428,
				"y": -3.6240725957,
				"z": -1.8420576416,
				"element": "O" 
			},
			{
				"x": 1.9529746222,
				"y": -1.0139447648,
				"z": 0.4910634119,
				"element": "H" 
			},
			{
				"x": -1.8261373256,
				"y": -1.5089274543,
				"z": -1.5171015593,
				"element": "H" 
			},
			{
				"x": -2.711606939,
				"y": 0.4901839667,
				"z": -0.2757310317,
				"element": "H" 
			}
		],
		 "valence_orbital": [ 
			{
				"type": "occ",
				"energy": -0.33329,
				"method": "rhf"
			},
			{
				"type": "occ",
				"energy": -0.33255,
				"method": "rhf"
			},
			{
				"type": "occ",
				"energy": -0.31606,
				"method": "rhf"
			},
			{
				"type": "occ",
				"energy": -0.30377,
				"method": "rhf"
			},
			{
				"type": "occ",
				"energy": -0.29261,
				"method": "rhf"
			},
			{
				"type": "unocc",
				"energy": -0.12564,
				"method": "rhf"
			},
			{
				"type": "unocc",
				"energy": -0.09652,
				"method": "rhf"
			},
			{
				"type": "unocc",
				"energy": -0.07122,
				"method": "rhf"
			},
			{
				"type": "unocc",
				"energy": -0.05468,
				"method": "rhf"
			},
			{
				"type": "unocc",
				"energy": -0.03545,
				"method": "rhf"
			}
		],
		"cosmo_sigma_profile": { 
			"-0.025": 0.0,
			"-0.024": 0.0,
			"-0.023": 0.0,
			"-0.022": 0.0,
			"-0.021": 0.0,
			"-0.02": 0.0,
			"-0.019": 0.0,
			"-0.018": 0.0,
			"-0.017": 0.0,
			"-0.016": 0.0,
			"-0.015": 0.0,
			"-0.014": 0.0,
			"-0.013": 0.0,
			"-0.012": 0.0,
			"-0.011": 0.158997071109,
			"-0.01": 3.60937162352,
			"-0.009": 6.96851091449,
			"-0.008": 6.9460059514,
			"-0.007": 7.73291181357,
			"-0.006": 9.19456423922,
			"-0.005": 9.75060423137,
			"-0.004": 15.8500943629,
			"-0.003": 20.4466375441,
			"-0.002": 18.9918439352,
			"-0.001": 13.6708093858,
			"0.0": 12.237025871,
			"0.001": 13.8034563005,
			"0.002": 23.592617294,
			"0.003": 16.3809685994,
			"0.004": 7.963504744,
			"0.005": 6.46858172447,
			"0.006": 12.9720706505,
			"0.007": 17.9897019403,
			"0.008": 11.2897132813,
			"0.009": 2.3158836243,
			"0.01": 0.00573320943325,
			"0.011": 0.0,
			"0.012": 0.0,
			"0.013": 0.0,
			"0.014": 0.0,
			"0.015": 0.0,
			"0.016": 0.0,
			"0.017": 0.0,
			"0.018": 0.0,
			"0.019": 0.0,
			"0.02": 0.0,
			"0.021": 0.0,
			"0.022": 0.0,
			"0.023": 0.0,
			"0.024": 0.0,
			"0.025": 0.0
		}
	}
}
