{
	 "smiles": "BrC1=CC=C(S1)C1=CC=CC=C1", 
	 "Tm": 357.15, 
	 "num_atms": 19, 
	 "gaussian": { 
		 "optdone": 1, 
		 "sigma_profile": "yes", 
		 "theory": "DFT", 
		 "functional": "B3LYP", 
		 "basiset": "6-31G**", 
		 "properties": { 
			 "R2extent": 5715.4859, 
			 "electric_dipole_moment_norm": 1.89226231268, 
			 "electric_quadrupole_moment_norm": 8.30086065417, 
			 "total_energy": -3354.85951412, 
			 "HOMO_LUMO_gap": 0.16824, 
			 "cosmo_polarized_energy": -4.85, 
			 "cosmo_cavitation_energy": 27.08, 
			 "cosmo_dispersion_energy": -20.98, 
			 "cosmo_repulsion_energy": 1.61, 
			 "cosmo_total_nonelectrostatic_energy": 7.71, 
			 "SMD_solvation_energy": 3.04 
		},
		"coords": [
			{
				"x": 4.4189102731,
				"y": -1.7931508273,
				"z": -2.1360161443,
				"element": "Br" 
			},
			{
				"x": 2.9306266243,
				"y": -0.9704185572,
				"z": -1.3217812184,
				"element": "C" 
			},
			{
				"x": 2.9506988508,
				"y": -0.0121530967,
				"z": -0.3477127504,
				"element": "C" 
			},
			{
				"x": 1.6370595555,
				"y": 0.3800201813,
				"z": 0.0412973127,
				"element": "C" 
			},
			{
				"x": 0.6307581692,
				"y": -0.2743328952,
				"z": -0.6315626448,
				"element": "C" 
			},
			{
				"x": 1.3134407319,
				"y": -1.4058508906,
				"z": -1.7900062759,
				"element": "S" 
			},
			{
				"x": -0.8218935645,
				"y": -0.1162370053,
				"z": -0.4867532113,
				"element": "C" 
			},
			{
				"x": -1.359265884,
				"y": 1.1127864286,
				"z": -0.0606009997,
				"element": "C" 
			},
			{
				"x": -2.7335042476,
				"y": 1.2719574946,
				"z": 0.100151335,
				"element": "C" 
			},
			{
				"x": -3.6036465411,
				"y": 0.214701026,
				"z": -0.175811385,
				"element": "C" 
			},
			{
				"x": -3.0845542028,
				"y": -1.0062284009,
				"z": -0.6103061637,
				"element": "C" 
			},
			{
				"x": -1.7092190368,
				"y": -1.172764455,
				"z": -0.759638658,
				"element": "C" 
			},
			{
				"x": 3.862610954,
				"y": 0.3865296159,
				"z": 0.0787484509,
				"element": "H" 
			},
			{
				"x": 1.4440427666,
				"y": 1.1073448437,
				"z": 0.8215486833,
				"element": "H" 
			},
			{
				"x": -0.6944669041,
				"y": 1.9510912099,
				"z": 0.1232812956,
				"element": "H" 
			},
			{
				"x": -3.1270403631,
				"y": 2.229566006,
				"z": 0.4289657574,
				"element": "H" 
			},
			{
				"x": -4.6754076393,
				"y": 0.3425482097,
				"z": -0.0565379783,
				"element": "H" 
			},
			{
				"x": -3.7510734426,
				"y": -1.8365902202,
				"z": -0.8248233421,
				"element": "H" 
			},
			{
				"x": -1.3171760994,
				"y": -2.1370186675,
				"z": -1.070742063,
				"element": "H" 
			}
		],
		 "valence_orbital": [ 
			{
				"type": "occ",
				"energy": -0.29596,
				"method": "rhf"
			},
			{
				"type": "occ",
				"energy": -0.27035,
				"method": "rhf"
			},
			{
				"type": "occ",
				"energy": -0.26181,
				"method": "rhf"
			},
			{
				"type": "occ",
				"energy": -0.25702,
				"method": "rhf"
			},
			{
				"type": "occ",
				"energy": -0.21344,
				"method": "rhf"
			},
			{
				"type": "unocc",
				"energy": -0.0452,
				"method": "rhf"
			},
			{
				"type": "unocc",
				"energy": -0.0103,
				"method": "rhf"
			},
			{
				"type": "unocc",
				"energy": -0.00196,
				"method": "rhf"
			},
			{
				"type": "unocc",
				"energy": 0.01104,
				"method": "rhf"
			},
			{
				"type": "unocc",
				"energy": 0.02648,
				"method": "rhf"
			}
		],
		"cosmo_sigma_profile": { 
			"-0.025": 0.0,
			"-0.024": 0.0,
			"-0.023": 0.0,
			"-0.022": 0.0,
			"-0.021": 0.0,
			"-0.02": 0.0,
			"-0.019": 0.0,
			"-0.018": 0.0,
			"-0.017": 0.0,
			"-0.016": 0.0,
			"-0.015": 0.0,
			"-0.014": 0.0,
			"-0.013": 0.0,
			"-0.012": 0.0,
			"-0.011": 0.0,
			"-0.01": 0.0,
			"-0.009": 0.0,
			"-0.008": 1.37996117056,
			"-0.007": 4.15583729197,
			"-0.006": 12.2573059602,
			"-0.005": 14.8988130396,
			"-0.004": 16.9371172986,
			"-0.003": 13.2341808956,
			"-0.002": 11.8118242514,
			"-0.001": 15.7686518218,
			"0.0": 16.8947103605,
			"0.001": 20.3514596522,
			"0.002": 27.2298618051,
			"0.003": 32.7786704951,
			"0.004": 23.8212559558,
			"0.005": 10.529386713,
			"0.006": 1.6988969256,
			"0.007": 0.0,
			"0.008": 0.0,
			"0.009": 0.0,
			"0.01": 0.0,
			"0.011": 0.0,
			"0.012": 0.0,
			"0.013": 0.0,
			"0.014": 0.0,
			"0.015": 0.0,
			"0.016": 0.0,
			"0.017": 0.0,
			"0.018": 0.0,
			"0.019": 0.0,
			"0.02": 0.0,
			"0.021": 0.0,
			"0.022": 0.0,
			"0.023": 0.0,
			"0.024": 0.0,
			"0.025": 0.0
		}
	}
}
