{
	 "smiles": "NC1=C(C=C(Br)C=C1Br)C(F)(F)F", 
	 "Tm": 315.15, 
	 "num_atms": 17, 
	 "gaussian": { 
		 "optdone": 1, 
		 "sigma_profile": "yes", 
		 "theory": "DFT", 
		 "functional": "B3LYP", 
		 "basiset": "6-31G**", 
		 "properties": { 
			 "R2extent": 5492.5908, 
			 "electric_dipole_moment_norm": 1.83809436374, 
			 "electric_quadrupole_moment_norm": 6.54134055603, 
			 "total_energy": -5766.24695073, 
			 "HOMO_LUMO_gap": 0.18088, 
			 "cosmo_polarized_energy": -5.74, 
			 "cosmo_cavitation_energy": 26.95, 
			 "cosmo_dispersion_energy": -20.48, 
			 "cosmo_repulsion_energy": 1.56, 
			 "cosmo_total_nonelectrostatic_energy": 8.03, 
			 "SMD_solvation_energy": 3.3 
		},
		"coords": [
			{
				"x": -0.7823430091,
				"y": -2.1595819403,
				"z": 1.5897946925,
				"element": "N" 
			},
			{
				"x": -0.8814787985,
				"y": -0.9509082798,
				"z": 0.9472590539,
				"element": "C" 
			},
			{
				"x": -1.3215046737,
				"y": -0.8447667326,
				"z": -0.3979512121,
				"element": "C" 
			},
			{
				"x": -1.3802296577,
				"y": 0.3861259221,
				"z": -1.0502645462,
				"element": "C" 
			},
			{
				"x": -1.0018541916,
				"y": 1.546375033,
				"z": -0.3860187023,
				"element": "C" 
			},
			{
				"x": -1.0849375022,
				"y": 3.2295961326,
				"z": -1.2785200284,
				"element": "Br" 
			},
			{
				"x": -0.5605423105,
				"y": 1.4855912729,
				"z": 0.9335779671,
				"element": "C" 
			},
			{
				"x": -0.5078080408,
				"y": 0.2567807286,
				"z": 1.5780300332,
				"element": "C" 
			},
			{
				"x": 0.089990874,
				"y": 0.2133194805,
				"z": 3.3957879944,
				"element": "Br" 
			},
			{
				"x": -1.6898447348,
				"y": -2.0896461567,
				"z": -1.1571751293,
				"element": "C" 
			},
			{
				"x": -0.6280106488,
				"y": -2.9053197186,
				"z": -1.3409855096,
				"element": "F" 
			},
			{
				"x": -2.6202614008,
				"y": -2.8320575998,
				"z": -0.4859393641,
				"element": "F" 
			},
			{
				"x": -2.2069474928,
				"y": -1.8200397576,
				"z": -2.3690377528,
				"element": "F" 
			},
			{
				"x": -0.6522855403,
				"y": -2.1275051711,
				"z": 2.5901379795,
				"element": "H" 
			},
			{
				"x": -1.3465828783,
				"y": -2.9206070626,
				"z": 1.246196416,
				"element": "H" 
			},
			{
				"x": -1.7219764158,
				"y": 0.4287760006,
				"z": -2.0759990745,
				"element": "H" 
			},
			{
				"x": -0.2657835784,
				"y": 2.3846678488,
				"z": 1.4598071828,
				"element": "H" 
			}
		],
		 "valence_orbital": [ 
			{
				"type": "occ",
				"energy": -0.3101,
				"method": "rhf"
			},
			{
				"type": "occ",
				"energy": -0.29642,
				"method": "rhf"
			},
			{
				"type": "occ",
				"energy": -0.29488,
				"method": "rhf"
			},
			{
				"type": "occ",
				"energy": -0.26959,
				"method": "rhf"
			},
			{
				"type": "occ",
				"energy": -0.22332,
				"method": "rhf"
			},
			{
				"type": "unocc",
				"energy": -0.04244,
				"method": "rhf"
			},
			{
				"type": "unocc",
				"energy": -0.02284,
				"method": "rhf"
			},
			{
				"type": "unocc",
				"energy": -0.01847,
				"method": "rhf"
			},
			{
				"type": "unocc",
				"energy": 0.01673,
				"method": "rhf"
			},
			{
				"type": "unocc",
				"energy": 0.08566,
				"method": "rhf"
			}
		],
		"cosmo_sigma_profile": { 
			"-0.025": 0.0,
			"-0.024": 0.0,
			"-0.023": 0.0,
			"-0.022": 0.0,
			"-0.021": 0.0,
			"-0.02": 0.0,
			"-0.019": 0.0,
			"-0.018": 0.0,
			"-0.017": 0.0,
			"-0.016": 0.0,
			"-0.015": 0.0,
			"-0.014": 0.0,
			"-0.013": 0.421557458115,
			"-0.012": 1.70749206261,
			"-0.011": 2.26782086699,
			"-0.01": 1.81492800916,
			"-0.009": 1.73095543079,
			"-0.008": 3.62208554685,
			"-0.007": 3.72602421626,
			"-0.006": 5.30479992111,
			"-0.005": 6.56777309289,
			"-0.004": 9.09915114005,
			"-0.003": 11.5131719181,
			"-0.002": 12.0443109194,
			"-0.001": 16.0348396258,
			"0.0": 22.5678411689,
			"0.001": 34.4700322386,
			"0.002": 37.1436061953,
			"0.003": 28.1280801297,
			"0.004": 17.1989611595,
			"0.005": 5.14203673266,
			"0.006": 0.871675838017,
			"0.007": 0.516994595314,
			"0.008": 0.781603569789,
			"0.009": 0.497568377216,
			"0.01": 0.277245560895,
			"0.011": 0.0,
			"0.012": 0.0,
			"0.013": 0.0,
			"0.014": 0.0,
			"0.015": 0.0,
			"0.016": 0.0,
			"0.017": 0.0,
			"0.018": 0.0,
			"0.019": 0.0,
			"0.02": 0.0,
			"0.021": 0.0,
			"0.022": 0.0,
			"0.023": 0.0,
			"0.024": 0.0,
			"0.025": 0.0
		}
	}
}
