{
	 "smiles": "CC1=CC(=CN=C1)C#N", 
	 "Tm": 357.15, 
	 "num_atms": 15, 
	 "gaussian": { 
		 "optdone": 1, 
		 "sigma_profile": "yes", 
		 "theory": "DFT", 
		 "functional": "B3LYP", 
		 "basiset": "6-31G**", 
		 "properties": { 
			 "R2extent": 1865.2618, 
			 "electric_dipole_moment_norm": 4.35002293442, 
			 "electric_quadrupole_moment_norm": 13.2691256332, 
			 "total_energy": -379.844961677, 
			 "HOMO_LUMO_gap": 0.20993, 
			 "cosmo_polarized_energy": -9.86, 
			 "cosmo_cavitation_energy": 20.39, 
			 "cosmo_dispersion_energy": -14.47, 
			 "cosmo_repulsion_energy": 1.19, 
			 "cosmo_total_nonelectrostatic_energy": 7.11, 
			 "SMD_solvation_energy": 3.74 
		},
		"coords": [
			{
				"x": -1.5223055159,
				"y": -1.8648062709,
				"z": -1.3227735269,
				"element": "C" 
			},
			{
				"x": -1.1075610923,
				"y": -1.2262071951,
				"z": -0.0212812381,
				"element": "C" 
			},
			{
				"x": -1.8790285622,
				"y": -0.2347503283,
				"z": 0.5884208082,
				"element": "C" 
			},
			{
				"x": -1.4465001285,
				"y": 0.3253087008,
				"z": 1.7978904752,
				"element": "C" 
			},
			{
				"x": -0.2413723428,
				"y": -0.1343302385,
				"z": 2.3594545738,
				"element": "C" 
			},
			{
				"x": 0.5041542214,
				"y": -1.0786952305,
				"z": 1.7894732113,
				"element": "N" 
			},
			{
				"x": 0.0735934717,
				"y": -1.6011418377,
				"z": 0.6343347267,
				"element": "C" 
			},
			{
				"x": -2.2092281659,
				"y": 1.3444379385,
				"z": 2.4549717818,
				"element": "C" 
			},
			{
				"x": -2.8252493318,
				"y": 2.1721180672,
				"z": 2.99203955,
				"element": "N" 
			},
			{
				"x": -0.7977374571,
				"y": -2.6186519165,
				"z": -1.641347691,
				"element": "H" 
			},
			{
				"x": -1.6052144068,
				"y": -1.1199256102,
				"z": -2.1217106231,
				"element": "H" 
			},
			{
				"x": -2.4981345037,
				"y": -2.3541051055,
				"z": -1.2316801144,
				"element": "H" 
			},
			{
				"x": -2.806620007,
				"y": 0.1051071471,
				"z": 0.1368582162,
				"element": "H" 
			},
			{
				"x": 0.1169971735,
				"y": 0.2834296919,
				"z": 3.2972487347,
				"element": "H" 
			},
			{
				"x": 0.7080066474,
				"y": -2.3708878121,
				"z": 0.1965011156,
				"element": "H" 
			}
		],
		 "valence_orbital": [ 
			{
				"type": "occ",
				"energy": -0.36474,
				"method": "rhf"
			},
			{
				"type": "occ",
				"energy": -0.3416,
				"method": "rhf"
			},
			{
				"type": "occ",
				"energy": -0.29984,
				"method": "rhf"
			},
			{
				"type": "occ",
				"energy": -0.27478,
				"method": "rhf"
			},
			{
				"type": "occ",
				"energy": -0.27364,
				"method": "rhf"
			},
			{
				"type": "unocc",
				"energy": -0.06371,
				"method": "rhf"
			},
			{
				"type": "unocc",
				"energy": -0.04252,
				"method": "rhf"
			},
			{
				"type": "unocc",
				"energy": 0.02738,
				"method": "rhf"
			},
			{
				"type": "unocc",
				"energy": 0.06325,
				"method": "rhf"
			},
			{
				"type": "unocc",
				"energy": 0.0825,
				"method": "rhf"
			}
		],
		"cosmo_sigma_profile": { 
			"-0.025": 0.0,
			"-0.024": 0.0,
			"-0.023": 0.0,
			"-0.022": 0.0,
			"-0.021": 0.0,
			"-0.02": 0.0,
			"-0.019": 0.0,
			"-0.018": 0.0,
			"-0.017": 0.0,
			"-0.016": 0.0,
			"-0.015": 0.0,
			"-0.014": 0.0,
			"-0.013": 0.0,
			"-0.012": 0.0,
			"-0.011": 0.0,
			"-0.01": 0.0,
			"-0.009": 1.37036417811,
			"-0.008": 4.05724033884,
			"-0.007": 7.21983094007,
			"-0.006": 8.40730688581,
			"-0.005": 13.7655736072,
			"-0.004": 12.2102412391,
			"-0.003": 12.5851628925,
			"-0.002": 16.5329716394,
			"-0.001": 20.7763924022,
			"0.0": 15.5446558699,
			"0.001": 6.10340573635,
			"0.002": 3.52072208059,
			"0.003": 4.20124386697,
			"0.004": 3.4127811722,
			"0.005": 3.61827043297,
			"0.006": 3.5731304958,
			"0.007": 5.62234204706,
			"0.008": 3.66029573599,
			"0.009": 3.90229345992,
			"0.01": 4.23626159808,
			"0.011": 3.64741198003,
			"0.012": 2.94441548052,
			"0.013": 1.91348248052,
			"0.014": 0.832317230038,
			"0.015": 0.809683096765,
			"0.016": 0.187065577126,
			"0.017": 0.0,
			"0.018": 0.0,
			"0.019": 0.0,
			"0.02": 0.0,
			"0.021": 0.0,
			"0.022": 0.0,
			"0.023": 0.0,
			"0.024": 0.0,
			"0.025": 0.0
		}
	}
}
