{
	 "smiles": "O=C(CN1C(=O)CCC1=O)C1=CC=CC=C1", 
	 "Tm": 418.15, 
	 "num_atms": 27, 
	 "gaussian": { 
		 "optdone": 1, 
		 "sigma_profile": "yes", 
		 "theory": "DFT", 
		 "functional": "B3LYP", 
		 "basiset": "6-31G**", 
		 "properties": { 
			 "R2extent": 4456.3461, 
			 "electric_dipole_moment_norm": 4.2855869528, 
			 "electric_quadrupole_moment_norm": 13.4983797428, 
			 "total_energy": -744.360160808, 
			 "HOMO_LUMO_gap": 0.19128, 
			 "cosmo_polarized_energy": -16.97, 
			 "cosmo_cavitation_energy": 31.19, 
			 "cosmo_dispersion_energy": -21.73, 
			 "cosmo_repulsion_energy": 1.71, 
			 "cosmo_total_nonelectrostatic_energy": 11.16, 
			 "SMD_solvation_energy": 7.01 
		},
		"coords": [
			{
				"x": -2.4293166206,
				"y": 1.2815588497,
				"z": -0.4816607676,
				"element": "O" 
			},
			{
				"x": -2.0931287117,
				"y": 0.1313640332,
				"z": -0.2621143606,
				"element": "C" 
			},
			{
				"x": -1.4167729696,
				"y": -0.6626665499,
				"z": -1.3966808956,
				"element": "C" 
			},
			{
				"x": -0.1935643767,
				"y": -1.3574417842,
				"z": -1.0193403724,
				"element": "N" 
			},
			{
				"x": 0.9644411285,
				"y": -0.6823918721,
				"z": -0.6143071379,
				"element": "C" 
			},
			{
				"x": 1.0443559808,
				"y": 0.5198179648,
				"z": -0.494996174,
				"element": "O" 
			},
			{
				"x": 2.0497558365,
				"y": -1.7259875886,
				"z": -0.3683610658,
				"element": "C" 
			},
			{
				"x": 1.3960876542,
				"y": -3.075859247,
				"z": -0.7045691979,
				"element": "C" 
			},
			{
				"x": -0.0355557181,
				"y": -2.7398567469,
				"z": -1.1061326282,
				"element": "C" 
			},
			{
				"x": -0.9122297688,
				"y": -3.513416946,
				"z": -1.438204934,
				"element": "O" 
			},
			{
				"x": -2.3586696586,
				"y": -0.5210219132,
				"z": 1.0560336706,
				"element": "C" 
			},
			{
				"x": -2.4250261311,
				"y": -1.9138808867,
				"z": 1.2183644585,
				"element": "C" 
			},
			{
				"x": -2.7259416984,
				"y": -2.4568581273,
				"z": 2.4681523354,
				"element": "C" 
			},
			{
				"x": -2.9480386788,
				"y": -1.6192764341,
				"z": 3.5628218179,
				"element": "C" 
			},
			{
				"x": -2.8849792386,
				"y": -0.2309695388,
				"z": 3.4061413249,
				"element": "C" 
			},
			{
				"x": -2.601776756,
				"y": 0.3149459038,
				"z": 2.1582627621,
				"element": "C" 
			},
			{
				"x": -2.0975133315,
				"y": -1.4277497156,
				"z": -1.783927872,
				"element": "H" 
			},
			{
				"x": -1.2006987931,
				"y": 0.0624474928,
				"z": -2.1838695173,
				"element": "H" 
			},
			{
				"x": 2.9132262596,
				"y": -1.4887773021,
				"z": -0.9958523671,
				"element": "H" 
			},
			{
				"x": 2.3792117285,
				"y": -1.6492951089,
				"z": 0.6716484269,
				"element": "H" 
			},
			{
				"x": 1.3683020632,
				"y": -3.7718083171,
				"z": 0.1385681538,
				"element": "H" 
			},
			{
				"x": 1.8777839128,
				"y": -3.6000003827,
				"z": -1.5350045982,
				"element": "H" 
			},
			{
				"x": -2.270451897,
				"y": -2.5792448608,
				"z": 0.3747691503,
				"element": "H" 
			},
			{
				"x": -2.7895983433,
				"y": -3.5347526077,
				"z": 2.5850892661,
				"element": "H" 
			},
			{
				"x": -3.1747021655,
				"y": -2.0463196328,
				"z": 4.5357196513,
				"element": "H" 
			},
			{
				"x": -3.0614377735,
				"y": 0.4214637374,
				"z": 4.2562956802,
				"element": "H" 
			},
			{
				"x": -2.5616619333,
				"y": 1.3887775804,
				"z": 2.0090551905,
				"element": "H" 
			}
		],
		 "valence_orbital": [ 
			{
				"type": "occ",
				"energy": -0.29438,
				"method": "rhf"
			},
			{
				"type": "occ",
				"energy": -0.26832,
				"method": "rhf"
			},
			{
				"type": "occ",
				"energy": -0.2634,
				"method": "rhf"
			},
			{
				"type": "occ",
				"energy": -0.26115,
				"method": "rhf"
			},
			{
				"type": "occ",
				"energy": -0.25029,
				"method": "rhf"
			},
			{
				"type": "unocc",
				"energy": -0.05901,
				"method": "rhf"
			},
			{
				"type": "unocc",
				"energy": -0.02812,
				"method": "rhf"
			},
			{
				"type": "unocc",
				"energy": -0.01081,
				"method": "rhf"
			},
			{
				"type": "unocc",
				"energy": 0.01275,
				"method": "rhf"
			},
			{
				"type": "unocc",
				"energy": 0.03054,
				"method": "rhf"
			}
		],
		"cosmo_sigma_profile": { 
			"-0.025": 0.0,
			"-0.024": 0.0,
			"-0.023": 0.0,
			"-0.022": 0.0,
			"-0.021": 0.0,
			"-0.02": 0.0,
			"-0.019": 0.0,
			"-0.018": 0.0,
			"-0.017": 0.0,
			"-0.016": 0.0,
			"-0.015": 0.0,
			"-0.014": 0.0,
			"-0.013": 0.0,
			"-0.012": 0.0,
			"-0.011": 0.0,
			"-0.01": 0.0,
			"-0.009": 0.640530947489,
			"-0.008": 4.29563526673,
			"-0.007": 20.6117589052,
			"-0.006": 23.2042453707,
			"-0.005": 21.9839283826,
			"-0.004": 22.2673600516,
			"-0.003": 16.7222597502,
			"-0.002": 13.7755878554,
			"-0.001": 10.6108950186,
			"0.0": 11.1248022166,
			"0.001": 12.3560060226,
			"0.002": 12.1126661048,
			"0.003": 13.6098894109,
			"0.004": 14.2381057386,
			"0.005": 4.78314707776,
			"0.006": 4.16912440021,
			"0.007": 3.44220160404,
			"0.008": 5.30540470126,
			"0.009": 6.21072076655,
			"0.01": 6.50488679873,
			"0.011": 12.490699103,
			"0.012": 7.57443764192,
			"0.013": 0.932503463411,
			"0.014": 0.0,
			"0.015": 0.0,
			"0.016": 0.0,
			"0.017": 0.0,
			"0.018": 0.0,
			"0.019": 0.0,
			"0.02": 0.0,
			"0.021": 0.0,
			"0.022": 0.0,
			"0.023": 0.0,
			"0.024": 0.0,
			"0.025": 0.0
		}
	}
}
