{
	 "smiles": "CC(C)OC(=O)CC1=CSC(=N1)C1=CC=C(Cl)C=C1", 
	 "Tm": 356.15, 
	 "num_atms": 33, 
	 "gaussian": { 
		 "optdone": 1, 
		 "sigma_profile": "yes", 
		 "theory": "DFT", 
		 "functional": "B3LYP", 
		 "basiset": "6-31G**", 
		 "properties": { 
			 "R2extent": 9847.6934, 
			 "electric_dipole_moment_norm": 3.1364423556, 
			 "electric_quadrupole_moment_norm": 12.3902669523, 
			 "total_energy": -1605.53326409, 
			 "HOMO_LUMO_gap": 0.16294, 
			 "cosmo_polarized_energy": -11.82, 
			 "cosmo_cavitation_energy": 41.33, 
			 "cosmo_dispersion_energy": -28.86, 
			 "cosmo_repulsion_energy": 2.24, 
			 "cosmo_total_nonelectrostatic_energy": 14.72, 
			 "SMD_solvation_energy": 6.32 
		},
		"coords": [
			{
				"x": -0.8291493269,
				"y": -1.0527789865,
				"z": 3.159805413,
				"element": "C" 
			},
			{
				"x": -1.3498063627,
				"y": 0.3694617113,
				"z": 3.3090418648,
				"element": "C" 
			},
			{
				"x": -2.1868106538,
				"y": 0.5880663465,
				"z": 4.5650135593,
				"element": "C" 
			},
			{
				"x": -2.1731441163,
				"y": 0.6192708,
				"z": 2.1294626756,
				"element": "O" 
			},
			{
				"x": -2.27921827,
				"y": 1.8953976034,
				"z": 1.7125524798,
				"element": "C" 
			},
			{
				"x": -1.7703944925,
				"y": 2.8468927266,
				"z": 2.2642682549,
				"element": "O" 
			},
			{
				"x": -3.1633520956,
				"y": 2.0022309028,
				"z": 0.4726693709,
				"element": "C" 
			},
			{
				"x": -2.8692561912,
				"y": 0.9781763328,
				"z": -0.587876786,
				"element": "C" 
			},
			{
				"x": -3.7377960667,
				"y": 0.0295421974,
				"z": -1.0534065523,
				"element": "C" 
			},
			{
				"x": -2.9837174813,
				"y": -0.9274566457,
				"z": -2.2832154276,
				"element": "S" 
			},
			{
				"x": -1.5147125501,
				"y": 0.0361287971,
				"z": -2.0832973969,
				"element": "C" 
			},
			{
				"x": -1.6266008359,
				"y": 0.9706903988,
				"z": -1.1767936211,
				"element": "N" 
			},
			{
				"x": -0.2970884312,
				"y": -0.199341178,
				"z": -2.8692002363,
				"element": "C" 
			},
			{
				"x": -0.2052613711,
				"y": -1.2245850704,
				"z": -3.8235823464,
				"element": "C" 
			},
			{
				"x": 0.9642969316,
				"y": -1.4222504338,
				"z": -4.5524168291,
				"element": "C" 
			},
			{
				"x": 2.0571666969,
				"y": -0.5857826692,
				"z": -4.3254285576,
				"element": "C" 
			},
			{
				"x": 3.5354384837,
				"y": -0.8290595197,
				"z": -5.2403510033,
				"element": "Cl" 
			},
			{
				"x": 1.9925365088,
				"y": 0.4411779913,
				"z": -3.3819157879,
				"element": "C" 
			},
			{
				"x": 0.8192732881,
				"y": 0.6297482378,
				"z": -2.6597477703,
				"element": "C" 
			},
			{
				"x": -1.6558721703,
				"y": -1.7702199075,
				"z": 3.145354682,
				"element": "H" 
			},
			{
				"x": -0.2615658397,
				"y": -1.1621825973,
				"z": 2.2317696816,
				"element": "H" 
			},
			{
				"x": -0.1724026124,
				"y": -1.3014976492,
				"z": 3.9992588067,
				"element": "H" 
			},
			{
				"x": -0.5262896827,
				"y": 1.088913897,
				"z": 3.2872156394,
				"element": "H" 
			},
			{
				"x": -3.0543478112,
				"y": -0.0799973425,
				"z": 4.5715836667,
				"element": "H" 
			},
			{
				"x": -2.5330043209,
				"y": 1.6228498364,
				"z": 4.6194571101,
				"element": "H" 
			},
			{
				"x": -1.5871054939,
				"y": 0.3811028449,
				"z": 5.4573600417,
				"element": "H" 
			},
			{
				"x": -3.0263694029,
				"y": 3.013693548,
				"z": 0.0817039195,
				"element": "H" 
			},
			{
				"x": -4.2050460813,
				"y": 1.9071809336,
				"z": 0.7991012897,
				"element": "H" 
			},
			{
				"x": -4.7558458931,
				"y": -0.1595626745,
				"z": -0.7443814941,
				"element": "H" 
			},
			{
				"x": -1.050935014,
				"y": -1.8815542944,
				"z": -4.0060992278,
				"element": "H" 
			},
			{
				"x": 1.0295271049,
				"y": -2.2157575857,
				"z": -5.2882477844,
				"element": "H" 
			},
			{
				"x": 2.8510424877,
				"y": 1.0829392535,
				"z": -3.2178688121,
				"element": "H" 
			},
			{
				"x": 0.7484110663,
				"y": 1.421762195,
				"z": -1.9227888225,
				"element": "H" 
			}
		],
		 "valence_orbital": [ 
			{
				"type": "occ",
				"energy": -0.28257,
				"method": "rhf"
			},
			{
				"type": "occ",
				"energy": -0.27965,
				"method": "rhf"
			},
			{
				"type": "occ",
				"energy": -0.27063,
				"method": "rhf"
			},
			{
				"type": "occ",
				"energy": -0.2634,
				"method": "rhf"
			},
			{
				"type": "occ",
				"energy": -0.22496,
				"method": "rhf"
			},
			{
				"type": "unocc",
				"energy": -0.06202,
				"method": "rhf"
			},
			{
				"type": "unocc",
				"energy": -0.02007,
				"method": "rhf"
			},
			{
				"type": "unocc",
				"energy": 0.00621,
				"method": "rhf"
			},
			{
				"type": "unocc",
				"energy": 0.01178,
				"method": "rhf"
			},
			{
				"type": "unocc",
				"energy": 0.01841,
				"method": "rhf"
			}
		],
		"cosmo_sigma_profile": { 
			"-0.025": 0.0,
			"-0.024": 0.0,
			"-0.023": 0.0,
			"-0.022": 0.0,
			"-0.021": 0.0,
			"-0.02": 0.0,
			"-0.019": 0.0,
			"-0.018": 0.0,
			"-0.017": 0.0,
			"-0.016": 0.0,
			"-0.015": 0.0,
			"-0.014": 0.0,
			"-0.013": 0.0,
			"-0.012": 0.0,
			"-0.011": 0.0,
			"-0.01": 0.379582152983,
			"-0.009": 1.78728123196,
			"-0.008": 6.49298002702,
			"-0.007": 10.8887546956,
			"-0.006": 12.3959845604,
			"-0.005": 13.5786710801,
			"-0.004": 23.2236749594,
			"-0.003": 27.1906433733,
			"-0.002": 26.7279153236,
			"-0.001": 26.5408345447,
			"0.0": 35.9145440508,
			"0.001": 33.0542771693,
			"0.002": 33.1440584,
			"0.003": 27.7725455878,
			"0.004": 17.1579533646,
			"0.005": 9.82507577554,
			"0.006": 5.50113814446,
			"0.007": 4.24516830578,
			"0.008": 4.24367024053,
			"0.009": 3.031479858,
			"0.01": 2.33969699465,
			"0.011": 2.93446768299,
			"0.012": 4.24605239217,
			"0.013": 1.0591056653,
			"0.014": 0.0,
			"0.015": 0.0,
			"0.016": 0.0,
			"0.017": 0.0,
			"0.018": 0.0,
			"0.019": 0.0,
			"0.02": 0.0,
			"0.021": 0.0,
			"0.022": 0.0,
			"0.023": 0.0,
			"0.024": 0.0,
			"0.025": 0.0
		}
	}
}
