{
	 "smiles": "COC1=C(C=C(F)C=C1)C(O)=O", 
	 "Tm": 362.15, 
	 "num_atms": 19, 
	 "gaussian": { 
		 "optdone": 1, 
		 "sigma_profile": "yes", 
		 "theory": "DFT", 
		 "functional": "B3LYP", 
		 "basiset": "6-31G**", 
		 "properties": { 
			 "R2extent": 2679.3943, 
			 "electric_dipole_moment_norm": 3.03651950924, 
			 "electric_quadrupole_moment_norm": 8.12186444543, 
			 "total_energy": -634.569560043, 
			 "HOMO_LUMO_gap": 0.19012, 
			 "cosmo_polarized_energy": -10.34, 
			 "cosmo_cavitation_energy": 24.16, 
			 "cosmo_dispersion_energy": -17.52, 
			 "cosmo_repulsion_energy": 1.37, 
			 "cosmo_total_nonelectrostatic_energy": 8.02, 
			 "SMD_solvation_energy": 6.71 
		},
		"coords": [
			{
				"x": -0.5733724611,
				"y": 0.2530700435,
				"z": -2.1478103135,
				"element": "C" 
			},
			{
				"x": -0.4702967977,
				"y": -1.1042310271,
				"z": -1.7136814792,
				"element": "O" 
			},
			{
				"x": -0.3679234868,
				"y": -1.2820454722,
				"z": -0.3579580843,
				"element": "C" 
			},
			{
				"x": 0.8745192647,
				"y": -1.4305112452,
				"z": 0.2958385594,
				"element": "C" 
			},
			{
				"x": 0.8926141486,
				"y": -1.7001254869,
				"z": 1.6745474972,
				"element": "C" 
			},
			{
				"x": -0.2953837757,
				"y": -1.7962162707,
				"z": 2.3763653992,
				"element": "C" 
			},
			{
				"x": -0.2607215493,
				"y": -2.0479269037,
				"z": 3.7009435915,
				"element": "F" 
			},
			{
				"x": -1.5291705948,
				"y": -1.647057714,
				"z": 1.7490559057,
				"element": "C" 
			},
			{
				"x": -1.5527707088,
				"y": -1.3935732747,
				"z": 0.381275854,
				"element": "C" 
			},
			{
				"x": 2.2184639311,
				"y": -1.3536244431,
				"z": -0.350730448,
				"element": "C" 
			},
			{
				"x": 2.2159903364,
				"y": -0.9075626919,
				"z": -1.6267043871,
				"element": "O" 
			},
			{
				"x": 3.2529242369,
				"y": -1.6460494783,
				"z": 0.2184645467,
				"element": "O" 
			},
			{
				"x": -0.7109233793,
				"y": 0.2186470643,
				"z": -3.2300459248,
				"element": "H" 
			},
			{
				"x": -1.4360353312,
				"y": 0.7524957906,
				"z": -1.6877132674,
				"element": "H" 
			},
			{
				"x": 0.3402336172,
				"y": 0.8109883561,
				"z": -1.9167130535,
				"element": "H" 
			},
			{
				"x": 1.8444230802,
				"y": -1.8324585228,
				"z": 2.1749517621,
				"element": "H" 
			},
			{
				"x": -2.4425576882,
				"y": -1.7389575392,
				"z": 2.32693937,
				"element": "H" 
			},
			{
				"x": -2.4957068232,
				"y": -1.296832003,
				"z": -0.1469316296,
				"element": "H" 
			},
			{
				"x": 3.150093981,
				"y": -0.9114291814,
				"z": -1.8966938982,
				"element": "H" 
			}
		],
		 "valence_orbital": [ 
			{
				"type": "occ",
				"energy": -0.32175,
				"method": "rhf"
			},
			{
				"type": "occ",
				"energy": -0.28465,
				"method": "rhf"
			},
			{
				"type": "occ",
				"energy": -0.27695,
				"method": "rhf"
			},
			{
				"type": "occ",
				"energy": -0.27134,
				"method": "rhf"
			},
			{
				"type": "occ",
				"energy": -0.24565,
				"method": "rhf"
			},
			{
				"type": "unocc",
				"energy": -0.05553,
				"method": "rhf"
			},
			{
				"type": "unocc",
				"energy": -0.00929,
				"method": "rhf"
			},
			{
				"type": "unocc",
				"energy": 0.05184,
				"method": "rhf"
			},
			{
				"type": "unocc",
				"energy": 0.07348,
				"method": "rhf"
			},
			{
				"type": "unocc",
				"energy": 0.09067,
				"method": "rhf"
			}
		],
		"cosmo_sigma_profile": { 
			"-0.025": 0.0,
			"-0.024": 0.0,
			"-0.023": 0.0,
			"-0.022": 0.0,
			"-0.021": 0.0,
			"-0.02": 0.0,
			"-0.019": 0.0795066792108,
			"-0.018": 0.692253880132,
			"-0.017": 0.797937242307,
			"-0.016": 1.18531598184,
			"-0.015": 0.503429707399,
			"-0.014": 0.871589609568,
			"-0.013": 0.867396531813,
			"-0.012": 0.358657906229,
			"-0.011": 0.425072327058,
			"-0.01": 0.696134543012,
			"-0.009": 0.78291400555,
			"-0.008": 2.68623466188,
			"-0.007": 5.65956102958,
			"-0.006": 6.47887532061,
			"-0.005": 9.40355456223,
			"-0.004": 12.1319209586,
			"-0.003": 17.6011330213,
			"-0.002": 16.2984511697,
			"-0.001": 12.2709197846,
			"0.0": 16.7133278917,
			"0.001": 19.4468906312,
			"0.002": 13.8055017293,
			"0.003": 9.90337888513,
			"0.004": 13.358176511,
			"0.005": 4.50931746124,
			"0.006": 2.9557965828,
			"0.007": 3.28568710878,
			"0.008": 2.07403817225,
			"0.009": 2.75671338898,
			"0.01": 4.36864408837,
			"0.011": 5.83290403775,
			"0.012": 3.84690994522,
			"0.013": 0.445508503613,
			"0.014": 0.0,
			"0.015": 0.0,
			"0.016": 0.0,
			"0.017": 0.0,
			"0.018": 0.0,
			"0.019": 0.0,
			"0.02": 0.0,
			"0.021": 0.0,
			"0.022": 0.0,
			"0.023": 0.0,
			"0.024": 0.0,
			"0.025": 0.0
		}
	}
}
