{
	 "smiles": "COC(=O)C1=NOC(CBr)=C1", 
	 "Tm": 333.15, 
	 "num_atms": 17, 
	 "gaussian": { 
		 "optdone": 1, 
		 "sigma_profile": "yes", 
		 "theory": "DFT", 
		 "functional": "B3LYP", 
		 "basiset": "6-31G**", 
		 "properties": { 
			 "R2extent": 4460.895, 
			 "electric_dipole_moment_norm": 1.91484378997, 
			 "electric_quadrupole_moment_norm": 13.0966818939, 
			 "total_energy": -3084.02839651, 
			 "HOMO_LUMO_gap": 0.20812, 
			 "cosmo_polarized_energy": -12.16, 
			 "cosmo_cavitation_energy": 25.26, 
			 "cosmo_dispersion_energy": -18.75, 
			 "cosmo_repulsion_energy": 1.54, 
			 "cosmo_total_nonelectrostatic_energy": 8.05, 
			 "SMD_solvation_energy": 4.91 
		},
		"coords": [
			{
				"x": -3.8445404783,
				"y": -2.5056959124,
				"z": -0.3335514281,
				"element": "C" 
			},
			{
				"x": -2.5458461477,
				"y": -1.9776182131,
				"z": -0.0091370037,
				"element": "O" 
			},
			{
				"x": -1.9567628967,
				"y": -1.2730326482,
				"z": -0.983763098,
				"element": "C" 
			},
			{
				"x": -2.4363043908,
				"y": -1.0622338475,
				"z": -2.0791776408,
				"element": "O" 
			},
			{
				"x": -0.6177351443,
				"y": -0.7546501428,
				"z": -0.5904111236,
				"element": "C" 
			},
			{
				"x": -0.0928612709,
				"y": -0.9558482011,
				"z": 0.6032320927,
				"element": "N" 
			},
			{
				"x": 1.1346406644,
				"y": -0.3208752198,
				"z": 0.5711337589,
				"element": "O" 
			},
			{
				"x": 1.3242003817,
				"y": 0.2499660298,
				"z": -0.6454619679,
				"element": "C" 
			},
			{
				"x": 2.5889637889,
				"y": 0.9821036431,
				"z": -0.8523902699,
				"element": "C" 
			},
			{
				"x": 4.0901528453,
				"y": -0.2325197093,
				"z": -1.3554098304,
				"element": "Br" 
			},
			{
				"x": 0.2379261369,
				"y": 0.0084230231,
				"z": -1.4315367481,
				"element": "C" 
			},
			{
				"x": -3.7794901498,
				"y": -3.1820349303,
				"z": -1.189241645,
				"element": "H" 
			},
			{
				"x": -4.5380841879,
				"y": -1.6959071476,
				"z": -0.5726467792,
				"element": "H" 
			},
			{
				"x": -4.1699783389,
				"y": -3.0414519886,
				"z": 0.5571793531,
				"element": "H" 
			},
			{
				"x": 2.9196302666,
				"y": 1.4792015116,
				"z": 0.0575259329,
				"element": "H" 
			},
			{
				"x": 2.5039535167,
				"y": 1.6935704954,
				"z": -1.6701949469,
				"element": "H" 
			},
			{
				"x": 0.0522354047,
				"y": 0.3101032577,
				"z": -2.449848656,
				"element": "H" 
			}
		],
		 "valence_orbital": [ 
			{
				"type": "occ",
				"energy": -0.31335,
				"method": "rhf"
			},
			{
				"type": "occ",
				"energy": -0.29297,
				"method": "rhf"
			},
			{
				"type": "occ",
				"energy": -0.29259,
				"method": "rhf"
			},
			{
				"type": "occ",
				"energy": -0.28569,
				"method": "rhf"
			},
			{
				"type": "occ",
				"energy": -0.27569,
				"method": "rhf"
			},
			{
				"type": "unocc",
				"energy": -0.06757,
				"method": "rhf"
			},
			{
				"type": "unocc",
				"energy": -0.04022,
				"method": "rhf"
			},
			{
				"type": "unocc",
				"energy": 0.02968,
				"method": "rhf"
			},
			{
				"type": "unocc",
				"energy": 0.08023,
				"method": "rhf"
			},
			{
				"type": "unocc",
				"energy": 0.09837,
				"method": "rhf"
			}
		],
		"cosmo_sigma_profile": { 
			"-0.025": 0.0,
			"-0.024": 0.0,
			"-0.023": 0.0,
			"-0.022": 0.0,
			"-0.021": 0.0,
			"-0.02": 0.0,
			"-0.019": 0.0,
			"-0.018": 0.0,
			"-0.017": 0.0,
			"-0.016": 0.0,
			"-0.015": 0.0,
			"-0.014": 0.0,
			"-0.013": 0.0,
			"-0.012": 0.0,
			"-0.011": 0.0,
			"-0.01": 3.78793628589,
			"-0.009": 6.48920858371,
			"-0.008": 5.94128878828,
			"-0.007": 7.95944421208,
			"-0.006": 11.9776810005,
			"-0.005": 13.5331449742,
			"-0.004": 15.3688507052,
			"-0.003": 13.6627239466,
			"-0.002": 14.0569413295,
			"-0.001": 11.8550388616,
			"0.0": 10.8371361257,
			"0.001": 8.95722343466,
			"0.002": 10.3413846785,
			"0.003": 8.98466273003,
			"0.004": 10.8674958991,
			"0.005": 15.4921529426,
			"0.006": 9.74955322731,
			"0.007": 5.25377004787,
			"0.008": 2.9504448365,
			"0.009": 3.40778686265,
			"0.01": 5.86807027593,
			"0.011": 5.90062064745,
			"0.012": 1.70174732033,
			"0.013": 0.680642635792,
			"0.014": 0.0,
			"0.015": 0.0,
			"0.016": 0.0,
			"0.017": 0.0,
			"0.018": 0.0,
			"0.019": 0.0,
			"0.02": 0.0,
			"0.021": 0.0,
			"0.022": 0.0,
			"0.023": 0.0,
			"0.024": 0.0,
			"0.025": 0.0
		}
	}
}
