{
	 "smiles": "OC1=CC=C(C=C1)C1=NOC(=N1)C1CC1", 
	 "Tm": 423.15, 
	 "num_atms": 25, 
	 "gaussian": { 
		 "optdone": 1, 
		 "sigma_profile": "yes", 
		 "theory": "DFT", 
		 "functional": "B3LYP", 
		 "basiset": "6-31G**", 
		 "properties": { 
			 "R2extent": 4679.6924, 
			 "electric_dipole_moment_norm": 0.735480326046, 
			 "electric_quadrupole_moment_norm": 19.7606591757, 
			 "total_energy": -685.086505146, 
			 "HOMO_LUMO_gap": 0.18615, 
			 "cosmo_polarized_energy": -13.07, 
			 "cosmo_cavitation_energy": 29.99, 
			 "cosmo_dispersion_energy": -22.13, 
			 "cosmo_repulsion_energy": 1.73, 
			 "cosmo_total_nonelectrostatic_energy": 9.58, 
			 "SMD_solvation_energy": 3.87 
		},
		"coords": [
			{
				"x": 2.616344699,
				"y": -1.5683744788,
				"z": 5.1623753794,
				"element": "O" 
			},
			{
				"x": 2.2612446819,
				"y": -1.1981428933,
				"z": 3.8992571187,
				"element": "C" 
			},
			{
				"x": 1.0375623367,
				"y": -0.5367854,
				"z": 3.7400951647,
				"element": "C" 
			},
			{
				"x": 0.6283536605,
				"y": -0.1379245186,
				"z": 2.4737473862,
				"element": "C" 
			},
			{
				"x": 1.4276448282,
				"y": -0.389696426,
				"z": 1.3474206105,
				"element": "C" 
			},
			{
				"x": 2.652177621,
				"y": -1.0531439216,
				"z": 1.5179344666,
				"element": "C" 
			},
			{
				"x": 3.0676794574,
				"y": -1.4549676291,
				"z": 2.782098413,
				"element": "C" 
			},
			{
				"x": 0.9800071674,
				"y": 0.0383206788,
				"z": 0.0185339745,
				"element": "C" 
			},
			{
				"x": 1.6854020488,
				"y": -0.1681729143,
				"z": -1.0737160667,
				"element": "N" 
			},
			{
				"x": 0.8852469088,
				"y": 0.396768275,
				"z": -2.086784751,
				"element": "O" 
			},
			{
				"x": -0.2140253759,
				"y": 0.8798978003,
				"z": -1.4834093633,
				"element": "C" 
			},
			{
				"x": -0.2184896259,
				"y": 0.6929259241,
				"z": -0.1939845984,
				"element": "N" 
			},
			{
				"x": -1.2283288835,
				"y": 1.5299900567,
				"z": -2.3188903792,
				"element": "C" 
			},
			{
				"x": -2.0088457914,
				"y": 2.7009876221,
				"z": -1.7408728928,
				"element": "C" 
			},
			{
				"x": -2.6929981506,
				"y": 1.3859655246,
				"z": -1.9337013707,
				"element": "C" 
			},
			{
				"x": 3.4744029616,
				"y": -2.011627827,
				"z": 5.1350822843,
				"element": "H" 
			},
			{
				"x": 0.4267631904,
				"y": -0.3466315838,
				"z": 4.6162132865,
				"element": "H" 
			},
			{
				"x": -0.3180048291,
				"y": 0.3749152635,
				"z": 2.3410881054,
				"element": "H" 
			},
			{
				"x": 3.275656367,
				"y": -1.2514661097,
				"z": 0.6524477089,
				"element": "H" 
			},
			{
				"x": 4.0188115711,
				"y": -1.9689035391,
				"z": 2.9047704511,
				"element": "H" 
			},
			{
				"x": -0.9803008403,
				"y": 1.555669918,
				"z": -3.3743110947,
				"element": "H" 
			},
			{
				"x": -1.7533926475,
				"y": 2.9952158839,
				"z": -0.7284449373,
				"element": "H" 
			},
			{
				"x": -2.2390075798,
				"y": 3.5177926459,
				"z": -2.4174905445,
				"element": "H" 
			},
			{
				"x": -2.9012707544,
				"y": 0.7893046035,
				"z": -1.0519713804,
				"element": "H" 
			},
			{
				"x": -3.4045330213,
				"y": 1.2776830448,
				"z": -2.7460869708,
				"element": "H" 
			}
		],
		 "valence_orbital": [ 
			{
				"type": "occ",
				"energy": -0.31325,
				"method": "rhf"
			},
			{
				"type": "occ",
				"energy": -0.2876,
				"method": "rhf"
			},
			{
				"type": "occ",
				"energy": -0.26687,
				"method": "rhf"
			},
			{
				"type": "occ",
				"energy": -0.2568,
				"method": "rhf"
			},
			{
				"type": "occ",
				"energy": -0.21827,
				"method": "rhf"
			},
			{
				"type": "unocc",
				"energy": -0.03212,
				"method": "rhf"
			},
			{
				"type": "unocc",
				"energy": -0.00651,
				"method": "rhf"
			},
			{
				"type": "unocc",
				"energy": 0.00533,
				"method": "rhf"
			},
			{
				"type": "unocc",
				"energy": 0.06632,
				"method": "rhf"
			},
			{
				"type": "unocc",
				"energy": 0.07958,
				"method": "rhf"
			}
		],
		"cosmo_sigma_profile": { 
			"-0.025": 0.0,
			"-0.024": 0.0,
			"-0.023": 0.0,
			"-0.022": 0.0,
			"-0.021": 0.0,
			"-0.02": 0.0,
			"-0.019": 0.0794045434189,
			"-0.018": 0.802767603828,
			"-0.017": 1.19392653401,
			"-0.016": 1.16635021702,
			"-0.015": 0.947644337257,
			"-0.014": 1.18320513607,
			"-0.013": 0.836558142124,
			"-0.012": 0.499128038163,
			"-0.011": 1.4219614903,
			"-0.01": 1.32920213716,
			"-0.009": 0.960945319141,
			"-0.008": 1.69596409023,
			"-0.007": 4.43616673011,
			"-0.006": 13.6853311859,
			"-0.005": 14.569249469,
			"-0.004": 14.1477134737,
			"-0.003": 13.9136023292,
			"-0.002": 15.2961973853,
			"-0.001": 19.5403853588,
			"0.0": 17.7789966767,
			"0.001": 17.6963595857,
			"0.002": 20.640576759,
			"0.003": 19.2325742623,
			"0.004": 19.1055265393,
			"0.005": 6.7459973122,
			"0.006": 5.01443381695,
			"0.007": 8.38580551695,
			"0.008": 4.22875675878,
			"0.009": 4.23111311732,
			"0.01": 4.27923514654,
			"0.011": 2.87869791357,
			"0.012": 1.30016598077,
			"0.013": 0.712562928772,
			"0.014": 0.0303384494919,
			"0.015": 0.0,
			"0.016": 0.0,
			"0.017": 0.0,
			"0.018": 0.0,
			"0.019": 0.0,
			"0.02": 0.0,
			"0.021": 0.0,
			"0.022": 0.0,
			"0.023": 0.0,
			"0.024": 0.0,
			"0.025": 0.0
		}
	}
}
