{
	 "smiles": "C1OC2=C(O1)C=C(C=C2)C1CNCCN1", 
	 "Tm": 395.15, 
	 "num_atms": 29, 
	 "gaussian": { 
		 "optdone": 1, 
		 "sigma_profile": "yes", 
		 "theory": "DFT", 
		 "functional": "B3LYP", 
		 "basiset": "6-31G**", 
		 "properties": { 
			 "R2extent": 4065.3441, 
			 "electric_dipole_moment_norm": 1.52448351254, 
			 "electric_quadrupole_moment_norm": 7.40705483374, 
			 "total_energy": -687.507944061, 
			 "HOMO_LUMO_gap": 0.2026, 
			 "cosmo_polarized_energy": -9.78, 
			 "cosmo_cavitation_energy": 30.3, 
			 "cosmo_dispersion_energy": -23.1, 
			 "cosmo_repulsion_energy": 1.8, 
			 "cosmo_total_nonelectrostatic_energy": 9.0, 
			 "SMD_solvation_energy": 1.82 
		},
		"coords": [
			{
				"x": -1.9401682435,
				"y": 2.4410401583,
				"z": 2.8369174267,
				"element": "C" 
			},
			{
				"x": -0.7743163362,
				"y": 2.9515158391,
				"z": 2.1835329795,
				"element": "O" 
			},
			{
				"x": -0.1543432005,
				"y": 1.8534829261,
				"z": 1.6281582398,
				"element": "C" 
			},
			{
				"x": -0.976995197,
				"y": 0.737209757,
				"z": 1.7559062605,
				"element": "C" 
			},
			{
				"x": -2.1422385751,
				"y": 1.0931476095,
				"z": 2.3987189895,
				"element": "O" 
			},
			{
				"x": -0.6197502336,
				"y": -0.4993025075,
				"z": 1.2606176107,
				"element": "C" 
			},
			{
				"x": 0.632886513,
				"y": -0.6090522868,
				"z": 0.610909314,
				"element": "C" 
			},
			{
				"x": 1.4523528387,
				"y": 0.5169715901,
				"z": 0.4961093564,
				"element": "C" 
			},
			{
				"x": 1.0709239716,
				"y": 1.7753652978,
				"z": 0.9995807717,
				"element": "C" 
			},
			{
				"x": 1.0844353031,
				"y": -1.9705221746,
				"z": 0.0824240323,
				"element": "C" 
			},
			{
				"x": -0.0628424777,
				"y": -2.7263898423,
				"z": -0.6604651111,
				"element": "C" 
			},
			{
				"x": 0.553964939,
				"y": -3.6848927912,
				"z": -1.573855513,
				"element": "N" 
			},
			{
				"x": 1.180497872,
				"y": -3.004787508,
				"z": -2.7136479978,
				"element": "C" 
			},
			{
				"x": 1.9516840416,
				"y": -1.7644558288,
				"z": -2.1840445822,
				"element": "C" 
			},
			{
				"x": 2.2899848636,
				"y": -1.8678618679,
				"z": -0.7631752496,
				"element": "N" 
			},
			{
				"x": -2.808287006,
				"y": 3.0477430866,
				"z": 2.5612273964,
				"element": "H" 
			},
			{
				"x": -1.7867777225,
				"y": 2.4535254738,
				"z": 3.9266302333,
				"element": "H" 
			},
			{
				"x": -1.28353584,
				"y": -1.3489195495,
				"z": 1.3781938459,
				"element": "H" 
			},
			{
				"x": 2.4129026958,
				"y": 0.3961577988,
				"z": 0.0092532239,
				"element": "H" 
			},
			{
				"x": 1.7108763651,
				"y": 2.6453075427,
				"z": 0.9005353612,
				"element": "H" 
			},
			{
				"x": 1.3731969692,
				"y": -2.5865786933,
				"z": 0.9438315022,
				"element": "H" 
			},
			{
				"x": -0.7195850158,
				"y": -1.9981741982,
				"z": -1.1715195848,
				"element": "H" 
			},
			{
				"x": -0.687013931,
				"y": -3.2701219037,
				"z": 0.0554849615,
				"element": "H" 
			},
			{
				"x": -0.1275079057,
				"y": -4.3629901918,
				"z": -1.8990307263,
				"element": "H" 
			},
			{
				"x": 1.8668730665,
				"y": -3.7090409288,
				"z": -3.2005351105,
				"element": "H" 
			},
			{
				"x": 0.4532078129,
				"y": -2.677456867,
				"z": -3.4797492404,
				"element": "H" 
			},
			{
				"x": 1.3462194964,
				"y": -0.8603826928,
				"z": -2.3110178306,
				"element": "H" 
			},
			{
				"x": 2.8688271622,
				"y": -1.6101323777,
				"z": -2.7615181215,
				"element": "H" 
			},
			{
				"x": 2.8379277743,
				"y": -2.71170487,
				"z": -0.6260724376,
				"element": "H" 
			}
		],
		 "valence_orbital": [ 
			{
				"type": "occ",
				"energy": -0.29661,
				"method": "rhf"
			},
			{
				"type": "occ",
				"energy": -0.23621,
				"method": "rhf"
			},
			{
				"type": "occ",
				"energy": -0.22296,
				"method": "rhf"
			},
			{
				"type": "occ",
				"energy": -0.21723,
				"method": "rhf"
			},
			{
				"type": "occ",
				"energy": -0.19679,
				"method": "rhf"
			},
			{
				"type": "unocc",
				"energy": 0.00581,
				"method": "rhf"
			},
			{
				"type": "unocc",
				"energy": 0.02169,
				"method": "rhf"
			},
			{
				"type": "unocc",
				"energy": 0.07362,
				"method": "rhf"
			},
			{
				"type": "unocc",
				"energy": 0.10347,
				"method": "rhf"
			},
			{
				"type": "unocc",
				"energy": 0.11041,
				"method": "rhf"
			}
		],
		"cosmo_sigma_profile": { 
			"-0.025": 0.0,
			"-0.024": 0.0,
			"-0.023": 0.0,
			"-0.022": 0.0,
			"-0.021": 0.0,
			"-0.02": 0.0,
			"-0.019": 0.0,
			"-0.018": 0.0,
			"-0.017": 0.0,
			"-0.016": 0.0,
			"-0.015": 0.0,
			"-0.014": 0.0,
			"-0.013": 0.0,
			"-0.012": 0.0,
			"-0.011": 0.0565999604678,
			"-0.01": 1.06502343776,
			"-0.009": 2.47542190421,
			"-0.008": 3.5658820491,
			"-0.007": 7.82450313607,
			"-0.006": 14.0906166306,
			"-0.005": 12.9386227422,
			"-0.004": 15.3904014763,
			"-0.003": 19.781256476,
			"-0.002": 23.2170267931,
			"-0.001": 24.7774733927,
			"0.0": 19.2113609588,
			"0.001": 11.0470948533,
			"0.002": 11.9064877212,
			"0.003": 15.6986786776,
			"0.004": 12.3187393042,
			"0.005": 11.501178595,
			"0.006": 8.49486503772,
			"0.007": 3.84826532441,
			"0.008": 4.6550063956,
			"0.009": 4.73860945988,
			"0.01": 3.86207157327,
			"0.011": 1.67086298262,
			"0.012": 0.88912998012,
			"0.013": 0.778699880107,
			"0.014": 0.890591170709,
			"0.015": 0.495904903463,
			"0.016": 0.363786666727,
			"0.017": 0.369115153822,
			"0.018": 0.0,
			"0.019": 0.0,
			"0.02": 0.0,
			"0.021": 0.0,
			"0.022": 0.0,
			"0.023": 0.0,
			"0.024": 0.0,
			"0.025": 0.0
		}
	}
}
