{
	 "smiles": "CC1=NN=NN1C1=CC(N)=CC=C1", 
	 "Tm": 395.15, 
	 "num_atms": 22, 
	 "gaussian": { 
		 "optdone": 1, 
		 "sigma_profile": "yes", 
		 "theory": "DFT", 
		 "functional": "B3LYP", 
		 "basiset": "6-31G**", 
		 "properties": { 
			 "R2extent": 3124.5664, 
			 "electric_dipole_moment_norm": 7.34279462126, 
			 "electric_quadrupole_moment_norm": 20.7002945783, 
			 "total_energy": -583.987173079, 
			 "HOMO_LUMO_gap": 0.18723, 
			 "cosmo_polarized_energy": -18.92, 
			 "cosmo_cavitation_energy": 26.54, 
			 "cosmo_dispersion_energy": -19.3, 
			 "cosmo_repulsion_energy": 1.53, 
			 "cosmo_total_nonelectrostatic_energy": 8.76, 
			 "SMD_solvation_energy": 2.76 
		},
		"coords": [
			{
				"x": -1.3584674944,
				"y": -0.8882972074,
				"z": 2.5089365388,
				"element": "C" 
			},
			{
				"x": -0.1892360779,
				"y": -1.8090343236,
				"z": 2.4169373261,
				"element": "C" 
			},
			{
				"x": 0.2255972507,
				"y": -2.6129092539,
				"z": 3.3797370212,
				"element": "N" 
			},
			{
				"x": 1.2845268347,
				"y": -3.300823632,
				"z": 2.8763035693,
				"element": "N" 
			},
			{
				"x": 1.5300992849,
				"y": -2.9585639609,
				"z": 1.6582689647,
				"element": "N" 
			},
			{
				"x": 0.6111032675,
				"y": -2.0024815151,
				"z": 1.3334431349,
				"element": "N" 
			},
			{
				"x": 0.5772246798,
				"y": -1.4416068624,
				"z": 0.0223118831,
				"element": "C" 
			},
			{
				"x": 0.4106989148,
				"y": -0.0654872978,
				"z": -0.1331122833,
				"element": "C" 
			},
			{
				"x": 0.3672175555,
				"y": 0.4935036094,
				"z": -1.4215553871,
				"element": "C" 
			},
			{
				"x": 0.1415569193,
				"y": 1.8565110265,
				"z": -1.5921555929,
				"element": "N" 
			},
			{
				"x": 0.512368459,
				"y": -0.3578928679,
				"z": -2.5315505631,
				"element": "C" 
			},
			{
				"x": 0.6959831337,
				"y": -1.7259544241,
				"z": -2.3514846079,
				"element": "C" 
			},
			{
				"x": 0.72660956,
				"y": -2.2903462719,
				"z": -1.0766931131,
				"element": "C" 
			},
			{
				"x": -1.996048473,
				"y": -1.2247175182,
				"z": 3.32787983,
				"element": "H" 
			},
			{
				"x": -1.0475808809,
				"y": 0.139585171,
				"z": 2.7241066399,
				"element": "H" 
			},
			{
				"x": -1.9344167122,
				"y": -0.8778242245,
				"z": 1.5798322508,
				"element": "H" 
			},
			{
				"x": 0.3365382507,
				"y": 0.5767779519,
				"z": 0.7382674226,
				"element": "H" 
			},
			{
				"x": 0.453721881,
				"y": 2.2422799028,
				"z": -2.4721980013,
				"element": "H" 
			},
			{
				"x": 0.388277175,
				"y": 2.4448350195,
				"z": -0.8086561285,
				"element": "H" 
			},
			{
				"x": 0.4820618842,
				"y": 0.0612233631,
				"z": -3.5337364824,
				"element": "H" 
			},
			{
				"x": 0.8129530948,
				"y": -2.3656803579,
				"z": -3.2210239838,
				"element": "H" 
			},
			{
				"x": 0.8674114928,
				"y": -3.3529963267,
				"z": -0.923958438,
				"element": "H" 
			}
		],
		 "valence_orbital": [ 
			{
				"type": "occ",
				"energy": -0.28523,
				"method": "rhf"
			},
			{
				"type": "occ",
				"energy": -0.28399,
				"method": "rhf"
			},
			{
				"type": "occ",
				"energy": -0.27636,
				"method": "rhf"
			},
			{
				"type": "occ",
				"energy": -0.25789,
				"method": "rhf"
			},
			{
				"type": "occ",
				"energy": -0.22255,
				"method": "rhf"
			},
			{
				"type": "unocc",
				"energy": -0.03532,
				"method": "rhf"
			},
			{
				"type": "unocc",
				"energy": -0.00834,
				"method": "rhf"
			},
			{
				"type": "unocc",
				"energy": 0.01222,
				"method": "rhf"
			},
			{
				"type": "unocc",
				"energy": 0.03328,
				"method": "rhf"
			},
			{
				"type": "unocc",
				"energy": 0.06205,
				"method": "rhf"
			}
		],
		"cosmo_sigma_profile": { 
			"-0.025": 0.0,
			"-0.024": 0.0,
			"-0.023": 0.0,
			"-0.022": 0.0,
			"-0.021": 0.0,
			"-0.02": 0.0,
			"-0.019": 0.0,
			"-0.018": 0.0,
			"-0.017": 0.0,
			"-0.016": 0.0,
			"-0.015": 0.0,
			"-0.014": 0.0,
			"-0.013": 1.48756842333,
			"-0.012": 3.57020139975,
			"-0.011": 2.69211659675,
			"-0.01": 3.15596911148,
			"-0.009": 4.20823755751,
			"-0.008": 6.1652289668,
			"-0.007": 7.08396448385,
			"-0.006": 14.8129573086,
			"-0.005": 13.8209267123,
			"-0.004": 16.0216302786,
			"-0.003": 16.6992112066,
			"-0.002": 13.2111279258,
			"-0.001": 8.90342179053,
			"0.0": 7.71558330117,
			"0.001": 9.36585117128,
			"0.002": 8.08779283578,
			"0.003": 10.2458802784,
			"0.004": 13.1810324706,
			"0.005": 10.3184824431,
			"0.006": 4.47257657026,
			"0.007": 4.16508519435,
			"0.008": 5.0833355223,
			"0.009": 6.27174240074,
			"0.01": 5.52473423744,
			"0.011": 5.13428689588,
			"0.012": 3.96903339253,
			"0.013": 3.07876564134,
			"0.014": 2.27062971053,
			"0.015": 1.02940242648,
			"0.016": 0.183113577913,
			"0.017": 0.0,
			"0.018": 0.0,
			"0.019": 0.0,
			"0.02": 0.0,
			"0.021": 0.0,
			"0.022": 0.0,
			"0.023": 0.0,
			"0.024": 0.0,
			"0.025": 0.0
		}
	}
}
