{
	 "smiles": "N#CC1=CC2=NON=C2C=C1", 
	 "Tm": 360.15, 
	 "num_atms": 14, 
	 "gaussian": { 
		 "optdone": 1, 
		 "sigma_profile": "yes", 
		 "theory": "DFT", 
		 "functional": "B3LYP", 
		 "basiset": "6-31G**", 
		 "properties": { 
			 "R2extent": 1880.6191, 
			 "electric_dipole_moment_norm": 1.88995378515, 
			 "electric_quadrupole_moment_norm": 21.7167866969, 
			 "total_energy": -507.908981855, 
			 "HOMO_LUMO_gap": 0.1567, 
			 "cosmo_polarized_energy": -10.83, 
			 "cosmo_cavitation_energy": 20.64, 
			 "cosmo_dispersion_energy": -14.91, 
			 "cosmo_repulsion_energy": 1.18, 
			 "cosmo_total_nonelectrostatic_energy": 6.9, 
			 "SMD_solvation_energy": 4.23 
		},
		"coords": [
			{
				"x": 3.9273591052,
				"y": 1.1267750799,
				"z": 1.1303900223,
				"element": "N" 
			},
			{
				"x": 2.8704084,
				"y": 1.0696210412,
				"z": 0.648841134,
				"element": "C" 
			},
			{
				"x": 1.5740785035,
				"y": 1.0059111072,
				"z": 0.0372290063,
				"element": "C" 
			},
			{
				"x": 0.5027864736,
				"y": 0.5221663964,
				"z": 0.7552637664,
				"element": "C" 
			},
			{
				"x": -0.7493241772,
				"y": 0.4895331341,
				"z": 0.0825073138,
				"element": "C" 
			},
			{
				"x": -1.9342741649,
				"y": 0.0831412145,
				"z": 0.5114365968,
				"element": "N" 
			},
			{
				"x": -2.7664846953,
				"y": 0.2780402222,
				"z": -0.5505472577,
				"element": "O" 
			},
			{
				"x": -2.1391836004,
				"y": 0.8000629553,
				"z": -1.648475527,
				"element": "N" 
			},
			{
				"x": -0.8787579198,
				"y": 0.9396813619,
				"z": -1.2741807837,
				"element": "C" 
			},
			{
				"x": 0.2490284768,
				"y": 1.4359452927,
				"z": -1.9931580423,
				"element": "C" 
			},
			{
				"x": 1.4441875835,
				"y": 1.4611162161,
				"z": -1.3340449524,
				"element": "C" 
			},
			{
				"x": 0.6020077989,
				"y": 0.1827549256,
				"z": 1.779144146,
				"element": "H" 
			},
			{
				"x": 0.1485680799,
				"y": 1.7752369999,
				"z": -3.0174088567,
				"element": "H" 
			},
			{
				"x": 2.3360001361,
				"y": 1.8280140528,
				"z": -1.8300965657,
				"element": "H" 
			}
		],
		 "valence_orbital": [ 
			{
				"type": "occ",
				"energy": -0.35748,
				"method": "rhf"
			},
			{
				"type": "occ",
				"energy": -0.35163,
				"method": "rhf"
			},
			{
				"type": "occ",
				"energy": -0.3406,
				"method": "rhf"
			},
			{
				"type": "occ",
				"energy": -0.30893,
				"method": "rhf"
			},
			{
				"type": "occ",
				"energy": -0.2752,
				"method": "rhf"
			},
			{
				"type": "unocc",
				"energy": -0.1185,
				"method": "rhf"
			},
			{
				"type": "unocc",
				"energy": -0.04863,
				"method": "rhf"
			},
			{
				"type": "unocc",
				"energy": -0.01878,
				"method": "rhf"
			},
			{
				"type": "unocc",
				"energy": 0.01409,
				"method": "rhf"
			},
			{
				"type": "unocc",
				"energy": 0.06704,
				"method": "rhf"
			}
		],
		"cosmo_sigma_profile": { 
			"-0.025": 0.0,
			"-0.024": 0.0,
			"-0.023": 0.0,
			"-0.022": 0.0,
			"-0.021": 0.0,
			"-0.02": 0.0,
			"-0.019": 0.0,
			"-0.018": 0.0,
			"-0.017": 0.0,
			"-0.016": 0.0,
			"-0.015": 0.0,
			"-0.014": 0.0,
			"-0.013": 0.0,
			"-0.012": 0.0,
			"-0.011": 0.695295585439,
			"-0.01": 2.67078597799,
			"-0.009": 6.78457121803,
			"-0.008": 6.79481873923,
			"-0.007": 6.28902596287,
			"-0.006": 5.48110281979,
			"-0.005": 9.59682889972,
			"-0.004": 11.4694468656,
			"-0.003": 16.4414380763,
			"-0.002": 15.8350845026,
			"-0.001": 9.33155198756,
			"0.0": 8.21606653795,
			"0.001": 5.652540966,
			"0.002": 4.71570835323,
			"0.003": 6.84160655062,
			"0.004": 10.241579387,
			"0.005": 8.31504649734,
			"0.006": 5.84050256887,
			"0.007": 5.63764219955,
			"0.008": 6.02536003978,
			"0.009": 5.25540625346,
			"0.01": 5.12769101792,
			"0.011": 3.91970606451,
			"0.012": 1.8431358552,
			"0.013": 0.134611754523,
			"0.014": 0.0,
			"0.015": 0.0,
			"0.016": 0.0,
			"0.017": 0.0,
			"0.018": 0.0,
			"0.019": 0.0,
			"0.02": 0.0,
			"0.021": 0.0,
			"0.022": 0.0,
			"0.023": 0.0,
			"0.024": 0.0,
			"0.025": 0.0
		}
	}
}
