{
	 "smiles": "FC(F)=C(F)F", 
	 "Tm": 131.15, 
	 "num_atms": 6, 
	 "gaussian": { 
		 "optdone": 1, 
		 "sigma_profile": "yes", 
		 "theory": "DFT", 
		 "functional": "B3LYP", 
		 "basiset": "6-31G**", 
		 "properties": { 
			 "R2extent": 776.4997, 
			 "electric_dipole_moment_norm": 0.0, 
			 "electric_quadrupole_moment_norm": 1.88562687454, 
			 "total_energy": -475.494738527, 
			 "HOMO_LUMO_gap": 0.28394, 
			 "cosmo_polarized_energy": -0.85, 
			 "cosmo_cavitation_energy": 12.85, 
			 "cosmo_dispersion_energy": -8.8, 
			 "cosmo_repulsion_energy": 0.71, 
			 "cosmo_total_nonelectrostatic_energy": 4.76, 
			 "SMD_solvation_energy": 5.2 
		},
		"coords": [
			{
				"x": 0.7151308983,
				"y": -1.2301378621,
				"z": 0.5536194299,
				"element": "F" 
			},
			{
				"x": 0.6668572839,
				"y": 0.0416938796,
				"z": 0.1895768272,
				"element": "C" 
			},
			{
				"x": -0.5320804441,
				"y": 0.4378378752,
				"z": -0.2079622959,
				"element": "F" 
			},
			{
				"x": 1.7215862463,
				"y": 0.8443951207,
				"z": 0.2203077763,
				"element": "C" 
			},
			{
				"x": 2.9205202891,
				"y": 0.448275858,
				"z": 0.6178705071,
				"element": "F" 
			},
			{
				"x": 1.6732857264,
				"y": 2.1162351285,
				"z": -0.1437122445,
				"element": "F" 
			}
		],
		 "valence_orbital": [ 
			{
				"type": "occ",
				"energy": -0.4517,
				"method": "rhf"
			},
			{
				"type": "occ",
				"energy": -0.44817,
				"method": "rhf"
			},
			{
				"type": "occ",
				"energy": -0.44273,
				"method": "rhf"
			},
			{
				"type": "occ",
				"energy": -0.42898,
				"method": "rhf"
			},
			{
				"type": "occ",
				"energy": -0.25372,
				"method": "rhf"
			},
			{
				"type": "unocc",
				"energy": 0.03022,
				"method": "rhf"
			},
			{
				"type": "unocc",
				"energy": 0.07097,
				"method": "rhf"
			},
			{
				"type": "unocc",
				"energy": 0.12596,
				"method": "rhf"
			},
			{
				"type": "unocc",
				"energy": 0.14487,
				"method": "rhf"
			},
			{
				"type": "unocc",
				"energy": 0.39651,
				"method": "rhf"
			}
		],
		"cosmo_sigma_profile": { 
			"-0.025": 0.0,
			"-0.024": 0.0,
			"-0.023": 0.0,
			"-0.022": 0.0,
			"-0.021": 0.0,
			"-0.02": 0.0,
			"-0.019": 0.0,
			"-0.018": 0.0,
			"-0.017": 0.0,
			"-0.016": 0.0,
			"-0.015": 0.0,
			"-0.014": 0.0,
			"-0.013": 0.0,
			"-0.012": 0.0,
			"-0.011": 0.0,
			"-0.01": 0.0,
			"-0.009": 0.0,
			"-0.008": 0.0,
			"-0.007": 0.0,
			"-0.006": 0.0,
			"-0.005": 0.211946480579,
			"-0.004": 11.0182474369,
			"-0.003": 8.40108467627,
			"-0.002": 8.21547364148,
			"-0.001": 6.54381913901,
			"0.0": 11.6596771629,
			"0.001": 25.6837989354,
			"0.002": 32.7084337362,
			"0.003": 0.0610030982471,
			"0.004": 0.0,
			"0.005": 0.0,
			"0.006": 0.0,
			"0.007": 0.0,
			"0.008": 0.0,
			"0.009": 0.0,
			"0.01": 0.0,
			"0.011": 0.0,
			"0.012": 0.0,
			"0.013": 0.0,
			"0.014": 0.0,
			"0.015": 0.0,
			"0.016": 0.0,
			"0.017": 0.0,
			"0.018": 0.0,
			"0.019": 0.0,
			"0.02": 0.0,
			"0.021": 0.0,
			"0.022": 0.0,
			"0.023": 0.0,
			"0.024": 0.0,
			"0.025": 0.0
		}
	}
}
