{
	 "smiles": "CC1=CC=C(OCCBr)C=C1", 
	 "Tm": 310.65, 
	 "num_atms": 22, 
	 "gaussian": { 
		 "optdone": 1, 
		 "sigma_profile": "yes", 
		 "theory": "DFT", 
		 "functional": "B3LYP", 
		 "basiset": "6-31G**", 
		 "properties": { 
			 "R2extent": 5059.4601, 
			 "electric_dipole_moment_norm": 1.4562547751, 
			 "electric_quadrupole_moment_norm": 3.84399880333, 
			 "total_energy": -2996.21509431, 
			 "HOMO_LUMO_gap": 0.20807, 
			 "cosmo_polarized_energy": -6.4, 
			 "cosmo_cavitation_energy": 27.52, 
			 "cosmo_dispersion_energy": -20.59, 
			 "cosmo_repulsion_energy": 1.68, 
			 "cosmo_total_nonelectrostatic_energy": 8.61, 
			 "SMD_solvation_energy": 3.7 
		},
		"coords": [
			{
				"x": 1.4598868713,
				"y": -3.4973389916,
				"z": 0.0193327933,
				"element": "C" 
			},
			{
				"x": 1.3388750235,
				"y": -1.994904329,
				"z": -0.0838445153,
				"element": "C" 
			},
			{
				"x": 2.4561460226,
				"y": -1.1999965434,
				"z": -0.3906133818,
				"element": "C" 
			},
			{
				"x": 2.358405922,
				"y": 0.1817449764,
				"z": -0.4893415281,
				"element": "C" 
			},
			{
				"x": 1.1261858276,
				"y": 0.8176085831,
				"z": -0.2811050363,
				"element": "C" 
			},
			{
				"x": 1.1492636599,
				"y": 2.1879429894,
				"z": -0.3906827892,
				"element": "O" 
			},
			{
				"x": -0.0476681029,
				"y": 2.9316701508,
				"z": -0.1950985644,
				"element": "C" 
			},
			{
				"x": -0.8772735122,
				"y": 2.9477576611,
				"z": -1.4752680225,
				"element": "C" 
			},
			{
				"x": -2.5162838827,
				"y": 4.0132920113,
				"z": -1.1974553886,
				"element": "Br" 
			},
			{
				"x": -0.0000603224,
				"y": 0.048340126,
				"z": 0.0218366761,
				"element": "C" 
			},
			{
				"x": 0.1212389549,
				"y": -1.3428585494,
				"z": 0.1180089926,
				"element": "C" 
			},
			{
				"x": 0.4993280271,
				"y": -3.9579998926,
				"z": 0.266615071,
				"element": "H" 
			},
			{
				"x": 2.17779679,
				"y": -3.7906380134,
				"z": 0.7943409588,
				"element": "H" 
			},
			{
				"x": 1.8070304424,
				"y": -3.9389092615,
				"z": -0.9222918805,
				"element": "H" 
			},
			{
				"x": 3.4214965977,
				"y": -1.673528576,
				"z": -0.5538916161,
				"element": "H" 
			},
			{
				"x": 3.223738452,
				"y": 0.7935450541,
				"z": -0.7231279216,
				"element": "H" 
			},
			{
				"x": 0.2718826797,
				"y": 3.9463641512,
				"z": 0.0534872823,
				"element": "H" 
			},
			{
				"x": -0.6299878909,
				"y": 2.5452822256,
				"z": 0.6483220998,
				"element": "H" 
			},
			{
				"x": -0.3352481265,
				"y": 3.4185984472,
				"z": -2.2940817232,
				"element": "H" 
			},
			{
				"x": -1.205314776,
				"y": 1.9529773086,
				"z": -1.7722024011,
				"element": "H" 
			},
			{
				"x": -0.9701463623,
				"y": 0.5036761088,
				"z": 0.1857467471,
				"element": "H" 
			},
			{
				"x": -0.7644922948,
				"y": -1.9272256367,
				"z": 0.3548141476,
				"element": "H" 
			}
		],
		 "valence_orbital": [ 
			{
				"type": "occ",
				"energy": -0.31717,
				"method": "rhf"
			},
			{
				"type": "occ",
				"energy": -0.2809,
				"method": "rhf"
			},
			{
				"type": "occ",
				"energy": -0.27935,
				"method": "rhf"
			},
			{
				"type": "occ",
				"energy": -0.25187,
				"method": "rhf"
			},
			{
				"type": "occ",
				"energy": -0.21685,
				"method": "rhf"
			},
			{
				"type": "unocc",
				"energy": -0.00878,
				"method": "rhf"
			},
			{
				"type": "unocc",
				"energy": -0.00083,
				"method": "rhf"
			},
			{
				"type": "unocc",
				"energy": 0.01232,
				"method": "rhf"
			},
			{
				"type": "unocc",
				"energy": 0.08293,
				"method": "rhf"
			},
			{
				"type": "unocc",
				"energy": 0.10612,
				"method": "rhf"
			}
		],
		"cosmo_sigma_profile": { 
			"-0.025": 0.0,
			"-0.024": 0.0,
			"-0.023": 0.0,
			"-0.022": 0.0,
			"-0.021": 0.0,
			"-0.02": 0.0,
			"-0.019": 0.0,
			"-0.018": 0.0,
			"-0.017": 0.0,
			"-0.016": 0.0,
			"-0.015": 0.0,
			"-0.014": 0.0,
			"-0.013": 0.0,
			"-0.012": 0.0,
			"-0.011": 0.0,
			"-0.01": 0.0,
			"-0.009": 0.0,
			"-0.008": 1.28872961119,
			"-0.007": 6.69084533172,
			"-0.006": 11.117394354,
			"-0.005": 14.6011464017,
			"-0.004": 18.7836724277,
			"-0.003": 20.6607459489,
			"-0.002": 18.3362357424,
			"-0.001": 16.3573265652,
			"0.0": 17.3476852372,
			"0.001": 15.0297821317,
			"0.002": 11.0321361401,
			"0.003": 12.9442847226,
			"0.004": 15.514655238,
			"0.005": 17.4784872131,
			"0.006": 18.0186194272,
			"0.007": 2.41246386158,
			"0.008": 1.23451644283,
			"0.009": 1.26078072856,
			"0.01": 1.06595786248,
			"0.011": 0.0680796397525,
			"0.012": 0.0,
			"0.013": 0.0,
			"0.014": 0.0,
			"0.015": 0.0,
			"0.016": 0.0,
			"0.017": 0.0,
			"0.018": 0.0,
			"0.019": 0.0,
			"0.02": 0.0,
			"0.021": 0.0,
			"0.022": 0.0,
			"0.023": 0.0,
			"0.024": 0.0,
			"0.025": 0.0
		}
	}
}
