{
	 "smiles": "COCC1=NC2=C(O1)C=CC(N)=C2", 
	 "Tm": 328.15, 
	 "num_atms": 23, 
	 "gaussian": { 
		 "optdone": 1, 
		 "sigma_profile": "yes", 
		 "theory": "DFT", 
		 "functional": "B3LYP", 
		 "basiset": "6-31G**", 
		 "properties": { 
			 "R2extent": 3136.0994, 
			 "electric_dipole_moment_norm": 2.57578045066, 
			 "electric_quadrupole_moment_norm": 14.7935219904, 
			 "total_energy": -608.91367725, 
			 "HOMO_LUMO_gap": 0.17476, 
			 "cosmo_polarized_energy": -12.97, 
			 "cosmo_cavitation_energy": 27.16, 
			 "cosmo_dispersion_energy": -20.31, 
			 "cosmo_repulsion_energy": 1.62, 
			 "cosmo_total_nonelectrostatic_energy": 8.47, 
			 "SMD_solvation_energy": 3.43 
		},
		"coords": [
			{
				"x": 4.3061785402,
				"y": -1.948209878,
				"z": -0.5108880844,
				"element": "C" 
			},
			{
				"x": 4.2211402186,
				"y": -1.0820547713,
				"z": 0.6092061805,
				"element": "O" 
			},
			{
				"x": 3.6280848861,
				"y": 0.175835976,
				"z": 0.3368408258,
				"element": "C" 
			},
			{
				"x": 2.1288609132,
				"y": 0.1443794413,
				"z": 0.3078568739,
				"element": "C" 
			},
			{
				"x": 1.3193824645,
				"y": 0.6274177665,
				"z": 1.1970770608,
				"element": "N" 
			},
			{
				"x": 0.0450417102,
				"y": 0.3284744825,
				"z": 0.7084995897,
				"element": "C" 
			},
			{
				"x": 0.1806189351,
				"y": -0.3542705624,
				"z": -0.5053393121,
				"element": "C" 
			},
			{
				"x": 1.5285723769,
				"y": -0.4692306157,
				"z": -0.7688547,
				"element": "O" 
			},
			{
				"x": -0.9024960167,
				"y": -0.8000749412,
				"z": -1.2467285443,
				"element": "C" 
			},
			{
				"x": -2.1637205234,
				"y": -0.5297114065,
				"z": -0.7181867593,
				"element": "C" 
			},
			{
				"x": -2.3371513358,
				"y": 0.1592126056,
				"z": 0.5087379164,
				"element": "C" 
			},
			{
				"x": -3.6329276774,
				"y": 0.4509094883,
				"z": 0.9550332489,
				"element": "N" 
			},
			{
				"x": -1.2194813842,
				"y": 0.5951740724,
				"z": 1.2351281622,
				"element": "C" 
			},
			{
				"x": 4.8413587139,
				"y": -1.4711554615,
				"z": -1.346794443,
				"element": "H" 
			},
			{
				"x": 4.8707147942,
				"y": -2.8246803076,
				"z": -0.1841542958,
				"element": "H" 
			},
			{
				"x": 3.3197748788,
				"y": -2.269172819,
				"z": -0.8680203389,
				"element": "H" 
			},
			{
				"x": 3.9147973573,
				"y": 0.8442478333,
				"z": 1.1511371603,
				"element": "H" 
			},
			{
				"x": 4.0060657581,
				"y": 0.5876713228,
				"z": -0.612539077,
				"element": "H" 
			},
			{
				"x": -0.7830104629,
				"y": -1.3295901717,
				"z": -2.1854671879,
				"element": "H" 
			},
			{
				"x": -3.0467077688,
				"y": -0.8492354922,
				"z": -1.2651574548,
				"element": "H" 
			},
			{
				"x": -3.7060557975,
				"y": 0.6233555998,
				"z": 1.9486100352,
				"element": "H" 
			},
			{
				"x": -4.3431888728,
				"y": -0.197244361,
				"z": 0.6425671392,
				"element": "H" 
			},
			{
				"x": -1.3280517079,
				"y": 1.1251521997,
				"z": 2.1762360047,
				"element": "H" 
			}
		],
		 "valence_orbital": [ 
			{
				"type": "occ",
				"energy": -0.29969,
				"method": "rhf"
			},
			{
				"type": "occ",
				"energy": -0.28558,
				"method": "rhf"
			},
			{
				"type": "occ",
				"energy": -0.26244,
				"method": "rhf"
			},
			{
				"type": "occ",
				"energy": -0.23441,
				"method": "rhf"
			},
			{
				"type": "occ",
				"energy": -0.20137,
				"method": "rhf"
			},
			{
				"type": "unocc",
				"energy": -0.02661,
				"method": "rhf"
			},
			{
				"type": "unocc",
				"energy": 0.02117,
				"method": "rhf"
			},
			{
				"type": "unocc",
				"energy": 0.04087,
				"method": "rhf"
			},
			{
				"type": "unocc",
				"energy": 0.07971,
				"method": "rhf"
			},
			{
				"type": "unocc",
				"energy": 0.10082,
				"method": "rhf"
			}
		],
		"cosmo_sigma_profile": { 
			"-0.025": 0.0,
			"-0.024": 0.0,
			"-0.023": 0.0,
			"-0.022": 0.0,
			"-0.021": 0.0,
			"-0.02": 0.0,
			"-0.019": 0.0,
			"-0.018": 0.0,
			"-0.017": 0.0,
			"-0.016": 0.0,
			"-0.015": 0.0,
			"-0.014": 0.0,
			"-0.013": 0.311494589473,
			"-0.012": 2.37402493904,
			"-0.011": 2.73798486362,
			"-0.01": 3.31591080992,
			"-0.009": 3.09536601707,
			"-0.008": 3.25623680261,
			"-0.007": 7.32555779285,
			"-0.006": 13.332680405,
			"-0.005": 13.5868752608,
			"-0.004": 16.0834111557,
			"-0.003": 15.0864012046,
			"-0.002": 16.3381871916,
			"-0.001": 10.7765472037,
			"0.0": 11.4649201658,
			"0.001": 12.539850653,
			"0.002": 12.1651885116,
			"0.003": 12.9636802786,
			"0.004": 14.5235743213,
			"0.005": 14.1465247298,
			"0.006": 4.73278551571,
			"0.007": 4.57502556265,
			"0.008": 3.0270477602,
			"0.009": 3.04208467061,
			"0.01": 3.3740878371,
			"0.011": 2.89116093943,
			"0.012": 3.77330183703,
			"0.013": 1.90328613082,
			"0.014": 1.60529984277,
			"0.015": 0.959201990939,
			"0.016": 0.597141676603,
			"0.017": 0.0,
			"0.018": 0.0,
			"0.019": 0.0,
			"0.02": 0.0,
			"0.021": 0.0,
			"0.022": 0.0,
			"0.023": 0.0,
			"0.024": 0.0,
			"0.025": 0.0
		}
	}
}
