{
	 "smiles": "CCC1N(O)C(C)(C)N=C1C=NO", 
	 "Tm": 437.15, 
	 "num_atms": 28, 
	 "gaussian": { 
		 "optdone": 1, 
		 "sigma_profile": "yes", 
		 "theory": "DFT", 
		 "functional": "B3LYP", 
		 "basiset": "6-31G**", 
		 "properties": { 
			 "R2extent": 2596.2702, 
			 "electric_dipole_moment_norm": 1.50360461891, 
			 "electric_quadrupole_moment_norm": 5.21480102593, 
			 "total_energy": -628.456787342, 
			 "HOMO_LUMO_gap": 0.18031, 
			 "cosmo_polarized_energy": -14.9, 
			 "cosmo_cavitation_energy": 29.76, 
			 "cosmo_dispersion_energy": -20.99, 
			 "cosmo_repulsion_energy": 1.7, 
			 "cosmo_total_nonelectrostatic_energy": 10.47, 
			 "SMD_solvation_energy": 2.18 
		},
		"coords": [
			{
				"x": -2.4382458356,
				"y": 0.4981828644,
				"z": 1.7508009173,
				"element": "C" 
			},
			{
				"x": -1.9521748499,
				"y": 1.6706480232,
				"z": 0.8881529767,
				"element": "C" 
			},
			{
				"x": -0.8549022701,
				"y": 1.379780232,
				"z": -0.1526906321,
				"element": "C" 
			},
			{
				"x": 0.5420374643,
				"y": 1.3645556988,
				"z": 0.3571795888,
				"element": "N" 
			},
			{
				"x": 0.5243932481,
				"y": 0.8142411764,
				"z": 1.6978214908,
				"element": "O" 
			},
			{
				"x": 1.240949347,
				"y": 0.3923664714,
				"z": -0.5589261776,
				"element": "C" 
			},
			{
				"x": 1.8971738652,
				"y": 1.2125186207,
				"z": -1.6861448898,
				"element": "C" 
			},
			{
				"x": 2.2793692738,
				"y": -0.4686213384,
				"z": 0.1571449975,
				"element": "C" 
			},
			{
				"x": 0.2076700963,
				"y": -0.463735115,
				"z": -1.1740839691,
				"element": "N" 
			},
			{
				"x": -0.9349909436,
				"y": 0.0737264339,
				"z": -0.9586014004,
				"element": "C" 
			},
			{
				"x": -2.2167096585,
				"y": -0.3983278975,
				"z": -1.498274556,
				"element": "C" 
			},
			{
				"x": -2.520240706,
				"y": -1.4570526646,
				"z": -2.1652869209,
				"element": "N" 
			},
			{
				"x": -1.4548108711,
				"y": -2.3019057431,
				"z": -2.404284982,
				"element": "O" 
			},
			{
				"x": -2.8635238023,
				"y": -0.3057316302,
				"z": 1.1416134176,
				"element": "H" 
			},
			{
				"x": -1.6211229978,
				"y": 0.0808631011,
				"z": 2.3391701214,
				"element": "H" 
			},
			{
				"x": -3.2236055166,
				"y": 0.8395398262,
				"z": 2.4338635771,
				"element": "H" 
			},
			{
				"x": -1.5848655183,
				"y": 2.4784455402,
				"z": 1.5307320422,
				"element": "H" 
			},
			{
				"x": -2.8081228318,
				"y": 2.0913445782,
				"z": 0.3444657513,
				"element": "H" 
			},
			{
				"x": -0.8864638928,
				"y": 2.2027880195,
				"z": -0.883335131,
				"element": "H" 
			},
			{
				"x": 0.9976487743,
				"y": 1.4942135013,
				"z": 2.1938341373,
				"element": "H" 
			},
			{
				"x": 1.1719892129,
				"y": 1.8720214534,
				"z": -2.1717285786,
				"element": "H" 
			},
			{
				"x": 2.7042178381,
				"y": 1.8284275799,
				"z": -1.2800494514,
				"element": "H" 
			},
			{
				"x": 2.3053602713,
				"y": 0.5403407278,
				"z": -2.4453006129,
				"element": "H" 
			},
			{
				"x": 2.7873445924,
				"y": -1.0909956776,
				"z": -0.5839542357,
				"element": "H" 
			},
			{
				"x": 3.0236608722,
				"y": 0.1575618496,
				"z": 0.6576829785,
				"element": "H" 
			},
			{
				"x": 1.8097685791,
				"y": -1.1148383234,
				"z": 0.898269766,
				"element": "H" 
			},
			{
				"x": -3.0810223894,
				"y": 0.2397733428,
				"z": -1.3251847556,
				"element": "H" 
			},
			{
				"x": -1.8751813512,
				"y": -3.0250306508,
				"z": -2.8912854692,
				"element": "H" 
			}
		],
		 "valence_orbital": [ 
			{
				"type": "occ",
				"energy": -0.29239,
				"method": "rhf"
			},
			{
				"type": "occ",
				"energy": -0.28305,
				"method": "rhf"
			},
			{
				"type": "occ",
				"energy": -0.24939,
				"method": "rhf"
			},
			{
				"type": "occ",
				"energy": -0.24817,
				"method": "rhf"
			},
			{
				"type": "occ",
				"energy": -0.23092,
				"method": "rhf"
			},
			{
				"type": "unocc",
				"energy": -0.05061,
				"method": "rhf"
			},
			{
				"type": "unocc",
				"energy": 0.05442,
				"method": "rhf"
			},
			{
				"type": "unocc",
				"energy": 0.07308,
				"method": "rhf"
			},
			{
				"type": "unocc",
				"energy": 0.07691,
				"method": "rhf"
			},
			{
				"type": "unocc",
				"energy": 0.09988,
				"method": "rhf"
			}
		],
		"cosmo_sigma_profile": { 
			"-0.025": 0.0,
			"-0.024": 0.0,
			"-0.023": 0.0,
			"-0.022": 0.0,
			"-0.021": 0.0,
			"-0.02": 0.0,
			"-0.019": 0.0,
			"-0.018": 0.565875386738,
			"-0.017": 1.16709856398,
			"-0.016": 1.59180199618,
			"-0.015": 1.20925365786,
			"-0.014": 1.35315511858,
			"-0.013": 2.09624365613,
			"-0.012": 1.57415254806,
			"-0.011": 0.706012584725,
			"-0.01": 1.38198718624,
			"-0.009": 1.41465517944,
			"-0.008": 2.20081819473,
			"-0.007": 3.7292749697,
			"-0.006": 9.01792401653,
			"-0.005": 7.91285773365,
			"-0.004": 12.1776522683,
			"-0.003": 20.1393513842,
			"-0.002": 21.9251305096,
			"-0.001": 22.9074894705,
			"0.0": 24.4809945375,
			"0.001": 21.1496178301,
			"0.002": 12.5583656356,
			"0.003": 9.18749173028,
			"0.004": 9.38527523239,
			"0.005": 6.74520534026,
			"0.006": 4.84999512327,
			"0.007": 5.33189691648,
			"0.008": 5.19726521649,
			"0.009": 3.39711394611,
			"0.01": 3.25761969044,
			"0.011": 2.82510349274,
			"0.012": 2.55137189437,
			"0.013": 1.72117080617,
			"0.014": 1.58298895352,
			"0.015": 1.06379442145,
			"0.016": 1.11439592934,
			"0.017": 0.969987266747,
			"0.018": 0.709671900839,
			"0.019": 0.151920749714,
			"0.02": 0.0,
			"0.021": 0.0,
			"0.022": 0.0,
			"0.023": 0.0,
			"0.024": 0.0,
			"0.025": 0.0
		}
	}
}
