{
	 "smiles": "CC(C)NC1=CC(O)=CC=C1", 
	 "Tm": 369.15, 
	 "num_atms": 24, 
	 "gaussian": { 
		 "optdone": 1, 
		 "sigma_profile": "yes", 
		 "theory": "DFT", 
		 "functional": "B3LYP", 
		 "basiset": "6-31G**", 
		 "properties": { 
			 "R2extent": 2579.1713, 
			 "electric_dipole_moment_norm": 2.90909153345, 
			 "electric_quadrupole_moment_norm": 9.25732347172, 
			 "total_energy": -480.773920915, 
			 "HOMO_LUMO_gap": 0.20324, 
			 "cosmo_polarized_energy": -11.11, 
			 "cosmo_cavitation_energy": 26.51, 
			 "cosmo_dispersion_energy": -19.37, 
			 "cosmo_repulsion_energy": 1.57, 
			 "cosmo_total_nonelectrostatic_energy": 8.71, 
			 "SMD_solvation_energy": 4.25 
		},
		"coords": [
			{
				"x": -1.2428807344,
				"y": -1.9788911127,
				"z": -0.9978444241,
				"element": "C" 
			},
			{
				"x": 0.0128502035,
				"y": -1.6105484665,
				"z": -0.1888863246,
				"element": "C" 
			},
			{
				"x": 1.2182111649,
				"y": -2.4640750618,
				"z": -0.5950667013,
				"element": "C" 
			},
			{
				"x": 0.3820257004,
				"y": -0.199966438,
				"z": -0.3104222593,
				"element": "N" 
			},
			{
				"x": -0.3882119391,
				"y": 0.8451732176,
				"z": 0.1932124309,
				"element": "C" 
			},
			{
				"x": -0.1718551048,
				"y": 2.147409866,
				"z": -0.3016274016,
				"element": "C" 
			},
			{
				"x": -0.8755290949,
				"y": 3.2340806256,
				"z": 0.2147457327,
				"element": "C" 
			},
			{
				"x": -0.6824718451,
				"y": 4.508060654,
				"z": -0.2464636354,
				"element": "O" 
			},
			{
				"x": -1.8195232389,
				"y": 3.0568169692,
				"z": 1.2336368625,
				"element": "C" 
			},
			{
				"x": -2.0335790682,
				"y": 1.7698446935,
				"z": 1.7165459486,
				"element": "C" 
			},
			{
				"x": -1.3400325972,
				"y": 0.6669405729,
				"z": 1.2150807815,
				"element": "C" 
			},
			{
				"x": -1.5279997345,
				"y": -3.0228962294,
				"z": -0.8273812705,
				"element": "H" 
			},
			{
				"x": -1.0592947633,
				"y": -1.8498649848,
				"z": -2.0710740916,
				"element": "H" 
			},
			{
				"x": -2.0883051611,
				"y": -1.343419599,
				"z": -0.7201983813,
				"element": "H" 
			},
			{
				"x": -0.1850609554,
				"y": -1.8005749611,
				"z": 0.8728394677,
				"element": "H" 
			},
			{
				"x": 0.9975959751,
				"y": -3.5286369271,
				"z": -0.473612894,
				"element": "H" 
			},
			{
				"x": 2.0937755095,
				"y": -2.2162775819,
				"z": 0.0114178559,
				"element": "H" 
			},
			{
				"x": 1.4742816546,
				"y": -2.2996941875,
				"z": -1.6496699523,
				"element": "H" 
			},
			{
				"x": 0.8389494397,
				"y": 0.0182971033,
				"z": -1.1868622466,
				"element": "H" 
			},
			{
				"x": 0.5625152623,
				"y": 2.3044801582,
				"z": -1.0911012429,
				"element": "H" 
			},
			{
				"x": -0.0058495983,
				"y": 4.4936990181,
				"z": -0.9354351922,
				"element": "H" 
			},
			{
				"x": -2.3578059434,
				"y": 3.9154154037,
				"z": 1.6183596519,
				"element": "H" 
			},
			{
				"x": -2.7641792906,
				"y": 1.6144761359,
				"z": 2.505926385,
				"element": "H" 
			},
			{
				"x": -1.536025841,
				"y": -0.3179488681,
				"z": 1.6216809007,
				"element": "H" 
			}
		],
		 "valence_orbital": [ 
			{
				"type": "occ",
				"energy": -0.33623,
				"method": "rhf"
			},
			{
				"type": "occ",
				"energy": -0.33096,
				"method": "rhf"
			},
			{
				"type": "occ",
				"energy": -0.27722,
				"method": "rhf"
			},
			{
				"type": "occ",
				"energy": -0.21767,
				"method": "rhf"
			},
			{
				"type": "occ",
				"energy": -0.18744,
				"method": "rhf"
			},
			{
				"type": "unocc",
				"energy": 0.0158,
				"method": "rhf"
			},
			{
				"type": "unocc",
				"energy": 0.03281,
				"method": "rhf"
			},
			{
				"type": "unocc",
				"energy": 0.07671,
				"method": "rhf"
			},
			{
				"type": "unocc",
				"energy": 0.08076,
				"method": "rhf"
			},
			{
				"type": "unocc",
				"energy": 0.10002,
				"method": "rhf"
			}
		],
		"cosmo_sigma_profile": { 
			"-0.025": 0.0,
			"-0.024": 0.0,
			"-0.023": 0.0,
			"-0.022": 0.0,
			"-0.021": 0.0,
			"-0.02": 0.0,
			"-0.019": 0.0,
			"-0.018": 0.028921956433,
			"-0.017": 1.12111713034,
			"-0.016": 0.726960565883,
			"-0.015": 0.765674087409,
			"-0.014": 1.32398196859,
			"-0.013": 1.15698685863,
			"-0.012": 0.929443310296,
			"-0.011": 1.65057970129,
			"-0.01": 1.94554974272,
			"-0.009": 3.78076732999,
			"-0.008": 2.5094590814,
			"-0.007": 3.14426903601,
			"-0.006": 3.61888879855,
			"-0.005": 8.04961569835,
			"-0.004": 11.0820749596,
			"-0.003": 18.7859424408,
			"-0.002": 18.9224504988,
			"-0.001": 19.3827734462,
			"0.0": 19.2747033594,
			"0.001": 19.4956094859,
			"0.002": 9.44136153912,
			"0.003": 7.30914905179,
			"0.004": 7.03054266083,
			"0.005": 10.4434623246,
			"0.006": 11.058073443,
			"0.007": 11.195894227,
			"0.008": 4.48980442488,
			"0.009": 2.96612920536,
			"0.01": 1.7516570916,
			"0.011": 2.33663316772,
			"0.012": 2.07878682574,
			"0.013": 0.0665397178514,
			"0.014": 0.0,
			"0.015": 0.0,
			"0.016": 0.0,
			"0.017": 0.0,
			"0.018": 0.0,
			"0.019": 0.0,
			"0.02": 0.0,
			"0.021": 0.0,
			"0.022": 0.0,
			"0.023": 0.0,
			"0.024": 0.0,
			"0.025": 0.0
		}
	}
}
