{
	 "smiles": "CC1=C(NC(=O)CCCl)C=C(C=C1)[N+]([O-])=O", 
	 "Tm": 429.15, 
	 "num_atms": 27, 
	 "gaussian": { 
		 "optdone": 1, 
		 "sigma_profile": "yes", 
		 "theory": "DFT", 
		 "functional": "B3LYP", 
		 "basiset": "6-31G**", 
		 "properties": { 
			 "R2extent": 4726.9886, 
			 "electric_dipole_moment_norm": 3.61582968211, 
			 "electric_quadrupole_moment_norm": 28.523941166, 
			 "total_energy": -1182.9827717, 
			 "HOMO_LUMO_gap": 0.15802, 
			 "cosmo_polarized_energy": -18.7, 
			 "cosmo_cavitation_energy": 33.52, 
			 "cosmo_dispersion_energy": -22.79, 
			 "cosmo_repulsion_energy": 1.79, 
			 "cosmo_total_nonelectrostatic_energy": 12.52, 
			 "SMD_solvation_energy": 8.37 
		},
		"coords": [
			{
				"x": 3.270004713,
				"y": 0.371055659,
				"z": 0.324380755,
				"element": "C" 
			},
			{
				"x": 2.1525200593,
				"y": 1.2140440989,
				"z": -0.2331221335,
				"element": "C" 
			},
			{
				"x": 0.9991076521,
				"y": 0.6053550723,
				"z": -0.7851745384,
				"element": "C" 
			},
			{
				"x": 0.9276001346,
				"y": -0.8061099202,
				"z": -0.8407622651,
				"element": "N" 
			},
			{
				"x": -0.0846155367,
				"y": -1.6868453682,
				"z": -0.4816357797,
				"element": "C" 
			},
			{
				"x": 0.0258584421,
				"y": -2.8696821553,
				"z": -0.7540554106,
				"element": "O" 
			},
			{
				"x": -1.2891004323,
				"y": -1.1603587178,
				"z": 0.2985184652,
				"element": "C" 
			},
			{
				"x": -0.9683278831,
				"y": -0.485668275,
				"z": 1.6310205469,
				"element": "C" 
			},
			{
				"x": -0.0223918096,
				"y": -1.5657723912,
				"z": 2.7445962903,
				"element": "Cl" 
			},
			{
				"x": -0.0282783067,
				"y": 1.3936034093,
				"z": -1.3095125637,
				"element": "C" 
			},
			{
				"x": 0.0758168802,
				"y": 2.7796366277,
				"z": -1.2377754589,
				"element": "C" 
			},
			{
				"x": 1.1925595131,
				"y": 3.4105468537,
				"z": -0.6995535365,
				"element": "C" 
			},
			{
				"x": 2.2244113905,
				"y": 2.6124284558,
				"z": -0.2120727475,
				"element": "C" 
			},
			{
				"x": -1.0240438895,
				"y": 3.5973093892,
				"z": -1.7735105516,
				"element": "N" 
			},
			{
				"x": -2.0090702055,
				"y": 3.0074666472,
				"z": -2.2178368604,
				"element": "O" 
			},
			{
				"x": -0.8928855844,
				"y": 4.8196597283,
				"z": -1.7403496115,
				"element": "O" 
			},
			{
				"x": 4.004080176,
				"y": 0.9896797353,
				"z": 0.8451343749,
				"element": "H" 
			},
			{
				"x": 3.8026669216,
				"y": -0.1706053733,
				"z": -0.4683384365,
				"element": "H" 
			},
			{
				"x": 2.8859497584,
				"y": -0.3793229381,
				"z": 1.0231287061,
				"element": "H" 
			},
			{
				"x": 1.7363476241,
				"y": -1.3008399888,
				"z": -1.1985638722,
				"element": "H" 
			},
			{
				"x": -1.9246121427,
				"y": -2.0323598174,
				"z": 0.46139336,
				"element": "H" 
			},
			{
				"x": -1.8607696916,
				"y": -0.4426216934,
				"z": -0.3014758609,
				"element": "H" 
			},
			{
				"x": -0.3748225414,
				"y": 0.4193714822,
				"z": 1.5087685602,
				"element": "H" 
			},
			{
				"x": -1.8897969537,
				"y": -0.2355921106,
				"z": 2.1579194347,
				"element": "H" 
			},
			{
				"x": -0.8905192383,
				"y": 0.9522157662,
				"z": -1.7911405632,
				"element": "H" 
			},
			{
				"x": 1.238652319,
				"y": 4.4915845938,
				"z": -0.6707434011,
				"element": "H" 
			},
			{
				"x": 3.1047586312,
				"y": 3.0853212304,
				"z": 0.2129630977,
				"element": "H" 
			}
		],
		 "valence_orbital": [ 
			{
				"type": "occ",
				"energy": -0.30449,
				"method": "rhf"
			},
			{
				"type": "occ",
				"energy": -0.29994,
				"method": "rhf"
			},
			{
				"type": "occ",
				"energy": -0.28762,
				"method": "rhf"
			},
			{
				"type": "occ",
				"energy": -0.26762,
				"method": "rhf"
			},
			{
				"type": "occ",
				"energy": -0.2565,
				"method": "rhf"
			},
			{
				"type": "unocc",
				"energy": -0.09848,
				"method": "rhf"
			},
			{
				"type": "unocc",
				"energy": -0.04505,
				"method": "rhf"
			},
			{
				"type": "unocc",
				"energy": -0.01381,
				"method": "rhf"
			},
			{
				"type": "unocc",
				"energy": 0.0062,
				"method": "rhf"
			},
			{
				"type": "unocc",
				"energy": 0.01987,
				"method": "rhf"
			}
		],
		"cosmo_sigma_profile": { 
			"-0.025": 0.0,
			"-0.024": 0.0,
			"-0.023": 0.0,
			"-0.022": 0.0,
			"-0.021": 0.0,
			"-0.02": 0.0,
			"-0.019": 0.0,
			"-0.018": 0.0,
			"-0.017": 0.0,
			"-0.016": 0.0,
			"-0.015": 0.0,
			"-0.014": 0.606179192932,
			"-0.013": 1.67572426233,
			"-0.012": 1.13973054444,
			"-0.011": 1.03134317291,
			"-0.01": 2.37108086175,
			"-0.009": 2.58407222763,
			"-0.008": 6.49495024175,
			"-0.007": 12.4669170553,
			"-0.006": 16.7778795122,
			"-0.005": 19.1586606198,
			"-0.004": 18.5558058726,
			"-0.003": 18.013272916,
			"-0.002": 17.9689131808,
			"-0.001": 22.3471318097,
			"0.0": 18.7334694664,
			"0.001": 15.1280760041,
			"0.002": 11.9831578054,
			"0.003": 6.78577492368,
			"0.004": 8.15486032049,
			"0.005": 11.3737465296,
			"0.006": 12.6143910476,
			"0.007": 10.7452353114,
			"0.008": 9.43100375761,
			"0.009": 6.36718392808,
			"0.01": 4.02811721287,
			"0.011": 2.00168821123,
			"0.012": 4.15760012465,
			"0.013": 4.79328137113,
			"0.014": 0.95527507569,
			"0.015": 0.0,
			"0.016": 0.0,
			"0.017": 0.0,
			"0.018": 0.0,
			"0.019": 0.0,
			"0.02": 0.0,
			"0.021": 0.0,
			"0.022": 0.0,
			"0.023": 0.0,
			"0.024": 0.0,
			"0.025": 0.0
		}
	}
}
