{
	 "smiles": "CC(=O)OC1CC2C(O)C3(C4CC5C(C)(CCCC5(C13)C(=O)O4)C=O)C(=O)C2=C", 
	 "Tm": 482.15, 
	 "num_atms": 55, 
	 "gaussian": { 
		 "optdone": 1, 
		 "sigma_profile": "yes", 
		 "theory": "DFT", 
		 "functional": "B3LYP", 
		 "basiset": "6-31G**", 
		 "properties": { 
			 "R2extent": 8788.3761, 
			 "electric_dipole_moment_norm": 5.77356638916, 
			 "electric_quadrupole_moment_norm": 31.7282526446, 
			 "total_energy": -1380.55940556, 
			 "HOMO_LUMO_gap": 0.18111, 
			 "cosmo_polarized_energy": -27.94, 
			 "cosmo_cavitation_energy": 49.61, 
			 "cosmo_dispersion_energy": -32.76, 
			 "cosmo_repulsion_energy": 2.36, 
			 "cosmo_total_nonelectrostatic_energy": 19.21, 
			 "SMD_solvation_energy": 10.95 
		},
		"coords": [
			{
				"x": 1.1519257509,
				"y": -3.8935138556,
				"z": -0.8376356378,
				"element": "C" 
			},
			{
				"x": 1.8586876621,
				"y": -2.7073405278,
				"z": -0.2307227626,
				"element": "C" 
			},
			{
				"x": 2.7088951785,
				"y": -2.7514905348,
				"z": 0.6303825964,
				"element": "O" 
			},
			{
				"x": 1.3968206614,
				"y": -1.5483473141,
				"z": -0.781826459,
				"element": "O" 
			},
			{
				"x": 1.9845362005,
				"y": -0.2911994616,
				"z": -0.3391291267,
				"element": "C" 
			},
			{
				"x": 2.8864358025,
				"y": 0.2323016167,
				"z": -1.4761603354,
				"element": "C" 
			},
			{
				"x": 2.1154510619,
				"y": 1.0271377028,
				"z": -2.5767690411,
				"element": "C" 
			},
			{
				"x": 0.6052771208,
				"y": 0.6730306161,
				"z": -2.5103454387,
				"element": "C" 
			},
			{
				"x": -0.1431847755,
				"y": 1.2786249357,
				"z": -3.5590801454,
				"element": "O" 
			},
			{
				"x": 0.1961389892,
				"y": 1.399049086,
				"z": -1.2121072633,
				"element": "C" 
			},
			{
				"x": -1.3100755088,
				"y": 1.4679906653,
				"z": -0.9395859503,
				"element": "C" 
			},
			{
				"x": -1.9244644097,
				"y": 0.0756433791,
				"z": -0.7962521047,
				"element": "C" 
			},
			{
				"x": -1.2580667665,
				"y": -0.6594208831,
				"z": 0.4018483534,
				"element": "C" 
			},
			{
				"x": -2.2682691909,
				"y": -1.3101159455,
				"z": 1.3937304164,
				"element": "C" 
			},
			{
				"x": -3.3962477277,
				"y": -0.3953430683,
				"z": 1.919888972,
				"element": "C" 
			},
			{
				"x": -1.4904901874,
				"y": -1.9267079282,
				"z": 2.6008559362,
				"element": "C" 
			},
			{
				"x": -0.6099925284,
				"y": -0.8930062731,
				"z": 3.3123097284,
				"element": "C" 
			},
			{
				"x": 0.4184826532,
				"y": -0.2960138664,
				"z": 2.3447303144,
				"element": "C" 
			},
			{
				"x": -0.2140666919,
				"y": 0.300721013,
				"z": 1.0752324249,
				"element": "C" 
			},
			{
				"x": 0.8921174714,
				"y": 0.7362451351,
				"z": 0.0400154356,
				"element": "C" 
			},
			{
				"x": -0.9436587104,
				"y": 1.613863218,
				"z": 1.3933824672,
				"element": "C" 
			},
			{
				"x": -1.0262563413,
				"y": 2.1399768681,
				"z": 2.4802826713,
				"element": "O" 
			},
			{
				"x": -1.5268769425,
				"y": 2.1784340627,
				"z": 0.3092563691,
				"element": "O" 
			},
			{
				"x": -2.9167202121,
				"y": -2.5116652439,
				"z": 0.708439425,
				"element": "C" 
			},
			{
				"x": -2.478431993,
				"y": -3.0945034528,
				"z": -0.2623469121,
				"element": "O" 
			},
			{
				"x": 0.8599077367,
				"y": 2.7779871517,
				"z": -1.4569674679,
				"element": "C" 
			},
			{
				"x": 0.4783890032,
				"y": 3.8563696888,
				"z": -1.0572316998,
				"element": "O" 
			},
			{
				"x": 2.0892114211,
				"y": 2.513020806,
				"z": -2.2796890636,
				"element": "C" 
			},
			{
				"x": 2.9371588057,
				"y": 3.4761575392,
				"z": -2.6442207883,
				"element": "C" 
			},
			{
				"x": 1.3430895892,
				"y": -3.929213408,
				"z": -1.91456981,
				"element": "H" 
			},
			{
				"x": 0.0692205827,
				"y": -3.7998235884,
				"z": -0.7035666357,
				"element": "H" 
			},
			{
				"x": 1.5135996596,
				"y": -4.8080330278,
				"z": -0.3686342059,
				"element": "H" 
			},
			{
				"x": 2.599780688,
				"y": -0.5206621667,
				"z": 0.531226802,
				"element": "H" 
			},
			{
				"x": 3.3957168344,
				"y": -0.6317774011,
				"z": -1.9129510799,
				"element": "H" 
			},
			{
				"x": 3.6642531335,
				"y": 0.8725852072,
				"z": -1.0478121082,
				"element": "H" 
			},
			{
				"x": 2.5449292114,
				"y": 0.8101697657,
				"z": -3.5607277706,
				"element": "H" 
			},
			{
				"x": 0.4339227819,
				"y": -0.4054559355,
				"z": -2.478152854,
				"element": "H" 
			},
			{
				"x": 0.1716678626,
				"y": 0.9297280034,
				"z": -4.4029496954,
				"element": "H" 
			},
			{
				"x": -1.811213283,
				"y": 2.06751019,
				"z": -1.6985059512,
				"element": "H" 
			},
			{
				"x": -3.000325218,
				"y": 0.1998364616,
				"z": -0.6509683393,
				"element": "H" 
			},
			{
				"x": -1.7997456604,
				"y": -0.4896487893,
				"z": -1.7232735064,
				"element": "H" 
			},
			{
				"x": -0.6895786144,
				"y": -1.4937623127,
				"z": -0.0010037164,
				"element": "H" 
			},
			{
				"x": -4.01252422,
				"y": 0.014531904,
				"z": 1.1152592563,
				"element": "H" 
			},
			{
				"x": -4.0602368649,
				"y": -0.9682271596,
				"z": 2.5770005613,
				"element": "H" 
			},
			{
				"x": -3.0081971468,
				"y": 0.4447103322,
				"z": 2.4971828512,
				"element": "H" 
			},
			{
				"x": -0.8544153684,
				"y": -2.7429154489,
				"z": 2.2324596616,
				"element": "H" 
			},
			{
				"x": -2.2030043178,
				"y": -2.375514891,
				"z": 3.3036644921,
				"element": "H" 
			},
			{
				"x": -1.2163451693,
				"y": -0.0944267373,
				"z": 3.7473617351,
				"element": "H" 
			},
			{
				"x": -0.0851341828,
				"y": -1.3795225782,
				"z": 4.1424873565,
				"element": "H" 
			},
			{
				"x": 1.119160338,
				"y": -1.0878760711,
				"z": 2.0587824325,
				"element": "H" 
			},
			{
				"x": 0.9976710823,
				"y": 0.4832928265,
				"z": 2.8509122276,
				"element": "H" 
			},
			{
				"x": 1.4639761491,
				"y": 1.5206826947,
				"z": 0.5561032412,
				"element": "H" 
			},
			{
				"x": -3.8447039169,
				"y": -2.8764282127,
				"z": 1.205993292,
				"element": "H" 
			},
			{
				"x": 3.8139075833,
				"y": 3.2845586448,
				"z": -3.2567016497,
				"element": "H" 
			},
			{
				"x": 2.7520949339,
				"y": 4.4992965691,
				"z": -2.3287015,
				"element": "H" 
			}
		],
		 "valence_orbital": [ 
			{
				"type": "occ",
				"energy": -0.28307,
				"method": "rhf"
			},
			{
				"type": "occ",
				"energy": -0.27462,
				"method": "rhf"
			},
			{
				"type": "occ",
				"energy": -0.25965,
				"method": "rhf"
			},
			{
				"type": "occ",
				"energy": -0.25381,
				"method": "rhf"
			},
			{
				"type": "occ",
				"energy": -0.2414,
				"method": "rhf"
			},
			{
				"type": "unocc",
				"energy": -0.06029,
				"method": "rhf"
			},
			{
				"type": "unocc",
				"energy": -0.03546,
				"method": "rhf"
			},
			{
				"type": "unocc",
				"energy": -0.00282,
				"method": "rhf"
			},
			{
				"type": "unocc",
				"energy": 0.01328,
				"method": "rhf"
			},
			{
				"type": "unocc",
				"energy": 0.04939,
				"method": "rhf"
			}
		],
		"cosmo_sigma_profile": { 
			"-0.025": 0.0,
			"-0.024": 0.0,
			"-0.023": 0.0,
			"-0.022": 0.0,
			"-0.021": 0.0,
			"-0.02": 0.0,
			"-0.019": 0.0,
			"-0.018": 0.0,
			"-0.017": 0.0420944544629,
			"-0.016": 1.2362667258,
			"-0.015": 0.798835992224,
			"-0.014": 0.85263042773,
			"-0.013": 1.6440289956,
			"-0.012": 0.864803239688,
			"-0.011": 0.635940892115,
			"-0.01": 1.20518902552,
			"-0.009": 1.15835505927,
			"-0.008": 2.64401413968,
			"-0.007": 10.3254534243,
			"-0.006": 23.2354033225,
			"-0.005": 32.5356416251,
			"-0.004": 35.2250506344,
			"-0.003": 36.8311098914,
			"-0.002": 40.984660124,
			"-0.001": 36.5606201868,
			"0.0": 25.178929956,
			"0.001": 17.3459311153,
			"0.002": 13.2427896353,
			"0.003": 12.1736936633,
			"0.004": 10.8355524407,
			"0.005": 7.7851648518,
			"0.006": 8.00028010849,
			"0.007": 7.31985710055,
			"0.008": 7.95371974053,
			"0.009": 8.6855140746,
			"0.01": 11.1257206968,
			"0.011": 14.4549198807,
			"0.012": 11.9633194746,
			"0.013": 3.96134425308,
			"0.014": 0.269576395592,
			"0.015": 0.0,
			"0.016": 0.0,
			"0.017": 0.0,
			"0.018": 0.0,
			"0.019": 0.0,
			"0.02": 0.0,
			"0.021": 0.0,
			"0.022": 0.0,
			"0.023": 0.0,
			"0.024": 0.0,
			"0.025": 0.0
		}
	}
}
