{
	 "smiles": "NC1=CC(Cl)=C(C=C1)N1CCNC(=O)C1", 
	 "Tm": 421.15, 
	 "num_atms": 27, 
	 "gaussian": { 
		 "optdone": 1, 
		 "sigma_profile": "yes", 
		 "theory": "DFT", 
		 "functional": "B3LYP", 
		 "basiset": "6-31G**", 
		 "properties": { 
			 "R2extent": 5223.1887, 
			 "electric_dipole_moment_norm": 4.98390577559, 
			 "electric_quadrupole_moment_norm": 26.2925044745, 
			 "total_energy": -1087.96526215, 
			 "HOMO_LUMO_gap": 0.17468, 
			 "cosmo_polarized_energy": -18.92, 
			 "cosmo_cavitation_energy": 31.16, 
			 "cosmo_dispersion_energy": -23.03, 
			 "cosmo_repulsion_energy": 1.81, 
			 "cosmo_total_nonelectrostatic_energy": 9.94, 
			 "SMD_solvation_energy": 4.11 
		},
		"coords": [
			{
				"x": -0.4573119796,
				"y": -3.7470963618,
				"z": 0.1904017774,
				"element": "N" 
			},
			{
				"x": 0.1813687331,
				"y": -2.5035459623,
				"z": 0.1942884894,
				"element": "C" 
			},
			{
				"x": 1.4990619753,
				"y": -2.3757479989,
				"z": 0.6577697051,
				"element": "C" 
			},
			{
				"x": 2.1586957181,
				"y": -1.1523097132,
				"z": 0.5904145308,
				"element": "C" 
			},
			{
				"x": 3.8447815053,
				"y": -1.1175763906,
				"z": 1.0983500082,
				"element": "Cl" 
			},
			{
				"x": 1.5377061546,
				"y": 0.0195947384,
				"z": 0.1080549198,
				"element": "C" 
			},
			{
				"x": 0.216102227,
				"y": -0.138093781,
				"z": -0.3483453226,
				"element": "C" 
			},
			{
				"x": -0.4446629792,
				"y": -1.361402415,
				"z": -0.3268988965,
				"element": "C" 
			},
			{
				"x": 2.2271918303,
				"y": 1.2482680262,
				"z": 0.0470462061,
				"element": "N" 
			},
			{
				"x": 1.9791171807,
				"y": 2.1909531512,
				"z": -1.0284400695,
				"element": "C" 
			},
			{
				"x": 0.9752049794,
				"y": 3.2860264552,
				"z": -0.6454161575,
				"element": "C" 
			},
			{
				"x": 1.3346967482,
				"y": 3.8449703452,
				"z": 0.6519748886,
				"element": "N" 
			},
			{
				"x": 2.0587954947,
				"y": 3.2213117462,
				"z": 1.6304889945,
				"element": "C" 
			},
			{
				"x": 2.2337817162,
				"y": 3.7241705863,
				"z": 2.7326748609,
				"element": "O" 
			},
			{
				"x": 2.7170335244,
				"y": 1.8852816741,
				"z": 1.2682593599,
				"element": "C" 
			},
			{
				"x": -0.1127019349,
				"y": -4.4051316964,
				"z": 0.8761222009,
				"element": "H" 
			},
			{
				"x": -1.4673747726,
				"y": -3.7038491859,
				"z": 0.1945618539,
				"element": "H" 
			},
			{
				"x": 2.0301269039,
				"y": -3.2408385295,
				"z": 1.0416536815,
				"element": "H" 
			},
			{
				"x": -0.3154321928,
				"y": 0.7289691268,
				"z": -0.7252954957,
				"element": "H" 
			},
			{
				"x": -1.4631457061,
				"y": -1.4276401417,
				"z": -0.7007060312,
				"element": "H" 
			},
			{
				"x": 2.932761334,
				"y": 2.6733723992,
				"z": -1.2901673354,
				"element": "H" 
			},
			{
				"x": 1.6313038624,
				"y": 1.6533557838,
				"z": -1.9136759764,
				"element": "H" 
			},
			{
				"x": -0.0480575692,
				"y": 2.8843285931,
				"z": -0.6234323307,
				"element": "H" 
			},
			{
				"x": 0.9946537067,
				"y": 4.0832923194,
				"z": -1.3988787902,
				"element": "H" 
			},
			{
				"x": 0.8972570041,
				"y": 4.7060036595,
				"z": 0.9547426869,
				"element": "H" 
			},
			{
				"x": 2.5722070801,
				"y": 1.2260894697,
				"z": 2.1236681472,
				"element": "H" 
			},
			{
				"x": 3.798039456,
				"y": 2.0808441021,
				"z": 1.2044840946,
				"element": "H" 
			}
		],
		 "valence_orbital": [ 
			{
				"type": "occ",
				"energy": -0.26126,
				"method": "rhf"
			},
			{
				"type": "occ",
				"energy": -0.24719,
				"method": "rhf"
			},
			{
				"type": "occ",
				"energy": -0.24511,
				"method": "rhf"
			},
			{
				"type": "occ",
				"energy": -0.23368,
				"method": "rhf"
			},
			{
				"type": "occ",
				"energy": -0.18541,
				"method": "rhf"
			},
			{
				"type": "unocc",
				"energy": -0.01073,
				"method": "rhf"
			},
			{
				"type": "unocc",
				"energy": 0.00988,
				"method": "rhf"
			},
			{
				"type": "unocc",
				"energy": 0.03175,
				"method": "rhf"
			},
			{
				"type": "unocc",
				"energy": 0.03577,
				"method": "rhf"
			},
			{
				"type": "unocc",
				"energy": 0.07513,
				"method": "rhf"
			}
		],
		"cosmo_sigma_profile": { 
			"-0.025": 0.0,
			"-0.024": 0.0,
			"-0.023": 0.0,
			"-0.022": 0.0,
			"-0.021": 0.0,
			"-0.02": 0.0,
			"-0.019": 0.0,
			"-0.018": 0.0,
			"-0.017": 0.0,
			"-0.016": 0.0,
			"-0.015": 0.0,
			"-0.014": 0.38736328678,
			"-0.013": 1.4576757985,
			"-0.012": 4.06756918561,
			"-0.011": 3.54424580542,
			"-0.01": 4.12177778572,
			"-0.009": 4.47515775499,
			"-0.008": 4.53900287365,
			"-0.007": 6.31884696154,
			"-0.006": 11.6356993457,
			"-0.005": 20.8142443132,
			"-0.004": 21.1804045695,
			"-0.003": 15.4056605416,
			"-0.002": 15.6572596818,
			"-0.001": 11.7806736271,
			"0.0": 12.0293848045,
			"0.001": 10.9656787911,
			"0.002": 13.3031410076,
			"0.003": 14.3189478735,
			"0.004": 16.1171059969,
			"0.005": 19.0613510237,
			"0.006": 7.89442309139,
			"0.007": 3.8473108379,
			"0.008": 3.1041109226,
			"0.009": 2.06247970603,
			"0.01": 1.81881017476,
			"0.011": 2.87022535976,
			"0.012": 1.94459201191,
			"0.013": 3.49914279383,
			"0.014": 6.42659980597,
			"0.015": 3.35766165993,
			"0.016": 0.0520669275205,
			"0.017": 0.0,
			"0.018": 0.0,
			"0.019": 0.0,
			"0.02": 0.0,
			"0.021": 0.0,
			"0.022": 0.0,
			"0.023": 0.0,
			"0.024": 0.0,
			"0.025": 0.0
		}
	}
}
