{
	 "smiles": "BrCCOC1=CC(=CC=C1)C#N", 
	 "Tm": 310.15, 
	 "num_atms": 20, 
	 "gaussian": { 
		 "optdone": 1, 
		 "sigma_profile": "yes", 
		 "theory": "DFT", 
		 "functional": "B3LYP", 
		 "basiset": "6-31G**", 
		 "properties": { 
			 "R2extent": 5259.8059, 
			 "electric_dipole_moment_norm": 4.00745132222, 
			 "electric_quadrupole_moment_norm": 25.2814344063, 
			 "total_energy": -3049.13514579, 
			 "HOMO_LUMO_gap": 0.19469, 
			 "cosmo_polarized_energy": -11.57, 
			 "cosmo_cavitation_energy": 27.97, 
			 "cosmo_dispersion_energy": -20.39, 
			 "cosmo_repulsion_energy": 1.65, 
			 "cosmo_total_nonelectrostatic_energy": 9.23, 
			 "SMD_solvation_energy": 5.14 
		},
		"coords": [
			{
				"x": 3.1479065704,
				"y": 2.3604286238,
				"z": -1.9045288414,
				"element": "Br" 
			},
			{
				"x": 2.2253753906,
				"y": 0.6898169296,
				"z": -1.423299504,
				"element": "C" 
			},
			{
				"x": 0.9800973216,
				"y": 1.0125934483,
				"z": -0.6148028381,
				"element": "C" 
			},
			{
				"x": 0.3784485224,
				"y": -0.2443093711,
				"z": -0.3120819002,
				"element": "O" 
			},
			{
				"x": -0.7742682749,
				"y": -0.2613917255,
				"z": 0.4174188571,
				"element": "C" 
			},
			{
				"x": -1.3039062274,
				"y": -1.5317699281,
				"z": 0.6736140984,
				"element": "C" 
			},
			{
				"x": -2.4841131443,
				"y": -1.6545045437,
				"z": 1.4139759809,
				"element": "C" 
			},
			{
				"x": -3.1450453687,
				"y": -0.5128235283,
				"z": 1.9043267631,
				"element": "C" 
			},
			{
				"x": -2.6052770564,
				"y": 0.7401072024,
				"z": 1.6405917397,
				"element": "C" 
			},
			{
				"x": -1.4259658972,
				"y": 0.8796819666,
				"z": 0.9018524008,
				"element": "C" 
			},
			{
				"x": -3.0230495828,
				"y": -2.9594675217,
				"z": 1.6739052279,
				"element": "C" 
			},
			{
				"x": -3.4638960097,
				"y": -4.014382667,
				"z": 1.887303462,
				"element": "N" 
			},
			{
				"x": 1.9792973634,
				"y": 0.18497923,
				"z": -2.3561919682,
				"element": "H" 
			},
			{
				"x": 2.9328057183,
				"y": 0.0921359153,
				"z": -0.850560939,
				"element": "H" 
			},
			{
				"x": 0.2962209916,
				"y": 1.6416336127,
				"z": -1.1981665625,
				"element": "H" 
			},
			{
				"x": 1.2476783753,
				"y": 1.5481525321,
				"z": 0.3045806233,
				"element": "H" 
			},
			{
				"x": -0.7890781228,
				"y": -2.4061142806,
				"z": 0.2926025295,
				"element": "H" 
			},
			{
				"x": -4.0590350589,
				"y": -0.6206679438,
				"z": 2.476872417,
				"element": "H" 
			},
			{
				"x": -3.1040354244,
				"y": 1.6298391455,
				"z": 2.012364467,
				"element": "H" 
			},
			{
				"x": -1.0299600862,
				"y": 1.8701629034,
				"z": 0.7128239865,
				"element": "H" 
			}
		],
		 "valence_orbital": [ 
			{
				"type": "occ",
				"energy": -0.33193,
				"method": "rhf"
			},
			{
				"type": "occ",
				"energy": -0.29251,
				"method": "rhf"
			},
			{
				"type": "occ",
				"energy": -0.28955,
				"method": "rhf"
			},
			{
				"type": "occ",
				"energy": -0.2718,
				"method": "rhf"
			},
			{
				"type": "occ",
				"energy": -0.24784,
				"method": "rhf"
			},
			{
				"type": "unocc",
				"energy": -0.05315,
				"method": "rhf"
			},
			{
				"type": "unocc",
				"energy": -0.01908,
				"method": "rhf"
			},
			{
				"type": "unocc",
				"energy": -0.01535,
				"method": "rhf"
			},
			{
				"type": "unocc",
				"energy": 0.03642,
				"method": "rhf"
			},
			{
				"type": "unocc",
				"energy": 0.07237,
				"method": "rhf"
			}
		],
		"cosmo_sigma_profile": { 
			"-0.025": 0.0,
			"-0.024": 0.0,
			"-0.023": 0.0,
			"-0.022": 0.0,
			"-0.021": 0.0,
			"-0.02": 0.0,
			"-0.019": 0.0,
			"-0.018": 0.0,
			"-0.017": 0.0,
			"-0.016": 0.0,
			"-0.015": 0.0,
			"-0.014": 0.0,
			"-0.013": 0.0,
			"-0.012": 0.0,
			"-0.011": 0.0,
			"-0.01": 0.0,
			"-0.009": 0.0592915388615,
			"-0.008": 6.13371940176,
			"-0.007": 14.6527477033,
			"-0.006": 20.098957604,
			"-0.005": 15.3495397087,
			"-0.004": 12.6165880588,
			"-0.003": 11.0410271695,
			"-0.002": 12.6890635089,
			"-0.001": 14.880664004,
			"0.0": 14.0329277768,
			"0.001": 16.4913435155,
			"0.002": 20.5465693059,
			"0.003": 15.0512532307,
			"0.004": 9.22017813837,
			"0.005": 13.5348852026,
			"0.006": 9.70120118807,
			"0.007": 4.75140507327,
			"0.008": 3.543687373,
			"0.009": 3.63735349037,
			"0.01": 2.97767803871,
			"0.011": 2.92958926543,
			"0.012": 2.33069666825,
			"0.013": 1.53563190911,
			"0.014": 0.0374206759815,
			"0.015": 0.0,
			"0.016": 0.0,
			"0.017": 0.0,
			"0.018": 0.0,
			"0.019": 0.0,
			"0.02": 0.0,
			"0.021": 0.0,
			"0.022": 0.0,
			"0.023": 0.0,
			"0.024": 0.0,
			"0.025": 0.0
		}
	}
}
