{
	 "smiles": "COC1=C(CC(=O)NN)C=CC=C1", 
	 "Tm": 386.15, 
	 "num_atms": 25, 
	 "gaussian": { 
		 "optdone": 1, 
		 "sigma_profile": "yes", 
		 "theory": "DFT", 
		 "functional": "B3LYP", 
		 "basiset": "6-31G**", 
		 "properties": { 
			 "R2extent": 3909.9048, 
			 "electric_dipole_moment_norm": 3.71787943592, 
			 "electric_quadrupole_moment_norm": 29.3300840497, 
			 "total_energy": -610.107005028, 
			 "HOMO_LUMO_gap": 0.21713, 
			 "cosmo_polarized_energy": -18.9, 
			 "cosmo_cavitation_energy": 28.93, 
			 "cosmo_dispersion_energy": -20.59, 
			 "cosmo_repulsion_energy": 1.69, 
			 "cosmo_total_nonelectrostatic_energy": 10.03, 
			 "SMD_solvation_energy": 6.99 
		},
		"coords": [
			{
				"x": -1.2444476768,
				"y": 1.8923190535,
				"z": 0.2690414219,
				"element": "C" 
			},
			{
				"x": -0.1378681955,
				"y": 1.2219401672,
				"z": -0.3082586717,
				"element": "O" 
			},
			{
				"x": -0.3785539926,
				"y": 0.270357185,
				"z": -1.2617475228,
				"element": "C" 
			},
			{
				"x": 0.7710734183,
				"y": -0.2962569828,
				"z": -1.8499247666,
				"element": "C" 
			},
			{
				"x": 2.1385087192,
				"y": 0.1657036392,
				"z": -1.4203167618,
				"element": "C" 
			},
			{
				"x": 2.4971220456,
				"y": 1.5517713468,
				"z": -1.9636398715,
				"element": "C" 
			},
			{
				"x": 1.8334753882,
				"y": 2.1664651298,
				"z": -2.7833280449,
				"element": "O" 
			},
			{
				"x": 3.6661985971,
				"y": 2.0997759381,
				"z": -1.4826060258,
				"element": "N" 
			},
			{
				"x": 4.4940187751,
				"y": 1.4620650024,
				"z": -0.5535853504,
				"element": "N" 
			},
			{
				"x": 0.6000382162,
				"y": -1.2859542357,
				"z": -2.8153131736,
				"element": "C" 
			},
			{
				"x": -0.6713850512,
				"y": -1.7169031466,
				"z": -3.2072313946,
				"element": "C" 
			},
			{
				"x": -1.7943255267,
				"y": -1.14365837,
				"z": -2.6192605395,
				"element": "C" 
			},
			{
				"x": -1.6550849356,
				"y": -0.1503402734,
				"z": -1.6445326167,
				"element": "C" 
			},
			{
				"x": -1.8959971658,
				"y": 1.2024091477,
				"z": 0.8217734997,
				"element": "H" 
			},
			{
				"x": -0.82696883,
				"y": 2.6226963293,
				"z": 0.9643810303,
				"element": "H" 
			},
			{
				"x": -1.8391178401,
				"y": 2.416131614,
				"z": -0.4899360102,
				"element": "H" 
			},
			{
				"x": 2.9036273559,
				"y": -0.539928363,
				"z": -1.7630019946,
				"element": "H" 
			},
			{
				"x": 2.2253291679,
				"y": 0.1917691781,
				"z": -0.330385106,
				"element": "H" 
			},
			{
				"x": 3.8963705696,
				"y": 3.0144512075,
				"z": -1.8583406521,
				"element": "H" 
			},
			{
				"x": 5.4204789724,
				"y": 1.3134913854,
				"z": -0.9462120478,
				"element": "H" 
			},
			{
				"x": 4.5819264721,
				"y": 2.0252378528,
				"z": 0.2888252597,
				"element": "H" 
			},
			{
				"x": 1.4831643376,
				"y": -1.725827882,
				"z": -3.2724617452,
				"element": "H" 
			},
			{
				"x": -0.7775441327,
				"y": -2.4887144321,
				"z": -3.9633071317,
				"element": "H" 
			},
			{
				"x": -2.7905319463,
				"y": -1.4638885153,
				"z": -2.9115342748,
				"element": "H" 
			},
			{
				"x": -2.5398067417,
				"y": 0.2854880241,
				"z": -1.1956975093,
				"element": "H" 
			}
		],
		 "valence_orbital": [ 
			{
				"type": "occ",
				"energy": -0.28127,
				"method": "rhf"
			},
			{
				"type": "occ",
				"energy": -0.24778,
				"method": "rhf"
			},
			{
				"type": "occ",
				"energy": -0.24029,
				"method": "rhf"
			},
			{
				"type": "occ",
				"energy": -0.23049,
				"method": "rhf"
			},
			{
				"type": "occ",
				"energy": -0.20577,
				"method": "rhf"
			},
			{
				"type": "unocc",
				"energy": 0.01136,
				"method": "rhf"
			},
			{
				"type": "unocc",
				"energy": 0.02448,
				"method": "rhf"
			},
			{
				"type": "unocc",
				"energy": 0.04433,
				"method": "rhf"
			},
			{
				"type": "unocc",
				"energy": 0.06581,
				"method": "rhf"
			},
			{
				"type": "unocc",
				"energy": 0.10076,
				"method": "rhf"
			}
		],
		"cosmo_sigma_profile": { 
			"-0.025": 0.0,
			"-0.024": 0.0,
			"-0.023": 0.0,
			"-0.022": 0.0,
			"-0.021": 0.0,
			"-0.02": 0.0,
			"-0.019": 0.0,
			"-0.018": 0.0,
			"-0.017": 0.0,
			"-0.016": 0.0,
			"-0.015": 0.0,
			"-0.014": 0.0224623368831,
			"-0.013": 0.858445578485,
			"-0.012": 3.7551128693,
			"-0.011": 4.33207080549,
			"-0.01": 4.70729520008,
			"-0.009": 4.74904561679,
			"-0.008": 4.14680207504,
			"-0.007": 2.39242743744,
			"-0.006": 9.17390909788,
			"-0.005": 20.4489106356,
			"-0.004": 19.7212616359,
			"-0.003": 20.3600054451,
			"-0.002": 13.4648021645,
			"-0.001": 10.8996251936,
			"0.0": 12.4186682578,
			"0.001": 10.758214219,
			"0.002": 9.08906697059,
			"0.003": 11.4409537357,
			"0.004": 10.3978553929,
			"0.005": 10.2213877753,
			"0.006": 10.4913260558,
			"0.007": 7.65270799622,
			"0.008": 3.11594494448,
			"0.009": 2.99639566249,
			"0.01": 2.17554663568,
			"0.011": 2.84864049301,
			"0.012": 3.53827848662,
			"0.013": 3.70461453224,
			"0.014": 5.92253035212,
			"0.015": 1.97819741991,
			"0.016": 0.0320973981077,
			"0.017": 0.0,
			"0.018": 0.0,
			"0.019": 0.0,
			"0.02": 0.0,
			"0.021": 0.0,
			"0.022": 0.0,
			"0.023": 0.0,
			"0.024": 0.0,
			"0.025": 0.0
		}
	}
}
