{
	 "smiles": "OC(=O)CC1=C(O)C=CC(O)=C1", 
	 "Tm": 426.15, 
	 "num_atms": 20, 
	 "gaussian": { 
		 "optdone": 1, 
		 "sigma_profile": "yes", 
		 "theory": "DFT", 
		 "functional": "B3LYP", 
		 "basiset": "6-31G**", 
		 "properties": { 
			 "R2extent": 2536.9614, 
			 "electric_dipole_moment_norm": 1.32259022377, 
			 "electric_quadrupole_moment_norm": 15.2552548307, 
			 "total_energy": -610.576863755, 
			 "HOMO_LUMO_gap": 0.18641, 
			 "cosmo_polarized_energy": -16.15, 
			 "cosmo_cavitation_energy": 24.44, 
			 "cosmo_dispersion_energy": -18.09, 
			 "cosmo_repulsion_energy": 1.45, 
			 "cosmo_total_nonelectrostatic_energy": 7.8, 
			 "SMD_solvation_energy": 5.78 
		},
		"coords": [
			{
				"x": -0.2387961027,
				"y": -2.6981294455,
				"z": -2.3159891223,
				"element": "O" 
			},
			{
				"x": -1.2498218672,
				"y": -2.1100337124,
				"z": -1.6009416729,
				"element": "C" 
			},
			{
				"x": -2.2471418956,
				"y": -2.7142758538,
				"z": -1.2950973035,
				"element": "O" 
			},
			{
				"x": -0.9116139616,
				"y": -0.6697343484,
				"z": -1.266455155,
				"element": "C" 
			},
			{
				"x": 0.1441646139,
				"y": -0.5516080588,
				"z": -0.1779777948,
				"element": "C" 
			},
			{
				"x": 1.5122083861,
				"y": -0.7094600829,
				"z": -0.4769592448,
				"element": "C" 
			},
			{
				"x": 1.9653915038,
				"y": -0.9979710349,
				"z": -1.7389401862,
				"element": "O" 
			},
			{
				"x": 2.4621556538,
				"y": -0.5170262938,
				"z": 0.5283358471,
				"element": "C" 
			},
			{
				"x": 2.0723425777,
				"y": -0.191440901,
				"z": 1.8258200116,
				"element": "C" 
			},
			{
				"x": 0.7150421335,
				"y": -0.0654437036,
				"z": 2.1352070287,
				"element": "C" 
			},
			{
				"x": 0.2596204764,
				"y": 0.2415338639,
				"z": 3.3905706391,
				"element": "O" 
			},
			{
				"x": -0.2387170958,
				"y": -0.2467357506,
				"z": 1.1313748541,
				"element": "C" 
			},
			{
				"x": -0.484464668,
				"y": -3.6290062327,
				"z": -2.4493922086,
				"element": "H" 
			},
			{
				"x": -1.837680268,
				"y": -0.1904934817,
				"z": -0.9474327052,
				"element": "H" 
			},
			{
				"x": -0.5561272626,
				"y": -0.1782703538,
				"z": -2.1798464643,
				"element": "H" 
			},
			{
				"x": 1.3513956382,
				"y": -1.6177674121,
				"z": -2.163971773,
				"element": "H" 
			},
			{
				"x": 3.510672775,
				"y": -0.6319629011,
				"z": 0.2742542451,
				"element": "H" 
			},
			{
				"x": 2.8255619265,
				"y": -0.0449917869,
				"z": 2.5972188683,
				"element": "H" 
			},
			{
				"x": 1.0156026683,
				"y": 0.3447710365,
				"z": 3.9822782939,
				"element": "H" 
			},
			{
				"x": -1.2879952317,
				"y": -0.1283535463,
				"z": 1.3833438426,
				"element": "H" 
			}
		],
		 "valence_orbital": [ 
			{
				"type": "occ",
				"energy": -0.32816,
				"method": "rhf"
			},
			{
				"type": "occ",
				"energy": -0.30306,
				"method": "rhf"
			},
			{
				"type": "occ",
				"energy": -0.29098,
				"method": "rhf"
			},
			{
				"type": "occ",
				"energy": -0.24975,
				"method": "rhf"
			},
			{
				"type": "occ",
				"energy": -0.20343,
				"method": "rhf"
			},
			{
				"type": "unocc",
				"energy": -0.01702,
				"method": "rhf"
			},
			{
				"type": "unocc",
				"energy": 0.00409,
				"method": "rhf"
			},
			{
				"type": "unocc",
				"energy": 0.02339,
				"method": "rhf"
			},
			{
				"type": "unocc",
				"energy": 0.05677,
				"method": "rhf"
			},
			{
				"type": "unocc",
				"energy": 0.07176,
				"method": "rhf"
			}
		],
		"cosmo_sigma_profile": { 
			"-0.025": 0.0,
			"-0.024": 0.0,
			"-0.023": 0.0,
			"-0.022": 0.0,
			"-0.021": 0.0,
			"-0.02": 0.00137574187254,
			"-0.019": 0.643649251504,
			"-0.018": 0.974776885241,
			"-0.017": 2.49490033363,
			"-0.016": 1.2310755944,
			"-0.015": 2.56636848358,
			"-0.014": 1.25623941384,
			"-0.013": 1.49307728344,
			"-0.012": 1.26905971037,
			"-0.011": 1.82853818562,
			"-0.01": 1.75465569095,
			"-0.009": 1.83480761587,
			"-0.008": 2.68873676759,
			"-0.007": 7.51767663867,
			"-0.006": 11.6353143206,
			"-0.005": 9.90654039116,
			"-0.004": 11.8001432598,
			"-0.003": 11.6714877352,
			"-0.002": 10.252312098,
			"-0.001": 9.11304630214,
			"0.0": 9.14802333794,
			"0.001": 7.58706633367,
			"0.002": 8.07569984024,
			"0.003": 9.64070904755,
			"0.004": 16.3374170229,
			"0.005": 13.8866132576,
			"0.006": 4.98275417503,
			"0.007": 3.40970525276,
			"0.008": 5.09064667802,
			"0.009": 3.74702892688,
			"0.01": 6.21281551589,
			"0.011": 8.46320446562,
			"0.012": 4.88670820074,
			"0.013": 0.54414267883,
			"0.014": 0.0,
			"0.015": 0.0,
			"0.016": 0.0,
			"0.017": 0.0,
			"0.018": 0.0,
			"0.019": 0.0,
			"0.02": 0.0,
			"0.021": 0.0,
			"0.022": 0.0,
			"0.023": 0.0,
			"0.024": 0.0,
			"0.025": 0.0
		}
	}
}
