{
	 "smiles": "CCOC(=O)C1=NN(C(C)=C1C(=O)C1=NOC2C1C(=O)N(C2=O)C1=CC=C(Br)C=C1)C1=CC=C(C)C=C1", 
	 "Tm": 511.15, 
	 "num_atms": 58, 
	 "gaussian": { 
		 "optdone": 1, 
		 "sigma_profile": "yes", 
		 "theory": "DFT", 
		 "functional": "B3LYP", 
		 "basiset": "6-31G**", 
		 "properties": { 
			 "R2extent": 26402.7711, 
			 "electric_dipole_moment_norm": 5.84573687913, 
			 "electric_quadrupole_moment_norm": 26.3395621961, 
			 "total_energy": -4245.12154052, 
			 "HOMO_LUMO_gap": 0.16665, 
			 "cosmo_polarized_energy": -31.44, 
			 "cosmo_cavitation_energy": 64.84, 
			 "cosmo_dispersion_energy": -42.36, 
			 "cosmo_repulsion_energy": 3.15, 
			 "cosmo_total_nonelectrostatic_energy": 25.63, 
			 "SMD_solvation_energy": 10.83 
		},
		"coords": [
			{
				"x": -4.762019275,
				"y": -1.1813763017,
				"z": 0.8147244947,
				"element": "C" 
			},
			{
				"x": -3.8268545289,
				"y": -0.0383460075,
				"z": 1.1613661584,
				"element": "C" 
			},
			{
				"x": -2.7724421466,
				"y": 0.0042491492,
				"z": 0.1641007804,
				"element": "O" 
			},
			{
				"x": -1.9972527856,
				"y": 1.1161112218,
				"z": 0.1869017072,
				"element": "C" 
			},
			{
				"x": -2.1110561315,
				"y": 1.9998554736,
				"z": 1.00482085,
				"element": "O" 
			},
			{
				"x": -1.0304345549,
				"y": 1.1286870827,
				"z": -0.9437666844,
				"element": "C" 
			},
			{
				"x": -0.3092451966,
				"y": 2.2311958798,
				"z": -1.1004952544,
				"element": "N" 
			},
			{
				"x": 0.4114813406,
				"y": 2.0350164779,
				"z": -2.227717808,
				"element": "N" 
			},
			{
				"x": 0.1306924871,
				"y": 0.8413572719,
				"z": -2.8352253485,
				"element": "C" 
			},
			{
				"x": 0.7232891791,
				"y": 0.4044154771,
				"z": -4.1376881453,
				"element": "C" 
			},
			{
				"x": -0.7931669229,
				"y": 0.1989691633,
				"z": -2.0064155253,
				"element": "C" 
			},
			{
				"x": -1.3759573331,
				"y": -1.1205687051,
				"z": -2.3338455041,
				"element": "C" 
			},
			{
				"x": -1.6627532089,
				"y": -1.4221668449,
				"z": -3.4843281127,
				"element": "O" 
			},
			{
				"x": -1.5338113959,
				"y": -2.1881144176,
				"z": -1.2750308796,
				"element": "C" 
			},
			{
				"x": -2.5676426487,
				"y": -2.9452319718,
				"z": -1.3212283889,
				"element": "N" 
			},
			{
				"x": -2.4729555128,
				"y": -3.9739637163,
				"z": -0.3959143316,
				"element": "O" 
			},
			{
				"x": -1.1872705007,
				"y": -3.9070298057,
				"z": 0.2759867913,
				"element": "C" 
			},
			{
				"x": -0.4911364329,
				"y": -2.660749662,
				"z": -0.2660281328,
				"element": "C" 
			},
			{
				"x": -0.2524989288,
				"y": -1.7725863595,
				"z": 0.9638476356,
				"element": "C" 
			},
			{
				"x": 0.3822922178,
				"y": -0.7445466816,
				"z": 0.9881165746,
				"element": "O" 
			},
			{
				"x": -0.8503379991,
				"y": -2.3930089875,
				"z": 2.0773872116,
				"element": "N" 
			},
			{
				"x": -1.4008486685,
				"y": -3.6518535153,
				"z": 1.7704480072,
				"element": "C" 
			},
			{
				"x": -1.9457878752,
				"y": -4.3995000842,
				"z": 2.5469324429,
				"element": "O" 
			},
			{
				"x": -0.8588135802,
				"y": -1.830504615,
				"z": 3.3958151048,
				"element": "C" 
			},
			{
				"x": -1.9965940293,
				"y": -1.9727859809,
				"z": 4.1989947494,
				"element": "C" 
			},
			{
				"x": -2.0112414105,
				"y": -1.435464969,
				"z": 5.4844660607,
				"element": "C" 
			},
			{
				"x": -0.8914014177,
				"y": -0.7537399568,
				"z": 5.9567532898,
				"element": "C" 
			},
			{
				"x": -0.9127691333,
				"y": -0.0154913179,
				"z": 7.7160580887,
				"element": "Br" 
			},
			{
				"x": 0.2437810911,
				"y": -0.6049641374,
				"z": 5.1625871918,
				"element": "C" 
			},
			{
				"x": 0.263032512,
				"y": -1.148779483,
				"z": 3.8798454743,
				"element": "C" 
			},
			{
				"x": 1.285018773,
				"y": 3.080884192,
				"z": -2.6594998051,
				"element": "C" 
			},
			{
				"x": 2.5680599348,
				"y": 2.7994167344,
				"z": -3.1306149206,
				"element": "C" 
			},
			{
				"x": 3.3958557658,
				"y": 3.8458819663,
				"z": -3.5387297995,
				"element": "C" 
			},
			{
				"x": 2.9734889323,
				"y": 5.1782271921,
				"z": -3.4697771735,
				"element": "C" 
			},
			{
				"x": 3.8648904648,
				"y": 6.3069741531,
				"z": -3.9293066206,
				"element": "C" 
			},
			{
				"x": 1.6881073925,
				"y": 5.436249324,
				"z": -2.9686365645,
				"element": "C" 
			},
			{
				"x": 0.8448125785,
				"y": 4.4052133661,
				"z": -2.5688151512,
				"element": "C" 
			},
			{
				"x": -5.5786155995,
				"y": -1.213441974,
				"z": 1.5432194606,
				"element": "H" 
			},
			{
				"x": -5.1940620431,
				"y": -1.0443984145,
				"z": -0.180180162,
				"element": "H" 
			},
			{
				"x": -4.2519609778,
				"y": -2.1478732763,
				"z": 0.8290372607,
				"element": "H" 
			},
			{
				"x": -4.3397246691,
				"y": 0.9271486138,
				"z": 1.15823467,
				"element": "H" 
			},
			{
				"x": -3.3670634931,
				"y": -0.1611939184,
				"z": 2.1474133543,
				"element": "H" 
			},
			{
				"x": 0.8877674643,
				"y": 1.2605431638,
				"z": -4.7969737512,
				"element": "H" 
			},
			{
				"x": 0.0387513262,
				"y": -0.2908280732,
				"z": -4.6221671851,
				"element": "H" 
			},
			{
				"x": 1.6882037557,
				"y": -0.0982785726,
				"z": -4.0024122214,
				"element": "H" 
			},
			{
				"x": -0.6724531748,
				"y": -4.8588552571,
				"z": 0.1241548618,
				"element": "H" 
			},
			{
				"x": 0.4749311311,
				"y": -2.8313244123,
				"z": -0.7507408312,
				"element": "H" 
			},
			{
				"x": -2.8582234769,
				"y": -2.5161790939,
				"z": 3.8337345148,
				"element": "H" 
			},
			{
				"x": -2.8884891579,
				"y": -1.5469591421,
				"z": 6.1108243793,
				"element": "H" 
			},
			{
				"x": 1.1080352183,
				"y": -0.0704883234,
				"z": 5.5389478455,
				"element": "H" 
			},
			{
				"x": 1.1383681797,
				"y": -1.0247626797,
				"z": 3.2567516633,
				"element": "H" 
			},
			{
				"x": 2.9318259078,
				"y": 1.7786147078,
				"z": -3.153866533,
				"element": "H" 
			},
			{
				"x": 4.3946366514,
				"y": 3.618521786,
				"z": -3.90143655,
				"element": "H" 
			},
			{
				"x": 3.5586178503,
				"y": 6.6760128717,
				"z": -4.915912624,
				"element": "H" 
			},
			{
				"x": 3.8211155873,
				"y": 7.1561285153,
				"z": -3.2399176118,
				"element": "H" 
			},
			{
				"x": 4.9077147088,
				"y": 5.9874416765,
				"z": -4.0073086057,
				"element": "H" 
			},
			{
				"x": 1.3400752381,
				"y": 6.4630406339,
				"z": -2.8920720983,
				"element": "H" 
			},
			{
				"x": -0.1435614787,
				"y": 4.6083005642,
				"z": -2.1734182993,
				"element": "H" 
			}
		],
		 "valence_orbital": [ 
			{
				"type": "occ",
				"energy": -0.26706,
				"method": "rhf"
			},
			{
				"type": "occ",
				"energy": -0.26214,
				"method": "rhf"
			},
			{
				"type": "occ",
				"energy": -0.25456,
				"method": "rhf"
			},
			{
				"type": "occ",
				"energy": -0.24545,
				"method": "rhf"
			},
			{
				"type": "occ",
				"energy": -0.24178,
				"method": "rhf"
			},
			{
				"type": "unocc",
				"energy": -0.07513,
				"method": "rhf"
			},
			{
				"type": "unocc",
				"energy": -0.05418,
				"method": "rhf"
			},
			{
				"type": "unocc",
				"energy": -0.0442,
				"method": "rhf"
			},
			{
				"type": "unocc",
				"energy": -0.03835,
				"method": "rhf"
			},
			{
				"type": "unocc",
				"energy": -0.02497,
				"method": "rhf"
			}
		],
		"cosmo_sigma_profile": { 
			"-0.025": 0.0,
			"-0.024": 0.0,
			"-0.023": 0.0,
			"-0.022": 0.0,
			"-0.021": 0.0,
			"-0.02": 0.0,
			"-0.019": 0.0,
			"-0.018": 0.0,
			"-0.017": 0.0,
			"-0.016": 0.0,
			"-0.015": 0.0,
			"-0.014": 0.00159678880911,
			"-0.013": 0.507428624042,
			"-0.012": 1.03496895051,
			"-0.011": 4.98942389525,
			"-0.01": 9.8266184793,
			"-0.009": 5.24737896335,
			"-0.008": 6.89745758785,
			"-0.007": 13.8765909206,
			"-0.006": 23.2620823789,
			"-0.005": 34.0202697355,
			"-0.004": 44.2196958985,
			"-0.003": 40.9342552718,
			"-0.002": 42.0278094416,
			"-0.001": 38.1034862558,
			"0.0": 35.8358887841,
			"0.001": 33.1095986401,
			"0.002": 34.1922444846,
			"0.003": 28.4436516966,
			"0.004": 31.8226120809,
			"0.005": 13.7881484509,
			"0.006": 10.9745052549,
			"0.007": 12.774032611,
			"0.008": 11.5915867993,
			"0.009": 11.614684836,
			"0.01": 14.0948570388,
			"0.011": 9.7237986376,
			"0.012": 4.67454209283,
			"0.013": 2.01891389089,
			"0.014": 1.63769224457,
			"0.015": 0.823666931842,
			"0.016": 0.00716855234433,
			"0.017": 0.0,
			"0.018": 0.0,
			"0.019": 0.0,
			"0.02": 0.0,
			"0.021": 0.0,
			"0.022": 0.0,
			"0.023": 0.0,
			"0.024": 0.0,
			"0.025": 0.0
		}
	}
}
