{
	 "smiles": "OCC1NCCC2=C1C=CC=C2", 
	 "Tm": 345.15, 
	 "num_atms": 25, 
	 "gaussian": { 
		 "optdone": 1, 
		 "sigma_profile": "yes", 
		 "theory": "DFT", 
		 "functional": "B3LYP", 
		 "basiset": "6-31G**", 
		 "properties": { 
			 "R2extent": 2342.4689, 
			 "electric_dipole_moment_norm": 2.44933858419, 
			 "electric_quadrupole_moment_norm": 13.3426169019, 
			 "total_energy": -518.863150711, 
			 "HOMO_LUMO_gap": 0.22415, 
			 "cosmo_polarized_energy": -9.29, 
			 "cosmo_cavitation_energy": 25.93, 
			 "cosmo_dispersion_energy": -19.6, 
			 "cosmo_repulsion_energy": 1.55, 
			 "cosmo_total_nonelectrostatic_energy": 7.88, 
			 "SMD_solvation_energy": 2.36 
		},
		"coords": [
			{
				"x": -0.1763604736,
				"y": -1.6857976629,
				"z": 3.4142729927,
				"element": "O" 
			},
			{
				"x": 0.9445492943,
				"y": -2.0420865193,
				"z": 2.6298740332,
				"element": "C" 
			},
			{
				"x": 0.6977916951,
				"y": -1.822936532,
				"z": 1.1074134288,
				"element": "C" 
			},
			{
				"x": -0.685433212,
				"y": -2.2572842796,
				"z": 0.8146569416,
				"element": "N" 
			},
			{
				"x": -1.6584860509,
				"y": -1.160096562,
				"z": 0.7082807113,
				"element": "C" 
			},
			{
				"x": -1.2645288288,
				"y": -0.1181317136,
				"z": -0.3400010761,
				"element": "C" 
			},
			{
				"x": 0.1407605947,
				"y": 0.3825886744,
				"z": -0.0846725649,
				"element": "C" 
			},
			{
				"x": 1.0595978558,
				"y": -0.4215906851,
				"z": 0.6114285164,
				"element": "C" 
			},
			{
				"x": 2.3614702003,
				"y": 0.0608652678,
				"z": 0.8156640276,
				"element": "C" 
			},
			{
				"x": 2.7516603042,
				"y": 1.3151343282,
				"z": 0.3543284958,
				"element": "C" 
			},
			{
				"x": 1.8320208659,
				"y": 2.1183020916,
				"z": -0.324257763,
				"element": "C" 
			},
			{
				"x": 0.5392870585,
				"y": 1.6482215833,
				"z": -0.5370729221,
				"element": "C" 
			},
			{
				"x": -0.8985344969,
				"y": -2.2254905966,
				"z": 3.0565328201,
				"element": "H" 
			},
			{
				"x": 1.2029155992,
				"y": -3.1022844061,
				"z": 2.7831370744,
				"element": "H" 
			},
			{
				"x": 1.7846959148,
				"y": -1.4383563659,
				"z": 2.9833192857,
				"element": "H" 
			},
			{
				"x": 1.3659820559,
				"y": -2.5238119051,
				"z": 0.5889821055,
				"element": "H" 
			},
			{
				"x": -0.6966923939,
				"y": -2.7893898251,
				"z": -0.0503867662,
				"element": "H" 
			},
			{
				"x": -2.6379689286,
				"y": -1.5955281207,
				"z": 0.4822566652,
				"element": "H" 
			},
			{
				"x": -1.7277498315,
				"y": -0.6775603936,
				"z": 1.6881818653,
				"element": "H" 
			},
			{
				"x": -1.9715923266,
				"y": 0.7206724498,
				"z": -0.3358427447,
				"element": "H" 
			},
			{
				"x": -1.3280889849,
				"y": -0.5685582207,
				"z": -1.3424659977,
				"element": "H" 
			},
			{
				"x": 3.0868025782,
				"y": -0.5610464548,
				"z": 1.335261472,
				"element": "H" 
			},
			{
				"x": 3.7666335286,
				"y": 1.6639500504,
				"z": 0.5223779958,
				"element": "H" 
			},
			{
				"x": 2.1209832319,
				"y": 3.1020946721,
				"z": -0.6829359607,
				"element": "H" 
			},
			{
				"x": -0.1827152495,
				"y": 2.2694211256,
				"z": -1.0626326361,
				"element": "H" 
			}
		],
		 "valence_orbital": [ 
			{
				"type": "occ",
				"energy": -0.31505,
				"method": "rhf"
			},
			{
				"type": "occ",
				"energy": -0.26411,
				"method": "rhf"
			},
			{
				"type": "occ",
				"energy": -0.24247,
				"method": "rhf"
			},
			{
				"type": "occ",
				"energy": -0.23405,
				"method": "rhf"
			},
			{
				"type": "occ",
				"energy": -0.22594,
				"method": "rhf"
			},
			{
				"type": "unocc",
				"energy": -0.00179,
				"method": "rhf"
			},
			{
				"type": "unocc",
				"energy": 0.00462,
				"method": "rhf"
			},
			{
				"type": "unocc",
				"energy": 0.07336,
				"method": "rhf"
			},
			{
				"type": "unocc",
				"energy": 0.10089,
				"method": "rhf"
			},
			{
				"type": "unocc",
				"energy": 0.11225,
				"method": "rhf"
			}
		],
		"cosmo_sigma_profile": { 
			"-0.025": 0.0,
			"-0.024": 0.0,
			"-0.023": 0.0,
			"-0.022": 0.0,
			"-0.021": 0.0,
			"-0.02": 0.0,
			"-0.019": 0.0,
			"-0.018": 0.0,
			"-0.017": 0.0,
			"-0.016": 0.0,
			"-0.015": 0.0,
			"-0.014": 0.0,
			"-0.013": 0.0,
			"-0.012": 0.0,
			"-0.011": 0.512518624727,
			"-0.01": 1.83760954693,
			"-0.009": 2.49766415846,
			"-0.008": 1.53456227012,
			"-0.007": 2.47848800946,
			"-0.006": 4.67414385685,
			"-0.005": 14.4346580628,
			"-0.004": 21.0653512319,
			"-0.003": 24.2928334177,
			"-0.002": 22.0956504935,
			"-0.001": 18.8146121517,
			"0.0": 14.1011073579,
			"0.001": 9.75536680179,
			"0.002": 8.42633793306,
			"0.003": 8.61442515585,
			"0.004": 8.97601816289,
			"0.005": 8.94229315835,
			"0.006": 9.49904468505,
			"0.007": 6.85263769576,
			"0.008": 1.74764947261,
			"0.009": 2.10320984258,
			"0.01": 1.39028555678,
			"0.011": 1.5552375049,
			"0.012": 2.02627430401,
			"0.013": 1.60969747971,
			"0.014": 2.27302621133,
			"0.015": 1.0391780692,
			"0.016": 0.0,
			"0.017": 0.0,
			"0.018": 0.0,
			"0.019": 0.0,
			"0.02": 0.0,
			"0.021": 0.0,
			"0.022": 0.0,
			"0.023": 0.0,
			"0.024": 0.0,
			"0.025": 0.0
		}
	}
}
