{
	 "smiles": "CC12CCC3C(CCC4CC(O)CCC34C)C1CC[C@@]2(O)C#CC1=CC=CC=C1", 
	 "Tm": 395.15, 
	 "num_atms": 65, 
	 "gaussian": { 
		 "optdone": 1, 
		 "sigma_profile": "yes", 
		 "theory": "DFT", 
		 "functional": "B3LYP", 
		 "basiset": "6-31G**", 
		 "properties": { 
			 "R2extent": 18123.3658, 
			 "electric_dipole_moment_norm": 2.77789564599, 
			 "electric_quadrupole_moment_norm": 8.81617988587, 
			 "total_energy": -1200.96991067, 
			 "HOMO_LUMO_gap": 0.19512, 
			 "cosmo_polarized_energy": -12.89, 
			 "cosmo_cavitation_energy": 57.27, 
			 "cosmo_dispersion_energy": -39.79, 
			 "cosmo_repulsion_energy": 2.93, 
			 "cosmo_total_nonelectrostatic_energy": 20.42, 
			 "SMD_solvation_energy": 8.04 
		},
		"coords": [
			{
				"x": 0.9168972296,
				"y": 0.093583979,
				"z": 2.8812594866,
				"element": "C" 
			},
			{
				"x": 1.6158861952,
				"y": 0.1914883414,
				"z": 1.5159868414,
				"element": "C" 
			},
			{
				"x": 0.9382110743,
				"y": 1.2711026785,
				"z": 0.6403086504,
				"element": "C" 
			},
			{
				"x": -0.4277638852,
				"y": 0.8220874841,
				"z": 0.1020486347,
				"element": "C" 
			},
			{
				"x": -0.3273333191,
				"y": -0.4534307445,
				"z": -0.760147606,
				"element": "C" 
			},
			{
				"x": 0.3836409023,
				"y": -1.6018981639,
				"z": 0.0066161533,
				"element": "C" 
			},
			{
				"x": -0.6313555178,
				"y": -2.3478339522,
				"z": 0.8812736333,
				"element": "C" 
			},
			{
				"x": -1.6628775043,
				"y": -3.0790077705,
				"z": -0.0036333815,
				"element": "C" 
			},
			{
				"x": -1.8460908661,
				"y": -2.4521278313,
				"z": -1.4159383956,
				"element": "C" 
			},
			{
				"x": -3.1763076151,
				"y": -2.9247686143,
				"z": -2.0503948049,
				"element": "C" 
			},
			{
				"x": -4.4422598582,
				"y": -2.2562509262,
				"z": -1.493826851,
				"element": "C" 
			},
			{
				"x": -4.7304118975,
				"y": -2.8417175259,
				"z": -0.2172062833,
				"element": "O" 
			},
			{
				"x": -4.2792896715,
				"y": -0.7329513507,
				"z": -1.388883839,
				"element": "C" 
			},
			{
				"x": -2.9579584661,
				"y": -0.3050318972,
				"z": -0.7271677595,
				"element": "C" 
			},
			{
				"x": -1.7038647769,
				"y": -0.8965950566,
				"z": -1.4322047832,
				"element": "C" 
			},
			{
				"x": -1.6450796717,
				"y": -0.3824690599,
				"z": -2.890544345,
				"element": "C" 
			},
			{
				"x": 1.6754123926,
				"y": -1.1514492218,
				"z": 0.7318026708,
				"element": "C" 
			},
			{
				"x": 2.8829122874,
				"y": -0.990706322,
				"z": -0.2370058427,
				"element": "C" 
			},
			{
				"x": 3.7870805043,
				"y": 0.1206745957,
				"z": 0.3478046318,
				"element": "C" 
			},
			{
				"x": 3.1493830271,
				"y": 0.5048057778,
				"z": 1.7042823307,
				"element": "C" 
			},
			{
				"x": 3.7326879399,
				"y": -0.4044540929,
				"z": 2.6572568963,
				"element": "O" 
			},
			{
				"x": 3.4198408477,
				"y": 1.8876189165,
				"z": 2.1209756351,
				"element": "C" 
			},
			{
				"x": 3.6424379198,
				"y": 3.0144844044,
				"z": 2.5153087265,
				"element": "C" 
			},
			{
				"x": 3.9242866296,
				"y": 4.3410099246,
				"z": 2.9673020123,
				"element": "C" 
			},
			{
				"x": 2.8848243725,
				"y": 5.2734497556,
				"z": 3.1524086028,
				"element": "C" 
			},
			{
				"x": 3.1661312345,
				"y": 6.5643136972,
				"z": 3.5930892603,
				"element": "C" 
			},
			{
				"x": 4.4833031545,
				"y": 6.9471141651,
				"z": 3.8579571437,
				"element": "C" 
			},
			{
				"x": 5.5215815117,
				"y": 6.0297246899,
				"z": 3.6784748909,
				"element": "C" 
			},
			{
				"x": 5.2490948608,
				"y": 4.7374103888,
				"z": 3.2366614514,
				"element": "C" 
			},
			{
				"x": -0.1606464248,
				"y": -0.0516337862,
				"z": 2.7802057403,
				"element": "H" 
			},
			{
				"x": 1.3010980734,
				"y": -0.7482206975,
				"z": 3.4648528665,
				"element": "H" 
			},
			{
				"x": 1.0683891684,
				"y": 1.0155011796,
				"z": 3.4565261669,
				"element": "H" 
			},
			{
				"x": 0.8287810221,
				"y": 2.1960784433,
				"z": 1.2179410783,
				"element": "H" 
			},
			{
				"x": 1.582977212,
				"y": 1.5221313145,
				"z": -0.2110553536,
				"element": "H" 
			},
			{
				"x": -0.8514312603,
				"y": 1.6377854834,
				"z": -0.4962811647,
				"element": "H" 
			},
			{
				"x": -1.1202393789,
				"y": 0.6730154902,
				"z": 0.937489782,
				"element": "H" 
			},
			{
				"x": 0.3376198326,
				"y": -0.1872905142,
				"z": -1.5929414991,
				"element": "H" 
			},
			{
				"x": 0.7244523578,
				"y": -2.3303750245,
				"z": -0.7440467421,
				"element": "H" 
			},
			{
				"x": -1.1420857045,
				"y": -1.6439182469,
				"z": 1.5492940959,
				"element": "H" 
			},
			{
				"x": -0.1204717072,
				"y": -3.0641330835,
				"z": 1.5359930503,
				"element": "H" 
			},
			{
				"x": -1.3463198869,
				"y": -4.119441853,
				"z": -0.1526452956,
				"element": "H" 
			},
			{
				"x": -2.6270184356,
				"y": -3.1270686304,
				"z": 0.5042903933,
				"element": "H" 
			},
			{
				"x": -1.0443254953,
				"y": -2.8447730145,
				"z": -2.0565078926,
				"element": "H" 
			},
			{
				"x": -3.1560294906,
				"y": -2.7417253653,
				"z": -3.1309774175,
				"element": "H" 
			},
			{
				"x": -3.2787140351,
				"y": -4.0090055685,
				"z": -1.9238076624,
				"element": "H" 
			},
			{
				"x": -5.2760156373,
				"y": -2.476600548,
				"z": -2.1811547749,
				"element": "H" 
			},
			{
				"x": -5.5056829677,
				"y": -2.3913639279,
				"z": 0.1427971662,
				"element": "H" 
			},
			{
				"x": -5.1269723276,
				"y": -0.3187946652,
				"z": -0.8240377029,
				"element": "H" 
			},
			{
				"x": -4.3591150983,
				"y": -0.3014595786,
				"z": -2.3935096591,
				"element": "H" 
			},
			{
				"x": -2.9131855522,
				"y": 0.7886938524,
				"z": -0.7191242996,
				"element": "H" 
			},
			{
				"x": -2.9773147,
				"y": -0.6246483319,
				"z": 0.3205809898,
				"element": "H" 
			},
			{
				"x": -0.8045487105,
				"y": -0.8411772044,
				"z": -3.4233994653,
				"element": "H" 
			},
			{
				"x": -2.5478416027,
				"y": -0.591583737,
				"z": -3.4692818452,
				"element": "H" 
			},
			{
				"x": -1.4924277746,
				"y": 0.7034132794,
				"z": -2.9068731507,
				"element": "H" 
			},
			{
				"x": 1.9411600804,
				"y": -1.9322957477,
				"z": 1.4536551031,
				"element": "H" 
			},
			{
				"x": 2.5431608026,
				"y": -0.7161123135,
				"z": -1.2413163068,
				"element": "H" 
			},
			{
				"x": 3.4180337152,
				"y": -1.939412189,
				"z": -0.3392409394,
				"element": "H" 
			},
			{
				"x": 4.8138593418,
				"y": -0.2041431566,
				"z": 0.5299441337,
				"element": "H" 
			},
			{
				"x": 3.830097126,
				"y": 0.9932472353,
				"z": -0.3082502942,
				"element": "H" 
			},
			{
				"x": 3.4478739482,
				"y": -0.1253998226,
				"z": 3.5375127545,
				"element": "H" 
			},
			{
				"x": 1.8624322778,
				"y": 4.9727114156,
				"z": 2.9467812938,
				"element": "H" 
			},
			{
				"x": 2.3551046559,
				"y": 7.273662895,
				"z": 3.7310114121,
				"element": "H" 
			},
			{
				"x": 4.6993658772,
				"y": 7.9543077549,
				"z": 4.2022123895,
				"element": "H" 
			},
			{
				"x": 6.5475340947,
				"y": 6.3222809648,
				"z": 3.8828105122,
				"element": "H" 
			},
			{
				"x": 6.05292757,
				"y": 4.0221714295,
				"z": 3.0949887767,
				"element": "H" 
			}
		],
		 "valence_orbital": [ 
			{
				"type": "occ",
				"energy": -0.26285,
				"method": "rhf"
			},
			{
				"type": "occ",
				"energy": -0.25534,
				"method": "rhf"
			},
			{
				"type": "occ",
				"energy": -0.25461,
				"method": "rhf"
			},
			{
				"type": "occ",
				"energy": -0.2515,
				"method": "rhf"
			},
			{
				"type": "occ",
				"energy": -0.22363,
				"method": "rhf"
			},
			{
				"type": "unocc",
				"energy": -0.02851,
				"method": "rhf"
			},
			{
				"type": "unocc",
				"energy": -0.00352,
				"method": "rhf"
			},
			{
				"type": "unocc",
				"energy": 0.05007,
				"method": "rhf"
			},
			{
				"type": "unocc",
				"energy": 0.06199,
				"method": "rhf"
			},
			{
				"type": "unocc",
				"energy": 0.06882,
				"method": "rhf"
			}
		],
		"cosmo_sigma_profile": { 
			"-0.025": 0.0,
			"-0.024": 0.0,
			"-0.023": 0.0,
			"-0.022": 0.0,
			"-0.021": 0.0,
			"-0.02": 0.0,
			"-0.019": 0.0,
			"-0.018": 0.0,
			"-0.017": 0.0,
			"-0.016": 0.0,
			"-0.015": 0.26650045248,
			"-0.014": 1.71687505805,
			"-0.013": 1.60328366879,
			"-0.012": 1.56440578635,
			"-0.011": 1.53266360655,
			"-0.01": 1.39106278477,
			"-0.009": 1.70148551571,
			"-0.008": 2.80762370115,
			"-0.007": 2.01470755652,
			"-0.006": 10.2928624648,
			"-0.005": 13.1730291631,
			"-0.004": 18.0827231432,
			"-0.003": 28.1153999766,
			"-0.002": 52.6351865623,
			"-0.001": 63.9633268947,
			"0.0": 68.8808051707,
			"0.001": 53.0162581405,
			"0.002": 31.9298123815,
			"0.003": 22.8593599839,
			"0.004": 20.2011443166,
			"0.005": 17.333150682,
			"0.006": 7.11090163172,
			"0.007": 3.81696482552,
			"0.008": 3.27526728699,
			"0.009": 2.80297284716,
			"0.01": 1.92448015872,
			"0.011": 2.49129159564,
			"0.012": 2.472732017,
			"0.013": 1.9912290795,
			"0.014": 1.60149551828,
			"0.015": 0.483852685394,
			"0.016": 0.0,
			"0.017": 0.0,
			"0.018": 0.0,
			"0.019": 0.0,
			"0.02": 0.0,
			"0.021": 0.0,
			"0.022": 0.0,
			"0.023": 0.0,
			"0.024": 0.0,
			"0.025": 0.0
		}
	}
}
