{
	 "smiles": "CC1=CC=C(C=C1)S(=O)(=O)N(Cl)Cl", 
	 "Tm": 356.15, 
	 "num_atms": 20, 
	 "gaussian": { 
		 "optdone": 1, 
		 "sigma_profile": "yes", 
		 "theory": "DFT", 
		 "functional": "B3LYP", 
		 "basiset": "6-31G**", 
		 "properties": { 
			 "R2extent": 4820.531, 
			 "electric_dipole_moment_norm": 5.7172978635, 
			 "electric_quadrupole_moment_norm": 13.5171927278, 
			 "total_energy": -1794.57743622, 
			 "HOMO_LUMO_gap": 0.17437, 
			 "cosmo_polarized_energy": -9.92, 
			 "cosmo_cavitation_energy": 29.45, 
			 "cosmo_dispersion_energy": -21.58, 
			 "cosmo_repulsion_energy": 1.67, 
			 "cosmo_total_nonelectrostatic_energy": 9.54, 
			 "SMD_solvation_energy": 3.43 
		},
		"coords": [
			{
				"x": 3.2731600387,
				"y": 1.0652914624,
				"z": -2.9374235424,
				"element": "C" 
			},
			{
				"x": 2.5936568369,
				"y": 0.7185980897,
				"z": -1.6357722481,
				"element": "C" 
			},
			{
				"x": 1.3009947112,
				"y": 0.1697571841,
				"z": -1.6300932813,
				"element": "C" 
			},
			{
				"x": 0.6734540757,
				"y": -0.1827174407,
				"z": -0.4398456396,
				"element": "C" 
			},
			{
				"x": 1.3529069752,
				"y": 0.0287757185,
				"z": 0.7632180148,
				"element": "C" 
			},
			{
				"x": 2.6378919246,
				"y": 0.5721625278,
				"z": 0.7946274227,
				"element": "C" 
			},
			{
				"x": 3.2479634519,
				"y": 0.9121898584,
				"z": -0.4104390858,
				"element": "C" 
			},
			{
				"x": 0.5746840278,
				"y": -0.4519324446,
				"z": 2.2897563379,
				"element": "S" 
			},
			{
				"x": 1.536198671,
				"y": -0.3764018133,
				"z": 3.3861118416,
				"element": "O" 
			},
			{
				"x": -0.2752493225,
				"y": -1.6180110507,
				"z": 2.0741562148,
				"element": "O" 
			},
			{
				"x": -0.662566046,
				"y": 0.9119634096,
				"z": 2.3833662436,
				"element": "N" 
			},
			{
				"x": 0.1641828298,
				"y": 2.4477337246,
				"z": 2.7402083119,
				"element": "Cl" 
			},
			{
				"x": -1.8009387237,
				"y": 0.5339132272,
				"z": 3.6935435608,
				"element": "Cl" 
			},
			{
				"x": 4.050057804,
				"y": 1.8212229933,
				"z": -2.7954976834,
				"element": "H" 
			},
			{
				"x": 3.7516815195,
				"y": 0.1794698166,
				"z": -3.3730062736,
				"element": "H" 
			},
			{
				"x": 2.5573484042,
				"y": 1.4422436862,
				"z": -3.6737078553,
				"element": "H" 
			},
			{
				"x": 0.7814242339,
				"y": 0.0145299073,
				"z": -2.5715168078,
				"element": "H" 
			},
			{
				"x": -0.320396954,
				"y": -0.6160803923,
				"z": -0.4375802249,
				"element": "H" 
			},
			{
				"x": 3.1413985429,
				"y": 0.718598467,
				"z": 1.7434215367,
				"element": "H" 
			},
			{
				"x": 4.248446999,
				"y": 1.335293069,
				"z": -0.3989268426,
				"element": "H" 
			}
		],
		 "valence_orbital": [ 
			{
				"type": "occ",
				"energy": -0.32312,
				"method": "rhf"
			},
			{
				"type": "occ",
				"energy": -0.31669,
				"method": "rhf"
			},
			{
				"type": "occ",
				"energy": -0.28295,
				"method": "rhf"
			},
			{
				"type": "occ",
				"energy": -0.279,
				"method": "rhf"
			},
			{
				"type": "occ",
				"energy": -0.2718,
				"method": "rhf"
			},
			{
				"type": "unocc",
				"energy": -0.09743,
				"method": "rhf"
			},
			{
				"type": "unocc",
				"energy": -0.05696,
				"method": "rhf"
			},
			{
				"type": "unocc",
				"energy": -0.03451,
				"method": "rhf"
			},
			{
				"type": "unocc",
				"energy": -0.02901,
				"method": "rhf"
			},
			{
				"type": "unocc",
				"energy": 0.00947,
				"method": "rhf"
			}
		],
		"cosmo_sigma_profile": { 
			"-0.025": 0.0,
			"-0.024": 0.0,
			"-0.023": 0.0,
			"-0.022": 0.0,
			"-0.021": 0.0,
			"-0.02": 0.0,
			"-0.019": 0.0,
			"-0.018": 0.0,
			"-0.017": 0.0,
			"-0.016": 0.0,
			"-0.015": 0.0,
			"-0.014": 0.0,
			"-0.013": 0.0,
			"-0.012": 0.0,
			"-0.011": 0.0,
			"-0.01": 0.0,
			"-0.009": 0.076460908414,
			"-0.008": 2.48792211455,
			"-0.007": 7.91286681876,
			"-0.006": 12.7710911433,
			"-0.005": 16.30305906,
			"-0.004": 15.1562424562,
			"-0.003": 16.1630179128,
			"-0.002": 17.1449945391,
			"-0.001": 20.6416749821,
			"0.0": 20.760487011,
			"0.001": 25.4232134407,
			"0.002": 32.54110392,
			"0.003": 14.3440496022,
			"0.004": 6.76746994785,
			"0.005": 4.49696295076,
			"0.006": 4.23138005946,
			"0.007": 4.51787848141,
			"0.008": 8.857125871,
			"0.009": 8.54693075768,
			"0.01": 1.1423986708,
			"0.011": 0.0,
			"0.012": 0.0,
			"0.013": 0.0,
			"0.014": 0.0,
			"0.015": 0.0,
			"0.016": 0.0,
			"0.017": 0.0,
			"0.018": 0.0,
			"0.019": 0.0,
			"0.02": 0.0,
			"0.021": 0.0,
			"0.022": 0.0,
			"0.023": 0.0,
			"0.024": 0.0,
			"0.025": 0.0
		}
	}
}
