{
	 "smiles": "ClC1=CC(NC2CCCCC2)=C(C=C1)C#N", 
	 "Tm": 348.15, 
	 "num_atms": 31, 
	 "gaussian": { 
		 "optdone": 1, 
		 "sigma_profile": "yes", 
		 "theory": "DFT", 
		 "functional": "B3LYP", 
		 "basiset": "6-31G**", 
		 "properties": { 
			 "R2extent": 5034.7065, 
			 "electric_dipole_moment_norm": 3.21189346959, 
			 "electric_quadrupole_moment_norm": 20.9648690909, 
			 "total_energy": -1074.1154202, 
			 "HOMO_LUMO_gap": 0.16743, 
			 "cosmo_polarized_energy": -9.33, 
			 "cosmo_cavitation_energy": 34.77, 
			 "cosmo_dispersion_energy": -24.65, 
			 "cosmo_repulsion_energy": 1.95, 
			 "cosmo_total_nonelectrostatic_energy": 12.06, 
			 "SMD_solvation_energy": 5.33 
		},
		"coords": [
			{
				"x": 2.9896059353,
				"y": 1.0783828446,
				"z": -0.2992454419,
				"element": "Cl" 
			},
			{
				"x": 1.4114829031,
				"y": 1.1587644583,
				"z": 0.4690221278,
				"element": "C" 
			},
			{
				"x": 0.5366300843,
				"y": 0.0958698984,
				"z": 0.2859584729,
				"element": "C" 
			},
			{
				"x": -0.742619411,
				"y": 0.1180491762,
				"z": 0.884999008,
				"element": "C" 
			},
			{
				"x": -1.6591877882,
				"y": -0.8871368423,
				"z": 0.75527114,
				"element": "N" 
			},
			{
				"x": -1.5706908725,
				"y": -2.1279188975,
				"z": -0.0208858622,
				"element": "C" 
			},
			{
				"x": -0.5024649647,
				"y": -3.1209663002,
				"z": 0.4787494266,
				"element": "C" 
			},
			{
				"x": -0.7063208334,
				"y": -4.506776882,
				"z": -0.1781481232,
				"element": "C" 
			},
			{
				"x": -1.2077683893,
				"y": -4.4087522382,
				"z": -1.6428458186,
				"element": "C" 
			},
			{
				"x": -0.8023386951,
				"y": -3.0754319405,
				"z": -2.285377289,
				"element": "C" 
			},
			{
				"x": -1.4591350544,
				"y": -1.8851466553,
				"z": -1.5536613355,
				"element": "C" 
			},
			{
				"x": -1.0743652776,
				"y": 1.2677600532,
				"z": 1.6704623116,
				"element": "C" 
			},
			{
				"x": -0.1599318126,
				"y": 2.3184015568,
				"z": 1.8320606971,
				"element": "C" 
			},
			{
				"x": 1.0931465998,
				"y": 2.2828395794,
				"z": 1.2360592834,
				"element": "C" 
			},
			{
				"x": -2.3579323868,
				"y": 1.3285736844,
				"z": 2.2900985722,
				"element": "C" 
			},
			{
				"x": -3.4203814814,
				"y": 1.3196019023,
				"z": 2.7701034014,
				"element": "N" 
			},
			{
				"x": 0.8501962697,
				"y": -0.7442263549,
				"z": -0.3155109713,
				"element": "H" 
			},
			{
				"x": -2.5315064267,
				"y": -0.7346733693,
				"z": 1.240544382,
				"element": "H" 
			},
			{
				"x": -2.5365692514,
				"y": -2.6120475956,
				"z": 0.1642327763,
				"element": "H" 
			},
			{
				"x": -0.5603258788,
				"y": -3.2002501527,
				"z": 1.5691098513,
				"element": "H" 
			},
			{
				"x": 0.5011343756,
				"y": -2.7483085738,
				"z": 0.2504481283,
				"element": "H" 
			},
			{
				"x": -1.4198217927,
				"y": -5.0928607804,
				"z": 0.4129068041,
				"element": "H" 
			},
			{
				"x": 0.2417097659,
				"y": -5.0547551717,
				"z": -0.1425119547,
				"element": "H" 
			},
			{
				"x": -2.3022380173,
				"y": -4.4932437907,
				"z": -1.6702677665,
				"element": "H" 
			},
			{
				"x": -0.8252108747,
				"y": -5.2513797147,
				"z": -2.2285535189,
				"element": "H" 
			},
			{
				"x": 0.2908368228,
				"y": -2.9782731413,
				"z": -2.2533083764,
				"element": "H" 
			},
			{
				"x": -1.0774292634,
				"y": -3.0552771502,
				"z": -3.3454788171,
				"element": "H" 
			},
			{
				"x": -0.8943454252,
				"y": -0.9689460883,
				"z": -1.7490456639,
				"element": "H" 
			},
			{
				"x": -2.4663318621,
				"y": -1.7098022848,
				"z": -1.9488547896,
				"element": "H" 
			},
			{
				"x": -0.4500512327,
				"y": 3.1713043423,
				"z": 2.4368438561,
				"element": "H" 
			},
			{
				"x": 1.8017242353,
				"y": 3.0921264284,
				"z": 1.3579254898,
				"element": "H" 
			}
		],
		 "valence_orbital": [ 
			{
				"type": "occ",
				"energy": -0.32004,
				"method": "rhf"
			},
			{
				"type": "occ",
				"energy": -0.31179,
				"method": "rhf"
			},
			{
				"type": "occ",
				"energy": -0.30271,
				"method": "rhf"
			},
			{
				"type": "occ",
				"energy": -0.25734,
				"method": "rhf"
			},
			{
				"type": "occ",
				"energy": -0.21502,
				"method": "rhf"
			},
			{
				"type": "unocc",
				"energy": -0.04759,
				"method": "rhf"
			},
			{
				"type": "unocc",
				"energy": -0.00794,
				"method": "rhf"
			},
			{
				"type": "unocc",
				"energy": 0.01952,
				"method": "rhf"
			},
			{
				"type": "unocc",
				"energy": 0.0308,
				"method": "rhf"
			},
			{
				"type": "unocc",
				"energy": 0.0588,
				"method": "rhf"
			}
		],
		"cosmo_sigma_profile": { 
			"-0.025": 0.0,
			"-0.024": 0.0,
			"-0.023": 0.0,
			"-0.022": 0.0,
			"-0.021": 0.0,
			"-0.02": 0.0,
			"-0.019": 0.0,
			"-0.018": 0.0,
			"-0.017": 0.0,
			"-0.016": 0.0,
			"-0.015": 0.0,
			"-0.014": 0.0,
			"-0.013": 0.200507956463,
			"-0.012": 0.665707538483,
			"-0.011": 0.983649009731,
			"-0.01": 0.871032393949,
			"-0.009": 1.42084539324,
			"-0.008": 2.60874294562,
			"-0.007": 6.57856013048,
			"-0.006": 8.51582231094,
			"-0.005": 9.11007469431,
			"-0.004": 9.80774635208,
			"-0.003": 19.9128416923,
			"-0.002": 33.9171122934,
			"-0.001": 34.3088170016,
			"0.0": 34.2926288526,
			"0.001": 36.1732975592,
			"0.002": 23.0623790501,
			"0.003": 16.1058044861,
			"0.004": 12.3895591281,
			"0.005": 5.51156745048,
			"0.006": 2.60228295222,
			"0.007": 1.80648067832,
			"0.008": 2.57991273613,
			"0.009": 3.11404850992,
			"0.01": 3.25692521369,
			"0.011": 2.51949413377,
			"0.012": 2.74350957063,
			"0.013": 1.93632959649,
			"0.014": 0.128695382785,
			"0.015": 0.0,
			"0.016": 0.0,
			"0.017": 0.0,
			"0.018": 0.0,
			"0.019": 0.0,
			"0.02": 0.0,
			"0.021": 0.0,
			"0.022": 0.0,
			"0.023": 0.0,
			"0.024": 0.0,
			"0.025": 0.0
		}
	}
}
