{
	 "smiles": "CCOC(=O)C1=C2CN(C)C(=O)C3=CC(F)=CC=C3N2C=N1", 
	 "Tm": 475.15, 
	 "num_atms": 36, 
	 "gaussian": { 
		 "optdone": 1, 
		 "sigma_profile": "yes", 
		 "theory": "DFT", 
		 "functional": "B3LYP", 
		 "basiset": "6-31G**", 
		 "properties": { 
			 "R2extent": 8129.556, 
			 "electric_dipole_moment_norm": 3.70259335196, 
			 "electric_quadrupole_moment_norm": 36.948116623, 
			 "total_energy": -1069.81557791, 
			 "HOMO_LUMO_gap": 0.18667, 
			 "cosmo_polarized_energy": -21.55, 
			 "cosmo_cavitation_energy": 40.41, 
			 "cosmo_dispersion_energy": -27.92, 
			 "cosmo_repulsion_energy": 2.07, 
			 "cosmo_total_nonelectrostatic_energy": 14.56, 
			 "SMD_solvation_energy": 7.47 
		},
		"coords": [
			{
				"x": -2.265052194,
				"y": -1.0415536702,
				"z": -4.623200088,
				"element": "C" 
			},
			{
				"x": -2.5956602255,
				"y": 0.0523501429,
				"z": -3.6188939285,
				"element": "C" 
			},
			{
				"x": -1.5016710971,
				"y": 0.2740344386,
				"z": -2.6962019733,
				"element": "O" 
			},
			{
				"x": -0.5189593252,
				"y": 1.1200822213,
				"z": -3.1267272949,
				"element": "C" 
			},
			{
				"x": -0.5426765611,
				"y": 1.6803391096,
				"z": -4.1998319969,
				"element": "O" 
			},
			{
				"x": 0.5521018849,
				"y": 1.2628789132,
				"z": -2.1202210514,
				"element": "C" 
			},
			{
				"x": 0.7040986353,
				"y": 0.6329298298,
				"z": -0.8961693016,
				"element": "C" 
			},
			{
				"x": -0.0782223755,
				"y": -0.3407340084,
				"z": -0.0809039871,
				"element": "C" 
			},
			{
				"x": -0.609009002,
				"y": 0.2928298112,
				"z": 1.1306229322,
				"element": "N" 
			},
			{
				"x": -2.0455342683,
				"y": 0.5406672394,
				"z": 1.1980109258,
				"element": "C" 
			},
			{
				"x": 0.1926851268,
				"y": 0.6884060525,
				"z": 2.1663614393,
				"element": "C" 
			},
			{
				"x": -0.2552100711,
				"y": 1.1452841371,
				"z": 3.2156901794,
				"element": "O" 
			},
			{
				"x": 1.6938744908,
				"y": 0.5167732195,
				"z": 2.0233097729,
				"element": "C" 
			},
			{
				"x": 2.3582724048,
				"y": 0.1970453424,
				"z": 3.2154104764,
				"element": "C" 
			},
			{
				"x": 3.7388908331,
				"y": 0.0931375588,
				"z": 3.2407635515,
				"element": "C" 
			},
			{
				"x": 4.352113883,
				"y": -0.2276549928,
				"z": 4.394637895,
				"element": "F" 
			},
			{
				"x": 4.5108640125,
				"y": 0.3133534741,
				"z": 2.1044755905,
				"element": "C" 
			},
			{
				"x": 3.8648635366,
				"y": 0.6407380321,
				"z": 0.9182854,
				"element": "C" 
			},
			{
				"x": 2.4680003044,
				"y": 0.7538776099,
				"z": 0.8663145676,
				"element": "C" 
			},
			{
				"x": 1.8767948352,
				"y": 1.1357237417,
				"z": -0.3692180342,
				"element": "N" 
			},
			{
				"x": 2.3689822626,
				"y": 2.0383995681,
				"z": -1.295216554,
				"element": "C" 
			},
			{
				"x": 1.6027398171,
				"y": 2.1316431521,
				"z": -2.3474150854,
				"element": "N" 
			},
			{
				"x": -3.1346611661,
				"y": -1.2362915653,
				"z": -5.2597743368,
				"element": "H" 
			},
			{
				"x": -1.4340773733,
				"y": -0.7349421956,
				"z": -5.2626876036,
				"element": "H" 
			},
			{
				"x": -1.9974286452,
				"y": -1.9727560776,
				"z": -4.1145787242,
				"element": "H" 
			},
			{
				"x": -2.8234866216,
				"y": 0.9935039039,
				"z": -4.1241601082,
				"element": "H" 
			},
			{
				"x": -3.4368708437,
				"y": -0.2299549314,
				"z": -2.9807711693,
				"element": "H" 
			},
			{
				"x": -0.9126631741,
				"y": -0.7154445888,
				"z": -0.6689319499,
				"element": "H" 
			},
			{
				"x": 0.5515201029,
				"y": -1.1960399273,
				"z": 0.1957197461,
				"element": "H" 
			},
			{
				"x": -2.2479633834,
				"y": 1.133900403,
				"z": 2.0880987055,
				"element": "H" 
			},
			{
				"x": -2.3727921446,
				"y": 1.0819437114,
				"z": 0.3041826992,
				"element": "H" 
			},
			{
				"x": -2.601028076,
				"y": -0.4026656459,
				"z": 1.2619718534,
				"element": "H" 
			},
			{
				"x": 1.7794513482,
				"y": 0.059280557,
				"z": 4.1206624452,
				"element": "H" 
			},
			{
				"x": 5.5897131737,
				"y": 0.2181851647,
				"z": 2.1543851728,
				"element": "H" 
			},
			{
				"x": 4.4435446256,
				"y": 0.7958397996,
				"z": 0.014278971,
				"element": "H" 
			},
			{
				"x": 3.2707552702,
				"y": 2.6054904692,
				"z": -1.1121791367,
				"element": "H" 
			}
		],
		 "valence_orbital": [ 
			{
				"type": "occ",
				"energy": -0.27278,
				"method": "rhf"
			},
			{
				"type": "occ",
				"energy": -0.2625,
				"method": "rhf"
			},
			{
				"type": "occ",
				"energy": -0.26122,
				"method": "rhf"
			},
			{
				"type": "occ",
				"energy": -0.25188,
				"method": "rhf"
			},
			{
				"type": "occ",
				"energy": -0.24308,
				"method": "rhf"
			},
			{
				"type": "unocc",
				"energy": -0.05641,
				"method": "rhf"
			},
			{
				"type": "unocc",
				"energy": -0.04398,
				"method": "rhf"
			},
			{
				"type": "unocc",
				"energy": -0.01864,
				"method": "rhf"
			},
			{
				"type": "unocc",
				"energy": 0.01747,
				"method": "rhf"
			},
			{
				"type": "unocc",
				"energy": 0.03751,
				"method": "rhf"
			}
		],
		"cosmo_sigma_profile": { 
			"-0.025": 0.0,
			"-0.024": 0.0,
			"-0.023": 0.0,
			"-0.022": 0.0,
			"-0.021": 0.0,
			"-0.02": 0.0,
			"-0.019": 0.0,
			"-0.018": 0.0,
			"-0.017": 0.0,
			"-0.016": 0.0,
			"-0.015": 0.0,
			"-0.014": 0.0,
			"-0.013": 0.0,
			"-0.012": 0.0,
			"-0.011": 0.0575133954295,
			"-0.01": 2.07438907488,
			"-0.009": 4.64630342052,
			"-0.008": 6.04820678148,
			"-0.007": 10.1848820127,
			"-0.006": 12.4544540425,
			"-0.005": 18.8834280774,
			"-0.004": 26.7242840382,
			"-0.003": 30.7077114436,
			"-0.002": 34.6831885482,
			"-0.001": 32.9523855548,
			"0.0": 35.2580634083,
			"0.001": 22.2867340503,
			"0.002": 11.3574092532,
			"0.003": 11.0807108103,
			"0.004": 12.6006069219,
			"0.005": 4.42421534439,
			"0.006": 3.62089372505,
			"0.007": 4.3856745391,
			"0.008": 3.94606647332,
			"0.009": 3.71760028221,
			"0.01": 3.46904552425,
			"0.011": 5.44013582159,
			"0.012": 7.16821618292,
			"0.013": 7.64990601091,
			"0.014": 2.54810891362,
			"0.015": 2.02497171463,
			"0.016": 1.51551651121,
			"0.017": 1.00689476214,
			"0.018": 0.0,
			"0.019": 0.0,
			"0.02": 0.0,
			"0.021": 0.0,
			"0.022": 0.0,
			"0.023": 0.0,
			"0.024": 0.0,
			"0.025": 0.0
		}
	}
}
