{
	 "smiles": "BrCCC1CCCCC1", 
	 "Tm": 216.15, 
	 "num_atms": 24, 
	 "gaussian": { 
		 "optdone": 1, 
		 "sigma_profile": "yes", 
		 "theory": "DFT", 
		 "functional": "B3LYP", 
		 "basiset": "6-31G**", 
		 "properties": { 
			 "R2extent": 4111.4461, 
			 "electric_dipole_moment_norm": 2.59216872522, 
			 "electric_quadrupole_moment_norm": 10.1901753719, 
			 "total_energy": -2885.31654758, 
			 "HOMO_LUMO_gap": 0.27025, 
			 "cosmo_polarized_energy": -3.69, 
			 "cosmo_cavitation_energy": 26.36, 
			 "cosmo_dispersion_energy": -19.9, 
			 "cosmo_repulsion_energy": 1.65, 
			 "cosmo_total_nonelectrostatic_energy": 8.11, 
			 "SMD_solvation_energy": 2.19 
		},
		"coords": [
			{
				"x": -0.0599939836,
				"y": -3.9080980692,
				"z": -2.7479371254,
				"element": "Br" 
			},
			{
				"x": -0.2455534167,
				"y": -2.8569212718,
				"z": -1.0742620739,
				"element": "C" 
			},
			{
				"x": -0.0725028854,
				"y": -1.3660973275,
				"z": -1.3263873268,
				"element": "C" 
			},
			{
				"x": -0.2547818686,
				"y": -0.5203124863,
				"z": -0.050086647,
				"element": "C" 
			},
			{
				"x": -0.1933441049,
				"y": 0.9844385559,
				"z": -0.3662916618,
				"element": "C" 
			},
			{
				"x": -0.592162026,
				"y": 1.8421097865,
				"z": 0.8577047744,
				"element": "C" 
			},
			{
				"x": -0.1907299234,
				"y": 1.1784806969,
				"z": 2.1971292476,
				"element": "C" 
			},
			{
				"x": 1.0563233449,
				"y": 0.3032044732,
				"z": 2.0209753377,
				"element": "C" 
			},
			{
				"x": 0.7822712425,
				"y": -0.8717118478,
				"z": 1.0520936936,
				"element": "C" 
			},
			{
				"x": 0.508374271,
				"y": -3.2659803486,
				"z": -0.4030913865,
				"element": "H" 
			},
			{
				"x": -1.2386891433,
				"y": -3.1005194248,
				"z": -0.6949064322,
				"element": "H" 
			},
			{
				"x": 0.9228176645,
				"y": -1.1823073583,
				"z": -1.7496691694,
				"element": "H" 
			},
			{
				"x": -0.7999231948,
				"y": -1.0479134951,
				"z": -2.0818711294,
				"element": "H" 
			},
			{
				"x": -1.2612525147,
				"y": -0.7293732734,
				"z": 0.3438443797,
				"element": "H" 
			},
			{
				"x": -0.8408890864,
				"y": 1.2222059348,
				"z": -1.2183397342,
				"element": "H" 
			},
			{
				"x": 0.8286903398,
				"y": 1.2325465342,
				"z": -0.6833993014,
				"element": "H" 
			},
			{
				"x": -1.6739750104,
				"y": 2.0205251029,
				"z": 0.8491837712,
				"element": "H" 
			},
			{
				"x": -0.1192063149,
				"y": 2.8276475955,
				"z": 0.7732004956,
				"element": "H" 
			},
			{
				"x": -1.0138702602,
				"y": 0.5529516039,
				"z": 2.5668740257,
				"element": "H" 
			},
			{
				"x": -0.0229900876,
				"y": 1.9433848585,
				"z": 2.9633687233,
				"element": "H" 
			},
			{
				"x": 1.8732443065,
				"y": 0.9243665341,
				"z": 1.6313500156,
				"element": "H" 
			},
			{
				"x": 1.4019953827,
				"y": -0.0818711396,
				"z": 2.9867437901,
				"element": "H" 
			},
			{
				"x": 0.4280827333,
				"y": -1.7399140307,
				"z": 1.6211410256,
				"element": "H" 
			},
			{
				"x": 1.7257645355,
				"y": -1.1782416034,
				"z": 0.580732708,
				"element": "H" 
			}
		],
		 "valence_orbital": [ 
			{
				"type": "occ",
				"energy": -0.3043,
				"method": "rhf"
			},
			{
				"type": "occ",
				"energy": -0.30113,
				"method": "rhf"
			},
			{
				"type": "occ",
				"energy": -0.29965,
				"method": "rhf"
			},
			{
				"type": "occ",
				"energy": -0.26628,
				"method": "rhf"
			},
			{
				"type": "occ",
				"energy": -0.26515,
				"method": "rhf"
			},
			{
				"type": "unocc",
				"energy": 0.0051,
				"method": "rhf"
			},
			{
				"type": "unocc",
				"energy": 0.07334,
				"method": "rhf"
			},
			{
				"type": "unocc",
				"energy": 0.09428,
				"method": "rhf"
			},
			{
				"type": "unocc",
				"energy": 0.10481,
				"method": "rhf"
			},
			{
				"type": "unocc",
				"energy": 0.12117,
				"method": "rhf"
			}
		],
		"cosmo_sigma_profile": { 
			"-0.025": 0.0,
			"-0.024": 0.0,
			"-0.023": 0.0,
			"-0.022": 0.0,
			"-0.021": 0.0,
			"-0.02": 0.0,
			"-0.019": 0.0,
			"-0.018": 0.0,
			"-0.017": 0.0,
			"-0.016": 0.0,
			"-0.015": 0.0,
			"-0.014": 0.0,
			"-0.013": 0.0,
			"-0.012": 0.0,
			"-0.011": 0.0,
			"-0.01": 0.0,
			"-0.009": 0.0,
			"-0.008": 0.0,
			"-0.007": 0.335206020722,
			"-0.006": 3.30433809615,
			"-0.005": 4.06691204725,
			"-0.004": 5.80798958161,
			"-0.003": 16.0415225185,
			"-0.002": 35.2381127818,
			"-0.001": 38.4498890833,
			"0.0": 33.2409254186,
			"0.001": 25.5538833659,
			"0.002": 11.8089766667,
			"0.003": 4.06254398029,
			"0.004": 4.47570148953,
			"0.005": 6.17132853075,
			"0.006": 9.26097859024,
			"0.007": 8.24085675351,
			"0.008": 0.0121668851492,
			"0.009": 0.0,
			"0.01": 0.0,
			"0.011": 0.0,
			"0.012": 0.0,
			"0.013": 0.0,
			"0.014": 0.0,
			"0.015": 0.0,
			"0.016": 0.0,
			"0.017": 0.0,
			"0.018": 0.0,
			"0.019": 0.0,
			"0.02": 0.0,
			"0.021": 0.0,
			"0.022": 0.0,
			"0.023": 0.0,
			"0.024": 0.0,
			"0.025": 0.0
		}
	}
}
