{
	 "smiles": "OC(C(O)=O)C1=CC=CC=C1Cl", 
	 "Tm": 393.15, 
	 "num_atms": 19, 
	 "gaussian": { 
		 "optdone": 1, 
		 "sigma_profile": "yes", 
		 "theory": "DFT", 
		 "functional": "B3LYP", 
		 "basiset": "6-31G**", 
		 "properties": { 
			 "R2extent": 2942.304, 
			 "electric_dipole_moment_norm": 3.23572564659, 
			 "electric_quadrupole_moment_norm": 10.8725499056, 
			 "total_energy": -994.935953212, 
			 "HOMO_LUMO_gap": 0.22512, 
			 "cosmo_polarized_energy": -12.89, 
			 "cosmo_cavitation_energy": 25.08, 
			 "cosmo_dispersion_energy": -18.26, 
			 "cosmo_repulsion_energy": 1.46, 
			 "cosmo_total_nonelectrostatic_energy": 8.29, 
			 "SMD_solvation_energy": 5.13 
		},
		"coords": [
			{
				"x": 1.015210457,
				"y": 2.5885842272,
				"z": -1.4712089919,
				"element": "O" 
			},
			{
				"x": 0.9135617557,
				"y": 1.5627645859,
				"z": -0.5170003805,
				"element": "C" 
			},
			{
				"x": 1.1788275568,
				"y": 2.1404560497,
				"z": 0.8769982135,
				"element": "C" 
			},
			{
				"x": 1.0343284737,
				"y": 1.239842248,
				"z": 1.8613008296,
				"element": "O" 
			},
			{
				"x": 1.5362187178,
				"y": 3.2861231278,
				"z": 1.0532687404,
				"element": "O" 
			},
			{
				"x": -0.3978132045,
				"y": 0.7974589644,
				"z": -0.6281850215,
				"element": "C" 
			},
			{
				"x": -0.3659497073,
				"y": -0.5570692875,
				"z": -0.9805418954,
				"element": "C" 
			},
			{
				"x": -1.5326623931,
				"y": -1.3048044167,
				"z": -1.1319053697,
				"element": "C" 
			},
			{
				"x": -2.7710339449,
				"y": -0.6956867397,
				"z": -0.9356284108,
				"element": "C" 
			},
			{
				"x": -2.8351406595,
				"y": 0.6529975126,
				"z": -0.5854539084,
				"element": "C" 
			},
			{
				"x": -1.6576282096,
				"y": 1.3836674489,
				"z": -0.4350050136,
				"element": "C" 
			},
			{
				"x": -1.7993606503,
				"y": 3.0749937282,
				"z": 0.03038471,
				"element": "Cl" 
			},
			{
				"x": 1.2085942254,
				"y": 3.4012785265,
				"z": -0.9734462314,
				"element": "H" 
			},
			{
				"x": 1.7199139337,
				"y": 0.826874582,
				"z": -0.6735847901,
				"element": "H" 
			},
			{
				"x": 1.2486822535,
				"y": 1.6953339423,
				"z": 2.6932150505,
				"element": "H" 
			},
			{
				"x": 0.5999133927,
				"y": -1.0277719167,
				"z": -1.1435783289,
				"element": "H" 
			},
			{
				"x": -1.4730082211,
				"y": -2.3531068795,
				"z": -1.4073430338,
				"element": "H" 
			},
			{
				"x": -3.6895709834,
				"y": -1.26248193,
				"z": -1.054003538,
				"element": "H" 
			},
			{
				"x": -3.7896827925,
				"y": 1.1424462264,
				"z": -0.4266826301,
				"element": "H" 
			}
		],
		 "valence_orbital": [ 
			{
				"type": "occ",
				"energy": -0.31557,
				"method": "rhf"
			},
			{
				"type": "occ",
				"energy": -0.30442,
				"method": "rhf"
			},
			{
				"type": "occ",
				"energy": -0.27843,
				"method": "rhf"
			},
			{
				"type": "occ",
				"energy": -0.26023,
				"method": "rhf"
			},
			{
				"type": "occ",
				"energy": -0.24851,
				"method": "rhf"
			},
			{
				"type": "unocc",
				"energy": -0.02339,
				"method": "rhf"
			},
			{
				"type": "unocc",
				"energy": -0.01808,
				"method": "rhf"
			},
			{
				"type": "unocc",
				"energy": -0.00532,
				"method": "rhf"
			},
			{
				"type": "unocc",
				"energy": 0.03294,
				"method": "rhf"
			},
			{
				"type": "unocc",
				"energy": 0.06395,
				"method": "rhf"
			}
		],
		"cosmo_sigma_profile": { 
			"-0.025": 0.0,
			"-0.024": 0.0,
			"-0.023": 0.0,
			"-0.022": 0.0,
			"-0.021": 0.0,
			"-0.02": 0.0744453586784,
			"-0.019": 0.741243174595,
			"-0.018": 0.900800730145,
			"-0.017": 1.10519862614,
			"-0.016": 1.27670767663,
			"-0.015": 0.345265184645,
			"-0.014": 0.210404353835,
			"-0.013": 1.05076931586,
			"-0.012": 1.23371527294,
			"-0.011": 1.3979642075,
			"-0.01": 0.539774913259,
			"-0.009": 2.10802864503,
			"-0.008": 5.84829341488,
			"-0.007": 8.78141952305,
			"-0.006": 10.3903717517,
			"-0.005": 11.5397368547,
			"-0.004": 10.3929419909,
			"-0.003": 9.60049299959,
			"-0.002": 9.77970000061,
			"-0.001": 9.78222221909,
			"0.0": 10.3834022005,
			"0.001": 15.0552823863,
			"0.002": 15.2531153143,
			"0.003": 18.3505202616,
			"0.004": 19.4271376841,
			"0.005": 6.88333285646,
			"0.006": 4.63177585752,
			"0.007": 5.23869495062,
			"0.008": 4.20885745386,
			"0.009": 3.78399844307,
			"0.01": 4.47220392236,
			"0.011": 2.97645404646,
			"0.012": 1.70584563646,
			"0.013": 1.98958029666,
			"0.014": 0.358769884993,
			"0.015": 0.0,
			"0.016": 0.0,
			"0.017": 0.0,
			"0.018": 0.0,
			"0.019": 0.0,
			"0.02": 0.0,
			"0.021": 0.0,
			"0.022": 0.0,
			"0.023": 0.0,
			"0.024": 0.0,
			"0.025": 0.0
		}
	}
}
