{
	 "smiles": "CC1(C)CCCC1", 
	 "Tm": 203.25, 
	 "num_atms": 21, 
	 "gaussian": { 
		 "optdone": 1, 
		 "sigma_profile": "yes", 
		 "theory": "DFT", 
		 "functional": "B3LYP", 
		 "basiset": "6-31G**", 
		 "properties": { 
			 "R2extent": 1511.8305, 
			 "electric_dipole_moment_norm": 0.0477766679458, 
			 "electric_quadrupole_moment_norm": 0.489165421918, 
			 "total_energy": -275.200140828, 
			 "HOMO_LUMO_gap": 0.37044, 
			 "cosmo_polarized_energy": -0.58, 
			 "cosmo_cavitation_energy": 20.89, 
			 "cosmo_dispersion_energy": -15.55, 
			 "cosmo_repulsion_energy": 1.3, 
			 "cosmo_total_nonelectrostatic_energy": 6.64, 
			 "SMD_solvation_energy": 3.2 
		},
		"coords": [
			{
				"x": 0.7089732076,
				"y": -3.1164572285,
				"z": 0.1761446564,
				"element": "C" 
			},
			{
				"x": -0.2595671216,
				"y": -1.9319208159,
				"z": 0.2880743754,
				"element": "C" 
			},
			{
				"x": 0.4881616062,
				"y": -0.7089380422,
				"z": 0.8554485731,
				"element": "C" 
			},
			{
				"x": -1.499844572,
				"y": -2.2636893597,
				"z": 1.1551338031,
				"element": "C" 
			},
			{
				"x": -2.5885020624,
				"y": -1.2483259315,
				"z": 0.7350471905,
				"element": "C" 
			},
			{
				"x": -2.2143191384,
				"y": -0.8053475128,
				"z": -0.7122048153,
				"element": "C" 
			},
			{
				"x": -0.9255823931,
				"y": -1.5838642469,
				"z": -1.0667181008,
				"element": "C" 
			},
			{
				"x": 1.1255701916,
				"y": -3.3830358145,
				"z": 1.1545944367,
				"element": "H" 
			},
			{
				"x": 1.5502389356,
				"y": -2.8808922135,
				"z": -0.4862558691,
				"element": "H" 
			},
			{
				"x": 0.204924026,
				"y": -4.002913009,
				"z": -0.2255746559,
				"element": "H" 
			},
			{
				"x": 0.8981784924,
				"y": -0.9280487956,
				"z": 1.8480849966,
				"element": "H" 
			},
			{
				"x": 1.3236430491,
				"y": -0.4259533954,
				"z": 0.2047991976,
				"element": "H" 
			},
			{
				"x": -0.1642310656,
				"y": 0.1649316298,
				"z": 0.9535076594,
				"element": "H" 
			},
			{
				"x": -1.2820765309,
				"y": -2.236460093,
				"z": 2.2289204607,
				"element": "H" 
			},
			{
				"x": -1.8315873007,
				"y": -3.2838126624,
				"z": 0.9224963887,
				"element": "H" 
			},
			{
				"x": -2.5965451323,
				"y": -0.3860429112,
				"z": 1.4098485426,
				"element": "H" 
			},
			{
				"x": -3.5889744934,
				"y": -1.688953866,
				"z": 0.786143775,
				"element": "H" 
			},
			{
				"x": -2.0381284293,
				"y": 0.2747254643,
				"z": -0.749002764,
				"element": "H" 
			},
			{
				"x": -3.0167517576,
				"y": -1.0112498231,
				"z": -1.4273399038,
				"element": "H" 
			},
			{
				"x": -1.1837585161,
				"y": -2.5168564118,
				"z": -1.584119352,
				"element": "H" 
			},
			{
				"x": -0.2582209953,
				"y": -1.0244949611,
				"z": -1.7322285949,
				"element": "H" 
			}
		],
		 "valence_orbital": [ 
			{
				"type": "occ",
				"energy": -0.32733,
				"method": "rhf"
			},
			{
				"type": "occ",
				"energy": -0.31178,
				"method": "rhf"
			},
			{
				"type": "occ",
				"energy": -0.30895,
				"method": "rhf"
			},
			{
				"type": "occ",
				"energy": -0.30665,
				"method": "rhf"
			},
			{
				"type": "occ",
				"energy": -0.29681,
				"method": "rhf"
			},
			{
				"type": "unocc",
				"energy": 0.07363,
				"method": "rhf"
			},
			{
				"type": "unocc",
				"energy": 0.10388,
				"method": "rhf"
			},
			{
				"type": "unocc",
				"energy": 0.11744,
				"method": "rhf"
			},
			{
				"type": "unocc",
				"energy": 0.1393,
				"method": "rhf"
			},
			{
				"type": "unocc",
				"energy": 0.1513,
				"method": "rhf"
			}
		],
		"cosmo_sigma_profile": { 
			"-0.025": 0.0,
			"-0.024": 0.0,
			"-0.023": 0.0,
			"-0.022": 0.0,
			"-0.021": 0.0,
			"-0.02": 0.0,
			"-0.019": 0.0,
			"-0.018": 0.0,
			"-0.017": 0.0,
			"-0.016": 0.0,
			"-0.015": 0.0,
			"-0.014": 0.0,
			"-0.013": 0.0,
			"-0.012": 0.0,
			"-0.011": 0.0,
			"-0.01": 0.0,
			"-0.009": 0.0,
			"-0.008": 0.0,
			"-0.007": 0.0,
			"-0.006": 0.0,
			"-0.005": 0.0,
			"-0.004": 0.0,
			"-0.003": 1.59845932175,
			"-0.002": 25.3727669353,
			"-0.001": 36.0346792452,
			"0.0": 36.406287971,
			"0.001": 29.9916668535,
			"0.002": 28.0514613145,
			"0.003": 2.32646750285,
			"0.004": 0.0,
			"0.005": 0.0,
			"0.006": 0.0,
			"0.007": 0.0,
			"0.008": 0.0,
			"0.009": 0.0,
			"0.01": 0.0,
			"0.011": 0.0,
			"0.012": 0.0,
			"0.013": 0.0,
			"0.014": 0.0,
			"0.015": 0.0,
			"0.016": 0.0,
			"0.017": 0.0,
			"0.018": 0.0,
			"0.019": 0.0,
			"0.02": 0.0,
			"0.021": 0.0,
			"0.022": 0.0,
			"0.023": 0.0,
			"0.024": 0.0,
			"0.025": 0.0
		}
	}
}
