{
	 "smiles": "CC(C)(C)CC(C)(C)C1=CC=C(O)C=C1", 
	 "Tm": 357.65, 
	 "num_atms": 37, 
	 "gaussian": { 
		 "optdone": 1, 
		 "sigma_profile": "yes", 
		 "theory": "DFT", 
		 "functional": "B3LYP", 
		 "basiset": "6-31G**", 
		 "properties": { 
			 "R2extent": 4200.9814, 
			 "electric_dipole_moment_norm": 1.29882647417, 
			 "electric_quadrupole_moment_norm": 9.92033853555, 
			 "total_energy": -621.98631122, 
			 "HOMO_LUMO_gap": 0.21155, 
			 "cosmo_polarized_energy": -7.92, 
			 "cosmo_cavitation_energy": 35.86, 
			 "cosmo_dispersion_energy": -24.45, 
			 "cosmo_repulsion_energy": 1.88, 
			 "cosmo_total_nonelectrostatic_energy": 13.3, 
			 "SMD_solvation_energy": 6.38 
		},
		"coords": [
			{
				"x": 2.8960301204,
				"y": -1.2666250406,
				"z": 3.0463916638,
				"element": "C" 
			},
			{
				"x": 1.8385794818,
				"y": -1.4453554329,
				"z": 1.9319154698,
				"element": "C" 
			},
			{
				"x": 0.5845334175,
				"y": -0.6419154227,
				"z": 2.3245546039,
				"element": "C" 
			},
			{
				"x": 1.4861621439,
				"y": -2.9479303486,
				"z": 1.8727306852,
				"element": "C" 
			},
			{
				"x": 2.5107591387,
				"y": -0.9420646188,
				"z": 0.6146106384,
				"element": "C" 
			},
			{
				"x": 1.7339103851,
				"y": -0.6558454325,
				"z": -0.7146192745,
				"element": "C" 
			},
			{
				"x": 0.940468072,
				"y": -1.8872957818,
				"z": -1.1914338119,
				"element": "C" 
			},
			{
				"x": 2.8160813809,
				"y": -0.3777316811,
				"z": -1.7947796276,
				"element": "C" 
			},
			{
				"x": 0.8457647515,
				"y": 0.6012526298,
				"z": -0.6169378554,
				"element": "C" 
			},
			{
				"x": 1.3944438387,
				"y": 1.8317277164,
				"z": -0.2091758757,
				"element": "C" 
			},
			{
				"x": 0.6392899846,
				"y": 2.9974015955,
				"z": -0.1427415779,
				"element": "C" 
			},
			{
				"x": -0.7141358098,
				"y": 2.9711858784,
				"z": -0.4958089876,
				"element": "C" 
			},
			{
				"x": -1.4158983723,
				"y": 4.1424273355,
				"z": -0.4128188297,
				"element": "O" 
			},
			{
				"x": -1.2837428586,
				"y": 1.7687854011,
				"z": -0.9151169104,
				"element": "C" 
			},
			{
				"x": -0.5083569106,
				"y": 0.6076201222,
				"z": -0.9742217232,
				"element": "C" 
			},
			{
				"x": 3.8197685075,
				"y": -1.8079504477,
				"z": 2.8102637724,
				"element": "H" 
			},
			{
				"x": 3.1532147661,
				"y": -0.2104432766,
				"z": 3.1849885359,
				"element": "H" 
			},
			{
				"x": 2.5220137291,
				"y": -1.6479011216,
				"z": 4.0032186939,
				"element": "H" 
			},
			{
				"x": 0.217472355,
				"y": -0.9760676539,
				"z": 3.3023764237,
				"element": "H" 
			},
			{
				"x": 0.7973694706,
				"y": 0.4292922943,
				"z": 2.3941119958,
				"element": "H" 
			},
			{
				"x": -0.227997136,
				"y": -0.7669137974,
				"z": 1.6040569401,
				"element": "H" 
			},
			{
				"x": 2.3555204815,
				"y": -3.5474262166,
				"z": 1.5781279905,
				"element": "H" 
			},
			{
				"x": 0.677107894,
				"y": -3.1654278255,
				"z": 1.172499647,
				"element": "H" 
			},
			{
				"x": 1.1636929879,
				"y": -3.2979855462,
				"z": 2.860175314,
				"element": "H" 
			},
			{
				"x": 3.2949059202,
				"y": -1.671390365,
				"z": 0.3667281981,
				"element": "H" 
			},
			{
				"x": 3.0499472735,
				"y": -0.0205658098,
				"z": 0.8649676952,
				"element": "H" 
			},
			{
				"x": 0.0828807931,
				"y": -2.1130861721,
				"z": -0.5534892396,
				"element": "H" 
			},
			{
				"x": 0.5674989588,
				"y": -1.7404449707,
				"z": -2.210863506,
				"element": "H" 
			},
			{
				"x": 1.5885060857,
				"y": -2.7690978703,
				"z": -1.2034643567,
				"element": "H" 
			},
			{
				"x": 3.472462195,
				"y": 0.4493685649,
				"z": -1.5075649851,
				"element": "H" 
			},
			{
				"x": 2.34885861,
				"y": -0.1159454702,
				"z": -2.7495773747,
				"element": "H" 
			},
			{
				"x": 3.4428027408,
				"y": -1.2630554692,
				"z": -1.9522351309,
				"element": "H" 
			},
			{
				"x": 2.4433863115,
				"y": 1.8904396468,
				"z": 0.0659935923,
				"element": "H" 
			},
			{
				"x": 1.080984192,
				"y": 3.9356601816,
				"z": 0.1772600419,
				"element": "H" 
			},
			{
				"x": -2.3289118782,
				"y": 3.9807733494,
				"z": -0.683370993,
				"element": "H" 
			},
			{
				"x": -2.3343238088,
				"y": 1.7322881265,
				"z": -1.1978588353,
				"element": "H" 
			},
			{
				"x": -0.9906492129,
				"y": -0.3045570707,
				"z": -1.3064930069,
				"element": "H" 
			}
		],
		 "valence_orbital": [ 
			{
				"type": "occ",
				"energy": -0.30838,
				"method": "rhf"
			},
			{
				"type": "occ",
				"energy": -0.29957,
				"method": "rhf"
			},
			{
				"type": "occ",
				"energy": -0.29261,
				"method": "rhf"
			},
			{
				"type": "occ",
				"energy": -0.24626,
				"method": "rhf"
			},
			{
				"type": "occ",
				"energy": -0.21088,
				"method": "rhf"
			},
			{
				"type": "unocc",
				"energy": 0.00067,
				"method": "rhf"
			},
			{
				"type": "unocc",
				"energy": 0.01758,
				"method": "rhf"
			},
			{
				"type": "unocc",
				"energy": 0.07143,
				"method": "rhf"
			},
			{
				"type": "unocc",
				"energy": 0.07387,
				"method": "rhf"
			},
			{
				"type": "unocc",
				"energy": 0.10268,
				"method": "rhf"
			}
		],
		"cosmo_sigma_profile": { 
			"-0.025": 0.0,
			"-0.024": 0.0,
			"-0.023": 0.0,
			"-0.022": 0.0,
			"-0.021": 0.0,
			"-0.02": 0.0,
			"-0.019": 0.0,
			"-0.018": 0.203196758746,
			"-0.017": 0.812887028725,
			"-0.016": 1.05892960812,
			"-0.015": 0.85764086788,
			"-0.014": 1.4662765113,
			"-0.013": 0.463676348487,
			"-0.012": 1.00799496708,
			"-0.011": 0.650473632657,
			"-0.01": 1.00851512927,
			"-0.009": 1.54470326167,
			"-0.008": 1.04271551621,
			"-0.007": 1.09304977006,
			"-0.006": 2.11924457408,
			"-0.005": 6.00179591463,
			"-0.004": 9.44364089164,
			"-0.003": 15.5410514236,
			"-0.002": 39.5351682801,
			"-0.001": 40.4388439168,
			"0.0": 35.2044532396,
			"0.001": 34.7428126151,
			"0.002": 31.6759947026,
			"0.003": 11.4130066258,
			"0.004": 9.67765053222,
			"0.005": 10.5920761759,
			"0.006": 8.47077941344,
			"0.007": 3.38730983424,
			"0.008": 1.47485968783,
			"0.009": 0.793400593504,
			"0.01": 2.1835017853,
			"0.011": 1.66682265694,
			"0.012": 1.54018455346,
			"0.013": 0.0,
			"0.014": 0.0,
			"0.015": 0.0,
			"0.016": 0.0,
			"0.017": 0.0,
			"0.018": 0.0,
			"0.019": 0.0,
			"0.02": 0.0,
			"0.021": 0.0,
			"0.022": 0.0,
			"0.023": 0.0,
			"0.024": 0.0,
			"0.025": 0.0
		}
	}
}
