{
	 "smiles": "CC(=O)N1[C@@H](CC2=C1C=CC=C2)C(O)=O", 
	 "Tm": 468.15, 
	 "num_atms": 26, 
	 "gaussian": { 
		 "optdone": 1, 
		 "sigma_profile": "yes", 
		 "theory": "DFT", 
		 "functional": "B3LYP", 
		 "basiset": "6-31G**", 
		 "properties": { 
			 "R2extent": 3025.2264, 
			 "electric_dipole_moment_norm": 3.51620046783, 
			 "electric_quadrupole_moment_norm": 7.38512318651, 
			 "total_energy": -706.252331466, 
			 "HOMO_LUMO_gap": 0.20017, 
			 "cosmo_polarized_energy": -15.38, 
			 "cosmo_cavitation_energy": 29.48, 
			 "cosmo_dispersion_energy": -21.1, 
			 "cosmo_repulsion_energy": 1.66, 
			 "cosmo_total_nonelectrostatic_energy": 10.04, 
			 "SMD_solvation_energy": 6.68 
		},
		"coords": [
			{
				"x": 1.8973995939,
				"y": -2.0250805137,
				"z": 1.6976123708,
				"element": "C" 
			},
			{
				"x": 0.7626677803,
				"y": -1.8178782626,
				"z": 0.7161268958,
				"element": "C" 
			},
			{
				"x": 0.3415950199,
				"y": -2.7322103656,
				"z": 0.0178685982,
				"element": "O" 
			},
			{
				"x": 0.182977293,
				"y": -0.5626047031,
				"z": 0.6252818966,
				"element": "N" 
			},
			{
				"x": -0.9793955831,
				"y": -0.4008485606,
				"z": -0.2613017929,
				"element": "C" 
			},
			{
				"x": -1.7450547529,
				"y": 0.8116291286,
				"z": 0.3253628186,
				"element": "C" 
			},
			{
				"x": -0.6786129819,
				"y": 1.5112280341,
				"z": 1.1361220692,
				"element": "C" 
			},
			{
				"x": 0.4272133923,
				"y": 0.6573688956,
				"z": 1.3043135042,
				"element": "C" 
			},
			{
				"x": 1.5487828463,
				"y": 1.084915618,
				"z": 2.0178215557,
				"element": "C" 
			},
			{
				"x": 1.5294919472,
				"y": 2.366350377,
				"z": 2.5818503013,
				"element": "C" 
			},
			{
				"x": 0.4302620323,
				"y": 3.2107342854,
				"z": 2.4299247789,
				"element": "C" 
			},
			{
				"x": -0.6825719832,
				"y": 2.7804431771,
				"z": 1.6964709897,
				"element": "C" 
			},
			{
				"x": -0.6121306804,
				"y": -0.1594706706,
				"z": -1.7279879742,
				"element": "C" 
			},
			{
				"x": 0.707259441,
				"y": -0.2291353604,
				"z": -1.9841881938,
				"element": "O" 
			},
			{
				"x": -1.4452033139,
				"y": 0.0749090471,
				"z": -2.5757421805,
				"element": "O" 
			},
			{
				"x": 2.820153234,
				"y": -1.5694804038,
				"z": 1.3229817735,
				"element": "H" 
			},
			{
				"x": 2.0544278803,
				"y": -3.0998873311,
				"z": 1.787241656,
				"element": "H" 
			},
			{
				"x": 1.6808633542,
				"y": -1.5983339608,
				"z": 2.680584526,
				"element": "H" 
			},
			{
				"x": -1.5672986131,
				"y": -1.3203748311,
				"z": -0.2545144779,
				"element": "H" 
			},
			{
				"x": -2.1805532514,
				"y": 1.4244349342,
				"z": -0.4669610313,
				"element": "H" 
			},
			{
				"x": -2.5668458412,
				"y": 0.4710355685,
				"z": 0.9670267538,
				"element": "H" 
			},
			{
				"x": 2.4290735448,
				"y": 0.4669665549,
				"z": 2.1279782261,
				"element": "H" 
			},
			{
				"x": 2.398583827,
				"y": 2.7066333449,
				"z": 3.1373048094,
				"element": "H" 
			},
			{
				"x": 0.4406402334,
				"y": 4.2028343853,
				"z": 2.8703554542,
				"element": "H" 
			},
			{
				"x": -1.5403643972,
				"y": 3.4341567479,
				"z": 1.5632861661,
				"element": "H" 
			},
			{
				"x": 0.8017399784,
				"y": -0.0872351353,
				"z": -2.9414194933,
				"element": "H" 
			}
		],
		 "valence_orbital": [ 
			{
				"type": "occ",
				"energy": -0.30815,
				"method": "rhf"
			},
			{
				"type": "occ",
				"energy": -0.27888,
				"method": "rhf"
			},
			{
				"type": "occ",
				"energy": -0.25642,
				"method": "rhf"
			},
			{
				"type": "occ",
				"energy": -0.25567,
				"method": "rhf"
			},
			{
				"type": "occ",
				"energy": -0.2174,
				"method": "rhf"
			},
			{
				"type": "unocc",
				"energy": -0.01723,
				"method": "rhf"
			},
			{
				"type": "unocc",
				"energy": -0.0127,
				"method": "rhf"
			},
			{
				"type": "unocc",
				"energy": 0.00589,
				"method": "rhf"
			},
			{
				"type": "unocc",
				"energy": 0.0348,
				"method": "rhf"
			},
			{
				"type": "unocc",
				"energy": 0.07402,
				"method": "rhf"
			}
		],
		"cosmo_sigma_profile": { 
			"-0.025": 0.0,
			"-0.024": 0.0,
			"-0.023": 0.0,
			"-0.022": 0.0,
			"-0.021": 0.0,
			"-0.02": 0.0,
			"-0.019": 0.357421540866,
			"-0.018": 0.731195655843,
			"-0.017": 1.32881263096,
			"-0.016": 0.522555842634,
			"-0.015": 0.987086043887,
			"-0.014": 0.752442321135,
			"-0.013": 0.689702996665,
			"-0.012": 0.6381670628,
			"-0.011": 0.75690859074,
			"-0.01": 0.392848945831,
			"-0.009": 0.483908140752,
			"-0.008": 1.52465624647,
			"-0.007": 6.38465444008,
			"-0.006": 14.4772038728,
			"-0.005": 20.7719830001,
			"-0.004": 22.3058138356,
			"-0.003": 20.3993846241,
			"-0.002": 19.116190388,
			"-0.001": 15.4536069887,
			"0.0": 10.3346996585,
			"0.001": 10.2135423081,
			"0.002": 10.2563105302,
			"0.003": 10.49785145,
			"0.004": 11.6259233772,
			"0.005": 11.8974613957,
			"0.006": 7.02408131344,
			"0.007": 5.73306784891,
			"0.008": 3.70000486826,
			"0.009": 3.28458397711,
			"0.01": 3.94074832762,
			"0.011": 5.96197040829,
			"0.012": 5.74776952411,
			"0.013": 3.98569713958,
			"0.014": 1.69348879255,
			"0.015": 0.175448461308,
			"0.016": 0.0,
			"0.017": 0.0,
			"0.018": 0.0,
			"0.019": 0.0,
			"0.02": 0.0,
			"0.021": 0.0,
			"0.022": 0.0,
			"0.023": 0.0,
			"0.024": 0.0,
			"0.025": 0.0
		}
	}
}
