{
	 "smiles": "CC1=C(C(=NO1)C1=CC=C(Cl)C=C1)C1=NC(S)=NC=C1", 
	 "Tm": 455.15, 
	 "num_atms": 30, 
	 "gaussian": { 
		 "optdone": 1, 
		 "sigma_profile": "yes", 
		 "theory": "DFT", 
		 "functional": "B3LYP", 
		 "basiset": "6-31G**", 
		 "properties": { 
			 "R2extent": 8193.6013, 
			 "electric_dipole_moment_norm": 5.05163044373, 
			 "electric_quadrupole_moment_norm": 11.00208109, 
			 "total_energy": -1637.33127652, 
			 "HOMO_LUMO_gap": 0.17508, 
			 "cosmo_polarized_energy": -15.16, 
			 "cosmo_cavitation_energy": 38.96, 
			 "cosmo_dispersion_energy": -27.7, 
			 "cosmo_repulsion_energy": 2.1, 
			 "cosmo_total_nonelectrostatic_energy": 13.36, 
			 "SMD_solvation_energy": 3.5 
		},
		"coords": [
			{
				"x": -2.9720206656,
				"y": -0.0543220338,
				"z": 1.9628481212,
				"element": "C" 
			},
			{
				"x": -1.5532147779,
				"y": -0.1651311309,
				"z": 1.5199598095,
				"element": "C" 
			},
			{
				"x": -0.8740367514,
				"y": 0.1847023642,
				"z": 0.3779393556,
				"element": "C" 
			},
			{
				"x": 0.4705057794,
				"y": -0.2814145285,
				"z": 0.6259795917,
				"element": "C" 
			},
			{
				"x": 0.5644576574,
				"y": -0.8377961004,
				"z": 1.8160545636,
				"element": "N" 
			},
			{
				"x": -0.7152530981,
				"y": -0.7777461211,
				"z": 2.3733310394,
				"element": "O" 
			},
			{
				"x": 1.6905255628,
				"y": -0.1931595231,
				"z": -0.2017724408,
				"element": "C" 
			},
			{
				"x": 1.9500065753,
				"y": 0.917087577,
				"z": -1.0173026907,
				"element": "C" 
			},
			{
				"x": 3.1294342389,
				"y": 1.0024222934,
				"z": -1.7528999342,
				"element": "C" 
			},
			{
				"x": 4.0590620763,
				"y": -0.0337807134,
				"z": -1.6707561138,
				"element": "C" 
			},
			{
				"x": 5.5465271985,
				"y": 0.0654997879,
				"z": -2.6006162358,
				"element": "Cl" 
			},
			{
				"x": 3.8277397173,
				"y": -1.1465583654,
				"z": -0.8628689801,
				"element": "C" 
			},
			{
				"x": 2.645027136,
				"y": -1.2194910515,
				"z": -0.1315759773,
				"element": "C" 
			},
			{
				"x": -1.4466966078,
				"y": 0.789815652,
				"z": -0.8322246286,
				"element": "C" 
			},
			{
				"x": -0.997080725,
				"y": 0.3409983073,
				"z": -2.0176291813,
				"element": "N" 
			},
			{
				"x": -1.5432122275,
				"y": 0.8741507925,
				"z": -3.1124643525,
				"element": "C" 
			},
			{
				"x": -0.8881251094,
				"y": 0.2452961627,
				"z": -4.6401765182,
				"element": "S" 
			},
			{
				"x": -2.5070673391,
				"y": 1.804248466,
				"z": -3.1709226143,
				"element": "N" 
			},
			{
				"x": -2.9381135941,
				"y": 2.2478235846,
				"z": -1.9851332413,
				"element": "C" 
			},
			{
				"x": -2.4371010422,
				"y": 1.7841802022,
				"z": -0.7727486315,
				"element": "C" 
			},
			{
				"x": -3.2523998346,
				"y": -0.9424515155,
				"z": 2.5351490946,
				"element": "H" 
			},
			{
				"x": -3.1199310228,
				"y": 0.8181805432,
				"z": 2.6099736898,
				"element": "H" 
			},
			{
				"x": -3.6387020895,
				"y": 0.0405582664,
				"z": 1.1034965692,
				"element": "H" 
			},
			{
				"x": 1.2348808023,
				"y": 1.729707241,
				"z": -1.0740070554,
				"element": "H" 
			},
			{
				"x": 3.3275070832,
				"y": 1.8630353822,
				"z": -2.3816497979,
				"element": "H" 
			},
			{
				"x": 4.5604479513,
				"y": -1.9440324861,
				"z": -0.8110287746,
				"element": "H" 
			},
			{
				"x": 2.4521065316,
				"y": -2.0792422069,
				"z": 0.500613548,
				"element": "H" 
			},
			{
				"x": -1.6777402764,
				"y": 1.0077594394,
				"z": -5.4205872437,
				"element": "H" 
			},
			{
				"x": -3.7112627797,
				"y": 3.0137899411,
				"z": -2.0122039609,
				"element": "H" 
			},
			{
				"x": -2.7807703692,
				"y": 2.1931697734,
				"z": 0.1693229901,
				"element": "H" 
			}
		],
		 "valence_orbital": [ 
			{
				"type": "occ",
				"energy": -0.26944,
				"method": "rhf"
			},
			{
				"type": "occ",
				"energy": -0.26532,
				"method": "rhf"
			},
			{
				"type": "occ",
				"energy": -0.26059,
				"method": "rhf"
			},
			{
				"type": "occ",
				"energy": -0.24655,
				"method": "rhf"
			},
			{
				"type": "occ",
				"energy": -0.23862,
				"method": "rhf"
			},
			{
				"type": "unocc",
				"energy": -0.06354,
				"method": "rhf"
			},
			{
				"type": "unocc",
				"energy": -0.04149,
				"method": "rhf"
			},
			{
				"type": "unocc",
				"energy": -0.03917,
				"method": "rhf"
			},
			{
				"type": "unocc",
				"energy": -0.01265,
				"method": "rhf"
			},
			{
				"type": "unocc",
				"energy": 0.002,
				"method": "rhf"
			}
		],
		"cosmo_sigma_profile": { 
			"-0.025": 0.0,
			"-0.024": 0.0,
			"-0.023": 0.0,
			"-0.022": 0.0,
			"-0.021": 0.0,
			"-0.02": 0.0,
			"-0.019": 0.0,
			"-0.018": 0.0,
			"-0.017": 0.0,
			"-0.016": 0.0,
			"-0.015": 0.0,
			"-0.014": 0.0,
			"-0.013": 0.0,
			"-0.012": 0.0119078139028,
			"-0.011": 0.995639269282,
			"-0.01": 1.41882956391,
			"-0.009": 1.74083016731,
			"-0.008": 6.02266801605,
			"-0.007": 15.57743549,
			"-0.006": 21.2024407509,
			"-0.005": 19.1687082996,
			"-0.004": 17.4487333663,
			"-0.003": 20.531265942,
			"-0.002": 22.7054773754,
			"-0.001": 21.3805782247,
			"0.0": 23.3924307693,
			"0.001": 22.0896111446,
			"0.002": 24.0224035881,
			"0.003": 28.7703505403,
			"0.004": 19.5251561396,
			"0.005": 15.6061852908,
			"0.006": 9.18266494203,
			"0.007": 9.49406520805,
			"0.008": 5.09112547936,
			"0.009": 3.7887516757,
			"0.01": 3.56316757596,
			"0.011": 2.7235063114,
			"0.012": 1.36613267925,
			"0.013": 1.79428221074,
			"0.014": 0.178086749491,
			"0.015": 0.0,
			"0.016": 0.0,
			"0.017": 0.0,
			"0.018": 0.0,
			"0.019": 0.0,
			"0.02": 0.0,
			"0.021": 0.0,
			"0.022": 0.0,
			"0.023": 0.0,
			"0.024": 0.0,
			"0.025": 0.0
		}
	}
}
