{
	 "smiles": "CN(C)C(=O)NC1=CC=C(Cl)C=C1", 
	 "Tm": 445.15, 
	 "num_atms": 24, 
	 "gaussian": { 
		 "optdone": 1, 
		 "sigma_profile": "yes", 
		 "theory": "DFT", 
		 "functional": "B3LYP", 
		 "basiset": "6-31G**", 
		 "properties": { 
			 "R2extent": 4530.8816, 
			 "electric_dipole_moment_norm": 5.76283130761, 
			 "electric_quadrupole_moment_norm": 7.39808500222, 
			 "total_energy": -994.527900632, 
			 "HOMO_LUMO_gap": 0.20474, 
			 "cosmo_polarized_energy": -13.8, 
			 "cosmo_cavitation_energy": 29.25, 
			 "cosmo_dispersion_energy": -21.81, 
			 "cosmo_repulsion_energy": 1.72, 
			 "cosmo_total_nonelectrostatic_energy": 9.16, 
			 "SMD_solvation_energy": 5.18 
		},
		"coords": [
			{
				"x": -0.9923334488,
				"y": -1.773435533,
				"z": 2.7093368427,
				"element": "C" 
			},
			{
				"x": -1.5679625413,
				"y": -0.5834588925,
				"z": 2.1052019541,
				"element": "N" 
			},
			{
				"x": -2.7165992902,
				"y": 0.0178565891,
				"z": 2.7702606553,
				"element": "C" 
			},
			{
				"x": -0.977802709,
				"y": 0.1194147927,
				"z": 1.0677844611,
				"element": "C" 
			},
			{
				"x": -1.4749827125,
				"y": 1.1386123753,
				"z": 0.5960125592,
				"element": "O" 
			},
			{
				"x": 0.2108777286,
				"y": -0.4311274799,
				"z": 0.6006480025,
				"element": "N" 
			},
			{
				"x": 1.0110176809,
				"y": 0.0238587207,
				"z": -0.4641969621,
				"element": "C" 
			},
			{
				"x": 0.6806658043,
				"y": 1.113785362,
				"z": -1.2859857901,
				"element": "C" 
			},
			{
				"x": 1.5345851953,
				"y": 1.485363418,
				"z": -2.3236265876,
				"element": "C" 
			},
			{
				"x": 2.7150872913,
				"y": 0.7818304134,
				"z": -2.5512545832,
				"element": "C" 
			},
			{
				"x": 3.7844296739,
				"y": 1.262132671,
				"z": -3.8646914367,
				"element": "Cl" 
			},
			{
				"x": 3.0572036335,
				"y": -0.3018600919,
				"z": -1.7447165947,
				"element": "C" 
			},
			{
				"x": 2.2059319711,
				"y": -0.6738967674,
				"z": -0.7091415531,
				"element": "C" 
			},
			{
				"x": -1.7399227224,
				"y": -2.2308981396,
				"z": 3.3604926068,
				"element": "H" 
			},
			{
				"x": -0.1039075748,
				"y": -1.560957514,
				"z": 3.323777831,
				"element": "H" 
			},
			{
				"x": -0.7318470121,
				"y": -2.523393664,
				"z": 1.9531490605,
				"element": "H" 
			},
			{
				"x": -2.462242909,
				"y": 0.353099879,
				"z": 3.7849129512,
				"element": "H" 
			},
			{
				"x": -3.5379741074,
				"y": -0.7046828222,
				"z": 2.8379214011,
				"element": "H" 
			},
			{
				"x": -3.0390185929,
				"y": 0.8758482082,
				"z": 2.1836176788,
				"element": "H" 
			},
			{
				"x": 0.5934802097,
				"y": -1.217525175,
				"z": 1.0999645897,
				"element": "H" 
			},
			{
				"x": -0.2337641677,
				"y": 1.6581263469,
				"z": -1.1008559458,
				"element": "H" 
			},
			{
				"x": 1.2765635386,
				"y": 2.328002365,
				"z": -2.9559097042,
				"element": "H" 
			},
			{
				"x": 3.9764174514,
				"y": -0.8488185667,
				"z": -1.922647053,
				"element": "H" 
			},
			{
				"x": 2.4757976094,
				"y": -1.5210764951,
				"z": -0.0821543834,
				"element": "H" 
			}
		],
		 "valence_orbital": [ 
			{
				"type": "occ",
				"energy": -0.29145,
				"method": "rhf"
			},
			{
				"type": "occ",
				"energy": -0.26237,
				"method": "rhf"
			},
			{
				"type": "occ",
				"energy": -0.25766,
				"method": "rhf"
			},
			{
				"type": "occ",
				"energy": -0.24462,
				"method": "rhf"
			},
			{
				"type": "occ",
				"energy": -0.21257,
				"method": "rhf"
			},
			{
				"type": "unocc",
				"energy": -0.00783,
				"method": "rhf"
			},
			{
				"type": "unocc",
				"energy": -0.00506,
				"method": "rhf"
			},
			{
				"type": "unocc",
				"energy": 0.03635,
				"method": "rhf"
			},
			{
				"type": "unocc",
				"energy": 0.06049,
				"method": "rhf"
			},
			{
				"type": "unocc",
				"energy": 0.0635,
				"method": "rhf"
			}
		],
		"cosmo_sigma_profile": { 
			"-0.025": 0.0,
			"-0.024": 0.0,
			"-0.023": 0.0,
			"-0.022": 0.0,
			"-0.021": 0.0,
			"-0.02": 0.0,
			"-0.019": 0.0,
			"-0.018": 0.0,
			"-0.017": 0.0,
			"-0.016": 0.0,
			"-0.015": 0.20114058607,
			"-0.014": 1.09787586043,
			"-0.013": 1.34974579362,
			"-0.012": 1.14900487048,
			"-0.011": 1.30456831862,
			"-0.01": 2.12368660683,
			"-0.009": 1.24673451479,
			"-0.008": 2.21047751991,
			"-0.007": 6.49175821974,
			"-0.006": 9.77930342893,
			"-0.005": 14.1840508972,
			"-0.004": 17.7381964044,
			"-0.003": 19.6422456734,
			"-0.002": 18.5829248359,
			"-0.001": 15.1091332185,
			"0.0": 12.270214585,
			"0.001": 13.9647293631,
			"0.002": 17.6502330744,
			"0.003": 22.2329644734,
			"0.004": 23.2166119559,
			"0.005": 15.0632097095,
			"0.006": 3.35132751335,
			"0.007": 1.54553857264,
			"0.008": 2.05326548161,
			"0.009": 1.20394586708,
			"0.01": 1.7902716941,
			"0.011": 2.12029191741,
			"0.012": 1.24974096905,
			"0.013": 3.21677517212,
			"0.014": 2.01129355659,
			"0.015": 0.0,
			"0.016": 0.0,
			"0.017": 0.0,
			"0.018": 0.0,
			"0.019": 0.0,
			"0.02": 0.0,
			"0.021": 0.0,
			"0.022": 0.0,
			"0.023": 0.0,
			"0.024": 0.0,
			"0.025": 0.0
		}
	}
}
