{
	 "smiles": "OC(=O)CCCC1=CSC2=C1C=CC=C2", 
	 "Tm": 383.15, 
	 "num_atms": 27, 
	 "gaussian": { 
		 "optdone": 1, 
		 "sigma_profile": "yes", 
		 "theory": "DFT", 
		 "functional": "B3LYP", 
		 "basiset": "6-31G**", 
		 "properties": { 
			 "R2extent": 4457.7031, 
			 "electric_dipole_moment_norm": 3.76221003401, 
			 "electric_quadrupole_moment_norm": 13.7291599987, 
			 "total_energy": -1013.16445333, 
			 "HOMO_LUMO_gap": 0.18911, 
			 "cosmo_polarized_energy": -15.66, 
			 "cosmo_cavitation_energy": 32.09, 
			 "cosmo_dispersion_energy": -23.05, 
			 "cosmo_repulsion_energy": 1.76, 
			 "cosmo_total_nonelectrostatic_energy": 10.8, 
			 "SMD_solvation_energy": 5.7 
		},
		"coords": [
			{
				"x": -2.2532146898,
				"y": 2.4630621647,
				"z": 1.9855220556,
				"element": "O" 
			},
			{
				"x": -1.0099835331,
				"y": 2.6136933178,
				"z": 1.451975283,
				"element": "C" 
			},
			{
				"x": -0.7947056015,
				"y": 3.5163891299,
				"z": 0.6810756198,
				"element": "O" 
			},
			{
				"x": 0.0230191984,
				"y": 1.5937397655,
				"z": 1.9162753035,
				"element": "C" 
			},
			{
				"x": 1.3691380728,
				"y": 1.7128089204,
				"z": 1.1959177482,
				"element": "C" 
			},
			{
				"x": 1.3253174913,
				"y": 1.308616991,
				"z": -0.2961959898,
				"element": "C" 
			},
			{
				"x": 0.9290953823,
				"y": -0.1263609396,
				"z": -0.5377126221,
				"element": "C" 
			},
			{
				"x": -0.2897801114,
				"y": -0.5158393505,
				"z": -1.0055531222,
				"element": "C" 
			},
			{
				"x": -0.4793008368,
				"y": -2.2495578808,
				"z": -1.162140895,
				"element": "S" 
			},
			{
				"x": 1.1569172537,
				"y": -2.5011708921,
				"z": -0.5752949964,
				"element": "C" 
			},
			{
				"x": 1.7902875076,
				"y": -1.2674275265,
				"z": -0.2833510402,
				"element": "C" 
			},
			{
				"x": 3.120111233,
				"y": -1.2889914304,
				"z": 0.1795344188,
				"element": "C" 
			},
			{
				"x": 3.7737372595,
				"y": -2.5026507711,
				"z": 0.3473184601,
				"element": "C" 
			},
			{
				"x": 3.123029293,
				"y": -3.7156045467,
				"z": 0.0591400917,
				"element": "C" 
			},
			{
				"x": 1.812440081,
				"y": -3.7250092597,
				"z": -0.4059027265,
				"element": "C" 
			},
			{
				"x": -2.2712252199,
				"y": 1.6966794762,
				"z": 2.5764857415,
				"element": "H" 
			},
			{
				"x": -0.3941530604,
				"y": 0.5863246361,
				"z": 1.7857415159,
				"element": "H" 
			},
			{
				"x": 0.1587336153,
				"y": 1.7335809421,
				"z": 2.9977363788,
				"element": "H" 
			},
			{
				"x": 2.0981991048,
				"y": 1.0915591367,
				"z": 1.7273194221,
				"element": "H" 
			},
			{
				"x": 1.7138540826,
				"y": 2.7496094048,
				"z": 1.2626138468,
				"element": "H" 
			},
			{
				"x": 2.3170257196,
				"y": 1.4901114211,
				"z": -0.7295718577,
				"element": "H" 
			},
			{
				"x": 0.6323965358,
				"y": 1.9756907464,
				"z": -0.8158377703,
				"element": "H" 
			},
			{
				"x": -1.1111643326,
				"y": 0.1290302985,
				"z": -1.2913921775,
				"element": "H" 
			},
			{
				"x": 3.6347802859,
				"y": -0.3578331546,
				"z": 0.3980140794,
				"element": "H" 
			},
			{
				"x": 4.7997472398,
				"y": -2.5168297403,
				"z": 0.7029734447,
				"element": "H" 
			},
			{
				"x": 3.649531188,
				"y": -4.6553903927,
				"z": 0.196650488,
				"element": "H" 
			},
			{
				"x": 1.311666841,
				"y": -4.6607304663,
				"z": -0.6352407004,
				"element": "H" 
			}
		],
		 "valence_orbital": [ 
			{
				"type": "occ",
				"energy": -0.31663,
				"method": "rhf"
			},
			{
				"type": "occ",
				"energy": -0.2797,
				"method": "rhf"
			},
			{
				"type": "occ",
				"energy": -0.27286,
				"method": "rhf"
			},
			{
				"type": "occ",
				"energy": -0.23803,
				"method": "rhf"
			},
			{
				"type": "occ",
				"energy": -0.21683,
				"method": "rhf"
			},
			{
				"type": "unocc",
				"energy": -0.02772,
				"method": "rhf"
			},
			{
				"type": "unocc",
				"energy": -0.00469,
				"method": "rhf"
			},
			{
				"type": "unocc",
				"energy": 0.00777,
				"method": "rhf"
			},
			{
				"type": "unocc",
				"energy": 0.02185,
				"method": "rhf"
			},
			{
				"type": "unocc",
				"energy": 0.04321,
				"method": "rhf"
			}
		],
		"cosmo_sigma_profile": { 
			"-0.025": 0.0,
			"-0.024": 0.0,
			"-0.023": 0.0,
			"-0.022": 0.0,
			"-0.021": 0.0,
			"-0.02": 0.0,
			"-0.019": 0.414497176752,
			"-0.018": 1.21838412347,
			"-0.017": 0.861255286707,
			"-0.016": 1.18600178221,
			"-0.015": 1.05898757371,
			"-0.014": 0.566959981638,
			"-0.013": 1.10356036898,
			"-0.012": 1.2395511478,
			"-0.011": 1.34814682032,
			"-0.01": 1.08407808609,
			"-0.009": 1.28992409729,
			"-0.008": 3.03583119348,
			"-0.007": 5.90378690591,
			"-0.006": 10.3619290209,
			"-0.005": 16.6639090926,
			"-0.004": 19.7493063209,
			"-0.003": 22.7920964237,
			"-0.002": 20.682260172,
			"-0.001": 16.6080972126,
			"0.0": 14.0753082289,
			"0.001": 14.6610848718,
			"0.002": 13.0768086231,
			"0.003": 17.3893369412,
			"0.004": 19.3467073731,
			"0.005": 17.6589223749,
			"0.006": 8.16588478055,
			"0.007": 2.89870643544,
			"0.008": 2.96260400508,
			"0.009": 2.85303606978,
			"0.01": 3.7257314138,
			"0.011": 5.7749000514,
			"0.012": 4.74265319803,
			"0.013": 2.22654935412,
			"0.014": 0.167982911757,
			"0.015": 0.0,
			"0.016": 0.0,
			"0.017": 0.0,
			"0.018": 0.0,
			"0.019": 0.0,
			"0.02": 0.0,
			"0.021": 0.0,
			"0.022": 0.0,
			"0.023": 0.0,
			"0.024": 0.0,
			"0.025": 0.0
		}
	}
}
