{
	 "smiles": "CC(CN1CCCCC1)CC1=CC=C(C=C1)C(C)(C)C", 
	 "Tm": 208.55, 
	 "num_atms": 51, 
	 "gaussian": { 
		 "optdone": 1, 
		 "sigma_profile": "yes", 
		 "theory": "DFT", 
		 "functional": "B3LYP", 
		 "basiset": "6-31G**", 
		 "properties": { 
			 "R2extent": 9311.2996, 
			 "electric_dipole_moment_norm": 0.551280999128, 
			 "electric_quadrupole_moment_norm": 3.36518463089, 
			 "total_energy": -797.47436978, 
			 "HOMO_LUMO_gap": 0.19972, 
			 "cosmo_polarized_energy": -4.88, 
			 "cosmo_cavitation_energy": 47.88, 
			 "cosmo_dispersion_energy": -32.51, 
			 "cosmo_repulsion_energy": 2.51, 
			 "cosmo_total_nonelectrostatic_energy": 17.88, 
			 "SMD_solvation_energy": 6.27 
		},
		"coords": [
			{
				"x": -0.9201842313,
				"y": 1.2916272606,
				"z": -3.8210609632,
				"element": "C" 
			},
			{
				"x": -0.291291652,
				"y": 1.1657062254,
				"z": -2.4271606301,
				"element": "C" 
			},
			{
				"x": 0.0956991506,
				"y": -0.3015458976,
				"z": -2.1069047243,
				"element": "C" 
			},
			{
				"x": -0.8775519534,
				"y": -1.3272287695,
				"z": -2.4895753397,
				"element": "N" 
			},
			{
				"x": -2.0336260652,
				"y": -1.4147686513,
				"z": -1.5838645497,
				"element": "C" 
			},
			{
				"x": -2.8199028294,
				"y": -2.7297507578,
				"z": -1.7725845068,
				"element": "C" 
			},
			{
				"x": -2.7013988601,
				"y": -3.2250697461,
				"z": -3.2165989245,
				"element": "C" 
			},
			{
				"x": -1.2229128945,
				"y": -3.533988907,
				"z": -3.539322434,
				"element": "C" 
			},
			{
				"x": -0.2746088645,
				"y": -2.6444104054,
				"z": -2.7072460167,
				"element": "C" 
			},
			{
				"x": -1.1535653346,
				"y": 1.8900876899,
				"z": -1.3573172431,
				"element": "C" 
			},
			{
				"x": -0.5001031841,
				"y": 2.0267596525,
				"z": 0.0031013434,
				"element": "C" 
			},
			{
				"x": -0.9831187758,
				"y": 1.345066503,
				"z": 1.127725108,
				"element": "C" 
			},
			{
				"x": -0.3746252934,
				"y": 1.4805145383,
				"z": 2.3742760954,
				"element": "C" 
			},
			{
				"x": 0.7472318374,
				"y": 2.3038850923,
				"z": 2.562452588,
				"element": "C" 
			},
			{
				"x": 1.2242491503,
				"y": 2.9889994632,
				"z": 1.4359238094,
				"element": "C" 
			},
			{
				"x": 0.6134290032,
				"y": 2.854826093,
				"z": 0.1879435088,
				"element": "C" 
			},
			{
				"x": 1.3909434754,
				"y": 2.4260366189,
				"z": 3.9558123117,
				"element": "C" 
			},
			{
				"x": 1.8644095996,
				"y": 1.0308967688,
				"z": 4.4288169315,
				"element": "C" 
			},
			{
				"x": 2.6077102439,
				"y": 3.3708573496,
				"z": 3.9575277205,
				"element": "C" 
			},
			{
				"x": 0.3502908389,
				"y": 2.9794140193,
				"z": 4.9583364096,
				"element": "C" 
			},
			{
				"x": -1.0730604989,
				"y": 2.3434475307,
				"z": -4.0871382225,
				"element": "H" 
			},
			{
				"x": -1.8857699341,
				"y": 0.7802878449,
				"z": -3.8692390707,
				"element": "H" 
			},
			{
				"x": -0.2785494654,
				"y": 0.8384823477,
				"z": -4.5838313516,
				"element": "H" 
			},
			{
				"x": 0.6662566855,
				"y": 1.7061330714,
				"z": -2.4457274487,
				"element": "H" 
			},
			{
				"x": 1.0053836259,
				"y": -0.5122714956,
				"z": -2.6804238707,
				"element": "H" 
			},
			{
				"x": 0.3766381621,
				"y": -0.3797512949,
				"z": -1.0395078353,
				"element": "H" 
			},
			{
				"x": -1.7204733418,
				"y": -1.3234490707,
				"z": -0.5258874669,
				"element": "H" 
			},
			{
				"x": -2.6988982651,
				"y": -0.5688168301,
				"z": -1.7915579196,
				"element": "H" 
			},
			{
				"x": -2.4320968907,
				"y": -3.5013621841,
				"z": -1.0955877917,
				"element": "H" 
			},
			{
				"x": -3.865910696,
				"y": -2.5697962156,
				"z": -1.4889987195,
				"element": "H" 
			},
			{
				"x": -3.3252426538,
				"y": -4.111120203,
				"z": -3.3782382504,
				"element": "H" 
			},
			{
				"x": -3.0737304956,
				"y": -2.4474300992,
				"z": -3.8930816866,
				"element": "H" 
			},
			{
				"x": -1.0377552032,
				"y": -3.3766982977,
				"z": -4.6073380385,
				"element": "H" 
			},
			{
				"x": -0.9967759586,
				"y": -4.5865421066,
				"z": -3.3286481073,
				"element": "H" 
			},
			{
				"x": -0.01803003,
				"y": -3.145588786,
				"z": -1.752694191,
				"element": "H" 
			},
			{
				"x": 0.6706814633,
				"y": -2.5101357705,
				"z": -3.2420736464,
				"element": "H" 
			},
			{
				"x": -2.124065123,
				"y": 1.3958035344,
				"z": -1.2496890632,
				"element": "H" 
			},
			{
				"x": -1.3697099349,
				"y": 2.8946706765,
				"z": -1.7455168051,
				"element": "H" 
			},
			{
				"x": -1.8537804087,
				"y": 0.701455012,
				"z": 1.0281739012,
				"element": "H" 
			},
			{
				"x": -0.7890134864,
				"y": 0.9312381788,
				"z": 3.2151699862,
				"element": "H" 
			},
			{
				"x": 2.0825220366,
				"y": 3.6462172587,
				"z": 1.5201223021,
				"element": "H" 
			},
			{
				"x": 1.011373611,
				"y": 3.4142401624,
				"z": -0.6561350959,
				"element": "H" 
			},
			{
				"x": 1.0357029502,
				"y": 0.3192059605,
				"z": 4.4895741183,
				"element": "H" 
			},
			{
				"x": 2.6095374399,
				"y": 0.6169133335,
				"z": 3.7414771577,
				"element": "H" 
			},
			{
				"x": 2.3195333854,
				"y": 1.0981925862,
				"z": 5.4236878981,
				"element": "H" 
			},
			{
				"x": 3.3972919849,
				"y": 3.0196971856,
				"z": 3.2849808866,
				"element": "H" 
			},
			{
				"x": 3.0324267431,
				"y": 3.4239791498,
				"z": 4.9653661316,
				"element": "H" 
			},
			{
				"x": 2.3338500515,
				"y": 4.3888520993,
				"z": 3.6613344861,
				"element": "H" 
			},
			{
				"x": -0.5257579521,
				"y": 2.3286618257,
				"z": 5.0357457059,
				"element": "H" 
			},
			{
				"x": 0.0023400677,
				"y": 3.9717534226,
				"z": 4.6530317677,
				"element": "H" 
			},
			{
				"x": 0.7906087699,
				"y": 3.0660170334,
				"z": 5.9583697459,
				"element": "H" 
			}
		],
		 "valence_orbital": [ 
			{
				"type": "occ",
				"energy": -0.30523,
				"method": "rhf"
			},
			{
				"type": "occ",
				"energy": -0.29491,
				"method": "rhf"
			},
			{
				"type": "occ",
				"energy": -0.24109,
				"method": "rhf"
			},
			{
				"type": "occ",
				"energy": -0.22697,
				"method": "rhf"
			},
			{
				"type": "occ",
				"energy": -0.19699,
				"method": "rhf"
			},
			{
				"type": "unocc",
				"energy": 0.00273,
				"method": "rhf"
			},
			{
				"type": "unocc",
				"energy": 0.00924,
				"method": "rhf"
			},
			{
				"type": "unocc",
				"energy": 0.0748,
				"method": "rhf"
			},
			{
				"type": "unocc",
				"energy": 0.08433,
				"method": "rhf"
			},
			{
				"type": "unocc",
				"energy": 0.09758,
				"method": "rhf"
			}
		],
		"cosmo_sigma_profile": { 
			"-0.025": 0.0,
			"-0.024": 0.0,
			"-0.023": 0.0,
			"-0.022": 0.0,
			"-0.021": 0.0,
			"-0.02": 0.0,
			"-0.019": 0.0,
			"-0.018": 0.0,
			"-0.017": 0.0,
			"-0.016": 0.0,
			"-0.015": 0.0,
			"-0.014": 0.0,
			"-0.013": 0.0,
			"-0.012": 0.0,
			"-0.011": 0.0,
			"-0.01": 0.0,
			"-0.009": 0.0,
			"-0.008": 0.0,
			"-0.007": 0.0,
			"-0.006": 0.0,
			"-0.005": 2.9262683115,
			"-0.004": 11.0750138463,
			"-0.003": 34.5607179695,
			"-0.002": 63.3809968921,
			"-0.001": 62.6569622552,
			"0.0": 63.1160300984,
			"0.001": 57.1339829803,
			"0.002": 29.5995379296,
			"0.003": 10.3463683727,
			"0.004": 7.86526594686,
			"0.005": 8.42142696095,
			"0.006": 7.77138572878,
			"0.007": 6.57816961105,
			"0.008": 0.745933808172,
			"0.009": 0.661617624328,
			"0.01": 0.735377541214,
			"0.011": 0.817244565661,
			"0.012": 0.33990536433,
			"0.013": 0.415225606778,
			"0.014": 0.0564335412,
			"0.015": 0.0,
			"0.016": 0.0,
			"0.017": 0.0,
			"0.018": 0.0,
			"0.019": 0.0,
			"0.02": 0.0,
			"0.021": 0.0,
			"0.022": 0.0,
			"0.023": 0.0,
			"0.024": 0.0,
			"0.025": 0.0
		}
	}
}
