{
	 "smiles": "CC(C)(C)C(=O)N1CCNCC1", 
	 "Tm": 326.15, 
	 "num_atms": 30, 
	 "gaussian": { 
		 "optdone": 1, 
		 "sigma_profile": "yes", 
		 "theory": "DFT", 
		 "functional": "B3LYP", 
		 "basiset": "6-31G**", 
		 "properties": { 
			 "R2extent": 2643.2998, 
			 "electric_dipole_moment_norm": 2.66815670642, 
			 "electric_quadrupole_moment_norm": 9.43317980641, 
			 "total_energy": -538.534043948, 
			 "HOMO_LUMO_gap": 0.25288, 
			 "cosmo_polarized_energy": -11.53, 
			 "cosmo_cavitation_energy": 29.18, 
			 "cosmo_dispersion_energy": -21.16, 
			 "cosmo_repulsion_energy": 1.68, 
			 "cosmo_total_nonelectrostatic_energy": 9.7, 
			 "SMD_solvation_energy": 2.13 
		},
		"coords": [
			{
				"x": 0.74591621,
				"y": 2.5266642395,
				"z": -1.4725537947,
				"element": "C" 
			},
			{
				"x": -0.388516456,
				"y": 1.4949532861,
				"z": -1.2785826777,
				"element": "C" 
			},
			{
				"x": -1.7017101457,
				"y": 2.2792882015,
				"z": -1.0726570207,
				"element": "C" 
			},
			{
				"x": -0.5670145573,
				"y": 0.6072734817,
				"z": -2.5339731699,
				"element": "C" 
			},
			{
				"x": -0.1881798509,
				"y": 0.6114322515,
				"z": -0.0104519952,
				"element": "C" 
			},
			{
				"x": -1.1022210375,
				"y": 0.509822738,
				"z": 0.8080577022,
				"element": "O" 
			},
			{
				"x": 0.9928656044,
				"y": -0.0559583798,
				"z": 0.2348245004,
				"element": "N" 
			},
			{
				"x": 1.0555467622,
				"y": -0.7920870411,
				"z": 1.5125689748,
				"element": "C" 
			},
			{
				"x": 2.5069756539,
				"y": -1.1519924061,
				"z": 1.8351330369,
				"element": "C" 
			},
			{
				"x": 3.1789561592,
				"y": -1.9404555848,
				"z": 0.792298024,
				"element": "N" 
			},
			{
				"x": 2.7097367236,
				"y": -1.6286077965,
				"z": -0.5662199557,
				"element": "C" 
			},
			{
				"x": 2.1619268666,
				"y": -0.2007871993,
				"z": -0.6382769297,
				"element": "C" 
			},
			{
				"x": 1.7086220752,
				"y": 2.0850849412,
				"z": -1.734971625,
				"element": "H" 
			},
			{
				"x": 0.8869470452,
				"y": 3.1234753428,
				"z": -0.5652238368,
				"element": "H" 
			},
			{
				"x": 0.4757462844,
				"y": 3.215021393,
				"z": -2.2808318096,
				"element": "H" 
			},
			{
				"x": -1.6390111565,
				"y": 2.9316910349,
				"z": -0.1979743613,
				"element": "H" 
			},
			{
				"x": -2.5444088447,
				"y": 1.6045598849,
				"z": -0.914792147,
				"element": "H" 
			},
			{
				"x": -1.8996476259,
				"y": 2.8976329688,
				"z": -1.9550192107,
				"element": "H" 
			},
			{
				"x": 0.326220968,
				"y": 0.0367567563,
				"z": -2.8024208123,
				"element": "H" 
			},
			{
				"x": -1.3852674555,
				"y": -0.1047161003,
				"z": -2.3861778324,
				"element": "H" 
			},
			{
				"x": -0.8214335036,
				"y": 1.2352027314,
				"z": -3.3949360308,
				"element": "H" 
			},
			{
				"x": 0.4339990938,
				"y": -1.6969077225,
				"z": 1.456717446,
				"element": "H" 
			},
			{
				"x": 0.6205948652,
				"y": -0.1655400791,
				"z": 2.2957536542,
				"element": "H" 
			},
			{
				"x": 3.071997234,
				"y": -0.2263265333,
				"z": 2.0098020298,
				"element": "H" 
			},
			{
				"x": 2.5402683,
				"y": -1.7114624314,
				"z": 2.7748584079,
				"element": "H" 
			},
			{
				"x": 3.0525956472,
				"y": -2.9299541166,
				"z": 0.974886269,
				"element": "H" 
			},
			{
				"x": 3.5419226145,
				"y": -1.7202618975,
				"z": -1.2770613735,
				"element": "H" 
			},
			{
				"x": 1.9152423913,
				"y": -2.3106872927,
				"z": -0.9102775444,
				"element": "H" 
			},
			{
				"x": 1.8880767227,
				"y": 0.0104504338,
				"z": -1.6682687327,
				"element": "H" 
			},
			{
				"x": 2.9551534124,
				"y": 0.5072348956,
				"z": -0.3588291852,
				"element": "H" 
			}
		],
		 "valence_orbital": [ 
			{
				"type": "occ",
				"energy": -0.32376,
				"method": "rhf"
			},
			{
				"type": "occ",
				"energy": -0.32004,
				"method": "rhf"
			},
			{
				"type": "occ",
				"energy": -0.23543,
				"method": "rhf"
			},
			{
				"type": "occ",
				"energy": -0.22933,
				"method": "rhf"
			},
			{
				"type": "occ",
				"energy": -0.22049,
				"method": "rhf"
			},
			{
				"type": "unocc",
				"energy": 0.03239,
				"method": "rhf"
			},
			{
				"type": "unocc",
				"energy": 0.06444,
				"method": "rhf"
			},
			{
				"type": "unocc",
				"energy": 0.09011,
				"method": "rhf"
			},
			{
				"type": "unocc",
				"energy": 0.10597,
				"method": "rhf"
			},
			{
				"type": "unocc",
				"energy": 0.1161,
				"method": "rhf"
			}
		],
		"cosmo_sigma_profile": { 
			"-0.025": 0.0,
			"-0.024": 0.0,
			"-0.023": 0.0,
			"-0.022": 0.0,
			"-0.021": 0.0,
			"-0.02": 0.0,
			"-0.019": 0.0,
			"-0.018": 0.0,
			"-0.017": 0.0,
			"-0.016": 0.0,
			"-0.015": 0.0,
			"-0.014": 0.0,
			"-0.013": 0.0,
			"-0.012": 0.0,
			"-0.011": 0.105029160447,
			"-0.01": 1.1417626448,
			"-0.009": 1.52557016784,
			"-0.008": 1.29117690197,
			"-0.007": 2.3189420265,
			"-0.006": 4.43175539941,
			"-0.005": 7.17710245426,
			"-0.004": 16.7467348238,
			"-0.003": 39.0510083817,
			"-0.002": 31.0817039122,
			"-0.001": 27.976873208,
			"0.0": 24.4322246472,
			"0.001": 20.8728493881,
			"0.002": 10.6101328325,
			"0.003": 3.75343148551,
			"0.004": 2.80776652576,
			"0.005": 2.2671894056,
			"0.006": 2.16033420327,
			"0.007": 1.87757743483,
			"0.008": 2.87507639719,
			"0.009": 1.92719093211,
			"0.01": 1.82120861397,
			"0.011": 2.33667264467,
			"0.012": 2.50821510114,
			"0.013": 2.29192267775,
			"0.014": 4.13476073353,
			"0.015": 3.45282196166,
			"0.016": 0.82850454492,
			"0.017": 0.504919122299,
			"0.018": 0.518087223156,
			"0.019": 0.101243591903,
			"0.02": 0.0,
			"0.021": 0.0,
			"0.022": 0.0,
			"0.023": 0.0,
			"0.024": 0.0,
			"0.025": 0.0
		}
	}
}
