{
	 "smiles": "OC(=O)C1=CC(=CC=C1)S(=O)(=O)N(CC=C)C1=C(Cl)C=CC=C1", 
	 "Tm": 377.15, 
	 "num_atms": 37, 
	 "gaussian": { 
		 "optdone": 1, 
		 "sigma_profile": "yes", 
		 "theory": "DFT", 
		 "functional": "B3LYP", 
		 "basiset": "6-31G**", 
		 "properties": { 
			 "R2extent": 8282.6558, 
			 "electric_dipole_moment_norm": 5.32453592813, 
			 "electric_quadrupole_moment_norm": 30.6583735025, 
			 "total_energy": -1832.06720207, 
			 "HOMO_LUMO_gap": 0.18011, 
			 "cosmo_polarized_energy": -23.11, 
			 "cosmo_cavitation_energy": 45.13, 
			 "cosmo_dispersion_energy": -29.17, 
			 "cosmo_repulsion_energy": 2.21, 
			 "cosmo_total_nonelectrostatic_energy": 18.16, 
			 "SMD_solvation_energy": 8.4 
		},
		"coords": [
			{
				"x": 4.9731162254,
				"y": -3.2055385124,
				"z": -1.5181422992,
				"element": "O" 
			},
			{
				"x": 3.8727597523,
				"y": -3.1158825346,
				"z": -0.7247934885,
				"element": "C" 
			},
			{
				"x": 3.9161362444,
				"y": -3.5008368259,
				"z": 0.4185563624,
				"element": "O" 
			},
			{
				"x": 2.6395964277,
				"y": -2.5232159574,
				"z": -1.3448517918,
				"element": "C" 
			},
			{
				"x": 1.6569141199,
				"y": -2.0296272952,
				"z": -0.4760024788,
				"element": "C" 
			},
			{
				"x": 0.5030026185,
				"y": -1.4652135956,
				"z": -1.0086727678,
				"element": "C" 
			},
			{
				"x": 0.2801868534,
				"y": -1.4151581914,
				"z": -2.3879297375,
				"element": "C" 
			},
			{
				"x": 1.2439092832,
				"y": -1.9391563289,
				"z": -3.2462937241,
				"element": "C" 
			},
			{
				"x": 2.4202517571,
				"y": -2.4843096857,
				"z": -2.7283408692,
				"element": "C" 
			},
			{
				"x": -0.7559688436,
				"y": -0.8071010748,
				"z": 0.0957697731,
				"element": "S" 
			},
			{
				"x": -2.048855886,
				"y": -0.8680619269,
				"z": -0.5920528141,
				"element": "O" 
			},
			{
				"x": -0.5646291808,
				"y": -1.4535871658,
				"z": 1.397616342,
				"element": "O" 
			},
			{
				"x": -0.3514974249,
				"y": 0.8405532764,
				"z": 0.1532630672,
				"element": "N" 
			},
			{
				"x": -1.4603703864,
				"y": 1.8289486855,
				"z": 0.0524721864,
				"element": "C" 
			},
			{
				"x": -2.1888561853,
				"y": 2.0717061876,
				"z": 1.3477614496,
				"element": "C" 
			},
			{
				"x": -3.4820942048,
				"y": 1.8039863595,
				"z": 1.5274114985,
				"element": "C" 
			},
			{
				"x": 0.8591697388,
				"y": 1.2346791108,
				"z": 0.8026189429,
				"element": "C" 
			},
			{
				"x": 1.8359763675,
				"y": 1.9536875777,
				"z": 0.0868046892,
				"element": "C" 
			},
			{
				"x": 1.5880129024,
				"y": 2.341885468,
				"z": -1.6075796641,
				"element": "Cl" 
			},
			{
				"x": 3.0133455608,
				"y": 2.3797183482,
				"z": 0.700042964,
				"element": "C" 
			},
			{
				"x": 3.2421456036,
				"y": 2.0741300007,
				"z": 2.0413290924,
				"element": "C" 
			},
			{
				"x": 2.2916298133,
				"y": 1.3554957376,
				"z": 2.7665205578,
				"element": "C" 
			},
			{
				"x": 1.1069707996,
				"y": 0.9495824192,
				"z": 2.1547559558,
				"element": "C" 
			},
			{
				"x": 4.8419689409,
				"y": -2.7068791135,
				"z": -2.336259984,
				"element": "H" 
			},
			{
				"x": 1.8041423943,
				"y": -2.1033069805,
				"z": 0.5950987622,
				"element": "H" 
			},
			{
				"x": -0.6423579044,
				"y": -0.9924547797,
				"z": -2.7698654138,
				"element": "H" 
			},
			{
				"x": 1.0761409608,
				"y": -1.9311096565,
				"z": -4.3185084592,
				"element": "H" 
			},
			{
				"x": 3.1433179581,
				"y": -2.9168076684,
				"z": -3.4155415991,
				"element": "H" 
			},
			{
				"x": -0.9953992067,
				"y": 2.7500043663,
				"z": -0.3153052653,
				"element": "H" 
			},
			{
				"x": -2.1483649498,
				"y": 1.4728539708,
				"z": -0.7151503698,
				"element": "H" 
			},
			{
				"x": -1.6007056913,
				"y": 2.4925162218,
				"z": 2.1624269189,
				"element": "H" 
			},
			{
				"x": -3.9800435867,
				"y": 2.0006294435,
				"z": 2.4723026418,
				"element": "H" 
			},
			{
				"x": -4.087305326,
				"y": 1.3705971364,
				"z": 0.7352561213,
				"element": "H" 
			},
			{
				"x": 3.7428316799,
				"y": 2.9369267854,
				"z": 0.1229093898,
				"element": "H" 
			},
			{
				"x": 4.1641398213,
				"y": 2.3987859092,
				"z": 2.5137614734,
				"element": "H" 
			},
			{
				"x": 2.4659127122,
				"y": 1.1152855199,
				"z": 3.8105166141,
				"element": "H" 
			},
			{
				"x": 0.362470241,
				"y": 0.3872747688,
				"z": 2.7051959231,
				"element": "H" 
			}
		],
		 "valence_orbital": [ 
			{
				"type": "occ",
				"energy": -0.27702,
				"method": "rhf"
			},
			{
				"type": "occ",
				"energy": -0.27663,
				"method": "rhf"
			},
			{
				"type": "occ",
				"energy": -0.27023,
				"method": "rhf"
			},
			{
				"type": "occ",
				"energy": -0.26052,
				"method": "rhf"
			},
			{
				"type": "occ",
				"energy": -0.24768,
				"method": "rhf"
			},
			{
				"type": "unocc",
				"energy": -0.06757,
				"method": "rhf"
			},
			{
				"type": "unocc",
				"energy": -0.04745,
				"method": "rhf"
			},
			{
				"type": "unocc",
				"energy": -0.03332,
				"method": "rhf"
			},
			{
				"type": "unocc",
				"energy": -0.02507,
				"method": "rhf"
			},
			{
				"type": "unocc",
				"energy": 0.00756,
				"method": "rhf"
			}
		],
		"cosmo_sigma_profile": { 
			"-0.025": 0.0,
			"-0.024": 0.0,
			"-0.023": 0.0,
			"-0.022": 0.0,
			"-0.021": 0.0,
			"-0.02": 0.0310989826183,
			"-0.019": 0.618340412546,
			"-0.018": 1.1074593391,
			"-0.017": 1.18495650791,
			"-0.016": 1.05209069223,
			"-0.015": 0.845939750824,
			"-0.014": 0.86069414492,
			"-0.013": 0.974416556396,
			"-0.012": 1.56680040113,
			"-0.011": 1.50437866045,
			"-0.01": 1.10871737106,
			"-0.009": 2.09368739198,
			"-0.008": 6.16924552483,
			"-0.007": 12.1776631422,
			"-0.006": 16.3089660797,
			"-0.005": 22.1736716126,
			"-0.004": 21.6911592187,
			"-0.003": 27.2768649063,
			"-0.002": 23.7436029689,
			"-0.001": 24.9591463482,
			"0.0": 32.6443544234,
			"0.001": 31.6919657318,
			"0.002": 26.4244073982,
			"0.003": 26.498814137,
			"0.004": 17.9516254079,
			"0.005": 9.19117192053,
			"0.006": 6.13298827463,
			"0.007": 6.03285696044,
			"0.008": 5.89786940425,
			"0.009": 8.88881262436,
			"0.01": 11.1173715397,
			"0.011": 10.0257864516,
			"0.012": 3.40259004268,
			"0.013": 0.544303955057,
			"0.014": 0.0,
			"0.015": 0.0,
			"0.016": 0.0,
			"0.017": 0.0,
			"0.018": 0.0,
			"0.019": 0.0,
			"0.02": 0.0,
			"0.021": 0.0,
			"0.022": 0.0,
			"0.023": 0.0,
			"0.024": 0.0,
			"0.0": 0.0
		}
	}
}
