{
	 "smiles": "CC(O)CNS(=O)(=O)C1=CC=C(C=C1)C(O)=O", 
	 "Tm": 482.15, 
	 "num_atms": 30, 
	 "gaussian": { 
		 "optdone": 1, 
		 "sigma_profile": "yes", 
		 "theory": "DFT", 
		 "functional": "B3LYP", 
		 "basiset": "6-31G**", 
		 "properties": { 
			 "R2extent": 6426.7184, 
			 "electric_dipole_moment_norm": 4.08411715919, 
			 "electric_quadrupole_moment_norm": 20.0735020176, 
			 "total_energy": -1217.88275497, 
			 "HOMO_LUMO_gap": 0.17551, 
			 "cosmo_polarized_energy": -26.77, 
			 "cosmo_cavitation_energy": 34.87, 
			 "cosmo_dispersion_energy": -25.45, 
			 "cosmo_repulsion_energy": 1.91, 
			 "cosmo_total_nonelectrostatic_energy": 11.34, 
			 "SMD_solvation_energy": 5.98 
		},
		"coords": [
			{
				"x": -3.335710197,
				"y": 2.8614022814,
				"z": 1.8067431885,
				"element": "C" 
			},
			{
				"x": -3.0709241256,
				"y": 2.4220013114,
				"z": 0.3613871434,
				"element": "C" 
			},
			{
				"x": -1.9576024758,
				"y": 3.0764550794,
				"z": -0.2094776497,
				"element": "O" 
			},
			{
				"x": -3.0056969499,
				"y": 0.8727073004,
				"z": 0.1840856478,
				"element": "C" 
			},
			{
				"x": -1.6349628685,
				"y": 0.2984046013,
				"z": 0.1263549733,
				"element": "N" 
			},
			{
				"x": -0.6804833528,
				"y": 0.3023593144,
				"z": 1.5231621919,
				"element": "S" 
			},
			{
				"x": -1.2653316283,
				"y": -0.4753562039,
				"z": 2.6233936603,
				"element": "O" 
			},
			{
				"x": -0.2998433143,
				"y": 1.7060112611,
				"z": 1.7597796353,
				"element": "O" 
			},
			{
				"x": 0.7466498924,
				"y": -0.5901766492,
				"z": 0.8954241626,
				"element": "C" 
			},
			{
				"x": 1.0623139203,
				"y": -1.8335946421,
				"z": 1.4451084966,
				"element": "C" 
			},
			{
				"x": 2.1883116357,
				"y": -2.5087397889,
				"z": 0.9799405413,
				"element": "C" 
			},
			{
				"x": 2.9783331587,
				"y": -1.9526424296,
				"z": -0.0340626914,
				"element": "C" 
			},
			{
				"x": 2.6544082217,
				"y": -0.6912981277,
				"z": -0.5575881205,
				"element": "C" 
			},
			{
				"x": 1.5391314991,
				"y": -0.0000428042,
				"z": -0.0915790862,
				"element": "C" 
			},
			{
				"x": 4.1787524398,
				"y": -2.740855159,
				"z": -0.4834557254,
				"element": "C" 
			},
			{
				"x": 4.6921367712,
				"y": -2.4373402493,
				"z": -1.7025190944,
				"element": "O" 
			},
			{
				"x": 4.6800237015,
				"y": -3.6084623695,
				"z": 0.1897950003,
				"element": "O" 
			},
			{
				"x": -4.2615134598,
				"y": 2.4172009943,
				"z": 2.1889898256,
				"element": "H" 
			},
			{
				"x": -3.4399051983,
				"y": 3.9497297348,
				"z": 1.8364848494,
				"element": "H" 
			},
			{
				"x": -2.5167676515,
				"y": 2.5803080715,
				"z": 2.4738727377,
				"element": "H" 
			},
			{
				"x": -3.9308394973,
				"y": 2.7427729154,
				"z": -0.2401599288,
				"element": "H" 
			},
			{
				"x": -1.1989089977,
				"y": 2.883260674,
				"z": 0.3655436217,
				"element": "H" 
			},
			{
				"x": -3.4248454377,
				"y": 0.6139646979,
				"z": -0.7924002716,
				"element": "H" 
			},
			{
				"x": -3.6172913797,
				"y": 0.3795782569,
				"z": 0.9513914461,
				"element": "H" 
			},
			{
				"x": -1.6768880333,
				"y": -0.6638955297,
				"z": -0.2059331035,
				"element": "H" 
			},
			{
				"x": 0.4363052129,
				"y": -2.2486092564,
				"z": 2.227420407,
				"element": "H" 
			},
			{
				"x": 2.4752007749,
				"y": -3.4700088129,
				"z": 1.3916776226,
				"element": "H" 
			},
			{
				"x": 3.289189134,
				"y": -0.2151828276,
				"z": -1.3003533497,
				"element": "H" 
			},
			{
				"x": 1.2893909107,
				"y": 0.9813239078,
				"z": -0.4789320715,
				"element": "H" 
			},
			{
				"x": 4.0995672943,
				"y": -1.846075552,
				"z": -2.1867940587,
				"element": "H" 
			}
		],
		 "valence_orbital": [ 
			{
				"type": "occ",
				"energy": -0.30076,
				"method": "rhf"
			},
			{
				"type": "occ",
				"energy": -0.29799,
				"method": "rhf"
			},
			{
				"type": "occ",
				"energy": -0.28803,
				"method": "rhf"
			},
			{
				"type": "occ",
				"energy": -0.27769,
				"method": "rhf"
			},
			{
				"type": "occ",
				"energy": -0.26129,
				"method": "rhf"
			},
			{
				"type": "unocc",
				"energy": -0.08578,
				"method": "rhf"
			},
			{
				"type": "unocc",
				"energy": -0.04848,
				"method": "rhf"
			},
			{
				"type": "unocc",
				"energy": 0.01189,
				"method": "rhf"
			},
			{
				"type": "unocc",
				"energy": 0.03413,
				"method": "rhf"
			},
			{
				"type": "unocc",
				"energy": 0.03844,
				"method": "rhf"
			}
		],
		"cosmo_sigma_profile": { 
			"-0.025": 0.0,
			"-0.024": 0.0,
			"-0.023": 0.0,
			"-0.022": 0.0,
			"-0.021": 0.0,
			"-0.02": 0.0417920020831,
			"-0.019": 0.810848144929,
			"-0.018": 1.02304915465,
			"-0.017": 1.4453206826,
			"-0.016": 1.34240822508,
			"-0.015": 2.05550744323,
			"-0.014": 2.42837197781,
			"-0.013": 2.48730709727,
			"-0.012": 2.56234793823,
			"-0.011": 2.65151567748,
			"-0.01": 2.0767802699,
			"-0.009": 3.94298359148,
			"-0.008": 6.88523627545,
			"-0.007": 9.35980761391,
			"-0.006": 10.5987592899,
			"-0.005": 15.8726973242,
			"-0.004": 18.6887944349,
			"-0.003": 18.4867185994,
			"-0.002": 16.4631966317,
			"-0.001": 19.2355234872,
			"0.0": 25.5712500835,
			"0.001": 20.97340574,
			"0.002": 8.67652390985,
			"0.003": 6.30965304052,
			"0.004": 5.76523928092,
			"0.005": 5.92961072446,
			"0.006": 5.35380045485,
			"0.007": 6.56006821383,
			"0.008": 8.11091539744,
			"0.009": 8.55205688009,
			"0.01": 13.0517883398,
			"0.011": 11.7385099914,
			"0.012": 4.85334522362,
			"0.013": 2.45897908358,
			"0.014": 2.52840138262,
			"0.015": 1.422223716,
			"0.016": 0.0,
			"0.017": 0.0,
			"0.018": 0.0,
			"0.019": 0.0,
			"0.02": 0.0,
			"0.021": 0.0,
			"0.022": 0.0,
			"0.023": 0.0,
			"0.024": 0.0,
			"0.025": 0.0
		}
	}
}
