{
	 "smiles": "CCOC=C1C(=O)N(C(=O)C2=C1C=CC=C2)C1=CC(=CC=C1)C(F)(F)F", 
	 "Tm": 468.15, 
	 "num_atms": 40, 
	 "gaussian": { 
		 "optdone": 1, 
		 "sigma_profile": "yes", 
		 "theory": "DFT", 
		 "functional": "B3LYP", 
		 "basiset": "6-31G**", 
		 "properties": { 
			 "R2extent": 13143.2249, 
			 "electric_dipole_moment_norm": 7.84937986149, 
			 "electric_quadrupole_moment_norm": 10.7460835936, 
			 "total_energy": -1312.42993606, 
			 "HOMO_LUMO_gap": 0.15817, 
			 "cosmo_polarized_energy": -16.41, 
			 "cosmo_cavitation_energy": 46.37, 
			 "cosmo_dispersion_energy": -31.87, 
			 "cosmo_repulsion_energy": 2.35, 
			 "cosmo_total_nonelectrostatic_energy": 16.84, 
			 "SMD_solvation_energy": 10.66 
		},
		"coords": [
			{
				"x": 1.3232678289,
				"y": -4.7556111957,
				"z": -1.7012561843,
				"element": "C" 
			},
			{
				"x": 0.9933496714,
				"y": -3.5336778177,
				"z": -2.5437398693,
				"element": "C" 
			},
			{
				"x": 1.2722656996,
				"y": -2.3097470524,
				"z": -1.826491379,
				"element": "O" 
			},
			{
				"x": 0.305335461,
				"y": -1.8497285475,
				"z": -1.0289514454,
				"element": "C" 
			},
			{
				"x": 0.4121096679,
				"y": -0.7618776027,
				"z": -0.2165185229,
				"element": "C" 
			},
			{
				"x": -0.8477474596,
				"y": -0.488421075,
				"z": 0.5247166835,
				"element": "C" 
			},
			{
				"x": -1.8535982639,
				"y": -1.1808868758,
				"z": 0.4235429745,
				"element": "O" 
			},
			{
				"x": -0.8547690057,
				"y": 0.631798277,
				"z": 1.3794278912,
				"element": "N" 
			},
			{
				"x": 0.23886085,
				"y": 1.4992354534,
				"z": 1.5913942181,
				"element": "C" 
			},
			{
				"x": 0.1339818779,
				"y": 2.4467939967,
				"z": 2.3547395153,
				"element": "O" 
			},
			{
				"x": 1.4849733558,
				"y": 1.1938263551,
				"z": 0.8516409356,
				"element": "C" 
			},
			{
				"x": 1.5838783656,
				"y": 0.0979333103,
				"z": -0.0327442946,
				"element": "C" 
			},
			{
				"x": 2.8143308461,
				"y": -0.1061167716,
				"z": -0.6905239908,
				"element": "C" 
			},
			{
				"x": 3.889691835,
				"y": 0.7479437686,
				"z": -0.4687793663,
				"element": "C" 
			},
			{
				"x": 3.7784906191,
				"y": 1.8305233063,
				"z": 0.4106666282,
				"element": "C" 
			},
			{
				"x": 2.574773483,
				"y": 2.0482381111,
				"z": 1.0669221592,
				"element": "C" 
			},
			{
				"x": -2.0757459141,
				"y": 0.9147323522,
				"z": 2.0958581413,
				"element": "C" 
			},
			{
				"x": -2.8121837666,
				"y": 2.0535549396,
				"z": 1.7770403134,
				"element": "C" 
			},
			{
				"x": -3.9916764587,
				"y": 2.3245159125,
				"z": 2.4710571322,
				"element": "C" 
			},
			{
				"x": -4.4382575161,
				"y": 1.460139165,
				"z": 3.4742456367,
				"element": "C" 
			},
			{
				"x": -3.6949339512,
				"y": 0.3228205501,
				"z": 3.7834052731,
				"element": "C" 
			},
			{
				"x": -2.5112140227,
				"y": 0.0492757104,
				"z": 3.0988106555,
				"element": "C" 
			},
			{
				"x": -4.7629096659,
				"y": 3.5820359274,
				"z": 2.173765724,
				"element": "C" 
			},
			{
				"x": -4.4073451793,
				"y": 4.5947563976,
				"z": 2.9973128884,
				"element": "F" 
			},
			{
				"x": -4.5600083471,
				"y": 4.0137919816,
				"z": 0.9092861709,
				"element": "F" 
			},
			{
				"x": -6.0941993957,
				"y": 3.4011166357,
				"z": 2.3323657961,
				"element": "F" 
			},
			{
				"x": 0.6909173,
				"y": -4.802680414,
				"z": -0.8094349733,
				"element": "H" 
			},
			{
				"x": 1.1567706253,
				"y": -5.6662355388,
				"z": -2.285611322,
				"element": "H" 
			},
			{
				"x": 2.3693680742,
				"y": -4.7350442111,
				"z": -1.3835386137,
				"element": "H" 
			},
			{
				"x": 1.6201812933,
				"y": -3.4825944745,
				"z": -3.4369116974,
				"element": "H" 
			},
			{
				"x": -0.0566672674,
				"y": -3.5303563687,
				"z": -2.8590218469,
				"element": "H" 
			},
			{
				"x": -0.6448830406,
				"y": -2.3803153543,
				"z": -1.0446018224,
				"element": "H" 
			},
			{
				"x": 2.9227445737,
				"y": -0.9356179695,
				"z": -1.3745956004,
				"element": "H" 
			},
			{
				"x": 4.8260495327,
				"y": 0.5665476179,
				"z": -0.9893093459,
				"element": "H" 
			},
			{
				"x": 4.6221084058,
				"y": 2.4929950736,
				"z": 0.5779223038,
				"element": "H" 
			},
			{
				"x": 2.4418819581,
				"y": 2.8745270039,
				"z": 1.7563768894,
				"element": "H" 
			},
			{
				"x": -2.4699493281,
				"y": 2.7214748779,
				"z": 0.9961289696,
				"element": "H" 
			},
			{
				"x": -5.362762024,
				"y": 1.6746300726,
				"z": 3.9992170669,
				"element": "H" 
			},
			{
				"x": -4.0387150258,
				"y": -0.3552093704,
				"z": 4.558159429,
				"element": "H" 
			},
			{
				"x": -1.9297656922,
				"y": -0.8359861567,
				"z": 3.3312268789,
				"element": "H" 
			}
		],
		 "valence_orbital": [ 
			{
				"type": "occ",
				"energy": -0.26159,
				"method": "rhf"
			},
			{
				"type": "occ",
				"energy": -0.26089,
				"method": "rhf"
			},
			{
				"type": "occ",
				"energy": -0.25925,
				"method": "rhf"
			},
			{
				"type": "occ",
				"energy": -0.24854,
				"method": "rhf"
			},
			{
				"type": "occ",
				"energy": -0.22535,
				"method": "rhf"
			},
			{
				"type": "unocc",
				"energy": -0.06718,
				"method": "rhf"
			},
			{
				"type": "unocc",
				"energy": -0.03427,
				"method": "rhf"
			},
			{
				"type": "unocc",
				"energy": -0.0208,
				"method": "rhf"
			},
			{
				"type": "unocc",
				"energy": -0.01342,
				"method": "rhf"
			},
			{
				"type": "unocc",
				"energy": -0.00241,
				"method": "rhf"
			}
		],
		"cosmo_sigma_profile": { 
			"-0.025": 0.0,
			"-0.024": 0.0,
			"-0.023": 0.0,
			"-0.022": 0.0,
			"-0.021": 0.0,
			"-0.02": 0.0,
			"-0.019": 0.0,
			"-0.018": 0.0,
			"-0.017": 0.0,
			"-0.016": 0.0,
			"-0.015": 0.0,
			"-0.014": 0.0,
			"-0.013": 0.0,
			"-0.012": 0.0,
			"-0.011": 0.0,
			"-0.01": 0.132345681554,
			"-0.009": 1.47590104501,
			"-0.008": 3.62825698489,
			"-0.007": 11.5430085906,
			"-0.006": 20.9892222271,
			"-0.005": 28.3456918589,
			"-0.004": 31.02810669,
			"-0.003": 24.5419831934,
			"-0.002": 22.8136572598,
			"-0.001": 26.8411462592,
			"0.0": 27.2316867124,
			"0.001": 31.5891097915,
			"0.002": 40.6523154419,
			"0.003": 49.1564261401,
			"0.004": 15.7798023442,
			"0.005": 3.56819089596,
			"0.006": 3.33418039717,
			"0.007": 3.95016104024,
			"0.008": 2.79707330743,
			"0.009": 3.65582763247,
			"0.01": 3.36101529074,
			"0.011": 5.66022539583,
			"0.012": 8.08694527203,
			"0.013": 1.96712042439,
			"0.014": 0.0,
			"0.015": 0.0,
			"0.016": 0.0,
			"0.017": 0.0,
			"0.018": 0.0,
			"0.019": 0.0,
			"0.02": 0.0,
			"0.021": 0.0,
			"0.022": 0.0,
			"0.023": 0.0,
			"0.024": 0.0,
			"0.025": 0.0
		}
	}
}
