{
	 "smiles": "NC1=CC(=CC=C1)N1CCN(CCC2=CC=CC=C2)CC1", 
	 "Tm": 370.15, 
	 "num_atms": 44, 
	 "gaussian": { 
		 "optdone": 1, 
		 "sigma_profile": "yes", 
		 "theory": "DFT", 
		 "functional": "B3LYP", 
		 "basiset": "6-31G**", 
		 "properties": { 
			 "R2extent": 11628.3314, 
			 "electric_dipole_moment_norm": 1.90074562738, 
			 "electric_quadrupole_moment_norm": 11.983644633, 
			 "total_energy": -864.018674458, 
			 "HOMO_LUMO_gap": 0.1757, 
			 "cosmo_polarized_energy": -13.31, 
			 "cosmo_cavitation_energy": 44.8, 
			 "cosmo_dispersion_energy": -32.14, 
			 "cosmo_repulsion_energy": 2.45, 
			 "cosmo_total_nonelectrostatic_energy": 15.11, 
			 "SMD_solvation_energy": 3.35 
		},
		"coords": [
			{
				"x": -5.7440424771,
				"y": -1.3349489114,
				"z": -2.4223415003,
				"element": "N" 
			},
			{
				"x": -4.4444394724,
				"y": -1.8556048471,
				"z": -2.4689294518,
				"element": "C" 
			},
			{
				"x": -3.3973241021,
				"y": -1.1841926978,
				"z": -1.8238055887,
				"element": "C" 
			},
			{
				"x": -2.0690904697,
				"y": -1.6517365087,
				"z": -1.8985050751,
				"element": "C" 
			},
			{
				"x": -1.8143468307,
				"y": -2.8301857063,
				"z": -2.6362941176,
				"element": "C" 
			},
			{
				"x": -2.8658208183,
				"y": -3.4927593005,
				"z": -3.2646170273,
				"element": "C" 
			},
			{
				"x": -4.1756638435,
				"y": -3.0268237912,
				"z": -3.1964324087,
				"element": "C" 
			},
			{
				"x": -1.0445927664,
				"y": -0.9691275586,
				"z": -1.2543449743,
				"element": "N" 
			},
			{
				"x": 0.2776635865,
				"y": -1.5579086518,
				"z": -1.0853996556,
				"element": "C" 
			},
			{
				"x": 0.9698251857,
				"y": -0.9736406032,
				"z": 0.146326964,
				"element": "C" 
			},
			{
				"x": 1.171825168,
				"y": 0.4760151516,
				"z": 0.0327894465,
				"element": "N" 
			},
			{
				"x": 1.3516317342,
				"y": 1.1194165902,
				"z": 1.3311736407,
				"element": "C" 
			},
			{
				"x": 2.6765324664,
				"y": 0.7197401993,
				"z": 2.0119675357,
				"element": "C" 
			},
			{
				"x": 2.9023119824,
				"y": 1.4788292443,
				"z": 3.3014030779,
				"element": "C" 
			},
			{
				"x": 2.4041664742,
				"y": 0.9944384415,
				"z": 4.5189680268,
				"element": "C" 
			},
			{
				"x": 2.5772231273,
				"y": 1.713044693,
				"z": 5.7028523847,
				"element": "C" 
			},
			{
				"x": 3.2552309823,
				"y": 2.933316352,
				"z": 5.6887398518,
				"element": "C" 
			},
			{
				"x": 3.7580547416,
				"y": 3.4274264514,
				"z": 4.4835644166,
				"element": "C" 
			},
			{
				"x": 3.5811400118,
				"y": 2.705478341,
				"z": 3.3024889854,
				"element": "C" 
			},
			{
				"x": 0.1656151324,
				"y": 1.112583516,
				"z": -0.8299431021,
				"element": "C" 
			},
			{
				"x": -1.2013539092,
				"y": 0.4158617696,
				"z": -0.8232478775,
				"element": "C" 
			},
			{
				"x": -5.9344025697,
				"y": -0.7462776884,
				"z": -1.6224203121,
				"element": "H" 
			},
			{
				"x": -6.4736415105,
				"y": -2.022653834,
				"z": -2.5535395607,
				"element": "H" 
			},
			{
				"x": -3.6320854044,
				"y": -0.3018583549,
				"z": -1.2375285268,
				"element": "H" 
			},
			{
				"x": -0.8049802893,
				"y": -3.2058722982,
				"z": -2.749414404,
				"element": "H" 
			},
			{
				"x": -2.6525766682,
				"y": -4.3943745825,
				"z": -3.8333588384,
				"element": "H" 
			},
			{
				"x": -4.9809708439,
				"y": -3.5514707662,
				"z": -3.7030044884,
				"element": "H" 
			},
			{
				"x": 0.1705311416,
				"y": -2.6358279166,
				"z": -0.9311955141,
				"element": "H" 
			},
			{
				"x": 0.9167173463,
				"y": -1.4204524178,
				"z": -1.9737909126,
				"element": "H" 
			},
			{
				"x": 0.3546480642,
				"y": -1.2239195225,
				"z": 1.0319823651,
				"element": "H" 
			},
			{
				"x": 1.9352672835,
				"y": -1.477581875,
				"z": 0.2765394218,
				"element": "H" 
			},
			{
				"x": 0.5170751521,
				"y": 0.9061238261,
				"z": 2.0296907974,
				"element": "H" 
			},
			{
				"x": 1.3639504842,
				"y": 2.2036879225,
				"z": 1.1757685073,
				"element": "H" 
			},
			{
				"x": 2.6773970904,
				"y": -0.3566148829,
				"z": 2.2173319921,
				"element": "H" 
			},
			{
				"x": 3.4915087168,
				"y": 0.9112466441,
				"z": 1.3050197665,
				"element": "H" 
			},
			{
				"x": 1.8804897584,
				"y": 0.0413278259,
				"z": 4.5388186083,
				"element": "H" 
			},
			{
				"x": 2.1868074727,
				"y": 1.3176145704,
				"z": 6.6365884445,
				"element": "H" 
			},
			{
				"x": 3.3947983384,
				"y": 3.4921538237,
				"z": 6.6097099675,
				"element": "H" 
			},
			{
				"x": 4.2924406182,
				"y": 4.3733003158,
				"z": 4.4633841387,
				"element": "H" 
			},
			{
				"x": 3.9801316885,
				"y": 3.0938977666,
				"z": 2.3681260193,
				"element": "H" 
			},
			{
				"x": 0.0412138035,
				"y": 2.1553685312,
				"z": -0.5233046178,
				"element": "H" 
			},
			{
				"x": 0.5322463342,
				"y": 1.1298200987,
				"z": -1.8653813893,
				"element": "H" 
			},
			{
				"x": -1.8659564768,
				"y": 0.9401400973,
				"z": -1.5200533332,
				"element": "H" 
			},
			{
				"x": -1.6611554336,
				"y": 0.4877005433,
				"z": 0.177018318,
				"element": "H" 
			}
		],
		 "valence_orbital": [ 
			{
				"type": "occ",
				"energy": -0.24723,
				"method": "rhf"
			},
			{
				"type": "occ",
				"energy": -0.23994,
				"method": "rhf"
			},
			{
				"type": "occ",
				"energy": -0.20739,
				"method": "rhf"
			},
			{
				"type": "occ",
				"energy": -0.19701,
				"method": "rhf"
			},
			{
				"type": "occ",
				"energy": -0.17451,
				"method": "rhf"
			},
			{
				"type": "unocc",
				"energy": 0.00119,
				"method": "rhf"
			},
			{
				"type": "unocc",
				"energy": 0.00143,
				"method": "rhf"
			},
			{
				"type": "unocc",
				"energy": 0.02312,
				"method": "rhf"
			},
			{
				"type": "unocc",
				"energy": 0.03776,
				"method": "rhf"
			},
			{
				"type": "unocc",
				"energy": 0.07801,
				"method": "rhf"
			}
		],
		"cosmo_sigma_profile": { 
			"-0.025": 0.0,
			"-0.024": 0.0,
			"-0.023": 0.0,
			"-0.022": 0.0,
			"-0.021": 0.0,
			"-0.02": 0.0,
			"-0.019": 0.0,
			"-0.018": 0.0,
			"-0.017": 0.0,
			"-0.016": 0.0,
			"-0.015": 0.0,
			"-0.014": 0.0,
			"-0.013": 0.0,
			"-0.012": 0.981679698998,
			"-0.011": 2.61841813711,
			"-0.01": 2.67945168524,
			"-0.009": 2.61328078656,
			"-0.008": 3.01427069069,
			"-0.007": 2.92523801076,
			"-0.006": 4.4933646597,
			"-0.005": 17.3354683492,
			"-0.004": 33.3832453874,
			"-0.003": 47.0837234735,
			"-0.002": 48.4189425971,
			"-0.001": 32.5749406818,
			"0.0": 20.4508623427,
			"0.001": 18.9357616291,
			"0.002": 15.0309541496,
			"0.003": 14.0111277617,
			"0.004": 16.0949315433,
			"0.005": 16.0236290287,
			"0.006": 16.7217603245,
			"0.007": 13.3521852713,
			"0.008": 10.4514472647,
			"0.009": 4.55320807702,
			"0.01": 1.47526453647,
			"0.011": 1.33061082556,
			"0.012": 1.41879235482,
			"0.013": 1.14106220342,
			"0.014": 1.06580785391,
			"0.015": 1.02284979982,
			"0.016": 0.228760109293,
			"0.017": 0.0,
			"0.018": 0.0,
			"0.019": 0.0,
			"0.02": 0.0,
			"0.021": 0.0,
			"0.022": 0.0,
			"0.023": 0.0,
			"0.024": 0.0,
			"0.025": 0.0
		}
	}
}
