{
	 "smiles": "N1C2=C(OC3=C1C=CC=C3P(C1=CC=CC=C1)C1=CC=CC=C1)C(=CC=C2)P(C1=CC=CC=C1)C1=CC=CC=C1", 
	 "Tm": 532.15, 
	 "num_atms": 67, 
	 "gaussian": { 
		 "optdone": 1, 
		 "sigma_profile": "yes", 
		 "theory": "DFT", 
		 "functional": "B3LYP", 
		 "basiset": "6-31G**", 
		 "properties": { 
			 "R2extent": 18565.6625, 
			 "electric_dipole_moment_norm": 3.53311318953, 
			 "electric_quadrupole_moment_norm": 20.7455376879, 
			 "total_energy": -2200.76690842, 
			 "HOMO_LUMO_gap": 0.15723, 
			 "cosmo_polarized_energy": -20.35, 
			 "cosmo_cavitation_energy": 71.97, 
			 "cosmo_dispersion_energy": -43.51, 
			 "cosmo_repulsion_energy": 3.25, 
			 "cosmo_total_nonelectrostatic_energy": 31.71, 
			 "SMD_solvation_energy": 11.15 
		},
		"coords": [
			{
				"x": -1.6272726694,
				"y": 3.9221424478,
				"z": 0.246803068,
				"element": "N" 
			},
			{
				"x": -1.9349182837,
				"y": 2.7604614111,
				"z": -0.4607582708,
				"element": "C" 
			},
			{
				"x": -1.0283591023,
				"y": 1.6854842331,
				"z": -0.4100356656,
				"element": "C" 
			},
			{
				"x": 0.1515585867,
				"y": 1.8065074989,
				"z": 0.3189066666,
				"element": "O" 
			},
			{
				"x": 0.5840454964,
				"y": 3.0696445583,
				"z": 0.7071220633,
				"element": "C" 
			},
			{
				"x": -0.3208012417,
				"y": 4.1492941941,
				"z": 0.6844474553,
				"element": "C" 
			},
			{
				"x": 0.0848217027,
				"y": 5.4124781038,
				"z": 1.1157285116,
				"element": "C" 
			},
			{
				"x": 1.3855607021,
				"y": 5.6095355596,
				"z": 1.5736346997,
				"element": "C" 
			},
			{
				"x": 2.2776300969,
				"y": 4.5447481643,
				"z": 1.5814933887,
				"element": "C" 
			},
			{
				"x": 1.9028352339,
				"y": 3.252648945,
				"z": 1.1506261985,
				"element": "C" 
			},
			{
				"x": 3.3091624389,
				"y": 2.0425053723,
				"z": 1.268361487,
				"element": "P" 
			},
			{
				"x": 2.8360761228,
				"y": 0.8346553232,
				"z": 2.5892183759,
				"element": "C" 
			},
			{
				"x": 1.6297404932,
				"y": 0.1175874821,
				"z": 2.6553633506,
				"element": "C" 
			},
			{
				"x": 1.3816469158,
				"y": -0.755854066,
				"z": 3.7143530218,
				"element": "C" 
			},
			{
				"x": 2.335150628,
				"y": -0.9307235266,
				"z": 4.7211711551,
				"element": "C" 
			},
			{
				"x": 3.5384948747,
				"y": -0.2275770466,
				"z": 4.6675897434,
				"element": "C" 
			},
			{
				"x": 3.7840782501,
				"y": 0.6509737777,
				"z": 3.609763272,
				"element": "C" 
			},
			{
				"x": 3.2697746178,
				"y": 1.0740187914,
				"z": -0.30019439,
				"element": "C" 
			},
			{
				"x": 3.738277378,
				"y": -0.2492271611,
				"z": -0.3242572648,
				"element": "C" 
			},
			{
				"x": 3.9227175139,
				"y": -0.9189855227,
				"z": -1.5339132396,
				"element": "C" 
			},
			{
				"x": 3.6446225497,
				"y": -0.2796891061,
				"z": -2.7432391341,
				"element": "C" 
			},
			{
				"x": 3.1784726051,
				"y": 1.0370693562,
				"z": -2.7315013187,
				"element": "C" 
			},
			{
				"x": 2.9992715492,
				"y": 1.7095901992,
				"z": -1.5224015609,
				"element": "C" 
			},
			{
				"x": -1.3152299352,
				"y": 0.4702471198,
				"z": -1.0442420573,
				"element": "C" 
			},
			{
				"x": -2.5257246887,
				"y": 0.366341264,
				"z": -1.7602115459,
				"element": "C" 
			},
			{
				"x": -3.4128243661,
				"y": 1.4330940995,
				"z": -1.8349061535,
				"element": "C" 
			},
			{
				"x": -3.1201124588,
				"y": 2.6320178148,
				"z": -1.1837758367,
				"element": "C" 
			},
			{
				"x": -0.102817807,
				"y": -0.9343541205,
				"z": -0.9277639591,
				"element": "P" 
			},
			{
				"x": -0.7907930553,
				"y": -1.9142393788,
				"z": 0.4906220501,
				"element": "C" 
			},
			{
				"x": -0.0474702081,
				"y": -3.0351405655,
				"z": 0.9035496748,
				"element": "C" 
			},
			{
				"x": -0.4697615361,
				"y": -3.8213404982,
				"z": 1.9742557058,
				"element": "C" 
			},
			{
				"x": -1.6331560254,
				"y": -3.486840558,
				"z": 2.6731688935,
				"element": "C" 
			},
			{
				"x": -2.3697716164,
				"y": -2.3663919254,
				"z": 2.2869480592,
				"element": "C" 
			},
			{
				"x": -1.9560643392,
				"y": -1.5892341355,
				"z": 1.2009587767,
				"element": "C" 
			},
			{
				"x": -0.6114359102,
				"y": -1.973969287,
				"z": -2.3791637144,
				"element": "C" 
			},
			{
				"x": -1.5528920606,
				"y": -3.0142781147,
				"z": -2.3307887742,
				"element": "C" 
			},
			{
				"x": -1.8428177158,
				"y": -3.7656777004,
				"z": -3.4720204312,
				"element": "C" 
			},
			{
				"x": -1.2013187699,
				"y": -3.4865246326,
				"z": -4.6798791796,
				"element": "C" 
			},
			{
				"x": -0.2600382173,
				"y": -2.4565432348,
				"z": -4.7402366608,
				"element": "C" 
			},
			{
				"x": 0.038949034,
				"y": -1.7141440954,
				"z": -3.5977051743,
				"element": "C" 
			},
			{
				"x": -2.1963652464,
				"y": 4.7352982659,
				"z": 0.0643679158,
				"element": "H" 
			},
			{
				"x": -0.6286713615,
				"y": 6.2326598279,
				"z": 1.0934775116,
				"element": "H" 
			},
			{
				"x": 1.6991640783,
				"y": 6.5922760583,
				"z": 1.9113815871,
				"element": "H" 
			},
			{
				"x": 3.2979578266,
				"y": 4.6946587459,
				"z": 1.918860212,
				"element": "H" 
			},
			{
				"x": 0.8853698962,
				"y": 0.245448805,
				"z": 1.8801420427,
				"element": "H" 
			},
			{
				"x": 0.4449677395,
				"y": -1.3044710986,
				"z": 3.7468598112,
				"element": "H" 
			},
			{
				"x": 2.1390359611,
				"y": -1.6129676476,
				"z": 5.5440370931,
				"element": "H" 
			},
			{
				"x": 4.2842533324,
				"y": -0.3580211678,
				"z": 5.4470017821,
				"element": "H" 
			},
			{
				"x": 4.7189157242,
				"y": 1.2038662851,
				"z": 3.5725141293,
				"element": "H" 
			},
			{
				"x": 3.9577202969,
				"y": -0.7609701444,
				"z": 0.6082459842,
				"element": "H" 
			},
			{
				"x": 4.2839547376,
				"y": -1.9439279732,
				"z": -1.5306934472,
				"element": "H" 
			},
			{
				"x": 3.7950655071,
				"y": -0.7999376959,
				"z": -3.6850538052,
				"element": "H" 
			},
			{
				"x": 2.9615699262,
				"y": 1.5472100143,
				"z": -3.6665552555,
				"element": "H" 
			},
			{
				"x": 2.6474315707,
				"y": 2.7375463017,
				"z": -1.5315922712,
				"element": "H" 
			},
			{
				"x": -2.7608650534,
				"y": -0.5642795334,
				"z": -2.2629580297,
				"element": "H" 
			},
			{
				"x": -4.3380398473,
				"y": 1.3359019567,
				"z": -2.3947372075,
				"element": "H" 
			},
			{
				"x": -3.8108888955,
				"y": 3.4705763711,
				"z": -1.2241601864,
				"element": "H" 
			},
			{
				"x": 0.8709658161,
				"y": -3.2914101919,
				"z": 0.3812810163,
				"element": "H" 
			},
			{
				"x": 0.1149261975,
				"y": -4.6876662233,
				"z": 2.2710785212,
				"element": "H" 
			},
			{
				"x": -1.9595786323,
				"y": -4.0931686804,
				"z": 3.5134628801,
				"element": "H" 
			},
			{
				"x": -3.2744377098,
				"y": -2.0973473663,
				"z": 2.8256411391,
				"element": "H" 
			},
			{
				"x": -2.5471952543,
				"y": -0.7287881585,
				"z": 0.9048354103,
				"element": "H" 
			},
			{
				"x": -2.0590603334,
				"y": -3.2411114685,
				"z": -1.3977360763,
				"element": "H" 
			},
			{
				"x": -2.5727776082,
				"y": -4.568862704,
				"z": -3.4162243421,
				"element": "H" 
			},
			{
				"x": -1.4278834756,
				"y": -4.0721847502,
				"z": -5.5664673986,
				"element": "H" 
			},
			{
				"x": 0.2502312813,
				"y": -2.2390144758,
				"z": -5.6746434358,
				"element": "H" 
			},
			{
				"x": 0.7922267437,
				"y": -0.9320243925,
				"z": -3.6431568668,
				"element": "H" 
			}
		],
		 "valence_orbital": [ 
			{
				"type": "occ",
				"energy": -0.23677,
				"method": "rhf"
			},
			{
				"type": "occ",
				"energy": -0.23372,
				"method": "rhf"
			},
			{
				"type": "occ",
				"energy": -0.20664,
				"method": "rhf"
			},
			{
				"type": "occ",
				"energy": -0.20043,
				"method": "rhf"
			},
			{
				"type": "occ",
				"energy": -0.18071,
				"method": "rhf"
			},
			{
				"type": "unocc",
				"energy": -0.02348,
				"method": "rhf"
			},
			{
				"type": "unocc",
				"energy": -0.01981,
				"method": "rhf"
			},
			{
				"type": "unocc",
				"energy": -0.01651,
				"method": "rhf"
			},
			{
				"type": "unocc",
				"energy": -0.01314,
				"method": "rhf"
			},
			{
				"type": "unocc",
				"energy": -0.00637,
				"method": "rhf"
			}
		],
		"cosmo_sigma_profile": { 
			"-0.025": 0.0,
			"-0.024": 0.0,
			"-0.023": 0.0,
			"-0.022": 0.0,
			"-0.021": 0.0,
			"-0.02": 0.0,
			"-0.019": 0.0,
			"-0.018": 0.0,
			"-0.017": 0.0,
			"-0.016": 0.0,
			"-0.015": 0.654404818721,
			"-0.014": 1.67525908722,
			"-0.013": 1.72097272356,
			"-0.012": 1.09583985464,
			"-0.011": 2.09601132388,
			"-0.01": 1.59792051004,
			"-0.009": 1.45317617328,
			"-0.008": 1.93144651028,
			"-0.007": 3.36287971753,
			"-0.006": 21.5885843236,
			"-0.005": 39.1340057541,
			"-0.004": 46.5646649395,
			"-0.003": 48.2684758318,
			"-0.002": 40.0018110668,
			"-0.001": 42.9887770093,
			"0.0": 46.3175022041,
			"0.001": 49.0990205379,
			"0.002": 48.6503809534,
			"0.003": 53.8835720978,
			"0.004": 50.3519942146,
			"0.005": 42.1717518738,
			"0.006": 13.8703679437,
			"0.007": 3.69314845243,
			"0.008": 3.29860784569,
			"0.009": 2.92352118582,
			"0.01": 1.789666649,
			"0.011": 1.75184805638,
			"0.012": 0.916450208195,
			"0.013": 0.747387271168,
			"0.014": 0.107294986836,
			"0.015": 0.0,
			"0.016": 0.0,
			"0.017": 0.0,
			"0.018": 0.0,
			"0.019": 0.0,
			"0.02": 0.0,
			"0.021": 0.0,
			"0.022": 0.0,
			"0.023": 0.0,
			"0.024": 0.0,
			"0.025": 0.0
		}
	}
}
