{
	 "smiles": "N#CC(C#N)=C1C=CC(C=C1)=C(C#N)C#N", 
	 "Tm": 561.15, 
	 "num_atms": 20, 
	 "gaussian": { 
		 "optdone": 1, 
		 "sigma_profile": "yes", 
		 "theory": "DFT", 
		 "functional": "B3LYP", 
		 "basiset": "6-31G**", 
		 "properties": { 
			 "R2extent": 4662.6035, 
			 "electric_dipole_moment_norm": 0.0001, 
			 "electric_quadrupole_moment_norm": 28.3423173825, 
			 "total_energy": -678.567913601, 
			 "HOMO_LUMO_gap": 0.09218, 
			 "cosmo_polarized_energy": -18.81, 
			 "cosmo_cavitation_energy": 30.45, 
			 "cosmo_dispersion_energy": -19.51, 
			 "cosmo_repulsion_energy": 1.5, 
			 "cosmo_total_nonelectrostatic_energy": 12.44, 
			 "SMD_solvation_energy": 10.39 
		},
		"coords": [
			{
				"x": -0.9059327072,
				"y": 5.0011762428,
				"z": 2.1194670874,
				"element": "N" 
			},
			{
				"x": -0.8131540136,
				"y": 4.2783368156,
				"z": 1.2110744607,
				"element": "C" 
			},
			{
				"x": -0.694909453,
				"y": 3.3828669864,
				"z": 0.1062584081,
				"element": "C" 
			},
			{
				"x": -1.0670761766,
				"y": 3.8980080593,
				"z": -1.1714744766,
				"element": "C" 
			},
			{
				"x": -1.3683280395,
				"y": 4.3085922073,
				"z": -2.2188341726,
				"element": "N" 
			},
			{
				"x": -0.2415781134,
				"y": 2.078883677,
				"z": 0.2661342232,
				"element": "C" 
			},
			{
				"x": 0.1317994077,
				"y": 1.5719650742,
				"z": 1.5690624422,
				"element": "C" 
			},
			{
				"x": 0.574038421,
				"y": 0.299802446,
				"z": 1.7250611222,
				"element": "C" 
			},
			{
				"x": 0.6882007853,
				"y": -0.5956737162,
				"z": 0.5940866355,
				"element": "C" 
			},
			{
				"x": 0.3148225337,
				"y": -0.0887538748,
				"z": -0.7088394852,
				"element": "C" 
			},
			{
				"x": -0.1274163377,
				"y": 1.1834080747,
				"z": -0.864838676,
				"element": "C" 
			},
			{
				"x": 1.141530857,
				"y": -1.8996595502,
				"z": 0.7539517396,
				"element": "C" 
			},
			{
				"x": 1.259774002,
				"y": -2.7951377755,
				"z": -0.3508692954,
				"element": "C" 
			},
			{
				"x": 1.3525412656,
				"y": -3.5179332769,
				"z": -1.2593051736,
				"element": "N" 
			},
			{
				"x": 1.5136943412,
				"y": -2.4147990751,
				"z": 2.0316855263,
				"element": "C" 
			},
			{
				"x": 1.814950181,
				"y": -2.82540635,
				"z": 3.0790349028,
				"element": "N" 
			},
			{
				"x": 0.0516800284,
				"y": 2.2314083767,
				"z": 2.4267905047,
				"element": "H" 
			},
			{
				"x": 0.8502174259,
				"y": -0.0657249533,
				"z": 2.7084730834,
				"element": "H" 
			},
			{
				"x": 0.3949414262,
				"y": -0.7481966213,
				"z": -1.5665684626,
				"element": "H" 
			},
			{
				"x": -0.403595834,
				"y": 1.5489372333,
				"z": -1.848250394,
				"element": "H" 
			}
		],
		 "valence_orbital": [ 
			{
				"type": "occ",
				"energy": -0.36736,
				"method": "rhf"
			},
			{
				"type": "occ",
				"energy": -0.36678,
				"method": "rhf"
			},
			{
				"type": "occ",
				"energy": -0.34367,
				"method": "rhf"
			},
			{
				"type": "occ",
				"energy": -0.32869,
				"method": "rhf"
			},
			{
				"type": "occ",
				"energy": -0.2692,
				"method": "rhf"
			},
			{
				"type": "unocc",
				"energy": -0.17702,
				"method": "rhf"
			},
			{
				"type": "unocc",
				"energy": -0.06417,
				"method": "rhf"
			},
			{
				"type": "unocc",
				"energy": -0.0633,
				"method": "rhf"
			},
			{
				"type": "unocc",
				"energy": -0.03591,
				"method": "rhf"
			},
			{
				"type": "unocc",
				"energy": -0.03036,
				"method": "rhf"
			}
		],
		"cosmo_sigma_profile": { 
			"-0.025": 0.0,
			"-0.024": 0.0,
			"-0.023": 0.0,
			"-0.022": 0.0,
			"-0.021": 0.0,
			"-0.02": 0.0,
			"-0.019": 0.0,
			"-0.018": 0.0,
			"-0.017": 0.0,
			"-0.016": 0.0,
			"-0.015": 0.0,
			"-0.014": 0.0,
			"-0.013": 0.0,
			"-0.012": 0.0,
			"-0.011": 0.0,
			"-0.01": 1.12371251848,
			"-0.009": 7.19490558197,
			"-0.008": 6.45689857684,
			"-0.007": 10.4206474534,
			"-0.006": 23.2151773686,
			"-0.005": 29.2819230865,
			"-0.004": 21.9740780829,
			"-0.003": 16.5203835884,
			"-0.002": 12.8710793999,
			"-0.001": 10.8008577661,
			"0.0": 8.78996678449,
			"0.001": 8.05066604011,
			"0.002": 5.84018839132,
			"0.003": 9.1162668295,
			"0.004": 7.03288880898,
			"0.005": 10.6110944521,
			"0.006": 11.0592741673,
			"0.007": 10.8080137302,
			"0.008": 11.8353494235,
			"0.009": 10.3391020581,
			"0.01": 10.0313667858,
			"0.011": 7.46517091287,
			"0.012": 1.0039390268,
			"0.013": 0.0,
			"0.014": 0.0,
			"0.015": 0.0,
			"0.016": 0.0,
			"0.017": 0.0,
			"0.018": 0.0,
			"0.019": 0.0,
			"0.02": 0.0,
			"0.021": 0.0,
			"0.022": 0.0,
			"0.023": 0.0,
			"0.024": 0.0,
			"0.025": 0.0
		}
	}
}
