{
	 "smiles": "FC(F)(F)C1=NC2=C(N1)C=CC(=C2)C(NC(=O)CCl)C1=CC=CC=C1", 
	 "Tm": 467.15, 
	 "num_atms": 38, 
	 "gaussian": { 
		 "optdone": 1, 
		 "sigma_profile": "yes", 
		 "theory": "DFT", 
		 "functional": "B3LYP", 
		 "basiset": "6-31G**", 
		 "properties": { 
			 "R2extent": 12545.7478, 
			 "electric_dipole_moment_norm": 4.1397080199, 
			 "electric_quadrupole_moment_norm": 11.916282015, 
			 "total_energy": -1654.86055795, 
			 "HOMO_LUMO_gap": 0.19542, 
			 "cosmo_polarized_energy": -20.77, 
			 "cosmo_cavitation_energy": 45.69, 
			 "cosmo_dispersion_energy": -31.6, 
			 "cosmo_repulsion_energy": 2.37, 
			 "cosmo_total_nonelectrostatic_energy": 16.46, 
			 "SMD_solvation_energy": 6.37 
		},
		"coords": [
			{
				"x": -3.6954379408,
				"y": 5.0227923216,
				"z": 0.8721594925,
				"element": "F" 
			},
			{
				"x": -3.6799125553,
				"y": 3.8054717017,
				"z": 1.4769147727,
				"element": "C" 
			},
			{
				"x": -4.9046588442,
				"y": 3.2683277967,
				"z": 1.327294793,
				"element": "F" 
			},
			{
				"x": -3.471690392,
				"y": 3.9922550538,
				"z": 2.7861678643,
				"element": "F" 
			},
			{
				"x": -2.6138347147,
				"y": 2.9508488833,
				"z": 0.8544496268,
				"element": "C" 
			},
			{
				"x": -2.2009902057,
				"y": 1.8053863487,
				"z": 1.3267448155,
				"element": "N" 
			},
			{
				"x": -1.2567491804,
				"y": 1.374548246,
				"z": 0.4052286356,
				"element": "C" 
			},
			{
				"x": -1.1257080047,
				"y": 2.3144985217,
				"z": -0.6456146197,
				"element": "C" 
			},
			{
				"x": -2.01916234,
				"y": 3.3209600556,
				"z": -0.3296528732,
				"element": "N" 
			},
			{
				"x": -0.2388924025,
				"y": 2.1165367405,
				"z": -1.7046814833,
				"element": "C" 
			},
			{
				"x": 0.5198881469,
				"y": 0.9514598582,
				"z": -1.6793382325,
				"element": "C" 
			},
			{
				"x": 0.4167239404,
				"y": -0.000061107,
				"z": -0.6361256235,
				"element": "C" 
			},
			{
				"x": -0.4839889145,
				"y": 0.2080607245,
				"z": 0.4055454801,
				"element": "C" 
			},
			{
				"x": 1.202828063,
				"y": -1.316963601,
				"z": -0.7198843915,
				"element": "C" 
			},
			{
				"x": 1.4661824577,
				"y": -1.903084413,
				"z": 0.6093456094,
				"element": "N" 
			},
			{
				"x": 2.1513566363,
				"y": -1.3032176012,
				"z": 1.6112691015,
				"element": "C" 
			},
			{
				"x": 2.5987556902,
				"y": -0.163554239,
				"z": 1.5952877174,
				"element": "O" 
			},
			{
				"x": 2.3690771163,
				"y": -2.1036895768,
				"z": 2.9016448384,
				"element": "C" 
			},
			{
				"x": 1.7499099146,
				"y": -3.8131048987,
				"z": 2.9343639784,
				"element": "Cl" 
			},
			{
				"x": 2.4562950313,
				"y": -1.2869439059,
				"z": -1.5938387648,
				"element": "C" 
			},
			{
				"x": 2.5656389066,
				"y": -2.191662894,
				"z": -2.656810585,
				"element": "C" 
			},
			{
				"x": 3.7038638098,
				"y": -2.2155063048,
				"z": -3.4658198904,
				"element": "C" 
			},
			{
				"x": 4.7509887145,
				"y": -1.3286958933,
				"z": -3.217487927,
				"element": "C" 
			},
			{
				"x": 4.6503591061,
				"y": -0.4198533131,
				"z": -2.1606701696,
				"element": "C" 
			},
			{
				"x": 3.5126709688,
				"y": -0.3932108261,
				"z": -1.3544411584,
				"element": "C" 
			},
			{
				"x": -2.1840948855,
				"y": 4.1843224117,
				"z": -0.8235531186,
				"element": "H" 
			},
			{
				"x": -0.1357285304,
				"y": 2.8321116463,
				"z": -2.5143074148,
				"element": "H" 
			},
			{
				"x": 1.2192506456,
				"y": 0.769878073,
				"z": -2.4872478232,
				"element": "H" 
			},
			{
				"x": -0.5937328138,
				"y": -0.508947488,
				"z": 1.2108622203,
				"element": "H" 
			},
			{
				"x": 0.5267131728,
				"y": -2.0440162729,
				"z": -1.1868154003,
				"element": "H" 
			},
			{
				"x": 1.2260288543,
				"y": -2.8755995269,
				"z": 0.7402781815,
				"element": "H" 
			},
			{
				"x": 1.8823491063,
				"y": -1.5715724752,
				"z": 3.7193232244,
				"element": "H" 
			},
			{
				"x": 3.4404384116,
				"y": -2.1481541868,
				"z": 3.0965894786,
				"element": "H" 
			},
			{
				"x": 1.7520188242,
				"y": -2.8857083575,
				"z": -2.8567814976,
				"element": "H" 
			},
			{
				"x": 3.7690955154,
				"y": -2.9244556359,
				"z": -4.2863020204,
				"element": "H" 
			},
			{
				"x": 5.6389702405,
				"y": -1.3431098142,
				"z": -3.8430965441,
				"element": "H" 
			},
			{
				"x": 5.4623559851,
				"y": 0.2743334862,
				"z": -1.9627782923,
				"element": "H" 
			},
			{
				"x": 3.4374224663,
				"y": 0.3054204618,
				"z": -0.5292220001,
				"element": "H" 
			}
		],
		 "valence_orbital": [ 
			{
				"type": "occ",
				"energy": -0.26369,
				"method": "rhf"
			},
			{
				"type": "occ",
				"energy": -0.25395,
				"method": "rhf"
			},
			{
				"type": "occ",
				"energy": -0.24928,
				"method": "rhf"
			},
			{
				"type": "occ",
				"energy": -0.23747,
				"method": "rhf"
			},
			{
				"type": "occ",
				"energy": -0.2327,
				"method": "rhf"
			},
			{
				"type": "unocc",
				"energy": -0.03728,
				"method": "rhf"
			},
			{
				"type": "unocc",
				"energy": -0.01127,
				"method": "rhf"
			},
			{
				"type": "unocc",
				"energy": -0.00393,
				"method": "rhf"
			},
			{
				"type": "unocc",
				"energy": 0.00559,
				"method": "rhf"
			},
			{
				"type": "unocc",
				"energy": 0.01172,
				"method": "rhf"
			}
		],
		"cosmo_sigma_profile": { 
			"-0.025": 0.0,
			"-0.024": 0.0,
			"-0.023": 0.0,
			"-0.022": 0.0,
			"-0.021": 0.0,
			"-0.02": 0.0,
			"-0.019": 0.0,
			"-0.018": 0.0,
			"-0.017": 0.983991710764,
			"-0.016": 0.959344966255,
			"-0.015": 1.3400966694,
			"-0.014": 1.31929070495,
			"-0.013": 1.48555624053,
			"-0.012": 2.40942793739,
			"-0.011": 1.8486876792,
			"-0.01": 2.17753096343,
			"-0.009": 5.7194923902,
			"-0.008": 8.55928661693,
			"-0.007": 11.3527981312,
			"-0.006": 15.1970548846,
			"-0.005": 20.3718021478,
			"-0.004": 22.1239860489,
			"-0.003": 21.0011251642,
			"-0.002": 19.006152934,
			"-0.001": 21.5615708258,
			"0.0": 21.1285487825,
			"0.001": 28.494027453,
			"0.002": 47.8250530259,
			"0.003": 30.686550433,
			"0.004": 24.4651790914,
			"0.005": 22.1963607188,
			"0.006": 11.2579481361,
			"0.007": 3.0838168229,
			"0.008": 3.04090181027,
			"0.009": 2.82958501074,
			"0.01": 2.25147872619,
			"0.011": 3.19400970079,
			"0.012": 3.9724480553,
			"0.013": 3.6149564811,
			"0.014": 2.00016503689,
			"0.015": 0.65360260099,
			"0.016": 0.331203116754,
			"0.017": 0.0,
			"0.018": 0.0,
			"0.019": 0.0,
			"0.02": 0.0,
			"0.021": 0.0,
			"0.022": 0.0,
			"0.023": 0.0,
			"0.024": 0.0,
			"0.025": 0.0
		}
	}
}
