{
	 "smiles": "NC1=CC(=CC=C1)C1=NC(=NN1)C1CC1", 
	 "Tm": 428.15, 
	 "num_atms": 27, 
	 "gaussian": { 
		 "optdone": 1, 
		 "sigma_profile": "yes", 
		 "theory": "DFT", 
		 "functional": "B3LYP", 
		 "basiset": "6-31G**", 
		 "properties": { 
			 "R2extent": 4612.4117, 
			 "electric_dipole_moment_norm": 3.88499227798, 
			 "electric_quadrupole_moment_norm": 15.5434801743, 
			 "total_energy": -645.38445725, 
			 "HOMO_LUMO_gap": 0.175, 
			 "cosmo_polarized_energy": -17.47, 
			 "cosmo_cavitation_energy": 31.16, 
			 "cosmo_dispersion_energy": -22.95, 
			 "cosmo_repulsion_energy": 1.8, 
			 "cosmo_total_nonelectrostatic_energy": 10.02, 
			 "SMD_solvation_energy": 2.46 
		},
		"coords": [
			{
				"x": 4.4529293077,
				"y": -1.7148117065,
				"z": -0.5418121721,
				"element": "N" 
			},
			{
				"x": 3.5084325941,
				"y": -1.1562454105,
				"z": 0.3212698134,
				"element": "C" 
			},
			{
				"x": 2.1433356904,
				"y": -1.1775270066,
				"z": -0.0017524991,
				"element": "C" 
			},
			{
				"x": 1.1961188588,
				"y": -0.5698483069,
				"z": 0.8337731855,
				"element": "C" 
			},
			{
				"x": 1.609008347,
				"y": 0.0567356159,
				"z": 2.0188600781,
				"element": "C" 
			},
			{
				"x": 2.9640043615,
				"y": 0.0755838622,
				"z": 2.3410706156,
				"element": "C" 
			},
			{
				"x": 3.9097872669,
				"y": -0.5170096225,
				"z": 1.5076127324,
				"element": "C" 
			},
			{
				"x": -0.2309428705,
				"y": -0.574314246,
				"z": 0.4962599035,
				"element": "C" 
			},
			{
				"x": -1.2354889572,
				"y": -0.2951421846,
				"z": 1.3199986936,
				"element": "N" 
			},
			{
				"x": -2.3472560388,
				"y": -0.4268090022,
				"z": 0.536870121,
				"element": "C" 
			},
			{
				"x": -2.0980078068,
				"y": -0.7683677999,
				"z": -0.7244313965,
				"element": "N" 
			},
			{
				"x": -0.7411133727,
				"y": -0.8622492424,
				"z": -0.7283477545,
				"element": "N" 
			},
			{
				"x": -3.7187468844,
				"y": -0.2152493757,
				"z": 1.0363524439,
				"element": "C" 
			},
			{
				"x": -4.0657556165,
				"y": -0.6117038578,
				"z": 2.4591992602,
				"element": "C" 
			},
			{
				"x": -3.9735656803,
				"y": 0.840896741,
				"z": 2.0951188037,
				"element": "C" 
			},
			{
				"x": 5.3269217602,
				"y": -1.9776389648,
				"z": -0.1075773142,
				"element": "H" 
			},
			{
				"x": 4.1044191425,
				"y": -2.4419484869,
				"z": -1.1512941754,
				"element": "H" 
			},
			{
				"x": 1.8297256427,
				"y": -1.6965283747,
				"z": -0.9047874336,
				"element": "H" 
			},
			{
				"x": 0.8653862468,
				"y": 0.5149341074,
				"z": 2.6598158945,
				"element": "H" 
			},
			{
				"x": 3.2922250993,
				"y": 0.5596563428,
				"z": 3.2564882772,
				"element": "H" 
			},
			{
				"x": 4.9643617587,
				"y": -0.4905984634,
				"z": 1.7702482844,
				"element": "H" 
			},
			{
				"x": -0.2582509966,
				"y": -1.0505745187,
				"z": -1.5928017519,
				"element": "H" 
			},
			{
				"x": -4.4806359113,
				"y": -0.3576579861,
				"z": 0.2768836448,
				"element": "H" 
			},
			{
				"x": -3.2618836913,
				"y": -1.0320201011,
				"z": 3.0547377931,
				"element": "H" 
			},
			{
				"x": -5.0453520401,
				"y": -1.046387381,
				"z": 2.6338827741,
				"element": "H" 
			},
			{
				"x": -3.1081011258,
				"y": 1.3927588078,
				"z": 2.4471830886,
				"element": "H" 
			},
			{
				"x": -4.8886550844,
				"y": 1.4199665612,
				"z": 2.0156790896,
				"element": "H" 
			}
		],
		 "valence_orbital": [ 
			{
				"type": "occ",
				"energy": -0.28547,
				"method": "rhf"
			},
			{
				"type": "occ",
				"energy": -0.26629,
				"method": "rhf"
			},
			{
				"type": "occ",
				"energy": -0.25703,
				"method": "rhf"
			},
			{
				"type": "occ",
				"energy": -0.22519,
				"method": "rhf"
			},
			{
				"type": "occ",
				"energy": -0.20849,
				"method": "rhf"
			},
			{
				"type": "unocc",
				"energy": -0.03349,
				"method": "rhf"
			},
			{
				"type": "unocc",
				"energy": 0.00688,
				"method": "rhf"
			},
			{
				"type": "unocc",
				"energy": 0.0435,
				"method": "rhf"
			},
			{
				"type": "unocc",
				"energy": 0.06488,
				"method": "rhf"
			},
			{
				"type": "unocc",
				"energy": 0.07037,
				"method": "rhf"
			}
		],
		"cosmo_sigma_profile": { 
			"-0.025": 0.0,
			"-0.024": 0.0,
			"-0.023": 0.0,
			"-0.022": 0.0,
			"-0.021": 0.0,
			"-0.02": 0.0,
			"-0.019": 0.0,
			"-0.018": 0.0,
			"-0.017": 0.749816905252,
			"-0.016": 1.37755194316,
			"-0.015": 1.20171370903,
			"-0.014": 1.17987734726,
			"-0.013": 1.6567729813,
			"-0.012": 4.41082251917,
			"-0.011": 3.87573047649,
			"-0.01": 4.05912140248,
			"-0.009": 5.62227891873,
			"-0.008": 3.8678633422,
			"-0.007": 4.58336262461,
			"-0.006": 6.04830445738,
			"-0.005": 11.2252629874,
			"-0.004": 15.9846537716,
			"-0.003": 16.1306884704,
			"-0.002": 12.845120138,
			"-0.001": 13.4773618685,
			"0.0": 16.8197260624,
			"0.001": 16.6744535799,
			"0.002": 15.6201156478,
			"0.003": 19.5486568251,
			"0.004": 18.4064769665,
			"0.005": 17.9520034477,
			"0.006": 9.82582269038,
			"0.007": 5.10150061506,
			"0.008": 2.69610069187,
			"0.009": 2.92313690645,
			"0.01": 3.33507324663,
			"0.011": 2.85162719949,
			"0.012": 2.71400176127,
			"0.013": 2.1011273673,
			"0.014": 1.41007706315,
			"0.015": 1.30283001579,
			"0.016": 0.282213218193,
			"0.017": 0.0,
			"0.018": 0.0,
			"0.019": 0.0,
			"0.02": 0.0,
			"0.021": 0.0,
			"0.022": 0.0,
			"0.023": 0.0,
			"0.024": 0.0,
			"0.025": 0.0
		}
	}
}
