{
	 "smiles": "CC1=CSC(=N1)C1=CC(O)=CC=C1", 
	 "Tm": 382.15, 
	 "num_atms": 22, 
	 "gaussian": { 
		 "optdone": 1, 
		 "sigma_profile": "yes", 
		 "theory": "DFT", 
		 "functional": "B3LYP", 
		 "basiset": "6-31G**", 
		 "properties": { 
			 "R2extent": 3462.4992, 
			 "electric_dipole_moment_norm": 1.73385573506, 
			 "electric_quadrupole_moment_norm": 8.74303586748, 
			 "total_energy": -914.652038697, 
			 "HOMO_LUMO_gap": 0.16317, 
			 "cosmo_polarized_energy": -10.78, 
			 "cosmo_cavitation_energy": 27.79, 
			 "cosmo_dispersion_energy": -21.21, 
			 "cosmo_repulsion_energy": 1.63, 
			 "cosmo_total_nonelectrostatic_energy": 8.22, 
			 "SMD_solvation_energy": 3.82 
		},
		"coords": [
			{
				"x": 2.5676884179,
				"y": -2.8745231517,
				"z": 1.253214599,
				"element": "C" 
			},
			{
				"x": 1.9875975339,
				"y": -1.4958222387,
				"z": 1.1335885607,
				"element": "C" 
			},
			{
				"x": 2.6694472138,
				"y": -0.3198038517,
				"z": 1.294980226,
				"element": "C" 
			},
			{
				"x": 1.6109134673,
				"y": 1.0329444179,
				"z": 1.068810366,
				"element": "S" 
			},
			{
				"x": 0.2866823024,
				"y": -0.1005194114,
				"z": 0.7627274514,
				"element": "C" 
			},
			{
				"x": 0.6510631249,
				"y": -1.3530800226,
				"z": 0.8351734516,
				"element": "N" 
			},
			{
				"x": -1.0816956821,
				"y": 0.3422558081,
				"z": 0.4590783693,
				"element": "C" 
			},
			{
				"x": -1.4185594979,
				"y": 1.7038433498,
				"z": 0.3923906836,
				"element": "C" 
			},
			{
				"x": -2.7267619132,
				"y": 2.0936166158,
				"z": 0.1015989454,
				"element": "C" 
			},
			{
				"x": -3.1025104165,
				"y": 3.4048414549,
				"z": 0.0258202987,
				"element": "O" 
			},
			{
				"x": -3.7148119791,
				"y": 1.1284542099,
				"z": -0.1261803892,
				"element": "C" 
			},
			{
				"x": -3.3769372946,
				"y": -0.221501827,
				"z": -0.0591045243,
				"element": "C" 
			},
			{
				"x": -2.0745052429,
				"y": -0.6240703915,
				"z": 0.2303041348,
				"element": "C" 
			},
			{
				"x": 2.0558789594,
				"y": -3.4417471921,
				"z": 2.0379299576,
				"element": "H" 
			},
			{
				"x": 2.4402519926,
				"y": -3.429216954,
				"z": 0.317516993,
				"element": "H" 
			},
			{
				"x": 3.6334210772,
				"y": -2.8373048326,
				"z": 1.4915973086,
				"element": "H" 
			},
			{
				"x": 3.7144798678,
				"y": -0.1766190204,
				"z": 1.530095281,
				"element": "H" 
			},
			{
				"x": -0.6621464371,
				"y": 2.4664299388,
				"z": 0.566828908,
				"element": "H" 
			},
			{
				"x": -2.3367783127,
				"y": 3.9669710173,
				"z": 0.2012715284,
				"element": "H" 
			},
			{
				"x": -4.7250140253,
				"y": 1.4538195096,
				"z": -0.3506033777,
				"element": "H" 
			},
			{
				"x": -4.1428225153,
				"y": -0.9711859088,
				"z": -0.2356590371,
				"element": "H" 
			},
			{
				"x": -1.8059806404,
				"y": -1.6721815195,
				"z": 0.2837202653,
				"element": "H" 
			}
		],
		 "valence_orbital": [ 
			{
				"type": "occ",
				"energy": -0.28442,
				"method": "rhf"
			},
			{
				"type": "occ",
				"energy": -0.2704,
				"method": "rhf"
			},
			{
				"type": "occ",
				"energy": -0.26943,
				"method": "rhf"
			},
			{
				"type": "occ",
				"energy": -0.23232,
				"method": "rhf"
			},
			{
				"type": "occ",
				"energy": -0.21383,
				"method": "rhf"
			},
			{
				"type": "unocc",
				"energy": -0.05066,
				"method": "rhf"
			},
			{
				"type": "unocc",
				"energy": 0.00661,
				"method": "rhf"
			},
			{
				"type": "unocc",
				"energy": 0.02104,
				"method": "rhf"
			},
			{
				"type": "unocc",
				"energy": 0.02607,
				"method": "rhf"
			},
			{
				"type": "unocc",
				"energy": 0.0664,
				"method": "rhf"
			}
		],
		"cosmo_sigma_profile": { 
			"-0.025": 0.0,
			"-0.024": 0.0,
			"-0.023": 0.0,
			"-0.022": 0.0,
			"-0.021": 0.0,
			"-0.02": 0.0,
			"-0.019": 0.0,
			"-0.018": 0.723034323144,
			"-0.017": 1.29636942966,
			"-0.016": 1.09560247133,
			"-0.015": 1.02841746428,
			"-0.014": 1.00201538277,
			"-0.013": 0.687423335504,
			"-0.012": 1.30733340512,
			"-0.011": 0.85116438709,
			"-0.01": 1.17346305603,
			"-0.009": 2.06111322251,
			"-0.008": 3.02638968797,
			"-0.007": 3.91415820247,
			"-0.006": 6.72612583232,
			"-0.005": 11.2034337736,
			"-0.004": 15.3887861375,
			"-0.003": 13.2710580413,
			"-0.002": 12.4831527616,
			"-0.001": 17.7397408198,
			"0.0": 16.5652461534,
			"0.001": 18.0602471054,
			"0.002": 20.0438401646,
			"0.003": 24.9537080902,
			"0.004": 19.8721384722,
			"0.005": 10.0275212022,
			"0.006": 3.73984013911,
			"0.007": 3.68906898746,
			"0.008": 2.15358095316,
			"0.009": 3.64504511544,
			"0.01": 2.31799510236,
			"0.011": 3.14580700929,
			"0.012": 1.20515467603,
			"0.013": 0.154563308254,
			"0.014": 0.0,
			"0.015": 0.0,
			"0.016": 0.0,
			"0.017": 0.0,
			"0.018": 0.0,
			"0.019": 0.0,
			"0.02": 0.0,
			"0.021": 0.0,
			"0.022": 0.0,
			"0.023": 0.0,
			"0.024": 0.0,
			"0.025": 0.0
		}
	}
}
