{
	 "smiles": "OC(=O)C1=C(SC(F)F)C=CC=C1", 
	 "Tm": 388.15, 
	 "num_atms": 19, 
	 "gaussian": { 
		 "optdone": 1, 
		 "sigma_profile": "yes", 
		 "theory": "DFT", 
		 "functional": "B3LYP", 
		 "basiset": "6-31G**", 
		 "properties": { 
			 "R2extent": 2650.3765, 
			 "electric_dipole_moment_norm": 2.22473920269, 
			 "electric_quadrupole_moment_norm": 8.25775953937, 
			 "total_energy": -1056.77270186, 
			 "HOMO_LUMO_gap": 0.18407, 
			 "cosmo_polarized_energy": -11.94, 
			 "cosmo_cavitation_energy": 25.96, 
			 "cosmo_dispersion_energy": -19.02, 
			 "cosmo_repulsion_energy": 1.44, 
			 "cosmo_total_nonelectrostatic_energy": 8.38, 
			 "SMD_solvation_energy": 6.07 
		},
		"coords": [
			{
				"x": -1.2344231321,
				"y": -2.465521523,
				"z": 1.3664664325,
				"element": "O" 
			},
			{
				"x": -0.3940809815,
				"y": -1.9648081851,
				"z": 0.4198900706,
				"element": "C" 
			},
			{
				"x": 0.236074669,
				"y": -2.6895052652,
				"z": -0.3172814282,
				"element": "O" 
			},
			{
				"x": -0.4002213945,
				"y": -0.4674207761,
				"z": 0.4139933077,
				"element": "C" 
			},
			{
				"x": 0.6707477555,
				"y": 0.3046891745,
				"z": -0.0888693864,
				"element": "C" 
			},
			{
				"x": 2.242361737,
				"y": -0.401543659,
				"z": -0.6090191597,
				"element": "S" 
			},
			{
				"x": 1.9763912983,
				"y": -0.4101149131,
				"z": -2.4140188948,
				"element": "C" 
			},
			{
				"x": 1.8715668325,
				"y": 0.8587950998,
				"z": -2.906637184,
				"element": "F" 
			},
			{
				"x": 0.8429289441,
				"y": -1.061399276,
				"z": -2.7623267477,
				"element": "F" 
			},
			{
				"x": 0.5598148931,
				"y": 1.699923969,
				"z": -0.1164724774,
				"element": "C" 
			},
			{
				"x": -0.596995825,
				"y": 2.3367052264,
				"z": 0.3320181105,
				"element": "C" 
			},
			{
				"x": -1.6511576178,
				"y": 1.5795869753,
				"z": 0.8404591385,
				"element": "C" 
			},
			{
				"x": -1.5464070815,
				"y": 0.1918393948,
				"z": 0.8872727974,
				"element": "C" 
			},
			{
				"x": -1.1960056958,
				"y": -3.4303245192,
				"z": 1.2593701958,
				"element": "H" 
			},
			{
				"x": 2.8428661984,
				"y": -0.9008210812,
				"z": -2.8706517933,
				"element": "H" 
			},
			{
				"x": 1.3937555651,
				"y": 2.2807292122,
				"z": -0.4934044927,
				"element": "H" 
			},
			{
				"x": -0.6664242098,
				"y": 3.4197052109,
				"z": 0.2918594629,
				"element": "H" 
			},
			{
				"x": -2.5522145264,
				"y": 2.0651787208,
				"z": 1.2026189888,
				"element": "H" 
			},
			{
				"x": -2.3618774288,
				"y": -0.4021937858,
				"z": 1.2820330594,
				"element": "H" 
			}
		],
		 "valence_orbital": [ 
			{
				"type": "occ",
				"energy": -0.32119,
				"method": "rhf"
			},
			{
				"type": "occ",
				"energy": -0.28791,
				"method": "rhf"
			},
			{
				"type": "occ",
				"energy": -0.27028,
				"method": "rhf"
			},
			{
				"type": "occ",
				"energy": -0.26625,
				"method": "rhf"
			},
			{
				"type": "occ",
				"energy": -0.24107,
				"method": "rhf"
			},
			{
				"type": "unocc",
				"energy": -0.057,
				"method": "rhf"
			},
			{
				"type": "unocc",
				"energy": -0.02854,
				"method": "rhf"
			},
			{
				"type": "unocc",
				"energy": 0.02629,
				"method": "rhf"
			},
			{
				"type": "unocc",
				"energy": 0.0451,
				"method": "rhf"
			},
			{
				"type": "unocc",
				"energy": 0.06478,
				"method": "rhf"
			}
		],
		"cosmo_sigma_profile": { 
			"-0.025": 0.0,
			"-0.024": 0.0,
			"-0.023": 0.0,
			"-0.022": 0.0,
			"-0.021": 0.0,
			"-0.02": 0.0,
			"-0.019": 0.127457262991,
			"-0.018": 0.951269772033,
			"-0.017": 0.504164618694,
			"-0.016": 1.09674558137,
			"-0.015": 1.0693788386,
			"-0.014": 0.657142687066,
			"-0.013": 0.101895907463,
			"-0.012": 0.531676396631,
			"-0.011": 2.58490227667,
			"-0.01": 3.327943124,
			"-0.009": 2.71451837453,
			"-0.008": 2.43882470447,
			"-0.007": 8.15784100643,
			"-0.006": 11.2690568354,
			"-0.005": 9.37814510266,
			"-0.004": 8.50479710361,
			"-0.003": 11.5088793432,
			"-0.002": 10.4405576014,
			"-0.001": 11.8743897788,
			"0.0": 12.024118282,
			"0.001": 15.0492457939,
			"0.002": 22.2516642807,
			"0.003": 20.910642623,
			"0.004": 21.3068585001,
			"0.005": 6.65318698934,
			"0.006": 4.88957357481,
			"0.007": 3.82350271861,
			"0.008": 2.74281495056,
			"0.009": 2.49479296681,
			"0.01": 2.66426568773,
			"0.011": 4.41589546451,
			"0.012": 3.43743570358,
			"0.013": 0.0380561992273,
			"0.014": 0.0,
			"0.015": 0.0,
			"0.016": 0.0,
			"0.017": 0.0,
			"0.018": 0.0,
			"0.019": 0.0,
			"0.02": 0.0,
			"0.021": 0.0,
			"0.022": 0.0,
			"0.023": 0.0,
			"0.024": 0.0,
			"0.025": 0.0
		}
	}
}
