{
	 "smiles": "ClC1=NC(=NC2=CC=CC=C12)C1=CC=CC=C1", 
	 "Tm": 399.15, 
	 "num_atms": 26, 
	 "gaussian": { 
		 "optdone": 1, 
		 "sigma_profile": "yes", 
		 "theory": "DFT", 
		 "functional": "B3LYP", 
		 "basiset": "6-31G**", 
		 "properties": { 
			 "R2extent": 5704.642, 
			 "electric_dipole_moment_norm": 2.21850458868, 
			 "electric_quadrupole_moment_norm": 16.6622290316, 
			 "total_energy": -1108.63009449, 
			 "HOMO_LUMO_gap": 0.15566, 
			 "cosmo_polarized_energy": -7.28, 
			 "cosmo_cavitation_energy": 32.27, 
			 "cosmo_dispersion_energy": -24.13, 
			 "cosmo_repulsion_energy": 1.84, 
			 "cosmo_total_nonelectrostatic_energy": 9.98, 
			 "SMD_solvation_energy": 2.83 
		},
		"coords": [
			{
				"x": -0.2266917629,
				"y": -2.3658183449,
				"z": -3.8440319734,
				"element": "Cl" 
			},
			{
				"x": -0.338834795,
				"y": -1.2661719693,
				"z": -2.4661972872,
				"element": "C" 
			},
			{
				"x": -0.3317191374,
				"y": -1.8084842904,
				"z": -1.2900897988,
				"element": "N" 
			},
			{
				"x": -0.4180614572,
				"y": -0.9729657485,
				"z": -0.2020575091,
				"element": "C" 
			},
			{
				"x": -0.5076985211,
				"y": 0.3421264223,
				"z": -0.2706015586,
				"element": "N" 
			},
			{
				"x": -0.5153602818,
				"y": 0.9136915857,
				"z": -1.5048004288,
				"element": "C" 
			},
			{
				"x": -0.61067527,
				"y": 2.3254405582,
				"z": -1.6141630896,
				"element": "C" 
			},
			{
				"x": -0.6200543784,
				"y": 2.9245873589,
				"z": -2.8542253218,
				"element": "C" 
			},
			{
				"x": -0.5353332497,
				"y": 2.1482772241,
				"z": -4.0359810312,
				"element": "C" 
			},
			{
				"x": -0.4417355573,
				"y": 0.7749451133,
				"z": -3.9647570852,
				"element": "C" 
			},
			{
				"x": -0.4301485254,
				"y": 0.1359125568,
				"z": -2.7027692412,
				"element": "C" 
			},
			{
				"x": -0.4076750456,
				"y": -1.6235106998,
				"z": 1.1286161789,
				"element": "C" 
			},
			{
				"x": -0.313882471,
				"y": -3.0197813612,
				"z": 1.2413120418,
				"element": "C" 
			},
			{
				"x": -0.3049575726,
				"y": -3.6234140866,
				"z": 2.4973340581,
				"element": "C" 
			},
			{
				"x": -0.3892506827,
				"y": -2.8435292759,
				"z": 3.6526886798,
				"element": "C" 
			},
			{
				"x": -0.4828133145,
				"y": -1.452651035,
				"z": 3.5468929683,
				"element": "C" 
			},
			{
				"x": -0.4921305167,
				"y": -0.8447180516,
				"z": 2.2948213088,
				"element": "C" 
			},
			{
				"x": -0.6745000112,
				"y": 2.8999476989,
				"z": -0.6963594498,
				"element": "H" 
			},
			{
				"x": -0.6932011717,
				"y": 4.0055166758,
				"z": -2.9313743285,
				"element": "H" 
			},
			{
				"x": -0.54439555,
				"y": 2.6408117961,
				"z": -5.0033271985,
				"element": "H" 
			},
			{
				"x": -0.376521247,
				"y": 0.1736243309,
				"z": -4.8643997604,
				"element": "H" 
			},
			{
				"x": -0.2489620014,
				"y": -3.6159115336,
				"z": 0.3384213374,
				"element": "H" 
			},
			{
				"x": -0.2320809833,
				"y": -4.7044143748,
				"z": 2.5742870977,
				"element": "H" 
			},
			{
				"x": -0.3821453406,
				"y": -3.3160680949,
				"z": 4.6309232109,
				"element": "H" 
			},
			{
				"x": -0.5485700676,
				"y": -0.8422133949,
				"z": 4.4429911498,
				"element": "H" 
			},
			{
				"x": -0.564201088,
				"y": 0.2325709403,
				"z": 2.1977470304,
				"element": "H" 
			}
		],
		 "valence_orbital": [ 
			{
				"type": "occ",
				"energy": -0.28533,
				"method": "rhf"
			},
			{
				"type": "occ",
				"energy": -0.26324,
				"method": "rhf"
			},
			{
				"type": "occ",
				"energy": -0.25958,
				"method": "rhf"
			},
			{
				"type": "occ",
				"energy": -0.25022,
				"method": "rhf"
			},
			{
				"type": "occ",
				"energy": -0.23125,
				"method": "rhf"
			},
			{
				"type": "unocc",
				"energy": -0.07559,
				"method": "rhf"
			},
			{
				"type": "unocc",
				"energy": -0.05269,
				"method": "rhf"
			},
			{
				"type": "unocc",
				"energy": -0.00268,
				"method": "rhf"
			},
			{
				"type": "unocc",
				"energy": 0.00461,
				"method": "rhf"
			},
			{
				"type": "unocc",
				"energy": 0.01943,
				"method": "rhf"
			}
		],
		"cosmo_sigma_profile": { 
			"-0.025": 0.0,
			"-0.024": 0.0,
			"-0.023": 0.0,
			"-0.022": 0.0,
			"-0.021": 0.0,
			"-0.02": 0.0,
			"-0.019": 0.0,
			"-0.018": 0.0,
			"-0.017": 0.0,
			"-0.016": 0.0,
			"-0.015": 0.0,
			"-0.014": 0.0,
			"-0.013": 0.0,
			"-0.012": 0.0,
			"-0.011": 0.0,
			"-0.01": 0.0,
			"-0.009": 0.0,
			"-0.008": 0.298880843371,
			"-0.007": 5.96854512686,
			"-0.006": 13.6905202907,
			"-0.005": 16.7406638543,
			"-0.004": 18.2094937657,
			"-0.003": 18.8096910277,
			"-0.002": 20.5853767997,
			"-0.001": 20.6895432507,
			"0.0": 22.1244790572,
			"0.001": 24.5643816581,
			"0.002": 30.0040265755,
			"0.003": 25.4953790912,
			"0.004": 19.3481148245,
			"0.005": 13.9862048926,
			"0.006": 4.50948583651,
			"0.007": 2.49473679044,
			"0.008": 3.21367430189,
			"0.009": 2.47197992619,
			"0.01": 0.263015862648,
			"0.011": 0.0,
			"0.012": 0.0,
			"0.013": 0.0,
			"0.014": 0.0,
			"0.015": 0.0,
			"0.016": 0.0,
			"0.017": 0.0,
			"0.018": 0.0,
			"0.019": 0.0,
			"0.02": 0.0,
			"0.021": 0.0,
			"0.022": 0.0,
			"0.023": 0.0,
			"0.024": 0.0,
			"0.025": 0.0
		}
	}
}
