{
	 "smiles": "ON=C(/C(=O)CCC1=CC=CC=C1)C1=CC=CC=C1", 
	 "Tm": 403.15, 
	 "num_atms": 34, 
	 "gaussian": { 
		 "optdone": 1, 
		 "sigma_profile": "yes", 
		 "theory": "DFT", 
		 "functional": "B3LYP", 
		 "basiset": "6-31G**", 
		 "properties": { 
			 "R2extent": 6136.3856, 
			 "electric_dipole_moment_norm": 2.41023944246, 
			 "electric_quadrupole_moment_norm": 10.4268312588, 
			 "total_energy": -823.881412848, 
			 "HOMO_LUMO_gap": 0.1829, 
			 "cosmo_polarized_energy": -12.27, 
			 "cosmo_cavitation_energy": 38.57, 
			 "cosmo_dispersion_energy": -26.05, 
			 "cosmo_repulsion_energy": 2.03, 
			 "cosmo_total_nonelectrostatic_energy": 14.55, 
			 "SMD_solvation_energy": 6.61 
		},
		"coords": [
			{
				"x": -0.3900985523,
				"y": -2.9129452479,
				"z": 2.6907648967,
				"element": "O" 
			},
			{
				"x": 0.1879921108,
				"y": -2.9716708222,
				"z": 1.4104148769,
				"element": "N" 
			},
			{
				"x": 0.0228962535,
				"y": -1.8726826784,
				"z": 0.7632349655,
				"element": "C" 
			},
			{
				"x": -0.6992157743,
				"y": -0.6755434934,
				"z": 1.3777360781,
				"element": "C" 
			},
			{
				"x": -0.0571911298,
				"y": 0.267658939,
				"z": 1.797022886,
				"element": "O" 
			},
			{
				"x": -2.2133356958,
				"y": -0.758141567,
				"z": 1.4197973166,
				"element": "C" 
			},
			{
				"x": -2.9092475422,
				"y": 0.5468790217,
				"z": 1.8491046504,
				"element": "C" 
			},
			{
				"x": -2.9775084216,
				"y": 1.5935184649,
				"z": 0.7532927598,
				"element": "C" 
			},
			{
				"x": -1.9788590003,
				"y": 2.56811891,
				"z": 0.6117164179,
				"element": "C" 
			},
			{
				"x": -2.0457507494,
				"y": 3.5143145136,
				"z": -0.4129912472,
				"element": "C" 
			},
			{
				"x": -3.1120252987,
				"y": 3.5030257369,
				"z": -1.3141683556,
				"element": "C" 
			},
			{
				"x": -4.1132940777,
				"y": 2.5391176828,
				"z": -1.1825099986,
				"element": "C" 
			},
			{
				"x": -4.0444388871,
				"y": 1.5955921459,
				"z": -0.1565712823,
				"element": "C" 
			},
			{
				"x": 0.5508182522,
				"y": -1.7684743629,
				"z": -0.6152033549,
				"element": "C" 
			},
			{
				"x": 0.5380684904,
				"y": -0.5405208363,
				"z": -1.2969611626,
				"element": "C" 
			},
			{
				"x": 1.0265369801,
				"y": -0.4527167698,
				"z": -2.6013753034,
				"element": "C" 
			},
			{
				"x": 1.5344711019,
				"y": -1.5826804122,
				"z": -3.240667624,
				"element": "C" 
			},
			{
				"x": 1.5511547399,
				"y": -2.8093280629,
				"z": -2.5678178827,
				"element": "C" 
			},
			{
				"x": 1.062147503,
				"y": -2.9048815764,
				"z": -1.2701262089,
				"element": "C" 
			},
			{
				"x": -0.1722435954,
				"y": -3.7803474364,
				"z": 3.0564834037,
				"element": "H" 
			},
			{
				"x": -2.5675758426,
				"y": -1.0940802263,
				"z": 0.4362086415,
				"element": "H" 
			},
			{
				"x": -2.4441067734,
				"y": -1.576105017,
				"z": 2.1156409628,
				"element": "H" 
			},
			{
				"x": -3.926145709,
				"y": 0.2973587514,
				"z": 2.1714595381,
				"element": "H" 
			},
			{
				"x": -2.3844724077,
				"y": 0.9492849281,
				"z": 2.7207412394,
				"element": "H" 
			},
			{
				"x": -1.1447315605,
				"y": 2.5732270598,
				"z": 1.3063195308,
				"element": "H" 
			},
			{
				"x": -1.264566191,
				"y": 4.2642272527,
				"z": -0.5037924678,
				"element": "H" 
			},
			{
				"x": -3.1650444502,
				"y": 4.2415223855,
				"z": -2.1091398552,
				"element": "H" 
			},
			{
				"x": -4.9512460252,
				"y": 2.5250527899,
				"z": -1.8741472158,
				"element": "H" 
			},
			{
				"x": -4.8339902827,
				"y": 0.8537959714,
				"z": -0.0554451718,
				"element": "H" 
			},
			{
				"x": 0.1592511327,
				"y": 0.3515070676,
				"z": -0.8100273427,
				"element": "H" 
			},
			{
				"x": 1.0100849067,
				"y": 0.5042495242,
				"z": -3.1144833447,
				"element": "H" 
			},
			{
				"x": 1.9137550657,
				"y": -1.5121182891,
				"z": -4.2560100154,
				"element": "H" 
			},
			{
				"x": 1.9434197873,
				"y": -3.6945280169,
				"z": -3.060361122,
				"element": "H" 
			},
			{
				"x": 1.0674916429,
				"y": -3.8543863305,
				"z": -0.7466392085,
				"element": "H" 
			}
		],
		 "valence_orbital": [ 
			{
				"type": "occ",
				"energy": -0.25526,
				"method": "rhf"
			},
			{
				"type": "occ",
				"energy": -0.24991,
				"method": "rhf"
			},
			{
				"type": "occ",
				"energy": -0.2446,
				"method": "rhf"
			},
			{
				"type": "occ",
				"energy": -0.23575,
				"method": "rhf"
			},
			{
				"type": "occ",
				"energy": -0.2319,
				"method": "rhf"
			},
			{
				"type": "unocc",
				"energy": -0.049,
				"method": "rhf"
			},
			{
				"type": "unocc",
				"energy": -0.02533,
				"method": "rhf"
			},
			{
				"type": "unocc",
				"energy": -0.00293,
				"method": "rhf"
			},
			{
				"type": "unocc",
				"energy": 0.00247,
				"method": "rhf"
			},
			{
				"type": "unocc",
				"energy": 0.00374,
				"method": "rhf"
			}
		],
		"cosmo_sigma_profile": { 
			"-0.025": 0.0,
			"-0.024": 0.0,
			"-0.023": 0.0,
			"-0.022": 0.0,
			"-0.021": 0.0,
			"-0.02": 0.0,
			"-0.019": 0.0047895278856,
			"-0.018": 0.643586199367,
			"-0.017": 1.02866286001,
			"-0.016": 1.20574975755,
			"-0.015": 0.589882284359,
			"-0.014": 0.825509031854,
			"-0.013": 0.577770086275,
			"-0.012": 0.547830272861,
			"-0.011": 0.847232214012,
			"-0.01": 0.618818631777,
			"-0.009": 0.679901554393,
			"-0.008": 0.688614018981,
			"-0.007": 1.10515590898,
			"-0.006": 9.94034996819,
			"-0.005": 23.2900628361,
			"-0.004": 29.3799559001,
			"-0.003": 28.9394677508,
			"-0.002": 24.5961808073,
			"-0.001": 21.6662065284,
			"0.0": 18.417849211,
			"0.001": 17.9816602444,
			"0.002": 22.4049239794,
			"0.003": 25.8753095458,
			"0.004": 25.0089977909,
			"0.005": 20.6866919395,
			"0.006": 11.6206831045,
			"0.007": 6.05133422522,
			"0.008": 3.91019956646,
			"0.009": 3.49329819561,
			"0.01": 2.40069802485,
			"0.011": 1.92328850584,
			"0.012": 0.323133020194,
			"0.013": 0.0,
			"0.014": 0.0,
			"0.015": 0.0,
			"0.016": 0.0,
			"0.017": 0.0,
			"0.018": 0.0,
			"0.019": 0.0,
			"0.02": 0.0,
			"0.021": 0.0,
			"0.022": 0.0,
			"0.023": 0.0,
			"0.024": 0.0,
			"0.025": 0.0
		}
	}
}
