{
	 "smiles": "BrC1=NNC2=NC3=C(C=CC=C3)N=C12", 
	 "Tm": 547.15, 
	 "num_atms": 19, 
	 "gaussian": { 
		 "optdone": 1, 
		 "sigma_profile": "yes", 
		 "theory": "DFT", 
		 "functional": "B3LYP", 
		 "basiset": "6-31G**", 
		 "properties": { 
			 "R2extent": 5189.7107, 
			 "electric_dipole_moment_norm": 3.08900381839, 
			 "electric_quadrupole_moment_norm": 7.46408843932, 
			 "total_energy": -3136.35501197, 
			 "HOMO_LUMO_gap": 0.13809, 
			 "cosmo_polarized_energy": -10.54, 
			 "cosmo_cavitation_energy": 26.46, 
			 "cosmo_dispersion_energy": -20.64, 
			 "cosmo_repulsion_energy": 1.61, 
			 "cosmo_total_nonelectrostatic_energy": 7.43, 
			 "SMD_solvation_energy": -1.31 
		},
		"coords": [
			{
				"x": 2.4777486344,
				"y": 3.966707245,
				"z": -0.5827039785,
				"element": "Br" 
			},
			{
				"x": 0.7742714744,
				"y": 3.2361351218,
				"z": -0.8827515953,
				"element": "C" 
			},
			{
				"x": -0.1983238202,
				"y": 3.9443883275,
				"z": -1.402644091,
				"element": "N" 
			},
			{
				"x": -1.2862082632,
				"y": 3.1190391736,
				"z": -1.483305996,
				"element": "N" 
			},
			{
				"x": -1.0178700392,
				"y": 1.8660620542,
				"z": -1.012441618,
				"element": "C" 
			},
			{
				"x": -1.8145366012,
				"y": 0.8214826406,
				"z": -0.9353233717,
				"element": "N" 
			},
			{
				"x": -1.2089068196,
				"y": -0.275956819,
				"z": -0.4083736329,
				"element": "C" 
			},
			{
				"x": 0.1785372675,
				"y": -0.2664399431,
				"z": 0.0175947158,
				"element": "C" 
			},
			{
				"x": 0.7413272023,
				"y": -1.4574316138,
				"z": 0.5602800562,
				"element": "C" 
			},
			{
				"x": -0.0166901673,
				"y": -2.5950031718,
				"z": 0.6780587714,
				"element": "C" 
			},
			{
				"x": -1.3771134693,
				"y": -2.6027937442,
				"z": 0.2598595451,
				"element": "C" 
			},
			{
				"x": -1.95901711,
				"y": -1.4767525478,
				"z": -0.2685853029,
				"element": "C" 
			},
			{
				"x": 0.961149208,
				"y": 0.8373723786,
				"z": -0.0822283749,
				"element": "N" 
			},
			{
				"x": 0.3553083381,
				"y": 1.8909459617,
				"z": -0.5957090392,
				"element": "C" 
			},
			{
				"x": -2.1508110192,
				"y": 3.4744798863,
				"z": -1.8605865459,
				"element": "H" 
			},
			{
				"x": 1.7805983619,
				"y": -1.4211917989,
				"z": 0.8703628258,
				"element": "H" 
			},
			{
				"x": 0.4187280439,
				"y": -3.4991206959,
				"z": 1.0925314788,
				"element": "H" 
			},
			{
				"x": -1.9590240441,
				"y": -3.5140986106,
				"z": 0.3620338019,
				"element": "H" 
			},
			{
				"x": -2.9944671769,
				"y": -1.4633238441,
				"z": -0.5928676486,
				"element": "H" 
			}
		],
		 "valence_orbital": [ 
			{
				"type": "occ",
				"energy": -0.2949,
				"method": "rhf"
			},
			{
				"type": "occ",
				"energy": -0.2676,
				"method": "rhf"
			},
			{
				"type": "occ",
				"energy": -0.26328,
				"method": "rhf"
			},
			{
				"type": "occ",
				"energy": -0.26236,
				"method": "rhf"
			},
			{
				"type": "occ",
				"energy": -0.2334,
				"method": "rhf"
			},
			{
				"type": "unocc",
				"energy": -0.09531,
				"method": "rhf"
			},
			{
				"type": "unocc",
				"energy": -0.02131,
				"method": "rhf"
			},
			{
				"type": "unocc",
				"energy": -0.00306,
				"method": "rhf"
			},
			{
				"type": "unocc",
				"energy": 0.00907,
				"method": "rhf"
			},
			{
				"type": "unocc",
				"energy": 0.0239,
				"method": "rhf"
			}
		],
		"cosmo_sigma_profile": { 
			"-0.025": 0.0,
			"-0.024": 0.0,
			"-0.023": 0.0,
			"-0.022": 0.0,
			"-0.021": 0.0,
			"-0.02": 0.0,
			"-0.019": 0.0,
			"-0.018": 0.46580549699,
			"-0.017": 1.46884353064,
			"-0.016": 1.27123179066,
			"-0.015": 1.28443104014,
			"-0.014": 1.06427483684,
			"-0.013": 0.512792890679,
			"-0.012": 1.08782415804,
			"-0.011": 0.822620502373,
			"-0.01": 0.32545591682,
			"-0.009": 0.678615361619,
			"-0.008": 1.53529429206,
			"-0.007": 5.21593366398,
			"-0.006": 9.59194810019,
			"-0.005": 11.8116762554,
			"-0.004": 12.9661570825,
			"-0.003": 13.3454501307,
			"-0.002": 14.2582199983,
			"-0.001": 15.20004509,
			"0.0": 17.4319770269,
			"0.001": 19.7651477836,
			"0.002": 21.7634665658,
			"0.003": 24.5580759184,
			"0.004": 12.3056961802,
			"0.005": 5.84557948046,
			"0.006": 3.76939180417,
			"0.007": 4.42927845119,
			"0.008": 3.34119694297,
			"0.009": 3.03044909607,
			"0.01": 2.04057831241,
			"0.011": 2.58985379787,
			"0.012": 3.00143278017,
			"0.013": 1.23857148274,
			"0.014": 0.0198904821475,
			"0.015": 0.0,
			"0.016": 0.0,
			"0.017": 0.0,
			"0.018": 0.0,
			"0.019": 0.0,
			"0.02": 0.0,
			"0.021": 0.0,
			"0.022": 0.0,
			"0.023": 0.0,
			"0.024": 0.0,
			"0.025": 0.0
		}
	}
}
