{
	 "smiles": "OC[C@H]1O[C@@](CO)(O[C@H]2O[C@H](CO)[C@@H](O)[C@H](O)[C@H]2O)[C@@H](O)[C@@H]1O", 
	 "Tm": 460.15, 
	 "num_atms": 45, 
	 "gaussian": { 
		 "optdone": 1, 
		 "sigma_profile": "yes", 
		 "theory": "DFT", 
		 "functional": "B3LYP", 
		 "basiset": "6-31G**", 
		 "properties": { 
			 "R2extent": 7487.0638, 
			 "electric_dipole_moment_norm": 2.72662082622, 
			 "electric_quadrupole_moment_norm": 16.3769283973, 
			 "total_energy": -1297.904912, 
			 "HOMO_LUMO_gap": 0.27922, 
			 "cosmo_polarized_energy": -31.64, 
			 "cosmo_cavitation_energy": 42.8, 
			 "cosmo_dispersion_energy": -30.06, 
			 "cosmo_repulsion_energy": 2.27, 
			 "cosmo_total_nonelectrostatic_energy": 15.01, 
			 "SMD_solvation_energy": 6.31 
		},
		"coords": [
			{
				"x": -2.5589785798,
				"y": -2.0779702393,
				"z": 0.069952073,
				"element": "O" 
			},
			{
				"x": -2.1298844232,
				"y": -1.7439678694,
				"z": 1.3779760468,
				"element": "C" 
			},
			{
				"x": -0.880406746,
				"y": -2.5339655002,
				"z": 1.7636841122,
				"element": "C" 
			},
			{
				"x": 0.2296010909,
				"y": -2.1710070271,
				"z": 0.8984732464,
				"element": "O" 
			},
			{
				"x": 1.0355650112,
				"y": -1.1825212459,
				"z": 1.4898445702,
				"element": "C" 
			},
			{
				"x": 2.4969035797,
				"y": -1.61818425,
				"z": 1.3293889568,
				"element": "C" 
			},
			{
				"x": 2.7026068414,
				"y": -2.7912885575,
				"z": 2.1103490056,
				"element": "O" 
			},
			{
				"x": 0.9024591619,
				"y": 0.0928306541,
				"z": 0.8615788811,
				"element": "O" 
			},
			{
				"x": 0.6307746827,
				"y": 0.1598237522,
				"z": -0.514267722,
				"element": "C" 
			},
			{
				"x": -0.6483509724,
				"y": 0.7802374678,
				"z": -0.6005644798,
				"element": "O" 
			},
			{
				"x": -1.1513243326,
				"y": 1.0598353227,
				"z": -1.9155033763,
				"element": "C" 
			},
			{
				"x": -2.0932623281,
				"y": -0.0371499265,
				"z": -2.3910786556,
				"element": "C" 
			},
			{
				"x": -1.3661067825,
				"y": -1.2724356971,
				"z": -2.4329484649,
				"element": "O" 
			},
			{
				"x": -0.0256574775,
				"y": 1.3851370339,
				"z": -2.9121308084,
				"element": "C" 
			},
			{
				"x": -0.5617054252,
				"y": 2.2464880749,
				"z": -3.9019637655,
				"element": "O" 
			},
			{
				"x": 1.111363339,
				"y": 2.0414109051,
				"z": -2.1415118372,
				"element": "C" 
			},
			{
				"x": 2.0417945214,
				"y": 2.5374441094,
				"z": -3.0978713233,
				"element": "O" 
			},
			{
				"x": 1.7459366992,
				"y": 1.0175991459,
				"z": -1.1992810152,
				"element": "C" 
			},
			{
				"x": 2.6023443271,
				"y": 1.6717592756,
				"z": -0.2769757023,
				"element": "O" 
			},
			{
				"x": 0.5794653624,
				"y": -1.0548714163,
				"z": 2.9833344293,
				"element": "C" 
			},
			{
				"x": -0.1183913219,
				"y": 0.1634835407,
				"z": 3.1592754214,
				"element": "O" 
			},
			{
				"x": -0.3225579994,
				"y": -2.3009286249,
				"z": 3.1752354053,
				"element": "C" 
			},
			{
				"x": 0.3970123539,
				"y": -3.4142179306,
				"z": 3.6637662536,
				"element": "O" 
			},
			{
				"x": -1.8532785177,
				"y": -1.825520025,
				"z": -0.5498682054,
				"element": "H" 
			},
			{
				"x": -2.9457176501,
				"y": -2.019010142,
				"z": 2.0576148375,
				"element": "H" 
			},
			{
				"x": -1.9394730605,
				"y": -0.6684022461,
				"z": 1.487474187,
				"element": "H" 
			},
			{
				"x": -1.0594190626,
				"y": -3.5990887983,
				"z": 1.5920834476,
				"element": "H" 
			},
			{
				"x": 2.6788450055,
				"y": -1.8134095169,
				"z": 0.2637509755,
				"element": "H" 
			},
			{
				"x": 3.1493424147,
				"y": -0.7968411752,
				"z": 1.6521906662,
				"element": "H" 
			},
			{
				"x": 3.6099930476,
				"y": -3.0965403754,
				"z": 1.9989021921,
				"element": "H" 
			},
			{
				"x": 0.5880906949,
				"y": -0.839314984,
				"z": -0.9543015914,
				"element": "H" 
			},
			{
				"x": -1.7410167747,
				"y": 1.978429629,
				"z": -1.8131480565,
				"element": "H" 
			},
			{
				"x": -2.4696996136,
				"y": 0.2372957561,
				"z": -3.3860569465,
				"element": "H" 
			},
			{
				"x": -2.9353365058,
				"y": -0.1216166197,
				"z": -1.693421539,
				"element": "H" 
			},
			{
				"x": -1.9356638552,
				"y": -1.9472822594,
				"z": -2.8239287078,
				"element": "H" 
			},
			{
				"x": 0.3493474249,
				"y": 0.4582478675,
				"z": -3.3767095911,
				"element": "H" 
			},
			{
				"x": 0.2043374826,
				"y": 2.6539674258,
				"z": -4.3335243193,
				"element": "H" 
			},
			{
				"x": 0.7071572812,
				"y": 2.8655326277,
				"z": -1.5350291381,
				"element": "H" 
			},
			{
				"x": 2.7416701715,
				"y": 2.9889595346,
				"z": -2.6071219555,
				"element": "H" 
			},
			{
				"x": 2.3617828683,
				"y": 0.3450123447,
				"z": -1.8146898905,
				"element": "H" 
			},
			{
				"x": 2.2080157212,
				"y": 1.5314079117,
				"z": 0.5986626494,
				"element": "H" 
			},
			{
				"x": 1.4435991698,
				"y": -1.1262369844,
				"z": 3.6560739694,
				"element": "H" 
			},
			{
				"x": -0.3520724619,
				"y": 0.2209839395,
				"z": 4.0948600974,
				"element": "H" 
			},
			{
				"x": -1.1143382605,
				"y": -2.0939094262,
				"z": 3.9035300868,
				"element": "H" 
			},
			{
				"x": 1.1996338981,
				"y": -3.4999054812,
				"z": 3.119895581,
				"element": "H" 
			}
		],
		 "valence_orbital": [ 
			{
				"type": "occ",
				"energy": -0.26722,
				"method": "rhf"
			},
			{
				"type": "occ",
				"energy": -0.25869,
				"method": "rhf"
			},
			{
				"type": "occ",
				"energy": -0.2566,
				"method": "rhf"
			},
			{
				"type": "occ",
				"energy": -0.2506,
				"method": "rhf"
			},
			{
				"type": "occ",
				"energy": -0.23926,
				"method": "rhf"
			},
			{
				"type": "unocc",
				"energy": 0.03996,
				"method": "rhf"
			},
			{
				"type": "unocc",
				"energy": 0.05801,
				"method": "rhf"
			},
			{
				"type": "unocc",
				"energy": 0.0605,
				"method": "rhf"
			},
			{
				"type": "unocc",
				"energy": 0.07352,
				"method": "rhf"
			},
			{
				"type": "unocc",
				"energy": 0.08442,
				"method": "rhf"
			}
		],
		"cosmo_sigma_profile": { 
			"-0.025": 0.0,
			"-0.024": 0.0,
			"-0.023": 0.0,
			"-0.022": 0.0,
			"-0.021": 0.0,
			"-0.02": 0.0,
			"-0.019": 0.0,
			"-0.018": 0.276596750992,
			"-0.017": 1.58891141864,
			"-0.016": 3.74066324966,
			"-0.015": 3.37526998945,
			"-0.014": 3.44909858486,
			"-0.013": 4.11177523039,
			"-0.012": 3.41078407488,
			"-0.011": 3.73728589172,
			"-0.01": 4.74999113428,
			"-0.009": 4.68580847089,
			"-0.008": 5.69405239455,
			"-0.007": 7.1856219668,
			"-0.006": 16.6242260851,
			"-0.005": 26.2536465305,
			"-0.004": 24.8799149427,
			"-0.003": 22.5789084371,
			"-0.002": 18.9915856269,
			"-0.001": 14.5406792315,
			"0.0": 14.9807077495,
			"0.001": 14.0608217916,
			"0.002": 14.6473521363,
			"0.003": 12.2058579826,
			"0.004": 11.967202904,
			"0.005": 13.0149939239,
			"0.006": 10.5059893427,
			"0.007": 9.9856534506,
			"0.008": 8.96037884478,
			"0.009": 9.7948069068,
			"0.01": 8.53162746095,
			"0.011": 6.58927197372,
			"0.012": 8.05822439205,
			"0.013": 7.39833035187,
			"0.014": 5.49091814886,
			"0.015": 2.4911857967,
			"0.016": 0.989696006986,
			"0.017": 0.0017977591816,
			"0.018": 0.0,
			"0.019": 0.0,
			"0.02": 0.0,
			"0.021": 0.0,
			"0.022": 0.0,
			"0.023": 0.0,
			"0.024": 0.0,
			"0.025": 0.0
		}
	}
}
