{
	 "smiles": "CCCCCCCCCCCCCCCC(N)=O", 
	 "Tm": 380.15, 
	 "num_atms": 51, 
	 "gaussian": { 
		 "optdone": 1, 
		 "sigma_profile": "yes", 
		 "theory": "DFT", 
		 "functional": "B3LYP", 
		 "basiset": "6-31G**", 
		 "properties": { 
			 "R2extent": 9408.8723, 
			 "electric_dipole_moment_norm": 3.3813440656, 
			 "electric_quadrupole_moment_norm": 28.282948081, 
			 "total_energy": -759.626523443, 
			 "HOMO_LUMO_gap": 0.27715, 
			 "cosmo_polarized_energy": -12.4, 
			 "cosmo_cavitation_energy": 50.27, 
			 "cosmo_dispersion_energy": -32.44, 
			 "cosmo_repulsion_energy": 2.68, 
			 "cosmo_total_nonelectrostatic_energy": 20.5, 
			 "SMD_solvation_energy": 7.45 
		},
		"coords": [
			{
				"x": -4.1611230111,
				"y": -4.5285767195,
				"z": 0.4805970092,
				"element": "C" 
			},
			{
				"x": -2.928454704,
				"y": -3.6549121954,
				"z": 0.7360544935,
				"element": "C" 
			},
			{
				"x": -1.7688479271,
				"y": -4.4303412842,
				"z": 1.3774685573,
				"element": "C" 
			},
			{
				"x": -0.5334083525,
				"y": -3.5811996671,
				"z": 1.7194329474,
				"element": "C" 
			},
			{
				"x": 0.2112129695,
				"y": -3.0074416833,
				"z": 0.5053117437,
				"element": "C" 
			},
			{
				"x": 1.4927747599,
				"y": -2.2530019801,
				"z": 0.8933700603,
				"element": "C" 
			},
			{
				"x": 2.305210344,
				"y": -1.6709521357,
				"z": -0.2845264404,
				"element": "C" 
			},
			{
				"x": 1.955530842,
				"y": -0.233320648,
				"z": -0.712602688,
				"element": "C" 
			},
			{
				"x": 0.5538363359,
				"y": -0.0254473445,
				"z": -1.3052561957,
				"element": "C" 
			},
			{
				"x": 0.3373901272,
				"y": 1.3624209367,
				"z": -1.935636097,
				"element": "C" 
			},
			{
				"x": 0.4086708092,
				"y": 2.5884184243,
				"z": -1.0033419015,
				"element": "C" 
			},
			{
				"x": -0.7212201742,
				"y": 2.7013687531,
				"z": 0.04582564,
				"element": "C" 
			},
			{
				"x": -0.4565154006,
				"y": 2.0551549231,
				"z": 1.4195469291,
				"element": "C" 
			},
			{
				"x": 0.5962653331,
				"y": 2.7896921519,
				"z": 2.259599018,
				"element": "C" 
			},
			{
				"x": 0.8243949232,
				"y": 2.1402234832,
				"z": 3.6280818523,
				"element": "C" 
			},
			{
				"x": 1.7441642699,
				"y": 2.9713239497,
				"z": 4.5224677456,
				"element": "C" 
			},
			{
				"x": 2.4731998738,
				"y": 2.2532480443,
				"z": 5.4317665213,
				"element": "N" 
			},
			{
				"x": 1.8188898298,
				"y": 4.1896517516,
				"z": 4.4495594763,
				"element": "O" 
			},
			{
				"x": -4.5406868796,
				"y": -4.9611920256,
				"z": 1.4135183858,
				"element": "H" 
			},
			{
				"x": -3.9246494913,
				"y": -5.3592459435,
				"z": -0.1943583726,
				"element": "H" 
			},
			{
				"x": -4.9741895713,
				"y": -3.9530251269,
				"z": 0.0259778822,
				"element": "H" 
			},
			{
				"x": -2.6012490267,
				"y": -3.2082874053,
				"z": -0.2111383319,
				"element": "H" 
			},
			{
				"x": -3.2036793834,
				"y": -2.815062385,
				"z": 1.3892959852,
				"element": "H" 
			},
			{
				"x": -1.470575942,
				"y": -5.2520270726,
				"z": 0.7101688946,
				"element": "H" 
			},
			{
				"x": -2.1341185025,
				"y": -4.9076651231,
				"z": 2.2972700176,
				"element": "H" 
			},
			{
				"x": -0.8341326279,
				"y": -2.7571302579,
				"z": 2.3829992959,
				"element": "H" 
			},
			{
				"x": 0.1664133199,
				"y": -4.1963212692,
				"z": 2.3020004935,
				"element": "H" 
			},
			{
				"x": 0.4768728685,
				"y": -3.8297814008,
				"z": -0.1748940907,
				"element": "H" 
			},
			{
				"x": -0.4543416589,
				"y": -2.3489407879,
				"z": -0.0629247981,
				"element": "H" 
			},
			{
				"x": 1.2444568783,
				"y": -1.4458083653,
				"z": 1.5985378762,
				"element": "H" 
			},
			{
				"x": 2.1324445925,
				"y": -2.947616662,
				"z": 1.4546025187,
				"element": "H" 
			},
			{
				"x": 2.2184717681,
				"y": -2.3418330883,
				"z": -1.151178057,
				"element": "H" 
			},
			{
				"x": 3.3676644476,
				"y": -1.6780128321,
				"z": -0.0100693929,
				"element": "H" 
			},
			{
				"x": 2.6954459927,
				"y": 0.0877431954,
				"z": -1.4595799493,
				"element": "H" 
			},
			{
				"x": 2.0966577516,
				"y": 0.4318585273,
				"z": 0.1500962916,
				"element": "H" 
			},
			{
				"x": -0.2126178674,
				"y": -0.2082142982,
				"z": -0.5430383915,
				"element": "H" 
			},
			{
				"x": 0.3863042219,
				"y": -0.7818414449,
				"z": -2.0846816342,
				"element": "H" 
			},
			{
				"x": 1.0819721486,
				"y": 1.495644239,
				"z": -2.73310475,
				"element": "H" 
			},
			{
				"x": -0.6412055636,
				"y": 1.369356563,
				"z": -2.4353819935,
				"element": "H" 
			},
			{
				"x": 0.37018828,
				"y": 3.4775453129,
				"z": -1.6448652429,
				"element": "H" 
			},
			{
				"x": 1.388051907,
				"y": 2.6316030355,
				"z": -0.5111549159,
				"element": "H" 
			},
			{
				"x": -0.9400562985,
				"y": 3.7635838425,
				"z": 0.2176328109,
				"element": "H" 
			},
			{
				"x": -1.6401929748,
				"y": 2.2751434082,
				"z": -0.3791488934,
				"element": "H" 
			},
			{
				"x": -1.4005225513,
				"y": 2.0368478495,
				"z": 1.9821065612,
				"element": "H" 
			},
			{
				"x": -0.1616965723,
				"y": 1.0053900441,
				"z": 1.2956179262,
				"element": "H" 
			},
			{
				"x": 1.5525226926,
				"y": 2.8327217715,
				"z": 1.7238792946,
				"element": "H" 
			},
			{
				"x": 0.2948725216,
				"y": 3.8303193949,
				"z": 2.4204966692,
				"element": "H" 
			},
			{
				"x": -0.1356167333,
				"y": 2.0425801687,
				"z": 4.1555464458,
				"element": "H" 
			},
			{
				"x": 1.2179200468,
				"y": 1.121382253,
				"z": 3.5168767473,
				"element": "H" 
			},
			{
				"x": 3.0311746363,
				"y": 2.7630029215,
				"z": 6.0999290951,
				"element": "H" 
			},
			{
				"x": 2.3769267228,
				"y": 1.2566742018,
				"z": 5.5361469509,
				"element": "H" 
			}
		],
		 "valence_orbital": [ 
			{
				"type": "occ",
				"energy": -0.30214,
				"method": "rhf"
			},
			{
				"type": "occ",
				"energy": -0.29724,
				"method": "rhf"
			},
			{
				"type": "occ",
				"energy": -0.29483,
				"method": "rhf"
			},
			{
				"type": "occ",
				"energy": -0.26317,
				"method": "rhf"
			},
			{
				"type": "occ",
				"energy": -0.24246,
				"method": "rhf"
			},
			{
				"type": "unocc",
				"energy": 0.03469,
				"method": "rhf"
			},
			{
				"type": "unocc",
				"energy": 0.05852,
				"method": "rhf"
			},
			{
				"type": "unocc",
				"energy": 0.07695,
				"method": "rhf"
			},
			{
				"type": "unocc",
				"energy": 0.08812,
				"method": "rhf"
			},
			{
				"type": "unocc",
				"energy": 0.0933,
				"method": "rhf"
			}
		],
		"cosmo_sigma_profile": { 
			"-0.025": 0.0,
			"-0.024": 0.0,
			"-0.023": 0.0,
			"-0.022": 0.0,
			"-0.021": 0.0,
			"-0.02": 0.0,
			"-0.019": 0.0,
			"-0.018": 0.0,
			"-0.017": 0.0,
			"-0.016": 0.0,
			"-0.015": 0.0243062962888,
			"-0.014": 0.917035758085,
			"-0.013": 2.17572340975,
			"-0.012": 2.61178034928,
			"-0.011": 2.03691153418,
			"-0.01": 2.11031444032,
			"-0.009": 2.95681612655,
			"-0.008": 2.18743010334,
			"-0.007": 2.43207904839,
			"-0.006": 1.86709307288,
			"-0.005": 3.52542892048,
			"-0.004": 5.37114031331,
			"-0.003": 9.78653188686,
			"-0.002": 44.0669916785,
			"-0.001": 86.0608259256,
			"0.0": 81.7817161843,
			"0.001": 69.8617325062,
			"0.002": 32.9243039179,
			"0.003": 4.03689787891,
			"0.004": 2.68697029069,
			"0.005": 2.4055042976,
			"0.006": 2.36625918473,
			"0.007": 1.31354773891,
			"0.008": 1.59254492383,
			"0.009": 2.07658200122,
			"0.01": 0.940767442511,
			"0.011": 1.28633094881,
			"0.012": 2.12294534941,
			"0.013": 2.41247149943,
			"0.014": 5.83188766345,
			"0.015": 2.78218508415,
			"0.016": 0.0343248350727,
			"0.017": 0.0,
			"0.018": 0.0,
			"0.019": 0.0,
			"0.02": 0.0,
			"0.021": 0.0,
			"0.022": 0.0,
			"0.023": 0.0,
			"0.024": 0.0,
			"0.025": 0.0
		}
	}
}
