{
	 "smiles": "OC(=O)C1=CC=C(COC2=CC=C(C=C2)C#N)O1", 
	 "Tm": 477.15, 
	 "num_atms": 27, 
	 "gaussian": { 
		 "optdone": 1, 
		 "sigma_profile": "yes", 
		 "theory": "DFT", 
		 "functional": "B3LYP", 
		 "basiset": "6-31G**", 
		 "properties": { 
			 "R2extent": 6404.8416, 
			 "electric_dipole_moment_norm": 8.5767577283, 
			 "electric_quadrupole_moment_norm": 24.260152298, 
			 "total_energy": -856.405229652, 
			 "HOMO_LUMO_gap": 0.1754, 
			 "cosmo_polarized_energy": -24.44, 
			 "cosmo_cavitation_energy": 34.48, 
			 "cosmo_dispersion_energy": -23.69, 
			 "cosmo_repulsion_energy": 1.84, 
			 "cosmo_total_nonelectrostatic_energy": 12.63, 
			 "SMD_solvation_energy": 9.27 
		},
		"coords": [
			{
				"x": 1.5197608359,
				"y": -3.5060947659,
				"z": 3.6567600667,
				"element": "O" 
			},
			{
				"x": 2.0201847777,
				"y": -2.9437578757,
				"z": 2.5249507109,
				"element": "C" 
			},
			{
				"x": 3.1948830752,
				"y": -2.6902796346,
				"z": 2.4226028583,
				"element": "O" 
			},
			{
				"x": 1.0336260345,
				"y": -2.6875064465,
				"z": 1.4550085924,
				"element": "C" 
			},
			{
				"x": -0.2829145596,
				"y": -3.0242302071,
				"z": 1.2549577838,
				"element": "C" 
			},
			{
				"x": -0.6477358906,
				"y": -2.4969527177,
				"z": -0.0158706485,
				"element": "C" 
			},
			{
				"x": 0.4675216162,
				"y": -1.8724133554,
				"z": -0.5077787904,
				"element": "C" 
			},
			{
				"x": 0.7380555529,
				"y": -1.1125965309,
				"z": -1.7676818397,
				"element": "C" 
			},
			{
				"x": 0.0860052996,
				"y": 0.1611770616,
				"z": -1.8284731973,
				"element": "O" 
			},
			{
				"x": 0.6066640926,
				"y": 1.2347412261,
				"z": -1.1647940656,
				"element": "C" 
			},
			{
				"x": 1.7320727122,
				"y": 1.2015283345,
				"z": -0.3304405435,
				"element": "C" 
			},
			{
				"x": 2.1704787046,
				"y": 2.3775723911,
				"z": 0.2750406362,
				"element": "C" 
			},
			{
				"x": 1.497828851,
				"y": 3.5897798159,
				"z": 0.0633503656,
				"element": "C" 
			},
			{
				"x": 0.3638662974,
				"y": 3.609641476,
				"z": -0.77196341,
				"element": "C" 
			},
			{
				"x": -0.0751303202,
				"y": 2.4443954466,
				"z": -1.3781559493,
				"element": "C" 
			},
			{
				"x": 1.9539181879,
				"y": 4.7930472756,
				"z": 0.6914695296,
				"element": "C" 
			},
			{
				"x": 2.3213127766,
				"y": 5.773198517,
				"z": 1.2002209853,
				"element": "N" 
			},
			{
				"x": 1.4926998522,
				"y": -1.9876660781,
				"z": 0.3786339025,
				"element": "O" 
			},
			{
				"x": 0.5536515564,
				"y": -3.5454205831,
				"z": 3.6288271567,
				"element": "H" 
			},
			{
				"x": -0.9193960509,
				"y": -3.5988342144,
				"z": 1.9145950883,
				"element": "H" 
			},
			{
				"x": -1.6083335279,
				"y": -2.5697410122,
				"z": -0.5050159836,
				"element": "H" 
			},
			{
				"x": 0.3261787517,
				"y": -1.6583891116,
				"z": -2.6196283186,
				"element": "H" 
			},
			{
				"x": 1.8190869932,
				"y": -1.0118334747,
				"z": -1.9134128249,
				"element": "H" 
			},
			{
				"x": 2.260700561,
				"y": 0.2792068288,
				"z": -0.1270892488,
				"element": "H" 
			},
			{
				"x": 3.0403659172,
				"y": 2.353410267,
				"z": 0.9228438583,
				"element": "H" 
			},
			{
				"x": -0.1624390618,
				"y": 4.5432261756,
				"z": -0.9401129966,
				"element": "H" 
			},
			{
				"x": -0.943313035,
				"y": 2.441991192,
				"z": -2.0282437177,
				"element": "H" 
			}
		],
		 "valence_orbital": [ 
			{
				"type": "occ",
				"energy": -0.31814,
				"method": "rhf"
			},
			{
				"type": "occ",
				"energy": -0.28921,
				"method": "rhf"
			},
			{
				"type": "occ",
				"energy": -0.27645,
				"method": "rhf"
			},
			{
				"type": "occ",
				"energy": -0.26605,
				"method": "rhf"
			},
			{
				"type": "occ",
				"energy": -0.2412,
				"method": "rhf"
			},
			{
				"type": "unocc",
				"energy": -0.0658,
				"method": "rhf"
			},
			{
				"type": "unocc",
				"energy": -0.04022,
				"method": "rhf"
			},
			{
				"type": "unocc",
				"energy": -0.02478,
				"method": "rhf"
			},
			{
				"type": "unocc",
				"energy": 0.00284,
				"method": "rhf"
			},
			{
				"type": "unocc",
				"energy": 0.04004,
				"method": "rhf"
			}
		],
		"cosmo_sigma_profile": { 
			"-0.025": 0.0,
			"-0.024": 0.0,
			"-0.023": 0.0,
			"-0.022": 0.0,
			"-0.021": 0.0,
			"-0.02": 0.127715686449,
			"-0.019": 0.835897151898,
			"-0.018": 0.908110245295,
			"-0.017": 1.74055857214,
			"-0.016": 0.755391680179,
			"-0.015": 1.15473981817,
			"-0.014": 0.669283558597,
			"-0.013": 1.03545368804,
			"-0.012": 1.44645156121,
			"-0.011": 1.4392231707,
			"-0.01": 1.37512599876,
			"-0.009": 2.82516446108,
			"-0.008": 12.249938635,
			"-0.007": 16.2334747487,
			"-0.006": 17.1827376916,
			"-0.005": 14.2576145514,
			"-0.004": 12.6614863443,
			"-0.003": 12.4723196096,
			"-0.002": 13.3884712826,
			"-0.001": 18.875003791,
			"0.0": 20.729312988,
			"0.001": 19.6654030753,
			"0.002": 24.7246502342,
			"0.003": 13.096136333,
			"0.004": 5.84775121262,
			"0.005": 4.95304943224,
			"0.006": 7.07655750605,
			"0.007": 5.83847963788,
			"0.008": 7.68799276198,
			"0.009": 7.86666932011,
			"0.01": 8.92914826781,
			"0.011": 8.42927199899,
			"0.012": 8.39613243133,
			"0.013": 3.36375094216,
			"0.014": 0.355629445638,
			"0.015": 0.0,
			"0.016": 0.0,
			"0.017": 0.0,
			"0.018": 0.0,
			"0.019": 0.0,
			"0.02": 0.0,
			"0.021": 0.0,
			"0.022": 0.0,
			"0.023": 0.0,
			"0.024": 0.0,
			"0.025": 0.0
		}
	}
}
