{
	 "smiles": "CN1C=CNC(=O)C1=O", 
	 "Tm": 481.15, 
	 "num_atms": 15, 
	 "gaussian": { 
		 "optdone": 1, 
		 "sigma_profile": "yes", 
		 "theory": "DFT", 
		 "functional": "B3LYP", 
		 "basiset": "6-31G**", 
		 "properties": { 
			 "R2extent": 1248.5434, 
			 "electric_dipole_moment_norm": 6.56120327836, 
			 "electric_quadrupole_moment_norm": 15.5261936977, 
			 "total_energy": -454.099609399, 
			 "HOMO_LUMO_gap": 0.17608, 
			 "cosmo_polarized_energy": -20.91, 
			 "cosmo_cavitation_energy": 19.29, 
			 "cosmo_dispersion_energy": -14.57, 
			 "cosmo_repulsion_energy": 1.19, 
			 "cosmo_total_nonelectrostatic_energy": 5.91, 
			 "SMD_solvation_energy": 5.69 
		},
		"coords": [
			{
				"x": 1.200379834,
				"y": 1.0769258625,
				"z": -0.8596629665,
				"element": "C" 
			},
			{
				"x": 0.1205321483,
				"y": 0.2411981496,
				"z": -0.3333683517,
				"element": "N" 
			},
			{
				"x": -0.7915875115,
				"y": 0.804688469,
				"z": 0.5598570065,
				"element": "C" 
			},
			{
				"x": -1.8001732377,
				"y": 0.0802345375,
				"z": 1.0713187142,
				"element": "C" 
			},
			{
				"x": -1.9394619299,
				"y": -1.2529325176,
				"z": 0.7061322675,
				"element": "N" 
			},
			{
				"x": -1.1003147511,
				"y": -1.9187672984,
				"z": -0.1678603652,
				"element": "C" 
			},
			{
				"x": -1.2571213732,
				"y": -3.0887107615,
				"z": -0.4618344901,
				"element": "O" 
			},
			{
				"x": 0.0487574683,
				"y": -1.0859989982,
				"z": -0.7478136227,
				"element": "C" 
			},
			{
				"x": 0.842387642,
				"y": -1.58405458,
				"z": -1.5274741828,
				"element": "O" 
			},
			{
				"x": 1.797455622,
				"y": 0.4626277101,
				"z": -1.5310570906,
				"element": "H" 
			},
			{
				"x": 0.7877979753,
				"y": 1.9290562266,
				"z": -1.4091058433,
				"element": "H" 
			},
			{
				"x": 1.8278851893,
				"y": 1.4460027424,
				"z": -0.0421906449,
				"element": "H" 
			},
			{
				"x": -0.6392768775,
				"y": 1.8449949984,
				"z": 0.8116585425,
				"element": "H" 
			},
			{
				"x": -2.5236027872,
				"y": 0.4845745411,
				"z": 1.7647606454,
				"element": "H" 
			},
			{
				"x": -2.6937574112,
				"y": -1.8133390816,
				"z": 1.0820403817,
				"element": "H" 
			}
		],
		 "valence_orbital": [ 
			{
				"type": "occ",
				"energy": -0.35968,
				"method": "rhf"
			},
			{
				"type": "occ",
				"energy": -0.29612,
				"method": "rhf"
			},
			{
				"type": "occ",
				"energy": -0.27907,
				"method": "rhf"
			},
			{
				"type": "occ",
				"energy": -0.25296,
				"method": "rhf"
			},
			{
				"type": "occ",
				"energy": -0.21212,
				"method": "rhf"
			},
			{
				"type": "unocc",
				"energy": -0.03604,
				"method": "rhf"
			},
			{
				"type": "unocc",
				"energy": 0.00079,
				"method": "rhf"
			},
			{
				"type": "unocc",
				"energy": 0.06084,
				"method": "rhf"
			},
			{
				"type": "unocc",
				"energy": 0.10063,
				"method": "rhf"
			},
			{
				"type": "unocc",
				"energy": 0.11505,
				"method": "rhf"
			}
		],
		"cosmo_sigma_profile": { 
			"-0.025": 0.0,
			"-0.024": 0.0,
			"-0.023": 0.0,
			"-0.022": 0.0,
			"-0.021": 0.0,
			"-0.02": 0.0,
			"-0.019": 0.0,
			"-0.018": 0.0,
			"-0.017": 0.0872534625468,
			"-0.016": 1.68205232806,
			"-0.015": 1.16031249808,
			"-0.014": 0.987829771055,
			"-0.013": 1.34060969271,
			"-0.012": 1.10141976141,
			"-0.011": 1.07865628336,
			"-0.01": 2.19346919899,
			"-0.009": 4.94832938476,
			"-0.008": 5.02182582667,
			"-0.007": 6.10125417995,
			"-0.006": 9.81852279946,
			"-0.005": 10.3223131993,
			"-0.004": 11.367937591,
			"-0.003": 12.6622545561,
			"-0.002": 10.5155693932,
			"-0.001": 8.97872793839,
			"0.0": 8.00944308066,
			"0.001": 6.32899973357,
			"0.002": 4.44209420141,
			"0.003": 4.1985223464,
			"0.004": 3.10179344234,
			"0.005": 1.18271569699,
			"0.006": 2.31349972626,
			"0.007": 2.0417980919,
			"0.008": 2.05422652575,
			"0.009": 1.96166699401,
			"0.01": 2.55197169648,
			"0.011": 3.43243310401,
			"0.012": 7.06848912146,
			"0.013": 8.9303080236,
			"0.014": 3.18636302365,
			"0.015": 1.71424704092,
			"0.016": 1.58757535232,
			"0.017": 0.419109057201,
			"0.018": 0.0,
			"0.019": 0.0,
			"0.02": 0.0,
			"0.021": 0.0,
			"0.022": 0.0,
			"0.023": 0.0,
			"0.024": 0.0,
			"0.025": 0.0
		}
	}
}
