{
	 "smiles": "CCCNC(=O)CN(C)C(=O)CCl", 
	 "Tm": 487.15, 
	 "num_atms": 28, 
	 "gaussian": { 
		 "optdone": 1, 
		 "sigma_profile": "yes", 
		 "theory": "DFT", 
		 "functional": "B3LYP", 
		 "basiset": "6-31G**", 
		 "properties": { 
			 "R2extent": 3156.7367, 
			 "electric_dipole_moment_norm": 4.61744371379, 
			 "electric_quadrupole_moment_norm": 13.4880325259, 
			 "total_energy": -1034.05315593, 
			 "HOMO_LUMO_gap": 0.2219, 
			 "cosmo_polarized_energy": -17.65, 
			 "cosmo_cavitation_energy": 31.92, 
			 "cosmo_dispersion_energy": -21.77, 
			 "cosmo_repulsion_energy": 1.75, 
			 "cosmo_total_nonelectrostatic_energy": 11.9, 
			 "SMD_solvation_energy": 6.22 
		},
		"coords": [
			{
				"x": -2.7076846255,
				"y": -2.5927023497,
				"z": 0.2382522835,
				"element": "C" 
			},
			{
				"x": -2.5635473102,
				"y": -1.4234963921,
				"z": 1.2201943089,
				"element": "C" 
			},
			{
				"x": -1.4613896418,
				"y": -0.4222765505,
				"z": 0.852405326,
				"element": "C" 
			},
			{
				"x": -0.1381963856,
				"y": -1.0318799303,
				"z": 0.9382412968,
				"element": "N" 
			},
			{
				"x": 1.0770764506,
				"y": -0.4274813679,
				"z": 1.0361073149,
				"element": "C" 
			},
			{
				"x": 2.1251678787,
				"y": -1.0653415416,
				"z": 0.9852660225,
				"element": "O" 
			},
			{
				"x": 1.1279384165,
				"y": 1.0927693598,
				"z": 1.2783181375,
				"element": "C" 
			},
			{
				"x": 0.5126579203,
				"y": 1.958103443,
				"z": 0.265620989,
				"element": "N" 
			},
			{
				"x": -0.3354356957,
				"y": 3.0422940937,
				"z": 0.7624835284,
				"element": "C" 
			},
			{
				"x": 0.9722838234,
				"y": 2.0747212244,
				"z": -1.0317499433,
				"element": "C" 
			},
			{
				"x": 0.611415323,
				"y": 2.9769782086,
				"z": -1.7754147766,
				"element": "O" 
			},
			{
				"x": 1.9409320842,
				"y": 1.0132517752,
				"z": -1.5576124659,
				"element": "C" 
			},
			{
				"x": 1.0176629427,
				"y": -0.2571168194,
				"z": -2.474046438,
				"element": "Cl" 
			},
			{
				"x": -2.8878201673,
				"y": -2.233499359,
				"z": -0.7806876596,
				"element": "H" 
			},
			{
				"x": -1.8169876182,
				"y": -3.2307962111,
				"z": 0.211990362,
				"element": "H" 
			},
			{
				"x": -3.5476235456,
				"y": -3.2339704858,
				"z": 0.5216311774,
				"element": "H" 
			},
			{
				"x": -2.3795192974,
				"y": -1.8013024085,
				"z": 2.2335239228,
				"element": "H" 
			},
			{
				"x": -3.5089843467,
				"y": -0.8696059357,
				"z": 1.2584937136,
				"element": "H" 
			},
			{
				"x": -1.6419582195,
				"y": -0.0227861604,
				"z": -0.1552431309,
				"element": "H" 
			},
			{
				"x": -1.5034385484,
				"y": 0.4213409146,
				"z": 1.5479302238,
				"element": "H" 
			},
			{
				"x": -0.0589588048,
				"y": -2.0093950809,
				"z": 0.6875652468,
				"element": "H" 
			},
			{
				"x": 0.6191424413,
				"y": 1.3046963523,
				"z": 2.2237414053,
				"element": "H" 
			},
			{
				"x": 2.1873441534,
				"y": 1.3255581954,
				"z": 1.427118273,
				"element": "H" 
			},
			{
				"x": -1.1309493735,
				"y": 2.6361717557,
				"z": 1.3943367932,
				"element": "H" 
			},
			{
				"x": 0.2445377291,
				"y": 3.7650196427,
				"z": 1.3512921241,
				"element": "H" 
			},
			{
				"x": -0.770647642,
				"y": 3.5576650732,
				"z": -0.0913115377,
				"element": "H" 
			},
			{
				"x": 2.5231234605,
				"y": 0.4850249676,
				"z": -0.8046062507,
				"element": "H" 
			},
			{
				"x": 2.5903585984,
				"y": 1.5016555865,
				"z": -2.2816402467,
				"element": "H" 
			}
		],
		 "valence_orbital": [ 
			{
				"type": "occ",
				"energy": -0.29833,
				"method": "rhf"
			},
			{
				"type": "occ",
				"energy": -0.26801,
				"method": "rhf"
			},
			{
				"type": "occ",
				"energy": -0.26138,
				"method": "rhf"
			},
			{
				"type": "occ",
				"energy": -0.25536,
				"method": "rhf"
			},
			{
				"type": "occ",
				"energy": -0.24693,
				"method": "rhf"
			},
			{
				"type": "unocc",
				"energy": -0.02503,
				"method": "rhf"
			},
			{
				"type": "unocc",
				"energy": 0.00495,
				"method": "rhf"
			},
			{
				"type": "unocc",
				"energy": 0.05981,
				"method": "rhf"
			},
			{
				"type": "unocc",
				"energy": 0.06267,
				"method": "rhf"
			},
			{
				"type": "unocc",
				"energy": 0.07372,
				"method": "rhf"
			}
		],
		"cosmo_sigma_profile": { 
			"-0.025": 0.0,
			"-0.024": 0.0,
			"-0.023": 0.0,
			"-0.022": 0.0,
			"-0.021": 0.0,
			"-0.02": 0.0,
			"-0.019": 0.0,
			"-0.018": 0.0,
			"-0.017": 0.0,
			"-0.016": 0.0,
			"-0.015": 0.0,
			"-0.014": 0.0,
			"-0.013": 0.0754554755054,
			"-0.012": 0.529944287026,
			"-0.011": 1.33902326979,
			"-0.01": 1.43862983093,
			"-0.009": 3.33754520143,
			"-0.008": 7.87496827423,
			"-0.007": 9.26446022258,
			"-0.006": 11.270117628,
			"-0.005": 14.8142818199,
			"-0.004": 18.2391444681,
			"-0.003": 26.0434633047,
			"-0.002": 24.4781592531,
			"-0.001": 23.3239125662,
			"0.0": 18.5089180806,
			"0.001": 13.6778499862,
			"0.002": 7.73002053351,
			"0.003": 10.5592776924,
			"0.004": 9.53298664633,
			"0.005": 8.19361937629,
			"0.006": 8.40762528983,
			"0.007": 3.14960900178,
			"0.008": 3.17906732319,
			"0.009": 3.08345988292,
			"0.01": 3.04514541025,
			"0.011": 2.62643548085,
			"0.012": 4.95820965129,
			"0.013": 8.367122755,
			"0.014": 4.37374389256,
			"0.015": 0.304314196411,
			"0.016": 0.0,
			"0.017": 0.0,
			"0.018": 0.0,
			"0.019": 0.0,
			"0.02": 0.0,
			"0.021": 0.0,
			"0.022": 0.0,
			"0.023": 0.0,
			"0.024": 0.0,
			"0.025": 0.0
		}
	}
}
