{
	 "smiles": "CC1=CC=CC=C1C(=O)N(NC(=O)C1=CC=CC=C1)C(C)(C)C", 
	 "Tm": 487.15, 
	 "num_atms": 45, 
	 "gaussian": { 
		 "optdone": 1, 
		 "sigma_profile": "yes", 
		 "theory": "DFT", 
		 "functional": "B3LYP", 
		 "basiset": "6-31G**", 
		 "properties": { 
			 "R2extent": 7218.9916, 
			 "electric_dipole_moment_norm": 5.55158377132, 
			 "electric_quadrupole_moment_norm": 15.9302846914, 
			 "total_energy": -997.224987768, 
			 "HOMO_LUMO_gap": 0.21005, 
			 "cosmo_polarized_energy": -18.31, 
			 "cosmo_cavitation_energy": 45.43, 
			 "cosmo_dispersion_energy": -29.31, 
			 "cosmo_repulsion_energy": 2.19, 
			 "cosmo_total_nonelectrostatic_energy": 18.3, 
			 "SMD_solvation_energy": 9.06 
		},
		"coords": [
			{
				"x": -1.8611844391,
				"y": -2.4540038333,
				"z": -0.0579697927,
				"element": "C" 
			},
			{
				"x": -2.3588710316,
				"y": -2.0692146306,
				"z": 1.3146724801,
				"element": "C" 
			},
			{
				"x": -3.0581225239,
				"y": -2.9919001206,
				"z": 2.1019718732,
				"element": "C" 
			},
			{
				"x": -3.5712141339,
				"y": -2.6483392517,
				"z": 3.3535177225,
				"element": "C" 
			},
			{
				"x": -3.4096429078,
				"y": -1.3503913082,
				"z": 3.8357607101,
				"element": "C" 
			},
			{
				"x": -2.7155456809,
				"y": -0.4152002952,
				"z": 3.0680531842,
				"element": "C" 
			},
			{
				"x": -2.1611348314,
				"y": -0.7732977891,
				"z": 1.8335980527,
				"element": "C" 
			},
			{
				"x": -1.524736529,
				"y": 0.3030899519,
				"z": 0.9904067642,
				"element": "C" 
			},
			{
				"x": -2.2440187115,
				"y": 0.9786148958,
				"z": 0.2667041709,
				"element": "O" 
			},
			{
				"x": -0.1311040056,
				"y": 0.4975255447,
				"z": 0.9771773068,
				"element": "N" 
			},
			{
				"x": 0.2448492888,
				"y": 1.6311996383,
				"z": 0.2269895951,
				"element": "N" 
			},
			{
				"x": -0.0146358493,
				"y": 1.7316702393,
				"z": -1.1476631251,
				"element": "C" 
			},
			{
				"x": -0.1823260569,
				"y": 2.8427872699,
				"z": -1.6244635494,
				"element": "O" 
			},
			{
				"x": -0.0097998159,
				"y": 0.5041423258,
				"z": -2.0047915301,
				"element": "C" 
			},
			{
				"x": -0.922823135,
				"y": 0.474123308,
				"z": -3.0685655827,
				"element": "C" 
			},
			{
				"x": -0.942521587,
				"y": -0.6061459798,
				"z": -3.9478195355,
				"element": "C" 
			},
			{
				"x": -0.0296689151,
				"y": -1.6530226222,
				"z": -3.7918015833,
				"element": "C" 
			},
			{
				"x": 0.8998864896,
				"y": -1.6151018018,
				"z": -2.7510048555,
				"element": "C" 
			},
			{
				"x": 0.9047563971,
				"y": -0.5449340749,
				"z": -1.8547246397,
				"element": "C" 
			},
			{
				"x": 0.8477882442,
				"y": 0.1727813288,
				"z": 2.0912110491,
				"element": "C" 
			},
			{
				"x": 2.2843653861,
				"y": 0.3585078323,
				"z": 1.5656846852,
				"element": "C" 
			},
			{
				"x": 0.6183954316,
				"y": 1.1406293688,
				"z": 3.2702030687,
				"element": "C" 
			},
			{
				"x": 0.7223653099,
				"y": -1.2878570342,
				"z": 2.5618982685,
				"element": "C" 
			},
			{
				"x": -2.1666771382,
				"y": -3.4724438674,
				"z": -0.3110050367,
				"element": "H" 
			},
			{
				"x": -2.2581570065,
				"y": -1.7783894973,
				"z": -0.8224472515,
				"element": "H" 
			},
			{
				"x": -0.7703223813,
				"y": -2.4012963365,
				"z": -0.1325322769,
				"element": "H" 
			},
			{
				"x": -3.2113388044,
				"y": -3.9969141563,
				"z": 1.7170995213,
				"element": "H" 
			},
			{
				"x": -4.108804161,
				"y": -3.3878807154,
				"z": 3.939899215,
				"element": "H" 
			},
			{
				"x": -3.8277160014,
				"y": -1.0618136898,
				"z": 4.7954763285,
				"element": "H" 
			},
			{
				"x": -2.6123320157,
				"y": 0.605202648,
				"z": 3.4256152271,
				"element": "H" 
			},
			{
				"x": -0.0348963084,
				"y": 2.5119915756,
				"z": 0.6566119756,
				"element": "H" 
			},
			{
				"x": -1.6094642187,
				"y": 1.3051066856,
				"z": -3.1874204626,
				"element": "H" 
			},
			{
				"x": -1.6626158667,
				"y": -0.6278941733,
				"z": -4.7606139942,
				"element": "H" 
			},
			{
				"x": -0.0376697314,
				"y": -2.4904351377,
				"z": -4.4838087356,
				"element": "H" 
			},
			{
				"x": 1.6244803724,
				"y": -2.4166038921,
				"z": -2.6380823436,
				"element": "H" 
			},
			{
				"x": 1.6361691476,
				"y": -0.5122409638,
				"z": -1.0571695151,
				"element": "H" 
			},
			{
				"x": 2.4596819722,
				"y": 1.3619359218,
				"z": 1.1787054658,
				"element": "H" 
			},
			{
				"x": 2.9790575631,
				"y": 0.1775273563,
				"z": 2.3910854963,
				"element": "H" 
			},
			{
				"x": 2.5160240021,
				"y": -0.3626525235,
				"z": 0.777510774,
				"element": "H" 
			},
			{
				"x": 0.7407963945,
				"y": 2.1833285856,
				"z": 2.9586164823,
				"element": "H" 
			},
			{
				"x": -0.3804912491,
				"y": 1.018690755,
				"z": 3.6961256363,
				"element": "H" 
			},
			{
				"x": 1.3462611505,
				"y": 0.9481092836,
				"z": 4.0647732869,
				"element": "H" 
			},
			{
				"x": -0.1837831234,
				"y": -1.4821578811,
				"z": 3.131900301,
				"element": "H" 
			},
			{
				"x": 1.5759451002,
				"y": -1.5118479415,
				"z": 3.2092959912,
				"element": "H" 
			},
			{
				"x": 0.7577959103,
				"y": -1.9758849978,
				"z": 1.7129191777,
				"element": "H" 
			}
		],
		 "valence_orbital": [ 
			{
				"type": "occ",
				"energy": -0.25701,
				"method": "rhf"
			},
			{
				"type": "occ",
				"energy": -0.25225,
				"method": "rhf"
			},
			{
				"type": "occ",
				"energy": -0.24837,
				"method": "rhf"
			},
			{
				"type": "occ",
				"energy": -0.24247,
				"method": "rhf"
			},
			{
				"type": "occ",
				"energy": -0.23987,
				"method": "rhf"
			},
			{
				"type": "unocc",
				"energy": -0.02982,
				"method": "rhf"
			},
			{
				"type": "unocc",
				"energy": -0.01473,
				"method": "rhf"
			},
			{
				"type": "unocc",
				"energy": -0.00824,
				"method": "rhf"
			},
			{
				"type": "unocc",
				"energy": -0.00291,
				"method": "rhf"
			},
			{
				"type": "unocc",
				"energy": 0.00192,
				"method": "rhf"
			}
		],
		"cosmo_sigma_profile": { 
			"-0.025": 0.0,
			"-0.024": 0.0,
			"-0.023": 0.0,
			"-0.022": 0.0,
			"-0.021": 0.0,
			"-0.02": 0.0,
			"-0.019": 0.0,
			"-0.018": 0.0,
			"-0.017": 0.0,
			"-0.016": 0.0,
			"-0.015": 0.0,
			"-0.014": 0.0,
			"-0.013": 0.0979658035701,
			"-0.012": 0.774013493045,
			"-0.011": 1.04229595028,
			"-0.01": 1.07029477477,
			"-0.009": 1.66623250666,
			"-0.008": 1.53464040766,
			"-0.007": 3.71182172328,
			"-0.006": 17.4239080113,
			"-0.005": 25.9382305261,
			"-0.004": 33.8434841893,
			"-0.003": 29.5716763135,
			"-0.002": 31.3984646154,
			"-0.001": 33.0630958328,
			"0.0": 39.0001871859,
			"0.001": 28.1377688817,
			"0.002": 23.5187526612,
			"0.003": 22.3544950629,
			"0.004": 16.827725422,
			"0.005": 10.7710735106,
			"0.006": 4.31683108558,
			"0.007": 3.9646192954,
			"0.008": 2.75178704733,
			"0.009": 3.36343458165,
			"0.01": 3.78359221471,
			"0.011": 4.44645810451,
			"0.012": 6.91525528117,
			"0.013": 6.53384555487,
			"0.014": 0.981885249788,
			"0.015": 0.0,
			"0.016": 0.0,
			"0.017": 0.0,
			"0.018": 0.0,
			"0.019": 0.0,
			"0.02": 0.0,
			"0.021": 0.0,
			"0.022": 0.0,
			"0.023": 0.0,
			"0.024": 0.0,
			"0.025": 0.0
		}
	}
}
