{
	 "smiles": "BrC1=CC=C(C=C1)N1C(=O)C2ON=C(C2C1=O)C(=O)C1=CC=CO1", 
	 "Tm": 449.15, 
	 "num_atms": 33, 
	 "gaussian": { 
		 "optdone": 1, 
		 "sigma_profile": "yes", 
		 "theory": "DFT", 
		 "functional": "B3LYP", 
		 "basiset": "6-31G**", 
		 "properties": { 
			 "R2extent": 14112.7463, 
			 "electric_dipole_moment_norm": 6.24557613035, 
			 "electric_quadrupole_moment_norm": 23.4515966699, 
			 "total_energy": -3672.06531528, 
			 "HOMO_LUMO_gap": 0.15653, 
			 "cosmo_polarized_energy": -22.85, 
			 "cosmo_cavitation_energy": 42.1, 
			 "cosmo_dispersion_energy": -29.85, 
			 "cosmo_repulsion_energy": 2.25, 
			 "cosmo_total_nonelectrostatic_energy": 14.49, 
			 "SMD_solvation_energy": 8.2 
		},
		"coords": [
			{
				"x": 6.6048332131,
				"y": 0.7959120683,
				"z": -0.1101406058,
				"element": "Br" 
			},
			{
				"x": 4.7567938196,
				"y": 1.2670852961,
				"z": -0.0411691639,
				"element": "C" 
			},
			{
				"x": 3.8181905625,
				"y": 0.3102291397,
				"z": 0.3410350399,
				"element": "C" 
			},
			{
				"x": 2.4695636794,
				"y": 0.6553965954,
				"z": 0.3948737967,
				"element": "C" 
			},
			{
				"x": 2.0687202095,
				"y": 1.9521013551,
				"z": 0.0572775826,
				"element": "C" 
			},
			{
				"x": 3.0163253697,
				"y": 2.9057526217,
				"z": -0.3279807514,
				"element": "C" 
			},
			{
				"x": 4.3661425367,
				"y": 2.5629990777,
				"z": -0.3730671613,
				"element": "C" 
			},
			{
				"x": 0.6811670047,
				"y": 2.3039789105,
				"z": 0.1092575771,
				"element": "N" 
			},
			{
				"x": 0.2058726433,
				"y": 3.5271170116,
				"z": 0.62160298,
				"element": "C" 
			},
			{
				"x": 0.8840491254,
				"y": 4.432829055,
				"z": 1.0425710018,
				"element": "O" 
			},
			{
				"x": -1.3263148283,
				"y": 3.5057749222,
				"z": 0.5387039727,
				"element": "C" 
			},
			{
				"x": -1.8924981834,
				"y": 3.4647425051,
				"z": 1.8801089102,
				"element": "O" 
			},
			{
				"x": -2.5077735115,
				"y": 2.250570987,
				"z": 2.0929567662,
				"element": "N" 
			},
			{
				"x": -2.4515307893,
				"y": 1.5145668649,
				"z": 1.0386751364,
				"element": "C" 
			},
			{
				"x": -1.6872359181,
				"y": 2.170737768,
				"z": -0.1002870081,
				"element": "C" 
			},
			{
				"x": -0.3477078723,
				"y": 1.4668704074,
				"z": -0.3594526953,
				"element": "C" 
			},
			{
				"x": -0.2006679211,
				"y": 0.3778151909,
				"z": -0.86289288,
				"element": "O" 
			},
			{
				"x": -3.0580547035,
				"y": 0.1386324848,
				"z": 1.0904423491,
				"element": "C" 
			},
			{
				"x": -3.1826871544,
				"y": -0.4484293837,
				"z": 2.1564200936,
				"element": "O" 
			},
			{
				"x": -3.5071475512,
				"y": -0.4901428337,
				"z": -0.1525559125,
				"element": "C" 
			},
			{
				"x": -4.0191708519,
				"y": -1.7468586048,
				"z": -0.3600559805,
				"element": "C" 
			},
			{
				"x": -4.3133725464,
				"y": -1.8422478228,
				"z": -1.7480827824,
				"element": "C" 
			},
			{
				"x": -3.9658271505,
				"y": -0.6373472336,
				"z": -2.292472625,
				"element": "C" 
			},
			{
				"x": -3.4781119015,
				"y": 0.1970455653,
				"z": -1.3427812451,
				"element": "O" 
			},
			{
				"x": 4.1341226164,
				"y": -0.6937580867,
				"z": 0.5988572992,
				"element": "H" 
			},
			{
				"x": 1.7355597315,
				"y": -0.0845492797,
				"z": 0.6872587412,
				"element": "H" 
			},
			{
				"x": 2.7080953982,
				"y": 3.913247759,
				"z": -0.5756491214,
				"element": "H" 
			},
			{
				"x": 5.1055376848,
				"y": 3.2989657486,
				"z": -0.6662572235,
				"element": "H" 
			},
			{
				"x": -1.6944158317,
				"y": 4.4084532855,
				"z": 0.0468462276,
				"element": "H" 
			},
			{
				"x": -2.2594711893,
				"y": 2.2097828651,
				"z": -1.0274173302,
				"element": "H" 
			},
			{
				"x": -4.1569142839,
				"y": -2.4946719924,
				"z": 0.4063659564,
				"element": "H" 
			},
			{
				"x": -4.7262454753,
				"y": -2.6888933738,
				"z": -2.276698809,
				"element": "H" 
			},
			{
				"x": -4.0037259309,
				"y": -0.2400088736,
				"z": -3.2952921351,
				"element": "H" 
			}
		],
		 "valence_orbital": [ 
			{
				"type": "occ",
				"energy": -0.2746,
				"method": "rhf"
			},
			{
				"type": "occ",
				"energy": -0.2726,
				"method": "rhf"
			},
			{
				"type": "occ",
				"energy": -0.26602,
				"method": "rhf"
			},
			{
				"type": "occ",
				"energy": -0.25495,
				"method": "rhf"
			},
			{
				"type": "occ",
				"energy": -0.2468,
				"method": "rhf"
			},
			{
				"type": "unocc",
				"energy": -0.09027,
				"method": "rhf"
			},
			{
				"type": "unocc",
				"energy": -0.05388,
				"method": "rhf"
			},
			{
				"type": "unocc",
				"energy": -0.04576,
				"method": "rhf"
			},
			{
				"type": "unocc",
				"energy": -0.02456,
				"method": "rhf"
			},
			{
				"type": "unocc",
				"energy": -0.02105,
				"method": "rhf"
			}
		],
		"cosmo_sigma_profile": { 
			"-0.025": 0.0,
			"-0.024": 0.0,
			"-0.023": 0.0,
			"-0.022": 0.0,
			"-0.021": 0.0,
			"-0.02": 0.0,
			"-0.019": 0.0,
			"-0.018": 0.0,
			"-0.017": 0.0,
			"-0.016": 0.0,
			"-0.015": 0.0,
			"-0.014": 0.0,
			"-0.013": 0.252674490299,
			"-0.012": 1.28357349657,
			"-0.011": 3.69134255332,
			"-0.01": 9.36827487755,
			"-0.009": 8.03025605997,
			"-0.008": 12.2330212132,
			"-0.007": 17.6616321175,
			"-0.006": 16.5368876859,
			"-0.005": 17.6264217701,
			"-0.004": 16.6856232681,
			"-0.003": 16.2265954435,
			"-0.002": 14.4091997948,
			"-0.001": 19.036425283,
			"0.0": 21.3767111525,
			"0.001": 27.3098759937,
			"0.002": 34.1180666624,
			"0.003": 19.5706587835,
			"0.004": 18.578942578,
			"0.005": 10.9618034576,
			"0.006": 7.69231727758,
			"0.007": 10.4458790863,
			"0.008": 9.2530385221,
			"0.009": 8.48382003611,
			"0.01": 11.4283470517,
			"0.011": 7.1630108327,
			"0.012": 3.59813280131,
			"0.013": 0.810497035772,
			"0.014": 0.0,
			"0.015": 0.0,
			"0.016": 0.0,
			"0.017": 0.0,
			"0.018": 0.0,
			"0.019": 0.0,
			"0.02": 0.0,
			"0.021": 0.0,
			"0.022": 0.0,
			"0.023": 0.0,
			"0.024": 0.0,
			"0.025": 0.0
		}
	}
}
