{
	 "smiles": "CC1=C(O)N=CN=C1Cl", 
	 "Tm": 475.15, 
	 "num_atms": 14, 
	 "gaussian": { 
		 "optdone": 1, 
		 "sigma_profile": "yes", 
		 "theory": "DFT", 
		 "functional": "B3LYP", 
		 "basiset": "6-31G**", 
		 "properties": { 
			 "R2extent": 1740.0369, 
			 "electric_dipole_moment_norm": 2.47544407531, 
			 "electric_quadrupole_moment_norm": 7.16776666124, 
			 "total_energy": -838.474388663, 
			 "HOMO_LUMO_gap": 0.22275, 
			 "cosmo_polarized_energy": -7.9, 
			 "cosmo_cavitation_energy": 19.99, 
			 "cosmo_dispersion_energy": -15.33, 
			 "cosmo_repulsion_energy": 1.25, 
			 "cosmo_total_nonelectrostatic_energy": 5.92, 
			 "SMD_solvation_energy": 1.15 
		},
		"coords": [
			{
				"x": -1.1974418224,
				"y": 0.2392124365,
				"z": 0.3181424512,
				"element": "C" 
			},
			{
				"x": -0.0502311688,
				"y": -0.5654691018,
				"z": -0.2250895817,
				"element": "C" 
			},
			{
				"x": 1.2393522588,
				"y": -0.5318263391,
				"z": 0.3430768829,
				"element": "C" 
			},
			{
				"x": 1.4556653335,
				"y": 0.25148446,
				"z": 1.4155316698,
				"element": "O" 
			},
			{
				"x": 2.2755856518,
				"y": -1.2340237322,
				"z": -0.116625568,
				"element": "N" 
			},
			{
				"x": 2.0378968043,
				"y": -2.0035000537,
				"z": -1.1802295049,
				"element": "C" 
			},
			{
				"x": 0.8760260475,
				"y": -2.1347503415,
				"z": -1.8190242612,
				"element": "N" 
			},
			{
				"x": -0.1286636912,
				"y": -1.417590155,
				"z": -1.3277157172,
				"element": "C" 
			},
			{
				"x": -1.6670954478,
				"y": -1.5820831094,
				"z": -2.1616249891,
				"element": "Cl" 
			},
			{
				"x": -1.5902014082,
				"y": 0.9219114675,
				"z": -0.4423752786,
				"element": "H" 
			},
			{
				"x": -0.8805136308,
				"y": 0.8239110851,
				"z": 1.1817384471,
				"element": "H" 
			},
			{
				"x": -2.0233230578,
				"y": -0.4129573425,
				"z": 0.6203511016,
				"element": "H" 
			},
			{
				"x": 2.3904441654,
				"y": 0.1355161555,
				"z": 1.6510684578,
				"element": "H" 
			},
			{
				"x": 2.8752999657,
				"y": -2.5809354293,
				"z": -1.5645241095,
				"element": "H" 
			}
		],
		 "valence_orbital": [ 
			{
				"type": "occ",
				"energy": -0.32311,
				"method": "rhf"
			},
			{
				"type": "occ",
				"energy": -0.31859,
				"method": "rhf"
			},
			{
				"type": "occ",
				"energy": -0.2919,
				"method": "rhf"
			},
			{
				"type": "occ",
				"energy": -0.27509,
				"method": "rhf"
			},
			{
				"type": "occ",
				"energy": -0.26445,
				"method": "rhf"
			},
			{
				"type": "unocc",
				"energy": -0.0417,
				"method": "rhf"
			},
			{
				"type": "unocc",
				"energy": -0.02633,
				"method": "rhf"
			},
			{
				"type": "unocc",
				"energy": 0.02846,
				"method": "rhf"
			},
			{
				"type": "unocc",
				"energy": 0.07413,
				"method": "rhf"
			},
			{
				"type": "unocc",
				"energy": 0.11496,
				"method": "rhf"
			}
		],
		"cosmo_sigma_profile": { 
			"-0.025": 0.0,
			"-0.024": 0.0,
			"-0.023": 0.0,
			"-0.022": 0.0,
			"-0.021": 0.0,
			"-0.02": 0.0,
			"-0.019": 0.0560968050688,
			"-0.018": 0.643420390478,
			"-0.017": 0.766587000179,
			"-0.016": 1.18287556642,
			"-0.015": 0.207873237087,
			"-0.014": 0.566428685444,
			"-0.013": 0.544058952818,
			"-0.012": 1.14608628517,
			"-0.011": 0.51122542978,
			"-0.01": 0.74745874195,
			"-0.009": 1.10387625652,
			"-0.008": 2.56438981207,
			"-0.007": 2.12844909457,
			"-0.006": 3.20804277459,
			"-0.005": 5.84721610241,
			"-0.004": 7.13200216698,
			"-0.003": 13.7743148584,
			"-0.002": 21.3669298473,
			"-0.001": 19.5036625909,
			"0.0": 10.6598340733,
			"0.001": 11.1573046106,
			"0.002": 10.7024492886,
			"0.003": 10.1996305731,
			"0.004": 9.07176001849,
			"0.005": 6.14157912068,
			"0.006": 4.4890243247,
			"0.007": 4.39330154263,
			"0.008": 3.27049747745,
			"0.009": 2.19574585862,
			"0.01": 1.88369867854,
			"0.011": 1.77791037957,
			"0.012": 1.79377286437,
			"0.013": 0.818322590997,
			"0.014": 0.682434531287,
			"0.015": 0.0441706688515,
			"0.016": 0.0,
			"0.017": 0.0,
			"0.018": 0.0,
			"0.019": 0.0,
			"0.02": 0.0,
			"0.021": 0.0,
			"0.022": 0.0,
			"0.023": 0.0,
			"0.024": 0.0,
			"0.025": 0.0
		}
	}
}
