{
	 "smiles": "OC(=O)C1=CC2=C(C=C1)N=C(S)O2", 
	 "Tm": 569.15, 
	 "num_atms": 18, 
	 "gaussian": { 
		 "optdone": 1, 
		 "sigma_profile": "yes", 
		 "theory": "DFT", 
		 "functional": "B3LYP", 
		 "basiset": "6-31G**", 
		 "properties": { 
			 "R2extent": 4667.0766, 
			 "electric_dipole_moment_norm": 4.59359651471, 
			 "electric_quadrupole_moment_norm": 20.2101981408, 
			 "total_energy": -986.471876161, 
			 "HOMO_LUMO_gap": 0.18418, 
			 "cosmo_polarized_energy": -16.07, 
			 "cosmo_cavitation_energy": 25.4, 
			 "cosmo_dispersion_energy": -19.71, 
			 "cosmo_repulsion_energy": 1.49, 
			 "cosmo_total_nonelectrostatic_energy": 7.18, 
			 "SMD_solvation_energy": 3.46 
		},
		"coords": [
			{
				"x": -2.5457952849,
				"y": 0.2049065349,
				"z": 3.3678959753,
				"element": "O" 
			},
			{
				"x": -1.6682500906,
				"y": 1.2257138201,
				"z": 3.1734548947,
				"element": "C" 
			},
			{
				"x": -1.6532383748,
				"y": 2.1620941172,
				"z": 3.9378380574,
				"element": "O" 
			},
			{
				"x": -0.7559726309,
				"y": 1.1191243872,
				"z": 1.9886687583,
				"element": "C" 
			},
			{
				"x": -0.1587093767,
				"y": 2.3117536607,
				"z": 1.5480823535,
				"element": "C" 
			},
			{
				"x": 0.6794942583,
				"y": 2.1977605922,
				"z": 0.4591623355,
				"element": "C" 
			},
			{
				"x": 0.9685624563,
				"y": 0.9891040712,
				"z": -0.1940855782,
				"element": "C" 
			},
			{
				"x": 0.391475515,
				"y": -0.1973997783,
				"z": 0.2627572505,
				"element": "C" 
			},
			{
				"x": -0.4693647942,
				"y": -0.1103729362,
				"z": 1.3554726118,
				"element": "C" 
			},
			{
				"x": 1.851266935,
				"y": 1.2382149943,
				"z": -1.245053385,
				"element": "N" 
			},
			{
				"x": 2.0443303238,
				"y": 2.5182619597,
				"z": -1.1820459619,
				"element": "C" 
			},
			{
				"x": 3.048286757,
				"y": 3.5289237432,
				"z": -2.2037376823,
				"element": "S" 
			},
			{
				"x": 1.3830613048,
				"y": 3.1910496103,
				"z": -0.1892845212,
				"element": "O" 
			},
			{
				"x": -2.5659761487,
				"y": -0.3719828128,
				"z": 2.5920608943,
				"element": "H" 
			},
			{
				"x": -0.3636772848,
				"y": 3.2471241031,
				"z": 2.0542727399,
				"element": "H" 
			},
			{
				"x": 0.6167227244,
				"y": -1.1460514943,
				"z": -0.2112995915,
				"element": "H" 
			},
			{
				"x": -0.8915300543,
				"y": -1.0312160657,
				"z": 1.7492118576,
				"element": "H" 
			},
			{
				"x": 3.455113765,
				"y": 2.4902914932,
				"z": -2.9575710086,
				"element": "H" 
			}
		],
		 "valence_orbital": [ 
			{
				"type": "occ",
				"energy": -0.31465,
				"method": "rhf"
			},
			{
				"type": "occ",
				"energy": -0.30679,
				"method": "rhf"
			},
			{
				"type": "occ",
				"energy": -0.27796,
				"method": "rhf"
			},
			{
				"type": "occ",
				"energy": -0.26965,
				"method": "rhf"
			},
			{
				"type": "occ",
				"energy": -0.24624,
				"method": "rhf"
			},
			{
				"type": "unocc",
				"energy": -0.06206,
				"method": "rhf"
			},
			{
				"type": "unocc",
				"energy": -0.02835,
				"method": "rhf"
			},
			{
				"type": "unocc",
				"energy": -0.01034,
				"method": "rhf"
			},
			{
				"type": "unocc",
				"energy": 0.00386,
				"method": "rhf"
			},
			{
				"type": "unocc",
				"energy": 0.04522,
				"method": "rhf"
			}
		],
		"cosmo_sigma_profile": { 
			"-0.025": 0.0,
			"-0.024": 0.0,
			"-0.023": 0.0,
			"-0.022": 0.0,
			"-0.021": 0.0,
			"-0.02": 0.0,
			"-0.019": 0.247901377429,
			"-0.018": 0.904353240384,
			"-0.017": 1.2746732715,
			"-0.016": 0.854821144318,
			"-0.015": 0.676364269905,
			"-0.014": 1.29201041437,
			"-0.013": 2.66854937262,
			"-0.012": 2.02400302542,
			"-0.011": 3.10587428116,
			"-0.01": 2.34139290922,
			"-0.009": 2.87020017855,
			"-0.008": 4.51872238387,
			"-0.007": 7.10095610283,
			"-0.006": 6.66030437487,
			"-0.005": 6.30461833593,
			"-0.004": 9.69345401847,
			"-0.003": 10.6913871718,
			"-0.002": 11.5386896072,
			"-0.001": 18.1846150909,
			"0.0": 20.1395275275,
			"0.001": 18.3136184778,
			"0.002": 16.6253115612,
			"0.003": 9.41725649795,
			"0.004": 7.46898181131,
			"0.005": 7.55675179672,
			"0.006": 4.16140533712,
			"0.007": 2.84222961636,
			"0.008": 4.1105332754,
			"0.009": 3.94186196171,
			"0.01": 5.83426188571,
			"0.011": 5.71823060056,
			"0.012": 5.91082129366,
			"0.013": 2.1465729042,
			"0.014": 0.671692794116,
			"0.015": 0.0,
			"0.016": 0.0,
			"0.017": 0.0,
			"0.018": 0.0,
			"0.019": 0.0,
			"0.02": 0.0,
			"0.021": 0.0,
			"0.022": 0.0,
			"0.023": 0.0,
			"0.024": 0.0,
			"0.025": 0.0
		}
	}
}
