{
	 "smiles": "SC1=NC2=C(O1)C=CC(=C2)S(=O)(=O)N1CCOCC1", 
	 "Tm": 525.15, 
	 "num_atms": 31, 
	 "gaussian": { 
		 "optdone": 1, 
		 "sigma_profile": "yes", 
		 "theory": "DFT", 
		 "functional": "B3LYP", 
		 "basiset": "6-31G**", 
		 "properties": { 
			 "R2extent": 8260.5547, 
			 "electric_dipole_moment_norm": 3.23511084972, 
			 "electric_quadrupole_moment_norm": 21.048298961, 
			 "total_energy": -1633.06629498, 
			 "HOMO_LUMO_gap": 0.19795, 
			 "cosmo_polarized_energy": -17.13, 
			 "cosmo_cavitation_energy": 37.49, 
			 "cosmo_dispersion_energy": -28.13, 
			 "cosmo_repulsion_energy": 2.07, 
			 "cosmo_total_nonelectrostatic_energy": 11.43, 
			 "SMD_solvation_energy": 2.65 
		},
		"coords": [
			{
				"x": -1.5377937016,
				"y": 1.7216587751,
				"z": 5.9505036626,
				"element": "S" 
			},
			{
				"x": -1.4101441887,
				"y": 1.7282742629,
				"z": 4.201120143,
				"element": "C" 
			},
			{
				"x": -1.9281711475,
				"y": 0.9114176684,
				"z": 3.3434504479,
				"element": "N" 
			},
			{
				"x": -1.4893709804,
				"y": 1.4064623159,
				"z": 2.1116460513,
				"element": "C" 
			},
			{
				"x": -0.6984851986,
				"y": 2.5458771464,
				"z": 2.3327024017,
				"element": "C" 
			},
			{
				"x": -0.6481821679,
				"y": 2.7524886278,
				"z": 3.6913380978,
				"element": "O" 
			},
			{
				"x": -0.10799049,
				"y": 3.2926062064,
				"z": 1.3276929846,
				"element": "C" 
			},
			{
				"x": -0.3370086536,
				"y": 2.8433635472,
				"z": 0.0237846949,
				"element": "C" 
			},
			{
				"x": -1.1195380188,
				"y": 1.7011727034,
				"z": -0.2114589182,
				"element": "C" 
			},
			{
				"x": -1.7176081389,
				"y": 0.9610591783,
				"z": 0.8124788165,
				"element": "C" 
			},
			{
				"x": -1.3961227399,
				"y": 1.1821934288,
				"z": -1.909076813,
				"element": "S" 
			},
			{
				"x": -2.7769415562,
				"y": 0.7046987758,
				"z": -2.0358544612,
				"element": "O" 
			},
			{
				"x": -0.8876411335,
				"y": 2.254218631,
				"z": -2.7768265018,
				"element": "O" 
			},
			{
				"x": -0.4148147466,
				"y": -0.1894981065,
				"z": -2.0212317878,
				"element": "N" 
			},
			{
				"x": -0.9195996464,
				"y": -1.3277777168,
				"z": -2.801664545,
				"element": "C" 
			},
			{
				"x": -0.2050197826,
				"y": -2.5914411971,
				"z": -2.2985940831,
				"element": "C" 
			},
			{
				"x": 1.1684974887,
				"y": -2.3660020795,
				"z": -1.9755922692,
				"element": "O" 
			},
			{
				"x": 1.7123538178,
				"y": -1.2393159484,
				"z": -2.6344265552,
				"element": "C" 
			},
			{
				"x": 1.0362017146,
				"y": 0.0583105807,
				"z": -2.1623399408,
				"element": "C" 
			},
			{
				"x": -2.320582232,
				"y": 0.6264553638,
				"z": 5.9630227482,
				"element": "H" 
			},
			{
				"x": 0.4883553723,
				"y": 4.1733048997,
				"z": 1.5356803678,
				"element": "H" 
			},
			{
				"x": 0.0726646962,
				"y": 3.3794032576,
				"z": -0.8242758626,
				"element": "H" 
			},
			{
				"x": -2.3338653527,
				"y": 0.0947082285,
				"z": 0.6045101288,
				"element": "H" 
			},
			{
				"x": -0.7563961934,
				"y": -1.1825600285,
				"z": -3.8792909625,
				"element": "H" 
			},
			{
				"x": -1.9947898578,
				"y": -1.4153716314,
				"z": -2.6432104223,
				"element": "H" 
			},
			{
				"x": -0.6776907322,
				"y": -2.9505801018,
				"z": -1.378904209,
				"element": "H" 
			},
			{
				"x": -0.2917063106,
				"y": -3.3792409749,
				"z": -3.0630088347,
				"element": "H" 
			},
			{
				"x": 2.7765613355,
				"y": -1.2097571553,
				"z": -2.3859913008,
				"element": "H" 
			},
			{
				"x": 1.6320427733,
				"y": -1.3385794521,
				"z": -3.7279442298,
				"element": "H" 
			},
			{
				"x": 1.2405579396,
				"y": 0.8653364286,
				"z": -2.8783786467,
				"element": "H" 
			},
			{
				"x": 1.4308278317,
				"y": 0.3539143662,
				"z": -1.1841602012,
				"element": "H" 
			}
		],
		 "valence_orbital": [ 
			{
				"type": "occ",
				"energy": -0.30044,
				"method": "rhf"
			},
			{
				"type": "occ",
				"energy": -0.27467,
				"method": "rhf"
			},
			{
				"type": "occ",
				"energy": -0.26024,
				"method": "rhf"
			},
			{
				"type": "occ",
				"energy": -0.24739,
				"method": "rhf"
			},
			{
				"type": "occ",
				"energy": -0.2448,
				"method": "rhf"
			},
			{
				"type": "unocc",
				"energy": -0.04685,
				"method": "rhf"
			},
			{
				"type": "unocc",
				"energy": -0.0327,
				"method": "rhf"
			},
			{
				"type": "unocc",
				"energy": -0.00901,
				"method": "rhf"
			},
			{
				"type": "unocc",
				"energy": 0.01664,
				"method": "rhf"
			},
			{
				"type": "unocc",
				"energy": 0.04563,
				"method": "rhf"
			}
		],
		"cosmo_sigma_profile": { 
			"-0.025": 0.0,
			"-0.024": 0.0,
			"-0.023": 0.0,
			"-0.022": 0.0,
			"-0.021": 0.0,
			"-0.02": 0.0,
			"-0.019": 0.0,
			"-0.018": 0.0,
			"-0.017": 0.0,
			"-0.016": 0.0,
			"-0.015": 0.0,
			"-0.014": 0.0935634488574,
			"-0.013": 1.60700948479,
			"-0.012": 1.53295877716,
			"-0.011": 1.2706540006,
			"-0.01": 1.23421397774,
			"-0.009": 2.82901774949,
			"-0.008": 3.8513807309,
			"-0.007": 6.29499231823,
			"-0.006": 14.7811457065,
			"-0.005": 29.2548634436,
			"-0.004": 25.7975353192,
			"-0.003": 24.9154798975,
			"-0.002": 20.8112080225,
			"-0.001": 24.0038104944,
			"0.0": 23.9882068452,
			"0.001": 23.0123945703,
			"0.002": 15.4250200984,
			"0.003": 10.7685079019,
			"0.004": 11.0716837145,
			"0.005": 8.95107407317,
			"0.006": 6.50274633575,
			"0.007": 5.51275952091,
			"0.008": 5.26345271257,
			"0.009": 5.80097808541,
			"0.01": 9.08651159552,
			"0.011": 9.97138742213,
			"0.012": 4.81731370714,
			"0.013": 2.48699950517,
			"0.014": 0.504004537472,
			"0.015": 0.0,
			"0.016": 0.0,
			"0.017": 0.0,
			"0.018": 0.0,
			"0.019": 0.0,
			"0.02": 0.0,
			"0.021": 0.0,
			"0.022": 0.0,
			"0.023": 0.0,
			"0.024": 0.0,
			"0.025": 0.0
		}
	}
}
