{
	 "smiles": "O=CC=CC=CC1=CC=CC=C1", 
	 "Tm": 315.65, 
	 "num_atms": 22, 
	 "gaussian": { 
		 "optdone": 1, 
		 "sigma_profile": "yes", 
		 "theory": "DFT", 
		 "functional": "B3LYP", 
		 "basiset": "6-31G**", 
		 "properties": { 
			 "R2extent": 3667.2076, 
			 "electric_dipole_moment_norm": 5.05426722384, 
			 "electric_quadrupole_moment_norm": 18.7228939406, 
			 "total_energy": -500.382100672, 
			 "HOMO_LUMO_gap": 0.13564, 
			 "cosmo_polarized_energy": -10.92, 
			 "cosmo_cavitation_energy": 27.31, 
			 "cosmo_dispersion_energy": -19.59, 
			 "cosmo_repulsion_energy": 1.55, 
			 "cosmo_total_nonelectrostatic_energy": 9.27, 
			 "SMD_solvation_energy": 5.98 
		},
		"coords": [
			{
				"x": 2.8008869909,
				"y": 2.2018240748,
				"z": -3.9531743249,
				"element": "O" 
			},
			{
				"x": 1.9942930136,
				"y": 2.5428737299,
				"z": -3.1042437829,
				"element": "C" 
			},
			{
				"x": 1.3110579004,
				"y": 1.6269412241,
				"z": -2.1917329479,
				"element": "C" 
			},
			{
				"x": 0.4274060193,
				"y": 2.0950649518,
				"z": -1.2784608466,
				"element": "C" 
			},
			{
				"x": -0.3426554957,
				"y": 1.3504046746,
				"z": -0.2988805101,
				"element": "C" 
			},
			{
				"x": -0.3254553595,
				"y": 0.0062405027,
				"z": -0.136197818,
				"element": "C" 
			},
			{
				"x": -1.0819034972,
				"y": -0.7805887611,
				"z": 0.8350989521,
				"element": "C" 
			},
			{
				"x": -1.9625512975,
				"y": -0.2135396961,
				"z": 1.7794047134,
				"element": "C" 
			},
			{
				"x": -2.654835875,
				"y": -1.0167242638,
				"z": 2.6786184771,
				"element": "C" 
			},
			{
				"x": -2.4883371386,
				"y": -2.4058828467,
				"z": 2.6614247069,
				"element": "C" 
			},
			{
				"x": -1.6207849827,
				"y": -2.9849008189,
				"z": 1.7342548504,
				"element": "C" 
			},
			{
				"x": -0.9269531618,
				"y": -2.1805987996,
				"z": 0.8331401822,
				"element": "C" 
			},
			{
				"x": 1.7219014707,
				"y": 3.6159013651,
				"z": -2.971221022,
				"element": "H" 
			},
			{
				"x": 1.5553797752,
				"y": 0.5727403621,
				"z": -2.2936306795,
				"element": "H" 
			},
			{
				"x": 0.2660065402,
				"y": 3.1739656357,
				"z": -1.2683316955,
				"element": "H" 
			},
			{
				"x": -0.980267805,
				"y": 1.9529111276,
				"z": 0.3434352512,
				"element": "H" 
			},
			{
				"x": 0.3155961212,
				"y": -0.5812846656,
				"z": -0.7918914256,
				"element": "H" 
			},
			{
				"x": -2.1060192907,
				"y": 0.8618542965,
				"z": 1.8108471446,
				"element": "H" 
			},
			{
				"x": -3.3283542547,
				"y": -0.5602095676,
				"z": 3.3981718641,
				"element": "H" 
			},
			{
				"x": -3.0312905035,
				"y": -3.0288607896,
				"z": 3.365988649,
				"element": "H" 
			},
			{
				"x": -1.4842574011,
				"y": -4.0621048541,
				"z": 1.7126561294,
				"element": "H" 
			},
			{
				"x": -0.2521617688,
				"y": -2.6357268818,
				"z": 0.1126241325,
				"element": "H" 
			}
		],
		 "valence_orbital": [ 
			{
				"type": "occ",
				"energy": -0.3367,
				"method": "rhf"
			},
			{
				"type": "occ",
				"energy": -0.28534,
				"method": "rhf"
			},
			{
				"type": "occ",
				"energy": -0.26455,
				"method": "rhf"
			},
			{
				"type": "occ",
				"energy": -0.24362,
				"method": "rhf"
			},
			{
				"type": "occ",
				"energy": -0.22346,
				"method": "rhf"
			},
			{
				"type": "unocc",
				"energy": -0.08782,
				"method": "rhf"
			},
			{
				"type": "unocc",
				"energy": -0.01596,
				"method": "rhf"
			},
			{
				"type": "unocc",
				"energy": -0.01098,
				"method": "rhf"
			},
			{
				"type": "unocc",
				"energy": 0.04135,
				"method": "rhf"
			},
			{
				"type": "unocc",
				"energy": 0.07977,
				"method": "rhf"
			}
		],
		"cosmo_sigma_profile": { 
			"-0.025": 0.0,
			"-0.024": 0.0,
			"-0.023": 0.0,
			"-0.022": 0.0,
			"-0.021": 0.0,
			"-0.02": 0.0,
			"-0.019": 0.0,
			"-0.018": 0.0,
			"-0.017": 0.0,
			"-0.016": 0.0,
			"-0.015": 0.0,
			"-0.014": 0.0,
			"-0.013": 0.0,
			"-0.012": 0.0,
			"-0.011": 0.0,
			"-0.01": 0.0,
			"-0.009": 0.0,
			"-0.008": 2.1381926368,
			"-0.007": 10.8392053645,
			"-0.006": 18.1946549894,
			"-0.005": 18.5388103181,
			"-0.004": 18.0440598593,
			"-0.003": 13.8601166402,
			"-0.002": 13.4510829585,
			"-0.001": 11.3898122714,
			"0.0": 13.0586152612,
			"0.001": 16.0122438068,
			"0.002": 17.2868961497,
			"0.003": 20.0745321071,
			"0.004": 15.84303985,
			"0.005": 9.53472072722,
			"0.006": 1.75985271935,
			"0.007": 1.50805505076,
			"0.008": 1.06940388078,
			"0.009": 1.90237778333,
			"0.01": 1.87974827757,
			"0.011": 3.06450038428,
			"0.012": 4.48358571371,
			"0.013": 3.89350733842,
			"0.014": 1.28343345254,
			"0.015": 0.0,
			"0.016": 0.0,
			"0.017": 0.0,
			"0.018": 0.0,
			"0.019": 0.0,
			"0.02": 0.0,
			"0.021": 0.0,
			"0.022": 0.0,
			"0.023": 0.0,
			"0.024": 0.0,
			"0.025": 0.0
		}
	}
}
