{
	 "smiles": "OC12CCCCC1C1=CC=CC=C21", 
	 "Tm": 385.15, 
	 "num_atms": 27, 
	 "gaussian": { 
		 "optdone": 1, 
		 "sigma_profile": "yes", 
		 "theory": "DFT", 
		 "functional": "B3LYP", 
		 "basiset": "6-31G**", 
		 "properties": { 
			 "R2extent": 2437.588, 
			 "electric_dipole_moment_norm": 1.31435134953, 
			 "electric_quadrupole_moment_norm": 5.30321837001, 
			 "total_energy": -540.906172298, 
			 "HOMO_LUMO_gap": 0.22762, 
			 "cosmo_polarized_energy": -6.71, 
			 "cosmo_cavitation_energy": 27.86, 
			 "cosmo_dispersion_energy": -20.22, 
			 "cosmo_repulsion_energy": 1.61, 
			 "cosmo_total_nonelectrostatic_energy": 9.25, 
			 "SMD_solvation_energy": 3.8 
		},
		"coords": [
			{
				"x": -1.4332254353,
				"y": -2.0509624036,
				"z": 2.4111089618,
				"element": "O" 
			},
			{
				"x": -1.1599530263,
				"y": -1.5102619165,
				"z": 1.1307057106,
				"element": "C" 
			},
			{
				"x": -1.1769907999,
				"y": -2.6830829513,
				"z": 0.1508590905,
				"element": "C" 
			},
			{
				"x": -1.0180469549,
				"y": -2.2503030913,
				"z": -1.3156847526,
				"element": "C" 
			},
			{
				"x": -2.0115477514,
				"y": -1.1380591196,
				"z": -1.767136552,
				"element": "C" 
			},
			{
				"x": -2.8872887241,
				"y": -0.5836425169,
				"z": -0.6270850544,
				"element": "C" 
			},
			{
				"x": -2.0854396922,
				"y": -0.2998588426,
				"z": 0.6455614547,
				"element": "C" 
			},
			{
				"x": -0.7944169126,
				"y": 0.5122117128,
				"z": 0.5575900216,
				"element": "C" 
			},
			{
				"x": -0.2707258657,
				"y": 1.7555258302,
				"z": 0.2247827364,
				"element": "C" 
			},
			{
				"x": 1.111465036,
				"y": 1.9157163862,
				"z": 0.4133581181,
				"element": "C" 
			},
			{
				"x": 1.9155851261,
				"y": 0.8766664321,
				"z": 0.9061610354,
				"element": "C" 
			},
			{
				"x": 1.3781899407,
				"y": -0.3799999703,
				"z": 1.2260165472,
				"element": "C" 
			},
			{
				"x": 0.0100739552,
				"y": -0.5256521324,
				"z": 1.0294505518,
				"element": "C" 
			},
			{
				"x": -1.3335056793,
				"y": -1.3393903676,
				"z": 3.0579382699,
				"element": "H" 
			},
			{
				"x": -2.1288091211,
				"y": -3.2087699019,
				"z": 0.3000343776,
				"element": "H" 
			},
			{
				"x": -0.385922399,
				"y": -3.3901527943,
				"z": 0.4256585693,
				"element": "H" 
			},
			{
				"x": 0.0083320037,
				"y": -1.8970233316,
				"z": -1.4622730093,
				"element": "H" 
			},
			{
				"x": -1.1270975127,
				"y": -3.1344603196,
				"z": -1.952872403,
				"element": "H" 
			},
			{
				"x": -1.4444295799,
				"y": -0.3108623057,
				"z": -2.2076171972,
				"element": "H" 
			},
			{
				"x": -2.6662901516,
				"y": -1.5127188172,
				"z": -2.5616524556,
				"element": "H" 
			},
			{
				"x": -3.6738112914,
				"y": -1.3065620721,
				"z": -0.373110019,
				"element": "H" 
			},
			{
				"x": -3.4056375324,
				"y": 0.3224730077,
				"z": -0.9651480613,
				"element": "H" 
			},
			{
				"x": -2.7522697887,
				"y": 0.0322464354,
				"z": 1.4516815379,
				"element": "H" 
			},
			{
				"x": -0.8784432727,
				"y": 2.5749121603,
				"z": -0.150000018,
				"element": "H" 
			},
			{
				"x": 1.5744276801,
				"y": 2.8705705679,
				"z": 0.1783889235,
				"element": "H" 
			},
			{
				"x": 2.9796042076,
				"y": 1.0534973452,
				"z": 1.0389798761,
				"element": "H" 
			},
			{
				"x": 2.0107735419,
				"y": -1.1788570233,
				"z": 1.60350374,
				"element": "H" 
			}
		],
		 "valence_orbital": [ 
			{
				"type": "occ",
				"energy": -0.2998,
				"method": "rhf"
			},
			{
				"type": "occ",
				"energy": -0.28649,
				"method": "rhf"
			},
			{
				"type": "occ",
				"energy": -0.25709,
				"method": "rhf"
			},
			{
				"type": "occ",
				"energy": -0.24751,
				"method": "rhf"
			},
			{
				"type": "occ",
				"energy": -0.23622,
				"method": "rhf"
			},
			{
				"type": "unocc",
				"energy": -0.0086,
				"method": "rhf"
			},
			{
				"type": "unocc",
				"energy": 0.0019,
				"method": "rhf"
			},
			{
				"type": "unocc",
				"energy": 0.08596,
				"method": "rhf"
			},
			{
				"type": "unocc",
				"energy": 0.09568,
				"method": "rhf"
			},
			{
				"type": "unocc",
				"energy": 0.10539,
				"method": "rhf"
			}
		],
		"cosmo_sigma_profile": { 
			"-0.025": 0.0,
			"-0.024": 0.0,
			"-0.023": 0.0,
			"-0.022": 0.0,
			"-0.021": 0.0,
			"-0.02": 0.0,
			"-0.019": 0.0,
			"-0.018": 0.0,
			"-0.017": 0.0,
			"-0.016": 0.0,
			"-0.015": 0.734936583674,
			"-0.014": 0.775871710169,
			"-0.013": 0.677605654231,
			"-0.012": 0.930750449746,
			"-0.011": 0.578303657958,
			"-0.01": 1.46855740796,
			"-0.009": 0.344413118743,
			"-0.008": 0.472948562027,
			"-0.007": 0.986895521031,
			"-0.006": 4.14231656648,
			"-0.005": 9.11121222441,
			"-0.004": 9.51628945164,
			"-0.003": 18.9158449082,
			"-0.002": 25.1644880426,
			"-0.001": 32.3251524403,
			"0.0": 31.8661656545,
			"0.001": 22.4786158499,
			"0.002": 12.2400155862,
			"0.003": 8.40877640257,
			"0.004": 8.13839820499,
			"0.005": 8.4759898488,
			"0.006": 7.73485888579,
			"0.007": 2.06215905702,
			"0.008": 1.48711115898,
			"0.009": 1.28656824589,
			"0.01": 0.852827323916,
			"0.011": 0.96447035939,
			"0.012": 1.97568459612,
			"0.013": 1.67159744891,
			"0.014": 1.93228120506,
			"0.015": 0.101800902728,
			"0.016": 0.0,
			"0.017": 0.0,
			"0.018": 0.0,
			"0.019": 0.0,
			"0.02": 0.0,
			"0.021": 0.0,
			"0.022": 0.0,
			"0.023": 0.0,
			"0.024": 0.0,
			"0.025": 0.0
		}
	}
}
