{
	 "smiles": "CC1=CSC(NC(=O)C2CCNCC2)=N1", 
	 "Tm": 463.15, 
	 "num_atms": 30, 
	 "gaussian": { 
		 "optdone": 1, 
		 "sigma_profile": "yes", 
		 "theory": "DFT", 
		 "functional": "B3LYP", 
		 "basiset": "6-31G**", 
		 "properties": { 
			 "R2extent": 4278.5146, 
			 "electric_dipole_moment_norm": 3.82032526757, 
			 "electric_quadrupole_moment_norm": 9.72842983323, 
			 "total_energy": -1027.78319315, 
			 "HOMO_LUMO_gap": 0.18712, 
			 "cosmo_polarized_energy": -12.73, 
			 "cosmo_cavitation_energy": 33.46, 
			 "cosmo_dispersion_energy": -24.39, 
			 "cosmo_repulsion_energy": 1.89, 
			 "cosmo_total_nonelectrostatic_energy": 10.96, 
			 "SMD_solvation_energy": 2.93 
		},
		"coords": [
			{
				"x": -3.4563914996,
				"y": -1.2798368058,
				"z": 1.188483824,
				"element": "C" 
			},
			{
				"x": -2.3331676096,
				"y": -0.4990619464,
				"z": 1.8023554795,
				"element": "C" 
			},
			{
				"x": -2.24694461,
				"y": -0.1118097257,
				"z": 3.1060638603,
				"element": "C" 
			},
			{
				"x": -0.7717557371,
				"y": 0.7780354431,
				"z": 3.3848505548,
				"element": "S" 
			},
			{
				"x": -0.3781358281,
				"y": 0.5415578839,
				"z": 1.6736145398,
				"element": "C" 
			},
			{
				"x": 0.8064644676,
				"y": 1.0676877952,
				"z": 1.1908860231,
				"element": "N" 
			},
			{
				"x": 1.3391146268,
				"y": 1.1834461965,
				"z": -0.1071561663,
				"element": "C" 
			},
			{
				"x": 2.4088030334,
				"y": 1.7609730078,
				"z": -0.2133507582,
				"element": "O" 
			},
			{
				"x": 0.5908323471,
				"y": 0.5727279407,
				"z": -1.2765864634,
				"element": "C" 
			},
			{
				"x": 0.9025140749,
				"y": -0.9427963586,
				"z": -1.3734186542,
				"element": "C" 
			},
			{
				"x": 0.2298463563,
				"y": -1.5410047281,
				"z": -2.6128781703,
				"element": "C" 
			},
			{
				"x": 0.6728415555,
				"y": -0.8299811634,
				"z": -3.8115244287,
				"element": "N" 
			},
			{
				"x": 0.2935349682,
				"y": 0.5829683698,
				"z": -3.7801512139,
				"element": "C" 
			},
			{
				"x": 0.9689746848,
				"y": 1.2749013494,
				"z": -2.5921984474,
				"element": "C" 
			},
			{
				"x": -1.2655679358,
				"y": -0.1267548597,
				"z": 0.9997167525,
				"element": "N" 
			},
			{
				"x": -3.9192335459,
				"y": -0.7141429313,
				"z": 0.372572805,
				"element": "H" 
			},
			{
				"x": -4.2258103254,
				"y": -1.5136308756,
				"z": 1.9280206905,
				"element": "H" 
			},
			{
				"x": -3.0865044076,
				"y": -2.2187150889,
				"z": 0.7624422992,
				"element": "H" 
			},
			{
				"x": -2.9430853205,
				"y": -0.2932458801,
				"z": 3.911751718,
				"element": "H" 
			},
			{
				"x": 1.4174081478,
				"y": 1.5107531885,
				"z": 1.8665935568,
				"element": "H" 
			},
			{
				"x": -0.484538964,
				"y": 0.6697251965,
				"z": -1.0942208988,
				"element": "H" 
			},
			{
				"x": 0.5460772541,
				"y": -1.4567804391,
				"z": -0.4760063306,
				"element": "H" 
			},
			{
				"x": 1.9869835036,
				"y": -1.0831560164,
				"z": -1.4497080779,
				"element": "H" 
			},
			{
				"x": 0.505079666,
				"y": -2.5973870732,
				"z": -2.7097679249,
				"element": "H" 
			},
			{
				"x": -0.8686106665,
				"y": -1.4998195104,
				"z": -2.4703685947,
				"element": "H" 
			},
			{
				"x": 0.2863593486,
				"y": -1.2740509073,
				"z": -4.6395983279,
				"element": "H" 
			},
			{
				"x": 0.6163589808,
				"y": 1.0525000628,
				"z": -4.7159604914,
				"element": "H" 
			},
			{
				"x": -0.8035712964,
				"y": 0.7271788179,
				"z": -3.7048160691,
				"element": "H" 
			},
			{
				"x": 0.6735426863,
				"y": 2.3297014008,
				"z": -2.5570533522,
				"element": "H" 
			},
			{
				"x": 2.0547820449,
				"y": 1.2457176571,
				"z": -2.7184877334,
				"element": "H" 
			}
		],
		 "valence_orbital": [ 
			{
				"type": "occ",
				"energy": -0.28387,
				"method": "rhf"
			},
			{
				"type": "occ",
				"energy": -0.28162,
				"method": "rhf"
			},
			{
				"type": "occ",
				"energy": -0.25977,
				"method": "rhf"
			},
			{
				"type": "occ",
				"energy": -0.22154,
				"method": "rhf"
			},
			{
				"type": "occ",
				"energy": -0.21636,
				"method": "rhf"
			},
			{
				"type": "unocc",
				"energy": -0.02924,
				"method": "rhf"
			},
			{
				"type": "unocc",
				"energy": -0.0031,
				"method": "rhf"
			},
			{
				"type": "unocc",
				"energy": 0.02176,
				"method": "rhf"
			},
			{
				"type": "unocc",
				"energy": 0.05767,
				"method": "rhf"
			},
			{
				"type": "unocc",
				"energy": 0.08214,
				"method": "rhf"
			}
		],
		"cosmo_sigma_profile": { 
			"-0.025": 0.0,
			"-0.024": 0.0,
			"-0.023": 0.0,
			"-0.022": 0.0,
			"-0.021": 0.0,
			"-0.02": 0.0,
			"-0.019": 0.0,
			"-0.018": 0.0,
			"-0.017": 0.0,
			"-0.016": 0.371010412698,
			"-0.015": 1.20907470049,
			"-0.014": 0.845103836217,
			"-0.013": 1.0852510073,
			"-0.012": 1.01547407815,
			"-0.011": 0.930593997611,
			"-0.01": 1.63786075516,
			"-0.009": 2.66190568834,
			"-0.008": 4.74129322532,
			"-0.007": 4.07349523788,
			"-0.006": 4.30003224572,
			"-0.005": 7.96666397835,
			"-0.004": 13.5814242139,
			"-0.003": 21.8851168189,
			"-0.002": 29.7603910029,
			"-0.001": 41.6111055587,
			"0.0": 33.2503825537,
			"0.001": 18.0581711684,
			"0.002": 13.6735127742,
			"0.003": 14.5659034428,
			"0.004": 12.0004245349,
			"0.005": 5.68528785482,
			"0.006": 2.90505836936,
			"0.007": 4.24100013799,
			"0.008": 3.93186618068,
			"0.009": 1.83410921176,
			"0.01": 2.32809227112,
			"0.011": 3.04425970454,
			"0.012": 5.17449885339,
			"0.013": 3.53859283621,
			"0.014": 0.681310387975,
			"0.015": 0.417193872589,
			"0.016": 0.64997709684,
			"0.017": 0.434044404994,
			"0.018": 0.361862816714,
			"0.019": 0.0422091633514,
			"0.02": 0.0,
			"0.021": 0.0,
			"0.022": 0.0,
			"0.023": 0.0,
			"0.024": 0.0,
			"0.025": 0.0
		}
	}
}
