{
	 "smiles": "CC1=NN=C(O1)C1CC2=C(CN1)C=CC=C2", 
	 "Tm": 339.15, 
	 "num_atms": 29, 
	 "gaussian": { 
		 "optdone": 1, 
		 "sigma_profile": "yes", 
		 "theory": "DFT", 
		 "functional": "B3LYP", 
		 "basiset": "6-31G**", 
		 "properties": { 
			 "R2extent": 5485.0492, 
			 "electric_dipole_moment_norm": 2.64288215023, 
			 "electric_quadrupole_moment_norm": 18.4127816823, 
			 "total_energy": -704.566615203, 
			 "HOMO_LUMO_gap": 0.22307, 
			 "cosmo_polarized_energy": -13.46, 
			 "cosmo_cavitation_energy": 32.25, 
			 "cosmo_dispersion_energy": -23.79, 
			 "cosmo_repulsion_energy": 1.84, 
			 "cosmo_total_nonelectrostatic_energy": 10.31, 
			 "SMD_solvation_energy": 1.22 
		},
		"coords": [
			{
				"x": -2.9414667584,
				"y": -4.1033117828,
				"z": -1.4231060591,
				"element": "C" 
			},
			{
				"x": -1.6756552595,
				"y": -3.6508296688,
				"z": -0.7927389254,
				"element": "C" 
			},
			{
				"x": -0.8434013983,
				"y": -4.329644726,
				"z": -0.0678373869,
				"element": "N" 
			},
			{
				"x": 0.1860438255,
				"y": -3.4458955185,
				"z": 0.2784314257,
				"element": "N" 
			},
			{
				"x": -0.1077520497,
				"y": -2.3077156244,
				"z": -0.2632260931,
				"element": "C" 
			},
			{
				"x": -1.2783650854,
				"y": -2.356227725,
				"z": -0.9643888529,
				"element": "O" 
			},
			{
				"x": 0.6291811458,
				"y": -1.0074646827,
				"z": -0.1728476884,
				"element": "C" 
			},
			{
				"x": 2.1136060487,
				"y": -1.2215078511,
				"z": 0.168586312,
				"element": "C" 
			},
			{
				"x": 2.8062439889,
				"y": 0.0864593798,
				"z": 0.5072427555,
				"element": "C" 
			},
			{
				"x": 2.0662653399,
				"y": 1.2375018225,
				"z": 0.8252071877,
				"element": "C" 
			},
			{
				"x": 0.5443564741,
				"y": 1.2087397807,
				"z": 0.7888598628,
				"element": "C" 
			},
			{
				"x": -0.0533067797,
				"y": -0.1281124684,
				"z": 0.7910030552,
				"element": "N" 
			},
			{
				"x": 2.739772114,
				"y": 2.4230634645,
				"z": 1.146517267,
				"element": "C" 
			},
			{
				"x": 4.1312810832,
				"y": 2.4779230546,
				"z": 1.1603251222,
				"element": "C" 
			},
			{
				"x": 4.8693009999,
				"y": 1.3336436983,
				"z": 0.8460738108,
				"element": "C" 
			},
			{
				"x": 4.2066530394,
				"y": 0.1522777395,
				"z": 0.5224702698,
				"element": "C" 
			},
			{
				"x": -3.0979241898,
				"y": -5.1550749699,
				"z": -1.1813611313,
				"element": "H" 
			},
			{
				"x": -3.7912288901,
				"y": -3.5193495388,
				"z": -1.0555093831,
				"element": "H" 
			},
			{
				"x": -2.9007065615,
				"y": -3.9870252134,
				"z": -2.5108792734,
				"element": "H" 
			},
			{
				"x": 0.5476657875,
				"y": -0.5135840406,
				"z": -1.1507122676,
				"element": "H" 
			},
			{
				"x": 2.6263008271,
				"y": -1.7163281271,
				"z": -0.6647385821,
				"element": "H" 
			},
			{
				"x": 2.1790828334,
				"y": -1.9177963951,
				"z": 1.0144800328,
				"element": "H" 
			},
			{
				"x": 0.1930329048,
				"y": 1.7320501734,
				"z": -0.1129017463,
				"element": "H" 
			},
			{
				"x": 0.1349459714,
				"y": 1.765541291,
				"z": 1.6389957087,
				"element": "H" 
			},
			{
				"x": 0.0469172441,
				"y": -0.5403736254,
				"z": 1.7178635099,
				"element": "H" 
			},
			{
				"x": 2.161794164,
				"y": 3.3120144768,
				"z": 1.3916198627,
				"element": "H" 
			},
			{
				"x": 4.6378823809,
				"y": 3.4039508626,
				"z": 1.4170277891,
				"element": "H" 
			},
			{
				"x": 5.9551280555,
				"y": 1.3632085734,
				"z": 0.8522343183,
				"element": "H" 
			},
			{
				"x": 4.7796527444,
				"y": -0.7387323592,
				"z": 0.2755090993,
				"element": "H" 
			}
		],
		 "valence_orbital": [ 
			{
				"type": "occ",
				"energy": -0.27345,
				"method": "rhf"
			},
			{
				"type": "occ",
				"energy": -0.26827,
				"method": "rhf"
			},
			{
				"type": "occ",
				"energy": -0.24488,
				"method": "rhf"
			},
			{
				"type": "occ",
				"energy": -0.24052,
				"method": "rhf"
			},
			{
				"type": "occ",
				"energy": -0.233,
				"method": "rhf"
			},
			{
				"type": "unocc",
				"energy": -0.00993,
				"method": "rhf"
			},
			{
				"type": "unocc",
				"energy": -0.00429,
				"method": "rhf"
			},
			{
				"type": "unocc",
				"energy": 0.00304,
				"method": "rhf"
			},
			{
				"type": "unocc",
				"energy": 0.03563,
				"method": "rhf"
			},
			{
				"type": "unocc",
				"energy": 0.09215,
				"method": "rhf"
			}
		],
		"cosmo_sigma_profile": { 
			"-0.025": 0.0,
			"-0.024": 0.0,
			"-0.023": 0.0,
			"-0.022": 0.0,
			"-0.021": 0.0,
			"-0.02": 0.0,
			"-0.019": 0.0,
			"-0.018": 0.0,
			"-0.017": 0.0,
			"-0.016": 0.0,
			"-0.015": 0.0,
			"-0.014": 0.0,
			"-0.013": 0.0,
			"-0.012": 0.00921358496313,
			"-0.011": 0.877368010505,
			"-0.01": 1.37793405862,
			"-0.009": 1.20682918452,
			"-0.008": 1.95977894133,
			"-0.007": 7.23890622976,
			"-0.006": 16.438462583,
			"-0.005": 24.7245233181,
			"-0.004": 27.3975396289,
			"-0.003": 30.0772289383,
			"-0.002": 21.7979760941,
			"-0.001": 13.4370952961,
			"0.0": 11.7780690002,
			"0.001": 11.2794335964,
			"0.002": 9.56265437499,
			"0.003": 11.1731087351,
			"0.004": 10.2497535726,
			"0.005": 10.5843018756,
			"0.006": 12.1510030192,
			"0.007": 5.96887117188,
			"0.008": 2.76700093313,
			"0.009": 3.1472179581,
			"0.01": 3.52675297418,
			"0.011": 3.27883442209,
			"0.012": 4.07499719601,
			"0.013": 3.21237798389,
			"0.014": 3.30518306133,
			"0.015": 1.92776796375,
			"0.016": 0.728608436856,
			"0.017": 0.0607247361138,
			"0.018": 0.125988864504,
			"0.019": 0.0571074099728,
			"0.02": 0.0137685359926,
			"0.021": 0.0426474379552,
			"0.022": 0.0586674739484,
			"0.023": 0.0960566300964,
			"0.024": 0.0,
			"0.025": 0.0
		}
	}
}
