{
	 "smiles": "CC1=C(N)C=CN=C1", 
	 "Tm": 381.15, 
	 "num_atms": 16, 
	 "gaussian": { 
		 "optdone": 1, 
		 "sigma_profile": "yes", 
		 "theory": "DFT", 
		 "functional": "B3LYP", 
		 "basiset": "6-31G**", 
		 "properties": { 
			 "R2extent": 1562.9553, 
			 "electric_dipole_moment_norm": 4.0501874685, 
			 "electric_quadrupole_moment_norm": 11.4137587591, 
			 "total_energy": -342.969437973, 
			 "HOMO_LUMO_gap": 0.22449, 
			 "cosmo_polarized_energy": -11.59, 
			 "cosmo_cavitation_energy": 19.18, 
			 "cosmo_dispersion_energy": -14.51, 
			 "cosmo_repulsion_energy": 1.2, 
			 "cosmo_total_nonelectrostatic_energy": 5.87, 
			 "SMD_solvation_energy": 1.9 
		},
		"coords": [
			{
				"x": -1.9769474499,
				"y": 2.2990196123,
				"z": -1.9612643616,
				"element": "C" 
			},
			{
				"x": -0.8902020788,
				"y": 2.0951566658,
				"z": -0.9382606335,
				"element": "C" 
			},
			{
				"x": -0.1184741393,
				"y": 0.9112013656,
				"z": -0.9133471904,
				"element": "C" 
			},
			{
				"x": -0.3647587525,
				"y": -0.1187867761,
				"z": -1.8069527661,
				"element": "N" 
			},
			{
				"x": 0.8675292574,
				"y": 0.7922044628,
				"z": 0.0792808175,
				"element": "C" 
			},
			{
				"x": 1.0440890504,
				"y": 1.8303347831,
				"z": 0.9867153756,
				"element": "C" 
			},
			{
				"x": 0.3288174883,
				"y": 2.9626229047,
				"z": 0.9812966656,
				"element": "N" 
			},
			{
				"x": -0.6080073817,
				"y": 3.0603041166,
				"z": 0.0290707602,
				"element": "C" 
			},
			{
				"x": -1.5836823788,
				"y": 2.3057696632,
				"z": -2.9879490306,
				"element": "H" 
			},
			{
				"x": -2.7346014264,
				"y": 1.5067377108,
				"z": -1.9106211961,
				"element": "H" 
			},
			{
				"x": -2.4834636022,
				"y": 3.2550087128,
				"z": -1.8050742223,
				"element": "H" 
			},
			{
				"x": -0.8044427432,
				"y": 0.13015041,
				"z": -2.6804822435,
				"element": "H" 
			},
			{
				"x": 0.3689405472,
				"y": -0.8046848632,
				"z": -1.9102724141,
				"element": "H" 
			},
			{
				"x": 1.4833586122,
				"y": -0.1015447245,
				"z": 0.1391236008,
				"element": "H" 
			},
			{
				"x": 1.8071079493,
				"y": 1.7461367332,
				"z": 1.7593749949,
				"element": "H" 
			},
			{
				"x": -1.189762952,
				"y": 3.9828692229,
				"z": 0.0283618434,
				"element": "H" 
			}
		],
		 "valence_orbital": [ 
			{
				"type": "occ",
				"energy": -0.34682,
				"method": "rhf"
			},
			{
				"type": "occ",
				"energy": -0.33387,
				"method": "rhf"
			},
			{
				"type": "occ",
				"energy": -0.24488,
				"method": "rhf"
			},
			{
				"type": "occ",
				"energy": -0.23923,
				"method": "rhf"
			},
			{
				"type": "occ",
				"energy": -0.22018,
				"method": "rhf"
			},
			{
				"type": "unocc",
				"energy": 0.00431,
				"method": "rhf"
			},
			{
				"type": "unocc",
				"energy": 0.00552,
				"method": "rhf"
			},
			{
				"type": "unocc",
				"energy": 0.06807,
				"method": "rhf"
			},
			{
				"type": "unocc",
				"energy": 0.1039,
				"method": "rhf"
			},
			{
				"type": "unocc",
				"energy": 0.12352,
				"method": "rhf"
			}
		],
		"cosmo_sigma_profile": { 
			"-0.025": 0.0,
			"-0.024": 0.0,
			"-0.023": 0.0,
			"-0.022": 0.0,
			"-0.021": 0.0,
			"-0.02": 0.0,
			"-0.019": 0.0,
			"-0.018": 0.0,
			"-0.017": 0.0,
			"-0.016": 0.0,
			"-0.015": 0.0,
			"-0.014": 0.0622157559164,
			"-0.013": 1.32967906678,
			"-0.012": 2.47381224313,
			"-0.011": 2.518092246,
			"-0.01": 3.26402847743,
			"-0.009": 3.18922076602,
			"-0.008": 2.96537179289,
			"-0.007": 2.84052978944,
			"-0.006": 4.02075725464,
			"-0.005": 9.83262843252,
			"-0.004": 11.8180291873,
			"-0.003": 11.3239407247,
			"-0.002": 10.0375164176,
			"-0.001": 10.0058523926,
			"0.0": 10.8492858286,
			"0.001": 8.41150428722,
			"0.002": 7.12253019616,
			"0.003": 7.34553880704,
			"0.004": 12.2062533943,
			"0.005": 8.62845087638,
			"0.006": 3.13564563325,
			"0.007": 2.79961315441,
			"0.008": 2.07145324437,
			"0.009": 2.04726188521,
			"0.01": 2.23524222472,
			"0.011": 2.15993341264,
			"0.012": 1.19999067171,
			"0.013": 1.2549993026,
			"0.014": 0.848150724528,
			"0.015": 0.836836844941,
			"0.016": 1.11191742166,
			"0.017": 0.99012171088,
			"0.018": 0.673355687485,
			"0.019": 0.204990869966,
			"0.02": 0.0,
			"0.021": 0.0,
			"0.022": 0.0,
			"0.023": 0.0,
			"0.024": 0.0,
			"0.025": 0.0
		}
	}
}
