{
	 "smiles": "CCC1=NC2=C(N1)C=CC=C2", 
	 "Tm": 448.15, 
	 "num_atms": 21, 
	 "gaussian": { 
		 "optdone": 1, 
		 "sigma_profile": "yes", 
		 "theory": "DFT", 
		 "functional": "B3LYP", 
		 "basiset": "6-31G**", 
		 "properties": { 
			 "R2extent": 2052.1019, 
			 "electric_dipole_moment_norm": 3.46268338287, 
			 "electric_quadrupole_moment_norm": 6.96924042274, 
			 "total_energy": -458.510542154, 
			 "HOMO_LUMO_gap": 0.20705, 
			 "cosmo_polarized_energy": -12.48, 
			 "cosmo_cavitation_energy": 24.45, 
			 "cosmo_dispersion_energy": -18.25, 
			 "cosmo_repulsion_energy": 1.47, 
			 "cosmo_total_nonelectrostatic_energy": 7.68, 
			 "SMD_solvation_energy": 1.89 
		},
		"coords": [
			{
				"x": -2.4102451163,
				"y": -1.1210543279,
				"z": 2.7414378309,
				"element": "C" 
			},
			{
				"x": -1.7127836512,
				"y": -1.6655691817,
				"z": 1.4810212523,
				"element": "C" 
			},
			{
				"x": -1.0351473034,
				"y": -0.6036796734,
				"z": 0.6702854806,
				"element": "C" 
			},
			{
				"x": -1.4572955661,
				"y": -0.1441102977,
				"z": -0.483836381,
				"element": "N" 
			},
			{
				"x": -0.5423955374,
				"y": 0.8367834679,
				"z": -0.8458751441,
				"element": "C" 
			},
			{
				"x": 0.4653515545,
				"y": 0.9607113809,
				"z": 0.1417065342,
				"element": "C" 
			},
			{
				"x": 0.1202940506,
				"y": 0.0244500093,
				"z": 1.1019810017,
				"element": "N" 
			},
			{
				"x": 1.5173711729,
				"y": 1.8713137749,
				"z": 0.0328498205,
				"element": "C" 
			},
			{
				"x": 1.5376377484,
				"y": 2.6717313949,
				"z": -1.1078497946,
				"element": "C" 
			},
			{
				"x": 0.54368088,
				"y": 2.5636112292,
				"z": -2.1006782706,
				"element": "C" 
			},
			{
				"x": -0.5012395385,
				"y": 1.6514524938,
				"z": -1.9839976716,
				"element": "C" 
			},
			{
				"x": -2.9041581826,
				"y": -1.9306886827,
				"z": 3.2872885771,
				"element": "H" 
			},
			{
				"x": -3.1662692386,
				"y": -0.3774461861,
				"z": 2.4735970801,
				"element": "H" 
			},
			{
				"x": -1.6987082594,
				"y": -0.644046906,
				"z": 3.4240687554,
				"element": "H" 
			},
			{
				"x": -2.4440346006,
				"y": -2.1432643299,
				"z": 0.8245039994,
				"element": "H" 
			},
			{
				"x": -0.9827219076,
				"y": -2.4347657932,
				"z": 1.766493856,
				"element": "H" 
			},
			{
				"x": 0.622780754,
				"y": -0.1761882305,
				"z": 1.9523674611,
				"element": "H" 
			},
			{
				"x": 2.2855907658,
				"y": 1.9575102882,
				"z": 0.7958198991,
				"element": "H" 
			},
			{
				"x": 2.3380535956,
				"y": 3.3949726407,
				"z": -1.2336296741,
				"element": "H" 
			},
			{
				"x": 0.5979544498,
				"y": 3.2072829987,
				"z": -2.9737580786,
				"element": "H" 
			},
			{
				"x": -1.2693160698,
				"y": 1.5633939305,
				"z": -2.7456965338,
				"element": "H" 
			}
		],
		 "valence_orbital": [ 
			{
				"type": "occ",
				"energy": -0.32834,
				"method": "rhf"
			},
			{
				"type": "occ",
				"energy": -0.2975,
				"method": "rhf"
			},
			{
				"type": "occ",
				"energy": -0.26313,
				"method": "rhf"
			},
			{
				"type": "occ",
				"energy": -0.22144,
				"method": "rhf"
			},
			{
				"type": "occ",
				"energy": -0.21614,
				"method": "rhf"
			},
			{
				"type": "unocc",
				"energy": -0.00909,
				"method": "rhf"
			},
			{
				"type": "unocc",
				"energy": 0.02747,
				"method": "rhf"
			},
			{
				"type": "unocc",
				"energy": 0.05747,
				"method": "rhf"
			},
			{
				"type": "unocc",
				"energy": 0.069,
				"method": "rhf"
			},
			{
				"type": "unocc",
				"energy": 0.10512,
				"method": "rhf"
			}
		],
		"cosmo_sigma_profile": { 
			"-0.025": 0.0,
			"-0.024": 0.0,
			"-0.023": 0.0,
			"-0.022": 0.0,
			"-0.021": 0.0,
			"-0.02": 0.0,
			"-0.019": 0.0,
			"-0.018": 0.0,
			"-0.017": 0.0,
			"-0.016": 0.873462692705,
			"-0.015": 1.31992256752,
			"-0.014": 1.24001673536,
			"-0.013": 1.39669484298,
			"-0.012": 0.947111445433,
			"-0.011": 1.43895196723,
			"-0.01": 1.61247567769,
			"-0.009": 1.4946360752,
			"-0.008": 1.26495724189,
			"-0.007": 2.53481112047,
			"-0.006": 5.5696773792,
			"-0.005": 10.4256091239,
			"-0.004": 14.9718440955,
			"-0.003": 17.4642868036,
			"-0.002": 17.7339255428,
			"-0.001": 18.2354823109,
			"0.0": 15.2345207629,
			"0.001": 12.1837815816,
			"0.002": 10.7075153341,
			"0.003": 9.05362876549,
			"0.004": 9.81258386613,
			"0.005": 10.8657500479,
			"0.006": 10.7927959667,
			"0.007": 4.94415886271,
			"0.008": 2.09997268786,
			"0.009": 0.908183615084,
			"0.01": 0.940765947033,
			"0.011": 1.40876606451,
			"0.012": 0.964464353615,
			"0.013": 0.849332742141,
			"0.014": 1.25547149522,
			"0.015": 0.986720759762,
			"0.016": 0.750938689151,
			"0.017": 1.15420920646,
			"0.018": 0.579402843303,
			"0.019": 0.147621679953,
			"0.02": 0.0,
			"0.021": 0.0,
			"0.022": 0.0,
			"0.023": 0.0,
			"0.024": 0.0,
			"0.025": 0.0
		}
	}
}
