{
	 "smiles": "COC1=CC(C=CC(=O)C2=CC3=C(C=CC=C3)C=C2)=CC(OC)=C1OC", 
	 "Tm": 392.5, 
	 "num_atms": 46, 
	 "gaussian": { 
		 "optdone": 1, 
		 "sigma_profile": "yes", 
		 "theory": "DFT", 
		 "functional": "B3LYP", 
		 "basiset": "6-31G**", 
		 "properties": { 
			 "R2extent": 16078.5121, 
			 "electric_dipole_moment_norm": 2.63047777409, 
			 "electric_quadrupole_moment_norm": 23.6209596048, 
			 "total_energy": -1151.24023334, 
			 "HOMO_LUMO_gap": 0.14538, 
			 "cosmo_polarized_energy": -16.33, 
			 "cosmo_cavitation_energy": 50.61, 
			 "cosmo_dispersion_energy": -35.27, 
			 "cosmo_repulsion_energy": 2.66, 
			 "cosmo_total_nonelectrostatic_energy": 18.0, 
			 "SMD_solvation_energy": 11.07 
		},
		"coords": [
			{
				"x": -4.3852961743,
				"y": -3.7155429721,
				"z": -2.6053670352,
				"element": "C" 
			},
			{
				"x": -3.1477990252,
				"y": -4.3553026204,
				"z": -2.3281878658,
				"element": "O" 
			},
			{
				"x": -2.1575503805,
				"y": -3.6186783487,
				"z": -1.7482638758,
				"element": "C" 
			},
			{
				"x": -2.2615616698,
				"y": -2.2697199577,
				"z": -1.4202166137,
				"element": "C" 
			},
			{
				"x": -1.1761597713,
				"y": -1.5940642673,
				"z": -0.8250050319,
				"element": "C" 
			},
			{
				"x": -1.2314066221,
				"y": -0.1772078016,
				"z": -0.4585870459,
				"element": "C" 
			},
			{
				"x": -2.2588548125,
				"y": 0.6770113805,
				"z": -0.6485040415,
				"element": "C" 
			},
			{
				"x": -2.2383767398,
				"y": 2.1334285434,
				"z": -0.3797676703,
				"element": "C" 
			},
			{
				"x": -2.9978010939,
				"y": 2.8620138037,
				"z": -1.0160110472,
				"element": "O" 
			},
			{
				"x": -1.2973627442,
				"y": 2.7290196947,
				"z": 0.629186582,
				"element": "C" 
			},
			{
				"x": -0.8729014662,
				"y": 4.0301556049,
				"z": 0.4222510855,
				"element": "C" 
			},
			{
				"x": -0.0058217112,
				"y": 4.6795940723,
				"z": 1.3337781017,
				"element": "C" 
			},
			{
				"x": 0.4145897295,
				"y": 3.9780018032,
				"z": 2.5119867352,
				"element": "C" 
			},
			{
				"x": 1.2801777903,
				"y": 4.6329259376,
				"z": 3.4286110282,
				"element": "C" 
			},
			{
				"x": 1.7108322878,
				"y": 5.9192260867,
				"z": 3.1928537287,
				"element": "C" 
			},
			{
				"x": 1.2952975419,
				"y": 6.6139348734,
				"z": 2.0287662302,
				"element": "C" 
			},
			{
				"x": 0.4569640355,
				"y": 6.0080429187,
				"z": 1.1214850991,
				"element": "C" 
			},
			{
				"x": -0.0593013425,
				"y": 2.6552203654,
				"z": 2.7215787271,
				"element": "C" 
			},
			{
				"x": -0.8855809155,
				"y": 2.0434038476,
				"z": 1.8074251371,
				"element": "C" 
			},
			{
				"x": 0.001472998,
				"y": -2.304213984,
				"z": -0.5583676261,
				"element": "C" 
			},
			{
				"x": 0.1161272829,
				"y": -3.6565175718,
				"z": -0.8906490364,
				"element": "C" 
			},
			{
				"x": 1.3167962438,
				"y": -4.2819782475,
				"z": -0.6701384162,
				"element": "O" 
			},
			{
				"x": 1.3053808577,
				"y": -5.3442410927,
				"z": 0.2901688601,
				"element": "C" 
			},
			{
				"x": -0.9578433804,
				"y": -4.3262195172,
				"z": -1.4916413933,
				"element": "C" 
			},
			{
				"x": -0.8538294389,
				"y": -5.6609969558,
				"z": -1.7846352275,
				"element": "O" 
			},
			{
				"x": -0.6896252175,
				"y": -5.9680780257,
				"z": -3.1747635515,
				"element": "C" 
			},
			{
				"x": -4.8571691439,
				"y": -3.3387974985,
				"z": -1.6893620019,
				"element": "H" 
			},
			{
				"x": -4.2633459726,
				"y": -2.8868956758,
				"z": -3.3143829954,
				"element": "H" 
			},
			{
				"x": -5.0239523838,
				"y": -4.479663319,
				"z": -3.0505245598,
				"element": "H" 
			},
			{
				"x": -3.1792269637,
				"y": -1.7333923433,
				"z": -1.6224424144,
				"element": "H" 
			},
			{
				"x": -0.3209551052,
				"y": 0.2061439688,
				"z": -0.0032572443,
				"element": "H" 
			},
			{
				"x": -3.1655899993,
				"y": 0.3618593914,
				"z": -1.1587997242,
				"element": "H" 
			},
			{
				"x": -1.2191991431,
				"y": 4.5556396287,
				"z": -0.4627619331,
				"element": "H" 
			},
			{
				"x": 1.5975632973,
				"y": 4.1005166122,
				"z": 4.3215705628,
				"element": "H" 
			},
			{
				"x": 2.3729678465,
				"y": 6.4091786449,
				"z": 3.9009751401,
				"element": "H" 
			},
			{
				"x": 1.6425642952,
				"y": 7.6286031854,
				"z": 1.8572942349,
				"element": "H" 
			},
			{
				"x": 0.1344874928,
				"y": 6.5361797198,
				"z": 0.2280880488,
				"element": "H" 
			},
			{
				"x": 0.2367866226,
				"y": 2.1304717166,
				"z": 3.626368559,
				"element": "H" 
			},
			{
				"x": -1.2549826751,
				"y": 1.0418933533,
				"z": 1.9991161659,
				"element": "H" 
			},
			{
				"x": 0.8567962205,
				"y": -1.814777009,
				"z": -0.1036735605,
				"element": "H" 
			},
			{
				"x": 0.9919230455,
				"y": -4.9741418002,
				"z": 1.2749026737,
				"element": "H" 
			},
			{
				"x": 2.3345783171,
				"y": -5.7034216731,
				"z": 0.3538262955,
				"element": "H" 
			},
			{
				"x": 0.6471766734,
				"y": -6.1587131386,
				"z": -0.0229306846,
				"element": "H" 
			},
			{
				"x": -1.557569167,
				"y": -5.6406600895,
				"z": -3.7550245809,
				"element": "H" 
			},
			{
				"x": 0.2208694213,
				"y": -5.5028855894,
				"z": -3.5704827684,
				"element": "H" 
			},
			{
				"x": -0.5986889403,
				"y": -7.0542556538,
				"z": -3.2368850499,
				"element": "H" 
			}
		],
		 "valence_orbital": [ 
			{
				"type": "occ",
				"energy": -0.24823,
				"method": "rhf"
			},
			{
				"type": "occ",
				"energy": -0.2405,
				"method": "rhf"
			},
			{
				"type": "occ",
				"energy": -0.2316,
				"method": "rhf"
			},
			{
				"type": "occ",
				"energy": -0.21781,
				"method": "rhf"
			},
			{
				"type": "occ",
				"energy": -0.21677,
				"method": "rhf"
			},
			{
				"type": "unocc",
				"energy": -0.07139,
				"method": "rhf"
			},
			{
				"type": "unocc",
				"energy": -0.04134,
				"method": "rhf"
			},
			{
				"type": "unocc",
				"energy": -0.02129,
				"method": "rhf"
			},
			{
				"type": "unocc",
				"energy": 0.006,
				"method": "rhf"
			},
			{
				"type": "unocc",
				"energy": 0.02023,
				"method": "rhf"
			}
		],
		"cosmo_sigma_profile": { 
			"-0.025": 0.0,
			"-0.024": 0.0,
			"-0.023": 0.0,
			"-0.022": 0.0,
			"-0.021": 0.0,
			"-0.02": 0.0,
			"-0.019": 0.0,
			"-0.018": 0.0,
			"-0.017": 0.0,
			"-0.016": 0.0,
			"-0.015": 0.0,
			"-0.014": 0.0,
			"-0.013": 0.0,
			"-0.012": 0.0,
			"-0.011": 0.0,
			"-0.01": 0.0,
			"-0.009": 0.386008783434,
			"-0.008": 2.03622074772,
			"-0.007": 6.48645513027,
			"-0.006": 25.2801347956,
			"-0.005": 33.114332994,
			"-0.004": 38.3143070765,
			"-0.003": 40.5613046721,
			"-0.002": 31.5610123312,
			"-0.001": 27.0243950519,
			"0.0": 23.6395414239,
			"0.001": 24.9760423468,
			"0.002": 30.5166656629,
			"0.003": 43.1623385429,
			"0.004": 27.8993593723,
			"0.005": 10.8285666569,
			"0.006": 5.63718870359,
			"0.007": 4.4845488348,
			"0.008": 4.31281495318,
			"0.009": 3.98626834419,
			"0.01": 5.49783534525,
			"0.011": 5.0377808414,
			"0.012": 4.96089167823,
			"0.013": 3.94295552918,
			"0.014": 0.62136933069,
			"0.015": 0.0,
			"0.016": 0.0,
			"0.017": 0.0,
			"0.018": 0.0,
			"0.019": 0.0,
			"0.02": 0.0,
			"0.021": 0.0,
			"0.022": 0.0,
			"0.023": 0.0,
			"0.024": 0.0,
			"0.025": 0.0
		}
	}
}
