{
	 "smiles": "CC(=O)NC1=CC=C(Br)C(=C1)C(F)(F)F", 
	 "Tm": 391.15, 
	 "num_atms": 22, 
	 "gaussian": { 
		 "optdone": 1, 
		 "sigma_profile": "yes", 
		 "theory": "DFT", 
		 "functional": "B3LYP", 
		 "basiset": "6-31G**", 
		 "properties": { 
			 "R2extent": 6319.0243, 
			 "electric_dipole_moment_norm": 2.65893755662, 
			 "electric_quadrupole_moment_norm": 20.7745031522, 
			 "total_energy": -3348.09299032, 
			 "HOMO_LUMO_gap": 0.18733, 
			 "cosmo_polarized_energy": -12.54, 
			 "cosmo_cavitation_energy": 29.9, 
			 "cosmo_dispersion_energy": -21.83, 
			 "cosmo_repulsion_energy": 1.64, 
			 "cosmo_total_nonelectrostatic_energy": 9.71, 
			 "SMD_solvation_energy": 6.03 
		},
		"coords": [
			{
				"x": 1.9266962629,
				"y": 3.2763909774,
				"z": 1.0288718664,
				"element": "C" 
			},
			{
				"x": 0.5936481903,
				"y": 3.0798815892,
				"z": 0.3408131966,
				"element": "C" 
			},
			{
				"x": -0.1503460263,
				"y": 4.0166879337,
				"z": 0.095554044,
				"element": "O" 
			},
			{
				"x": 0.1815615789,
				"y": 1.8031065698,
				"z": -0.0334789385,
				"element": "N" 
			},
			{
				"x": 0.7076930815,
				"y": 0.5066544082,
				"z": 0.0559822865,
				"element": "C" 
			},
			{
				"x": 1.9416937807,
				"y": 0.1561043969,
				"z": 0.6239124617,
				"element": "C" 
			},
			{
				"x": 2.3484804234,
				"y": -1.176278156,
				"z": 0.649434206,
				"element": "C" 
			},
			{
				"x": 1.5527843715,
				"y": -2.1869320384,
				"z": 0.1187794686,
				"element": "C" 
			},
			{
				"x": 2.2035802595,
				"y": -3.9759946275,
				"z": 0.205484409,
				"element": "Br" 
			},
			{
				"x": 0.3153360489,
				"y": -1.8576493839,
				"z": -0.4539516461,
				"element": "C" 
			},
			{
				"x": -0.086171954,
				"y": -0.5249833367,
				"z": -0.4766908088,
				"element": "C" 
			},
			{
				"x": -0.6051053156,
				"y": -2.9004593141,
				"z": -1.0514248279,
				"element": "C" 
			},
			{
				"x": -0.0183999692,
				"y": -3.5591356708,
				"z": -2.0698456603,
				"element": "F" 
			},
			{
				"x": -0.982755029,
				"y": -3.815297023,
				"z": -0.1372518859,
				"element": "F" 
			},
			{
				"x": -1.7347249122,
				"y": -2.3399774989,
				"z": -1.5407837542,
				"element": "F" 
			},
			{
				"x": 1.9722530632,
				"y": 2.7327425818,
				"z": 1.9776919851,
				"element": "H" 
			},
			{
				"x": 2.0346166279,
				"y": 4.3429561791,
				"z": 1.2232611476,
				"element": "H" 
			},
			{
				"x": 2.7563838166,
				"y": 2.9411096789,
				"z": 0.3987249453,
				"element": "H" 
			},
			{
				"x": -0.7275516567,
				"y": 1.8631958066,
				"z": -0.4774279638,
				"element": "H" 
			},
			{
				"x": 2.6002834159,
				"y": 0.8972538065,
				"z": 1.0504660253,
				"element": "H" 
			},
			{
				"x": 3.304500923,
				"y": -1.4318090868,
				"z": 1.091699224,
				"element": "H" 
			},
			{
				"x": -1.0446569813,
				"y": -0.2833677919,
				"z": -0.9221197807,
				"element": "H" 
			}
		],
		 "valence_orbital": [ 
			{
				"type": "occ",
				"energy": -0.29813,
				"method": "rhf"
			},
			{
				"type": "occ",
				"energy": -0.296,
				"method": "rhf"
			},
			{
				"type": "occ",
				"energy": -0.28898,
				"method": "rhf"
			},
			{
				"type": "occ",
				"energy": -0.27143,
				"method": "rhf"
			},
			{
				"type": "occ",
				"energy": -0.23434,
				"method": "rhf"
			},
			{
				"type": "unocc",
				"energy": -0.04701,
				"method": "rhf"
			},
			{
				"type": "unocc",
				"energy": -0.03738,
				"method": "rhf"
			},
			{
				"type": "unocc",
				"energy": -0.00545,
				"method": "rhf"
			},
			{
				"type": "unocc",
				"energy": 0.01715,
				"method": "rhf"
			},
			{
				"type": "unocc",
				"energy": 0.07444,
				"method": "rhf"
			}
		],
		"cosmo_sigma_profile": { 
			"-0.025": 0.0,
			"-0.024": 0.0,
			"-0.023": 0.0,
			"-0.022": 0.0,
			"-0.021": 0.0,
			"-0.02": 0.0,
			"-0.019": 0.0,
			"-0.018": 0.0,
			"-0.017": 0.0,
			"-0.016": 0.0151087486014,
			"-0.015": 0.799544204268,
			"-0.014": 1.61074425148,
			"-0.013": 0.969122093738,
			"-0.012": 0.931533771705,
			"-0.011": 1.08665370596,
			"-0.01": 1.60059423488,
			"-0.009": 1.21215517238,
			"-0.008": 4.55671057064,
			"-0.007": 11.8492786209,
			"-0.006": 9.66126458818,
			"-0.005": 10.0836468891,
			"-0.004": 10.5179946756,
			"-0.003": 13.7891416254,
			"-0.002": 15.967529378,
			"-0.001": 13.8785321516,
			"0.0": 20.3828217055,
			"0.001": 27.8585247668,
			"0.002": 30.1330043948,
			"0.003": 29.0941069952,
			"0.004": 15.7208410619,
			"0.005": 2.66994703874,
			"0.006": 1.59652853648,
			"0.007": 1.19271727062,
			"0.008": 0.963434243321,
			"0.009": 1.23405938295,
			"0.01": 1.37745963996,
			"0.011": 2.21715236446,
			"0.012": 3.7038742288,
			"0.013": 4.91895420359,
			"0.014": 1.1612488796,
			"0.015": 0.00767657977549,
			"0.016": 0.0,
			"0.017": 0.0,
			"0.018": 0.0,
			"0.019": 0.0,
			"0.02": 0.0,
			"0.021": 0.0,
			"0.022": 0.0,
			"0.023": 0.0,
			"0.024": 0.0,
			"0.025": 0.0
		}
	}
}
