{
	 "smiles": "CC(C)CC1(C)NC(=O)NC1=O", 
	 "Tm": 419.15, 
	 "num_atms": 26, 
	 "gaussian": { 
		 "optdone": 1, 
		 "sigma_profile": "yes", 
		 "theory": "DFT", 
		 "functional": "B3LYP", 
		 "basiset": "6-31G**", 
		 "properties": { 
			 "R2extent": 2707.0739, 
			 "electric_dipole_moment_norm": 2.94956798532, 
			 "electric_quadrupole_moment_norm": 11.0816480133, 
			 "total_energy": -573.292972718, 
			 "HOMO_LUMO_gap": 0.25129, 
			 "cosmo_polarized_energy": -14.89, 
			 "cosmo_cavitation_energy": 27.73, 
			 "cosmo_dispersion_energy": -19.61, 
			 "cosmo_repulsion_energy": 1.57, 
			 "cosmo_total_nonelectrostatic_energy": 9.69, 
			 "SMD_solvation_energy": 6.05 
		},
		"coords": [
			{
				"x": 0.3729300715,
				"y": -1.0249622545,
				"z": -2.553265253,
				"element": "C" 
			},
			{
				"x": 0.2672966679,
				"y": -1.5472612769,
				"z": -1.1112351711,
				"element": "C" 
			},
			{
				"x": 1.6551488466,
				"y": -1.6635285382,
				"z": -0.4567459975,
				"element": "C" 
			},
			{
				"x": -0.7881114744,
				"y": -0.8148580895,
				"z": -0.2424167313,
				"element": "C" 
			},
			{
				"x": -0.8273925049,
				"y": 0.7342734816,
				"z": -0.1711979337,
				"element": "C" 
			},
			{
				"x": 0.4948586345,
				"y": 1.4005823852,
				"z": 0.2500864408,
				"element": "C" 
			},
			{
				"x": -1.3879411502,
				"y": 1.3539155907,
				"z": -1.3758201994,
				"element": "N" 
			},
			{
				"x": -2.5276856295,
				"y": 2.081193911,
				"z": -1.1582275886,
				"element": "C" 
			},
			{
				"x": -3.1677775579,
				"y": 2.7491868133,
				"z": -1.9439475795,
				"element": "O" 
			},
			{
				"x": -2.83279877,
				"y": 1.8922723172,
				"z": 0.2086905451,
				"element": "N" 
			},
			{
				"x": -1.9090759747,
				"y": 1.1177309487,
				"z": 0.8720467774,
				"element": "C" 
			},
			{
				"x": -1.9222952118,
				"y": 0.7962918681,
				"z": 2.0423472317,
				"element": "O" 
			},
			{
				"x": 0.9949835165,
				"y": -1.6931281786,
				"z": -3.1579269755,
				"element": "H" 
			},
			{
				"x": 0.8441853142,
				"y": -0.0349321416,
				"z": -2.5955617767,
				"element": "H" 
			},
			{
				"x": -0.6087211924,
				"y": -0.9585027515,
				"z": -3.0337144217,
				"element": "H" 
			},
			{
				"x": -0.1190107537,
				"y": -2.5740972883,
				"z": -1.1805759763,
				"element": "H" 
			},
			{
				"x": 1.5797562212,
				"y": -2.0446790922,
				"z": 0.567230162,
				"element": "H" 
			},
			{
				"x": 2.2837641691,
				"y": -2.3586771196,
				"z": -1.024004498,
				"element": "H" 
			},
			{
				"x": 2.1848723935,
				"y": -0.7075609845,
				"z": -0.4179949866,
				"element": "H" 
			},
			{
				"x": -1.7822101186,
				"y": -1.1236839511,
				"z": -0.5887363076,
				"element": "H" 
			},
			{
				"x": -0.6982335356,
				"y": -1.1696719463,
				"z": 0.7908654885,
				"element": "H" 
			},
			{
				"x": 1.2647548136,
				"y": 1.266699642,
				"z": -0.5130948277,
				"element": "H" 
			},
			{
				"x": 0.3475211616,
				"y": 2.4750383438,
				"z": 0.3955705731,
				"element": "H" 
			},
			{
				"x": 0.8507131922,
				"y": 0.970080773,
				"z": 1.1891935328,
				"element": "H" 
			},
			{
				"x": -0.9051960319,
				"y": 1.4303168934,
				"z": -2.2563353885,
				"element": "H" 
			},
			{
				"x": -3.6495350969,
				"y": 2.3012606446,
				"z": 0.6392708612,
				"element": "H" 
			}
		],
		 "valence_orbital": [ 
			{
				"type": "occ",
				"energy": -0.32778,
				"method": "rhf"
			},
			{
				"type": "occ",
				"energy": -0.28744,
				"method": "rhf"
			},
			{
				"type": "occ",
				"energy": -0.28682,
				"method": "rhf"
			},
			{
				"type": "occ",
				"energy": -0.26522,
				"method": "rhf"
			},
			{
				"type": "occ",
				"energy": -0.25818,
				"method": "rhf"
			},
			{
				"type": "unocc",
				"energy": -0.00689,
				"method": "rhf"
			},
			{
				"type": "unocc",
				"energy": 0.05489,
				"method": "rhf"
			},
			{
				"type": "unocc",
				"energy": 0.06304,
				"method": "rhf"
			},
			{
				"type": "unocc",
				"energy": 0.08808,
				"method": "rhf"
			},
			{
				"type": "unocc",
				"energy": 0.09226,
				"method": "rhf"
			}
		],
		"cosmo_sigma_profile": { 
			"-0.025": 0.0,
			"-0.024": 0.0,
			"-0.023": 0.0,
			"-0.022": 0.0,
			"-0.021": 0.0,
			"-0.02": 0.0,
			"-0.019": 0.0,
			"-0.018": 0.0,
			"-0.017": 0.271442177906,
			"-0.016": 1.23690502724,
			"-0.015": 1.30612354587,
			"-0.014": 1.15335484923,
			"-0.013": 1.54420508705,
			"-0.012": 1.47363525067,
			"-0.011": 2.10886253325,
			"-0.01": 2.20852240186,
			"-0.009": 2.15750164334,
			"-0.008": 2.09177697124,
			"-0.007": 2.33751525123,
			"-0.006": 3.80748620464,
			"-0.005": 9.30107235163,
			"-0.004": 10.8297140177,
			"-0.003": 20.8301667394,
			"-0.002": 31.8635294883,
			"-0.001": 30.0910474477,
			"0.0": 20.257058099,
			"0.001": 16.9749203956,
			"0.002": 7.95902042815,
			"0.003": 3.77933943802,
			"0.004": 2.60525939231,
			"0.005": 2.43711015039,
			"0.006": 3.08563087526,
			"0.007": 2.43111622351,
			"0.008": 2.73400239589,
			"0.009": 2.01620794397,
			"0.01": 3.33601759602,
			"0.011": 4.05592907633,
			"0.012": 8.94069470664,
			"0.013": 8.74901793507,
			"0.014": 1.57278440348,
			"0.015": 0.0,
			"0.016": 0.0,
			"0.017": 0.0,
			"0.018": 0.0,
			"0.019": 0.0,
			"0.02": 0.0,
			"0.021": 0.0,
			"0.022": 0.0,
			"0.023": 0.0,
			"0.024": 0.0,
			"0.025": 0.0
		}
	}
}
