{
	 "smiles": "CCSC(SCC)=C1CCCC(=C(SCC)SCC)C1=C(C#N)C#N", 
	 "Tm": 374.15, 
	 "num_atms": 51, 
	 "gaussian": { 
		 "optdone": 1, 
		 "sigma_profile": "yes", 
		 "theory": "DFT", 
		 "functional": "B3LYP", 
		 "basiset": "6-31G**", 
		 "properties": { 
			 "R2extent": 11740.9725, 
			 "electric_dipole_moment_norm": 9.12270264012, 
			 "electric_quadrupole_moment_norm": 24.9147500919, 
			 "total_energy": -2441.86174762, 
			 "HOMO_LUMO_gap": 0.13072, 
			 "cosmo_polarized_energy": -19.54, 
			 "cosmo_cavitation_energy": 58.39, 
			 "cosmo_dispersion_energy": -36.46, 
			 "cosmo_repulsion_energy": 2.76, 
			 "cosmo_total_nonelectrostatic_energy": 24.69, 
			 "SMD_solvation_energy": 10.93 
		},
		"coords": [
			{
				"x": 3.477657674,
				"y": 2.5049930408,
				"z": -3.8686856609,
				"element": "C" 
			},
			{
				"x": 2.3281695036,
				"y": 1.7976766287,
				"z": -3.1570958165,
				"element": "C" 
			},
			{
				"x": 2.9124170778,
				"y": 0.5772974619,
				"z": -1.8933371946,
				"element": "S" 
			},
			{
				"x": 2.3546984631,
				"y": 1.2632381756,
				"z": -0.3516398788,
				"element": "C" 
			},
			{
				"x": 2.7935951711,
				"y": 2.9873938274,
				"z": -0.1188684408,
				"element": "S" 
			},
			{
				"x": 1.2077019933,
				"y": 3.8509392135,
				"z": 0.2920433907,
				"element": "C" 
			},
			{
				"x": 1.2951968111,
				"y": 5.3053949653,
				"z": -0.1699297806,
				"element": "C" 
			},
			{
				"x": 1.741777279,
				"y": 0.5264921914,
				"z": 0.6242769838,
				"element": "C" 
			},
			{
				"x": 1.4071147091,
				"y": 1.0995796679,
				"z": 2.0022219109,
				"element": "C" 
			},
			{
				"x": 1.0872026101,
				"y": -0.021119979,
				"z": 3.0009454211,
				"element": "C" 
			},
			{
				"x": -0.1435320254,
				"y": -0.8296213405,
				"z": 2.5385718813,
				"element": "C" 
			},
			{
				"x": -0.1369316112,
				"y": -1.0149627314,
				"z": 1.0245754601,
				"element": "C" 
			},
			{
				"x": -1.2448806616,
				"y": -1.1771317905,
				"z": 0.260333162,
				"element": "C" 
			},
			{
				"x": -2.8174456451,
				"y": -1.5147002151,
				"z": 1.0386554833,
				"element": "S" 
			},
			{
				"x": -3.8861096219,
				"y": -0.1396317577,
				"z": 0.4186922202,
				"element": "C" 
			},
			{
				"x": -5.3231404384,
				"y": -0.3689286916,
				"z": 0.8833361401,
				"element": "C" 
			},
			{
				"x": -1.1592174109,
				"y": -0.9495975494,
				"z": -1.5130433235,
				"element": "S" 
			},
			{
				"x": -2.2341765027,
				"y": -2.2750423163,
				"z": -2.2143157908,
				"element": "C" 
			},
			{
				"x": -1.5952218292,
				"y": -3.6577974066,
				"z": -2.2877787897,
				"element": "C" 
			},
			{
				"x": 1.2346565815,
				"y": -0.8469158582,
				"z": 0.4548786933,
				"element": "C" 
			},
			{
				"x": 1.9732369656,
				"y": -1.9285026155,
				"z": 0.0493283372,
				"element": "C" 
			},
			{
				"x": 3.3858304431,
				"y": -1.8807593022,
				"z": -0.1816978495,
				"element": "C" 
			},
			{
				"x": 4.5427036034,
				"y": -1.8980953119,
				"z": -0.3105693588,
				"element": "N" 
			},
			{
				"x": 1.4002514954,
				"y": -3.2417320182,
				"z": -0.0087658789,
				"element": "C" 
			},
			{
				"x": 0.9690466051,
				"y": -4.3220883776,
				"z": -0.0404393086,
				"element": "N" 
			},
			{
				"x": 4.0474715018,
				"y": 3.1216114983,
				"z": -3.1689999144,
				"element": "H" 
			},
			{
				"x": 3.0861430869,
				"y": 3.1505988213,
				"z": -4.6634906533,
				"element": "H" 
			},
			{
				"x": 4.1643455015,
				"y": 1.7867664676,
				"z": -4.3268515438,
				"element": "H" 
			},
			{
				"x": 1.7229112819,
				"y": 1.2160741367,
				"z": -3.8587155783,
				"element": "H" 
			},
			{
				"x": 1.6698960285,
				"y": 2.5089369529,
				"z": -2.6557667718,
				"element": "H" 
			},
			{
				"x": 1.0292792605,
				"y": 3.8039302992,
				"z": 1.368845483,
				"element": "H" 
			},
			{
				"x": 0.396778584,
				"y": 3.321638039,
				"z": -0.2151636043,
				"element": "H" 
			},
			{
				"x": 2.136327103,
				"y": 5.8239175238,
				"z": 0.3009170247,
				"element": "H" 
			},
			{
				"x": 1.4188401692,
				"y": 5.3742691756,
				"z": -1.2540879668,
				"element": "H" 
			},
			{
				"x": 0.3794154538,
				"y": 5.8379863486,
				"z": 0.1078752649,
				"element": "H" 
			},
			{
				"x": 0.5414677908,
				"y": 1.7720214189,
				"z": 1.9415085312,
				"element": "H" 
			},
			{
				"x": 2.2525391696,
				"y": 1.7083866274,
				"z": 2.3414421598,
				"element": "H" 
			},
			{
				"x": 0.8977232313,
				"y": 0.3993996931,
				"z": 3.9935066543,
				"element": "H" 
			},
			{
				"x": 1.9590989662,
				"y": -0.6779450197,
				"z": 3.0982616823,
				"element": "H" 
			},
			{
				"x": -1.0717191383,
				"y": -0.3270698886,
				"z": 2.8291107424,
				"element": "H" 
			},
			{
				"x": -0.1551113441,
				"y": -1.8090744217,
				"z": 3.0335184877,
				"element": "H" 
			},
			{
				"x": -3.8201688628,
				"y": -0.1109943168,
				"z": -0.6711870143,
				"element": "H" 
			},
			{
				"x": -3.4921334887,
				"y": 0.8035990773,
				"z": 0.8069459284,
				"element": "H" 
			},
			{
				"x": -5.961065173,
				"y": 0.4470349587,
				"z": 0.5287050652,
				"element": "H" 
			},
			{
				"x": -5.3936600235,
				"y": -0.399939933,
				"z": 1.9749091594,
				"element": "H" 
			},
			{
				"x": -5.724566572,
				"y": -1.307852432,
				"z": 0.4903940054,
				"element": "H" 
			},
			{
				"x": -3.1607918952,
				"y": -2.2968173422,
				"z": -1.635313077,
				"element": "H" 
			},
			{
				"x": -2.4746907207,
				"y": -1.8934775247,
				"z": -3.2120234666,
				"element": "H" 
			},
			{
				"x": -0.674165876,
				"y": -3.6405562158,
				"z": -2.8764398661,
				"element": "H" 
			},
			{
				"x": -1.348497072,
				"y": -4.0408448524,
				"z": -1.2956632445,
				"element": "H" 
			},
			{
				"x": -2.2926682025,
				"y": -4.3581770024,
				"z": -2.7626294997,
				"element": "H" 
			}
		],
		 "valence_orbital": [ 
			{
				"type": "occ",
				"energy": -0.26615,
				"method": "rhf"
			},
			{
				"type": "occ",
				"energy": -0.25121,
				"method": "rhf"
			},
			{
				"type": "occ",
				"energy": -0.24354,
				"method": "rhf"
			},
			{
				"type": "occ",
				"energy": -0.22272,
				"method": "rhf"
			},
			{
				"type": "occ",
				"energy": -0.21839,
				"method": "rhf"
			},
			{
				"type": "unocc",
				"energy": -0.08767,
				"method": "rhf"
			},
			{
				"type": "unocc",
				"energy": -0.02681,
				"method": "rhf"
			},
			{
				"type": "unocc",
				"energy": -0.01269,
				"method": "rhf"
			},
			{
				"type": "unocc",
				"energy": 0.00302,
				"method": "rhf"
			},
			{
				"type": "unocc",
				"energy": 0.01356,
				"method": "rhf"
			}
		],
		"cosmo_sigma_profile": { 
			"-0.025": 0.0,
			"-0.024": 0.0,
			"-0.023": 0.0,
			"-0.022": 0.0,
			"-0.021": 0.0,
			"-0.02": 0.0,
			"-0.019": 0.0,
			"-0.018": 0.0,
			"-0.017": 0.0,
			"-0.016": 0.0,
			"-0.015": 0.0,
			"-0.014": 0.0,
			"-0.013": 0.0,
			"-0.012": 0.0,
			"-0.011": 0.0,
			"-0.01": 0.0,
			"-0.009": 0.0,
			"-0.008": 0.0,
			"-0.007": 0.0903568502029,
			"-0.006": 5.79371142687,
			"-0.005": 26.7952221751,
			"-0.004": 55.6162013666,
			"-0.003": 62.7782447974,
			"-0.002": 60.0943163351,
			"-0.001": 46.3968673243,
			"0.0": 45.1568470606,
			"0.001": 29.2992090477,
			"0.002": 21.6337633198,
			"0.003": 20.6993204569,
			"0.004": 18.6893354601,
			"0.005": 17.7716544715,
			"0.006": 14.1099777325,
			"0.007": 12.0202563262,
			"0.008": 9.56201561966,
			"0.009": 5.35397056188,
			"0.01": 5.56979433463,
			"0.011": 4.80980901026,
			"0.012": 3.66772613105,
			"0.013": 0.3994952518,
			"0.014": 0.0,
			"0.015": 0.0,
			"0.016": 0.0,
			"0.017": 0.0,
			"0.018": 0.0,
			"0.019": 0.0,
			"0.02": 0.0,
			"0.021": 0.0,
			"0.022": 0.0,
			"0.023": 0.0,
			"0.024": 0.0,
			"0.025": 0.0
		}
	}
}
