{
	 "smiles": "CN(C)C1=NC=CC(N)=C1", 
	 "Tm": 420.15, 
	 "num_atms": 21, 
	 "gaussian": { 
		 "optdone": 1, 
		 "sigma_profile": "yes", 
		 "theory": "DFT", 
		 "functional": "B3LYP", 
		 "basiset": "6-31G**", 
		 "properties": { 
			 "R2extent": 2681.646, 
			 "electric_dipole_moment_norm": 2.98353681559, 
			 "electric_quadrupole_moment_norm": 11.8057593737, 
			 "total_energy": -437.63114611, 
			 "HOMO_LUMO_gap": 0.20037, 
			 "cosmo_polarized_energy": -11.3, 
			 "cosmo_cavitation_energy": 23.64, 
			 "cosmo_dispersion_energy": -17.79, 
			 "cosmo_repulsion_energy": 1.45, 
			 "cosmo_total_nonelectrostatic_energy": 7.29, 
			 "SMD_solvation_energy": 2.93 
		},
		"coords": [
			{
				"x": -3.588184692,
				"y": 0.0353600214,
				"z": 0.0013322375,
				"element": "C" 
			},
			{
				"x": -2.7564161889,
				"y": -1.1579462738,
				"z": 0.0654334227,
				"element": "N" 
			},
			{
				"x": -2.9165509395,
				"y": -1.9996431736,
				"z": 1.2336519785,
				"element": "C" 
			},
			{
				"x": -1.6048129643,
				"y": -1.2433138399,
				"z": -0.700221743,
				"element": "C" 
			},
			{
				"x": -1.4749513917,
				"y": -0.344394518,
				"z": -1.6982646916,
				"element": "N" 
			},
			{
				"x": -0.3932795033,
				"y": -0.4394958679,
				"z": -2.4760007187,
				"element": "C" 
			},
			{
				"x": 0.6113780631,
				"y": -1.3857739472,
				"z": -2.3355485786,
				"element": "C" 
			},
			{
				"x": 0.4906222348,
				"y": -2.3143302492,
				"z": -1.2838846377,
				"element": "C" 
			},
			{
				"x": 1.4391842058,
				"y": -3.3105234198,
				"z": -1.1040488468,
				"element": "N" 
			},
			{
				"x": -0.6303926366,
				"y": -2.2333025266,
				"z": -0.4507728604,
				"element": "C" 
			},
			{
				"x": -3.4573851949,
				"y": 0.5033175849,
				"z": -0.9718930815,
				"element": "H" 
			},
			{
				"x": -3.3230013348,
				"y": 0.7691077882,
				"z": 0.7790404137,
				"element": "H" 
			},
			{
				"x": -4.6388829317,
				"y": -0.243145434,
				"z": 0.1362838026,
				"element": "H" 
			},
			{
				"x": -2.7949632367,
				"y": -3.0574802255,
				"z": 0.9770322206,
				"element": "H" 
			},
			{
				"x": -3.9285258441,
				"y": -1.8705327513,
				"z": 1.6241528862,
				"element": "H" 
			},
			{
				"x": -2.2070660687,
				"y": -1.7592613057,
				"z": 2.0426798128,
				"element": "H" 
			},
			{
				"x": -0.3224878007,
				"y": 0.3015975301,
				"z": -3.2720292958,
				"element": "H" 
			},
			{
				"x": 1.4616281621,
				"y": -1.4052795055,
				"z": -3.0100806667,
				"element": "H" 
			},
			{
				"x": 2.3541999123,
				"y": -3.1233334678,
				"z": -1.4879480958,
				"element": "H" 
			},
			{
				"x": 1.4747626605,
				"y": -3.7312505661,
				"z": -0.1865502592,
				"element": "H" 
			},
			{
				"x": -0.7299745107,
				"y": -2.9310758527,
				"z": 0.3720367011,
				"element": "H" 
			}
		],
		 "valence_orbital": [ 
			{
				"type": "occ",
				"energy": -0.33161,
				"method": "rhf"
			},
			{
				"type": "occ",
				"energy": -0.27212,
				"method": "rhf"
			},
			{
				"type": "occ",
				"energy": -0.23724,
				"method": "rhf"
			},
			{
				"type": "occ",
				"energy": -0.21477,
				"method": "rhf"
			},
			{
				"type": "occ",
				"energy": -0.18733,
				"method": "rhf"
			},
			{
				"type": "unocc",
				"energy": 0.01304,
				"method": "rhf"
			},
			{
				"type": "unocc",
				"energy": 0.02771,
				"method": "rhf"
			},
			{
				"type": "unocc",
				"energy": 0.08078,
				"method": "rhf"
			},
			{
				"type": "unocc",
				"energy": 0.09923,
				"method": "rhf"
			},
			{
				"type": "unocc",
				"energy": 0.12014,
				"method": "rhf"
			}
		],
		"cosmo_sigma_profile": { 
			"-0.025": 0.0,
			"-0.024": 0.0,
			"-0.023": 0.0,
			"-0.022": 0.0,
			"-0.021": 0.0,
			"-0.02": 0.0,
			"-0.019": 0.0,
			"-0.018": 0.0,
			"-0.017": 0.0,
			"-0.016": 0.0,
			"-0.015": 0.0,
			"-0.014": 0.0,
			"-0.013": 0.857636704201,
			"-0.012": 2.73814233032,
			"-0.011": 2.83772361496,
			"-0.01": 2.73669992835,
			"-0.009": 3.47434756445,
			"-0.008": 2.19643926422,
			"-0.007": 3.30390285026,
			"-0.006": 3.53812353327,
			"-0.005": 11.1882560226,
			"-0.004": 12.5209215063,
			"-0.003": 16.6724122099,
			"-0.002": 19.3766255928,
			"-0.001": 19.2104529437,
			"0.0": 11.0649370805,
			"0.001": 7.05797982568,
			"0.002": 6.97875282501,
			"0.003": 7.29989561139,
			"0.004": 7.73147985872,
			"0.005": 12.2731777639,
			"0.006": 11.8771037008,
			"0.007": 5.66141922833,
			"0.008": 3.67413943752,
			"0.009": 2.6090657419,
			"0.01": 2.27065677081,
			"0.011": 2.30665092544,
			"0.012": 2.15138465608,
			"0.013": 2.04700453834,
			"0.014": 0.602003388161,
			"0.015": 0.0,
			"0.016": 0.0,
			"0.017": 0.0,
			"0.018": 0.0,
			"0.019": 0.0,
			"0.02": 0.0,
			"0.021": 0.0,
			"0.022": 0.0,
			"0.023": 0.0,
			"0.024": 0.0,
			"0.025": 0.0
		}
	}
}
