{
	 "smiles": "OC(=O)C1=CC(=CC=C1)S(=O)(=O)N1CCC2=C1C=CC=C2", 
	 "Tm": 448.15, 
	 "num_atms": 34, 
	 "gaussian": { 
		 "optdone": 1, 
		 "sigma_profile": "yes", 
		 "theory": "DFT", 
		 "functional": "B3LYP", 
		 "basiset": "6-31G**", 
		 "properties": { 
			 "R2extent": 6015.843, 
			 "electric_dipole_moment_norm": 3.54520354987, 
			 "electric_quadrupole_moment_norm": 24.8392326347, 
			 "total_energy": -1333.2025873, 
			 "HOMO_LUMO_gap": 0.16005, 
			 "cosmo_polarized_energy": -21.51, 
			 "cosmo_cavitation_energy": 38.95, 
			 "cosmo_dispersion_energy": -26.97, 
			 "cosmo_repulsion_energy": 2.02, 
			 "cosmo_total_nonelectrostatic_energy": 14.0, 
			 "SMD_solvation_energy": 5.86 
		},
		"coords": [
			{
				"x": 4.0453295022,
				"y": 1.2785936433,
				"z": 0.001756954,
				"element": "O" 
			},
			{
				"x": 3.652923815,
				"y": 0.795724213,
				"z": -1.2035344767,
				"element": "C" 
			},
			{
				"x": 4.0783793956,
				"y": 1.2838695699,
				"z": -2.2233784507,
				"element": "O" 
			},
			{
				"x": 2.6818593234,
				"y": -0.3514918229,
				"z": -1.1957459474,
				"element": "C" 
			},
			{
				"x": 1.8557851413,
				"y": -0.6376463373,
				"z": -0.1035889497,
				"element": "C" 
			},
			{
				"x": 0.9692289909,
				"y": -1.7145467511,
				"z": -0.1791400756,
				"element": "C" 
			},
			{
				"x": 0.9038681832,
				"y": -2.5198801144,
				"z": -1.318089977,
				"element": "C" 
			},
			{
				"x": 1.7245011739,
				"y": -2.2219534213,
				"z": -2.408781469,
				"element": "C" 
			},
			{
				"x": 2.596362713,
				"y": -1.1376543606,
				"z": -2.3543042625,
				"element": "C" 
			},
			{
				"x": -0.12807475,
				"y": -2.0486528152,
				"z": 1.2091565781,
				"element": "S" 
			},
			{
				"x": 0.5836984451,
				"y": -1.6519432809,
				"z": 2.4243400283,
				"element": "O" 
			},
			{
				"x": -0.6723437867,
				"y": -3.3924150942,
				"z": 1.0181772005,
				"element": "O" 
			},
			{
				"x": -1.4447519486,
				"y": -0.9960581275,
				"z": 1.0619527922,
				"element": "N" 
			},
			{
				"x": -2.441784776,
				"y": -1.2421297241,
				"z": -0.0226006771,
				"element": "C" 
			},
			{
				"x": -2.5286560504,
				"y": 0.0853786095,
				"z": -0.8119643024,
				"element": "C" 
			},
			{
				"x": -1.9350114256,
				"y": 1.0883037607,
				"z": 0.1533258358,
				"element": "C" 
			},
			{
				"x": -1.2865416333,
				"y": 0.4185821936,
				"z": 1.1998293224,
				"element": "C" 
			},
			{
				"x": -0.6521634254,
				"y": 1.1101035272,
				"z": 2.2317246919,
				"element": "C" 
			},
			{
				"x": -0.6568067945,
				"y": 2.5079130232,
				"z": 2.1771602742,
				"element": "C" 
			},
			{
				"x": -1.2948767468,
				"y": 3.1889563926,
				"z": 1.1371058761,
				"element": "C" 
			},
			{
				"x": -1.9429136263,
				"y": 2.4782207576,
				"z": 0.1201736845,
				"element": "C" 
			},
			{
				"x": 3.7562764344,
				"y": 0.6952949413,
				"z": 0.7173774509,
				"element": "H" 
			},
			{
				"x": 1.8685067781,
				"y": -0.0337060646,
				"z": 0.7979347616,
				"element": "H" 
			},
			{
				"x": 0.2343701717,
				"y": -3.3729341341,
				"z": -1.3318447647,
				"element": "H" 
			},
			{
				"x": 1.6841543446,
				"y": -2.8421612168,
				"z": -3.2987689086,
				"element": "H" 
			},
			{
				"x": 3.2323425301,
				"y": -0.882968497,
				"z": -3.1951231298,
				"element": "H" 
			},
			{
				"x": -2.1489066876,
				"y": -2.1003018877,
				"z": -0.6277664764,
				"element": "H" 
			},
			{
				"x": -3.396028625,
				"y": -1.4827266075,
				"z": 0.4555994936,
				"element": "H" 
			},
			{
				"x": -3.5615790582,
				"y": 0.3166772568,
				"z": -1.0877732965,
				"element": "H" 
			},
			{
				"x": -1.9453705632,
				"y": 0.0446744971,
				"z": -1.7410219431,
				"element": "H" 
			},
			{
				"x": -0.1784458071,
				"y": 0.5742952848,
				"z": 3.0447622324,
				"element": "H" 
			},
			{
				"x": -0.1687121181,
				"y": 3.0694658778,
				"z": 2.9682742135,
				"element": "H" 
			},
			{
				"x": -1.2957470295,
				"y": 4.2745200223,
				"z": 1.1217436382,
				"element": "H" 
			},
			{
				"x": -2.4438720901,
				"y": 3.0069966865,
				"z": -0.6861679209,
				"element": "H" 
			}
		],
		 "valence_orbital": [ 
			{
				"type": "occ",
				"energy": -0.29263,
				"method": "rhf"
			},
			{
				"type": "occ",
				"energy": -0.28737,
				"method": "rhf"
			},
			{
				"type": "occ",
				"energy": -0.28129,
				"method": "rhf"
			},
			{
				"type": "occ",
				"energy": -0.25969,
				"method": "rhf"
			},
			{
				"type": "occ",
				"energy": -0.22931,
				"method": "rhf"
			},
			{
				"type": "unocc",
				"energy": -0.06926,
				"method": "rhf"
			},
			{
				"type": "unocc",
				"energy": -0.05583,
				"method": "rhf"
			},
			{
				"type": "unocc",
				"energy": -0.01887,
				"method": "rhf"
			},
			{
				"type": "unocc",
				"energy": -0.01097,
				"method": "rhf"
			},
			{
				"type": "unocc",
				"energy": 0.02631,
				"method": "rhf"
			}
		],
		"cosmo_sigma_profile": { 
			"-0.025": 0.0,
			"-0.024": 0.0,
			"-0.023": 0.0,
			"-0.022": 0.0,
			"-0.021": 0.0,
			"-0.02": 0.215994178003,
			"-0.019": 0.768176161412,
			"-0.018": 0.778155025715,
			"-0.017": 1.04263984575,
			"-0.016": 1.24425908204,
			"-0.015": 0.783201511047,
			"-0.014": 1.00003040773,
			"-0.013": 0.880867117963,
			"-0.012": 1.00798375058,
			"-0.011": 0.751872506229,
			"-0.01": 1.04356133593,
			"-0.009": 0.971279653904,
			"-0.008": 3.6708612926,
			"-0.007": 8.87106537065,
			"-0.006": 17.6263657754,
			"-0.005": 25.1748165748,
			"-0.004": 27.6474477937,
			"-0.003": 25.1771592936,
			"-0.002": 21.3813129566,
			"-0.001": 18.6538267733,
			"0.0": 21.8174387059,
			"0.001": 20.7191660075,
			"0.002": 14.6231910405,
			"0.003": 12.2033599164,
			"0.004": 14.6085317968,
			"0.005": 14.5408371997,
			"0.006": 6.38651847434,
			"0.007": 6.95101440274,
			"0.008": 5.85363194284,
			"0.009": 8.39087684475,
			"0.01": 11.4470301249,
			"0.011": 11.5984702216,
			"0.012": 3.54754837966,
			"0.013": 0.60985627735,
			"0.014": 0.0,
			"0.015": 0.0,
			"0.016": 0.0,
			"0.017": 0.0,
			"0.018": 0.0,
			"0.019": 0.0,
			"0.02": 0.0,
			"0.021": 0.0,
			"0.022": 0.0,
			"0.023": 0.0,
			"0.024": 0.0,
			"0.0": 0.0
		}
	}
}
