{
	 "smiles": "CC1(C)OC(=O)C(=NNC2=CC=CC=C2[N+]([O-])=O)C(=O)O1", 
	 "Tm": 438.15, 
	 "num_atms": 32, 
	 "gaussian": { 
		 "optdone": 1, 
		 "sigma_profile": "yes", 
		 "theory": "DFT", 
		 "functional": "B3LYP", 
		 "basiset": "6-31G**", 
		 "properties": { 
			 "R2extent": 7972.5777, 
			 "electric_dipole_moment_norm": 2.88406609668, 
			 "electric_quadrupole_moment_norm": 34.2377452314, 
			 "total_energy": -1079.39359006, 
			 "HOMO_LUMO_gap": 0.13673, 
			 "cosmo_polarized_energy": -18.29, 
			 "cosmo_cavitation_energy": 37.55, 
			 "cosmo_dispersion_energy": -27.06, 
			 "cosmo_repulsion_energy": 2.05, 
			 "cosmo_total_nonelectrostatic_energy": 12.54, 
			 "SMD_solvation_energy": 9.87 
		},
		"coords": [
			{
				"x": 2.2905173193,
				"y": -2.9606117075,
				"z": -2.4360105648,
				"element": "C" 
			},
			{
				"x": 2.6224539907,
				"y": -2.5924184287,
				"z": -0.9911151974,
				"element": "C" 
			},
			{
				"x": 3.6967601097,
				"y": -3.4682609958,
				"z": -0.3725180161,
				"element": "C" 
			},
			{
				"x": 1.4472839699,
				"y": -2.7722592019,
				"z": -0.1684016837,
				"element": "O" 
			},
			{
				"x": 0.4619565291,
				"y": -1.8445610447,
				"z": -0.2097073055,
				"element": "C" 
			},
			{
				"x": -0.6430299073,
				"y": -2.1127030665,
				"z": 0.2269411426,
				"element": "O" 
			},
			{
				"x": 0.8244137501,
				"y": -0.5228970265,
				"z": -0.7592651331,
				"element": "C" 
			},
			{
				"x": -0.0235297995,
				"y": 0.4573954578,
				"z": -0.9390988683,
				"element": "N" 
			},
			{
				"x": -1.2960595238,
				"y": 0.3324006714,
				"z": -0.6557050453,
				"element": "N" 
			},
			{
				"x": -2.1438939949,
				"y": 1.4231906757,
				"z": -0.8841816492,
				"element": "C" 
			},
			{
				"x": -1.6099350801,
				"y": 2.6247232219,
				"z": -1.3868860011,
				"element": "C" 
			},
			{
				"x": -2.4235079024,
				"y": 3.7223198404,
				"z": -1.6233431037,
				"element": "C" 
			},
			{
				"x": -3.7998209796,
				"y": 3.6651298144,
				"z": -1.3690392752,
				"element": "C" 
			},
			{
				"x": -4.347198028,
				"y": 2.4927100026,
				"z": -0.8744954863,
				"element": "C" 
			},
			{
				"x": -3.5364264563,
				"y": 1.3770704352,
				"z": -0.630658848,
				"element": "C" 
			},
			{
				"x": -4.2093831661,
				"y": 0.1858321143,
				"z": -0.1101762742,
				"element": "N" 
			},
			{
				"x": -3.525590176,
				"y": -0.8159025417,
				"z": 0.1424748753,
				"element": "O" 
			},
			{
				"x": -5.4258031897,
				"y": 0.2329524532,
				"z": 0.0531206254,
				"element": "O" 
			},
			{
				"x": 2.2457595793,
				"y": -0.1939518504,
				"z": -1.0553416522,
				"element": "C" 
			},
			{
				"x": 2.6706654011,
				"y": 0.8996900199,
				"z": -1.3271652039,
				"element": "O" 
			},
			{
				"x": 3.1109541735,
				"y": -1.2499161936,
				"z": -0.921694325,
				"element": "O" 
			},
			{
				"x": 1.9367138365,
				"y": -3.9930371807,
				"z": -2.4857920741,
				"element": "H" 
			},
			{
				"x": 1.5122130447,
				"y": -2.3066223842,
				"z": -2.8398783211,
				"element": "H" 
			},
			{
				"x": 3.183783233,
				"y": -2.856504027,
				"z": -3.0563294113,
				"element": "H" 
			},
			{
				"x": 3.8784009011,
				"y": -3.1515715488,
				"z": 0.6564638423,
				"element": "H" 
			},
			{
				"x": 3.3742026228,
				"y": -4.5117140798,
				"z": -0.3745559414,
				"element": "H" 
			},
			{
				"x": 4.6232086339,
				"y": -3.3750028929,
				"z": -0.9432339528,
				"element": "H" 
			},
			{
				"x": -1.6739316311,
				"y": -0.5327662158,
				"z": -0.2502224944,
				"element": "H" 
			},
			{
				"x": -0.5452727297,
				"y": 2.664136591,
				"z": -1.5790530949,
				"element": "H" 
			},
			{
				"x": -1.9786349038,
				"y": 4.6343916742,
				"z": -2.0094038878,
				"element": "H" 
			},
			{
				"x": -4.4341357508,
				"y": 4.5251596902,
				"z": -1.5542054648,
				"element": "H" 
			},
			{
				"x": -5.4047338752,
				"y": 2.4019977241,
				"z": -0.6635222101,
				"element": "H" 
			}
		],
		 "valence_orbital": [ 
			{
				"type": "occ",
				"energy": -0.30391,
				"method": "rhf"
			},
			{
				"type": "occ",
				"energy": -0.29171,
				"method": "rhf"
			},
			{
				"type": "occ",
				"energy": -0.29031,
				"method": "rhf"
			},
			{
				"type": "occ",
				"energy": -0.27665,
				"method": "rhf"
			},
			{
				"type": "occ",
				"energy": -0.24669,
				"method": "rhf"
			},
			{
				"type": "unocc",
				"energy": -0.10996,
				"method": "rhf"
			},
			{
				"type": "unocc",
				"energy": -0.08645,
				"method": "rhf"
			},
			{
				"type": "unocc",
				"energy": -0.01859,
				"method": "rhf"
			},
			{
				"type": "unocc",
				"energy": -0.01095,
				"method": "rhf"
			},
			{
				"type": "unocc",
				"energy": -0.0075,
				"method": "rhf"
			}
		],
		"cosmo_sigma_profile": { 
			"-0.025": 0.0,
			"-0.024": 0.0,
			"-0.023": 0.0,
			"-0.022": 0.0,
			"-0.021": 0.0,
			"-0.02": 0.0,
			"-0.019": 0.0,
			"-0.018": 0.0,
			"-0.017": 0.0,
			"-0.016": 0.0,
			"-0.015": 0.0,
			"-0.014": 0.0,
			"-0.013": 0.0,
			"-0.012": 0.0,
			"-0.011": 0.0,
			"-0.01": 0.0,
			"-0.009": 0.0617170331457,
			"-0.008": 5.07489854371,
			"-0.007": 15.9579096817,
			"-0.006": 24.5354716381,
			"-0.005": 25.4587542313,
			"-0.004": 22.5658453839,
			"-0.003": 25.2686328697,
			"-0.002": 27.6976228435,
			"-0.001": 23.154699637,
			"0.0": 18.0895493136,
			"0.001": 16.912656121,
			"0.002": 12.3941132676,
			"0.003": 6.16865642475,
			"0.004": 6.0373380124,
			"0.005": 8.62206600383,
			"0.006": 7.69060296947,
			"0.007": 12.410678051,
			"0.008": 11.6781074293,
			"0.009": 10.8639276753,
			"0.01": 7.85133953789,
			"0.011": 8.82995490647,
			"0.012": 3.64983800898,
			"0.013": 0.156947920297,
			"0.014": 0.0,
			"0.015": 0.0,
			"0.016": 0.0,
			"0.017": 0.0,
			"0.018": 0.0,
			"0.019": 0.0,
			"0.02": 0.0,
			"0.021": 0.0,
			"0.022": 0.0,
			"0.023": 0.0,
			"0.024": 0.0,
			"0.025": 0.0
		}
	}
}
