{
	 "smiles": "COC1=CC=CC=C1OCCNCC(O)COC1=CC=CC2=C1C1=C(N2)C=CC=C1", 
	 "Tm": 387.15, 
	 "num_atms": 56, 
	 "gaussian": { 
		 "optdone": 1, 
		 "sigma_profile": "yes", 
		 "theory": "DFT", 
		 "functional": "B3LYP", 
		 "basiset": "6-31G**", 
		 "properties": { 
			 "R2extent": 16176.4622, 
			 "electric_dipole_moment_norm": 1.13434651231, 
			 "electric_quadrupole_moment_norm": 27.2295406111, 
			 "total_energy": -1340.5912789, 
			 "HOMO_LUMO_gap": 0.17487, 
			 "cosmo_polarized_energy": -22.26, 
			 "cosmo_cavitation_energy": 58.97, 
			 "cosmo_dispersion_energy": -38.08, 
			 "cosmo_repulsion_energy": 2.87, 
			 "cosmo_total_nonelectrostatic_energy": 23.75, 
			 "SMD_solvation_energy": 8.87 
		},
		"coords": [
			{
				"x": 0.7244578893,
				"y": 5.2922117573,
				"z": 0.6296225133,
				"element": "C" 
			},
			{
				"x": -0.1081316087,
				"y": 5.1434768523,
				"z": -0.5258245835,
				"element": "O" 
			},
			{
				"x": -1.2126300153,
				"y": 4.339266219,
				"z": -0.3351732767,
				"element": "C" 
			},
			{
				"x": -2.4820122094,
				"y": 4.9198311632,
				"z": -0.3442706103,
				"element": "C" 
			},
			{
				"x": -3.6213622909,
				"y": 4.1311986852,
				"z": -0.1744643147,
				"element": "C" 
			},
			{
				"x": -3.4921606594,
				"y": 2.7545911171,
				"z": 0.0178972319,
				"element": "C" 
			},
			{
				"x": -2.2268160527,
				"y": 2.164763383,
				"z": 0.0136116259,
				"element": "C" 
			},
			{
				"x": -1.0849855452,
				"y": 2.946907834,
				"z": -0.1708687946,
				"element": "C" 
			},
			{
				"x": 0.1487661029,
				"y": 2.3351946442,
				"z": -0.1461769731,
				"element": "O" 
			},
			{
				"x": 0.8701116293,
				"y": 2.332193235,
				"z": -1.389209416,
				"element": "C" 
			},
			{
				"x": 2.0050215488,
				"y": 1.3256025684,
				"z": -1.278965126,
				"element": "C" 
			},
			{
				"x": 1.4997107963,
				"y": -0.0424333933,
				"z": -1.2407251812,
				"element": "N" 
			},
			{
				"x": 2.4241635775,
				"y": -1.0771742146,
				"z": -0.8016366405,
				"element": "C" 
			},
			{
				"x": 2.5932988017,
				"y": -1.1423798366,
				"z": 0.7284897513,
				"element": "C" 
			},
			{
				"x": 3.3554836255,
				"y": -0.0521784924,
				"z": 1.2536672926,
				"element": "O" 
			},
			{
				"x": 1.2587995818,
				"y": -1.0833997371,
				"z": 1.4640748597,
				"element": "C" 
			},
			{
				"x": 0.5423173621,
				"y": -2.270167516,
				"z": 1.1213313418,
				"element": "O" 
			},
			{
				"x": -0.7696743494,
				"y": -2.3664592907,
				"z": 1.4757919319,
				"element": "C" 
			},
			{
				"x": -1.476234931,
				"y": -1.3993675588,
				"z": 2.1967855929,
				"element": "C" 
			},
			{
				"x": -2.835124749,
				"y": -1.5976742509,
				"z": 2.5045726634,
				"element": "C" 
			},
			{
				"x": -3.5253831336,
				"y": -2.740406777,
				"z": 2.1165586769,
				"element": "C" 
			},
			{
				"x": -2.8040747046,
				"y": -3.7027829947,
				"z": 1.4012800192,
				"element": "C" 
			},
			{
				"x": -1.4351018023,
				"y": -3.5409245148,
				"z": 1.0756722849,
				"element": "C" 
			},
			{
				"x": -1.0253677243,
				"y": -4.7226332855,
				"z": 0.3466647582,
				"element": "C" 
			},
			{
				"x": -2.1735147987,
				"y": -5.5566806821,
				"z": 0.2550887674,
				"element": "C" 
			},
			{
				"x": -3.2275115574,
				"y": -4.9216570241,
				"z": 0.8945700019,
				"element": "N" 
			},
			{
				"x": -2.13953487,
				"y": -6.7933524452,
				"z": -0.3921025315,
				"element": "C" 
			},
			{
				"x": -0.9290520762,
				"y": -7.196713422,
				"z": -0.9532716335,
				"element": "C" 
			},
			{
				"x": 0.2182082391,
				"y": -6.3889064242,
				"z": -0.8692326518,
				"element": "C" 
			},
			{
				"x": 0.1794599285,
				"y": -5.1554080852,
				"z": -0.2228668511,
				"element": "C" 
			},
			{
				"x": 1.1225755636,
				"y": 4.3280996953,
				"z": 0.9620530905,
				"element": "H" 
			},
			{
				"x": 0.1675941362,
				"y": 5.7582902732,
				"z": 1.4524988977,
				"element": "H" 
			},
			{
				"x": 1.5455044718,
				"y": 5.9490042223,
				"z": 0.3339810033,
				"element": "H" 
			},
			{
				"x": -2.5518359698,
				"y": 5.9941656075,
				"z": -0.484473112,
				"element": "H" 
			},
			{
				"x": -4.6037541626,
				"y": 4.5940621693,
				"z": -0.1821736078,
				"element": "H" 
			},
			{
				"x": -4.3733934705,
				"y": 2.1359559747,
				"z": 0.1593959365,
				"element": "H" 
			},
			{
				"x": -2.0987044346,
				"y": 1.0954942126,
				"z": 0.1520802733,
				"element": "H" 
			},
			{
				"x": 0.1868156935,
				"y": 2.058669461,
				"z": -2.2062460241,
				"element": "H" 
			},
			{
				"x": 1.2623985691,
				"y": 3.3340011921,
				"z": -1.5998453315,
				"element": "H" 
			},
			{
				"x": 2.5475037354,
				"y": 1.5133013418,
				"z": -0.3490972988,
				"element": "H" 
			},
			{
				"x": 2.7107643415,
				"y": 1.5094606027,
				"z": -2.1128516039,
				"element": "H" 
			},
			{
				"x": 1.0939326194,
				"y": -0.2937818259,
				"z": -2.1360889416,
				"element": "H" 
			},
			{
				"x": 3.4351442908,
				"y": -0.991482981,
				"z": -1.2518081861,
				"element": "H" 
			},
			{
				"x": 2.0182743047,
				"y": -2.0410433202,
				"z": -1.1243707309,
				"element": "H" 
			},
			{
				"x": 3.0848719968,
				"y": -2.0988222727,
				"z": 0.9701886684,
				"element": "H" 
			},
			{
				"x": 4.2329095575,
				"y": -0.0875365343,
				"z": 0.8517378069,
				"element": "H" 
			},
			{
				"x": 0.7127006134,
				"y": -0.1928956955,
				"z": 1.1402389073,
				"element": "H" 
			},
			{
				"x": 1.4354837075,
				"y": -1.0400432927,
				"z": 2.5460026036,
				"element": "H" 
			},
			{
				"x": -0.987119721,
				"y": -0.4924961138,
				"z": 2.5290254893,
				"element": "H" 
			},
			{
				"x": -3.3556995338,
				"y": -0.8275978922,
				"z": 3.0666999267,
				"element": "H" 
			},
			{
				"x": -4.5739795916,
				"y": -2.878731079,
				"z": 2.3603826357,
				"element": "H" 
			},
			{
				"x": -4.1587146663,
				"y": -5.2923906638,
				"z": 0.9870035532,
				"element": "H" 
			},
			{
				"x": -3.0239486533,
				"y": -7.421149978,
				"z": -0.4555670287,
				"element": "H" 
			},
			{
				"x": -0.873376363,
				"y": -8.1546006981,
				"z": -1.4625413846,
				"element": "H" 
			},
			{
				"x": 1.1472469139,
				"y": -6.7345175842,
				"z": -1.3131250378,
				"element": "H" 
			},
			{
				"x": 1.0648800468,
				"y": -4.5342523344,
				"z": -0.1476912331,
				"element": "H" 
			}
		],
		 "valence_orbital": [ 
			{
				"type": "occ",
				"energy": -0.2315,
				"method": "rhf"
			},
			{
				"type": "occ",
				"energy": -0.22286,
				"method": "rhf"
			},
			{
				"type": "occ",
				"energy": -0.21791,
				"method": "rhf"
			},
			{
				"type": "occ",
				"energy": -0.20128,
				"method": "rhf"
			},
			{
				"type": "occ",
				"energy": -0.18953,
				"method": "rhf"
			},
			{
				"type": "unocc",
				"energy": -0.01466,
				"method": "rhf"
			},
			{
				"type": "unocc",
				"energy": 0.00642,
				"method": "rhf"
			},
			{
				"type": "unocc",
				"energy": 0.00956,
				"method": "rhf"
			},
			{
				"type": "unocc",
				"energy": 0.01754,
				"method": "rhf"
			},
			{
				"type": "unocc",
				"energy": 0.04179,
				"method": "rhf"
			}
		],
		"cosmo_sigma_profile": { 
			"-0.025": 0.0,
			"-0.024": 0.0,
			"-0.023": 0.0,
			"-0.022": 0.0,
			"-0.021": 0.0,
			"-0.02": 0.0,
			"-0.019": 0.0,
			"-0.018": 0.0,
			"-0.017": 0.0,
			"-0.016": 0.474146290957,
			"-0.015": 1.9530545724,
			"-0.014": 3.02725931352,
			"-0.013": 1.89623076016,
			"-0.012": 1.9322461086,
			"-0.011": 2.38318618326,
			"-0.01": 3.40633836735,
			"-0.009": 3.77822027763,
			"-0.008": 4.1400087363,
			"-0.007": 5.37226418893,
			"-0.006": 13.3395555247,
			"-0.005": 27.0295016738,
			"-0.004": 33.9955934663,
			"-0.003": 50.7637351796,
			"-0.002": 42.4245886493,
			"-0.001": 35.4898528652,
			"0.0": 31.8798186437,
			"0.001": 23.1199285814,
			"0.002": 23.2461775568,
			"0.003": 27.7955406947,
			"0.004": 37.1526437878,
			"0.005": 35.5738037935,
			"0.006": 24.8029106819,
			"0.007": 12.112382067,
			"0.008": 4.93065285805,
			"0.009": 3.36912246781,
			"0.01": 2.94299728072,
			"0.011": 2.95309904995,
			"0.012": 3.00039107111,
			"0.013": 1.95654000655,
			"0.014": 0.363003854131,
			"0.015": 0.0,
			"0.016": 0.0,
			"0.017": 0.0,
			"0.018": 0.0,
			"0.019": 0.0,
			"0.02": 0.0,
			"0.021": 0.0,
			"0.022": 0.0,
			"0.023": 0.0,
			"0.024": 0.0,
			"0.025": 0.0
		}
	}
}
