{
	 "smiles": "OC(=O)CC1=C(N=C(S1)C1=CC=CC=C1)C1=CC=C(Cl)C=C1", 
	 "Tm": 434.15, 
	 "num_atms": 34, 
	 "gaussian": { 
		 "optdone": 1, 
		 "sigma_profile": "yes", 
		 "theory": "DFT", 
		 "functional": "B3LYP", 
		 "basiset": "6-31G**", 
		 "properties": { 
			 "R2extent": 10754.2956, 
			 "electric_dipole_moment_norm": 5.29639638717, 
			 "electric_quadrupole_moment_norm": 11.7963183329, 
			 "total_energy": -1718.63879226, 
			 "HOMO_LUMO_gap": 0.15574, 
			 "cosmo_polarized_energy": -15.99, 
			 "cosmo_cavitation_energy": 42.28, 
			 "cosmo_dispersion_energy": -30.49, 
			 "cosmo_repulsion_energy": 2.27, 
			 "cosmo_total_nonelectrostatic_energy": 14.07, 
			 "SMD_solvation_energy": 6.26 
		},
		"coords": [
			{
				"x": 3.2958546269,
				"y": -0.0253392679,
				"z": -0.9153531858,
				"element": "O" 
			},
			{
				"x": 2.8477791366,
				"y": -0.6986141455,
				"z": -2.0017761117,
				"element": "C" 
			},
			{
				"x": 3.6117069535,
				"y": -1.1925610274,
				"z": -2.7900174153,
				"element": "O" 
			},
			{
				"x": 1.3204934764,
				"y": -0.7421388682,
				"z": -2.1942559974,
				"element": "C" 
			},
			{
				"x": 0.4766417922,
				"y": -0.4296913716,
				"z": -0.9930639786,
				"element": "C" 
			},
			{
				"x": -0.178422232,
				"y": 0.7386203021,
				"z": -0.6389199149,
				"element": "C" 
			},
			{
				"x": -0.9715323623,
				"y": 0.6464245202,
				"z": 0.484833431,
				"element": "N" 
			},
			{
				"x": -0.9440962511,
				"y": -0.5399555948,
				"z": 1.0289650127,
				"element": "C" 
			},
			{
				"x": 0.0900401772,
				"y": -1.6794853481,
				"z": 0.1664265082,
				"element": "S" 
			},
			{
				"x": -1.6791137374,
				"y": -0.9041124327,
				"z": 2.247328982,
				"element": "C" 
			},
			{
				"x": -2.4003864961,
				"y": 0.091515315,
				"z": 2.9302578095,
				"element": "C" 
			},
			{
				"x": -3.1095107739,
				"y": -0.2239016347,
				"z": 4.0853369592,
				"element": "C" 
			},
			{
				"x": -3.1099738292,
				"y": -1.5317780417,
				"z": 4.5780248545,
				"element": "C" 
			},
			{
				"x": -2.3956993863,
				"y": -2.5258493409,
				"z": 3.9057652201,
				"element": "C" 
			},
			{
				"x": -1.6857172687,
				"y": -2.2160036986,
				"z": 2.7481877344,
				"element": "C" 
			},
			{
				"x": -0.1560520034,
				"y": 2.0283411404,
				"z": -1.36481296,
				"element": "C" 
			},
			{
				"x": 0.9952170724,
				"y": 2.5231819703,
				"z": -1.9987538523,
				"element": "C" 
			},
			{
				"x": 0.9737687841,
				"y": 3.738566089,
				"z": -2.6822110631,
				"element": "C" 
			},
			{
				"x": -0.2085395764,
				"y": 4.474409423,
				"z": -2.7262920876,
				"element": "C" 
			},
			{
				"x": -0.2448509787,
				"y": 6.0045902201,
				"z": -3.5859211574,
				"element": "Cl" 
			},
			{
				"x": -1.3615910162,
				"y": 4.0182392959,
				"z": -2.0851434379,
				"element": "C" 
			},
			{
				"x": -1.3274097965,
				"y": 2.8045019517,
				"z": -1.4062209947,
				"element": "C" 
			},
			{
				"x": 2.5376899846,
				"y": 0.2381805895,
				"z": -0.3667431981,
				"element": "H" 
			},
			{
				"x": 1.0908030389,
				"y": -1.7313530921,
				"z": -2.599589982,
				"element": "H" 
			},
			{
				"x": 1.0926712826,
				"y": -0.0234331703,
				"z": -2.989751409,
				"element": "H" 
			},
			{
				"x": -2.3888955465,
				"y": 1.102881992,
				"z": 2.5398087252,
				"element": "H" 
			},
			{
				"x": -3.6620649525,
				"y": 0.5533363391,
				"z": 4.6049742554,
				"element": "H" 
			},
			{
				"x": -3.663101951,
				"y": -1.7748127069,
				"z": 5.4804023813,
				"element": "H" 
			},
			{
				"x": -2.3924314648,
				"y": -3.5445030056,
				"z": 4.2816441295,
				"element": "H" 
			},
			{
				"x": -1.1394208326,
				"y": -3.0014049052,
				"z": 2.2328156245,
				"element": "H" 
			},
			{
				"x": 1.9348517642,
				"y": 1.9860434164,
				"z": -1.9300957227,
				"element": "H" 
			},
			{
				"x": 1.8697448214,
				"y": 4.1159179114,
				"z": -3.1620962679,
				"element": "H" 
			},
			{
				"x": -2.2712905235,
				"y": 4.6074163046,
				"z": -2.1194349714,
				"element": "H" 
			},
			{
				"x": -2.214461932,
				"y": 2.4433708715,
				"z": -0.8977179196,
				"element": "H" 
			}
		],
		 "valence_orbital": [ 
			{
				"type": "occ",
				"energy": -0.27615,
				"method": "rhf"
			},
			{
				"type": "occ",
				"energy": -0.27332,
				"method": "rhf"
			},
			{
				"type": "occ",
				"energy": -0.26846,
				"method": "rhf"
			},
			{
				"type": "occ",
				"energy": -0.25729,
				"method": "rhf"
			},
			{
				"type": "occ",
				"energy": -0.22946,
				"method": "rhf"
			},
			{
				"type": "unocc",
				"energy": -0.07372,
				"method": "rhf"
			},
			{
				"type": "unocc",
				"energy": -0.04256,
				"method": "rhf"
			},
			{
				"type": "unocc",
				"energy": -0.02522,
				"method": "rhf"
			},
			{
				"type": "unocc",
				"energy": -0.01742,
				"method": "rhf"
			},
			{
				"type": "unocc",
				"energy": -0.0036,
				"method": "rhf"
			}
		],
		"cosmo_sigma_profile": { 
			"-0.025": 0.0,
			"-0.024": 0.0,
			"-0.023": 0.0,
			"-0.022": 0.0,
			"-0.021": 0.0,
			"-0.02": 0.0,
			"-0.019": 0.0,
			"-0.018": 0.0,
			"-0.017": 0.0,
			"-0.016": 0.106668758228,
			"-0.015": 0.472949936256,
			"-0.014": 0.676302366535,
			"-0.013": 1.33469598603,
			"-0.012": 0.859885706062,
			"-0.011": 1.32141280037,
			"-0.01": 0.992004311891,
			"-0.009": 1.66625765029,
			"-0.008": 7.16893588531,
			"-0.007": 13.4490459413,
			"-0.006": 20.7843334581,
			"-0.005": 22.8361187401,
			"-0.004": 20.6847129979,
			"-0.003": 19.1280796706,
			"-0.002": 18.6105254726,
			"-0.001": 21.5972169356,
			"0.0": 26.5503160351,
			"0.001": 28.8102362228,
			"0.002": 31.1152759932,
			"0.003": 33.0360830247,
			"0.004": 27.95940502,
			"0.005": 13.8255507354,
			"0.006": 3.02634940637,
			"0.007": 3.4200455294,
			"0.008": 4.78672745548,
			"0.009": 4.74501837386,
			"0.01": 5.33094787273,
			"0.011": 4.79674046105,
			"0.012": 4.84321359729,
			"0.013": 0.897414461474,
			"0.014": 0.0,
			"0.015": 0.0,
			"0.016": 0.0,
			"0.017": 0.0,
			"0.018": 0.0,
			"0.019": 0.0,
			"0.02": 0.0,
			"0.021": 0.0,
			"0.022": 0.0,
			"0.023": 0.0,
			"0.024": 0.0,
			"0.025": 0.0
		}
	}
}
