{
	 "smiles": "CCS(=O)(=O)N1CCC(CC1)C(O)=O", 
	 "Tm": 417.15, 
	 "num_atms": 29, 
	 "gaussian": { 
		 "optdone": 1, 
		 "sigma_profile": "yes", 
		 "theory": "DFT", 
		 "functional": "B3LYP", 
		 "basiset": "6-31G**", 
		 "properties": { 
			 "R2extent": 3561.0849, 
			 "electric_dipole_moment_norm": 3.31600256333, 
			 "electric_quadrupole_moment_norm": 17.4372664047, 
			 "total_energy": -1067.68834497, 
			 "HOMO_LUMO_gap": 0.2439, 
			 "cosmo_polarized_energy": -16.85, 
			 "cosmo_cavitation_energy": 31.41, 
			 "cosmo_dispersion_energy": -22.77, 
			 "cosmo_repulsion_energy": 1.74, 
			 "cosmo_total_nonelectrostatic_energy": 10.37, 
			 "SMD_solvation_energy": 4.89 
		},
		"coords": [
			{
				"x": -1.357608474,
				"y": -3.486001025,
				"z": 1.4985390833,
				"element": "C" 
			},
			{
				"x": 0.0368940847,
				"y": -3.3402159043,
				"z": 0.9024834971,
				"element": "C" 
			},
			{
				"x": 0.8168277852,
				"y": -1.7437777057,
				"z": 1.2783671364,
				"element": "S" 
			},
			{
				"x": 2.1401052171,
				"y": -1.7639794902,
				"z": 0.6360739515,
				"element": "O" 
			},
			{
				"x": 0.684876842,
				"y": -1.5007367897,
				"z": 2.7213130952,
				"element": "O" 
			},
			{
				"x": -0.1905401069,
				"y": -0.6404770721,
				"z": 0.4777886994,
				"element": "N" 
			},
			{
				"x": 0.2454839728,
				"y": -0.1972353893,
				"z": -0.861018243,
				"element": "C" 
			},
			{
				"x": 1.1813219912,
				"y": 1.0174799007,
				"z": -0.8033841196,
				"element": "C" 
			},
			{
				"x": 0.5641232575,
				"y": 2.1816717793,
				"z": 0.0144946651,
				"element": "C" 
			},
			{
				"x": 0.072985413,
				"y": 1.6843740598,
				"z": 1.3866746527,
				"element": "C" 
			},
			{
				"x": -0.8131934283,
				"y": 0.4356409069,
				"z": 1.2784157923,
				"element": "C" 
			},
			{
				"x": -0.5436102637,
				"y": 2.8696838981,
				"z": -0.7687600449,
				"element": "C" 
			},
			{
				"x": -0.058302411,
				"y": 3.5032147452,
				"z": -1.8655862772,
				"element": "O" 
			},
			{
				"x": -1.7255607702,
				"y": 2.8803657393,
				"z": -0.493323968,
				"element": "O" 
			},
			{
				"x": -1.7558316423,
				"y": -4.4777277062,
				"z": 1.2636509594,
				"element": "H" 
			},
			{
				"x": -1.3284082359,
				"y": -3.3726603724,
				"z": 2.5846534354,
				"element": "H" 
			},
			{
				"x": -2.0381865834,
				"y": -2.7369235391,
				"z": 1.0855234705,
				"element": "H" 
			},
			{
				"x": 0.739150778,
				"y": -4.0777841115,
				"z": 1.3029574506,
				"element": "H" 
			},
			{
				"x": 0.0408787565,
				"y": -3.4251820275,
				"z": -0.1878162418,
				"element": "H" 
			},
			{
				"x": -0.6667898269,
				"y": 0.0393367463,
				"z": -1.4240472051,
				"element": "H" 
			},
			{
				"x": 0.7392874584,
				"y": -1.0264884421,
				"z": -1.3710110381,
				"element": "H" 
			},
			{
				"x": 1.4210503555,
				"y": 1.3536426371,
				"z": -1.8171477685,
				"element": "H" 
			},
			{
				"x": 2.1156128148,
				"y": 0.7085662163,
				"z": -0.3252799482,
				"element": "H" 
			},
			{
				"x": 1.3445036991,
				"y": 2.93987313,
				"z": 0.1536452365,
				"element": "H" 
			},
			{
				"x": 0.9454596988,
				"y": 1.4462615378,
				"z": 2.0051942454,
				"element": "H" 
			},
			{
				"x": -0.4867065725,
				"y": 2.4752834296,
				"z": 1.8963372125,
				"element": "H" 
			},
			{
				"x": -1.0390208064,
				"y": 0.0419564385,
				"z": 2.2690211698,
				"element": "H" 
			},
			{
				"x": -1.7553048266,
				"y": 0.6906634035,
				"z": 0.7839401945,
				"element": "H" 
			},
			{
				"x": -0.8253981766,
				"y": 3.9054750068,
				"z": -2.3068990932,
				"element": "H" 
			}
		],
		 "valence_orbital": [ 
			{
				"type": "occ",
				"energy": -0.311,
				"method": "rhf"
			},
			{
				"type": "occ",
				"energy": -0.29631,
				"method": "rhf"
			},
			{
				"type": "occ",
				"energy": -0.29153,
				"method": "rhf"
			},
			{
				"type": "occ",
				"energy": -0.27964,
				"method": "rhf"
			},
			{
				"type": "occ",
				"energy": -0.24529,
				"method": "rhf"
			},
			{
				"type": "unocc",
				"energy": -0.00139,
				"method": "rhf"
			},
			{
				"type": "unocc",
				"energy": 0.06421,
				"method": "rhf"
			},
			{
				"type": "unocc",
				"energy": 0.06781,
				"method": "rhf"
			},
			{
				"type": "unocc",
				"energy": 0.07466,
				"method": "rhf"
			},
			{
				"type": "unocc",
				"energy": 0.08714,
				"method": "rhf"
			}
		],
		"cosmo_sigma_profile": { 
			"-0.025": 0.0,
			"-0.024": 0.0,
			"-0.023": 0.0,
			"-0.022": 0.0,
			"-0.021": 0.0,
			"-0.02": 0.0,
			"-0.019": 0.0,
			"-0.018": 0.644362764135,
			"-0.017": 0.786471948708,
			"-0.016": 1.09986263984,
			"-0.015": 0.986275334679,
			"-0.014": 0.470357965473,
			"-0.013": 0.69798154227,
			"-0.012": 0.489851980804,
			"-0.011": 0.856543015654,
			"-0.01": 0.816313174861,
			"-0.009": 0.565736474527,
			"-0.008": 3.20456721514,
			"-0.007": 5.76731422154,
			"-0.006": 9.21137946176,
			"-0.005": 14.7777476873,
			"-0.004": 26.9193519511,
			"-0.003": 30.5827941633,
			"-0.002": 24.4995726478,
			"-0.001": 23.030755644,
			"0.0": 15.1338586556,
			"0.001": 8.3572471641,
			"0.002": 7.13347417317,
			"0.003": 6.94320260972,
			"0.004": 6.55513856016,
			"0.005": 6.29807571086,
			"0.006": 4.37354545958,
			"0.007": 4.85026832818,
			"0.008": 6.18367215534,
			"0.009": 5.32921626871,
			"0.01": 6.81117370015,
			"0.011": 11.9623618674,
			"0.012": 8.70965534678,
			"0.013": 0.577539875314,
			"0.014": 0.0,
			"0.015": 0.0,
			"0.016": 0.0,
			"0.017": 0.0,
			"0.018": 0.0,
			"0.019": 0.0,
			"0.02": 0.0,
			"0.021": 0.0,
			"0.022": 0.0,
			"0.023": 0.0,
			"0.024": 0.0,
			"0.025": 0.0
		}
	}
}
