{
	 "smiles": "CN1C(C)=CC=C1C1=NC(=CS1)C(O)=O", 
	 "Tm": 413.15, 
	 "num_atms": 25, 
	 "gaussian": { 
		 "optdone": 1, 
		 "sigma_profile": "yes", 
		 "theory": "DFT", 
		 "functional": "B3LYP", 
		 "basiset": "6-31G**", 
		 "properties": { 
			 "R2extent": 4840.9143, 
			 "electric_dipole_moment_norm": 3.16123495014, 
			 "electric_quadrupole_moment_norm": 10.3934450343, 
			 "total_energy": -1045.23785635, 
			 "HOMO_LUMO_gap": 0.147, 
			 "cosmo_polarized_energy": -12.45, 
			 "cosmo_cavitation_energy": 31.14, 
			 "cosmo_dispersion_energy": -22.93, 
			 "cosmo_repulsion_energy": 1.74, 
			 "cosmo_total_nonelectrostatic_energy": 9.94, 
			 "SMD_solvation_energy": 5.88 
		},
		"coords": [
			{
				"x": -1.1535081775,
				"y": 0.4455815857,
				"z": -1.157790759,
				"element": "C" 
			},
			{
				"x": 0.0579981533,
				"y": 0.8658382882,
				"z": -0.460695172,
				"element": "N" 
			},
			{
				"x": 0.5251842754,
				"y": 2.158197029,
				"z": -0.395531388,
				"element": "C" 
			},
			{
				"x": -0.1654530547,
				"y": 3.3154297184,
				"z": -1.0446155712,
				"element": "C" 
			},
			{
				"x": 1.6960491925,
				"y": 2.1579133288,
				"z": 0.3514302058,
				"element": "C" 
			},
			{
				"x": 1.9498139804,
				"y": 0.8337457676,
				"z": 0.7519114841,
				"element": "C" 
			},
			{
				"x": 0.92777248,
				"y": 0.0358378224,
				"z": 0.2436746,
				"element": "C" 
			},
			{
				"x": 0.7429503451,
				"y": -1.3872960672,
				"z": 0.3820663517,
				"element": "C" 
			},
			{
				"x": -0.2352043528,
				"y": -2.1004733652,
				"z": -0.1138366704,
				"element": "N" 
			},
			{
				"x": -0.1048796944,
				"y": -3.4309638914,
				"z": 0.2089312502,
				"element": "C" 
			},
			{
				"x": 0.9869510193,
				"y": -3.7652374218,
				"z": 0.9659941438,
				"element": "C" 
			},
			{
				"x": 1.9224605654,
				"y": -2.3588863295,
				"z": 1.3099520174,
				"element": "S" 
			},
			{
				"x": -1.0819916583,
				"y": -4.4527766715,
				"z": -0.2307506524,
				"element": "C" 
			},
			{
				"x": -2.0926699951,
				"y": -3.9408996611,
				"z": -0.9677535776,
				"element": "O" 
			},
			{
				"x": -0.995465731,
				"y": -5.6361069023,
				"z": 0.037350509,
				"element": "O" 
			},
			{
				"x": -0.9200037499,
				"y": -0.2859359571,
				"z": -1.9333454258,
				"element": "H" 
			},
			{
				"x": -1.8559598202,
				"y": -0.0220989595,
				"z": -0.465724719,
				"element": "H" 
			},
			{
				"x": -1.6168088785,
				"y": 1.3215594933,
				"z": -1.6107141199,
				"element": "H" 
			},
			{
				"x": -0.2405296478,
				"y": 3.2038531176,
				"z": -2.1333362782,
				"element": "H" 
			},
			{
				"x": -1.1807554114,
				"y": 3.469698237,
				"z": -0.6589287523,
				"element": "H" 
			},
			{
				"x": 0.4026905755,
				"y": 4.2270945746,
				"z": -0.8466803213,
				"element": "H" 
			},
			{
				"x": 2.2918678479,
				"y": 3.0319867041,
				"z": 0.5740319748,
				"element": "H" 
			},
			{
				"x": 2.7828858195,
				"y": 0.4840869965,
				"z": 1.3463302245,
				"element": "H" 
			},
			{
				"x": 1.2607907223,
				"y": -4.7486923494,
				"z": 1.317891789,
				"element": "H" 
			},
			{
				"x": -2.6563848048,
				"y": -4.7005550871,
				"z": -1.1907611434,
				"element": "H" 
			}
		],
		 "valence_orbital": [ 
			{
				"type": "occ",
				"energy": -0.28173,
				"method": "rhf"
			},
			{
				"type": "occ",
				"energy": -0.27122,
				"method": "rhf"
			},
			{
				"type": "occ",
				"energy": -0.27088,
				"method": "rhf"
			},
			{
				"type": "occ",
				"energy": -0.24269,
				"method": "rhf"
			},
			{
				"type": "occ",
				"energy": -0.19748,
				"method": "rhf"
			},
			{
				"type": "unocc",
				"energy": -0.05048,
				"method": "rhf"
			},
			{
				"type": "unocc",
				"energy": -0.02254,
				"method": "rhf"
			},
			{
				"type": "unocc",
				"energy": 0.0143,
				"method": "rhf"
			},
			{
				"type": "unocc",
				"energy": 0.05525,
				"method": "rhf"
			},
			{
				"type": "unocc",
				"energy": 0.08292,
				"method": "rhf"
			}
		],
		"cosmo_sigma_profile": { 
			"-0.025": 0.0,
			"-0.024": 0.0,
			"-0.023": 0.0,
			"-0.022": 0.0,
			"-0.021": 0.0,
			"-0.02": 0.0,
			"-0.019": 0.0618541873224,
			"-0.018": 0.793577574118,
			"-0.017": 0.983678972793,
			"-0.016": 0.73415905713,
			"-0.015": 0.742753594113,
			"-0.014": 0.874407263881,
			"-0.013": 0.907929938371,
			"-0.012": 0.390648713968,
			"-0.011": 0.49585075263,
			"-0.01": 1.6604652976,
			"-0.009": 2.06974059486,
			"-0.008": 2.18236268478,
			"-0.007": 3.01420373072,
			"-0.006": 7.91427958522,
			"-0.005": 17.7355169331,
			"-0.004": 17.9040622624,
			"-0.003": 19.4437590584,
			"-0.002": 21.1345941394,
			"-0.001": 20.9716121163,
			"0.0": 24.0630526236,
			"0.001": 22.9930906472,
			"0.002": 17.3851535773,
			"0.003": 12.5772643717,
			"0.004": 9.4423636429,
			"0.005": 7.90881029875,
			"0.006": 8.30535128414,
			"0.007": 5.58886050019,
			"0.008": 3.75492752052,
			"0.009": 3.96728712948,
			"0.01": 3.42508928488,
			"0.011": 5.61098447859,
			"0.012": 5.03699983454,
			"0.013": 0.644613728815,
			"0.014": 0.01475391121,
			"0.015": 0.0,
			"0.016": 0.0,
			"0.017": 0.0,
			"0.018": 0.0,
			"0.019": 0.0,
			"0.02": 0.0,
			"0.021": 0.0,
			"0.022": 0.0,
			"0.023": 0.0,
			"0.024": 0.0,
			"0.025": 0.0
		}
	}
}
