{
	 "smiles": "CN1CCC(CC1)N(CC1=CC=CC=C1)C1=CC=CC=C1", 
	 "Tm": 387.15, 
	 "num_atms": 45, 
	 "gaussian": { 
		 "optdone": 1, 
		 "sigma_profile": "yes", 
		 "theory": "DFT", 
		 "functional": "B3LYP", 
		 "basiset": "6-31G**", 
		 "properties": { 
			 "R2extent": 8467.3772, 
			 "electric_dipole_moment_norm": 0.609927454703, 
			 "electric_quadrupole_moment_norm": 3.99322944119, 
			 "total_energy": -847.966206855, 
			 "HOMO_LUMO_gap": 0.20032, 
			 "cosmo_polarized_energy": -8.18, 
			 "cosmo_cavitation_energy": 44.72, 
			 "cosmo_dispersion_energy": -30.25, 
			 "cosmo_repulsion_energy": 2.34, 
			 "cosmo_total_nonelectrostatic_energy": 16.8, 
			 "SMD_solvation_energy": 4.21 
		},
		"coords": [
			{
				"x": 3.6554688515,
				"y": 1.330992973,
				"z": -2.3973107168,
				"element": "C" 
			},
			{
				"x": 2.5505634433,
				"y": 1.0822108889,
				"z": -1.4901537111,
				"element": "N" 
			},
			{
				"x": 1.2540717692,
				"y": 1.492699459,
				"z": -2.0215031132,
				"element": "C" 
			},
			{
				"x": 0.111699656,
				"y": 0.8565832418,
				"z": -1.1970638357,
				"element": "C" 
			},
			{
				"x": 0.542855968,
				"y": 0.5793537783,
				"z": 0.2620700017,
				"element": "C" 
			},
			{
				"x": 1.5016849395,
				"y": 1.7086431769,
				"z": 0.6753802612,
				"element": "C" 
			},
			{
				"x": 2.7909252831,
				"y": 1.6716913562,
				"z": -0.1701957572,
				"element": "C" 
			},
			{
				"x": -0.6284067407,
				"y": 0.517221859,
				"z": 1.1731633076,
				"element": "N" 
			},
			{
				"x": -0.2924496265,
				"y": -0.0004671063,
				"z": 2.5131601235,
				"element": "C" 
			},
			{
				"x": -1.2920997146,
				"y": 0.406099068,
				"z": 3.5798374628,
				"element": "C" 
			},
			{
				"x": -1.8525521653,
				"y": -0.5450903125,
				"z": 4.4376392089,
				"element": "C" 
			},
			{
				"x": -2.7330228071,
				"y": -0.1626340496,
				"z": 5.4531173763,
				"element": "C" 
			},
			{
				"x": -3.0665961858,
				"y": 1.1812497012,
				"z": 5.618937579,
				"element": "C" 
			},
			{
				"x": -2.5157216848,
				"y": 2.1396786276,
				"z": 4.7630196116,
				"element": "C" 
			},
			{
				"x": -1.6360579469,
				"y": 1.7541673863,
				"z": 3.752930517,
				"element": "C" 
			},
			{
				"x": -1.7867443437,
				"y": -0.1671052324,
				"z": 0.6398633951,
				"element": "C" 
			},
			{
				"x": -1.7328953769,
				"y": -1.5019743584,
				"z": 0.2104654924,
				"element": "C" 
			},
			{
				"x": -2.8735983937,
				"y": -2.1331797983,
				"z": -0.2862605203,
				"element": "C" 
			},
			{
				"x": -4.0865778392,
				"y": -1.4429320169,
				"z": -0.348431581,
				"element": "C" 
			},
			{
				"x": -4.149420213,
				"y": -0.1181758281,
				"z": 0.0855584181,
				"element": "C" 
			},
			{
				"x": -3.0053273049,
				"y": 0.5156145536,
				"z": 0.5751242851,
				"element": "C" 
			},
			{
				"x": 3.810179485,
				"y": 2.4061154806,
				"z": -2.6180877693,
				"element": "H" 
			},
			{
				"x": 3.4869190786,
				"y": 0.8104575648,
				"z": -3.345771225,
				"element": "H" 
			},
			{
				"x": 4.5841816171,
				"y": 0.9461519906,
				"z": -1.9614201905,
				"element": "H" 
			},
			{
				"x": 1.1862206189,
				"y": 1.1610393886,
				"z": -3.062785756,
				"element": "H" 
			},
			{
				"x": 1.1517604137,
				"y": 2.596520048,
				"z": -2.0429606383,
				"element": "H" 
			},
			{
				"x": -0.2168299637,
				"y": -0.0724095854,
				"z": -1.669201092,
				"element": "H" 
			},
			{
				"x": -0.7508257844,
				"y": 1.5319009964,
				"z": -1.189292655,
				"element": "H" 
			},
			{
				"x": 1.104137171,
				"y": -0.3711025365,
				"z": 0.2799991265,
				"element": "H" 
			},
			{
				"x": 1.7725020063,
				"y": 1.6598555645,
				"z": 1.733574833,
				"element": "H" 
			},
			{
				"x": 0.9737328378,
				"y": 2.6596401823,
				"z": 0.5374602304,
				"element": "H" 
			},
			{
				"x": 3.1937839983,
				"y": 2.7009859453,
				"z": -0.2526812762,
				"element": "H" 
			},
			{
				"x": 3.562132979,
				"y": 1.0721009151,
				"z": 0.3314496389,
				"element": "H" 
			},
			{
				"x": 0.6879595196,
				"y": 0.3997949051,
				"z": 2.7894931416,
				"element": "H" 
			},
			{
				"x": -0.1860936849,
				"y": -1.099154898,
				"z": 2.5135822921,
				"element": "H" 
			},
			{
				"x": -1.6008022331,
				"y": -1.5949622007,
				"z": 4.3079141684,
				"element": "H" 
			},
			{
				"x": -3.161134393,
				"y": -0.9159526499,
				"z": 6.1087306409,
				"element": "H" 
			},
			{
				"x": -3.7526416302,
				"y": 1.4814828544,
				"z": 6.40601339,
				"element": "H" 
			},
			{
				"x": -2.7721727843,
				"y": 3.1886599345,
				"z": 4.885206203,
				"element": "H" 
			},
			{
				"x": -1.2149827118,
				"y": 2.4940917868,
				"z": 3.0783175146,
				"element": "H" 
			},
			{
				"x": -0.7927802026,
				"y": -2.0453559475,
				"z": 0.2588985004,
				"element": "H" 
			},
			{
				"x": -2.816251889,
				"y": -3.1646375714,
				"z": -0.6235115545,
				"element": "H" 
			},
			{
				"x": -4.9752924469,
				"y": -1.9353664947,
				"z": -0.7327668272,
				"element": "H" 
			},
			{
				"x": -5.089156758,
				"y": 0.4253319828,
				"z": 0.0419227842,
				"element": "H" 
			},
			{
				"x": -3.0391448106,
				"y": 1.544964977,
				"z": 0.9157687152,
				"element": "H" 
			}
		],
		 "valence_orbital": [ 
			{
				"type": "occ",
				"energy": -0.24223,
				"method": "rhf"
			},
			{
				"type": "occ",
				"energy": -0.23965,
				"method": "rhf"
			},
			{
				"type": "occ",
				"energy": -0.23612,
				"method": "rhf"
			},
			{
				"type": "occ",
				"energy": -0.21577,
				"method": "rhf"
			},
			{
				"type": "occ",
				"energy": -0.20097,
				"method": "rhf"
			},
			{
				"type": "unocc",
				"energy": -0.00065,
				"method": "rhf"
			},
			{
				"type": "unocc",
				"energy": 0.00215,
				"method": "rhf"
			},
			{
				"type": "unocc",
				"energy": 0.00493,
				"method": "rhf"
			},
			{
				"type": "unocc",
				"energy": 0.01107,
				"method": "rhf"
			},
			{
				"type": "unocc",
				"energy": 0.07784,
				"method": "rhf"
			}
		],
		"cosmo_sigma_profile": { 
			"-0.025": 0.0,
			"-0.024": 0.0,
			"-0.023": 0.0,
			"-0.022": 0.0,
			"-0.021": 0.0,
			"-0.02": 0.0,
			"-0.019": 0.0,
			"-0.018": 0.0,
			"-0.017": 0.0,
			"-0.016": 0.0,
			"-0.015": 0.0,
			"-0.014": 0.0,
			"-0.013": 0.0,
			"-0.012": 0.0,
			"-0.011": 0.0,
			"-0.01": 0.0,
			"-0.009": 0.0,
			"-0.008": 0.0,
			"-0.007": 0.0,
			"-0.006": 3.98743932346,
			"-0.005": 19.4213623531,
			"-0.004": 26.7805489584,
			"-0.003": 39.655887522,
			"-0.002": 43.8422106014,
			"-0.001": 50.5559772101,
			"0.0": 41.4087839177,
			"0.001": 26.7784507002,
			"0.002": 16.3961919711,
			"0.003": 16.1622257664,
			"0.004": 17.1995481572,
			"0.005": 16.7759873158,
			"0.006": 18.6367077262,
			"0.007": 5.94434577548,
			"0.008": 1.89304503694,
			"0.009": 1.13496317273,
			"0.01": 1.24638961137,
			"0.011": 0.637252997285,
			"0.012": 0.668538777751,
			"0.013": 0.443876388423,
			"0.014": 0.232514474337,
			"0.015": 0.579861950874,
			"0.016": 0.102106921833,
			"0.017": 0.0,
			"0.018": 0.0,
			"0.019": 0.0,
			"0.02": 0.0,
			"0.021": 0.0,
			"0.022": 0.0,
			"0.023": 0.0,
			"0.024": 0.0,
			"0.025": 0.0
		}
	}
}
