{
	 "smiles": "CC1(C)C2CCC1(C)C(=O)C2=C", 
	 "Tm": 318.15, 
	 "num_atms": 28, 
	 "gaussian": { 
		 "optdone": 1, 
		 "sigma_profile": "yes", 
		 "theory": "DFT", 
		 "functional": "B3LYP", 
		 "basiset": "6-31G**", 
		 "properties": { 
			 "R2extent": 2281.5828, 
			 "electric_dipole_moment_norm": 3.00867786411, 
			 "electric_quadrupole_moment_norm": 11.9468560597, 
			 "total_energy": -504.022578646, 
			 "HOMO_LUMO_gap": 0.18498, 
			 "cosmo_polarized_energy": -6.81, 
			 "cosmo_cavitation_energy": 27.78, 
			 "cosmo_dispersion_energy": -19.46, 
			 "cosmo_repulsion_energy": 1.51, 
			 "cosmo_total_nonelectrostatic_energy": 9.84, 
			 "SMD_solvation_energy": 5.8 
		},
		"coords": [
			{
				"x": -0.2742811169,
				"y": -1.626833725,
				"z": 0.0017211699,
				"element": "C" 
			},
			{
				"x": -0.5282920947,
				"y": -0.1765545469,
				"z": 0.4426604591,
				"element": "C" 
			},
			{
				"x": 0.4348437842,
				"y": 0.1387068429,
				"z": 1.6010078126,
				"element": "C" 
			},
			{
				"x": -2.0287052022,
				"y": 0.1300365523,
				"z": 0.7857712565,
				"element": "C" 
			},
			{
				"x": -2.7402625343,
				"y": -0.0918062516,
				"z": -0.579815892,
				"element": "C" 
			},
			{
				"x": -1.6986259685,
				"y": 0.4528917338,
				"z": -1.6047598406,
				"element": "C" 
			},
			{
				"x": -0.4715330682,
				"y": 0.8771297072,
				"z": -0.7272222596,
				"element": "C" 
			},
			{
				"x": 0.8253553398,
				"y": 1.0847752338,
				"z": -1.4881994452,
				"element": "C" 
			},
			{
				"x": -0.9804860865,
				"y": 2.1305571994,
				"z": 0.0024354759,
				"element": "C" 
			},
			{
				"x": -0.6475727168,
				"y": 3.2836392062,
				"z": -0.1934294546,
				"element": "O" 
			},
			{
				"x": -1.9955271036,
				"y": 1.6289196889,
				"z": 0.9969694125,
				"element": "C" 
			},
			{
				"x": -2.6697194191,
				"y": 2.4151827731,
				"z": 1.8374391224,
				"element": "C" 
			},
			{
				"x": -0.4821342656,
				"y": -2.3134300256,
				"z": 0.8305027467,
				"element": "H" 
			},
			{
				"x": 0.7761664292,
				"y": -1.7627712526,
				"z": -0.276982842,
				"element": "H" 
			},
			{
				"x": -0.8823844231,
				"y": -1.94311184,
				"z": -0.8480548027,
				"element": "H" 
			},
			{
				"x": 0.2629793563,
				"y": -0.5497936325,
				"z": 2.4360830759,
				"element": "H" 
			},
			{
				"x": 1.475664861,
				"y": 0.0142957269,
				"z": 1.2839598656,
				"element": "H" 
			},
			{
				"x": 0.3237609692,
				"y": 1.1557905795,
				"z": 1.986421438,
				"element": "H" 
			},
			{
				"x": -2.4521447215,
				"y": -0.4405138993,
				"z": 1.6170910545,
				"element": "H" 
			},
			{
				"x": -3.6928815615,
				"y": 0.4423672639,
				"z": -0.6244819402,
				"element": "H" 
			},
			{
				"x": -2.9539182947,
				"y": -1.1518323974,
				"z": -0.7443959016,
				"element": "H" 
			},
			{
				"x": -2.0794473913,
				"y": 1.2966385051,
				"z": -2.1884290809,
				"element": "H" 
			},
			{
				"x": -1.3910398856,
				"y": -0.3145523834,
				"z": -2.3217722019,
				"element": "H" 
			},
			{
				"x": 1.1086964365,
				"y": 0.1870722612,
				"z": -2.0474001738,
				"element": "H" 
			},
			{
				"x": 0.7187272139,
				"y": 1.91173466,
				"z": -2.1968416864,
				"element": "H" 
			},
			{
				"x": 1.6475776596,
				"y": 1.3442869204,
				"z": -0.8140586601,
				"element": "H" 
			},
			{
				"x": -3.3900832181,
				"y": 2.0254661923,
				"z": 2.5513381537,
				"element": "H" 
			},
			{
				"x": -2.5000329775,
				"y": 3.4885089074,
				"z": 1.8229431384,
				"element": "H" 
			}
		],
		 "valence_orbital": [ 
			{
				"type": "occ",
				"energy": -0.33078,
				"method": "rhf"
			},
			{
				"type": "occ",
				"energy": -0.31457,
				"method": "rhf"
			},
			{
				"type": "occ",
				"energy": -0.29831,
				"method": "rhf"
			},
			{
				"type": "occ",
				"energy": -0.26086,
				"method": "rhf"
			},
			{
				"type": "occ",
				"energy": -0.23257,
				"method": "rhf"
			},
			{
				"type": "unocc",
				"energy": -0.04759,
				"method": "rhf"
			},
			{
				"type": "unocc",
				"energy": 0.07065,
				"method": "rhf"
			},
			{
				"type": "unocc",
				"energy": 0.07395,
				"method": "rhf"
			},
			{
				"type": "unocc",
				"energy": 0.10623,
				"method": "rhf"
			},
			{
				"type": "unocc",
				"energy": 0.1137,
				"method": "rhf"
			}
		],
		"cosmo_sigma_profile": { 
			"-0.025": 0.0,
			"-0.024": 0.0,
			"-0.023": 0.0,
			"-0.022": 0.0,
			"-0.021": 0.0,
			"-0.02": 0.0,
			"-0.019": 0.0,
			"-0.018": 0.0,
			"-0.017": 0.0,
			"-0.016": 0.0,
			"-0.015": 0.0,
			"-0.014": 0.0,
			"-0.013": 0.0,
			"-0.012": 0.0,
			"-0.011": 0.0,
			"-0.01": 0.0,
			"-0.009": 0.0,
			"-0.008": 0.0,
			"-0.007": 0.219753694482,
			"-0.006": 2.12250920228,
			"-0.005": 2.68675537374,
			"-0.004": 12.0112858822,
			"-0.003": 29.9816502259,
			"-0.002": 38.8226306152,
			"-0.001": 32.8084953351,
			"0.0": 30.5886969959,
			"0.001": 26.1200733985,
			"0.002": 9.81069847672,
			"0.003": 6.66268345317,
			"0.004": 2.58702826972,
			"0.005": 2.23232655096,
			"0.006": 1.84356223877,
			"0.007": 1.56475080448,
			"0.008": 1.36381480581,
			"0.009": 2.50825837538,
			"0.01": 1.93036467082,
			"0.011": 2.62132852848,
			"0.012": 5.06746118119,
			"0.013": 1.93541876879,
			"0.014": 0.020378991478,
			"0.015": 0.0,
			"0.016": 0.0,
			"0.017": 0.0,
			"0.018": 0.0,
			"0.019": 0.0,
			"0.02": 0.0,
			"0.021": 0.0,
			"0.022": 0.0,
			"0.023": 0.0,
			"0.024": 0.0,
			"0.025": 0.0
		}
	}
}
