{
	 "smiles": "CC1=C(C(O)=O)C(C)=C(C=C1)S(Cl)(=O)=O", 
	 "Tm": 421.15, 
	 "num_atms": 24, 
	 "gaussian": { 
		 "optdone": 1, 
		 "sigma_profile": "yes", 
		 "theory": "DFT", 
		 "functional": "B3LYP", 
		 "basiset": "6-31G**", 
		 "properties": { 
			 "R2extent": 5522.6483, 
			 "electric_dipole_moment_norm": 6.0354031978, 
			 "electric_quadrupole_moment_norm": 13.2967124162, 
			 "total_energy": -1507.60730569, 
			 "HOMO_LUMO_gap": 0.1887, 
			 "cosmo_polarized_energy": -13.46, 
			 "cosmo_cavitation_energy": 30.83, 
			 "cosmo_dispersion_energy": -22.81, 
			 "cosmo_repulsion_energy": 1.73, 
			 "cosmo_total_nonelectrostatic_energy": 9.74, 
			 "SMD_solvation_energy": 5.03 
		},
		"coords": [
			{
				"x": 0.6518014896,
				"y": 1.4957242699,
				"z": 1.7174024865,
				"element": "C" 
			},
			{
				"x": -0.0267373321,
				"y": 0.40848591,
				"z": 0.9167778659,
				"element": "C" 
			},
			{
				"x": -0.6332243698,
				"y": 0.6485681017,
				"z": -0.335910235,
				"element": "C" 
			},
			{
				"x": -0.6515916138,
				"y": 2.0412058782,
				"z": -0.8989802291,
				"element": "C" 
			},
			{
				"x": 0.5803597223,
				"y": 2.6013245822,
				"z": -0.9466726915,
				"element": "O" 
			},
			{
				"x": -1.6415404532,
				"y": 2.6241422243,
				"z": -1.2845432785,
				"element": "O" 
			},
			{
				"x": -1.2839681542,
				"y": -0.3703397596,
				"z": -1.0693136312,
				"element": "C" 
			},
			{
				"x": -1.9534240051,
				"y": -0.063895885,
				"z": -2.390256955,
				"element": "C" 
			},
			{
				"x": -1.282150848,
				"y": -1.6527733336,
				"z": -0.4878797477,
				"element": "C" 
			},
			{
				"x": -0.7010873767,
				"y": -1.9160756988,
				"z": 0.7543569162,
				"element": "C" 
			},
			{
				"x": -0.0806727221,
				"y": -0.8853524085,
				"z": 1.444889517,
				"element": "C" 
			},
			{
				"x": -2.0059158411,
				"y": -3.097252285,
				"z": -1.2836359809,
				"element": "S" 
			},
			{
				"x": -4.0877843679,
				"y": -2.6274814385,
				"z": -1.229366254,
				"element": "Cl" 
			},
			{
				"x": -1.6362409178,
				"y": -3.1684625161,
				"z": -2.6932843442,
				"element": "O" 
			},
			{
				"x": -1.8333897071,
				"y": -4.2493084379,
				"z": -0.4070128454,
				"element": "O" 
			},
			{
				"x": 0.8608423018,
				"y": 1.145775536,
				"z": 2.7308619114,
				"element": "H" 
			},
			{
				"x": 1.595258415,
				"y": 1.7955898374,
				"z": 1.2528795781,
				"element": "H" 
			},
			{
				"x": 0.0324146581,
				"y": 2.3947814717,
				"z": 1.7903535315,
				"element": "H" 
			},
			{
				"x": 0.4546819357,
				"y": 3.4981301797,
				"z": -1.3027581869,
				"element": "H" 
			},
			{
				"x": -2.092523769,
				"y": -0.9565793461,
				"z": -2.9944308609,
				"element": "H" 
			},
			{
				"x": -1.3658178439,
				"y": 0.6506941566,
				"z": -2.9695067389,
				"element": "H" 
			},
			{
				"x": -2.9281280461,
				"y": 0.4003158229,
				"z": -2.2134320707,
				"element": "H" 
			},
			{
				"x": -0.740865796,
				"y": -2.9176154787,
				"z": 1.1647428294,
				"element": "H" 
			},
			{
				"x": 0.3681046413,
				"y": -1.0862013828,
				"z": 2.4127194138,
				"element": "H" 
			}
		],
		 "valence_orbital": [ 
			{
				"type": "occ",
				"energy": -0.33102,
				"method": "rhf"
			},
			{
				"type": "occ",
				"energy": -0.3134,
				"method": "rhf"
			},
			{
				"type": "occ",
				"energy": -0.30124,
				"method": "rhf"
			},
			{
				"type": "occ",
				"energy": -0.28133,
				"method": "rhf"
			},
			{
				"type": "occ",
				"energy": -0.27714,
				"method": "rhf"
			},
			{
				"type": "unocc",
				"energy": -0.08844,
				"method": "rhf"
			},
			{
				"type": "unocc",
				"energy": -0.06242,
				"method": "rhf"
			},
			{
				"type": "unocc",
				"energy": -0.04328,
				"method": "rhf"
			},
			{
				"type": "unocc",
				"energy": 0.00601,
				"method": "rhf"
			},
			{
				"type": "unocc",
				"energy": 0.04741,
				"method": "rhf"
			}
		],
		"cosmo_sigma_profile": { 
			"-0.025": 0.0,
			"-0.024": 0.0,
			"-0.023": 0.0,
			"-0.022": 0.0,
			"-0.021": 0.0,
			"-0.02": 0.0,
			"-0.019": 0.374152707666,
			"-0.018": 0.893457693926,
			"-0.017": 0.868897564294,
			"-0.016": 1.31458182049,
			"-0.015": 0.139917926629,
			"-0.014": 0.326762733478,
			"-0.013": 0.554941851356,
			"-0.012": 1.23785004057,
			"-0.011": 0.974807701443,
			"-0.01": 0.604823889186,
			"-0.009": 0.723613326332,
			"-0.008": 2.3995213477,
			"-0.007": 7.28215959775,
			"-0.006": 10.557085994,
			"-0.005": 11.8487372475,
			"-0.004": 13.5605785803,
			"-0.003": 16.7715533867,
			"-0.002": 22.6052708086,
			"-0.001": 27.5876182014,
			"0.0": 23.7075092375,
			"0.001": 19.0051695145,
			"0.002": 14.653402828,
			"0.003": 15.7707444386,
			"0.004": 10.5367425961,
			"0.005": 5.81582998912,
			"0.006": 5.42548998988,
			"0.007": 8.28162536981,
			"0.008": 10.6819297881,
			"0.009": 6.2575381734,
			"0.01": 2.25344130624,
			"0.011": 4.63516847727,
			"0.012": 0.568416845203,
			"0.013": 0.0,
			"0.014": 0.0,
			"0.015": 0.0,
			"0.016": 0.0,
			"0.017": 0.0,
			"0.018": 0.0,
			"0.019": 0.0,
			"0.02": 0.0,
			"0.021": 0.0,
			"0.022": 0.0,
			"0.023": 0.0,
			"0.024": 0.0,
			"0.025": 0.0
		}
	}
}
