{
	 "smiles": "NCC(=O)NC1=CC=C(F)C=C1", 
	 "Tm": 359.15, 
	 "num_atms": 21, 
	 "gaussian": { 
		 "optdone": 1, 
		 "sigma_profile": "yes", 
		 "theory": "DFT", 
		 "functional": "B3LYP", 
		 "basiset": "6-31G**", 
		 "properties": { 
			 "R2extent": 3782.1231, 
			 "electric_dipole_moment_norm": 3.73044955468, 
			 "electric_quadrupole_moment_norm": 9.93640238869, 
			 "total_energy": -594.846010091, 
			 "HOMO_LUMO_gap": 0.20689, 
			 "cosmo_polarized_energy": -16.25, 
			 "cosmo_cavitation_energy": 25.67, 
			 "cosmo_dispersion_energy": -18.83, 
			 "cosmo_repulsion_energy": 1.49, 
			 "cosmo_total_nonelectrostatic_energy": 8.33, 
			 "SMD_solvation_energy": 4.37 
		},
		"coords": [
			{
				"x": 2.5213141358,
				"y": -0.1587595748,
				"z": 0.1276097133,
				"element": "N" 
			},
			{
				"x": 1.6020108529,
				"y": 0.7806353176,
				"z": -0.4920143171,
				"element": "C" 
			},
			{
				"x": 0.0764510183,
				"y": 0.6210916485,
				"z": -0.3230510824,
				"element": "C" 
			},
			{
				"x": -0.6837375833,
				"y": 1.4222860718,
				"z": -0.8512441541,
				"element": "O" 
			},
			{
				"x": -0.3119959261,
				"y": -0.4515192855,
				"z": 0.4375459041,
				"element": "N" 
			},
			{
				"x": -1.6133548833,
				"y": -0.8751277953,
				"z": 0.7818836991,
				"element": "C" 
			},
			{
				"x": -2.7719024314,
				"y": -0.2033170931,
				"z": 0.3594112306,
				"element": "C" 
			},
			{
				"x": -4.0252498079,
				"y": -0.6815369976,
				"z": 0.7399638813,
				"element": "C" 
			},
			{
				"x": -4.1183532922,
				"y": -1.8179984131,
				"z": 1.5335186781,
				"element": "C" 
			},
			{
				"x": -5.3366302163,
				"y": -2.2745487289,
				"z": 1.8976882926,
				"element": "F" 
			},
			{
				"x": -2.9850965865,
				"y": -2.4983383133,
				"z": 1.9629154668,
				"element": "C" 
			},
			{
				"x": -1.733439688,
				"y": -2.0212065158,
				"z": 1.5831770183,
				"element": "C" 
			},
			{
				"x": 2.4380237103,
				"y": -1.1058133502,
				"z": -0.2240472925,
				"element": "H" 
			},
			{
				"x": 2.4887107106,
				"y": -0.1558484035,
				"z": 1.1407444551,
				"element": "H" 
			},
			{
				"x": 1.7817169765,
				"y": 0.7961739691,
				"z": -1.5724928853,
				"element": "H" 
			},
			{
				"x": 1.8357643021,
				"y": 1.7922253538,
				"z": -0.1427192949,
				"element": "H" 
			},
			{
				"x": 0.4466575779,
				"y": -1.0128866952,
				"z": 0.7990683152,
				"element": "H" 
			},
			{
				"x": -2.6752075352,
				"y": 0.6789308083,
				"z": -0.2575212459,
				"element": "H" 
			},
			{
				"x": -4.931394136,
				"y": -0.1761614889,
				"z": 0.4234829991,
				"element": "H" 
			},
			{
				"x": -3.0885130812,
				"y": -3.3828458267,
				"z": 2.5817574133,
				"element": "H" 
			},
			{
				"x": -0.840274117,
				"y": -2.5463346871,
				"z": 1.9139232055,
				"element": "H" 
			}
		],
		 "valence_orbital": [ 
			{
				"type": "occ",
				"energy": -0.30237,
				"method": "rhf"
			},
			{
				"type": "occ",
				"energy": -0.29056,
				"method": "rhf"
			},
			{
				"type": "occ",
				"energy": -0.26259,
				"method": "rhf"
			},
			{
				"type": "occ",
				"energy": -0.235,
				"method": "rhf"
			},
			{
				"type": "occ",
				"energy": -0.22002,
				"method": "rhf"
			},
			{
				"type": "unocc",
				"energy": -0.01313,
				"method": "rhf"
			},
			{
				"type": "unocc",
				"energy": -0.01199,
				"method": "rhf"
			},
			{
				"type": "unocc",
				"energy": 0.04663,
				"method": "rhf"
			},
			{
				"type": "unocc",
				"energy": 0.04719,
				"method": "rhf"
			},
			{
				"type": "unocc",
				"energy": 0.0824,
				"method": "rhf"
			}
		],
		"cosmo_sigma_profile": { 
			"-0.025": 0.0,
			"-0.024": 0.0,
			"-0.023": 0.0,
			"-0.022": 0.0,
			"-0.021": 0.0,
			"-0.02": 0.0,
			"-0.019": 0.0,
			"-0.018": 0.0,
			"-0.017": 0.0,
			"-0.016": 0.0,
			"-0.015": 0.0,
			"-0.014": 0.823377584752,
			"-0.013": 2.29490414135,
			"-0.012": 3.55445489132,
			"-0.011": 5.24290595413,
			"-0.01": 4.66748692357,
			"-0.009": 2.94282938707,
			"-0.008": 3.48552222262,
			"-0.007": 7.91973496584,
			"-0.006": 10.1925271599,
			"-0.005": 11.2747984767,
			"-0.004": 10.6793533775,
			"-0.003": 8.61792237293,
			"-0.002": 10.3068217695,
			"-0.001": 8.44982545779,
			"0.0": 8.86922401773,
			"0.001": 13.8974978945,
			"0.002": 17.6895904963,
			"0.003": 15.8210921955,
			"0.004": 21.8289075548,
			"0.005": 10.2196917346,
			"0.006": 2.57629763968,
			"0.007": 2.8006838979,
			"0.008": 1.59267353956,
			"0.009": 1.53772348374,
			"0.01": 2.41433390552,
			"0.011": 2.99031990035,
			"0.012": 2.64606054554,
			"0.013": 3.67822288317,
			"0.014": 2.81723363462,
			"0.015": 1.17071728946,
			"0.016": 0.508906258535,
			"0.017": 0.551863060802,
			"0.018": 0.125283310578,
			"0.019": 0.0,
			"0.02": 0.0,
			"0.021": 0.0,
			"0.022": 0.0,
			"0.023": 0.0,
			"0.024": 0.0,
			"0.025": 0.0
		}
	}
}
