{
	 "smiles": "NC1=CC(=CC=C1)C#C", 
	 "Tm": 300.15, 
	 "num_atms": 16, 
	 "gaussian": { 
		 "optdone": 1, 
		 "sigma_profile": "yes", 
		 "theory": "DFT", 
		 "functional": "B3LYP", 
		 "basiset": "6-31G**", 
		 "properties": { 
			 "R2extent": 1265.8959, 
			 "electric_dipole_moment_norm": 2.12213290112, 
			 "electric_quadrupole_moment_norm": 8.5930624122, 
			 "total_energy": -363.754045054, 
			 "HOMO_LUMO_gap": 0.18256, 
			 "cosmo_polarized_energy": -9.69, 
			 "cosmo_cavitation_energy": 21.08, 
			 "cosmo_dispersion_energy": -15.03, 
			 "cosmo_repulsion_energy": 1.23, 
			 "cosmo_total_nonelectrostatic_energy": 7.28, 
			 "SMD_solvation_energy": 4.95 
		},
		"coords": [
			{
				"x": 1.3226554182,
				"y": -0.5198857988,
				"z": -2.3597707897,
				"element": "N" 
			},
			{
				"x": 0.5707059322,
				"y": 0.0212200884,
				"z": -1.3153386551,
				"element": "C" 
			},
			{
				"x": 0.1962491311,
				"y": -0.7717527343,
				"z": -0.2209965005,
				"element": "C" 
			},
			{
				"x": -0.6074419982,
				"y": -0.2489428892,
				"z": 0.8048777993,
				"element": "C" 
			},
			{
				"x": -1.0449048321,
				"y": 1.0872267341,
				"z": 0.7396212699,
				"element": "C" 
			},
			{
				"x": -0.6707604454,
				"y": 1.8716839301,
				"z": -0.3487724326,
				"element": "C" 
			},
			{
				"x": 0.1264350451,
				"y": 1.3546940884,
				"z": -1.3675035385,
				"element": "C" 
			},
			{
				"x": -0.9750649753,
				"y": -1.0758916369,
				"z": 1.9130655457,
				"element": "C" 
			},
			{
				"x": -1.2863987258,
				"y": -1.7731790354,
				"z": 2.8520329389,
				"element": "C" 
			},
			{
				"x": 1.8811901894,
				"y": -1.3259118344,
				"z": -2.1149267968,
				"element": "H" 
			},
			{
				"x": 1.8481872015,
				"y": 0.1509445546,
				"z": -2.9031913602,
				"element": "H" 
			},
			{
				"x": 0.5257356156,
				"y": -1.8050620635,
				"z": -0.1620644346,
				"element": "H" 
			},
			{
				"x": -1.6640094169,
				"y": 1.4892375109,
				"z": 1.5336109633,
				"element": "H" 
			},
			{
				"x": -1.002342054,
				"y": 2.904652372,
				"z": -0.4062706651,
				"element": "H" 
			},
			{
				"x": 0.4062861359,
				"y": 1.9790824913,
				"z": -2.2123626316,
				"element": "H" 
			},
			{
				"x": -1.5623222213,
				"y": -2.3866157775,
				"z": 3.6777892875,
				"element": "H" 
			}
		],
		 "valence_orbital": [ 
			{
				"type": "occ",
				"energy": -0.32803,
				"method": "rhf"
			},
			{
				"type": "occ",
				"energy": -0.28542,
				"method": "rhf"
			},
			{
				"type": "occ",
				"energy": -0.2668,
				"method": "rhf"
			},
			{
				"type": "occ",
				"energy": -0.23004,
				"method": "rhf"
			},
			{
				"type": "occ",
				"energy": -0.20458,
				"method": "rhf"
			},
			{
				"type": "unocc",
				"energy": -0.02202,
				"method": "rhf"
			},
			{
				"type": "unocc",
				"energy": 0.01266,
				"method": "rhf"
			},
			{
				"type": "unocc",
				"energy": 0.06078,
				"method": "rhf"
			},
			{
				"type": "unocc",
				"energy": 0.07772,
				"method": "rhf"
			},
			{
				"type": "unocc",
				"energy": 0.10336,
				"method": "rhf"
			}
		],
		"cosmo_sigma_profile": { 
			"-0.025": 0.0,
			"-0.024": 0.0,
			"-0.023": 0.0,
			"-0.022": 0.0,
			"-0.021": 0.0,
			"-0.02": 0.0,
			"-0.019": 0.0,
			"-0.018": 0.0,
			"-0.017": 0.0,
			"-0.016": 0.0,
			"-0.015": 0.0,
			"-0.014": 0.0,
			"-0.013": 0.328900999441,
			"-0.012": 3.33425571798,
			"-0.011": 4.17460499288,
			"-0.01": 4.57193666943,
			"-0.009": 3.87724848339,
			"-0.008": 4.23555275695,
			"-0.007": 4.80063865302,
			"-0.006": 6.61745437091,
			"-0.005": 9.27465875702,
			"-0.004": 9.31479322666,
			"-0.003": 8.11439672937,
			"-0.002": 6.82686753636,
			"-0.001": 7.63633832521,
			"0.0": 6.33946296214,
			"0.001": 8.60233599329,
			"0.002": 9.26344436969,
			"0.003": 12.1971851758,
			"0.004": 16.0459718786,
			"0.005": 18.0569223751,
			"0.006": 14.879689499,
			"0.007": 5.42408258808,
			"0.008": 1.25637173628,
			"0.009": 1.11446718953,
			"0.01": 0.558104781196,
			"0.011": 0.993061401806,
			"0.012": 0.294665743937,
			"0.013": 0.379593098405,
			"0.014": 0.988553625595,
			"0.015": 0.0,
			"0.016": 0.0,
			"0.017": 0.0,
			"0.018": 0.0,
			"0.019": 0.0,
			"0.02": 0.0,
			"0.021": 0.0,
			"0.022": 0.0,
			"0.023": 0.0,
			"0.024": 0.0,
			"0.025": 0.0
		}
	}
}
