{
	 "smiles": "CC(C)(C)OC(=O)N1CCC2=C(C1)C=CC=C2N", 
	 "Tm": 396.15, 
	 "num_atms": 38, 
	 "gaussian": { 
		 "optdone": 1, 
		 "sigma_profile": "yes", 
		 "theory": "DFT", 
		 "functional": "B3LYP", 
		 "basiset": "6-31G**", 
		 "properties": { 
			 "R2extent": 6031.9346, 
			 "electric_dipole_moment_norm": 2.03529533483, 
			 "electric_quadrupole_moment_norm": 13.5469286364, 
			 "total_energy": -805.543578249, 
			 "HOMO_LUMO_gap": 0.20766, 
			 "cosmo_polarized_energy": -12.57, 
			 "cosmo_cavitation_energy": 38.53, 
			 "cosmo_dispersion_energy": -27.42, 
			 "cosmo_repulsion_energy": 2.13, 
			 "cosmo_total_nonelectrostatic_energy": 13.24, 
			 "SMD_solvation_energy": 6.47 
		},
		"coords": [
			{
				"x": -3.8464152013,
				"y": -0.6717463108,
				"z": -0.2466498773,
				"element": "C" 
			},
			{
				"x": -3.0194159679,
				"y": -1.3844151064,
				"z": 0.8290007711,
				"element": "C" 
			},
			{
				"x": -3.2204972554,
				"y": -2.9036648162,
				"z": 0.8052166456,
				"element": "C" 
			},
			{
				"x": -3.3340288625,
				"y": -0.818661469,
				"z": 2.2168247112,
				"element": "C" 
			},
			{
				"x": -1.593835463,
				"y": -1.0617559554,
				"z": 0.6700556997,
				"element": "O" 
			},
			{
				"x": -0.9282084677,
				"y": -1.3919659639,
				"z": -0.4656893243,
				"element": "C" 
			},
			{
				"x": -1.4093501497,
				"y": -1.9936835411,
				"z": -1.4173104077,
				"element": "O" 
			},
			{
				"x": 0.3707011746,
				"y": -0.9577193214,
				"z": -0.4169915225,
				"element": "N" 
			},
			{
				"x": 1.2808403961,
				"y": -1.2920912548,
				"z": -1.5038131507,
				"element": "C" 
			},
			{
				"x": 1.8855961622,
				"y": -0.0158206817,
				"z": -2.0921266903,
				"element": "C" 
			},
			{
				"x": 2.4002595109,
				"y": 0.91353689,
				"z": -1.0121449498,
				"element": "C" 
			},
			{
				"x": 1.9853232733,
				"y": 0.7709813101,
				"z": 0.3182410754,
				"element": "C" 
			},
			{
				"x": 0.9768452613,
				"y": -0.2913594481,
				"z": 0.7277570638,
				"element": "C" 
			},
			{
				"x": 2.5037911139,
				"y": 1.6056032006,
				"z": 1.3174169179,
				"element": "C" 
			},
			{
				"x": 3.429458061,
				"y": 2.591099613,
				"z": 0.9891795872,
				"element": "C" 
			},
			{
				"x": 3.8314074094,
				"y": 2.7648369053,
				"z": -0.3334885758,
				"element": "C" 
			},
			{
				"x": 3.3202077002,
				"y": 1.9373385189,
				"z": -1.3421701178,
				"element": "C" 
			},
			{
				"x": 3.7622170287,
				"y": 2.0780298231,
				"z": -2.6645157754,
				"element": "N" 
			},
			{
				"x": -3.645867156,
				"y": 0.4043545451,
				"z": -0.2281059723,
				"element": "H" 
			},
			{
				"x": -4.913005869,
				"y": -0.8214806354,
				"z": -0.049238832,
				"element": "H" 
			},
			{
				"x": -3.6120576854,
				"y": -1.0588734241,
				"z": -1.2382673943,
				"element": "H" 
			},
			{
				"x": -4.2638826367,
				"y": -3.14012532,
				"z": 1.0385719845,
				"element": "H" 
			},
			{
				"x": -2.5873508209,
				"y": -3.3815318727,
				"z": 1.5597135748,
				"element": "H" 
			},
			{
				"x": -2.9744339711,
				"y": -3.313208073,
				"z": -0.1744098508,
				"element": "H" 
			},
			{
				"x": -2.7090526914,
				"y": -1.2941848029,
				"z": 2.9784496625,
				"element": "H" 
			},
			{
				"x": -4.3834899828,
				"y": -0.9996264329,
				"z": 2.4676449384,
				"element": "H" 
			},
			{
				"x": -3.1525808504,
				"y": 0.2598786394,
				"z": 2.2452050288,
				"element": "H" 
			},
			{
				"x": 0.7198956184,
				"y": -1.8536394845,
				"z": -2.2497509475,
				"element": "H" 
			},
			{
				"x": 2.0835799899,
				"y": -1.9366847046,
				"z": -1.116056773,
				"element": "H" 
			},
			{
				"x": 2.7054710712,
				"y": -0.2869016679,
				"z": -2.7698365022,
				"element": "H" 
			},
			{
				"x": 1.1230420073,
				"y": 0.4887668827,
				"z": -2.705285937,
				"element": "H" 
			},
			{
				"x": 1.4756216702,
				"y": -1.032145057,
				"z": 1.3754003124,
				"element": "H" 
			},
			{
				"x": 0.1852530039,
				"y": 0.1631253675,
				"z": 1.3235021916,
				"element": "H" 
			},
			{
				"x": 2.1765501511,
				"y": 1.4815906375,
				"z": 2.3466207739,
				"element": "H" 
			},
			{
				"x": 3.8309848143,
				"y": 3.2409123944,
				"z": 1.7617348025,
				"element": "H" 
			},
			{
				"x": 4.5442793557,
				"y": 3.5444475782,
				"z": -0.5919015445,
				"element": "H" 
			},
			{
				"x": 4.2283194043,
				"y": 2.9557159509,
				"z": -2.8517614088,
				"element": "H" 
			},
			{
				"x": 3.0709288532,
				"y": 1.8751670872,
				"z": -3.3738201872,
				"element": "H" 
			}
		],
		 "valence_orbital": [ 
			{
				"type": "occ",
				"energy": -0.28218,
				"method": "rhf"
			},
			{
				"type": "occ",
				"energy": -0.25504,
				"method": "rhf"
			},
			{
				"type": "occ",
				"energy": -0.23536,
				"method": "rhf"
			},
			{
				"type": "occ",
				"energy": -0.23087,
				"method": "rhf"
			},
			{
				"type": "occ",
				"energy": -0.20008,
				"method": "rhf"
			},
			{
				"type": "unocc",
				"energy": 0.00758,
				"method": "rhf"
			},
			{
				"type": "unocc",
				"energy": 0.0151,
				"method": "rhf"
			},
			{
				"type": "unocc",
				"energy": 0.05984,
				"method": "rhf"
			},
			{
				"type": "unocc",
				"energy": 0.07864,
				"method": "rhf"
			},
			{
				"type": "unocc",
				"energy": 0.08787,
				"method": "rhf"
			}
		],
		"cosmo_sigma_profile": { 
			"-0.025": 0.0,
			"-0.024": 0.0,
			"-0.023": 0.0,
			"-0.022": 0.0,
			"-0.021": 0.0,
			"-0.02": 0.0,
			"-0.019": 0.0,
			"-0.018": 0.0,
			"-0.017": 0.0,
			"-0.016": 0.0,
			"-0.015": 0.0,
			"-0.014": 0.0,
			"-0.013": 0.0325858076966,
			"-0.012": 1.24013540127,
			"-0.011": 2.45505524851,
			"-0.01": 2.79206797832,
			"-0.009": 3.25618008509,
			"-0.008": 3.24475753919,
			"-0.007": 2.30903298887,
			"-0.006": 3.19790119261,
			"-0.005": 9.86888239147,
			"-0.004": 29.1167243617,
			"-0.003": 35.7093832471,
			"-0.002": 31.7170179114,
			"-0.001": 27.8033862596,
			"0.0": 32.4053370636,
			"0.001": 28.918673309,
			"0.002": 14.7319852824,
			"0.003": 11.5679157465,
			"0.004": 10.9898279901,
			"0.005": 10.8007248653,
			"0.006": 11.0086502673,
			"0.007": 9.96358553357,
			"0.008": 3.8002766016,
			"0.009": 2.36820448033,
			"0.01": 1.52014132974,
			"0.011": 2.31019273834,
			"0.012": 2.20318740964,
			"0.013": 3.48892703496,
			"0.014": 2.08227929053,
			"0.015": 0.346052974213,
			"0.016": 0.0,
			"0.017": 0.0,
			"0.018": 0.0,
			"0.019": 0.0,
			"0.02": 0.0,
			"0.021": 0.0,
			"0.022": 0.0,
			"0.023": 0.0,
			"0.024": 0.0,
			"0.025": 0.0
		}
	}
}
