{
	 "smiles": "OC(=O)C1(O)CCSC1", 
	 "Tm": 373.15, 
	 "num_atms": 17, 
	 "gaussian": { 
		 "optdone": 1, 
		 "sigma_profile": "yes", 
		 "theory": "DFT", 
		 "functional": "B3LYP", 
		 "basiset": "6-31G**", 
		 "properties": { 
			 "R2extent": 1626.3062, 
			 "electric_dipole_moment_norm": 2.19187356159, 
			 "electric_quadrupole_moment_norm": 10.5015728627, 
			 "total_energy": -819.220437282, 
			 "HOMO_LUMO_gap": 0.20318, 
			 "cosmo_polarized_energy": -11.92, 
			 "cosmo_cavitation_energy": 21.0, 
			 "cosmo_dispersion_energy": -16.46, 
			 "cosmo_repulsion_energy": 1.31, 
			 "cosmo_total_nonelectrostatic_energy": 5.84, 
			 "SMD_solvation_energy": 4.04 
		},
		"coords": [
			{
				"x": 2.9185589528,
				"y": -0.3892174197,
				"z": -0.4675638095,
				"element": "O" 
			},
			{
				"x": 2.3205770501,
				"y": 0.1919411538,
				"z": 0.5842149583,
				"element": "C" 
			},
			{
				"x": 2.9316400905,
				"y": 0.8049050052,
				"z": 1.438479258,
				"element": "O" 
			},
			{
				"x": 0.8001207109,
				"y": 0.0076387603,
				"z": 0.631648594,
				"element": "C" 
			},
			{
				"x": 0.3225042841,
				"y": 0.7557919506,
				"z": 1.7266946372,
				"element": "O" 
			},
			{
				"x": 0.1015028572,
				"y": 0.4780060263,
				"z": -0.6668043491,
				"element": "C" 
			},
			{
				"x": 0.1999308518,
				"y": -0.6105144321,
				"z": -1.731858573,
				"element": "C" 
			},
			{
				"x": 0.0575327161,
				"y": -2.2269187491,
				"z": -0.84057231,
				"element": "S" 
			},
			{
				"x": 0.4381071447,
				"y": -1.4994946379,
				"z": 0.807232384,
				"element": "C" 
			},
			{
				"x": 3.8728096768,
				"y": -0.2232656062,
				"z": -0.3775325512,
				"element": "H" 
			},
			{
				"x": 1.1066658743,
				"y": 1.07605222,
				"z": 2.2042735625,
				"element": "H" 
			},
			{
				"x": -0.9426914148,
				"y": 0.6520791241,
				"z": -0.389685789,
				"element": "H" 
			},
			{
				"x": 0.513551347,
				"y": 1.4308495772,
				"z": -1.0164294533,
				"element": "H" 
			},
			{
				"x": -0.6104959627,
				"y": -0.5421003164,
				"z": -2.4606599633,
				"element": "H" 
			},
			{
				"x": 1.1550859263,
				"y": -0.5783942645,
				"z": -2.2585038657,
				"element": "H" 
			},
			{
				"x": -0.4457907949,
				"y": -1.5356268772,
				"z": 1.4466386178,
				"element": "H" 
			},
			{
				"x": 1.2379906899,
				"y": -2.0682315143,
				"z": 1.2887286524,
				"element": "H" 
			}
		],
		 "valence_orbital": [ 
			{
				"type": "occ",
				"energy": -0.34314,
				"method": "rhf"
			},
			{
				"type": "occ",
				"energy": -0.31717,
				"method": "rhf"
			},
			{
				"type": "occ",
				"energy": -0.30113,
				"method": "rhf"
			},
			{
				"type": "occ",
				"energy": -0.2741,
				"method": "rhf"
			},
			{
				"type": "occ",
				"energy": -0.21835,
				"method": "rhf"
			},
			{
				"type": "unocc",
				"energy": -0.01517,
				"method": "rhf"
			},
			{
				"type": "unocc",
				"energy": 0.03112,
				"method": "rhf"
			},
			{
				"type": "unocc",
				"energy": 0.05166,
				"method": "rhf"
			},
			{
				"type": "unocc",
				"energy": 0.07013,
				"method": "rhf"
			},
			{
				"type": "unocc",
				"energy": 0.09577,
				"method": "rhf"
			}
		],
		"cosmo_sigma_profile": { 
			"-0.025": 0.0,
			"-0.024": 0.0,
			"-0.023": 0.0,
			"-0.022": 0.0,
			"-0.021": 0.0,
			"-0.02": 0.101370577373,
			"-0.019": 0.994752086824,
			"-0.018": 0.91428187697,
			"-0.017": 0.788830619495,
			"-0.016": 0.740608433863,
			"-0.015": 0.876233580873,
			"-0.014": 0.516701732992,
			"-0.013": 0.668401975652,
			"-0.012": 1.02379939239,
			"-0.011": 0.95948496303,
			"-0.01": 1.11118946404,
			"-0.009": 1.20250209074,
			"-0.008": 1.92633209359,
			"-0.007": 4.16760460565,
			"-0.006": 7.36167253904,
			"-0.005": 11.5010606771,
			"-0.004": 14.0283683798,
			"-0.003": 16.3918002445,
			"-0.002": 15.5532045907,
			"-0.001": 9.96388394615,
			"0.0": 6.29317732651,
			"0.001": 5.9969797305,
			"0.002": 5.51255944429,
			"0.003": 8.27845889412,
			"0.004": 5.83557591093,
			"0.005": 5.88812716344,
			"0.006": 5.33260766719,
			"0.007": 6.04495108981,
			"0.008": 5.79231587493,
			"0.009": 6.48088405794,
			"0.01": 6.63113811748,
			"0.011": 4.52493455296,
			"0.012": 1.77938529301,
			"0.013": 1.18122469742,
			"0.014": 0.125170969715,
			"0.015": 0.0,
			"0.016": 0.0,
			"0.017": 0.0,
			"0.018": 0.0,
			"0.019": 0.0,
			"0.02": 0.0,
			"0.021": 0.0,
			"0.022": 0.0,
			"0.023": 0.0,
			"0.024": 0.0,
			"0.025": 0.0
		}
	}
}
