{
	 "smiles": "C1=CC2=C(C=C1)C1=C3C2=CC2=CC=CC4=C2C3=C(C=C1)C=C4", 
	 "Tm": 437.15, 
	 "num_atms": 34, 
	 "gaussian": { 
		 "optdone": 1, 
		 "sigma_profile": "yes", 
		 "theory": "DFT", 
		 "functional": "B3LYP", 
		 "basiset": "6-31G**", 
		 "properties": { 
			 "R2extent": 6572.2086, 
			 "electric_dipole_moment_norm": 0.606976284545, 
			 "electric_quadrupole_moment_norm": 15.6931228282, 
			 "total_energy": -845.629887237, 
			 "HOMO_LUMO_gap": 0.12249, 
			 "cosmo_polarized_energy": -7.86, 
			 "cosmo_cavitation_energy": 36.71, 
			 "cosmo_dispersion_energy": -27.38, 
			 "cosmo_repulsion_energy": 1.94, 
			 "cosmo_total_nonelectrostatic_energy": 11.27, 
			 "SMD_solvation_energy": 4.46 
		},
		"coords": [
			{
				"x": -2.8646054478,
				"y": -4.1737498481,
				"z": 2.3376732105,
				"element": "C" 
			},
			{
				"x": -1.5491623956,
				"y": -3.7555305339,
				"z": 2.0999724692,
				"element": "C" 
			},
			{
				"x": -1.3286204042,
				"y": -2.6196945315,
				"z": 1.3279690832,
				"element": "C" 
			},
			{
				"x": -2.4354657946,
				"y": -1.8903709869,
				"z": 0.7851295544,
				"element": "C" 
			},
			{
				"x": -3.737745941,
				"y": -2.3170202213,
				"z": 1.0291750372,
				"element": "C" 
			},
			{
				"x": -3.9451184487,
				"y": -3.4623216828,
				"z": 1.8082009939,
				"element": "C" 
			},
			{
				"x": -1.9057114247,
				"y": -0.7454645428,
				"z": 0.018464413,
				"element": "C" 
			},
			{
				"x": -0.5114151728,
				"y": -0.8239698241,
				"z": 0.1250508325,
				"element": "C" 
			},
			{
				"x": -0.0840207314,
				"y": -1.9435969308,
				"z": 0.9104421971,
				"element": "C" 
			},
			{
				"x": 1.2587180755,
				"y": -2.1396888549,
				"z": 1.09592607,
				"element": "C" 
			},
			{
				"x": 2.2126656169,
				"y": -1.2243922712,
				"z": 0.5031703166,
				"element": "C" 
			},
			{
				"x": 3.6014380325,
				"y": -1.377076519,
				"z": 0.6606384209,
				"element": "C" 
			},
			{
				"x": 4.4931886387,
				"y": -0.4757650941,
				"z": 0.0752142561,
				"element": "C" 
			},
			{
				"x": 4.0378082274,
				"y": 0.6037173128,
				"z": -0.6836213814,
				"element": "C" 
			},
			{
				"x": 2.6607440078,
				"y": 0.8071790662,
				"z": -0.8755785788,
				"element": "C" 
			},
			{
				"x": 1.754430411,
				"y": -0.1121913749,
				"z": -0.2782894932,
				"element": "C" 
			},
			{
				"x": 0.3623058867,
				"y": 0.0829217544,
				"z": -0.4650375989,
				"element": "C" 
			},
			{
				"x": -0.1797226512,
				"y": 1.1586233909,
				"z": -1.2246104592,
				"element": "C" 
			},
			{
				"x": -1.5861705298,
				"y": 1.2413055382,
				"z": -1.3346133124,
				"element": "C" 
			},
			{
				"x": -2.4443561743,
				"y": 0.3109475371,
				"z": -0.7277660661,
				"element": "C" 
			},
			{
				"x": 0.7641270955,
				"y": 2.069445766,
				"z": -1.8146384644,
				"element": "C" 
			},
			{
				"x": 2.1108633444,
				"y": 1.8975739041,
				"z": -1.6455227759,
				"element": "C" 
			},
			{
				"x": -3.0461507671,
				"y": -5.0595392342,
				"z": 2.9393638419,
				"element": "H" 
			},
			{
				"x": -0.7149975776,
				"y": -4.3146676369,
				"z": 2.5155810998,
				"element": "H" 
			},
			{
				"x": -4.5857180005,
				"y": -1.7722359382,
				"z": 0.6229531144,
				"element": "H" 
			},
			{
				"x": -4.9585218074,
				"y": -3.8014636873,
				"z": 2.0030122565,
				"element": "H" 
			},
			{
				"x": 1.6431326546,
				"y": -2.9714335829,
				"z": 1.6819042535,
				"element": "H" 
			},
			{
				"x": 3.9818081768,
				"y": -2.2096252285,
				"z": 1.2469764896,
				"element": "H" 
			},
			{
				"x": 5.5610817567,
				"y": -0.6184199528,
				"z": 0.2136541329,
				"element": "H" 
			},
			{
				"x": 4.7491974142,
				"y": 1.2934163933,
				"z": -1.1304760822,
				"element": "H" 
			},
			{
				"x": -2.0167282556,
				"y": 2.0564084649,
				"z": -1.9109165727,
				"element": "H" 
			},
			{
				"x": -3.5185231051,
				"y": 0.4251858776,
				"z": -0.8468265287,
				"element": "H" 
			},
			{
				"x": 0.3937847027,
				"y": 2.905270317,
				"z": -2.4029139218,
				"element": "H" 
			},
			{
				"x": 2.8050605878,
				"y": 2.5992231545,
				"z": -2.1012608077,
				"element": "H" 
			}
		],
		 "valence_orbital": [ 
			{
				"type": "occ",
				"energy": -0.26869,
				"method": "rhf"
			},
			{
				"type": "occ",
				"energy": -0.2517,
				"method": "rhf"
			},
			{
				"type": "occ",
				"energy": -0.22986,
				"method": "rhf"
			},
			{
				"type": "occ",
				"energy": -0.21703,
				"method": "rhf"
			},
			{
				"type": "occ",
				"energy": -0.19651,
				"method": "rhf"
			},
			{
				"type": "unocc",
				"energy": -0.07402,
				"method": "rhf"
			},
			{
				"type": "unocc",
				"energy": -0.03002,
				"method": "rhf"
			},
			{
				"type": "unocc",
				"energy": -0.02143,
				"method": "rhf"
			},
			{
				"type": "unocc",
				"energy": 0.00444,
				"method": "rhf"
			},
			{
				"type": "unocc",
				"energy": 0.02417,
				"method": "rhf"
			}
		],
		"cosmo_sigma_profile": { 
			"-0.025": 0.0,
			"-0.024": 0.0,
			"-0.023": 0.0,
			"-0.022": 0.0,
			"-0.021": 0.0,
			"-0.02": 0.0,
			"-0.019": 0.0,
			"-0.018": 0.0,
			"-0.017": 0.0,
			"-0.016": 0.0,
			"-0.015": 0.0,
			"-0.014": 0.0,
			"-0.013": 0.0,
			"-0.012": 0.0,
			"-0.011": 0.0,
			"-0.01": 0.0,
			"-0.009": 0.0,
			"-0.008": 0.0,
			"-0.007": 2.09409448959,
			"-0.006": 24.277116777,
			"-0.005": 26.1057052661,
			"-0.004": 25.6228606401,
			"-0.003": 19.2177420303,
			"-0.002": 15.3519904101,
			"-0.001": 14.5674189032,
			"0.0": 14.5195809221,
			"0.001": 15.8976921761,
			"0.002": 26.0292309105,
			"0.003": 53.2150755591,
			"0.004": 38.289072599,
			"0.005": 17.5652313133,
			"0.006": 4.32921364558,
			"0.007": 0.0,
			"0.008": 0.0,
			"0.009": 0.0,
			"0.01": 0.0,
			"0.011": 0.0,
			"0.012": 0.0,
			"0.013": 0.0,
			"0.014": 0.0,
			"0.015": 0.0,
			"0.016": 0.0,
			"0.017": 0.0,
			"0.018": 0.0,
			"0.019": 0.0,
			"0.02": 0.0,
			"0.021": 0.0,
			"0.022": 0.0,
			"0.023": 0.0,
			"0.024": 0.0,
			"0.025": 0.0
		}
	}
}
