{
	 "smiles": "CN(C)C1=CC=C(C=C1)N=C=S", 
	 "Tm": 343.15, 
	 "num_atms": 22, 
	 "gaussian": { 
		 "optdone": 1, 
		 "sigma_profile": "yes", 
		 "theory": "DFT", 
		 "functional": "B3LYP", 
		 "basiset": "6-31G**", 
		 "properties": { 
			 "R2extent": 4813.2178, 
			 "electric_dipole_moment_norm": 6.73086304273, 
			 "electric_quadrupole_moment_norm": 18.6940648814, 
			 "total_energy": -856.664255565, 
			 "HOMO_LUMO_gap": 0.16658, 
			 "cosmo_polarized_energy": -7.78, 
			 "cosmo_cavitation_energy": 28.29, 
			 "cosmo_dispersion_energy": -21.11, 
			 "cosmo_repulsion_energy": 1.64, 
			 "cosmo_total_nonelectrostatic_energy": 8.82, 
			 "SMD_solvation_energy": 5.01 
		},
		"coords": [
			{
				"x": -0.5799892774,
				"y": -1.1060187937,
				"z": -3.447453431,
				"element": "C" 
			},
			{
				"x": 0.041805266,
				"y": -1.3790187932,
				"z": -2.1627030823,
				"element": "N" 
			},
			{
				"x": -0.1000439084,
				"y": -2.7028992068,
				"z": -1.5806551623,
				"element": "C" 
			},
			{
				"x": 0.4840977022,
				"y": -0.3285534127,
				"z": -1.3771200901,
				"element": "C" 
			},
			{
				"x": 0.4913849678,
				"y": 1.0021997257,
				"z": -1.8626050969,
				"element": "C" 
			},
			{
				"x": 0.9567103648,
				"y": 2.0515935475,
				"z": -1.0837182966,
				"element": "C" 
			},
			{
				"x": 1.4290577649,
				"y": 1.8202312536,
				"z": 0.2178420566,
				"element": "C" 
			},
			{
				"x": 1.418813632,
				"y": 0.5113996208,
				"z": 0.7182488921,
				"element": "C" 
			},
			{
				"x": 0.9538517205,
				"y": -0.5405548696,
				"z": -0.0584379,
				"element": "C" 
			},
			{
				"x": 1.8925036307,
				"y": 2.8564555588,
				"z": 1.0039873512,
				"element": "N" 
			},
			{
				"x": 2.1762827392,
				"y": 3.9785175547,
				"z": 1.2901349431,
				"element": "C" 
			},
			{
				"x": 2.5846396252,
				"y": 5.4466974338,
				"z": 1.7610336556,
				"element": "S" 
			},
			{
				"x": -1.4948704366,
				"y": -0.5009723444,
				"z": -3.3567664649,
				"element": "H" 
			},
			{
				"x": 0.1089244552,
				"y": -0.5787941204,
				"z": -4.1182528376,
				"element": "H" 
			},
			{
				"x": -0.8439460845,
				"y": -2.0504031148,
				"z": -3.9250059179,
				"element": "H" 
			},
			{
				"x": 0.8591915505,
				"y": -3.0746091992,
				"z": -1.2008073474,
				"element": "H" 
			},
			{
				"x": -0.8251212927,
				"y": -2.7276258732,
				"z": -0.7530134818,
				"element": "H" 
			},
			{
				"x": -0.4395681818,
				"y": -3.3975293175,
				"z": -2.3499346857,
				"element": "H" 
			},
			{
				"x": 0.1296969669,
				"y": 1.2240154088,
				"z": -2.858653252,
				"element": "H" 
			},
			{
				"x": 0.9536876803,
				"y": 3.0627014894,
				"z": -1.4782674271,
				"element": "H" 
			},
			{
				"x": 1.7760766608,
				"y": 0.3273784207,
				"z": 1.7261030601,
				"element": "H" 
			},
			{
				"x": 0.9570144542,
				"y": -1.5353109684,
				"z": 0.3685445149,
				"element": "H" 
			}
		],
		 "valence_orbital": [ 
			{
				"type": "occ",
				"energy": -0.30337,
				"method": "rhf"
			},
			{
				"type": "occ",
				"energy": -0.26129,
				"method": "rhf"
			},
			{
				"type": "occ",
				"energy": -0.24733,
				"method": "rhf"
			},
			{
				"type": "occ",
				"energy": -0.2446,
				"method": "rhf"
			},
			{
				"type": "occ",
				"energy": -0.19199,
				"method": "rhf"
			},
			{
				"type": "unocc",
				"energy": -0.02541,
				"method": "rhf"
			},
			{
				"type": "unocc",
				"energy": -0.00979,
				"method": "rhf"
			},
			{
				"type": "unocc",
				"energy": 0.00054,
				"method": "rhf"
			},
			{
				"type": "unocc",
				"energy": 0.06149,
				"method": "rhf"
			},
			{
				"type": "unocc",
				"energy": 0.07472,
				"method": "rhf"
			}
		],
		"cosmo_sigma_profile": { 
			"-0.025": 0.0,
			"-0.024": 0.0,
			"-0.023": 0.0,
			"-0.022": 0.0,
			"-0.021": 0.0,
			"-0.02": 0.0,
			"-0.019": 0.0,
			"-0.018": 0.0,
			"-0.017": 0.0,
			"-0.016": 0.0,
			"-0.015": 0.0,
			"-0.014": 0.0,
			"-0.013": 0.0,
			"-0.012": 0.0,
			"-0.011": 0.0,
			"-0.01": 0.0,
			"-0.009": 0.0,
			"-0.008": 0.0375510433282,
			"-0.007": 3.30589626522,
			"-0.006": 10.9993107321,
			"-0.005": 16.247554049,
			"-0.004": 20.0853047835,
			"-0.003": 20.2393696767,
			"-0.002": 22.1311346624,
			"-0.001": 17.2229254991,
			"0.0": 14.5153678132,
			"0.001": 21.8197891604,
			"0.002": 16.0040263985,
			"0.003": 14.0119839446,
			"0.004": 16.1687610186,
			"0.005": 17.3586042176,
			"0.006": 12.6420982676,
			"0.007": 6.66700593103,
			"0.008": 0.0,
			"0.009": 0.0,
			"0.01": 0.0,
			"0.011": 0.0,
			"0.012": 0.0,
			"0.013": 0.0,
			"0.014": 0.0,
			"0.015": 0.0,
			"0.016": 0.0,
			"0.017": 0.0,
			"0.018": 0.0,
			"0.019": 0.0,
			"0.02": 0.0,
			"0.021": 0.0,
			"0.022": 0.0,
			"0.023": 0.0,
			"0.024": 0.0,
			"0.025": 0.0
		}
	}
}
