{
	 "smiles": "CC(O)C1=CC=C(NC(=O)C2=CC=CC=C2)C=C1", 
	 "Tm": 438.15, 
	 "num_atms": 33, 
	 "gaussian": { 
		 "optdone": 1, 
		 "sigma_profile": "yes", 
		 "theory": "DFT", 
		 "functional": "B3LYP", 
		 "basiset": "6-31G**", 
		 "properties": { 
			 "R2extent": 5708.8709, 
			 "electric_dipole_moment_norm": 4.82820956567, 
			 "electric_quadrupole_moment_norm": 12.5071809558, 
			 "total_energy": -785.84710377, 
			 "HOMO_LUMO_gap": 0.18269, 
			 "cosmo_polarized_energy": -16.11, 
			 "cosmo_cavitation_energy": 36.86, 
			 "cosmo_dispersion_energy": -25.66, 
			 "cosmo_repulsion_energy": 2.02, 
			 "cosmo_total_nonelectrostatic_energy": 13.22, 
			 "SMD_solvation_energy": 6.84 
		},
		"coords": [
			{
				"x": -4.0396403055,
				"y": 0.1935858985,
				"z": 1.8360318112,
				"element": "C" 
			},
			{
				"x": -3.3332604876,
				"y": 1.5207126571,
				"z": 1.520986166,
				"element": "C" 
			},
			{
				"x": -2.7859440483,
				"y": 2.0969140813,
				"z": 2.7045626859,
				"element": "O" 
			},
			{
				"x": -2.2048467407,
				"y": 1.3299966403,
				"z": 0.5245328753,
				"element": "C" 
			},
			{
				"x": -0.8804680564,
				"y": 1.1714893218,
				"z": 0.9471913078,
				"element": "C" 
			},
			{
				"x": 0.1475419778,
				"y": 0.9675322053,
				"z": 0.0288132417,
				"element": "C" 
			},
			{
				"x": -0.1363267501,
				"y": 0.8837111374,
				"z": -1.3408985909,
				"element": "C" 
			},
			{
				"x": 0.8748151905,
				"y": 0.7059369807,
				"z": -2.320430361,
				"element": "N" 
			},
			{
				"x": 2.0997248352,
				"y": 0.0614151859,
				"z": -2.2561744822,
				"element": "C" 
			},
			{
				"x": 2.9949350188,
				"y": 0.3870874107,
				"z": -3.028961911,
				"element": "O" 
			},
			{
				"x": 2.2847045898,
				"y": -1.077536156,
				"z": -1.2974279811,
				"element": "C" 
			},
			{
				"x": 1.2520052763,
				"y": -1.9588626142,
				"z": -0.9466292515,
				"element": "C" 
			},
			{
				"x": 1.5161619079,
				"y": -3.0542781188,
				"z": -0.1248954431,
				"element": "C" 
			},
			{
				"x": 2.8070601579,
				"y": -3.2719933652,
				"z": 0.3615766656,
				"element": "C" 
			},
			{
				"x": 3.8412043346,
				"y": -2.4015244198,
				"z": 0.0080483172,
				"element": "C" 
			},
			{
				"x": 3.5839387914,
				"y": -1.3180582786,
				"z": -0.8290564133,
				"element": "C" 
			},
			{
				"x": -1.4607035507,
				"y": 1.044244707,
				"z": -1.7711165471,
				"element": "C" 
			},
			{
				"x": -2.476366016,
				"y": 1.2772574918,
				"z": -0.8472323586,
				"element": "C" 
			},
			{
				"x": -4.455711527,
				"y": -0.2579020721,
				"z": 0.9302659625,
				"element": "H" 
			},
			{
				"x": -3.3311520436,
				"y": -0.5116484958,
				"z": 2.2808957546,
				"element": "H" 
			},
			{
				"x": -4.8660146318,
				"y": 0.3510614922,
				"z": 2.5408395697,
				"element": "H" 
			},
			{
				"x": -4.0704373117,
				"y": 2.2091114937,
				"z": 1.0742521143,
				"element": "H" 
			},
			{
				"x": -3.4799411211,
				"y": 2.1048916569,
				"z": 3.3755483428,
				"element": "H" 
			},
			{
				"x": -0.6548776721,
				"y": 1.2438334684,
				"z": 2.0051039901,
				"element": "H" 
			},
			{
				"x": 1.1719617608,
				"y": 0.8814575054,
				"z": 0.3735062323,
				"element": "H" 
			},
			{
				"x": 0.8435174847,
				"y": 1.339133847,
				"z": -3.1110951018,
				"element": "H" 
			},
			{
				"x": 0.2486337149,
				"y": -1.7978793692,
				"z": -1.3254189092,
				"element": "H" 
			},
			{
				"x": 0.7139573378,
				"y": -3.7392676707,
				"z": 0.1339054919,
				"element": "H" 
			},
			{
				"x": 3.0079997667,
				"y": -4.1218714508,
				"z": 1.0077599242,
				"element": "H" 
			},
			{
				"x": 4.848310366,
				"y": -2.5734572824,
				"z": 0.3766555828,
				"element": "H" 
			},
			{
				"x": 4.3791319935,
				"y": -0.6490555142,
				"z": -1.1405815208,
				"element": "H" 
			},
			{
				"x": -1.6872873754,
				"y": 0.9884265697,
				"z": -2.8323588133,
				"element": "H" 
			},
			{
				"x": -3.4952268663,
				"y": 1.4146350567,
				"z": -1.2023983508,
				"element": "H" 
			}
		],
		 "valence_orbital": [ 
			{
				"type": "occ",
				"energy": -0.26202,
				"method": "rhf"
			},
			{
				"type": "occ",
				"energy": -0.25838,
				"method": "rhf"
			},
			{
				"type": "occ",
				"energy": -0.25016,
				"method": "rhf"
			},
			{
				"type": "occ",
				"energy": -0.24329,
				"method": "rhf"
			},
			{
				"type": "occ",
				"energy": -0.21994,
				"method": "rhf"
			},
			{
				"type": "unocc",
				"energy": -0.03725,
				"method": "rhf"
			},
			{
				"type": "unocc",
				"energy": -0.01129,
				"method": "rhf"
			},
			{
				"type": "unocc",
				"energy": -0.00316,
				"method": "rhf"
			},
			{
				"type": "unocc",
				"energy": 0.00287,
				"method": "rhf"
			},
			{
				"type": "unocc",
				"energy": 0.0584,
				"method": "rhf"
			}
		],
		"cosmo_sigma_profile": { 
			"-0.025": 0.0,
			"-0.024": 0.0,
			"-0.023": 0.0,
			"-0.022": 0.0,
			"-0.021": 0.0,
			"-0.02": 0.0,
			"-0.019": 0.0,
			"-0.018": 0.0,
			"-0.017": 0.0,
			"-0.016": 0.0426338337724,
			"-0.015": 1.19879391308,
			"-0.014": 1.2934266411,
			"-0.013": 1.86951196687,
			"-0.012": 2.89491203084,
			"-0.011": 1.10266076689,
			"-0.01": 1.72706415689,
			"-0.009": 1.64998055714,
			"-0.008": 2.39438570613,
			"-0.007": 3.88731943042,
			"-0.006": 13.0613518773,
			"-0.005": 20.6585660763,
			"-0.004": 26.5798011545,
			"-0.003": 23.1904030617,
			"-0.002": 20.5040982149,
			"-0.001": 21.8474887032,
			"0.0": 22.5795197312,
			"0.001": 20.4212611927,
			"0.002": 17.9038497171,
			"0.003": 17.87833887,
			"0.004": 20.3584258938,
			"0.005": 16.4207711676,
			"0.006": 5.01813020883,
			"0.007": 2.92607534102,
			"0.008": 3.33573663428,
			"0.009": 2.33637618769,
			"0.01": 3.69710972092,
			"0.011": 3.0666437583,
			"0.012": 3.2813478435,
			"0.013": 6.23866595907,
			"0.014": 2.94791186587,
			"0.015": 0.0746685061648,
			"0.016": 0.0,
			"0.017": 0.0,
			"0.018": 0.0,
			"0.019": 0.0,
			"0.02": 0.0,
			"0.021": 0.0,
			"0.022": 0.0,
			"0.023": 0.0,
			"0.024": 0.0,
			"0.025": 0.0
		}
	}
}
