{
	 "smiles": "CC1=CC=C(C=C1)C1=NN=NN1", 
	 "Tm": 524.15, 
	 "num_atms": 20, 
	 "gaussian": { 
		 "optdone": 1, 
		 "sigma_profile": "yes", 
		 "theory": "DFT", 
		 "functional": "B3LYP", 
		 "basiset": "6-31G**", 
		 "properties": { 
			 "R2extent": 2700.851, 
			 "electric_dipole_moment_norm": 6.40496256195, 
			 "electric_quadrupole_moment_norm": 19.8937745054, 
			 "total_energy": -528.635324768, 
			 "HOMO_LUMO_gap": 0.19336, 
			 "cosmo_polarized_energy": -17.44, 
			 "cosmo_cavitation_energy": 24.66, 
			 "cosmo_dispersion_energy": -18.38, 
			 "cosmo_repulsion_energy": 1.44, 
			 "cosmo_total_nonelectrostatic_energy": 7.72, 
			 "SMD_solvation_energy": 2.48 
		},
		"coords": [
			{
				"x": -2.0316390582,
				"y": 1.3857130728,
				"z": 2.4077326933,
				"element": "C" 
			},
			{
				"x": -1.1178995172,
				"y": 0.7584231616,
				"z": 1.3832845342,
				"element": "C" 
			},
			{
				"x": -1.6146548143,
				"y": 0.2800816778,
				"z": 0.164254946,
				"element": "C" 
			},
			{
				"x": -0.773844028,
				"y": -0.3186196512,
				"z": -0.7712120586,
				"element": "C" 
			},
			{
				"x": 0.5967650291,
				"y": -0.4538818712,
				"z": -0.5101602224,
				"element": "C" 
			},
			{
				"x": 1.1043677575,
				"y": 0.0257413809,
				"z": 0.7087979166,
				"element": "C" 
			},
			{
				"x": 0.2565447005,
				"y": 0.6213089302,
				"z": 1.6344548118,
				"element": "C" 
			},
			{
				"x": 1.5171353877,
				"y": -1.0732731528,
				"z": -1.4632562183,
				"element": "C" 
			},
			{
				"x": 2.823950601,
				"y": -1.2357024935,
				"z": -1.2995170407,
				"element": "N" 
			},
			{
				"x": 3.2830308007,
				"y": -1.8499307728,
				"z": -2.4187496861,
				"element": "N" 
			},
			{
				"x": 2.3268074632,
				"y": -2.0724723208,
				"z": -3.2595708682,
				"element": "N" 
			},
			{
				"x": 1.2041326982,
				"y": -1.5898615202,
				"z": -2.6757804287,
				"element": "N" 
			},
			{
				"x": -2.9926090045,
				"y": 1.6681885121,
				"z": 1.9693031037,
				"element": "H" 
			},
			{
				"x": -1.5818306104,
				"y": 2.2815795804,
				"z": 2.8476386683,
				"element": "H" 
			},
			{
				"x": -2.2357294983,
				"y": 0.6902143555,
				"z": 3.2311159796,
				"element": "H" 
			},
			{
				"x": -2.6739000165,
				"y": 0.3781440449,
				"z": -0.057569307,
				"element": "H" 
			},
			{
				"x": -1.1997991299,
				"y": -0.6743608797,
				"z": -1.7059051002,
				"element": "H" 
			},
			{
				"x": 2.1654407338,
				"y": -0.0758261604,
				"z": 0.9088408673,
				"element": "H" 
			},
			{
				"x": 0.6671672301,
				"y": 0.9894239132,
				"z": 2.571169992,
				"element": "H" 
			},
			{
				"x": 0.3204632753,
				"y": -1.6567898069,
				"z": -3.1576725828,
				"element": "H" 
			}
		],
		 "valence_orbital": [ 
			{
				"type": "occ",
				"energy": -0.31341,
				"method": "rhf"
			},
			{
				"type": "occ",
				"energy": -0.29507,
				"method": "rhf"
			},
			{
				"type": "occ",
				"energy": -0.28023,
				"method": "rhf"
			},
			{
				"type": "occ",
				"energy": -0.26978,
				"method": "rhf"
			},
			{
				"type": "occ",
				"energy": -0.246,
				"method": "rhf"
			},
			{
				"type": "unocc",
				"energy": -0.05264,
				"method": "rhf"
			},
			{
				"type": "unocc",
				"energy": -0.02023,
				"method": "rhf"
			},
			{
				"type": "unocc",
				"energy": 0.00336,
				"method": "rhf"
			},
			{
				"type": "unocc",
				"energy": 0.04615,
				"method": "rhf"
			},
			{
				"type": "unocc",
				"energy": 0.05412,
				"method": "rhf"
			}
		],
		"cosmo_sigma_profile": { 
			"-0.025": 0.0,
			"-0.024": 0.0,
			"-0.023": 0.0,
			"-0.022": 0.0,
			"-0.021": 0.0,
			"-0.02": 0.0,
			"-0.019": 0.720569236994,
			"-0.018": 1.64187952497,
			"-0.017": 1.52112605433,
			"-0.016": 1.11953352676,
			"-0.015": 1.83022902949,
			"-0.014": 1.01208323671,
			"-0.013": 1.10994424289,
			"-0.012": 0.908342068999,
			"-0.011": 1.24736137324,
			"-0.01": 1.71454881119,
			"-0.009": 0.936127415639,
			"-0.008": 1.28136982353,
			"-0.007": 1.95767653119,
			"-0.006": 6.64043893521,
			"-0.005": 12.5543019415,
			"-0.004": 15.3173986653,
			"-0.003": 15.0021516051,
			"-0.002": 16.0178327079,
			"-0.001": 15.2403906863,
			"0.0": 14.7089681585,
			"0.001": 11.1355320337,
			"0.002": 10.8667536535,
			"0.003": 12.2381304367,
			"0.004": 13.5712169997,
			"0.005": 3.45014858572,
			"0.006": 3.65700203178,
			"0.007": 3.35557062249,
			"0.008": 4.43268354334,
			"0.009": 4.60016712454,
			"0.01": 5.21949762105,
			"0.011": 4.9334049647,
			"0.012": 3.48620686612,
			"0.013": 2.5828146838,
			"0.014": 1.6440437457,
			"0.015": 0.0936765734586,
			"0.016": 0.0,
			"0.017": 0.0,
			"0.018": 0.0,
			"0.019": 0.0,
			"0.02": 0.0,
			"0.021": 0.0,
			"0.022": 0.0,
			"0.023": 0.0,
			"0.024": 0.0,
			"0.025": 0.0
		}
	}
}
