{
	 "smiles": "CC1=C(C)C(C)=C(C(=O)C2=CC=CC=C2C(O)=O)C(C)=C1C", 
	 "Tm": 553.15, 
	 "num_atms": 42, 
	 "gaussian": { 
		 "optdone": 1, 
		 "sigma_profile": "yes", 
		 "theory": "DFT", 
		 "functional": "B3LYP", 
		 "basiset": "6-31G**", 
		 "properties": { 
			 "R2extent": 6729.3437, 
			 "electric_dipole_moment_norm": 3.67788612929, 
			 "electric_quadrupole_moment_norm": 18.2294361536, 
			 "total_energy": -961.77432653, 
			 "HOMO_LUMO_gap": 0.15268, 
			 "cosmo_polarized_energy": -14.85, 
			 "cosmo_cavitation_energy": 42.49, 
			 "cosmo_dispersion_energy": -28.77, 
			 "cosmo_repulsion_energy": 2.18, 
			 "cosmo_total_nonelectrostatic_energy": 15.89, 
			 "SMD_solvation_energy": 8.33 
		},
		"coords": [
			{
				"x": -2.0098687459,
				"y": -3.2814579155,
				"z": -0.717888219,
				"element": "C" 
			},
			{
				"x": -1.3608613342,
				"y": -1.9289779363,
				"z": -0.9380548473,
				"element": "C" 
			},
			{
				"x": -0.1158520071,
				"y": -1.8655498712,
				"z": -1.5956847202,
				"element": "C" 
			},
			{
				"x": 0.5292899674,
				"y": -3.1359517613,
				"z": -2.1135140262,
				"element": "C" 
			},
			{
				"x": 0.5364016902,
				"y": -0.6314247357,
				"z": -1.7610966007,
				"element": "C" 
			},
			{
				"x": 1.9210925528,
				"y": -0.6006294966,
				"z": -2.3749658099,
				"element": "C" 
			},
			{
				"x": -0.1009922297,
				"y": 0.5451967391,
				"z": -1.3111230086,
				"element": "C" 
			},
			{
				"x": 0.5913635756,
				"y": 1.8640320006,
				"z": -1.544153869,
				"element": "C" 
			},
			{
				"x": 0.9559577037,
				"y": 2.189540384,
				"z": -2.6659508857,
				"element": "O" 
			},
			{
				"x": 0.8034299225,
				"y": 2.8540342028,
				"z": -0.413903216,
				"element": "C" 
			},
			{
				"x": 0.6747589611,
				"y": 4.2061973443,
				"z": -0.7611358833,
				"element": "C" 
			},
			{
				"x": 0.7555217717,
				"y": 5.2124020251,
				"z": 0.1987022217,
				"element": "C" 
			},
			{
				"x": 0.9695390694,
				"y": 4.8793643125,
				"z": 1.5368422985,
				"element": "C" 
			},
			{
				"x": 1.1289111305,
				"y": 3.5430999687,
				"z": 1.8979446171,
				"element": "C" 
			},
			{
				"x": 1.0669491817,
				"y": 2.526301698,
				"z": 0.9337937615,
				"element": "C" 
			},
			{
				"x": 1.4485481785,
				"y": 1.1445624997,
				"z": 1.3488634486,
				"element": "C" 
			},
			{
				"x": 1.0246956928,
				"y": 0.8413023528,
				"z": 2.6012590605,
				"element": "O" 
			},
			{
				"x": 2.1185693103,
				"y": 0.3784623705,
				"z": 0.6891759648,
				"element": "O" 
			},
			{
				"x": -1.3821307251,
				"y": 0.5005209868,
				"z": -0.720652444,
				"element": "C" 
			},
			{
				"x": -2.1364506911,
				"y": 1.7742769431,
				"z": -0.3765996939,
				"element": "C" 
			},
			{
				"x": -1.9991752253,
				"y": -0.7498691361,
				"z": -0.5067819219,
				"element": "C" 
			},
			{
				"x": -3.3524458702,
				"y": -0.837816784,
				"z": 0.1753902498,
				"element": "C" 
			},
			{
				"x": -2.8217308752,
				"y": -3.2411067488,
				"z": 0.0076224627,
				"element": "H" 
			},
			{
				"x": -2.431140733,
				"y": -3.681747489,
				"z": -1.649770432,
				"element": "H" 
			},
			{
				"x": -1.2861568605,
				"y": -4.0184132493,
				"z": -0.3566573927,
				"element": "H" 
			},
			{
				"x": 1.1589314435,
				"y": -2.9424056512,
				"z": -2.983612867,
				"element": "H" 
			},
			{
				"x": 1.1671502977,
				"y": -3.6098291928,
				"z": -1.3543437664,
				"element": "H" 
			},
			{
				"x": -0.2162171325,
				"y": -3.8756224379,
				"z": -2.4128800772,
				"element": "H" 
			},
			{
				"x": 1.8757818888,
				"y": -0.7146150626,
				"z": -3.4650427785,
				"element": "H" 
			},
			{
				"x": 2.5354842119,
				"y": -1.4148583417,
				"z": -1.9815563637,
				"element": "H" 
			},
			{
				"x": 2.4433004412,
				"y": 0.3304660827,
				"z": -2.1702913226,
				"element": "H" 
			},
			{
				"x": 0.4943605247,
				"y": 4.4454688136,
				"z": -1.8038052147,
				"element": "H" 
			},
			{
				"x": 0.6449988534,
				"y": 6.2518853816,
				"z": -0.0959605747,
				"element": "H" 
			},
			{
				"x": 1.0256968852,
				"y": 5.6549977921,
				"z": 2.2946819684,
				"element": "H" 
			},
			{
				"x": 1.3301302893,
				"y": 3.2757039692,
				"z": 2.9293595036,
				"element": "H" 
			},
			{
				"x": 1.3798637479,
				"y": -0.0433158497,
				"z": 2.7910145949,
				"element": "H" 
			},
			{
				"x": -1.667290071,
				"y": 2.6620438686,
				"z": -0.7965751536,
				"element": "H" 
			},
			{
				"x": -3.1542692436,
				"y": 1.740750608,
				"z": -0.7769214801,
				"element": "H" 
			},
			{
				"x": -2.2175526638,
				"y": 1.932179838,
				"z": 0.7056350589,
				"element": "H" 
			},
			{
				"x": -3.3003163063,
				"y": -1.4469620257,
				"z": 1.0852629892,
				"element": "H" 
			},
			{
				"x": -4.1074598124,
				"y": -1.2988142328,
				"z": -0.4724210161,
				"element": "H" 
			},
			{
				"x": -3.733716765,
				"y": 0.1373777363,
				"z": 0.4735953849,
				"element": "H" 
			}
		],
		 "valence_orbital": [ 
			{
				"type": "occ",
				"energy": -0.26604,
				"method": "rhf"
			},
			{
				"type": "occ",
				"energy": -0.26242,
				"method": "rhf"
			},
			{
				"type": "occ",
				"energy": -0.24436,
				"method": "rhf"
			},
			{
				"type": "occ",
				"energy": -0.22237,
				"method": "rhf"
			},
			{
				"type": "occ",
				"energy": -0.21642,
				"method": "rhf"
			},
			{
				"type": "unocc",
				"energy": -0.06374,
				"method": "rhf"
			},
			{
				"type": "unocc",
				"energy": -0.03329,
				"method": "rhf"
			},
			{
				"type": "unocc",
				"energy": -0.00775,
				"method": "rhf"
			},
			{
				"type": "unocc",
				"energy": 0.01013,
				"method": "rhf"
			},
			{
				"type": "unocc",
				"energy": 0.03217,
				"method": "rhf"
			}
		],
		"cosmo_sigma_profile": { 
			"-0.025": 0.0,
			"-0.024": 0.0,
			"-0.023": 0.0,
			"-0.022": 0.0,
			"-0.021": 0.0,
			"-0.02": 0.0,
			"-0.019": 0.0651957232059,
			"-0.018": 0.95400330844,
			"-0.017": 0.658594660492,
			"-0.016": 1.15622106128,
			"-0.015": 0.88216013275,
			"-0.014": 0.183402147962,
			"-0.013": 0.263877782048,
			"-0.012": 1.22889406316,
			"-0.011": 1.09666573224,
			"-0.01": 0.678203017204,
			"-0.009": 0.383502357173,
			"-0.008": 0.54344793276,
			"-0.007": 5.42719525997,
			"-0.006": 9.54446950937,
			"-0.005": 9.94983335088,
			"-0.004": 23.3746795382,
			"-0.003": 38.0363939529,
			"-0.002": 34.91339049,
			"-0.001": 36.0679164346,
			"0.0": 39.0068773703,
			"0.001": 32.0470971343,
			"0.002": 21.9500657221,
			"0.003": 17.3517952545,
			"0.004": 9.16293175181,
			"0.005": 9.9770986945,
			"0.006": 9.12024202731,
			"0.007": 5.701309101,
			"0.008": 5.25878043457,
			"0.009": 5.09310452552,
			"0.01": 5.20132671678,
			"0.011": 5.25761695892,
			"0.012": 4.35195589841,
			"0.013": 0.596789765291,
			"0.014": 0.0,
			"0.015": 0.0,
			"0.016": 0.0,
			"0.017": 0.0,
			"0.018": 0.0,
			"0.019": 0.0,
			"0.02": 0.0,
			"0.021": 0.0,
			"0.022": 0.0,
			"0.023": 0.0,
			"0.024": 0.0,
			"0.025": 0.0
		}
	}
}
