{
	 "smiles": "CCOC(=O)CCC1=NC(CC(=O)NC)=NO1", 
	 "Tm": 358.15, 
	 "num_atms": 32, 
	 "gaussian": { 
		 "optdone": 1, 
		 "sigma_profile": "yes", 
		 "theory": "DFT", 
		 "functional": "B3LYP", 
		 "basiset": "6-31G**", 
		 "properties": { 
			 "R2extent": 6105.0718, 
			 "electric_dipole_moment_norm": 3.17999377672, 
			 "electric_quadrupole_moment_norm": 25.2094774446, 
			 "total_energy": -855.246878202, 
			 "HOMO_LUMO_gap": 0.23471, 
			 "cosmo_polarized_energy": -22.94, 
			 "cosmo_cavitation_energy": 37.33, 
			 "cosmo_dispersion_energy": -25.06, 
			 "cosmo_repulsion_energy": 2.03, 
			 "cosmo_total_nonelectrostatic_energy": 14.3, 
			 "SMD_solvation_energy": 5.89 
		},
		"coords": [
			{
				"x": 3.1977299404,
				"y": -1.4817044009,
				"z": -0.916379152,
				"element": "C" 
			},
			{
				"x": 3.5761331454,
				"y": -0.6458553354,
				"z": -2.1294190719,
				"element": "C" 
			},
			{
				"x": 2.4248504297,
				"y": 0.0554305259,
				"z": -2.6610121944,
				"element": "O" 
			},
			{
				"x": 1.6514515751,
				"y": -0.6271183586,
				"z": -3.535577682,
				"element": "C" 
			},
			{
				"x": 1.8827811198,
				"y": -1.7546699252,
				"z": -3.912250195,
				"element": "O" 
			},
			{
				"x": 0.4803871899,
				"y": 0.2050574284,
				"z": -4.0337615853,
				"element": "C" 
			},
			{
				"x": 0.1116888034,
				"y": 1.4252210357,
				"z": -3.1840196081,
				"element": "C" 
			},
			{
				"x": -0.3970168281,
				"y": 1.0477913498,
				"z": -1.8311584979,
				"element": "C" 
			},
			{
				"x": -0.8625277959,
				"y": -0.0994159505,
				"z": -1.4328529742,
				"element": "N" 
			},
			{
				"x": -1.2108613543,
				"y": 0.1647577873,
				"z": -0.1258216913,
				"element": "C" 
			},
			{
				"x": -1.8090004385,
				"y": -0.8583154656,
				"z": 0.7812002729,
				"element": "C" 
			},
			{
				"x": -3.2763784982,
				"y": -1.1423929759,
				"z": 0.4232075059,
				"element": "C" 
			},
			{
				"x": -3.9059161297,
				"y": -0.4530225206,
				"z": -0.3647986921,
				"element": "O" 
			},
			{
				"x": -3.8459921464,
				"y": -2.2041797088,
				"z": 1.0715802825,
				"element": "N" 
			},
			{
				"x": -3.197679867,
				"y": -3.152563193,
				"z": 1.9613410543,
				"element": "C" 
			},
			{
				"x": -0.9657801447,
				"y": 1.386278379,
				"z": 0.2728262335,
				"element": "N" 
			},
			{
				"x": -0.4185898615,
				"y": 1.9914409704,
				"z": -0.8751215477,
				"element": "O" 
			},
			{
				"x": 2.7319326537,
				"y": -0.8606974068,
				"z": -0.1456612798,
				"element": "H" 
			},
			{
				"x": 4.0942997319,
				"y": -1.9448245533,
				"z": -0.4908848158,
				"element": "H" 
			},
			{
				"x": 2.5024198206,
				"y": -2.2750878967,
				"z": -1.2008436928,
				"element": "H" 
			},
			{
				"x": 4.003001796,
				"y": -1.267117846,
				"z": -2.9201175275,
				"element": "H" 
			},
			{
				"x": 4.2802309161,
				"y": 0.1474039873,
				"z": -1.8673124615,
				"element": "H" 
			},
			{
				"x": 0.7358756813,
				"y": 0.5341724314,
				"z": -5.0480948055,
				"element": "H" 
			},
			{
				"x": -0.3685132994,
				"y": -0.4759888835,
				"z": -4.127130588,
				"element": "H" 
			},
			{
				"x": -0.6713657,
				"y": 1.9991722467,
				"z": -3.6956332442,
				"element": "H" 
			},
			{
				"x": 0.9670059417,
				"y": 2.0947251974,
				"z": -3.0625626433,
				"element": "H" 
			},
			{
				"x": -1.219381348,
				"y": -1.7795431774,
				"z": 0.7218181125,
				"element": "H" 
			},
			{
				"x": -1.7550875249,
				"y": -0.4979278873,
				"z": 1.814266922,
				"element": "H" 
			},
			{
				"x": -4.8005780459,
				"y": -2.3790244981,
				"z": 0.7892756627,
				"element": "H" 
			},
			{
				"x": -3.9672328673,
				"y": -3.7579611218,
				"z": 2.4445390859,
				"element": "H" 
			},
			{
				"x": -2.6383337886,
				"y": -2.6424202772,
				"z": 2.7519221972,
				"element": "H" 
			},
			{
				"x": -2.5137531067,
				"y": -3.8324199567,
				"z": 1.4357366209,
				"element": "H" 
			}
		],
		 "valence_orbital": [ 
			{
				"type": "occ",
				"energy": -0.29156,
				"method": "rhf"
			},
			{
				"type": "occ",
				"energy": -0.27962,
				"method": "rhf"
			},
			{
				"type": "occ",
				"energy": -0.26915,
				"method": "rhf"
			},
			{
				"type": "occ",
				"energy": -0.25419,
				"method": "rhf"
			},
			{
				"type": "occ",
				"energy": -0.25067,
				"method": "rhf"
			},
			{
				"type": "unocc",
				"energy": -0.01596,
				"method": "rhf"
			},
			{
				"type": "unocc",
				"energy": 0.01265,
				"method": "rhf"
			},
			{
				"type": "unocc",
				"energy": 0.02626,
				"method": "rhf"
			},
			{
				"type": "unocc",
				"energy": 0.0429,
				"method": "rhf"
			},
			{
				"type": "unocc",
				"energy": 0.07203,
				"method": "rhf"
			}
		],
		"cosmo_sigma_profile": { 
			"-0.025": 0.0,
			"-0.024": 0.0,
			"-0.023": 0.0,
			"-0.022": 0.0,
			"-0.021": 0.0,
			"-0.02": 0.0,
			"-0.019": 0.0,
			"-0.018": 0.0,
			"-0.017": 0.0,
			"-0.016": 0.0,
			"-0.015": 0.0,
			"-0.014": 0.489227580457,
			"-0.013": 1.17227919202,
			"-0.012": 1.38380170553,
			"-0.011": 1.00113760807,
			"-0.01": 0.978768086357,
			"-0.009": 0.732620239348,
			"-0.008": 6.13217208165,
			"-0.007": 15.6003063969,
			"-0.006": 20.5045029216,
			"-0.005": 24.2786676534,
			"-0.004": 28.9623980215,
			"-0.003": 26.2391833468,
			"-0.002": 22.9930620269,
			"-0.001": 17.189540116,
			"0.0": 16.6541822834,
			"0.001": 14.1569634257,
			"0.002": 10.5753289996,
			"0.003": 8.302802717,
			"0.004": 8.52610282005,
			"0.005": 7.64768602648,
			"0.006": 7.69193060172,
			"0.007": 8.26480102012,
			"0.008": 6.13442908439,
			"0.009": 5.36827267666,
			"0.01": 5.40323500736,
			"0.011": 7.7790768022,
			"0.012": 8.6118455886,
			"0.013": 7.0248299885,
			"0.014": 3.91641549604,
			"0.015": 0.19393789853,
			"0.016": 0.0,
			"0.017": 0.0,
			"0.018": 0.0,
			"0.019": 0.0,
			"0.02": 0.0,
			"0.021": 0.0,
			"0.022": 0.0,
			"0.023": 0.0,
			"0.024": 0.0,
			"0.025": 0.0
		}
	}
}
