{
	 "smiles": "SC1=CC=C(SC2=CC=C(S)C=C2)C=C1", 
	 "Tm": 386.15, 
	 "num_atms": 25, 
	 "gaussian": { 
		 "optdone": 1, 
		 "sigma_profile": "yes", 
		 "theory": "DFT", 
		 "functional": "B3LYP", 
		 "basiset": "6-31G**", 
		 "properties": { 
			 "R2extent": 6827.654, 
			 "electric_dipole_moment_norm": 0.298749627615, 
			 "electric_quadrupole_moment_norm": 22.1206738903, 
			 "total_energy": -1657.85630196, 
			 "HOMO_LUMO_gap": 0.17865, 
			 "cosmo_polarized_energy": -10.84, 
			 "cosmo_cavitation_energy": 34.53, 
			 "cosmo_dispersion_energy": -26.09, 
			 "cosmo_repulsion_energy": 1.91, 
			 "cosmo_total_nonelectrostatic_energy": 10.36, 
			 "SMD_solvation_energy": 4.24 
		},
		"coords": [
			{
				"x": -1.8758245663,
				"y": 2.3294946862,
				"z": -3.9625484645,
				"element": "S" 
			},
			{
				"x": -1.4845689671,
				"y": 0.9413900346,
				"z": -2.90958602,
				"element": "C" 
			},
			{
				"x": -1.1621011351,
				"y": -0.3263543729,
				"z": -3.4063916226,
				"element": "C" 
			},
			{
				"x": -0.8472105938,
				"y": -1.3656638851,
				"z": -2.5307697,
				"element": "C" 
			},
			{
				"x": -0.8677483975,
				"y": -1.1623156575,
				"z": -1.146491739,
				"element": "C" 
			},
			{
				"x": -0.5585717301,
				"y": -2.5613280201,
				"z": -0.0696485829,
				"element": "S" 
			},
			{
				"x": 0.5849448993,
				"y": -1.9008114367,
				"z": 1.1421194108,
				"element": "C" 
			},
			{
				"x": 0.3653554917,
				"y": -2.1851179491,
				"z": 2.4945024324,
				"element": "C" 
			},
			{
				"x": 1.2728078011,
				"y": -1.7622309102,
				"z": 3.4659610832,
				"element": "C" 
			},
			{
				"x": 2.4075209848,
				"y": -1.0297195744,
				"z": 3.1001405871,
				"element": "C" 
			},
			{
				"x": 3.6037463241,
				"y": -0.4314900811,
				"z": 4.2832720395,
				"element": "S" 
			},
			{
				"x": 2.6243542853,
				"y": -0.7367788095,
				"z": 1.7449143805,
				"element": "C" 
			},
			{
				"x": 1.7292526224,
				"y": -1.1778478261,
				"z": 0.7760276624,
				"element": "C" 
			},
			{
				"x": -1.204006982,
				"y": 0.1051961475,
				"z": -0.6500273425,
				"element": "C" 
			},
			{
				"x": -1.4973294304,
				"y": 1.1486166528,
				"z": -1.5216581431,
				"element": "C" 
			},
			{
				"x": -1.8158002843,
				"y": 1.6668400462,
				"z": -5.1331097261,
				"element": "H" 
			},
			{
				"x": -1.1383926182,
				"y": -0.5079055711,
				"z": -4.4770051726,
				"element": "H" 
			},
			{
				"x": -0.5783510534,
				"y": -2.3395247631,
				"z": -2.9283894262,
				"element": "H" 
			},
			{
				"x": -0.5221454962,
				"y": -2.7350863243,
				"z": 2.7922697116,
				"element": "H" 
			},
			{
				"x": 1.0804380769,
				"y": -1.9938007538,
				"z": 4.509563413,
				"element": "H" 
			},
			{
				"x": 3.050525506,
				"y": -0.9967717228,
				"z": 5.3729327311,
				"element": "H" 
			},
			{
				"x": 3.5041199237,
				"y": -0.1749376599,
				"z": 1.4443199011,
				"element": "H" 
			},
			{
				"x": 1.9176662885,
				"y": -0.9564369004,
				"z": -0.2694876759,
				"element": "H" 
			},
			{
				"x": -1.2321707503,
				"y": 0.2765672695,
				"z": 0.4211690929,
				"element": "H" 
			},
			{
				"x": -1.7522101992,
				"y": 2.1253173811,
				"z": -1.1202788302,
				"element": "H" 
			}
		],
		 "valence_orbital": [ 
			{
				"type": "occ",
				"energy": -0.26603,
				"method": "rhf"
			},
			{
				"type": "occ",
				"energy": -0.26237,
				"method": "rhf"
			},
			{
				"type": "occ",
				"energy": -0.25619,
				"method": "rhf"
			},
			{
				"type": "occ",
				"energy": -0.22804,
				"method": "rhf"
			},
			{
				"type": "occ",
				"energy": -0.20296,
				"method": "rhf"
			},
			{
				"type": "unocc",
				"energy": -0.02431,
				"method": "rhf"
			},
			{
				"type": "unocc",
				"energy": -0.02051,
				"method": "rhf"
			},
			{
				"type": "unocc",
				"energy": -0.01794,
				"method": "rhf"
			},
			{
				"type": "unocc",
				"energy": -0.00735,
				"method": "rhf"
			},
			{
				"type": "unocc",
				"energy": 0.01023,
				"method": "rhf"
			}
		],
		"cosmo_sigma_profile": { 
			"-0.025": 0.0,
			"-0.024": 0.0,
			"-0.023": 0.0,
			"-0.022": 0.0,
			"-0.021": 0.0,
			"-0.02": 0.0,
			"-0.019": 0.0,
			"-0.018": 0.0,
			"-0.017": 0.0,
			"-0.016": 0.0,
			"-0.015": 0.0,
			"-0.014": 0.0,
			"-0.013": 0.0,
			"-0.012": 0.0,
			"-0.011": 2.65569309365,
			"-0.01": 5.86366454957,
			"-0.009": 4.58311681468,
			"-0.008": 4.52667816111,
			"-0.007": 9.55744587527,
			"-0.006": 16.0904005117,
			"-0.005": 18.1816533993,
			"-0.004": 14.0108966482,
			"-0.003": 14.3791876375,
			"-0.002": 15.3139682452,
			"-0.001": 14.2180455641,
			"0.0": 16.7513050336,
			"0.001": 18.3004018479,
			"0.002": 22.7637523896,
			"0.003": 27.7855970487,
			"0.004": 38.9758897948,
			"0.005": 13.8501174627,
			"0.006": 9.37738849053,
			"0.007": 8.21973601684,
			"0.008": 6.59609569652,
			"0.009": 1.84989693653,
			"0.01": 0.0,
			"0.011": 0.0,
			"0.012": 0.0,
			"0.013": 0.0,
			"0.014": 0.0,
			"0.015": 0.0,
			"0.016": 0.0,
			"0.017": 0.0,
			"0.018": 0.0,
			"0.019": 0.0,
			"0.02": 0.0,
			"0.021": 0.0,
			"0.022": 0.0,
			"0.023": 0.0,
			"0.024": 0.0,
			"0.025": 0.0
		}
	}
}
