{
	 "smiles": "NC1=CC(NC(=O)C2=CSC=C2)=C(F)C=C1", 
	 "Tm": 392.15, 
	 "num_atms": 25, 
	 "gaussian": { 
		 "optdone": 1, 
		 "sigma_profile": "yes", 
		 "theory": "DFT", 
		 "functional": "B3LYP", 
		 "basiset": "6-31G**", 
		 "properties": { 
			 "R2extent": 4465.6086, 
			 "electric_dipole_moment_norm": 5.12913274833, 
			 "electric_quadrupole_moment_norm": 6.84439304687, 
			 "total_energy": -1107.33815313, 
			 "HOMO_LUMO_gap": 0.16439, 
			 "cosmo_polarized_energy": -15.28, 
			 "cosmo_cavitation_energy": 31.78, 
			 "cosmo_dispersion_energy": -22.83, 
			 "cosmo_repulsion_energy": 1.72, 
			 "cosmo_total_nonelectrostatic_energy": 10.67, 
			 "SMD_solvation_energy": 6.6 
		},
		"coords": [
			{
				"x": 2.2053570296,
				"y": -2.6384120989,
				"z": 2.0625415254,
				"element": "N" 
			},
			{
				"x": 0.9682656396,
				"y": -2.2996491437,
				"z": 1.507112282,
				"element": "C" 
			},
			{
				"x": 0.8913475508,
				"y": -1.2997658037,
				"z": 0.5233610265,
				"element": "C" 
			},
			{
				"x": -0.3299315928,
				"y": -0.9712381683,
				"z": -0.0745379188,
				"element": "C" 
			},
			{
				"x": -0.4850370459,
				"y": 0.008812489,
				"z": -1.072157907,
				"element": "N" 
			},
			{
				"x": 0.2832654062,
				"y": 1.1124257918,
				"z": -1.4122260705,
				"element": "C" 
			},
			{
				"x": 0.2148358346,
				"y": 1.5681474948,
				"z": -2.5478887402,
				"element": "O" 
			},
			{
				"x": 1.1163825703,
				"y": 1.7705346108,
				"z": -0.3642134338,
				"element": "C" 
			},
			{
				"x": 2.2175835187,
				"y": 2.5077533249,
				"z": -0.7273839593,
				"element": "C" 
			},
			{
				"x": 2.9598731388,
				"y": 3.2706341475,
				"z": 0.628518848,
				"element": "S" 
			},
			{
				"x": 1.7654976018,
				"y": 2.6165207664,
				"z": 1.7100703037,
				"element": "C" 
			},
			{
				"x": 0.858137847,
				"y": 1.8420890292,
				"z": 1.047672404,
				"element": "C" 
			},
			{
				"x": -1.4668964245,
				"y": -1.7028109069,
				"z": 0.2943386931,
				"element": "C" 
			},
			{
				"x": -2.6414975468,
				"y": -1.4107995748,
				"z": -0.3220260285,
				"element": "F" 
			},
			{
				"x": -1.408646676,
				"y": -2.7091943268,
				"z": 1.2424307672,
				"element": "C" 
			},
			{
				"x": -0.1950178602,
				"y": -3.003250887,
				"z": 1.8621742867,
				"element": "C" 
			},
			{
				"x": 2.890466702,
				"y": -1.8952829892,
				"z": 2.0672549503,
				"element": "H" 
			},
			{
				"x": 2.1568163227,
				"y": -3.107137849,
				"z": 2.9565571135,
				"element": "H" 
			},
			{
				"x": 1.7919675013,
				"y": -0.7819065384,
				"z": 0.2140018085,
				"element": "H" 
			},
			{
				"x": -1.1711523347,
				"y": -0.2044805842,
				"z": -1.7864182197,
				"element": "H" 
			},
			{
				"x": 2.601154219,
				"y": 2.6409468869,
				"z": -1.7287483487,
				"element": "H" 
			},
			{
				"x": 1.8017402402,
				"y": 2.8523384592,
				"z": 2.7645466102,
				"element": "H" 
			},
			{
				"x": 0.0256471923,
				"y": 1.3512700844,
				"z": 1.5351729717,
				"element": "H" 
			},
			{
				"x": -2.3158387828,
				"y": -3.2471804471,
				"z": 1.4959521809,
				"element": "H" 
			},
			{
				"x": -0.1460200513,
				"y": -3.7895637673,
				"z": 2.6097948547,
				"element": "H" 
			}
		],
		 "valence_orbital": [ 
			{
				"type": "occ",
				"energy": -0.26617,
				"method": "rhf"
			},
			{
				"type": "occ",
				"energy": -0.25874,
				"method": "rhf"
			},
			{
				"type": "occ",
				"energy": -0.24299,
				"method": "rhf"
			},
			{
				"type": "occ",
				"energy": -0.23177,
				"method": "rhf"
			},
			{
				"type": "occ",
				"energy": -0.20452,
				"method": "rhf"
			},
			{
				"type": "unocc",
				"energy": -0.04013,
				"method": "rhf"
			},
			{
				"type": "unocc",
				"energy": -0.01707,
				"method": "rhf"
			},
			{
				"type": "unocc",
				"energy": 0.01334,
				"method": "rhf"
			},
			{
				"type": "unocc",
				"energy": 0.01833,
				"method": "rhf"
			},
			{
				"type": "unocc",
				"energy": 0.02442,
				"method": "rhf"
			}
		],
		"cosmo_sigma_profile": { 
			"-0.025": 0.0,
			"-0.024": 0.0,
			"-0.023": 0.0,
			"-0.022": 0.0,
			"-0.021": 0.0,
			"-0.02": 0.0,
			"-0.019": 0.0,
			"-0.018": 0.0,
			"-0.017": 0.0,
			"-0.016": 0.0,
			"-0.015": 0.0,
			"-0.014": 0.0,
			"-0.013": 0.817531636547,
			"-0.012": 3.40769004012,
			"-0.011": 3.97825398483,
			"-0.01": 3.46808277775,
			"-0.009": 6.64699324781,
			"-0.008": 7.7848710371,
			"-0.007": 9.38365602955,
			"-0.006": 10.5485370009,
			"-0.005": 13.1861038219,
			"-0.004": 14.1422771256,
			"-0.003": 10.9368196604,
			"-0.002": 12.5861845629,
			"-0.001": 14.8207765936,
			"0.0": 14.2131975922,
			"0.001": 19.916718651,
			"0.002": 24.3734048596,
			"0.003": 25.6433788756,
			"0.004": 20.6773432175,
			"0.005": 13.4586083769,
			"0.006": 3.05080410114,
			"0.007": 2.20097011761,
			"0.008": 2.75608133692,
			"0.009": 1.70918241735,
			"0.01": 2.87825553096,
			"0.011": 2.24725984381,
			"0.012": 3.86459106866,
			"0.013": 5.73873035785,
			"0.014": 2.12361343305,
			"0.015": 0.120407090035,
			"0.016": 0.0,
			"0.017": 0.0,
			"0.018": 0.0,
			"0.019": 0.0,
			"0.02": 0.0,
			"0.021": 0.0,
			"0.022": 0.0,
			"0.023": 0.0,
			"0.024": 0.0,
			"0.025": 0.0
		}
	}
}
