{
	 "smiles": "OC(=O)C1=CC=CC(COC2=CC=CC=C2)=C1", 
	 "Tm": 391.15, 
	 "num_atms": 29, 
	 "gaussian": { 
		 "optdone": 1, 
		 "sigma_profile": "yes", 
		 "theory": "DFT", 
		 "functional": "B3LYP", 
		 "basiset": "6-31G**", 
		 "properties": { 
			 "R2extent": 6605.4961, 
			 "electric_dipole_moment_norm": 1.40040706582, 
			 "electric_quadrupole_moment_norm": 9.35246810687, 
			 "total_energy": -766.404244784, 
			 "HOMO_LUMO_gap": 0.16819, 
			 "cosmo_polarized_energy": -11.89, 
			 "cosmo_cavitation_energy": 33.78, 
			 "cosmo_dispersion_energy": -24.11, 
			 "cosmo_repulsion_energy": 1.88, 
			 "cosmo_total_nonelectrostatic_energy": 11.55, 
			 "SMD_solvation_energy": 7.07 
		},
		"coords": [
			{
				"x": -5.6797170522,
				"y": -0.9577218669,
				"z": 0.8494621423,
				"element": "O" 
			},
			{
				"x": -4.5759218804,
				"y": -1.7155511162,
				"z": 1.0680389086,
				"element": "C" 
			},
			{
				"x": -4.640254116,
				"y": -2.8120283888,
				"z": 1.5891383492,
				"element": "O" 
			},
			{
				"x": -3.3203378124,
				"y": -1.0649574877,
				"z": 0.6081186081,
				"element": "C" 
			},
			{
				"x": -3.3074894444,
				"y": 0.2073208146,
				"z": 0.0216800501,
				"element": "C" 
			},
			{
				"x": -2.0945231473,
				"y": 0.764079063,
				"z": -0.3810145746,
				"element": "C" 
			},
			{
				"x": -0.9025610732,
				"y": 0.059517708,
				"z": -0.2077062642,
				"element": "C" 
			},
			{
				"x": -0.9063508565,
				"y": -1.2125218368,
				"z": 0.3793641583,
				"element": "C" 
			},
			{
				"x": 0.378202702,
				"y": -2.0097900959,
				"z": 0.5181577599,
				"element": "C" 
			},
			{
				"x": 1.5497007998,
				"y": -1.2096677247,
				"z": 0.6277063592,
				"element": "O" 
			},
			{
				"x": 1.8679297621,
				"y": -0.6484548119,
				"z": 1.8401731444,
				"element": "C" 
			},
			{
				"x": 3.1146402935,
				"y": -0.0093966114,
				"z": 1.8927853765,
				"element": "C" 
			},
			{
				"x": 3.5408756238,
				"y": 0.5864271665,
				"z": 3.075194684,
				"element": "C" 
			},
			{
				"x": 2.7348025233,
				"y": 0.5527876711,
				"z": 4.2179856731,
				"element": "C" 
			},
			{
				"x": 1.4955418508,
				"y": -0.0809050431,
				"z": 4.1572751972,
				"element": "C" 
			},
			{
				"x": 1.0503831006,
				"y": -0.6816266654,
				"z": 2.9752142949,
				"element": "C" 
			},
			{
				"x": -2.1204348599,
				"y": -1.765506525,
				"z": 0.7871435649,
				"element": "C" 
			},
			{
				"x": -6.4271367322,
				"y": -1.4787931946,
				"z": 1.1857868571,
				"element": "H" 
			},
			{
				"x": -4.2372233382,
				"y": 0.7485799201,
				"z": -0.1101006627,
				"element": "H" 
			},
			{
				"x": -2.0765387688,
				"y": 1.7516260011,
				"z": -0.8323474202,
				"element": "H" 
			},
			{
				"x": 0.0423099756,
				"y": 0.4946078854,
				"z": -0.5175027938,
				"element": "H" 
			},
			{
				"x": 0.3063177053,
				"y": -2.7115815377,
				"z": 1.3591836561,
				"element": "H" 
			},
			{
				"x": 0.5424233973,
				"y": -2.603402037,
				"z": -0.3881375197,
				"element": "H" 
			},
			{
				"x": 3.7297797301,
				"y": 0.0003375333,
				"z": 0.998751774,
				"element": "H" 
			},
			{
				"x": 4.509935521,
				"y": 1.0766373161,
				"z": 3.105679275,
				"element": "H" 
			},
			{
				"x": 3.0695815293,
				"y": 1.0172003567,
				"z": 5.1402914798,
				"element": "H" 
			},
			{
				"x": 0.8551066498,
				"y": -0.1092396953,
				"z": 5.0344278797,
				"element": "H" 
			},
			{
				"x": 0.0725466858,
				"y": -1.1467397464,
				"z": 2.947150223,
				"element": "H" 
			},
			{
				"x": -2.1632887687,
				"y": -2.7465370512,
				"z": 1.2518998198,
				"element": "H" 
			}
		],
		 "valence_orbital": [ 
			{
				"type": "occ",
				"energy": -0.27938,
				"method": "rhf"
			},
			{
				"type": "occ",
				"energy": -0.26446,
				"method": "rhf"
			},
			{
				"type": "occ",
				"energy": -0.25966,
				"method": "rhf"
			},
			{
				"type": "occ",
				"energy": -0.24794,
				"method": "rhf"
			},
			{
				"type": "occ",
				"energy": -0.22011,
				"method": "rhf"
			},
			{
				"type": "unocc",
				"energy": -0.05192,
				"method": "rhf"
			},
			{
				"type": "unocc",
				"energy": -0.01674,
				"method": "rhf"
			},
			{
				"type": "unocc",
				"energy": 0.00173,
				"method": "rhf"
			},
			{
				"type": "unocc",
				"energy": 0.01377,
				"method": "rhf"
			},
			{
				"type": "unocc",
				"energy": 0.05084,
				"method": "rhf"
			}
		],
		"cosmo_sigma_profile": { 
			"-0.025": 0.0,
			"-0.024": 0.0,
			"-0.023": 0.0,
			"-0.022": 0.0,
			"-0.021": 0.0,
			"-0.02": 0.0,
			"-0.019": 0.0234576811059,
			"-0.018": 0.747656883718,
			"-0.017": 0.782168339053,
			"-0.016": 1.04987970877,
			"-0.015": 0.706864545195,
			"-0.014": 0.863578079861,
			"-0.013": 0.865522493423,
			"-0.012": 0.205277421803,
			"-0.011": 0.931381072589,
			"-0.01": 0.98030750697,
			"-0.009": 0.183341798312,
			"-0.008": 0.674124928587,
			"-0.007": 5.64927822683,
			"-0.006": 16.3199597851,
			"-0.005": 21.0752753268,
			"-0.004": 21.2620077962,
			"-0.003": 19.5678685559,
			"-0.002": 16.7140703944,
			"-0.001": 17.2499736495,
			"0.0": 16.4063585606,
			"0.001": 19.5292205654,
			"0.002": 19.9737789772,
			"0.003": 23.9373024105,
			"0.004": 17.7324879087,
			"0.005": 12.8647221239,
			"0.006": 12.5447936615,
			"0.007": 5.064567296,
			"0.008": 2.99485324899,
			"0.009": 2.33548668131,
			"0.01": 2.90303494407,
			"0.011": 3.85907962805,
			"0.012": 4.03487104634,
			"0.013": 0.112638709219,
			"0.014": 0.0,
			"0.015": 0.0,
			"0.016": 0.0,
			"0.017": 0.0,
			"0.018": 0.0,
			"0.019": 0.0,
			"0.02": 0.0,
			"0.021": 0.0,
			"0.022": 0.0,
			"0.023": 0.0,
			"0.024": 0.0,
			"0.025": 0.0
		}
	}
}
