{
	 "smiles": "COC(=O)CC1=CC(=O)NC(S)=N1", 
	 "Tm": 459.15, 
	 "num_atms": 21, 
	 "gaussian": { 
		 "optdone": 1, 
		 "sigma_profile": "yes", 
		 "theory": "DFT", 
		 "functional": "B3LYP", 
		 "basiset": "6-31G**", 
		 "properties": { 
			 "R2extent": 4671.7457, 
			 "electric_dipole_moment_norm": 2.23745651354, 
			 "electric_quadrupole_moment_norm": 25.3746940086, 
			 "total_energy": -1004.93891789, 
			 "HOMO_LUMO_gap": 0.1897, 
			 "cosmo_polarized_energy": -21.12, 
			 "cosmo_cavitation_energy": 28.45, 
			 "cosmo_dispersion_energy": -20.64, 
			 "cosmo_repulsion_energy": 1.65, 
			 "cosmo_total_nonelectrostatic_energy": 9.47, 
			 "SMD_solvation_energy": 5.47 
		},
		"coords": [
			{
				"x": 0.4260143075,
				"y": -1.5974404177,
				"z": -1.3746445276,
				"element": "C" 
			},
			{
				"x": -0.6827609014,
				"y": -0.7342699535,
				"z": -1.0688847371,
				"element": "O" 
			},
			{
				"x": -1.2051511167,
				"y": -0.074189145,
				"z": -2.1226241394,
				"element": "C" 
			},
			{
				"x": -0.8123515707,
				"y": -0.1947607103,
				"z": -3.2601868596,
				"element": "O" 
			},
			{
				"x": -2.3850652071,
				"y": 0.7957702805,
				"z": -1.7015750932,
				"element": "C" 
			},
			{
				"x": -2.1549928406,
				"y": 1.5642620684,
				"z": -0.4250318439,
				"element": "C" 
			},
			{
				"x": -2.9469237828,
				"y": 1.4069258456,
				"z": 0.6770853626,
				"element": "C" 
			},
			{
				"x": -2.7028028475,
				"y": 2.1756596239,
				"z": 1.8767772717,
				"element": "C" 
			},
			{
				"x": -3.3121694838,
				"y": 2.1538993992,
				"z": 2.9347200251,
				"element": "O" 
			},
			{
				"x": -1.587365389,
				"y": 3.0536475622,
				"z": 1.7291859601,
				"element": "N" 
			},
			{
				"x": -0.8523825452,
				"y": 3.144537838,
				"z": 0.587073627,
				"element": "C" 
			},
			{
				"x": 0.5254025863,
				"y": 4.2667470587,
				"z": 0.4883762636,
				"element": "S" 
			},
			{
				"x": -1.0947948337,
				"y": 2.4446263127,
				"z": -0.4794340797,
				"element": "N" 
			},
			{
				"x": 0.7272963513,
				"y": -2.0364753593,
				"z": -0.4238254458,
				"element": "H" 
			},
			{
				"x": 1.2472107892,
				"y": -1.0246182691,
				"z": -1.8119471779,
				"element": "H" 
			},
			{
				"x": 0.12368199,
				"y": -2.3761501706,
				"z": -2.079287454,
				"element": "H" 
			},
			{
				"x": -2.5670919721,
				"y": 1.4889613724,
				"z": -2.5268372759,
				"element": "H" 
			},
			{
				"x": -3.2621089495,
				"y": 0.1478529262,
				"z": -1.599816097,
				"element": "H" 
			},
			{
				"x": -3.7734662951,
				"y": 0.7076283041,
				"z": 0.6969654968,
				"element": "H" 
			},
			{
				"x": -1.3828533213,
				"y": 3.6101789058,
				"z": 2.550118231,
				"element": "H" 
			},
			{
				"x": 0.4253750323,
				"y": 4.7662065277,
				"z": 1.7371924932,
				"element": "H" 
			}
		],
		 "valence_orbital": [ 
			{
				"type": "occ",
				"energy": -0.2968,
				"method": "rhf"
			},
			{
				"type": "occ",
				"energy": -0.2915,
				"method": "rhf"
			},
			{
				"type": "occ",
				"energy": -0.27629,
				"method": "rhf"
			},
			{
				"type": "occ",
				"energy": -0.26609,
				"method": "rhf"
			},
			{
				"type": "occ",
				"energy": -0.24197,
				"method": "rhf"
			},
			{
				"type": "unocc",
				"energy": -0.05227,
				"method": "rhf"
			},
			{
				"type": "unocc",
				"energy": -0.01661,
				"method": "rhf"
			},
			{
				"type": "unocc",
				"energy": -0.01074,
				"method": "rhf"
			},
			{
				"type": "unocc",
				"energy": 0.00891,
				"method": "rhf"
			},
			{
				"type": "unocc",
				"energy": 0.04321,
				"method": "rhf"
			}
		],
		"cosmo_sigma_profile": { 
			"-0.025": 0.0,
			"-0.024": 0.0,
			"-0.023": 0.0,
			"-0.022": 0.0,
			"-0.021": 0.0,
			"-0.02": 0.0,
			"-0.019": 0.375880016587,
			"-0.018": 1.56254510829,
			"-0.017": 1.50210013947,
			"-0.016": 1.60939570146,
			"-0.015": 1.46078298144,
			"-0.014": 0.981612225383,
			"-0.013": 2.00448754656,
			"-0.012": 2.43614998076,
			"-0.011": 1.67188439159,
			"-0.01": 1.89541828897,
			"-0.009": 1.8225707388,
			"-0.008": 6.40579930953,
			"-0.007": 7.5243921315,
			"-0.006": 11.9295435522,
			"-0.005": 13.7139314112,
			"-0.004": 15.1677378296,
			"-0.003": 19.8879043681,
			"-0.002": 12.7557930653,
			"-0.001": 10.2750558229,
			"0.0": 10.6517863856,
			"0.001": 13.6812760355,
			"0.002": 11.0976146136,
			"0.003": 9.82111790956,
			"0.004": 10.8303619509,
			"0.005": 9.57830767742,
			"0.006": 8.64752811437,
			"0.007": 5.66157090861,
			"0.008": 3.80836731089,
			"0.009": 3.57582443816,
			"0.01": 4.70213777417,
			"0.011": 6.32229154478,
			"0.012": 7.05200152818,
			"0.013": 6.48528067146,
			"0.014": 2.22157671095,
			"0.015": 0.125528252162,
			"0.016": 0.0,
			"0.017": 0.0,
			"0.018": 0.0,
			"0.019": 0.0,
			"0.02": 0.0,
			"0.021": 0.0,
			"0.022": 0.0,
			"0.023": 0.0,
			"0.024": 0.0,
			"0.025": 0.0
		}
	}
}
