{
	 "smiles": "CC(C)OC1=NC=CC(=C1)C(O)=O", 
	 "Tm": 419.15, 
	 "num_atms": 24, 
	 "gaussian": { 
		 "optdone": 1, 
		 "sigma_profile": "yes", 
		 "theory": "DFT", 
		 "functional": "B3LYP", 
		 "basiset": "6-31G**", 
		 "properties": { 
			 "R2extent": 3935.6844, 
			 "electric_dipole_moment_norm": 4.35117027477, 
			 "electric_quadrupole_moment_norm": 24.7752818408, 
			 "total_energy": -630.019679565, 
			 "HOMO_LUMO_gap": 0.18064, 
			 "cosmo_polarized_energy": -13.95, 
			 "cosmo_cavitation_energy": 27.87, 
			 "cosmo_dispersion_energy": -20.32, 
			 "cosmo_repulsion_energy": 1.63, 
			 "cosmo_total_nonelectrostatic_energy": 9.18, 
			 "SMD_solvation_energy": 6.21 
		},
		"coords": [
			{
				"x": -1.2737427144,
				"y": -0.7750520832,
				"z": 1.9485099536,
				"element": "C" 
			},
			{
				"x": 0.1520466295,
				"y": -0.4958559134,
				"z": 2.4206748932,
				"element": "C" 
			},
			{
				"x": 0.2645165986,
				"y": 0.630469803,
				"z": 3.446479822,
				"element": "C" 
			},
			{
				"x": 1.07723257,
				"y": -0.321530896,
				"z": 1.3064730843,
				"element": "O" 
			},
			{
				"x": 0.9979163263,
				"y": 0.7035520522,
				"z": 0.4412289559,
				"element": "C" 
			},
			{
				"x": 0.0418183007,
				"y": 1.6277221389,
				"z": 0.5427295953,
				"element": "N" 
			},
			{
				"x": 0.0339098711,
				"y": 2.6200314014,
				"z": -0.3601495509,
				"element": "C" 
			},
			{
				"x": 0.946763839,
				"y": 2.7305618447,
				"z": -1.4004415396,
				"element": "C" 
			},
			{
				"x": 1.9472973351,
				"y": 1.7457177032,
				"z": -1.5042876773,
				"element": "C" 
			},
			{
				"x": 1.9850825881,
				"y": 0.7259882161,
				"z": -0.5653752839,
				"element": "C" 
			},
			{
				"x": 3.0027453736,
				"y": 1.7556335033,
				"z": -2.5772882544,
				"element": "C" 
			},
			{
				"x": 2.6998068577,
				"y": 2.436724807,
				"z": -3.7123082536,
				"element": "O" 
			},
			{
				"x": 4.0668728797,
				"y": 1.1977996249,
				"z": -2.4647424768,
				"element": "O" 
			},
			{
				"x": -1.2777216209,
				"y": -1.5681831477,
				"z": 1.1948167957,
				"element": "H" 
			},
			{
				"x": -1.8741471428,
				"y": -1.1142281948,
				"z": 2.7994394285,
				"element": "H" 
			},
			{
				"x": -1.7361882993,
				"y": 0.1183366223,
				"z": 1.5270908416,
				"element": "H" 
			},
			{
				"x": 0.5505677716,
				"y": -1.4111554917,
				"z": 2.870299471,
				"element": "H" 
			},
			{
				"x": -0.1575477464,
				"y": 1.5611007484,
				"z": 3.0651782139,
				"element": "H" 
			},
			{
				"x": -0.2771230064,
				"y": 0.3445169518,
				"z": 4.3544650847,
				"element": "H" 
			},
			{
				"x": 1.3115382442,
				"y": 0.7978928041,
				"z": 3.7161455699,
				"element": "H" 
			},
			{
				"x": -0.7479939544,
				"y": 3.3663983231,
				"z": -0.2350095177,
				"element": "H" 
			},
			{
				"x": 0.9006454833,
				"y": 3.5850950011,
				"z": -2.0686184405,
				"element": "H" 
			},
			{
				"x": 2.7524237505,
				"y": -0.0371698441,
				"z": -0.6043576794,
				"element": "H" 
			},
			{
				"x": 1.7686800658,
				"y": 2.6998340252,
				"z": -3.7055530356,
				"element": "H" 
			}
		],
		 "valence_orbital": [ 
			{
				"type": "occ",
				"energy": -0.32437,
				"method": "rhf"
			},
			{
				"type": "occ",
				"energy": -0.30002,
				"method": "rhf"
			},
			{
				"type": "occ",
				"energy": -0.28227,
				"method": "rhf"
			},
			{
				"type": "occ",
				"energy": -0.27323,
				"method": "rhf"
			},
			{
				"type": "occ",
				"energy": -0.24381,
				"method": "rhf"
			},
			{
				"type": "unocc",
				"energy": -0.06317,
				"method": "rhf"
			},
			{
				"type": "unocc",
				"energy": -0.01937,
				"method": "rhf"
			},
			{
				"type": "unocc",
				"energy": 0.04244,
				"method": "rhf"
			},
			{
				"type": "unocc",
				"energy": 0.06036,
				"method": "rhf"
			},
			{
				"type": "unocc",
				"energy": 0.09406,
				"method": "rhf"
			}
		],
		"cosmo_sigma_profile": { 
			"-0.025": 0.0,
			"-0.024": 0.0,
			"-0.023": 0.0,
			"-0.022": 0.0,
			"-0.021": 0.0,
			"-0.02": 0.0,
			"-0.019": 0.270474039449,
			"-0.018": 1.26423449761,
			"-0.017": 0.798182539126,
			"-0.016": 0.729598519272,
			"-0.015": 1.06817117538,
			"-0.014": 0.957796774272,
			"-0.013": 1.36542432537,
			"-0.012": 1.48918601791,
			"-0.011": 0.89619568106,
			"-0.01": 0.943176913731,
			"-0.009": 1.8531107202,
			"-0.008": 2.24924186571,
			"-0.007": 4.84572051391,
			"-0.006": 5.22836026185,
			"-0.005": 8.10328991149,
			"-0.004": 15.5868102161,
			"-0.003": 16.0944112959,
			"-0.002": 17.8571246786,
			"-0.001": 17.7951664818,
			"0.0": 28.3377891021,
			"0.001": 25.699422413,
			"0.002": 12.8109219574,
			"0.003": 6.88969659579,
			"0.004": 6.86318772962,
			"0.005": 6.44090301106,
			"0.006": 4.54342242938,
			"0.007": 5.13903274672,
			"0.008": 4.39446303389,
			"0.009": 5.38372089493,
			"0.01": 6.16000828631,
			"0.011": 5.35902093141,
			"0.012": 3.09862223585,
			"0.013": 0.374781095928,
			"0.014": 0.0,
			"0.015": 0.0,
			"0.016": 0.0,
			"0.017": 0.0,
			"0.018": 0.0,
			"0.019": 0.0,
			"0.02": 0.0,
			"0.021": 0.0,
			"0.022": 0.0,
			"0.023": 0.0,
			"0.024": 0.0,
			"0.025": 0.0
		}
	}
}
