{
	 "smiles": "OCC1=CC=C(Cl)C=C1", 
	 "Tm": 345.65, 
	 "num_atms": 16, 
	 "gaussian": { 
		 "optdone": 1, 
		 "sigma_profile": "yes", 
		 "theory": "DFT", 
		 "functional": "B3LYP", 
		 "basiset": "6-31G**", 
		 "properties": { 
			 "R2extent": 2686.6475, 
			 "electric_dipole_moment_norm": 0.369898445523, 
			 "electric_quadrupole_moment_norm": 12.4154015126, 
			 "total_energy": -806.367216488, 
			 "HOMO_LUMO_gap": 0.22516, 
			 "cosmo_polarized_energy": -7.58, 
			 "cosmo_cavitation_energy": 21.73, 
			 "cosmo_dispersion_energy": -16.17, 
			 "cosmo_repulsion_energy": 1.34, 
			 "cosmo_total_nonelectrostatic_energy": 6.9, 
			 "SMD_solvation_energy": 3.47 
		},
		"coords": [
			{
				"x": 1.8878100422,
				"y": 2.1927165168,
				"z": -0.5781381293,
				"element": "O" 
			},
			{
				"x": 0.5360048257,
				"y": 1.7789114384,
				"z": -0.8002732474,
				"element": "C" 
			},
			{
				"x": 0.4184140265,
				"y": 0.312208668,
				"z": -1.1393979577,
				"element": "C" 
			},
			{
				"x": 0.5096402479,
				"y": -0.1258255366,
				"z": -2.4678433404,
				"element": "C" 
			},
			{
				"x": 0.4623984749,
				"y": -1.4824210819,
				"z": -2.7866131575,
				"element": "C" 
			},
			{
				"x": 0.3263340654,
				"y": -2.4144024453,
				"z": -1.757734623,
				"element": "C" 
			},
			{
				"x": 0.2618302452,
				"y": -4.1269104872,
				"z": -2.1467498899,
				"element": "Cl" 
			},
			{
				"x": 0.2360302575,
				"y": -2.010180573,
				"z": -0.4257686097,
				"element": "C" 
			},
			{
				"x": 0.2852639783,
				"y": -0.6489414056,
				"z": -0.1277476143,
				"element": "C" 
			},
			{
				"x": 2.4552973154,
				"y": 1.4216742846,
				"z": -0.6959136319,
				"element": "H" 
			},
			{
				"x": -0.0483620754,
				"y": 1.9989327012,
				"z": 0.1033849146,
				"element": "H" 
			},
			{
				"x": 0.1165433112,
				"y": 2.3832376433,
				"z": -1.6159504117,
				"element": "H" 
			},
			{
				"x": 0.6126926325,
				"y": 0.6043206553,
				"z": -3.2665176651,
				"element": "H" 
			},
			{
				"x": 0.5266820959,
				"y": -1.8154900335,
				"z": -3.8165838338,
				"element": "H" 
			},
			{
				"x": 0.126208916,
				"y": -2.7491718596,
				"z": 0.3601954646,
				"element": "H" 
			},
			{
				"x": 0.2124116408,
				"y": -0.3289584848,
				"z": 0.9085517324,
				"element": "H" 
			}
		],
		 "valence_orbital": [ 
			{
				"type": "occ",
				"energy": -0.3274,
				"method": "rhf"
			},
			{
				"type": "occ",
				"energy": -0.3175,
				"method": "rhf"
			},
			{
				"type": "occ",
				"energy": -0.27456,
				"method": "rhf"
			},
			{
				"type": "occ",
				"energy": -0.26571,
				"method": "rhf"
			},
			{
				"type": "occ",
				"energy": -0.25173,
				"method": "rhf"
			},
			{
				"type": "unocc",
				"energy": -0.02657,
				"method": "rhf"
			},
			{
				"type": "unocc",
				"energy": -0.0223,
				"method": "rhf"
			},
			{
				"type": "unocc",
				"energy": 0.02407,
				"method": "rhf"
			},
			{
				"type": "unocc",
				"energy": 0.09727,
				"method": "rhf"
			},
			{
				"type": "unocc",
				"energy": 0.10402,
				"method": "rhf"
			}
		],
		"cosmo_sigma_profile": { 
			"-0.025": 0.0,
			"-0.024": 0.0,
			"-0.023": 0.0,
			"-0.022": 0.0,
			"-0.021": 0.0,
			"-0.02": 0.0,
			"-0.019": 0.0,
			"-0.018": 0.0,
			"-0.017": 0.0,
			"-0.016": 0.0,
			"-0.015": 0.204561063404,
			"-0.014": 0.693605276992,
			"-0.013": 0.790315040493,
			"-0.012": 0.784083287341,
			"-0.011": 0.45396349577,
			"-0.01": 0.821670656643,
			"-0.009": 0.816219444054,
			"-0.008": 0.807037218275,
			"-0.007": 5.2096426377,
			"-0.006": 10.5303914538,
			"-0.005": 13.2123453903,
			"-0.004": 12.0541177171,
			"-0.003": 11.6647544804,
			"-0.002": 13.1352091054,
			"-0.001": 11.6631999447,
			"0.0": 10.3176453316,
			"0.001": 12.2023808343,
			"0.002": 16.3262577441,
			"0.003": 17.4674930799,
			"0.004": 14.4130151845,
			"0.005": 7.79421274442,
			"0.006": 1.71714916655,
			"0.007": 0.711112013575,
			"0.008": 1.01246443607,
			"0.009": 1.45615238368,
			"0.01": 0.876430990202,
			"0.011": 1.34504421487,
			"0.012": 1.47374121366,
			"0.013": 1.84479025256,
			"0.014": 2.27295545767,
			"0.015": 1.00424250793,
			"0.016": 0.0,
			"0.017": 0.0,
			"0.018": 0.0,
			"0.019": 0.0,
			"0.02": 0.0,
			"0.021": 0.0,
			"0.022": 0.0,
			"0.023": 0.0,
			"0.024": 0.0,
			"0.025": 0.0
		}
	}
}
