{
	 "smiles": "COC(=O)C1=CC(N)=C(Cl)C=C1", 
	 "Tm": 355.15, 
	 "num_atms": 20, 
	 "gaussian": { 
		 "optdone": 1, 
		 "sigma_profile": "yes", 
		 "theory": "DFT", 
		 "functional": "B3LYP", 
		 "basiset": "6-31G**", 
		 "properties": { 
			 "R2extent": 4497.841, 
			 "electric_dipole_moment_norm": 0.970959777746, 
			 "electric_quadrupole_moment_norm": 13.527736437, 
			 "total_energy": -975.081521018, 
			 "HOMO_LUMO_gap": 0.1699, 
			 "cosmo_polarized_energy": -10.4, 
			 "cosmo_cavitation_energy": 26.25, 
			 "cosmo_dispersion_energy": -19.65, 
			 "cosmo_repulsion_energy": 1.57, 
			 "cosmo_total_nonelectrostatic_energy": 8.17, 
			 "SMD_solvation_energy": 5.78 
		},
		"coords": [
			{
				"x": 4.7949740399,
				"y": 1.8273863443,
				"z": -3.1446754031,
				"element": "C" 
			},
			{
				"x": 3.5606125084,
				"y": 1.2533737508,
				"z": -2.6893853758,
				"element": "O" 
			},
			{
				"x": 2.6419411482,
				"y": 2.1416267772,
				"z": -2.2461977523,
				"element": "C" 
			},
			{
				"x": 2.8352460349,
				"y": 3.3423796162,
				"z": -2.2305912157,
				"element": "O" 
			},
			{
				"x": 1.3862973028,
				"y": 1.4811645304,
				"z": -1.7880991828,
				"element": "C" 
			},
			{
				"x": 0.3736031415,
				"y": 2.3080165993,
				"z": -1.300243875,
				"element": "C" 
			},
			{
				"x": -0.8474894376,
				"y": 1.7844507719,
				"z": -0.8464373808,
				"element": "C" 
			},
			{
				"x": -1.8235005881,
				"y": 2.6070100991,
				"z": -0.3111180973,
				"element": "N" 
			},
			{
				"x": -1.0034479371,
				"y": 0.3843513828,
				"z": -0.9133794783,
				"element": "C" 
			},
			{
				"x": -2.5209906241,
				"y": -0.3307937328,
				"z": -0.3746748179,
				"element": "Cl" 
			},
			{
				"x": 0.0017421966,
				"y": -0.4488932288,
				"z": -1.3982601853,
				"element": "C" 
			},
			{
				"x": 1.20584807,
				"y": 0.0918813482,
				"z": -1.8386790659,
				"element": "C" 
			},
			{
				"x": 4.6179491345,
				"y": 2.5086448284,
				"z": -3.9807908688,
				"element": "H" 
			},
			{
				"x": 5.4120287332,
				"y": 0.9860518537,
				"z": -3.4601388111,
				"element": "H" 
			},
			{
				"x": 5.2830593025,
				"y": 2.3806455905,
				"z": -2.3383592979,
				"element": "H" 
			},
			{
				"x": 0.5489875319,
				"y": 3.3790143405,
				"z": -1.2718599245,
				"element": "H" 
			},
			{
				"x": -1.7757644908,
				"y": 3.5779392208,
				"z": -0.5823898249,
				"element": "H" 
			},
			{
				"x": -2.7612654283,
				"y": 2.2328607209,
				"z": -0.291298064,
				"element": "H" 
			},
			{
				"x": -0.1699202121,
				"y": -1.5192390821,
				"z": -1.4294132964,
				"element": "H" 
			},
			{
				"x": 1.992089574,
				"y": -0.5487717313,
				"z": -2.2173080821,
				"element": "H" 
			}
		],
		 "valence_orbital": [ 
			{
				"type": "occ",
				"energy": -0.32029,
				"method": "rhf"
			},
			{
				"type": "occ",
				"energy": -0.30193,
				"method": "rhf"
			},
			{
				"type": "occ",
				"energy": -0.27408,
				"method": "rhf"
			},
			{
				"type": "occ",
				"energy": -0.25356,
				"method": "rhf"
			},
			{
				"type": "occ",
				"energy": -0.2157,
				"method": "rhf"
			},
			{
				"type": "unocc",
				"energy": -0.0458,
				"method": "rhf"
			},
			{
				"type": "unocc",
				"energy": -0.00167,
				"method": "rhf"
			},
			{
				"type": "unocc",
				"energy": 0.02701,
				"method": "rhf"
			},
			{
				"type": "unocc",
				"energy": 0.05896,
				"method": "rhf"
			},
			{
				"type": "unocc",
				"energy": 0.08303,
				"method": "rhf"
			}
		],
		"cosmo_sigma_profile": { 
			"-0.025": 0.0,
			"-0.024": 0.0,
			"-0.023": 0.0,
			"-0.022": 0.0,
			"-0.021": 0.0,
			"-0.02": 0.0,
			"-0.019": 0.0,
			"-0.018": 0.0,
			"-0.017": 0.0,
			"-0.016": 0.0,
			"-0.015": 0.0,
			"-0.014": 0.348460285416,
			"-0.013": 1.35001296359,
			"-0.012": 2.11567576905,
			"-0.011": 2.6917558856,
			"-0.01": 2.39435179309,
			"-0.009": 1.71799344623,
			"-0.008": 3.28410945597,
			"-0.007": 5.1688173613,
			"-0.006": 9.04280548016,
			"-0.005": 13.2281455784,
			"-0.004": 13.1481125698,
			"-0.003": 14.2505779232,
			"-0.002": 11.5523588942,
			"-0.001": 12.7411206777,
			"0.0": 13.7228886984,
			"0.001": 16.3403124886,
			"0.002": 20.4001911361,
			"0.003": 22.9703770254,
			"0.004": 15.9269666414,
			"0.005": 7.91869667003,
			"0.006": 3.19670992529,
			"0.007": 2.20317920575,
			"0.008": 2.68986024248,
			"0.009": 2.0136882026,
			"0.01": 2.38590462576,
			"0.011": 3.74621704461,
			"0.012": 4.73494125215,
			"0.013": 0.292348128662,
			"0.014": 0.0,
			"0.015": 0.0,
			"0.016": 0.0,
			"0.017": 0.0,
			"0.018": 0.0,
			"0.019": 0.0,
			"0.02": 0.0,
			"0.021": 0.0,
			"0.022": 0.0,
			"0.023": 0.0,
			"0.024": 0.0,
			"0.025": 0.0
		}
	}
}
