{
	 "smiles": "OC1(CC2=C(F)C=C(F)C=C2)CC2CCC(C1)N2", 
	 "Tm": 416.15, 
	 "num_atms": 35, 
	 "gaussian": { 
		 "optdone": 1, 
		 "sigma_profile": "yes", 
		 "theory": "DFT", 
		 "functional": "B3LYP", 
		 "basiset": "6-31G**", 
		 "properties": { 
			 "R2extent": 5292.7947, 
			 "electric_dipole_moment_norm": 2.18118135651, 
			 "electric_quadrupole_moment_norm": 12.3670078483, 
			 "total_energy": -873.373575354, 
			 "HOMO_LUMO_gap": 0.21597, 
			 "cosmo_polarized_energy": -11.06, 
			 "cosmo_cavitation_energy": 34.6, 
			 "cosmo_dispersion_energy": -25.05, 
			 "cosmo_repulsion_energy": 1.84, 
			 "cosmo_total_nonelectrostatic_energy": 11.39, 
			 "SMD_solvation_energy": 3.44 
		},
		"coords": [
			{
				"x": -0.1300154693,
				"y": 1.5765439338,
				"z": 2.2701523208,
				"element": "O" 
			},
			{
				"x": -0.3335005703,
				"y": 1.011317905,
				"z": 0.9577038562,
				"element": "C" 
			},
			{
				"x": -0.5969757412,
				"y": -0.5141954087,
				"z": 1.131181914,
				"element": "C" 
			},
			{
				"x": 0.5480408216,
				"y": -1.3489258401,
				"z": 1.6684555838,
				"element": "C" 
			},
			{
				"x": 1.0513658752,
				"y": -2.4282516394,
				"z": 0.9362424472,
				"element": "C" 
			},
			{
				"x": 0.5210000497,
				"y": -2.7030687433,
				"z": -0.2833351247,
				"element": "F" 
			},
			{
				"x": 2.0778074824,
				"y": -3.2549181077,
				"z": 1.3787253861,
				"element": "C" 
			},
			{
				"x": 2.6261995307,
				"y": -2.9802043712,
				"z": 2.6243240118,
				"element": "C" 
			},
			{
				"x": 3.6216705005,
				"y": -3.7659435518,
				"z": 3.0817290198,
				"element": "F" 
			},
			{
				"x": 2.1775119723,
				"y": -1.9214284653,
				"z": 3.405947294,
				"element": "C" 
			},
			{
				"x": 1.1437226016,
				"y": -1.1219213792,
				"z": 2.9203705904,
				"element": "C" 
			},
			{
				"x": -1.5658949981,
				"y": 1.7031309953,
				"z": 0.3050152505,
				"element": "C" 
			},
			{
				"x": -1.4908410762,
				"y": 1.870748861,
				"z": -1.2250621177,
				"element": "C" 
			},
			{
				"x": -1.3617739711,
				"y": 0.5364765169,
				"z": -2.0126082204,
				"element": "C" 
			},
			{
				"x": 0.174365479,
				"y": 0.2924264116,
				"z": -2.0656189375,
				"element": "C" 
			},
			{
				"x": 0.7667226697,
				"y": 1.5335919176,
				"z": -1.3335608992,
				"element": "C" 
			},
			{
				"x": 0.9640975745,
				"y": 1.3412492322,
				"z": 0.1805306664,
				"element": "C" 
			},
			{
				"x": -0.2400064968,
				"y": 2.6039008677,
				"z": -1.5068153063,
				"element": "N" 
			},
			{
				"x": -0.9641047948,
				"y": 1.4890575808,
				"z": 2.7531588872,
				"element": "H" 
			},
			{
				"x": -0.9253364708,
				"y": -0.9450149067,
				"z": 0.1850821021,
				"element": "H" 
			},
			{
				"x": -1.4560323994,
				"y": -0.6064302082,
				"z": 1.8119621063,
				"element": "H" 
			},
			{
				"x": 2.4300540797,
				"y": -4.0806925411,
				"z": 0.7729146548,
				"element": "H" 
			},
			{
				"x": 2.6333512804,
				"y": -1.7356642295,
				"z": 4.371929434,
				"element": "H" 
			},
			{
				"x": 0.7992703943,
				"y": -0.2782278974,
				"z": 3.5058295051,
				"element": "H" 
			},
			{
				"x": -1.6194830401,
				"y": 2.7092021599,
				"z": 0.7324452936,
				"element": "H" 
			},
			{
				"x": -2.485538358,
				"y": 1.1707213034,
				"z": 0.5851978281,
				"element": "H" 
			},
			{
				"x": -2.3541771786,
				"y": 2.4588253294,
				"z": -1.5532354301,
				"element": "H" 
			},
			{
				"x": -1.7680379602,
				"y": 0.6660403303,
				"z": -3.0215124122,
				"element": "H" 
			},
			{
				"x": -1.9179416532,
				"y": -0.2885597786,
				"z": -1.5567839297,
				"element": "H" 
			},
			{
				"x": 0.5241721555,
				"y": 0.2721328453,
				"z": -3.1031999874,
				"element": "H" 
			},
			{
				"x": 0.4727390373,
				"y": -0.6560365945,
				"z": -1.6130933456,
				"element": "H" 
			},
			{
				"x": 1.720968908,
				"y": 1.8466569329,
				"z": -1.768823173,
				"element": "H" 
			},
			{
				"x": 1.3372754113,
				"y": 2.2851578506,
				"z": 0.5868650168,
				"element": "H" 
			},
			{
				"x": 1.7233303131,
				"y": 0.577327964,
				"z": 0.3764717975,
				"element": "H" 
			},
			{
				"x": -0.2455059586,
				"y": 2.890974725,
				"z": -2.4855860825,
				"element": "H" 
			}
		],
		 "valence_orbital": [ 
			{
				"type": "occ",
				"energy": -0.3004,
				"method": "rhf"
			},
			{
				"type": "occ",
				"energy": -0.26754,
				"method": "rhf"
			},
			{
				"type": "occ",
				"energy": -0.25565,
				"method": "rhf"
			},
			{
				"type": "occ",
				"energy": -0.23768,
				"method": "rhf"
			},
			{
				"type": "occ",
				"energy": -0.22754,
				"method": "rhf"
			},
			{
				"type": "unocc",
				"energy": -0.01157,
				"method": "rhf"
			},
			{
				"type": "unocc",
				"energy": 0.00133,
				"method": "rhf"
			},
			{
				"type": "unocc",
				"energy": 0.06509,
				"method": "rhf"
			},
			{
				"type": "unocc",
				"energy": 0.07539,
				"method": "rhf"
			},
			{
				"type": "unocc",
				"energy": 0.08692,
				"method": "rhf"
			}
		],
		"cosmo_sigma_profile": { 
			"-0.025": 0.0,
			"-0.024": 0.0,
			"-0.023": 0.0,
			"-0.022": 0.0,
			"-0.021": 0.0,
			"-0.02": 0.0,
			"-0.019": 0.0,
			"-0.018": 0.0,
			"-0.017": 0.0,
			"-0.016": 0.0,
			"-0.015": 0.321377589096,
			"-0.014": 0.855487034497,
			"-0.013": 1.00821422326,
			"-0.012": 0.756698398588,
			"-0.011": 1.2562162137,
			"-0.01": 1.79619503992,
			"-0.009": 2.09933909159,
			"-0.008": 4.30188931247,
			"-0.007": 4.91476453596,
			"-0.006": 6.57374676802,
			"-0.005": 8.28678076972,
			"-0.004": 13.8727187762,
			"-0.003": 24.2081429147,
			"-0.002": 30.6689344535,
			"-0.001": 26.8323047051,
			"0.0": 26.4293742308,
			"0.001": 28.6141278597,
			"0.002": 22.7233625341,
			"0.003": 16.5486940668,
			"0.004": 21.6760356793,
			"0.005": 6.61818085414,
			"0.006": 3.05936643607,
			"0.007": 2.18423972945,
			"0.008": 2.44779247795,
			"0.009": 2.26190858149,
			"0.01": 1.93508757154,
			"0.011": 1.70022009911,
			"0.012": 1.93831351996,
			"0.013": 1.40040814971,
			"0.014": 1.06814345056,
			"0.015": 0.895470365943,
			"0.016": 0.624784497243,
			"0.017": 0.502506390147,
			"0.018": 0.309500504053,
			"0.019": 0.335667329573,
			"0.02": 0.0129084781175,
			"0.021": 0.0,
			"0.022": 0.0,
			"0.023": 0.0,
			"0.024": 0.0,
			"0.025": 0.0
		}
	}
}
