{
	 "smiles": "CC1=NOC(=N1)C1=CC(=C(C)C=C1)[N+]([O-])=O", 
	 "Tm": 374.15, 
	 "num_atms": 25, 
	 "gaussian": { 
		 "optdone": 1, 
		 "sigma_profile": "yes", 
		 "theory": "DFT", 
		 "functional": "B3LYP", 
		 "basiset": "6-31G**", 
		 "properties": { 
			 "R2extent": 4651.0537, 
			 "electric_dipole_moment_norm": 2.71580765335, 
			 "electric_quadrupole_moment_norm": 27.6679642771, 
			 "total_energy": -776.288704424, 
			 "HOMO_LUMO_gap": 0.16638, 
			 "cosmo_polarized_energy": -11.47, 
			 "cosmo_cavitation_energy": 30.65, 
			 "cosmo_dispersion_energy": -22.51, 
			 "cosmo_repulsion_energy": 1.73, 
			 "cosmo_total_nonelectrostatic_energy": 9.88, 
			 "SMD_solvation_energy": 5.67 
		},
		"coords": [
			{
				"x": -3.2666401048,
				"y": 2.5900231949,
				"z": 1.6893619448,
				"element": "C" 
			},
			{
				"x": -1.8519283617,
				"y": 2.2826338412,
				"z": 1.3108088827,
				"element": "C" 
			},
			{
				"x": -0.8810797756,
				"y": 3.1573221235,
				"z": 1.440537374,
				"element": "N" 
			},
			{
				"x": 0.2484986291,
				"y": 2.4587576323,
				"z": 0.9757165542,
				"element": "O" 
			},
			{
				"x": -0.1774441319,
				"y": 1.2348605552,
				"z": 0.6174026327,
				"element": "C" 
			},
			{
				"x": -1.4594631845,
				"y": 1.0656076019,
				"z": 0.7998410464,
				"element": "N" 
			},
			{
				"x": 0.7914919094,
				"y": 0.2773004241,
				"z": 0.0901309657,
				"element": "C" 
			},
			{
				"x": 0.3573210404,
				"y": -0.9939601352,
				"z": -0.2911528094,
				"element": "C" 
			},
			{
				"x": 1.2728822742,
				"y": -1.9199059727,
				"z": -0.7845733611,
				"element": "C" 
			},
			{
				"x": 2.6455643696,
				"y": -1.6280537275,
				"z": -0.9338278724,
				"element": "C" 
			},
			{
				"x": 3.6890335303,
				"y": -2.5729921611,
				"z": -1.4737894699,
				"element": "C" 
			},
			{
				"x": 3.0399478969,
				"y": -0.334675031,
				"z": -0.552334698,
				"element": "C" 
			},
			{
				"x": 2.1488493271,
				"y": 0.6032963578,
				"z": -0.0459445174,
				"element": "C" 
			},
			{
				"x": 0.7164031184,
				"y": -3.2398737793,
				"z": -1.146608976,
				"element": "N" 
			},
			{
				"x": -0.5056571737,
				"y": -3.334854016,
				"z": -1.2443310413,
				"element": "O" 
			},
			{
				"x": 1.5003198393,
				"y": -4.1728830728,
				"z": -1.3219146284,
				"element": "O" 
			},
			{
				"x": -3.8908591631,
				"y": 1.7181872445,
				"z": 1.4909952386,
				"element": "H" 
			},
			{
				"x": -3.6469066264,
				"y": 3.4392511472,
				"z": 1.1148980153,
				"element": "H" 
			},
			{
				"x": -3.3383080136,
				"y": 2.8461215158,
				"z": 2.7500899946,
				"element": "H" 
			},
			{
				"x": -0.6865798942,
				"y": -1.2664914545,
				"z": -0.2066833562,
				"element": "H" 
			},
			{
				"x": 4.6343439701,
				"y": -2.040382278,
				"z": -1.6041421055,
				"element": "H" 
			},
			{
				"x": 3.8475003541,
				"y": -3.4165646551,
				"z": -0.7970761281,
				"element": "H" 
			},
			{
				"x": 3.3899839399,
				"y": -3.0054513333,
				"z": -2.4315274414,
				"element": "H" 
			},
			{
				"x": 4.0859851349,
				"y": -0.0647590802,
				"z": -0.6601109902,
				"element": "H" 
			},
			{
				"x": 2.4987410958,
				"y": 1.5887850582,
				"z": 0.2420347461,
				"element": "H" 
			}
		],
		 "valence_orbital": [ 
			{
				"type": "occ",
				"energy": -0.31139,
				"method": "rhf"
			},
			{
				"type": "occ",
				"energy": -0.30247,
				"method": "rhf"
			},
			{
				"type": "occ",
				"energy": -0.29822,
				"method": "rhf"
			},
			{
				"type": "occ",
				"energy": -0.28754,
				"method": "rhf"
			},
			{
				"type": "occ",
				"energy": -0.26106,
				"method": "rhf"
			},
			{
				"type": "unocc",
				"energy": -0.09468,
				"method": "rhf"
			},
			{
				"type": "unocc",
				"energy": -0.07112,
				"method": "rhf"
			},
			{
				"type": "unocc",
				"energy": -0.01865,
				"method": "rhf"
			},
			{
				"type": "unocc",
				"energy": 0.00657,
				"method": "rhf"
			},
			{
				"type": "unocc",
				"energy": 0.05132,
				"method": "rhf"
			}
		],
		"cosmo_sigma_profile": { 
			"-0.025": 0.0,
			"-0.024": 0.0,
			"-0.023": 0.0,
			"-0.022": 0.0,
			"-0.021": 0.0,
			"-0.02": 0.0,
			"-0.019": 0.0,
			"-0.018": 0.0,
			"-0.017": 0.0,
			"-0.016": 0.0,
			"-0.015": 0.0,
			"-0.014": 0.0,
			"-0.013": 0.0,
			"-0.012": 0.0,
			"-0.011": 0.0,
			"-0.01": 0.0,
			"-0.009": 0.0823480905048,
			"-0.008": 2.89699363123,
			"-0.007": 7.20840820035,
			"-0.006": 12.3593676403,
			"-0.005": 14.5765644033,
			"-0.004": 21.161467941,
			"-0.003": 25.6302420972,
			"-0.002": 29.3909169301,
			"-0.001": 30.5916201123,
			"0.0": 18.9409172503,
			"0.001": 11.3535386035,
			"0.002": 7.95423635157,
			"0.003": 6.33086541398,
			"0.004": 5.78972184287,
			"0.005": 6.84433537428,
			"0.006": 9.98170699237,
			"0.007": 8.50179667984,
			"0.008": 9.54839894857,
			"0.009": 7.1802853962,
			"0.01": 3.71741516789,
			"0.011": 2.66303762561,
			"0.012": 2.08706426288,
			"0.013": 0.985213237791,
			"0.014": 0.0905609031266,
			"0.015": 0.0,
			"0.016": 0.0,
			"0.017": 0.0,
			"0.018": 0.0,
			"0.019": 0.0,
			"0.02": 0.0,
			"0.021": 0.0,
			"0.022": 0.0,
			"0.023": 0.0,
			"0.024": 0.0,
			"0.025": 0.0
		}
	}
}
