{
	 "smiles": "OC1=CC=C(OC2=CC=C(O)C=C2)C=C1", 
	 "Tm": 439.15, 
	 "num_atms": 25, 
	 "gaussian": { 
		 "optdone": 1, 
		 "sigma_profile": "yes", 
		 "theory": "DFT", 
		 "functional": "B3LYP", 
		 "basiset": "6-31G**", 
		 "properties": { 
			 "R2extent": 4702.1174, 
			 "electric_dipole_moment_norm": 2.2283848007, 
			 "electric_quadrupole_moment_norm": 13.0041151518, 
			 "total_energy": -688.952551903, 
			 "HOMO_LUMO_gap": 0.18534, 
			 "cosmo_polarized_energy": -14.92, 
			 "cosmo_cavitation_energy": 29.89, 
			 "cosmo_dispersion_energy": -21.88, 
			 "cosmo_repulsion_energy": 1.72, 
			 "cosmo_total_nonelectrostatic_energy": 9.72, 
			 "SMD_solvation_energy": 5.92 
		},
		"coords": [
			{
				"x": 2.7634177552,
				"y": 3.6086247048,
				"z": -3.9676653137,
				"element": "O" 
			},
			{
				"x": 2.3457452011,
				"y": 2.9887232864,
				"z": -2.8206866134,
				"element": "C" 
			},
			{
				"x": 1.0450778397,
				"y": 2.4716426471,
				"z": -2.8038314667,
				"element": "C" 
			},
			{
				"x": 0.5595138564,
				"y": 1.8326391173,
				"z": -1.6666982862,
				"element": "C" 
			},
			{
				"x": 1.3774645547,
				"y": 1.6948919588,
				"z": -0.5395146544,
				"element": "C" 
			},
			{
				"x": 0.927525852,
				"y": 1.1383649946,
				"z": 0.6451454881,
				"element": "O" 
			},
			{
				"x": 0.1811519508,
				"y": -0.0268645138,
				"z": 0.6230448887,
				"element": "C" 
			},
			{
				"x": 0.43930751,
				"y": -1.080082468,
				"z": -0.2562081926,
				"element": "C" 
			},
			{
				"x": -0.3126927836,
				"y": -2.2529740716,
				"z": -0.1711709614,
				"element": "C" 
			},
			{
				"x": -1.3134696658,
				"y": -2.3838662922,
				"z": 0.7962494447,
				"element": "C" 
			},
			{
				"x": -2.0800051504,
				"y": -3.5112058472,
				"z": 0.9258686862,
				"element": "O" 
			},
			{
				"x": -1.560996738,
				"y": -1.3285637029,
				"z": 1.6813412526,
				"element": "C" 
			},
			{
				"x": -0.8197198962,
				"y": -0.1546084492,
				"z": 1.5902481953,
				"element": "C" 
			},
			{
				"x": 2.6740597724,
				"y": 2.2068682715,
				"z": -0.5530330229,
				"element": "C" 
			},
			{
				"x": 3.1563190901,
				"y": 2.8578214676,
				"z": -1.6891615527,
				"element": "C" 
			},
			{
				"x": 3.6683280236,
				"y": 3.9225263207,
				"z": -3.8447860175,
				"element": "H" 
			},
			{
				"x": 0.4240578062,
				"y": 2.5872075821,
				"z": -3.6859885354,
				"element": "H" 
			},
			{
				"x": -0.4522319054,
				"y": 1.4416592094,
				"z": -1.6504528961,
				"element": "H" 
			},
			{
				"x": 1.2209232166,
				"y": -0.9869951473,
				"z": -1.0022443607,
				"element": "H" 
			},
			{
				"x": -0.1101598914,
				"y": -3.0711419992,
				"z": -0.859460237,
				"element": "H" 
			},
			{
				"x": -1.8023291776,
				"y": -4.1587232926,
				"z": 0.2655209679,
				"element": "H" 
			},
			{
				"x": -2.3395843713,
				"y": -1.4413557677,
				"z": 2.4283786632,
				"element": "H" 
			},
			{
				"x": -1.0013182141,
				"y": 0.6733097479,
				"z": 2.2676330689,
				"element": "H" 
			},
			{
				"x": 3.292503613,
				"y": 2.0970892335,
				"z": 0.3315742429,
				"element": "H" 
			},
			{
				"x": 4.1680117519,
				"y": 3.2582130101,
				"z": -1.6931027877,
				"element": "H" 
			}
		],
		 "valence_orbital": [ 
			{
				"type": "occ",
				"energy": -0.2989,
				"method": "rhf"
			},
			{
				"type": "occ",
				"energy": -0.25702,
				"method": "rhf"
			},
			{
				"type": "occ",
				"energy": -0.25234,
				"method": "rhf"
			},
			{
				"type": "occ",
				"energy": -0.22135,
				"method": "rhf"
			},
			{
				"type": "occ",
				"energy": -0.19663,
				"method": "rhf"
			},
			{
				"type": "unocc",
				"energy": -0.01129,
				"method": "rhf"
			},
			{
				"type": "unocc",
				"energy": 0.00116,
				"method": "rhf"
			},
			{
				"type": "unocc",
				"energy": 0.01131,
				"method": "rhf"
			},
			{
				"type": "unocc",
				"energy": 0.0277,
				"method": "rhf"
			},
			{
				"type": "unocc",
				"energy": 0.06919,
				"method": "rhf"
			}
		],
		"cosmo_sigma_profile": { 
			"-0.025": 0.0,
			"-0.024": 0.0,
			"-0.023": 0.0,
			"-0.022": 0.0,
			"-0.021": 0.0,
			"-0.02": 0.0,
			"-0.019": 0.0,
			"-0.018": 0.474271184602,
			"-0.017": 2.04411424421,
			"-0.016": 2.52606671889,
			"-0.015": 2.25568887924,
			"-0.014": 1.69948949059,
			"-0.013": 1.56885159785,
			"-0.012": 2.54212806335,
			"-0.011": 2.00605426156,
			"-0.01": 2.00733775708,
			"-0.009": 1.91565046357,
			"-0.008": 2.7666280112,
			"-0.007": 3.86518441781,
			"-0.006": 12.663967582,
			"-0.005": 13.944154529,
			"-0.004": 13.9174406864,
			"-0.003": 11.9547877883,
			"-0.002": 11.3901787074,
			"-0.001": 10.6463532062,
			"0.0": 11.6661432287,
			"0.001": 13.6167727879,
			"0.002": 15.6427352835,
			"0.003": 19.3936135992,
			"0.004": 28.185594581,
			"0.005": 22.4540921246,
			"0.006": 5.38441120035,
			"0.007": 3.74507214984,
			"0.008": 4.06656815267,
			"0.009": 4.64570172411,
			"0.01": 4.02884643837,
			"0.011": 3.75669900216,
			"0.012": 1.9935435775,
			"0.013": 0.0,
			"0.014": 0.0,
			"0.015": 0.0,
			"0.016": 0.0,
			"0.017": 0.0,
			"0.018": 0.0,
			"0.019": 0.0,
			"0.02": 0.0,
			"0.021": 0.0,
			"0.022": 0.0,
			"0.023": 0.0,
			"0.024": 0.0,
			"0.025": 0.0
		}
	}
}
