{
	 "smiles": "COC1=CC=CC=C1OCC(O)=O", 
	 "Tm": 393.15, 
	 "num_atms": 23, 
	 "gaussian": { 
		 "optdone": 1, 
		 "sigma_profile": "yes", 
		 "theory": "DFT", 
		 "functional": "B3LYP", 
		 "basiset": "6-31G**", 
		 "properties": { 
			 "R2extent": 3287.146, 
			 "electric_dipole_moment_norm": 1.78485384836, 
			 "electric_quadrupole_moment_norm": 9.6509442766, 
			 "total_energy": -649.857034932, 
			 "HOMO_LUMO_gap": 0.21431, 
			 "cosmo_polarized_energy": -13.25, 
			 "cosmo_cavitation_energy": 27.28, 
			 "cosmo_dispersion_energy": -19.39, 
			 "cosmo_repulsion_energy": 1.54, 
			 "cosmo_total_nonelectrostatic_energy": 9.43, 
			 "SMD_solvation_energy": 6.83 
		},
		"coords": [
			{
				"x": -1.1003689547,
				"y": -2.1879906369,
				"z": 0.3499734306,
				"element": "C" 
			},
			{
				"x": -0.50263857,
				"y": -1.1678030064,
				"z": 1.1350081007,
				"element": "O" 
			},
			{
				"x": -0.1204706673,
				"y": -0.0031846528,
				"z": 0.5286155895,
				"element": "C" 
			},
			{
				"x": -0.1537905865,
				"y": 0.2165828499,
				"z": -0.8512440322,
				"element": "C" 
			},
			{
				"x": 0.2933873602,
				"y": 1.4282236745,
				"z": -1.3866321803,
				"element": "C" 
			},
			{
				"x": 0.7743221117,
				"y": 2.4292649072,
				"z": -0.5471359074,
				"element": "C" 
			},
			{
				"x": 0.7905179259,
				"y": 2.2220711697,
				"z": 0.8337151893,
				"element": "C" 
			},
			{
				"x": 0.3460455216,
				"y": 1.0212818106,
				"z": 1.3827272085,
				"element": "C" 
			},
			{
				"x": 0.4465947198,
				"y": 0.8885778206,
				"z": 2.7481457035,
				"element": "O" 
			},
			{
				"x": -0.6248406979,
				"y": 0.299056078,
				"z": 3.4688728119,
				"element": "C" 
			},
			{
				"x": -0.4181987325,
				"y": -1.1613489468,
				"z": 3.8430161197,
				"element": "C" 
			},
			{
				"x": 0.878350745,
				"y": -1.5172609652,
				"z": 3.8893895293,
				"element": "O" 
			},
			{
				"x": -1.3288463662,
				"y": -1.9015368501,
				"z": 4.1466024649,
				"element": "O" 
			},
			{
				"x": -1.989043772,
				"y": -1.8206170312,
				"z": -0.1782961575,
				"element": "H" 
			},
			{
				"x": -0.3921877373,
				"y": -2.6010393089,
				"z": -0.3793607882,
				"element": "H" 
			},
			{
				"x": -1.3952021479,
				"y": -2.9671088873,
				"z": 1.0541236862,
				"element": "H" 
			},
			{
				"x": -0.5133315893,
				"y": -0.5617721927,
				"z": -1.514176147,
				"element": "H" 
			},
			{
				"x": 0.2659306335,
				"y": 1.576975024,
				"z": -2.4617831634,
				"element": "H" 
			},
			{
				"x": 1.1252246687,
				"y": 3.3714579992,
				"z": -0.9561926426,
				"element": "H" 
			},
			{
				"x": 1.1491046974,
				"y": 2.9851667141,
				"z": 1.5169397626,
				"element": "H" 
			},
			{
				"x": -0.7084949409,
				"y": 0.8598557426,
				"z": 4.4084638128,
				"element": "H" 
			},
			{
				"x": -1.5790145966,
				"y": 0.3757954205,
				"z": 2.942910067,
				"element": "H" 
			},
			{
				"x": 0.8869509753,
				"y": -2.4483467323,
				"z": 4.1681175423,
				"element": "H" 
			}
		],
		 "valence_orbital": [ 
			{
				"type": "occ",
				"energy": -0.3169,
				"method": "rhf"
			},
			{
				"type": "occ",
				"energy": -0.31188,
				"method": "rhf"
			},
			{
				"type": "occ",
				"energy": -0.26574,
				"method": "rhf"
			},
			{
				"type": "occ",
				"energy": -0.23922,
				"method": "rhf"
			},
			{
				"type": "occ",
				"energy": -0.21271,
				"method": "rhf"
			},
			{
				"type": "unocc",
				"energy": 0.0016,
				"method": "rhf"
			},
			{
				"type": "unocc",
				"energy": 0.0107,
				"method": "rhf"
			},
			{
				"type": "unocc",
				"energy": 0.01716,
				"method": "rhf"
			},
			{
				"type": "unocc",
				"energy": 0.0725,
				"method": "rhf"
			},
			{
				"type": "unocc",
				"energy": 0.08527,
				"method": "rhf"
			}
		],
		"cosmo_sigma_profile": { 
			"-0.025": 0.0,
			"-0.024": 0.0,
			"-0.023": 0.0,
			"-0.022": 0.0,
			"-0.021": 0.0,
			"-0.02": 0.0,
			"-0.019": 0.102342009637,
			"-0.018": 0.987572798732,
			"-0.017": 0.829217761943,
			"-0.016": 0.553861744848,
			"-0.015": 0.928607431795,
			"-0.014": 0.629431798921,
			"-0.013": 0.645054298712,
			"-0.012": 0.6274809269,
			"-0.011": 0.533586027605,
			"-0.01": 0.663898128902,
			"-0.009": 1.0706749794,
			"-0.008": 3.30202632562,
			"-0.007": 5.40274467738,
			"-0.006": 14.0368637734,
			"-0.005": 19.2029234845,
			"-0.004": 20.2842530505,
			"-0.003": 18.0534931116,
			"-0.002": 11.8574315743,
			"-0.001": 11.3579268117,
			"0.0": 9.18977567494,
			"0.001": 10.2979075266,
			"0.002": 10.1237082709,
			"0.003": 12.6317601577,
			"0.004": 13.6738195089,
			"0.005": 11.0853766412,
			"0.006": 9.40875584761,
			"0.007": 3.96978476568,
			"0.008": 3.99092737556,
			"0.009": 5.11230385779,
			"0.01": 4.11301407287,
			"0.011": 5.04705187926,
			"0.012": 5.75872096279,
			"0.013": 0.939099066683,
			"0.014": 0.0,
			"0.015": 0.0,
			"0.016": 0.0,
			"0.017": 0.0,
			"0.018": 0.0,
			"0.019": 0.0,
			"0.02": 0.0,
			"0.021": 0.0,
			"0.022": 0.0,
			"0.023": 0.0,
			"0.024": 0.0,
			"0.025": 0.0
		}
	}
}
