{
	 "smiles": "CC1=CC=C(N=NC2=C3N=C(C)C=C(N3N=C2N)C(F)(F)F)C(C)=C1", 
	 "Tm": 493.15, 
	 "num_atms": 40, 
	 "gaussian": { 
		 "optdone": 1, 
		 "sigma_profile": "yes", 
		 "theory": "DFT", 
		 "functional": "B3LYP", 
		 "basiset": "6-31G**", 
		 "properties": { 
			 "R2extent": 9709.7361, 
			 "electric_dipole_moment_norm": 2.86907632872, 
			 "electric_quadrupole_moment_norm": 11.8541180908, 
			 "total_energy": -1246.71223776, 
			 "HOMO_LUMO_gap": 0.12241, 
			 "cosmo_polarized_energy": -16.18, 
			 "cosmo_cavitation_energy": 45.82, 
			 "cosmo_dispersion_energy": -30.13, 
			 "cosmo_repulsion_energy": 2.26, 
			 "cosmo_total_nonelectrostatic_energy": 17.94, 
			 "SMD_solvation_energy": 5.98 
		},
		"coords": [
			{
				"x": 2.8573330027,
				"y": -1.0019674424,
				"z": -3.186873095,
				"element": "C" 
			},
			{
				"x": 2.1658249532,
				"y": 0.0981145087,
				"z": -2.4162650682,
				"element": "C" 
			},
			{
				"x": 0.8011224257,
				"y": 0.3582104673,
				"z": -2.5976990483,
				"element": "C" 
			},
			{
				"x": 0.1746055304,
				"y": 1.3921123629,
				"z": -1.9095079893,
				"element": "C" 
			},
			{
				"x": 0.9052313573,
				"y": 2.1964725108,
				"z": -1.0239363736,
				"element": "C" 
			},
			{
				"x": 0.3341431426,
				"y": 3.3722500358,
				"z": -0.4615097512,
				"element": "N" 
			},
			{
				"x": -0.7568074257,
				"y": 3.3911263798,
				"z": 0.1671166989,
				"element": "N" 
			},
			{
				"x": -1.4709681111,
				"y": 2.2840435457,
				"z": 0.6306743452,
				"element": "C" 
			},
			{
				"x": -1.1682089964,
				"y": 0.9880374087,
				"z": 1.0932483724,
				"element": "C" 
			},
			{
				"x": -0.0455111891,
				"y": 0.2573812893,
				"z": 1.1302903622,
				"element": "N" 
			},
			{
				"x": -0.0902107813,
				"y": -0.9478014967,
				"z": 1.6824688492,
				"element": "C" 
			},
			{
				"x": 1.184989101,
				"y": -1.7462528961,
				"z": 1.7123597549,
				"element": "C" 
			},
			{
				"x": -1.2868126988,
				"y": -1.4751355378,
				"z": 2.2410999573,
				"element": "C" 
			},
			{
				"x": -2.4288987877,
				"y": -0.7092852149,
				"z": 2.2274689077,
				"element": "C" 
			},
			{
				"x": -2.3720593676,
				"y": 0.5204701434,
				"z": 1.6621728112,
				"element": "N" 
			},
			{
				"x": -3.3932704345,
				"y": 1.4174580052,
				"z": 1.59849411,
				"element": "N" 
			},
			{
				"x": -2.8387834284,
				"y": 2.4801158494,
				"z": 1.0010969971,
				"element": "C" 
			},
			{
				"x": -3.5496816267,
				"y": 3.6091605309,
				"z": 0.7332816383,
				"element": "N" 
			},
			{
				"x": -3.743557341,
				"y": -1.1710076308,
				"z": 2.8198744634,
				"element": "C" 
			},
			{
				"x": -4.7160676206,
				"y": -1.204490558,
				"z": 1.8958979124,
				"element": "F" 
			},
			{
				"x": -4.1394738951,
				"y": -0.3707852981,
				"z": 3.8224353802,
				"element": "F" 
			},
			{
				"x": -3.6072434654,
				"y": -2.4178984722,
				"z": 3.3190960052,
				"element": "F" 
			},
			{
				"x": 2.2854235762,
				"y": 1.9767611213,
				"z": -0.8431220157,
				"element": "C" 
			},
			{
				"x": 3.0738765743,
				"y": 2.8431113576,
				"z": 0.1044734326,
				"element": "C" 
			},
			{
				"x": 2.8808153016,
				"y": 0.9179203576,
				"z": -1.5327838365,
				"element": "C" 
			},
			{
				"x": 2.1810117556,
				"y": -1.8399145905,
				"z": -3.3835644657,
				"element": "H" 
			},
			{
				"x": 3.2170089796,
				"y": -0.6423594374,
				"z": -4.1595510866,
				"element": "H" 
			},
			{
				"x": 3.7257787017,
				"y": -1.3878478251,
				"z": -2.6441788589,
				"element": "H" 
			},
			{
				"x": 0.2244663319,
				"y": -0.2505258747,
				"z": -3.2901940428,
				"element": "H" 
			},
			{
				"x": -0.8792856161,
				"y": 1.5967804636,
				"z": -2.0704276596,
				"element": "H" 
			},
			{
				"x": 1.0159656671,
				"y": -2.7749251826,
				"z": 1.3770132973,
				"element": "H" 
			},
			{
				"x": 1.5860326659,
				"y": -1.7990381074,
				"z": 2.731953112,
				"element": "H" 
			},
			{
				"x": 1.9273833998,
				"y": -1.2729958654,
				"z": 1.0686138693,
				"element": "H" 
			},
			{
				"x": -1.3134352873,
				"y": -2.4607495944,
				"z": 2.6853803668,
				"element": "H" 
			},
			{
				"x": -2.9788657877,
				"y": 4.4199654982,
				"z": 0.5321016745,
				"element": "H" 
			},
			{
				"x": -4.383717207,
				"y": 3.7608499934,
				"z": 1.2808544647,
				"element": "H" 
			},
			{
				"x": 2.8474881542,
				"y": 2.5924195847,
				"z": 1.1480844929,
				"element": "H" 
			},
			{
				"x": 2.8131381182,
				"y": 3.8978067121,
				"z": -0.0287311871,
				"element": "H" 
			},
			{
				"x": 4.1498223933,
				"y": 2.7175738921,
				"z": -0.0454500123,
				"element": "H" 
			},
			{
				"x": 3.9437979354,
				"y": 0.7350390061,
				"z": -1.3858567852,
				"element": "H" 
			}
		],
		 "valence_orbital": [ 
			{
				"type": "occ",
				"energy": -0.24238,
				"method": "rhf"
			},
			{
				"type": "occ",
				"energy": -0.23866,
				"method": "rhf"
			},
			{
				"type": "occ",
				"energy": -0.23475,
				"method": "rhf"
			},
			{
				"type": "occ",
				"energy": -0.22706,
				"method": "rhf"
			},
			{
				"type": "occ",
				"energy": -0.1943,
				"method": "rhf"
			},
			{
				"type": "unocc",
				"energy": -0.07189,
				"method": "rhf"
			},
			{
				"type": "unocc",
				"energy": -0.05893,
				"method": "rhf"
			},
			{
				"type": "unocc",
				"energy": -0.00993,
				"method": "rhf"
			},
			{
				"type": "unocc",
				"energy": 0.00691,
				"method": "rhf"
			},
			{
				"type": "unocc",
				"energy": 0.02158,
				"method": "rhf"
			}
		],
		"cosmo_sigma_profile": { 
			"-0.025": 0.0,
			"-0.024": 0.0,
			"-0.023": 0.0,
			"-0.022": 0.0,
			"-0.021": 0.0,
			"-0.02": 0.0,
			"-0.019": 0.0,
			"-0.018": 0.0,
			"-0.017": 0.0,
			"-0.016": 0.0,
			"-0.015": 0.0942374265085,
			"-0.014": 1.06397142589,
			"-0.013": 1.33920689344,
			"-0.012": 1.84879528761,
			"-0.011": 1.73178893451,
			"-0.01": 1.74557831399,
			"-0.009": 3.2547775994,
			"-0.008": 2.74685013556,
			"-0.007": 4.10316575134,
			"-0.006": 8.3216398993,
			"-0.005": 18.5179533976,
			"-0.004": 31.7124364214,
			"-0.003": 30.7457288117,
			"-0.002": 32.293505834,
			"-0.001": 34.3087969165,
			"0.0": 36.237274319,
			"0.001": 33.1889107174,
			"0.002": 38.465577273,
			"0.003": 15.6282208743,
			"0.004": 13.0230583795,
			"0.005": 13.5167376952,
			"0.006": 9.52064099927,
			"0.007": 7.15227378131,
			"0.008": 5.43042421242,
			"0.009": 5.65487267856,
			"0.01": 5.01194472718,
			"0.011": 3.41988416328,
			"0.012": 2.24141464745,
			"0.013": 1.8157349132,
			"0.014": 0.940486628343,
			"0.015": 0.220740674748,
			"0.016": 0.0,
			"0.017": 0.0,
			"0.018": 0.0,
			"0.019": 0.0,
			"0.02": 0.0,
			"0.021": 0.0,
			"0.022": 0.0,
			"0.023": 0.0,
			"0.024": 0.0,
			"0.025": 0.0
		}
	}
}
