{
	 "smiles": "CC(=O)NC1=CC=C(Br)C=N1", 
	 "Tm": 450.15, 
	 "num_atms": 18, 
	 "gaussian": { 
		 "optdone": 1, 
		 "sigma_profile": "yes", 
		 "theory": "DFT", 
		 "functional": "B3LYP", 
		 "basiset": "6-31G**", 
		 "properties": { 
			 "R2extent": 5349.6219, 
			 "electric_dipole_moment_norm": 3.04258306871, 
			 "electric_quadrupole_moment_norm": 14.2661638386, 
			 "total_energy": -3027.10811921, 
			 "HOMO_LUMO_gap": 0.18908, 
			 "cosmo_polarized_energy": -11.51, 
			 "cosmo_cavitation_energy": 24.89, 
			 "cosmo_dispersion_energy": -18.92, 
			 "cosmo_repulsion_energy": 1.52, 
			 "cosmo_total_nonelectrostatic_energy": 7.49, 
			 "SMD_solvation_energy": 2.82 
		},
		"coords": [
			{
				"x": 1.044364163,
				"y": 2.8357731708,
				"z": 1.0938552891,
				"element": "C" 
			},
			{
				"x": 0.9146622058,
				"y": 1.5961195148,
				"z": 1.953204933,
				"element": "C" 
			},
			{
				"x": 0.6622341897,
				"y": 1.6632017271,
				"z": 3.1455519811,
				"element": "O" 
			},
			{
				"x": 1.0844124305,
				"y": 0.3380753104,
				"z": 1.3835895651,
				"element": "N" 
			},
			{
				"x": 1.3705358658,
				"y": -0.1656794046,
				"z": 0.1124616732,
				"element": "C" 
			},
			{
				"x": 1.5842091544,
				"y": 0.5931937891,
				"z": -1.0522600832,
				"element": "C" 
			},
			{
				"x": 1.8593024861,
				"y": -0.0781210887,
				"z": -2.2389575476,
				"element": "C" 
			},
			{
				"x": 1.9141881898,
				"y": -1.4694290717,
				"z": -2.2368433212,
				"element": "C" 
			},
			{
				"x": 2.2863322391,
				"y": -2.4413128896,
				"z": -3.8306338639,
				"element": "Br" 
			},
			{
				"x": 1.6899113889,
				"y": -2.1432943584,
				"z": -1.0372168123,
				"element": "C" 
			},
			{
				"x": 1.4258698828,
				"y": -1.5094470158,
				"z": 0.1036567041,
				"element": "N" 
			},
			{
				"x": 2.0418349242,
				"y": 2.9133846804,
				"z": 0.6497624676,
				"element": "H" 
			},
			{
				"x": 0.873987785,
				"y": 3.6959330506,
				"z": 1.7404179778,
				"element": "H" 
			},
			{
				"x": 0.3057801537,
				"y": 2.8429157713,
				"z": 0.2859937625,
				"element": "H" 
			},
			{
				"x": 0.9712541397,
				"y": -0.4041543416,
				"z": 2.0662987655,
				"element": "H" 
			},
			{
				"x": 1.5414995669,
				"y": 1.6716951556,
				"z": -1.0528865048,
				"element": "H" 
			},
			{
				"x": 2.0287547929,
				"y": 0.4784273909,
				"z": -3.1541392865,
				"element": "H" 
			},
			{
				"x": 1.7247664417,
				"y": -3.2289813904,
				"z": -0.9972556994,
				"element": "H" 
			}
		],
		 "valence_orbital": [ 
			{
				"type": "occ",
				"energy": -0.30439,
				"method": "rhf"
			},
			{
				"type": "occ",
				"energy": -0.29561,
				"method": "rhf"
			},
			{
				"type": "occ",
				"energy": -0.28399,
				"method": "rhf"
			},
			{
				"type": "occ",
				"energy": -0.26428,
				"method": "rhf"
			},
			{
				"type": "occ",
				"energy": -0.23468,
				"method": "rhf"
			},
			{
				"type": "unocc",
				"energy": -0.0456,
				"method": "rhf"
			},
			{
				"type": "unocc",
				"energy": -0.03476,
				"method": "rhf"
			},
			{
				"type": "unocc",
				"energy": -0.00228,
				"method": "rhf"
			},
			{
				"type": "unocc",
				"energy": 0.02495,
				"method": "rhf"
			},
			{
				"type": "unocc",
				"energy": 0.08896,
				"method": "rhf"
			}
		],
		"cosmo_sigma_profile": { 
			"-0.025": 0.0,
			"-0.024": 0.0,
			"-0.023": 0.0,
			"-0.022": 0.0,
			"-0.021": 0.0,
			"-0.02": 0.0,
			"-0.019": 0.0,
			"-0.018": 0.0,
			"-0.017": 0.0,
			"-0.016": 0.0,
			"-0.015": 0.0,
			"-0.014": 0.0,
			"-0.013": 0.286408731831,
			"-0.012": 0.874255837651,
			"-0.011": 0.383767347388,
			"-0.01": 0.938045217166,
			"-0.009": 1.24808808839,
			"-0.008": 6.12763564595,
			"-0.007": 12.2203555799,
			"-0.006": 11.0902108658,
			"-0.005": 10.385985061,
			"-0.004": 10.8715945887,
			"-0.003": 12.5951724183,
			"-0.002": 14.0762855013,
			"-0.001": 15.7637612865,
			"0.0": 20.2848515842,
			"0.001": 20.2748532998,
			"0.002": 11.3878601455,
			"0.003": 9.77283741681,
			"0.004": 14.6003218626,
			"0.005": 4.17357682648,
			"0.006": 2.7475527605,
			"0.007": 1.79170739512,
			"0.008": 2.33150755373,
			"0.009": 2.54019376971,
			"0.01": 1.98935173565,
			"0.011": 3.01199834471,
			"0.012": 4.89461930392,
			"0.013": 5.01352842923,
			"0.014": 1.0624202311,
			"0.015": 0.0,
			"0.016": 0.0,
			"0.017": 0.0,
			"0.018": 0.0,
			"0.019": 0.0,
			"0.02": 0.0,
			"0.021": 0.0,
			"0.022": 0.0,
			"0.023": 0.0,
			"0.024": 0.0,
			"0.025": 0.0
		}
	}
}
