{
	 "smiles": "CCOC1=C(C=CC=C1)C1=CC(=CC=C1)C(O)=O", 
	 "Tm": 418.15, 
	 "num_atms": 32, 
	 "gaussian": { 
		 "optdone": 1, 
		 "sigma_profile": "yes", 
		 "theory": "DFT", 
		 "functional": "B3LYP", 
		 "basiset": "6-31G**", 
		 "properties": { 
			 "R2extent": 5337.1617, 
			 "electric_dipole_moment_norm": 2.32845922232, 
			 "electric_quadrupole_moment_norm": 9.47062359351, 
			 "total_energy": -805.724774218, 
			 "HOMO_LUMO_gap": 0.18132, 
			 "cosmo_polarized_energy": -11.15, 
			 "cosmo_cavitation_energy": 36.34, 
			 "cosmo_dispersion_energy": -25.2, 
			 "cosmo_repulsion_energy": 1.97, 
			 "cosmo_total_nonelectrostatic_energy": 13.11, 
			 "SMD_solvation_energy": 7.51 
		},
		"coords": [
			{
				"x": 1.4648322793,
				"y": 1.8816635722,
				"z": -3.2876089757,
				"element": "C" 
			},
			{
				"x": 0.6053987909,
				"y": 0.8107768984,
				"z": -2.6415481105,
				"element": "C" 
			},
			{
				"x": 1.4803323621,
				"y": -0.199553414,
				"z": -2.1114975728,
				"element": "O" 
			},
			{
				"x": 0.8387985258,
				"y": -1.2483072574,
				"z": -1.482628202,
				"element": "C" 
			},
			{
				"x": 0.5128452925,
				"y": -1.1798212459,
				"z": -0.1113912718,
				"element": "C" 
			},
			{
				"x": -0.116958449,
				"y": -2.2971524291,
				"z": 0.4635345051,
				"element": "C" 
			},
			{
				"x": -0.414687953,
				"y": -3.4356389238,
				"z": -0.2831896297,
				"element": "C" 
			},
			{
				"x": -0.0803092957,
				"y": -3.4845889343,
				"z": -1.637165158,
				"element": "C" 
			},
			{
				"x": 0.5425894646,
				"y": -2.3885807269,
				"z": -2.2324297425,
				"element": "C" 
			},
			{
				"x": 0.81600554,
				"y": 0.0141355887,
				"z": 0.7236586899,
				"element": "C" 
			},
			{
				"x": -0.1360862901,
				"y": 0.4921488558,
				"z": 1.6359806133,
				"element": "C" 
			},
			{
				"x": 0.1443074737,
				"y": 1.5902418215,
				"z": 2.4586598855,
				"element": "C" 
			},
			{
				"x": 1.3881388383,
				"y": 2.2287111379,
				"z": 2.3770758752,
				"element": "C" 
			},
			{
				"x": 2.3392170784,
				"y": 1.7633684983,
				"z": 1.4729867875,
				"element": "C" 
			},
			{
				"x": 2.059233006,
				"y": 0.6693837275,
				"z": 0.6532930904,
				"element": "C" 
			},
			{
				"x": -0.8475542546,
				"y": 2.1200254719,
				"z": 3.4309356467,
				"element": "C" 
			},
			{
				"x": -2.0170830314,
				"y": 1.4298809878,
				"z": 3.4327000875,
				"element": "O" 
			},
			{
				"x": -0.6632616649,
				"y": 3.0712807716,
				"z": 4.165070052,
				"element": "O" 
			},
			{
				"x": 2.12637742,
				"y": 2.3412685005,
				"z": -2.5478444206,
				"element": "H" 
			},
			{
				"x": 2.081167172,
				"y": 1.4535962466,
				"z": -4.083431152,
				"element": "H" 
			},
			{
				"x": 0.8321232475,
				"y": 2.6633284192,
				"z": -3.7195580645,
				"element": "H" 
			},
			{
				"x": -0.0061140598,
				"y": 1.231782947,
				"z": -1.832074659,
				"element": "H" 
			},
			{
				"x": -0.075500665,
				"y": 0.3535079081,
				"z": -3.3737306199,
				"element": "H" 
			},
			{
				"x": -0.3528499626,
				"y": -2.2737035009,
				"z": 1.5234850178,
				"element": "H" 
			},
			{
				"x": -0.8928069441,
				"y": -4.2852604306,
				"z": 0.1949855027,
				"element": "H" 
			},
			{
				"x": -0.298997745,
				"y": -4.3703400303,
				"z": -2.2264102163,
				"element": "H" 
			},
			{
				"x": 0.817953426,
				"y": -2.398071753,
				"z": -3.2825526827,
				"element": "H" 
			},
			{
				"x": -1.1090557073,
				"y": 0.0184081423,
				"z": 1.6984711949,
				"element": "H" 
			},
			{
				"x": 1.5835842405,
				"y": 3.0774963687,
				"z": 3.0233309796,
				"element": "H" 
			},
			{
				"x": 3.3083004982,
				"y": 2.2493099924,
				"z": 1.4075729794,
				"element": "H" 
			},
			{
				"x": 2.8046531922,
				"y": 0.3135745529,
				"z": -0.0480706293,
				"element": "H" 
			},
			{
				"x": -2.5751918256,
				"y": 1.8645282369,
				"z": 4.0980901999,
				"element": "H" 
			}
		],
		 "valence_orbital": [ 
			{
				"type": "occ",
				"energy": -0.27538,
				"method": "rhf"
			},
			{
				"type": "occ",
				"energy": -0.26977,
				"method": "rhf"
			},
			{
				"type": "occ",
				"energy": -0.25886,
				"method": "rhf"
			},
			{
				"type": "occ",
				"energy": -0.24691,
				"method": "rhf"
			},
			{
				"type": "occ",
				"energy": -0.22888,
				"method": "rhf"
			},
			{
				"type": "unocc",
				"energy": -0.04756,
				"method": "rhf"
			},
			{
				"type": "unocc",
				"energy": -0.02829,
				"method": "rhf"
			},
			{
				"type": "unocc",
				"energy": -0.00274,
				"method": "rhf"
			},
			{
				"type": "unocc",
				"energy": 0.01523,
				"method": "rhf"
			},
			{
				"type": "unocc",
				"energy": 0.0621,
				"method": "rhf"
			}
		],
		"cosmo_sigma_profile": { 
			"-0.025": 0.0,
			"-0.024": 0.0,
			"-0.023": 0.0,
			"-0.022": 0.0,
			"-0.021": 0.0,
			"-0.02": 0.0,
			"-0.019": 0.0355763851201,
			"-0.018": 0.72169982054,
			"-0.017": 1.18606496178,
			"-0.016": 0.555638720169,
			"-0.015": 0.472683278676,
			"-0.014": 0.876074814739,
			"-0.013": 0.654862222009,
			"-0.012": 0.619760999194,
			"-0.011": 1.25027805116,
			"-0.01": 0.49715770822,
			"-0.009": 0.430179945613,
			"-0.008": 0.657439242251,
			"-0.007": 1.39072177418,
			"-0.006": 9.83639303501,
			"-0.005": 15.8843875665,
			"-0.004": 22.8470115342,
			"-0.003": 28.4376724661,
			"-0.002": 26.6224470968,
			"-0.001": 25.1936138431,
			"0.0": 25.4814250548,
			"0.001": 24.882863625,
			"0.002": 21.6536518239,
			"0.003": 22.6558103276,
			"0.004": 16.4525450391,
			"0.005": 13.1607005059,
			"0.006": 5.26372827185,
			"0.007": 4.63945362462,
			"0.008": 2.5436559115,
			"0.009": 2.45780863564,
			"0.01": 2.81343126046,
			"0.011": 4.49600621659,
			"0.012": 4.54450083026,
			"0.013": 0.100630762471,
			"0.014": 0.0,
			"0.015": 0.0,
			"0.016": 0.0,
			"0.017": 0.0,
			"0.018": 0.0,
			"0.019": 0.0,
			"0.02": 0.0,
			"0.021": 0.0,
			"0.022": 0.0,
			"0.023": 0.0,
			"0.024": 0.0,
			"0.025": 0.0
		}
	}
}
