{
	 "smiles": "FC(F)(F)CC(=O)C1=CC=C(Br)C=C1", 
	 "Tm": 347.15, 
	 "num_atms": 20, 
	 "gaussian": { 
		 "optdone": 1, 
		 "sigma_profile": "yes", 
		 "theory": "DFT", 
		 "functional": "B3LYP", 
		 "basiset": "6-31G**", 
		 "properties": { 
			 "R2extent": 5709.4838, 
			 "electric_dipole_moment_norm": 2.23162268764, 
			 "electric_quadrupole_moment_norm": 8.07168807995, 
			 "total_energy": -3292.72944218, 
			 "HOMO_LUMO_gap": 0.18029, 
			 "cosmo_polarized_energy": -8.49, 
			 "cosmo_cavitation_energy": 28.39, 
			 "cosmo_dispersion_energy": -20.49, 
			 "cosmo_repulsion_energy": 1.55, 
			 "cosmo_total_nonelectrostatic_energy": 9.46, 
			 "SMD_solvation_energy": 5.28 
		},
		"coords": [
			{
				"x": 2.6342532047,
				"y": 0.2418877651,
				"z": -3.2085874825,
				"element": "F" 
			},
			{
				"x": 1.4742826949,
				"y": 0.6220404159,
				"z": -2.6323796125,
				"element": "C" 
			},
			{
				"x": 1.7900874316,
				"y": 1.2216294948,
				"z": -1.4591987722,
				"element": "F" 
			},
			{
				"x": 0.909275954,
				"y": 1.5540883445,
				"z": -3.4199025168,
				"element": "F" 
			},
			{
				"x": 0.5628694835,
				"y": -0.5761638149,
				"z": -2.4337508598,
				"element": "C" 
			},
			{
				"x": -0.8416074454,
				"y": -0.2113775962,
				"z": -1.9287993188,
				"element": "C" 
			},
			{
				"x": -1.7370555585,
				"y": -0.0757036177,
				"z": -2.7460266017,
				"element": "O" 
			},
			{
				"x": -1.1013144662,
				"y": -0.06513917,
				"z": -0.4658741034,
				"element": "C" 
			},
			{
				"x": -2.4277051034,
				"y": 0.1703074986,
				"z": -0.0647674254,
				"element": "C" 
			},
			{
				"x": -2.7555905211,
				"y": 0.3016469673,
				"z": 1.2787006485,
				"element": "C" 
			},
			{
				"x": -1.7429215515,
				"y": 0.1993990516,
				"z": 2.235920903,
				"element": "C" 
			},
			{
				"x": -2.1805788811,
				"y": 0.3745861248,
				"z": 4.0824757058,
				"element": "Br" 
			},
			{
				"x": -0.4177749055,
				"y": -0.0270409855,
				"z": 1.8660077284,
				"element": "C" 
			},
			{
				"x": -0.1022954147,
				"y": -0.1597858339,
				"z": 0.5151833695,
				"element": "C" 
			},
			{
				"x": 0.4306756668,
				"y": -1.0418523356,
				"z": -3.4119862289,
				"element": "H" 
			},
			{
				"x": 1.0746539886,
				"y": -1.2811206588,
				"z": -1.7743252561,
				"element": "H" 
			},
			{
				"x": -3.1911586808,
				"y": 0.2450423203,
				"z": -0.8316072215,
				"element": "H" 
			},
			{
				"x": -3.7795809887,
				"y": 0.4804809942,
				"z": 1.5858266616,
				"element": "H" 
			},
			{
				"x": 0.3551957116,
				"y": -0.0961318215,
				"z": 2.6224674789,
				"element": "H" 
			},
			{
				"x": 0.9338893812,
				"y": -0.3121931429,
				"z": 0.2384229041,
				"element": "H" 
			}
		],
		 "valence_orbital": [ 
			{
				"type": "occ",
				"energy": -0.32457,
				"method": "rhf"
			},
			{
				"type": "occ",
				"energy": -0.30034,
				"method": "rhf"
			},
			{
				"type": "occ",
				"energy": -0.28073,
				"method": "rhf"
			},
			{
				"type": "occ",
				"energy": -0.27086,
				"method": "rhf"
			},
			{
				"type": "occ",
				"energy": -0.25956,
				"method": "rhf"
			},
			{
				"type": "unocc",
				"energy": -0.07927,
				"method": "rhf"
			},
			{
				"type": "unocc",
				"energy": -0.02959,
				"method": "rhf"
			},
			{
				"type": "unocc",
				"energy": -0.00506,
				"method": "rhf"
			},
			{
				"type": "unocc",
				"energy": 0.01421,
				"method": "rhf"
			},
			{
				"type": "unocc",
				"energy": 0.0926,
				"method": "rhf"
			}
		],
		"cosmo_sigma_profile": { 
			"-0.025": 0.0,
			"-0.024": 0.0,
			"-0.023": 0.0,
			"-0.022": 0.0,
			"-0.021": 0.0,
			"-0.02": 0.0,
			"-0.019": 0.0,
			"-0.018": 0.0,
			"-0.017": 0.0,
			"-0.016": 0.0,
			"-0.015": 0.0,
			"-0.014": 0.0,
			"-0.013": 0.0,
			"-0.012": 0.0,
			"-0.011": 0.135841783177,
			"-0.01": 1.54238916346,
			"-0.009": 2.70469327867,
			"-0.008": 6.64960463202,
			"-0.007": 10.1197480121,
			"-0.006": 10.992643624,
			"-0.005": 11.290645849,
			"-0.004": 10.2064537101,
			"-0.003": 9.94262250926,
			"-0.002": 10.5035894137,
			"-0.001": 12.0460513899,
			"0.0": 19.4698837232,
			"0.001": 27.4535893362,
			"0.002": 38.2828700202,
			"0.003": 30.4853611441,
			"0.004": 13.2932175483,
			"0.005": 2.71357068497,
			"0.006": 1.19305141446,
			"0.007": 1.04011855245,
			"0.008": 2.15828405472,
			"0.009": 2.16737468617,
			"0.01": 2.5322363013,
			"0.011": 3.60864903879,
			"0.012": 0.81070328782,
			"0.013": 0.0,
			"0.014": 0.0,
			"0.015": 0.0,
			"0.016": 0.0,
			"0.017": 0.0,
			"0.018": 0.0,
			"0.019": 0.0,
			"0.02": 0.0,
			"0.021": 0.0,
			"0.022": 0.0,
			"0.023": 0.0,
			"0.024": 0.0,
			"0.025": 0.0
		}
	}
}
