{
	 "smiles": "CC1=NN(C(N)=C1)C1=NC(C)=CC(C)=N1", 
	 "Tm": 447.15, 
	 "num_atms": 28, 
	 "gaussian": { 
		 "optdone": 1, 
		 "sigma_profile": "yes", 
		 "theory": "DFT", 
		 "functional": "B3LYP", 
		 "basiset": "6-31G**", 
		 "properties": { 
			 "R2extent": 3791.564, 
			 "electric_dipole_moment_norm": 3.77875839132, 
			 "electric_quadrupole_moment_norm": 10.9576928886, 
			 "total_energy": -662.663450342, 
			 "HOMO_LUMO_gap": 0.15351, 
			 "cosmo_polarized_energy": -16.37, 
			 "cosmo_cavitation_energy": 31.79, 
			 "cosmo_dispersion_energy": -23.32, 
			 "cosmo_repulsion_energy": 1.86, 
			 "cosmo_total_nonelectrostatic_energy": 10.34, 
			 "SMD_solvation_energy": 3.13 
		},
		"coords": [
			{
				"x": -3.8281602914,
				"y": -0.8547456255,
				"z": -1.4180743,
				"element": "C" 
			},
			{
				"x": -2.4960348146,
				"y": -0.1707714852,
				"z": -1.4446116216,
				"element": "C" 
			},
			{
				"x": -1.6950879436,
				"y": -0.2492199491,
				"z": -0.3983427238,
				"element": "N" 
			},
			{
				"x": -0.5753563668,
				"y": 0.4862301561,
				"z": -0.7577898401,
				"element": "N" 
			},
			{
				"x": -0.7032380966,
				"y": 1.0101309957,
				"z": -2.0432826257,
				"element": "C" 
			},
			{
				"x": 0.2936817076,
				"y": 1.7145209275,
				"z": -2.6772281302,
				"element": "N" 
			},
			{
				"x": -1.9374888956,
				"y": 0.5999982965,
				"z": -2.5026271507,
				"element": "C" 
			},
			{
				"x": 0.4685642753,
				"y": 0.651689054,
				"z": 0.1591921896,
				"element": "C" 
			},
			{
				"x": 0.4025364554,
				"y": -0.0606084344,
				"z": 1.2864196096,
				"element": "N" 
			},
			{
				"x": 1.4005698312,
				"y": 0.1104614473,
				"z": 2.1599835423,
				"element": "C" 
			},
			{
				"x": 1.3191451404,
				"y": -0.6920562313,
				"z": 3.4307798098,
				"element": "C" 
			},
			{
				"x": 2.4615896083,
				"y": 0.9865250049,
				"z": 1.8994928684,
				"element": "C" 
			},
			{
				"x": 2.4403360056,
				"y": 1.6829264148,
				"z": 0.6923095875,
				"element": "C" 
			},
			{
				"x": 3.5245666785,
				"y": 2.6507208423,
				"z": 0.2999381102,
				"element": "C" 
			},
			{
				"x": 1.4358637388,
				"y": 1.519311836,
				"z": -0.1825026181,
				"element": "N" 
			},
			{
				"x": -3.964783841,
				"y": -1.3617170262,
				"z": -0.4606566523,
				"element": "H" 
			},
			{
				"x": -3.9089222252,
				"y": -1.5961980284,
				"z": -2.2211844684,
				"element": "H" 
			},
			{
				"x": -4.6454445316,
				"y": -0.1373506198,
				"z": -1.5546572931,
				"element": "H" 
			},
			{
				"x": 0.9795433171,
				"y": 2.1145014321,
				"z": -2.0455394642,
				"element": "H" 
			},
			{
				"x": -0.0263702718,
				"y": 2.3072494792,
				"z": -3.428657613,
				"element": "H" 
			},
			{
				"x": -2.3659229862,
				"y": 0.8131440899,
				"z": -3.4711231353,
				"element": "H" 
			},
			{
				"x": 1.2761106002,
				"y": -1.7598861849,
				"z": 3.1946577742,
				"element": "H" 
			},
			{
				"x": 2.1723033697,
				"y": -0.5052913666,
				"z": 4.0872876324,
				"element": "H" 
			},
			{
				"x": 0.3959978396,
				"y": -0.4484641415,
				"z": 3.9660918587,
				"element": "H" 
			},
			{
				"x": 3.2705991967,
				"y": 1.1186957404,
				"z": 2.6090209747,
				"element": "H" 
			},
			{
				"x": 4.0017094566,
				"y": 2.3266075782,
				"z": -0.630960559,
				"element": "H" 
			},
			{
				"x": 3.0988888437,
				"y": 3.6427182774,
				"z": 0.1164913432,
				"element": "H" 
			},
			{
				"x": 4.2898041998,
				"y": 2.7350775206,
				"z": 1.0747728949,
				"element": "H" 
			}
		],
		 "valence_orbital": [ 
			{
				"type": "occ",
				"energy": -0.28524,
				"method": "rhf"
			},
			{
				"type": "occ",
				"energy": -0.27061,
				"method": "rhf"
			},
			{
				"type": "occ",
				"energy": -0.24376,
				"method": "rhf"
			},
			{
				"type": "occ",
				"energy": -0.22373,
				"method": "rhf"
			},
			{
				"type": "occ",
				"energy": -0.19029,
				"method": "rhf"
			},
			{
				"type": "unocc",
				"energy": -0.03678,
				"method": "rhf"
			},
			{
				"type": "unocc",
				"energy": -0.02231,
				"method": "rhf"
			},
			{
				"type": "unocc",
				"energy": 0.06029,
				"method": "rhf"
			},
			{
				"type": "unocc",
				"energy": 0.08659,
				"method": "rhf"
			},
			{
				"type": "unocc",
				"energy": 0.09555,
				"method": "rhf"
			}
		],
		"cosmo_sigma_profile": { 
			"-0.025": 0.0,
			"-0.024": 0.0,
			"-0.023": 0.0,
			"-0.022": 0.0,
			"-0.021": 0.0,
			"-0.02": 0.0,
			"-0.019": 0.0,
			"-0.018": 0.0,
			"-0.017": 0.0,
			"-0.016": 0.0,
			"-0.015": 0.0,
			"-0.014": 0.269592676075,
			"-0.013": 1.3019986844,
			"-0.012": 1.30330642716,
			"-0.011": 0.621466826848,
			"-0.01": 1.20073726252,
			"-0.009": 1.40861349184,
			"-0.008": 2.33565433963,
			"-0.007": 4.37766531891,
			"-0.006": 9.56299586533,
			"-0.005": 16.5340626687,
			"-0.004": 18.8763621861,
			"-0.003": 21.1996491416,
			"-0.002": 26.34890313,
			"-0.001": 36.2094450357,
			"0.0": 28.5214948506,
			"0.001": 14.7028114784,
			"0.002": 10.3635763998,
			"0.003": 8.73178431148,
			"0.004": 7.8858893773,
			"0.005": 8.062173716,
			"0.006": 6.39054625433,
			"0.007": 4.18160430808,
			"0.008": 2.96393128274,
			"0.009": 2.53461704135,
			"0.01": 2.11280098885,
			"0.011": 3.10580639007,
			"0.012": 1.22709418221,
			"0.013": 1.38716003518,
			"0.014": 2.11221981388,
			"0.015": 0.749490222518,
			"0.016": 1.20465022534,
			"0.017": 0.786492466876,
			"0.018": 1.07665833196,
			"0.019": 0.660174049516,
			"0.02": 1.17396113684,
			"0.021": 0.593416279772,
			"0.022": 0.358073159247,
			"0.023": 0.0,
			"0.024": 0.0,
			"0.025": 0.0
		}
	}
}
