{
	 "smiles": "CC1=CC=C(C=C1)C1=NN(C=C1C(O)=O)C1=C(Cl)C=CC=C1", 
	 "Tm": 531.15, 
	 "num_atms": 35, 
	 "gaussian": { 
		 "optdone": 1, 
		 "sigma_profile": "yes", 
		 "theory": "DFT", 
		 "functional": "B3LYP", 
		 "basiset": "6-31G**", 
		 "properties": { 
			 "R2extent": 9605.3243, 
			 "electric_dipole_moment_norm": 2.50348854801, 
			 "electric_quadrupole_moment_norm": 27.2810975072, 
			 "total_energy": -1375.79281883, 
			 "HOMO_LUMO_gap": 0.17924, 
			 "cosmo_polarized_energy": -13.96, 
			 "cosmo_cavitation_energy": 41.89, 
			 "cosmo_dispersion_energy": -29.84, 
			 "cosmo_repulsion_energy": 2.28, 
			 "cosmo_total_nonelectrostatic_energy": 14.33, 
			 "SMD_solvation_energy": 7.48 
		},
		"coords": [
			{
				"x": -5.3901636794,
				"y": -0.7221910744,
				"z": -2.2671766501,
				"element": "C" 
			},
			{
				"x": -4.1582760878,
				"y": -0.5029346522,
				"z": -1.421469789,
				"element": "C" 
			},
			{
				"x": -3.1359710614,
				"y": -1.4603252139,
				"z": -1.3707847453,
				"element": "C" 
			},
			{
				"x": -1.9874846045,
				"y": -1.2482763286,
				"z": -0.6136037257,
				"element": "C" 
			},
			{
				"x": -1.825657508,
				"y": -0.068032396,
				"z": 0.130247897,
				"element": "C" 
			},
			{
				"x": -2.843784923,
				"y": 0.894746447,
				"z": 0.0797935216,
				"element": "C" 
			},
			{
				"x": -3.9887429645,
				"y": 0.6751534965,
				"z": -0.6826742613,
				"element": "C" 
			},
			{
				"x": -0.570126479,
				"y": 0.143556136,
				"z": 0.8804259515,
				"element": "C" 
			},
			{
				"x": 0.5628003736,
				"y": -0.2996322384,
				"z": 0.3362092822,
				"element": "N" 
			},
			{
				"x": 1.553352289,
				"y": 0.0031784633,
				"z": 1.2271873022,
				"element": "N" 
			},
			{
				"x": 1.0719207868,
				"y": 0.6519998094,
				"z": 2.3127615053,
				"element": "C" 
			},
			{
				"x": -0.2990603493,
				"y": 0.7607807959,
				"z": 2.151136711,
				"element": "C" 
			},
			{
				"x": -1.1212868931,
				"y": 1.345119852,
				"z": 3.2183404077,
				"element": "C" 
			},
			{
				"x": -2.4574116412,
				"y": 1.2499114597,
				"z": 3.0143752234,
				"element": "O" 
			},
			{
				"x": -0.661757405,
				"y": 1.860610196,
				"z": 4.2218273659,
				"element": "O" 
			},
			{
				"x": 2.9007893356,
				"y": -0.2653308217,
				"z": 0.8630125374,
				"element": "C" 
			},
			{
				"x": 3.8595001489,
				"y": -0.7559454101,
				"z": 1.7640633746,
				"element": "C" 
			},
			{
				"x": 3.4608087716,
				"y": -1.1423450754,
				"z": 3.4291086781,
				"element": "Cl" 
			},
			{
				"x": 5.1691217427,
				"y": -0.9886789975,
				"z": 1.3391304131,
				"element": "C" 
			},
			{
				"x": 5.5283071096,
				"y": -0.7570424318,
				"z": 0.0137313911,
				"element": "C" 
			},
			{
				"x": 4.574594246,
				"y": -0.2935932979,
				"z": -0.89426346,
				"element": "C" 
			},
			{
				"x": 3.2738526334,
				"y": -0.0463362949,
				"z": -0.4699068651,
				"element": "C" 
			},
			{
				"x": -6.2610032889,
				"y": -0.2086951531,
				"z": -1.8484315514,
				"element": "H" 
			},
			{
				"x": -5.6324390826,
				"y": -1.7857695805,
				"z": -2.3537220954,
				"element": "H" 
			},
			{
				"x": -5.2453839907,
				"y": -0.3385052138,
				"z": -3.2852434665,
				"element": "H" 
			},
			{
				"x": -3.2431676564,
				"y": -2.3874199868,
				"z": -1.9288904165,
				"element": "H" 
			},
			{
				"x": -1.2042654959,
				"y": -1.998426064,
				"z": -0.5857930036,
				"element": "H" 
			},
			{
				"x": -2.7413893059,
				"y": 1.8170631059,
				"z": 0.6383957471,
				"element": "H" 
			},
			{
				"x": -4.76475861,
				"y": 1.4365404287,
				"z": -0.706579523,
				"element": "H" 
			},
			{
				"x": 1.693181185,
				"y": 0.9913970332,
				"z": 3.1249671211,
				"element": "H" 
			},
			{
				"x": -2.8664220705,
				"y": 1.6524812378,
				"z": 3.7987013158,
				"element": "H" 
			},
			{
				"x": 5.8920633786,
				"y": -1.3657139098,
				"z": 2.0537370227,
				"element": "H" 
			},
			{
				"x": 6.5483589329,
				"y": -0.9460368157,
				"z": -0.3055358787,
				"element": "H" 
			},
			{
				"x": 4.8431710877,
				"y": -0.1163025059,
				"z": -1.9307186845,
				"element": "H" 
			},
			{
				"x": 2.5146310757,
				"y": 0.3122950009,
				"z": -1.1545586527,
				"element": "H" 
			}
		],
		 "valence_orbital": [ 
			{
				"type": "occ",
				"energy": -0.26564,
				"method": "rhf"
			},
			{
				"type": "occ",
				"energy": -0.2615,
				"method": "rhf"
			},
			{
				"type": "occ",
				"energy": -0.25168,
				"method": "rhf"
			},
			{
				"type": "occ",
				"energy": -0.24399,
				"method": "rhf"
			},
			{
				"type": "occ",
				"energy": -0.2216,
				"method": "rhf"
			},
			{
				"type": "unocc",
				"energy": -0.04236,
				"method": "rhf"
			},
			{
				"type": "unocc",
				"energy": -0.02763,
				"method": "rhf"
			},
			{
				"type": "unocc",
				"energy": -0.02564,
				"method": "rhf"
			},
			{
				"type": "unocc",
				"energy": -0.00029,
				"method": "rhf"
			},
			{
				"type": "unocc",
				"energy": 0.00502,
				"method": "rhf"
			}
		],
		"cosmo_sigma_profile": { 
			"-0.025": 0.0,
			"-0.024": 0.0,
			"-0.023": 0.0,
			"-0.022": 0.0,
			"-0.021": 0.0,
			"-0.02": 0.0,
			"-0.019": 0.00558147790494,
			"-0.018": 0.58595644612,
			"-0.017": 1.06979802379,
			"-0.016": 0.86531112938,
			"-0.015": 0.428873321744,
			"-0.014": 0.688565996987,
			"-0.013": 0.470537678085,
			"-0.012": 1.10282410199,
			"-0.011": 1.092487547,
			"-0.01": 0.599718690145,
			"-0.009": 1.21395096856,
			"-0.008": 2.60770813314,
			"-0.007": 9.21182348916,
			"-0.006": 11.3472432572,
			"-0.005": 18.1348472355,
			"-0.004": 24.4012196144,
			"-0.003": 22.3109374994,
			"-0.002": 27.1581872673,
			"-0.001": 27.8977001651,
			"0.0": 34.2185399763,
			"0.001": 34.1058644477,
			"0.002": 27.4062968109,
			"0.003": 25.9576743009,
			"0.004": 17.6007441322,
			"0.005": 13.8703612277,
			"0.006": 9.27159701456,
			"0.007": 4.36078737969,
			"0.008": 4.3261066479,
			"0.009": 3.18129893198,
			"0.01": 2.9140800824,
			"0.011": 3.66390858219,
			"0.012": 5.62543106955,
			"0.013": 0.459368869242,
			"0.014": 0.0,
			"0.015": 0.0,
			"0.016": 0.0,
			"0.017": 0.0,
			"0.018": 0.0,
			"0.019": 0.0,
			"0.02": 0.0,
			"0.021": 0.0,
			"0.022": 0.0,
			"0.023": 0.0,
			"0.024": 0.0,
			"0.025": 0.0
		}
	}
}
