{
	 "smiles": "ClC(=O)C1=CC=C(Br)C=C1", 
	 "Tm": 314.15, 
	 "num_atms": 14, 
	 "gaussian": { 
		 "optdone": 1, 
		 "sigma_profile": "yes", 
		 "theory": "DFT", 
		 "functional": "B3LYP", 
		 "basiset": "6-31G**", 
		 "properties": { 
			 "R2extent": 3841.3087, 
			 "electric_dipole_moment_norm": 2.62086124967, 
			 "electric_quadrupole_moment_norm": 9.43814885081, 
			 "total_energy": -3375.98295086, 
			 "HOMO_LUMO_gap": 0.18201, 
			 "cosmo_polarized_energy": -5.67, 
			 "cosmo_cavitation_energy": 23.1, 
			 "cosmo_dispersion_energy": -17.65, 
			 "cosmo_repulsion_energy": 1.43, 
			 "cosmo_total_nonelectrostatic_energy": 6.88, 
			 "SMD_solvation_energy": 3.46 
		},
		"coords": [
			{
				"x": 3.1270544783,
				"y": 1.67150294,
				"z": 1.3776204676,
				"element": "Cl" 
			},
			{
				"x": 1.7328463782,
				"y": 0.4947836227,
				"z": 1.5060028459,
				"element": "C" 
			},
			{
				"x": 1.7401503259,
				"y": -0.3134125389,
				"z": 2.3856948208,
				"element": "O" 
			},
			{
				"x": 0.6787643383,
				"y": 0.6486232923,
				"z": 0.4759725703,
				"element": "C" 
			},
			{
				"x": 0.7079590633,
				"y": 1.6122693507,
				"z": -0.5413887837,
				"element": "C" 
			},
			{
				"x": -0.3280842006,
				"y": 1.6846231155,
				"z": -1.4684759273,
				"element": "C" 
			},
			{
				"x": -1.3938314677,
				"y": 0.7887775818,
				"z": -1.3737289967,
				"element": "C" 
			},
			{
				"x": -2.8109503027,
				"y": 0.8869661584,
				"z": -2.6408938021,
				"element": "Br" 
			},
			{
				"x": -1.4415508402,
				"y": -0.1788829029,
				"z": -0.3672742244,
				"element": "C" 
			},
			{
				"x": -0.4041214465,
				"y": -0.2452734638,
				"z": 0.5545018234,
				"element": "C" 
			},
			{
				"x": 1.5385003587,
				"y": 2.3043171538,
				"z": -0.6085933495,
				"element": "H" 
			},
			{
				"x": -0.3096790356,
				"y": 2.4280237103,
				"z": -2.256651673,
				"element": "H" 
			},
			{
				"x": -2.2776156239,
				"y": -0.8660060011,
				"z": -0.3098794892,
				"element": "H" 
			},
			{
				"x": -0.4172420255,
				"y": -0.9871120189,
				"z": 1.3452937178,
				"element": "H" 
			}
		],
		 "valence_orbital": [ 
			{
				"type": "occ",
				"energy": -0.32512,
				"method": "rhf"
			},
			{
				"type": "occ",
				"energy": -0.30682,
				"method": "rhf"
			},
			{
				"type": "occ",
				"energy": -0.29906,
				"method": "rhf"
			},
			{
				"type": "occ",
				"energy": -0.28894,
				"method": "rhf"
			},
			{
				"type": "occ",
				"energy": -0.26867,
				"method": "rhf"
			},
			{
				"type": "unocc",
				"energy": -0.08666,
				"method": "rhf"
			},
			{
				"type": "unocc",
				"energy": -0.0372,
				"method": "rhf"
			},
			{
				"type": "unocc",
				"energy": -0.01103,
				"method": "rhf"
			},
			{
				"type": "unocc",
				"energy": 0.01414,
				"method": "rhf"
			},
			{
				"type": "unocc",
				"energy": 0.01429,
				"method": "rhf"
			}
		],
		"cosmo_sigma_profile": { 
			"-0.025": 0.0,
			"-0.024": 0.0,
			"-0.023": 0.0,
			"-0.022": 0.0,
			"-0.021": 0.0,
			"-0.02": 0.0,
			"-0.019": 0.0,
			"-0.018": 0.0,
			"-0.017": 0.0,
			"-0.016": 0.0,
			"-0.015": 0.0,
			"-0.014": 0.0,
			"-0.013": 0.0,
			"-0.012": 0.0,
			"-0.011": 0.0,
			"-0.01": 0.0,
			"-0.009": 0.112350788424,
			"-0.008": 5.09924928607,
			"-0.007": 7.52104281639,
			"-0.006": 6.29399274961,
			"-0.005": 8.0732813606,
			"-0.004": 10.0196828135,
			"-0.003": 11.1416697305,
			"-0.002": 14.0326701761,
			"-0.001": 16.6174583873,
			"0.0": 24.7477144241,
			"0.001": 24.0977692539,
			"0.002": 14.2584723501,
			"0.003": 15.7764634442,
			"0.004": 16.2797389619,
			"0.005": 5.6816253526,
			"0.006": 2.61456281801,
			"0.007": 2.62301392995,
			"0.008": 4.24313898123,
			"0.009": 2.67122021904,
			"0.01": 0.35319714439,
			"0.011": 0.0,
			"0.012": 0.0,
			"0.013": 0.0,
			"0.014": 0.0,
			"0.015": 0.0,
			"0.016": 0.0,
			"0.017": 0.0,
			"0.018": 0.0,
			"0.019": 0.0,
			"0.02": 0.0,
			"0.021": 0.0,
			"0.022": 0.0,
			"0.023": 0.0,
			"0.024": 0.0,
			"0.025": 0.0
		}
	}
}
