{
	 "smiles": "CNC(=O)C1=CC(=CN1C)S(Cl)(=O)=O", 
	 "Tm": 428.15, 
	 "num_atms": 23, 
	 "gaussian": { 
		 "optdone": 1, 
		 "sigma_profile": "yes", 
		 "theory": "DFT", 
		 "functional": "B3LYP", 
		 "basiset": "6-31G**", 
		 "properties": { 
			 "R2extent": 4991.7793, 
			 "electric_dipole_moment_norm": 5.51866561861, 
			 "electric_quadrupole_moment_norm": 28.7644262677, 
			 "total_energy": -1465.65806823, 
			 "HOMO_LUMO_gap": 0.17842, 
			 "cosmo_polarized_energy": -16.99, 
			 "cosmo_cavitation_energy": 30.79, 
			 "cosmo_dispersion_energy": -22.56, 
			 "cosmo_repulsion_energy": 1.76, 
			 "cosmo_total_nonelectrostatic_energy": 9.98, 
			 "SMD_solvation_energy": 4.47 
		},
		"coords": [
			{
				"x": 2.1603964273,
				"y": 1.282483641,
				"z": -0.1969484734,
				"element": "C" 
			},
			{
				"x": 1.2185778273,
				"y": 1.5737761478,
				"z": -1.2666208771,
				"element": "N" 
			},
			{
				"x": -0.0702310095,
				"y": 1.1560873812,
				"z": -1.4483652654,
				"element": "C" 
			},
			{
				"x": -0.7824123263,
				"y": 1.6762374407,
				"z": -2.310242715,
				"element": "O" 
			},
			{
				"x": -0.5862463927,
				"y": 0.0512468537,
				"z": -0.6021927389,
				"element": "C" 
			},
			{
				"x": 0.0555530946,
				"y": -0.9988730273,
				"z": 0.0342482952,
				"element": "C" 
			},
			{
				"x": -0.9578104035,
				"y": -1.8030533809,
				"z": 0.6049812702,
				"element": "C" 
			},
			{
				"x": -2.1880304199,
				"y": -1.2371962125,
				"z": 0.3012738017,
				"element": "C" 
			},
			{
				"x": -1.9613788487,
				"y": -0.1221018941,
				"z": -0.431641482,
				"element": "N" 
			},
			{
				"x": -3.0306918538,
				"y": 0.7474299939,
				"z": -0.9309860118,
				"element": "C" 
			},
			{
				"x": -0.738291897,
				"y": -3.2546138704,
				"z": 1.5414238991,
				"element": "S" 
			},
			{
				"x": -0.6091514074,
				"y": -4.7673431032,
				"z": 0.029608535,
				"element": "Cl" 
			},
			{
				"x": -1.9637314673,
				"y": -3.5395387836,
				"z": 2.2792358878,
				"element": "O" 
			},
			{
				"x": 0.5740200852,
				"y": -3.2284346436,
				"z": 2.175529019,
				"element": "O" 
			},
			{
				"x": 2.8068504244,
				"y": 0.425225795,
				"z": -0.4239908916,
				"element": "H" 
			},
			{
				"x": 1.6337595298,
				"y": 1.0838069918,
				"z": 0.7385953588,
				"element": "H" 
			},
			{
				"x": 2.8005978755,
				"y": 2.1551864536,
				"z": -0.0461560666,
				"element": "H" 
			},
			{
				"x": 1.4741921126,
				"y": 2.2850006153,
				"z": -1.9384838701,
				"element": "H" 
			},
			{
				"x": 1.1151403253,
				"y": -1.1922186628,
				"z": 0.0757374329,
				"element": "H" 
			},
			{
				"x": -3.1820649437,
				"y": -1.5558552032,
				"z": 0.5753146653,
				"element": "H" 
			},
			{
				"x": -3.0575094208,
				"y": 0.7237516573,
				"z": -2.0192170492,
				"element": "H" 
			},
			{
				"x": -2.8585027356,
				"y": 1.7772982933,
				"z": -0.6165831809,
				"element": "H" 
			},
			{
				"x": -3.9731345756,
				"y": 0.3894975171,
				"z": -0.5137195431,
				"element": "H" 
			}
		],
		 "valence_orbital": [ 
			{
				"type": "occ",
				"energy": -0.3048,
				"method": "rhf"
			},
			{
				"type": "occ",
				"energy": -0.28195,
				"method": "rhf"
			},
			{
				"type": "occ",
				"energy": -0.27394,
				"method": "rhf"
			},
			{
				"type": "occ",
				"energy": -0.2666,
				"method": "rhf"
			},
			{
				"type": "occ",
				"energy": -0.25645,
				"method": "rhf"
			},
			{
				"type": "unocc",
				"energy": -0.07803,
				"method": "rhf"
			},
			{
				"type": "unocc",
				"energy": -0.04012,
				"method": "rhf"
			},
			{
				"type": "unocc",
				"energy": -0.00098,
				"method": "rhf"
			},
			{
				"type": "unocc",
				"energy": 0.06158,
				"method": "rhf"
			},
			{
				"type": "unocc",
				"energy": 0.07165,
				"method": "rhf"
			}
		],
		"cosmo_sigma_profile": { 
			"-0.025": 0.0,
			"-0.024": 0.0,
			"-0.023": 0.0,
			"-0.022": 0.0,
			"-0.021": 0.0,
			"-0.02": 0.0,
			"-0.019": 0.0,
			"-0.018": 0.0,
			"-0.017": 0.0,
			"-0.016": 0.0,
			"-0.015": 0.0,
			"-0.014": 0.707353028109,
			"-0.013": 1.11943110085,
			"-0.012": 1.16132594057,
			"-0.011": 3.10056310054,
			"-0.01": 2.53346642264,
			"-0.009": 4.12419524623,
			"-0.008": 5.06809770347,
			"-0.007": 7.01462318729,
			"-0.006": 11.7293679497,
			"-0.005": 16.4044130048,
			"-0.004": 17.80646948,
			"-0.003": 24.1449099467,
			"-0.002": 14.9651519982,
			"-0.001": 13.8592094202,
			"0.0": 15.9164799998,
			"0.001": 15.6284256427,
			"0.002": 14.4650688553,
			"0.003": 13.0344126173,
			"0.004": 16.0986671502,
			"0.005": 6.40682582753,
			"0.006": 4.97767284793,
			"0.007": 5.95943591418,
			"0.008": 11.3733535848,
			"0.009": 9.00455066202,
			"0.01": 1.67396562449,
			"0.011": 1.92257879815,
			"0.012": 1.68026175294,
			"0.013": 3.24473841378,
			"0.014": 2.43771757415,
			"0.015": 0.235764524396,
			"0.016": 0.0,
			"0.017": 0.0,
			"0.018": 0.0,
			"0.019": 0.0,
			"0.02": 0.0,
			"0.021": 0.0,
			"0.022": 0.0,
			"0.023": 0.0,
			"0.024": 0.0,
			"0.025": 0.0
		}
	}
}
