{
	 "smiles": "CC1=CC2=C(N1)C=CC(=C2)[N+]([O-])=O", 
	 "Tm": 449.15, 
	 "num_atms": 21, 
	 "gaussian": { 
		 "optdone": 1, 
		 "sigma_profile": "yes", 
		 "theory": "DFT", 
		 "functional": "B3LYP", 
		 "basiset": "6-31G**", 
		 "properties": { 
			 "R2extent": 3291.0826, 
			 "electric_dipole_moment_norm": 7.96440813495, 
			 "electric_quadrupole_moment_norm": 17.2115769089, 
			 "total_energy": -607.646717159, 
			 "HOMO_LUMO_gap": 0.15208, 
			 "cosmo_polarized_energy": -14.35, 
			 "cosmo_cavitation_energy": 25.81, 
			 "cosmo_dispersion_energy": -19.23, 
			 "cosmo_repulsion_energy": 1.51, 
			 "cosmo_total_nonelectrostatic_energy": 8.09, 
			 "SMD_solvation_energy": 6.45 
		},
		"coords": [
			{
				"x": 3.289568007,
				"y": -2.3477893397,
				"z": 0.7792482654,
				"element": "C" 
			},
			{
				"x": 2.3669388031,
				"y": -1.2083518612,
				"z": 0.4942965723,
				"element": "C" 
			},
			{
				"x": 2.2421400744,
				"y": 0.0117803666,
				"z": 1.107432385,
				"element": "C" 
			},
			{
				"x": 1.1962868205,
				"y": 0.7321825607,
				"z": 0.4354340463,
				"element": "C" 
			},
			{
				"x": 0.7099880285,
				"y": -0.1186852951,
				"z": -0.6020083399,
				"element": "C" 
			},
			{
				"x": 1.4376004549,
				"y": -1.2826310768,
				"z": -0.5396676561,
				"element": "N" 
			},
			{
				"x": -0.3230475669,
				"y": 0.2643040507,
				"z": -1.4665387111,
				"element": "C" 
			},
			{
				"x": -0.880633089,
				"y": 1.5210801933,
				"z": -1.2910781566,
				"element": "C" 
			},
			{
				"x": -0.4015813718,
				"y": 2.3615285144,
				"z": -0.267681244,
				"element": "C" 
			},
			{
				"x": 0.6230381471,
				"y": 1.997228421,
				"z": 0.599263576,
				"element": "C" 
			},
			{
				"x": -1.0136563674,
				"y": 3.6836431212,
				"z": -0.1102701443,
				"element": "N" 
			},
			{
				"x": -0.5891012539,
				"y": 4.4138458453,
				"z": 0.7878639055,
				"element": "O" 
			},
			{
				"x": -1.9210214242,
				"y": 3.9950824758,
				"z": -0.8850760231,
				"element": "O" 
			},
			{
				"x": 3.9398105199,
				"y": -2.1019355283,
				"z": 1.6210673849,
				"element": "H" 
			},
			{
				"x": 2.7387401583,
				"y": -3.2613071937,
				"z": 1.0350459306,
				"element": "H" 
			},
			{
				"x": 3.9276414234,
				"y": -2.5781965514,
				"z": -0.0828009823,
				"element": "H" 
			},
			{
				"x": 2.8314973392,
				"y": 0.3565774008,
				"z": 1.9451235098,
				"element": "H" 
			},
			{
				"x": 1.3192672366,
				"y": -2.0756596499,
				"z": -1.1502547111,
				"element": "H" 
			},
			{
				"x": -0.6806909194,
				"y": -0.3960779107,
				"z": -2.250706605,
				"element": "H" 
			},
			{
				"x": -1.6817107205,
				"y": 1.8781579478,
				"z": -1.92475463,
				"element": "H" 
			},
			{
				"x": 0.9473257,
				"y": 2.6887235094,
				"z": 1.3669616278,
				"element": "H" 
			}
		],
		 "valence_orbital": [ 
			{
				"type": "occ",
				"energy": -0.29121,
				"method": "rhf"
			},
			{
				"type": "occ",
				"energy": -0.29049,
				"method": "rhf"
			},
			{
				"type": "occ",
				"energy": -0.27309,
				"method": "rhf"
			},
			{
				"type": "occ",
				"energy": -0.24216,
				"method": "rhf"
			},
			{
				"type": "occ",
				"energy": -0.22134,
				"method": "rhf"
			},
			{
				"type": "unocc",
				"energy": -0.06926,
				"method": "rhf"
			},
			{
				"type": "unocc",
				"energy": -0.02481,
				"method": "rhf"
			},
			{
				"type": "unocc",
				"energy": 0.03024,
				"method": "rhf"
			},
			{
				"type": "unocc",
				"energy": 0.05545,
				"method": "rhf"
			},
			{
				"type": "unocc",
				"energy": 0.06243,
				"method": "rhf"
			}
		],
		"cosmo_sigma_profile": { 
			"-0.025": 0.0,
			"-0.024": 0.0,
			"-0.023": 0.0,
			"-0.022": 0.0,
			"-0.021": 0.0,
			"-0.02": 0.0,
			"-0.019": 0.0,
			"-0.018": 0.0,
			"-0.017": 0.0,
			"-0.016": 0.860648333176,
			"-0.015": 1.55325954872,
			"-0.014": 1.4496498826,
			"-0.013": 1.29247824756,
			"-0.012": 1.19715844685,
			"-0.011": 1.52773263018,
			"-0.01": 1.55054002412,
			"-0.009": 1.26675634023,
			"-0.008": 1.46560649152,
			"-0.007": 4.74172203393,
			"-0.006": 8.42511142251,
			"-0.005": 14.9192752971,
			"-0.004": 14.7507217254,
			"-0.003": 13.4430303736,
			"-0.002": 12.3850131071,
			"-0.001": 15.2523629555,
			"0.0": 12.9297152631,
			"0.001": 13.4027166152,
			"0.002": 16.1988474757,
			"0.003": 19.2128518548,
			"0.004": 11.3155207804,
			"0.005": 5.76941400886,
			"0.006": 4.68277262043,
			"0.007": 4.26822637752,
			"0.008": 8.74565036847,
			"0.009": 7.21020773605,
			"0.01": 4.25018934031,
			"0.011": 2.41356244211,
			"0.012": 0.0610985708944,
			"0.013": 0.0,
			"0.014": 0.0,
			"0.015": 0.0,
			"0.016": 0.0,
			"0.017": 0.0,
			"0.018": 0.0,
			"0.019": 0.0,
			"0.02": 0.0,
			"0.021": 0.0,
			"0.022": 0.0,
			"0.023": 0.0,
			"0.024": 0.0,
			"0.025": 0.0
		}
	}
}
