{
	 "smiles": "OC1=CC(O)=NC(S)=N1", 
	 "Tm": 521.15, 
	 "num_atms": 13, 
	 "gaussian": { 
		 "optdone": 1, 
		 "sigma_profile": "yes", 
		 "theory": "DFT", 
		 "functional": "B3LYP", 
		 "basiset": "6-31G**", 
		 "properties": { 
			 "R2extent": 2340.9958, 
			 "electric_dipole_moment_norm": 3.35694731266, 
			 "electric_quadrupole_moment_norm": 9.46164130054, 
			 "total_energy": -812.979276445, 
			 "HOMO_LUMO_gap": 0.21683, 
			 "cosmo_polarized_energy": -15.68, 
			 "cosmo_cavitation_energy": 19.78, 
			 "cosmo_dispersion_energy": -15.71, 
			 "cosmo_repulsion_energy": 1.26, 
			 "cosmo_total_nonelectrostatic_energy": 5.33, 
			 "SMD_solvation_energy": 1.17 
		},
		"coords": [
			{
				"x": 1.8790357635,
				"y": 3.489763891,
				"z": -2.0148791249,
				"element": "O" 
			},
			{
				"x": 1.5139276038,
				"y": 2.501354459,
				"z": -1.1818291839,
				"element": "C" 
			},
			{
				"x": 1.8727349691,
				"y": 1.1882060337,
				"z": -1.4848802173,
				"element": "C" 
			},
			{
				"x": 1.4487211688,
				"y": 0.2293436639,
				"z": -0.560079357,
				"element": "C" 
			},
			{
				"x": 1.7126208281,
				"y": -1.0839141438,
				"z": -0.7046178885,
				"element": "O" 
			},
			{
				"x": 0.7511480417,
				"y": 0.5333112106,
				"z": 0.5368109917,
				"element": "N" 
			},
			{
				"x": 0.4755563178,
				"y": 1.823717688,
				"z": 0.7060293982,
				"element": "C" 
			},
			{
				"x": -0.4539521417,
				"y": 2.1879104107,
				"z": 2.1765732026,
				"element": "S" 
			},
			{
				"x": 0.8166890232,
				"y": 2.8419002396,
				"z": -0.0938451882,
				"element": "N" 
			},
			{
				"x": 1.5370114743,
				"y": 4.3125561902,
				"z": -1.6291590345,
				"element": "H" 
			},
			{
				"x": 2.4390604607,
				"y": 0.9525994781,
				"z": -2.3778474236,
				"element": "H" 
			},
			{
				"x": 2.2176472669,
				"y": -1.2218283977,
				"z": -1.5174384092,
				"element": "H" 
			},
			{
				"x": -0.5031007763,
				"y": 3.5158792767,
				"z": 1.9581622345,
				"element": "H" 
			}
		],
		 "valence_orbital": [ 
			{
				"type": "occ",
				"energy": -0.31371,
				"method": "rhf"
			},
			{
				"type": "occ",
				"energy": -0.28503,
				"method": "rhf"
			},
			{
				"type": "occ",
				"energy": -0.28205,
				"method": "rhf"
			},
			{
				"type": "occ",
				"energy": -0.27459,
				"method": "rhf"
			},
			{
				"type": "occ",
				"energy": -0.24038,
				"method": "rhf"
			},
			{
				"type": "unocc",
				"energy": -0.02355,
				"method": "rhf"
			},
			{
				"type": "unocc",
				"energy": -0.01458,
				"method": "rhf"
			},
			{
				"type": "unocc",
				"energy": 0.02112,
				"method": "rhf"
			},
			{
				"type": "unocc",
				"energy": 0.05487,
				"method": "rhf"
			},
			{
				"type": "unocc",
				"energy": 0.0748,
				"method": "rhf"
			}
		],
		"cosmo_sigma_profile": { 
			"-0.025": 0.0,
			"-0.024": 0.0,
			"-0.023": 0.0,
			"-0.022": 0.0,
			"-0.021": 0.0,
			"-0.02": 0.21467575385,
			"-0.019": 1.17741994492,
			"-0.018": 1.85238139933,
			"-0.017": 1.60733683578,
			"-0.016": 1.83572883499,
			"-0.015": 1.83883627156,
			"-0.014": 1.13603318575,
			"-0.013": 2.03490230514,
			"-0.012": 1.68785394472,
			"-0.011": 3.13459586745,
			"-0.01": 2.7143200746,
			"-0.009": 3.28805958727,
			"-0.008": 3.84287715452,
			"-0.007": 4.09431548006,
			"-0.006": 3.5392698752,
			"-0.005": 3.33210709742,
			"-0.004": 3.68769138453,
			"-0.003": 4.61850798485,
			"-0.002": 6.75320028824,
			"-0.001": 11.8550923595,
			"0.0": 10.9884757499,
			"0.001": 11.5190564361,
			"0.002": 10.9042807864,
			"0.003": 9.74442234141,
			"0.004": 8.52414909958,
			"0.005": 9.52437633906,
			"0.006": 7.5569343127,
			"0.007": 7.54536098526,
			"0.008": 4.44995322459,
			"0.009": 5.28511103695,
			"0.01": 4.07572847776,
			"0.011": 2.90438491133,
			"0.012": 1.60999795937,
			"0.013": 1.1379191916,
			"0.014": 0.813037334157,
			"0.015": 0.0837351361578,
			"0.016": 0.0,
			"0.017": 0.0,
			"0.018": 0.0,
			"0.019": 0.0,
			"0.02": 0.0,
			"0.021": 0.0,
			"0.022": 0.0,
			"0.023": 0.0,
			"0.024": 0.0,
			"0.025": 0.0
		}
	}
}
