{
	 "smiles": "FC(F)(F)C1=CC=C(C=C1)C(Cl)=O", 
	 "Tm": 270.15, 
	 "num_atms": 17, 
	 "gaussian": { 
		 "optdone": 1, 
		 "sigma_profile": "yes", 
		 "theory": "DFT", 
		 "functional": "B3LYP", 
		 "basiset": "6-31G**", 
		 "properties": { 
			 "R2extent": 4224.8782, 
			 "electric_dipole_moment_norm": 1.52273985631, 
			 "electric_quadrupole_moment_norm": 13.8790406045, 
			 "total_energy": -1142.21237989, 
			 "HOMO_LUMO_gap": 0.1967, 
			 "cosmo_polarized_energy": -5.76, 
			 "cosmo_cavitation_energy": 25.42, 
			 "cosmo_dispersion_energy": -18.27, 
			 "cosmo_repulsion_energy": 1.38, 
			 "cosmo_total_nonelectrostatic_energy": 8.52, 
			 "SMD_solvation_energy": 6.16 
		},
		"coords": [
			{
				"x": 1.0560770087,
				"y": -0.075760062,
				"z": 3.1876921308,
				"element": "F" 
			},
			{
				"x": 1.4707014434,
				"y": 0.1191390199,
				"z": 1.9165348468,
				"element": "C" 
			},
			{
				"x": 1.383116999,
				"y": 1.442071376,
				"z": 1.6665169818,
				"element": "F" 
			},
			{
				"x": 2.7750644965,
				"y": -0.2236653843,
				"z": 1.8669140128,
				"element": "F" 
			},
			{
				"x": 0.6461947751,
				"y": -0.6897102974,
				"z": 0.9458642539,
				"element": "C" 
			},
			{
				"x": -0.4961683147,
				"y": -0.1311977077,
				"z": 0.367750119,
				"element": "C" 
			},
			{
				"x": -1.2869624555,
				"y": -0.8937493224,
				"z": -0.4876081205,
				"element": "C" 
			},
			{
				"x": -0.93524211,
				"y": -2.2207708183,
				"z": -0.7661531102,
				"element": "C" 
			},
			{
				"x": 0.2166912458,
				"y": -2.7765486611,
				"z": -0.1829424751,
				"element": "C" 
			},
			{
				"x": 1.0040760345,
				"y": -2.0134711525,
				"z": 0.6700615512,
				"element": "C" 
			},
			{
				"x": -1.7117208212,
				"y": -3.1146794316,
				"z": -1.6648946685,
				"element": "C" 
			},
			{
				"x": -3.2036061675,
				"y": -2.3710690689,
				"z": -2.4078918557,
				"element": "Cl" 
			},
			{
				"x": -1.4383715974,
				"y": -4.2471689767,
				"z": -1.9261989464,
				"element": "O" 
			},
			{
				"x": -0.7604270408,
				"y": 0.898490944,
				"z": 0.5802144217,
				"element": "H" 
			},
			{
				"x": -2.1712468793,
				"y": -0.461502457,
				"z": -0.9390526999,
				"element": "H" 
			},
			{
				"x": 0.4785796031,
				"y": -3.8033511936,
				"z": -0.4115428644,
				"element": "H" 
			},
			{
				"x": 1.8977437801,
				"y": -2.4365568063,
				"z": 1.1152364226,
				"element": "H" 
			}
		],
		 "valence_orbital": [ 
			{
				"type": "occ",
				"energy": -0.3304,
				"method": "rhf"
			},
			{
				"type": "occ",
				"energy": -0.32976,
				"method": "rhf"
			},
			{
				"type": "occ",
				"energy": -0.30432,
				"method": "rhf"
			},
			{
				"type": "occ",
				"energy": -0.29619,
				"method": "rhf"
			},
			{
				"type": "occ",
				"energy": -0.29154,
				"method": "rhf"
			},
			{
				"type": "unocc",
				"energy": -0.09484,
				"method": "rhf"
			},
			{
				"type": "unocc",
				"energy": -0.04009,
				"method": "rhf"
			},
			{
				"type": "unocc",
				"energy": 0.00336,
				"method": "rhf"
			},
			{
				"type": "unocc",
				"energy": 0.0103,
				"method": "rhf"
			},
			{
				"type": "unocc",
				"energy": 0.08659,
				"method": "rhf"
			}
		],
		"cosmo_sigma_profile": { 
			"-0.025": 0.0,
			"-0.024": 0.0,
			"-0.023": 0.0,
			"-0.022": 0.0,
			"-0.021": 0.0,
			"-0.02": 0.0,
			"-0.019": 0.0,
			"-0.018": 0.0,
			"-0.017": 0.0,
			"-0.016": 0.0,
			"-0.015": 0.0,
			"-0.014": 0.0,
			"-0.013": 0.0,
			"-0.012": 0.0,
			"-0.011": 0.0,
			"-0.01": 0.0,
			"-0.009": 0.238478255438,
			"-0.008": 4.41580075124,
			"-0.007": 7.92806521422,
			"-0.006": 7.1178358819,
			"-0.005": 8.01890028024,
			"-0.004": 9.92875173173,
			"-0.003": 11.0174164339,
			"-0.002": 15.9956655296,
			"-0.001": 17.8785685575,
			"0.0": 25.5972899799,
			"0.001": 22.0873400031,
			"0.002": 29.1390690399,
			"0.003": 23.141064008,
			"0.004": 8.82799265687,
			"0.005": 4.87826391548,
			"0.006": 2.38701269175,
			"0.007": 2.47322648754,
			"0.008": 4.41435431818,
			"0.009": 2.02798854082,
			"0.01": 0.144969060633,
			"0.011": 0.0,
			"0.012": 0.0,
			"0.013": 0.0,
			"0.014": 0.0,
			"0.015": 0.0,
			"0.016": 0.0,
			"0.017": 0.0,
			"0.018": 0.0,
			"0.019": 0.0,
			"0.02": 0.0,
			"0.021": 0.0,
			"0.022": 0.0,
			"0.023": 0.0,
			"0.024": 0.0,
			"0.025": 0.0
		}
	}
}
