{
	 "smiles": "NC1=CC=CC(CO)=C1", 
	 "Tm": 367.15, 
	 "num_atms": 18, 
	 "gaussian": { 
		 "optdone": 1, 
		 "sigma_profile": "yes", 
		 "theory": "DFT", 
		 "functional": "B3LYP", 
		 "basiset": "6-31G**", 
		 "properties": { 
			 "R2extent": 1728.1981, 
			 "electric_dipole_moment_norm": 2.43079234819, 
			 "electric_quadrupole_moment_norm": 8.60696363476, 
			 "total_energy": -402.137402349, 
			 "HOMO_LUMO_gap": 0.20298, 
			 "cosmo_polarized_energy": -11.28, 
			 "cosmo_cavitation_energy": 21.4, 
			 "cosmo_dispersion_energy": -16.02, 
			 "cosmo_repulsion_energy": 1.33, 
			 "cosmo_total_nonelectrostatic_energy": 6.72, 
			 "SMD_solvation_energy": 3.67 
		},
		"coords": [
			{
				"x": -1.4859379873,
				"y": -2.3492851958,
				"z": 0.0898253862,
				"element": "N" 
			},
			{
				"x": -0.2527384578,
				"y": -1.7790101763,
				"z": 0.412584395,
				"element": "C" 
			},
			{
				"x": 0.3054216185,
				"y": -1.9543574134,
				"z": 1.6911292949,
				"element": "C" 
			},
			{
				"x": 1.5612054594,
				"y": -1.4285109737,
				"z": 1.983570996,
				"element": "C" 
			},
			{
				"x": 2.2827861788,
				"y": -0.7200356296,
				"z": 1.0215372764,
				"element": "C" 
			},
			{
				"x": 1.7405199531,
				"y": -0.5450473061,
				"z": -0.2572027981,
				"element": "C" 
			},
			{
				"x": 2.5213561239,
				"y": 0.1892859204,
				"z": -1.3312486601,
				"element": "C" 
			},
			{
				"x": 1.704199719,
				"y": 0.8784110114,
				"z": -2.2690358011,
				"element": "O" 
			},
			{
				"x": 0.480296984,
				"y": -1.0692871068,
				"z": -0.5526722689,
				"element": "C" 
			},
			{
				"x": -2.1033291163,
				"y": -2.5142860352,
				"z": 0.8726878545,
				"element": "H" 
			},
			{
				"x": -1.9674016661,
				"y": -1.9206097642,
				"z": -0.688446122,
				"element": "H" 
			},
			{
				"x": -0.248548781,
				"y": -2.5035893574,
				"z": 2.4486215851,
				"element": "H" 
			},
			{
				"x": 1.9755864327,
				"y": -1.5645528969,
				"z": 2.9789700749,
				"element": "H" 
			},
			{
				"x": 3.2568120118,
				"y": -0.3027035132,
				"z": 1.262727245,
				"element": "H" 
			},
			{
				"x": 3.2493306874,
				"y": 0.8664453839,
				"z": -0.8569846078,
				"element": "H" 
			},
			{
				"x": 3.0990750321,
				"y": -0.5255646508,
				"z": -1.9297979231,
				"element": "H" 
			},
			{
				"x": 1.1404659788,
				"y": 1.4817163014,
				"z": -1.7664053049,
				"element": "H" 
			},
			{
				"x": 0.0695998291,
				"y": -0.9213185978,
				"z": -1.548060622,
				"element": "H" 
			}
		],
		 "valence_orbital": [ 
			{
				"type": "occ",
				"energy": -0.31918,
				"method": "rhf"
			},
			{
				"type": "occ",
				"energy": -0.30236,
				"method": "rhf"
			},
			{
				"type": "occ",
				"energy": -0.27164,
				"method": "rhf"
			},
			{
				"type": "occ",
				"energy": -0.23693,
				"method": "rhf"
			},
			{
				"type": "occ",
				"energy": -0.19984,
				"method": "rhf"
			},
			{
				"type": "unocc",
				"energy": 0.00314,
				"method": "rhf"
			},
			{
				"type": "unocc",
				"energy": 0.0186,
				"method": "rhf"
			},
			{
				"type": "unocc",
				"energy": 0.08258,
				"method": "rhf"
			},
			{
				"type": "unocc",
				"energy": 0.09178,
				"method": "rhf"
			},
			{
				"type": "unocc",
				"energy": 0.11047,
				"method": "rhf"
			}
		],
		"cosmo_sigma_profile": { 
			"-0.025": 0.0,
			"-0.024": 0.0,
			"-0.023": 0.0,
			"-0.022": 0.0,
			"-0.021": 0.0,
			"-0.02": 0.0,
			"-0.019": 0.0,
			"-0.018": 0.0,
			"-0.017": 0.0,
			"-0.016": 0.0055949249381,
			"-0.015": 0.872005846487,
			"-0.014": 0.61503084171,
			"-0.013": 1.38910186371,
			"-0.012": 3.02896741432,
			"-0.011": 3.08950546383,
			"-0.01": 2.85701276867,
			"-0.009": 3.64453508507,
			"-0.008": 4.07735458734,
			"-0.007": 3.81858011618,
			"-0.006": 4.44810372155,
			"-0.005": 9.2843288819,
			"-0.004": 14.4382698016,
			"-0.003": 12.1763998936,
			"-0.002": 11.7928895718,
			"-0.001": 10.5653630721,
			"0.0": 7.91182848818,
			"0.001": 6.84779925548,
			"0.002": 7.54401669037,
			"0.003": 7.52978329685,
			"0.004": 8.28148128409,
			"0.005": 7.91665056276,
			"0.006": 9.75809838597,
			"0.007": 9.87501694595,
			"0.008": 3.93267077199,
			"0.009": 0.98540212199,
			"0.01": 2.2927350409,
			"0.011": 1.6429333897,
			"0.012": 2.17252974173,
			"0.013": 2.35620171284,
			"0.014": 2.65382974744,
			"0.015": 0.643887607999,
			"0.016": 0.0,
			"0.017": 0.0,
			"0.018": 0.0,
			"0.019": 0.0,
			"0.02": 0.0,
			"0.021": 0.0,
			"0.022": 0.0,
			"0.023": 0.0,
			"0.024": 0.0,
			"0.025": 0.0
		}
	}
}
