{
	 "smiles": "CN1C(S)=NN=C1C1=CC(N)=CN=C1", 
	 "Tm": 480.15, 
	 "num_atms": 23, 
	 "gaussian": { 
		 "optdone": 1, 
		 "sigma_profile": "yes", 
		 "theory": "DFT", 
		 "functional": "B3LYP", 
		 "basiset": "6-31G**", 
		 "properties": { 
			 "R2extent": 3880.2673, 
			 "electric_dipole_moment_norm": 2.25531911268, 
			 "electric_quadrupole_moment_norm": 22.748096405, 
			 "total_energy": -982.191332823, 
			 "HOMO_LUMO_gap": 0.17833, 
			 "cosmo_polarized_energy": -21.15, 
			 "cosmo_cavitation_energy": 29.07, 
			 "cosmo_dispersion_energy": -21.97, 
			 "cosmo_repulsion_energy": 1.67, 
			 "cosmo_total_nonelectrostatic_energy": 8.77, 
			 "SMD_solvation_energy": 1.04 
		},
		"coords": [
			{
				"x": 1.6451850234,
				"y": -1.3958795095,
				"z": -1.5109988082,
				"element": "C" 
			},
			{
				"x": 0.8290160505,
				"y": -0.1882765611,
				"z": -1.4893332319,
				"element": "N" 
			},
			{
				"x": 0.9044000869,
				"y": 0.8599955463,
				"z": -2.3701190722,
				"element": "C" 
			},
			{
				"x": 1.9412455527,
				"y": 0.8285433454,
				"z": -3.8012378982,
				"element": "S" 
			},
			{
				"x": 0.1239496649,
				"y": 1.8516144612,
				"z": -2.0053634254,
				"element": "N" 
			},
			{
				"x": -0.495711078,
				"y": 1.4605075687,
				"z": -0.8411802352,
				"element": "N" 
			},
			{
				"x": -0.081326433,
				"y": 0.2463073407,
				"z": -0.5386812414,
				"element": "C" 
			},
			{
				"x": -0.5282895198,
				"y": -0.4992237853,
				"z": 0.6435332572,
				"element": "C" 
			},
			{
				"x": -0.8615662434,
				"y": 0.2191615971,
				"z": 1.79792362,
				"element": "C" 
			},
			{
				"x": -1.3306675712,
				"y": -0.4640469234,
				"z": 2.924586018,
				"element": "C" 
			},
			{
				"x": -1.6267288209,
				"y": 0.1956108208,
				"z": 4.1103581593,
				"element": "N" 
			},
			{
				"x": -1.4298132131,
				"y": -1.8681502922,
				"z": 2.8306639918,
				"element": "C" 
			},
			{
				"x": -1.1292922524,
				"y": -2.559994889,
				"z": 1.7344071785,
				"element": "N" 
			},
			{
				"x": -0.6948340195,
				"y": -1.8936134143,
				"z": 0.6598201257,
				"element": "C" 
			},
			{
				"x": 1.7467184118,
				"y": -1.7794722934,
				"z": -0.4959559898,
				"element": "H" 
			},
			{
				"x": 1.1975888911,
				"y": -2.1689097575,
				"z": -2.1432635018,
				"element": "H" 
			},
			{
				"x": 2.6382036495,
				"y": -1.1516871618,
				"z": -1.8959990706,
				"element": "H" 
			},
			{
				"x": 1.6898049272,
				"y": 2.1191231925,
				"z": -4.0900546323,
				"element": "H" 
			},
			{
				"x": -0.7563151836,
				"y": 1.299649095,
				"z": 1.7988932496,
				"element": "H" 
			},
			{
				"x": -1.85940093,
				"y": 1.1749097213,
				"z": 4.0225833777,
				"element": "H" 
			},
			{
				"x": -2.2445921126,
				"y": -0.2940818131,
				"z": 4.7422512154,
				"element": "H" 
			},
			{
				"x": -1.7754044644,
				"y": -2.4423700941,
				"z": 3.6907799333,
				"element": "H" 
			},
			{
				"x": -0.5061704162,
				"y": -2.4917161946,
				"z": -0.2276130196,
				"element": "H" 
			}
		],
		 "valence_orbital": [ 
			{
				"type": "occ",
				"energy": -0.28173,
				"method": "rhf"
			},
			{
				"type": "occ",
				"energy": -0.26026,
				"method": "rhf"
			},
			{
				"type": "occ",
				"energy": -0.25339,
				"method": "rhf"
			},
			{
				"type": "occ",
				"energy": -0.22897,
				"method": "rhf"
			},
			{
				"type": "occ",
				"energy": -0.21691,
				"method": "rhf"
			},
			{
				"type": "unocc",
				"energy": -0.03858,
				"method": "rhf"
			},
			{
				"type": "unocc",
				"energy": -0.0117,
				"method": "rhf"
			},
			{
				"type": "unocc",
				"energy": 0.00379,
				"method": "rhf"
			},
			{
				"type": "unocc",
				"energy": 0.02865,
				"method": "rhf"
			},
			{
				"type": "unocc",
				"energy": 0.05385,
				"method": "rhf"
			}
		],
		"cosmo_sigma_profile": { 
			"-0.025": 0.0,
			"-0.024": 0.0,
			"-0.023": 0.0,
			"-0.022": 0.0,
			"-0.021": 0.0,
			"-0.02": 0.0,
			"-0.019": 0.0,
			"-0.018": 0.0,
			"-0.017": 0.0,
			"-0.016": 0.0,
			"-0.015": 0.0,
			"-0.014": 0.174637316288,
			"-0.013": 2.28135035721,
			"-0.012": 4.58552824473,
			"-0.011": 5.10840726448,
			"-0.01": 3.75668952206,
			"-0.009": 4.86808219327,
			"-0.008": 5.38150686766,
			"-0.007": 13.4936809562,
			"-0.006": 14.9166158386,
			"-0.005": 16.5883741206,
			"-0.004": 14.8556066331,
			"-0.003": 9.43699300274,
			"-0.002": 10.3890063594,
			"-0.001": 10.0241437112,
			"0.0": 11.2042232222,
			"0.001": 14.6008838221,
			"0.002": 18.69844508,
			"0.003": 12.456347036,
			"0.004": 7.61508647094,
			"0.005": 7.6057001217,
			"0.006": 6.75563151741,
			"0.007": 5.23109560883,
			"0.008": 4.63711022842,
			"0.009": 3.94147714652,
			"0.01": 3.18945559113,
			"0.011": 4.1648645937,
			"0.012": 4.1400219404,
			"0.013": 4.93086321412,
			"0.014": 4.0662821525,
			"0.015": 2.7688628285,
			"0.016": 2.78646163395,
			"0.017": 0.284659489031,
			"0.018": 0.0,
			"0.019": 0.0,
			"0.02": 0.0,
			"0.021": 0.0,
			"0.022": 0.0,
			"0.023": 0.0,
			"0.024": 0.0,
			"0.025": 0.0
		}
	}
}
