{
	 "smiles": "ClCC(=O)NCC1=C(CN2CCCC2=O)C=CC=C1", 
	 "Tm": 399.15, 
	 "num_atms": 36, 
	 "gaussian": { 
		 "optdone": 1, 
		 "sigma_profile": "yes", 
		 "theory": "DFT", 
		 "functional": "B3LYP", 
		 "basiset": "6-31G**", 
		 "properties": { 
			 "R2extent": 7515.5257, 
			 "electric_dipole_moment_norm": 5.48999382969, 
			 "electric_quadrupole_moment_norm": 10.5192871094, 
			 "total_energy": -1263.92556173, 
			 "HOMO_LUMO_gap": 0.22641, 
			 "cosmo_polarized_energy": -16.6, 
			 "cosmo_cavitation_energy": 39.52, 
			 "cosmo_dispersion_energy": -27.27, 
			 "cosmo_repulsion_energy": 2.13, 
			 "cosmo_total_nonelectrostatic_energy": 14.37, 
			 "SMD_solvation_energy": 6.27 
		},
		"coords": [
			{
				"x": 0.0055698305,
				"y": -1.0721946946,
				"z": -5.2366732002,
				"element": "Cl" 
			},
			{
				"x": -1.7942092109,
				"y": -0.9074641691,
				"z": -5.0842002984,
				"element": "C" 
			},
			{
				"x": -2.3560595527,
				"y": -0.6798059354,
				"z": -3.6789445479,
				"element": "C" 
			},
			{
				"x": -3.5634970144,
				"y": -0.4745931437,
				"z": -3.5916874439,
				"element": "O" 
			},
			{
				"x": -1.5133437248,
				"y": -0.7311331875,
				"z": -2.6249110034,
				"element": "N" 
			},
			{
				"x": -2.0262707015,
				"y": -0.5602161866,
				"z": -1.268716475,
				"element": "C" 
			},
			{
				"x": -2.2430795289,
				"y": 0.8865936068,
				"z": -0.8417242617,
				"element": "C" 
			},
			{
				"x": -1.1832461481,
				"y": 1.8088501786,
				"z": -0.6922955916,
				"element": "C" 
			},
			{
				"x": 0.2603817094,
				"y": 1.4516329399,
				"z": -1.0083164243,
				"element": "C" 
			},
			{
				"x": 0.8839155923,
				"y": 0.5286518639,
				"z": -0.0649784719,
				"element": "N" 
			},
			{
				"x": 1.2965356532,
				"y": 0.9467815141,
				"z": 1.2717472273,
				"element": "C" 
			},
			{
				"x": 1.7606400986,
				"y": -0.3713283855,
				"z": 1.9278039952,
				"element": "C" 
			},
			{
				"x": 2.1793001195,
				"y": -1.2481903192,
				"z": 0.7359595487,
				"element": "C" 
			},
			{
				"x": 1.3728365769,
				"y": -0.6941160994,
				"z": -0.4361809393,
				"element": "C" 
			},
			{
				"x": 1.1953268279,
				"y": -1.2355731152,
				"z": -1.5243456172,
				"element": "O" 
			},
			{
				"x": -1.4703218965,
				"y": 3.1118477214,
				"z": -0.2692353999,
				"element": "C" 
			},
			{
				"x": -2.7766777826,
				"y": 3.5190738954,
				"z": 0.0063871146,
				"element": "C" 
			},
			{
				"x": -3.8220481072,
				"y": 2.6127423849,
				"z": -0.1512141227,
				"element": "C" 
			},
			{
				"x": -3.5488081445,
				"y": 1.311432818,
				"z": -0.5760007887,
				"element": "C" 
			},
			{
				"x": -2.2363808132,
				"y": -1.8190119307,
				"z": -5.4883564509,
				"element": "H" 
			},
			{
				"x": -2.0973896697,
				"y": -0.0662146245,
				"z": -5.7072316552,
				"element": "H" 
			},
			{
				"x": -0.5317866956,
				"y": -0.9726760267,
				"z": -2.7289730484,
				"element": "H" 
			},
			{
				"x": -1.3186642996,
				"y": -1.0554085853,
				"z": -0.600824128,
				"element": "H" 
			},
			{
				"x": -2.9813455602,
				"y": -1.087565749,
				"z": -1.1986027635,
				"element": "H" 
			},
			{
				"x": 0.855614719,
				"y": 2.3739028859,
				"z": -1.0311451765,
				"element": "H" 
			},
			{
				"x": 0.3431731212,
				"y": 0.9862128206,
				"z": -1.9925713153,
				"element": "H" 
			},
			{
				"x": 2.1112582897,
				"y": 1.6846678993,
				"z": 1.2076429107,
				"element": "H" 
			},
			{
				"x": 0.4633298788,
				"y": 1.4169720439,
				"z": 1.8034740332,
				"element": "H" 
			},
			{
				"x": 0.9207920645,
				"y": -0.8335807678,
				"z": 2.4557562684,
				"element": "H" 
			},
			{
				"x": 2.5607265738,
				"y": -0.2090152257,
				"z": 2.6533775841,
				"element": "H" 
			},
			{
				"x": 3.2430319885,
				"y": -1.1364943345,
				"z": 0.4916941727,
				"element": "H" 
			},
			{
				"x": 1.9861190633,
				"y": -2.3150126978,
				"z": 0.8657382345,
				"element": "H" 
			},
			{
				"x": -0.6535366598,
				"y": 3.8223832859,
				"z": -0.1621124239,
				"element": "H" 
			},
			{
				"x": -2.9719870033,
				"y": 4.5364832594,
				"z": 0.3327431499,
				"element": "H" 
			},
			{
				"x": -4.8467125949,
				"y": 2.9149148907,
				"z": 0.0449595165,
				"element": "H" 
			},
			{
				"x": -4.3647869989,
				"y": 0.6101511693,
				"z": -0.7244422082,
				"element": "H" 
			}
		],
		 "valence_orbital": [ 
			{
				"type": "occ",
				"energy": -0.25636,
				"method": "rhf"
			},
			{
				"type": "occ",
				"energy": -0.25278,
				"method": "rhf"
			},
			{
				"type": "occ",
				"energy": -0.25011,
				"method": "rhf"
			},
			{
				"type": "occ",
				"energy": -0.24359,
				"method": "rhf"
			},
			{
				"type": "occ",
				"energy": -0.23898,
				"method": "rhf"
			},
			{
				"type": "unocc",
				"energy": -0.01257,
				"method": "rhf"
			},
			{
				"type": "unocc",
				"energy": -0.003,
				"method": "rhf"
			},
			{
				"type": "unocc",
				"energy": 0.01751,
				"method": "rhf"
			},
			{
				"type": "unocc",
				"energy": 0.02742,
				"method": "rhf"
			},
			{
				"type": "unocc",
				"energy": 0.03492,
				"method": "rhf"
			}
		],
		"cosmo_sigma_profile": { 
			"-0.025": 0.0,
			"-0.024": 0.0,
			"-0.023": 0.0,
			"-0.022": 0.0,
			"-0.021": 0.0,
			"-0.02": 0.0,
			"-0.019": 0.0,
			"-0.018": 0.0,
			"-0.017": 0.0,
			"-0.016": 0.0,
			"-0.015": 0.0,
			"-0.014": 0.0,
			"-0.013": 0.0,
			"-0.012": 0.0,
			"-0.011": 0.0,
			"-0.01": 0.0,
			"-0.009": 2.12215338603,
			"-0.008": 4.061597364,
			"-0.007": 3.7823783511,
			"-0.006": 11.9294829868,
			"-0.005": 25.6693839533,
			"-0.004": 39.6281024485,
			"-0.003": 36.7721962085,
			"-0.002": 30.9135284546,
			"-0.001": 24.2561982878,
			"0.0": 18.1907613198,
			"0.001": 15.19408866,
			"0.002": 12.7335345702,
			"0.003": 13.1688016957,
			"0.004": 14.987789165,
			"0.005": 18.8726139902,
			"0.006": 12.5630688109,
			"0.007": 3.44469007235,
			"0.008": 3.2178829937,
			"0.009": 3.56045327307,
			"0.01": 2.72062992439,
			"0.011": 3.29689630538,
			"0.012": 3.60279255162,
			"0.013": 5.07360398572,
			"0.014": 4.16075560108,
			"0.015": 0.7063550064,
			"0.016": 0.0,
			"0.017": 0.0,
			"0.018": 0.0,
			"0.019": 0.0,
			"0.02": 0.0,
			"0.021": 0.0,
			"0.022": 0.0,
			"0.023": 0.0,
			"0.024": 0.0,
			"0.025": 0.0
		}
	}
}
