{
	 "smiles": "CC(C)N1C(Cl)=NN=C1C1=CC=CC=C1", 
	 "Tm": 403.15, 
	 "num_atms": 27, 
	 "gaussian": { 
		 "optdone": 1, 
		 "sigma_profile": "yes", 
		 "theory": "DFT", 
		 "functional": "B3LYP", 
		 "basiset": "6-31G**", 
		 "properties": { 
			 "R2extent": 3750.3221, 
			 "electric_dipole_moment_norm": 6.12833576838, 
			 "electric_quadrupole_moment_norm": 13.7718090057, 
			 "total_energy": -1050.82990014, 
			 "HOMO_LUMO_gap": 0.20926, 
			 "cosmo_polarized_energy": -14.64, 
			 "cosmo_cavitation_energy": 31.67, 
			 "cosmo_dispersion_energy": -22.29, 
			 "cosmo_repulsion_energy": 1.74, 
			 "cosmo_total_nonelectrostatic_energy": 11.13, 
			 "SMD_solvation_energy": 3.28 
		},
		"coords": [
			{
				"x": 0.3867737909,
				"y": -1.6850418359,
				"z": 1.3877692615,
				"element": "C" 
			},
			{
				"x": 1.239254412,
				"y": -1.3026021173,
				"z": 0.1738986955,
				"element": "C" 
			},
			{
				"x": 1.1557899833,
				"y": -2.3195843031,
				"z": -0.970346088,
				"element": "C" 
			},
			{
				"x": 0.9673285126,
				"y": 0.0820006651,
				"z": -0.2902916875,
				"element": "N" 
			},
			{
				"x": 1.9314401348,
				"y": 1.0279835987,
				"z": -0.5543329515,
				"element": "C" 
			},
			{
				"x": 3.6214632853,
				"y": 0.6732980194,
				"z": -0.5599253582,
				"element": "Cl" 
			},
			{
				"x": 1.4313608627,
				"y": 2.2049537162,
				"z": -0.8042413983,
				"element": "N" 
			},
			{
				"x": 0.064914503,
				"y": 2.0667071017,
				"z": -0.7083319864,
				"element": "N" 
			},
			{
				"x": -0.2081726831,
				"y": 0.8107343964,
				"z": -0.412077183,
				"element": "C" 
			},
			{
				"x": -1.5951691579,
				"y": 0.3301759019,
				"z": -0.2416722479,
				"element": "C" 
			},
			{
				"x": -2.1296243938,
				"y": -0.7157147805,
				"z": -1.0094533458,
				"element": "C" 
			},
			{
				"x": -3.4612473301,
				"y": -1.0990538036,
				"z": -0.8505645239,
				"element": "C" 
			},
			{
				"x": -4.2784964593,
				"y": -0.4333619152,
				"z": 0.065218067,
				"element": "C" 
			},
			{
				"x": -3.7614441348,
				"y": 0.6262155052,
				"z": 0.8133421315,
				"element": "C" 
			},
			{
				"x": -2.4296433905,
				"y": 1.0087201428,
				"z": 0.6599181111,
				"element": "C" 
			},
			{
				"x": 0.4679617665,
				"y": -0.9326138017,
				"z": 2.1771146323,
				"element": "H" 
			},
			{
				"x": 0.7517872854,
				"y": -2.6366116431,
				"z": 1.7859862969,
				"element": "H" 
			},
			{
				"x": -0.6668662568,
				"y": -1.8074950808,
				"z": 1.1314834151,
				"element": "H" 
			},
			{
				"x": 2.2803561101,
				"y": -1.2651976391,
				"z": 0.5035132907,
				"element": "H" 
			},
			{
				"x": 1.7613520767,
				"y": -2.0006839167,
				"z": -1.8230567314,
				"element": "H" 
			},
			{
				"x": 0.1270509494,
				"y": -2.4670729718,
				"z": -1.3066345176,
				"element": "H" 
			},
			{
				"x": 1.536211263,
				"y": -3.2860153835,
				"z": -0.625091054,
				"element": "H" 
			},
			{
				"x": -1.5136099235,
				"y": -1.2063783411,
				"z": -1.7554104507,
				"element": "H" 
			},
			{
				"x": -3.8638352017,
				"y": -1.9076049756,
				"z": -1.4536733117,
				"element": "H" 
			},
			{
				"x": -5.3156136736,
				"y": -0.7319828567,
				"z": 0.186760524,
				"element": "H" 
			},
			{
				"x": -4.3957391543,
				"y": 1.1570436615,
				"z": 1.51714189,
				"element": "H" 
			},
			{
				"x": -2.0230831764,
				"y": 1.8371826569,
				"z": 1.2302565203,
				"element": "H" 
			}
		],
		 "valence_orbital": [ 
			{
				"type": "occ",
				"energy": -0.29311,
				"method": "rhf"
			},
			{
				"type": "occ",
				"energy": -0.2757,
				"method": "rhf"
			},
			{
				"type": "occ",
				"energy": -0.26375,
				"method": "rhf"
			},
			{
				"type": "occ",
				"energy": -0.25515,
				"method": "rhf"
			},
			{
				"type": "occ",
				"energy": -0.23988,
				"method": "rhf"
			},
			{
				"type": "unocc",
				"energy": -0.03062,
				"method": "rhf"
			},
			{
				"type": "unocc",
				"energy": -0.01488,
				"method": "rhf"
			},
			{
				"type": "unocc",
				"energy": 0.01973,
				"method": "rhf"
			},
			{
				"type": "unocc",
				"energy": 0.0277,
				"method": "rhf"
			},
			{
				"type": "unocc",
				"energy": 0.04503,
				"method": "rhf"
			}
		],
		"cosmo_sigma_profile": { 
			"-0.025": 0.0,
			"-0.024": 0.0,
			"-0.023": 0.0,
			"-0.022": 0.0,
			"-0.021": 0.0,
			"-0.02": 0.0,
			"-0.019": 0.0,
			"-0.018": 0.0,
			"-0.017": 0.0,
			"-0.016": 0.0,
			"-0.015": 0.0,
			"-0.014": 0.0,
			"-0.013": 0.0,
			"-0.012": 0.0,
			"-0.011": 0.0,
			"-0.01": 0.0,
			"-0.009": 0.0,
			"-0.008": 0.0,
			"-0.007": 2.34119161241,
			"-0.006": 13.8383976008,
			"-0.005": 23.4999114563,
			"-0.004": 26.7343917996,
			"-0.003": 25.1802141045,
			"-0.002": 25.468873658,
			"-0.001": 23.7664059964,
			"0.0": 23.2524657292,
			"0.001": 13.179760306,
			"0.002": 16.1972000912,
			"0.003": 15.189413956,
			"0.004": 13.5338640915,
			"0.005": 5.18618968724,
			"0.006": 2.60085039131,
			"0.007": 1.92364253247,
			"0.008": 2.82837725,
			"0.009": 1.97813955462,
			"0.01": 2.59587650365,
			"0.011": 2.25847374385,
			"0.012": 3.4714941974,
			"0.013": 3.23943971735,
			"0.014": 2.72094846543,
			"0.015": 2.48741874993,
			"0.016": 1.25425489024,
			"0.017": 0.160480290563,
			"0.018": 0.0,
			"0.019": 0.0,
			"0.02": 0.0,
			"0.021": 0.0,
			"0.022": 0.0,
			"0.023": 0.0,
			"0.024": 0.0,
			"0.025": 0.0
		}
	}
}
