{
	 "smiles": "COC1=CC2=NON=C2C=C1", 
	 "Tm": 373.15, 
	 "num_atms": 17, 
	 "gaussian": { 
		 "optdone": 1, 
		 "sigma_profile": "yes", 
		 "theory": "DFT", 
		 "functional": "B3LYP", 
		 "basiset": "6-31G**", 
		 "properties": { 
			 "R2extent": 2961.1278, 
			 "electric_dipole_moment_norm": 4.82116387712, 
			 "electric_quadrupole_moment_norm": 16.8815329692, 
			 "total_energy": -530.201907677, 
			 "HOMO_LUMO_gap": 0.15814, 
			 "cosmo_polarized_energy": -9.36, 
			 "cosmo_cavitation_energy": 21.73, 
			 "cosmo_dispersion_energy": -16.47, 
			 "cosmo_repulsion_energy": 1.3, 
			 "cosmo_total_nonelectrostatic_energy": 6.55, 
			 "SMD_solvation_energy": 3.82 
		},
		"coords": [
			{
				"x": 1.7399977378,
				"y": -1.2786712821,
				"z": 1.8438699025,
				"element": "C" 
			},
			{
				"x": 1.2997344929,
				"y": 0.0152604514,
				"z": 2.2387448528,
				"element": "O" 
			},
			{
				"x": 0.0254718631,
				"y": 0.3720419278,
				"z": 1.943505656,
				"element": "C" 
			},
			{
				"x": -0.8874957783,
				"y": -0.4191728446,
				"z": 1.2872341533,
				"element": "C" 
			},
			{
				"x": -2.1778785146,
				"y": 0.1475129373,
				"z": 1.0757442545,
				"element": "C" 
			},
			{
				"x": -3.2419196638,
				"y": -0.3675449989,
				"z": 0.4839188856,
				"element": "N" 
			},
			{
				"x": -4.1968147956,
				"y": 0.6195126682,
				"z": 0.5682003802,
				"element": "O" 
			},
			{
				"x": -3.751653217,
				"y": 1.7438612425,
				"z": 1.2027383512,
				"element": "N" 
			},
			{
				"x": -2.5008365059,
				"y": 1.4729527073,
				"z": 1.5259140631,
				"element": "C" 
			},
			{
				"x": -1.5270247932,
				"y": 2.2676312036,
				"z": 2.2049946433,
				"element": "C" 
			},
			{
				"x": -0.2996128843,
				"y": 1.7096872906,
				"z": 2.3980272476,
				"element": "C" 
			},
			{
				"x": 1.6917201268,
				"y": -1.3992033138,
				"z": 0.7547454427,
				"element": "H" 
			},
			{
				"x": 1.1419834704,
				"y": -2.0643248539,
				"z": 2.3215470237,
				"element": "H" 
			},
			{
				"x": 2.7761360164,
				"y": -1.357880241,
				"z": 2.1737708814,
				"element": "H" 
			},
			{
				"x": -0.6678561103,
				"y": -1.4191282629,
				"z": 0.9393010654,
				"element": "H" 
			},
			{
				"x": -1.7662688963,
				"y": 3.2680916277,
				"z": 2.5464152708,
				"element": "H" 
			},
			{
				"x": 0.491517452,
				"y": 2.2514737407,
				"z": 2.9056279258,
				"element": "H" 
			}
		],
		 "valence_orbital": [ 
			{
				"type": "occ",
				"energy": -0.32979,
				"method": "rhf"
			},
			{
				"type": "occ",
				"energy": -0.32928,
				"method": "rhf"
			},
			{
				"type": "occ",
				"energy": -0.31215,
				"method": "rhf"
			},
			{
				"type": "occ",
				"energy": -0.27075,
				"method": "rhf"
			},
			{
				"type": "occ",
				"energy": -0.23776,
				"method": "rhf"
			},
			{
				"type": "unocc",
				"energy": -0.07962,
				"method": "rhf"
			},
			{
				"type": "unocc",
				"energy": 0.00774,
				"method": "rhf"
			},
			{
				"type": "unocc",
				"energy": 0.0175,
				"method": "rhf"
			},
			{
				"type": "unocc",
				"energy": 0.08193,
				"method": "rhf"
			},
			{
				"type": "unocc",
				"energy": 0.09211,
				"method": "rhf"
			}
		],
		"cosmo_sigma_profile": { 
			"-0.025": 0.0,
			"-0.024": 0.0,
			"-0.023": 0.0,
			"-0.022": 0.0,
			"-0.021": 0.0,
			"-0.02": 0.0,
			"-0.019": 0.0,
			"-0.018": 0.0,
			"-0.017": 0.0,
			"-0.016": 0.0,
			"-0.015": 0.0,
			"-0.014": 0.0,
			"-0.013": 0.0,
			"-0.012": 0.0,
			"-0.011": 0.0,
			"-0.01": 0.0,
			"-0.009": 0.663125474078,
			"-0.008": 4.62572937332,
			"-0.007": 8.29509868902,
			"-0.006": 13.5728122278,
			"-0.005": 11.6151310885,
			"-0.004": 12.0305479502,
			"-0.003": 10.5877736684,
			"-0.002": 11.7633231891,
			"-0.001": 12.5551094201,
			"0.0": 17.1016277383,
			"0.001": 13.8190462166,
			"0.002": 9.678399271,
			"0.003": 4.36184726056,
			"0.004": 5.57543779903,
			"0.005": 8.86655368199,
			"0.006": 9.38401589947,
			"0.007": 5.41145448945,
			"0.008": 4.15282237258,
			"0.009": 3.64548464409,
			"0.01": 2.55982956877,
			"0.011": 2.25566550957,
			"0.012": 2.09599520078,
			"0.013": 0.337932628265,
			"0.014": 0.0,
			"0.015": 0.0,
			"0.016": 0.0,
			"0.017": 0.0,
			"0.018": 0.0,
			"0.019": 0.0,
			"0.02": 0.0,
			"0.021": 0.0,
			"0.022": 0.0,
			"0.023": 0.0,
			"0.024": 0.0,
			"0.025": 0.0
		}
	}
}
