{
	 "smiles": "OC(=O)C1=NNC2=C1C=C(C=C2)[N+]([O-])=O", 
	 "Tm": 527.15, 
	 "num_atms": 20, 
	 "gaussian": { 
		 "optdone": 1, 
		 "sigma_profile": "yes", 
		 "theory": "DFT", 
		 "functional": "B3LYP", 
		 "basiset": "6-31G**", 
		 "properties": { 
			 "R2extent": 3750.3536, 
			 "electric_dipole_moment_norm": 8.28565967742, 
			 "electric_quadrupole_moment_norm": 12.6691315792, 
			 "total_energy": -772.913639951, 
			 "HOMO_LUMO_gap": 0.1703, 
			 "cosmo_polarized_energy": -21.39, 
			 "cosmo_cavitation_energy": 26.38, 
			 "cosmo_dispersion_energy": -19.7, 
			 "cosmo_repulsion_energy": 1.52, 
			 "cosmo_total_nonelectrostatic_energy": 8.21, 
			 "SMD_solvation_energy": 7.13 
		},
		"coords": [
			{
				"x": -1.3266130207,
				"y": 2.38233619,
				"z": -4.2770204915,
				"element": "O" 
			},
			{
				"x": -1.4821929506,
				"y": 1.4491913349,
				"z": -3.316494275,
				"element": "C" 
			},
			{
				"x": -2.4256746336,
				"y": 0.6922432008,
				"z": -3.2941972971,
				"element": "O" 
			},
			{
				"x": -0.410114723,
				"y": 1.420496801,
				"z": -2.2893505984,
				"element": "C" 
			},
			{
				"x": 0.6061298116,
				"y": 2.2685101445,
				"z": -2.3520332345,
				"element": "N" 
			},
			{
				"x": 1.3974776959,
				"y": 1.993348075,
				"z": -1.2930125017,
				"element": "N" 
			},
			{
				"x": 0.9122298458,
				"y": 0.967147261,
				"z": -0.5273405063,
				"element": "C" 
			},
			{
				"x": -0.2908415259,
				"y": 0.5559955134,
				"z": -1.155107397,
				"element": "C" 
			},
			{
				"x": -1.0492479213,
				"y": -0.4923844976,
				"z": -0.6163416159,
				"element": "C" 
			},
			{
				"x": -0.556461868,
				"y": -1.0800387709,
				"z": 0.536210507,
				"element": "C" 
			},
			{
				"x": 0.6422377959,
				"y": -0.6748549321,
				"z": 1.167093162,
				"element": "C" 
			},
			{
				"x": 1.3964660984,
				"y": 0.3577251599,
				"z": 0.6430815812,
				"element": "C" 
			},
			{
				"x": -1.3155740998,
				"y": -2.1863505014,
				"z": 1.1427870379,
				"element": "N" 
			},
			{
				"x": -0.8590484983,
				"y": -2.6946500224,
				"z": 2.1674887824,
				"element": "O" 
			},
			{
				"x": -2.3566975882,
				"y": -2.5343498126,
				"z": 0.5902887353,
				"element": "O" 
			},
			{
				"x": -0.5065531249,
				"y": 2.8762081403,
				"z": -4.1020645221,
				"element": "H" 
			},
			{
				"x": 2.2375250862,
				"y": 2.534451726,
				"z": -1.1555480121,
				"element": "H" 
			},
			{
				"x": -1.9707139034,
				"y": -0.8259281011,
				"z": -1.0752668505,
				"element": "H" 
			},
			{
				"x": 0.9485741637,
				"y": -1.1942514692,
				"z": 2.0660244833,
				"element": "H" 
			},
			{
				"x": 2.3175933601,
				"y": 0.6765545603,
				"z": 1.1190030129,
				"element": "H" 
			}
		],
		 "valence_orbital": [ 
			{
				"type": "occ",
				"energy": -0.31131,
				"method": "rhf"
			},
			{
				"type": "occ",
				"energy": -0.29464,
				"method": "rhf"
			},
			{
				"type": "occ",
				"energy": -0.28752,
				"method": "rhf"
			},
			{
				"type": "occ",
				"energy": -0.28686,
				"method": "rhf"
			},
			{
				"type": "occ",
				"energy": -0.26684,
				"method": "rhf"
			},
			{
				"type": "unocc",
				"energy": -0.09654,
				"method": "rhf"
			},
			{
				"type": "unocc",
				"energy": -0.07225,
				"method": "rhf"
			},
			{
				"type": "unocc",
				"energy": -0.02936,
				"method": "rhf"
			},
			{
				"type": "unocc",
				"energy": 0.00183,
				"method": "rhf"
			},
			{
				"type": "unocc",
				"energy": 0.04756,
				"method": "rhf"
			}
		],
		"cosmo_sigma_profile": { 
			"-0.025": 0.0,
			"-0.024": 0.0,
			"-0.023": 0.0,
			"-0.022": 0.0,
			"-0.021": 0.0,
			"-0.02": 0.0,
			"-0.019": 0.288463365996,
			"-0.018": 1.94119795907,
			"-0.017": 1.24341939569,
			"-0.016": 1.80403608771,
			"-0.015": 1.9246261499,
			"-0.014": 1.57313945802,
			"-0.013": 1.70605263562,
			"-0.012": 1.46232183546,
			"-0.011": 2.24441828584,
			"-0.01": 2.0314780039,
			"-0.009": 3.5071784496,
			"-0.008": 3.81284025808,
			"-0.007": 6.57477272955,
			"-0.006": 6.3083491503,
			"-0.005": 6.66024787615,
			"-0.004": 10.7876011438,
			"-0.003": 11.4063509127,
			"-0.002": 18.3528660935,
			"-0.001": 23.8128567081,
			"0.0": 16.8985051584,
			"0.001": 10.6120583898,
			"0.002": 6.98797109286,
			"0.003": 6.21011598937,
			"0.004": 5.45322889094,
			"0.005": 7.55911561761,
			"0.006": 6.11674967806,
			"0.007": 12.320813976,
			"0.008": 10.0945295776,
			"0.009": 8.59560854777,
			"0.01": 7.64620548027,
			"0.011": 3.92546443734,
			"0.012": 2.54932966848,
			"0.013": 0.535639719451,
			"0.014": 0.0,
			"0.015": 0.0,
			"0.016": 0.0,
			"0.017": 0.0,
			"0.018": 0.0,
			"0.019": 0.0,
			"0.02": 0.0,
			"0.021": 0.0,
			"0.022": 0.0,
			"0.023": 0.0,
			"0.024": 0.0,
			"0.025": 0.0
		}
	}
}
