{
	 "smiles": "OC(=O)CNC1=NC=CS1", 
	 "Tm": 535.15, 
	 "num_atms": 16, 
	 "gaussian": { 
		 "optdone": 1, 
		 "sigma_profile": "yes", 
		 "theory": "DFT", 
		 "functional": "B3LYP", 
		 "basiset": "6-31G**", 
		 "properties": { 
			 "R2extent": 2108.3555, 
			 "electric_dipole_moment_norm": 5.26991216151, 
			 "electric_quadrupole_moment_norm": 19.6487347908, 
			 "total_energy": -852.284664303, 
			 "HOMO_LUMO_gap": 0.19874, 
			 "cosmo_polarized_energy": -15.14, 
			 "cosmo_cavitation_energy": 21.92, 
			 "cosmo_dispersion_energy": -17.05, 
			 "cosmo_repulsion_energy": 1.34, 
			 "cosmo_total_nonelectrostatic_energy": 6.21, 
			 "SMD_solvation_energy": 4.1 
		},
		"coords": [
			{
				"x": -2.3318100336,
				"y": 1.9399303954,
				"z": -0.0435550834,
				"element": "O" 
			},
			{
				"x": -1.8249910505,
				"y": 2.4103428779,
				"z": 1.1016379202,
				"element": "C" 
			},
			{
				"x": -2.2351010264,
				"y": 3.4174403687,
				"z": 1.6309228217,
				"element": "O" 
			},
			{
				"x": -0.6954235624,
				"y": 1.5674481328,
				"z": 1.7325583069,
				"element": "C" 
			},
			{
				"x": 0.503220398,
				"y": 1.4028822517,
				"z": 0.9135940532,
				"element": "N" 
			},
			{
				"x": 0.5340433885,
				"y": 0.5732455197,
				"z": -0.164468978,
				"element": "C" 
			},
			{
				"x": -0.5276840457,
				"y": -0.0398219208,
				"z": -0.6362710921,
				"element": "N" 
			},
			{
				"x": -0.1930730363,
				"y": -0.863882789,
				"z": -1.6950422433,
				"element": "C" 
			},
			{
				"x": 1.1142753751,
				"y": -0.879433734,
				"z": -2.0556028383,
				"element": "C" 
			},
			{
				"x": 2.0360754927,
				"y": 0.1748875545,
				"z": -1.0012916198,
				"element": "S" 
			},
			{
				"x": -1.8632182463,
				"y": 1.1089494776,
				"z": -0.3183474962,
				"element": "H" 
			},
			{
				"x": -0.4076654294,
				"y": 2.0587739739,
				"z": 2.6619600806,
				"element": "H" 
			},
			{
				"x": -1.0859518864,
				"y": 0.5701117647,
				"z": 1.9672088353,
				"element": "H" 
			},
			{
				"x": 1.237381952,
				"y": 2.0865593036,
				"z": 1.0128696492,
				"element": "H" 
			},
			{
				"x": -0.9778452104,
				"y": -1.4264732923,
				"z": -2.1857511606,
				"element": "H" 
			},
			{
				"x": 1.5939669211,
				"y": -1.4142598842,
				"z": -2.8615211552,
				"element": "H" 
			}
		],
		 "valence_orbital": [ 
			{
				"type": "occ",
				"energy": -0.30536,
				"method": "rhf"
			},
			{
				"type": "occ",
				"energy": -0.30077,
				"method": "rhf"
			},
			{
				"type": "occ",
				"energy": -0.29577,
				"method": "rhf"
			},
			{
				"type": "occ",
				"energy": -0.26158,
				"method": "rhf"
			},
			{
				"type": "occ",
				"energy": -0.22517,
				"method": "rhf"
			},
			{
				"type": "unocc",
				"energy": -0.02643,
				"method": "rhf"
			},
			{
				"type": "unocc",
				"energy": -0.00943,
				"method": "rhf"
			},
			{
				"type": "unocc",
				"energy": 0.01212,
				"method": "rhf"
			},
			{
				"type": "unocc",
				"energy": 0.03594,
				"method": "rhf"
			},
			{
				"type": "unocc",
				"energy": 0.07496,
				"method": "rhf"
			}
		],
		"cosmo_sigma_profile": { 
			"-0.025": 0.0,
			"-0.024": 0.0,
			"-0.023": 0.0,
			"-0.022": 0.0,
			"-0.021": 0.0,
			"-0.02": 0.0,
			"-0.019": 0.0,
			"-0.018": 0.0,
			"-0.017": 0.0,
			"-0.016": 1.11738980386,
			"-0.015": 1.66981207554,
			"-0.014": 1.6375163176,
			"-0.013": 1.31631367159,
			"-0.012": 1.62346622127,
			"-0.011": 1.43690262384,
			"-0.01": 0.978553265815,
			"-0.009": 2.94377278434,
			"-0.008": 7.05592167874,
			"-0.007": 7.87745574476,
			"-0.006": 9.15919187689,
			"-0.005": 8.93966801217,
			"-0.004": 9.33879531343,
			"-0.003": 7.90818887357,
			"-0.002": 9.51003308174,
			"-0.001": 11.0515753186,
			"0.0": 11.0984336231,
			"0.001": 12.9535372628,
			"0.002": 12.1992311931,
			"0.003": 11.9183540805,
			"0.004": 9.86458107848,
			"0.005": 4.50563518455,
			"0.006": 3.35794035304,
			"0.007": 2.33439872952,
			"0.008": 2.48992686039,
			"0.009": 3.59712058483,
			"0.01": 3.02190332408,
			"0.011": 6.00458891886,
			"0.012": 6.76120792804,
			"0.013": 3.52333756362,
			"0.014": 0.459000615251,
			"0.015": 0.0,
			"0.016": 0.0,
			"0.017": 0.0,
			"0.018": 0.0,
			"0.019": 0.0,
			"0.02": 0.0,
			"0.021": 0.0,
			"0.022": 0.0,
			"0.023": 0.0,
			"0.024": 0.0,
			"0.025": 0.0
		}
	}
}
