{
	 "smiles": "OC(=O)CC(CC(O)=O)C1=CC=C(C=C1)C(F)(F)F", 
	 "Tm": 440.15, 
	 "num_atms": 30, 
	 "gaussian": { 
		 "optdone": 1, 
		 "sigma_profile": "yes", 
		 "theory": "DFT", 
		 "functional": "B3LYP", 
		 "basiset": "6-31G**", 
		 "properties": { 
			 "R2extent": 7253.4616, 
			 "electric_dipole_moment_norm": 2.64343070649, 
			 "electric_quadrupole_moment_norm": 27.6017600865, 
			 "total_energy": -1064.3568514, 
			 "HOMO_LUMO_gap": 0.22022, 
			 "cosmo_polarized_energy": -21.74, 
			 "cosmo_cavitation_energy": 36.31, 
			 "cosmo_dispersion_energy": -24.02, 
			 "cosmo_repulsion_energy": 1.83, 
			 "cosmo_total_nonelectrostatic_energy": 14.12, 
			 "SMD_solvation_energy": 9.44 
		},
		"coords": [
			{
				"x": 0.2466786942,
				"y": 2.7588881098,
				"z": 0.9117838731,
				"element": "O" 
			},
			{
				"x": 1.1882195637,
				"y": 2.0948340881,
				"z": 1.6283733076,
				"element": "C" 
			},
			{
				"x": 1.4185765229,
				"y": 2.3395565545,
				"z": 2.7899030843,
				"element": "O" 
			},
			{
				"x": 1.9106001997,
				"y": 1.0597775318,
				"z": 0.7891421994,
				"element": "C" 
			},
			{
				"x": 0.9770811252,
				"y": 0.1418023968,
				"z": -0.0375385367,
				"element": "C" 
			},
			{
				"x": 1.8386494838,
				"y": -0.8073681593,
				"z": -0.9134393398,
				"element": "C" 
			},
			{
				"x": 1.0560354931,
				"y": -1.5598885821,
				"z": -1.9881757524,
				"element": "C" 
			},
			{
				"x": 0.1524162992,
				"y": -2.4728323999,
				"z": -1.5518599755,
				"element": "O" 
			},
			{
				"x": 1.2138265704,
				"y": -1.3772963175,
				"z": -3.1695960952,
				"element": "O" 
			},
			{
				"x": -0.0156116149,
				"y": -0.5933691657,
				"z": 0.8566940068,
				"element": "C" 
			},
			{
				"x": -1.3894149029,
				"y": -0.3293756398,
				"z": 0.7579493306,
				"element": "C" 
			},
			{
				"x": -2.3079988296,
				"y": -0.9828820819,
				"z": 1.5769014551,
				"element": "C" 
			},
			{
				"x": -1.8644801128,
				"y": -1.9195933684,
				"z": 2.512999954,
				"element": "C" 
			},
			{
				"x": -0.5003640316,
				"y": -2.1973231021,
				"z": 2.6259903019,
				"element": "C" 
			},
			{
				"x": 0.4134303795,
				"y": -1.5380951578,
				"z": 1.8047596845,
				"element": "C" 
			},
			{
				"x": -2.8496992273,
				"y": -2.5876355676,
				"z": 3.435736743,
				"element": "C" 
			},
			{
				"x": -3.0471203542,
				"y": -1.8608340971,
				"z": 4.5588317246,
				"element": "F" 
			},
			{
				"x": -2.4219741238,
				"y": -3.8082324997,
				"z": 3.8253198287,
				"element": "F" 
			},
			{
				"x": -4.0564629788,
				"y": -2.7435229666,
				"z": 2.8499557167,
				"element": "F" 
			},
			{
				"x": -0.1509148398,
				"y": 3.4048860213,
				"z": 1.5199233986,
				"element": "H" 
			},
			{
				"x": 2.5419456978,
				"y": 0.4825791932,
				"z": 1.4689529383,
				"element": "H" 
			},
			{
				"x": 2.5728159129,
				"y": 1.5999913808,
				"z": 0.1008585422,
				"element": "H" 
			},
			{
				"x": 0.4041258586,
				"y": 0.7860804913,
				"z": -0.7118776589,
				"element": "H" 
			},
			{
				"x": 2.3663162014,
				"y": -1.5288615363,
				"z": -0.2763486848,
				"element": "H" 
			},
			{
				"x": 2.5938360945,
				"y": -0.2249131424,
				"z": -1.4451570347,
				"element": "H" 
			},
			{
				"x": 0.1046784331,
				"y": -2.4725898991,
				"z": -0.5832462487,
				"element": "H" 
			},
			{
				"x": -1.7407763183,
				"y": 0.3951632269,
				"z": 0.0295618408,
				"element": "H" 
			},
			{
				"x": -3.3683612306,
				"y": -0.7755816879,
				"z": 1.4814781346,
				"element": "H" 
			},
			{
				"x": -0.1559300679,
				"y": -2.9275681634,
				"z": 3.3500946439,
				"element": "H" 
			},
			{
				"x": 1.4717761026,
				"y": -1.7591954599,
				"z": 1.9146286178,
				"element": "H" 
			}
		],
		 "valence_orbital": [ 
			{
				"type": "occ",
				"energy": -0.31736,
				"method": "rhf"
			},
			{
				"type": "occ",
				"energy": -0.29081,
				"method": "rhf"
			},
			{
				"type": "occ",
				"energy": -0.28626,
				"method": "rhf"
			},
			{
				"type": "occ",
				"energy": -0.28222,
				"method": "rhf"
			},
			{
				"type": "occ",
				"energy": -0.26968,
				"method": "rhf"
			},
			{
				"type": "unocc",
				"energy": -0.04946,
				"method": "rhf"
			},
			{
				"type": "unocc",
				"energy": -0.03872,
				"method": "rhf"
			},
			{
				"type": "unocc",
				"energy": -0.01169,
				"method": "rhf"
			},
			{
				"type": "unocc",
				"energy": 0.00717,
				"method": "rhf"
			},
			{
				"type": "unocc",
				"energy": 0.05693,
				"method": "rhf"
			}
		],
		"cosmo_sigma_profile": { 
			"-0.025": 0.0,
			"-0.024": 0.0,
			"-0.023": 0.0,
			"-0.022": 0.0,
			"-0.021": 0.0,
			"-0.02": 0.0,
			"-0.019": 0.0,
			"-0.018": 0.758698308642,
			"-0.017": 1.10928889437,
			"-0.016": 0.752396732741,
			"-0.015": 0.835543835169,
			"-0.014": 0.440070011363,
			"-0.013": 1.1615157791,
			"-0.012": 1.14966688473,
			"-0.011": 2.47040403241,
			"-0.01": 2.83787599428,
			"-0.009": 3.16055440128,
			"-0.008": 7.01368440721,
			"-0.007": 17.2267892441,
			"-0.006": 18.9664884014,
			"-0.005": 17.7067868658,
			"-0.004": 15.4142893985,
			"-0.003": 14.8299874888,
			"-0.002": 11.5050520352,
			"-0.001": 13.3863819174,
			"0.0": 16.2948062205,
			"0.001": 21.4762476958,
			"0.002": 29.3508018988,
			"0.003": 31.935564254,
			"0.004": 5.26912528943,
			"0.005": 5.09620838114,
			"0.006": 4.34357004456,
			"0.007": 4.62429911186,
			"0.008": 4.29777167817,
			"0.009": 5.55525300803,
			"0.01": 6.48778841638,
			"0.011": 9.9848061457,
			"0.012": 9.94857754838,
			"0.013": 2.61618963524,
			"0.014": 0.056515221443,
			"0.015": 0.0,
			"0.016": 0.0,
			"0.017": 0.0,
			"0.018": 0.0,
			"0.019": 0.0,
			"0.02": 0.0,
			"0.021": 0.0,
			"0.022": 0.0,
			"0.023": 0.0,
			"0.024": 0.0,
			"0.025": 0.0
		}
	}
}
