{
	 "smiles": "COC1=CC=C(C=C1)C(C)=CC(=O)C1=CC=C(OC)C=C1", 
	 "Tm": 359.65, 
	 "num_atms": 39, 
	 "gaussian": { 
		 "optdone": 1, 
		 "sigma_profile": "yes", 
		 "theory": "DFT", 
		 "functional": "B3LYP", 
		 "basiset": "6-31G**", 
		 "properties": { 
			 "R2extent": 12233.0254, 
			 "electric_dipole_moment_norm": 3.41344186416, 
			 "electric_quadrupole_moment_norm": 23.3745713449, 
			 "total_energy": -922.407173585, 
			 "HOMO_LUMO_gap": 0.15064, 
			 "cosmo_polarized_energy": -14.28, 
			 "cosmo_cavitation_energy": 42.87, 
			 "cosmo_dispersion_energy": -30.92, 
			 "cosmo_repulsion_energy": 2.33, 
			 "cosmo_total_nonelectrostatic_energy": 14.28, 
			 "SMD_solvation_energy": 9.19 
		},
		"coords": [
			{
				"x": 4.398405894,
				"y": -1.2055249152,
				"z": -5.7156713568,
				"element": "C" 
			},
			{
				"x": 4.6082754442,
				"y": -0.3116420524,
				"z": -4.6329999125,
				"element": "O" 
			},
			{
				"x": 3.7287882443,
				"y": -0.3369120813,
				"z": -3.5933087204,
				"element": "C" 
			},
			{
				"x": 3.9826914747,
				"y": 0.5711685635,
				"z": -2.5541976015,
				"element": "C" 
			},
			{
				"x": 3.1494532011,
				"y": 0.6166539447,
				"z": -1.446888864,
				"element": "C" 
			},
			{
				"x": 2.0193160329,
				"y": -0.2210636388,
				"z": -1.3368087168,
				"element": "C" 
			},
			{
				"x": 1.7933673855,
				"y": -1.1300115987,
				"z": -2.3831577819,
				"element": "C" 
			},
			{
				"x": 2.6273285014,
				"y": -1.197043616,
				"z": -3.4984346129,
				"element": "C" 
			},
			{
				"x": 1.1229218143,
				"y": -0.1373126859,
				"z": -0.1577578964,
				"element": "C" 
			},
			{
				"x": 1.7558396643,
				"y": 0.2723966255,
				"z": 1.1507630868,
				"element": "C" 
			},
			{
				"x": -0.2015333267,
				"y": -0.4120712478,
				"z": -0.2965144307,
				"element": "C" 
			},
			{
				"x": -1.2261617604,
				"y": -0.3841296988,
				"z": 0.7670697382,
				"element": "C" 
			},
			{
				"x": -1.0314748375,
				"y": 0.1280229327,
				"z": 1.8736094323,
				"element": "O" 
			},
			{
				"x": -2.5689751964,
				"y": -0.9840254554,
				"z": 0.4667337463,
				"element": "C" 
			},
			{
				"x": -3.6129743123,
				"y": -0.7242715937,
				"z": 1.3659681663,
				"element": "C" 
			},
			{
				"x": -4.8893495304,
				"y": -1.2452559181,
				"z": 1.1768113671,
				"element": "C" 
			},
			{
				"x": -5.14302409,
				"y": -2.062916188,
				"z": 0.065416095,
				"element": "C" 
			},
			{
				"x": -6.3472461359,
				"y": -2.6276420641,
				"z": -0.2214134265,
				"element": "O" 
			},
			{
				"x": -7.4355836216,
				"y": -2.3850232765,
				"z": 0.6586968961,
				"element": "C" 
			},
			{
				"x": -4.1068089273,
				"y": -2.3462120711,
				"z": -0.8382046018,
				"element": "C" 
			},
			{
				"x": -2.842305028,
				"y": -1.8112724625,
				"z": -0.6388151393,
				"element": "C" 
			},
			{
				"x": 4.4531734975,
				"y": -2.2528804697,
				"z": -5.3922862756,
				"element": "H" 
			},
			{
				"x": 3.4307939025,
				"y": -1.0304473262,
				"z": -6.202987651,
				"element": "H" 
			},
			{
				"x": 5.2003036919,
				"y": -1.0082773894,
				"z": -6.4285546957,
				"element": "H" 
			},
			{
				"x": 4.8404453148,
				"y": 1.2301222494,
				"z": -2.6404947069,
				"element": "H" 
			},
			{
				"x": 3.3660028992,
				"y": 1.3330542353,
				"z": -0.6612759055,
				"element": "H" 
			},
			{
				"x": 0.9655531486,
				"y": -1.8284437929,
				"z": -2.312858851,
				"element": "H" 
			},
			{
				"x": 2.4197610571,
				"y": -1.9265114271,
				"z": -4.2722977685,
				"element": "H" 
			},
			{
				"x": 1.8053951509,
				"y": 1.3668838218,
				"z": 1.2238178438,
				"element": "H" 
			},
			{
				"x": 2.7780154215,
				"y": -0.1099227261,
				"z": 1.2235176271,
				"element": "H" 
			},
			{
				"x": 1.1599524811,
				"y": -0.0606603304,
				"z": 1.9980953753,
				"element": "H" 
			},
			{
				"x": -0.5590470398,
				"y": -0.6457640313,
				"z": -1.2932398649,
				"element": "H" 
			},
			{
				"x": -3.396515961,
				"y": -0.0980002388,
				"z": 2.2249274962,
				"element": "H" 
			},
			{
				"x": -5.6718579821,
				"y": -1.0142671245,
				"z": 1.8899031872,
				"element": "H" 
			},
			{
				"x": -7.6801797631,
				"y": -1.3168566789,
				"z": 0.7138559798,
				"element": "H" 
			},
			{
				"x": -8.2854249223,
				"y": -2.9270731914,
				"z": 0.2414904716,
				"element": "H" 
			},
			{
				"x": -7.2290925885,
				"y": -2.7591789313,
				"z": 1.6692249304,
				"element": "H" 
			},
			{
				"x": -4.3207320212,
				"y": -2.9908386796,
				"z": -1.6843602918,
				"element": "H" 
			},
			{
				"x": -2.0582971771,
				"y": -2.064249471,
				"z": -1.3443723672,
				"element": "H" 
			}
		],
		 "valence_orbital": [ 
			{
				"type": "occ",
				"energy": -0.25654,
				"method": "rhf"
			},
			{
				"type": "occ",
				"energy": -0.25389,
				"method": "rhf"
			},
			{
				"type": "occ",
				"energy": -0.23087,
				"method": "rhf"
			},
			{
				"type": "occ",
				"energy": -0.22187,
				"method": "rhf"
			},
			{
				"type": "occ",
				"energy": -0.21121,
				"method": "rhf"
			},
			{
				"type": "unocc",
				"energy": -0.06057,
				"method": "rhf"
			},
			{
				"type": "unocc",
				"energy": -0.00902,
				"method": "rhf"
			},
			{
				"type": "unocc",
				"energy": -0.00435,
				"method": "rhf"
			},
			{
				"type": "unocc",
				"energy": -0.00149,
				"method": "rhf"
			},
			{
				"type": "unocc",
				"energy": 0.03894,
				"method": "rhf"
			}
		],
		"cosmo_sigma_profile": { 
			"-0.025": 0.0,
			"-0.024": 0.0,
			"-0.023": 0.0,
			"-0.022": 0.0,
			"-0.021": 0.0,
			"-0.02": 0.0,
			"-0.019": 0.0,
			"-0.018": 0.0,
			"-0.017": 0.0,
			"-0.016": 0.0,
			"-0.015": 0.0,
			"-0.014": 0.0,
			"-0.013": 0.0,
			"-0.012": 0.0,
			"-0.011": 0.0,
			"-0.01": 0.0,
			"-0.009": 0.0,
			"-0.008": 0.638748207081,
			"-0.007": 5.45723763018,
			"-0.006": 23.3958762473,
			"-0.005": 33.6542521937,
			"-0.004": 33.4155005978,
			"-0.003": 31.2392661694,
			"-0.002": 19.2509152581,
			"-0.001": 19.3481587425,
			"0.0": 24.3470505709,
			"0.001": 22.8709012914,
			"0.002": 22.5804260822,
			"0.003": 27.227858402,
			"0.004": 31.5818291442,
			"0.005": 15.9979282032,
			"0.006": 4.76599060447,
			"0.007": 5.00720819272,
			"0.008": 4.54460088706,
			"0.009": 4.38340840098,
			"0.01": 3.83484007068,
			"0.011": 2.36355255197,
			"0.012": 2.52612216997,
			"0.013": 2.99664030102,
			"0.014": 0.346797439182,
			"0.015": 0.0,
			"0.016": 0.0,
			"0.017": 0.0,
			"0.018": 0.0,
			"0.019": 0.0,
			"0.02": 0.0,
			"0.021": 0.0,
			"0.022": 0.0,
			"0.023": 0.0,
			"0.024": 0.0,
			"0.025": 0.0
		}
	}
}
