{
	 "smiles": "OC(=O)C1=C(O)C=CC(CCC2=CC=CC=C2)=C1", 
	 "Tm": 430.15, 
	 "num_atms": 32, 
	 "gaussian": { 
		 "optdone": 1, 
		 "sigma_profile": "yes", 
		 "theory": "DFT", 
		 "functional": "B3LYP", 
		 "basiset": "6-31G**", 
		 "properties": { 
			 "R2extent": 5809.753, 
			 "electric_dipole_moment_norm": 4.69551983597, 
			 "electric_quadrupole_moment_norm": 16.0874605914, 
			 "total_energy": -805.734446014, 
			 "HOMO_LUMO_gap": 0.17107, 
			 "cosmo_polarized_energy": -15.33, 
			 "cosmo_cavitation_energy": 35.75, 
			 "cosmo_dispersion_energy": -25.06, 
			 "cosmo_repulsion_energy": 1.94, 
			 "cosmo_total_nonelectrostatic_energy": 12.63, 
			 "SMD_solvation_energy": 6.93 
		},
		"coords": [
			{
				"x": 2.6384480595,
				"y": 3.2342244734,
				"z": 1.5216189616,
				"element": "O" 
			},
			{
				"x": 2.7287609049,
				"y": 1.8882984335,
				"z": 1.513798015,
				"element": "C" 
			},
			{
				"x": 3.8161716046,
				"y": 1.3869795504,
				"z": 1.7864153135,
				"element": "O" 
			},
			{
				"x": 1.5372144156,
				"y": 1.0836295586,
				"z": 1.175359805,
				"element": "C" 
			},
			{
				"x": 1.6899257484,
				"y": -0.326226463,
				"z": 1.0821360227,
				"element": "C" 
			},
			{
				"x": 2.8550225948,
				"y": -0.9475880053,
				"z": 1.3010470947,
				"element": "O" 
			},
			{
				"x": 0.5730550134,
				"y": -1.1116303232,
				"z": 0.7478485057,
				"element": "C" 
			},
			{
				"x": -0.6604521358,
				"y": -0.5242450974,
				"z": 0.5247506321,
				"element": "C" 
			},
			{
				"x": -0.8478386745,
				"y": 0.8701537525,
				"z": 0.6267406676,
				"element": "C" 
			},
			{
				"x": -2.1974698314,
				"y": 1.5066971122,
				"z": 0.3759682042,
				"element": "C" 
			},
			{
				"x": -2.4777199031,
				"y": 1.8597319412,
				"z": -1.1114386685,
				"element": "C" 
			},
			{
				"x": -2.6096045252,
				"y": 0.6574317114,
				"z": -2.0218704608,
				"element": "C" 
			},
			{
				"x": -3.8000244123,
				"y": -0.0846593426,
				"z": -2.0500807698,
				"element": "C" 
			},
			{
				"x": -3.9267637357,
				"y": -1.2082405457,
				"z": -2.8669935421,
				"element": "C" 
			},
			{
				"x": -2.8609547159,
				"y": -1.6098974103,
				"z": -3.6757969639,
				"element": "C" 
			},
			{
				"x": -1.6722125827,
				"y": -0.87941326,
				"z": -3.660178817,
				"element": "C" 
			},
			{
				"x": -1.5496953238,
				"y": 0.2434669092,
				"z": -2.8391172553,
				"element": "C" 
			},
			{
				"x": 0.261233159,
				"y": 1.6411418988,
				"z": 0.95329723,
				"element": "C" 
			},
			{
				"x": 1.7651431003,
				"y": 3.5213230315,
				"z": 1.2234188836,
				"element": "H" 
			},
			{
				"x": 3.5083106725,
				"y": -0.2445765063,
				"z": 1.5490816142,
				"element": "H" 
			},
			{
				"x": 0.7091019972,
				"y": -2.1855765103,
				"z": 0.6788878632,
				"element": "H" 
			},
			{
				"x": -1.5086740773,
				"y": -1.1533459518,
				"z": 0.2704078506,
				"element": "H" 
			},
			{
				"x": -2.2780529294,
				"y": 2.428687983,
				"z": 0.9644441993,
				"element": "H" 
			},
			{
				"x": -2.9913889206,
				"y": 0.8407511504,
				"z": 0.7337009464,
				"element": "H" 
			},
			{
				"x": -1.6773613458,
				"y": 2.5140321748,
				"z": -1.4757896309,
				"element": "H" 
			},
			{
				"x": -3.4045138682,
				"y": 2.4456162542,
				"z": -1.1467615484,
				"element": "H" 
			},
			{
				"x": -4.6385231938,
				"y": 0.2266477611,
				"z": -1.4305873359,
				"element": "H" 
			},
			{
				"x": -4.8591170541,
				"y": -1.7660257988,
				"z": -2.8777257701,
				"element": "H" 
			},
			{
				"x": -2.9588956883,
				"y": -2.4821308671,
				"z": -4.3156400471,
				"element": "H" 
			},
			{
				"x": -0.838525541,
				"y": -1.1815758745,
				"z": -4.2878112051,
				"element": "H" 
			},
			{
				"x": -0.6201891549,
				"y": 0.8068423124,
				"z": -2.8325868695,
				"element": "H" 
			},
			{
				"x": 0.107990344,
				"y": 2.7150759476,
				"z": 1.059057075,
				"element": "H" 
			}
		],
		 "valence_orbital": [ 
			{
				"type": "occ",
				"energy": -0.28603,
				"method": "rhf"
			},
			{
				"type": "occ",
				"energy": -0.27098,
				"method": "rhf"
			},
			{
				"type": "occ",
				"energy": -0.25249,
				"method": "rhf"
			},
			{
				"type": "occ",
				"energy": -0.24608,
				"method": "rhf"
			},
			{
				"type": "occ",
				"energy": -0.22651,
				"method": "rhf"
			},
			{
				"type": "unocc",
				"energy": -0.05544,
				"method": "rhf"
			},
			{
				"type": "unocc",
				"energy": -0.00661,
				"method": "rhf"
			},
			{
				"type": "unocc",
				"energy": -0.00577,
				"method": "rhf"
			},
			{
				"type": "unocc",
				"energy": -0.00134,
				"method": "rhf"
			},
			{
				"type": "unocc",
				"energy": 0.04451,
				"method": "rhf"
			}
		],
		"cosmo_sigma_profile": { 
			"-0.025": 0.0,
			"-0.024": 0.0,
			"-0.023": 0.0,
			"-0.022": 0.0,
			"-0.021": 0.0,
			"-0.02": 0.072851209407,
			"-0.019": 0.661231919274,
			"-0.018": 0.956446144435,
			"-0.017": 0.928924408261,
			"-0.016": 0.949856170405,
			"-0.015": 1.57552478127,
			"-0.014": 0.26934199287,
			"-0.013": 0.904734788961,
			"-0.012": 1.51701286479,
			"-0.011": 0.832212103626,
			"-0.01": 0.965102703897,
			"-0.009": 0.610616287725,
			"-0.008": 1.64642691394,
			"-0.007": 2.92965523435,
			"-0.006": 6.95336685201,
			"-0.005": 15.6039586851,
			"-0.004": 25.875929541,
			"-0.003": 32.1555671222,
			"-0.002": 25.1374025187,
			"-0.001": 21.6281412237,
			"0.0": 19.4770459791,
			"0.001": 16.318753744,
			"0.002": 17.8299565485,
			"0.003": 20.7452005065,
			"0.004": 17.1856225289,
			"0.005": 13.4066368697,
			"0.006": 10.3025817615,
			"0.007": 4.46487799503,
			"0.008": 3.95044757445,
			"0.009": 5.84359167583,
			"0.01": 5.36844869018,
			"0.011": 4.5184274691,
			"0.012": 2.25822893036,
			"0.013": 0.61484902096,
			"0.014": 0.0,
			"0.015": 0.0,
			"0.016": 0.0,
			"0.017": 0.0,
			"0.018": 0.0,
			"0.019": 0.0,
			"0.02": 0.0,
			"0.021": 0.0,
			"0.022": 0.0,
			"0.023": 0.0,
			"0.024": 0.0,
			"0.025": 0.0
		}
	}
}
