{
	 "smiles": "NC1=C(I)C=C(I)C=C1I", 
	 "Tm": 461.15, 
	 "num_atms": 14, 
	 "gaussian": { 
		 "optdone": 1, 
		 "sigma_profile": "yes", 
		 "theory": "DFT", 
		 "functional": "B3LYP", 
		 "basiset": "6-31G**", 
		 "properties": { 
			 "R2extent": 2592.8031, 
			 "electric_dipole_moment_norm": 2.07386639155, 
			 "electric_quadrupole_moment_norm": 9.81320899808, 
			 "total_energy": -319.957473124, 
			 "HOMO_LUMO_gap": 0.14436, 
			 "cosmo_polarized_energy": -6.65, 
			 "cosmo_cavitation_energy": 27.25, 
			 "cosmo_dispersion_energy": -24.48, 
			 "cosmo_repulsion_energy": 1.88, 
			 "cosmo_total_nonelectrostatic_energy": 4.65, 
			 "SMD_solvation_energy": 1.89 
		},
		"coords": [
			{
				"x": 2.8078606041,
				"y": -1.6875674013,
				"z": -2.465597171,
				"element": "N" 
			},
			{
				"x": 1.9573123781,
				"y": -0.7816692188,
				"z": -1.8856168533,
				"element": "C" 
			},
			{
				"x": 2.1356774953,
				"y": -0.3190350818,
				"z": -0.5586843394,
				"element": "C" 
			},
			{
				"x": 3.7175386404,
				"y": -1.0979652764,
				"z": 0.6299705497,
				"element": "I" 
			},
			{
				"x": 1.309404802,
				"y": 0.6383767111,
				"z": 0.0226324524,
				"element": "C" 
			},
			{
				"x": 0.256077775,
				"y": 1.1739359079,
				"z": -0.7175159177,
				"element": "C" 
			},
			{
				"x": -1.0094223308,
				"y": 2.6308491916,
				"z": 0.1515123096,
				"element": "I" 
			},
			{
				"x": 0.0318702216,
				"y": 0.7513826973,
				"z": -2.0272195413,
				"element": "C" 
			},
			{
				"x": 0.8702896097,
				"y": -0.2071048194,
				"z": -2.589069815,
				"element": "C" 
			},
			{
				"x": 0.4657142811,
				"y": -0.8103692143,
				"z": -4.5876348608,
				"element": "I" 
			},
			{
				"x": 2.4915367649,
				"y": -2.1546693723,
				"z": -3.3023919063,
				"element": "H" 
			},
			{
				"x": 3.3945333069,
				"y": -2.2346254647,
				"z": -1.8532103598,
				"element": "H" 
			},
			{
				"x": 1.4874436474,
				"y": 0.9589297791,
				"z": 1.0411061476,
				"element": "H" 
			},
			{
				"x": -0.7860371958,
				"y": 1.1600315619,
				"z": -2.6066806948,
				"element": "H" 
			}
		],
		 "valence_orbital": [ 
			{
				"type": "occ",
				"energy": -0.28295,
				"method": "rhf"
			},
			{
				"type": "occ",
				"energy": -0.27378,
				"method": "rhf"
			},
			{
				"type": "occ",
				"energy": -0.27139,
				"method": "rhf"
			},
			{
				"type": "occ",
				"energy": -0.25163,
				"method": "rhf"
			},
			{
				"type": "occ",
				"energy": -0.22038,
				"method": "rhf"
			},
			{
				"type": "unocc",
				"energy": -0.07602,
				"method": "rhf"
			},
			{
				"type": "unocc",
				"energy": -0.03641,
				"method": "rhf"
			},
			{
				"type": "unocc",
				"energy": -0.03504,
				"method": "rhf"
			},
			{
				"type": "unocc",
				"energy": -0.03088,
				"method": "rhf"
			},
			{
				"type": "unocc",
				"energy": -0.0184,
				"method": "rhf"
			}
		],
		"cosmo_sigma_profile": { 
			"-0.025": 0.0,
			"-0.024": 0.0,
			"-0.023": 0.0,
			"-0.022": 0.0,
			"-0.021": 0.0,
			"-0.02": 0.0,
			"-0.019": 0.0,
			"-0.018": 0.0,
			"-0.017": 0.0,
			"-0.016": 0.0,
			"-0.015": 0.0,
			"-0.014": 0.0,
			"-0.013": 0.0769570939614,
			"-0.012": 1.13197422764,
			"-0.011": 1.62727578107,
			"-0.01": 2.76579798037,
			"-0.009": 1.39012870967,
			"-0.008": 3.50565457158,
			"-0.007": 7.78982725367,
			"-0.006": 9.02066299071,
			"-0.005": 10.6943548438,
			"-0.004": 11.5225315065,
			"-0.003": 9.49223076012,
			"-0.002": 11.6282955852,
			"-0.001": 14.8961942095,
			"0.0": 16.5666645422,
			"0.001": 26.4531457547,
			"0.002": 34.2862800171,
			"0.003": 31.2101499285,
			"0.004": 29.1424420454,
			"0.005": 7.52582342746,
			"0.006": 0.725848176392,
			"0.007": 0.528267816598,
			"0.008": 0.478213037525,
			"0.009": 0.884836730758,
			"0.01": 0.421319376741,
			"0.011": 0.295681119012,
			"0.012": 0.0,
			"0.013": 0.0,
			"0.014": 0.0,
			"0.015": 0.0,
			"0.016": 0.0,
			"0.017": 0.0,
			"0.018": 0.0,
			"0.019": 0.0,
			"0.02": 0.0,
			"0.021": 0.0,
			"0.022": 0.0,
			"0.023": 0.0,
			"0.024": 0.0,
			"0.025": 0.0
		}
	}
}
