{
	 "smiles": "ON=CC1=CC=C(Br)S1", 
	 "Tm": 406.15, 
	 "num_atms": 13, 
	 "gaussian": { 
		 "optdone": 1, 
		 "sigma_profile": "yes", 
		 "theory": "DFT", 
		 "functional": "B3LYP", 
		 "basiset": "6-31G**", 
		 "properties": { 
			 "R2extent": 3956.2449, 
			 "electric_dipole_moment_norm": 1.29842657089, 
			 "electric_quadrupole_moment_norm": 6.6254858886, 
			 "total_energy": -3292.42271465, 
			 "HOMO_LUMO_gap": 0.16067, 
			 "cosmo_polarized_energy": -7.4, 
			 "cosmo_cavitation_energy": 22.28, 
			 "cosmo_dispersion_energy": -17.41, 
			 "cosmo_repulsion_energy": 1.4, 
			 "cosmo_total_nonelectrostatic_energy": 6.27, 
			 "SMD_solvation_energy": 2.89 
		},
		"coords": [
			{
				"x": 3.60125838,
				"y": 0.556923401,
				"z": -0.583704839,
				"element": "O" 
			},
			{
				"x": 2.7367516255,
				"y": -0.0505695043,
				"z": 0.3319425788,
				"element": "N" 
			},
			{
				"x": 1.5217035497,
				"y": 0.3003348917,
				"z": 0.1070696682,
				"element": "C" 
			},
			{
				"x": 0.443620341,
				"y": -0.2084331671,
				"z": 0.9367314253,
				"element": "C" 
			},
			{
				"x": 0.4940617993,
				"y": -1.0710205881,
				"z": 2.0100769684,
				"element": "C" 
			},
			{
				"x": -0.7785072241,
				"y": -1.3446896543,
				"z": 2.579364814,
				"element": "C" 
			},
			{
				"x": -1.7882817031,
				"y": -0.6842210038,
				"z": 1.929928852,
				"element": "C" 
			},
			{
				"x": -3.626265725,
				"y": -0.7477858264,
				"z": 2.3360248246,
				"element": "Br" 
			},
			{
				"x": -1.2068208355,
				"y": 0.284602337,
				"z": 0.611062992,
				"element": "S" 
			},
			{
				"x": 4.4654570259,
				"y": 0.2190312929,
				"z": -0.3127597517,
				"element": "H" 
			},
			{
				"x": 1.2858831486,
				"y": 0.9852727805,
				"z": -0.7106014416,
				"element": "H" 
			},
			{
				"x": 1.4255666911,
				"y": -1.4900156472,
				"z": 2.3704322705,
				"element": "H" 
			},
			{
				"x": -0.9459270734,
				"y": -1.9968293118,
				"z": 3.4273316383,
				"element": "H" 
			}
		],
		 "valence_orbital": [ 
			{
				"type": "occ",
				"energy": -0.30125,
				"method": "rhf"
			},
			{
				"type": "occ",
				"energy": -0.28794,
				"method": "rhf"
			},
			{
				"type": "occ",
				"energy": -0.28328,
				"method": "rhf"
			},
			{
				"type": "occ",
				"energy": -0.26851,
				"method": "rhf"
			},
			{
				"type": "occ",
				"energy": -0.21786,
				"method": "rhf"
			},
			{
				"type": "unocc",
				"energy": -0.05719,
				"method": "rhf"
			},
			{
				"type": "unocc",
				"energy": -0.00831,
				"method": "rhf"
			},
			{
				"type": "unocc",
				"energy": 0.00849,
				"method": "rhf"
			},
			{
				"type": "unocc",
				"energy": 0.01473,
				"method": "rhf"
			},
			{
				"type": "unocc",
				"energy": 0.07372,
				"method": "rhf"
			}
		],
		"cosmo_sigma_profile": { 
			"-0.025": 0.0,
			"-0.024": 0.0,
			"-0.023": 0.0,
			"-0.022": 0.0,
			"-0.021": 0.0,
			"-0.02": 0.0,
			"-0.019": 0.0,
			"-0.018": 0.250976906826,
			"-0.017": 1.06578688021,
			"-0.016": 0.954647937812,
			"-0.015": 0.942414564792,
			"-0.014": 0.770453179436,
			"-0.013": 0.747838505867,
			"-0.012": 0.704339231374,
			"-0.011": 0.808651895773,
			"-0.01": 0.524451603795,
			"-0.009": 2.45114678316,
			"-0.008": 4.49775502497,
			"-0.007": 5.7060058315,
			"-0.006": 6.02781225367,
			"-0.005": 7.09707633144,
			"-0.004": 7.652709171,
			"-0.003": 6.45610524899,
			"-0.002": 9.721386069,
			"-0.001": 11.9892228282,
			"0.0": 14.2579574106,
			"0.001": 20.1640934633,
			"0.002": 25.1454813128,
			"0.003": 26.8080331586,
			"0.004": 9.85629813151,
			"0.005": 4.12265221732,
			"0.006": 2.66810419754,
			"0.007": 3.30009958063,
			"0.008": 2.67711433755,
			"0.009": 2.79179840718,
			"0.01": 3.00414760729,
			"0.011": 1.23199386256,
			"0.012": 0.117585926316,
			"0.013": 0.0,
			"0.014": 0.0,
			"0.015": 0.0,
			"0.016": 0.0,
			"0.017": 0.0,
			"0.018": 0.0,
			"0.019": 0.0,
			"0.02": 0.0,
			"0.021": 0.0,
			"0.022": 0.0,
			"0.023": 0.0,
			"0.024": 0.0,
			"0.025": 0.0
		}
	}
}
