{
	 "smiles": "CN1C=C(C(=O)N(C)C1=O)S(Cl)(=O)=O", 
	 "Tm": 481.15, 
	 "num_atms": 21, 
	 "gaussian": { 
		 "optdone": 1, 
		 "sigma_profile": "yes", 
		 "theory": "DFT", 
		 "functional": "B3LYP", 
		 "basiset": "6-31G**", 
		 "properties": { 
			 "R2extent": 4707.6834, 
			 "electric_dipole_moment_norm": 6.13092852348, 
			 "electric_quadrupole_moment_norm": 22.8482743397, 
			 "total_energy": -1501.59010606, 
			 "HOMO_LUMO_gap": 0.19, 
			 "cosmo_polarized_energy": -20.02, 
			 "cosmo_cavitation_energy": 28.84, 
			 "cosmo_dispersion_energy": -21.52, 
			 "cosmo_repulsion_energy": 1.63, 
			 "cosmo_total_nonelectrostatic_energy": 8.95, 
			 "SMD_solvation_energy": 5.49 
		},
		"coords": [
			{
				"x": 1.66242055,
				"y": -2.1771740171,
				"z": -0.6188420069,
				"element": "C" 
			},
			{
				"x": 0.8126724096,
				"y": -1.1933091423,
				"z": 0.063594343,
				"element": "N" 
			},
			{
				"x": -0.1694867726,
				"y": -1.5599578833,
				"z": 0.9188466079,
				"element": "C" 
			},
			{
				"x": -0.9618384491,
				"y": -0.6425763144,
				"z": 1.5370147686,
				"element": "C" 
			},
			{
				"x": -0.7772003606,
				"y": 0.7928814959,
				"z": 1.3340375144,
				"element": "C" 
			},
			{
				"x": -1.4188089211,
				"y": 1.6707461916,
				"z": 1.8791236301,
				"element": "O" 
			},
			{
				"x": 0.2665215571,
				"y": 1.0896862825,
				"z": 0.4182277608,
				"element": "N" 
			},
			{
				"x": 0.5483153209,
				"y": 2.5008447338,
				"z": 0.1191158164,
				"element": "C" 
			},
			{
				"x": 1.0710712525,
				"y": 0.1650779979,
				"z": -0.2301861177,
				"element": "C" 
			},
			{
				"x": 1.9558598114,
				"y": 0.473187087,
				"z": -1.0074181351,
				"element": "O" 
			},
			{
				"x": -2.2537852824,
				"y": -1.251247033,
				"z": 2.5802293036,
				"element": "S" 
			},
			{
				"x": -1.6042648528,
				"y": -0.6205430199,
				"z": 4.4926646926,
				"element": "Cl" 
			},
			{
				"x": -2.1570561721,
				"y": -2.7098766689,
				"z": 2.579006692,
				"element": "O" 
			},
			{
				"x": -3.507545653,
				"y": -0.5689401668,
				"z": 2.3098144408,
				"element": "O" 
			},
			{
				"x": 1.5474593511,
				"y": -2.0824323969,
				"z": -1.700091617,
				"element": "H" 
			},
			{
				"x": 1.363080127,
				"y": -3.174918782,
				"z": -0.2981055287,
				"element": "H" 
			},
			{
				"x": 2.7094068118,
				"y": -2.0020496682,
				"z": -0.365640908,
				"element": "H" 
			},
			{
				"x": -0.3065372002,
				"y": -2.6215540968,
				"z": 1.0924151074,
				"element": "H" 
			},
			{
				"x": 1.5740832931,
				"y": 2.7417639441,
				"z": 0.4051624231,
				"element": "H" 
			},
			{
				"x": 0.4327890768,
				"y": 2.6803830414,
				"z": -0.9514068932,
				"element": "H" 
			},
			{
				"x": -0.1585558975,
				"y": 3.0994084153,
				"z": 0.6885381059,
				"element": "H" 
			}
		],
		 "valence_orbital": [ 
			{
				"type": "occ",
				"energy": -0.31952,
				"method": "rhf"
			},
			{
				"type": "occ",
				"energy": -0.31293,
				"method": "rhf"
			},
			{
				"type": "occ",
				"energy": -0.29726,
				"method": "rhf"
			},
			{
				"type": "occ",
				"energy": -0.28948,
				"method": "rhf"
			},
			{
				"type": "occ",
				"energy": -0.27903,
				"method": "rhf"
			},
			{
				"type": "unocc",
				"energy": -0.08903,
				"method": "rhf"
			},
			{
				"type": "unocc",
				"energy": -0.06662,
				"method": "rhf"
			},
			{
				"type": "unocc",
				"energy": -0.02423,
				"method": "rhf"
			},
			{
				"type": "unocc",
				"energy": 0.03762,
				"method": "rhf"
			},
			{
				"type": "unocc",
				"energy": 0.05461,
				"method": "rhf"
			}
		],
		"cosmo_sigma_profile": { 
			"-0.025": 0.0,
			"-0.024": 0.0,
			"-0.023": 0.0,
			"-0.022": 0.0,
			"-0.021": 0.0,
			"-0.02": 0.0,
			"-0.019": 0.0,
			"-0.018": 0.0,
			"-0.017": 0.0,
			"-0.016": 0.0,
			"-0.015": 0.0,
			"-0.014": 0.530935797368,
			"-0.013": 1.54354278931,
			"-0.012": 1.39650643576,
			"-0.011": 1.49117551528,
			"-0.01": 1.50463729377,
			"-0.009": 3.27556433901,
			"-0.008": 4.95782149325,
			"-0.007": 12.2264511449,
			"-0.006": 20.6375476094,
			"-0.005": 20.4868194356,
			"-0.004": 20.1827529233,
			"-0.003": 14.2169958159,
			"-0.002": 10.1658163521,
			"-0.001": 8.20046017637,
			"0.0": 9.08356363761,
			"0.001": 7.98697780182,
			"0.002": 11.1585652141,
			"0.003": 14.7995126262,
			"0.004": 8.68448907944,
			"0.005": 7.38381529407,
			"0.006": 5.39683369384,
			"0.007": 9.26393319432,
			"0.008": 13.1213505797,
			"0.009": 8.61884551777,
			"0.01": 5.27656176215,
			"0.011": 9.53036206528,
			"0.012": 2.11242239641,
			"0.013": 0.0,
			"0.014": 0.0,
			"0.015": 0.0,
			"0.016": 0.0,
			"0.017": 0.0,
			"0.018": 0.0,
			"0.019": 0.0,
			"0.02": 0.0,
			"0.021": 0.0,
			"0.022": 0.0,
			"0.023": 0.0,
			"0.024": 0.0,
			"0.025": 0.0
		}
	}
}
