{
	 "smiles": "C1CN2CCC1C(C2)N1C2=CC=CC=C2CCC2=C1C=CC=C2", 
	 "Tm": 423.15, 
	 "num_atms": 47, 
	 "gaussian": { 
		 "optdone": 1, 
		 "sigma_profile": "yes", 
		 "theory": "DFT", 
		 "functional": "B3LYP", 
		 "basiset": "6-31G**", 
		 "properties": { 
			 "R2extent": 7386.9186, 
			 "electric_dipole_moment_norm": 0.666446674536, 
			 "electric_quadrupole_moment_norm": 10.1385674254, 
			 "total_energy": -924.186699809, 
			 "HOMO_LUMO_gap": 0.1922, 
			 "cosmo_polarized_energy": -8.12, 
			 "cosmo_cavitation_energy": 43.69, 
			 "cosmo_dispersion_energy": -30.41, 
			 "cosmo_repulsion_energy": 2.26, 
			 "cosmo_total_nonelectrostatic_energy": 15.54, 
			 "SMD_solvation_energy": 2.51 
		},
		"coords": [
			{
				"x": 1.3246084022,
				"y": -2.2933811609,
				"z": 1.6960865221,
				"element": "C" 
			},
			{
				"x": 2.524253747,
				"y": -1.7221165314,
				"z": 0.8774277981,
				"element": "C" 
			},
			{
				"x": 2.3052194632,
				"y": -0.3122551761,
				"z": 0.5224125388,
				"element": "N" 
			},
			{
				"x": 2.1131726721,
				"y": 0.4797555746,
				"z": 1.7483376845,
				"element": "C" 
			},
			{
				"x": 0.8380467256,
				"y": 0.0276500856,
				"z": 2.522274884,
				"element": "C" 
			},
			{
				"x": 0.2451784731,
				"y": -1.195767726,
				"z": 1.7969295824,
				"element": "C" 
			},
			{
				"x": -0.1694386319,
				"y": -0.8147634154,
				"z": 0.3501774227,
				"element": "C" 
			},
			{
				"x": 1.1114073074,
				"y": -0.194101333,
				"z": -0.3213468129,
				"element": "C" 
			},
			{
				"x": -1.301043298,
				"y": 0.1319194141,
				"z": 0.3165914086,
				"element": "N" 
			},
			{
				"x": -1.5215617585,
				"y": 0.8560857038,
				"z": -0.9041773043,
				"element": "C" 
			},
			{
				"x": -1.4191803203,
				"y": 0.2540529087,
				"z": -2.1637871571,
				"element": "C" 
			},
			{
				"x": -1.6424624894,
				"y": 1.0009788667,
				"z": -3.3215324813,
				"element": "C" 
			},
			{
				"x": -1.9853100293,
				"y": 2.3499383661,
				"z": -3.2265506493,
				"element": "C" 
			},
			{
				"x": -2.0947588299,
				"y": 2.9482309013,
				"z": -1.969725531,
				"element": "C" 
			},
			{
				"x": -1.8567007032,
				"y": 2.2187547453,
				"z": -0.8014732599,
				"element": "C" 
			},
			{
				"x": -1.9507003461,
				"y": 2.8216060533,
				"z": 0.574771065,
				"element": "C" 
			},
			{
				"x": -3.1670956819,
				"y": 2.3114676874,
				"z": 1.3682316588,
				"element": "C" 
			},
			{
				"x": -3.3783907877,
				"y": 0.8054121821,
				"z": 1.4973140946,
				"element": "C" 
			},
			{
				"x": -2.5139665069,
				"y": -0.2022276511,
				"z": 1.0088972895,
				"element": "C" 
			},
			{
				"x": -2.873563602,
				"y": -1.5507312859,
				"z": 1.1912555578,
				"element": "C" 
			},
			{
				"x": -4.0340365323,
				"y": -1.9160739647,
				"z": 1.8668763858,
				"element": "C" 
			},
			{
				"x": -4.8852571791,
				"y": -0.927989241,
				"z": 2.3586139776,
				"element": "C" 
			},
			{
				"x": -4.5510974749,
				"y": 0.4077156245,
				"z": 2.1568319919,
				"element": "C" 
			},
			{
				"x": 0.91236681,
				"y": -3.1906565106,
				"z": 1.2184323534,
				"element": "H" 
			},
			{
				"x": 1.6376295211,
				"y": -2.5875494577,
				"z": 2.7044782077,
				"element": "H" 
			},
			{
				"x": 3.4593541258,
				"y": -1.7903631435,
				"z": 1.4440927242,
				"element": "H" 
			},
			{
				"x": 2.670907528,
				"y": -2.283513003,
				"z": -0.0522392103,
				"element": "H" 
			},
			{
				"x": 3.0132022865,
				"y": 0.368365085,
				"z": 2.363276992,
				"element": "H" 
			},
			{
				"x": 2.0486231742,
				"y": 1.5352715004,
				"z": 1.4616690843,
				"element": "H" 
			},
			{
				"x": 0.0938018468,
				"y": 0.82842244,
				"z": 2.5636729183,
				"element": "H" 
			},
			{
				"x": 1.0773537782,
				"y": -0.2428414244,
				"z": 3.5572189568,
				"element": "H" 
			},
			{
				"x": -0.6142540769,
				"y": -1.5742838637,
				"z": 2.3533973547,
				"element": "H" 
			},
			{
				"x": -0.4196781558,
				"y": -1.7506983441,
				"z": -0.1794941682,
				"element": "H" 
			},
			{
				"x": 0.949391619,
				"y": 0.8674554003,
				"z": -0.525805989,
				"element": "H" 
			},
			{
				"x": 1.3165230858,
				"y": -0.6804871653,
				"z": -1.280460781,
				"element": "H" 
			},
			{
				"x": -1.1703240203,
				"y": -0.8001505573,
				"z": -2.2387197934,
				"element": "H" 
			},
			{
				"x": -1.5582544304,
				"y": 0.5248524289,
				"z": -4.2943743444,
				"element": "H" 
			},
			{
				"x": -2.1627835985,
				"y": 2.9343792133,
				"z": -4.1246271217,
				"element": "H" 
			},
			{
				"x": -2.3531581949,
				"y": 4.0017206992,
				"z": -1.892259414,
				"element": "H" 
			},
			{
				"x": -1.0339032113,
				"y": 2.5887588711,
				"z": 1.1278084225,
				"element": "H" 
			},
			{
				"x": -2.0198551872,
				"y": 3.91269631,
				"z": 0.503537986,
				"element": "H" 
			},
			{
				"x": -3.1276784309,
				"y": 2.7402410422,
				"z": 2.3788641227,
				"element": "H" 
			},
			{
				"x": -4.0714237677,
				"y": 2.729476033,
				"z": 0.9063077726,
				"element": "H" 
			},
			{
				"x": -2.2343618795,
				"y": -2.3278920523,
				"z": 0.7874730213,
				"element": "H" 
			},
			{
				"x": -4.2746696428,
				"y": -2.9679153657,
				"z": 1.9935108634,
				"element": "H" 
			},
			{
				"x": -5.7974719718,
				"y": -1.1912771351,
				"z": 2.8856182972,
				"element": "H" 
			},
			{
				"x": -5.2158598265,
				"y": 1.1840283714,
				"z": 2.5304850783,
				"element": "H" 
			}
		],
		 "valence_orbital": [ 
			{
				"type": "occ",
				"energy": -0.24231,
				"method": "rhf"
			},
			{
				"type": "occ",
				"energy": -0.23732,
				"method": "rhf"
			},
			{
				"type": "occ",
				"energy": -0.22934,
				"method": "rhf"
			},
			{
				"type": "occ",
				"energy": -0.20516,
				"method": "rhf"
			},
			{
				"type": "occ",
				"energy": -0.1959,
				"method": "rhf"
			},
			{
				"type": "unocc",
				"energy": -0.0037,
				"method": "rhf"
			},
			{
				"type": "unocc",
				"energy": 0.00121,
				"method": "rhf"
			},
			{
				"type": "unocc",
				"energy": 0.00784,
				"method": "rhf"
			},
			{
				"type": "unocc",
				"energy": 0.01242,
				"method": "rhf"
			},
			{
				"type": "unocc",
				"energy": 0.06698,
				"method": "rhf"
			}
		],
		"cosmo_sigma_profile": { 
			"-0.025": 0.0,
			"-0.024": 0.0,
			"-0.023": 0.0,
			"-0.022": 0.0,
			"-0.021": 0.0,
			"-0.02": 0.0,
			"-0.019": 0.0,
			"-0.018": 0.0,
			"-0.017": 0.0,
			"-0.016": 0.0,
			"-0.015": 0.0,
			"-0.014": 0.0,
			"-0.013": 0.0,
			"-0.012": 0.0,
			"-0.011": 0.0,
			"-0.01": 0.0,
			"-0.009": 0.0,
			"-0.008": 0.0,
			"-0.007": 0.0,
			"-0.006": 1.75167861452,
			"-0.005": 15.7882198809,
			"-0.004": 24.2084654968,
			"-0.003": 49.1118469809,
			"-0.002": 50.8058898586,
			"-0.001": 41.8972624369,
			"0.0": 37.1491955559,
			"0.001": 27.65375192,
			"0.002": 18.4474021965,
			"0.003": 15.5719120204,
			"0.004": 16.1139714703,
			"0.005": 14.8352691349,
			"0.006": 14.9246150962,
			"0.007": 6.56433490214,
			"0.008": 1.01310729351,
			"0.009": 1.41894446175,
			"0.01": 0.526164138598,
			"0.011": 0.534830242211,
			"0.012": 0.827908425431,
			"0.013": 0.527910283689,
			"0.014": 0.326022861143,
			"0.015": 0.544933530217,
			"0.016": 0.895881802539,
			"0.017": 0.304861710728,
			"0.018": 0.311693464058,
			"0.019": 0.0,
			"0.02": 0.0,
			"0.021": 0.0,
			"0.022": 0.0,
			"0.023": 0.0,
			"0.024": 0.0,
			"0.025": 0.0
		}
	}
}
