{
	 "smiles": "O=C1CC(OC2=CC=CC=C12)C1=CC=CC=C1", 
	 "Tm": 350.15, 
	 "num_atms": 29, 
	 "gaussian": { 
		 "optdone": 1, 
		 "sigma_profile": "yes", 
		 "theory": "DFT", 
		 "functional": "B3LYP", 
		 "basiset": "6-31G**", 
		 "properties": { 
			 "R2extent": 3992.6899, 
			 "electric_dipole_moment_norm": 2.41637286444, 
			 "electric_quadrupole_moment_norm": 7.25294023552, 
			 "total_energy": -729.275654857, 
			 "HOMO_LUMO_gap": 0.17442, 
			 "cosmo_polarized_energy": -10.23, 
			 "cosmo_cavitation_energy": 32.16, 
			 "cosmo_dispersion_energy": -23.02, 
			 "cosmo_repulsion_energy": 1.77, 
			 "cosmo_total_nonelectrostatic_energy": 10.9, 
			 "SMD_solvation_energy": 5.69 
		},
		"coords": [
			{
				"x": -2.2973039524,
				"y": -0.9607643239,
				"z": -2.2453493958,
				"element": "O" 
			},
			{
				"x": -1.7429029169,
				"y": 0.051476488,
				"z": -1.8426493792,
				"element": "C" 
			},
			{
				"x": -0.560870532,
				"y": 0.675090452,
				"z": -2.5741156256,
				"element": "C" 
			},
			{
				"x": 0.4142317724,
				"y": 1.3437955265,
				"z": -1.6056541987,
				"element": "C" 
			},
			{
				"x": -0.2921451797,
				"y": 2.3315580592,
				"z": -0.8065407186,
				"element": "O" 
			},
			{
				"x": -1.4492166203,
				"y": 1.9256483279,
				"z": -0.2108536529,
				"element": "C" 
			},
			{
				"x": -1.9105138459,
				"y": 2.6874108153,
				"z": 0.8699177726,
				"element": "C" 
			},
			{
				"x": -3.090073059,
				"y": 2.3257686338,
				"z": 1.5113782308,
				"element": "C" 
			},
			{
				"x": -3.8226518825,
				"y": 1.2026799083,
				"z": 1.0968249711,
				"element": "C" 
			},
			{
				"x": -3.3669577823,
				"y": 0.4534606335,
				"z": 0.0221748282,
				"element": "C" 
			},
			{
				"x": -2.1855811881,
				"y": 0.8070141168,
				"z": -0.6515307699,
				"element": "C" 
			},
			{
				"x": 1.2040176648,
				"y": 0.4074453563,
				"z": -0.696128056,
				"element": "C" 
			},
			{
				"x": 1.1469074787,
				"y": -0.9873134243,
				"z": -0.79510826,
				"element": "C" 
			},
			{
				"x": 1.9183579704,
				"y": -1.7904028736,
				"z": 0.0504791947,
				"element": "C" 
			},
			{
				"x": 2.7533817618,
				"y": -1.2102470844,
				"z": 1.0031477573,
				"element": "C" 
			},
			{
				"x": 2.8155501148,
				"y": 0.1822494877,
				"z": 1.110294737,
				"element": "C" 
			},
			{
				"x": 2.0487985401,
				"y": 0.9815165802,
				"z": 0.2666098402,
				"element": "C" 
			},
			{
				"x": -0.9627962096,
				"y": 1.4494769239,
				"z": -3.2410673718,
				"element": "H" 
			},
			{
				"x": -0.0734374244,
				"y": -0.0733666194,
				"z": -3.2022548587,
				"element": "H" 
			},
			{
				"x": 1.123273532,
				"y": 1.9547338879,
				"z": -2.1731549737,
				"element": "H" 
			},
			{
				"x": -1.3274465944,
				"y": 3.543926413,
				"z": 1.1912166892,
				"element": "H" 
			},
			{
				"x": -3.4403346198,
				"y": 2.9196011929,
				"z": 2.3511008571,
				"element": "H" 
			},
			{
				"x": -4.7382326202,
				"y": 0.9278250211,
				"z": 1.610695992,
				"element": "H" 
			},
			{
				"x": -3.908769936,
				"y": -0.414827226,
				"z": -0.3394620272,
				"element": "H" 
			},
			{
				"x": 0.497523024,
				"y": -1.4648028105,
				"z": -1.5211667478,
				"element": "H" 
			},
			{
				"x": 1.8584407584,
				"y": -2.8713238304,
				"z": -0.0373618745,
				"element": "H" 
			},
			{
				"x": 3.351779325,
				"y": -1.8357932219,
				"z": 1.6592104448,
				"element": "H" 
			},
			{
				"x": 3.4632653024,
				"y": 0.6437237343,
				"z": 1.8503087119,
				"element": "H" 
			},
			{
				"x": 2.0911071186,
				"y": 2.0632398558,
				"z": 0.3561378836,
				"element": "H" 
			}
		],
		 "valence_orbital": [ 
			{
				"type": "occ",
				"energy": -0.25942,
				"method": "rhf"
			},
			{
				"type": "occ",
				"energy": -0.25426,
				"method": "rhf"
			},
			{
				"type": "occ",
				"energy": -0.25336,
				"method": "rhf"
			},
			{
				"type": "occ",
				"energy": -0.24428,
				"method": "rhf"
			},
			{
				"type": "occ",
				"energy": -0.23008,
				"method": "rhf"
			},
			{
				"type": "unocc",
				"energy": -0.05566,
				"method": "rhf"
			},
			{
				"type": "unocc",
				"energy": -0.0121,
				"method": "rhf"
			},
			{
				"type": "unocc",
				"energy": -0.00471,
				"method": "rhf"
			},
			{
				"type": "unocc",
				"energy": 0.00137,
				"method": "rhf"
			},
			{
				"type": "unocc",
				"energy": 0.04202,
				"method": "rhf"
			}
		],
		"cosmo_sigma_profile": { 
			"-0.025": 0.0,
			"-0.024": 0.0,
			"-0.023": 0.0,
			"-0.022": 0.0,
			"-0.021": 0.0,
			"-0.02": 0.0,
			"-0.019": 0.0,
			"-0.018": 0.0,
			"-0.017": 0.0,
			"-0.016": 0.0,
			"-0.015": 0.0,
			"-0.014": 0.0,
			"-0.013": 0.0,
			"-0.012": 0.0,
			"-0.011": 0.0,
			"-0.01": 0.0,
			"-0.009": 0.0,
			"-0.008": 0.139985970831,
			"-0.007": 7.16592131208,
			"-0.006": 20.2968400306,
			"-0.005": 24.1696973277,
			"-0.004": 25.8348477114,
			"-0.003": 18.7232793288,
			"-0.002": 13.9063368818,
			"-0.001": 13.2072289618,
			"0.0": 14.9459581789,
			"0.001": 16.9375661848,
			"0.002": 22.1850510954,
			"0.003": 22.7319139968,
			"0.004": 20.4165833261,
			"0.005": 12.5836874226,
			"0.006": 5.6417626239,
			"0.007": 2.64799696339,
			"0.008": 2.16998134919,
			"0.009": 1.85540623269,
			"0.01": 2.53343082071,
			"0.011": 2.85635412133,
			"0.012": 4.47554658897,
			"0.013": 1.60022373973,
			"0.014": 0.161371724565,
			"0.015": 0.0,
			"0.016": 0.0,
			"0.017": 0.0,
			"0.018": 0.0,
			"0.019": 0.0,
			"0.02": 0.0,
			"0.021": 0.0,
			"0.022": 0.0,
			"0.023": 0.0,
			"0.024": 0.0,
			"0.025": 0.0
		}
	}
}
