{
	 "smiles": "CC1=CNC=N1", 
	 "Tm": 326.65, 
	 "num_atms": 12, 
	 "gaussian": { 
		 "optdone": 1, 
		 "sigma_profile": "yes", 
		 "theory": "DFT", 
		 "functional": "B3LYP", 
		 "basiset": "6-31G**", 
		 "properties": { 
			 "R2extent": 657.8495, 
			 "electric_dipole_moment_norm": 3.3652227638, 
			 "electric_quadrupole_moment_norm": 7.50385558496, 
			 "total_energy": -265.540932249, 
			 "HOMO_LUMO_gap": 0.25223, 
			 "cosmo_polarized_energy": -11.27, 
			 "cosmo_cavitation_energy": 15.54, 
			 "cosmo_dispersion_energy": -11.9, 
			 "cosmo_repulsion_energy": 1.04, 
			 "cosmo_total_nonelectrostatic_energy": 4.67, 
			 "SMD_solvation_energy": 1.88 
		},
		"coords": [
			{
				"x": 2.0304034412,
				"y": -1.0415526467,
				"z": 0.4508108056,
				"element": "C" 
			},
			{
				"x": 0.6987342895,
				"y": -0.4746874127,
				"z": 0.8331374616,
				"element": "C" 
			},
			{
				"x": 0.3312997693,
				"y": 0.1331116216,
				"z": 2.0102603741,
				"element": "C" 
			},
			{
				"x": -0.9995829662,
				"y": 0.4728649125,
				"z": 1.8538683214,
				"element": "N" 
			},
			{
				"x": -1.3719841236,
				"y": 0.0607958469,
				"z": 0.6062393275,
				"element": "C" 
			},
			{
				"x": -0.3775445993,
				"y": -0.5121941959,
				"z": -0.0345533291,
				"element": "N" 
			},
			{
				"x": 1.9505589158,
				"y": -2.1088153948,
				"z": 0.2166892452,
				"element": "H" 
			},
			{
				"x": 2.4269346452,
				"y": -0.5455026555,
				"z": -0.4419008696,
				"element": "H" 
			},
			{
				"x": 2.7575160267,
				"y": -0.9225345437,
				"z": 1.2592728281,
				"element": "H" 
			},
			{
				"x": 0.8765020366,
				"y": 0.3486229355,
				"z": 2.9163527573,
				"element": "H" 
			},
			{
				"x": -1.5817852234,
				"y": 0.936680364,
				"z": 2.5337151202,
				"element": "H" 
			},
			{
				"x": -2.3738522118,
				"y": 0.2054111689,
				"z": 0.2247079578,
				"element": "H" 
			}
		],
		 "valence_orbital": [ 
			{
				"type": "occ",
				"energy": -0.38132,
				"method": "rhf"
			},
			{
				"type": "occ",
				"energy": -0.36882,
				"method": "rhf"
			},
			{
				"type": "occ",
				"energy": -0.2679,
				"method": "rhf"
			},
			{
				"type": "occ",
				"energy": -0.25815,
				"method": "rhf"
			},
			{
				"type": "occ",
				"energy": -0.21563,
				"method": "rhf"
			},
			{
				"type": "unocc",
				"energy": 0.0366,
				"method": "rhf"
			},
			{
				"type": "unocc",
				"energy": 0.07425,
				"method": "rhf"
			},
			{
				"type": "unocc",
				"energy": 0.07768,
				"method": "rhf"
			},
			{
				"type": "unocc",
				"energy": 0.12503,
				"method": "rhf"
			},
			{
				"type": "unocc",
				"energy": 0.14464,
				"method": "rhf"
			}
		],
		"cosmo_sigma_profile": { 
			"-0.025": 0.0,
			"-0.024": 0.0,
			"-0.023": 0.0,
			"-0.022": 0.0,
			"-0.021": 0.0,
			"-0.02": 0.0,
			"-0.019": 0.0,
			"-0.018": 0.0,
			"-0.017": 0.0,
			"-0.016": 1.34666181165,
			"-0.015": 1.91746149759,
			"-0.014": 1.42070250786,
			"-0.013": 0.956828510078,
			"-0.012": 1.04504720452,
			"-0.011": 1.4276624435,
			"-0.01": 1.13275962658,
			"-0.009": 1.46590587529,
			"-0.008": 4.13990558453,
			"-0.007": 5.53108659441,
			"-0.006": 3.16805053816,
			"-0.005": 4.08548817108,
			"-0.004": 6.16970826231,
			"-0.003": 8.4414279292,
			"-0.002": 8.21680765075,
			"-0.001": 8.31518885087,
			"0.0": 10.8411956402,
			"0.001": 8.73541386436,
			"0.002": 5.15875027085,
			"0.003": 6.00161204451,
			"0.004": 5.36135622601,
			"0.005": 6.66910081047,
			"0.006": 5.04236233299,
			"0.007": 2.65887130176,
			"0.008": 1.54914639688,
			"0.009": 1.51468656704,
			"0.01": 2.00364959423,
			"0.011": 1.22153993431,
			"0.012": 0.865231030349,
			"0.013": 0.926093047983,
			"0.014": 1.66047610356,
			"0.015": 1.16300304385,
			"0.016": 0.833455912973,
			"0.017": 0.945138530081,
			"0.018": 1.26185770455,
			"0.019": 0.277536322659,
			"0.02": 0.0,
			"0.021": 0.0,
			"0.022": 0.0,
			"0.023": 0.0,
			"0.024": 0.0,
			"0.025": 0.0
		}
	}
}
