{
	 "smiles": "CCOC=C1C(=O)N(C(=O)C2=C1C=CC=C2)C1=NC=CC=C1", 
	 "Tm": 505.15, 
	 "num_atms": 36, 
	 "gaussian": { 
		 "optdone": 1, 
		 "sigma_profile": "yes", 
		 "theory": "DFT", 
		 "functional": "B3LYP", 
		 "basiset": "6-31G**", 
		 "properties": { 
			 "R2extent": 7873.7152, 
			 "electric_dipole_moment_norm": 4.70938833714, 
			 "electric_quadrupole_moment_norm": 14.9904381981, 
			 "total_energy": -991.434115062, 
			 "HOMO_LUMO_gap": 0.15893, 
			 "cosmo_polarized_energy": -19.58, 
			 "cosmo_cavitation_energy": 40.93, 
			 "cosmo_dispersion_energy": -28.8, 
			 "cosmo_repulsion_energy": 2.19, 
			 "cosmo_total_nonelectrostatic_energy": 14.33, 
			 "SMD_solvation_energy": 7.23 
		},
		"coords": [
			{
				"x": -3.0055481828,
				"y": -0.153318953,
				"z": -3.432077452,
				"element": "C" 
			},
			{
				"x": -3.5214876638,
				"y": -0.0638611894,
				"z": -2.0044274322,
				"element": "C" 
			},
			{
				"x": -2.57630672,
				"y": 0.6101256841,
				"z": -1.1443621751,
				"element": "O" 
			},
			{
				"x": -1.6076936444,
				"y": -0.143682164,
				"z": -0.6151812402,
				"element": "C" 
			},
			{
				"x": -0.5688942948,
				"y": 0.3241033407,
				"z": 0.1290354994,
				"element": "C" 
			},
			{
				"x": 0.3291130453,
				"y": -0.7680949383,
				"z": 0.5925219278,
				"element": "C" 
			},
			{
				"x": 0.1335973205,
				"y": -1.9551988251,
				"z": 0.3597110202,
				"element": "O" 
			},
			{
				"x": 1.4532061986,
				"y": -0.3841388846,
				"z": 1.3393660472,
				"element": "N" 
			},
			{
				"x": 1.7845824398,
				"y": 0.929037583,
				"z": 1.7142928473,
				"element": "C" 
			},
			{
				"x": 2.7800566087,
				"y": 1.1431384055,
				"z": 2.389894968,
				"element": "O" 
			},
			{
				"x": 0.8670877417,
				"y": 1.9981418911,
				"z": 1.2550822747,
				"element": "C" 
			},
			{
				"x": -0.2808430014,
				"y": 1.7175544116,
				"z": 0.4814982974,
				"element": "C" 
			},
			{
				"x": -1.0907701006,
				"y": 2.8042239082,
				"z": 0.0921373258,
				"element": "C" 
			},
			{
				"x": -0.7626091258,
				"y": 4.1048017064,
				"z": 0.4610476975,
				"element": "C" 
			},
			{
				"x": 0.377712505,
				"y": 4.3685646586,
				"z": 1.2276889367,
				"element": "C" 
			},
			{
				"x": 1.1874374095,
				"y": 3.3117029368,
				"z": 1.621450236,
				"element": "C" 
			},
			{
				"x": 2.3816334787,
				"y": -1.429747951,
				"z": 1.7124554905,
				"element": "C" 
			},
			{
				"x": 3.316901063,
				"y": -1.724768775,
				"z": 0.8169949249,
				"element": "N" 
			},
			{
				"x": 4.1891823339,
				"y": -2.6874313485,
				"z": 1.1399371459,
				"element": "C" 
			},
			{
				"x": 4.1600709092,
				"y": -3.378045871,
				"z": 2.351354619,
				"element": "C" 
			},
			{
				"x": 3.1698692649,
				"y": -3.0497170138,
				"z": 3.2772938064,
				"element": "C" 
			},
			{
				"x": 2.2549236412,
				"y": -2.0512408639,
				"z": 2.9537060991,
				"element": "C" 
			},
			{
				"x": -3.7617719059,
				"y": -0.618004138,
				"z": -4.0729921662,
				"element": "H" 
			},
			{
				"x": -2.0950672327,
				"y": -0.7579098532,
				"z": -3.4853219144,
				"element": "H" 
			},
			{
				"x": -2.7830373522,
				"y": 0.8424344043,
				"z": -3.8253638118,
				"element": "H" 
			},
			{
				"x": -4.4314955789,
				"y": 0.5377548828,
				"z": -1.9453865878,
				"element": "H" 
			},
			{
				"x": -3.7369003151,
				"y": -1.0557605894,
				"z": -1.5895111837,
				"element": "H" 
			},
			{
				"x": -1.6667030052,
				"y": -1.2173612527,
				"z": -0.7846455326,
				"element": "H" 
			},
			{
				"x": -1.9770110645,
				"y": 2.6236628027,
				"z": -0.4994984304,
				"element": "H" 
			},
			{
				"x": -1.4053039302,
				"y": 4.9226251069,
				"z": 0.1465841559,
				"element": "H" 
			},
			{
				"x": 0.6270125882,
				"y": 5.386411332,
				"z": 1.5115178605,
				"element": "H" 
			},
			{
				"x": 2.081300681,
				"y": 3.4671268055,
				"z": 2.2154792559,
				"element": "H" 
			},
			{
				"x": 4.9469824906,
				"y": -2.9140598963,
				"z": 0.3925539553,
				"element": "H" 
			},
			{
				"x": 4.8941947565,
				"y": -4.1495146116,
				"z": 2.5605205219,
				"element": "H" 
			},
			{
				"x": 3.1105068204,
				"y": -3.5607910203,
				"z": 4.2335998765,
				"element": "H" 
			},
			{
				"x": 1.4656718216,
				"y": -1.7550617213,
				"z": 3.6353431367,
				"element": "H" 
			}
		],
		 "valence_orbital": [ 
			{
				"type": "occ",
				"energy": -0.26091,
				"method": "rhf"
			},
			{
				"type": "occ",
				"energy": -0.25637,
				"method": "rhf"
			},
			{
				"type": "occ",
				"energy": -0.25423,
				"method": "rhf"
			},
			{
				"type": "occ",
				"energy": -0.24727,
				"method": "rhf"
			},
			{
				"type": "occ",
				"energy": -0.21916,
				"method": "rhf"
			},
			{
				"type": "unocc",
				"energy": -0.06023,
				"method": "rhf"
			},
			{
				"type": "unocc",
				"energy": -0.02557,
				"method": "rhf"
			},
			{
				"type": "unocc",
				"energy": -0.02063,
				"method": "rhf"
			},
			{
				"type": "unocc",
				"energy": -0.00983,
				"method": "rhf"
			},
			{
				"type": "unocc",
				"energy": 0.00199,
				"method": "rhf"
			}
		],
		"cosmo_sigma_profile": { 
			"-0.025": 0.0,
			"-0.024": 0.0,
			"-0.023": 0.0,
			"-0.022": 0.0,
			"-0.021": 0.0,
			"-0.02": 0.0,
			"-0.019": 0.0,
			"-0.018": 0.0,
			"-0.017": 0.0,
			"-0.016": 0.0,
			"-0.015": 0.0,
			"-0.014": 0.0,
			"-0.013": 0.0,
			"-0.012": 0.0,
			"-0.011": 0.0,
			"-0.01": 0.0883247099965,
			"-0.009": 1.55889041997,
			"-0.008": 4.95352836159,
			"-0.007": 13.9843908668,
			"-0.006": 21.9424233927,
			"-0.005": 26.956251532,
			"-0.004": 29.5135117702,
			"-0.003": 22.6827806411,
			"-0.002": 21.4561915278,
			"-0.001": 23.1046898091,
			"0.0": 23.2751949226,
			"0.001": 26.7423693996,
			"0.002": 27.4990659328,
			"0.003": 19.7630385787,
			"0.004": 14.1078151864,
			"0.005": 4.7242312917,
			"0.006": 4.57726328488,
			"0.007": 5.1043742636,
			"0.008": 5.36653454487,
			"0.009": 5.36073532511,
			"0.01": 5.31255921811,
			"0.011": 6.32708773046,
			"0.012": 10.1171492892,
			"0.013": 2.87169887846,
			"0.014": 0.738117511424,
			"0.015": 0.384523351878,
			"0.016": 0.0180877690306,
			"0.017": 0.0,
			"0.018": 0.0,
			"0.019": 0.0,
			"0.02": 0.0,
			"0.021": 0.0,
			"0.022": 0.0,
			"0.023": 0.0,
			"0.024": 0.0,
			"0.025": 0.0
		}
	}
}
