{
	 "smiles": "CC(N1N=NN=C1C(C)(C)C)C(O)=O", 
	 "Tm": 445.15, 
	 "num_atms": 28, 
	 "gaussian": { 
		 "optdone": 1, 
		 "sigma_profile": "yes", 
		 "theory": "DFT", 
		 "functional": "B3LYP", 
		 "basiset": "6-31G**", 
		 "properties": { 
			 "R2extent": 3556.7631, 
			 "electric_dipole_moment_norm": 6.61894163896, 
			 "electric_quadrupole_moment_norm": 18.0465315346, 
			 "total_energy": -682.69852911, 
			 "HOMO_LUMO_gap": 0.25058, 
			 "cosmo_polarized_energy": -22.89, 
			 "cosmo_cavitation_energy": 29.39, 
			 "cosmo_dispersion_energy": -20.72, 
			 "cosmo_repulsion_energy": 1.6, 
			 "cosmo_total_nonelectrostatic_energy": 10.26, 
			 "SMD_solvation_energy": 4.49 
		},
		"coords": [
			{
				"x": -2.098723402,
				"y": -0.2937300977,
				"z": 1.8559956566,
				"element": "C" 
			},
			{
				"x": -2.2565233746,
				"y": -1.2491272506,
				"z": 0.6619302692,
				"element": "C" 
			},
			{
				"x": -1.4404028259,
				"y": -0.8569525725,
				"z": -0.48702828,
				"element": "N" 
			},
			{
				"x": -2.1205246665,
				"y": -0.1696338478,
				"z": -1.4542525644,
				"element": "N" 
			},
			{
				"x": -1.2645942456,
				"y": 0.1531514464,
				"z": -2.3551148103,
				"element": "N" 
			},
			{
				"x": -0.0293569846,
				"y": -0.2899720544,
				"z": -2.0256884635,
				"element": "N" 
			},
			{
				"x": -0.1265908883,
				"y": -0.917146702,
				"z": -0.8614628426,
				"element": "C" 
			},
			{
				"x": 1.0858543626,
				"y": -1.5995797992,
				"z": -0.2361217942,
				"element": "C" 
			},
			{
				"x": 1.2215687164,
				"y": -3.0101517685,
				"z": -0.8631301431,
				"element": "C" 
			},
			{
				"x": 1.026281704,
				"y": -1.7106820317,
				"z": 1.2990797791,
				"element": "C" 
			},
			{
				"x": 2.3339112606,
				"y": -0.7640938817,
				"z": -0.6055104169,
				"element": "C" 
			},
			{
				"x": -2.1363626173,
				"y": -2.7580368031,
				"z": 0.9516716623,
				"element": "C" 
			},
			{
				"x": -2.4266081979,
				"y": -3.143744003,
				"z": 2.2155691815,
				"element": "O" 
			},
			{
				"x": -1.8709150796,
				"y": -3.5714561213,
				"z": 0.1064314426,
				"element": "O" 
			},
			{
				"x": -2.925054647,
				"y": -0.4192829812,
				"z": 2.5659297477,
				"element": "H" 
			},
			{
				"x": -2.1557011511,
				"y": 0.7359437678,
				"z": 1.4960254807,
				"element": "H" 
			},
			{
				"x": -1.1517887992,
				"y": -0.4241916451,
				"z": 2.3823121894,
				"element": "H" 
			},
			{
				"x": -3.2770398923,
				"y": -1.1272176136,
				"z": 0.2796384688,
				"element": "H" 
			},
			{
				"x": 0.3562335679,
				"y": -3.6362863302,
				"z": -0.6378880943,
				"element": "H" 
			},
			{
				"x": 2.1200965873,
				"y": -3.4980956803,
				"z": -0.4700426751,
				"element": "H" 
			},
			{
				"x": 1.3196266453,
				"y": -2.9333215804,
				"z": -1.9494369658,
				"element": "H" 
			},
			{
				"x": 0.9441325065,
				"y": -0.7259180804,
				"z": 1.7705896712,
				"element": "H" 
			},
			{
				"x": 1.9582534353,
				"y": -2.1613785511,
				"z": 1.6536046077,
				"element": "H" 
			},
			{
				"x": 0.2169625615,
				"y": -2.3509768356,
				"z": 1.6577522705,
				"element": "H" 
			},
			{
				"x": 2.2835629402,
				"y": 0.2393182465,
				"z": -0.1705271112,
				"element": "H" 
			},
			{
				"x": 2.4286013302,
				"y": -0.6552496366,
				"z": -1.6863574009,
				"element": "H" 
			},
			{
				"x": 3.2283681386,
				"y": -1.2619266262,
				"z": -0.2173631642,
				"element": "H" 
			},
			{
				"x": -2.5911669844,
				"y": -2.3820609662,
				"z": 2.7885942993,
				"element": "H" 
			}
		],
		 "valence_orbital": [ 
			{
				"type": "occ",
				"energy": -0.31172,
				"method": "rhf"
			},
			{
				"type": "occ",
				"energy": -0.29995,
				"method": "rhf"
			},
			{
				"type": "occ",
				"energy": -0.29135,
				"method": "rhf"
			},
			{
				"type": "occ",
				"energy": -0.28534,
				"method": "rhf"
			},
			{
				"type": "occ",
				"energy": -0.27437,
				"method": "rhf"
			},
			{
				"type": "unocc",
				"energy": -0.02379,
				"method": "rhf"
			},
			{
				"type": "unocc",
				"energy": -0.01556,
				"method": "rhf"
			},
			{
				"type": "unocc",
				"energy": 0.0251,
				"method": "rhf"
			},
			{
				"type": "unocc",
				"energy": 0.02747,
				"method": "rhf"
			},
			{
				"type": "unocc",
				"energy": 0.07783,
				"method": "rhf"
			}
		],
		"cosmo_sigma_profile": { 
			"-0.025": 0.0,
			"-0.024": 0.0,
			"-0.023": 0.0,
			"-0.022": 0.0,
			"-0.021": 0.0,
			"-0.02": 0.0,
			"-0.019": 0.13048579131,
			"-0.018": 0.943741831161,
			"-0.017": 1.13248667695,
			"-0.016": 1.4888167019,
			"-0.015": 1.16513651557,
			"-0.014": 1.38004094272,
			"-0.013": 1.27169638136,
			"-0.012": 2.02543843764,
			"-0.011": 2.82976038081,
			"-0.01": 2.82253956753,
			"-0.009": 2.78213796073,
			"-0.008": 2.96986539538,
			"-0.007": 3.45414625717,
			"-0.006": 7.84690817491,
			"-0.005": 12.8415424567,
			"-0.004": 18.7240936181,
			"-0.003": 20.2377732951,
			"-0.002": 19.115856251,
			"-0.001": 18.6228287032,
			"0.0": 20.7828223627,
			"0.001": 13.5101929653,
			"0.002": 5.81724761454,
			"0.003": 5.72699476891,
			"0.004": 5.58721148448,
			"0.005": 4.14226593324,
			"0.006": 6.99729469384,
			"0.007": 6.08170811935,
			"0.008": 7.71425320193,
			"0.009": 9.45330467024,
			"0.01": 9.14911617888,
			"0.011": 6.23891374178,
			"0.012": 3.89994615729,
			"0.013": 2.39920239499,
			"0.014": 1.37445505317,
			"0.015": 0.0631429010207,
			"0.016": 0.0,
			"0.017": 0.0,
			"0.018": 0.0,
			"0.019": 0.0,
			"0.02": 0.0,
			"0.021": 0.0,
			"0.022": 0.0,
			"0.023": 0.0,
			"0.024": 0.0,
			"0.025": 0.0
		}
	}
}
