{
	 "smiles": "NC1=CC(=CC=C1)C(=O)N1CCC2=C1C=CC=C2", 
	 "Tm": 399.15, 
	 "num_atms": 32, 
	 "gaussian": { 
		 "optdone": 1, 
		 "sigma_profile": "yes", 
		 "theory": "DFT", 
		 "functional": "B3LYP", 
		 "basiset": "6-31G**", 
		 "properties": { 
			 "R2extent": 5041.9514, 
			 "electric_dipole_moment_norm": 4.24361914761, 
			 "electric_quadrupole_moment_norm": 19.1264114148, 
			 "total_energy": -764.779398614, 
			 "HOMO_LUMO_gap": 0.17208, 
			 "cosmo_polarized_energy": -15.29, 
			 "cosmo_cavitation_energy": 34.98, 
			 "cosmo_dispersion_energy": -24.88, 
			 "cosmo_repulsion_energy": 1.93, 
			 "cosmo_total_nonelectrostatic_energy": 12.03, 
			 "SMD_solvation_energy": 5.68 
		},
		"coords": [
			{
				"x": -1.265930487,
				"y": -2.2162493737,
				"z": 3.6201374042,
				"element": "N" 
			},
			{
				"x": -0.3886417409,
				"y": -1.1337877627,
				"z": 3.5382542086,
				"element": "C" 
			},
			{
				"x": 0.4196026111,
				"y": -0.9548007905,
				"z": 2.4040121891,
				"element": "C" 
			},
			{
				"x": 1.3481137043,
				"y": 0.0892917608,
				"z": 2.3468095154,
				"element": "C" 
			},
			{
				"x": 1.4963874361,
				"y": 0.9627374769,
				"z": 3.4316943639,
				"element": "C" 
			},
			{
				"x": 0.6821251483,
				"y": 0.7986558252,
				"z": 4.551007488,
				"element": "C" 
			},
			{
				"x": -0.2517809965,
				"y": -0.2339219447,
				"z": 4.6100848349,
				"element": "C" 
			},
			{
				"x": 2.2933958548,
				"y": 0.2313351492,
				"z": 1.1909808949,
				"element": "C" 
			},
			{
				"x": 3.4842156264,
				"y": 0.4656914925,
				"z": 1.3793926215,
				"element": "O" 
			},
			{
				"x": 1.8312707644,
				"y": 0.0109973981,
				"z": -0.0961095319,
				"element": "N" 
			},
			{
				"x": 2.8350733388,
				"y": -0.1235056496,
				"z": -1.1763541507,
				"element": "C" 
			},
			{
				"x": 2.0121341996,
				"y": -0.6138967935,
				"z": -2.3845120162,
				"element": "C" 
			},
			{
				"x": 0.616691433,
				"y": -0.1377871144,
				"z": -2.0466202584,
				"element": "C" 
			},
			{
				"x": 0.5549259357,
				"y": 0.203149854,
				"z": -0.683728719,
				"element": "C" 
			},
			{
				"x": -0.6231528131,
				"y": 0.7093084351,
				"z": -0.1297352464,
				"element": "C" 
			},
			{
				"x": -1.7450543749,
				"y": 0.8295746106,
				"z": -0.9575654168,
				"element": "C" 
			},
			{
				"x": -1.698360621,
				"y": 0.4697310833,
				"z": -2.3053329804,
				"element": "C" 
			},
			{
				"x": -0.504577787,
				"y": -0.0130313378,
				"z": -2.8555450814,
				"element": "C" 
			},
			{
				"x": -2.0297285497,
				"y": -2.1040050568,
				"z": 4.2722223749,
				"element": "H" 
			},
			{
				"x": -1.5775551489,
				"y": -2.5868989164,
				"z": 2.7330060802,
				"element": "H" 
			},
			{
				"x": 0.3281398159,
				"y": -1.6426036856,
				"z": 1.5682423918,
				"element": "H" 
			},
			{
				"x": 2.2459976039,
				"y": 1.7444548275,
				"z": 3.3866623243,
				"element": "H" 
			},
			{
				"x": 0.7762275833,
				"y": 1.4788384106,
				"z": 5.3928106062,
				"element": "H" 
			},
			{
				"x": -0.8732887796,
				"y": -0.3572042612,
				"z": 5.4938066735,
				"element": "H" 
			},
			{
				"x": 3.6240097531,
				"y": -0.8067157537,
				"z": -0.8605353821,
				"element": "H" 
			},
			{
				"x": 3.297228287,
				"y": 0.851992866,
				"z": -1.3704387866,
				"element": "H" 
			},
			{
				"x": 2.3887144928,
				"y": -0.2113608644,
				"z": -3.3290865398,
				"element": "H" 
			},
			{
				"x": 2.0419881297,
				"y": -1.7090845101,
				"z": -2.4609162419,
				"element": "H" 
			},
			{
				"x": -0.6743113194,
				"y": 1.0132327654,
				"z": 0.9071621496,
				"element": "H" 
			},
			{
				"x": -2.6653846291,
				"y": 1.2254063592,
				"z": -0.5373226105,
				"element": "H" 
			},
			{
				"x": -2.5804608458,
				"y": 0.5775713433,
				"z": -2.9290603499,
				"element": "H" 
			},
			{
				"x": -0.4515136254,
				"y": -0.2782158426,
				"z": -3.9083228087,
				"element": "H" 
			}
		],
		 "valence_orbital": [ 
			{
				"type": "occ",
				"energy": -0.25732,
				"method": "rhf"
			},
			{
				"type": "occ",
				"energy": -0.24858,
				"method": "rhf"
			},
			{
				"type": "occ",
				"energy": -0.24327,
				"method": "rhf"
			},
			{
				"type": "occ",
				"energy": -0.20786,
				"method": "rhf"
			},
			{
				"type": "occ",
				"energy": -0.2052,
				"method": "rhf"
			},
			{
				"type": "unocc",
				"energy": -0.03312,
				"method": "rhf"
			},
			{
				"type": "unocc",
				"energy": -0.00464,
				"method": "rhf"
			},
			{
				"type": "unocc",
				"energy": 0.00642,
				"method": "rhf"
			},
			{
				"type": "unocc",
				"energy": 0.01429,
				"method": "rhf"
			},
			{
				"type": "unocc",
				"energy": 0.05954,
				"method": "rhf"
			}
		],
		"cosmo_sigma_profile": { 
			"-0.025": 0.0,
			"-0.024": 0.0,
			"-0.023": 0.0,
			"-0.022": 0.0,
			"-0.021": 0.0,
			"-0.02": 0.0,
			"-0.019": 0.0,
			"-0.018": 0.0,
			"-0.017": 0.0,
			"-0.016": 0.0,
			"-0.015": 0.0,
			"-0.014": 0.0,
			"-0.013": 0.42093439601,
			"-0.012": 2.8878370993,
			"-0.011": 2.70712611933,
			"-0.01": 3.30714516104,
			"-0.009": 3.47423109047,
			"-0.008": 2.74415517904,
			"-0.007": 3.30823945077,
			"-0.006": 7.51648638649,
			"-0.005": 20.5657520478,
			"-0.004": 26.0322313406,
			"-0.003": 27.6405576024,
			"-0.002": 24.2628179581,
			"-0.001": 22.7376530679,
			"0.0": 15.9731715438,
			"0.001": 13.6969959038,
			"0.002": 15.1129728549,
			"0.003": 14.3655701053,
			"0.004": 15.7091039101,
			"0.005": 18.2728072932,
			"0.006": 13.036380456,
			"0.007": 2.82194175399,
			"0.008": 3.08744509212,
			"0.009": 1.83135789632,
			"0.01": 2.08011566581,
			"0.011": 2.96981934569,
			"0.012": 3.18394224525,
			"0.013": 5.35404209342,
			"0.014": 2.82856054177,
			"0.015": 0.222904416317,
			"0.016": 0.0,
			"0.017": 0.0,
			"0.018": 0.0,
			"0.019": 0.0,
			"0.02": 0.0,
			"0.021": 0.0,
			"0.022": 0.0,
			"0.023": 0.0,
			"0.024": 0.0,
			"0.025": 0.0
		}
	}
}
