{
	 "smiles": "CC1=C(C(O)=O)C(=NO1)C1=C(Cl)C=CC=C1F", 
	 "Tm": 476.15, 
	 "num_atms": 24, 
	 "gaussian": { 
		 "optdone": 1, 
		 "sigma_profile": "yes", 
		 "theory": "DFT", 
		 "functional": "B3LYP", 
		 "basiset": "6-31G**", 
		 "properties": { 
			 "R2extent": 4270.2326, 
			 "electric_dipole_moment_norm": 3.56966203022, 
			 "electric_quadrupole_moment_norm": 23.0898230768, 
			 "total_energy": -1263.79982028, 
			 "HOMO_LUMO_gap": 0.21824, 
			 "cosmo_polarized_energy": -14.7, 
			 "cosmo_cavitation_energy": 31.73, 
			 "cosmo_dispersion_energy": -21.97, 
			 "cosmo_repulsion_energy": 1.68, 
			 "cosmo_total_nonelectrostatic_energy": 11.43, 
			 "SMD_solvation_energy": 6.66 
		},
		"coords": [
			{
				"x": 2.2057011637,
				"y": -2.8445169625,
				"z": -2.4437388467,
				"element": "C" 
			},
			{
				"x": 1.1796631445,
				"y": -1.9994720626,
				"z": -1.7790614151,
				"element": "C" 
			},
			{
				"x": 0.8538470885,
				"y": -1.7620428707,
				"z": -0.4627991262,
				"element": "C" 
			},
			{
				"x": 1.5235439392,
				"y": -2.3705218773,
				"z": 0.710405336,
				"element": "C" 
			},
			{
				"x": 1.0438705785,
				"y": -2.0367350529,
				"z": 1.9317135899,
				"element": "O" 
			},
			{
				"x": 2.456443548,
				"y": -3.1388505812,
				"z": 0.6200051342,
				"element": "O" 
			},
			{
				"x": -0.2416596368,
				"y": -0.8365113811,
				"z": -0.5539956769,
				"element": "C" 
			},
			{
				"x": -0.542440144,
				"y": -0.5528513263,
				"z": -1.7986348853,
				"element": "N" 
			},
			{
				"x": 0.3615931738,
				"y": -1.2914026145,
				"z": -2.5723723169,
				"element": "O" 
			},
			{
				"x": -1.0370294174,
				"y": -0.2139025203,
				"z": 0.5358015841,
				"element": "C" 
			},
			{
				"x": -0.6330752771,
				"y": 0.9467272009,
				"z": 1.2231314578,
				"element": "C" 
			},
			{
				"x": 0.8953270249,
				"y": 1.6991255569,
				"z": 0.8255111396,
				"element": "Cl" 
			},
			{
				"x": -1.4241649747,
				"y": 1.5175749351,
				"z": 2.220246697,
				"element": "C" 
			},
			{
				"x": -2.6488552923,
				"y": 0.9317249299,
				"z": 2.5412845384,
				"element": "C" 
			},
			{
				"x": -3.0871307362,
				"y": -0.2156928326,
				"z": 1.8820899124,
				"element": "C" 
			},
			{
				"x": -2.2771147734,
				"y": -0.7619611971,
				"z": 0.8953873241,
				"element": "C" 
			},
			{
				"x": -2.6869413478,
				"y": -1.8707164177,
				"z": 0.2602082091,
				"element": "F" 
			},
			{
				"x": 1.7265167464,
				"y": -3.5689009636,
				"z": -3.1105389767,
				"element": "H" 
			},
			{
				"x": 2.8711793256,
				"y": -2.2233242045,
				"z": -3.0524539585,
				"element": "H" 
			},
			{
				"x": 2.7840166441,
				"y": -3.3669656336,
				"z": -1.6830532595,
				"element": "H" 
			},
			{
				"x": 0.3002223752,
				"y": -1.4175748039,
				"z": 1.8630790353,
				"element": "H" 
			},
			{
				"x": -1.0821611906,
				"y": 2.4109564355,
				"z": 2.7289573503,
				"element": "H" 
			},
			{
				"x": -3.2664920254,
				"y": 1.3754619132,
				"z": 3.3155397634,
				"element": "H" 
			},
			{
				"x": -4.0343599367,
				"y": -0.6887276691,
				"z": 2.1137873903,
				"element": "H" 
			}
		],
		 "valence_orbital": [ 
			{
				"type": "occ",
				"energy": -0.31245,
				"method": "rhf"
			},
			{
				"type": "occ",
				"energy": -0.28771,
				"method": "rhf"
			},
			{
				"type": "occ",
				"energy": -0.27804,
				"method": "rhf"
			},
			{
				"type": "occ",
				"energy": -0.27314,
				"method": "rhf"
			},
			{
				"type": "occ",
				"energy": -0.27272,
				"method": "rhf"
			},
			{
				"type": "unocc",
				"energy": -0.05448,
				"method": "rhf"
			},
			{
				"type": "unocc",
				"energy": -0.04234,
				"method": "rhf"
			},
			{
				"type": "unocc",
				"energy": -0.03579,
				"method": "rhf"
			},
			{
				"type": "unocc",
				"energy": -0.01919,
				"method": "rhf"
			},
			{
				"type": "unocc",
				"energy": 0.00595,
				"method": "rhf"
			}
		],
		"cosmo_sigma_profile": { 
			"-0.025": 0.0,
			"-0.024": 0.0,
			"-0.023": 0.0,
			"-0.022": 0.0,
			"-0.021": 0.0,
			"-0.02": 0.0,
			"-0.019": 0.0,
			"-0.018": 0.0,
			"-0.017": 0.0,
			"-0.016": 0.0,
			"-0.015": 0.0,
			"-0.014": 0.00555850580406,
			"-0.013": 0.129096867934,
			"-0.012": 0.976881271176,
			"-0.011": 1.82342668584,
			"-0.01": 1.69215598727,
			"-0.009": 2.29779849807,
			"-0.008": 7.95032330344,
			"-0.007": 11.3713680195,
			"-0.006": 13.5714697349,
			"-0.005": 10.6764481611,
			"-0.004": 14.8060096369,
			"-0.003": 18.1537762117,
			"-0.002": 21.0027993881,
			"-0.001": 21.601614876,
			"0.0": 21.8708648605,
			"0.001": 17.4079159941,
			"0.002": 17.988469593,
			"0.003": 20.5994800986,
			"0.004": 10.5735942088,
			"0.005": 5.71681151814,
			"0.006": 7.15235172477,
			"0.007": 4.57600188301,
			"0.008": 4.21896611395,
			"0.009": 4.81781074946,
			"0.01": 6.56813498341,
			"0.011": 5.21430012818,
			"0.012": 3.92959207832,
			"0.013": 1.37470746893,
			"0.014": 0.0,
			"0.015": 0.0,
			"0.016": 0.0,
			"0.017": 0.0,
			"0.018": 0.0,
			"0.019": 0.0,
			"0.02": 0.0,
			"0.021": 0.0,
			"0.022": 0.0,
			"0.023": 0.0,
			"0.024": 0.0,
			"0.025": 0.0
		}
	}
}
