{
	 "smiles": "CCOC(=O)C1=C(CCl)NC(=O)NC1C1=CC=C(OC)C=C1", 
	 "Tm": 443.15, 
	 "num_atms": 39, 
	 "gaussian": { 
		 "optdone": 1, 
		 "sigma_profile": "yes", 
		 "theory": "DFT", 
		 "functional": "B3LYP", 
		 "basiset": "6-31G**", 
		 "properties": { 
			 "R2extent": 9023.9686, 
			 "electric_dipole_moment_norm": 6.0573442514, 
			 "electric_quadrupole_moment_norm": 11.6038813778, 
			 "total_energy": -1452.45939255, 
			 "HOMO_LUMO_gap": 0.16925, 
			 "cosmo_polarized_energy": -18.64, 
			 "cosmo_cavitation_energy": 44.36, 
			 "cosmo_dispersion_energy": -30.36, 
			 "cosmo_repulsion_energy": 2.38, 
			 "cosmo_total_nonelectrostatic_energy": 16.38, 
			 "SMD_solvation_energy": 8.99 
		},
		"coords": [
			{
				"x": -3.455874941,
				"y": 0.9747522391,
				"z": 2.5361700049,
				"element": "C" 
			},
			{
				"x": -3.5924283871,
				"y": -0.1492822672,
				"z": 1.5266849369,
				"element": "C" 
			},
			{
				"x": -2.5676779148,
				"y": 0.0408481055,
				"z": 0.5259287057,
				"element": "O" 
			},
			{
				"x": -2.4905869046,
				"y": -0.9160544292,
				"z": -0.430882087,
				"element": "C" 
			},
			{
				"x": -3.2606355033,
				"y": -1.8662058903,
				"z": -0.4529736856,
				"element": "O" 
			},
			{
				"x": -1.3965693693,
				"y": -0.6347678221,
				"z": -1.3793794778,
				"element": "C" 
			},
			{
				"x": -1.2227411769,
				"y": -1.3472209253,
				"z": -2.5293500162,
				"element": "C" 
			},
			{
				"x": -2.0436099501,
				"y": -2.5479540689,
				"z": -2.9269827545,
				"element": "C" 
			},
			{
				"x": -2.444453603,
				"y": -2.562907581,
				"z": -4.7069400249,
				"element": "Cl" 
			},
			{
				"x": -0.1861615823,
				"y": -1.0400189886,
				"z": -3.3859716382,
				"element": "N" 
			},
			{
				"x": 0.5584414099,
				"y": 0.1491665788,
				"z": -3.3311688788,
				"element": "C" 
			},
			{
				"x": 1.3403775058,
				"y": 0.4455350996,
				"z": -4.2202774459,
				"element": "O" 
			},
			{
				"x": 0.286976558,
				"y": 0.9192726444,
				"z": -2.2385559803,
				"element": "N" 
			},
			{
				"x": -0.4120358481,
				"y": 0.4744210646,
				"z": -1.0228908326,
				"element": "C" 
			},
			{
				"x": 0.56296734,
				"y": 0.0819496887,
				"z": 0.0875130053,
				"element": "C" 
			},
			{
				"x": 0.662027204,
				"y": 0.8521950621,
				"z": 1.2459589444,
				"element": "C" 
			},
			{
				"x": 1.5660727592,
				"y": 0.5341774191,
				"z": 2.2650130417,
				"element": "C" 
			},
			{
				"x": 2.3953593789,
				"y": -0.5831688957,
				"z": 2.123274706,
				"element": "C" 
			},
			{
				"x": 3.313580747,
				"y": -0.9930027565,
				"z": 3.0439574451,
				"element": "O" 
			},
			{
				"x": 3.4537894623,
				"y": -0.2370418646,
				"z": 4.2364996088,
				"element": "C" 
			},
			{
				"x": 2.3070357478,
				"y": -1.3683349101,
				"z": 0.9614694471,
				"element": "C" 
			},
			{
				"x": 1.403416153,
				"y": -1.037425349,
				"z": -0.037128595,
				"element": "C" 
			},
			{
				"x": -4.2163392964,
				"y": 0.8668938889,
				"z": 3.3157664059,
				"element": "H" 
			},
			{
				"x": -3.5905464278,
				"y": 1.9499443288,
				"z": 2.0589531924,
				"element": "H" 
			},
			{
				"x": -2.4705734655,
				"y": 0.9538807587,
				"z": 3.0106320503,
				"element": "H" 
			},
			{
				"x": -4.5707726983,
				"y": -0.1454994796,
				"z": 1.0357497109,
				"element": "H" 
			},
			{
				"x": -3.4594466466,
				"y": -1.1337985759,
				"z": 1.9851498597,
				"element": "H" 
			},
			{
				"x": -2.9741845861,
				"y": -2.5840844392,
				"z": -2.372154616,
				"element": "H" 
			},
			{
				"x": -1.4776562167,
				"y": -3.4647781525,
				"z": -2.7446863842,
				"element": "H" 
			},
			{
				"x": -0.1480468321,
				"y": -1.4990449561,
				"z": -4.2869790749,
				"element": "H" 
			},
			{
				"x": 0.9068221858,
				"y": 1.7124500398,
				"z": -2.1482530336,
				"element": "H" 
			},
			{
				"x": -0.9892314698,
				"y": 1.3293354196,
				"z": -0.6595173564,
				"element": "H" 
			},
			{
				"x": 0.0178165028,
				"y": 1.7196982812,
				"z": 1.366681355,
				"element": "H" 
			},
			{
				"x": 1.6126997517,
				"y": 1.1574586013,
				"z": 3.1501220058,
				"element": "H" 
			},
			{
				"x": 3.7627079482,
				"y": 0.7953236239,
				"z": 4.0276739556,
				"element": "H" 
			},
			{
				"x": 2.5230891348,
				"y": -0.221772264,
				"z": 4.8183296916,
				"element": "H" 
			},
			{
				"x": 4.2319099514,
				"y": -0.7332804146,
				"z": 4.8183033438,
				"element": "H" 
			},
			{
				"x": 2.9593242588,
				"y": -2.2306462723,
				"z": 0.8700320271,
				"element": "H" 
			},
			{
				"x": 1.3517588204,
				"y": -1.6569125414,
				"z": -0.928271562,
				"element": "H" 
			}
		],
		 "valence_orbital": [ 
			{
				"type": "occ",
				"energy": -0.26998,
				"method": "rhf"
			},
			{
				"type": "occ",
				"energy": -0.26227,
				"method": "rhf"
			},
			{
				"type": "occ",
				"energy": -0.25622,
				"method": "rhf"
			},
			{
				"type": "occ",
				"energy": -0.23514,
				"method": "rhf"
			},
			{
				"type": "occ",
				"energy": -0.22235,
				"method": "rhf"
			},
			{
				"type": "unocc",
				"energy": -0.0531,
				"method": "rhf"
			},
			{
				"type": "unocc",
				"energy": -0.00939,
				"method": "rhf"
			},
			{
				"type": "unocc",
				"energy": -0.00096,
				"method": "rhf"
			},
			{
				"type": "unocc",
				"energy": 0.01949,
				"method": "rhf"
			},
			{
				"type": "unocc",
				"energy": 0.0541,
				"method": "rhf"
			}
		],
		"cosmo_sigma_profile": { 
			"-0.025": 0.0,
			"-0.024": 0.0,
			"-0.023": 0.0,
			"-0.022": 0.0,
			"-0.021": 0.0,
			"-0.02": 0.0,
			"-0.019": 0.0,
			"-0.018": 0.0,
			"-0.017": 0.0,
			"-0.016": 0.0,
			"-0.015": 0.175774935482,
			"-0.014": 0.89310160874,
			"-0.013": 1.40591849545,
			"-0.012": 1.14456186938,
			"-0.011": 2.35770703313,
			"-0.01": 1.92024324506,
			"-0.009": 4.35462910041,
			"-0.008": 4.04381413529,
			"-0.007": 5.01408146362,
			"-0.006": 12.8285072195,
			"-0.005": 26.1947565891,
			"-0.004": 32.7089212059,
			"-0.003": 34.5591463038,
			"-0.002": 29.1489423726,
			"-0.001": 26.4141010715,
			"0.0": 26.113918521,
			"0.001": 21.9280868284,
			"0.002": 18.040852154,
			"0.003": 20.1857907462,
			"0.004": 19.2447951377,
			"0.005": 21.5066790544,
			"0.006": 8.82241580517,
			"0.007": 4.13896439097,
			"0.008": 4.29668676762,
			"0.009": 3.54031279053,
			"0.01": 4.64087155535,
			"0.011": 3.84765959003,
			"0.012": 4.69478231408,
			"0.013": 6.30470453834,
			"0.014": 3.16959780505,
			"0.015": 0.023879990229,
			"0.016": 0.0,
			"0.017": 0.0,
			"0.018": 0.0,
			"0.019": 0.0,
			"0.02": 0.0,
			"0.021": 0.0,
			"0.022": 0.0,
			"0.023": 0.0,
			"0.024": 0.0,
			"0.025": 0.0
		}
	}
}
