{
	 "smiles": "NC1=C(C=C(Br)C=C1)C#N", 
	 "Tm": 368.65, 
	 "num_atms": 15, 
	 "gaussian": { 
		 "optdone": 1, 
		 "sigma_profile": "yes", 
		 "theory": "DFT", 
		 "functional": "B3LYP", 
		 "basiset": "6-31G**", 
		 "properties": { 
			 "R2extent": 3633.1575, 
			 "electric_dipole_moment_norm": 4.25487668681, 
			 "electric_quadrupole_moment_norm": 9.11987047002, 
			 "total_energy": -2950.65393495, 
			 "HOMO_LUMO_gap": 0.16912, 
			 "cosmo_polarized_energy": -11.92, 
			 "cosmo_cavitation_energy": 22.76, 
			 "cosmo_dispersion_energy": -16.81, 
			 "cosmo_repulsion_energy": 1.37, 
			 "cosmo_total_nonelectrostatic_energy": 7.31, 
			 "SMD_solvation_energy": 3.98 
		},
		"coords": [
			{
				"x": -0.1796038592,
				"y": -0.781093407,
				"z": 1.486022879,
				"element": "N" 
			},
			{
				"x": 0.0627626994,
				"y": -0.0372200387,
				"z": 0.3570541345,
				"element": "C" 
			},
			{
				"x": -0.612464237,
				"y": -0.3128343804,
				"z": -0.8619111484,
				"element": "C" 
			},
			{
				"x": -0.3992183869,
				"y": 0.483215875,
				"z": -2.0007453484,
				"element": "C" 
			},
			{
				"x": 0.4848443673,
				"y": 1.548359598,
				"z": -1.940002999,
				"element": "C" 
			},
			{
				"x": 0.781119705,
				"y": 2.6307124035,
				"z": -3.4839763777,
				"element": "Br" 
			},
			{
				"x": 1.1646694578,
				"y": 1.8326221399,
				"z": -0.7504126863,
				"element": "C" 
			},
			{
				"x": 0.9556646379,
				"y": 1.0522534015,
				"z": 0.3776274519,
				"element": "C" 
			},
			{
				"x": -1.5072955425,
				"y": -1.4248835668,
				"z": -0.9148645473,
				"element": "C" 
			},
			{
				"x": -2.2160642876,
				"y": -2.3493275499,
				"z": -0.8976641698,
				"element": "N" 
			},
			{
				"x": -0.6621072862,
				"y": -1.6621469172,
				"z": 1.3827248195,
				"element": "H" 
			},
			{
				"x": 0.4942993445,
				"y": -0.7404864492,
				"z": 2.2340859439,
				"element": "H" 
			},
			{
				"x": -0.926927911,
				"y": 0.2513316958,
				"z": -2.9180631355,
				"element": "H" 
			},
			{
				"x": 1.8569205939,
				"y": 2.6661694023,
				"z": -0.7100296485,
				"element": "H" 
			},
			{
				"x": 1.4836007045,
				"y": 1.286827793,
				"z": 1.2975548321,
				"element": "H" 
			}
		],
		 "valence_orbital": [ 
			{
				"type": "occ",
				"energy": -0.33833,
				"method": "rhf"
			},
			{
				"type": "occ",
				"energy": -0.2941,
				"method": "rhf"
			},
			{
				"type": "occ",
				"energy": -0.29362,
				"method": "rhf"
			},
			{
				"type": "occ",
				"energy": -0.27447,
				"method": "rhf"
			},
			{
				"type": "occ",
				"energy": -0.22282,
				"method": "rhf"
			},
			{
				"type": "unocc",
				"energy": -0.0537,
				"method": "rhf"
			},
			{
				"type": "unocc",
				"energy": -0.01554,
				"method": "rhf"
			},
			{
				"type": "unocc",
				"energy": -0.00217,
				"method": "rhf"
			},
			{
				"type": "unocc",
				"energy": 0.02723,
				"method": "rhf"
			},
			{
				"type": "unocc",
				"energy": 0.0664,
				"method": "rhf"
			}
		],
		"cosmo_sigma_profile": { 
			"-0.025": 0.0,
			"-0.024": 0.0,
			"-0.023": 0.0,
			"-0.022": 0.0,
			"-0.021": 0.0,
			"-0.02": 0.0,
			"-0.019": 0.0,
			"-0.018": 0.0,
			"-0.017": 0.0,
			"-0.016": 0.0,
			"-0.015": 0.0724792102966,
			"-0.014": 1.5596687407,
			"-0.013": 2.13601971586,
			"-0.012": 2.64472235285,
			"-0.011": 2.98669193068,
			"-0.01": 2.17465185847,
			"-0.009": 2.22890574359,
			"-0.008": 6.05691491825,
			"-0.007": 7.49014799665,
			"-0.006": 6.79024844272,
			"-0.005": 7.66385147763,
			"-0.004": 7.24453237873,
			"-0.003": 7.40950538837,
			"-0.002": 8.36460270508,
			"-0.001": 11.8152684436,
			"0.0": 13.8556374855,
			"0.001": 16.3513132512,
			"0.002": 21.0827882182,
			"0.003": 13.7198124282,
			"0.004": 13.2969182222,
			"0.005": 8.63101301272,
			"0.006": 2.33266887355,
			"0.007": 3.82696871717,
			"0.008": 3.34295609318,
			"0.009": 3.57903597506,
			"0.01": 3.38208447901,
			"0.011": 2.76946862842,
			"0.012": 2.49648003984,
			"0.013": 1.58608504241,
			"0.014": 0.0434604409535,
			"0.015": 0.0,
			"0.016": 0.0,
			"0.017": 0.0,
			"0.018": 0.0,
			"0.019": 0.0,
			"0.02": 0.0,
			"0.021": 0.0,
			"0.022": 0.0,
			"0.023": 0.0,
			"0.024": 0.0,
			"0.025": 0.0
		}
	}
}
