{
	 "smiles": "NC1=CC=C(CN2C(=O)CNC2=O)C=C1", 
	 "Tm": 442.15, 
	 "num_atms": 26, 
	 "gaussian": { 
		 "optdone": 1, 
		 "sigma_profile": "yes", 
		 "theory": "DFT", 
		 "functional": "B3LYP", 
		 "basiset": "6-31G**", 
		 "properties": { 
			 "R2extent": 3674.0626, 
			 "electric_dipole_moment_norm": 3.34273284155, 
			 "electric_quadrupole_moment_norm": 16.8475201522, 
			 "total_energy": -702.440448094, 
			 "HOMO_LUMO_gap": 0.19316, 
			 "cosmo_polarized_energy": -19.68, 
			 "cosmo_cavitation_energy": 30.97, 
			 "cosmo_dispersion_energy": -21.86, 
			 "cosmo_repulsion_energy": 1.73, 
			 "cosmo_total_nonelectrostatic_energy": 10.84, 
			 "SMD_solvation_energy": 5.39 
		},
		"coords": [
			{
				"x": 4.4772331745,
				"y": 0.6404067086,
				"z": 1.1222095796,
				"element": "N" 
			},
			{
				"x": 3.2305329715,
				"y": 0.087871272,
				"z": 0.8244372603,
				"element": "C" 
			},
			{
				"x": 2.2014910628,
				"y": 0.0764267276,
				"z": 1.7822387954,
				"element": "C" 
			},
			{
				"x": 0.9810547071,
				"y": -0.5307671874,
				"z": 1.5020821847,
				"element": "C" 
			},
			{
				"x": 0.7454391899,
				"y": -1.1450412822,
				"z": 0.2656723156,
				"element": "C" 
			},
			{
				"x": -0.5880885234,
				"y": -1.7908876446,
				"z": -0.0391900397,
				"element": "C" 
			},
			{
				"x": -1.5471017057,
				"y": -0.8832856428,
				"z": -0.6799409048,
				"element": "N" 
			},
			{
				"x": -2.3985367065,
				"y": -0.0403421654,
				"z": 0.0006333129,
				"element": "C" 
			},
			{
				"x": -2.5257551529,
				"y": 0.0515284288,
				"z": 1.2057537573,
				"element": "O" 
			},
			{
				"x": -3.1564773719,
				"y": 0.7537302537,
				"z": -1.0717103063,
				"element": "C" 
			},
			{
				"x": -2.6433978658,
				"y": 0.1822200652,
				"z": -2.3008176651,
				"element": "N" 
			},
			{
				"x": -1.6405745903,
				"y": -0.7307029102,
				"z": -2.0807217679,
				"element": "C" 
			},
			{
				"x": -0.9656484466,
				"y": -1.318217086,
				"z": -2.9038779766,
				"element": "O" 
			},
			{
				"x": 1.7694447837,
				"y": -1.1264715891,
				"z": -0.6903871374,
				"element": "C" 
			},
			{
				"x": 2.9930317619,
				"y": -0.5219285184,
				"z": -0.4202369968,
				"element": "C" 
			},
			{
				"x": 5.0232166647,
				"y": 0.9275390752,
				"z": 0.3216479674,
				"element": "H" 
			},
			{
				"x": 4.4745336384,
				"y": 1.3426906562,
				"z": 1.8490077182,
				"element": "H" 
			},
			{
				"x": 2.3665667723,
				"y": 0.5412968443,
				"z": 2.7513713703,
				"element": "H" 
			},
			{
				"x": 0.1920225992,
				"y": -0.5176398067,
				"z": 2.2492484886,
				"element": "H" 
			},
			{
				"x": -1.066029939,
				"y": -2.1443840642,
				"z": 0.877689417,
				"element": "H" 
			},
			{
				"x": -0.4647004576,
				"y": -2.6344132493,
				"z": -0.7220852841,
				"element": "H" 
			},
			{
				"x": -4.2360049605,
				"y": 0.612409268,
				"z": -0.9470602798,
				"element": "H" 
			},
			{
				"x": -2.9330035462,
				"y": 1.822168678,
				"z": -0.960885576,
				"element": "H" 
			},
			{
				"x": -2.7701133681,
				"y": 0.5755713673,
				"z": -3.2194196237,
				"element": "H" 
			},
			{
				"x": 1.5969673183,
				"y": -1.5800579386,
				"z": -1.6626739454,
				"element": "H" 
			},
			{
				"x": 3.7776979901,
				"y": -0.5250202598,
				"z": -1.1731846638,
				"element": "H" 
			}
		],
		 "valence_orbital": [ 
			{
				"type": "occ",
				"energy": -0.27408,
				"method": "rhf"
			},
			{
				"type": "occ",
				"energy": -0.26331,
				"method": "rhf"
			},
			{
				"type": "occ",
				"energy": -0.26045,
				"method": "rhf"
			},
			{
				"type": "occ",
				"energy": -0.24309,
				"method": "rhf"
			},
			{
				"type": "occ",
				"energy": -0.1994,
				"method": "rhf"
			},
			{
				"type": "unocc",
				"energy": -0.00624,
				"method": "rhf"
			},
			{
				"type": "unocc",
				"energy": 0.00547,
				"method": "rhf"
			},
			{
				"type": "unocc",
				"energy": 0.01434,
				"method": "rhf"
			},
			{
				"type": "unocc",
				"energy": 0.06181,
				"method": "rhf"
			},
			{
				"type": "unocc",
				"energy": 0.08167,
				"method": "rhf"
			}
		],
		"cosmo_sigma_profile": { 
			"-0.025": 0.0,
			"-0.024": 0.0,
			"-0.023": 0.0,
			"-0.022": 0.0,
			"-0.021": 0.0,
			"-0.02": 0.0,
			"-0.019": 0.0,
			"-0.018": 0.0,
			"-0.017": 0.0,
			"-0.016": 0.285152162569,
			"-0.015": 1.27653945734,
			"-0.014": 1.37883296097,
			"-0.013": 1.10606251238,
			"-0.012": 3.53130412933,
			"-0.011": 3.8729157179,
			"-0.01": 3.53424041229,
			"-0.009": 5.11316238254,
			"-0.008": 7.80317092177,
			"-0.007": 9.31165362737,
			"-0.006": 13.5216836084,
			"-0.005": 13.330639459,
			"-0.004": 16.3738531537,
			"-0.003": 18.1775462536,
			"-0.002": 13.7686649289,
			"-0.001": 10.881544744,
			"0.0": 10.913581458,
			"0.001": 9.76177141387,
			"0.002": 9.54997809413,
			"0.003": 14.8041277463,
			"0.004": 14.6164508405,
			"0.005": 11.5016890052,
			"0.006": 12.8237745106,
			"0.007": 8.29647417454,
			"0.008": 3.70972972598,
			"0.009": 2.7603083671,
			"0.01": 4.80798962012,
			"0.011": 5.52215353844,
			"0.012": 6.2014929206,
			"0.013": 5.67365676846,
			"0.014": 1.19933170229,
			"0.015": 0.180870474738,
			"0.016": 0.0,
			"0.017": 0.0,
			"0.018": 0.0,
			"0.019": 0.0,
			"0.02": 0.0,
			"0.021": 0.0,
			"0.022": 0.0,
			"0.023": 0.0,
			"0.024": 0.0,
			"0.025": 0.0
		}
	}
}
