{
	 "smiles": "ON=CC1=CN=C2C=CC=CN12", 
	 "Tm": 457.15, 
	 "num_atms": 19, 
	 "gaussian": { 
		 "optdone": 1, 
		 "sigma_profile": "yes", 
		 "theory": "DFT", 
		 "functional": "B3LYP", 
		 "basiset": "6-31G**", 
		 "properties": { 
			 "R2extent": 2758.0952, 
			 "electric_dipole_moment_norm": 2.85079506279, 
			 "electric_quadrupole_moment_norm": 5.46554859186, 
			 "total_energy": -548.475580623, 
			 "HOMO_LUMO_gap": 0.16464, 
			 "cosmo_polarized_energy": -11.73, 
			 "cosmo_cavitation_energy": 23.39, 
			 "cosmo_dispersion_energy": -17.63, 
			 "cosmo_repulsion_energy": 1.38, 
			 "cosmo_total_nonelectrostatic_energy": 7.15, 
			 "SMD_solvation_energy": 2.53 
		},
		"coords": [
			{
				"x": -0.9245519091,
				"y": -3.3171756056,
				"z": -0.0890006071,
				"element": "O" 
			},
			{
				"x": -2.0606348708,
				"y": -3.6131227345,
				"z": 0.6923055336,
				"element": "N" 
			},
			{
				"x": -2.7134177162,
				"y": -2.5655331157,
				"z": 1.0574420913,
				"element": "C" 
			},
			{
				"x": -2.5688034429,
				"y": -1.1365685437,
				"z": 0.8714712423,
				"element": "C" 
			},
			{
				"x": -3.6253831419,
				"y": -0.2264625884,
				"z": 0.9583206324,
				"element": "C" 
			},
			{
				"x": -3.2493348094,
				"y": 1.0488778738,
				"z": 0.7444565332,
				"element": "N" 
			},
			{
				"x": -1.9284694089,
				"y": 0.9869433542,
				"z": 0.54126667,
				"element": "C" 
			},
			{
				"x": -1.0115219233,
				"y": 2.0335411031,
				"z": 0.3088867219,
				"element": "C" 
			},
			{
				"x": 0.3265088491,
				"y": 1.7471339438,
				"z": 0.182580839,
				"element": "C" 
			},
			{
				"x": 0.775319881,
				"y": 0.4039239196,
				"z": 0.2907100685,
				"element": "C" 
			},
			{
				"x": -0.108991202,
				"y": -0.6167708638,
				"z": 0.5093527671,
				"element": "C" 
			},
			{
				"x": -1.4527146526,
				"y": -0.3375871483,
				"z": 0.6082607225,
				"element": "N" 
			},
			{
				"x": -0.5752927476,
				"y": -4.1983967301,
				"z": -0.2759736404,
				"element": "H" 
			},
			{
				"x": -3.6182455765,
				"y": -2.8330850892,
				"z": 1.6026380105,
				"element": "H" 
			},
			{
				"x": -4.6587229617,
				"y": -0.4859080434,
				"z": 1.1565511843,
				"element": "H" 
			},
			{
				"x": -1.404164383,
				"y": 3.0418352303,
				"z": 0.2503932124,
				"element": "H" 
			},
			{
				"x": 1.0437616466,
				"y": 2.542955384,
				"z": 0.0105781738,
				"element": "H" 
			},
			{
				"x": 1.8294649564,
				"y": 0.1655261444,
				"z": 0.2064774591,
				"element": "H" 
			},
			{
				"x": 0.1652934128,
				"y": -1.6576264904,
				"z": 0.5838823856,
				"element": "H" 
			}
		],
		 "valence_orbital": [ 
			{
				"type": "occ",
				"energy": -0.28798,
				"method": "rhf"
			},
			{
				"type": "occ",
				"energy": -0.28589,
				"method": "rhf"
			},
			{
				"type": "occ",
				"energy": -0.2688,
				"method": "rhf"
			},
			{
				"type": "occ",
				"energy": -0.24635,
				"method": "rhf"
			},
			{
				"type": "occ",
				"energy": -0.20644,
				"method": "rhf"
			},
			{
				"type": "unocc",
				"energy": -0.0418,
				"method": "rhf"
			},
			{
				"type": "unocc",
				"energy": -0.02788,
				"method": "rhf"
			},
			{
				"type": "unocc",
				"energy": 0.02288,
				"method": "rhf"
			},
			{
				"type": "unocc",
				"energy": 0.06337,
				"method": "rhf"
			},
			{
				"type": "unocc",
				"energy": 0.0892,
				"method": "rhf"
			}
		],
		"cosmo_sigma_profile": { 
			"-0.025": 0.0,
			"-0.024": 0.0,
			"-0.023": 0.0,
			"-0.022": 0.0,
			"-0.021": 0.0,
			"-0.02": 0.0,
			"-0.019": 0.0,
			"-0.018": 0.186904265901,
			"-0.017": 1.268270365,
			"-0.016": 0.698069786786,
			"-0.015": 0.685857981075,
			"-0.014": 0.930137965874,
			"-0.013": 0.66438806971,
			"-0.012": 0.931676723327,
			"-0.011": 0.432158316696,
			"-0.01": 0.857092970762,
			"-0.009": 0.637545610786,
			"-0.008": 5.55047243824,
			"-0.007": 10.6538196617,
			"-0.006": 10.4192921407,
			"-0.005": 11.3138136889,
			"-0.004": 8.75897941371,
			"-0.003": 8.63861804366,
			"-0.002": 10.1654754682,
			"-0.001": 13.4776905825,
			"0.0": 12.9546061212,
			"0.001": 15.5881453872,
			"0.002": 17.5209370045,
			"0.003": 15.6120735023,
			"0.004": 6.96545140858,
			"0.005": 5.33404912439,
			"0.006": 4.60526009003,
			"0.007": 3.89876325822,
			"0.008": 3.59484655955,
			"0.009": 3.13975726065,
			"0.01": 2.3009600608,
			"0.011": 2.22064336953,
			"0.012": 2.05634197052,
			"0.013": 2.15553278901,
			"0.014": 1.24230652562,
			"0.015": 1.25478969534,
			"0.016": 0.618892355952,
			"0.017": 1.10753733756,
			"0.018": 0.0497138144051,
			"0.019": 0.0,
			"0.02": 0.0,
			"0.021": 0.0,
			"0.022": 0.0,
			"0.023": 0.0,
			"0.024": 0.0,
			"0.025": 0.0
		}
	}
}
