{
	 "smiles": "NC1=CC=C(C=C1)S(=O)(=O)NC1=C(Cl)C=CC=C1", 
	 "Tm": 433.15, 
	 "num_atms": 29, 
	 "gaussian": { 
		 "optdone": 1, 
		 "sigma_profile": "yes", 
		 "theory": "DFT", 
		 "functional": "B3LYP", 
		 "basiset": "6-31G**", 
		 "properties": { 
			 "R2extent": 6021.1105, 
			 "electric_dipole_moment_norm": 6.87091311981, 
			 "electric_quadrupole_moment_norm": 30.2938192394, 
			 "total_energy": -1582.17452352, 
			 "HOMO_LUMO_gap": 0.19132, 
			 "cosmo_polarized_energy": -19.07, 
			 "cosmo_cavitation_energy": 36.38, 
			 "cosmo_dispersion_energy": -25.78, 
			 "cosmo_repulsion_energy": 1.97, 
			 "cosmo_total_nonelectrostatic_energy": 12.57, 
			 "SMD_solvation_energy": 4.95 
		},
		"coords": [
			{
				"x": -2.7907569278,
				"y": -0.4920739453,
				"z": 4.3339268174,
				"element": "N" 
			},
			{
				"x": -1.7154021302,
				"y": 0.0843003967,
				"z": 3.6835074472,
				"element": "C" 
			},
			{
				"x": -0.705194594,
				"y": -0.717995218,
				"z": 3.115790693,
				"element": "C" 
			},
			{
				"x": 0.3505173829,
				"y": -0.1421724865,
				"z": 2.4225797804,
				"element": "C" 
			},
			{
				"x": 0.4140091581,
				"y": 1.2486598493,
				"z": 2.2836958849,
				"element": "C" 
			},
			{
				"x": -0.5775191618,
				"y": 2.061442633,
				"z": 2.8454001105,
				"element": "C" 
			},
			{
				"x": -1.6305531541,
				"y": 1.4847007405,
				"z": 3.53990494,
				"element": "C" 
			},
			{
				"x": 1.7500393902,
				"y": 1.9951060386,
				"z": 1.3751078433,
				"element": "S" 
			},
			{
				"x": 1.8925814542,
				"y": 3.3836807855,
				"z": 1.8134848472,
				"element": "O" 
			},
			{
				"x": 2.8704389089,
				"y": 1.0536942949,
				"z": 1.3696898253,
				"element": "O" 
			},
			{
				"x": 1.2298016676,
				"y": 2.1577662072,
				"z": -0.2458774474,
				"element": "N" 
			},
			{
				"x": 0.8351590329,
				"y": 1.071040799,
				"z": -1.0539491059,
				"element": "C" 
			},
			{
				"x": -0.3707539652,
				"y": 1.1085963526,
				"z": -1.7785571321,
				"element": "C" 
			},
			{
				"x": -1.4340083818,
				"y": 2.5093975796,
				"z": -1.637540261,
				"element": "Cl" 
			},
			{
				"x": -0.7459762802,
				"y": 0.0683026989,
				"z": -2.6252692217,
				"element": "C" 
			},
			{
				"x": 0.0742491542,
				"y": -1.0518470379,
				"z": -2.7470980383,
				"element": "C" 
			},
			{
				"x": 1.2729354298,
				"y": -1.1094189476,
				"z": -2.0336989275,
				"element": "C" 
			},
			{
				"x": 1.6591386592,
				"y": -0.0564683299,
				"z": -1.209253871,
				"element": "C" 
			},
			{
				"x": -2.6718157836,
				"y": -1.4370205231,
				"z": 4.6676410435,
				"element": "H" 
			},
			{
				"x": -3.3151212113,
				"y": 0.0970697175,
				"z": 4.9635369541,
				"element": "H" 
			},
			{
				"x": -0.7530336713,
				"y": -1.797900478,
				"z": 3.2273261715,
				"element": "H" 
			},
			{
				"x": 1.1371883088,
				"y": -0.7613878686,
				"z": 2.0069750046,
				"element": "H" 
			},
			{
				"x": -0.5048325314,
				"y": 3.1400211851,
				"z": 2.7553417158,
				"element": "H" 
			},
			{
				"x": -2.396842837,
				"y": 2.1158220178,
				"z": 3.9819176802,
				"element": "H" 
			},
			{
				"x": 0.6399685203,
				"y": 2.9808149626,
				"z": -0.3261354752,
				"element": "H" 
			},
			{
				"x": -1.6790260051,
				"y": 0.1408536418,
				"z": -3.1730796102,
				"element": "H" 
			},
			{
				"x": -0.2206891921,
				"y": -1.8662038816,
				"z": -3.4011699473,
				"element": "H" 
			},
			{
				"x": 1.9255844747,
				"y": -1.9713713239,
				"z": -2.1334420253,
				"element": "H" 
			},
			{
				"x": 2.601814285,
				"y": -0.0804098599,
				"z": -0.676355696,
				"element": "H" 
			}
		],
		 "valence_orbital": [ 
			{
				"type": "occ",
				"energy": -0.29925,
				"method": "rhf"
			},
			{
				"type": "occ",
				"energy": -0.26944,
				"method": "rhf"
			},
			{
				"type": "occ",
				"energy": -0.25497,
				"method": "rhf"
			},
			{
				"type": "occ",
				"energy": -0.23699,
				"method": "rhf"
			},
			{
				"type": "occ",
				"energy": -0.22125,
				"method": "rhf"
			},
			{
				"type": "unocc",
				"energy": -0.02993,
				"method": "rhf"
			},
			{
				"type": "unocc",
				"energy": -0.0196,
				"method": "rhf"
			},
			{
				"type": "unocc",
				"energy": -0.01468,
				"method": "rhf"
			},
			{
				"type": "unocc",
				"energy": -0.00835,
				"method": "rhf"
			},
			{
				"type": "unocc",
				"energy": 0.02072,
				"method": "rhf"
			}
		],
		"cosmo_sigma_profile": { 
			"-0.025": 0.0,
			"-0.024": 0.0,
			"-0.023": 0.0,
			"-0.022": 0.0,
			"-0.021": 0.0,
			"-0.02": 0.0,
			"-0.019": 0.0,
			"-0.018": 0.0,
			"-0.017": 0.0,
			"-0.016": 0.0,
			"-0.015": 0.0,
			"-0.014": 0.370063177718,
			"-0.013": 2.70105449532,
			"-0.012": 3.70599452618,
			"-0.011": 4.06908314073,
			"-0.01": 4.86187308055,
			"-0.009": 3.30728130087,
			"-0.008": 5.48364313753,
			"-0.007": 10.3870456456,
			"-0.006": 15.524295963,
			"-0.005": 18.5575149777,
			"-0.004": 13.2312624799,
			"-0.003": 12.3774910052,
			"-0.002": 15.1902446964,
			"-0.001": 16.6483058845,
			"0.0": 17.4332575426,
			"0.001": 21.9789718323,
			"0.002": 25.6732853502,
			"0.003": 29.9331187403,
			"0.004": 28.0828116283,
			"0.005": 7.20832502309,
			"0.006": 5.2801817926,
			"0.007": 4.29913986425,
			"0.008": 4.15661743767,
			"0.009": 5.26736740434,
			"0.01": 7.59493147648,
			"0.011": 8.2408012478,
			"0.012": 2.00336952111,
			"0.013": 0.0339283237375,
			"0.014": 0.0,
			"0.015": 0.0,
			"0.016": 0.0,
			"0.017": 0.0,
			"0.018": 0.0,
			"0.019": 0.0,
			"0.02": 0.0,
			"0.021": 0.0,
			"0.022": 0.0,
			"0.023": 0.0,
			"0.024": 0.0,
			"0.025": 0.0
		}
	}
}
