{
	 "smiles": "CN1C(N(CC1=O)C(=O)OC(C)(C)C)C(C)(C)C", 
	 "Tm": 341.15, 
	 "num_atms": 42, 
	 "gaussian": { 
		 "optdone": 1, 
		 "sigma_profile": "yes", 
		 "theory": "DFT", 
		 "functional": "B3LYP", 
		 "basiset": "6-31G**", 
		 "properties": { 
			 "R2extent": 5320.312, 
			 "electric_dipole_moment_norm": 4.89419556107, 
			 "electric_quadrupole_moment_norm": 14.78826566, 
			 "total_energy": -845.081283333, 
			 "HOMO_LUMO_gap": 0.26585, 
			 "cosmo_polarized_energy": -13.27, 
			 "cosmo_cavitation_energy": 40.81, 
			 "cosmo_dispersion_energy": -26.78, 
			 "cosmo_repulsion_energy": 2.05, 
			 "cosmo_total_nonelectrostatic_energy": 16.08, 
			 "SMD_solvation_energy": 8.66 
		},
		"coords": [
			{
				"x": -0.5975618537,
				"y": 0.1844534636,
				"z": 3.3341521306,
				"element": "C" 
			},
			{
				"x": -0.0679506052,
				"y": 1.0339528806,
				"z": 2.2822303722,
				"element": "N" 
			},
			{
				"x": 0.5941423849,
				"y": 0.5497018912,
				"z": 1.0654268913,
				"element": "C" 
			},
			{
				"x": 0.4175825017,
				"y": 1.6966974927,
				"z": 0.1497467322,
				"element": "N" 
			},
			{
				"x": 0.1027710086,
				"y": 2.9087923891,
				"z": 0.9058329223,
				"element": "C" 
			},
			{
				"x": -0.3500438009,
				"y": 2.3767967669,
				"z": 2.2600101871,
				"element": "C" 
			},
			{
				"x": -0.8906622853,
				"y": 3.0118561832,
				"z": 3.1501106061,
				"element": "O" 
			},
			{
				"x": -0.0956941291,
				"y": 1.59300769,
				"z": -1.1277384442,
				"element": "C" 
			},
			{
				"x": -0.4975333425,
				"y": 2.5586578127,
				"z": -1.7574867605,
				"element": "O" 
			},
			{
				"x": -0.0685222658,
				"y": 0.3148630414,
				"z": -1.567720177,
				"element": "O" 
			},
			{
				"x": -0.5432112718,
				"y": -0.0264332735,
				"z": -2.9231722737,
				"element": "C" 
			},
			{
				"x": 0.3160003111,
				"y": 0.6845691839,
				"z": -3.9733969929,
				"element": "C" 
			},
			{
				"x": -0.3279684288,
				"y": -1.5409407769,
				"z": -2.9791425533,
				"element": "C" 
			},
			{
				"x": -2.0307080444,
				"y": 0.3151619479,
				"z": -3.0579437273,
				"element": "C" 
			},
			{
				"x": 2.0961880418,
				"y": 0.143049866,
				"z": 1.251081184,
				"element": "C" 
			},
			{
				"x": 2.19213999,
				"y": -1.080466106,
				"z": 2.1860850492,
				"element": "C" 
			},
			{
				"x": 2.9184923761,
				"y": 1.3046900909,
				"z": 1.8360508183,
				"element": "C" 
			},
			{
				"x": 2.6794705952,
				"y": -0.2535694015,
				"z": -0.1193603574,
				"element": "C" 
			},
			{
				"x": -0.9979108512,
				"y": -0.7406975636,
				"z": 2.9067759823,
				"element": "H" 
			},
			{
				"x": 0.1514761967,
				"y": -0.0747944161,
				"z": 4.088973485,
				"element": "H" 
			},
			{
				"x": -1.3983483403,
				"y": 0.7397338059,
				"z": 3.8274181179,
				"element": "H" 
			},
			{
				"x": 0.0523368033,
				"y": -0.3160671955,
				"z": 0.6699654627,
				"element": "H" 
			},
			{
				"x": 0.9643883693,
				"y": 3.5766290569,
				"z": 1.0190008166,
				"element": "H" 
			},
			{
				"x": -0.6976088803,
				"y": 3.468456252,
				"z": 0.419047732,
				"element": "H" 
			},
			{
				"x": 0.0312069425,
				"y": 0.3392783617,
				"z": -4.9725386107,
				"element": "H" 
			},
			{
				"x": 1.3741952713,
				"y": 0.4488787739,
				"z": -3.8224211472,
				"element": "H" 
			},
			{
				"x": 0.181924114,
				"y": 1.7650993343,
				"z": -3.9224432768,
				"element": "H" 
			},
			{
				"x": 0.7294753271,
				"y": -1.7885588864,
				"z": -2.8485428017,
				"element": "H" 
			},
			{
				"x": -0.6557500258,
				"y": -1.9291819001,
				"z": -3.947930617,
				"element": "H" 
			},
			{
				"x": -0.9016935129,
				"y": -2.0433995553,
				"z": -2.1947087733,
				"element": "H" 
			},
			{
				"x": -2.6069403854,
				"y": -0.1749316297,
				"z": -2.2666070858,
				"element": "H" 
			},
			{
				"x": -2.1923393961,
				"y": 1.3914562544,
				"z": -2.9997806428,
				"element": "H" 
			},
			{
				"x": -2.4028547149,
				"y": -0.0474224518,
				"z": -4.0215841838,
				"element": "H" 
			},
			{
				"x": 3.2159080501,
				"y": -1.4687801755,
				"z": 2.1840953744,
				"element": "H" 
			},
			{
				"x": 1.533472786,
				"y": -1.8932703221,
				"z": 1.8576789469,
				"element": "H" 
			},
			{
				"x": 1.9423100882,
				"y": -0.8347474823,
				"z": 3.2208449356,
				"element": "H" 
			},
			{
				"x": 2.9426003935,
				"y": 2.1589408991,
				"z": 1.1525673188,
				"element": "H" 
			},
			{
				"x": 2.5191979072,
				"y": 1.6405602588,
				"z": 2.7982017785,
				"element": "H" 
			},
			{
				"x": 3.9533963871,
				"y": 0.9862441853,
				"z": 1.999568264,
				"element": "H" 
			},
			{
				"x": 2.1356001497,
				"y": -1.0946185872,
				"z": -0.5602296408,
				"element": "H" 
			},
			{
				"x": 3.7265094386,
				"y": -0.5523494254,
				"z": -0.0013848302,
				"element": "H" 
			},
			{
				"x": 2.6432167005,
				"y": 0.5787012664,
				"z": -0.8264322118,
				"element": "H" 
			}
		],
		 "valence_orbital": [ 
			{
				"type": "occ",
				"energy": -0.29512,
				"method": "rhf"
			},
			{
				"type": "occ",
				"energy": -0.2706,
				"method": "rhf"
			},
			{
				"type": "occ",
				"energy": -0.26664,
				"method": "rhf"
			},
			{
				"type": "occ",
				"energy": -0.24447,
				"method": "rhf"
			},
			{
				"type": "occ",
				"energy": -0.2405,
				"method": "rhf"
			},
			{
				"type": "unocc",
				"energy": 0.02535,
				"method": "rhf"
			},
			{
				"type": "unocc",
				"energy": 0.04315,
				"method": "rhf"
			},
			{
				"type": "unocc",
				"energy": 0.06236,
				"method": "rhf"
			},
			{
				"type": "unocc",
				"energy": 0.08073,
				"method": "rhf"
			},
			{
				"type": "unocc",
				"energy": 0.09134,
				"method": "rhf"
			}
		],
		"cosmo_sigma_profile": { 
			"-0.025": 0.0,
			"-0.024": 0.0,
			"-0.023": 0.0,
			"-0.022": 0.0,
			"-0.021": 0.0,
			"-0.02": 0.0,
			"-0.019": 0.0,
			"-0.018": 0.0,
			"-0.017": 0.0,
			"-0.016": 0.0,
			"-0.015": 0.0,
			"-0.014": 0.0,
			"-0.013": 0.0,
			"-0.012": 0.0,
			"-0.011": 0.0,
			"-0.01": 0.0,
			"-0.009": 0.0,
			"-0.008": 0.0,
			"-0.007": 1.22852160478,
			"-0.006": 7.93824597601,
			"-0.005": 14.1043530185,
			"-0.004": 25.0202311952,
			"-0.003": 40.2323867731,
			"-0.002": 45.5084781495,
			"-0.001": 39.2297583191,
			"0.0": 42.9731004989,
			"0.001": 37.7473888777,
			"0.002": 13.9586714511,
			"0.003": 6.22576211942,
			"0.004": 4.37971319917,
			"0.005": 3.89959200919,
			"0.006": 2.52599171847,
			"0.007": 3.45019197052,
			"0.008": 2.63200087029,
			"0.009": 2.99973507944,
			"0.01": 3.42659636875,
			"0.011": 2.44575522003,
			"0.012": 4.75811564968,
			"0.013": 7.82849769602,
			"0.014": 3.25515009348,
			"0.015": 0.250122633617,
			"0.016": 0.0,
			"0.017": 0.0,
			"0.018": 0.0,
			"0.019": 0.0,
			"0.02": 0.0,
			"0.021": 0.0,
			"0.022": 0.0,
			"0.023": 0.0,
			"0.024": 0.0,
			"0.025": 0.0
		}
	}
}
