{
	 "smiles": "O=C1NC(=CC(C2=CC=CS2)=C1C#N)C1=CC=CO1", 
	 "Tm": 592.15, 
	 "num_atms": 27, 
	 "gaussian": { 
		 "optdone": 1, 
		 "sigma_profile": "yes", 
		 "theory": "DFT", 
		 "functional": "B3LYP", 
		 "basiset": "6-31G**", 
		 "properties": { 
			 "R2extent": 6255.396, 
			 "electric_dipole_moment_norm": 9.35806420474, 
			 "electric_quadrupole_moment_norm": 22.3687107306, 
			 "total_energy": -1196.40613711, 
			 "HOMO_LUMO_gap": 0.12784, 
			 "cosmo_polarized_energy": -22.08, 
			 "cosmo_cavitation_energy": 34.98, 
			 "cosmo_dispersion_energy": -25.39, 
			 "cosmo_repulsion_energy": 1.86, 
			 "cosmo_total_nonelectrostatic_energy": 11.45, 
			 "SMD_solvation_energy": 8.38 
		},
		"coords": [
			{
				"x": -0.8755497621,
				"y": -3.1236493297,
				"z": -0.0654426747,
				"element": "O" 
			},
			{
				"x": -0.3461144195,
				"y": -2.0218813915,
				"z": -0.0379234924,
				"element": "C" 
			},
			{
				"x": 0.7226416031,
				"y": -1.73648979,
				"z": -0.9066768759,
				"element": "N" 
			},
			{
				"x": 1.3966431663,
				"y": -0.5520747928,
				"z": -0.9731164152,
				"element": "C" 
			},
			{
				"x": 1.0313104516,
				"y": 0.4784247203,
				"z": -0.1371069991,
				"element": "C" 
			},
			{
				"x": -0.0432126156,
				"y": 0.3231253865,
				"z": 0.7859866348,
				"element": "C" 
			},
			{
				"x": -0.3912300984,
				"y": 1.4574713633,
				"z": 1.6466547127,
				"element": "C" 
			},
			{
				"x": -0.9650725055,
				"y": 1.4744144798,
				"z": 2.9013393538,
				"element": "C" 
			},
			{
				"x": -1.1253222795,
				"y": 2.7821923628,
				"z": 3.4343144704,
				"element": "C" 
			},
			{
				"x": -0.6812788155,
				"y": 3.7615157635,
				"z": 2.5862001176,
				"element": "C" 
			},
			{
				"x": -0.0533889825,
				"y": 3.1020691939,
				"z": 1.1190699279,
				"element": "S" 
			},
			{
				"x": -0.7208255622,
				"y": -0.9016260794,
				"z": 0.8285619686,
				"element": "C" 
			},
			{
				"x": -1.8317574043,
				"y": -1.1543731348,
				"z": 1.6825052399,
				"element": "C" 
			},
			{
				"x": -2.7356134025,
				"y": -1.3670735862,
				"z": 2.3857384864,
				"element": "N" 
			},
			{
				"x": 2.4807661868,
				"y": -0.4592538749,
				"z": -1.9311990388,
				"element": "C" 
			},
			{
				"x": 3.3522682657,
				"y": 0.5373197298,
				"z": -2.2925176009,
				"element": "C" 
			},
			{
				"x": 4.1908831998,
				"y": -0.0063552662,
				"z": -3.3102940747,
				"element": "C" 
			},
			{
				"x": 3.7767271497,
				"y": -1.2915466135,
				"z": -3.5018070714,
				"element": "C" 
			},
			{
				"x": 2.7386932807,
				"y": -1.5840845344,
				"z": -2.6724563376,
				"element": "O" 
			},
			{
				"x": 0.9876056242,
				"y": -2.4999675199,
				"z": -1.5176795677,
				"element": "H" 
			},
			{
				"x": 1.5928999077,
				"y": 1.4021419927,
				"z": -0.1612811964,
				"element": "H" 
			},
			{
				"x": -1.2546010012,
				"y": 0.5772639627,
				"z": 3.4312883155,
				"element": "H" 
			},
			{
				"x": -1.5549127656,
				"y": 2.9841800845,
				"z": 4.4084388114,
				"element": "H" 
			},
			{
				"x": -0.6984997943,
				"y": 4.8329849923,
				"z": 2.7310506172,
				"element": "H" 
			},
			{
				"x": 3.3902974873,
				"y": 1.5367125102,
				"z": -1.8847680366,
				"element": "H" 
			},
			{
				"x": 4.994539006,
				"y": 0.4939538789,
				"z": -3.8302845016,
				"element": "H" 
			},
			{
				"x": 4.0965040798,
				"y": -2.0888945081,
				"z": -4.1541947731,
				"element": "H" 
			}
		],
		 "valence_orbital": [ 
			{
				"type": "occ",
				"energy": -0.26993,
				"method": "rhf"
			},
			{
				"type": "occ",
				"energy": -0.26598,
				"method": "rhf"
			},
			{
				"type": "occ",
				"energy": -0.26184,
				"method": "rhf"
			},
			{
				"type": "occ",
				"energy": -0.24119,
				"method": "rhf"
			},
			{
				"type": "occ",
				"energy": -0.21958,
				"method": "rhf"
			},
			{
				"type": "unocc",
				"energy": -0.09174,
				"method": "rhf"
			},
			{
				"type": "unocc",
				"energy": -0.04699,
				"method": "rhf"
			},
			{
				"type": "unocc",
				"energy": 0.0021,
				"method": "rhf"
			},
			{
				"type": "unocc",
				"energy": 0.00783,
				"method": "rhf"
			},
			{
				"type": "unocc",
				"energy": 0.02094,
				"method": "rhf"
			}
		],
		"cosmo_sigma_profile": { 
			"-0.025": 0.0,
			"-0.024": 0.0,
			"-0.023": 0.0,
			"-0.022": 0.0,
			"-0.021": 0.0,
			"-0.02": 0.0,
			"-0.019": 0.0,
			"-0.018": 0.0,
			"-0.017": 0.0,
			"-0.016": 0.0,
			"-0.015": 0.0607996948509,
			"-0.014": 0.566112725628,
			"-0.013": 0.719481762561,
			"-0.012": 0.59196045119,
			"-0.011": 0.821091461203,
			"-0.01": 3.47444618796,
			"-0.009": 7.68204061895,
			"-0.008": 9.8318326708,
			"-0.007": 11.2973503669,
			"-0.006": 11.7985268924,
			"-0.005": 15.1366556936,
			"-0.004": 14.4040818344,
			"-0.003": 16.9225559878,
			"-0.002": 20.5077576705,
			"-0.001": 24.5851293047,
			"0.0": 26.5909403734,
			"0.001": 23.7243055005,
			"0.002": 23.8107753009,
			"0.003": 20.2386506535,
			"0.004": 8.66142042879,
			"0.005": 3.27472573967,
			"0.006": 3.39565700688,
			"0.007": 3.36490714727,
			"0.008": 4.87733870685,
			"0.009": 5.0604693222,
			"0.01": 4.0988685142,
			"0.011": 5.04284042546,
			"0.012": 5.10742814892,
			"0.013": 8.37317312831,
			"0.014": 2.40789640486,
			"0.015": 0.0,
			"0.016": 0.0,
			"0.017": 0.0,
			"0.018": 0.0,
			"0.019": 0.0,
			"0.02": 0.0,
			"0.021": 0.0,
			"0.022": 0.0,
			"0.023": 0.0,
			"0.024": 0.0,
			"0.025": 0.0
		}
	}
}
