{
	 "smiles": "CC(C)(C1=CC(Cl)=C(O)C(Cl)=C1)C1=CC(Cl)=C(O)C(Cl)=C1", 
	 "Tm": 408.15, 
	 "num_atms": 33, 
	 "gaussian": { 
		 "optdone": 1, 
		 "sigma_profile": "yes", 
		 "theory": "DFT", 
		 "functional": "B3LYP", 
		 "basiset": "6-31G**", 
		 "properties": { 
			 "R2extent": 10107.2064, 
			 "electric_dipole_moment_norm": 3.05973340342, 
			 "electric_quadrupole_moment_norm": 8.90796436735, 
			 "total_energy": -2570.04590332, 
			 "HOMO_LUMO_gap": 0.19785, 
			 "cosmo_polarized_energy": -12.53, 
			 "cosmo_cavitation_energy": 43.19, 
			 "cosmo_dispersion_energy": -30.31, 
			 "cosmo_repulsion_energy": 2.37, 
			 "cosmo_total_nonelectrostatic_energy": 15.25, 
			 "SMD_solvation_energy": 6.93 
		},
		"coords": [
			{
				"x": 1.7996976641,
				"y": 1.499720942,
				"z": 1.5540979043,
				"element": "C" 
			},
			{
				"x": 1.4011950346,
				"y": 0.1395054624,
				"z": 0.9331603421,
				"element": "C" 
			},
			{
				"x": 2.4559484633,
				"y": -0.9033726021,
				"z": 1.3744803292,
				"element": "C" 
			},
			{
				"x": 1.362656804,
				"y": 0.3172695177,
				"z": -0.5986712042,
				"element": "C" 
			},
			{
				"x": 0.3399519277,
				"y": 1.0842897206,
				"z": -1.1752383233,
				"element": "C" 
			},
			{
				"x": 0.3119294465,
				"y": 1.306136872,
				"z": -2.5445442875,
				"element": "C" 
			},
			{
				"x": -0.982048936,
				"y": 2.2715312811,
				"z": -3.254738375,
				"element": "Cl" 
			},
			{
				"x": 1.2848570891,
				"y": 0.7812818059,
				"z": -3.4123782838,
				"element": "C" 
			},
			{
				"x": 1.2819042285,
				"y": 0.9756397988,
				"z": -4.7471255349,
				"element": "O" 
			},
			{
				"x": 2.2992727498,
				"y": 0.0136134181,
				"z": -2.8241362205,
				"element": "C" 
			},
			{
				"x": 3.5384315154,
				"y": -0.6739038087,
				"z": -3.8493117425,
				"element": "Cl" 
			},
			{
				"x": 2.338750069,
				"y": -0.2129466788,
				"z": -1.4487800248,
				"element": "C" 
			},
			{
				"x": 0.0247423736,
				"y": -0.3468873584,
				"z": 1.4303068347,
				"element": "C" 
			},
			{
				"x": -0.6591733448,
				"y": 0.2643197233,
				"z": 2.4840535573,
				"element": "C" 
			},
			{
				"x": -1.8770299632,
				"y": -0.2506193159,
				"z": 2.9243969196,
				"element": "C" 
			},
			{
				"x": -2.7302669812,
				"y": 0.5367967621,
				"z": 4.2530082735,
				"element": "Cl" 
			},
			{
				"x": -2.4684603716,
				"y": -1.3831668057,
				"z": 2.3509425346,
				"element": "C" 
			},
			{
				"x": -3.6454347754,
				"y": -1.9045205352,
				"z": 2.7536954966,
				"element": "O" 
			},
			{
				"x": -1.770149049,
				"y": -1.9877939822,
				"z": 1.2901792496,
				"element": "C" 
			},
			{
				"x": -2.4596754578,
				"y": -3.4020754977,
				"z": 0.5278388541,
				"element": "Cl" 
			},
			{
				"x": -0.5577753765,
				"y": -1.4811086297,
				"z": 0.8417500423,
				"element": "C" 
			},
			{
				"x": 2.7590181687,
				"y": 1.8220085346,
				"z": 1.1399562805,
				"element": "H" 
			},
			{
				"x": 1.9155325347,
				"y": 1.424392076,
				"z": 2.6402774822,
				"element": "H" 
			},
			{
				"x": 1.0655348804,
				"y": 2.2809655581,
				"z": 1.3369619532,
				"element": "H" 
			},
			{
				"x": 2.2795834832,
				"y": -1.8829305982,
				"z": 0.9212521924,
				"element": "H" 
			},
			{
				"x": 2.4134147229,
				"y": -1.0271508579,
				"z": 2.4601466763,
				"element": "H" 
			},
			{
				"x": 3.4694714215,
				"y": -0.5796863867,
				"z": 1.1166560181,
				"element": "H" 
			},
			{
				"x": -0.44854575,
				"y": 1.5029426925,
				"z": -0.559844497,
				"element": "H" 
			},
			{
				"x": 0.5125525859,
				"y": 1.51799364,
				"z": -4.9806177323,
				"element": "H" 
			},
			{
				"x": 3.1508171397,
				"y": -0.8149230194,
				"z": -1.0619466424,
				"element": "H" 
			},
			{
				"x": -0.2658570053,
				"y": 1.1424959472,
				"z": 2.9794501691,
				"element": "H" 
			},
			{
				"x": -3.9888248645,
				"y": -1.3683222598,
				"z": 3.4851909636,
				"element": "H" 
			},
			{
				"x": -0.0682204273,
				"y": -1.976495416,
				"z": 0.010530795,
				"element": "H" 
			}
		],
		 "valence_orbital": [ 
			{
				"type": "occ",
				"energy": -0.31381,
				"method": "rhf"
			},
			{
				"type": "occ",
				"energy": -0.25775,
				"method": "rhf"
			},
			{
				"type": "occ",
				"energy": -0.25553,
				"method": "rhf"
			},
			{
				"type": "occ",
				"energy": -0.2418,
				"method": "rhf"
			},
			{
				"type": "occ",
				"energy": -0.23057,
				"method": "rhf"
			},
			{
				"type": "unocc",
				"energy": -0.03272,
				"method": "rhf"
			},
			{
				"type": "unocc",
				"energy": -0.02515,
				"method": "rhf"
			},
			{
				"type": "unocc",
				"energy": -0.01737,
				"method": "rhf"
			},
			{
				"type": "unocc",
				"energy": -0.01053,
				"method": "rhf"
			},
			{
				"type": "unocc",
				"energy": -0.00202,
				"method": "rhf"
			}
		],
		"cosmo_sigma_profile": { 
			"-0.025": 0.0,
			"-0.024": 0.0,
			"-0.023": 0.0,
			"-0.022": 0.0,
			"-0.021": 0.0,
			"-0.02": 0.0,
			"-0.019": 0.0,
			"-0.018": 0.0,
			"-0.017": 0.0,
			"-0.016": 0.330818641804,
			"-0.015": 1.80719890777,
			"-0.014": 1.11102144206,
			"-0.013": 1.39292847428,
			"-0.012": 1.39780366265,
			"-0.011": 1.80832570826,
			"-0.01": 1.71835753865,
			"-0.009": 2.05319230421,
			"-0.008": 2.14307472259,
			"-0.007": 5.1487812553,
			"-0.006": 9.82551921931,
			"-0.005": 13.6835540352,
			"-0.004": 20.5057901077,
			"-0.003": 23.3217290855,
			"-0.002": 26.9277588026,
			"-0.001": 28.1283385709,
			"0.0": 37.1647095315,
			"0.001": 47.2195983906,
			"0.002": 38.5100816219,
			"0.003": 27.8096938772,
			"0.004": 27.0337626049,
			"0.005": 13.16477668,
			"0.006": 4.06206079653,
			"0.007": 4.05814174723,
			"0.008": 3.48137085795,
			"0.009": 4.64393883677,
			"0.01": 3.95309227503,
			"0.011": 0.538378376452,
			"0.012": 0.0,
			"0.013": 0.0,
			"0.014": 0.0,
			"0.015": 0.0,
			"0.016": 0.0,
			"0.017": 0.0,
			"0.018": 0.0,
			"0.019": 0.0,
			"0.02": 0.0,
			"0.021": 0.0,
			"0.022": 0.0,
			"0.023": 0.0,
			"0.024": 0.0,
			"0.025": 0.0
		}
	}
}
