{
	 "smiles": "CC1=C(N=C(N)S1)C1=CC2=C(OCCC2)C=C1", 
	 "Tm": 483.15, 
	 "num_atms": 31, 
	 "gaussian": { 
		 "optdone": 1, 
		 "sigma_profile": "yes", 
		 "theory": "DFT", 
		 "functional": "B3LYP", 
		 "basiset": "6-31G**", 
		 "properties": { 
			 "R2extent": 7605.6898, 
			 "electric_dipole_moment_norm": 1.5689866443, 
			 "electric_quadrupole_moment_norm": 18.0140344682, 
			 "total_energy": -1086.74478336, 
			 "HOMO_LUMO_gap": 0.17317, 
			 "cosmo_polarized_energy": -13.2, 
			 "cosmo_cavitation_energy": 34.95, 
			 "cosmo_dispersion_energy": -26.55, 
			 "cosmo_repulsion_energy": 2.03, 
			 "cosmo_total_nonelectrostatic_energy": 10.43, 
			 "SMD_solvation_energy": 3.85 
		},
		"coords": [
			{
				"x": 1.7896314016,
				"y": -4.44633485,
				"z": 2.185869059,
				"element": "C" 
			},
			{
				"x": 2.6267544596,
				"y": -3.2072817984,
				"z": 2.0714902172,
				"element": "C" 
			},
			{
				"x": 2.3314350808,
				"y": -1.9571855053,
				"z": 1.5833967054,
				"element": "C" 
			},
			{
				"x": 3.3407347014,
				"y": -1.0041135596,
				"z": 1.7073457203,
				"element": "N" 
			},
			{
				"x": 4.4006986735,
				"y": -1.5017769926,
				"z": 2.2631907522,
				"element": "C" 
			},
			{
				"x": 5.5341975389,
				"y": -0.7708054605,
				"z": 2.5598583919,
				"element": "N" 
			},
			{
				"x": 4.2716389755,
				"y": -3.2041349713,
				"z": 2.7098026951,
				"element": "S" 
			},
			{
				"x": 1.0587878307,
				"y": -1.5237724913,
				"z": 0.9704521199,
				"element": "C" 
			},
			{
				"x": 0.6298564859,
				"y": -0.1986538769,
				"z": 1.139772997,
				"element": "C" 
			},
			{
				"x": -0.56269759,
				"y": 0.2795465345,
				"z": 0.5939051178,
				"element": "C" 
			},
			{
				"x": -1.352123054,
				"y": -0.6063722267,
				"z": -0.1607807096,
				"element": "C" 
			},
			{
				"x": -2.5481995412,
				"y": -0.2525982478,
				"z": -0.7276702777,
				"element": "O" 
			},
			{
				"x": -2.8455147722,
				"y": 1.1462274892,
				"z": -0.7862536649,
				"element": "C" 
			},
			{
				"x": -2.5162850794,
				"y": 1.85180724,
				"z": 0.5243355051,
				"element": "C" 
			},
			{
				"x": -1.0164808593,
				"y": 1.7098128254,
				"z": 0.8115967443,
				"element": "C" 
			},
			{
				"x": -0.9393429517,
				"y": -1.9291124045,
				"z": -0.3553430612,
				"element": "C" 
			},
			{
				"x": 0.2529492974,
				"y": -2.379793142,
				"z": 0.1978325597,
				"element": "C" 
			},
			{
				"x": 1.9758339227,
				"y": -5.159216813,
				"z": 1.3719281922,
				"element": "H" 
			},
			{
				"x": 1.9851028117,
				"y": -4.9711965906,
				"z": 3.1269641444,
				"element": "H" 
			},
			{
				"x": 0.728513724,
				"y": -4.1859444375,
				"z": 2.1648743811,
				"element": "H" 
			},
			{
				"x": 5.5599115276,
				"y": 0.1121227273,
				"z": 2.0652341638,
				"element": "H" 
			},
			{
				"x": 6.410916031,
				"y": -1.2722281103,
				"z": 2.5279565153,
				"element": "H" 
			},
			{
				"x": 1.2531893937,
				"y": 0.4743894363,
				"z": 1.7211801512,
				"element": "H" 
			},
			{
				"x": -3.9100215933,
				"y": 1.2040205931,
				"z": -1.0274501783,
				"element": "H" 
			},
			{
				"x": -2.2805921706,
				"y": 1.5997066793,
				"z": -1.614902081,
				"element": "H" 
			},
			{
				"x": -3.1039102057,
				"y": 1.3950895784,
				"z": 1.3295041872,
				"element": "H" 
			},
			{
				"x": -2.8090217217,
				"y": 2.9056107562,
				"z": 0.4607110139,
				"element": "H" 
			},
			{
				"x": -0.7858528311,
				"y": 2.0235791632,
				"z": 1.8357584931,
				"element": "H" 
			},
			{
				"x": -0.4534614378,
				"y": 2.3838150722,
				"z": 0.1504676109,
				"element": "H" 
			},
			{
				"x": -1.5616564824,
				"y": -2.5811789225,
				"z": -0.95976577,
				"element": "H" 
			},
			{
				"x": 0.5756084344,
				"y": -3.3951276944,
				"z": -0.0045616955,
				"element": "H" 
			}
		],
		 "valence_orbital": [ 
			{
				"type": "occ",
				"energy": -0.26516,
				"method": "rhf"
			},
			{
				"type": "occ",
				"energy": -0.26305,
				"method": "rhf"
			},
			{
				"type": "occ",
				"energy": -0.23523,
				"method": "rhf"
			},
			{
				"type": "occ",
				"energy": -0.21973,
				"method": "rhf"
			},
			{
				"type": "occ",
				"energy": -0.18515,
				"method": "rhf"
			},
			{
				"type": "unocc",
				"energy": -0.01198,
				"method": "rhf"
			},
			{
				"type": "unocc",
				"energy": 0.00421,
				"method": "rhf"
			},
			{
				"type": "unocc",
				"energy": 0.01719,
				"method": "rhf"
			},
			{
				"type": "unocc",
				"energy": 0.02482,
				"method": "rhf"
			},
			{
				"type": "unocc",
				"energy": 0.07611,
				"method": "rhf"
			}
		],
		"cosmo_sigma_profile": { 
			"-0.025": 0.0,
			"-0.024": 0.0,
			"-0.023": 0.0,
			"-0.022": 0.0,
			"-0.021": 0.0,
			"-0.02": 0.0,
			"-0.019": 0.0,
			"-0.018": 0.0,
			"-0.017": 0.0,
			"-0.016": 0.0,
			"-0.015": 0.0921460843458,
			"-0.014": 1.21702076769,
			"-0.013": 2.81810427852,
			"-0.012": 2.32784833747,
			"-0.011": 3.18295957525,
			"-0.01": 1.98775684602,
			"-0.009": 1.83526741465,
			"-0.008": 2.04872154819,
			"-0.007": 2.10158407517,
			"-0.006": 2.94535740817,
			"-0.005": 11.33810134,
			"-0.004": 28.9959503558,
			"-0.003": 30.809367128,
			"-0.002": 27.6385094913,
			"-0.001": 25.0956132685,
			"0.0": 16.9853720821,
			"0.001": 12.461776315,
			"0.002": 14.7021275831,
			"0.003": 17.5009568784,
			"0.004": 21.8498714017,
			"0.005": 17.4521902952,
			"0.006": 11.8450981172,
			"0.007": 4.31798444197,
			"0.008": 3.67573703315,
			"0.009": 3.71218111823,
			"0.01": 3.54750237268,
			"0.011": 2.52452061602,
			"0.012": 2.00653791253,
			"0.013": 1.00517163251,
			"0.014": 0.677324675066,
			"0.015": 0.0681346350171,
			"0.016": 0.0,
			"0.017": 0.0,
			"0.018": 0.0,
			"0.019": 0.0,
			"0.02": 0.0,
			"0.021": 0.0,
			"0.022": 0.0,
			"0.023": 0.0,
			"0.024": 0.0,
			"0.025": 0.0
		}
	}
}
