{
	 "smiles": "CC1=NC=CN1C1=CC=C(N)C=C1", 
	 "Tm": 385.15, 
	 "num_atms": 24, 
	 "gaussian": { 
		 "optdone": 1, 
		 "sigma_profile": "yes", 
		 "theory": "DFT", 
		 "functional": "B3LYP", 
		 "basiset": "6-31G**", 
		 "properties": { 
			 "R2extent": 3324.1031, 
			 "electric_dipole_moment_norm": 5.84651233557, 
			 "electric_quadrupole_moment_norm": 12.0053661298, 
			 "total_energy": -551.950301616, 
			 "HOMO_LUMO_gap": 0.19182, 
			 "cosmo_polarized_energy": -14.54, 
			 "cosmo_cavitation_energy": 27.9, 
			 "cosmo_dispersion_energy": -20.05, 
			 "cosmo_repulsion_energy": 1.59, 
			 "cosmo_total_nonelectrostatic_energy": 9.44, 
			 "SMD_solvation_energy": 3.62 
		},
		"coords": [
			{
				"x": 3.7341720171,
				"y": -0.4361925833,
				"z": 1.098862206,
				"element": "C" 
			},
			{
				"x": 2.8184351745,
				"y": -1.316247046,
				"z": 1.8883153918,
				"element": "C" 
			},
			{
				"x": 3.2100161637,
				"y": -2.2103895902,
				"z": 2.7752981987,
				"element": "N" 
			},
			{
				"x": 2.0611788335,
				"y": -2.8146310288,
				"z": 3.2350067884,
				"element": "C" 
			},
			{
				"x": 0.9586422584,
				"y": -2.2873568838,
				"z": 2.6186357276,
				"element": "C" 
			},
			{
				"x": 1.442524137,
				"y": -1.3148692234,
				"z": 1.7529931135,
				"element": "N" 
			},
			{
				"x": 0.6485078094,
				"y": -0.5245611798,
				"z": 0.8693914559,
				"element": "C" 
			},
			{
				"x": 0.6527628243,
				"y": 0.871258899,
				"z": 0.9567303877,
				"element": "C" 
			},
			{
				"x": -0.1268681272,
				"y": 1.6355636536,
				"z": 0.094961898,
				"element": "C" 
			},
			{
				"x": -0.9480500321,
				"y": 1.021784544,
				"z": -0.8678652396,
				"element": "C" 
			},
			{
				"x": -1.6913987544,
				"y": 1.7866772565,
				"z": -1.7639152547,
				"element": "N" 
			},
			{
				"x": -0.9563224692,
				"y": -0.3829719349,
				"z": -0.9402669423,
				"element": "C" 
			},
			{
				"x": -0.162734578,
				"y": -1.1432643748,
				"z": -0.0880966008,
				"element": "C" 
			},
			{
				"x": 4.7524350483,
				"y": -0.8036481422,
				"z": 1.2346421032,
				"element": "H" 
			},
			{
				"x": 3.4907316027,
				"y": -0.4475404153,
				"z": 0.0312959935,
				"element": "H" 
			},
			{
				"x": 3.7034839414,
				"y": 0.6083181591,
				"z": 1.4300831157,
				"element": "H" 
			},
			{
				"x": 2.094523642,
				"y": -3.593885434,
				"z": 3.9842316329,
				"element": "H" 
			},
			{
				"x": -0.0996772362,
				"y": -2.4744331922,
				"z": 2.7146921591,
				"element": "H" 
			},
			{
				"x": 1.2585307812,
				"y": 1.3579241651,
				"z": 1.7143706605,
				"element": "H" 
			},
			{
				"x": -0.1089013224,
				"y": 2.7196976045,
				"z": 0.1716316979,
				"element": "H" 
			},
			{
				"x": -1.9084504057,
				"y": 2.7257765114,
				"z": -1.4609895332,
				"element": "H" 
			},
			{
				"x": -2.489453251,
				"y": 1.3238883598,
				"z": -2.1758083499,
				"element": "H" 
			},
			{
				"x": -1.578893047,
				"y": -0.8779499956,
				"z": -1.6811869396,
				"element": "H" 
			},
			{
				"x": -0.1641950101,
				"y": -2.2262481287,
				"z": -0.1641136702,
				"element": "H" 
			}
		],
		 "valence_orbital": [ 
			{
				"type": "occ",
				"energy": -0.26251,
				"method": "rhf"
			},
			{
				"type": "occ",
				"energy": -0.26099,
				"method": "rhf"
			},
			{
				"type": "occ",
				"energy": -0.25034,
				"method": "rhf"
			},
			{
				"type": "occ",
				"energy": -0.21277,
				"method": "rhf"
			},
			{
				"type": "occ",
				"energy": -0.20374,
				"method": "rhf"
			},
			{
				"type": "unocc",
				"energy": -0.01192,
				"method": "rhf"
			},
			{
				"type": "unocc",
				"energy": -0.00133,
				"method": "rhf"
			},
			{
				"type": "unocc",
				"energy": 0.0453,
				"method": "rhf"
			},
			{
				"type": "unocc",
				"energy": 0.07113,
				"method": "rhf"
			},
			{
				"type": "unocc",
				"energy": 0.08383,
				"method": "rhf"
			}
		],
		"cosmo_sigma_profile": { 
			"-0.025": 0.0,
			"-0.024": 0.0,
			"-0.023": 0.0,
			"-0.022": 0.0,
			"-0.021": 0.0,
			"-0.02": 0.0,
			"-0.019": 0.0,
			"-0.018": 0.0,
			"-0.017": 0.0,
			"-0.016": 0.0,
			"-0.015": 0.0,
			"-0.014": 0.0,
			"-0.013": 0.777074029796,
			"-0.012": 2.85403608022,
			"-0.011": 2.65686542606,
			"-0.01": 3.21969186312,
			"-0.009": 3.79534543819,
			"-0.008": 3.13451225767,
			"-0.007": 5.47860987146,
			"-0.006": 11.1639227294,
			"-0.005": 15.3007911537,
			"-0.004": 17.300752377,
			"-0.003": 15.5291820919,
			"-0.002": 15.4089531078,
			"-0.001": 16.5752402488,
			"0.0": 14.9031488893,
			"0.001": 12.2290508455,
			"0.002": 10.1343477091,
			"0.003": 11.2384207028,
			"0.004": 11.6560504448,
			"0.005": 16.3838080807,
			"0.006": 9.37812183722,
			"0.007": 3.82992341701,
			"0.008": 2.57964161044,
			"0.009": 2.22920903148,
			"0.01": 2.17418191791,
			"0.011": 2.25424317354,
			"0.012": 1.88724580163,
			"0.013": 1.73047329761,
			"0.014": 1.85658100544,
			"0.015": 1.03368414246,
			"0.016": 0.886953539728,
			"0.017": 1.19591023286,
			"0.018": 0.817344652392,
			"0.019": 0.313875680023,
			"0.02": 0.0,
			"0.021": 0.0,
			"0.022": 0.0,
			"0.023": 0.0,
			"0.024": 0.0,
			"0.025": 0.0
		}
	}
}
