{
	 "smiles": "COC1=CC=C(C=C1F)C(Cl)=O", 
	 "Tm": 342.65, 
	 "num_atms": 18, 
	 "gaussian": { 
		 "optdone": 1, 
		 "sigma_profile": "yes", 
		 "theory": "DFT", 
		 "functional": "B3LYP", 
		 "basiset": "6-31G**", 
		 "properties": { 
			 "R2extent": 3246.8892, 
			 "electric_dipole_moment_norm": 5.39492779284, 
			 "electric_quadrupole_moment_norm": 16.2641112241, 
			 "total_energy": -1018.9332266, 
			 "HOMO_LUMO_gap": 0.17459, 
			 "cosmo_polarized_energy": -8.75, 
			 "cosmo_cavitation_energy": 25.2, 
			 "cosmo_dispersion_energy": -18.54, 
			 "cosmo_repulsion_energy": 1.45, 
			 "cosmo_total_nonelectrostatic_energy": 8.11, 
			 "SMD_solvation_energy": 6.32 
		},
		"coords": [
			{
				"x": -1.3660827876,
				"y": -2.2164749518,
				"z": 2.4717940821,
				"element": "C" 
			},
			{
				"x": -1.0051142604,
				"y": -0.8633386165,
				"z": 2.210222459,
				"element": "O" 
			},
			{
				"x": -0.8752990206,
				"y": -0.4713037548,
				"z": 0.9265839441,
				"element": "C" 
			},
			{
				"x": -1.0638219921,
				"y": -1.2796448015,
				"z": -0.2031824686,
				"element": "C" 
			},
			{
				"x": -0.8980964573,
				"y": -0.7491187842,
				"z": -1.4788581568,
				"element": "C" 
			},
			{
				"x": -0.541487568,
				"y": 0.5958738633,
				"z": -1.6581564948,
				"element": "C" 
			},
			{
				"x": -0.3502074234,
				"y": 1.4143611317,
				"z": -0.5299504822,
				"element": "C" 
			},
			{
				"x": -0.5169232375,
				"y": 0.878694988,
				"z": 0.728129485,
				"element": "C" 
			},
			{
				"x": -0.3373943729,
				"y": 1.6491917042,
				"z": 1.8140535056,
				"element": "F" 
			},
			{
				"x": -0.3911103384,
				"y": 1.0596944452,
				"z": -3.0499369906,
				"element": "C" 
			},
			{
				"x": 0.07609812,
				"y": 2.8257126488,
				"z": -3.23562796,
				"element": "Cl" 
			},
			{
				"x": -0.5437069709,
				"y": 0.4019314119,
				"z": -4.0362158051,
				"element": "O" 
			},
			{
				"x": -2.3462967123,
				"y": -2.4576262653,
				"z": 2.0438786718,
				"element": "H" 
			},
			{
				"x": -1.4123603381,
				"y": -2.305193659,
				"z": 3.5572109136,
				"element": "H" 
			},
			{
				"x": -0.6147349643,
				"y": -2.9125366618,
				"z": 2.0805612719,
				"element": "H" 
			},
			{
				"x": -1.3393590035,
				"y": -2.3209328866,
				"z": -0.0895744742,
				"element": "H" 
			},
			{
				"x": -1.0435417062,
				"y": -1.3727638496,
				"z": -2.3534482624,
				"element": "H" 
			},
			{
				"x": -0.0747609667,
				"y": 2.4566740381,
				"z": -0.6268832384,
				"element": "H" 
			}
		],
		 "valence_orbital": [ 
			{
				"type": "occ",
				"energy": -0.31765,
				"method": "rhf"
			},
			{
				"type": "occ",
				"energy": -0.31631,
				"method": "rhf"
			},
			{
				"type": "occ",
				"energy": -0.29061,
				"method": "rhf"
			},
			{
				"type": "occ",
				"energy": -0.27602,
				"method": "rhf"
			},
			{
				"type": "occ",
				"energy": -0.24732,
				"method": "rhf"
			},
			{
				"type": "unocc",
				"energy": -0.07273,
				"method": "rhf"
			},
			{
				"type": "unocc",
				"energy": -0.02298,
				"method": "rhf"
			},
			{
				"type": "unocc",
				"energy": 0.02068,
				"method": "rhf"
			},
			{
				"type": "unocc",
				"energy": 0.03433,
				"method": "rhf"
			},
			{
				"type": "unocc",
				"energy": 0.06725,
				"method": "rhf"
			}
		],
		"cosmo_sigma_profile": { 
			"-0.025": 0.0,
			"-0.024": 0.0,
			"-0.023": 0.0,
			"-0.022": 0.0,
			"-0.021": 0.0,
			"-0.02": 0.0,
			"-0.019": 0.0,
			"-0.018": 0.0,
			"-0.017": 0.0,
			"-0.016": 0.0,
			"-0.015": 0.0,
			"-0.014": 0.0,
			"-0.013": 0.0,
			"-0.012": 0.0,
			"-0.011": 0.0,
			"-0.01": 0.0,
			"-0.009": 0.233433795265,
			"-0.008": 2.91178667875,
			"-0.007": 9.34892289416,
			"-0.006": 13.0371406983,
			"-0.005": 11.8704640996,
			"-0.004": 13.6418388261,
			"-0.003": 11.0924362174,
			"-0.002": 11.9041552291,
			"-0.001": 19.6048056819,
			"0.0": 20.3633321537,
			"0.001": 17.2683174132,
			"0.002": 13.928129996,
			"0.003": 12.1874312371,
			"0.004": 16.3370863589,
			"0.005": 9.92001283178,
			"0.006": 5.40594270579,
			"0.007": 4.43265061522,
			"0.008": 5.14023812409,
			"0.009": 5.26745104796,
			"0.01": 0.948082411761,
			"0.011": 0.0,
			"0.012": 0.0,
			"0.013": 0.0,
			"0.014": 0.0,
			"0.015": 0.0,
			"0.016": 0.0,
			"0.017": 0.0,
			"0.018": 0.0,
			"0.019": 0.0,
			"0.02": 0.0,
			"0.021": 0.0,
			"0.022": 0.0,
			"0.023": 0.0,
			"0.024": 0.0,
			"0.025": 0.0
		}
	}
}
