{
	 "smiles": "CC1=CC(N2CCCC2)=C(C=C1)C#N", 
	 "Tm": 342.15, 
	 "num_atms": 28, 
	 "gaussian": { 
		 "optdone": 1, 
		 "sigma_profile": "yes", 
		 "theory": "DFT", 
		 "functional": "B3LYP", 
		 "basiset": "6-31G**", 
		 "properties": { 
			 "R2extent": 3147.1705, 
			 "electric_dipole_moment_norm": 4.9745226957, 
			 "electric_quadrupole_moment_norm": 14.4706224382, 
			 "total_energy": -575.210849303, 
			 "HOMO_LUMO_gap": 0.16877, 
			 "cosmo_polarized_energy": -9.92, 
			 "cosmo_cavitation_energy": 30.38, 
			 "cosmo_dispersion_energy": -21.88, 
			 "cosmo_repulsion_energy": 1.72, 
			 "cosmo_total_nonelectrostatic_energy": 10.22, 
			 "SMD_solvation_energy": 4.83 
		},
		"coords": [
			{
				"x": -3.4100339313,
				"y": -1.4213550424,
				"z": 2.5882429007,
				"element": "C" 
			},
			{
				"x": -2.5967878265,
				"y": -1.0802370269,
				"z": 1.3625364822,
				"element": "C" 
			},
			{
				"x": -1.3176938931,
				"y": -0.5493910553,
				"z": 1.4891911189,
				"element": "C" 
			},
			{
				"x": -0.511926931,
				"y": -0.2011869356,
				"z": 0.3746444281,
				"element": "C" 
			},
			{
				"x": 0.7357347177,
				"y": 0.3377962057,
				"z": 0.5785522906,
				"element": "N" 
			},
			{
				"x": 1.5063752628,
				"y": 1.1074460498,
				"z": -0.4169191181,
				"element": "C" 
			},
			{
				"x": 2.4891589001,
				"y": 1.9261750042,
				"z": 0.432723044,
				"element": "C" 
			},
			{
				"x": 2.7126656354,
				"y": 1.0364165857,
				"z": 1.6631365021,
				"element": "C" 
			},
			{
				"x": 1.3152654821,
				"y": 0.4631205887,
				"z": 1.9207423581,
				"element": "C" 
			},
			{
				"x": -1.063780475,
				"y": -0.4562405247,
				"z": -0.9183684017,
				"element": "C" 
			},
			{
				"x": -2.3675874107,
				"y": -0.9829615135,
				"z": -1.0323116954,
				"element": "C" 
			},
			{
				"x": -3.1316499222,
				"y": -1.288459614,
				"z": 0.0788146056,
				"element": "C" 
			},
			{
				"x": -0.3460362502,
				"y": -0.2862298575,
				"z": -2.1430030402,
				"element": "C" 
			},
			{
				"x": 0.1904228175,
				"y": -0.1961024548,
				"z": -3.1739145725,
				"element": "N" 
			},
			{
				"x": -3.6665334118,
				"y": -2.4868966153,
				"z": 2.6052048219,
				"element": "H" 
			},
			{
				"x": -4.3544191766,
				"y": -0.8653217499,
				"z": 2.6016646196,
				"element": "H" 
			},
			{
				"x": -2.8700092024,
				"y": -1.1907382947,
				"z": 3.510299869,
				"element": "H" 
			},
			{
				"x": -0.9319951619,
				"y": -0.3804710574,
				"z": 2.4869960939,
				"element": "H" 
			},
			{
				"x": 2.0376648335,
				"y": 0.4428122925,
				"z": -1.1070274557,
				"element": "H" 
			},
			{
				"x": 0.8453082455,
				"y": 1.7402659699,
				"z": -1.0160657816,
				"element": "H" 
			},
			{
				"x": 3.4088815715,
				"y": 2.1574826134,
				"z": -0.1106720051,
				"element": "H" 
			},
			{
				"x": 2.0290989772,
				"y": 2.8743307241,
				"z": 0.7337209796,
				"element": "H" 
			},
			{
				"x": 3.4124930076,
				"y": 0.2274865502,
				"z": 1.4255471761,
				"element": "H" 
			},
			{
				"x": 3.1038351536,
				"y": 1.5779999451,
				"z": 2.5284249956,
				"element": "H" 
			},
			{
				"x": 0.7233792067,
				"y": 1.1477713359,
				"z": 2.5495235797,
				"element": "H" 
			},
			{
				"x": 1.3430346991,
				"y": -0.5088928751,
				"z": 2.426522991,
				"element": "H" 
			},
			{
				"x": -2.7568498015,
				"y": -1.1601403809,
				"z": -2.0299436735,
				"element": "H" 
			},
			{
				"x": -4.1307151161,
				"y": -1.6965788671,
				"z": -0.040263113,
				"element": "H" 
			}
		],
		 "valence_orbital": [ 
			{
				"type": "occ",
				"energy": -0.32703,
				"method": "rhf"
			},
			{
				"type": "occ",
				"energy": -0.30978,
				"method": "rhf"
			},
			{
				"type": "occ",
				"energy": -0.28987,
				"method": "rhf"
			},
			{
				"type": "occ",
				"energy": -0.24559,
				"method": "rhf"
			},
			{
				"type": "occ",
				"energy": -0.19794,
				"method": "rhf"
			},
			{
				"type": "unocc",
				"energy": -0.02917,
				"method": "rhf"
			},
			{
				"type": "unocc",
				"energy": 0.00375,
				"method": "rhf"
			},
			{
				"type": "unocc",
				"energy": 0.0462,
				"method": "rhf"
			},
			{
				"type": "unocc",
				"energy": 0.07769,
				"method": "rhf"
			},
			{
				"type": "unocc",
				"energy": 0.08866,
				"method": "rhf"
			}
		],
		"cosmo_sigma_profile": { 
			"-0.025": 0.0,
			"-0.024": 0.0,
			"-0.023": 0.0,
			"-0.022": 0.0,
			"-0.021": 0.0,
			"-0.02": 0.0,
			"-0.019": 0.0,
			"-0.018": 0.0,
			"-0.017": 0.0,
			"-0.016": 0.0,
			"-0.015": 0.0,
			"-0.014": 0.0,
			"-0.013": 0.0,
			"-0.012": 0.0,
			"-0.011": 0.0,
			"-0.01": 0.0,
			"-0.009": 0.0,
			"-0.008": 0.00217824442212,
			"-0.007": 1.0227130085,
			"-0.006": 3.26271668402,
			"-0.005": 11.4063138837,
			"-0.004": 27.5910933091,
			"-0.003": 36.9713371911,
			"-0.002": 31.5068416104,
			"-0.001": 25.8341989633,
			"0.0": 23.8780215026,
			"0.001": 12.2689874399,
			"0.002": 11.6847515955,
			"0.003": 11.7495301008,
			"0.004": 10.2983073136,
			"0.005": 9.78859356414,
			"0.006": 2.54283754051,
			"0.007": 2.3356127007,
			"0.008": 2.0255272896,
			"0.009": 2.57448403263,
			"0.01": 3.05083542102,
			"0.011": 3.12047327445,
			"0.012": 2.68820194832,
			"0.013": 2.68062382832,
			"0.014": 1.8218905628,
			"0.015": 0.116661751474,
			"0.016": 0.0,
			"0.017": 0.0,
			"0.018": 0.0,
			"0.019": 0.0,
			"0.02": 0.0,
			"0.021": 0.0,
			"0.022": 0.0,
			"0.023": 0.0,
			"0.024": 0.0,
			"0.025": 0.0
		}
	}
}
