{
	 "smiles": "CC1(C)CC(C)(C2=CC=CC=C12)C1=CC=CC=C1", 
	 "Tm": 324.35, 
	 "num_atms": 38, 
	 "gaussian": { 
		 "optdone": 1, 
		 "sigma_profile": "yes", 
		 "theory": "DFT", 
		 "functional": "B3LYP", 
		 "basiset": "6-31G**", 
		 "properties": { 
			 "R2extent": 4638.9999, 
			 "electric_dipole_moment_norm": 0.423665622868, 
			 "electric_quadrupole_moment_norm": 3.83809280112, 
			 "total_energy": -697.990975701, 
			 "HOMO_LUMO_gap": 0.22589, 
			 "cosmo_polarized_energy": -5.27, 
			 "cosmo_cavitation_energy": 37.75, 
			 "cosmo_dispersion_energy": -25.86, 
			 "cosmo_repulsion_energy": 1.97, 
			 "cosmo_total_nonelectrostatic_energy": 13.86, 
			 "SMD_solvation_energy": 6.26 
		},
		"coords": [
			{
				"x": -2.6120619014,
				"y": 1.7558906815,
				"z": 0.9772948915,
				"element": "C" 
			},
			{
				"x": -1.3488450739,
				"y": 0.903740718,
				"z": 1.2075535982,
				"element": "C" 
			},
			{
				"x": -1.2848601867,
				"y": 0.502765487,
				"z": 2.6989307646,
				"element": "C" 
			},
			{
				"x": -1.3351685847,
				"y": -0.3420099482,
				"z": 0.263125006,
				"element": "C" 
			},
			{
				"x": 0.1184695621,
				"y": -0.5222751555,
				"z": -0.3068787787,
				"element": "C" 
			},
			{
				"x": 0.903353449,
				"y": -1.5633683338,
				"z": 0.5235528028,
				"element": "C" 
			},
			{
				"x": 0.7209721021,
				"y": 0.8619359288,
				"z": -0.0575912559,
				"element": "C" 
			},
			{
				"x": 1.9372274236,
				"y": 1.3562705879,
				"z": -0.5323096658,
				"element": "C" 
			},
			{
				"x": 2.3516441248,
				"y": 2.6341098641,
				"z": -0.1502876917,
				"element": "C" 
			},
			{
				"x": 1.5560250313,
				"y": 3.4089673841,
				"z": 0.7003999304,
				"element": "C" 
			},
			{
				"x": 0.3394214373,
				"y": 2.9124173337,
				"z": 1.1744506926,
				"element": "C" 
			},
			{
				"x": -0.0775267824,
				"y": 1.6354507469,
				"z": 0.7914305098,
				"element": "C" 
			},
			{
				"x": 0.0860414341,
				"y": -0.8821183431,
				"z": -1.8010293141,
				"element": "C" 
			},
			{
				"x": 0.4775463969,
				"y": -2.1339783673,
				"z": -2.2931622155,
				"element": "C" 
			},
			{
				"x": 0.4039538777,
				"y": -2.431168258,
				"z": -3.6577909258,
				"element": "C" 
			},
			{
				"x": -0.0621668347,
				"y": -1.4803275935,
				"z": -4.5626384981,
				"element": "C" 
			},
			{
				"x": -0.4539939062,
				"y": -0.2251789263,
				"z": -4.0897211294,
				"element": "C" 
			},
			{
				"x": -0.378506964,
				"y": 0.0661328083,
				"z": -2.7299227292,
				"element": "C" 
			},
			{
				"x": -2.6204255074,
				"y": 2.640822886,
				"z": 1.6232399773,
				"element": "H" 
			},
			{
				"x": -2.6758185521,
				"y": 2.0970675778,
				"z": -0.0609416787,
				"element": "H" 
			},
			{
				"x": -3.5150264372,
				"y": 1.1759499389,
				"z": 1.2005124734,
				"element": "H" 
			},
			{
				"x": -2.1802869721,
				"y": -0.0609885828,
				"z": 2.9852626048,
				"element": "H" 
			},
			{
				"x": -1.2283902799,
				"y": 1.3904370003,
				"z": 3.3384069643,
				"element": "H" 
			},
			{
				"x": -0.4106282192,
				"y": -0.1169973687,
				"z": 2.9174164789,
				"element": "H" 
			},
			{
				"x": -1.6796777685,
				"y": -1.2484013468,
				"z": 0.7723318326,
				"element": "H" 
			},
			{
				"x": -2.0236422198,
				"y": -0.1676410078,
				"z": -0.568630933,
				"element": "H" 
			},
			{
				"x": 1.9303776116,
				"y": -1.6701294533,
				"z": 0.1602179432,
				"element": "H" 
			},
			{
				"x": 0.4223862862,
				"y": -2.5465943134,
				"z": 0.4934514567,
				"element": "H" 
			},
			{
				"x": 0.9551008531,
				"y": -1.2520500548,
				"z": 1.5695882845,
				"element": "H" 
			},
			{
				"x": 2.5487727732,
				"y": 0.7586647677,
				"z": -1.2032365226,
				"element": "H" 
			},
			{
				"x": 3.2940459167,
				"y": 3.0298454899,
				"z": -0.5187007618,
				"element": "H" 
			},
			{
				"x": 1.8837429899,
				"y": 4.4036525866,
				"z": 0.9898307409,
				"element": "H" 
			},
			{
				"x": -0.276091902,
				"y": 3.5216693039,
				"z": 1.8317667513,
				"element": "H" 
			},
			{
				"x": 0.8461067299,
				"y": -2.8966273455,
				"z": -1.616437697,
				"element": "H" 
			},
			{
				"x": 0.7147714174,
				"y": -3.4115986013,
				"z": -4.0085966473,
				"element": "H" 
			},
			{
				"x": -0.1181837435,
				"y": -1.7103859249,
				"z": -5.6227794434,
				"element": "H" 
			},
			{
				"x": -0.8150509114,
				"y": 0.5303093281,
				"z": -4.7823362501,
				"element": "H" 
			},
			{
				"x": -0.6757066702,
				"y": 1.0507385053,
				"z": -2.3797715658,
				"element": "H" 
			}
		],
		 "valence_orbital": [ 
			{
				"type": "occ",
				"energy": -0.3062,
				"method": "rhf"
			},
			{
				"type": "occ",
				"energy": -0.24589,
				"method": "rhf"
			},
			{
				"type": "occ",
				"energy": -0.24287,
				"method": "rhf"
			},
			{
				"type": "occ",
				"energy": -0.23515,
				"method": "rhf"
			},
			{
				"type": "occ",
				"energy": -0.22771,
				"method": "rhf"
			},
			{
				"type": "unocc",
				"energy": -0.00182,
				"method": "rhf"
			},
			{
				"type": "unocc",
				"energy": 0.00173,
				"method": "rhf"
			},
			{
				"type": "unocc",
				"energy": 0.00399,
				"method": "rhf"
			},
			{
				"type": "unocc",
				"energy": 0.01295,
				"method": "rhf"
			},
			{
				"type": "unocc",
				"energy": 0.08164,
				"method": "rhf"
			}
		],
		"cosmo_sigma_profile": { 
			"-0.025": 0.0,
			"-0.024": 0.0,
			"-0.023": 0.0,
			"-0.022": 0.0,
			"-0.021": 0.0,
			"-0.02": 0.0,
			"-0.019": 0.0,
			"-0.018": 0.0,
			"-0.017": 0.0,
			"-0.016": 0.0,
			"-0.015": 0.0,
			"-0.014": 0.0,
			"-0.013": 0.0,
			"-0.012": 0.0,
			"-0.011": 0.0,
			"-0.01": 0.0,
			"-0.009": 0.0,
			"-0.008": 0.0,
			"-0.007": 0.0,
			"-0.006": 1.43531178483,
			"-0.005": 13.4455172404,
			"-0.004": 21.2493452692,
			"-0.003": 36.5964765109,
			"-0.002": 41.1305560886,
			"-0.001": 34.0807504446,
			"0.0": 30.7936308028,
			"0.001": 32.2454297662,
			"0.002": 20.1861107083,
			"0.003": 14.5945846032,
			"0.004": 15.1396181328,
			"0.005": 14.1712329186,
			"0.006": 14.6847789952,
			"0.007": 7.10691881444,
			"0.008": 0.00735132092696,
			"0.009": 0.0,
			"0.01": 0.0,
			"0.011": 0.0,
			"0.012": 0.0,
			"0.013": 0.0,
			"0.014": 0.0,
			"0.015": 0.0,
			"0.016": 0.0,
			"0.017": 0.0,
			"0.018": 0.0,
			"0.019": 0.0,
			"0.02": 0.0,
			"0.021": 0.0,
			"0.022": 0.0,
			"0.023": 0.0,
			"0.024": 0.0,
			"0.025": 0.0
		}
	}
}
