{
	 "smiles": "NC(=O)C1=C(F)C=CC(Cl)=C1", 
	 "Tm": 409.15, 
	 "num_atms": 16, 
	 "gaussian": { 
		 "optdone": 1, 
		 "sigma_profile": "yes", 
		 "theory": "DFT", 
		 "functional": "B3LYP", 
		 "basiset": "6-31G**", 
		 "properties": { 
			 "R2extent": 4282.271, 
			 "electric_dipole_moment_norm": 3.07325485113, 
			 "electric_quadrupole_moment_norm": 22.0128691933, 
			 "total_energy": -959.771860624, 
			 "HOMO_LUMO_gap": 0.20062, 
			 "cosmo_polarized_energy": -13.86, 
			 "cosmo_cavitation_energy": 23.25, 
			 "cosmo_dispersion_energy": -17.11, 
			 "cosmo_repulsion_energy": 1.38, 
			 "cosmo_total_nonelectrostatic_energy": 7.52, 
			 "SMD_solvation_energy": 5.04 
		},
		"coords": [
			{
				"x": -1.6234811242,
				"y": -0.8670824207,
				"z": -2.2235884237,
				"element": "N" 
			},
			{
				"x": -0.3900242163,
				"y": -1.4314873695,
				"z": -2.4492988731,
				"element": "C" 
			},
			{
				"x": -0.2518500869,
				"y": -2.5843902667,
				"z": -2.8231728801,
				"element": "O" 
			},
			{
				"x": 0.7722836551,
				"y": -0.491698325,
				"z": -2.2565039552,
				"element": "C" 
			},
			{
				"x": 1.9870831543,
				"y": -0.9502468391,
				"z": -1.7324329582,
				"element": "C" 
			},
			{
				"x": 2.1043535461,
				"y": -2.220912328,
				"z": -1.3232581274,
				"element": "F" 
			},
			{
				"x": 3.0858166976,
				"y": -0.1103408535,
				"z": -1.5862715983,
				"element": "C" 
			},
			{
				"x": 2.9937087304,
				"y": 1.2231446094,
				"z": -1.9803326008,
				"element": "C" 
			},
			{
				"x": 1.7921374669,
				"y": 1.6941745598,
				"z": -2.509480939,
				"element": "C" 
			},
			{
				"x": 1.6662101692,
				"y": 3.3710628711,
				"z": -3.0177370139,
				"element": "Cl" 
			},
			{
				"x": 0.6904752646,
				"y": 0.8530788991,
				"z": -2.6458930745,
				"element": "C" 
			},
			{
				"x": -1.7150249829,
				"y": -0.0515955174,
				"z": -1.6375698552,
				"element": "H" 
			},
			{
				"x": -2.4096810066,
				"y": -1.5000780729,
				"z": -2.2651875616,
				"element": "H" 
			},
			{
				"x": 4.0008662236,
				"y": -0.5107448504,
				"z": -1.1640240031,
				"element": "H" 
			},
			{
				"x": 3.843932854,
				"y": 1.8880140321,
				"z": -1.8786965907,
				"element": "H" 
			},
			{
				"x": -0.2269063448,
				"y": 1.2310018718,
				"z": -3.082951545,
				"element": "H" 
			}
		],
		 "valence_orbital": [ 
			{
				"type": "occ",
				"energy": -0.32452,
				"method": "rhf"
			},
			{
				"type": "occ",
				"energy": -0.28365,
				"method": "rhf"
			},
			{
				"type": "occ",
				"energy": -0.28071,
				"method": "rhf"
			},
			{
				"type": "occ",
				"energy": -0.25946,
				"method": "rhf"
			},
			{
				"type": "occ",
				"energy": -0.24994,
				"method": "rhf"
			},
			{
				"type": "unocc",
				"energy": -0.04932,
				"method": "rhf"
			},
			{
				"type": "unocc",
				"energy": -0.02336,
				"method": "rhf"
			},
			{
				"type": "unocc",
				"energy": 0.01716,
				"method": "rhf"
			},
			{
				"type": "unocc",
				"energy": 0.03692,
				"method": "rhf"
			},
			{
				"type": "unocc",
				"energy": 0.07938,
				"method": "rhf"
			}
		],
		"cosmo_sigma_profile": { 
			"-0.025": 0.0,
			"-0.024": 0.0,
			"-0.023": 0.0,
			"-0.022": 0.0,
			"-0.021": 0.0,
			"-0.02": 0.0,
			"-0.019": 0.0,
			"-0.018": 0.0,
			"-0.017": 0.0,
			"-0.016": 0.0,
			"-0.015": 0.265699785696,
			"-0.014": 2.14333520157,
			"-0.013": 2.36521727223,
			"-0.012": 2.40254586842,
			"-0.011": 2.19858876311,
			"-0.01": 3.0404686776,
			"-0.009": 2.76729527546,
			"-0.008": 6.9096328656,
			"-0.007": 7.13417409761,
			"-0.006": 6.28600226115,
			"-0.005": 5.383809774,
			"-0.004": 6.72993937609,
			"-0.003": 7.484961868,
			"-0.002": 10.8107989672,
			"-0.001": 12.568503056,
			"0.0": 16.6417478854,
			"0.001": 21.0818770432,
			"0.002": 14.0551513246,
			"0.003": 13.361402901,
			"0.004": 16.3048610218,
			"0.005": 5.76663355215,
			"0.006": 2.5360842989,
			"0.007": 2.27157459597,
			"0.008": 1.83073521848,
			"0.009": 1.77933164461,
			"0.01": 1.66079918791,
			"0.011": 2.01299296973,
			"0.012": 3.56664783722,
			"0.013": 5.42331726144,
			"0.014": 1.95592949282,
			"0.015": 0.0,
			"0.016": 0.0,
			"0.017": 0.0,
			"0.018": 0.0,
			"0.019": 0.0,
			"0.02": 0.0,
			"0.021": 0.0,
			"0.022": 0.0,
			"0.023": 0.0,
			"0.024": 0.0,
			"0.025": 0.0
		}
	}
}
