{
	 "smiles": "CC1=CC=C(O1)C(C1=CC=C(C)O1)C1=CC=CC=C1Br", 
	 "Tm": 330.15, 
	 "num_atms": 35, 
	 "gaussian": { 
		 "optdone": 1, 
		 "sigma_profile": "yes", 
		 "theory": "DFT", 
		 "functional": "B3LYP", 
		 "basiset": "6-31G**", 
		 "properties": { 
			 "R2extent": 7379.9117, 
			 "electric_dipole_moment_norm": 1.89722053014, 
			 "electric_quadrupole_moment_norm": 2.16857789346, 
			 "total_energy": -3378.66935987, 
			 "HOMO_LUMO_gap": 0.18999, 
			 "cosmo_polarized_energy": -8.7, 
			 "cosmo_cavitation_energy": 41.6, 
			 "cosmo_dispersion_energy": -27.93, 
			 "cosmo_repulsion_energy": 2.21, 
			 "cosmo_total_nonelectrostatic_energy": 15.89, 
			 "SMD_solvation_energy": 6.92 
		},
		"coords": [
			{
				"x": 0.2890090141,
				"y": 2.453258748,
				"z": -2.7815520668,
				"element": "C" 
			},
			{
				"x": 0.5771836843,
				"y": 1.0517832294,
				"z": -2.3718287953,
				"element": "C" 
			},
			{
				"x": 1.287018231,
				"y": 0.031048732,
				"z": -2.9317116371,
				"element": "C" 
			},
			{
				"x": 1.1847888071,
				"y": -1.0823910806,
				"z": -2.0331867652,
				"element": "C" 
			},
			{
				"x": 0.4165427854,
				"y": -0.6660978684,
				"z": -0.9873716108,
				"element": "C" 
			},
			{
				"x": 0.0405775638,
				"y": 0.6364387194,
				"z": -1.1809587237,
				"element": "O" 
			},
			{
				"x": -0.0484341235,
				"y": -1.3565437745,
				"z": 0.267106683,
				"element": "C" 
			},
			{
				"x": -1.5276566281,
				"y": -1.6349193707,
				"z": 0.2845381935,
				"element": "C" 
			},
			{
				"x": -2.2314187704,
				"y": -2.7877086494,
				"z": 0.4673037745,
				"element": "C" 
			},
			{
				"x": -3.6199444559,
				"y": -2.4392788285,
				"z": 0.3781872203,
				"element": "C" 
			},
			{
				"x": -3.6725705447,
				"y": -1.0974114391,
				"z": 0.1446929411,
				"element": "C" 
			},
			{
				"x": -4.7836446744,
				"y": -0.1273606157,
				"z": -0.0538155346,
				"element": "C" 
			},
			{
				"x": -2.3979071031,
				"y": -0.5939270918,
				"z": 0.0843017331,
				"element": "O" 
			},
			{
				"x": 0.4544788013,
				"y": -0.6416044031,
				"z": 1.5285731968,
				"element": "C" 
			},
			{
				"x": -0.1750326659,
				"y": 0.5305712698,
				"z": 1.9779872139,
				"element": "C" 
			},
			{
				"x": 0.2666403688,
				"y": 1.2110276044,
				"z": 3.1097203336,
				"element": "C" 
			},
			{
				"x": 1.36113471,
				"y": 0.7309986604,
				"z": 3.8297592982,
				"element": "C" 
			},
			{
				"x": 2.0089053365,
				"y": -0.4274582554,
				"z": 3.4075574496,
				"element": "C" 
			},
			{
				"x": 1.5548077057,
				"y": -1.0950310894,
				"z": 2.2691652968,
				"element": "C" 
			},
			{
				"x": 2.5243674221,
				"y": -2.6795310702,
				"z": 1.7622916107,
				"element": "Br" 
			},
			{
				"x": 0.6626618122,
				"y": 3.1730992531,
				"z": -2.0439349559,
				"element": "H" 
			},
			{
				"x": 0.7699331801,
				"y": 2.6651518074,
				"z": -3.7393949534,
				"element": "H" 
			},
			{
				"x": -0.7877370428,
				"y": 2.6269018108,
				"z": -2.892886312,
				"element": "H" 
			},
			{
				"x": 1.821740984,
				"y": 0.0676811869,
				"z": -3.8703417258,
				"element": "H" 
			},
			{
				"x": 1.6278468054,
				"y": -2.061372926,
				"z": -2.1476665616,
				"element": "H" 
			},
			{
				"x": 0.4221446354,
				"y": -2.3417019707,
				"z": 0.242816757,
				"element": "H" 
			},
			{
				"x": -1.8116819736,
				"y": -3.7677182694,
				"z": 0.6453284316,
				"element": "H" 
			},
			{
				"x": -4.4684312081,
				"y": -3.1023851933,
				"z": 0.4710923644,
				"element": "H" 
			},
			{
				"x": -5.7430689067,
				"y": -0.6460755513,
				"z": 0.0096619109,
				"element": "H" 
			},
			{
				"x": -4.7711514913,
				"y": 0.6623302334,
				"z": 0.7067025151,
				"element": "H" 
			},
			{
				"x": -4.7216415653,
				"y": 0.3601533989,
				"z": -1.0337213564,
				"element": "H" 
			},
			{
				"x": -1.0258704682,
				"y": 0.9034744725,
				"z": 1.419609794,
				"element": "H" 
			},
			{
				"x": -0.2446311131,
				"y": 2.1145038215,
				"z": 3.4284572726,
				"element": "H" 
			},
			{
				"x": 1.7134841119,
				"y": 1.2510392471,
				"z": 4.7155709607,
				"element": "H" 
			},
			{
				"x": 2.8609567762,
				"y": -0.8166447475,
				"z": 3.9529460472,
				"element": "H" 
			}
		],
		 "valence_orbital": [ 
			{
				"type": "occ",
				"energy": -0.26618,
				"method": "rhf"
			},
			{
				"type": "occ",
				"energy": -0.25322,
				"method": "rhf"
			},
			{
				"type": "occ",
				"energy": -0.2386,
				"method": "rhf"
			},
			{
				"type": "occ",
				"energy": -0.21395,
				"method": "rhf"
			},
			{
				"type": "occ",
				"energy": -0.20174,
				"method": "rhf"
			},
			{
				"type": "unocc",
				"energy": -0.01175,
				"method": "rhf"
			},
			{
				"type": "unocc",
				"energy": -0.0084,
				"method": "rhf"
			},
			{
				"type": "unocc",
				"energy": 0.0043,
				"method": "rhf"
			},
			{
				"type": "unocc",
				"energy": 0.01806,
				"method": "rhf"
			},
			{
				"type": "unocc",
				"energy": 0.03547,
				"method": "rhf"
			}
		],
		"cosmo_sigma_profile": { 
			"-0.025": 0.0,
			"-0.024": 0.0,
			"-0.023": 0.0,
			"-0.022": 0.0,
			"-0.021": 0.0,
			"-0.02": 0.0,
			"-0.019": 0.0,
			"-0.018": 0.0,
			"-0.017": 0.0,
			"-0.016": 0.0,
			"-0.015": 0.0,
			"-0.014": 0.0,
			"-0.013": 0.0,
			"-0.012": 0.0,
			"-0.011": 0.0,
			"-0.01": 0.0,
			"-0.009": 0.0,
			"-0.008": 0.0,
			"-0.007": 3.80817777777,
			"-0.006": 14.7649265038,
			"-0.005": 24.995470592,
			"-0.004": 30.354081814,
			"-0.003": 26.0123163271,
			"-0.002": 26.664127159,
			"-0.001": 31.7517327419,
			"0.0": 24.5863806217,
			"0.001": 20.8407737887,
			"0.002": 28.4330704739,
			"0.003": 32.3504004897,
			"0.004": 32.8703720235,
			"0.005": 20.0381821693,
			"0.006": 12.5920559651,
			"0.007": 2.89240386285,
			"0.008": 0.97235166626,
			"0.009": 1.19094802244,
			"0.01": 0.724774598863,
			"0.011": 0.0279975061157,
			"0.012": 0.0,
			"0.013": 0.0,
			"0.014": 0.0,
			"0.015": 0.0,
			"0.016": 0.0,
			"0.017": 0.0,
			"0.018": 0.0,
			"0.019": 0.0,
			"0.02": 0.0,
			"0.021": 0.0,
			"0.022": 0.0,
			"0.023": 0.0,
			"0.024": 0.0,
			"0.025": 0.0
		}
	}
}
