{
	 "smiles": "CN(C)S(=O)(=O)C1=CC(=C(F)C=C1)[N+]([O-])=O", 
	 "Tm": 392.15, 
	 "num_atms": 25, 
	 "gaussian": { 
		 "optdone": 1, 
		 "sigma_profile": "yes", 
		 "theory": "DFT", 
		 "functional": "B3LYP", 
		 "basiset": "6-31G**", 
		 "properties": { 
			 "R2extent": 4451.3845, 
			 "electric_dipole_moment_norm": 4.27632198156, 
			 "electric_quadrupole_moment_norm": 22.7783095014, 
			 "total_energy": -1218.50364431, 
			 "HOMO_LUMO_gap": 0.16135, 
			 "cosmo_polarized_energy": -15.89, 
			 "cosmo_cavitation_energy": 31.68, 
			 "cosmo_dispersion_energy": -22.57, 
			 "cosmo_repulsion_energy": 1.69, 
			 "cosmo_total_nonelectrostatic_energy": 10.81, 
			 "SMD_solvation_energy": 7.32 
		},
		"coords": [
			{
				"x": 0.7600216522,
				"y": -2.5624739727,
				"z": 0.8730579236,
				"element": "C" 
			},
			{
				"x": -0.2548361462,
				"y": -1.6915381609,
				"z": 1.4796483503,
				"element": "N" 
			},
			{
				"x": -0.9165079853,
				"y": -2.2727814177,
				"z": 2.6591597411,
				"element": "C" 
			},
			{
				"x": -1.3058548914,
				"y": -0.9729338806,
				"z": 0.358219705,
				"element": "S" 
			},
			{
				"x": -2.3772427349,
				"y": -0.3449247961,
				"z": 1.1344308367,
				"element": "O" 
			},
			{
				"x": -1.6187626703,
				"y": -1.8788189638,
				"z": -0.7560331718,
				"element": "O" 
			},
			{
				"x": -0.2510338741,
				"y": 0.3206694905,
				"z": -0.3154373683,
				"element": "C" 
			},
			{
				"x": 0.264866796,
				"y": 1.2958729641,
				"z": 0.5320740465,
				"element": "C" 
			},
			{
				"x": 1.0229417996,
				"y": 2.334188794,
				"z": -0.0039907432,
				"element": "C" 
			},
			{
				"x": 1.2596490761,
				"y": 2.3871236067,
				"z": -1.3884110077,
				"element": "C" 
			},
			{
				"x": 1.9988927893,
				"y": 3.3459401903,
				"z": -1.9385348645,
				"element": "F" 
			},
			{
				"x": 0.7379653806,
				"y": 1.4046046939,
				"z": -2.2258242895,
				"element": "C" 
			},
			{
				"x": -0.0250124497,
				"y": 0.3692346194,
				"z": -1.6929837038,
				"element": "C" 
			},
			{
				"x": 1.5475281396,
				"y": 3.3513016027,
				"z": 0.9219358216,
				"element": "N" 
			},
			{
				"x": 1.9761651331,
				"y": 4.3961017613,
				"z": 0.4439090951,
				"element": "O" 
			},
			{
				"x": 1.5093612971,
				"y": 3.0812728234,
				"z": 2.1216988884,
				"element": "O" 
			},
			{
				"x": 0.3378386718,
				"y": -3.4992275542,
				"z": 0.4874146255,
				"element": "H" 
			},
			{
				"x": 1.5065402302,
				"y": -2.7897890168,
				"z": 1.6386545885,
				"element": "H" 
			},
			{
				"x": 1.2634614932,
				"y": -2.0401964788,
				"z": 0.0562094586,
				"element": "H" 
			},
			{
				"x": -1.6590961827,
				"y": -1.5734346489,
				"z": 3.0406393618,
				"element": "H" 
			},
			{
				"x": -0.1491746446,
				"y": -2.4302677063,
				"z": 3.4221304337,
				"element": "H" 
			},
			{
				"x": -1.4019552125,
				"y": -3.2339435318,
				"z": 2.440296543,
				"element": "H" 
			},
			{
				"x": 0.0999310688,
				"y": 1.2682607242,
				"z": 1.6018575715,
				"element": "H" 
			},
			{
				"x": 0.9436894031,
				"y": 1.4715956509,
				"z": -3.2882544118,
				"element": "H" 
			},
			{
				"x": -0.4454761389,
				"y": -0.4016367931,
				"z": -2.3292674304,
				"element": "H" 
			}
		],
		 "valence_orbital": [ 
			{
				"type": "occ",
				"energy": -0.31506,
				"method": "rhf"
			},
			{
				"type": "occ",
				"energy": -0.31109,
				"method": "rhf"
			},
			{
				"type": "occ",
				"energy": -0.30072,
				"method": "rhf"
			},
			{
				"type": "occ",
				"energy": -0.29504,
				"method": "rhf"
			},
			{
				"type": "occ",
				"energy": -0.26564,
				"method": "rhf"
			},
			{
				"type": "unocc",
				"energy": -0.10429,
				"method": "rhf"
			},
			{
				"type": "unocc",
				"energy": -0.0611,
				"method": "rhf"
			},
			{
				"type": "unocc",
				"energy": -0.02745,
				"method": "rhf"
			},
			{
				"type": "unocc",
				"energy": 0.03765,
				"method": "rhf"
			},
			{
				"type": "unocc",
				"energy": 0.0622,
				"method": "rhf"
			}
		],
		"cosmo_sigma_profile": { 
			"-0.025": 0.0,
			"-0.024": 0.0,
			"-0.023": 0.0,
			"-0.022": 0.0,
			"-0.021": 0.0,
			"-0.02": 0.0,
			"-0.019": 0.0,
			"-0.018": 0.0,
			"-0.017": 0.0,
			"-0.016": 0.0,
			"-0.015": 0.0,
			"-0.014": 0.0,
			"-0.013": 0.0,
			"-0.012": 0.0,
			"-0.011": 0.0,
			"-0.01": 0.994717641591,
			"-0.009": 3.40748235159,
			"-0.008": 5.55726714005,
			"-0.007": 7.19519579672,
			"-0.006": 13.1833231575,
			"-0.005": 19.7092103792,
			"-0.004": 26.8216324734,
			"-0.003": 30.1540742588,
			"-0.002": 24.7869564534,
			"-0.001": 14.2594648995,
			"0.0": 9.73696240481,
			"0.001": 7.9346369151,
			"0.002": 12.3128490651,
			"0.003": 9.54335865021,
			"0.004": 5.89713620565,
			"0.005": 6.81157873291,
			"0.006": 8.27802806554,
			"0.007": 13.6732909062,
			"0.008": 8.75202461027,
			"0.009": 8.06519296003,
			"0.01": 8.19831917851,
			"0.011": 6.85274227953,
			"0.012": 1.0357976833,
			"0.013": 0.0,
			"0.014": 0.0,
			"0.015": 0.0,
			"0.016": 0.0,
			"0.017": 0.0,
			"0.018": 0.0,
			"0.019": 0.0,
			"0.02": 0.0,
			"0.021": 0.0,
			"0.022": 0.0,
			"0.023": 0.0,
			"0.024": 0.0,
			"0.025": 0.0
		}
	}
}
