{
	 "smiles": "CCOCC(C)O", 
	 "Tm": 173.15, 
	 "num_atms": 19, 
	 "gaussian": { 
		 "optdone": 1, 
		 "sigma_profile": "yes", 
		 "theory": "DFT", 
		 "functional": "B3LYP", 
		 "basiset": "6-31G**", 
		 "properties": { 
			 "R2extent": 1587.1526, 
			 "electric_dipole_moment_norm": 1.93086589902, 
			 "electric_quadrupole_moment_norm": 7.0672451797, 
			 "total_energy": -348.198019272, 
			 "HOMO_LUMO_gap": 0.32926, 
			 "cosmo_polarized_energy": -7.79, 
			 "cosmo_cavitation_energy": 21.28, 
			 "cosmo_dispersion_energy": -15.48, 
			 "cosmo_repulsion_energy": 1.35, 
			 "cosmo_total_nonelectrostatic_energy": 7.15, 
			 "SMD_solvation_energy": 3.92 
		},
		"coords": [
			{
				"x": -2.9172259921,
				"y": -2.5409017204,
				"z": 1.000104478,
				"element": "C" 
			},
			{
				"x": -2.1910963996,
				"y": -2.5594606372,
				"z": -0.3443756473,
				"element": "C" 
			},
			{
				"x": -1.226943594,
				"y": -1.525574176,
				"z": -0.4877070143,
				"element": "O" 
			},
			{
				"x": -1.7636965276,
				"y": -0.2381528526,
				"z": -0.7269820646,
				"element": "C" 
			},
			{
				"x": -0.6175894289,
				"y": 0.7154136841,
				"z": -1.0796437044,
				"element": "C" 
			},
			{
				"x": 0.4213756491,
				"y": 0.8202549615,
				"z": 0.0331886158,
				"element": "C" 
			},
			{
				"x": -1.1544164663,
				"y": 1.9881509128,
				"z": -1.4366313294,
				"element": "O" 
			},
			{
				"x": -2.1971564214,
				"y": -2.5786195729,
				"z": 1.8232526996,
				"element": "H" 
			},
			{
				"x": -3.5804834031,
				"y": -3.4087638053,
				"z": 1.0821942235,
				"element": "H" 
			},
			{
				"x": -3.5307420472,
				"y": -1.6428529508,
				"z": 1.1221060036,
				"element": "H" 
			},
			{
				"x": -2.9183614099,
				"y": -2.513173149,
				"z": -1.1715757721,
				"element": "H" 
			},
			{
				"x": -1.631027052,
				"y": -3.4945236452,
				"z": -0.4515280329,
				"element": "H" 
			},
			{
				"x": -2.2964044768,
				"y": 0.1515140966,
				"z": 0.1589066735,
				"element": "H" 
			},
			{
				"x": -2.4821233612,
				"y": -0.2583610011,
				"z": -1.5616580497,
				"element": "H" 
			},
			{
				"x": -0.1369575908,
				"y": 0.3411803309,
				"z": -1.9905212209,
				"element": "H" 
			},
			{
				"x": 1.2319047429,
				"y": 1.4922930761,
				"z": -0.2627625094,
				"element": "H" 
			},
			{
				"x": 0.8362832588,
				"y": -0.1636333563,
				"z": 0.2660535787,
				"element": "H" 
			},
			{
				"x": -0.036061201,
				"y": 1.2156729753,
				"z": 0.9504894865,
				"element": "H" 
			},
			{
				"x": -1.469778279,
				"y": 2.4083368294,
				"z": -0.6247104142,
				"element": "H" 
			}
		],
		 "valence_orbital": [ 
			{
				"type": "occ",
				"energy": -0.34811,
				"method": "rhf"
			},
			{
				"type": "occ",
				"energy": -0.31764,
				"method": "rhf"
			},
			{
				"type": "occ",
				"energy": -0.30938,
				"method": "rhf"
			},
			{
				"type": "occ",
				"energy": -0.26583,
				"method": "rhf"
			},
			{
				"type": "occ",
				"energy": -0.25266,
				"method": "rhf"
			},
			{
				"type": "unocc",
				"energy": 0.0766,
				"method": "rhf"
			},
			{
				"type": "unocc",
				"energy": 0.08892,
				"method": "rhf"
			},
			{
				"type": "unocc",
				"energy": 0.11635,
				"method": "rhf"
			},
			{
				"type": "unocc",
				"energy": 0.13162,
				"method": "rhf"
			},
			{
				"type": "unocc",
				"energy": 0.13834,
				"method": "rhf"
			}
		],
		"cosmo_sigma_profile": { 
			"-0.025": 0.0,
			"-0.024": 0.0,
			"-0.023": 0.0,
			"-0.022": 0.0,
			"-0.021": 0.0,
			"-0.02": 0.0,
			"-0.019": 0.0,
			"-0.018": 0.0,
			"-0.017": 0.0,
			"-0.016": 0.0,
			"-0.015": 0.520692904226,
			"-0.014": 0.957170453974,
			"-0.013": 1.01421564751,
			"-0.012": 1.03953186234,
			"-0.011": 0.82770641555,
			"-0.01": 1.13745259963,
			"-0.009": 0.916310580625,
			"-0.008": 0.883558271517,
			"-0.007": 1.36953304282,
			"-0.006": 1.35218623039,
			"-0.005": 2.25656800118,
			"-0.004": 9.67358203398,
			"-0.003": 24.8321173258,
			"-0.002": 23.3403611183,
			"-0.001": 21.2405384449,
			"0.0": 18.6261962766,
			"0.001": 15.0834914163,
			"0.002": 6.35120357435,
			"0.003": 3.01584525031,
			"0.004": 3.86259110414,
			"0.005": 2.87572989523,
			"0.006": 2.24711217115,
			"0.007": 3.08168119376,
			"0.008": 2.9886642833,
			"0.009": 2.56301749669,
			"0.01": 2.45454724654,
			"0.011": 2.50215308265,
			"0.012": 2.18304943684,
			"0.013": 1.47048025757,
			"0.014": 2.52117416594,
			"0.015": 0.761786488875,
			"0.016": 0.0,
			"0.017": 0.0,
			"0.018": 0.0,
			"0.019": 0.0,
			"0.02": 0.0,
			"0.021": 0.0,
			"0.022": 0.0,
			"0.023": 0.0,
			"0.024": 0.0,
			"0.025": 0.0
		}
	}
}
