{
	 "smiles": "OC(=O)C(Br)Br", 
	 "Tm": 322.15, 
	 "num_atms": 8, 
	 "gaussian": { 
		 "optdone": 1, 
		 "sigma_profile": "yes", 
		 "theory": "DFT", 
		 "functional": "B3LYP", 
		 "basiset": "6-31G**", 
		 "properties": { 
			 "R2extent": 1651.3637, 
			 "electric_dipole_moment_norm": 2.58531217651, 
			 "electric_quadrupole_moment_norm": 7.70444151642, 
			 "total_energy": -5370.66600791, 
			 "HOMO_LUMO_gap": 0.22823, 
			 "cosmo_polarized_energy": -9.36, 
			 "cosmo_cavitation_energy": 17.21, 
			 "cosmo_dispersion_energy": -13.49, 
			 "cosmo_repulsion_energy": 1.17, 
			 "cosmo_total_nonelectrostatic_energy": 4.9, 
			 "SMD_solvation_energy": 2.08 
		},
		"coords": [
			{
				"x": -0.3690983068,
				"y": 1.7994063793,
				"z": 1.3540021649,
				"element": "O" 
			},
			{
				"x": -0.7148545305,
				"y": 1.1339400776,
				"z": 0.2422942424,
				"element": "C" 
			},
			{
				"x": -1.2273120719,
				"y": 1.6722641795,
				"z": -0.7041848366,
				"element": "O" 
			},
			{
				"x": -0.4280805676,
				"y": -0.3698148575,
				"z": 0.2149272377,
				"element": "C" 
			},
			{
				"x": -1.4352903777,
				"y": -1.2853654532,
				"z": 1.6340589546,
				"element": "Br" 
			},
			{
				"x": 1.5036908118,
				"y": -0.7018182396,
				"z": 0.3723291266,
				"element": "Br" 
			},
			{
				"x": 0.0290780393,
				"y": 1.1994427869,
				"z": 2.0047558997,
				"element": "H" 
			},
			{
				"x": -0.7527329967,
				"y": -0.7843548729,
				"z": -0.7329827894,
				"element": "H" 
			}
		],
		 "valence_orbital": [ 
			{
				"type": "occ",
				"energy": -0.33946,
				"method": "rhf"
			},
			{
				"type": "occ",
				"energy": -0.31922,
				"method": "rhf"
			},
			{
				"type": "occ",
				"energy": -0.31871,
				"method": "rhf"
			},
			{
				"type": "occ",
				"energy": -0.30331,
				"method": "rhf"
			},
			{
				"type": "occ",
				"energy": -0.29267,
				"method": "rhf"
			},
			{
				"type": "unocc",
				"energy": -0.06444,
				"method": "rhf"
			},
			{
				"type": "unocc",
				"energy": -0.06173,
				"method": "rhf"
			},
			{
				"type": "unocc",
				"energy": 0.04236,
				"method": "rhf"
			},
			{
				"type": "unocc",
				"energy": 0.05121,
				"method": "rhf"
			},
			{
				"type": "unocc",
				"energy": 0.10764,
				"method": "rhf"
			}
		],
		"cosmo_sigma_profile": { 
			"-0.025": 0.0,
			"-0.024": 0.0,
			"-0.023": 0.0,
			"-0.022": 0.0,
			"-0.021": 0.0,
			"-0.02": 0.0,
			"-0.019": 0.227178600113,
			"-0.018": 0.458510336497,
			"-0.017": 0.644097486123,
			"-0.016": 0.663188226388,
			"-0.015": 0.635030855053,
			"-0.014": 0.566917056559,
			"-0.013": 1.20521496529,
			"-0.012": 1.89031003306,
			"-0.011": 2.04512141778,
			"-0.01": 2.3754762626,
			"-0.009": 2.31399788411,
			"-0.008": 1.77925364315,
			"-0.007": 2.82384003916,
			"-0.006": 3.75934875215,
			"-0.005": 6.6572863866,
			"-0.004": 6.56603345826,
			"-0.003": 6.56531476603,
			"-0.002": 9.61315947649,
			"-0.001": 9.14302837004,
			"0.0": 9.70307452972,
			"0.001": 13.0619594235,
			"0.002": 16.3201693961,
			"0.003": 16.7863269147,
			"0.004": 3.09198648591,
			"0.005": 2.2864642811,
			"0.006": 2.34014492008,
			"0.007": 3.57456879241,
			"0.008": 5.01753124188,
			"0.009": 3.99906839196,
			"0.01": 5.6259049641,
			"0.011": 2.25417184846,
			"0.012": 0.0445338616485,
			"0.013": 0.0,
			"0.014": 0.0,
			"0.015": 0.0,
			"0.016": 0.0,
			"0.017": 0.0,
			"0.018": 0.0,
			"0.019": 0.0,
			"0.02": 0.0,
			"0.021": 0.0,
			"0.022": 0.0,
			"0.023": 0.0,
			"0.024": 0.0,
			"0.025": 0.0
		}
	}
}
