{
	 "smiles": "CC(C)(C)CC(O)=O", 
	 "Tm": 279.4, 
	 "num_atms": 20, 
	 "gaussian": { 
		 "optdone": 1, 
		 "sigma_profile": "yes", 
		 "theory": "DFT", 
		 "functional": "B3LYP", 
		 "basiset": "6-31G**", 
		 "properties": { 
			 "R2extent": 1768.6963, 
			 "electric_dipole_moment_norm": 1.49332534633, 
			 "electric_quadrupole_moment_norm": 4.81624072696, 
			 "total_energy": -386.350404098, 
			 "HOMO_LUMO_gap": 0.27589, 
			 "cosmo_polarized_energy": -7.75, 
			 "cosmo_cavitation_energy": 22.03, 
			 "cosmo_dispersion_energy": -15.61, 
			 "cosmo_repulsion_energy": 1.29, 
			 "cosmo_total_nonelectrostatic_energy": 7.72, 
			 "SMD_solvation_energy": 5.04 
		},
		"coords": [
			{
				"x": -2.845723093,
				"y": 0.7623567093,
				"z": 0.6807595248,
				"element": "C" 
			},
			{
				"x": -1.6638938318,
				"y": 0.1939208135,
				"z": -0.1281123121,
				"element": "C" 
			},
			{
				"x": -0.3660533346,
				"y": 0.9080341725,
				"z": 0.2928167122,
				"element": "C" 
			},
			{
				"x": -1.542779915,
				"y": -1.3183273367,
				"z": 0.1410948903,
				"element": "C" 
			},
			{
				"x": -1.9663971697,
				"y": 0.4516739007,
				"z": -1.6373941235,
				"element": "C" 
			},
			{
				"x": -0.9467934024,
				"y": -0.1466693127,
				"z": -2.5803969915,
				"element": "C" 
			},
			{
				"x": -1.4117455725,
				"y": -1.2648456593,
				"z": -3.1941038417,
				"element": "O" 
			},
			{
				"x": 0.1711060212,
				"y": 0.2786482772,
				"z": -2.7840189081,
				"element": "O" 
			},
			{
				"x": -2.9764765029,
				"y": 1.8341777406,
				"z": 0.4938343526,
				"element": "H" 
			},
			{
				"x": -3.7845862825,
				"y": 0.2580679851,
				"z": 0.4253906143,
				"element": "H" 
			},
			{
				"x": -2.6758922573,
				"y": 0.6298339071,
				"z": 1.7548298786,
				"element": "H" 
			},
			{
				"x": -0.1584190393,
				"y": 0.7237050592,
				"z": 1.3527583556,
				"element": "H" 
			},
			{
				"x": -0.4502155061,
				"y": 1.9914207061,
				"z": 0.1515268439,
				"element": "H" 
			},
			{
				"x": 0.4904192686,
				"y": 0.5647696128,
				"z": -0.2923652544,
				"element": "H" 
			},
			{
				"x": -0.6864118634,
				"y": -1.7556232476,
				"z": -0.3828523797,
				"element": "H" 
			},
			{
				"x": -1.4049328761,
				"y": -1.5052212265,
				"z": 1.2115271253,
				"element": "H" 
			},
			{
				"x": -2.4416632668,
				"y": -1.855052627,
				"z": -0.1814893063,
				"element": "H" 
			},
			{
				"x": -1.9768377283,
				"y": 1.5319814519,
				"z": -1.8164586805,
				"element": "H" 
			},
			{
				"x": -2.9538306577,
				"y": 0.0511943368,
				"z": -1.8836186889,
				"element": "H" 
			},
			{
				"x": -0.6849729905,
				"y": -1.581045263,
				"z": -3.7578278111,
				"element": "H" 
			}
		],
		 "valence_orbital": [ 
			{
				"type": "occ",
				"energy": -0.33084,
				"method": "rhf"
			},
			{
				"type": "occ",
				"energy": -0.32775,
				"method": "rhf"
			},
			{
				"type": "occ",
				"energy": -0.3251,
				"method": "rhf"
			},
			{
				"type": "occ",
				"energy": -0.31259,
				"method": "rhf"
			},
			{
				"type": "occ",
				"energy": -0.269,
				"method": "rhf"
			},
			{
				"type": "unocc",
				"energy": 0.00689,
				"method": "rhf"
			},
			{
				"type": "unocc",
				"energy": 0.07136,
				"method": "rhf"
			},
			{
				"type": "unocc",
				"energy": 0.09185,
				"method": "rhf"
			},
			{
				"type": "unocc",
				"energy": 0.12722,
				"method": "rhf"
			},
			{
				"type": "unocc",
				"energy": 0.13375,
				"method": "rhf"
			}
		],
		"cosmo_sigma_profile": { 
			"-0.025": 0.0,
			"-0.024": 0.0,
			"-0.023": 0.0,
			"-0.022": 0.0,
			"-0.021": 0.0,
			"-0.02": 0.0,
			"-0.019": 0.0,
			"-0.018": 0.324908923409,
			"-0.017": 1.03287175433,
			"-0.016": 0.753976167972,
			"-0.015": 0.857782137145,
			"-0.014": 0.72114815067,
			"-0.013": 0.968953913658,
			"-0.012": 0.500037190423,
			"-0.011": 0.452449047989,
			"-0.01": 0.898406633946,
			"-0.009": 0.615858409592,
			"-0.008": 0.596369277331,
			"-0.007": 0.608059221435,
			"-0.006": 1.09408729654,
			"-0.005": 3.13682186604,
			"-0.004": 7.23088084732,
			"-0.003": 22.850295246,
			"-0.002": 24.4161582577,
			"-0.001": 20.5032911454,
			"0.0": 16.558525794,
			"0.001": 23.7096822591,
			"0.002": 9.78742333708,
			"0.003": 3.55217125132,
			"0.004": 3.18295767535,
			"0.005": 3.05107717938,
			"0.006": 2.82326944789,
			"0.007": 2.66852541192,
			"0.008": 2.6982108102,
			"0.009": 3.29017741274,
			"0.01": 2.52723351862,
			"0.011": 2.41811081838,
			"0.012": 4.78630791099,
			"0.013": 1.35993617391,
			"0.014": 0.0217681211883,
			"0.015": 0.0,
			"0.016": 0.0,
			"0.017": 0.0,
			"0.018": 0.0,
			"0.019": 0.0,
			"0.02": 0.0,
			"0.021": 0.0,
			"0.022": 0.0,
			"0.023": 0.0,
			"0.024": 0.0,
			"0.025": 0.0
		}
	}
}
