{
	 "smiles": "O=CC1=CC=CC=C1OCCN1CCOCC1", 
	 "Tm": 317.15, 
	 "num_atms": 34, 
	 "gaussian": { 
		 "optdone": 1, 
		 "sigma_profile": "yes", 
		 "theory": "DFT", 
		 "functional": "B3LYP", 
		 "basiset": "6-31G**", 
		 "properties": { 
			 "R2extent": 5448.7193, 
			 "electric_dipole_moment_norm": 2.972035666, 
			 "electric_quadrupole_moment_norm": 16.6493580858, 
			 "total_energy": -785.997663668, 
			 "HOMO_LUMO_gap": 0.14039, 
			 "cosmo_polarized_energy": -13.51, 
			 "cosmo_cavitation_energy": 35.47, 
			 "cosmo_dispersion_energy": -25.04, 
			 "cosmo_repulsion_energy": 1.92, 
			 "cosmo_total_nonelectrostatic_energy": 12.36, 
			 "SMD_solvation_energy": 6.11 
		},
		"coords": [
			{
				"x": -0.4234228415,
				"y": 1.5292788411,
				"z": 3.3428208576,
				"element": "O" 
			},
			{
				"x": -0.0911859565,
				"y": 2.6195118312,
				"z": 2.9145813875,
				"element": "C" 
			},
			{
				"x": 0.4219869073,
				"y": 2.9369775458,
				"z": 1.5651773798,
				"element": "C" 
			},
			{
				"x": 0.6302716363,
				"y": 4.2987183829,
				"z": 1.2781211811,
				"element": "C" 
			},
			{
				"x": 1.1553037222,
				"y": 4.7182791047,
				"z": 0.061868643,
				"element": "C" 
			},
			{
				"x": 1.5012886121,
				"y": 3.7593616147,
				"z": -0.8950510632,
				"element": "C" 
			},
			{
				"x": 1.3121748378,
				"y": 2.403099542,
				"z": -0.6355819204,
				"element": "C" 
			},
			{
				"x": 0.7717206759,
				"y": 1.9763455098,
				"z": 0.5823841434,
				"element": "C" 
			},
			{
				"x": 0.7001320272,
				"y": 0.6300716638,
				"z": 0.7975280746,
				"element": "O" 
			},
			{
				"x": -0.5874432237,
				"y": -0.0008523005,
				"z": 0.7572817379,
				"element": "C" 
			},
			{
				"x": -1.2467004687,
				"y": 0.0274796879,
				"z": -0.6223884201,
				"element": "C" 
			},
			{
				"x": -0.3901332216,
				"y": -0.4378573967,
				"z": -1.7142791854,
				"element": "N" 
			},
			{
				"x": 0.0544244651,
				"y": -1.8365191875,
				"z": -1.6355709008,
				"element": "C" 
			},
			{
				"x": -1.0271435111,
				"y": -2.831003126,
				"z": -2.0722678493,
				"element": "C" 
			},
			{
				"x": -1.4907052629,
				"y": -2.5296161481,
				"z": -3.3856159242,
				"element": "O" 
			},
			{
				"x": -2.010000653,
				"y": -1.2058652382,
				"z": -3.463229112,
				"element": "C" 
			},
			{
				"x": -0.9465702797,
				"y": -0.1816234663,
				"z": -3.0492531976,
				"element": "C" 
			},
			{
				"x": -0.1588405773,
				"y": 3.5178810075,
				"z": 3.5699074441,
				"element": "H" 
			},
			{
				"x": 0.3737691695,
				"y": 5.0313951954,
				"z": 2.0402367837,
				"element": "H" 
			},
			{
				"x": 1.3034788163,
				"y": 5.7748907407,
				"z": -0.1374634209,
				"element": "H" 
			},
			{
				"x": 1.919001537,
				"y": 4.0689909709,
				"z": -1.849070632,
				"element": "H" 
			},
			{
				"x": 1.5603084158,
				"y": 1.6392478518,
				"z": -1.3640887619,
				"element": "H" 
			},
			{
				"x": -0.3926566466,
				"y": -1.0230019359,
				"z": 1.0906776758,
				"element": "H" 
			},
			{
				"x": -1.2592740613,
				"y": 0.4535710591,
				"z": 1.4911564251,
				"element": "H" 
			},
			{
				"x": -1.5222258724,
				"y": 1.062604934,
				"z": -0.8581158634,
				"element": "H" 
			},
			{
				"x": -2.1998645858,
				"y": -0.5253277291,
				"z": -0.5158602248,
				"element": "H" 
			},
			{
				"x": 0.9148066405,
				"y": -1.9478346354,
				"z": -2.3081531573,
				"element": "H" 
			},
			{
				"x": 0.4060932387,
				"y": -2.0616826955,
				"z": -0.6247345227,
				"element": "H" 
			},
			{
				"x": -1.8731102995,
				"y": -2.8256016655,
				"z": -1.363547423,
				"element": "H" 
			},
			{
				"x": -0.6284325727,
				"y": -3.8498045841,
				"z": -2.1108389524,
				"element": "H" 
			},
			{
				"x": -2.3167623997,
				"y": -1.0532102743,
				"z": -4.5030952783,
				"element": "H" 
			},
			{
				"x": -2.9075991176,
				"y": -1.1136311008,
				"z": -2.8279781617,
				"element": "H" 
			},
			{
				"x": -0.1226636901,
				"y": -0.2327298025,
				"z": -3.7737015536,
				"element": "H" 
			},
			{
				"x": -1.3562254605,
				"y": 0.8347558035,
				"z": -3.0819562086,
				"element": "H" 
			}
		],
		 "valence_orbital": [ 
			{
				"type": "occ",
				"energy": -0.26995,
				"method": "rhf"
			},
			{
				"type": "occ",
				"energy": -0.26506,
				"method": "rhf"
			},
			{
				"type": "occ",
				"energy": -0.25195,
				"method": "rhf"
			},
			{
				"type": "occ",
				"energy": -0.24279,
				"method": "rhf"
			},
			{
				"type": "occ",
				"energy": -0.20184,
				"method": "rhf"
			},
			{
				"type": "unocc",
				"energy": -0.06145,
				"method": "rhf"
			},
			{
				"type": "unocc",
				"energy": -0.00916,
				"method": "rhf"
			},
			{
				"type": "unocc",
				"energy": 0.03956,
				"method": "rhf"
			},
			{
				"type": "unocc",
				"energy": 0.07504,
				"method": "rhf"
			},
			{
				"type": "unocc",
				"energy": 0.08801,
				"method": "rhf"
			}
		],
		"cosmo_sigma_profile": { 
			"-0.025": 0.0,
			"-0.024": 0.0,
			"-0.023": 0.0,
			"-0.022": 0.0,
			"-0.021": 0.0,
			"-0.02": 0.0,
			"-0.019": 0.0,
			"-0.018": 0.0,
			"-0.017": 0.0,
			"-0.016": 0.0,
			"-0.015": 0.0,
			"-0.014": 0.0,
			"-0.013": 0.0,
			"-0.012": 0.0,
			"-0.011": 0.0,
			"-0.01": 0.0,
			"-0.009": 0.0,
			"-0.008": 1.11886481037,
			"-0.007": 5.53326991095,
			"-0.006": 11.6025627468,
			"-0.005": 18.8905335878,
			"-0.004": 34.3808533365,
			"-0.003": 40.9896236677,
			"-0.002": 29.8776621647,
			"-0.001": 20.7497779671,
			"0.0": 14.3436475472,
			"0.001": 13.1559990597,
			"0.002": 15.7750517432,
			"0.003": 15.4658827628,
			"0.004": 11.0083378251,
			"0.005": 5.4445402188,
			"0.006": 4.12432910714,
			"0.007": 4.6897125856,
			"0.008": 4.67881955475,
			"0.009": 5.03217599358,
			"0.01": 5.83702814911,
			"0.011": 7.22908956099,
			"0.012": 4.9309245618,
			"0.013": 2.74799095521,
			"0.014": 1.32100398503,
			"0.015": 0.0,
			"0.016": 0.0,
			"0.017": 0.0,
			"0.018": 0.0,
			"0.019": 0.0,
			"0.02": 0.0,
			"0.021": 0.0,
			"0.022": 0.0,
			"0.023": 0.0,
			"0.024": 0.0,
			"0.025": 0.0
		}
	}
}
