{
	 "smiles": "CC1(C)C2CCC1(C)C(=O)C2(CC=CC1=CC=CC=C1)C1(CC=C/C2=CC=CC=C2)C2CCC(C)(C1=O)C2(C)C", 
	 "Tm": 461.15, 
	 "num_atms": 86, 
	 "gaussian": { 
		 "optdone": 1, 
		 "sigma_profile": "yes", 
		 "theory": "DFT", 
		 "functional": "B3LYP", 
		 "basiset": "6-31G**", 
		 "properties": { 
			 "R2extent": 21893.6807, 
			 "electric_dipole_moment_norm": 4.04427829038, 
			 "electric_quadrupole_moment_norm": 12.7247415361, 
			 "total_energy": -1626.1291633, 
			 "HOMO_LUMO_gap": 0.1709, 
			 "cosmo_polarized_energy": -16.55, 
			 "cosmo_cavitation_energy": 73.56, 
			 "cosmo_dispersion_energy": -47.28, 
			 "cosmo_repulsion_energy": 3.41, 
			 "cosmo_total_nonelectrostatic_energy": 29.69, 
			 "SMD_solvation_energy": 12.24 
		},
		"coords": [
			{
				"x": -3.2725631825,
				"y": 0.1128830421,
				"z": -3.7731304525,
				"element": "C" 
			},
			{
				"x": -2.101946645,
				"y": 0.6232099523,
				"z": -2.9021660445,
				"element": "C" 
			},
			{
				"x": -2.4892639773,
				"y": 2.0493644183,
				"z": -2.490784618,
				"element": "C" 
			},
			{
				"x": -1.6806584015,
				"y": -0.4156374554,
				"z": -1.780600676,
				"element": "C" 
			},
			{
				"x": -1.2914578713,
				"y": -1.6233699573,
				"z": -2.6771996304,
				"element": "C" 
			},
			{
				"x": -0.5266224347,
				"y": -0.9452642389,
				"z": -3.8513009802,
				"element": "C" 
			},
			{
				"x": -0.7011252961,
				"y": 0.5824432223,
				"z": -3.5772410006,
				"element": "C" 
			},
			{
				"x": -0.4163303568,
				"y": 1.4731242284,
				"z": -4.7765165453,
				"element": "C" 
			},
			{
				"x": 0.1782949222,
				"y": 0.9349680398,
				"z": -2.3563516558,
				"element": "C" 
			},
			{
				"x": 1.174692733,
				"y": 1.6246930871,
				"z": -2.4307953461,
				"element": "O" 
			},
			{
				"x": -0.3498581719,
				"y": 0.1377871169,
				"z": -1.0871209264,
				"element": "C" 
			},
			{
				"x": 0.8406735758,
				"y": -0.9185827521,
				"z": -0.9458091806,
				"element": "C" 
			},
			{
				"x": 0.7097541969,
				"y": -2.1736673128,
				"z": -0.1203729254,
				"element": "C" 
			},
			{
				"x": 1.0940772654,
				"y": -3.3842429365,
				"z": -0.560624431,
				"element": "C" 
			},
			{
				"x": 1.1010028889,
				"y": -4.6516033563,
				"z": 0.1861061543,
				"element": "C" 
			},
			{
				"x": 0.6998083634,
				"y": -4.7640648767,
				"z": 1.5312835237,
				"element": "C" 
			},
			{
				"x": 0.7252433528,
				"y": -5.9922900392,
				"z": 2.1850255307,
				"element": "C" 
			},
			{
				"x": 1.1537182405,
				"y": -7.1430041321,
				"z": 1.5158543797,
				"element": "C" 
			},
			{
				"x": 1.5567878037,
				"y": -7.0501584507,
				"z": 0.1835664681,
				"element": "C" 
			},
			{
				"x": 1.5297592854,
				"y": -5.8191951205,
				"z": -0.4703578305,
				"element": "C" 
			},
			{
				"x": -0.4256711539,
				"y": 0.9328354913,
				"z": 0.3519232186,
				"element": "C" 
			},
			{
				"x": 0.9280989891,
				"y": 1.7497045555,
				"z": 0.5196488546,
				"element": "C" 
			},
			{
				"x": 1.9980946906,
				"y": 1.1714176127,
				"z": 1.4095154641,
				"element": "C" 
			},
			{
				"x": 2.9511054828,
				"y": 1.8337390237,
				"z": 2.0937539263,
				"element": "C" 
			},
			{
				"x": 3.2097221091,
				"y": 3.2801580865,
				"z": 2.1956700727,
				"element": "C" 
			},
			{
				"x": 2.9170445613,
				"y": 4.204895506,
				"z": 1.1746813261,
				"element": "C" 
			},
			{
				"x": 3.1895586904,
				"y": 5.5630203406,
				"z": 1.3406247834,
				"element": "C" 
			},
			{
				"x": 3.7660050402,
				"y": 6.0313166114,
				"z": 2.5221710105,
				"element": "C" 
			},
			{
				"x": 4.0840574205,
				"y": 5.1249410793,
				"z": 3.5367841432,
				"element": "C" 
			},
			{
				"x": 3.8162801922,
				"y": 3.7689588118,
				"z": 3.3698030561,
				"element": "C" 
			},
			{
				"x": -0.7590958199,
				"y": 0.0531000584,
				"z": 1.6367321574,
				"element": "C" 
			},
			{
				"x": -1.9684743794,
				"y": -0.8687140184,
				"z": 1.3543484493,
				"element": "C" 
			},
			{
				"x": -3.154302963,
				"y": 0.137195612,
				"z": 1.2743480447,
				"element": "C" 
			},
			{
				"x": -2.5237108653,
				"y": 1.5023119412,
				"z": 1.6746749086,
				"element": "C" 
			},
			{
				"x": -3.5182161062,
				"y": 2.5684130232,
				"z": 2.1030143072,
				"element": "C" 
			},
			{
				"x": -1.5898159372,
				"y": 1.9678783394,
				"z": 0.5416632927,
				"element": "C" 
			},
			{
				"x": -1.6290616261,
				"y": 3.0774241059,
				"z": 0.0519753441,
				"element": "O" 
			},
			{
				"x": -1.4070983198,
				"y": 1.0516527294,
				"z": 2.6821501218,
				"element": "C" 
			},
			{
				"x": -0.5499499086,
				"y": 2.216951838,
				"z": 3.2184869135,
				"element": "C" 
			},
			{
				"x": -1.9357815124,
				"y": 0.3328230182,
				"z": 3.9449892106,
				"element": "C" 
			},
			{
				"x": -3.1064226,
				"y": -0.8477545155,
				"z": -4.2600818498,
				"element": "H" 
			},
			{
				"x": -3.4957401957,
				"y": 0.8402695725,
				"z": -4.5599469481,
				"element": "H" 
			},
			{
				"x": -4.1755363979,
				"y": 0.0193120652,
				"z": -3.1580160774,
				"element": "H" 
			},
			{
				"x": -3.3462483906,
				"y": 2.0566930143,
				"z": -1.810215112,
				"element": "H" 
			},
			{
				"x": -2.7862870183,
				"y": 2.6095176551,
				"z": -3.383821087,
				"element": "H" 
			},
			{
				"x": -1.6861828729,
				"y": 2.6075223794,
				"z": -2.0148550238,
				"element": "H" 
			},
			{
				"x": -2.491784108,
				"y": -0.6474244676,
				"z": -1.0995388635,
				"element": "H" 
			},
			{
				"x": -0.7067057867,
				"y": -2.3737957801,
				"z": -2.1528919327,
				"element": "H" 
			},
			{
				"x": -2.1893210318,
				"y": -2.1347876332,
				"z": -3.029592237,
				"element": "H" 
			},
			{
				"x": 0.5268357117,
				"y": -1.2356514309,
				"z": -3.9152893359,
				"element": "H" 
			},
			{
				"x": -0.9697077865,
				"y": -1.1842252622,
				"z": -4.8234093763,
				"element": "H" 
			},
			{
				"x": -1.0658844725,
				"y": 1.2101879807,
				"z": -5.6179184451,
				"element": "H" 
			},
			{
				"x": 0.6234103081,
				"y": 1.3607468092,
				"z": -5.0978956426,
				"element": "H" 
			},
			{
				"x": -0.5672328516,
				"y": 2.5296781962,
				"z": -4.5390192583,
				"element": "H" 
			},
			{
				"x": 1.1690693854,
				"y": -1.2246513561,
				"z": -1.941195486,
				"element": "H" 
			},
			{
				"x": 1.6859107736,
				"y": -0.3401790499,
				"z": -0.562700958,
				"element": "H" 
			},
			{
				"x": 0.3626758247,
				"y": -2.0785816713,
				"z": 0.9005691082,
				"element": "H" 
			},
			{
				"x": 1.4520834219,
				"y": -3.4656563969,
				"z": -1.5881906071,
				"element": "H" 
			},
			{
				"x": 0.3659405938,
				"y": -3.8842082052,
				"z": 2.0729394716,
				"element": "H" 
			},
			{
				"x": 0.4109268857,
				"y": -6.0539147134,
				"z": 3.2232440019,
				"element": "H" 
			},
			{
				"x": 1.1733395299,
				"y": -8.0994962052,
				"z": 2.0298785357,
				"element": "H" 
			},
			{
				"x": 1.8929607301,
				"y": -7.9358074681,
				"z": -0.3482008442,
				"element": "H" 
			},
			{
				"x": 1.8452629049,
				"y": -5.7546794272,
				"z": -1.508868907,
				"element": "H" 
			},
			{
				"x": 1.3505527192,
				"y": 1.8909656882,
				"z": -0.4766113016,
				"element": "H" 
			},
			{
				"x": 0.6933863159,
				"y": 2.7614392817,
				"z": 0.8483368538,
				"element": "H" 
			},
			{
				"x": 2.0353568766,
				"y": 0.0884726897,
				"z": 1.5011090624,
				"element": "H" 
			},
			{
				"x": 3.6238661916,
				"y": 1.2227945908,
				"z": 2.6956124027,
				"element": "H" 
			},
			{
				"x": 2.5075716138,
				"y": 3.8600920499,
				"z": 0.2326471832,
				"element": "H" 
			},
			{
				"x": 2.9582578505,
				"y": 6.2557828137,
				"z": 0.5363258411,
				"element": "H" 
			},
			{
				"x": 3.9770387458,
				"y": 7.0895153107,
				"z": 2.6469603487,
				"element": "H" 
			},
			{
				"x": 4.5449205504,
				"y": 5.4750782059,
				"z": 4.4563635537,
				"element": "H" 
			},
			{
				"x": 4.0702988996,
				"y": 3.068488478,
				"z": 4.1618046923,
				"element": "H" 
			},
			{
				"x": 0.1056084905,
				"y": -0.4708538918,
				"z": 2.0416414754,
				"element": "H" 
			},
			{
				"x": -1.8477823677,
				"y": -1.4747754961,
				"z": 0.4604918168,
				"element": "H" 
			},
			{
				"x": -2.1051735681,
				"y": -1.5775300688,
				"z": 2.1744104367,
				"element": "H" 
			},
			{
				"x": -3.952258816,
				"y": -0.1168556775,
				"z": 1.9789958883,
				"element": "H" 
			},
			{
				"x": -3.6227291997,
				"y": 0.1824803549,
				"z": 0.2866710832,
				"element": "H" 
			},
			{
				"x": -4.2156916114,
				"y": 2.7958331485,
				"z": 1.2903262604,
				"element": "H" 
			},
			{
				"x": -3.0147457269,
				"y": 3.5027671949,
				"z": 2.3637728004,
				"element": "H" 
			},
			{
				"x": -4.1028750451,
				"y": 2.2324823351,
				"z": 2.9658101462,
				"element": "H" 
			},
			{
				"x": -1.10250601,
				"y": 2.7353009909,
				"z": 4.0088303263,
				"element": "H" 
			},
			{
				"x": -0.2948008007,
				"y": 2.9705028786,
				"z": 2.4756606285,
				"element": "H" 
			},
			{
				"x": 0.3824431376,
				"y": 1.8494334164,
				"z": 3.6538607478,
				"element": "H" 
			},
			{
				"x": -1.0939617516,
				"y": -0.089498571,
				"z": 4.5063875808,
				"element": "H" 
			},
			{
				"x": -2.4321707602,
				"y": 1.0526826508,
				"z": 4.6030809016,
				"element": "H" 
			},
			{
				"x": -2.6442431668,
				"y": -0.4734287078,
				"z": 3.7567057273,
				"element": "H" 
			}
		],
		 "valence_orbital": [ 
			{
				"type": "occ",
				"energy": -0.24264,
				"method": "rhf"
			},
			{
				"type": "occ",
				"energy": -0.2353,
				"method": "rhf"
			},
			{
				"type": "occ",
				"energy": -0.23278,
				"method": "rhf"
			},
			{
				"type": "occ",
				"energy": -0.21981,
				"method": "rhf"
			},
			{
				"type": "occ",
				"energy": -0.2109,
				"method": "rhf"
			},
			{
				"type": "unocc",
				"energy": -0.04,
				"method": "rhf"
			},
			{
				"type": "unocc",
				"energy": -0.02553,
				"method": "rhf"
			},
			{
				"type": "unocc",
				"energy": -0.01904,
				"method": "rhf"
			},
			{
				"type": "unocc",
				"energy": -0.01038,
				"method": "rhf"
			},
			{
				"type": "unocc",
				"energy": -0.00266,
				"method": "rhf"
			}
		],
		"cosmo_sigma_profile": { 
			"-0.025": 0.0,
			"-0.024": 0.0,
			"-0.023": 0.0,
			"-0.022": 0.0,
			"-0.021": 0.0,
			"-0.02": 0.0,
			"-0.019": 0.0,
			"-0.018": 0.0,
			"-0.017": 0.0,
			"-0.016": 0.0,
			"-0.015": 0.0,
			"-0.014": 0.0,
			"-0.013": 0.0,
			"-0.012": 0.0,
			"-0.011": 0.0,
			"-0.01": 0.0,
			"-0.009": 0.0,
			"-0.008": 0.0365405854337,
			"-0.007": 1.70119184886,
			"-0.006": 10.4529636201,
			"-0.005": 30.6590020301,
			"-0.004": 42.515542391,
			"-0.003": 68.5896562378,
			"-0.002": 72.8225224398,
			"-0.001": 69.2808131152,
			"0.0": 58.884151517,
			"0.001": 58.8126393556,
			"0.002": 34.027441642,
			"0.003": 27.9195771865,
			"0.004": 27.8521532217,
			"0.005": 26.3062481562,
			"0.006": 21.3954961488,
			"0.007": 4.58308139002,
			"0.008": 3.15360893219,
			"0.009": 3.37907440961,
			"0.01": 3.7334345318,
			"0.011": 5.44990961171,
			"0.012": 3.73595593717,
			"0.013": 0.469837442484,
			"0.014": 0.0,
			"0.015": 0.0,
			"0.016": 0.0,
			"0.017": 0.0,
			"0.018": 0.0,
			"0.019": 0.0,
			"0.02": 0.0,
			"0.021": 0.0,
			"0.022": 0.0,
			"0.023": 0.0,
			"0.024": 0.0,
			"0.025": 0.0
		}
	}
}
