{
	 "smiles": "CC1=CC=CC(C)=C1OCC(O)=O", 
	 "Tm": 412.15, 
	 "num_atms": 25, 
	 "gaussian": { 
		 "optdone": 1, 
		 "sigma_profile": "yes", 
		 "theory": "DFT", 
		 "functional": "B3LYP", 
		 "basiset": "6-31G**", 
		 "properties": { 
			 "R2extent": 2863.1298, 
			 "electric_dipole_moment_norm": 2.33375043439, 
			 "electric_quadrupole_moment_norm": 11.0072638398, 
			 "total_energy": -613.97496825, 
			 "HOMO_LUMO_gap": 0.23314, 
			 "cosmo_polarized_energy": -12.39, 
			 "cosmo_cavitation_energy": 28.79, 
			 "cosmo_dispersion_energy": -20.3, 
			 "cosmo_repulsion_energy": 1.62, 
			 "cosmo_total_nonelectrostatic_energy": 10.11, 
			 "SMD_solvation_energy": 6.32 
		},
		"coords": [
			{
				"x": -1.0476296154,
				"y": -0.4305767923,
				"z": -2.6264503331,
				"element": "C" 
			},
			{
				"x": -0.8184606365,
				"y": -1.1621848011,
				"z": -1.3255669847,
				"element": "C" 
			},
			{
				"x": -0.8926435867,
				"y": -2.5593059908,
				"z": -1.2513078811,
				"element": "C" 
			},
			{
				"x": -0.6925518327,
				"y": -3.2267342352,
				"z": -0.0446388141,
				"element": "C" 
			},
			{
				"x": -0.4239444017,
				"y": -2.5022083207,
				"z": 1.1167447599,
				"element": "C" 
			},
			{
				"x": -0.33917431,
				"y": -1.1060772196,
				"z": 1.0883102161,
				"element": "C" 
			},
			{
				"x": -0.0632657407,
				"y": -0.304696197,
				"z": 2.3372336776,
				"element": "C" 
			},
			{
				"x": -0.5312514408,
				"y": -0.4607714115,
				"z": -0.1438878308,
				"element": "C" 
			},
			{
				"x": -0.5092261564,
				"y": 0.9295517029,
				"z": -0.1758394419,
				"element": "O" 
			},
			{
				"x": 0.7247236716,
				"y": 1.5272830478,
				"z": -0.5072145934,
				"element": "C" 
			},
			{
				"x": 0.4790890036,
				"y": 2.7795998526,
				"z": -1.3345712659,
				"element": "C" 
			},
			{
				"x": 1.6197750433,
				"y": 3.5072791652,
				"z": -1.4150443744,
				"element": "O" 
			},
			{
				"x": -0.5533514353,
				"y": 3.0955050656,
				"z": -1.8728031557,
				"element": "O" 
			},
			{
				"x": -0.1074085498,
				"y": -0.2794337327,
				"z": -3.173547727,
				"element": "H" 
			},
			{
				"x": -1.4823643533,
				"y": 0.5564842454,
				"z": -2.4549961537,
				"element": "H" 
			},
			{
				"x": -1.7092378593,
				"y": -1.0044520484,
				"z": -3.2815319045,
				"element": "H" 
			},
			{
				"x": -1.120064381,
				"y": -3.1230552522,
				"z": -2.152634876,
				"element": "H" 
			},
			{
				"x": -0.7596749964,
				"y": -4.3101714547,
				"z": -0.0053215348,
				"element": "H" 
			},
			{
				"x": -0.2826342828,
				"y": -3.0212499753,
				"z": 2.0613506901,
				"element": "H" 
			},
			{
				"x": 0.9578247349,
				"y": 0.0971430636,
				"z": 2.3445220107,
				"element": "H" 
			},
			{
				"x": -0.1759810111,
				"y": -0.9246963315,
				"z": 3.2305559088,
				"element": "H" 
			},
			{
				"x": -0.7426814438,
				"y": 0.5488305943,
				"z": 2.4161670858,
				"element": "H" 
			},
			{
				"x": 1.3611772456,
				"y": 0.8561695344,
				"z": -1.1005530203,
				"element": "H" 
			},
			{
				"x": 1.2953751936,
				"y": 1.8040121919,
				"z": 0.3900334612,
				"element": "H" 
			},
			{
				"x": 1.4172811411,
				"y": 4.2707552995,
				"z": -1.9813079189,
				"element": "H" 
			}
		],
		 "valence_orbital": [ 
			{
				"type": "occ",
				"energy": -0.32637,
				"method": "rhf"
			},
			{
				"type": "occ",
				"energy": -0.28627,
				"method": "rhf"
			},
			{
				"type": "occ",
				"energy": -0.27522,
				"method": "rhf"
			},
			{
				"type": "occ",
				"energy": -0.23541,
				"method": "rhf"
			},
			{
				"type": "occ",
				"energy": -0.23236,
				"method": "rhf"
			},
			{
				"type": "unocc",
				"energy": 0.00078,
				"method": "rhf"
			},
			{
				"type": "unocc",
				"energy": 0.00423,
				"method": "rhf"
			},
			{
				"type": "unocc",
				"energy": 0.00469,
				"method": "rhf"
			},
			{
				"type": "unocc",
				"energy": 0.07053,
				"method": "rhf"
			},
			{
				"type": "unocc",
				"energy": 0.08186,
				"method": "rhf"
			}
		],
		"cosmo_sigma_profile": { 
			"-0.025": 0.0,
			"-0.024": 0.0,
			"-0.023": 0.0,
			"-0.022": 0.0,
			"-0.021": 0.0,
			"-0.02": 0.0,
			"-0.019": 0.160474195086,
			"-0.018": 1.02632804487,
			"-0.017": 0.812761882188,
			"-0.016": 0.731376422572,
			"-0.015": 0.925367623162,
			"-0.014": 0.784095623877,
			"-0.013": 0.475426334008,
			"-0.012": 0.822150918333,
			"-0.011": 0.918945394087,
			"-0.01": 0.816053165326,
			"-0.009": 0.327998429722,
			"-0.008": 1.80911608263,
			"-0.007": 4.40472296529,
			"-0.006": 7.75257544008,
			"-0.005": 14.9754915254,
			"-0.004": 19.9565849371,
			"-0.003": 21.377406124,
			"-0.002": 16.6098253746,
			"-0.001": 17.0418634023,
			"0.0": 20.6350574257,
			"0.001": 16.0574569897,
			"0.002": 11.5064281919,
			"0.003": 10.6592916369,
			"0.004": 11.0541554843,
			"0.005": 10.7205920357,
			"0.006": 10.1154442216,
			"0.007": 4.37771085016,
			"0.008": 3.99013905744,
			"0.009": 3.66436711591,
			"0.01": 2.82148278264,
			"0.011": 5.58697629374,
			"0.012": 2.69184749277,
			"0.013": 1.33839594233,
			"0.014": 0.234117607604,
			"0.015": 0.0,
			"0.016": 0.0,
			"0.017": 0.0,
			"0.018": 0.0,
			"0.019": 0.0,
			"0.02": 0.0,
			"0.021": 0.0,
			"0.022": 0.0,
			"0.023": 0.0,
			"0.024": 0.0,
			"0.025": 0.0
		}
	}
}
