{
	 "smiles": "OC(=O)C1=CC(=O)NC=C1", 
	 "Tm": 573.15, 
	 "num_atms": 15, 
	 "gaussian": { 
		 "optdone": 1, 
		 "sigma_profile": "yes", 
		 "theory": "DFT", 
		 "functional": "B3LYP", 
		 "basiset": "6-31G**", 
		 "properties": { 
			 "R2extent": 1898.2515, 
			 "electric_dipole_moment_norm": 3.52574132063, 
			 "electric_quadrupole_moment_norm": 24.4308879955, 
			 "total_energy": -512.08147924, 
			 "HOMO_LUMO_gap": 0.15653, 
			 "cosmo_polarized_energy": -20.78, 
			 "cosmo_cavitation_energy": 20.18, 
			 "cosmo_dispersion_energy": -15.14, 
			 "cosmo_repulsion_energy": 1.23, 
			 "cosmo_total_nonelectrostatic_energy": 6.26, 
			 "SMD_solvation_energy": 5.85 
		},
		"coords": [
			{
				"x": -0.5004217653,
				"y": -2.4836538682,
				"z": -1.0031805627,
				"element": "O" 
			},
			{
				"x": 0.6343784739,
				"y": -1.7744556999,
				"z": -1.2074852628,
				"element": "C" 
			},
			{
				"x": 1.2269261171,
				"y": -1.8477751634,
				"z": -2.2569598151,
				"element": "O" 
			},
			{
				"x": 1.1082220594,
				"y": -0.9018570227,
				"z": -0.0721063191,
				"element": "C" 
			},
			{
				"x": 0.2587348241,
				"y": -0.4339215015,
				"z": 0.8966953378,
				"element": "C" 
			},
			{
				"x": 0.7178898155,
				"y": 0.4287117255,
				"z": 1.9753861665,
				"element": "C" 
			},
			{
				"x": 0.034765045,
				"y": 0.8861026588,
				"z": 2.8838851129,
				"element": "O" 
			},
			{
				"x": 2.0960055671,
				"y": 0.7180169634,
				"z": 1.8974949237,
				"element": "N" 
			},
			{
				"x": 2.9433629413,
				"y": 0.2701063176,
				"z": 0.9255341089,
				"element": "C" 
			},
			{
				"x": 2.4895156344,
				"y": -0.5343569563,
				"z": -0.0754048886,
				"element": "C" 
			},
			{
				"x": -0.7709015923,
				"y": -2.4258276682,
				"z": -0.0756915921,
				"element": "H" 
			},
			{
				"x": -0.8061941571,
				"y": -0.6429853347,
				"z": 0.9011103787,
				"element": "H" 
			},
			{
				"x": 2.4366020072,
				"y": 1.3186803117,
				"z": 2.6384449186,
				"element": "H" 
			},
			{
				"x": 3.9756333252,
				"y": 0.5922936361,
				"z": 1.004923012,
				"element": "H" 
			},
			{
				"x": 3.1410817044,
				"y": -0.889178398,
				"z": -0.8617455188,
				"element": "H" 
			}
		],
		 "valence_orbital": [ 
			{
				"type": "occ",
				"energy": -0.33652,
				"method": "rhf"
			},
			{
				"type": "occ",
				"energy": -0.32042,
				"method": "rhf"
			},
			{
				"type": "occ",
				"energy": -0.29142,
				"method": "rhf"
			},
			{
				"type": "occ",
				"energy": -0.2645,
				"method": "rhf"
			},
			{
				"type": "occ",
				"energy": -0.23781,
				"method": "rhf"
			},
			{
				"type": "unocc",
				"energy": -0.08128,
				"method": "rhf"
			},
			{
				"type": "unocc",
				"energy": -0.01389,
				"method": "rhf"
			},
			{
				"type": "unocc",
				"energy": 0.0323,
				"method": "rhf"
			},
			{
				"type": "unocc",
				"energy": 0.05077,
				"method": "rhf"
			},
			{
				"type": "unocc",
				"energy": 0.06655,
				"method": "rhf"
			}
		],
		"cosmo_sigma_profile": { 
			"-0.025": 0.0,
			"-0.024": 0.0,
			"-0.023": 0.0,
			"-0.022": 0.0,
			"-0.021": 0.0,
			"-0.02": 0.0,
			"-0.019": 0.466688258292,
			"-0.018": 1.27172918656,
			"-0.017": 1.52281731376,
			"-0.016": 2.33919742068,
			"-0.015": 2.24893126271,
			"-0.014": 2.13095165209,
			"-0.013": 2.21035709921,
			"-0.012": 2.75569522532,
			"-0.011": 2.4448422328,
			"-0.01": 4.13544135494,
			"-0.009": 4.09612974385,
			"-0.008": 4.45933939289,
			"-0.007": 5.31478360012,
			"-0.006": 5.15190120872,
			"-0.005": 5.90294315254,
			"-0.004": 5.34003233594,
			"-0.003": 6.55206795129,
			"-0.002": 9.94701605807,
			"-0.001": 11.6899516662,
			"0.0": 12.1053693609,
			"0.001": 7.85494238658,
			"0.002": 6.77043405133,
			"0.003": 3.52824590988,
			"0.004": 2.95095969091,
			"0.005": 4.08841940194,
			"0.006": 3.04747206811,
			"0.007": 3.7634604615,
			"0.008": 4.75935193772,
			"0.009": 4.70514610733,
			"0.01": 6.56812015983,
			"0.011": 6.51251133825,
			"0.012": 4.0925670829,
			"0.013": 4.23589144602,
			"0.014": 5.69213836244,
			"0.015": 1.14197644433,
			"0.016": 0.0,
			"0.017": 0.0,
			"0.018": 0.0,
			"0.019": 0.0,
			"0.02": 0.0,
			"0.021": 0.0,
			"0.022": 0.0,
			"0.023": 0.0,
			"0.024": 0.0,
			"0.025": 0.0
		}
	}
}
