{
	 "smiles": "OC(=O)CCCCCCCCCCCCCCC(O)=O", 
	 "Tm": 398.15, 
	 "num_atms": 50, 
	 "gaussian": { 
		 "optdone": 1, 
		 "sigma_profile": "no", 
		 "theory": "DFT", 
		 "functional": "B3LYP", 
		 "basiset": "6-31G**", 
		 "properties": { 
			 "R2extent": 7669.1334, 
			 "electric_dipole_moment_norm": 6.47062700053, 
			 "electric_quadrupole_moment_norm": 29.1765693448, 
			 "total_energy": -928.750284488, 
			 "HOMO_LUMO_gap": 0.21473, 
			 "cosmo_polarized_energy": -414.25, 
			 "cosmo_cavitation_energy": 49.45, 
			 "cosmo_dispersion_energy": -30.45, 
			 "cosmo_repulsion_energy": 2.37, 
			 "cosmo_total_nonelectrostatic_energy": 21.37, 
			 "SMD_solvation_energy": 8.05 
		},
		"coords": [
			{
				"x": -2.921659617,
				"y": 3.5908472868,
				"z": 0.4091923123,
				"element": "O" 
			},
			{
				"x": -2.7793819026,
				"y": 2.4367159724,
				"z": 1.0829695202,
				"element": "C" 
			},
			{
				"x": -1.8240891372,
				"y": 2.2530404079,
				"z": 1.8247776548,
				"element": "O" 
			},
			{
				"x": -3.8786640267,
				"y": 1.4501223421,
				"z": 0.785075929,
				"element": "C" 
			},
			{
				"x": -3.7286048856,
				"y": 0.8314846831,
				"z": -0.6255977455,
				"element": "C" 
			},
			{
				"x": -2.5421466827,
				"y": -0.1331149943,
				"z": -0.7622545286,
				"element": "C" 
			},
			{
				"x": -2.339024576,
				"y": -0.5995465036,
				"z": -2.2114732645,
				"element": "C" 
			},
			{
				"x": -1.3534717122,
				"y": -1.767014614,
				"z": -2.3865528007,
				"element": "C" 
			},
			{
				"x": 0.1093349348,
				"y": -1.5205374168,
				"z": -1.9714477497,
				"element": "C" 
			},
			{
				"x": 0.8574565954,
				"y": -0.4365503314,
				"z": -2.7866574589,
				"element": "C" 
			},
			{
				"x": 0.9693396738,
				"y": 0.9467932699,
				"z": -2.1170497413,
				"element": "C" 
			},
			{
				"x": 1.8959538381,
				"y": 0.9666165614,
				"z": -0.8930998923,
				"element": "C" 
			},
			{
				"x": 2.0050769797,
				"y": 2.3441639209,
				"z": -0.2202470651,
				"element": "C" 
			},
			{
				"x": 2.8635884153,
				"y": 2.3602899518,
				"z": 1.0668690264,
				"element": "C" 
			},
			{
				"x": 2.075054169,
				"y": 2.2275024064,
				"z": 2.382984246,
				"element": "C" 
			},
			{
				"x": 1.2463893745,
				"y": 0.9451626701,
				"z": 2.5263247689,
				"element": "C" 
			},
			{
				"x": 0.4932678949,
				"y": 0.8698966928,
				"z": 3.8704201156,
				"element": "C" 
			},
			{
				"x": -0.4691842413,
				"y": -0.3117154524,
				"z": 3.9204662388,
				"element": "C" 
			},
			{
				"x": -1.5709177026,
				"y": -0.1908105612,
				"z": 3.1416612235,
				"element": "O" 
			},
			{
				"x": -0.2793694196,
				"y": -1.3132196946,
				"z": 4.5704684286,
				"element": "O" 
			},
			{
				"x": -2.1576267376,
				"y": 4.1483880353,
				"z": 0.6361224898,
				"element": "H" 
			},
			{
				"x": -3.8535833635,
				"y": 0.6728110455,
				"z": 1.5530960423,
				"element": "H" 
			},
			{
				"x": -4.8342654911,
				"y": 1.9802277282,
				"z": 0.8517271434,
				"element": "H" 
			},
			{
				"x": -4.6580026323,
				"y": 0.2984546879,
				"z": -0.8576489101,
				"element": "H" 
			},
			{
				"x": -3.6463344182,
				"y": 1.6421508055,
				"z": -1.3598672642,
				"element": "H" 
			},
			{
				"x": -2.7074280026,
				"y": -1.0004581648,
				"z": -0.1089323285,
				"element": "H" 
			},
			{
				"x": -1.6276747894,
				"y": 0.3472489182,
				"z": -0.3929477166,
				"element": "H" 
			},
			{
				"x": -3.310245604,
				"y": -0.9142516704,
				"z": -2.6181101516,
				"element": "H" 
			},
			{
				"x": -2.0237720619,
				"y": 0.2554259329,
				"z": -2.8252842951,
				"element": "H" 
			},
			{
				"x": -1.3667505769,
				"y": -2.0720666556,
				"z": -3.4418650758,
				"element": "H" 
			},
			{
				"x": -1.7329351255,
				"y": -2.6279824911,
				"z": -1.81940602,
				"element": "H" 
			},
			{
				"x": 0.1552557328,
				"y": -1.2873319976,
				"z": -0.9006792499,
				"element": "H" 
			},
			{
				"x": 0.6376273979,
				"y": -2.4753458541,
				"z": -2.0792834264,
				"element": "H" 
			},
			{
				"x": 0.3719284874,
				"y": -0.3249118342,
				"z": -3.7654281664,
				"element": "H" 
			},
			{
				"x": 1.8754448789,
				"y": -0.7864727522,
				"z": -3.0023250999,
				"element": "H" 
			},
			{
				"x": 1.3424007469,
				"y": 1.669851307,
				"z": -2.8555681952,
				"element": "H" 
			},
			{
				"x": -0.0276348164,
				"y": 1.3040380802,
				"z": -1.8249321901,
				"element": "H" 
			},
			{
				"x": 1.5564924167,
				"y": 0.2256939479,
				"z": -0.1605714419,
				"element": "H" 
			},
			{
				"x": 2.9005017973,
				"y": 0.6421799891,
				"z": -1.2004126032,
				"element": "H" 
			},
			{
				"x": 0.9973777296,
				"y": 2.7195485796,
				"z": 0.0113868411,
				"element": "H" 
			},
			{
				"x": 2.4252927615,
				"y": 3.049717631,
				"z": -0.9489130988,
				"element": "H" 
			},
			{
				"x": 3.4267751133,
				"y": 3.3003989791,
				"z": 1.1141640046,
				"element": "H" 
			},
			{
				"x": 3.6188015055,
				"y": 1.5642040495,
				"z": 1.0094370687,
				"element": "H" 
			},
			{
				"x": 1.3987242487,
				"y": 3.0891442357,
				"z": 2.4776266981,
				"element": "H" 
			},
			{
				"x": 2.7777954909,
				"y": 2.298344095,
				"z": 3.2242845068,
				"element": "H" 
			},
			{
				"x": 0.5171013279,
				"y": 0.8923064355,
				"z": 1.7118160355,
				"element": "H" 
			},
			{
				"x": 1.8925495474,
				"y": 0.0633413503,
				"z": 2.4287371701,
				"element": "H" 
			},
			{
				"x": 1.1949422033,
				"y": 0.7601531191,
				"z": 4.7007880764,
				"element": "H" 
			},
			{
				"x": -0.0702142694,
				"y": 1.7998758265,
				"z": 4.0199662221,
				"element": "H" 
			},
			{
				"x": -1.6044914688,
				"y": 0.6892900437,
				"z": 2.7108937173,
				"element": "H" 
			}
		],
		 "valence_orbital": [ 
			{
				"type": "occ",
				"energy": -0.3068,
				"method": "rhf"
			},
			{
				"type": "occ",
				"energy": -0.30357,
				"method": "rhf"
			},
			{
				"type": "occ",
				"energy": -0.30012,
				"method": "rhf"
			},
			{
				"type": "occ",
				"energy": -0.28411,
				"method": "rhf"
			},
			{
				"type": "occ",
				"energy": -0.24017,
				"method": "rhf"
			},
			{
				"type": "unocc",
				"energy": -0.02544,
				"method": "rhf"
			},
			{
				"type": "unocc",
				"energy": 0.03487,
				"method": "rhf"
			},
			{
				"type": "unocc",
				"energy": 0.04206,
				"method": "rhf"
			},
			{
				"type": "unocc",
				"energy": 0.06761,
				"method": "rhf"
			},
			{
				"type": "unocc",
				"energy": 0.08607,
				"method": "rhf"
			}
		],
		"cosmo_sigma_profile": { 
			"0.0": 0.0,
			"0.0": 0.0,
			"0.0": 0.0,
			"0.0": 0.0,
			"0.0": 0.0,
			"0.0": 0.0,
			"0.0": 0.0,
			"0.0": 0.0,
			"0.0": 0.0,
			"0.0": 0.0,
			"0.0": 0.0,
			"0.0": 0.0,
			"0.0": 0.0,
			"0.0": 0.0,
			"0.0": 0.0,
			"0.0": 0.0,
			"0.0": 0.0,
			"0.0": 0.0,
			"0.0": 0.0,
			"0.0": 0.0,
			"0.0": 0.0,
			"0.0": 0.0,
			"0.0": 0.0,
			"0.0": 0.0,
			"0.0": 0.0,
			"0.0": 0.0,
			"0.0": 0.0,
			"0.0": 0.0,
			"0.0": 0.0,
			"0.0": 0.0,
			"0.0": 0.0,
			"0.0": 0.0,
			"0.0": 0.0,
			"0.0": 0.0,
			"0.0": 0.0,
			"0.0": 0.0,
			"0.0": 0.0,
			"0.0": 0.0,
			"0.0": 0.0,
			"0.0": 0.0,
			"0.0": 0.0,
			"0.0": 0.0,
			"0.0": 0.0,
			"0.0": 0.0,
			"0.0": 0.0,
			"0.0": 0.0,
			"0.0": 0.0,
			"0.0": 0.0,
			"0.0": 0.0,
			"0.0": 0.0,
			"0.0": 0.0
		}
	}
}
