{
	 "smiles": "CC1=C(C(C)=C(N1)C(O)=O)S(N)(=O)=O", 
	 "Tm": 488.15, 
	 "num_atms": 24, 
	 "gaussian": { 
		 "optdone": 1, 
		 "sigma_profile": "yes", 
		 "theory": "DFT", 
		 "functional": "B3LYP", 
		 "basiset": "6-31G**", 
		 "properties": { 
			 "R2extent": 3651.361, 
			 "electric_dipole_moment_norm": 3.51407379262, 
			 "electric_quadrupole_moment_norm": 23.2030153362, 
			 "total_energy": -1081.31019542, 
			 "HOMO_LUMO_gap": 0.20036, 
			 "cosmo_polarized_energy": -24.09, 
			 "cosmo_cavitation_energy": 28.88, 
			 "cosmo_dispersion_energy": -21.74, 
			 "cosmo_repulsion_energy": 1.67, 
			 "cosmo_total_nonelectrostatic_energy": 8.8, 
			 "SMD_solvation_energy": 5.78 
		},
		"coords": [
			{
				"x": 0.0765897485,
				"y": -1.5940472805,
				"z": 2.6580185719,
				"element": "C" 
			},
			{
				"x": -0.041889693,
				"y": -1.3418607912,
				"z": 1.1911651924,
				"element": "C" 
			},
			{
				"x": -0.9212476199,
				"y": -0.5244999497,
				"z": 0.4649869116,
				"element": "C" 
			},
			{
				"x": -0.6177711246,
				"y": -0.6300978525,
				"z": -0.9283650697,
				"element": "C" 
			},
			{
				"x": -1.2924356234,
				"y": 0.0447995157,
				"z": -2.092362611,
				"element": "C" 
			},
			{
				"x": 0.4553079436,
				"y": -1.5156848097,
				"z": -1.0025335772,
				"element": "C" 
			},
			{
				"x": 0.771654502,
				"y": -1.9157110786,
				"z": 0.2812894313,
				"element": "N" 
			},
			{
				"x": 1.2777316672,
				"y": -2.0835565108,
				"z": -2.0776642724,
				"element": "C" 
			},
			{
				"x": 0.990827988,
				"y": -1.7301781387,
				"z": -3.3529703892,
				"element": "O" 
			},
			{
				"x": 2.1931561215,
				"y": -2.8478890056,
				"z": -1.8406960137,
				"element": "O" 
			},
			{
				"x": -2.1981189524,
				"y": 0.4032698511,
				"z": 1.2476181373,
				"element": "S" 
			},
			{
				"x": -1.3091120261,
				"y": 1.4978651075,
				"z": 2.1997198727,
				"element": "N" 
			},
			{
				"x": -2.9004079846,
				"y": -0.437440535,
				"z": 2.2217511756,
				"element": "O" 
			},
			{
				"x": -2.9487059388,
				"y": 1.1281966223,
				"z": 0.2140519741,
				"element": "O" 
			},
			{
				"x": -0.8789606349,
				"y": -1.9334427668,
				"z": 3.0659393011,
				"element": "H" 
			},
			{
				"x": 0.3442559352,
				"y": -0.6717278659,
				"z": 3.1836735241,
				"element": "H" 
			},
			{
				"x": 0.8404830148,
				"y": -2.3488394484,
				"z": 2.8625866396,
				"element": "H" 
			},
			{
				"x": -2.0996339566,
				"y": 0.6916196992,
				"z": -1.7529930667,
				"element": "H" 
			},
			{
				"x": -1.7361678074,
				"y": -0.6908519828,
				"z": -2.7761806963,
				"element": "H" 
			},
			{
				"x": -0.5861899306,
				"y": 0.6647683111,
				"z": -2.6601110907,
				"element": "H" 
			},
			{
				"x": 1.5272018088,
				"y": -2.5670161673,
				"z": 0.4534687205,
				"element": "H" 
			},
			{
				"x": 0.2305925462,
				"y": -1.1326140268,
				"z": -3.3832341566,
				"element": "H" 
			},
			{
				"x": -1.8733185766,
				"y": 1.7215584249,
				"z": 3.0176083456,
				"element": "H" 
			},
			{
				"x": -1.1069414071,
				"y": 2.3426806784,
				"z": 1.6686331457,
				"element": "H" 
			}
		],
		 "valence_orbital": [ 
			{
				"type": "occ",
				"energy": -0.30871,
				"method": "rhf"
			},
			{
				"type": "occ",
				"energy": -0.30095,
				"method": "rhf"
			},
			{
				"type": "occ",
				"energy": -0.2823,
				"method": "rhf"
			},
			{
				"type": "occ",
				"energy": -0.27291,
				"method": "rhf"
			},
			{
				"type": "occ",
				"energy": -0.24048,
				"method": "rhf"
			},
			{
				"type": "unocc",
				"energy": -0.04012,
				"method": "rhf"
			},
			{
				"type": "unocc",
				"energy": -0.00549,
				"method": "rhf"
			},
			{
				"type": "unocc",
				"energy": 0.05465,
				"method": "rhf"
			},
			{
				"type": "unocc",
				"energy": 0.05947,
				"method": "rhf"
			},
			{
				"type": "unocc",
				"energy": 0.07623,
				"method": "rhf"
			}
		],
		"cosmo_sigma_profile": { 
			"-0.025": 0.0,
			"-0.024": 0.0,
			"-0.023": 0.0,
			"-0.022": 0.0,
			"-0.021": 0.0,
			"-0.02": 0.0,
			"-0.019": 0.0,
			"-0.018": 0.0,
			"-0.017": 0.0,
			"-0.016": 0.0706680887676,
			"-0.015": 2.29917113076,
			"-0.014": 5.01645561748,
			"-0.013": 5.07695188432,
			"-0.012": 5.43328107122,
			"-0.011": 5.54624508748,
			"-0.01": 4.76168941616,
			"-0.009": 4.39471213666,
			"-0.008": 4.13557263541,
			"-0.007": 5.98278039165,
			"-0.006": 6.91954761765,
			"-0.005": 8.12370683881,
			"-0.004": 10.0125448043,
			"-0.003": 12.3654133587,
			"-0.002": 17.7550996825,
			"-0.001": 19.6928358541,
			"0.0": 10.6043856039,
			"0.001": 12.291041981,
			"0.002": 10.7308139894,
			"0.003": 7.96632061036,
			"0.004": 6.41125890879,
			"0.005": 5.53366630998,
			"0.006": 4.44401033611,
			"0.007": 5.89432905123,
			"0.008": 7.3155329916,
			"0.009": 6.75023792395,
			"0.01": 9.61857375114,
			"0.011": 11.7554520537,
			"0.012": 9.21204773554,
			"0.013": 2.44082614782,
			"0.014": 0.40684849062,
			"0.015": 0.0,
			"0.016": 0.0,
			"0.017": 0.0,
			"0.018": 0.0,
			"0.019": 0.0,
			"0.02": 0.0,
			"0.021": 0.0,
			"0.022": 0.0,
			"0.023": 0.0,
			"0.024": 0.0,
			"0.025": 0.0
		}
	}
}
