{
	 "smiles": "CC(=O)C1=CC(N)=CC=C1", 
	 "Tm": 370.35, 
	 "num_atms": 19, 
	 "gaussian": { 
		 "optdone": 1, 
		 "sigma_profile": "yes", 
		 "theory": "DFT", 
		 "functional": "B3LYP", 
		 "basiset": "6-31G**", 
		 "properties": { 
			 "R2extent": 1644.689, 
			 "electric_dipole_moment_norm": 3.06568058023, 
			 "electric_quadrupole_moment_norm": 15.8379664099, 
			 "total_energy": -440.258406619, 
			 "HOMO_LUMO_gap": 0.16146, 
			 "cosmo_polarized_energy": -11.91, 
			 "cosmo_cavitation_energy": 22.87, 
			 "cosmo_dispersion_energy": -16.87, 
			 "cosmo_repulsion_energy": 1.37, 
			 "cosmo_total_nonelectrostatic_energy": 7.36, 
			 "SMD_solvation_energy": 4.62 
		},
		"coords": [
			{
				"x": -1.1937901283,
				"y": -2.9477041359,
				"z": 1.182963568,
				"element": "C" 
			},
			{
				"x": -1.4859414307,
				"y": -1.4838157913,
				"z": 0.8962233045,
				"element": "C" 
			},
			{
				"x": -2.5239885004,
				"y": -0.9726518353,
				"z": 1.2905951987,
				"element": "O" 
			},
			{
				"x": -0.4794926172,
				"y": -0.682998355,
				"z": 0.1231611427,
				"element": "C" 
			},
			{
				"x": -0.7833373109,
				"y": 0.6579695089,
				"z": -0.1378881493,
				"element": "C" 
			},
			{
				"x": 0.104273164,
				"y": 1.4751669632,
				"z": -0.8497346503,
				"element": "C" 
			},
			{
				"x": -0.2283735513,
				"y": 2.7937295677,
				"z": -1.1572076676,
				"element": "N" 
			},
			{
				"x": 1.3170390658,
				"y": 0.9169855196,
				"z": -1.2978036734,
				"element": "C" 
			},
			{
				"x": 1.6203144192,
				"y": -0.4165842975,
				"z": -1.037390856,
				"element": "C" 
			},
			{
				"x": 0.7320495446,
				"y": -1.2270017591,
				"z": -0.3297617664,
				"element": "C" 
			},
			{
				"x": -1.0587531662,
				"y": -3.5107284058,
				"z": 0.2530308221,
				"element": "H" 
			},
			{
				"x": -2.0299039586,
				"y": -3.3668722546,
				"z": 1.7433491763,
				"element": "H" 
			},
			{
				"x": -0.2730778978,
				"y": -3.0573209445,
				"z": 1.7664308647,
				"element": "H" 
			},
			{
				"x": -1.7298109091,
				"y": 1.0465762228,
				"z": 0.2261940925,
				"element": "H" 
			},
			{
				"x": -0.9273577168,
				"y": 3.2128726398,
				"z": -0.5599675845,
				"element": "H" 
			},
			{
				"x": 0.5520086494,
				"y": 3.4129887659,
				"z": -1.3255748176,
				"element": "H" 
			},
			{
				"x": 2.0165918902,
				"y": 1.5351593108,
				"z": -1.8554708509,
				"element": "H" 
			},
			{
				"x": 2.562385342,
				"y": -0.8261153384,
				"z": -1.3908929167,
				"element": "H" 
			},
			{
				"x": 0.985165112,
				"y": -2.2630553812,
				"z": -0.1351552367,
				"element": "H" 
			}
		],
		 "valence_orbital": [ 
			{
				"type": "occ",
				"energy": -0.34628,
				"method": "rhf"
			},
			{
				"type": "occ",
				"energy": -0.31081,
				"method": "rhf"
			},
			{
				"type": "occ",
				"energy": -0.25145,
				"method": "rhf"
			},
			{
				"type": "occ",
				"energy": -0.24208,
				"method": "rhf"
			},
			{
				"type": "occ",
				"energy": -0.20903,
				"method": "rhf"
			},
			{
				"type": "unocc",
				"energy": -0.04757,
				"method": "rhf"
			},
			{
				"type": "unocc",
				"energy": 0.00805,
				"method": "rhf"
			},
			{
				"type": "unocc",
				"energy": 0.05021,
				"method": "rhf"
			},
			{
				"type": "unocc",
				"energy": 0.07973,
				"method": "rhf"
			},
			{
				"type": "unocc",
				"energy": 0.09734,
				"method": "rhf"
			}
		],
		"cosmo_sigma_profile": { 
			"-0.025": 0.0,
			"-0.024": 0.0,
			"-0.023": 0.0,
			"-0.022": 0.0,
			"-0.021": 0.0,
			"-0.02": 0.0,
			"-0.019": 0.0,
			"-0.018": 0.0,
			"-0.017": 0.0,
			"-0.016": 0.0,
			"-0.015": 0.0,
			"-0.014": 0.0,
			"-0.013": 0.396344882811,
			"-0.012": 2.88701996342,
			"-0.011": 2.64097287451,
			"-0.01": 3.10236502437,
			"-0.009": 3.86075374394,
			"-0.008": 2.83182152978,
			"-0.007": 2.47322186149,
			"-0.006": 9.22974809447,
			"-0.005": 15.5963073773,
			"-0.004": 14.0865125263,
			"-0.003": 12.4650812865,
			"-0.002": 11.261773555,
			"-0.001": 12.4821103626,
			"0.0": 9.6014117332,
			"0.001": 6.77355221618,
			"0.002": 8.68119740631,
			"0.003": 10.0297326106,
			"0.004": 10.8217566567,
			"0.005": 13.3861098256,
			"0.006": 6.48490477838,
			"0.007": 2.89172897358,
			"0.008": 2.19643159877,
			"0.009": 2.74636789242,
			"0.01": 2.65473613715,
			"0.011": 3.07832097544,
			"0.012": 4.84143661561,
			"0.013": 3.01972414703,
			"0.014": 0.752744174169,
			"0.015": 0.0246105272705,
			"0.016": 0.0,
			"0.017": 0.0,
			"0.018": 0.0,
			"0.019": 0.0,
			"0.02": 0.0,
			"0.021": 0.0,
			"0.022": 0.0,
			"0.023": 0.0,
			"0.024": 0.0,
			"0.025": 0.0
		}
	}
}
