{
	 "smiles": "CC1=CC(N)=NN1C1=CC=C(Cl)C=C1", 
	 "Tm": 374.15, 
	 "num_atms": 24, 
	 "gaussian": { 
		 "optdone": 1, 
		 "sigma_profile": "yes", 
		 "theory": "DFT", 
		 "functional": "B3LYP", 
		 "basiset": "6-31G**", 
		 "properties": { 
			 "R2extent": 4429.7328, 
			 "electric_dipole_moment_norm": 3.17313293923, 
			 "electric_quadrupole_moment_norm": 8.38813521589, 
			 "total_energy": -1011.52566294, 
			 "HOMO_LUMO_gap": 0.17675, 
			 "cosmo_polarized_energy": -11.69, 
			 "cosmo_cavitation_energy": 29.77, 
			 "cosmo_dispersion_energy": -22.04, 
			 "cosmo_repulsion_energy": 1.75, 
			 "cosmo_total_nonelectrostatic_energy": 9.48, 
			 "SMD_solvation_energy": 4.03 
		},
		"coords": [
			{
				"x": -1.865139399,
				"y": -1.3831062281,
				"z": -0.5129546833,
				"element": "C" 
			},
			{
				"x": -0.5853311359,
				"y": -1.8168923654,
				"z": 0.1319243488,
				"element": "C" 
			},
			{
				"x": -0.3437152495,
				"y": -2.9496086018,
				"z": 0.8820344702,
				"element": "C" 
			},
			{
				"x": 1.0046255257,
				"y": -2.8351647801,
				"z": 1.3124169888,
				"element": "C" 
			},
			{
				"x": 1.6998944286,
				"y": -3.7025316376,
				"z": 2.1510328585,
				"element": "N" 
			},
			{
				"x": 1.5706547798,
				"y": -1.7219816312,
				"z": 0.8645397548,
				"element": "N" 
			},
			{
				"x": 0.5874206198,
				"y": -1.0966470529,
				"z": 0.1316507507,
				"element": "N" 
			},
			{
				"x": 0.871696828,
				"y": 0.1768342891,
				"z": -0.4127578528,
				"element": "C" 
			},
			{
				"x": 0.3310911911,
				"y": 0.590146925,
				"z": -1.6369484045,
				"element": "C" 
			},
			{
				"x": 0.6233825842,
				"y": 1.8560888469,
				"z": -2.1440249005,
				"element": "C" 
			},
			{
				"x": 1.4785886082,
				"y": 2.6981638899,
				"z": -1.437426068,
				"element": "C" 
			},
			{
				"x": 1.8548814194,
				"y": 4.2914692551,
				"z": -2.0791538896,
				"element": "Cl" 
			},
			{
				"x": 2.0482313551,
				"y": 2.2877226124,
				"z": -0.2311908592,
				"element": "C" 
			},
			{
				"x": 1.7414561684,
				"y": 1.0312731083,
				"z": 0.2807088843,
				"element": "C" 
			},
			{
				"x": -2.0451040245,
				"y": -0.3119792211,
				"z": -0.3822876888,
				"element": "H" 
			},
			{
				"x": -2.696499224,
				"y": -1.9255909391,
				"z": -0.0566073538,
				"element": "H" 
			},
			{
				"x": -1.8881785717,
				"y": -1.5944311211,
				"z": -1.5886174113,
				"element": "H" 
			},
			{
				"x": -1.051540802,
				"y": -3.7327225659,
				"z": 1.1117776669,
				"element": "H" 
			},
			{
				"x": 1.5048180223,
				"y": -4.6803522132,
				"z": 1.9799446783,
				"element": "H" 
			},
			{
				"x": 2.696092679,
				"y": -3.5195980983,
				"z": 2.144397779,
				"element": "H" 
			},
			{
				"x": -0.2951279299,
				"y": -0.0784941466,
				"z": -2.2141487064,
				"element": "H" 
			},
			{
				"x": 0.2044210658,
				"y": 2.1754850856,
				"z": -3.0917042796,
				"element": "H" 
			},
			{
				"x": 2.7185992669,
				"y": 2.9493922784,
				"z": 0.3060778336,
				"element": "H" 
			},
			{
				"x": 2.173281794,
				"y": 0.6905243118,
				"z": 1.2135160842,
				"element": "H" 
			}
		],
		 "valence_orbital": [ 
			{
				"type": "occ",
				"energy": -0.28424,
				"method": "rhf"
			},
			{
				"type": "occ",
				"energy": -0.26454,
				"method": "rhf"
			},
			{
				"type": "occ",
				"energy": -0.2562,
				"method": "rhf"
			},
			{
				"type": "occ",
				"energy": -0.23275,
				"method": "rhf"
			},
			{
				"type": "occ",
				"energy": -0.19862,
				"method": "rhf"
			},
			{
				"type": "unocc",
				"energy": -0.02187,
				"method": "rhf"
			},
			{
				"type": "unocc",
				"energy": -0.01512,
				"method": "rhf"
			},
			{
				"type": "unocc",
				"energy": 0.02997,
				"method": "rhf"
			},
			{
				"type": "unocc",
				"energy": 0.03649,
				"method": "rhf"
			},
			{
				"type": "unocc",
				"energy": 0.07543,
				"method": "rhf"
			}
		],
		"cosmo_sigma_profile": { 
			"-0.025": 0.0,
			"-0.024": 0.0,
			"-0.023": 0.0,
			"-0.022": 0.0,
			"-0.021": 0.0,
			"-0.02": 0.0,
			"-0.019": 0.0,
			"-0.018": 0.0,
			"-0.017": 0.0,
			"-0.016": 0.0,
			"-0.015": 0.0,
			"-0.014": 0.0,
			"-0.013": 0.437091711693,
			"-0.012": 1.97438785518,
			"-0.011": 2.49685749819,
			"-0.01": 1.621927394,
			"-0.009": 3.11957459022,
			"-0.008": 4.48533993564,
			"-0.007": 8.23527736317,
			"-0.006": 12.4079103742,
			"-0.005": 14.868082638,
			"-0.004": 13.8932925736,
			"-0.003": 15.9853726921,
			"-0.002": 14.3094599406,
			"-0.001": 16.5322837532,
			"0.0": 14.1586693245,
			"0.001": 15.6857310709,
			"0.002": 19.9878818785,
			"0.003": 24.2347606471,
			"0.004": 17.1252393562,
			"0.005": 14.3891283576,
			"0.006": 4.95083693494,
			"0.007": 3.42688203751,
			"0.008": 3.55280370235,
			"0.009": 2.26597400437,
			"0.01": 1.86930314742,
			"0.011": 2.1722740651,
			"0.012": 1.45105300241,
			"0.013": 1.77006826762,
			"0.014": 1.51158283998,
			"0.015": 0.883665615248,
			"0.016": 0.0517524774648,
			"0.017": 0.0,
			"0.018": 0.0,
			"0.019": 0.0,
			"0.02": 0.0,
			"0.021": 0.0,
			"0.022": 0.0,
			"0.023": 0.0,
			"0.024": 0.0,
			"0.025": 0.0
		}
	}
}
