{
	 "smiles": "O=C1NN=C2OC3=CC=CC=C3C=C12", 
	 "Tm": 493.15, 
	 "num_atms": 20, 
	 "gaussian": { 
		 "optdone": 1, 
		 "sigma_profile": "yes", 
		 "theory": "DFT", 
		 "functional": "B3LYP", 
		 "basiset": "6-31G**", 
		 "properties": { 
			 "R2extent": 3958.3893, 
			 "electric_dipole_moment_norm": 4.69799223286, 
			 "electric_quadrupole_moment_norm": 5.73235292964, 
			 "total_energy": -644.594327248, 
			 "HOMO_LUMO_gap": 0.11741, 
			 "cosmo_polarized_energy": -15.05, 
			 "cosmo_cavitation_energy": 25.07, 
			 "cosmo_dispersion_energy": -19.12, 
			 "cosmo_repulsion_energy": 1.47, 
			 "cosmo_total_nonelectrostatic_energy": 7.41, 
			 "SMD_solvation_energy": 4.27 
		},
		"coords": [
			{
				"x": 3.9327148012,
				"y": 0.6714092075,
				"z": 2.746210034,
				"element": "O" 
			},
			{
				"x": 3.7140282465,
				"y": 0.9952465777,
				"z": 1.5875187716,
				"element": "C" 
			},
			{
				"x": 4.6255435944,
				"y": 1.4211818359,
				"z": 0.6378603501,
				"element": "N" 
			},
			{
				"x": 4.0959783567,
				"y": 1.7319718402,
				"z": -0.6258979425,
				"element": "N" 
			},
			{
				"x": 2.8319093303,
				"y": 1.5053068673,
				"z": -0.4912233277,
				"element": "C" 
			},
			{
				"x": 1.9333467562,
				"y": 1.6831173517,
				"z": -1.4971695708,
				"element": "O" 
			},
			{
				"x": 0.616262643,
				"y": 1.406709906,
				"z": -1.2253387116,
				"element": "C" 
			},
			{
				"x": -0.2844656493,
				"y": 1.5967080277,
				"z": -2.2725298266,
				"element": "C" 
			},
			{
				"x": -1.6358857495,
				"y": 1.3354012459,
				"z": -2.0663413279,
				"element": "C" 
			},
			{
				"x": -2.0975281933,
				"y": 0.8851300887,
				"z": -0.8214975166,
				"element": "C" 
			},
			{
				"x": -1.1973985254,
				"y": 0.697392652,
				"z": 0.2181305263,
				"element": "C" 
			},
			{
				"x": 0.1768545494,
				"y": 0.9518968252,
				"z": 0.044919216,
				"element": "C" 
			},
			{
				"x": 1.1473098695,
				"y": 0.7690013457,
				"z": 1.1021373709,
				"element": "C" 
			},
			{
				"x": 2.437710424,
				"y": 1.0449399386,
				"z": 0.8186611681,
				"element": "C" 
			},
			{
				"x": 5.61763612,
				"y": 1.5230282302,
				"z": 0.7805556082,
				"element": "H" 
			},
			{
				"x": 0.0911596964,
				"y": 1.9454753916,
				"z": -3.2282118013,
				"element": "H" 
			},
			{
				"x": -2.3360434445,
				"y": 1.4837947898,
				"z": -2.8827210755,
				"element": "H" 
			},
			{
				"x": -3.1532040939,
				"y": 0.6844268427,
				"z": -0.6715589202,
				"element": "H" 
			},
			{
				"x": -1.540940622,
				"y": 0.3489050653,
				"z": 1.1881416398,
				"element": "H" 
			},
			{
				"x": 0.8343118902,
				"y": 0.4215559703,
				"z": 2.0833553356,
				"element": "H" 
			}
		],
		 "valence_orbital": [ 
			{
				"type": "occ",
				"energy": -0.31653,
				"method": "rhf"
			},
			{
				"type": "occ",
				"energy": -0.27429,
				"method": "rhf"
			},
			{
				"type": "occ",
				"energy": -0.2678,
				"method": "rhf"
			},
			{
				"type": "occ",
				"energy": -0.25132,
				"method": "rhf"
			},
			{
				"type": "occ",
				"energy": -0.20961,
				"method": "rhf"
			},
			{
				"type": "unocc",
				"energy": -0.0922,
				"method": "rhf"
			},
			{
				"type": "unocc",
				"energy": -0.02332,
				"method": "rhf"
			},
			{
				"type": "unocc",
				"energy": -0.00953,
				"method": "rhf"
			},
			{
				"type": "unocc",
				"energy": 0.05195,
				"method": "rhf"
			},
			{
				"type": "unocc",
				"energy": 0.0732,
				"method": "rhf"
			}
		],
		"cosmo_sigma_profile": { 
			"-0.025": 0.0,
			"-0.024": 0.0,
			"-0.023": 0.0,
			"-0.022": 0.0,
			"-0.021": 0.0,
			"-0.02": 0.0,
			"-0.019": 0.0,
			"-0.018": 0.0,
			"-0.017": 0.0318669552016,
			"-0.016": 0.834486515557,
			"-0.015": 1.2230299349,
			"-0.014": 1.01963409665,
			"-0.013": 0.763673670669,
			"-0.012": 0.524555511703,
			"-0.011": 0.803085307894,
			"-0.01": 2.68915640574,
			"-0.009": 3.70700823258,
			"-0.008": 5.55801022127,
			"-0.007": 8.46822123423,
			"-0.006": 11.8546013019,
			"-0.005": 12.5852168176,
			"-0.004": 9.47936349224,
			"-0.003": 12.092338028,
			"-0.002": 14.3380446755,
			"-0.001": 15.5226718327,
			"0.0": 17.101994364,
			"0.001": 14.7842173223,
			"0.002": 13.6369512888,
			"0.003": 11.764830054,
			"0.004": 4.31004788981,
			"0.005": 4.73073229013,
			"0.006": 4.5974224347,
			"0.007": 3.07312067189,
			"0.008": 3.3028362717,
			"0.009": 2.52995268298,
			"0.01": 2.11051981642,
			"0.011": 3.03773175133,
			"0.012": 3.49255994664,
			"0.013": 7.57976773891,
			"0.014": 4.89821941731,
			"0.015": 0.370584221744,
			"0.016": 0.0,
			"0.017": 0.0,
			"0.018": 0.0,
			"0.019": 0.0,
			"0.02": 0.0,
			"0.021": 0.0,
			"0.022": 0.0,
			"0.023": 0.0,
			"0.024": 0.0,
			"0.025": 0.0
		}
	}
}
