{
	 "smiles": "O=CC1=CC=CC=C1N1C=CC=N1", 
	 "Tm": 331.15, 
	 "num_atms": 21, 
	 "gaussian": { 
		 "optdone": 1, 
		 "sigma_profile": "yes", 
		 "theory": "DFT", 
		 "functional": "B3LYP", 
		 "basiset": "6-31G**", 
		 "properties": { 
			 "R2extent": 2615.4904, 
			 "electric_dipole_moment_norm": 2.30541110867, 
			 "electric_quadrupole_moment_norm": 13.7147860413, 
			 "total_energy": -570.57193645, 
			 "HOMO_LUMO_gap": 0.17198, 
			 "cosmo_polarized_energy": -10.23, 
			 "cosmo_cavitation_energy": 25.64, 
			 "cosmo_dispersion_energy": -18.67, 
			 "cosmo_repulsion_energy": 1.45, 
			 "cosmo_total_nonelectrostatic_energy": 8.42, 
			 "SMD_solvation_energy": 5.18 
		},
		"coords": [
			{
				"x": -1.0178709176,
				"y": 1.2935104042,
				"z": -2.6650479299,
				"element": "O" 
			},
			{
				"x": -1.0515593198,
				"y": 0.8860948947,
				"z": -1.5175650226,
				"element": "C" 
			},
			{
				"x": -0.9728319772,
				"y": -0.5541787287,
				"z": -1.1589831237,
				"element": "C" 
			},
			{
				"x": -1.129388867,
				"y": -1.4922685469,
				"z": -2.1945235558,
				"element": "C" 
			},
			{
				"x": -1.2188199543,
				"y": -2.8506509527,
				"z": -1.9242738566,
				"element": "C" 
			},
			{
				"x": -1.1563478827,
				"y": -3.2950985831,
				"z": -0.5978457088,
				"element": "C" 
			},
			{
				"x": -0.9689362979,
				"y": -2.390183833,
				"z": 0.4422963207,
				"element": "C" 
			},
			{
				"x": -0.8569801883,
				"y": -1.0229613402,
				"z": 0.165907965,
				"element": "C" 
			},
			{
				"x": -0.6058192916,
				"y": -0.1412651957,
				"z": 1.2507816658,
				"element": "N" 
			},
			{
				"x": 0.3076112002,
				"y": 0.8792494963,
				"z": 1.321148861,
				"element": "C" 
			},
			{
				"x": 0.2548154762,
				"y": 1.3749301783,
				"z": 2.6045060345,
				"element": "C" 
			},
			{
				"x": -0.718326742,
				"y": 0.5773580471,
				"z": 3.2519603262,
				"element": "C" 
			},
			{
				"x": -1.2312954496,
				"y": -0.343018534,
				"z": 2.4425115392,
				"element": "N" 
			},
			{
				"x": -1.1863341539,
				"y": 1.5901116574,
				"z": -0.6747202019,
				"element": "H" 
			},
			{
				"x": -1.2079052604,
				"y": -1.1077948854,
				"z": -3.2062734003,
				"element": "H" 
			},
			{
				"x": -1.349340774,
				"y": -3.56203791,
				"z": -2.733770925,
				"element": "H" 
			},
			{
				"x": -1.2388877696,
				"y": -4.3545470294,
				"z": -0.373835637,
				"element": "H" 
			},
			{
				"x": -0.8981508214,
				"y": -2.719029423,
				"z": 1.4721657668,
				"element": "H" 
			},
			{
				"x": 0.9326428239,
				"y": 1.1360134842,
				"z": 0.4794508673,
				"element": "H" 
			},
			{
				"x": 0.8386538616,
				"y": 2.1844550013,
				"z": 3.0158248341,
				"element": "H" 
			},
			{
				"x": -1.0668276944,
				"y": 0.6392117983,
				"z": 4.2743851809,
				"element": "H" 
			}
		],
		 "valence_orbital": [ 
			{
				"type": "occ",
				"energy": -0.29634,
				"method": "rhf"
			},
			{
				"type": "occ",
				"energy": -0.27012,
				"method": "rhf"
			},
			{
				"type": "occ",
				"energy": -0.26527,
				"method": "rhf"
			},
			{
				"type": "occ",
				"energy": -0.25407,
				"method": "rhf"
			},
			{
				"type": "occ",
				"energy": -0.2429,
				"method": "rhf"
			},
			{
				"type": "unocc",
				"energy": -0.07092,
				"method": "rhf"
			},
			{
				"type": "unocc",
				"energy": -0.02958,
				"method": "rhf"
			},
			{
				"type": "unocc",
				"energy": 0.01339,
				"method": "rhf"
			},
			{
				"type": "unocc",
				"energy": 0.03054,
				"method": "rhf"
			},
			{
				"type": "unocc",
				"energy": 0.06078,
				"method": "rhf"
			}
		],
		"cosmo_sigma_profile": { 
			"-0.025": 0.0,
			"-0.024": 0.0,
			"-0.023": 0.0,
			"-0.022": 0.0,
			"-0.021": 0.0,
			"-0.02": 0.0,
			"-0.019": 0.0,
			"-0.018": 0.0,
			"-0.017": 0.0,
			"-0.016": 0.0,
			"-0.015": 0.0,
			"-0.014": 0.0,
			"-0.013": 0.0,
			"-0.012": 0.0,
			"-0.011": 0.0203309206933,
			"-0.01": 1.44010141743,
			"-0.009": 2.35613291852,
			"-0.008": 2.79916669054,
			"-0.007": 10.2705222151,
			"-0.006": 15.5358387235,
			"-0.005": 16.2550702474,
			"-0.004": 13.4466969813,
			"-0.003": 13.2782686699,
			"-0.002": 12.2026983166,
			"-0.001": 13.1641476838,
			"0.0": 13.4532412654,
			"0.001": 15.472301978,
			"0.002": 17.5948118853,
			"0.003": 16.3756738035,
			"0.004": 9.81455118468,
			"0.005": 5.42622810843,
			"0.006": 3.33375296322,
			"0.007": 3.41544495256,
			"0.008": 3.41759579627,
			"0.009": 3.25836260242,
			"0.01": 3.85349836359,
			"0.011": 5.22471442275,
			"0.012": 3.08276375032,
			"0.013": 1.60507538022,
			"0.014": 0.655256030034,
			"0.015": 0.314645425508,
			"0.016": 0.0,
			"0.017": 0.0,
			"0.018": 0.0,
			"0.019": 0.0,
			"0.02": 0.0,
			"0.021": 0.0,
			"0.022": 0.0,
			"0.023": 0.0,
			"0.024": 0.0,
			"0.025": 0.0
		}
	}
}
