{
	 "smiles": "COC1=C2C=COC2=NC2=CC=CC=C12", 
	 "Tm": 407.15, 
	 "num_atms": 24, 
	 "gaussian": { 
		 "optdone": 1, 
		 "sigma_profile": "yes", 
		 "theory": "DFT", 
		 "functional": "B3LYP", 
		 "basiset": "6-31G**", 
		 "properties": { 
			 "R2extent": 3258.7749, 
			 "electric_dipole_moment_norm": 4.18756673738, 
			 "electric_quadrupole_moment_norm": 13.8480223678, 
			 "total_energy": -667.881656731, 
			 "HOMO_LUMO_gap": 0.15711, 
			 "cosmo_polarized_energy": -11.11, 
			 "cosmo_cavitation_energy": 27.68, 
			 "cosmo_dispersion_energy": -21.01, 
			 "cosmo_repulsion_energy": 1.58, 
			 "cosmo_total_nonelectrostatic_energy": 8.25, 
			 "SMD_solvation_energy": 4.38 
		},
		"coords": [
			{
				"x": -1.1829698732,
				"y": 3.2353394077,
				"z": 0.1026596608,
				"element": "C" 
			},
			{
				"x": -0.8137273721,
				"y": 2.0517282506,
				"z": 0.7991283871,
				"element": "O" 
			},
			{
				"x": -0.9323043382,
				"y": 0.844813584,
				"z": 0.1972395363,
				"element": "C" 
			},
			{
				"x": -1.3972559733,
				"y": 0.5930762007,
				"z": -1.0908718341,
				"element": "C" 
			},
			{
				"x": -1.8984497657,
				"y": 1.3220306797,
				"z": -2.2419594649,
				"element": "C" 
			},
			{
				"x": -2.170848621,
				"y": 0.3916698703,
				"z": -3.1843427331,
				"element": "C" 
			},
			{
				"x": -1.8985420523,
				"y": -0.8857428731,
				"z": -2.7685891219,
				"element": "O" 
			},
			{
				"x": -1.4222604189,
				"y": -0.7848100255,
				"z": -1.4853723086,
				"element": "C" 
			},
			{
				"x": -1.0755841248,
				"y": -1.8469396608,
				"z": -0.8219664467,
				"element": "N" 
			},
			{
				"x": -0.6202856232,
				"y": -1.594525837,
				"z": 0.4415525609,
				"element": "C" 
			},
			{
				"x": -0.2184399421,
				"y": -2.6968584276,
				"z": 1.2415470781,
				"element": "C" 
			},
			{
				"x": 0.2490379658,
				"y": -2.5075346843,
				"z": 2.521877205,
				"element": "C" 
			},
			{
				"x": 0.3381123764,
				"y": -1.2035609864,
				"z": 3.067219383,
				"element": "C" 
			},
			{
				"x": -0.0424572173,
				"y": -0.1110156251,
				"z": 2.3213340452,
				"element": "C" 
			},
			{
				"x": -0.5293322314,
				"y": -0.2730439275,
				"z": 0.9961701063,
				"element": "C" 
			},
			{
				"x": -0.5743622038,
				"y": 3.3747625508,
				"z": -0.797385921,
				"element": "H" 
			},
			{
				"x": -0.9945910394,
				"y": 4.0572512069,
				"z": 0.7946585944,
				"element": "H" 
			},
			{
				"x": -2.2451065858,
				"y": 3.2256039563,
				"z": -0.1650848987,
				"element": "H" 
			},
			{
				"x": -2.0394754414,
				"y": 2.3840173253,
				"z": -2.3610523444,
				"element": "H" 
			},
			{
				"x": -2.5582545009,
				"y": 0.4760028474,
				"z": -4.1884823722,
				"element": "H" 
			},
			{
				"x": -0.2965115115,
				"y": -3.6850780791,
				"z": 0.8004524809,
				"element": "H" 
			},
			{
				"x": 0.5522705927,
				"y": -3.3620356542,
				"z": 3.1201973071,
				"element": "H" 
			},
			{
				"x": 0.7086431035,
				"y": -1.0664999786,
				"z": 4.0788242307,
				"element": "H" 
			},
			{
				"x": 0.022994798,
				"y": 0.8897498794,
				"z": 2.7323468695,
				"element": "H" 
			}
		],
		 "valence_orbital": [ 
			{
				"type": "occ",
				"energy": -0.29836,
				"method": "rhf"
			},
			{
				"type": "occ",
				"energy": -0.26406,
				"method": "rhf"
			},
			{
				"type": "occ",
				"energy": -0.25806,
				"method": "rhf"
			},
			{
				"type": "occ",
				"energy": -0.23559,
				"method": "rhf"
			},
			{
				"type": "occ",
				"energy": -0.2032,
				"method": "rhf"
			},
			{
				"type": "unocc",
				"energy": -0.04609,
				"method": "rhf"
			},
			{
				"type": "unocc",
				"energy": -0.00309,
				"method": "rhf"
			},
			{
				"type": "unocc",
				"energy": 0.02479,
				"method": "rhf"
			},
			{
				"type": "unocc",
				"energy": 0.0415,
				"method": "rhf"
			},
			{
				"type": "unocc",
				"energy": 0.08914,
				"method": "rhf"
			}
		],
		"cosmo_sigma_profile": { 
			"-0.025": 0.0,
			"-0.024": 0.0,
			"-0.023": 0.0,
			"-0.022": 0.0,
			"-0.021": 0.0,
			"-0.02": 0.0,
			"-0.019": 0.0,
			"-0.018": 0.0,
			"-0.017": 0.0,
			"-0.016": 0.0,
			"-0.015": 0.0,
			"-0.014": 0.0,
			"-0.013": 0.0,
			"-0.012": 0.0,
			"-0.011": 0.0,
			"-0.01": 0.725674167504,
			"-0.009": 2.28614178466,
			"-0.008": 3.77931234051,
			"-0.007": 6.87760364541,
			"-0.006": 14.273252507,
			"-0.005": 17.4043243261,
			"-0.004": 19.3594422559,
			"-0.003": 13.8457302385,
			"-0.002": 10.6803095618,
			"-0.001": 11.5920563956,
			"0.0": 17.0760021128,
			"0.001": 17.6328638731,
			"0.002": 18.7613803932,
			"0.003": 18.3196981079,
			"0.004": 18.0648796719,
			"0.005": 11.4199083474,
			"0.006": 4.16112555116,
			"0.007": 3.50912678078,
			"0.008": 2.53424936643,
			"0.009": 3.58824774795,
			"0.01": 1.62923848628,
			"0.011": 1.47653838323,
			"0.012": 1.00429216556,
			"0.013": 0.751813763371,
			"0.014": 1.08031498586,
			"0.015": 0.889509466839,
			"0.016": 0.315705431248,
			"0.017": 0.0,
			"0.018": 0.0,
			"0.019": 0.0,
			"0.02": 0.0,
			"0.021": 0.0,
			"0.022": 0.0,
			"0.023": 0.0,
			"0.024": 0.0,
			"0.025": 0.0
		}
	}
}
