{
	 "smiles": "CC(C(O)=O)C1=C(C)ON=C1C", 
	 "Tm": 375.15, 
	 "num_atms": 23, 
	 "gaussian": { 
		 "optdone": 1, 
		 "sigma_profile": "yes", 
		 "theory": "DFT", 
		 "functional": "B3LYP", 
		 "basiset": "6-31G**", 
		 "properties": { 
			 "R2extent": 2177.7804, 
			 "electric_dipole_moment_norm": 3.46207175258, 
			 "electric_quadrupole_moment_norm": 12.9033916894, 
			 "total_energy": -591.883674922, 
			 "HOMO_LUMO_gap": 0.23401, 
			 "cosmo_polarized_energy": -13.3, 
			 "cosmo_cavitation_energy": 26.69, 
			 "cosmo_dispersion_energy": -18.69, 
			 "cosmo_repulsion_energy": 1.51, 
			 "cosmo_total_nonelectrostatic_energy": 9.51, 
			 "SMD_solvation_energy": 5.98 
		},
		"coords": [
			{
				"x": 1.199566738,
				"y": -0.8400743506,
				"z": 1.7481744724,
				"element": "C" 
			},
			{
				"x": -0.1655882946,
				"y": -0.9128285378,
				"z": 1.041278269,
				"element": "C" 
			},
			{
				"x": -1.0849426121,
				"y": 0.2542421585,
				"z": 1.3932416029,
				"element": "C" 
			},
			{
				"x": -0.4485807016,
				"y": 1.4531604534,
				"z": 1.3441867505,
				"element": "O" 
			},
			{
				"x": -2.2616247428,
				"y": 0.157006497,
				"z": 1.6596178367,
				"element": "O" 
			},
			{
				"x": -0.0807139546,
				"y": -1.0364213622,
				"z": -0.4650487187,
				"element": "C" 
			},
			{
				"x": 0.6671514864,
				"y": -0.338256431,
				"z": -1.3764354507,
				"element": "C" 
			},
			{
				"x": 1.6623784502,
				"y": 0.7707935282,
				"z": -1.2907954988,
				"element": "C" 
			},
			{
				"x": 0.3997896142,
				"y": -0.793938531,
				"z": -2.6185463923,
				"element": "O" 
			},
			{
				"x": -0.558190001,
				"y": -1.8130055085,
				"z": -2.5516681724,
				"element": "N" 
			},
			{
				"x": -0.8389974935,
				"y": -1.9449502719,
				"z": -1.2756842125,
				"element": "C" 
			},
			{
				"x": -1.8574640642,
				"y": -2.9472813085,
				"z": -0.8278883082,
				"element": "C" 
			},
			{
				"x": 1.7940090388,
				"y": -1.7219215894,
				"z": 1.4936105044,
				"element": "H" 
			},
			{
				"x": 1.7605044901,
				"y": 0.0499910586,
				"z": 1.4581050528,
				"element": "H" 
			},
			{
				"x": 1.071122572,
				"y": -0.8156427671,
				"z": 2.8347504357,
				"element": "H" 
			},
			{
				"x": -0.7015715988,
				"y": -1.7921263351,
				"z": 1.4093051171,
				"element": "H" 
			},
			{
				"x": -1.1247527978,
				"y": 2.1245045937,
				"z": 1.5377684251,
				"element": "H" 
			},
			{
				"x": 1.7025923732,
				"y": 1.302116958,
				"z": -2.2448098271,
				"element": "H" 
			},
			{
				"x": 2.667990744,
				"y": 0.3917456617,
				"z": -1.0751521962,
				"element": "H" 
			},
			{
				"x": 1.3834645105,
				"y": 1.4740961196,
				"z": -0.5034273634,
				"element": "H" 
			},
			{
				"x": -2.2963667535,
				"y": -3.4434328153,
				"z": -1.6955800793,
				"element": "H" 
			},
			{
				"x": -2.654089551,
				"y": -2.4604968122,
				"z": -0.2559412385,
				"element": "H" 
			},
			{
				"x": -1.4062874519,
				"y": -3.7107804081,
				"z": -0.1840610086,
				"element": "H" 
			}
		],
		 "valence_orbital": [ 
			{
				"type": "occ",
				"energy": -0.32745,
				"method": "rhf"
			},
			{
				"type": "occ",
				"energy": -0.29466,
				"method": "rhf"
			},
			{
				"type": "occ",
				"energy": -0.28997,
				"method": "rhf"
			},
			{
				"type": "occ",
				"energy": -0.27382,
				"method": "rhf"
			},
			{
				"type": "occ",
				"energy": -0.24431,
				"method": "rhf"
			},
			{
				"type": "unocc",
				"energy": -0.0103,
				"method": "rhf"
			},
			{
				"type": "unocc",
				"energy": 0.00498,
				"method": "rhf"
			},
			{
				"type": "unocc",
				"energy": 0.05922,
				"method": "rhf"
			},
			{
				"type": "unocc",
				"energy": 0.0631,
				"method": "rhf"
			},
			{
				"type": "unocc",
				"energy": 0.09419,
				"method": "rhf"
			}
		],
		"cosmo_sigma_profile": { 
			"-0.025": 0.0,
			"-0.024": 0.0,
			"-0.023": 0.0,
			"-0.022": 0.0,
			"-0.021": 0.0,
			"-0.02": 0.0,
			"-0.019": 0.0279830277177,
			"-0.018": 0.77128137907,
			"-0.017": 0.905762836528,
			"-0.016": 0.941201707266,
			"-0.015": 0.927810043161,
			"-0.014": 0.539790957638,
			"-0.013": 0.947911646861,
			"-0.012": 0.440510905324,
			"-0.011": 0.506645290221,
			"-0.01": 1.11229945982,
			"-0.009": 0.454195297261,
			"-0.008": 0.303575516229,
			"-0.007": 1.24781019828,
			"-0.006": 7.02058863936,
			"-0.005": 14.2201287804,
			"-0.004": 19.6108848385,
			"-0.003": 21.294958638,
			"-0.002": 24.7432641777,
			"-0.001": 24.3398134218,
			"0.0": 17.954148321,
			"0.001": 10.7487462864,
			"0.002": 8.49019836535,
			"0.003": 6.27171645031,
			"0.004": 4.24800554832,
			"0.005": 4.02977469509,
			"0.006": 4.75833077916,
			"0.007": 3.81175455373,
			"0.008": 6.12077617556,
			"0.009": 5.41272258269,
			"0.01": 3.93983423031,
			"0.011": 5.49314227931,
			"0.012": 4.98602822564,
			"0.013": 1.30529700172,
			"0.014": 1.39536590207,
			"0.015": 0.859603538761,
			"0.016": 0.00408288235671,
			"0.017": 0.0,
			"0.018": 0.0,
			"0.019": 0.0,
			"0.02": 0.0,
			"0.021": 0.0,
			"0.022": 0.0,
			"0.023": 0.0,
			"0.024": 0.0,
			"0.025": 0.0
		}
	}
}
