{
	 "smiles": "CC(=O)OC1=CC(=CC=C1)C(N)=O", 
	 "Tm": 413.15, 
	 "num_atms": 22, 
	 "gaussian": { 
		 "optdone": 1, 
		 "sigma_profile": "yes", 
		 "theory": "DFT", 
		 "functional": "B3LYP", 
		 "basiset": "6-31G**", 
		 "properties": { 
			 "R2extent": 3107.4827, 
			 "electric_dipole_moment_norm": 1.87973176278, 
			 "electric_quadrupole_moment_norm": 28.0724271236, 
			 "total_energy": -628.832944457, 
			 "HOMO_LUMO_gap": 0.20893, 
			 "cosmo_polarized_energy": -16.28, 
			 "cosmo_cavitation_energy": 27.24, 
			 "cosmo_dispersion_energy": -19.89, 
			 "cosmo_repulsion_energy": 1.6, 
			 "cosmo_total_nonelectrostatic_energy": 8.95, 
			 "SMD_solvation_energy": 6.83 
		},
		"coords": [
			{
				"x": 3.714077018,
				"y": 1.8010347537,
				"z": 1.0407577257,
				"element": "C" 
			},
			{
				"x": 2.307119162,
				"y": 1.9050906059,
				"z": 0.5077814965,
				"element": "C" 
			},
			{
				"x": 1.6012120317,
				"y": 2.8820893676,
				"z": 0.5513048868,
				"element": "O" 
			},
			{
				"x": 1.9367921111,
				"y": 0.7031352504,
				"z": -0.039947401,
				"element": "O" 
			},
			{
				"x": 0.6682230826,
				"y": 0.5124965045,
				"z": -0.58641651,
				"element": "C" 
			},
			{
				"x": 0.0725652342,
				"y": -0.7134670106,
				"z": -0.3118331874,
				"element": "C" 
			},
			{
				"x": -1.1733613032,
				"y": -1.023190684,
				"z": -0.866624322,
				"element": "C" 
			},
			{
				"x": -1.7998081459,
				"y": -0.0990962965,
				"z": -1.7140480844,
				"element": "C" 
			},
			{
				"x": -1.1848944335,
				"y": 1.1225841999,
				"z": -1.987239267,
				"element": "C" 
			},
			{
				"x": 0.051235778,
				"y": 1.4437615219,
				"z": -1.4254710726,
				"element": "C" 
			},
			{
				"x": -1.7566890376,
				"y": -2.3660465851,
				"z": -0.5228513675,
				"element": "C" 
			},
			{
				"x": -3.1014396523,
				"y": -2.5227177155,
				"z": -0.7614272124,
				"element": "N" 
			},
			{
				"x": -1.0698364508,
				"y": -3.2754298059,
				"z": -0.0745310506,
				"element": "O" 
			},
			{
				"x": 4.0167794377,
				"y": 2.763582346,
				"z": 1.4512428816,
				"element": "H" 
			},
			{
				"x": 3.7633662216,
				"y": 1.0311370523,
				"z": 1.8164552274,
				"element": "H" 
			},
			{
				"x": 4.397054129,
				"y": 1.5004868112,
				"z": 0.2409287532,
				"element": "H" 
			},
			{
				"x": 0.5676648052,
				"y": -1.4382186571,
				"z": 0.3240571228,
				"element": "H" 
			},
			{
				"x": -2.7437170228,
				"y": -0.340606587,
				"z": -2.1927485797,
				"element": "H" 
			},
			{
				"x": -1.6663640827,
				"y": 1.8333436394,
				"z": -2.6520679634,
				"element": "H" 
			},
			{
				"x": 0.5233750567,
				"y": 2.3950613062,
				"z": -1.6304085919,
				"element": "H" 
			},
			{
				"x": -3.7092869326,
				"y": -1.7196555189,
				"z": -0.8012573594,
				"element": "H" 
			},
			{
				"x": -3.5024670062,
				"y": -3.3823744983,
				"z": -0.4148561245,
				"element": "H" 
			}
		],
		 "valence_orbital": [ 
			{
				"type": "occ",
				"energy": -0.28287,
				"method": "rhf"
			},
			{
				"type": "occ",
				"energy": -0.27474,
				"method": "rhf"
			},
			{
				"type": "occ",
				"energy": -0.26274,
				"method": "rhf"
			},
			{
				"type": "occ",
				"energy": -0.25049,
				"method": "rhf"
			},
			{
				"type": "occ",
				"energy": -0.24956,
				"method": "rhf"
			},
			{
				"type": "unocc",
				"energy": -0.04063,
				"method": "rhf"
			},
			{
				"type": "unocc",
				"energy": -0.01737,
				"method": "rhf"
			},
			{
				"type": "unocc",
				"energy": 0.00828,
				"method": "rhf"
			},
			{
				"type": "unocc",
				"energy": 0.05873,
				"method": "rhf"
			},
			{
				"type": "unocc",
				"energy": 0.0758,
				"method": "rhf"
			}
		],
		"cosmo_sigma_profile": { 
			"-0.025": 0.0,
			"-0.024": 0.0,
			"-0.023": 0.0,
			"-0.022": 0.0,
			"-0.021": 0.0,
			"-0.02": 0.0,
			"-0.019": 0.0,
			"-0.018": 0.0,
			"-0.017": 0.0,
			"-0.016": 0.0,
			"-0.015": 0.115614911931,
			"-0.014": 1.55887786681,
			"-0.013": 2.32750218732,
			"-0.012": 3.21905423754,
			"-0.011": 1.91663550373,
			"-0.01": 2.67602756411,
			"-0.009": 2.42724532788,
			"-0.008": 2.42781609448,
			"-0.007": 7.35178189615,
			"-0.006": 13.9776825372,
			"-0.005": 14.9686772933,
			"-0.004": 13.4618448153,
			"-0.003": 14.8449347963,
			"-0.002": 15.9996877456,
			"-0.001": 12.1699870768,
			"0.0": 11.7620936495,
			"0.001": 13.2257995992,
			"0.002": 14.9287712603,
			"0.003": 15.293412537,
			"0.004": 8.73036097426,
			"0.005": 5.82901134763,
			"0.006": 4.75253223362,
			"0.007": 3.69023766878,
			"0.008": 4.16574741445,
			"0.009": 3.64197021615,
			"0.01": 4.05014135549,
			"0.011": 5.72538964143,
			"0.012": 4.07460071411,
			"0.013": 4.60482292573,
			"0.014": 3.15174269976,
			"0.015": 0.163024075224,
			"0.016": 0.0,
			"0.017": 0.0,
			"0.018": 0.0,
			"0.019": 0.0,
			"0.02": 0.0,
			"0.021": 0.0,
			"0.022": 0.0,
			"0.023": 0.0,
			"0.024": 0.0,
			"0.025": 0.0
		}
	}
}
