{
	 "smiles": "CC(O)CNC1=NC=NC(Cl)=C1", 
	 "Tm": 375.15, 
	 "num_atms": 22, 
	 "gaussian": { 
		 "optdone": 1, 
		 "sigma_profile": "yes", 
		 "theory": "DFT", 
		 "functional": "B3LYP", 
		 "basiset": "6-31G**", 
		 "properties": { 
			 "R2extent": 4645.865, 
			 "electric_dipole_moment_norm": 5.77009885011, 
			 "electric_quadrupole_moment_norm": 14.2045161072, 
			 "total_energy": -972.443475851, 
			 "HOMO_LUMO_gap": 0.20573, 
			 "cosmo_polarized_energy": -15.63, 
			 "cosmo_cavitation_energy": 27.43, 
			 "cosmo_dispersion_energy": -20.01, 
			 "cosmo_repulsion_energy": 1.62, 
			 "cosmo_total_nonelectrostatic_energy": 9.04, 
			 "SMD_solvation_energy": 1.6 
		},
		"coords": [
			{
				"x": 2.2544539715,
				"y": 2.388679566,
				"z": 2.6585870357,
				"element": "C" 
			},
			{
				"x": 0.9658092157,
				"y": 2.0366638566,
				"z": 1.9274039851,
				"element": "C" 
			},
			{
				"x": 0.9453037262,
				"y": 0.6158374263,
				"z": 1.7730551907,
				"element": "O" 
			},
			{
				"x": 0.8264397425,
				"y": 2.7623585374,
				"z": 0.5708592608,
				"element": "C" 
			},
			{
				"x": 1.9912127505,
				"y": 2.718313969,
				"z": -0.2978681294,
				"element": "N" 
			},
			{
				"x": 2.2391412418,
				"y": 1.8143656381,
				"z": -1.2891379785,
				"element": "C" 
			},
			{
				"x": 3.1902838723,
				"y": 2.1822954758,
				"z": -2.1784091917,
				"element": "N" 
			},
			{
				"x": 3.4356262898,
				"y": 1.3323920322,
				"z": -3.168343655,
				"element": "C" 
			},
			{
				"x": 2.8408586292,
				"y": 0.1549574832,
				"z": -3.4054053852,
				"element": "N" 
			},
			{
				"x": 1.9267020009,
				"y": -0.1843071018,
				"z": -2.5057121997,
				"element": "C" 
			},
			{
				"x": 1.126863541,
				"y": -1.7355876509,
				"z": -2.7442214308,
				"element": "Cl" 
			},
			{
				"x": 1.5707095399,
				"y": 0.5785864104,
				"z": -1.4060764763,
				"element": "C" 
			},
			{
				"x": 2.3296964419,
				"y": 3.4689847334,
				"z": 2.8213197516,
				"element": "H" 
			},
			{
				"x": 3.1184636976,
				"y": 2.0632231593,
				"z": 2.073408563,
				"element": "H" 
			},
			{
				"x": 2.2829721394,
				"y": 1.8865506931,
				"z": 3.6284553529,
				"element": "H" 
			},
			{
				"x": 0.106183192,
				"y": 2.3578151331,
				"z": 2.5383811953,
				"element": "H" 
			},
			{
				"x": 0.0286215445,
				"y": 0.3345326491,
				"z": 1.6594735196,
				"element": "H" 
			},
			{
				"x": -0.0446383373,
				"y": 2.3577072801,
				"z": 0.0381733634,
				"element": "H" 
			},
			{
				"x": 0.6092504371,
				"y": 3.8183580287,
				"z": 0.7690118581,
				"element": "H" 
			},
			{
				"x": 2.5479427969,
				"y": 3.5561827735,
				"z": -0.3893773058,
				"element": "H" 
			},
			{
				"x": 4.2064767099,
				"y": 1.6276654557,
				"z": -3.8778359626,
				"element": "H" 
			},
			{
				"x": 0.8804268566,
				"y": 0.2261244515,
				"z": -0.655241361,
				"element": "H" 
			}
		],
		 "valence_orbital": [ 
			{
				"type": "occ",
				"energy": -0.30261,
				"method": "rhf"
			},
			{
				"type": "occ",
				"energy": -0.28977,
				"method": "rhf"
			},
			{
				"type": "occ",
				"energy": -0.27354,
				"method": "rhf"
			},
			{
				"type": "occ",
				"energy": -0.2608,
				"method": "rhf"
			},
			{
				"type": "occ",
				"energy": -0.23279,
				"method": "rhf"
			},
			{
				"type": "unocc",
				"energy": -0.02706,
				"method": "rhf"
			},
			{
				"type": "unocc",
				"energy": -0.012,
				"method": "rhf"
			},
			{
				"type": "unocc",
				"energy": 0.03683,
				"method": "rhf"
			},
			{
				"type": "unocc",
				"energy": 0.04821,
				"method": "rhf"
			},
			{
				"type": "unocc",
				"energy": 0.07707,
				"method": "rhf"
			}
		],
		"cosmo_sigma_profile": { 
			"-0.025": 0.0,
			"-0.024": 0.0,
			"-0.023": 0.0,
			"-0.022": 0.0,
			"-0.021": 0.0,
			"-0.02": 0.0,
			"-0.019": 0.0,
			"-0.018": 0.0,
			"-0.017": 0.0,
			"-0.016": 0.367164814703,
			"-0.015": 0.987110225939,
			"-0.014": 1.74328709035,
			"-0.013": 1.72667583639,
			"-0.012": 2.40387794754,
			"-0.011": 2.7786624896,
			"-0.01": 1.84938518874,
			"-0.009": 2.67464417036,
			"-0.008": 3.57618863293,
			"-0.007": 6.5635054726,
			"-0.006": 7.89104646601,
			"-0.005": 10.3727578376,
			"-0.004": 13.4528737652,
			"-0.003": 12.7076074426,
			"-0.002": 14.1500981854,
			"-0.001": 17.1940941734,
			"0.0": 22.4677422734,
			"0.001": 17.8186222445,
			"0.002": 13.0575497714,
			"0.003": 12.0657278359,
			"0.004": 13.0762925855,
			"0.005": 7.76194371992,
			"0.006": 5.39865831668,
			"0.007": 4.79571298151,
			"0.008": 3.41954902775,
			"0.009": 3.29175739808,
			"0.01": 3.46940012769,
			"0.011": 2.91046307163,
			"0.012": 2.86257681544,
			"0.013": 2.83620885588,
			"0.014": 2.78017110516,
			"0.015": 0.574726399944,
			"0.016": 0.0468297692844,
			"0.017": 0.0,
			"0.018": 0.0,
			"0.019": 0.0,
			"0.02": 0.0,
			"0.021": 0.0,
			"0.022": 0.0,
			"0.023": 0.0,
			"0.024": 0.0,
			"0.025": 0.0
		}
	}
}
