{
	 "smiles": "OC(=O)C1=C(SC2CCCC2)C=CC(=C1)C(F)(F)F", 
	 "Tm": 448.15, 
	 "num_atms": 32, 
	 "gaussian": { 
		 "optdone": 1, 
		 "sigma_profile": "yes", 
		 "theory": "DFT", 
		 "functional": "B3LYP", 
		 "basiset": "6-31G**", 
		 "properties": { 
			 "R2extent": 7337.6698, 
			 "electric_dipole_moment_norm": 5.93026839949, 
			 "electric_quadrupole_moment_norm": 9.94062277174, 
			 "total_energy": -1351.39784785, 
			 "HOMO_LUMO_gap": 0.18981, 
			 "cosmo_polarized_energy": -11.62, 
			 "cosmo_cavitation_energy": 36.81, 
			 "cosmo_dispersion_energy": -26.13, 
			 "cosmo_repulsion_energy": 1.92, 
			 "cosmo_total_nonelectrostatic_energy": 12.6, 
			 "SMD_solvation_energy": 7.31 
		},
		"coords": [
			{
				"x": 2.4693390719,
				"y": 2.012295829,
				"z": 1.7144651249,
				"element": "O" 
			},
			{
				"x": 2.461613775,
				"y": 1.8194570847,
				"z": 0.3891424631,
				"element": "C" 
			},
			{
				"x": 2.6129272739,
				"y": 2.7528845127,
				"z": -0.3688698848,
				"element": "O" 
			},
			{
				"x": 2.2787814187,
				"y": 0.4066706775,
				"z": -0.1529733768,
				"element": "C" 
			},
			{
				"x": 1.9205516008,
				"y": -0.7599507529,
				"z": 0.562752395,
				"element": "C" 
			},
			{
				"x": 1.6464075438,
				"y": -0.8068836655,
				"z": 2.3456249604,
				"element": "S" 
			},
			{
				"x": -0.1701673414,
				"y": -0.4597237659,
				"z": 2.533731886,
				"element": "C" 
			},
			{
				"x": -0.7002283765,
				"y": 0.8529612131,
				"z": 1.9412697759,
				"element": "C" 
			},
			{
				"x": -2.2297574807,
				"y": 0.6923195041,
				"z": 2.0702389903,
				"element": "C" 
			},
			{
				"x": -2.5061775767,
				"y": -0.8411273978,
				"z": 1.9738813754,
				"element": "C" 
			},
			{
				"x": -1.1158957287,
				"y": -1.5288069428,
				"z": 1.9644010598,
				"element": "C" 
			},
			{
				"x": 1.8177624516,
				"y": -1.9835907887,
				"z": -0.1174559335,
				"element": "C" 
			},
			{
				"x": 2.0457085013,
				"y": -2.0701711698,
				"z": -1.4866633145,
				"element": "C" 
			},
			{
				"x": 2.3859854943,
				"y": -0.9174613689,
				"z": -2.1972451709,
				"element": "C" 
			},
			{
				"x": 2.4986969484,
				"y": 0.2999467005,
				"z": -1.5345698638,
				"element": "C" 
			},
			{
				"x": 2.6884975103,
				"y": -1.0068090515,
				"z": -3.6716567332,
				"element": "C" 
			},
			{
				"x": 1.9502612253,
				"y": -1.9691403689,
				"z": -4.2689448215,
				"element": "F" 
			},
			{
				"x": 2.4410311947,
				"y": 0.1548789743,
				"z": -4.3078418475,
				"element": "F" 
			},
			{
				"x": 3.9866773405,
				"y": -1.3144525015,
				"z": -3.8885911027,
				"element": "F" 
			},
			{
				"x": 2.3275059959,
				"y": 1.1635873682,
				"z": 2.1943549266,
				"element": "H" 
			},
			{
				"x": -0.2571935236,
				"y": -0.4309402315,
				"z": 3.6274053626,
				"element": "H" 
			},
			{
				"x": -0.3081033379,
				"y": 1.7414736455,
				"z": 2.4417701674,
				"element": "H" 
			},
			{
				"x": -0.4166489622,
				"y": 0.9156446253,
				"z": 0.884267488,
				"element": "H" 
			},
			{
				"x": -2.5633490807,
				"y": 1.075205363,
				"z": 3.0404624892,
				"element": "H" 
			},
			{
				"x": -2.7630407585,
				"y": 1.2627859279,
				"z": 1.3049653596,
				"element": "H" 
			},
			{
				"x": -3.1005797114,
				"y": -1.1782031621,
				"z": 2.8284365988,
				"element": "H" 
			},
			{
				"x": -3.0747353744,
				"y": -1.0971750103,
				"z": 1.0754507,
				"element": "H" 
			},
			{
				"x": -1.0872575474,
				"y": -2.4606118792,
				"z": 2.5358766758,
				"element": "H" 
			},
			{
				"x": -0.8175152151,
				"y": -1.763083376,
				"z": 0.9367287529,
				"element": "H" 
			},
			{
				"x": 1.5616030254,
				"y": -2.874083435,
				"z": 0.4460885861,
				"element": "H" 
			},
			{
				"x": 1.9555250323,
				"y": -3.0222469482,
				"z": -1.9984121522,
				"element": "H" 
			},
			{
				"x": 2.7537746112,
				"y": 1.2056503911,
				"z": -2.0715909363,
				"element": "H" 
			}
		],
		 "valence_orbital": [ 
			{
				"type": "occ",
				"energy": -0.31312,
				"method": "rhf"
			},
			{
				"type": "occ",
				"energy": -0.28468,
				"method": "rhf"
			},
			{
				"type": "occ",
				"energy": -0.28401,
				"method": "rhf"
			},
			{
				"type": "occ",
				"energy": -0.27533,
				"method": "rhf"
			},
			{
				"type": "occ",
				"energy": -0.26245,
				"method": "rhf"
			},
			{
				"type": "unocc",
				"energy": -0.07264,
				"method": "rhf"
			},
			{
				"type": "unocc",
				"energy": -0.04791,
				"method": "rhf"
			},
			{
				"type": "unocc",
				"energy": 0.02182,
				"method": "rhf"
			},
			{
				"type": "unocc",
				"energy": 0.03588,
				"method": "rhf"
			},
			{
				"type": "unocc",
				"energy": 0.03713,
				"method": "rhf"
			}
		],
		"cosmo_sigma_profile": { 
			"-0.025": 0.0,
			"-0.024": 0.0,
			"-0.023": 0.0,
			"-0.022": 0.0,
			"-0.021": 0.0,
			"-0.02": 0.0,
			"-0.019": 0.0,
			"-0.018": 0.0,
			"-0.017": 0.0,
			"-0.016": 0.0,
			"-0.015": 0.0,
			"-0.014": 0.0,
			"-0.013": 0.0,
			"-0.012": 0.0,
			"-0.011": 0.0,
			"-0.01": 0.0404142132901,
			"-0.009": 0.571731818371,
			"-0.008": 3.00922268213,
			"-0.007": 6.17351195153,
			"-0.006": 9.12791101811,
			"-0.005": 10.1510854346,
			"-0.004": 15.7448479839,
			"-0.003": 32.8699253581,
			"-0.002": 36.6211264995,
			"-0.001": 33.7145008623,
			"0.0": 35.1424687602,
			"0.001": 24.8873724986,
			"0.002": 26.8601135193,
			"0.003": 24.3476652192,
			"0.004": 3.7600783494,
			"0.005": 3.39736387405,
			"0.006": 3.09911704104,
			"0.007": 3.41157961828,
			"0.008": 2.59888315112,
			"0.009": 2.94285566544,
			"0.01": 4.07850937821,
			"0.011": 5.76764417766,
			"0.012": 3.71875503186,
			"0.013": 1.61643048796,
			"0.014": 0.0790318599056,
			"0.015": 0.0,
			"0.016": 0.0,
			"0.017": 0.0,
			"0.018": 0.0,
			"0.019": 0.0,
			"0.02": 0.0,
			"0.021": 0.0,
			"0.022": 0.0,
			"0.023": 0.0,
			"0.024": 0.0,
			"0.025": 0.0
		}
	}
}
