{
	 "smiles": "CC1=CC=C(C=C1)S(=O)(=O)C(C#N)C1=C(Cl)N=C2C=CC=CC2=N1", 
	 "Tm": 379.15, 
	 "num_atms": 36, 
	 "gaussian": { 
		 "optdone": 1, 
		 "sigma_profile": "yes", 
		 "theory": "DFT", 
		 "functional": "B3LYP", 
		 "basiset": "6-31G**", 
		 "properties": { 
			 "R2extent": 11962.1703, 
			 "electric_dipole_moment_norm": 5.92007397589, 
			 "electric_quadrupole_moment_norm": 43.4910510708, 
			 "total_energy": -1828.03088595, 
			 "HOMO_LUMO_gap": 0.16604, 
			 "cosmo_polarized_energy": -20.0, 
			 "cosmo_cavitation_energy": 45.07, 
			 "cosmo_dispersion_energy": -31.16, 
			 "cosmo_repulsion_energy": 2.31, 
			 "cosmo_total_nonelectrostatic_energy": 16.22, 
			 "SMD_solvation_energy": 4.78 
		},
		"coords": [
			{
				"x": 1.6523601943,
				"y": -1.2086600789,
				"z": 5.3309694798,
				"element": "C" 
			},
			{
				"x": 1.7668924924,
				"y": -0.8856247327,
				"z": 3.8613118328,
				"element": "C" 
			},
			{
				"x": 1.5395937123,
				"y": -1.8727055695,
				"z": 2.8901365244,
				"element": "C" 
			},
			{
				"x": 1.6137896543,
				"y": -1.5766251417,
				"z": 1.531199888,
				"element": "C" 
			},
			{
				"x": 1.9235370026,
				"y": -0.2711880228,
				"z": 1.142826361,
				"element": "C" 
			},
			{
				"x": 2.1666186944,
				"y": 0.7318434016,
				"z": 2.0842073226,
				"element": "C" 
			},
			{
				"x": 2.0855034463,
				"y": 0.413401239,
				"z": 3.4376782362,
				"element": "C" 
			},
			{
				"x": 2.0245275483,
				"y": 0.1205123381,
				"z": -0.601013252,
				"element": "S" 
			},
			{
				"x": 2.887001771,
				"y": 1.2929682247,
				"z": -0.7717930094,
				"element": "O" 
			},
			{
				"x": 2.2414668107,
				"y": -1.1194406539,
				"z": -1.3567124036,
				"element": "O" 
			},
			{
				"x": 0.2245898366,
				"y": 0.6070111938,
				"z": -1.004592131,
				"element": "C" 
			},
			{
				"x": -0.143155895,
				"y": 1.841171025,
				"z": -0.3259010908,
				"element": "C" 
			},
			{
				"x": -0.4494285131,
				"y": 2.7841266773,
				"z": 0.2782468172,
				"element": "N" 
			},
			{
				"x": -0.0496364079,
				"y": 0.51942627,
				"z": -2.4935815927,
				"element": "C" 
			},
			{
				"x": 0.30693976,
				"y": 1.5063382888,
				"z": -3.4779548339,
				"element": "C" 
			},
			{
				"x": 1.0928602101,
				"y": 2.993064859,
				"z": -3.0016963011,
				"element": "Cl" 
			},
			{
				"x": 0.0569826462,
				"y": 1.3543486765,
				"z": -4.7457015836,
				"element": "N" 
			},
			{
				"x": -0.5577478894,
				"y": 0.2052694702,
				"z": -5.1422170788,
				"element": "C" 
			},
			{
				"x": -0.8442750174,
				"y": -0.0100406241,
				"z": -6.512159893,
				"element": "C" 
			},
			{
				"x": -1.4709084998,
				"y": -1.1750531949,
				"z": -6.8985613221,
				"element": "C" 
			},
			{
				"x": -1.8331650133,
				"y": -2.1596500377,
				"z": -5.9432551629,
				"element": "C" 
			},
			{
				"x": -1.5661389319,
				"y": -1.9729833725,
				"z": -4.6049930188,
				"element": "C" 
			},
			{
				"x": -0.9209484692,
				"y": -0.7846867658,
				"z": -4.1803892519,
				"element": "C" 
			},
			{
				"x": -0.6539050494,
				"y": -0.5904999005,
				"z": -2.8616183933,
				"element": "N" 
			},
			{
				"x": 1.8537202845,
				"y": -2.2655466326,
				"z": 5.5262841656,
				"element": "H" 
			},
			{
				"x": 0.6411058294,
				"y": -0.9939279466,
				"z": 5.6980491344,
				"element": "H" 
			},
			{
				"x": 2.3477197213,
				"y": -0.6109474745,
				"z": 5.9271690113,
				"element": "H" 
			},
			{
				"x": 1.3099444304,
				"y": -2.8877099779,
				"z": 3.2026438085,
				"element": "H" 
			},
			{
				"x": 1.459426966,
				"y": -2.344249322,
				"z": 0.7802079645,
				"element": "H" 
			},
			{
				"x": 2.4259382007,
				"y": 1.7326917455,
				"z": 1.7578523806,
				"element": "H" 
			},
			{
				"x": 2.277262684,
				"y": 1.1857295394,
				"z": 4.1773420692,
				"element": "H" 
			},
			{
				"x": -0.3412216139,
				"y": -0.2171750949,
				"z": -0.5604533026,
				"element": "H" 
			},
			{
				"x": -0.5579711775,
				"y": 0.7565802698,
				"z": -7.2241366968,
				"element": "H" 
			},
			{
				"x": -1.6924047373,
				"y": -1.346548194,
				"z": -7.9476435227,
				"element": "H" 
			},
			{
				"x": -2.3250542458,
				"y": -3.0683665253,
				"z": -6.2764283526,
				"element": "H" 
			},
			{
				"x": -1.8303204351,
				"y": -2.7104539557,
				"z": -3.8545228026,
				"element": "H" 
			}
		],
		 "valence_orbital": [ 
			{
				"type": "occ",
				"energy": -0.27739,
				"method": "rhf"
			},
			{
				"type": "occ",
				"energy": -0.27541,
				"method": "rhf"
			},
			{
				"type": "occ",
				"energy": -0.27276,
				"method": "rhf"
			},
			{
				"type": "occ",
				"energy": -0.2656,
				"method": "rhf"
			},
			{
				"type": "occ",
				"energy": -0.25895,
				"method": "rhf"
			},
			{
				"type": "unocc",
				"energy": -0.09291,
				"method": "rhf"
			},
			{
				"type": "unocc",
				"energy": -0.05859,
				"method": "rhf"
			},
			{
				"type": "unocc",
				"energy": -0.04148,
				"method": "rhf"
			},
			{
				"type": "unocc",
				"energy": -0.02891,
				"method": "rhf"
			},
			{
				"type": "unocc",
				"energy": -0.0103,
				"method": "rhf"
			}
		],
		"cosmo_sigma_profile": { 
			"-0.025": 0.0,
			"-0.024": 0.0,
			"-0.023": 0.0,
			"-0.022": 0.0,
			"-0.021": 0.0,
			"-0.02": 0.0,
			"-0.019": 0.0,
			"-0.018": 0.0,
			"-0.017": 0.0,
			"-0.016": 0.0,
			"-0.015": 0.0,
			"-0.014": 0.0,
			"-0.013": 0.0298139694008,
			"-0.012": 0.774713430289,
			"-0.011": 1.56713889411,
			"-0.01": 2.38131469011,
			"-0.009": 1.65592475233,
			"-0.008": 3.76402199737,
			"-0.007": 16.4725166647,
			"-0.006": 23.5860211397,
			"-0.005": 25.9511941262,
			"-0.004": 21.2813090297,
			"-0.003": 25.2973117821,
			"-0.002": 24.7117993999,
			"-0.001": 29.8297937354,
			"0.0": 28.1465823495,
			"0.001": 30.7598958922,
			"0.002": 31.9997885049,
			"0.003": 20.2844902554,
			"0.004": 11.7998633194,
			"0.005": 8.58517285418,
			"0.006": 9.10283381632,
			"0.007": 9.16364152394,
			"0.008": 9.18404016431,
			"0.009": 11.9320696324,
			"0.01": 11.0011446668,
			"0.011": 5.17343817886,
			"0.012": 1.04567202148,
			"0.013": 0.0,
			"0.014": 0.0,
			"0.015": 0.0,
			"0.016": 0.0,
			"0.017": 0.0,
			"0.018": 0.0,
			"0.019": 0.0,
			"0.02": 0.0,
			"0.021": 0.0,
			"0.022": 0.0,
			"0.023": 0.0,
			"0.024": 0.0,
			"0.025": 0.0
		}
	}
}
