{
	 "smiles": "FC1=CC(=CC(F)=C1S(Cl)(=O)=O)C#N", 
	 "Tm": 366.15, 
	 "num_atms": 16, 
	 "gaussian": { 
		 "optdone": 1, 
		 "sigma_profile": "yes", 
		 "theory": "DFT", 
		 "functional": "B3LYP", 
		 "basiset": "6-31G**", 
		 "properties": { 
			 "R2extent": 5355.6056, 
			 "electric_dipole_moment_norm": 1.79091576016, 
			 "electric_quadrupole_moment_norm": 21.1873099642, 
			 "total_energy": -1531.08425482, 
			 "HOMO_LUMO_gap": 0.18755, 
			 "cosmo_polarized_energy": -12.96, 
			 "cosmo_cavitation_energy": 26.8, 
			 "cosmo_dispersion_energy": -19.32, 
			 "cosmo_repulsion_energy": 1.43, 
			 "cosmo_total_nonelectrostatic_energy": 8.92, 
			 "SMD_solvation_energy": 5.68 
		},
		"coords": [
			{
				"x": -2.0259495265,
				"y": -1.3762902097,
				"z": 2.8955899025,
				"element": "F" 
			},
			{
				"x": -1.2713227837,
				"y": -1.5951175396,
				"z": 1.8236042545,
				"element": "C" 
			},
			{
				"x": -0.0762997947,
				"y": -2.2818024917,
				"z": 2.0035003738,
				"element": "C" 
			},
			{
				"x": 0.7415138304,
				"y": -2.5315604278,
				"z": 0.8944889528,
				"element": "C" 
			},
			{
				"x": 0.3685208135,
				"y": -2.0997639601,
				"z": -0.3869421876,
				"element": "C" 
			},
			{
				"x": -0.8269217696,
				"y": -1.4148705318,
				"z": -0.5330650906,
				"element": "C" 
			},
			{
				"x": -1.1905419483,
				"y": -1.0235151292,
				"z": -1.7528883624,
				"element": "F" 
			},
			{
				"x": -1.6694701498,
				"y": -1.1398926252,
				"z": 0.5565011141,
				"element": "C" 
			},
			{
				"x": -3.1750265023,
				"y": -0.192761765,
				"z": 0.2948003601,
				"element": "S" 
			},
			{
				"x": -4.3138345775,
				"y": -1.5986085327,
				"z": -0.8058412606,
				"element": "Cl" 
			},
			{
				"x": -2.872995845,
				"y": 0.9112099399,
				"z": -0.6006092739,
				"element": "O" 
			},
			{
				"x": -3.8594988999,
				"y": -0.0034023194,
				"z": 1.5607418437,
				"element": "O" 
			},
			{
				"x": 1.9760950962,
				"y": -3.2409580708,
				"z": 1.071076419,
				"element": "C" 
			},
			{
				"x": 2.9761560736,
				"y": -3.8157295457,
				"z": 1.2134657208,
				"element": "N" 
			},
			{
				"x": 0.1980457094,
				"y": -2.6109208871,
				"z": 2.9981575147,
				"element": "H" 
			},
			{
				"x": 0.9857302744,
				"y": -2.2899159042,
				"z": -1.2561802808,
				"element": "H" 
			}
		],
		 "valence_orbital": [ 
			{
				"type": "occ",
				"energy": -0.35654,
				"method": "rhf"
			},
			{
				"type": "occ",
				"energy": -0.35057,
				"method": "rhf"
			},
			{
				"type": "occ",
				"energy": -0.33013,
				"method": "rhf"
			},
			{
				"type": "occ",
				"energy": -0.31239,
				"method": "rhf"
			},
			{
				"type": "occ",
				"energy": -0.30539,
				"method": "rhf"
			},
			{
				"type": "unocc",
				"energy": -0.11784,
				"method": "rhf"
			},
			{
				"type": "unocc",
				"energy": -0.08881,
				"method": "rhf"
			},
			{
				"type": "unocc",
				"energy": -0.05952,
				"method": "rhf"
			},
			{
				"type": "unocc",
				"energy": 0.00076,
				"method": "rhf"
			},
			{
				"type": "unocc",
				"energy": 0.00239,
				"method": "rhf"
			}
		],
		"cosmo_sigma_profile": { 
			"-0.025": 0.0,
			"-0.024": 0.0,
			"-0.023": 0.0,
			"-0.022": 0.0,
			"-0.021": 0.0,
			"-0.02": 0.0,
			"-0.019": 0.0,
			"-0.018": 0.0,
			"-0.017": 0.0,
			"-0.016": 0.0,
			"-0.015": 0.0,
			"-0.014": 0.0,
			"-0.013": 0.0,
			"-0.012": 0.118330258651,
			"-0.011": 3.72366258315,
			"-0.01": 4.28972575631,
			"-0.009": 4.72438760261,
			"-0.008": 4.30135621375,
			"-0.007": 4.87370068961,
			"-0.006": 8.96705871643,
			"-0.005": 14.9023296821,
			"-0.004": 20.0040213444,
			"-0.003": 16.3172036697,
			"-0.002": 10.330325933,
			"-0.001": 8.55276173795,
			"0.0": 10.0238985927,
			"0.001": 16.217540265,
			"0.002": 26.7361522408,
			"0.003": 12.6479928448,
			"0.004": 6.78695245399,
			"0.005": 6.49603588964,
			"0.006": 8.98594346156,
			"0.007": 14.9668995778,
			"0.008": 8.8421313679,
			"0.009": 2.91697044723,
			"0.01": 2.46065435539,
			"0.011": 2.25887353581,
			"0.012": 0.75629403759,
			"0.013": 0.0,
			"0.014": 0.0,
			"0.015": 0.0,
			"0.016": 0.0,
			"0.017": 0.0,
			"0.018": 0.0,
			"0.019": 0.0,
			"0.02": 0.0,
			"0.021": 0.0,
			"0.022": 0.0,
			"0.023": 0.0,
			"0.024": 0.0,
			"0.025": 0.0
		}
	}
}
