{
	 "smiles": "CC1=CC=CC(C)=C1NC(=O)C1=CN=CC(Cl)=N1", 
	 "Tm": 395.15, 
	 "num_atms": 30, 
	 "gaussian": { 
		 "optdone": 1, 
		 "sigma_profile": "yes", 
		 "theory": "DFT", 
		 "functional": "B3LYP", 
		 "basiset": "6-31G**", 
		 "properties": { 
			 "R2extent": 5390.4665, 
			 "electric_dipole_moment_norm": 2.51831898496, 
			 "electric_quadrupole_moment_norm": 5.88894412692, 
			 "total_energy": -1202.29452401, 
			 "HOMO_LUMO_gap": 0.16354, 
			 "cosmo_polarized_energy": -12.31, 
			 "cosmo_cavitation_energy": 36.25, 
			 "cosmo_dispersion_energy": -24.14, 
			 "cosmo_repulsion_energy": 1.87, 
			 "cosmo_total_nonelectrostatic_energy": 13.98, 
			 "SMD_solvation_energy": 5.07 
		},
		"coords": [
			{
				"x": -2.0033594794,
				"y": -1.0078907609,
				"z": 1.7135870843,
				"element": "C" 
			},
			{
				"x": -1.5846756269,
				"y": -1.8607468166,
				"z": 0.539208583,
				"element": "C" 
			},
			{
				"x": -1.8115798486,
				"y": -3.242612181,
				"z": 0.5503610495,
				"element": "C" 
			},
			{
				"x": -1.4481622358,
				"y": -4.035785387,
				"z": -0.5351327176,
				"element": "C" 
			},
			{
				"x": -0.8475279406,
				"y": -3.4574168865,
				"z": -1.652212705,
				"element": "C" 
			},
			{
				"x": -0.5940563093,
				"y": -2.0831692124,
				"z": -1.7000774283,
				"element": "C" 
			},
			{
				"x": 0.0887174255,
				"y": -1.4604958863,
				"z": -2.8910093025,
				"element": "C" 
			},
			{
				"x": -0.965189689,
				"y": -1.2993769411,
				"z": -0.5926993002,
				"element": "C" 
			},
			{
				"x": -0.7700281269,
				"y": 0.1247151153,
				"z": -0.659216414,
				"element": "N" 
			},
			{
				"x": 0.0962724995,
				"y": 0.9265721861,
				"z": 0.0326862071,
				"element": "C" 
			},
			{
				"x": -0.0530066067,
				"y": 2.1432443398,
				"z": 0.0955338366,
				"element": "O" 
			},
			{
				"x": 1.2869096392,
				"y": 0.2974308369,
				"z": 0.7124818756,
				"element": "C" 
			},
			{
				"x": 1.849112351,
				"y": 0.9492688483,
				"z": 1.816224212,
				"element": "C" 
			},
			{
				"x": 2.9303178905,
				"y": 0.4683712729,
				"z": 2.4413846281,
				"element": "N" 
			},
			{
				"x": 3.467513241,
				"y": -0.6481135273,
				"z": 1.950245155,
				"element": "C" 
			},
			{
				"x": 2.9092188102,
				"y": -1.2755934308,
				"z": 0.8274893672,
				"element": "C" 
			},
			{
				"x": 3.666761446,
				"y": -2.7243821984,
				"z": 0.1905084446,
				"element": "Cl" 
			},
			{
				"x": 1.83258394,
				"y": -0.8234055176,
				"z": 0.2156320532,
				"element": "N" 
			},
			{
				"x": -1.1395327886,
				"y": -0.6263051541,
				"z": 2.2710362719,
				"element": "H" 
			},
			{
				"x": -2.5841957269,
				"y": -0.1355470176,
				"z": 1.3966598675,
				"element": "H" 
			},
			{
				"x": -2.6128486759,
				"y": -1.586534928,
				"z": 2.4121454888,
				"element": "H" 
			},
			{
				"x": -2.287479054,
				"y": -3.693130885,
				"z": 1.4172037343,
				"element": "H" 
			},
			{
				"x": -1.6362841077,
				"y": -5.105410614,
				"z": -0.5125745934,
				"element": "H" 
			},
			{
				"x": -0.5630256501,
				"y": -4.0774463818,
				"z": -2.4978939796,
				"element": "H" 
			},
			{
				"x": 0.2823783339,
				"y": -2.2086824199,
				"z": -3.6638100707,
				"element": "H" 
			},
			{
				"x": -0.5108444959,
				"y": -0.6597639849,
				"z": -3.3379100308,
				"element": "H" 
			},
			{
				"x": 1.0446270099,
				"y": -1.0180126137,
				"z": -2.5916805774,
				"element": "H" 
			},
			{
				"x": -1.4970618556,
				"y": 0.6728734115,
				"z": -1.1078281065,
				"element": "H" 
			},
			{
				"x": 1.4123672628,
				"y": 1.8712127905,
				"z": 2.185567625,
				"element": "H" 
			},
			{
				"x": 4.3487783682,
				"y": -1.0530660564,
				"z": 2.4396897421,
				"element": "H" 
			}
		],
		 "valence_orbital": [ 
			{
				"type": "occ",
				"energy": -0.27592,
				"method": "rhf"
			},
			{
				"type": "occ",
				"energy": -0.27433,
				"method": "rhf"
			},
			{
				"type": "occ",
				"energy": -0.25867,
				"method": "rhf"
			},
			{
				"type": "occ",
				"energy": -0.24411,
				"method": "rhf"
			},
			{
				"type": "occ",
				"energy": -0.24119,
				"method": "rhf"
			},
			{
				"type": "unocc",
				"energy": -0.07765,
				"method": "rhf"
			},
			{
				"type": "unocc",
				"energy": -0.05386,
				"method": "rhf"
			},
			{
				"type": "unocc",
				"energy": -0.01156,
				"method": "rhf"
			},
			{
				"type": "unocc",
				"energy": -0.00135,
				"method": "rhf"
			},
			{
				"type": "unocc",
				"energy": 0.02205,
				"method": "rhf"
			}
		],
		"cosmo_sigma_profile": { 
			"-0.025": 0.0,
			"-0.024": 0.0,
			"-0.023": 0.0,
			"-0.022": 0.0,
			"-0.021": 0.0,
			"-0.02": 0.0,
			"-0.019": 0.0,
			"-0.018": 0.0,
			"-0.017": 0.0,
			"-0.016": 0.0,
			"-0.015": 0.00525126492568,
			"-0.014": 1.0955114982,
			"-0.013": 0.819201079381,
			"-0.012": 0.800043388101,
			"-0.011": 0.617303964884,
			"-0.01": 1.28874026146,
			"-0.009": 3.17870875234,
			"-0.008": 3.65070532044,
			"-0.007": 4.13054086823,
			"-0.006": 7.24209115047,
			"-0.005": 18.8680526484,
			"-0.004": 25.5140120213,
			"-0.003": 28.2932895946,
			"-0.002": 24.8782050215,
			"-0.001": 26.2304292174,
			"0.0": 27.3827358489,
			"0.001": 21.9135548176,
			"0.002": 16.3398886631,
			"0.003": 18.3549032024,
			"0.004": 15.669832612,
			"0.005": 12.3610497682,
			"0.006": 7.74840862307,
			"0.007": 4.49136885596,
			"0.008": 3.24272502334,
			"0.009": 2.12077460821,
			"0.01": 2.5237191215,
			"0.011": 2.5261494613,
			"0.012": 4.41553686724,
			"0.013": 5.29405520596,
			"0.014": 0.652247605482,
			"0.015": 0.0,
			"0.016": 0.0,
			"0.017": 0.0,
			"0.018": 0.0,
			"0.019": 0.0,
			"0.02": 0.0,
			"0.021": 0.0,
			"0.022": 0.0,
			"0.023": 0.0,
			"0.024": 0.0,
			"0.025": 0.0
		}
	}
}
