{
	 "smiles": "CC(CN1CCOCC1)C(C(=O)N1CCCC1)(C1=CC=CC=C1)C1=CC=CC=C1", 
	 "Tm": 453.15, 
	 "num_atms": 61, 
	 "gaussian": { 
		 "optdone": 1, 
		 "sigma_profile": "yes", 
		 "theory": "DFT", 
		 "functional": "B3LYP", 
		 "basiset": "6-31G**", 
		 "properties": { 
			 "R2extent": 11340.2898, 
			 "electric_dipole_moment_norm": 3.13961404794, 
			 "electric_quadrupole_moment_norm": 20.1176254971, 
			 "total_energy": -1231.86542026, 
			 "HOMO_LUMO_gap": 0.19912, 
			 "cosmo_polarized_energy": -16.56, 
			 "cosmo_cavitation_energy": 55.75, 
			 "cosmo_dispersion_energy": -36.62, 
			 "cosmo_repulsion_energy": 2.79, 
			 "cosmo_total_nonelectrostatic_energy": 21.93, 
			 "SMD_solvation_energy": 7.71 
		},
		"coords": [
			{
				"x": -0.9287681143,
				"y": -1.4021409819,
				"z": -1.2756980137,
				"element": "C" 
			},
			{
				"x": 0.0592021539,
				"y": -0.4313664109,
				"z": -0.6009054902,
				"element": "C" 
			},
			{
				"x": 1.1745058226,
				"y": -1.2538718965,
				"z": 0.0908288649,
				"element": "C" 
			},
			{
				"x": 1.8534956692,
				"y": -2.1689264042,
				"z": -0.822900366,
				"element": "N" 
			},
			{
				"x": 2.5409074249,
				"y": -3.2741168964,
				"z": -0.1691092412,
				"element": "C" 
			},
			{
				"x": 2.867274539,
				"y": -4.3499264744,
				"z": -1.2200380141,
				"element": "C" 
			},
			{
				"x": 3.2212438567,
				"y": -3.7905748577,
				"z": -2.4848291217,
				"element": "O" 
			},
			{
				"x": 3.7650383211,
				"y": -2.4919581714,
				"z": -2.3577806606,
				"element": "C" 
			},
			{
				"x": 2.7203712772,
				"y": -1.5049089322,
				"z": -1.8015357096,
				"element": "C" 
			},
			{
				"x": -0.6319656667,
				"y": 0.5948969391,
				"z": 0.389178439,
				"element": "C" 
			},
			{
				"x": 0.4183975221,
				"y": 1.3973194547,
				"z": 1.2492058611,
				"element": "C" 
			},
			{
				"x": 0.2971068412,
				"y": 1.4901818795,
				"z": 2.4708951165,
				"element": "O" 
			},
			{
				"x": 1.4545674247,
				"y": 2.0615342086,
				"z": 0.6463846232,
				"element": "N" 
			},
			{
				"x": 2.3427530095,
				"y": 2.8461733218,
				"z": 1.5310621878,
				"element": "C" 
			},
			{
				"x": 3.3792967391,
				"y": 3.4517641505,
				"z": 0.5774292166,
				"element": "C" 
			},
			{
				"x": 2.6021112664,
				"y": 3.5921411938,
				"z": -0.7391585929,
				"element": "C" 
			},
			{
				"x": 1.754316539,
				"y": 2.3123452172,
				"z": -0.773027407,
				"element": "C" 
			},
			{
				"x": -1.5831906516,
				"y": -0.1933856805,
				"z": 1.3266804314,
				"element": "C" 
			},
			{
				"x": -1.1144918444,
				"y": -0.8962203676,
				"z": 2.4506452179,
				"element": "C" 
			},
			{
				"x": -1.9719770535,
				"y": -1.6837577236,
				"z": 3.2194093835,
				"element": "C" 
			},
			{
				"x": -3.3229865081,
				"y": -1.794219049,
				"z": 2.8893653853,
				"element": "C" 
			},
			{
				"x": -3.8050235343,
				"y": -1.1046135193,
				"z": 1.7785998774,
				"element": "C" 
			},
			{
				"x": -2.9451330538,
				"y": -0.3162992118,
				"z": 1.0111951266,
				"element": "C" 
			},
			{
				"x": -1.4316591175,
				"y": 1.7098105111,
				"z": -0.3384732585,
				"element": "C" 
			},
			{
				"x": -1.5835376344,
				"y": 1.8053738931,
				"z": -1.7285680902,
				"element": "C" 
			},
			{
				"x": -2.31369454,
				"y": 2.8506230537,
				"z": -2.3058286152,
				"element": "C" 
			},
			{
				"x": -2.904282361,
				"y": 3.8254926,
				"z": -1.5056672665,
				"element": "C" 
			},
			{
				"x": -2.7564413641,
				"y": 3.7481869413,
				"z": -0.1182134985,
				"element": "C" 
			},
			{
				"x": -2.0319473647,
				"y": 2.7059266909,
				"z": 0.454340555,
				"element": "C" 
			},
			{
				"x": -1.7801239778,
				"y": -0.8910100041,
				"z": -1.7298075404,
				"element": "H" 
			},
			{
				"x": -1.3262470373,
				"y": -2.1190425852,
				"z": -0.5527050033,
				"element": "H" 
			},
			{
				"x": -0.4059481885,
				"y": -1.9702729941,
				"z": -2.0483859561,
				"element": "H" 
			},
			{
				"x": 0.5331040699,
				"y": 0.1591332862,
				"z": -1.3901510128,
				"element": "H" 
			},
			{
				"x": 0.7149588153,
				"y": -1.8613921563,
				"z": 0.8758992619,
				"element": "H" 
			},
			{
				"x": 1.8950611759,
				"y": -0.5761424696,
				"z": 0.5854102661,
				"element": "H" 
			},
			{
				"x": 1.8820255069,
				"y": -3.7094290881,
				"z": 0.5890216109,
				"element": "H" 
			},
			{
				"x": 3.4593336408,
				"y": -2.9547571069,
				"z": 0.3618552825,
				"element": "H" 
			},
			{
				"x": 1.9867330198,
				"y": -4.9735210825,
				"z": -1.4043230307,
				"element": "H" 
			},
			{
				"x": 3.6782891047,
				"y": -4.9974602032,
				"z": -0.8490122683,
				"element": "H" 
			},
			{
				"x": 4.6615224112,
				"y": -2.5036877784,
				"z": -1.7168053019,
				"element": "H" 
			},
			{
				"x": 4.0849441248,
				"y": -2.1831380607,
				"z": -3.3569764865,
				"element": "H" 
			},
			{
				"x": 2.104331991,
				"y": -1.1141533877,
				"z": -2.6207169342,
				"element": "H" 
			},
			{
				"x": 3.2602194314,
				"y": -0.6438942086,
				"z": -1.3581380914,
				"element": "H" 
			},
			{
				"x": 2.7760452192,
				"y": 2.203598074,
				"z": 2.301999279,
				"element": "H" 
			},
			{
				"x": 1.7572142927,
				"y": 3.6149771808,
				"z": 2.0495755563,
				"element": "H" 
			},
			{
				"x": 3.7785048306,
				"y": 4.3993441492,
				"z": 0.9486501817,
				"element": "H" 
			},
			{
				"x": 4.2226451381,
				"y": 2.7639077423,
				"z": 0.4442822741,
				"element": "H" 
			},
			{
				"x": 3.2431281578,
				"y": 3.6871251236,
				"z": -1.6201112984,
				"element": "H" 
			},
			{
				"x": 1.9471486548,
				"y": 4.4699709757,
				"z": -0.7010581429,
				"element": "H" 
			},
			{
				"x": 0.8423279816,
				"y": 2.4329418371,
				"z": -1.3573767319,
				"element": "H" 
			},
			{
				"x": 2.33563604,
				"y": 1.4848352642,
				"z": -1.2017287728,
				"element": "H" 
			},
			{
				"x": -0.0814372184,
				"y": -0.7999851136,
				"z": 2.754921891,
				"element": "H" 
			},
			{
				"x": -1.5784761926,
				"y": -2.2052578202,
				"z": 4.0877486152,
				"element": "H" 
			},
			{
				"x": -3.9896446117,
				"y": -2.4046045241,
				"z": 3.4920827318,
				"element": "H" 
			},
			{
				"x": -4.8536511221,
				"y": -1.174561589,
				"z": 1.5026050313,
				"element": "H" 
			},
			{
				"x": -3.3482616552,
				"y": 0.2094780704,
				"z": 0.1531745423,
				"element": "H" 
			},
			{
				"x": -1.1370148285,
				"y": 1.0674256991,
				"z": -2.384246869,
				"element": "H" 
			},
			{
				"x": -2.4170950745,
				"y": 2.8941903071,
				"z": -3.3865574519,
				"element": "H" 
			},
			{
				"x": -3.4717776537,
				"y": 4.6356085639,
				"z": -1.9544618393,
				"element": "H" 
			},
			{
				"x": -3.2073664391,
				"y": 4.5016215177,
				"z": 0.5216188873,
				"element": "H" 
			},
			{
				"x": -1.9235192056,
				"y": 2.6543689036,
				"z": 1.5334303801,
				"element": "H" 
			}
		],
		 "valence_orbital": [ 
			{
				"type": "occ",
				"energy": -0.24059,
				"method": "rhf"
			},
			{
				"type": "occ",
				"energy": -0.23343,
				"method": "rhf"
			},
			{
				"type": "occ",
				"energy": -0.22926,
				"method": "rhf"
			},
			{
				"type": "occ",
				"energy": -0.22597,
				"method": "rhf"
			},
			{
				"type": "occ",
				"energy": -0.20824,
				"method": "rhf"
			},
			{
				"type": "unocc",
				"energy": -0.00912,
				"method": "rhf"
			},
			{
				"type": "unocc",
				"energy": -0.00724,
				"method": "rhf"
			},
			{
				"type": "unocc",
				"energy": 0.00821,
				"method": "rhf"
			},
			{
				"type": "unocc",
				"energy": 0.01554,
				"method": "rhf"
			},
			{
				"type": "unocc",
				"energy": 0.03326,
				"method": "rhf"
			}
		],
		"cosmo_sigma_profile": { 
			"-0.025": 0.0,
			"-0.024": 0.0,
			"-0.023": 0.0,
			"-0.022": 0.0,
			"-0.021": 0.0,
			"-0.02": 0.0,
			"-0.019": 0.0,
			"-0.018": 0.0,
			"-0.017": 0.0,
			"-0.016": 0.0,
			"-0.015": 0.0,
			"-0.014": 0.0,
			"-0.013": 0.0,
			"-0.012": 0.0,
			"-0.011": 0.0,
			"-0.01": 0.0,
			"-0.009": 0.0,
			"-0.008": 0.0,
			"-0.007": 0.107892821327,
			"-0.006": 4.78460434686,
			"-0.005": 20.8353850378,
			"-0.004": 44.206364893,
			"-0.003": 72.5089367803,
			"-0.002": 63.9783808297,
			"-0.001": 47.9683322618,
			"0.0": 36.5422914188,
			"0.001": 22.4772115674,
			"0.002": 22.3158995588,
			"0.003": 20.0900597687,
			"0.004": 18.1657185604,
			"0.005": 17.1375379124,
			"0.006": 11.314570125,
			"0.007": 5.6218677856,
			"0.008": 4.39938499451,
			"0.009": 3.79243157634,
			"0.01": 2.93254604686,
			"0.011": 3.62682631842,
			"0.012": 4.0641240732,
			"0.013": 4.13300755509,
			"0.014": 4.41393685346,
			"0.015": 0.772498813302,
			"0.016": 0.0,
			"0.017": 0.0,
			"0.018": 0.0,
			"0.019": 0.0,
			"0.02": 0.0,
			"0.021": 0.0,
			"0.022": 0.0,
			"0.023": 0.0,
			"0.024": 0.0,
			"0.025": 0.0
		}
	}
}
