{
	 "smiles": "BrC1=C(OCC2=CC=CC=C2)N=C(N=C1)N1CCOCC1", 
	 "Tm": 388.15, 
	 "num_atms": 37, 
	 "gaussian": { 
		 "optdone": 1, 
		 "sigma_profile": "yes", 
		 "theory": "DFT", 
		 "functional": "B3LYP", 
		 "basiset": "6-31G**", 
		 "properties": { 
			 "R2extent": 9668.9182, 
			 "electric_dipole_moment_norm": 2.09595350378, 
			 "electric_quadrupole_moment_norm": 11.5275967235, 
			 "total_energy": -3467.33727133, 
			 "HOMO_LUMO_gap": 0.18246, 
			 "cosmo_polarized_energy": -10.98, 
			 "cosmo_cavitation_energy": 42.41, 
			 "cosmo_dispersion_energy": -29.7, 
			 "cosmo_repulsion_energy": 2.31, 
			 "cosmo_total_nonelectrostatic_energy": 15.02, 
			 "SMD_solvation_energy": 4.12 
		},
		"coords": [
			{
				"x": 1.7238804057,
				"y": 1.9504498754,
				"z": 4.3840376141,
				"element": "Br" 
			},
			{
				"x": 1.0803048936,
				"y": 1.786920413,
				"z": 2.6065387256,
				"element": "C" 
			},
			{
				"x": 1.0375651446,
				"y": 0.5510256122,
				"z": 1.9304249296,
				"element": "C" 
			},
			{
				"x": 1.4898882235,
				"y": -0.5357508404,
				"z": 2.5752324735,
				"element": "O" 
			},
			{
				"x": 1.4108544258,
				"y": -1.8129506352,
				"z": 1.9125514922,
				"element": "C" 
			},
			{
				"x": 0.0380165287,
				"y": -2.4423224277,
				"z": 2.0029122943,
				"element": "C" 
			},
			{
				"x": -0.7451450376,
				"y": -2.2936100025,
				"z": 3.1539197657,
				"element": "C" 
			},
			{
				"x": -1.9874606006,
				"y": -2.9212673976,
				"z": 3.246654714,
				"element": "C" 
			},
			{
				"x": -2.4558760369,
				"y": -3.7135384508,
				"z": 2.196028209,
				"element": "C" 
			},
			{
				"x": -1.67747384,
				"y": -3.8695918132,
				"z": 1.048077565,
				"element": "C" 
			},
			{
				"x": -0.4394659502,
				"y": -3.232076433,
				"z": 0.9515899731,
				"element": "C" 
			},
			{
				"x": 0.579474664,
				"y": 0.4511410293,
				"z": 0.6932025287,
				"element": "N" 
			},
			{
				"x": 0.1490347741,
				"y": 1.5835357425,
				"z": 0.0909575681,
				"element": "C" 
			},
			{
				"x": 0.1468752986,
				"y": 2.8094699874,
				"z": 0.6509955458,
				"element": "N" 
			},
			{
				"x": 0.6164976257,
				"y": 2.8848164948,
				"z": 1.8982963921,
				"element": "C" 
			},
			{
				"x": -0.3049090388,
				"y": 1.4747535585,
				"z": -1.1956786341,
				"element": "N" 
			},
			{
				"x": -0.5202555331,
				"y": 0.1837208609,
				"z": -1.8434751245,
				"element": "C" 
			},
			{
				"x": -0.0981908862,
				"y": 0.274553015,
				"z": -3.3101784992,
				"element": "C" 
			},
			{
				"x": -0.7611627452,
				"y": 1.3394537072,
				"z": -3.9775547555,
				"element": "O" 
			},
			{
				"x": -0.4677062874,
				"y": 2.5871017481,
				"z": -3.3612102912,
				"element": "C" 
			},
			{
				"x": -0.9062918185,
				"y": 2.6073860672,
				"z": -1.8971833737,
				"element": "C" 
			},
			{
				"x": 1.7236902508,
				"y": -1.7109811626,
				"z": 0.8708638285,
				"element": "H" 
			},
			{
				"x": 2.1505075686,
				"y": -2.4169910067,
				"z": 2.4471626864,
				"element": "H" 
			},
			{
				"x": -0.3816562985,
				"y": -1.6757083743,
				"z": 3.9695335227,
				"element": "H" 
			},
			{
				"x": -2.589572902,
				"y": -2.7936590906,
				"z": 4.1418339166,
				"element": "H" 
			},
			{
				"x": -3.4225400127,
				"y": -4.203241126,
				"z": 2.2705858138,
				"element": "H" 
			},
			{
				"x": -2.0369467608,
				"y": -4.4792662439,
				"z": 0.2238888072,
				"element": "H" 
			},
			{
				"x": 0.1598383802,
				"y": -3.3486573014,
				"z": 0.0515003604,
				"element": "H" 
			},
			{
				"x": 0.6208725495,
				"y": 3.8689064163,
				"z": 2.3618565162,
				"element": "H" 
			},
			{
				"x": -1.5862377066,
				"y": -0.0859923651,
				"z": -1.7885664652,
				"element": "H" 
			},
			{
				"x": 0.0516979922,
				"y": -0.5787372003,
				"z": -1.316134911,
				"element": "H" 
			},
			{
				"x": -0.3676003724,
				"y": -0.6434730826,
				"z": -3.8407842373,
				"element": "H" 
			},
			{
				"x": 0.9945746592,
				"y": 0.4090496929,
				"z": -3.3712138125,
				"element": "H" 
			},
			{
				"x": -1.0061730102,
				"y": 3.3508472095,
				"z": -3.9297129073,
				"element": "H" 
			},
			{
				"x": 0.6127388234,
				"y": 2.7969014483,
				"z": -3.4251813516,
				"element": "H" 
			},
			{
				"x": -0.5981900449,
				"y": 3.5293537191,
				"z": -1.4051494074,
				"element": "H" 
			},
			{
				"x": -2.003657326,
				"y": 2.5363283559,
				"z": -1.8448214724,
				"element": "H" 
			}
		],
		 "valence_orbital": [ 
			{
				"type": "occ",
				"energy": -0.25592,
				"method": "rhf"
			},
			{
				"type": "occ",
				"energy": -0.2551,
				"method": "rhf"
			},
			{
				"type": "occ",
				"energy": -0.25255,
				"method": "rhf"
			},
			{
				"type": "occ",
				"energy": -0.24663,
				"method": "rhf"
			},
			{
				"type": "occ",
				"energy": -0.20779,
				"method": "rhf"
			},
			{
				"type": "unocc",
				"energy": -0.02533,
				"method": "rhf"
			},
			{
				"type": "unocc",
				"energy": -0.00875,
				"method": "rhf"
			},
			{
				"type": "unocc",
				"energy": -0.00613,
				"method": "rhf"
			},
			{
				"type": "unocc",
				"energy": 0.00017,
				"method": "rhf"
			},
			{
				"type": "unocc",
				"energy": 0.01348,
				"method": "rhf"
			}
		],
		"cosmo_sigma_profile": { 
			"-0.025": 0.0,
			"-0.024": 0.0,
			"-0.023": 0.0,
			"-0.022": 0.0,
			"-0.021": 0.0,
			"-0.02": 0.0,
			"-0.019": 0.0,
			"-0.018": 0.0,
			"-0.017": 0.0,
			"-0.016": 0.0,
			"-0.015": 0.0,
			"-0.014": 0.0,
			"-0.013": 0.0,
			"-0.012": 0.0,
			"-0.011": 0.0,
			"-0.01": 0.0,
			"-0.009": 0.0,
			"-0.008": 0.799287938517,
			"-0.007": 3.44547312482,
			"-0.006": 12.1048011603,
			"-0.005": 26.1496859853,
			"-0.004": 42.0901912078,
			"-0.003": 33.8291893667,
			"-0.002": 29.3798964006,
			"-0.001": 26.1152075627,
			"0.0": 24.3922846725,
			"0.001": 24.6109342161,
			"0.002": 21.0144428572,
			"0.003": 20.1125371127,
			"0.004": 23.6283831815,
			"0.005": 18.5964610663,
			"0.006": 12.1434618723,
			"0.007": 5.67995552141,
			"0.008": 4.83272062374,
			"0.009": 3.14125063848,
			"0.01": 2.55758364573,
			"0.011": 2.18377009425,
			"0.012": 1.77174523364,
			"0.013": 1.82942719551,
			"0.014": 0.0900828058707,
			"0.015": 0.0,
			"0.016": 0.0,
			"0.017": 0.0,
			"0.018": 0.0,
			"0.019": 0.0,
			"0.02": 0.0,
			"0.021": 0.0,
			"0.022": 0.0,
			"0.023": 0.0,
			"0.024": 0.0,
			"0.025": 0.0
		}
	}
}
