{
	 "smiles": "CC(C)C(Br)C(=O)NC1=C(F)C=CC=C1", 
	 "Tm": 372.15, 
	 "num_atms": 28, 
	 "gaussian": { 
		 "optdone": 1, 
		 "sigma_profile": "yes", 
		 "theory": "DFT", 
		 "functional": "B3LYP", 
		 "basiset": "6-31G**", 
		 "properties": { 
			 "R2extent": 5866.8149, 
			 "electric_dipole_moment_norm": 0.762528983056, 
			 "electric_quadrupole_moment_norm": 12.855491872, 
			 "total_energy": -3228.25441148, 
			 "HOMO_LUMO_gap": 0.20244, 
			 "cosmo_polarized_energy": -7.37, 
			 "cosmo_cavitation_energy": 33.27, 
			 "cosmo_dispersion_energy": -23.72, 
			 "cosmo_repulsion_energy": 1.82, 
			 "cosmo_total_nonelectrostatic_energy": 11.38, 
			 "SMD_solvation_energy": 5.48 
		},
		"coords": [
			{
				"x": -0.6071274745,
				"y": -5.0837391918,
				"z": 0.9242242276,
				"element": "C" 
			},
			{
				"x": -0.0892177168,
				"y": -3.6412495473,
				"z": 0.891489201,
				"element": "C" 
			},
			{
				"x": 0.1826013281,
				"y": -3.0969321942,
				"z": 2.2997037928,
				"element": "C" 
			},
			{
				"x": -0.9907337169,
				"y": -2.7193138959,
				"z": 0.0463824064,
				"element": "C" 
			},
			{
				"x": -2.8315663491,
				"y": -2.5508701761,
				"z": 0.8318150885,
				"element": "Br" 
			},
			{
				"x": -0.3018664517,
				"y": -1.3744607399,
				"z": -0.2469103078,
				"element": "C" 
			},
			{
				"x": 0.744402595,
				"y": -1.4256369963,
				"z": -0.8845503905,
				"element": "O" 
			},
			{
				"x": -0.877066741,
				"y": -0.2371368132,
				"z": 0.2297430054,
				"element": "N" 
			},
			{
				"x": -0.4155403944,
				"y": 1.0838039633,
				"z": 0.0858817194,
				"element": "C" 
			},
			{
				"x": -1.2068540982,
				"y": 2.0897891612,
				"z": 0.6590531852,
				"element": "C" 
			},
			{
				"x": -2.3427942717,
				"y": 1.7039638571,
				"z": 1.2972135523,
				"element": "F" 
			},
			{
				"x": -0.8758486231,
				"y": 3.4311925282,
				"z": 0.5980130763,
				"element": "C" 
			},
			{
				"x": 0.2976950346,
				"y": 3.8015767625,
				"z": -0.0641146072,
				"element": "C" 
			},
			{
				"x": 1.1030390707,
				"y": 2.8209055477,
				"z": -0.643523661,
				"element": "C" 
			},
			{
				"x": 0.7592971221,
				"y": 1.4689262827,
				"z": -0.5752278196,
				"element": "C" 
			},
			{
				"x": -0.765593476,
				"y": -5.4765621705,
				"z": -0.0859639961,
				"element": "H" 
			},
			{
				"x": -1.5545993912,
				"y": -5.1536785433,
				"z": 1.4671789895,
				"element": "H" 
			},
			{
				"x": 0.1178410032,
				"y": -5.7322201153,
				"z": 1.4259763328,
				"element": "H" 
			},
			{
				"x": 0.8557298929,
				"y": -3.6284425094,
				"z": 0.3319156786,
				"element": "H" 
			},
			{
				"x": 0.8981720484,
				"y": -3.7418286312,
				"z": 2.8187208157,
				"element": "H" 
			},
			{
				"x": -0.7357753976,
				"y": -3.0653835839,
				"z": 2.8941011354,
				"element": "H" 
			},
			{
				"x": 0.6060003347,
				"y": -2.0879916149,
				"z": 2.2709188039,
				"element": "H" 
			},
			{
				"x": -1.184059686,
				"y": -3.1820590905,
				"z": -0.9221840623,
				"element": "H" 
			},
			{
				"x": -1.756229881,
				"y": -0.3401778988,
				"z": 0.7234142215,
				"element": "H" 
			},
			{
				"x": -1.5327054218,
				"y": 4.1582131477,
				"z": 1.0629843678,
				"element": "H" 
			},
			{
				"x": 0.5749171284,
				"y": 4.8491289147,
				"z": -0.1235014891,
				"element": "H" 
			},
			{
				"x": 2.0153026141,
				"y": 3.1046715737,
				"z": -1.1590577494,
				"element": "H" 
			},
			{
				"x": 1.3796809188,
				"y": 0.705911974,
				"z": -1.0233955169,
				"element": "H" 
			}
		],
		 "valence_orbital": [ 
			{
				"type": "occ",
				"energy": -0.30074,
				"method": "rhf"
			},
			{
				"type": "occ",
				"energy": -0.28541,
				"method": "rhf"
			},
			{
				"type": "occ",
				"energy": -0.26241,
				"method": "rhf"
			},
			{
				"type": "occ",
				"energy": -0.25505,
				"method": "rhf"
			},
			{
				"type": "occ",
				"energy": -0.22919,
				"method": "rhf"
			},
			{
				"type": "unocc",
				"energy": -0.02675,
				"method": "rhf"
			},
			{
				"type": "unocc",
				"energy": -0.01254,
				"method": "rhf"
			},
			{
				"type": "unocc",
				"energy": -0.00402,
				"method": "rhf"
			},
			{
				"type": "unocc",
				"energy": 0.03326,
				"method": "rhf"
			},
			{
				"type": "unocc",
				"energy": 0.07661,
				"method": "rhf"
			}
		],
		"cosmo_sigma_profile": { 
			"-0.025": 0.0,
			"-0.024": 0.0,
			"-0.023": 0.0,
			"-0.022": 0.0,
			"-0.021": 0.0,
			"-0.02": 0.0,
			"-0.019": 0.0,
			"-0.018": 0.0,
			"-0.017": 0.0,
			"-0.016": 0.0,
			"-0.015": 0.0,
			"-0.014": 0.0,
			"-0.013": 0.0,
			"-0.012": 0.0,
			"-0.011": 0.0,
			"-0.01": 0.0,
			"-0.009": 0.423799813049,
			"-0.008": 2.31079760309,
			"-0.007": 4.85586866186,
			"-0.006": 9.26441520381,
			"-0.005": 12.4195053519,
			"-0.004": 17.1550667907,
			"-0.003": 24.7852621215,
			"-0.002": 24.935085752,
			"-0.001": 26.5183387361,
			"0.0": 30.9098346756,
			"0.001": 27.9830846102,
			"0.002": 20.165752253,
			"0.003": 21.4997612554,
			"0.004": 21.1817451258,
			"0.005": 9.17864530293,
			"0.006": 1.75826959859,
			"0.007": 1.31173139034,
			"0.008": 1.19593781969,
			"0.009": 1.6156772131,
			"0.01": 1.90586043427,
			"0.011": 1.98194912808,
			"0.012": 2.55916190028,
			"0.013": 0.973326237651,
			"0.014": 0.0,
			"0.015": 0.0,
			"0.016": 0.0,
			"0.017": 0.0,
			"0.018": 0.0,
			"0.019": 0.0,
			"0.02": 0.0,
			"0.021": 0.0,
			"0.022": 0.0,
			"0.023": 0.0,
			"0.024": 0.0,
			"0.025": 0.0
		}
	}
}
