{
	 "smiles": "CCC1=C(N=CO1)C(O)=O", 
	 "Tm": 378.15, 
	 "num_atms": 17, 
	 "gaussian": { 
		 "optdone": 1, 
		 "sigma_profile": "yes", 
		 "theory": "DFT", 
		 "functional": "B3LYP", 
		 "basiset": "6-31G**", 
		 "properties": { 
			 "R2extent": 2004.0113, 
			 "electric_dipole_moment_norm": 4.55312333349, 
			 "electric_quadrupole_moment_norm": 12.1861767183, 
			 "total_energy": -513.286288795, 
			 "HOMO_LUMO_gap": 0.22311, 
			 "cosmo_polarized_energy": -11.0, 
			 "cosmo_cavitation_energy": 21.61, 
			 "cosmo_dispersion_energy": -15.97, 
			 "cosmo_repulsion_energy": 1.31, 
			 "cosmo_total_nonelectrostatic_energy": 6.96, 
			 "SMD_solvation_energy": 4.98 
		},
		"coords": [
			{
				"x": -0.4858762741,
				"y": -0.0762684862,
				"z": 1.7480673962,
				"element": "C" 
			},
			{
				"x": 0.6153695898,
				"y": 0.1573290185,
				"z": 0.6973370679,
				"element": "C" 
			},
			{
				"x": 0.2483229216,
				"y": 1.1741833878,
				"z": -0.3237252166,
				"element": "C" 
			},
			{
				"x": 0.0572246424,
				"y": 1.1542332397,
				"z": -1.6765099223,
				"element": "C" 
			},
			{
				"x": -0.2928136926,
				"y": 2.4299120476,
				"z": -2.1209539206,
				"element": "N" 
			},
			{
				"x": -0.3010138065,
				"y": 3.1495127823,
				"z": -1.0488118526,
				"element": "C" 
			},
			{
				"x": 0.0156818848,
				"y": 2.4648141414,
				"z": 0.082527938,
				"element": "O" 
			},
			{
				"x": 0.1763596401,
				"y": 0.0254712477,
				"z": -2.6263883295,
				"element": "C" 
			},
			{
				"x": -0.0836312339,
				"y": 0.3639439183,
				"z": -3.9057730122,
				"element": "O" 
			},
			{
				"x": 0.4775829653,
				"y": -1.1038657398,
				"z": -2.3051375063,
				"element": "O" 
			},
			{
				"x": -0.1565324452,
				"y": -0.8228345035,
				"z": 2.4761262741,
				"element": "H" 
			},
			{
				"x": -1.4033480973,
				"y": -0.4420196773,
				"z": 1.2779231107,
				"element": "H" 
			},
			{
				"x": -0.7214207624,
				"y": 0.8454280161,
				"z": 2.2879620742,
				"element": "H" 
			},
			{
				"x": 1.5395822088,
				"y": 0.4755064995,
				"z": 1.1970408773,
				"element": "H" 
			},
			{
				"x": 0.8340948853,
				"y": -0.7640891641,
				"z": 0.1524516092,
				"element": "H" 
			},
			{
				"x": -0.5213637387,
				"y": 4.2009638196,
				"z": -0.9396872199,
				"element": "H" 
			},
			{
				"x": -0.3008186874,
				"y": 1.3139794525,
				"z": -3.9276493677,
				"element": "H" 
			}
		],
		 "valence_orbital": [ 
			{
				"type": "occ",
				"energy": -0.34375,
				"method": "rhf"
			},
			{
				"type": "occ",
				"energy": -0.32445,
				"method": "rhf"
			},
			{
				"type": "occ",
				"energy": -0.31185,
				"method": "rhf"
			},
			{
				"type": "occ",
				"energy": -0.2733,
				"method": "rhf"
			},
			{
				"type": "occ",
				"energy": -0.26314,
				"method": "rhf"
			},
			{
				"type": "unocc",
				"energy": -0.04003,
				"method": "rhf"
			},
			{
				"type": "unocc",
				"energy": -0.0117,
				"method": "rhf"
			},
			{
				"type": "unocc",
				"energy": 0.09039,
				"method": "rhf"
			},
			{
				"type": "unocc",
				"energy": 0.10443,
				"method": "rhf"
			},
			{
				"type": "unocc",
				"energy": 0.11064,
				"method": "rhf"
			}
		],
		"cosmo_sigma_profile": { 
			"-0.025": 0.0,
			"-0.024": 0.0,
			"-0.023": 0.0,
			"-0.022": 0.0,
			"-0.021": 0.0,
			"-0.02": 0.0,
			"-0.019": 0.0,
			"-0.018": 0.0,
			"-0.017": 0.0,
			"-0.016": 0.0,
			"-0.015": 0.0534802958953,
			"-0.014": 0.453428454541,
			"-0.013": 0.488046994965,
			"-0.012": 1.70568334142,
			"-0.011": 2.54947727841,
			"-0.01": 2.73914288154,
			"-0.009": 2.40912587408,
			"-0.008": 1.63052277463,
			"-0.007": 2.07609742773,
			"-0.006": 4.12680385204,
			"-0.005": 6.05560562445,
			"-0.004": 13.1723799469,
			"-0.003": 19.4060282487,
			"-0.002": 24.2199031053,
			"-0.001": 17.1796778147,
			"0.0": 14.1327497098,
			"0.001": 7.69716122854,
			"0.002": 5.93859667227,
			"0.003": 5.46149633425,
			"0.004": 4.41291126411,
			"0.005": 4.88301865091,
			"0.006": 4.27441439973,
			"0.007": 3.76523350949,
			"0.008": 3.88632903995,
			"0.009": 4.45666822977,
			"0.01": 5.69246474882,
			"0.011": 4.19181933767,
			"0.012": 3.49956664031,
			"0.013": 1.68241857515,
			"0.014": 0.0945261478883,
			"0.015": 0.0,
			"0.016": 0.0,
			"0.017": 0.0,
			"0.018": 0.0,
			"0.019": 0.0,
			"0.02": 0.0,
			"0.021": 0.0,
			"0.022": 0.0,
			"0.023": 0.0,
			"0.024": 0.0,
			"0.025": 0.0
		}
	}
}
