{
	 "smiles": "CC1=C(SC(NC(=O)OC(C)(C)C)=N1)C(N)=O", 
	 "Tm": 553.15, 
	 "num_atms": 32, 
	 "gaussian": { 
		 "optdone": 1, 
		 "sigma_profile": "yes", 
		 "theory": "DFT", 
		 "functional": "B3LYP", 
		 "basiset": "6-31G**", 
		 "properties": { 
			 "R2extent": 6133.4519, 
			 "electric_dipole_moment_norm": 4.73790420017, 
			 "electric_quadrupole_moment_norm": 23.2191372038, 
			 "total_energy": -1178.27513257, 
			 "HOMO_LUMO_gap": 0.17684, 
			 "cosmo_polarized_energy": -17.44, 
			 "cosmo_cavitation_energy": 36.91, 
			 "cosmo_dispersion_energy": -26.31, 
			 "cosmo_repulsion_energy": 2.02, 
			 "cosmo_total_nonelectrostatic_energy": 12.62, 
			 "SMD_solvation_energy": 6.62 
		},
		"coords": [
			{
				"x": -1.3025978813,
				"y": 4.6527110248,
				"z": 1.1928191445,
				"element": "C" 
			},
			{
				"x": -0.6150494015,
				"y": 3.3667362798,
				"z": 0.838648417,
				"element": "C" 
			},
			{
				"x": 0.7448091381,
				"y": 3.1719541487,
				"z": 0.7131146069,
				"element": "C" 
			},
			{
				"x": 1.066719187,
				"y": 1.4924003796,
				"z": 0.2840535821,
				"element": "S" 
			},
			{
				"x": -0.6596805667,
				"y": 1.2100240814,
				"z": 0.3137722826,
				"element": "C" 
			},
			{
				"x": -1.2722253635,
				"y": -0.0011014987,
				"z": 0.0523892375,
				"element": "N" 
			},
			{
				"x": -0.7606950924,
				"y": -1.2476855591,
				"z": -0.2798427073,
				"element": "C" 
			},
			{
				"x": -1.4929196198,
				"y": -2.1990696884,
				"z": -0.4703903899,
				"element": "O" 
			},
			{
				"x": 0.5783279859,
				"y": -1.2169555205,
				"z": -0.3471514313,
				"element": "O" 
			},
			{
				"x": 1.352411515,
				"y": -2.4376244384,
				"z": -0.6856354795,
				"element": "C" 
			},
			{
				"x": 1.1114828654,
				"y": -3.5086608336,
				"z": 0.3812447071,
				"element": "C" 
			},
			{
				"x": 2.7969594435,
				"y": -1.9370550186,
				"z": -0.6450969301,
				"element": "C" 
			},
			{
				"x": 0.9735783669,
				"y": -2.91056785,
				"z": -2.0914211708,
				"element": "C" 
			},
			{
				"x": -1.3895173441,
				"y": 2.252903765,
				"z": 0.6105109481,
				"element": "N" 
			},
			{
				"x": 1.7918367191,
				"y": 4.1963439077,
				"z": 0.9039252528,
				"element": "C" 
			},
			{
				"x": 3.0934280378,
				"y": 3.7998931001,
				"z": 0.7309568673,
				"element": "N" 
			},
			{
				"x": 1.5130412655,
				"y": 5.3550765898,
				"z": 1.2047119484,
				"element": "O" 
			},
			{
				"x": -2.3813897005,
				"y": 4.4883402675,
				"z": 1.2143589997,
				"element": "H" 
			},
			{
				"x": -0.9638269704,
				"y": 5.0227895972,
				"z": 2.1639728389,
				"element": "H" 
			},
			{
				"x": -1.0608152401,
				"y": 5.4373067906,
				"z": 0.4711379777,
				"element": "H" 
			},
			{
				"x": -2.2821948418,
				"y": 0.027568827,
				"z": 0.116366647,
				"element": "H" 
			},
			{
				"x": 0.0770191441,
				"y": -3.8524837764,
				"z": 0.3683487117,
				"element": "H" 
			},
			{
				"x": 1.7686532839,
				"y": -4.3630601232,
				"z": 0.1907683907,
				"element": "H" 
			},
			{
				"x": 1.3451116352,
				"y": -3.1161675562,
				"z": 1.3757225792,
				"element": "H" 
			},
			{
				"x": 3.4793660039,
				"y": -2.7587396765,
				"z": -0.8808668765,
				"element": "H" 
			},
			{
				"x": 3.0470383278,
				"y": -1.5538884948,
				"z": 0.3482355016,
				"element": "H" 
			},
			{
				"x": 2.9516157946,
				"y": -1.1384582497,
				"z": -1.3761243646,
				"element": "H" 
			},
			{
				"x": -0.0621414519,
				"y": -3.24887666,
				"z": -2.1279674589,
				"element": "H" 
			},
			{
				"x": 1.1110917816,
				"y": -2.1021143093,
				"z": -2.8160726422,
				"element": "H" 
			},
			{
				"x": 1.6254311609,
				"y": -3.740663739,
				"z": -2.3815765689,
				"element": "H" 
			},
			{
				"x": 3.8054637635,
				"y": 4.5012565823,
				"z": 0.861438834,
				"element": "H" 
			},
			{
				"x": 3.371468054,
				"y": 2.8646676509,
				"z": 0.4836485455,
				"element": "H" 
			}
		],
		 "valence_orbital": [ 
			{
				"type": "occ",
				"energy": -0.28403,
				"method": "rhf"
			},
			{
				"type": "occ",
				"energy": -0.28318,
				"method": "rhf"
			},
			{
				"type": "occ",
				"energy": -0.26571,
				"method": "rhf"
			},
			{
				"type": "occ",
				"energy": -0.25116,
				"method": "rhf"
			},
			{
				"type": "occ",
				"energy": -0.22302,
				"method": "rhf"
			},
			{
				"type": "unocc",
				"energy": -0.04618,
				"method": "rhf"
			},
			{
				"type": "unocc",
				"energy": 0.00498,
				"method": "rhf"
			},
			{
				"type": "unocc",
				"energy": 0.01703,
				"method": "rhf"
			},
			{
				"type": "unocc",
				"energy": 0.05777,
				"method": "rhf"
			},
			{
				"type": "unocc",
				"energy": 0.05955,
				"method": "rhf"
			}
		],
		"cosmo_sigma_profile": { 
			"-0.025": 0.0,
			"-0.024": 0.0,
			"-0.023": 0.0,
			"-0.022": 0.0,
			"-0.021": 0.0,
			"-0.02": 0.0,
			"-0.019": 0.0,
			"-0.018": 0.0,
			"-0.017": 0.0307283220267,
			"-0.016": 0.596396723539,
			"-0.015": 0.730069774874,
			"-0.014": 2.56864177649,
			"-0.013": 2.62373720338,
			"-0.012": 2.98240947318,
			"-0.011": 2.84966184089,
			"-0.01": 3.32166752522,
			"-0.009": 2.14664723225,
			"-0.008": 2.94563528949,
			"-0.007": 2.20882904043,
			"-0.006": 2.60136135082,
			"-0.005": 7.46494302387,
			"-0.004": 21.3363805713,
			"-0.003": 24.3068305564,
			"-0.002": 30.3448160847,
			"-0.001": 32.972173465,
			"0.0": 42.1238845383,
			"0.001": 25.851977962,
			"0.002": 16.7562247501,
			"0.003": 12.2985524592,
			"0.004": 8.83499084183,
			"0.005": 5.39092004971,
			"0.006": 3.74819359221,
			"0.007": 4.63290248573,
			"0.008": 3.5172413683,
			"0.009": 4.72549901566,
			"0.01": 2.99507721969,
			"0.011": 4.95019902005,
			"0.012": 6.07776924227,
			"0.013": 3.88615947719,
			"0.014": 3.77226022603,
			"0.015": 0.627564994044,
			"0.016": 0.0,
			"0.017": 0.0,
			"0.018": 0.0,
			"0.019": 0.0,
			"0.02": 0.0,
			"0.021": 0.0,
			"0.022": 0.0,
			"0.023": 0.0,
			"0.024": 0.0,
			"0.025": 0.0
		}
	}
}
