{
	 "smiles": "O=C1OC=CC2=CC=CC=C12", 
	 "Tm": 320.15, 
	 "num_atms": 17, 
	 "gaussian": { 
		 "optdone": 1, 
		 "sigma_profile": "yes", 
		 "theory": "DFT", 
		 "functional": "B3LYP", 
		 "basiset": "6-31G**", 
		 "properties": { 
			 "R2extent": 2119.9998, 
			 "electric_dipole_moment_norm": 4.32133865949, 
			 "electric_quadrupole_moment_norm": 14.3751981618, 
			 "total_energy": -497.023000406, 
			 "HOMO_LUMO_gap": 0.17663, 
			 "cosmo_polarized_energy": -9.79, 
			 "cosmo_cavitation_energy": 21.35, 
			 "cosmo_dispersion_energy": -16.2, 
			 "cosmo_repulsion_energy": 1.27, 
			 "cosmo_total_nonelectrostatic_energy": 6.42, 
			 "SMD_solvation_energy": 5.13 
		},
		"coords": [
			{
				"x": -1.1260563836,
				"y": 0.9814877141,
				"z": -3.1139587368,
				"element": "O" 
			},
			{
				"x": -0.6869221707,
				"y": -0.047664896,
				"z": -2.6576694177,
				"element": "C" 
			},
			{
				"x": -0.3520489395,
				"y": -1.0626262997,
				"z": -3.5541209653,
				"element": "O" 
			},
			{
				"x": 0.1481680275,
				"y": -2.2567225345,
				"z": -3.1377791604,
				"element": "C" 
			},
			{
				"x": 0.3633987545,
				"y": -2.5671409345,
				"z": -1.8476113764,
				"element": "C" 
			},
			{
				"x": 0.0539726746,
				"y": -1.5944456601,
				"z": -0.8252992508,
				"element": "C" 
			},
			{
				"x": 0.2458005139,
				"y": -1.830265903,
				"z": 0.5487752366,
				"element": "C" 
			},
			{
				"x": -0.0729700281,
				"y": -0.8505545769,
				"z": 1.4799888017,
				"element": "C" 
			},
			{
				"x": -0.5903979726,
				"y": 0.3879132427,
				"z": 1.0677949407,
				"element": "C" 
			},
			{
				"x": -0.7865010387,
				"y": 0.638765319,
				"z": -0.2833739686,
				"element": "C" 
			},
			{
				"x": -0.467856307,
				"y": -0.3438453347,
				"z": -1.2327882268,
				"element": "C" 
			},
			{
				"x": 0.3470084599,
				"y": -2.9150200708,
				"z": -3.9753847551,
				"element": "H" 
			},
			{
				"x": 0.7650411392,
				"y": -3.5393816383,
				"z": -1.5865582503,
				"element": "H" 
			},
			{
				"x": 0.6458800625,
				"y": -2.7868257619,
				"z": 0.8731905943,
				"element": "H" 
			},
			{
				"x": 0.0799074356,
				"y": -1.0452925771,
				"z": 2.5377383716,
				"element": "H" 
			},
			{
				"x": -0.8359249681,
				"y": 1.1461950696,
				"z": 1.8047300718,
				"element": "H" 
			},
			{
				"x": -1.1842992592,
				"y": 1.5846248419,
				"z": -0.6351739084,
				"element": "H" 
			}
		],
		 "valence_orbital": [ 
			{
				"type": "occ",
				"energy": -0.35319,
				"method": "rhf"
			},
			{
				"type": "occ",
				"energy": -0.30194,
				"method": "rhf"
			},
			{
				"type": "occ",
				"energy": -0.27608,
				"method": "rhf"
			},
			{
				"type": "occ",
				"energy": -0.26856,
				"method": "rhf"
			},
			{
				"type": "occ",
				"energy": -0.23006,
				"method": "rhf"
			},
			{
				"type": "unocc",
				"energy": -0.05343,
				"method": "rhf"
			},
			{
				"type": "unocc",
				"energy": -0.03885,
				"method": "rhf"
			},
			{
				"type": "unocc",
				"energy": 0.03141,
				"method": "rhf"
			},
			{
				"type": "unocc",
				"energy": 0.0643,
				"method": "rhf"
			},
			{
				"type": "unocc",
				"energy": 0.08629,
				"method": "rhf"
			}
		],
		"cosmo_sigma_profile": { 
			"-0.025": 0.0,
			"-0.024": 0.0,
			"-0.023": 0.0,
			"-0.022": 0.0,
			"-0.021": 0.0,
			"-0.02": 0.0,
			"-0.019": 0.0,
			"-0.018": 0.0,
			"-0.017": 0.0,
			"-0.016": 0.0,
			"-0.015": 0.0,
			"-0.014": 0.0,
			"-0.013": 0.0,
			"-0.012": 0.0,
			"-0.011": 0.0,
			"-0.01": 0.271948659159,
			"-0.009": 2.33634644154,
			"-0.008": 2.69295813725,
			"-0.007": 10.1239908266,
			"-0.006": 11.1879700845,
			"-0.005": 11.6456775575,
			"-0.004": 12.3429662116,
			"-0.003": 9.95254981891,
			"-0.002": 10.3806297533,
			"-0.001": 10.3847249036,
			"0.0": 13.732386922,
			"0.001": 15.012926043,
			"0.002": 16.6920351834,
			"0.003": 15.4569640252,
			"0.004": 4.97350955308,
			"0.005": 2.19769959005,
			"0.006": 1.89508361586,
			"0.007": 2.67866998553,
			"0.008": 2.67145263579,
			"0.009": 2.18485677549,
			"0.01": 3.25546790711,
			"0.011": 4.1664521021,
			"0.012": 4.96328498524,
			"0.013": 1.29684906177,
			"0.014": 0.00275817135778,
			"0.015": 0.0,
			"0.016": 0.0,
			"0.017": 0.0,
			"0.018": 0.0,
			"0.019": 0.0,
			"0.02": 0.0,
			"0.021": 0.0,
			"0.022": 0.0,
			"0.023": 0.0,
			"0.024": 0.0,
			"0.025": 0.0
		}
	}
}
