{
	 "smiles": "COC1=C(OC)C=C(CN2N=CC=C2N)C=C1", 
	 "Tm": 290.15, 
	 "num_atms": 32, 
	 "gaussian": { 
		 "optdone": 1, 
		 "sigma_profile": "yes", 
		 "theory": "DFT", 
		 "functional": "B3LYP", 
		 "basiset": "6-31G**", 
		 "properties": { 
			 "R2extent": 5458.7821, 
			 "electric_dipole_moment_norm": 3.65416376343, 
			 "electric_quadrupole_moment_norm": 13.656313943, 
			 "total_energy": -780.963171727, 
			 "HOMO_LUMO_gap": 0.19406, 
			 "cosmo_polarized_energy": -14.33, 
			 "cosmo_cavitation_energy": 35.51, 
			 "cosmo_dispersion_energy": -24.81, 
			 "cosmo_repulsion_energy": 1.95, 
			 "cosmo_total_nonelectrostatic_energy": 12.65, 
			 "SMD_solvation_energy": 6.71 
		},
		"coords": [
			{
				"x": -1.1872342151,
				"y": -2.1710658582,
				"z": -2.9172697365,
				"element": "C" 
			},
			{
				"x": 0.0080080575,
				"y": -2.6571108699,
				"z": -2.2948317559,
				"element": "O" 
			},
			{
				"x": 0.4600100885,
				"y": -1.8988559872,
				"z": -1.2376069717,
				"element": "C" 
			},
			{
				"x": -0.2340789198,
				"y": -1.8497421007,
				"z": -0.0156301881,
				"element": "C" 
			},
			{
				"x": -1.4304640369,
				"y": -2.5084189156,
				"z": 0.1643899765,
				"element": "O" 
			},
			{
				"x": -1.3313483166,
				"y": -3.9381772439,
				"z": 0.1949020535,
				"element": "C" 
			},
			{
				"x": 0.2705808021,
				"y": -1.0756294791,
				"z": 1.0327931232,
				"element": "C" 
			},
			{
				"x": 1.4664314595,
				"y": -0.3635911104,
				"z": 0.8947581394,
				"element": "C" 
			},
			{
				"x": 2.0164240623,
				"y": 0.4565521498,
				"z": 2.0506049836,
				"element": "C" 
			},
			{
				"x": 2.3524991447,
				"y": 1.8210710357,
				"z": 1.6834168675,
				"element": "N" 
			},
			{
				"x": 3.6528477852,
				"y": 2.1817831037,
				"z": 1.470127568,
				"element": "N" 
			},
			{
				"x": 3.5831656274,
				"y": 3.4662863129,
				"z": 1.1327191196,
				"element": "C" 
			},
			{
				"x": 2.255089771,
				"y": 3.9460743693,
				"z": 1.0973359467,
				"element": "C" 
			},
			{
				"x": 1.4850535394,
				"y": 2.846481673,
				"z": 1.4494713322,
				"element": "C" 
			},
			{
				"x": 0.1116166904,
				"y": 2.678631807,
				"z": 1.6511244144,
				"element": "N" 
			},
			{
				"x": 2.163829041,
				"y": -0.43653064,
				"z": -0.3185605813,
				"element": "C" 
			},
			{
				"x": 1.6596011084,
				"y": -1.1942655738,
				"z": -1.3727714125,
				"element": "C" 
			},
			{
				"x": -1.4181661121,
				"y": -2.8703578534,
				"z": -3.7234210058,
				"element": "H" 
			},
			{
				"x": -1.0247394623,
				"y": -1.1720563487,
				"z": -3.3412415857,
				"element": "H" 
			},
			{
				"x": -2.0204167282,
				"y": -2.1348388664,
				"z": -2.2085059677,
				"element": "H" 
			},
			{
				"x": -0.7065521564,
				"y": -4.2648765664,
				"z": 1.0355449907,
				"element": "H" 
			},
			{
				"x": -0.9178418011,
				"y": -4.3292310156,
				"z": -0.7396027964,
				"element": "H" 
			},
			{
				"x": -2.3477722012,
				"y": -4.3115363513,
				"z": 0.3351335331,
				"element": "H" 
			},
			{
				"x": -0.2916597899,
				"y": -1.051734816,
				"z": 1.9627619733,
				"element": "H" 
			},
			{
				"x": 1.291075474,
				"y": 0.4848844051,
				"z": 2.8707601733,
				"element": "H" 
			},
			{
				"x": 2.9439525532,
				"y": 0.0217431751,
				"z": 2.4322945056,
				"element": "H" 
			},
			{
				"x": 4.4943265175,
				"y": 4.0102680371,
				"z": 0.9192653087,
				"element": "H" 
			},
			{
				"x": 1.903468404,
				"y": 4.9363329473,
				"z": 0.847891526,
				"element": "H" 
			},
			{
				"x": -0.2698753299,
				"y": 1.8774386561,
				"z": 1.1568067651,
				"element": "H" 
			},
			{
				"x": -0.4089694031,
				"y": 3.5115988189,
				"z": 1.4074457084,
				"element": "H" 
			},
			{
				"x": 3.0918536881,
				"y": 0.1158458443,
				"z": -0.4332279836,
				"element": "H" 
			},
			{
				"x": 2.1828846585,
				"y": -1.2553727387,
				"z": -2.3219780235,
				"element": "H" 
			}
		],
		 "valence_orbital": [ 
			{
				"type": "occ",
				"energy": -0.26881,
				"method": "rhf"
			},
			{
				"type": "occ",
				"energy": -0.24895,
				"method": "rhf"
			},
			{
				"type": "occ",
				"energy": -0.23954,
				"method": "rhf"
			},
			{
				"type": "occ",
				"energy": -0.22675,
				"method": "rhf"
			},
			{
				"type": "occ",
				"energy": -0.20151,
				"method": "rhf"
			},
			{
				"type": "unocc",
				"energy": -0.00745,
				"method": "rhf"
			},
			{
				"type": "unocc",
				"energy": -0.00608,
				"method": "rhf"
			},
			{
				"type": "unocc",
				"energy": 0.04096,
				"method": "rhf"
			},
			{
				"type": "unocc",
				"energy": 0.07822,
				"method": "rhf"
			},
			{
				"type": "unocc",
				"energy": 0.08293,
				"method": "rhf"
			}
		],
		"cosmo_sigma_profile": { 
			"-0.025": 0.0,
			"-0.024": 0.0,
			"-0.023": 0.0,
			"-0.022": 0.0,
			"-0.021": 0.0,
			"-0.02": 0.0,
			"-0.019": 0.0,
			"-0.018": 0.0,
			"-0.017": 0.0,
			"-0.016": 0.0,
			"-0.015": 0.0,
			"-0.014": 0.00850250112418,
			"-0.013": 0.943115068607,
			"-0.012": 1.6368715151,
			"-0.011": 1.55628833028,
			"-0.01": 2.77755741489,
			"-0.009": 2.14127379228,
			"-0.008": 2.50945984001,
			"-0.007": 4.89516492024,
			"-0.006": 14.4266035711,
			"-0.005": 19.6499050974,
			"-0.004": 23.5623914688,
			"-0.003": 29.419643016,
			"-0.002": 24.7601924954,
			"-0.001": 19.3979015552,
			"0.0": 18.7078627721,
			"0.001": 13.4062781095,
			"0.002": 17.4235626825,
			"0.003": 15.7043088538,
			"0.004": 15.6859298725,
			"0.005": 12.3694722124,
			"0.006": 9.13108707153,
			"0.007": 7.72632707757,
			"0.008": 3.46857507038,
			"0.009": 4.64837796021,
			"0.01": 4.07957643044,
			"0.011": 3.28323616755,
			"0.012": 3.22622336451,
			"0.013": 1.5917486918,
			"0.014": 1.34124601294,
			"0.015": 0.642189718225,
			"0.016": 1.161364395,
			"0.017": 0.234641057586,
			"0.018": 0.0,
			"0.019": 0.0,
			"0.02": 0.0,
			"0.021": 0.0,
			"0.022": 0.0,
			"0.023": 0.0,
			"0.024": 0.0,
			"0.025": 0.0
		}
	}
}
