{
	 "smiles": "CN1CCCN(CC1)C1=CC=C(CO)C=C1", 
	 "Tm": 370.15, 
	 "num_atms": 36, 
	 "gaussian": { 
		 "optdone": 1, 
		 "sigma_profile": "yes", 
		 "theory": "DFT", 
		 "functional": "B3LYP", 
		 "basiset": "6-31G**", 
		 "properties": { 
			 "R2extent": 4882.3977, 
			 "electric_dipole_moment_norm": 2.78264630523, 
			 "electric_quadrupole_moment_norm": 13.1216218975, 
			 "total_energy": -692.132596205, 
			 "HOMO_LUMO_gap": 0.18781, 
			 "cosmo_polarized_energy": -10.28, 
			 "cosmo_cavitation_energy": 34.87, 
			 "cosmo_dispersion_energy": -25.19, 
			 "cosmo_repulsion_energy": 1.95, 
			 "cosmo_total_nonelectrostatic_energy": 11.63, 
			 "SMD_solvation_energy": 2.55 
		},
		"coords": [
			{
				"x": -2.7276231169,
				"y": -0.5184638013,
				"z": -0.2253840014,
				"element": "C" 
			},
			{
				"x": -2.4751984101,
				"y": 0.6368461785,
				"z": -1.0738526884,
				"element": "N" 
			},
			{
				"x": -2.0750592207,
				"y": 1.8430645398,
				"z": -0.360672472,
				"element": "C" 
			},
			{
				"x": -0.7742457382,
				"y": 1.7648810282,
				"z": 0.4756556667,
				"element": "C" 
			},
			{
				"x": 0.5072317244,
				"y": 1.6169959035,
				"z": -0.3595109686,
				"element": "C" 
			},
			{
				"x": 0.4941401898,
				"y": 0.5064339069,
				"z": -1.3082503263,
				"element": "N" 
			},
			{
				"x": -0.3277955536,
				"y": 0.7413924636,
				"z": -2.4857963736,
				"element": "C" 
			},
			{
				"x": -1.8299986393,
				"y": 0.3604555094,
				"z": -2.3531336021,
				"element": "C" 
			},
			{
				"x": 0.86495684,
				"y": -0.7838302115,
				"z": -0.9317630799,
				"element": "C" 
			},
			{
				"x": 0.7644962309,
				"y": -1.8687360027,
				"z": -1.8331351882,
				"element": "C" 
			},
			{
				"x": 1.1882773952,
				"y": -3.1453521682,
				"z": -1.4749927329,
				"element": "C" 
			},
			{
				"x": 1.7273217152,
				"y": -3.4173156665,
				"z": -0.2141574468,
				"element": "C" 
			},
			{
				"x": 2.2142753749,
				"y": -4.7984994288,
				"z": 0.1647330508,
				"element": "C" 
			},
			{
				"x": 1.9034697074,
				"y": -5.1618404908,
				"z": 1.5071597571,
				"element": "O" 
			},
			{
				"x": 1.8065396051,
				"y": -2.3524676988,
				"z": 0.6911151771,
				"element": "C" 
			},
			{
				"x": 1.3813621031,
				"y": -1.0716320387,
				"z": 0.3541691769,
				"element": "C" 
			},
			{
				"x": -1.8291824655,
				"y": -1.003270843,
				"z": 0.1914742299,
				"element": "H" 
			},
			{
				"x": -3.2795338372,
				"y": -1.275672192,
				"z": -0.7924631062,
				"element": "H" 
			},
			{
				"x": -3.3640625314,
				"y": -0.2135388603,
				"z": 0.6137899507,
				"element": "H" 
			},
			{
				"x": -2.8946189889,
				"y": 2.1165796068,
				"z": 0.3180936138,
				"element": "H" 
			},
			{
				"x": -1.9977302186,
				"y": 2.6631270441,
				"z": -1.087728647,
				"element": "H" 
			},
			{
				"x": -0.690617152,
				"y": 2.678044063,
				"z": 1.081454392,
				"element": "H" 
			},
			{
				"x": -0.8521076021,
				"y": 0.9309614669,
				"z": 1.182976752,
				"element": "H" 
			},
			{
				"x": 1.3818851556,
				"y": 1.528850969,
				"z": 0.2902611677,
				"element": "H" 
			},
			{
				"x": 0.6605010296,
				"y": 2.5338330392,
				"z": -0.9435535802,
				"element": "H" 
			},
			{
				"x": -0.2518055806,
				"y": 1.8107837691,
				"z": -2.7063925875,
				"element": "H" 
			},
			{
				"x": 0.0937774058,
				"y": 0.2319305927,
				"z": -3.3604892356,
				"element": "H" 
			},
			{
				"x": -2.3549775964,
				"y": 0.8903590092,
				"z": -3.1650533165,
				"element": "H" 
			},
			{
				"x": -1.9526933635,
				"y": -0.7077670883,
				"z": -2.5547304469,
				"element": "H" 
			},
			{
				"x": 0.3530607386,
				"y": -1.7216433969,
				"z": -2.8243759068,
				"element": "H" 
			},
			{
				"x": 1.090597996,
				"y": -3.94985876,
				"z": -2.2013634508,
				"element": "H" 
			},
			{
				"x": 1.8221043483,
				"y": -5.5366685006,
				"z": -0.5538826238,
				"element": "H" 
			},
			{
				"x": 3.3085358363,
				"y": -4.8553442416,
				"z": 0.1081815448,
				"element": "H" 
			},
			{
				"x": 0.953857722,
				"y": -5.0234081999,
				"z": 1.6238627955,
				"element": "H" 
			},
			{
				"x": 2.1947047521,
				"y": -2.5386541995,
				"z": 1.6887433197,
				"element": "H" 
			},
			{
				"x": 1.4501541447,
				"y": -0.2941753007,
				"z": 1.1052111866,
				"element": "H" 
			}
		],
		 "valence_orbital": [ 
			{
				"type": "occ",
				"energy": -0.28115,
				"method": "rhf"
			},
			{
				"type": "occ",
				"energy": -0.26032,
				"method": "rhf"
			},
			{
				"type": "occ",
				"energy": -0.24248,
				"method": "rhf"
			},
			{
				"type": "occ",
				"energy": -0.19674,
				"method": "rhf"
			},
			{
				"type": "occ",
				"energy": -0.18359,
				"method": "rhf"
			},
			{
				"type": "unocc",
				"energy": 0.00422,
				"method": "rhf"
			},
			{
				"type": "unocc",
				"energy": 0.01554,
				"method": "rhf"
			},
			{
				"type": "unocc",
				"energy": 0.07714,
				"method": "rhf"
			},
			{
				"type": "unocc",
				"energy": 0.09189,
				"method": "rhf"
			},
			{
				"type": "unocc",
				"energy": 0.09906,
				"method": "rhf"
			}
		],
		"cosmo_sigma_profile": { 
			"-0.025": 0.0,
			"-0.024": 0.0,
			"-0.023": 0.0,
			"-0.022": 0.0,
			"-0.021": 0.0,
			"-0.02": 0.0,
			"-0.019": 0.0,
			"-0.018": 0.0,
			"-0.017": 0.0,
			"-0.016": 0.0,
			"-0.015": 0.39270571355,
			"-0.014": 0.73346510341,
			"-0.013": 1.13505950207,
			"-0.012": 0.407334305339,
			"-0.011": 0.524161040301,
			"-0.01": 1.46921934686,
			"-0.009": 0.480640561119,
			"-0.008": 0.500931177019,
			"-0.007": 0.771873716084,
			"-0.006": 4.30257002513,
			"-0.005": 12.457658194,
			"-0.004": 21.9374718604,
			"-0.003": 35.9130127618,
			"-0.002": 39.273760366,
			"-0.001": 31.9226468386,
			"0.0": 27.079807936,
			"0.001": 16.5221823836,
			"0.002": 10.7159529412,
			"0.003": 11.0108870702,
			"0.004": 8.8904934354,
			"0.005": 8.85483004082,
			"0.006": 10.5488154414,
			"0.007": 9.08935344838,
			"0.008": 3.12247459048,
			"0.009": 1.971243101,
			"0.01": 1.76968123407,
			"0.011": 1.6392230694,
			"0.012": 1.58760376268,
			"0.013": 2.36868122149,
			"0.014": 2.61184139042,
			"0.015": 1.18759517119,
			"0.016": 0.0789939945658,
			"0.017": 0.0,
			"0.018": 0.0,
			"0.019": 0.0,
			"0.02": 0.0,
			"0.021": 0.0,
			"0.022": 0.0,
			"0.023": 0.0,
			"0.024": 0.0,
			"0.025": 0.0
		}
	}
}
