{
	 "smiles": "[O-][N+](=O)C1=CC(=CC=C1)N1C(=O)CNC1=O", 
	 "Tm": 438.15, 
	 "num_atms": 23, 
	 "gaussian": { 
		 "optdone": 1, 
		 "sigma_profile": "yes", 
		 "theory": "DFT", 
		 "functional": "B3LYP", 
		 "basiset": "6-31G**", 
		 "properties": { 
			 "R2extent": 3969.7106, 
			 "electric_dipole_moment_norm": 6.40780274743, 
			 "electric_quadrupole_moment_norm": 22.7357387021, 
			 "total_energy": -812.257853776, 
			 "HOMO_LUMO_gap": 0.17146, 
			 "cosmo_polarized_energy": -18.94, 
			 "cosmo_cavitation_energy": 28.71, 
			 "cosmo_dispersion_energy": -21.17, 
			 "cosmo_repulsion_energy": 1.64, 
			 "cosmo_total_nonelectrostatic_energy": 9.18, 
			 "SMD_solvation_energy": 7.93 
		},
		"coords": [
			{
				"x": -1.8928689641,
				"y": -1.7589057845,
				"z": 3.8911980324,
				"element": "O" 
			},
			{
				"x": -1.9030251428,
				"y": -0.978775363,
				"z": 2.9395932607,
				"element": "N" 
			},
			{
				"x": -2.8867103522,
				"y": -0.3458539299,
				"z": 2.5612910649,
				"element": "O" 
			},
			{
				"x": -0.6391306527,
				"y": -0.7878546966,
				"z": 2.2038659584,
				"element": "C" 
			},
			{
				"x": -0.6369446753,
				"y": 0.069300374,
				"z": 1.1084275904,
				"element": "C" 
			},
			{
				"x": 0.5625235974,
				"y": 0.2480386852,
				"z": 0.4127484053,
				"element": "C" 
			},
			{
				"x": 1.724761252,
				"y": -0.4180649474,
				"z": 0.8279585014,
				"element": "C" 
			},
			{
				"x": 1.684950736,
				"y": -1.2605457611,
				"z": 1.9391850368,
				"element": "C" 
			},
			{
				"x": 0.4989756574,
				"y": -1.4610370854,
				"z": 2.6405242939,
				"element": "C" 
			},
			{
				"x": 0.6051600372,
				"y": 1.1187019907,
				"z": -0.7137369108,
				"element": "N" 
			},
			{
				"x": 1.6957722381,
				"y": 1.9091203674,
				"z": -1.0777981767,
				"element": "C" 
			},
			{
				"x": 2.7718825188,
				"y": 1.9801460245,
				"z": -0.5249870741,
				"element": "O" 
			},
			{
				"x": 1.2734727288,
				"y": 2.6802956607,
				"z": -2.3287922256,
				"element": "C" 
			},
			{
				"x": -0.0803506671,
				"y": 2.2230213648,
				"z": -2.5351630346,
				"element": "N" 
			},
			{
				"x": -0.4892393216,
				"y": 1.288633604,
				"z": -1.6260615604,
				"element": "C" 
			},
			{
				"x": -1.5527788509,
				"y": 0.7101307167,
				"z": -1.5798126307,
				"element": "O" 
			},
			{
				"x": -1.5510315394,
				"y": 0.5581666486,
				"z": 0.8057206075,
				"element": "H" 
			},
			{
				"x": 2.6528462645,
				"y": -0.2614599496,
				"z": 0.2949100651,
				"element": "H" 
			},
			{
				"x": 2.5905590726,
				"y": -1.7679907519,
				"z": 2.255113274,
				"element": "H" 
			},
			{
				"x": 0.4386162505,
				"y": -2.1139019836,
				"z": 3.5015869235,
				"element": "H" 
			},
			{
				"x": 1.3451275222,
				"y": 3.7570787896,
				"z": -2.1354620879,
				"element": "H" 
			},
			{
				"x": 1.9488442299,
				"y": 2.4327087439,
				"z": -3.1566784452,
				"element": "H" 
			},
			{
				"x": -0.6721119394,
				"y": 2.4610472829,
				"z": -3.3147308683,
				"element": "H" 
			}
		],
		 "valence_orbital": [ 
			{
				"type": "occ",
				"energy": -0.28952,
				"method": "rhf"
			},
			{
				"type": "occ",
				"energy": -0.28883,
				"method": "rhf"
			},
			{
				"type": "occ",
				"energy": -0.2838,
				"method": "rhf"
			},
			{
				"type": "occ",
				"energy": -0.28081,
				"method": "rhf"
			},
			{
				"type": "occ",
				"energy": -0.25879,
				"method": "rhf"
			},
			{
				"type": "unocc",
				"energy": -0.08733,
				"method": "rhf"
			},
			{
				"type": "unocc",
				"energy": -0.04052,
				"method": "rhf"
			},
			{
				"type": "unocc",
				"energy": -0.02196,
				"method": "rhf"
			},
			{
				"type": "unocc",
				"energy": 0.00016,
				"method": "rhf"
			},
			{
				"type": "unocc",
				"energy": 0.0504,
				"method": "rhf"
			}
		],
		"cosmo_sigma_profile": { 
			"-0.025": 0.0,
			"-0.024": 0.0,
			"-0.023": 0.0,
			"-0.022": 0.0,
			"-0.021": 0.0,
			"-0.02": 0.0,
			"-0.019": 0.0,
			"-0.018": 0.0,
			"-0.017": 0.0231178959873,
			"-0.016": 1.26175206494,
			"-0.015": 1.19801063622,
			"-0.014": 1.28377325691,
			"-0.013": 1.05527582681,
			"-0.012": 0.906262024631,
			"-0.011": 1.15014101703,
			"-0.01": 0.566285529787,
			"-0.009": 3.23597571865,
			"-0.008": 9.77013058882,
			"-0.007": 13.7973358189,
			"-0.006": 16.8131432872,
			"-0.005": 15.3709095614,
			"-0.004": 10.831731836,
			"-0.003": 11.1508463327,
			"-0.002": 12.0914113485,
			"-0.001": 14.9271048158,
			"0.0": 16.485360661,
			"0.001": 15.2114197651,
			"0.002": 10.7431299953,
			"0.003": 4.89221808219,
			"0.004": 6.39819736763,
			"0.005": 5.71303791545,
			"0.006": 7.41863699121,
			"0.007": 11.4049484891,
			"0.008": 10.0465544555,
			"0.009": 7.55915859464,
			"0.01": 5.89518719379,
			"0.011": 6.8437306099,
			"0.012": 5.92285688801,
			"0.013": 0.91772900896,
			"0.014": 0.0,
			"0.015": 0.0,
			"0.016": 0.0,
			"0.017": 0.0,
			"0.018": 0.0,
			"0.019": 0.0,
			"0.02": 0.0,
			"0.021": 0.0,
			"0.022": 0.0,
			"0.023": 0.0,
			"0.024": 0.0,
			"0.025": 0.0
		}
	}
}
