{
	 "smiles": "NC1=C(C=C(C=C1)N1N=CC=N1)C(F)(F)F", 
	 "Tm": 358.15, 
	 "num_atms": 23, 
	 "gaussian": { 
		 "optdone": 1, 
		 "sigma_profile": "yes", 
		 "theory": "DFT", 
		 "functional": "B3LYP", 
		 "basiset": "6-31G**", 
		 "properties": { 
			 "R2extent": 4457.2363, 
			 "electric_dipole_moment_norm": 2.45605972647, 
			 "electric_quadrupole_moment_norm": 17.1721064043, 
			 "total_energy": -865.679157048, 
			 "HOMO_LUMO_gap": 0.17326, 
			 "cosmo_polarized_energy": -10.24, 
			 "cosmo_cavitation_energy": 28.93, 
			 "cosmo_dispersion_energy": -21.15, 
			 "cosmo_repulsion_energy": 1.56, 
			 "cosmo_total_nonelectrostatic_energy": 9.34, 
			 "SMD_solvation_energy": 4.96 
		},
		"coords": [
			{
				"x": -0.1194053561,
				"y": 2.9061317709,
				"z": 3.2742658321,
				"element": "N" 
			},
			{
				"x": -0.3387539289,
				"y": 2.0736021669,
				"z": 2.1912444108,
				"element": "C" 
			},
			{
				"x": 0.201339293,
				"y": 0.7660033417,
				"z": 2.1219235991,
				"element": "C" 
			},
			{
				"x": -0.0000187189,
				"y": -0.0308266145,
				"z": 0.9957350965,
				"element": "C" 
			},
			{
				"x": -0.736950887,
				"y": 0.4525058434,
				"z": -0.08206844,
				"element": "C" 
			},
			{
				"x": -1.2752910101,
				"y": 1.7420672341,
				"z": -0.0382818468,
				"element": "C" 
			},
			{
				"x": -1.0766833962,
				"y": 2.5325700491,
				"z": 1.0831858411,
				"element": "C" 
			},
			{
				"x": -0.9421563339,
				"y": -0.366708114,
				"z": -1.2255807182,
				"element": "N" 
			},
			{
				"x": -1.6409840193,
				"y": 0.0507786292,
				"z": -2.285548523,
				"element": "N" 
			},
			{
				"x": -1.5982343797,
				"y": -0.9901661405,
				"z": -3.1196249187,
				"element": "C" 
			},
			{
				"x": -0.8575969415,
				"y": -2.0199547082,
				"z": -2.5162156496,
				"element": "C" 
			},
			{
				"x": -0.449735409,
				"y": -1.6056555313,
				"z": -1.3151104878,
				"element": "N" 
			},
			{
				"x": 1.0360925334,
				"y": 0.2360855055,
				"z": 3.2518168447,
				"element": "C" 
			},
			{
				"x": 2.1921830143,
				"y": 0.9235783423,
				"z": 3.3990838448,
				"element": "F" 
			},
			{
				"x": 1.3567690627,
				"y": -1.061354391,
				"z": 3.0989779936,
				"element": "F" 
			},
			{
				"x": 0.3865340804,
				"y": 0.3432813981,
				"z": 4.4516553206,
				"element": "F" 
			},
			{
				"x": -0.7379445127,
				"y": 3.6997980144,
				"z": 3.3506861989,
				"element": "H" 
			},
			{
				"x": 0.0847795871,
				"y": 2.4644750672,
				"z": 4.158115088,
				"element": "H" 
			},
			{
				"x": 0.4140955875,
				"y": -1.0292487289,
				"z": 0.9549176036,
				"element": "H" 
			},
			{
				"x": -1.8478754024,
				"y": 2.1092155071,
				"z": -0.8811980907,
				"element": "H" 
			},
			{
				"x": -1.498902541,
				"y": 3.5333621094,
				"z": 1.1113688293,
				"element": "H" 
			},
			{
				"x": -2.0856967153,
				"y": -0.9511398313,
				"z": -4.082435397,
				"element": "H" 
			},
			{
				"x": -0.6076636064,
				"y": -3.0062009196,
				"z": -2.8781124315,
				"element": "H" 
			}
		],
		 "valence_orbital": [ 
			{
				"type": "occ",
				"energy": -0.29544,
				"method": "rhf"
			},
			{
				"type": "occ",
				"energy": -0.29282,
				"method": "rhf"
			},
			{
				"type": "occ",
				"energy": -0.27983,
				"method": "rhf"
			},
			{
				"type": "occ",
				"energy": -0.27062,
				"method": "rhf"
			},
			{
				"type": "occ",
				"energy": -0.2092,
				"method": "rhf"
			},
			{
				"type": "unocc",
				"energy": -0.03594,
				"method": "rhf"
			},
			{
				"type": "unocc",
				"energy": -0.02572,
				"method": "rhf"
			},
			{
				"type": "unocc",
				"energy": 0.02896,
				"method": "rhf"
			},
			{
				"type": "unocc",
				"energy": 0.0538,
				"method": "rhf"
			},
			{
				"type": "unocc",
				"energy": 0.07842,
				"method": "rhf"
			}
		],
		"cosmo_sigma_profile": { 
			"-0.025": 0.0,
			"-0.024": 0.0,
			"-0.023": 0.0,
			"-0.022": 0.0,
			"-0.021": 0.0,
			"-0.02": 0.0,
			"-0.019": 0.0,
			"-0.018": 0.0,
			"-0.017": 0.0,
			"-0.016": 0.0,
			"-0.015": 0.0,
			"-0.014": 0.442937921282,
			"-0.013": 1.63593344544,
			"-0.012": 1.97776917267,
			"-0.011": 2.72326844854,
			"-0.01": 2.70764402832,
			"-0.009": 4.24071314743,
			"-0.008": 6.46966190494,
			"-0.007": 6.11379723306,
			"-0.006": 9.13398147254,
			"-0.005": 7.5254984675,
			"-0.004": 7.78713558617,
			"-0.003": 9.55612848975,
			"-0.002": 9.53733447516,
			"-0.001": 13.19971968,
			"0.0": 19.4823027818,
			"0.001": 25.3886431299,
			"0.002": 39.6641780333,
			"0.003": 32.6735216648,
			"0.004": 7.96237431008,
			"0.005": 5.5795228258,
			"0.006": 3.83474338267,
			"0.007": 3.19870045905,
			"0.008": 4.13517265486,
			"0.009": 3.20454252425,
			"0.01": 2.82139982848,
			"0.011": 1.97447549514,
			"0.012": 0.243185340048,
			"0.013": 0.0,
			"0.014": 0.0,
			"0.015": 0.0,
			"0.016": 0.0,
			"0.017": 0.0,
			"0.018": 0.0,
			"0.019": 0.0,
			"0.02": 0.0,
			"0.021": 0.0,
			"0.022": 0.0,
			"0.023": 0.0,
			"0.024": 0.0,
			"0.025": 0.0
		}
	}
}
