{
	 "smiles": "CS(=O)(=O)C1=CC(Cl)=C(O)C(Cl)=C1", 
	 "Tm": 497.15, 
	 "num_atms": 19, 
	 "gaussian": { 
		 "optdone": 1, 
		 "sigma_profile": "yes", 
		 "theory": "DFT", 
		 "functional": "B3LYP", 
		 "basiset": "6-31G**", 
		 "properties": { 
			 "R2extent": 4165.3426, 
			 "electric_dipole_moment_norm": 4.35159900496, 
			 "electric_quadrupole_moment_norm": 14.319887435, 
			 "total_energy": -1814.53340095, 
			 "HOMO_LUMO_gap": 0.21093, 
			 "cosmo_polarized_energy": -16.49, 
			 "cosmo_cavitation_energy": 28.51, 
			 "cosmo_dispersion_energy": -21.56, 
			 "cosmo_repulsion_energy": 1.67, 
			 "cosmo_total_nonelectrostatic_energy": 8.62, 
			 "SMD_solvation_energy": 4.52 
		},
		"coords": [
			{
				"x": -3.5976812015,
				"y": 0.9246656046,
				"z": 1.0267974124,
				"element": "C" 
			},
			{
				"x": -2.5639369863,
				"y": 0.6526485169,
				"z": -0.4320522674,
				"element": "S" 
			},
			{
				"x": -2.1693721241,
				"y": 1.9718302301,
				"z": -0.9464154215,
				"element": "O" 
			},
			{
				"x": -3.2481841248,
				"y": -0.3327948179,
				"z": -1.2821694135,
				"element": "O" 
			},
			{
				"x": -1.0889765737,
				"y": -0.1373953873,
				"z": 0.2301883435,
				"element": "C" 
			},
			{
				"x": -1.0273041449,
				"y": -1.5291777133,
				"z": 0.2731976232,
				"element": "C" 
			},
			{
				"x": 0.1173730051,
				"y": -2.1219795512,
				"z": 0.7893003435,
				"element": "C" 
			},
			{
				"x": 0.2486971331,
				"y": -3.8744711825,
				"z": 0.862740717,
				"element": "Cl" 
			},
			{
				"x": 1.206096668,
				"y": -1.3632641444,
				"z": 1.2597020036,
				"element": "C" 
			},
			{
				"x": 2.3241220124,
				"y": -1.911075049,
				"z": 1.7631358706,
				"element": "O" 
			},
			{
				"x": 1.1078191416,
				"y": 0.0404099202,
				"z": 1.1872661666,
				"element": "C" 
			},
			{
				"x": 2.4465366393,
				"y": 1.007794507,
				"z": 1.7458020382,
				"element": "Cl" 
			},
			{
				"x": -0.0280661855,
				"y": 0.6541280749,
				"z": 0.6728479232,
				"element": "C" 
			},
			{
				"x": -4.5088315139,
				"y": 1.4074181398,
				"z": 0.6672147272,
				"element": "H" 
			},
			{
				"x": -3.8328083374,
				"y": -0.0366371612,
				"z": 1.4855080382,
				"element": "H" 
			},
			{
				"x": -3.0717600164,
				"y": 1.5782889005,
				"z": 1.7239383738,
				"element": "H" 
			},
			{
				"x": -1.8442412445,
				"y": -2.13057101,
				"z": -0.1082637672,
				"element": "H" 
			},
			{
				"x": 2.2457104303,
				"y": -2.8780076347,
				"z": 1.732414317,
				"element": "H" 
			},
			{
				"x": -0.078592577,
				"y": 1.7340897576,
				"z": 0.5955469716,
				"element": "H" 
			}
		],
		 "valence_orbital": [ 
			{
				"type": "occ",
				"energy": -0.32085,
				"method": "rhf"
			},
			{
				"type": "occ",
				"energy": -0.30514,
				"method": "rhf"
			},
			{
				"type": "occ",
				"energy": -0.29753,
				"method": "rhf"
			},
			{
				"type": "occ",
				"energy": -0.27523,
				"method": "rhf"
			},
			{
				"type": "occ",
				"energy": -0.26019,
				"method": "rhf"
			},
			{
				"type": "unocc",
				"energy": -0.04926,
				"method": "rhf"
			},
			{
				"type": "unocc",
				"energy": -0.0468,
				"method": "rhf"
			},
			{
				"type": "unocc",
				"energy": -0.01782,
				"method": "rhf"
			},
			{
				"type": "unocc",
				"energy": 0.02995,
				"method": "rhf"
			},
			{
				"type": "unocc",
				"energy": 0.06547,
				"method": "rhf"
			}
		],
		"cosmo_sigma_profile": { 
			"-0.025": 0.0,
			"-0.024": 0.0,
			"-0.023": 0.0,
			"-0.022": 0.0,
			"-0.021": 0.0,
			"-0.02": 0.0,
			"-0.019": 0.0,
			"-0.018": 0.0,
			"-0.017": 0.197503728922,
			"-0.016": 1.0479756404,
			"-0.015": 0.315193080936,
			"-0.014": 0.412580459085,
			"-0.013": 0.76736052857,
			"-0.012": 1.4204108327,
			"-0.011": 0.8808279534,
			"-0.01": 1.0358333469,
			"-0.009": 5.08238754625,
			"-0.008": 11.2786088374,
			"-0.007": 9.45260475939,
			"-0.006": 10.4775323326,
			"-0.005": 10.6460103821,
			"-0.004": 11.7399610733,
			"-0.003": 13.1128825208,
			"-0.002": 15.6209608682,
			"-0.001": 21.481596275,
			"0.0": 20.3007710516,
			"0.001": 13.953143103,
			"0.002": 13.5537621862,
			"0.003": 15.104230967,
			"0.004": 10.269783306,
			"0.005": 4.45081530776,
			"0.006": 4.3087480552,
			"0.007": 4.00452650644,
			"0.008": 5.97472217052,
			"0.009": 4.76439833038,
			"0.01": 5.68912909589,
			"0.011": 9.2186154304,
			"0.012": 6.50378402792,
			"0.013": 0.0603128817244,
			"0.014": 0.0,
			"0.015": 0.0,
			"0.016": 0.0,
			"0.017": 0.0,
			"0.018": 0.0,
			"0.019": 0.0,
			"0.02": 0.0,
			"0.021": 0.0,
			"0.022": 0.0,
			"0.023": 0.0,
			"0.024": 0.0,
			"0.025": 0.0
		}
	}
}
