{
	 "smiles": "NC1=NN=C(SCC2=CC=CC=C2)S1", 
	 "Tm": 433.15, 
	 "num_atms": 23, 
	 "gaussian": { 
		 "optdone": 1, 
		 "sigma_profile": "yes", 
		 "theory": "DFT", 
		 "functional": "B3LYP", 
		 "basiset": "6-31G**", 
		 "properties": { 
			 "R2extent": 5449.8886, 
			 "electric_dipole_moment_norm": 1.94163067806, 
			 "electric_quadrupole_moment_norm": 21.8501483974, 
			 "total_energy": -1308.97894156, 
			 "HOMO_LUMO_gap": 0.19249, 
			 "cosmo_polarized_energy": -14.54, 
			 "cosmo_cavitation_energy": 30.71, 
			 "cosmo_dispersion_energy": -23.24, 
			 "cosmo_repulsion_energy": 1.76, 
			 "cosmo_total_nonelectrostatic_energy": 9.22, 
			 "SMD_solvation_energy": 3.02 
		},
		"coords": [
			{
				"x": -4.6737737749,
				"y": 3.547687817,
				"z": 0.9246250661,
				"element": "N" 
			},
			{
				"x": -3.6257165914,
				"y": 3.0719905574,
				"z": 0.1694700454,
				"element": "C" 
			},
			{
				"x": -3.6099545982,
				"y": 1.8952470793,
				"z": -0.386702088,
				"element": "N" 
			},
			{
				"x": -2.4161253344,
				"y": 1.617211169,
				"z": -1.011473355,
				"element": "N" 
			},
			{
				"x": -1.550703268,
				"y": 2.5806138947,
				"z": -0.9391052557,
				"element": "C" 
			},
			{
				"x": 0.0527955192,
				"y": 2.6083965611,
				"z": -1.6691698175,
				"element": "S" 
			},
			{
				"x": 0.147817508,
				"y": 0.8812641113,
				"z": -2.360214003,
				"element": "C" 
			},
			{
				"x": 0.6670862961,
				"y": -0.1557326176,
				"z": -1.3996687168,
				"element": "C" 
			},
			{
				"x": -0.2151352243,
				"y": -0.9018179303,
				"z": -0.6052904218,
				"element": "C" 
			},
			{
				"x": 0.2743767016,
				"y": -1.8686950173,
				"z": 0.2735849171,
				"element": "C" 
			},
			{
				"x": 1.6474007929,
				"y": -2.1031284136,
				"z": 0.3703922075,
				"element": "C" 
			},
			{
				"x": 2.5324381854,
				"y": -1.365244298,
				"z": -0.4185125026,
				"element": "C" 
			},
			{
				"x": 2.043718362,
				"y": -0.3990464218,
				"z": -1.297325215,
				"element": "C" 
			},
			{
				"x": -2.1247476072,
				"y": 3.9878038195,
				"z": -0.0236049684,
				"element": "S" 
			},
			{
				"x": -4.8671076078,
				"y": 4.5370909908,
				"z": 0.8526179665,
				"element": "H" 
			},
			{
				"x": -5.5010700275,
				"y": 2.9702616574,
				"z": 0.8342935222,
				"element": "H" 
			},
			{
				"x": 0.8155981126,
				"y": 0.9989747402,
				"z": -3.2174720397,
				"element": "H" 
			},
			{
				"x": -0.8531581829,
				"y": 0.6446877979,
				"z": -2.7230248355,
				"element": "H" 
			},
			{
				"x": -1.2809582459,
				"y": -0.7092017586,
				"z": -0.6762708219,
				"element": "H" 
			},
			{
				"x": -0.419438083,
				"y": -2.4413627925,
				"z": 0.88264361,
				"element": "H" 
			},
			{
				"x": 2.0258684161,
				"y": -2.8578430301,
				"z": 1.05396814,
				"element": "H" 
			},
			{
				"x": 3.6018958693,
				"y": -1.5444948322,
				"z": -0.3526170655,
				"element": "H" 
			},
			{
				"x": 2.736792782,
				"y": 0.1711369164,
				"z": -1.911844368,
				"element": "H" 
			}
		],
		 "valence_orbital": [ 
			{
				"type": "occ",
				"energy": -0.27001,
				"method": "rhf"
			},
			{
				"type": "occ",
				"energy": -0.26454,
				"method": "rhf"
			},
			{
				"type": "occ",
				"energy": -0.24643,
				"method": "rhf"
			},
			{
				"type": "occ",
				"energy": -0.24005,
				"method": "rhf"
			},
			{
				"type": "occ",
				"energy": -0.21419,
				"method": "rhf"
			},
			{
				"type": "unocc",
				"energy": -0.0217,
				"method": "rhf"
			},
			{
				"type": "unocc",
				"energy": -0.01429,
				"method": "rhf"
			},
			{
				"type": "unocc",
				"energy": -0.00858,
				"method": "rhf"
			},
			{
				"type": "unocc",
				"energy": 0.00219,
				"method": "rhf"
			},
			{
				"type": "unocc",
				"energy": 0.03319,
				"method": "rhf"
			}
		],
		"cosmo_sigma_profile": { 
			"-0.025": 0.0,
			"-0.024": 0.0,
			"-0.023": 0.0,
			"-0.022": 0.0,
			"-0.021": 0.0,
			"-0.02": 0.0,
			"-0.019": 0.0,
			"-0.018": 0.0,
			"-0.017": 0.0,
			"-0.016": 0.0416999660709,
			"-0.015": 1.12050241948,
			"-0.014": 2.36821033907,
			"-0.013": 3.00135344902,
			"-0.012": 2.87489461415,
			"-0.011": 3.10473523984,
			"-0.01": 1.73260192897,
			"-0.009": 2.12828551023,
			"-0.008": 3.0473412015,
			"-0.007": 5.13617406944,
			"-0.006": 9.45655234149,
			"-0.005": 13.6096844673,
			"-0.004": 15.3715404489,
			"-0.003": 17.2423296481,
			"-0.002": 14.7598753629,
			"-0.001": 17.9116757558,
			"0.0": 17.8127611312,
			"0.001": 17.9807647247,
			"0.002": 17.6507340747,
			"0.003": 19.0321001088,
			"0.004": 15.6625735316,
			"0.005": 15.1756465555,
			"0.006": 13.5696858353,
			"0.007": 3.7591506014,
			"0.008": 2.48341802604,
			"0.009": 2.73201313775,
			"0.01": 2.78496948881,
			"0.011": 2.69199711803,
			"0.012": 2.35353659278,
			"0.013": 1.34822112112,
			"0.014": 1.01831402042,
			"0.015": 1.00398794613,
			"0.016": 0.0658956893615,
			"0.017": 0.0,
			"0.018": 0.0,
			"0.019": 0.0,
			"0.02": 0.0,
			"0.021": 0.0,
			"0.022": 0.0,
			"0.023": 0.0,
			"0.024": 0.0,
			"0.025": 0.0
		}
	}
}
