{
	 "smiles": "COC1=CC=CC(OC)=C1Br", 
	 "Tm": 366.15, 
	 "num_atms": 20, 
	 "gaussian": { 
		 "optdone": 1, 
		 "sigma_profile": "yes", 
		 "theory": "DFT", 
		 "functional": "B3LYP", 
		 "basiset": "6-31G**", 
		 "properties": { 
			 "R2extent": 3161.8536, 
			 "electric_dipole_moment_norm": 3.00881090965, 
			 "electric_quadrupole_moment_norm": 9.07923772296, 
			 "total_energy": -3032.08818001, 
			 "HOMO_LUMO_gap": 0.22516, 
			 "cosmo_polarized_energy": -7.47, 
			 "cosmo_cavitation_energy": 25.79, 
			 "cosmo_dispersion_energy": -18.94, 
			 "cosmo_repulsion_energy": 1.53, 
			 "cosmo_total_nonelectrostatic_energy": 8.37, 
			 "SMD_solvation_energy": 5.07 
		},
		"coords": [
			{
				"x": -3.3738441513,
				"y": 0.5049969771,
				"z": 0.1249201312,
				"element": "C" 
			},
			{
				"x": -2.626281508,
				"y": 0.4014506476,
				"z": -1.089569144,
				"element": "O" 
			},
			{
				"x": -1.2871846531,
				"y": 0.1543220735,
				"z": -0.9256111027,
				"element": "C" 
			},
			{
				"x": -0.8255154563,
				"y": -1.1646927218,
				"z": -0.9627656025,
				"element": "C" 
			},
			{
				"x": 0.537870906,
				"y": -1.4355594573,
				"z": -0.8628584583,
				"element": "C" 
			},
			{
				"x": 1.4507519404,
				"y": -0.392666634,
				"z": -0.7173540097,
				"element": "C" 
			},
			{
				"x": 1.0072276978,
				"y": 0.9324947179,
				"z": -0.678351657,
				"element": "C" 
			},
			{
				"x": 1.9273911087,
				"y": 1.9464484521,
				"z": -0.598947243,
				"element": "O" 
			},
			{
				"x": 2.2148306755,
				"y": 2.397635602,
				"z": 0.7270870755,
				"element": "C" 
			},
			{
				"x": -0.3662713866,
				"y": 1.2034322943,
				"z": -0.7792096236,
				"element": "C" 
			},
			{
				"x": -0.9783089705,
				"y": 3.0060961629,
				"z": -0.7692395947,
				"element": "Br" 
			},
			{
				"x": -4.4113004453,
				"y": 0.6760312372,
				"z": -0.1680517022,
				"element": "H" 
			},
			{
				"x": -3.0270597979,
				"y": 1.3459337171,
				"z": 0.7362275573,
				"element": "H" 
			},
			{
				"x": -3.3079334546,
				"y": -0.4218473405,
				"z": 0.7091761468,
				"element": "H" 
			},
			{
				"x": -1.5536569741,
				"y": -1.9586941337,
				"z": -1.0924429724,
				"element": "H" 
			},
			{
				"x": 0.8903024444,
				"y": -2.4615826413,
				"z": -0.9040757096,
				"element": "H" 
			},
			{
				"x": 2.5180575769,
				"y": -0.5776811388,
				"z": -0.6535120815,
				"element": "H" 
			},
			{
				"x": 2.6126856207,
				"y": 1.5817366059,
				"z": 1.3441487802,
				"element": "H" 
			},
			{
				"x": 2.9707172683,
				"y": 3.1787277631,
				"z": 0.6274350571,
				"element": "H" 
			},
			{
				"x": 1.3233215592,
				"y": 2.8160178168,
				"z": 1.208094153,
				"element": "H" 
			}
		],
		 "valence_orbital": [ 
			{
				"type": "occ",
				"energy": -0.28206,
				"method": "rhf"
			},
			{
				"type": "occ",
				"energy": -0.28021,
				"method": "rhf"
			},
			{
				"type": "occ",
				"energy": -0.27281,
				"method": "rhf"
			},
			{
				"type": "occ",
				"energy": -0.24408,
				"method": "rhf"
			},
			{
				"type": "occ",
				"energy": -0.23792,
				"method": "rhf"
			},
			{
				"type": "unocc",
				"energy": -0.01276,
				"method": "rhf"
			},
			{
				"type": "unocc",
				"energy": -0.00619,
				"method": "rhf"
			},
			{
				"type": "unocc",
				"energy": 0.00988,
				"method": "rhf"
			},
			{
				"type": "unocc",
				"energy": 0.10415,
				"method": "rhf"
			},
			{
				"type": "unocc",
				"energy": 0.10637,
				"method": "rhf"
			}
		],
		"cosmo_sigma_profile": { 
			"-0.025": 0.0,
			"-0.024": 0.0,
			"-0.023": 0.0,
			"-0.022": 0.0,
			"-0.021": 0.0,
			"-0.02": 0.0,
			"-0.019": 0.0,
			"-0.018": 0.0,
			"-0.017": 0.0,
			"-0.016": 0.0,
			"-0.015": 0.0,
			"-0.014": 0.0,
			"-0.013": 0.0,
			"-0.012": 0.0,
			"-0.011": 0.0,
			"-0.01": 0.0,
			"-0.009": 0.0,
			"-0.008": 0.0,
			"-0.007": 2.46461162864,
			"-0.006": 8.91554666154,
			"-0.005": 14.0226171625,
			"-0.004": 22.3079219304,
			"-0.003": 26.1548908176,
			"-0.002": 21.3516895659,
			"-0.001": 12.939411052,
			"0.0": 10.270952161,
			"0.001": 12.9350951679,
			"0.002": 18.9765538542,
			"0.003": 17.0978651335,
			"0.004": 13.3803173416,
			"0.005": 6.41456668431,
			"0.006": 4.21508742056,
			"0.007": 3.95364096689,
			"0.008": 2.09965117946,
			"0.009": 3.76124380231,
			"0.01": 2.81494640727,
			"0.011": 3.20603312635,
			"0.012": 0.855388660061,
			"0.013": 0.0,
			"0.014": 0.0,
			"0.015": 0.0,
			"0.016": 0.0,
			"0.017": 0.0,
			"0.018": 0.0,
			"0.019": 0.0,
			"0.02": 0.0,
			"0.021": 0.0,
			"0.022": 0.0,
			"0.023": 0.0,
			"0.024": 0.0,
			"0.025": 0.0
		}
	}
}
