{
	 "smiles": "O=C(CCC1=CC=CC=C1)CC1=CC=CC=C1", 
	 "Tm": 315.15, 
	 "num_atms": 33, 
	 "gaussian": { 
		 "optdone": 1, 
		 "sigma_profile": "yes", 
		 "theory": "DFT", 
		 "functional": "B3LYP", 
		 "basiset": "6-31G**", 
		 "properties": { 
			 "R2extent": 4347.653, 
			 "electric_dipole_moment_norm": 2.32921157691, 
			 "electric_quadrupole_moment_norm": 9.55700518782, 
			 "total_energy": -694.574916262, 
			 "HOMO_LUMO_gap": 0.20796, 
			 "cosmo_polarized_energy": -11.3, 
			 "cosmo_cavitation_energy": 36.29, 
			 "cosmo_dispersion_energy": -24.08, 
			 "cosmo_repulsion_energy": 1.87, 
			 "cosmo_total_nonelectrostatic_energy": 14.08, 
			 "SMD_solvation_energy": 6.06 
		},
		"coords": [
			{
				"x": -1.7514180823,
				"y": -0.9317398616,
				"z": -1.1541632746,
				"element": "O" 
			},
			{
				"x": -1.6423627065,
				"y": -1.1022545965,
				"z": 0.0449524478,
				"element": "C" 
			},
			{
				"x": -1.1669944346,
				"y": -2.4242173368,
				"z": 0.6290302985,
				"element": "C" 
			},
			{
				"x": 0.2291509562,
				"y": -2.3441841366,
				"z": 1.3045929245,
				"element": "C" 
			},
			{
				"x": 1.373649301,
				"y": -2.1666673703,
				"z": 0.3268794443,
				"element": "C" 
			},
			{
				"x": 1.9622731767,
				"y": -0.9138099793,
				"z": 0.1144319514,
				"element": "C" 
			},
			{
				"x": 3.0074282841,
				"y": -0.7624306937,
				"z": -0.799375132,
				"element": "C" 
			},
			{
				"x": 3.4808030282,
				"y": -1.8628611018,
				"z": -1.5142659396,
				"element": "C" 
			},
			{
				"x": 2.9036298113,
				"y": -3.1180665662,
				"z": -1.3086727987,
				"element": "C" 
			},
			{
				"x": 1.8606014028,
				"y": -3.2657734036,
				"z": -0.3951620326,
				"element": "C" 
			},
			{
				"x": -2.0170190452,
				"y": 0.0176410898,
				"z": 1.0324080338,
				"element": "C" 
			},
			{
				"x": -1.1062098916,
				"y": 1.2319669792,
				"z": 0.9545567072,
				"element": "C" 
			},
			{
				"x": -0.4348325694,
				"y": 1.6867989914,
				"z": 2.0969325684,
				"element": "C" 
			},
			{
				"x": 0.3989075582,
				"y": 2.8062940021,
				"z": 2.0387772821,
				"element": "C" 
			},
			{
				"x": 0.5729451307,
				"y": 3.4853031372,
				"z": 0.8325284996,
				"element": "C" 
			},
			{
				"x": -0.0921447229,
				"y": 3.0379184334,
				"z": -0.3119922738,
				"element": "C" 
			},
			{
				"x": -0.9261495317,
				"y": 1.921744399,
				"z": -0.2535595398,
				"element": "C" 
			},
			{
				"x": -1.1514021305,
				"y": -3.1597130436,
				"z": -0.1796890223,
				"element": "H" 
			},
			{
				"x": -1.8998917737,
				"y": -2.7494157672,
				"z": 1.3800729443,
				"element": "H" 
			},
			{
				"x": 0.3739984733,
				"y": -3.2726950385,
				"z": 1.8690086305,
				"element": "H" 
			},
			{
				"x": 0.2374686207,
				"y": -1.5318456597,
				"z": 2.0399462389,
				"element": "H" 
			},
			{
				"x": 1.6022569548,
				"y": -0.0501566896,
				"z": 0.6667991743,
				"element": "H" 
			},
			{
				"x": 3.4507843001,
				"y": 0.2178257844,
				"z": -0.9501883363,
				"element": "H" 
			},
			{
				"x": 4.2946913008,
				"y": -1.7455551926,
				"z": -2.2240885259,
				"element": "H" 
			},
			{
				"x": 3.2687188894,
				"y": -3.9824761456,
				"z": -1.856414598,
				"element": "H" 
			},
			{
				"x": 1.4204177897,
				"y": -4.2479586958,
				"z": -0.2361528971,
				"element": "H" 
			},
			{
				"x": -3.0421360945,
				"y": 0.3105913308,
				"z": 0.7719413387,
				"element": "H" 
			},
			{
				"x": -2.0381641727,
				"y": -0.3635811705,
				"z": 2.0576528613,
				"element": "H" 
			},
			{
				"x": -0.5698838967,
				"y": 1.165449945,
				"z": 3.0418241812,
				"element": "H" 
			},
			{
				"x": 0.909463992,
				"y": 3.1453920178,
				"z": 2.9358305373,
				"element": "H" 
			},
			{
				"x": 1.2196742569,
				"y": 4.3566893558,
				"z": 0.7841005891,
				"element": "H" 
			},
			{
				"x": 0.0386414702,
				"y": 3.5604296079,
				"z": -1.255527205,
				"element": "H" 
			},
			{
				"x": -1.4294956452,
				"y": 1.5636573755,
				"z": -1.1454150774,
				"element": "H" 
			}
		],
		 "valence_orbital": [ 
			{
				"type": "occ",
				"energy": -0.25714,
				"method": "rhf"
			},
			{
				"type": "occ",
				"energy": -0.24949,
				"method": "rhf"
			},
			{
				"type": "occ",
				"energy": -0.24346,
				"method": "rhf"
			},
			{
				"type": "occ",
				"energy": -0.23789,
				"method": "rhf"
			},
			{
				"type": "occ",
				"energy": -0.23134,
				"method": "rhf"
			},
			{
				"type": "unocc",
				"energy": -0.02338,
				"method": "rhf"
			},
			{
				"type": "unocc",
				"energy": -0.00288,
				"method": "rhf"
			},
			{
				"type": "unocc",
				"energy": 0.00047,
				"method": "rhf"
			},
			{
				"type": "unocc",
				"energy": 0.00443,
				"method": "rhf"
			},
			{
				"type": "unocc",
				"energy": 0.00754,
				"method": "rhf"
			}
		],
		"cosmo_sigma_profile": { 
			"-0.025": 0.0,
			"-0.024": 0.0,
			"-0.023": 0.0,
			"-0.022": 0.0,
			"-0.021": 0.0,
			"-0.02": 0.0,
			"-0.019": 0.0,
			"-0.018": 0.0,
			"-0.017": 0.0,
			"-0.016": 0.0,
			"-0.015": 0.0,
			"-0.014": 0.0,
			"-0.013": 0.0,
			"-0.012": 0.0,
			"-0.011": 0.0,
			"-0.01": 0.0,
			"-0.009": 0.0,
			"-0.008": 0.0,
			"-0.007": 0.120259677579,
			"-0.006": 12.4135205443,
			"-0.005": 28.6265077045,
			"-0.004": 32.4074512251,
			"-0.003": 32.9972577662,
			"-0.002": 25.1649636676,
			"-0.001": 22.933024025,
			"0.0": 14.5846513601,
			"0.001": 15.3405279701,
			"0.002": 16.2504014989,
			"0.003": 18.7239316385,
			"0.004": 19.7427757586,
			"0.005": 16.4248554884,
			"0.006": 15.1883080783,
			"0.007": 3.99081314997,
			"0.008": 2.07260108332,
			"0.009": 1.87199053539,
			"0.01": 2.13350644637,
			"0.011": 2.91798836445,
			"0.012": 3.1755959961,
			"0.013": 0.972665906715,
			"0.014": 0.0177752135858,
			"0.015": 0.0,
			"0.016": 0.0,
			"0.017": 0.0,
			"0.018": 0.0,
			"0.019": 0.0,
			"0.02": 0.0,
			"0.021": 0.0,
			"0.022": 0.0,
			"0.023": 0.0,
			"0.024": 0.0,
			"0.025": 0.0
		}
	}
}
