{
	 "smiles": "NNC(=O)C=CC1=CC=C(C=CC(=O)NN)C=C1", 
	 "Tm": 532.15, 
	 "num_atms": 32, 
	 "gaussian": { 
		 "optdone": 1, 
		 "sigma_profile": "yes", 
		 "theory": "DFT", 
		 "functional": "B3LYP", 
		 "basiset": "6-31G**", 
		 "properties": { 
			 "R2extent": 9595.822, 
			 "electric_dipole_moment_norm": 7.20799538637, 
			 "electric_quadrupole_moment_norm": 29.2884432435, 
			 "total_energy": -835.093525269, 
			 "HOMO_LUMO_gap": 0.14202, 
			 "cosmo_polarized_energy": -26.94, 
			 "cosmo_cavitation_energy": 37.77, 
			 "cosmo_dispersion_energy": -27.4, 
			 "cosmo_repulsion_energy": 2.15, 
			 "cosmo_total_nonelectrostatic_energy": 12.52, 
			 "SMD_solvation_energy": 9.13 
		},
		"coords": [
			{
				"x": 5.150266264,
				"y": -1.8031045348,
				"z": 4.4472886516,
				"element": "N" 
			},
			{
				"x": 4.113490595,
				"y": -2.7365411422,
				"z": 4.5772239309,
				"element": "N" 
			},
			{
				"x": 2.9384839594,
				"y": -2.8290678001,
				"z": 3.8613254392,
				"element": "C" 
			},
			{
				"x": 2.1276985168,
				"y": -3.7122636153,
				"z": 4.1316540778,
				"element": "O" 
			},
			{
				"x": 2.7292435247,
				"y": -1.8294193659,
				"z": 2.7821205755,
				"element": "C" 
			},
			{
				"x": 1.597114054,
				"y": -1.8710977006,
				"z": 2.0544864051,
				"element": "C" 
			},
			{
				"x": 1.201687153,
				"y": -0.9895391303,
				"z": 0.9587222484,
				"element": "C" 
			},
			{
				"x": 1.9966764925,
				"y": 0.0749939105,
				"z": 0.4894524329,
				"element": "C" 
			},
			{
				"x": 1.560504056,
				"y": 0.8732090461,
				"z": -0.5547209834,
				"element": "C" 
			},
			{
				"x": 0.3135226494,
				"y": 0.6585122772,
				"z": -1.1885314171,
				"element": "C" 
			},
			{
				"x": -0.0242089701,
				"y": 1.5766964621,
				"z": -2.2793199378,
				"element": "C" 
			},
			{
				"x": -1.0634621922,
				"y": 1.7479150602,
				"z": -3.1327094887,
				"element": "C" 
			},
			{
				"x": -2.3309698058,
				"y": 1.0010246353,
				"z": -3.2728924297,
				"element": "C" 
			},
			{
				"x": -2.7022271491,
				"y": 0.0302492169,
				"z": -2.6111905408,
				"element": "O" 
			},
			{
				"x": -3.1831126699,
				"y": 1.4559199541,
				"z": -4.2636316686,
				"element": "N" 
			},
			{
				"x": -2.9341110229,
				"y": 2.5444976163,
				"z": -5.1045461896,
				"element": "N" 
			},
			{
				"x": -0.4818727263,
				"y": -0.4063603265,
				"z": -0.7198034039,
				"element": "C" 
			},
			{
				"x": -0.0386100821,
				"y": -1.204156646,
				"z": 0.3283726623,
				"element": "C" 
			},
			{
				"x": 4.8066282364,
				"y": -0.8582791351,
				"z": 4.598853494,
				"element": "H" 
			},
			{
				"x": 5.5722576212,
				"y": -1.8600527231,
				"z": 3.524085532,
				"element": "H" 
			},
			{
				"x": 4.2295555414,
				"y": -3.4219779534,
				"z": 5.3112989781,
				"element": "H" 
			},
			{
				"x": 3.4963180006,
				"y": -1.0835272977,
				"z": 2.6014246538,
				"element": "H" 
			},
			{
				"x": 0.893103108,
				"y": -2.6591099358,
				"z": 2.3180353208,
				"element": "H" 
			},
			{
				"x": 2.9611673078,
				"y": 0.2772914207,
				"z": 0.9450330568,
				"element": "H" 
			},
			{
				"x": 2.1928507724,
				"y": 1.6881809315,
				"z": -0.8983176716,
				"element": "H" 
			},
			{
				"x": 0.7703488144,
				"y": 2.3069279298,
				"z": -2.4377893286,
				"element": "H" 
			},
			{
				"x": -0.9699320412,
				"y": 2.5651071406,
				"z": -3.8394323706,
				"element": "H" 
			},
			{
				"x": -4.0457493135,
				"y": 0.9250518701,
				"z": -4.3334377716,
				"element": "H" 
			},
			{
				"x": -3.648211221,
				"y": 3.2580919395,
				"z": -4.9804749368,
				"element": "H" 
			},
			{
				"x": -2.9307269209,
				"y": 2.2461362353,
				"z": -6.0768542753,
				"element": "H" 
			},
			{
				"x": -1.4395970315,
				"y": -0.5895672626,
				"z": -1.1898954113,
				"element": "H" 
			},
			{
				"x": -0.6673255205,
				"y": -2.0204410771,
				"z": 0.6746703663,
				"element": "H" 
			}
		],
		 "valence_orbital": [ 
			{
				"type": "occ",
				"energy": -0.25348,
				"method": "rhf"
			},
			{
				"type": "occ",
				"energy": -0.24836,
				"method": "rhf"
			},
			{
				"type": "occ",
				"energy": -0.24811,
				"method": "rhf"
			},
			{
				"type": "occ",
				"energy": -0.23914,
				"method": "rhf"
			},
			{
				"type": "occ",
				"energy": -0.21846,
				"method": "rhf"
			},
			{
				"type": "unocc",
				"energy": -0.07644,
				"method": "rhf"
			},
			{
				"type": "unocc",
				"energy": -0.02609,
				"method": "rhf"
			},
			{
				"type": "unocc",
				"energy": -0.00107,
				"method": "rhf"
			},
			{
				"type": "unocc",
				"energy": 0.04077,
				"method": "rhf"
			},
			{
				"type": "unocc",
				"energy": 0.06073,
				"method": "rhf"
			}
		],
		"cosmo_sigma_profile": { 
			"-0.025": 0.0,
			"-0.024": 0.0,
			"-0.023": 0.0,
			"-0.022": 0.0,
			"-0.021": 0.0,
			"-0.02": 0.0,
			"-0.019": 0.0,
			"-0.018": 0.0,
			"-0.017": 0.0,
			"-0.016": 0.0,
			"-0.015": 0.0,
			"-0.014": 0.120732656254,
			"-0.013": 2.04993285097,
			"-0.012": 6.39662290252,
			"-0.011": 9.1121961316,
			"-0.01": 10.6972783511,
			"-0.009": 8.69819402805,
			"-0.008": 9.29419698423,
			"-0.007": 11.1143144257,
			"-0.006": 14.1595357102,
			"-0.005": 12.2859502219,
			"-0.004": 12.7897941061,
			"-0.003": 10.2390297596,
			"-0.002": 10.7091715499,
			"-0.001": 11.5976666754,
			"0.0": 16.4940034239,
			"0.001": 19.272000916,
			"0.002": 24.8649689054,
			"0.003": 30.592644573,
			"0.004": 24.1604246102,
			"0.005": 7.30342915808,
			"0.006": 5.71905434055,
			"0.007": 3.95708953651,
			"0.008": 4.49457815761,
			"0.009": 4.79116103899,
			"0.01": 3.56569995358,
			"0.011": 4.31997320452,
			"0.012": 4.02223148755,
			"0.013": 6.27731981748,
			"0.014": 8.42707366276,
			"0.015": 1.99000587038,
			"0.016": 0.334829287994,
			"0.017": 0.0,
			"0.018": 0.0,
			"0.019": 0.0,
			"0.02": 0.0,
			"0.021": 0.0,
			"0.022": 0.0,
			"0.023": 0.0,
			"0.024": 0.0,
			"0.025": 0.0
		}
	}
}
