{
	 "smiles": "CC(C1=CCC(C(O)=O)C(C)(C)O1)(C1=CC=CC=C1)C1=CC=CC=C1", 
	 "Tm": 418.15, 
	 "num_atms": 49, 
	 "gaussian": { 
		 "optdone": 1, 
		 "sigma_profile": "yes", 
		 "theory": "DFT", 
		 "functional": "B3LYP", 
		 "basiset": "6-31G**", 
		 "properties": { 
			 "R2extent": 9441.2102, 
			 "electric_dipole_moment_norm": 3.0644527407, 
			 "electric_quadrupole_moment_norm": 26.8606921467, 
			 "total_energy": -1078.47699795, 
			 "HOMO_LUMO_gap": 0.20878, 
			 "cosmo_polarized_energy": -17.04, 
			 "cosmo_cavitation_energy": 48.52, 
			 "cosmo_dispersion_energy": -31.76, 
			 "cosmo_repulsion_energy": 2.41, 
			 "cosmo_total_nonelectrostatic_energy": 19.17, 
			 "SMD_solvation_energy": 9.06 
		},
		"coords": [
			{
				"x": -1.0524106431,
				"y": 1.1022470047,
				"z": 1.3176849552,
				"element": "C" 
			},
			{
				"x": -0.2699450482,
				"y": 1.1578084276,
				"z": -0.024770699,
				"element": "C" 
			},
			{
				"x": 1.0695788374,
				"y": 0.4323840699,
				"z": 0.1716091625,
				"element": "C" 
			},
			{
				"x": 2.2902756103,
				"y": 0.8625846084,
				"z": -0.1816420652,
				"element": "C" 
			},
			{
				"x": 3.5167870577,
				"y": 0.0022794059,
				"z": -0.058158625,
				"element": "C" 
			},
			{
				"x": 3.125643043,
				"y": -1.4660603765,
				"z": 0.1632465207,
				"element": "C" 
			},
			{
				"x": 4.339616539,
				"y": -2.3026005546,
				"z": 0.5599447808,
				"element": "C" 
			},
			{
				"x": 4.362031862,
				"y": -3.5841200123,
				"z": 0.1026873594,
				"element": "O" 
			},
			{
				"x": 5.2422462847,
				"y": -1.9007428236,
				"z": 1.253692631,
				"element": "O" 
			},
			{
				"x": 1.9772439682,
				"y": -1.5612848171,
				"z": 1.2193483331,
				"element": "C" 
			},
			{
				"x": 2.3809757494,
				"y": -0.9941781763,
				"z": 2.5865280961,
				"element": "C" 
			},
			{
				"x": 1.4452145831,
				"y": -2.9893204311,
				"z": 1.3541646923,
				"element": "C" 
			},
			{
				"x": 0.8487407625,
				"y": -0.8124240546,
				"z": 0.7124581541,
				"element": "O" 
			},
			{
				"x": -1.0356963914,
				"y": 0.4081355603,
				"z": -1.1443406971,
				"element": "C" 
			},
			{
				"x": -0.3727808052,
				"y": 0.0596089609,
				"z": -2.3324567192,
				"element": "C" 
			},
			{
				"x": -1.0380108745,
				"y": -0.5924753913,
				"z": -3.3692954475,
				"element": "C" 
			},
			{
				"x": -2.391013365,
				"y": -0.9151832682,
				"z": -3.2439029223,
				"element": "C" 
			},
			{
				"x": -3.0642693099,
				"y": -0.5734992209,
				"z": -2.0726766017,
				"element": "C" 
			},
			{
				"x": -2.3934375087,
				"y": 0.0818694398,
				"z": -1.0360187956,
				"element": "C" 
			},
			{
				"x": -0.0690044477,
				"y": 2.6513671178,
				"z": -0.3767125199,
				"element": "C" 
			},
			{
				"x": 0.6367678412,
				"y": 3.4860677243,
				"z": 0.5089714325,
				"element": "C" 
			},
			{
				"x": 0.7812154211,
				"y": 4.8494842935,
				"z": 0.2608290005,
				"element": "C" 
			},
			{
				"x": 0.2142628916,
				"y": 5.4207562565,
				"z": -0.8808450039,
				"element": "C" 
			},
			{
				"x": -0.4941735661,
				"y": 4.6097415207,
				"z": -1.7642016432,
				"element": "C" 
			},
			{
				"x": -0.6343792833,
				"y": 3.241159787,
				"z": -1.5143264114,
				"element": "C" 
			},
			{
				"x": -1.970318437,
				"y": 1.6917151319,
				"z": 1.253320661,
				"element": "H" 
			},
			{
				"x": -0.4476901284,
				"y": 1.5252460892,
				"z": 2.1232619352,
				"element": "H" 
			},
			{
				"x": -1.3000169042,
				"y": 0.0738098323,
				"z": 1.5846789416,
				"element": "H" 
			},
			{
				"x": 2.3968206413,
				"y": 1.85550042,
				"z": -0.5987121911,
				"element": "H" 
			},
			{
				"x": 4.1720465771,
				"y": 0.323764562,
				"z": 0.7608949134,
				"element": "H" 
			},
			{
				"x": 4.1237755135,
				"y": 0.0822418301,
				"z": -0.9688828119,
				"element": "H" 
			},
			{
				"x": 2.7025154949,
				"y": -1.8604544966,
				"z": -0.7708605576,
				"element": "H" 
			},
			{
				"x": 3.5805746293,
				"y": -3.7556047405,
				"z": -0.4411236083,
				"element": "H" 
			},
			{
				"x": 3.2602221895,
				"y": -1.5091814858,
				"z": 2.980661629,
				"element": "H" 
			},
			{
				"x": 2.6141013139,
				"y": 0.0704957112,
				"z": 2.518861119,
				"element": "H" 
			},
			{
				"x": 1.5524983719,
				"y": -1.1179302476,
				"z": 3.2894567988,
				"element": "H" 
			},
			{
				"x": 0.5662312921,
				"y": -2.9940376105,
				"z": 2.0040272688,
				"element": "H" 
			},
			{
				"x": 1.136840336,
				"y": -3.3820235525,
				"z": 0.3791821914,
				"element": "H" 
			},
			{
				"x": 2.1974454018,
				"y": -3.6536059988,
				"z": 1.787982424,
				"element": "H" 
			},
			{
				"x": 0.6793107572,
				"y": 0.3038376135,
				"z": -2.4407123411,
				"element": "H" 
			},
			{
				"x": -0.4978543126,
				"y": -0.8489562611,
				"z": -4.2767476589,
				"element": "H" 
			},
			{
				"x": -2.9118033893,
				"y": -1.4257463627,
				"z": -4.0489348253,
				"element": "H" 
			},
			{
				"x": -4.1171476828,
				"y": -0.8162192519,
				"z": -1.9579113287,
				"element": "H" 
			},
			{
				"x": -2.9470301428,
				"y": 0.3335626159,
				"z": -0.13903133,
				"element": "H" 
			},
			{
				"x": 1.0923708211,
				"y": 3.0614890051,
				"z": 1.3978140152,
				"element": "H" 
			},
			{
				"x": 1.3368021183,
				"y": 5.4662966712,
				"z": 0.9619067034,
				"element": "H" 
			},
			{
				"x": 0.3242634505,
				"y": 6.4836804368,
				"z": -1.0758360457,
				"element": "H" 
			},
			{
				"x": -0.9445792484,
				"y": 5.037119817,
				"z": -2.6558806942,
				"element": "H" 
			},
			{
				"x": -1.1935578711,
				"y": 2.6332952212,
				"z": -2.2154321751,
				"element": "H" 
			}
		],
		 "valence_orbital": [ 
			{
				"type": "occ",
				"energy": -0.25171,
				"method": "rhf"
			},
			{
				"type": "occ",
				"energy": -0.24593,
				"method": "rhf"
			},
			{
				"type": "occ",
				"energy": -0.24402,
				"method": "rhf"
			},
			{
				"type": "occ",
				"energy": -0.24015,
				"method": "rhf"
			},
			{
				"type": "occ",
				"energy": -0.218,
				"method": "rhf"
			},
			{
				"type": "unocc",
				"energy": -0.00922,
				"method": "rhf"
			},
			{
				"type": "unocc",
				"energy": -0.00497,
				"method": "rhf"
			},
			{
				"type": "unocc",
				"energy": 7e-05,
				"method": "rhf"
			},
			{
				"type": "unocc",
				"energy": 0.00191,
				"method": "rhf"
			},
			{
				"type": "unocc",
				"energy": 0.00859,
				"method": "rhf"
			}
		],
		"cosmo_sigma_profile": { 
			"-0.025": 0.0,
			"-0.024": 0.0,
			"-0.023": 0.0,
			"-0.022": 0.0,
			"-0.021": 0.0,
			"-0.02": 0.0,
			"-0.019": 0.0,
			"-0.018": 0.628574015088,
			"-0.017": 0.984576670692,
			"-0.016": 1.00912286847,
			"-0.015": 1.57527210999,
			"-0.014": 0.66312896843,
			"-0.013": 1.37289790693,
			"-0.012": 1.47877985837,
			"-0.011": 0.733448754854,
			"-0.01": 1.34726967474,
			"-0.009": 1.48109931171,
			"-0.008": 1.09535529858,
			"-0.007": 2.05112088715,
			"-0.006": 6.93561402016,
			"-0.005": 22.6653541712,
			"-0.004": 33.398003893,
			"-0.003": 41.9902798779,
			"-0.002": 32.9492543291,
			"-0.001": 36.0949467864,
			"0.0": 37.4259582308,
			"0.001": 30.6391909718,
			"0.002": 22.9877150739,
			"0.003": 19.5886283126,
			"0.004": 18.0003303898,
			"0.005": 18.2272947687,
			"0.006": 16.1326234923,
			"0.007": 6.32169661604,
			"0.008": 4.64268692766,
			"0.009": 3.84113667727,
			"0.01": 5.61952455302,
			"0.011": 4.85521970229,
			"0.012": 4.2087800041,
			"0.013": 1.30286545467,
			"0.014": 0.0015367403731,
			"0.015": 0.0,
			"0.016": 0.0,
			"0.017": 0.0,
			"0.018": 0.0,
			"0.019": 0.0,
			"0.02": 0.0,
			"0.021": 0.0,
			"0.022": 0.0,
			"0.023": 0.0,
			"0.024": 0.0,
			"0.025": 0.0
		}
	}
}
