{
	 "smiles": "ClC1=C(Cl)C(Cl)=C2OC3C(CC4=CC=CC=C34)OC2=C1Cl", 
	 "Tm": 432.15, 
	 "num_atms": 29, 
	 "gaussian": { 
		 "optdone": 1, 
		 "sigma_profile": "yes", 
		 "theory": "DFT", 
		 "functional": "B3LYP", 
		 "basiset": "6-31G**", 
		 "properties": { 
			 "R2extent": 10660.0046, 
			 "electric_dipole_moment_norm": 5.08795159666, 
			 "electric_quadrupole_moment_norm": 2.16311808046, 
			 "total_energy": -2567.5965707, 
			 "HOMO_LUMO_gap": 0.19917, 
			 "cosmo_polarized_energy": -8.13, 
			 "cosmo_cavitation_energy": 39.38, 
			 "cosmo_dispersion_energy": -29.31, 
			 "cosmo_repulsion_energy": 2.22, 
			 "cosmo_total_nonelectrostatic_energy": 12.29, 
			 "SMD_solvation_energy": 5.17 
		},
		"coords": [
			{
				"x": -5.2411229352,
				"y": 2.4464874299,
				"z": -1.4055993903,
				"element": "Cl" 
			},
			{
				"x": -3.8865243471,
				"y": 1.4221571818,
				"z": -1.0388215651,
				"element": "C" 
			},
			{
				"x": -4.077580054,
				"y": 0.0484970665,
				"z": -0.806636143,
				"element": "C" 
			},
			{
				"x": -5.6711150896,
				"y": -0.6400663356,
				"z": -0.8791203848,
				"element": "Cl" 
			},
			{
				"x": -2.9737861654,
				"y": -0.7686539191,
				"z": -0.5274798455,
				"element": "C" 
			},
			{
				"x": -3.1564510668,
				"y": -2.4760257195,
				"z": -0.2584067124,
				"element": "Cl" 
			},
			{
				"x": -1.6806013997,
				"y": -0.2305410823,
				"z": -0.4655675949,
				"element": "C" 
			},
			{
				"x": -0.641698851,
				"y": -1.0879295372,
				"z": -0.2152476486,
				"element": "O" 
			},
			{
				"x": 0.6079900547,
				"y": -0.4878775445,
				"z": -0.5511754888,
				"element": "C" 
			},
			{
				"x": 0.680928498,
				"y": 0.9041814462,
				"z": 0.0619299886,
				"element": "C" 
			},
			{
				"x": 2.1597854987,
				"y": 1.2802342976,
				"z": -0.057755407,
				"element": "C" 
			},
			{
				"x": 2.7889615442,
				"y": -0.0832531252,
				"z": 0.2154178758,
				"element": "C" 
			},
			{
				"x": 4.0734935102,
				"y": -0.3884689121,
				"z": 0.6554264104,
				"element": "C" 
			},
			{
				"x": 4.4180804582,
				"y": -1.7299918801,
				"z": 0.8578360537,
				"element": "C" 
			},
			{
				"x": 3.4920964416,
				"y": -2.7513603882,
				"z": 0.6245857035,
				"element": "C" 
			},
			{
				"x": 2.2017585409,
				"y": -2.452808617,
				"z": 0.1738571488,
				"element": "C" 
			},
			{
				"x": 1.8649088316,
				"y": -1.1190137155,
				"z": -0.0234718879,
				"element": "C" 
			},
			{
				"x": -0.2644953881,
				"y": 1.7559969914,
				"z": -0.5766652142,
				"element": "O" 
			},
			{
				"x": -1.4928191437,
				"y": 1.1557116484,
				"z": -0.6661870104,
				"element": "C" 
			},
			{
				"x": -2.5975419193,
				"y": 1.9668270603,
				"z": -0.9620692316,
				"element": "C" 
			},
			{
				"x": -2.3145462236,
				"y": 3.6625407711,
				"z": -1.2170117484,
				"element": "Cl" 
			},
			{
				"x": 0.654856377,
				"y": -0.3965599205,
				"z": -1.6492212584,
				"element": "H" 
			},
			{
				"x": 0.4135619956,
				"y": 0.8131997795,
				"z": 1.1242696471,
				"element": "H" 
			},
			{
				"x": 2.3792014767,
				"y": 1.6323963612,
				"z": -1.0746702408,
				"element": "H" 
			},
			{
				"x": 2.4715282445,
				"y": 2.0595197694,
				"z": 0.6424453833,
				"element": "H" 
			},
			{
				"x": 4.7959517341,
				"y": 0.3991312247,
				"z": 0.8516446076,
				"element": "H" 
			},
			{
				"x": 5.4153166911,
				"y": -1.9799332905,
				"z": 1.2082330603,
				"element": "H" 
			},
			{
				"x": 3.7765792324,
				"y": -3.7852152494,
				"z": 0.7963032984,
				"element": "H" 
			},
			{
				"x": 1.4766834539,
				"y": -3.2402817913,
				"z": -0.0074424052,
				"element": "H" 
			}
		],
		 "valence_orbital": [ 
			{
				"type": "occ",
				"energy": -0.29906,
				"method": "rhf"
			},
			{
				"type": "occ",
				"energy": -0.26616,
				"method": "rhf"
			},
			{
				"type": "occ",
				"energy": -0.25819,
				"method": "rhf"
			},
			{
				"type": "occ",
				"energy": -0.24295,
				"method": "rhf"
			},
			{
				"type": "occ",
				"energy": -0.23458,
				"method": "rhf"
			},
			{
				"type": "unocc",
				"energy": -0.03541,
				"method": "rhf"
			},
			{
				"type": "unocc",
				"energy": -0.03238,
				"method": "rhf"
			},
			{
				"type": "unocc",
				"energy": -0.02423,
				"method": "rhf"
			},
			{
				"type": "unocc",
				"energy": -0.02245,
				"method": "rhf"
			},
			{
				"type": "unocc",
				"energy": -0.01811,
				"method": "rhf"
			}
		],
		"cosmo_sigma_profile": { 
			"-0.025": 0.0,
			"-0.024": 0.0,
			"-0.023": 0.0,
			"-0.022": 0.0,
			"-0.021": 0.0,
			"-0.02": 0.0,
			"-0.019": 0.0,
			"-0.018": 0.0,
			"-0.017": 0.0,
			"-0.016": 0.0,
			"-0.015": 0.0,
			"-0.014": 0.0,
			"-0.013": 0.0,
			"-0.012": 0.0,
			"-0.011": 0.0,
			"-0.01": 0.0,
			"-0.009": 0.0,
			"-0.008": 0.733450361224,
			"-0.007": 6.40319676288,
			"-0.006": 16.3853830797,
			"-0.005": 18.2169516537,
			"-0.004": 21.491031059,
			"-0.003": 21.7517882404,
			"-0.002": 27.1390628165,
			"-0.001": 37.9746788488,
			"0.0": 26.2646023895,
			"0.001": 21.9797780817,
			"0.002": 27.7908999645,
			"0.003": 38.703919105,
			"0.004": 33.4313511592,
			"0.005": 14.4376147301,
			"0.006": 4.54273612266,
			"0.007": 3.33398616804,
			"0.008": 3.38713143506,
			"0.009": 1.06628463783,
			"0.01": 0.0,
			"0.011": 0.0,
			"0.012": 0.0,
			"0.013": 0.0,
			"0.014": 0.0,
			"0.015": 0.0,
			"0.016": 0.0,
			"0.017": 0.0,
			"0.018": 0.0,
			"0.019": 0.0,
			"0.02": 0.0,
			"0.021": 0.0,
			"0.022": 0.0,
			"0.023": 0.0,
			"0.024": 0.0,
			"0.025": 0.0
		}
	}
}
