{
	 "smiles": "CC(C)(C)C1=CC(=CC=C1O)C(C)(C)C1=CC(=C(O)C=C1)C(C)(C)C", 
	 "Tm": 387.15, 
	 "num_atms": 57, 
	 "gaussian": { 
		 "optdone": 1, 
		 "sigma_profile": "yes", 
		 "theory": "DFT", 
		 "functional": "B3LYP", 
		 "basiset": "6-31G**", 
		 "properties": { 
			 "R2extent": 10877.5432, 
			 "electric_dipole_moment_norm": 1.52486786969, 
			 "electric_quadrupole_moment_norm": 21.3872647302, 
			 "total_energy": -1046.2017284, 
			 "HOMO_LUMO_gap": 0.2012, 
			 "cosmo_polarized_energy": -13.03, 
			 "cosmo_cavitation_energy": 53.73, 
			 "cosmo_dispersion_energy": -34.59, 
			 "cosmo_repulsion_energy": 2.62, 
			 "cosmo_total_nonelectrostatic_energy": 21.75, 
			 "SMD_solvation_energy": 9.7 
		},
		"coords": [
			{
				"x": -0.0958187836,
				"y": -5.0666973369,
				"z": -2.0057595354,
				"element": "C" 
			},
			{
				"x": 0.3138517391,
				"y": -3.5997524231,
				"z": -2.2874517866,
				"element": "C" 
			},
			{
				"x": 1.4053338906,
				"y": -3.2185595805,
				"z": -1.2671593684,
				"element": "C" 
			},
			{
				"x": 0.9390006798,
				"y": -3.4893469024,
				"z": -3.7003828466,
				"element": "C" 
			},
			{
				"x": -0.9198907658,
				"y": -2.6790951053,
				"z": -2.1838127728,
				"element": "C" 
			},
			{
				"x": -0.986809263,
				"y": -1.6324901447,
				"z": -1.2588998124,
				"element": "C" 
			},
			{
				"x": -2.0828424999,
				"y": -0.762088827,
				"z": -1.1229804338,
				"element": "C" 
			},
			{
				"x": -3.1688809784,
				"y": -0.9601644765,
				"z": -1.975030497,
				"element": "C" 
			},
			{
				"x": -3.1456758882,
				"y": -1.9904650978,
				"z": -2.9158985598,
				"element": "C" 
			},
			{
				"x": -2.047094405,
				"y": -2.8411378413,
				"z": -3.0243828362,
				"element": "C" 
			},
			{
				"x": -2.0448292985,
				"y": -3.8503424275,
				"z": -3.9585760009,
				"element": "O" 
			},
			{
				"x": -2.0552611162,
				"y": 0.317886241,
				"z": -0.0217408566,
				"element": "C" 
			},
			{
				"x": -3.2340272379,
				"y": 1.3125668604,
				"z": -0.1534120682,
				"element": "C" 
			},
			{
				"x": -2.2072286553,
				"y": -0.3989879668,
				"z": 1.3414431331,
				"element": "C" 
			},
			{
				"x": -0.7477902749,
				"y": 1.1295620587,
				"z": -0.1195443953,
				"element": "C" 
			},
			{
				"x": 0.0836464447,
				"y": 1.3785759305,
				"z": 0.9702449807,
				"element": "C" 
			},
			{
				"x": 1.2608411207,
				"y": 2.159254565,
				"z": 0.9222940684,
				"element": "C" 
			},
			{
				"x": 1.587159994,
				"y": 2.7150171164,
				"z": -0.3311724251,
				"element": "C" 
			},
			{
				"x": 2.6728177476,
				"y": 3.5022348896,
				"z": -0.6157904679,
				"element": "O" 
			},
			{
				"x": 0.7644092541,
				"y": 2.4760510091,
				"z": -1.4452118377,
				"element": "C" 
			},
			{
				"x": -0.3757928757,
				"y": 1.7008509618,
				"z": -1.3483992186,
				"element": "C" 
			},
			{
				"x": 2.0456328604,
				"y": 2.3051085294,
				"z": 2.2550778915,
				"element": "C" 
			},
			{
				"x": 1.1312830521,
				"y": 2.9679372901,
				"z": 3.315377433,
				"element": "C" 
			},
			{
				"x": 2.4759034332,
				"y": 0.901510382,
				"z": 2.7494086037,
				"element": "C" 
			},
			{
				"x": 3.3315151516,
				"y": 3.1606730154,
				"z": 2.18640199,
				"element": "C" 
			},
			{
				"x": -0.8414521171,
				"y": -5.4215234251,
				"z": -2.7184888529,
				"element": "H" 
			},
			{
				"x": -0.5101248695,
				"y": -5.1648103976,
				"z": -0.9963054525,
				"element": "H" 
			},
			{
				"x": 0.7820589404,
				"y": -5.7198146407,
				"z": -2.0734033817,
				"element": "H" 
			},
			{
				"x": 1.0518189167,
				"y": -3.3048309489,
				"z": -0.2342106454,
				"element": "H" 
			},
			{
				"x": 2.2560883362,
				"y": -3.8983398129,
				"z": -1.380687988,
				"element": "H" 
			},
			{
				"x": 1.7752487242,
				"y": -2.1994949564,
				"z": -1.4201576874,
				"element": "H" 
			},
			{
				"x": 1.2642512919,
				"y": -2.4623701633,
				"z": -3.8989780024,
				"element": "H" 
			},
			{
				"x": 0.2325210883,
				"y": -3.7824962643,
				"z": -4.4780855501,
				"element": "H" 
			},
			{
				"x": 1.8182632068,
				"y": -4.1401557346,
				"z": -3.772209273,
				"element": "H" 
			},
			{
				"x": -0.1370494094,
				"y": -1.4632737892,
				"z": -0.6089872707,
				"element": "H" 
			},
			{
				"x": -4.0444367735,
				"y": -0.3227519095,
				"z": -1.925383467,
				"element": "H" 
			},
			{
				"x": -3.9972740652,
				"y": -2.135098686,
				"z": -3.5793890462,
				"element": "H" 
			},
			{
				"x": -2.8774047261,
				"y": -3.8180168544,
				"z": -4.4470713294,
				"element": "H" 
			},
			{
				"x": -3.2341432997,
				"y": 1.8182996528,
				"z": -1.1233210782,
				"element": "H" 
			},
			{
				"x": -3.1521408287,
				"y": 2.0806980045,
				"z": 0.6212248213,
				"element": "H" 
			},
			{
				"x": -4.1996707982,
				"y": 0.8115275771,
				"z": -0.0254112301,
				"element": "H" 
			},
			{
				"x": -1.3758775406,
				"y": -1.0821068134,
				"z": 1.5384775693,
				"element": "H" 
			},
			{
				"x": -2.2701771552,
				"y": 0.3168552759,
				"z": 2.168285997,
				"element": "H" 
			},
			{
				"x": -3.1282186743,
				"y": -0.9894071426,
				"z": 1.3422405847,
				"element": "H" 
			},
			{
				"x": -0.1831680758,
				"y": 0.9453704827,
				"z": 1.9264115628,
				"element": "H" 
			},
			{
				"x": 3.2052897425,
				"y": 3.6341572588,
				"z": 0.1733753327,
				"element": "H" 
			},
			{
				"x": 1.0640222405,
				"y": 2.921197838,
				"z": -2.3887883752,
				"element": "H" 
			},
			{
				"x": -0.9782984915,
				"y": 1.5235063867,
				"z": -2.2345757305,
				"element": "H" 
			},
			{
				"x": 0.8275581019,
				"y": 3.9703140345,
				"z": 2.9958099455,
				"element": "H" 
			},
			{
				"x": 1.6597950736,
				"y": 3.0604214359,
				"z": 4.271379363,
				"element": "H" 
			},
			{
				"x": 0.2224694774,
				"y": 2.3878908405,
				"z": 3.4936794528,
				"element": "H" 
			},
			{
				"x": 3.0134986848,
				"y": 0.9801300284,
				"z": 3.7015648673,
				"element": "H" 
			},
			{
				"x": 3.1383944634,
				"y": 0.4190396997,
				"z": 2.0231574421,
				"element": "H" 
			},
			{
				"x": 1.6193769395,
				"y": 0.2411827943,
				"z": 2.905778495,
				"element": "H" 
			},
			{
				"x": 4.0837996111,
				"y": 2.7335849546,
				"z": 1.5117464206,
				"element": "H" 
			},
			{
				"x": 3.1270296595,
				"y": 4.2040301681,
				"z": 1.9159150214,
				"element": "H" 
			},
			{
				"x": 3.7965990007,
				"y": 3.1911843865,
				"z": 3.1768651039,
				"element": "H" 
			}
		],
		 "valence_orbital": [ 
			{
				"type": "occ",
				"energy": -0.29987,
				"method": "rhf"
			},
			{
				"type": "occ",
				"energy": -0.23799,
				"method": "rhf"
			},
			{
				"type": "occ",
				"energy": -0.23344,
				"method": "rhf"
			},
			{
				"type": "occ",
				"energy": -0.21268,
				"method": "rhf"
			},
			{
				"type": "occ",
				"energy": -0.20001,
				"method": "rhf"
			},
			{
				"type": "unocc",
				"energy": 0.00119,
				"method": "rhf"
			},
			{
				"type": "unocc",
				"energy": 0.00969,
				"method": "rhf"
			},
			{
				"type": "unocc",
				"energy": 0.01659,
				"method": "rhf"
			},
			{
				"type": "unocc",
				"energy": 0.02502,
				"method": "rhf"
			},
			{
				"type": "unocc",
				"energy": 0.07088,
				"method": "rhf"
			}
		],
		"cosmo_sigma_profile": { 
			"-0.025": 0.0,
			"-0.024": 0.0,
			"-0.023": 0.0,
			"-0.022": 0.0,
			"-0.021": 0.0,
			"-0.02": 0.0,
			"-0.019": 0.0,
			"-0.018": 0.0688853319854,
			"-0.017": 0.871866231773,
			"-0.016": 0.988384462482,
			"-0.015": 1.24467266523,
			"-0.014": 0.816520374522,
			"-0.013": 0.880084434129,
			"-0.012": 1.31125290705,
			"-0.011": 1.07987654462,
			"-0.01": 1.88845529056,
			"-0.009": 2.46820444704,
			"-0.008": 3.60311027552,
			"-0.007": 2.08080328134,
			"-0.006": 3.93744844307,
			"-0.005": 8.95289524282,
			"-0.004": 18.2096991951,
			"-0.003": 39.9897337891,
			"-0.002": 57.7002459204,
			"-0.001": 46.5458973923,
			"0.0": 45.3089853494,
			"0.001": 52.8714740975,
			"0.002": 36.2233263301,
			"0.003": 17.1953297018,
			"0.004": 18.1857802396,
			"0.005": 18.5969863451,
			"0.006": 20.149251239,
			"0.007": 7.66227739506,
			"0.008": 1.75091616856,
			"0.009": 1.82040267434,
			"0.01": 1.6296902383,
			"0.011": 1.74650077397,
			"0.012": 1.67429763715,
			"0.013": 0.152906417,
			"0.014": 0.0,
			"0.015": 0.0,
			"0.016": 0.0,
			"0.017": 0.0,
			"0.018": 0.0,
			"0.019": 0.0,
			"0.02": 0.0,
			"0.021": 0.0,
			"0.022": 0.0,
			"0.023": 0.0,
			"0.024": 0.0,
			"0.025": 0.0
		}
	}
}
