{
	 "smiles": "NC1=C(Cl)C=C(C=C1[N+]([O-])=O)C(F)(F)F", 
	 "Tm": 340.15, 
	 "num_atms": 19, 
	 "gaussian": { 
		 "optdone": 1, 
		 "sigma_profile": "yes", 
		 "theory": "DFT", 
		 "functional": "B3LYP", 
		 "basiset": "6-31G**", 
		 "properties": { 
			 "R2extent": 4737.0871, 
			 "electric_dipole_moment_norm": 3.49552821759, 
			 "electric_quadrupole_moment_norm": 7.01972070171, 
			 "total_energy": -1288.73389181, 
			 "HOMO_LUMO_gap": 0.14494, 
			 "cosmo_polarized_energy": -9.13, 
			 "cosmo_cavitation_energy": 27.25, 
			 "cosmo_dispersion_energy": -19.99, 
			 "cosmo_repulsion_energy": 1.5, 
			 "cosmo_total_nonelectrostatic_energy": 8.76, 
			 "SMD_solvation_energy": 7.49 
		},
		"coords": [
			{
				"x": -1.871290554,
				"y": -0.0276027394,
				"z": -1.0346367172,
				"element": "N" 
			},
			{
				"x": -1.1835269905,
				"y": 0.0270698249,
				"z": 0.1209174987,
				"element": "C" 
			},
			{
				"x": -1.8662273942,
				"y": 0.051107098,
				"z": 1.3758685399,
				"element": "C" 
			},
			{
				"x": -3.6229323535,
				"y": 0.0118601135,
				"z": 1.3635582154,
				"element": "Cl" 
			},
			{
				"x": -1.2062533884,
				"y": 0.1078588923,
				"z": 2.5825670609,
				"element": "C" 
			},
			{
				"x": 0.1992546902,
				"y": 0.144047336,
				"z": 2.6183943606,
				"element": "C" 
			},
			{
				"x": 0.9097287591,
				"y": 0.1236955935,
				"z": 1.4340017351,
				"element": "C" 
			},
			{
				"x": 0.2401322207,
				"y": 0.0675428227,
				"z": 0.2064304353,
				"element": "C" 
			},
			{
				"x": 1.0720958941,
				"y": 0.055701038,
				"z": -0.9873399724,
				"element": "N" 
			},
			{
				"x": 2.2922208793,
				"y": 0.0973143643,
				"z": -0.8467852923,
				"element": "O" 
			},
			{
				"x": 0.5217318199,
				"y": 0.0034046546,
				"z": -2.1020174351,
				"element": "O" 
			},
			{
				"x": 0.8964814828,
				"y": 0.1646543599,
				"z": 3.9486238601,
				"element": "C" 
			},
			{
				"x": 0.3356013753,
				"y": 1.0706334648,
				"z": 4.7825332882,
				"element": "F" 
			},
			{
				"x": 0.8152191388,
				"y": -1.0334313689,
				"z": 4.5725200531,
				"element": "F" 
			},
			{
				"x": 2.2039380996,
				"y": 0.4682266359,
				"z": 3.8286018603,
				"element": "F" 
			},
			{
				"x": -1.346562461,
				"y": -0.0402601832,
				"z": -1.8980600931,
				"element": "H" 
			},
			{
				"x": -2.8778362772,
				"y": -0.0494561261,
				"z": -1.0138680332,
				"element": "H" 
			},
			{
				"x": -1.7787915368,
				"y": 0.1312942098,
				"z": 3.5029346104,
				"element": "H" 
			},
			{
				"x": 1.9906165957,
				"y": 0.1550400095,
				"z": 1.4250560253,
				"element": "H" 
			}
		],
		 "valence_orbital": [ 
			{
				"type": "occ",
				"energy": -0.32222,
				"method": "rhf"
			},
			{
				"type": "occ",
				"energy": -0.32121,
				"method": "rhf"
			},
			{
				"type": "occ",
				"energy": -0.3036,
				"method": "rhf"
			},
			{
				"type": "occ",
				"energy": -0.29016,
				"method": "rhf"
			},
			{
				"type": "occ",
				"energy": -0.24665,
				"method": "rhf"
			},
			{
				"type": "unocc",
				"energy": -0.10171,
				"method": "rhf"
			},
			{
				"type": "unocc",
				"energy": -0.03655,
				"method": "rhf"
			},
			{
				"type": "unocc",
				"energy": -0.0205,
				"method": "rhf"
			},
			{
				"type": "unocc",
				"energy": -0.00095,
				"method": "rhf"
			},
			{
				"type": "unocc",
				"energy": 0.0818,
				"method": "rhf"
			}
		],
		"cosmo_sigma_profile": { 
			"-0.025": 0.0,
			"-0.024": 0.0,
			"-0.023": 0.0,
			"-0.022": 0.0,
			"-0.021": 0.0,
			"-0.02": 0.0,
			"-0.019": 0.0,
			"-0.018": 0.0,
			"-0.017": 0.0,
			"-0.016": 0.0,
			"-0.015": 0.0870308397102,
			"-0.014": 0.784911612963,
			"-0.013": 0.649435702616,
			"-0.012": 1.65364666845,
			"-0.011": 1.64700947605,
			"-0.01": 1.94894058686,
			"-0.009": 2.94947004814,
			"-0.008": 3.071693079,
			"-0.007": 3.36772354269,
			"-0.006": 6.31454725962,
			"-0.005": 8.06222003091,
			"-0.004": 8.58079888446,
			"-0.003": 14.2949686122,
			"-0.002": 21.1517347219,
			"-0.001": 22.1952239224,
			"0.0": 22.4246583205,
			"0.001": 14.726262996,
			"0.002": 29.0098465362,
			"0.003": 28.7382789744,
			"0.004": 5.59004922324,
			"0.005": 2.82249093791,
			"0.006": 3.33864162416,
			"0.007": 5.60665349517,
			"0.008": 5.41981902521,
			"0.009": 3.8919405875,
			"0.01": 3.27101595591,
			"0.011": 0.238750381859,
			"0.012": 0.0,
			"0.013": 0.0,
			"0.014": 0.0,
			"0.015": 0.0,
			"0.016": 0.0,
			"0.017": 0.0,
			"0.018": 0.0,
			"0.019": 0.0,
			"0.02": 0.0,
			"0.021": 0.0,
			"0.022": 0.0,
			"0.023": 0.0,
			"0.024": 0.0,
			"0.025": 0.0
		}
	}
}
