{
	 "smiles": "O=C(C=CC1=CC=CS1)C1=CC=CS1", 
	 "Tm": 372.15, 
	 "num_atms": 22, 
	 "gaussian": { 
		 "optdone": 1, 
		 "sigma_profile": "yes", 
		 "theory": "DFT", 
		 "functional": "B3LYP", 
		 "basiset": "6-31G**", 
		 "properties": { 
			 "R2extent": 4314.9447, 
			 "electric_dipole_moment_norm": 4.41157542495, 
			 "electric_quadrupole_moment_norm": 9.98062234282, 
			 "total_energy": -1295.53582132, 
			 "HOMO_LUMO_gap": 0.14836, 
			 "cosmo_polarized_energy": -11.81, 
			 "cosmo_cavitation_energy": 29.86, 
			 "cosmo_dispersion_energy": -21.93, 
			 "cosmo_repulsion_energy": 1.65, 
			 "cosmo_total_nonelectrostatic_energy": 9.58, 
			 "SMD_solvation_energy": 5.69 
		},
		"coords": [
			{
				"x": 1.0813830062,
				"y": 0.9513842572,
				"z": 1.5443779789,
				"element": "O" 
			},
			{
				"x": 0.5489082789,
				"y": 0.4429381751,
				"z": 0.5619613097,
				"element": "C" 
			},
			{
				"x": -0.7719523582,
				"y": -0.2523335711,
				"z": 0.704056115,
				"element": "C" 
			},
			{
				"x": -1.1000575823,
				"y": -1.5402219744,
				"z": 0.4757857197,
				"element": "C" 
			},
			{
				"x": -0.3165879943,
				"y": -2.6855706356,
				"z": 0.0444150619,
				"element": "C" 
			},
			{
				"x": -0.8515970446,
				"y": -3.9234470716,
				"z": -0.2603038354,
				"element": "C" 
			},
			{
				"x": 0.1188089575,
				"y": -4.9025829057,
				"z": -0.6025504356,
				"element": "C" 
			},
			{
				"x": 1.3968236171,
				"y": -4.4132650102,
				"z": -0.5417888847,
				"element": "C" 
			},
			{
				"x": 1.431413393,
				"y": -2.7469349744,
				"z": -0.076380904,
				"element": "S" 
			},
			{
				"x": 1.1303317417,
				"y": 0.5848744173,
				"z": -0.7802257543,
				"element": "C" 
			},
			{
				"x": 0.6087694041,
				"y": 0.2457093808,
				"z": -2.012475939,
				"element": "C" 
			},
			{
				"x": 1.4654264404,
				"y": 0.58759855,
				"z": -3.0909747213,
				"element": "C" 
			},
			{
				"x": 2.6260941886,
				"y": 1.1862204694,
				"z": -2.6641661166,
				"element": "C" 
			},
			{
				"x": 2.6924943605,
				"y": 1.3504880322,
				"z": -0.9474282234,
				"element": "S" 
			},
			{
				"x": -1.5336253812,
				"y": 0.3861818449,
				"z": 1.1462982856,
				"element": "H" 
			},
			{
				"x": -2.1335062179,
				"y": -1.8123889712,
				"z": 0.6898259123,
				"element": "H" 
			},
			{
				"x": -1.9192902245,
				"y": -4.1136805139,
				"z": -0.2319521731,
				"element": "H" 
			},
			{
				"x": -0.1193246775,
				"y": -5.924085524,
				"z": -0.8754029035,
				"element": "H" 
			},
			{
				"x": 2.3235346761,
				"y": -4.9321170066,
				"z": -0.7455757416,
				"element": "H" 
			},
			{
				"x": -0.3574228427,
				"y": -0.2308929217,
				"z": -2.1254781675,
				"element": "H" 
			},
			{
				"x": 1.2344482393,
				"y": 0.4015442852,
				"z": -4.1334650509,
				"element": "H" 
			},
			{
				"x": 3.4465280196,
				"y": 1.5432816684,
				"z": -3.2725515322,
				"element": "H" 
			}
		],
		 "valence_orbital": [ 
			{
				"type": "occ",
				"energy": -0.2631,
				"method": "rhf"
			},
			{
				"type": "occ",
				"energy": -0.25595,
				"method": "rhf"
			},
			{
				"type": "occ",
				"energy": -0.25347,
				"method": "rhf"
			},
			{
				"type": "occ",
				"energy": -0.24213,
				"method": "rhf"
			},
			{
				"type": "occ",
				"energy": -0.22003,
				"method": "rhf"
			},
			{
				"type": "unocc",
				"energy": -0.07167,
				"method": "rhf"
			},
			{
				"type": "unocc",
				"energy": -0.0431,
				"method": "rhf"
			},
			{
				"type": "unocc",
				"energy": 0.0205,
				"method": "rhf"
			},
			{
				"type": "unocc",
				"energy": 0.03174,
				"method": "rhf"
			},
			{
				"type": "unocc",
				"energy": 0.03544,
				"method": "rhf"
			}
		],
		"cosmo_sigma_profile": { 
			"-0.025": 0.0,
			"-0.024": 0.0,
			"-0.023": 0.0,
			"-0.022": 0.0,
			"-0.021": 0.0,
			"-0.02": 0.0,
			"-0.019": 0.0,
			"-0.018": 0.0,
			"-0.017": 0.0,
			"-0.016": 0.0,
			"-0.015": 0.0,
			"-0.014": 0.0,
			"-0.013": 0.0,
			"-0.012": 0.0,
			"-0.011": 0.0,
			"-0.01": 0.211372522848,
			"-0.009": 3.01829305561,
			"-0.008": 5.49981975394,
			"-0.007": 14.9180516748,
			"-0.006": 14.9416649201,
			"-0.005": 14.6030334152,
			"-0.004": 14.772392287,
			"-0.003": 12.4863894024,
			"-0.002": 12.002697428,
			"-0.001": 13.4146472452,
			"0.0": 16.6064197545,
			"0.001": 18.0762834081,
			"0.002": 26.0766339778,
			"0.003": 29.7261803175,
			"0.004": 21.0774506515,
			"0.005": 7.79295034986,
			"0.006": 1.7868755949,
			"0.007": 2.01248556967,
			"0.008": 1.62841038261,
			"0.009": 1.89326527331,
			"0.01": 2.59879458857,
			"0.011": 2.91149130424,
			"0.012": 4.44780459769,
			"0.013": 1.7276734053,
			"0.014": 0.192795095439,
			"0.015": 0.0,
			"0.016": 0.0,
			"0.017": 0.0,
			"0.018": 0.0,
			"0.019": 0.0,
			"0.02": 0.0,
			"0.021": 0.0,
			"0.022": 0.0,
			"0.023": 0.0,
			"0.024": 0.0,
			"0.025": 0.0
		}
	}
}
