{
	 "smiles": "CC1=CC(=CC(C)=C1S(Cl)(=O)=O)[N+]([O-])=O", 
	 "Tm": 358.15, 
	 "num_atms": 23, 
	 "gaussian": { 
		 "optdone": 1, 
		 "sigma_profile": "yes", 
		 "theory": "DFT", 
		 "functional": "B3LYP", 
		 "basiset": "6-31G**", 
		 "properties": { 
			 "R2extent": 4847.5425, 
			 "electric_dipole_moment_norm": 0.327774999047, 
			 "electric_quadrupole_moment_norm": 20.6368185455, 
			 "total_energy": -1523.53175402, 
			 "HOMO_LUMO_gap": 0.16903, 
			 "cosmo_polarized_energy": -10.76, 
			 "cosmo_cavitation_energy": 30.39, 
			 "cosmo_dispersion_energy": -22.49, 
			 "cosmo_repulsion_energy": 1.69, 
			 "cosmo_total_nonelectrostatic_energy": 9.6, 
			 "SMD_solvation_energy": 6.4 
		},
		"coords": [
			{
				"x": 2.3284664492,
				"y": 1.0243991053,
				"z": 1.4773178623,
				"element": "C" 
			},
			{
				"x": 1.2932936265,
				"y": 0.2770616896,
				"z": 0.6661303593,
				"element": "C" 
			},
			{
				"x": 0.3160376493,
				"y": -0.4319080359,
				"z": 1.3715213032,
				"element": "C" 
			},
			{
				"x": -0.6458596799,
				"y": -1.1566606749,
				"z": 0.6857521345,
				"element": "C" 
			},
			{
				"x": -0.6722833282,
				"y": -1.2295814664,
				"z": -0.6972150606,
				"element": "C" 
			},
			{
				"x": 0.2821442539,
				"y": -0.5448872485,
				"z": -1.4597382824,
				"element": "C" 
			},
			{
				"x": 0.1992356808,
				"y": -0.7038962238,
				"z": -2.9621872717,
				"element": "C" 
			},
			{
				"x": 1.2372854534,
				"y": 0.223317375,
				"z": -0.749197024,
				"element": "C" 
			},
			{
				"x": 2.4607621563,
				"y": 1.1905847995,
				"z": -1.6751626825,
				"element": "S" 
			},
			{
				"x": 4.1628772435,
				"y": -0.1033030076,
				"z": -1.5520947565,
				"element": "Cl" 
			},
			{
				"x": 2.8027396468,
				"y": 2.3990720598,
				"z": -0.9381072604,
				"element": "O" 
			},
			{
				"x": 2.1167085753,
				"y": 1.2602418577,
				"z": -3.0876068171,
				"element": "O" 
			},
			{
				"x": -1.6697517428,
				"y": -1.8932087846,
				"z": 1.458330907,
				"element": "N" 
			},
			{
				"x": -1.6165636359,
				"y": -1.8162839549,
				"z": 2.6832616735,
				"element": "O" 
			},
			{
				"x": -2.505555783,
				"y": -2.5320799025,
				"z": 0.8239359499,
				"element": "O" 
			},
			{
				"x": 2.1903848159,
				"y": 2.105141773,
				"z": 1.4009292877,
				"element": "H" 
			},
			{
				"x": 2.2430184865,
				"y": 0.7330146745,
				"z": 2.52595788,
				"element": "H" 
			},
			{
				"x": 3.3467808312,
				"y": 0.8111932215,
				"z": 1.1441233125,
				"element": "H" 
			},
			{
				"x": 0.304817696,
				"y": -0.4252728626,
				"z": 2.4540039002,
				"element": "H" 
			},
			{
				"x": -1.4343542764,
				"y": -1.8272376534,
				"z": -1.1808351591,
				"element": "H" 
			},
			{
				"x": -0.0532693997,
				"y": 0.237088606,
				"z": -3.4555811784,
				"element": "H" 
			},
			{
				"x": -0.5698821956,
				"y": -1.4407675227,
				"z": -3.2016747144,
				"element": "H" 
			},
			{
				"x": 1.1456674772,
				"y": -1.0374278241,
				"z": -3.3928643631,
				"element": "H" 
			}
		],
		 "valence_orbital": [ 
			{
				"type": "occ",
				"energy": -0.32618,
				"method": "rhf"
			},
			{
				"type": "occ",
				"energy": -0.32571,
				"method": "rhf"
			},
			{
				"type": "occ",
				"energy": -0.31157,
				"method": "rhf"
			},
			{
				"type": "occ",
				"energy": -0.30723,
				"method": "rhf"
			},
			{
				"type": "occ",
				"energy": -0.28991,
				"method": "rhf"
			},
			{
				"type": "unocc",
				"energy": -0.12088,
				"method": "rhf"
			},
			{
				"type": "unocc",
				"energy": -0.09067,
				"method": "rhf"
			},
			{
				"type": "unocc",
				"energy": -0.0497,
				"method": "rhf"
			},
			{
				"type": "unocc",
				"energy": -0.03982,
				"method": "rhf"
			},
			{
				"type": "unocc",
				"energy": 0.03947,
				"method": "rhf"
			}
		],
		"cosmo_sigma_profile": { 
			"-0.025": 0.0,
			"-0.024": 0.0,
			"-0.023": 0.0,
			"-0.022": 0.0,
			"-0.021": 0.0,
			"-0.02": 0.0,
			"-0.019": 0.0,
			"-0.018": 0.0,
			"-0.017": 0.0,
			"-0.016": 0.0,
			"-0.015": 0.0,
			"-0.014": 0.0,
			"-0.013": 0.0,
			"-0.012": 0.0,
			"-0.011": 0.0,
			"-0.01": 0.0,
			"-0.009": 1.13473507003,
			"-0.008": 4.76809849845,
			"-0.007": 7.71282710573,
			"-0.006": 9.03355437595,
			"-0.005": 13.7382109938,
			"-0.004": 17.2565230733,
			"-0.003": 22.593337266,
			"-0.002": 35.0319947201,
			"-0.001": 26.955947905,
			"0.0": 11.2391157111,
			"0.001": 10.4090529677,
			"0.002": 12.448672855,
			"0.003": 14.6998849582,
			"0.004": 10.4523713169,
			"0.005": 6.555510205,
			"0.006": 9.37281442526,
			"0.007": 14.6321934029,
			"0.008": 11.6375590652,
			"0.009": 5.40141350172,
			"0.01": 0.396896334684,
			"0.011": 0.0,
			"0.012": 0.0,
			"0.013": 0.0,
			"0.014": 0.0,
			"0.015": 0.0,
			"0.016": 0.0,
			"0.017": 0.0,
			"0.018": 0.0,
			"0.019": 0.0,
			"0.02": 0.0,
			"0.021": 0.0,
			"0.022": 0.0,
			"0.023": 0.0,
			"0.024": 0.0,
			"0.025": 0.0
		}
	}
}
