{
	 "smiles": "NC1=C(C=NC(Cl)=N1)[N+]([O-])=O", 
	 "Tm": 483.15, 
	 "num_atms": 14, 
	 "gaussian": { 
		 "optdone": 1, 
		 "sigma_profile": "yes", 
		 "theory": "DFT", 
		 "functional": "B3LYP", 
		 "basiset": "6-31G**", 
		 "properties": { 
			 "R2extent": 2373.4716, 
			 "electric_dipole_moment_norm": 2.71564517196, 
			 "electric_quadrupole_moment_norm": 10.8953696844, 
			 "total_energy": -983.785649113, 
			 "HOMO_LUMO_gap": 0.16748, 
			 "cosmo_polarized_energy": -11.96, 
			 "cosmo_cavitation_energy": 21.39, 
			 "cosmo_dispersion_energy": -16.6, 
			 "cosmo_repulsion_energy": 1.34, 
			 "cosmo_total_nonelectrostatic_energy": 6.14, 
			 "SMD_solvation_energy": 2.69 
		},
		"coords": [
			{
				"x": -1.7228313752,
				"y": -1.1678553342,
				"z": -0.9944388688,
				"element": "N" 
			},
			{
				"x": -0.6144704865,
				"y": -0.4332460982,
				"z": -0.8519672328,
				"element": "C" 
			},
			{
				"x": -0.401212328,
				"y": 0.840357984,
				"z": -1.4575133553,
				"element": "C" 
			},
			{
				"x": 0.8124518174,
				"y": 1.4798890638,
				"z": -1.2078058792,
				"element": "C" 
			},
			{
				"x": 1.7654018169,
				"y": 0.9572951064,
				"z": -0.4390968958,
				"element": "N" 
			},
			{
				"x": 1.4594884878,
				"y": -0.2393663053,
				"z": 0.0763349755,
				"element": "C" 
			},
			{
				"x": 2.6921314919,
				"y": -0.9498508895,
				"z": 1.0887248189,
				"element": "Cl" 
			},
			{
				"x": 0.3639555611,
				"y": -0.9523936489,
				"z": -0.072804399,
				"element": "N" 
			},
			{
				"x": -1.3732612974,
				"y": 1.4886575573,
				"z": -2.3066002699,
				"element": "N" 
			},
			{
				"x": -1.0907512932,
				"y": 2.5866918105,
				"z": -2.7805683097,
				"element": "O" 
			},
			{
				"x": -2.4498703164,
				"y": 0.9037516724,
				"z": -2.517406274,
				"element": "O" 
			},
			{
				"x": -1.7626008542,
				"y": -2.0563316252,
				"z": -0.5186915904,
				"element": "H" 
			},
			{
				"x": -2.4751026875,
				"y": -0.8136932714,
				"z": -1.5686693055,
				"element": "H" 
			},
			{
				"x": 0.9997714634,
				"y": 2.4505939783,
				"z": -1.6563974139,
				"element": "H" 
			}
		],
		 "valence_orbital": [ 
			{
				"type": "occ",
				"energy": -0.32303,
				"method": "rhf"
			},
			{
				"type": "occ",
				"energy": -0.31362,
				"method": "rhf"
			},
			{
				"type": "occ",
				"energy": -0.30952,
				"method": "rhf"
			},
			{
				"type": "occ",
				"energy": -0.28637,
				"method": "rhf"
			},
			{
				"type": "occ",
				"energy": -0.27696,
				"method": "rhf"
			},
			{
				"type": "unocc",
				"energy": -0.10948,
				"method": "rhf"
			},
			{
				"type": "unocc",
				"energy": -0.05132,
				"method": "rhf"
			},
			{
				"type": "unocc",
				"energy": -0.02731,
				"method": "rhf"
			},
			{
				"type": "unocc",
				"energy": 0.02513,
				"method": "rhf"
			},
			{
				"type": "unocc",
				"energy": 0.07142,
				"method": "rhf"
			}
		],
		"cosmo_sigma_profile": { 
			"-0.025": 0.0,
			"-0.024": 0.0,
			"-0.023": 0.0,
			"-0.022": 0.0,
			"-0.021": 0.0,
			"-0.02": 0.0,
			"-0.019": 0.0,
			"-0.018": 0.0,
			"-0.017": 0.0,
			"-0.016": 0.655365213809,
			"-0.015": 1.2433150103,
			"-0.014": 0.691524948552,
			"-0.013": 2.13069176885,
			"-0.012": 1.79379566634,
			"-0.011": 2.35526416139,
			"-0.01": 1.34623951573,
			"-0.009": 2.72710508039,
			"-0.008": 3.07457961505,
			"-0.007": 5.94126679307,
			"-0.006": 7.71611967682,
			"-0.005": 10.8976101661,
			"-0.004": 12.291433031,
			"-0.003": 10.5956873762,
			"-0.002": 9.79426223126,
			"-0.001": 9.29150215223,
			"0.0": 8.64904541193,
			"0.001": 9.74189021729,
			"0.002": 9.77062807657,
			"0.003": 12.9375356587,
			"0.004": 8.73338261483,
			"0.005": 7.36851387626,
			"0.006": 6.76160067995,
			"0.007": 8.94931208456,
			"0.008": 7.22017123127,
			"0.009": 5.95018452224,
			"0.01": 3.04741612847,
			"0.011": 1.60696239245,
			"0.012": 1.04487969017,
			"0.013": 0.560640455949,
			"0.014": 0.247374164362,
			"0.015": 0.0,
			"0.016": 0.0,
			"0.017": 0.0,
			"0.018": 0.0,
			"0.019": 0.0,
			"0.02": 0.0,
			"0.021": 0.0,
			"0.022": 0.0,
			"0.023": 0.0,
			"0.024": 0.0,
			"0.025": 0.0
		}
	}
}
