{
	 "smiles": "COCCOC1=C(N2CC2)C(=O)C(OCCOC)=C(N2CC2)C1=O", 
	 "Tm": 353.15, 
	 "num_atms": 46, 
	 "gaussian": { 
		 "optdone": 1, 
		 "sigma_profile": "yes", 
		 "theory": "DFT", 
		 "functional": "B3LYP", 
		 "basiset": "6-31G**", 
		 "properties": { 
			 "R2extent": 10402.2629, 
			 "electric_dipole_moment_norm": 0.899154580703, 
			 "electric_quadrupole_moment_norm": 17.095985618, 
			 "total_energy": -1183.60206142, 
			 "HOMO_LUMO_gap": 0.10221, 
			 "cosmo_polarized_energy": -17.85, 
			 "cosmo_cavitation_energy": 49.42, 
			 "cosmo_dispersion_energy": -33.22, 
			 "cosmo_repulsion_energy": 2.6, 
			 "cosmo_total_nonelectrostatic_energy": 18.8, 
			 "SMD_solvation_energy": 5.56 
		},
		"coords": [
			{
				"x": -5.5771933682,
				"y": 0.2765294341,
				"z": -1.3956015251,
				"element": "C" 
			},
			{
				"x": -5.7347527059,
				"y": 0.6102162262,
				"z": -0.0290228048,
				"element": "O" 
			},
			{
				"x": -4.5716252162,
				"y": 0.4144577604,
				"z": 0.7562404464,
				"element": "C" 
			},
			{
				"x": -3.6276151989,
				"y": 1.6182026066,
				"z": 0.6697075343,
				"element": "C" 
			},
			{
				"x": -2.4875726408,
				"y": 1.4174638181,
				"z": 1.5311054107,
				"element": "O" 
			},
			{
				"x": -1.4240461518,
				"y": 0.718050879,
				"z": 1.0436587638,
				"element": "C" 
			},
			{
				"x": -0.9948309995,
				"y": -0.4028378081,
				"z": 1.6909540483,
				"element": "C" 
			},
			{
				"x": -1.7003233111,
				"y": -1.0038653624,
				"z": 2.7193653003,
				"element": "N" 
			},
			{
				"x": -2.1071006856,
				"y": -0.3144841566,
				"z": 3.9373327582,
				"element": "C" 
			},
			{
				"x": -1.098677708,
				"y": -1.4188737618,
				"z": 3.9780313447,
				"element": "C" 
			},
			{
				"x": 0.1958450696,
				"y": -1.1394159685,
				"z": 1.1747269926,
				"element": "C" 
			},
			{
				"x": 0.5301474593,
				"y": -2.2118056817,
				"z": 1.6648591412,
				"element": "O" 
			},
			{
				"x": 0.96711964,
				"y": -0.5534202637,
				"z": 0.028445827,
				"element": "C" 
			},
			{
				"x": 1.9961887015,
				"y": -1.2750943261,
				"z": -0.4566792862,
				"element": "O" 
			},
			{
				"x": 3.0831486317,
				"y": -1.6595913545,
				"z": 0.4108463974,
				"element": "C" 
			},
			{
				"x": 3.325067106,
				"y": -3.1589432148,
				"z": 0.2439956797,
				"element": "C" 
			},
			{
				"x": 4.4944367584,
				"y": -3.5708966335,
				"z": 0.9317524991,
				"element": "O" 
			},
			{
				"x": 5.6879443542,
				"y": -3.4247482525,
				"z": 0.1867661432,
				"element": "C" 
			},
			{
				"x": 0.5622092686,
				"y": 0.5891394045,
				"z": -0.5933265855,
				"element": "C" 
			},
			{
				"x": 1.3302764655,
				"y": 1.054160789,
				"z": -1.6853393258,
				"element": "N" 
			},
			{
				"x": 0.7154056919,
				"y": 1.6682206395,
				"z": -2.873828785,
				"element": "C" 
			},
			{
				"x": 1.5438431694,
				"y": 2.4881258451,
				"z": -1.9523755536,
				"element": "C" 
			},
			{
				"x": -0.6592572712,
				"y": 1.2947676207,
				"z": -0.0913544093,
				"element": "C" 
			},
			{
				"x": -1.0298864064,
				"y": 2.3548322428,
				"z": -0.6002387235,
				"element": "O" 
			},
			{
				"x": -6.5487768365,
				"y": 0.4248173377,
				"z": -1.8731158662,
				"element": "H" 
			},
			{
				"x": -5.276893897,
				"y": -0.7751013297,
				"z": -1.5220586892,
				"element": "H" 
			},
			{
				"x": -4.838648361,
				"y": 0.9101159736,
				"z": -1.9080846437,
				"element": "H" 
			},
			{
				"x": -4.0412645876,
				"y": -0.5054398721,
				"z": 0.4642470763,
				"element": "H" 
			},
			{
				"x": -4.9050280855,
				"y": 0.2902012419,
				"z": 1.7914331496,
				"element": "H" 
			},
			{
				"x": -3.300843032,
				"y": 1.8153916275,
				"z": -0.3525655411,
				"element": "H" 
			},
			{
				"x": -4.1282105638,
				"y": 2.513154888,
				"z": 1.0462475576,
				"element": "H" 
			},
			{
				"x": -1.7558187831,
				"y": 0.7042079452,
				"z": 4.0782944704,
				"element": "H" 
			},
			{
				"x": -3.1308928893,
				"y": -0.4956709616,
				"z": 4.2541110866,
				"element": "H" 
			},
			{
				"x": -0.0605038496,
				"y": -1.1517668215,
				"z": 4.1584305672,
				"element": "H" 
			},
			{
				"x": -1.3804730576,
				"y": -2.4103394527,
				"z": 4.3211236816,
				"element": "H" 
			},
			{
				"x": 2.8627171139,
				"y": -1.428733279,
				"z": 1.4545414378,
				"element": "H" 
			},
			{
				"x": 3.958082209,
				"y": -1.0780604675,
				"z": 0.0979380975,
				"element": "H" 
			},
			{
				"x": 3.3806690797,
				"y": -3.4028771981,
				"z": -0.8278261786,
				"element": "H" 
			},
			{
				"x": 2.4816768463,
				"y": -3.7009915713,
				"z": 0.6778799219,
				"element": "H" 
			},
			{
				"x": 5.6568583952,
				"y": -4.0098265371,
				"z": -0.7453761352,
				"element": "H" 
			},
			{
				"x": 6.5022507877,
				"y": -3.8009394496,
				"z": 0.8111687332,
				"element": "H" 
			},
			{
				"x": 5.9056714234,
				"y": -2.3780465584,
				"z": -0.0731996512,
				"element": "H" 
			},
			{
				"x": 1.1246849563,
				"y": 1.3111534425,
				"z": -3.8165575584,
				"element": "H" 
			},
			{
				"x": -0.3533616199,
				"y": 1.8575639155,
				"z": -2.8628741814,
				"element": "H" 
			},
			{
				"x": 1.0205192141,
				"y": 3.2152937044,
				"z": -1.3413831921,
				"element": "H" 
			},
			{
				"x": 2.5721348848,
				"y": 2.7326029408,
				"z": -2.211195431,
				"element": "H" 
			}
		],
		 "valence_orbital": [ 
			{
				"type": "occ",
				"energy": -0.25671,
				"method": "rhf"
			},
			{
				"type": "occ",
				"energy": -0.25504,
				"method": "rhf"
			},
			{
				"type": "occ",
				"energy": -0.24541,
				"method": "rhf"
			},
			{
				"type": "occ",
				"energy": -0.23012,
				"method": "rhf"
			},
			{
				"type": "occ",
				"energy": -0.21624,
				"method": "rhf"
			},
			{
				"type": "unocc",
				"energy": -0.11403,
				"method": "rhf"
			},
			{
				"type": "unocc",
				"energy": 0.00101,
				"method": "rhf"
			},
			{
				"type": "unocc",
				"energy": 0.01601,
				"method": "rhf"
			},
			{
				"type": "unocc",
				"energy": 0.07231,
				"method": "rhf"
			},
			{
				"type": "unocc",
				"energy": 0.08437,
				"method": "rhf"
			}
		],
		"cosmo_sigma_profile": { 
			"-0.025": 0.0,
			"-0.024": 0.0,
			"-0.023": 0.0,
			"-0.022": 0.0,
			"-0.021": 0.0,
			"-0.02": 0.0,
			"-0.019": 0.0,
			"-0.018": 0.0,
			"-0.017": 0.0,
			"-0.016": 0.0,
			"-0.015": 0.0,
			"-0.014": 0.0,
			"-0.013": 0.0,
			"-0.012": 0.0,
			"-0.011": 0.0,
			"-0.01": 0.0,
			"-0.009": 0.0,
			"-0.008": 0.00430876209467,
			"-0.007": 4.29910153006,
			"-0.006": 17.7680434241,
			"-0.005": 32.2067719941,
			"-0.004": 48.8438816409,
			"-0.003": 50.2576045365,
			"-0.002": 47.1894272053,
			"-0.001": 30.8235310836,
			"0.0": 23.6005404119,
			"0.001": 20.1244945241,
			"0.002": 16.9920050781,
			"0.003": 12.4426014186,
			"0.004": 10.5152933575,
			"0.005": 11.1885895903,
			"0.006": 10.1408438283,
			"0.007": 8.99552861091,
			"0.008": 9.09208695193,
			"0.009": 9.61385395176,
			"0.01": 8.15313307257,
			"0.011": 6.05452212994,
			"0.012": 3.99445346902,
			"0.013": 4.1625653827,
			"0.014": 1.44685297765,
			"0.015": 0.700773240324,
			"0.016": 0.429752798549,
			"0.017": 0.666333383347,
			"0.018": 0.0894993086862,
			"0.019": 0.0,
			"0.02": 0.0,
			"0.021": 0.0,
			"0.022": 0.0,
			"0.023": 0.0,
			"0.024": 0.0,
			"0.025": 0.0
		}
	}
}
