{
	 "smiles": "OC(=O)C1=CC2=C(C=C1)C(=O)N(CC1=CC=CO1)C2=O", 
	 "Tm": 447.15, 
	 "num_atms": 29, 
	 "gaussian": { 
		 "optdone": 1, 
		 "sigma_profile": "yes", 
		 "theory": "DFT", 
		 "functional": "B3LYP", 
		 "basiset": "6-31G**", 
		 "properties": { 
			 "R2extent": 7137.5502, 
			 "electric_dipole_moment_norm": 2.76633756075, 
			 "electric_quadrupole_moment_norm": 26.8158304199, 
			 "total_energy": -969.792529786, 
			 "HOMO_LUMO_gap": 0.12894, 
			 "cosmo_polarized_energy": -21.01, 
			 "cosmo_cavitation_energy": 36.07, 
			 "cosmo_dispersion_energy": -25.25, 
			 "cosmo_repulsion_energy": 1.9, 
			 "cosmo_total_nonelectrostatic_energy": 12.72, 
			 "SMD_solvation_energy": 9.19 
		},
		"coords": [
			{
				"x": 1.3138644755,
				"y": -5.8148600405,
				"z": 0.5236865776,
				"element": "O" 
			},
			{
				"x": 0.0645096639,
				"y": -5.4262825215,
				"z": 0.8825566654,
				"element": "C" 
			},
			{
				"x": -0.8044629642,
				"y": -6.2485423548,
				"z": 1.0475163527,
				"element": "O" 
			},
			{
				"x": -0.1667142244,
				"y": -3.9497487643,
				"z": 1.0554150652,
				"element": "C" 
			},
			{
				"x": 0.6664036917,
				"y": -2.9774964693,
				"z": 0.4739075037,
				"element": "C" 
			},
			{
				"x": 0.3462885216,
				"y": -1.6461026482,
				"z": 0.6834971232,
				"element": "C" 
			},
			{
				"x": -0.7612462911,
				"y": -1.271348863,
				"z": 1.4443156271,
				"element": "C" 
			},
			{
				"x": -1.6001963081,
				"y": -2.217685356,
				"z": 2.0171376534,
				"element": "C" 
			},
			{
				"x": -1.2932049281,
				"y": -3.5643367132,
				"z": 1.8041382281,
				"element": "C" 
			},
			{
				"x": -0.81929128,
				"y": 0.2242222913,
				"z": 1.481415273,
				"element": "C" 
			},
			{
				"x": -1.6126297766,
				"y": 0.9418643244,
				"z": 2.0528663255,
				"element": "O" 
			},
			{
				"x": 0.2745397841,
				"y": 0.6584475751,
				"z": 0.7125305132,
				"element": "N" 
			},
			{
				"x": 0.5857639934,
				"y": 2.0661261728,
				"z": 0.447631954,
				"element": "C" 
			},
			{
				"x": 0.1712448293,
				"y": 2.5258728367,
				"z": -0.9102499165,
				"element": "C" 
			},
			{
				"x": 0.831893802,
				"y": 2.6423751332,
				"z": -2.0981048718,
				"element": "C" 
			},
			{
				"x": -0.1266739514,
				"y": 3.1197648385,
				"z": -3.0505581481,
				"element": "C" 
			},
			{
				"x": -1.2987259671,
				"y": 3.2533683488,
				"z": -2.3705225355,
				"element": "C" 
			},
			{
				"x": -1.1374441881,
				"y": 2.896815353,
				"z": -1.0654542874,
				"element": "O" 
			},
			{
				"x": 1.029620499,
				"y": -0.406798142,
				"z": 0.202842086,
				"element": "C" 
			},
			{
				"x": 2.0352987469,
				"y": -0.3018006434,
				"z": -0.4706209505,
				"element": "O" 
			},
			{
				"x": 1.9350445277,
				"y": -5.0758638209,
				"z": 0.5812708938,
				"element": "H" 
			},
			{
				"x": 1.5166001854,
				"y": -3.2312933733,
				"z": -0.1536270201,
				"element": "H" 
			},
			{
				"x": -2.4632375019,
				"y": -1.9179371266,
				"z": 2.6023526147,
				"element": "H" 
			},
			{
				"x": -1.919779784,
				"y": -4.3503979528,
				"z": 2.2113554111,
				"element": "H" 
			},
			{
				"x": 0.0730257132,
				"y": 2.6436147599,
				"z": 1.2208025894,
				"element": "H" 
			},
			{
				"x": 1.6650571822,
				"y": 2.193669885,
				"z": 0.5569902974,
				"element": "H" 
			},
			{
				"x": 1.8708539875,
				"y": 2.4018587937,
				"z": -2.2709578668,
				"element": "H" 
			},
			{
				"x": 0.0386902013,
				"y": 3.3337422716,
				"z": -4.0965721739,
				"element": "H" 
			},
			{
				"x": -2.2886926396,
				"y": 3.5798522059,
				"z": -2.649060984,
				"element": "H" 
			}
		],
		 "valence_orbital": [ 
			{
				"type": "occ",
				"energy": -0.29133,
				"method": "rhf"
			},
			{
				"type": "occ",
				"energy": -0.28261,
				"method": "rhf"
			},
			{
				"type": "occ",
				"energy": -0.28219,
				"method": "rhf"
			},
			{
				"type": "occ",
				"energy": -0.27959,
				"method": "rhf"
			},
			{
				"type": "occ",
				"energy": -0.23138,
				"method": "rhf"
			},
			{
				"type": "unocc",
				"energy": -0.10244,
				"method": "rhf"
			},
			{
				"type": "unocc",
				"energy": -0.06789,
				"method": "rhf"
			},
			{
				"type": "unocc",
				"energy": -0.01894,
				"method": "rhf"
			},
			{
				"type": "unocc",
				"energy": 0.0023,
				"method": "rhf"
			},
			{
				"type": "unocc",
				"energy": 0.0442,
				"method": "rhf"
			}
		],
		"cosmo_sigma_profile": { 
			"-0.025": 0.0,
			"-0.024": 0.0,
			"-0.023": 0.0,
			"-0.022": 0.0,
			"-0.021": 0.0,
			"-0.02": 0.276069498612,
			"-0.019": 0.876398114348,
			"-0.018": 1.35399153131,
			"-0.017": 0.934544928369,
			"-0.016": 1.04119315638,
			"-0.015": 0.886631866306,
			"-0.014": 1.1686318982,
			"-0.013": 0.737518596363,
			"-0.012": 1.77155475998,
			"-0.011": 1.04103078296,
			"-0.01": 1.0728063411,
			"-0.009": 3.49319634999,
			"-0.008": 6.27106066131,
			"-0.007": 13.2393060596,
			"-0.006": 17.0293773601,
			"-0.005": 17.5578789439,
			"-0.004": 19.5241501772,
			"-0.003": 18.1246484323,
			"-0.002": 21.4431743503,
			"-0.001": 20.479817793,
			"0.0": 19.0725295957,
			"0.001": 13.9470187332,
			"0.002": 11.7192204405,
			"0.003": 13.9237496888,
			"0.004": 12.7698799441,
			"0.005": 12.4807895411,
			"0.006": 8.87942412446,
			"0.007": 6.06237900811,
			"0.008": 8.44423288856,
			"0.009": 7.67671178566,
			"0.01": 11.9090406618,
			"0.011": 12.2182258364,
			"0.012": 3.18710083494,
			"0.013": 0.378877716946,
			"0.014": 0.0,
			"0.015": 0.0,
			"0.016": 0.0,
			"0.017": 0.0,
			"0.018": 0.0,
			"0.019": 0.0,
			"0.02": 0.0,
			"0.021": 0.0,
			"0.022": 0.0,
			"0.023": 0.0,
			"0.024": 0.0,
			"0.025": 0.0
		}
	}
}
