{
	 "smiles": "O=C1NCCCC2=C1C=CS2", 
	 "Tm": 363.15, 
	 "num_atms": 20, 
	 "gaussian": { 
		 "optdone": 1, 
		 "sigma_profile": "yes", 
		 "theory": "DFT", 
		 "functional": "B3LYP", 
		 "basiset": "6-31G**", 
		 "properties": { 
			 "R2extent": 1927.9136, 
			 "electric_dipole_moment_norm": 3.56322431795, 
			 "electric_quadrupole_moment_norm": 13.5352664931, 
			 "total_energy": -838.443335989, 
			 "HOMO_LUMO_gap": 0.20375, 
			 "cosmo_polarized_energy": -11.51, 
			 "cosmo_cavitation_energy": 24.02, 
			 "cosmo_dispersion_energy": -18.59, 
			 "cosmo_repulsion_energy": 1.44, 
			 "cosmo_total_nonelectrostatic_energy": 6.87, 
			 "SMD_solvation_energy": 3.61 
		},
		"coords": [
			{
				"x": 0.9939868587,
				"y": -0.4359273093,
				"z": -2.6239218224,
				"element": "O" 
			},
			{
				"x": 0.7412763066,
				"y": -0.1757935392,
				"z": -1.4521632574,
				"element": "C" 
			},
			{
				"x": 1.2945553718,
				"y": 0.9170106555,
				"z": -0.8120080583,
				"element": "N" 
			},
			{
				"x": 1.4958002898,
				"y": 0.980401108,
				"z": 0.6396689714,
				"element": "C" 
			},
			{
				"x": 0.2692571474,
				"y": 1.481686595,
				"z": 1.4186924711,
				"element": "C" 
			},
			{
				"x": -1.0604508663,
				"y": 0.9144171866,
				"z": 0.8693826952,
				"element": "C" 
			},
			{
				"x": -0.97539471,
				"y": -0.5113470093,
				"z": 0.3924142201,
				"element": "C" 
			},
			{
				"x": -0.1988558884,
				"y": -0.9982487937,
				"z": -0.6400062947,
				"element": "C" 
			},
			{
				"x": -0.438078499,
				"y": -2.3817368624,
				"z": -0.9227796466,
				"element": "C" 
			},
			{
				"x": -1.3667890159,
				"y": -2.9374308792,
				"z": -0.0943039376,
				"element": "C" 
			},
			{
				"x": -1.9915751627,
				"y": -1.7686559843,
				"z": 1.0326589632,
				"element": "S" 
			},
			{
				"x": 1.9655459378,
				"y": 1.3976948682,
				"z": -1.3973289335,
				"element": "H" 
			},
			{
				"x": 1.7751805735,
				"y": -0.0121713162,
				"z": 1.0118884696,
				"element": "H" 
			},
			{
				"x": 2.3480209438,
				"y": 1.6395944061,
				"z": 0.8271549451,
				"element": "H" 
			},
			{
				"x": 0.3995737201,
				"y": 1.2001891555,
				"z": 2.4704894065,
				"element": "H" 
			},
			{
				"x": 0.2135574831,
				"y": 2.5757114938,
				"z": 1.3836908838,
				"element": "H" 
			},
			{
				"x": -1.3666588379,
				"y": 1.529832943,
				"z": 0.0151712276,
				"element": "H" 
			},
			{
				"x": -1.8462587706,
				"y": 1.0203440643,
				"z": 1.623504656,
				"element": "H" 
			},
			{
				"x": 0.0753628869,
				"y": -2.9115232432,
				"z": -1.7156582576,
				"element": "H" 
			},
			{
				"x": -1.7284557686,
				"y": -3.9559475392,
				"z": -0.0733467014,
				"element": "H" 
			}
		],
		 "valence_orbital": [ 
			{
				"type": "occ",
				"energy": -0.34262,
				"method": "rhf"
			},
			{
				"type": "occ",
				"energy": -0.25764,
				"method": "rhf"
			},
			{
				"type": "occ",
				"energy": -0.25369,
				"method": "rhf"
			},
			{
				"type": "occ",
				"energy": -0.23982,
				"method": "rhf"
			},
			{
				"type": "occ",
				"energy": -0.23238,
				"method": "rhf"
			},
			{
				"type": "unocc",
				"energy": -0.02863,
				"method": "rhf"
			},
			{
				"type": "unocc",
				"energy": 0.01507,
				"method": "rhf"
			},
			{
				"type": "unocc",
				"energy": 0.02263,
				"method": "rhf"
			},
			{
				"type": "unocc",
				"energy": 0.07977,
				"method": "rhf"
			},
			{
				"type": "unocc",
				"energy": 0.08819,
				"method": "rhf"
			}
		],
		"cosmo_sigma_profile": { 
			"-0.025": 0.0,
			"-0.024": 0.0,
			"-0.023": 0.0,
			"-0.022": 0.0,
			"-0.021": 0.0,
			"-0.02": 0.0,
			"-0.019": 0.0,
			"-0.018": 0.0,
			"-0.017": 0.0,
			"-0.016": 0.0,
			"-0.015": 0.0,
			"-0.014": 0.00345363953873,
			"-0.013": 0.920486703705,
			"-0.012": 1.40454367961,
			"-0.011": 0.954634956441,
			"-0.01": 1.02907622062,
			"-0.009": 1.16593417482,
			"-0.008": 3.79010146805,
			"-0.007": 3.61475364687,
			"-0.006": 6.38343756503,
			"-0.005": 10.2744878086,
			"-0.004": 16.3581288175,
			"-0.003": 23.9056609732,
			"-0.002": 20.2725835217,
			"-0.001": 15.3074958518,
			"0.0": 11.6534289842,
			"0.001": 8.98616796765,
			"0.002": 12.420789917,
			"0.003": 12.6711934844,
			"0.004": 12.5426804407,
			"0.005": 6.55491977867,
			"0.006": 2.53889292518,
			"0.007": 1.50274055427,
			"0.008": 1.61338912846,
			"0.009": 1.21362974367,
			"0.01": 1.44710909878,
			"0.011": 1.78535902049,
			"0.012": 1.64074401402,
			"0.013": 3.52318984432,
			"0.014": 5.6092644346,
			"0.015": 0.979348825066,
			"0.016": 0.0,
			"0.017": 0.0,
			"0.018": 0.0,
			"0.019": 0.0,
			"0.02": 0.0,
			"0.021": 0.0,
			"0.022": 0.0,
			"0.023": 0.0,
			"0.024": 0.0,
			"0.025": 0.0
		}
	}
}
