{
	 "smiles": "CCOC(=O)C1=CC2=C(N1)C=C(Br)C=C2", 
	 "Tm": 461.15, 
	 "num_atms": 25, 
	 "gaussian": { 
		 "optdone": 1, 
		 "sigma_profile": "yes", 
		 "theory": "DFT", 
		 "functional": "B3LYP", 
		 "basiset": "6-31G**", 
		 "properties": { 
			 "R2extent": 9194.4743, 
			 "electric_dipole_moment_norm": 2.7136805173, 
			 "electric_quadrupole_moment_norm": 5.85213621082, 
			 "total_energy": -3201.82910099, 
			 "HOMO_LUMO_gap": 0.16336, 
			 "cosmo_polarized_energy": -9.47, 
			 "cosmo_cavitation_energy": 32.12, 
			 "cosmo_dispersion_energy": -23.99, 
			 "cosmo_repulsion_energy": 1.89, 
			 "cosmo_total_nonelectrostatic_energy": 10.02, 
			 "SMD_solvation_energy": 5.02 
		},
		"coords": [
			{
				"x": 1.4945584606,
				"y": 1.5208490427,
				"z": 3.8805463634,
				"element": "C" 
			},
			{
				"x": 2.5356329312,
				"y": 0.6099936144,
				"z": 3.2477062189,
				"element": "C" 
			},
			{
				"x": 1.9724093286,
				"y": -0.1518506858,
				"z": 2.1515408338,
				"element": "O" 
			},
			{
				"x": 1.9565419723,
				"y": 0.4528327193,
				"z": 0.9479027275,
				"element": "C" 
			},
			{
				"x": 2.3829940473,
				"y": 1.5750636806,
				"z": 0.7239980628,
				"element": "O" 
			},
			{
				"x": 1.3666990355,
				"y": -0.3936298673,
				"z": -0.0930251607,
				"element": "C" 
			},
			{
				"x": 0.8319503212,
				"y": -1.6642269946,
				"z": -0.0728737116,
				"element": "C" 
			},
			{
				"x": 0.4104329631,
				"y": -1.9574759003,
				"z": -1.40598547,
				"element": "C" 
			},
			{
				"x": 0.7193151958,
				"y": -0.8124052299,
				"z": -2.2021657046,
				"element": "C" 
			},
			{
				"x": 1.2966892336,
				"y": 0.1167788886,
				"z": -1.3780204637,
				"element": "N" 
			},
			{
				"x": 0.4389028841,
				"y": -0.7545070757,
				"z": -3.5744513404,
				"element": "C" 
			},
			{
				"x": -0.1594878338,
				"y": -1.8729721117,
				"z": -4.130546413,
				"element": "C" 
			},
			{
				"x": -0.5718998296,
				"y": -1.865449788,
				"z": -5.9991002141,
				"element": "Br" 
			},
			{
				"x": -0.4805638442,
				"y": -3.0235947688,
				"z": -3.3780349501,
				"element": "C" 
			},
			{
				"x": -0.1980276142,
				"y": -3.0678287465,
				"z": -2.0227981663,
				"element": "C" 
			},
			{
				"x": 0.6232472234,
				"y": 0.9475010603,
				"z": 4.2101633533,
				"element": "H" 
			},
			{
				"x": 1.9248498114,
				"y": 2.0248231502,
				"z": 4.7523785948,
				"element": "H" 
			},
			{
				"x": 1.1689823665,
				"y": 2.2842846549,
				"z": 3.1698288318,
				"element": "H" 
			},
			{
				"x": 2.8857253608,
				"y": -0.1494346296,
				"z": 3.9505692623,
				"element": "H" 
			},
			{
				"x": 3.3885140128,
				"y": 1.1827096418,
				"z": 2.8761085694,
				"element": "H" 
			},
			{
				"x": 0.7565478793,
				"y": -2.2985500068,
				"z": 0.7976441709,
				"element": "H" 
			},
			{
				"x": 1.6363647854,
				"y": 1.0371202818,
				"z": -1.6140638253,
				"element": "H" 
			},
			{
				"x": 0.6749238586,
				"y": 0.1161221809,
				"z": -4.1751586718,
				"element": "H" 
			},
			{
				"x": -0.9482729453,
				"y": -3.866568041,
				"z": -3.8726326109,
				"element": "H" 
			},
			{
				"x": -0.444929604,
				"y": -3.9530850696,
				"z": -1.4442302862,
				"element": "H" 
			}
		],
		 "valence_orbital": [ 
			{
				"type": "occ",
				"energy": -0.28557,
				"method": "rhf"
			},
			{
				"type": "occ",
				"energy": -0.28415,
				"method": "rhf"
			},
			{
				"type": "occ",
				"energy": -0.28002,
				"method": "rhf"
			},
			{
				"type": "occ",
				"energy": -0.23451,
				"method": "rhf"
			},
			{
				"type": "occ",
				"energy": -0.21783,
				"method": "rhf"
			},
			{
				"type": "unocc",
				"energy": -0.05447,
				"method": "rhf"
			},
			{
				"type": "unocc",
				"energy": 0.00523,
				"method": "rhf"
			},
			{
				"type": "unocc",
				"energy": 0.00852,
				"method": "rhf"
			},
			{
				"type": "unocc",
				"energy": 0.01699,
				"method": "rhf"
			},
			{
				"type": "unocc",
				"energy": 0.09055,
				"method": "rhf"
			}
		],
		"cosmo_sigma_profile": { 
			"-0.025": 0.0,
			"-0.024": 0.0,
			"-0.023": 0.0,
			"-0.022": 0.0,
			"-0.021": 0.0,
			"-0.02": 0.0,
			"-0.019": 0.0,
			"-0.018": 0.0,
			"-0.017": 0.0,
			"-0.016": 0.1459803898,
			"-0.015": 1.10710381172,
			"-0.014": 0.706118834603,
			"-0.013": 1.10454138707,
			"-0.012": 1.14680985856,
			"-0.011": 0.888587205594,
			"-0.01": 0.741742063775,
			"-0.009": 1.28629292527,
			"-0.008": 2.5034150921,
			"-0.007": 4.56426744815,
			"-0.006": 9.73819862469,
			"-0.005": 13.1406808437,
			"-0.004": 19.2559392482,
			"-0.003": 18.4591981209,
			"-0.002": 21.23187947,
			"-0.001": 20.1783847907,
			"0.0": 20.5496785031,
			"0.001": 16.6738587726,
			"0.002": 24.8613419365,
			"0.003": 28.6236983182,
			"0.004": 24.6997330408,
			"0.005": 12.6731362987,
			"0.006": 2.69167194141,
			"0.007": 2.94828416988,
			"0.008": 1.25029828978,
			"0.009": 1.35489907257,
			"0.01": 1.99581996205,
			"0.011": 2.62934978678,
			"0.012": 2.69778706282,
			"0.013": 0.0414385548487,
			"0.014": 0.0,
			"0.015": 0.0,
			"0.016": 0.0,
			"0.017": 0.0,
			"0.018": 0.0,
			"0.019": 0.0,
			"0.02": 0.0,
			"0.021": 0.0,
			"0.022": 0.0,
			"0.023": 0.0,
			"0.024": 0.0,
			"0.025": 0.0
		}
	}
}
