{
	 "smiles": "FC(F)(F)C(=O)OC1OC(=O)C2=CC=CC=C12", 
	 "Tm": 331.15, 
	 "num_atms": 22, 
	 "gaussian": { 
		 "optdone": 1, 
		 "sigma_profile": "yes", 
		 "theory": "DFT", 
		 "functional": "B3LYP", 
		 "basiset": "6-31G**", 
		 "properties": { 
			 "R2extent": 4834.0788, 
			 "electric_dipole_moment_norm": 5.38995625307, 
			 "electric_quadrupole_moment_norm": 8.40723206591, 
			 "total_energy": -984.493576563, 
			 "HOMO_LUMO_gap": 0.2129, 
			 "cosmo_polarized_energy": -12.71, 
			 "cosmo_cavitation_energy": 29.7, 
			 "cosmo_dispersion_energy": -20.47, 
			 "cosmo_repulsion_energy": 1.54, 
			 "cosmo_total_nonelectrostatic_energy": 10.77, 
			 "SMD_solvation_energy": 8.13 
		},
		"coords": [
			{
				"x": 3.9507198507,
				"y": 0.6535432491,
				"z": 3.1068389556,
				"element": "F" 
			},
			{
				"x": 3.1829379775,
				"y": 1.5776662088,
				"z": 2.5077281868,
				"element": "C" 
			},
			{
				"x": 2.3350245365,
				"y": 2.0833084983,
				"z": 3.422886665,
				"element": "F" 
			},
			{
				"x": 3.9616925698,
				"y": 2.5602867671,
				"z": 2.0548104198,
				"element": "F" 
			},
			{
				"x": 2.3877405335,
				"y": 0.9486692691,
				"z": 1.3401856909,
				"element": "C" 
			},
			{
				"x": 2.4764375537,
				"y": 1.3189519627,
				"z": 0.2019645024,
				"element": "O" 
			},
			{
				"x": 1.6130165014,
				"y": -0.037221362,
				"z": 1.8308560343,
				"element": "O" 
			},
			{
				"x": 0.7907590282,
				"y": -0.8006435471,
				"z": 0.9263745708,
				"element": "C" 
			},
			{
				"x": 1.5839753734,
				"y": -1.4705821352,
				"z": -0.0331170391,
				"element": "O" 
			},
			{
				"x": 1.1730855827,
				"y": -1.156770932,
				"z": -1.3312080947,
				"element": "C" 
			},
			{
				"x": 1.7118130043,
				"y": -1.6204537538,
				"z": -2.2967566019,
				"element": "O" 
			},
			{
				"x": 0.0151351869,
				"y": -0.2432186918,
				"z": -1.2109842962,
				"element": "C" 
			},
			{
				"x": -0.7639175863,
				"y": 0.3370551119,
				"z": -2.2069353512,
				"element": "C" 
			},
			{
				"x": -1.7985595236,
				"y": 1.1831091249,
				"z": -1.8021068594,
				"element": "C" 
			},
			{
				"x": -2.0310864947,
				"y": 1.432984139,
				"z": -0.44175462,
				"element": "C" 
			},
			{
				"x": -1.2403559471,
				"y": 0.8431222532,
				"z": 0.5513668038,
				"element": "C" 
			},
			{
				"x": -0.2137014691,
				"y": 0.0044072133,
				"z": 0.1365828951,
				"element": "C" 
			},
			{
				"x": 0.3378739215,
				"y": -1.5404278254,
				"z": 1.5910976416,
				"element": "H" 
			},
			{
				"x": -0.5653064379,
				"y": 0.1332960498,
				"z": -3.2540404487,
				"element": "H" 
			},
			{
				"x": -2.4322024828,
				"y": 1.6552675751,
				"z": -2.5464934846,
				"element": "H" 
			},
			{
				"x": -2.8409674535,
				"y": 2.0965933958,
				"z": -0.1538580389,
				"element": "H" 
			},
			{
				"x": -1.4239142249,
				"y": 1.0445574291,
				"z": 1.6024624686,
				"element": "H" 
			}
		],
		 "valence_orbital": [ 
			{
				"type": "occ",
				"energy": -0.33022,
				"method": "rhf"
			},
			{
				"type": "occ",
				"energy": -0.30941,
				"method": "rhf"
			},
			{
				"type": "occ",
				"energy": -0.29014,
				"method": "rhf"
			},
			{
				"type": "occ",
				"energy": -0.28516,
				"method": "rhf"
			},
			{
				"type": "occ",
				"energy": -0.28061,
				"method": "rhf"
			},
			{
				"type": "unocc",
				"energy": -0.06771,
				"method": "rhf"
			},
			{
				"type": "unocc",
				"energy": -0.0439,
				"method": "rhf"
			},
			{
				"type": "unocc",
				"energy": -0.03945,
				"method": "rhf"
			},
			{
				"type": "unocc",
				"energy": 0.03719,
				"method": "rhf"
			},
			{
				"type": "unocc",
				"energy": 0.078,
				"method": "rhf"
			}
		],
		"cosmo_sigma_profile": { 
			"-0.025": 0.0,
			"-0.024": 0.0,
			"-0.023": 0.0,
			"-0.022": 0.0,
			"-0.021": 0.0,
			"-0.02": 0.0,
			"-0.019": 0.0,
			"-0.018": 0.0,
			"-0.017": 0.0,
			"-0.016": 0.0,
			"-0.015": 0.0,
			"-0.014": 0.0,
			"-0.013": 0.0,
			"-0.012": 0.0,
			"-0.011": 0.826349171328,
			"-0.01": 3.66350368851,
			"-0.009": 2.08585729376,
			"-0.008": 7.2682212088,
			"-0.007": 11.6547107438,
			"-0.006": 15.1239829998,
			"-0.005": 12.4705668243,
			"-0.004": 9.23043468325,
			"-0.003": 10.2553049224,
			"-0.002": 11.9046790446,
			"-0.001": 13.4804366965,
			"0.0": 18.3681138095,
			"0.001": 31.0527127345,
			"0.002": 38.1864199576,
			"0.003": 11.4104726644,
			"0.004": 5.5558840459,
			"0.005": 4.91486780089,
			"0.006": 5.41189339028,
			"0.007": 4.79391514973,
			"0.008": 6.70885028462,
			"0.009": 5.5780041056,
			"0.01": 5.20486542057,
			"0.011": 4.17069153513,
			"0.012": 0.357744485279,
			"0.013": 0.0,
			"0.014": 0.0,
			"0.015": 0.0,
			"0.016": 0.0,
			"0.017": 0.0,
			"0.018": 0.0,
			"0.019": 0.0,
			"0.02": 0.0,
			"0.021": 0.0,
			"0.022": 0.0,
			"0.023": 0.0,
			"0.024": 0.0,
			"0.025": 0.0
		}
	}
}
