{
	 "smiles": "COC1=CC(Cl)=CC=C1C(O)=O", 
	 "Tm": 419.15, 
	 "num_atms": 19, 
	 "gaussian": { 
		 "optdone": 1, 
		 "sigma_profile": "yes", 
		 "theory": "DFT", 
		 "functional": "B3LYP", 
		 "basiset": "6-31G**", 
		 "properties": { 
			 "R2extent": 2837.8372, 
			 "electric_dipole_moment_norm": 5.49741416577, 
			 "electric_quadrupole_moment_norm": 14.5491620178, 
			 "total_energy": -994.936681135, 
			 "HOMO_LUMO_gap": 0.1976, 
			 "cosmo_polarized_energy": -13.6, 
			 "cosmo_cavitation_energy": 25.12, 
			 "cosmo_dispersion_energy": -18.85, 
			 "cosmo_repulsion_energy": 1.5, 
			 "cosmo_total_nonelectrostatic_energy": 7.77, 
			 "SMD_solvation_energy": 6.01 
		},
		"coords": [
			{
				"x": 1.4435638086,
				"y": 1.3353749444,
				"z": 2.1692331645,
				"element": "C" 
			},
			{
				"x": 1.2211086466,
				"y": 0.6883171977,
				"z": 0.9166102066,
				"element": "O" 
			},
			{
				"x": -0.0083238184,
				"y": 0.1487201489,
				"z": 0.6351229182,
				"element": "C" 
			},
			{
				"x": -1.0698602466,
				"y": 0.2087988708,
				"z": 1.5424610277,
				"element": "C" 
			},
			{
				"x": -2.2935023049,
				"y": -0.3606391985,
				"z": 1.1913685981,
				"element": "C" 
			},
			{
				"x": -3.6169102962,
				"y": -0.278043761,
				"z": 2.3395205906,
				"element": "Cl" 
			},
			{
				"x": -2.4855851849,
				"y": -0.9866514319,
				"z": -0.037516426,
				"element": "C" 
			},
			{
				"x": -1.415071003,
				"y": -1.0343456764,
				"z": -0.9243246702,
				"element": "C" 
			},
			{
				"x": -0.1667197998,
				"y": -0.4787689629,
				"z": -0.6215989368,
				"element": "C" 
			},
			{
				"x": 0.8947262851,
				"y": -0.6111351843,
				"z": -1.6869469306,
				"element": "C" 
			},
			{
				"x": 2.1102499339,
				"y": -0.0916300283,
				"z": -1.4360971484,
				"element": "O" 
			},
			{
				"x": 0.6681840493,
				"y": -1.1687320771,
				"z": -2.7388640185,
				"element": "O" 
			},
			{
				"x": 2.4798406186,
				"y": 1.6723711289,
				"z": 2.1482258394,
				"element": "H" 
			},
			{
				"x": 1.3017033036,
				"y": 0.6383971861,
				"z": 3.002142378,
				"element": "H" 
			},
			{
				"x": 0.7799182896,
				"y": 2.198437219,
				"z": 2.2889580858,
				"element": "H" 
			},
			{
				"x": -0.9631698989,
				"y": 0.6854621438,
				"z": 2.5071449163,
				"element": "H" 
			},
			{
				"x": -3.444769323,
				"y": -1.4225617136,
				"z": -0.2898807513,
				"element": "H" 
			},
			{
				"x": -1.5163535259,
				"y": -1.5111226883,
				"z": -1.8931851832,
				"element": "H" 
			},
			{
				"x": 2.117770466,
				"y": 0.3157518826,
				"z": -0.5504736602,
				"element": "H" 
			}
		],
		 "valence_orbital": [ 
			{
				"type": "occ",
				"energy": -0.32774,
				"method": "rhf"
			},
			{
				"type": "occ",
				"energy": -0.30278,
				"method": "rhf"
			},
			{
				"type": "occ",
				"energy": -0.27036,
				"method": "rhf"
			},
			{
				"type": "occ",
				"energy": -0.26797,
				"method": "rhf"
			},
			{
				"type": "occ",
				"energy": -0.25281,
				"method": "rhf"
			},
			{
				"type": "unocc",
				"energy": -0.05521,
				"method": "rhf"
			},
			{
				"type": "unocc",
				"energy": -0.02023,
				"method": "rhf"
			},
			{
				"type": "unocc",
				"energy": 0.01449,
				"method": "rhf"
			},
			{
				"type": "unocc",
				"energy": 0.04955,
				"method": "rhf"
			},
			{
				"type": "unocc",
				"energy": 0.07012,
				"method": "rhf"
			}
		],
		"cosmo_sigma_profile": { 
			"-0.025": 0.0,
			"-0.024": 0.0,
			"-0.023": 0.0,
			"-0.022": 0.0,
			"-0.021": 0.0,
			"-0.02": 0.0,
			"-0.019": 0.0,
			"-0.018": 0.0,
			"-0.017": 0.0,
			"-0.016": 0.0,
			"-0.015": 0.0,
			"-0.014": 0.0,
			"-0.013": 0.0,
			"-0.012": 0.0,
			"-0.011": 0.00588859779775,
			"-0.01": 0.47185754811,
			"-0.009": 2.04834558349,
			"-0.008": 4.51941892805,
			"-0.007": 11.2664819569,
			"-0.006": 14.8736928044,
			"-0.005": 15.873204616,
			"-0.004": 13.4056589464,
			"-0.003": 10.4101120556,
			"-0.002": 10.8116672833,
			"-0.001": 13.973782733,
			"0.0": 16.2790272774,
			"0.001": 21.3510122489,
			"0.002": 15.5182840294,
			"0.003": 11.0347760408,
			"0.004": 11.5028268985,
			"0.005": 2.36053006874,
			"0.006": 2.84496238848,
			"0.007": 2.25071587785,
			"0.008": 2.3823743691,
			"0.009": 2.84853201458,
			"0.01": 3.77387227942,
			"0.011": 5.34316395948,
			"0.012": 5.63102818675,
			"0.013": 2.48105570944,
			"0.014": 0.546328294926,
			"0.015": 0.0,
			"0.016": 0.0,
			"0.017": 0.0,
			"0.018": 0.0,
			"0.019": 0.0,
			"0.02": 0.0,
			"0.021": 0.0,
			"0.022": 0.0,
			"0.023": 0.0,
			"0.024": 0.0,
			"0.025": 0.0
		}
	}
}
