{
	 "smiles": "ClCC(=O)C(CC1=CC=CC=C1)NC(=O)OCC1=CC=CC=C1", 
	 "Tm": 381.15, 
	 "num_atms": 41, 
	 "gaussian": { 
		 "optdone": 1, 
		 "sigma_profile": "yes", 
		 "theory": "DFT", 
		 "functional": "B3LYP", 
		 "basiset": "6-31G**", 
		 "properties": { 
			 "R2extent": 8959.3779, 
			 "electric_dipole_moment_norm": 1.09610649574, 
			 "electric_quadrupole_moment_norm": 13.365915244, 
			 "total_energy": -1437.39624394, 
			 "HOMO_LUMO_gap": 0.19104, 
			 "cosmo_polarized_energy": -15.61, 
			 "cosmo_cavitation_energy": 46.31, 
			 "cosmo_dispersion_energy": -29.22, 
			 "cosmo_repulsion_energy": 2.25, 
			 "cosmo_total_nonelectrostatic_energy": 19.33, 
			 "SMD_solvation_energy": 7.83 
		},
		"coords": [
			{
				"x": -5.6242078637,
				"y": -1.4556450453,
				"z": 0.017378263,
				"element": "Cl" 
			},
			{
				"x": -3.9443880344,
				"y": -0.9993070149,
				"z": 0.5405442218,
				"element": "C" 
			},
			{
				"x": -3.5607150821,
				"y": 0.3824197348,
				"z": 0.0081024673,
				"element": "C" 
			},
			{
				"x": -3.3439065348,
				"y": 1.2852639721,
				"z": 0.7889557386,
				"element": "O" 
			},
			{
				"x": -3.5688925676,
				"y": 0.6105858691,
				"z": -1.5130387787,
				"element": "C" 
			},
			{
				"x": -3.0547427738,
				"y": 2.0159668498,
				"z": -1.9282100513,
				"element": "C" 
			},
			{
				"x": -1.5610796793,
				"y": 2.2607466785,
				"z": -1.8598012845,
				"element": "C" 
			},
			{
				"x": -0.9658174171,
				"y": 2.8019201893,
				"z": -0.7100461277,
				"element": "C" 
			},
			{
				"x": 0.4077051513,
				"y": 3.044282878,
				"z": -0.6651167072,
				"element": "C" 
			},
			{
				"x": 1.2128386446,
				"y": 2.7478171884,
				"z": -1.7683066826,
				"element": "C" 
			},
			{
				"x": 0.6318142886,
				"y": 2.2125943962,
				"z": -2.9188555698,
				"element": "C" 
			},
			{
				"x": -0.7445794371,
				"y": 1.9783253719,
				"z": -2.9636335985,
				"element": "C" 
			},
			{
				"x": -2.997057887,
				"y": -0.5084064602,
				"z": -2.2553672854,
				"element": "N" 
			},
			{
				"x": -1.733525146,
				"y": -1.0338293235,
				"z": -2.1090714548,
				"element": "C" 
			},
			{
				"x": -1.1786112167,
				"y": -1.7112155462,
				"z": -2.9525629007,
				"element": "O" 
			},
			{
				"x": -1.241201901,
				"y": -0.7541174612,
				"z": -0.8769640031,
				"element": "O" 
			},
			{
				"x": 0.1343816504,
				"y": -1.1456798714,
				"z": -0.6192927177,
				"element": "C" 
			},
			{
				"x": 0.2763843134,
				"y": -1.4622421699,
				"z": 0.8460812485,
				"element": "C" 
			},
			{
				"x": 0.0538575837,
				"y": -0.4699073696,
				"z": 1.8120035776,
				"element": "C" 
			},
			{
				"x": 0.1841383372,
				"y": -0.7639943291,
				"z": 3.1683023003,
				"element": "C" 
			},
			{
				"x": 0.5481589961,
				"y": -2.0507262277,
				"z": 3.5758802588,
				"element": "C" 
			},
			{
				"x": 0.7749412046,
				"y": -3.0424248836,
				"z": 2.6213575265,
				"element": "C" 
			},
			{
				"x": 0.6340689799,
				"y": -2.7489452764,
				"z": 1.2630039714,
				"element": "C" 
			},
			{
				"x": -3.9396404326,
				"y": -0.9600370911,
				"z": 1.6282042315,
				"element": "H" 
			},
			{
				"x": -3.2721178559,
				"y": -1.772904008,
				"z": 0.1762627224,
				"element": "H" 
			},
			{
				"x": -4.639355859,
				"y": 0.5919975594,
				"z": -1.7600631787,
				"element": "H" 
			},
			{
				"x": -3.3933325794,
				"y": 2.1781280207,
				"z": -2.9581633526,
				"element": "H" 
			},
			{
				"x": -3.5803475988,
				"y": 2.7434664894,
				"z": -1.3028380095,
				"element": "H" 
			},
			{
				"x": -1.5884171434,
				"y": 3.0257845221,
				"z": 0.1499681381,
				"element": "H" 
			},
			{
				"x": 0.8494318542,
				"y": 3.4721647078,
				"z": 0.2307436596,
				"element": "H" 
			},
			{
				"x": 2.2812977832,
				"y": 2.9408619127,
				"z": -1.7338920189,
				"element": "H" 
			},
			{
				"x": 1.2452374609,
				"y": 1.9852688579,
				"z": -3.7860717202,
				"element": "H" 
			},
			{
				"x": -1.1879560557,
				"y": 1.5739093255,
				"z": -3.8700880332,
				"element": "H" 
			},
			{
				"x": -3.3807330594,
				"y": -0.6941277838,
				"z": -3.1707386684,
				"element": "H" 
			},
			{
				"x": 0.3747464891,
				"y": -2.0030191025,
				"z": -1.2498119974,
				"element": "H" 
			},
			{
				"x": 0.764601305,
				"y": -0.3011616288,
				"z": -0.9162303591,
				"element": "H" 
			},
			{
				"x": -0.229228196,
				"y": 0.5297163758,
				"z": 1.4946047742,
				"element": "H" 
			},
			{
				"x": 0.0057501811,
				"y": 0.0109061214,
				"z": 3.9083921408,
				"element": "H" 
			},
			{
				"x": 0.6541490619,
				"y": -2.2774038927,
				"z": 4.6329728667,
				"element": "H" 
			},
			{
				"x": 1.0566573857,
				"y": -4.0445872829,
				"z": 2.9315501135,
				"element": "H" 
			},
			{
				"x": 0.8044936498,
				"y": -3.5246452521,
				"z": 0.52065628,
				"element": "H" 
			}
		],
		 "valence_orbital": [ 
			{
				"type": "occ",
				"energy": -0.26233,
				"method": "rhf"
			},
			{
				"type": "occ",
				"energy": -0.25483,
				"method": "rhf"
			},
			{
				"type": "occ",
				"energy": -0.25229,
				"method": "rhf"
			},
			{
				"type": "occ",
				"energy": -0.25062,
				"method": "rhf"
			},
			{
				"type": "occ",
				"energy": -0.24039,
				"method": "rhf"
			},
			{
				"type": "unocc",
				"energy": -0.04935,
				"method": "rhf"
			},
			{
				"type": "unocc",
				"energy": -0.01333,
				"method": "rhf"
			},
			{
				"type": "unocc",
				"energy": -0.00664,
				"method": "rhf"
			},
			{
				"type": "unocc",
				"energy": -0.00544,
				"method": "rhf"
			},
			{
				"type": "unocc",
				"energy": -0.00298,
				"method": "rhf"
			}
		],
		"cosmo_sigma_profile": { 
			"-0.025": 0.0,
			"-0.024": 0.0,
			"-0.023": 0.0,
			"-0.022": 0.0,
			"-0.021": 0.0,
			"-0.02": 0.0,
			"-0.019": 0.0,
			"-0.018": 0.0,
			"-0.017": 0.0,
			"-0.016": 0.0,
			"-0.015": 0.387383157142,
			"-0.014": 1.25415986099,
			"-0.013": 1.27451092707,
			"-0.012": 1.30056579182,
			"-0.011": 1.25845496809,
			"-0.01": 0.766680511629,
			"-0.009": 1.80152445589,
			"-0.008": 4.93685167913,
			"-0.007": 6.77256466462,
			"-0.006": 16.0130520053,
			"-0.005": 25.6200483878,
			"-0.004": 31.7338194165,
			"-0.003": 30.8141845439,
			"-0.002": 25.5366842572,
			"-0.001": 27.6464744167,
			"0.0": 25.94769354,
			"0.001": 28.4982176348,
			"0.002": 29.0351340888,
			"0.003": 25.930009306,
			"0.004": 22.1730312119,
			"0.005": 24.7645869125,
			"0.006": 12.3125095755,
			"0.007": 3.08763801406,
			"0.008": 2.70637594264,
			"0.009": 3.62746359798,
			"0.01": 2.97266074736,
			"0.011": 2.9829767028,
			"0.012": 3.9508519084,
			"0.013": 4.43631661838,
			"0.014": 0.29125751082,
			"0.015": 0.0,
			"0.016": 0.0,
			"0.017": 0.0,
			"0.018": 0.0,
			"0.019": 0.0,
			"0.02": 0.0,
			"0.021": 0.0,
			"0.022": 0.0,
			"0.023": 0.0,
			"0.024": 0.0,
			"0.025": 0.0
		}
	}
}
