{
	 "smiles": "CC(=O)C1=C(O)C=C2OCOC2=C1", 
	 "Tm": 388.15, 
	 "num_atms": 21, 
	 "gaussian": { 
		 "optdone": 1, 
		 "sigma_profile": "yes", 
		 "theory": "DFT", 
		 "functional": "B3LYP", 
		 "basiset": "6-31G**", 
		 "properties": { 
			 "R2extent": 2602.796, 
			 "electric_dipole_moment_norm": 2.05282713349, 
			 "electric_quadrupole_moment_norm": 16.5196168161, 
			 "total_energy": -648.640245631, 
			 "HOMO_LUMO_gap": 0.15986, 
			 "cosmo_polarized_energy": -13.05, 
			 "cosmo_cavitation_energy": 24.88, 
			 "cosmo_dispersion_energy": -19.16, 
			 "cosmo_repulsion_energy": 1.49, 
			 "cosmo_total_nonelectrostatic_energy": 7.21, 
			 "SMD_solvation_energy": 5.77 
		},
		"coords": [
			{
				"x": -3.4998103591,
				"y": 1.1174506271,
				"z": -1.4248909865,
				"element": "C" 
			},
			{
				"x": -2.5435875935,
				"y": 1.2480165665,
				"z": -0.2417652883,
				"element": "C" 
			},
			{
				"x": -2.9423675758,
				"y": 1.8332204157,
				"z": 0.7579737505,
				"element": "O" 
			},
			{
				"x": -1.1647788854,
				"y": 0.6834800581,
				"z": -0.2898588968,
				"element": "C" 
			},
			{
				"x": -0.5715264386,
				"y": -0.0091224211,
				"z": -1.3738617796,
				"element": "C" 
			},
			{
				"x": -1.172216613,
				"y": -0.2738687826,
				"z": -2.568887953,
				"element": "O" 
			},
			{
				"x": 0.7505517177,
				"y": -0.499874991,
				"z": -1.2974590041,
				"element": "C" 
			},
			{
				"x": 1.4430446196,
				"y": -0.2796720748,
				"z": -0.1302981411,
				"element": "C" 
			},
			{
				"x": 2.7140946323,
				"y": -0.6632640345,
				"z": 0.1756280104,
				"element": "O" 
			},
			{
				"x": 2.9895088099,
				"y": -0.125917787,
				"z": 1.4827466088,
				"element": "C" 
			},
			{
				"x": 1.788503377,
				"y": 0.4569364796,
				"z": 1.9849982522,
				"element": "O" 
			},
			{
				"x": 0.876111274,
				"y": 0.4016777534,
				"z": 0.9522175646,
				"element": "C" 
			},
			{
				"x": -0.400812318,
				"y": 0.8832966009,
				"z": 0.8984311516,
				"element": "C" 
			},
			{
				"x": -4.4407833756,
				"y": 1.5962679258,
				"z": -1.1517625877,
				"element": "H" 
			},
			{
				"x": -3.1103872625,
				"y": 1.6229971355,
				"z": -2.3188063702,
				"element": "H" 
			},
			{
				"x": -3.7106030929,
				"y": 0.0664675273,
				"z": -1.6634453362,
				"element": "H" 
			},
			{
				"x": -2.0682601141,
				"y": 0.0774676405,
				"z": -2.5915208983,
				"element": "H" 
			},
			{
				"x": 1.1777479119,
				"y": -1.0255360014,
				"z": -2.1420921358,
				"element": "H" 
			},
			{
				"x": 3.3120578441,
				"y": -0.938303407,
				"z": 2.142570252,
				"element": "H" 
			},
			{
				"x": 3.7713007346,
				"y": 0.6402400739,
				"z": 1.3958374489,
				"element": "H" 
			},
			{
				"x": -0.8647872927,
				"y": 1.4114406953,
				"z": 1.7218463387,
				"element": "H" 
			}
		],
		 "valence_orbital": [ 
			{
				"type": "occ",
				"energy": -0.3531,
				"method": "rhf"
			},
			{
				"type": "occ",
				"energy": -0.29334,
				"method": "rhf"
			},
			{
				"type": "occ",
				"energy": -0.25074,
				"method": "rhf"
			},
			{
				"type": "occ",
				"energy": -0.24772,
				"method": "rhf"
			},
			{
				"type": "occ",
				"energy": -0.20847,
				"method": "rhf"
			},
			{
				"type": "unocc",
				"energy": -0.04861,
				"method": "rhf"
			},
			{
				"type": "unocc",
				"energy": 0.0044,
				"method": "rhf"
			},
			{
				"type": "unocc",
				"energy": 0.04653,
				"method": "rhf"
			},
			{
				"type": "unocc",
				"energy": 0.07224,
				"method": "rhf"
			},
			{
				"type": "unocc",
				"energy": 0.09688,
				"method": "rhf"
			}
		],
		"cosmo_sigma_profile": { 
			"-0.025": 0.0,
			"-0.024": 0.0,
			"-0.023": 0.0,
			"-0.022": 0.0,
			"-0.021": 0.0,
			"-0.02": 0.0,
			"-0.019": 0.0,
			"-0.018": 0.0,
			"-0.017": 0.0,
			"-0.016": 0.0,
			"-0.015": 0.108022008655,
			"-0.014": 0.886855975422,
			"-0.013": 0.959679151916,
			"-0.012": 1.56109602769,
			"-0.011": 1.48121177909,
			"-0.01": 2.5232714748,
			"-0.009": 2.3580743752,
			"-0.008": 8.47591745469,
			"-0.007": 11.8796338084,
			"-0.006": 11.2676289094,
			"-0.005": 9.82514929627,
			"-0.004": 10.2063843821,
			"-0.003": 9.92945716623,
			"-0.002": 11.6570192307,
			"-0.001": 11.0518238177,
			"0.0": 8.70044018857,
			"0.001": 13.453772879,
			"0.002": 19.5031995539,
			"0.003": 14.6982950191,
			"0.004": 6.82601937934,
			"0.005": 4.51599043432,
			"0.006": 6.76661879957,
			"0.007": 5.37385173817,
			"0.008": 5.69954265597,
			"0.009": 5.82755100666,
			"0.01": 4.39841257424,
			"0.011": 2.64029978738,
			"0.012": 4.07534474934,
			"0.013": 2.12394786164,
			"0.014": 0.334279058682,
			"0.015": 0.0,
			"0.016": 0.0,
			"0.017": 0.0,
			"0.018": 0.0,
			"0.019": 0.0,
			"0.02": 0.0,
			"0.021": 0.0,
			"0.022": 0.0,
			"0.023": 0.0,
			"0.024": 0.0,
			"0.025": 0.0
		}
	}
}
