{
	 "smiles": "COC1=CC2=C(NC(=O)CCC2)C=C1", 
	 "Tm": 416.15, 
	 "num_atms": 27, 
	 "gaussian": { 
		 "optdone": 1, 
		 "sigma_profile": "yes", 
		 "theory": "DFT", 
		 "functional": "B3LYP", 
		 "basiset": "6-31G**", 
		 "properties": { 
			 "R2extent": 3824.8866, 
			 "electric_dipole_moment_norm": 4.17333943264, 
			 "electric_quadrupole_moment_norm": 16.8231362433, 
			 "total_energy": -632.217776351, 
			 "HOMO_LUMO_gap": 0.1975, 
			 "cosmo_polarized_energy": -12.52, 
			 "cosmo_cavitation_energy": 29.26, 
			 "cosmo_dispersion_energy": -21.67, 
			 "cosmo_repulsion_energy": 1.7, 
			 "cosmo_total_nonelectrostatic_energy": 9.29, 
			 "SMD_solvation_energy": 5.94 
		},
		"coords": [
			{
				"x": -1.2606320299,
				"y": -3.7497097175,
				"z": -2.1238266651,
				"element": "C" 
			},
			{
				"x": -0.0028746689,
				"y": -3.1164970029,
				"z": -1.9557443227,
				"element": "O" 
			},
			{
				"x": 0.0134527461,
				"y": -1.7747505732,
				"z": -1.7008761445,
				"element": "C" 
			},
			{
				"x": 1.2846256266,
				"y": -1.2010512573,
				"z": -1.5505828902,
				"element": "C" 
			},
			{
				"x": 1.4442940275,
				"y": 0.1586988494,
				"z": -1.300435787,
				"element": "C" 
			},
			{
				"x": 0.2902524669,
				"y": 0.962653892,
				"z": -1.158058131,
				"element": "C" 
			},
			{
				"x": 0.4140548909,
				"y": 2.3521535371,
				"z": -0.8994638149,
				"element": "N" 
			},
			{
				"x": 1.2191998591,
				"y": 2.9614531986,
				"z": 0.0462279254,
				"element": "C" 
			},
			{
				"x": 1.2273027671,
				"y": 4.1780561855,
				"z": 0.1704366701,
				"element": "O" 
			},
			{
				"x": 2.0396371719,
				"y": 2.018194397,
				"z": 0.9160481499,
				"element": "C" 
			},
			{
				"x": 3.1992051545,
				"y": 1.312838157,
				"z": 0.1788923269,
				"element": "C" 
			},
			{
				"x": 2.8120895273,
				"y": 0.7980321867,
				"z": -1.2246506898,
				"element": "C" 
			},
			{
				"x": -0.9731397061,
				"y": 0.3918604836,
				"z": -1.3138594312,
				"element": "C" 
			},
			{
				"x": -1.1237976595,
				"y": -0.9679870495,
				"z": -1.595662324,
				"element": "C" 
			},
			{
				"x": -1.0459079217,
				"y": -4.8023331419,
				"z": -2.3145174533,
				"element": "H" 
			},
			{
				"x": -1.8132496425,
				"y": -3.3347369295,
				"z": -2.9769636858,
				"element": "H" 
			},
			{
				"x": -1.8808306349,
				"y": -3.6663722627,
				"z": -1.2217513361,
				"element": "H" 
			},
			{
				"x": 2.1522580451,
				"y": -1.8444772446,
				"z": -1.6619189334,
				"element": "H" 
			},
			{
				"x": -0.2048510761,
				"y": 2.9934708775,
				"z": -1.3798781172,
				"element": "H" 
			},
			{
				"x": 2.4219325467,
				"y": 2.6122362098,
				"z": 1.7482762346,
				"element": "H" 
			},
			{
				"x": 1.3623883998,
				"y": 1.2588142336,
				"z": 1.3249307618,
				"element": "H" 
			},
			{
				"x": 4.0456815085,
				"y": 2.0009990501,
				"z": 0.0769879348,
				"element": "H" 
			},
			{
				"x": 3.5425770891,
				"y": 0.4790197491,
				"z": 0.8020808551,
				"element": "H" 
			},
			{
				"x": 3.5706874764,
				"y": 0.0930968294,
				"z": -1.5789277209,
				"element": "H" 
			},
			{
				"x": 2.8238271419,
				"y": 1.6486807086,
				"z": -1.9187276116,
				"element": "H" 
			},
			{
				"x": -1.8553469702,
				"y": 1.0174425181,
				"z": -1.2075615189,
				"element": "H" 
			},
			{
				"x": -2.1191361355,
				"y": -1.378385884,
				"z": -1.7150742808,
				"element": "H" 
			}
		],
		 "valence_orbital": [ 
			{
				"type": "occ",
				"energy": -0.32441,
				"method": "rhf"
			},
			{
				"type": "occ",
				"energy": -0.27098,
				"method": "rhf"
			},
			{
				"type": "occ",
				"energy": -0.25174,
				"method": "rhf"
			},
			{
				"type": "occ",
				"energy": -0.24208,
				"method": "rhf"
			},
			{
				"type": "occ",
				"energy": -0.20704,
				"method": "rhf"
			},
			{
				"type": "unocc",
				"energy": -0.00954,
				"method": "rhf"
			},
			{
				"type": "unocc",
				"energy": -0.00068,
				"method": "rhf"
			},
			{
				"type": "unocc",
				"energy": 0.03688,
				"method": "rhf"
			},
			{
				"type": "unocc",
				"energy": 0.08795,
				"method": "rhf"
			},
			{
				"type": "unocc",
				"energy": 0.10056,
				"method": "rhf"
			}
		],
		"cosmo_sigma_profile": { 
			"-0.025": 0.0,
			"-0.024": 0.0,
			"-0.023": 0.0,
			"-0.022": 0.0,
			"-0.021": 0.0,
			"-0.02": 0.0,
			"-0.019": 0.0,
			"-0.018": 0.0,
			"-0.017": 0.0,
			"-0.016": 0.0,
			"-0.015": 0.0,
			"-0.014": 0.409616297943,
			"-0.013": 1.08463258645,
			"-0.012": 0.91477645464,
			"-0.011": 0.975068620877,
			"-0.01": 1.20714880631,
			"-0.009": 0.950953547592,
			"-0.008": 1.41395839384,
			"-0.007": 2.14834064675,
			"-0.006": 7.67176501231,
			"-0.005": 18.1331856185,
			"-0.004": 22.8405335229,
			"-0.003": 30.176496894,
			"-0.002": 24.1981546979,
			"-0.001": 21.1101983023,
			"0.0": 13.7989219013,
			"0.001": 10.7868360791,
			"0.002": 10.2296024483,
			"0.003": 9.87044913853,
			"0.004": 11.8044668617,
			"0.005": 11.6257380162,
			"0.006": 3.33176855721,
			"0.007": 2.31678613179,
			"0.008": 3.34601052541,
			"0.009": 2.84644309404,
			"0.01": 2.22000346121,
			"0.011": 1.83108912123,
			"0.012": 2.12527062757,
			"0.013": 4.05220719402,
			"0.014": 5.36523457756,
			"0.015": 1.52976998613,
			"0.016": 0.0376431453012,
			"0.017": 0.0,
			"0.018": 0.0,
			"0.019": 0.0,
			"0.02": 0.0,
			"0.021": 0.0,
			"0.022": 0.0,
			"0.023": 0.0,
			"0.024": 0.0,
			"0.025": 0.0
		}
	}
}
