{
	 "smiles": "CN1N=C(C)C2=C1N=C(C=C2C(O)=O)C1CC1", 
	 "Tm": 516.15, 
	 "num_atms": 30, 
	 "gaussian": { 
		 "optdone": 1, 
		 "sigma_profile": "yes", 
		 "theory": "DFT", 
		 "functional": "B3LYP", 
		 "basiset": "6-31G**", 
		 "properties": { 
			 "R2extent": 4452.789, 
			 "electric_dipole_moment_norm": 2.67928347138, 
			 "electric_quadrupole_moment_norm": 11.0470733215, 
			 "total_energy": -779.804513376, 
			 "HOMO_LUMO_gap": 0.14998, 
			 "cosmo_polarized_energy": -11.24, 
			 "cosmo_cavitation_energy": 33.68, 
			 "cosmo_dispersion_energy": -24.35, 
			 "cosmo_repulsion_energy": 1.88, 
			 "cosmo_total_nonelectrostatic_energy": 11.22, 
			 "SMD_solvation_energy": 4.81 
		},
		"coords": [
			{
				"x": 1.8097644799,
				"y": -2.8922144682,
				"z": 1.0546413529,
				"element": "C" 
			},
			{
				"x": 0.8109896231,
				"y": -1.8994631868,
				"z": 1.3875041275,
				"element": "N" 
			},
			{
				"x": 0.3655233964,
				"y": -1.7577999282,
				"z": 2.664099936,
				"element": "N" 
			},
			{
				"x": -0.5382775097,
				"y": -0.785397687,
				"z": 2.6767160929,
				"element": "C" 
			},
			{
				"x": -1.1877268472,
				"y": -0.4298113601,
				"z": 3.9787327028,
				"element": "C" 
			},
			{
				"x": -0.7043837044,
				"y": -0.2535168551,
				"z": 1.3492180165,
				"element": "C" 
			},
			{
				"x": 0.1983578052,
				"y": -1.0165232528,
				"z": 0.5523829134,
				"element": "C" 
			},
			{
				"x": 0.4243948932,
				"y": -0.9123383189,
				"z": -0.7596549202,
				"element": "N" 
			},
			{
				"x": -0.286449332,
				"y": 0.023576978,
				"z": -1.3942461255,
				"element": "C" 
			},
			{
				"x": -1.2185763087,
				"y": 0.8517918008,
				"z": -0.721657952,
				"element": "C" 
			},
			{
				"x": -1.4425673933,
				"y": 0.7299429605,
				"z": 0.6479185815,
				"element": "C" 
			},
			{
				"x": -2.43178117,
				"y": 1.6188499492,
				"z": 1.3220232783,
				"element": "C" 
			},
			{
				"x": -3.0248225017,
				"y": 2.4900206177,
				"z": 0.4678909505,
				"element": "O" 
			},
			{
				"x": -2.7083499771,
				"y": 1.6003724478,
				"z": 2.5041652613,
				"element": "O" 
			},
			{
				"x": -0.0738815915,
				"y": 0.1825874322,
				"z": -2.8568844492,
				"element": "C" 
			},
			{
				"x": 1.3097044471,
				"y": -0.0357036754,
				"z": -3.4466971453,
				"element": "C" 
			},
			{
				"x": 0.2296343534,
				"y": -1.0363866053,
				"z": -3.712418165,
				"element": "C" 
			},
			{
				"x": 2.0050672809,
				"y": -2.8205295359,
				"z": -0.0157527108,
				"element": "H" 
			},
			{
				"x": 2.73244894,
				"y": -2.7052683184,
				"z": 1.6114399495,
				"element": "H" 
			},
			{
				"x": 1.4453088816,
				"y": -3.8945713592,
				"z": 1.2970317092,
				"element": "H" 
			},
			{
				"x": -1.0056942527,
				"y": 0.6139059753,
				"z": 4.2467148292,
				"element": "H" 
			},
			{
				"x": -0.7818753054,
				"y": -1.0789335025,
				"z": 4.7579997504,
				"element": "H" 
			},
			{
				"x": -2.2725394526,
				"y": -0.5529976058,
				"z": 3.9336488305,
				"element": "H" 
			},
			{
				"x": -1.7674947513,
				"y": 1.5947029554,
				"z": -1.2859936922,
				"element": "H" 
			},
			{
				"x": -3.6401039128,
				"y": 3.0093214186,
				"z": 1.0110724525,
				"element": "H" 
			},
			{
				"x": -0.6799099315,
				"y": 0.9583733236,
				"z": -3.3154136108,
				"element": "H" 
			},
			{
				"x": 1.6221684041,
				"y": 0.6263410675,
				"z": -4.248500931,
				"element": "H" 
			},
			{
				"x": 2.0874599679,
				"y": -0.3135497967,
				"z": -2.7428318156,
				"element": "H" 
			},
			{
				"x": -0.2173878321,
				"y": -1.0780696577,
				"z": -4.7009990069,
				"element": "H" 
			},
			{
				"x": 0.2844993011,
				"y": -1.9840118127,
				"z": -3.1865502106,
				"element": "H" 
			}
		],
		 "valence_orbital": [ 
			{
				"type": "occ",
				"energy": -0.29354,
				"method": "rhf"
			},
			{
				"type": "occ",
				"energy": -0.28446,
				"method": "rhf"
			},
			{
				"type": "occ",
				"energy": -0.26855,
				"method": "rhf"
			},
			{
				"type": "occ",
				"energy": -0.23528,
				"method": "rhf"
			},
			{
				"type": "occ",
				"energy": -0.22289,
				"method": "rhf"
			},
			{
				"type": "unocc",
				"energy": -0.07291,
				"method": "rhf"
			},
			{
				"type": "unocc",
				"energy": 0.00108,
				"method": "rhf"
			},
			{
				"type": "unocc",
				"energy": 0.03722,
				"method": "rhf"
			},
			{
				"type": "unocc",
				"energy": 0.05813,
				"method": "rhf"
			},
			{
				"type": "unocc",
				"energy": 0.07361,
				"method": "rhf"
			}
		],
		"cosmo_sigma_profile": { 
			"-0.025": 0.0,
			"-0.024": 0.0,
			"-0.023": 0.0,
			"-0.022": 0.0,
			"-0.021": 0.0,
			"-0.02": 0.0,
			"-0.019": 0.135171741827,
			"-0.018": 0.812379809606,
			"-0.017": 1.09167873261,
			"-0.016": 1.23367298231,
			"-0.015": 0.402742940768,
			"-0.014": 0.139430787515,
			"-0.013": 0.504997254651,
			"-0.012": 1.11043311098,
			"-0.011": 1.20188278569,
			"-0.01": 0.61457116696,
			"-0.009": 0.264526438664,
			"-0.008": 0.971060214272,
			"-0.007": 2.78282400658,
			"-0.006": 6.79721869572,
			"-0.005": 13.5292348487,
			"-0.004": 18.9467695263,
			"-0.003": 24.077470602,
			"-0.002": 22.5993031405,
			"-0.001": 20.5966676859,
			"0.0": 32.4420101559,
			"0.001": 32.4826467697,
			"0.002": 20.0098837848,
			"0.003": 16.0523839342,
			"0.004": 11.4547994848,
			"0.005": 8.27551638858,
			"0.006": 7.76780990048,
			"0.007": 5.62816266929,
			"0.008": 3.28272673475,
			"0.009": 2.52532677906,
			"0.01": 3.05195218034,
			"0.011": 2.52772841508,
			"0.012": 2.09407333252,
			"0.013": 1.03925813619,
			"0.014": 0.581929293752,
			"0.015": 0.677589802306,
			"0.016": 0.0141660057539,
			"0.017": 0.0,
			"0.018": 0.0,
			"0.019": 0.0,
			"0.02": 0.0,
			"0.021": 0.0,
			"0.022": 0.0,
			"0.023": 0.0,
			"0.024": 0.0,
			"0.025": 0.0
		}
	}
}
