{
	 "smiles": "[O-][N+](=O)C1=CC(=C(C=NC2=CC=CC=C2)C=C1C=NC1=CC=CC=C1)[N+]([O-])=O", 
	 "Tm": 438.15, 
	 "num_atms": 42, 
	 "gaussian": { 
		 "optdone": 1, 
		 "sigma_profile": "yes", 
		 "theory": "DFT", 
		 "functional": "B3LYP", 
		 "basiset": "6-31G**", 
		 "properties": { 
			 "R2extent": 11344.4406, 
			 "electric_dipole_moment_norm": 2.79660142852, 
			 "electric_quadrupole_moment_norm": 26.0595117295, 
			 "total_energy": -1290.21094421, 
			 "HOMO_LUMO_gap": 0.10665, 
			 "cosmo_polarized_energy": -18.66, 
			 "cosmo_cavitation_energy": 49.28, 
			 "cosmo_dispersion_energy": -31.22, 
			 "cosmo_repulsion_energy": 2.4, 
			 "cosmo_total_nonelectrostatic_energy": 20.46, 
			 "SMD_solvation_energy": 9.08 
		},
		"coords": [
			{
				"x": 2.2581645948,
				"y": -5.1623268998,
				"z": -1.7763031395,
				"element": "O" 
			},
			{
				"x": 1.9672476198,
				"y": -4.4783584006,
				"z": -0.7994933782,
				"element": "N" 
			},
			{
				"x": 2.3681529327,
				"y": -4.6788119499,
				"z": 0.3479458336,
				"element": "O" 
			},
			{
				"x": 1.0589326972,
				"y": -3.3373402534,
				"z": -1.0080106766,
				"element": "C" 
			},
			{
				"x": 0.3877221596,
				"y": -3.2795791447,
				"z": -2.2219235433,
				"element": "C" 
			},
			{
				"x": -0.5125629679,
				"y": -2.2450834827,
				"z": -2.4381843691,
				"element": "C" 
			},
			{
				"x": -0.7648413966,
				"y": -1.2580539907,
				"z": -1.4684342652,
				"element": "C" 
			},
			{
				"x": -1.8287840245,
				"y": -0.208093348,
				"z": -1.5911299131,
				"element": "C" 
			},
			{
				"x": -1.7358025705,
				"y": 1.0348584852,
				"z": -1.3284370402,
				"element": "N" 
			},
			{
				"x": -0.5026189876,
				"y": 1.6806783114,
				"z": -1.1085526413,
				"element": "C" 
			},
			{
				"x": 0.5567676974,
				"y": 1.5903628837,
				"z": -2.0274105685,
				"element": "C" 
			},
			{
				"x": 1.7327058171,
				"y": 2.3073650152,
				"z": -1.8089371499,
				"element": "C" 
			},
			{
				"x": 1.8719587358,
				"y": 3.1083600132,
				"z": -0.6739374494,
				"element": "C" 
			},
			{
				"x": 0.8128673484,
				"y": 3.2104469513,
				"z": 0.2331907317,
				"element": "C" 
			},
			{
				"x": -0.3767135194,
				"y": 2.5214511595,
				"z": 0.0093662362,
				"element": "C" 
			},
			{
				"x": -0.0624914132,
				"y": -1.3592247781,
				"z": -0.2605994433,
				"element": "C" 
			},
			{
				"x": 0.8560065571,
				"y": -2.383027685,
				"z": 0.0051071229,
				"element": "C" 
			},
			{
				"x": 1.6573674178,
				"y": -2.3140076901,
				"z": 1.2710003233,
				"element": "C" 
			},
			{
				"x": 1.2313977988,
				"y": -2.1369024631,
				"z": 2.4583536832,
				"element": "N" 
			},
			{
				"x": -0.1316824612,
				"y": -2.2285208698,
				"z": 2.804440294,
				"element": "C" 
			},
			{
				"x": -0.906047091,
				"y": -3.355177931,
				"z": 2.479203703,
				"element": "C" 
			},
			{
				"x": -2.2304015026,
				"y": -3.4387753194,
				"z": 2.9078410858,
				"element": "C" 
			},
			{
				"x": -2.8000074424,
				"y": -2.4027095656,
				"z": 3.650358902,
				"element": "C" 
			},
			{
				"x": -2.0258857681,
				"y": -1.2881228819,
				"z": 3.9871006115,
				"element": "C" 
			},
			{
				"x": -0.6936187173,
				"y": -1.2080404442,
				"z": 3.5888783807,
				"element": "C" 
			},
			{
				"x": -1.1659058927,
				"y": -2.1916978833,
				"z": -3.7575427717,
				"element": "N" 
			},
			{
				"x": -1.7640360316,
				"y": -1.1552763287,
				"z": -4.0501380159,
				"element": "O" 
			},
			{
				"x": -1.0647593146,
				"y": -3.1752671639,
				"z": -4.484844508,
				"element": "O" 
			},
			{
				"x": 0.5628874605,
				"y": -4.0261921305,
				"z": -2.9845829645,
				"element": "H" 
			},
			{
				"x": -2.8177964732,
				"y": -0.584796049,
				"z": -1.8564683841,
				"element": "H" 
			},
			{
				"x": 0.4331165933,
				"y": 0.9877295332,
				"z": -2.922052584,
				"element": "H" 
			},
			{
				"x": 2.5415253575,
				"y": 2.2408808015,
				"z": -2.5310878398,
				"element": "H" 
			},
			{
				"x": 2.7906260201,
				"y": 3.6618362139,
				"z": -0.5052300537,
				"element": "H" 
			},
			{
				"x": 0.9083706385,
				"y": 3.8429542577,
				"z": 1.111073401,
				"element": "H" 
			},
			{
				"x": -1.215585187,
				"y": 2.6145126133,
				"z": 0.6919505373,
				"element": "H" 
			},
			{
				"x": -0.2378089539,
				"y": -0.6114882919,
				"z": 0.5030864044,
				"element": "H" 
			},
			{
				"x": 2.7393383517,
				"y": -2.3338705189,
				"z": 1.1316920344,
				"element": "H" 
			},
			{
				"x": -0.4503190756,
				"y": -4.1701372359,
				"z": 1.9251349641,
				"element": "H" 
			},
			{
				"x": -2.8174361388,
				"y": -4.3191687203,
				"z": 2.662061445,
				"element": "H" 
			},
			{
				"x": -3.8326882352,
				"y": -2.4696106882,
				"z": 3.9787513429,
				"element": "H" 
			},
			{
				"x": -2.4577711789,
				"y": -0.484693917,
				"z": 4.5768820158,
				"element": "H" 
			},
			{
				"x": -0.0749914543,
				"y": -0.3607802136,
				"z": 3.8676816466,
				"element": "H" 
			}
		],
		 "valence_orbital": [ 
			{
				"type": "occ",
				"energy": -0.29053,
				"method": "rhf"
			},
			{
				"type": "occ",
				"energy": -0.26358,
				"method": "rhf"
			},
			{
				"type": "occ",
				"energy": -0.26225,
				"method": "rhf"
			},
			{
				"type": "occ",
				"energy": -0.23517,
				"method": "rhf"
			},
			{
				"type": "occ",
				"energy": -0.23366,
				"method": "rhf"
			},
			{
				"type": "unocc",
				"energy": -0.12701,
				"method": "rhf"
			},
			{
				"type": "unocc",
				"energy": -0.11182,
				"method": "rhf"
			},
			{
				"type": "unocc",
				"energy": -0.05705,
				"method": "rhf"
			},
			{
				"type": "unocc",
				"energy": -0.05625,
				"method": "rhf"
			},
			{
				"type": "unocc",
				"energy": -0.03618,
				"method": "rhf"
			}
		],
		"cosmo_sigma_profile": { 
			"-0.025": 0.0,
			"-0.024": 0.0,
			"-0.023": 0.0,
			"-0.022": 0.0,
			"-0.021": 0.0,
			"-0.02": 0.0,
			"-0.019": 0.0,
			"-0.018": 0.0,
			"-0.017": 0.0,
			"-0.016": 0.0,
			"-0.015": 0.0,
			"-0.014": 0.0,
			"-0.013": 0.0,
			"-0.012": 0.0408254764198,
			"-0.011": 1.06979837447,
			"-0.01": 2.22143525145,
			"-0.009": 3.66704632343,
			"-0.008": 6.63461347128,
			"-0.007": 7.96340744004,
			"-0.006": 27.7284782944,
			"-0.005": 33.9597973729,
			"-0.004": 40.9523373359,
			"-0.003": 31.7478733305,
			"-0.002": 23.3639329951,
			"-0.001": 20.8085498048,
			"0.0": 19.5440909748,
			"0.001": 18.7053020378,
			"0.002": 20.8726596095,
			"0.003": 22.8047473433,
			"0.004": 27.1820683989,
			"0.005": 28.2707084318,
			"0.006": 19.2299219505,
			"0.007": 15.0532087662,
			"0.008": 10.7144506215,
			"0.009": 5.78887944191,
			"0.01": 2.31418687032,
			"0.011": 1.63142741448,
			"0.012": 1.55192221174,
			"0.013": 1.63844521547,
			"0.014": 1.25286454985,
			"0.015": 0.0611811471928,
			"0.016": 0.0,
			"0.017": 0.0,
			"0.018": 0.0,
			"0.019": 0.0,
			"0.02": 0.0,
			"0.021": 0.0,
			"0.022": 0.0,
			"0.023": 0.0,
			"0.024": 0.0,
			"0.025": 0.0
		}
	}
}
