{
	 "smiles": "CC1=C(Cl)C=CC(OC2=CC=C(C=C2[N+]([O-])=O)C(F)(F)F)=C1", 
	 "Tm": 331.15, 
	 "num_atms": 31, 
	 "gaussian": { 
		 "optdone": 1, 
		 "sigma_profile": "yes", 
		 "theory": "DFT", 
		 "functional": "B3LYP", 
		 "basiset": "6-31G**", 
		 "properties": { 
			 "R2extent": 10781.1803, 
			 "electric_dipole_moment_norm": 4.46112812078, 
			 "electric_quadrupole_moment_norm": 12.5567602362, 
			 "total_energy": -1578.9447506, 
			 "HOMO_LUMO_gap": 0.16532, 
			 "cosmo_polarized_energy": -11.99, 
			 "cosmo_cavitation_energy": 40.44, 
			 "cosmo_dispersion_energy": -27.88, 
			 "cosmo_repulsion_energy": 2.08, 
			 "cosmo_total_nonelectrostatic_energy": 14.63, 
			 "SMD_solvation_energy": 10.24 
		},
		"coords": [
			{
				"x": 3.800006043,
				"y": 2.9056326941,
				"z": 1.3409249088,
				"element": "C" 
			},
			{
				"x": 2.8268153547,
				"y": 1.8144380298,
				"z": 1.7041159595,
				"element": "C" 
			},
			{
				"x": 2.7461328186,
				"y": 1.2840655286,
				"z": 3.002935607,
				"element": "C" 
			},
			{
				"x": 3.8020567902,
				"y": 1.9074522088,
				"z": 4.2644047727,
				"element": "Cl" 
			},
			{
				"x": 1.8542114037,
				"y": 0.2649678279,
				"z": 3.3348781651,
				"element": "C" 
			},
			{
				"x": 1.0008416252,
				"y": -0.2542453548,
				"z": 2.3624291087,
				"element": "C" 
			},
			{
				"x": 1.0635297222,
				"y": 0.2656707977,
				"z": 1.0735701228,
				"element": "C" 
			},
			{
				"x": 0.277230472,
				"y": -0.3076615133,
				"z": 0.0753807972,
				"element": "O" 
			},
			{
				"x": -0.8914985257,
				"y": 0.2727328092,
				"z": -0.2896927715,
				"element": "C" 
			},
			{
				"x": -1.4222834902,
				"y": 1.3986613472,
				"z": 0.3600317645,
				"element": "C" 
			},
			{
				"x": -2.613632849,
				"y": 1.9692937647,
				"z": -0.0670309726,
				"element": "C" 
			},
			{
				"x": -3.3031753818,
				"y": 1.4430264866,
				"z": -1.1648285545,
				"element": "C" 
			},
			{
				"x": -2.788643081,
				"y": 0.3340302717,
				"z": -1.8253503139,
				"element": "C" 
			},
			{
				"x": -1.6052752762,
				"y": -0.2567540096,
				"z": -1.3870456434,
				"element": "C" 
			},
			{
				"x": -1.1532611447,
				"y": -1.4518720934,
				"z": -2.1151903401,
				"element": "N" 
			},
			{
				"x": -0.4508440001,
				"y": -2.2636484343,
				"z": -1.5213190778,
				"element": "O" 
			},
			{
				"x": -1.5373873139,
				"y": -1.5689880165,
				"z": -3.280454252,
				"element": "O" 
			},
			{
				"x": -4.5611782829,
				"y": 2.1082528905,
				"z": -1.6517535442,
				"element": "C" 
			},
			{
				"x": -5.3102972818,
				"y": 2.5590651792,
				"z": -0.6204169544,
				"element": "F" 
			},
			{
				"x": -4.2879396948,
				"y": 3.179053816,
				"z": -2.4317696205,
				"element": "F" 
			},
			{
				"x": -5.3248452536,
				"y": 1.2688959487,
				"z": -2.3803861722,
				"element": "F" 
			},
			{
				"x": 1.9607088635,
				"y": 1.2784189754,
				"z": 0.7426519985,
				"element": "C" 
			},
			{
				"x": 3.6318166751,
				"y": 3.8038229907,
				"z": 1.9443767414,
				"element": "H" 
			},
			{
				"x": 4.832604352,
				"y": 2.5906592344,
				"z": 1.5241231005,
				"element": "H" 
			},
			{
				"x": 3.7049939835,
				"y": 3.175853381,
				"z": 0.2868190725,
				"element": "H" 
			},
			{
				"x": 1.8323161664,
				"y": -0.1206555233,
				"z": 4.3478682664,
				"element": "H" 
			},
			{
				"x": 0.3075759234,
				"y": -1.0560559189,
				"z": 2.5913547133,
				"element": "H" 
			},
			{
				"x": -0.8905205648,
				"y": 1.8176080902,
				"z": 1.2051731716,
				"element": "H" 
			},
			{
				"x": -3.0142862127,
				"y": 2.8286482515,
				"z": 0.4602648635,
				"element": "H" 
			},
			{
				"x": -3.2915828943,
				"y": -0.0972979241,
				"z": -2.6811668273,
				"element": "H" 
			},
			{
				"x": 1.9931110539,
				"y": 1.6449282645,
				"z": -0.2785980897,
				"element": "H" 
			}
		],
		 "valence_orbital": [ 
			{
				"type": "occ",
				"energy": -0.30309,
				"method": "rhf"
			},
			{
				"type": "occ",
				"energy": -0.28609,
				"method": "rhf"
			},
			{
				"type": "occ",
				"energy": -0.279,
				"method": "rhf"
			},
			{
				"type": "occ",
				"energy": -0.26617,
				"method": "rhf"
			},
			{
				"type": "occ",
				"energy": -0.25674,
				"method": "rhf"
			},
			{
				"type": "unocc",
				"energy": -0.09142,
				"method": "rhf"
			},
			{
				"type": "unocc",
				"energy": -0.041,
				"method": "rhf"
			},
			{
				"type": "unocc",
				"energy": -0.03429,
				"method": "rhf"
			},
			{
				"type": "unocc",
				"energy": -0.03083,
				"method": "rhf"
			},
			{
				"type": "unocc",
				"energy": -0.01738,
				"method": "rhf"
			}
		],
		"cosmo_sigma_profile": { 
			"-0.025": 0.0,
			"-0.024": 0.0,
			"-0.023": 0.0,
			"-0.022": 0.0,
			"-0.021": 0.0,
			"-0.02": 0.0,
			"-0.019": 0.0,
			"-0.018": 0.0,
			"-0.017": 0.0,
			"-0.016": 0.0,
			"-0.015": 0.0,
			"-0.014": 0.0,
			"-0.013": 0.0,
			"-0.012": 0.0,
			"-0.011": 0.0,
			"-0.01": 0.0,
			"-0.009": 0.88433014885,
			"-0.008": 6.49378227093,
			"-0.007": 12.8544918496,
			"-0.006": 13.8134705329,
			"-0.005": 16.0195225896,
			"-0.004": 17.2861407686,
			"-0.003": 20.9228068431,
			"-0.002": 27.0546171967,
			"-0.001": 32.4044498256,
			"0.0": 29.7945666489,
			"0.001": 27.7979361145,
			"0.002": 40.614263607,
			"0.003": 31.6459727239,
			"0.004": 11.690403904,
			"0.005": 7.40205796891,
			"0.006": 3.79943466063,
			"0.007": 8.19390694847,
			"0.008": 8.79237651301,
			"0.009": 5.9853952558,
			"0.01": 3.45772366391,
			"0.011": 0.331995674079,
			"0.012": 0.0,
			"0.013": 0.0,
			"0.014": 0.0,
			"0.015": 0.0,
			"0.016": 0.0,
			"0.017": 0.0,
			"0.018": 0.0,
			"0.019": 0.0,
			"0.02": 0.0,
			"0.021": 0.0,
			"0.022": 0.0,
			"0.023": 0.0,
			"0.024": 0.0,
			"0.025": 0.0
		}
	}
}
