{
	 "smiles": "CCCCC=CC", 
	 "Tm": 164.15, 
	 "num_atms": 21, 
	 "gaussian": { 
		 "optdone": 1, 
		 "sigma_profile": "yes", 
		 "theory": "DFT", 
		 "functional": "B3LYP", 
		 "basiset": "6-31G**", 
		 "properties": { 
			 "R2extent": 1496.1514, 
			 "electric_dipole_moment_norm": 0.239678868489, 
			 "electric_quadrupole_moment_norm": 1.4677585871, 
			 "total_energy": -275.178915224, 
			 "HOMO_LUMO_gap": 0.26798, 
			 "cosmo_polarized_energy": -1.56, 
			 "cosmo_cavitation_energy": 22.78, 
			 "cosmo_dispersion_energy": -16.49, 
			 "cosmo_repulsion_energy": 1.44, 
			 "cosmo_total_nonelectrostatic_energy": 7.72, 
			 "SMD_solvation_energy": 4.02 
		},
		"coords": [
			{
				"x": 1.8783990365,
				"y": 0.5808290454,
				"z": -2.1617681239,
				"element": "C" 
			},
			{
				"x": 1.2420488258,
				"y": -0.799735971,
				"z": -1.96019721,
				"element": "C" 
			},
			{
				"x": 0.0252710093,
				"y": -0.8118197683,
				"z": -1.0203229045,
				"element": "C" 
			},
			{
				"x": 0.3498892804,
				"y": -0.4727625223,
				"z": 0.4489959206,
				"element": "C" 
			},
			{
				"x": -0.8744912381,
				"y": -0.4832265119,
				"z": 1.325046023,
				"element": "C" 
			},
			{
				"x": -1.1278716747,
				"y": -1.2614586229,
				"z": 2.3843236126,
				"element": "C" 
			},
			{
				"x": -0.2469465626,
				"y": -2.3208290885,
				"z": 2.9857987294,
				"element": "C" 
			},
			{
				"x": 2.704364886,
				"y": 0.5325357967,
				"z": -2.8791223546,
				"element": "H" 
			},
			{
				"x": 2.2807151402,
				"y": 0.9878270727,
				"z": -1.2283530448,
				"element": "H" 
			},
			{
				"x": 1.1458379582,
				"y": 1.2996786225,
				"z": -2.5473704906,
				"element": "H" 
			},
			{
				"x": 0.9311489766,
				"y": -1.1931731276,
				"z": -2.9365107893,
				"element": "H" 
			},
			{
				"x": 1.9990665277,
				"y": -1.4996688489,
				"z": -1.5801007827,
				"element": "H" 
			},
			{
				"x": -0.4440300508,
				"y": -1.8031254685,
				"z": -1.0516377308,
				"element": "H" 
			},
			{
				"x": -0.7298723345,
				"y": -0.1063419815,
				"z": -1.3955498577,
				"element": "H" 
			},
			{
				"x": 1.106673775,
				"y": -1.1725967034,
				"z": 0.8211321979,
				"element": "H" 
			},
			{
				"x": 0.8062647884,
				"y": 0.5260885172,
				"z": 0.4956370795,
				"element": "H" 
			},
			{
				"x": -1.6452215176,
				"y": 0.232959952,
				"z": 1.0356608795,
				"element": "H" 
			},
			{
				"x": -2.0843588903,
				"y": -1.1221524775,
				"z": 2.889018817,
				"element": "H" 
			},
			{
				"x": 0.695841345,
				"y": -2.447144411,
				"z": 2.4484399132,
				"element": "H" 
			},
			{
				"x": -0.0072182995,
				"y": -2.0827859867,
				"z": 4.0302306192,
				"element": "H" 
			},
			{
				"x": -0.7585109809,
				"y": -3.2917975167,
				"z": 2.9982494969,
				"element": "H" 
			}
		],
		 "valence_orbital": [ 
			{
				"type": "occ",
				"energy": -0.33664,
				"method": "rhf"
			},
			{
				"type": "occ",
				"energy": -0.32255,
				"method": "rhf"
			},
			{
				"type": "occ",
				"energy": -0.32048,
				"method": "rhf"
			},
			{
				"type": "occ",
				"energy": -0.31226,
				"method": "rhf"
			},
			{
				"type": "occ",
				"energy": -0.23352,
				"method": "rhf"
			},
			{
				"type": "unocc",
				"energy": 0.03446,
				"method": "rhf"
			},
			{
				"type": "unocc",
				"energy": 0.09132,
				"method": "rhf"
			},
			{
				"type": "unocc",
				"energy": 0.11232,
				"method": "rhf"
			},
			{
				"type": "unocc",
				"energy": 0.11564,
				"method": "rhf"
			},
			{
				"type": "unocc",
				"energy": 0.12996,
				"method": "rhf"
			}
		],
		"cosmo_sigma_profile": { 
			"-0.025": 0.0,
			"-0.024": 0.0,
			"-0.023": 0.0,
			"-0.022": 0.0,
			"-0.021": 0.0,
			"-0.02": 0.0,
			"-0.019": 0.0,
			"-0.018": 0.0,
			"-0.017": 0.0,
			"-0.016": 0.0,
			"-0.015": 0.0,
			"-0.014": 0.0,
			"-0.013": 0.0,
			"-0.012": 0.0,
			"-0.011": 0.0,
			"-0.01": 0.0,
			"-0.009": 0.0,
			"-0.008": 0.0,
			"-0.007": 0.0,
			"-0.006": 0.0,
			"-0.005": 0.0809058390464,
			"-0.004": 4.16823079542,
			"-0.003": 14.9675110107,
			"-0.002": 25.8106514527,
			"-0.001": 33.3023220007,
			"0.0": 34.9431680142,
			"0.001": 31.5647004541,
			"0.002": 12.8655665679,
			"0.003": 5.56681446107,
			"0.004": 3.67051337596,
			"0.005": 3.13052962007,
			"0.006": 2.86739056292,
			"0.007": 2.65386046832,
			"0.008": 0.77966505379,
			"0.009": 0.0,
			"0.01": 0.0,
			"0.011": 0.0,
			"0.012": 0.0,
			"0.013": 0.0,
			"0.014": 0.0,
			"0.015": 0.0,
			"0.016": 0.0,
			"0.017": 0.0,
			"0.018": 0.0,
			"0.019": 0.0,
			"0.02": 0.0,
			"0.021": 0.0,
			"0.022": 0.0,
			"0.023": 0.0,
			"0.024": 0.0,
			"0.025": 0.0
		}
	}
}
