{
	 "smiles": "COC1=C(OC)C=C(C(=C1)C(=O)C1=CC=CC(C)=C1)[N+]([O-])=O", 
	 "Tm": 394.15, 
	 "num_atms": 37, 
	 "gaussian": { 
		 "optdone": 1, 
		 "sigma_profile": "yes", 
		 "theory": "DFT", 
		 "functional": "B3LYP", 
		 "basiset": "6-31G**", 
		 "properties": { 
			 "R2extent": 8314.0827, 
			 "electric_dipole_moment_norm": 6.54474063428, 
			 "electric_quadrupole_moment_norm": 23.3754690291, 
			 "total_energy": -1049.48451655, 
			 "HOMO_LUMO_gap": 0.15825, 
			 "cosmo_polarized_energy": -17.31, 
			 "cosmo_cavitation_energy": 42.09, 
			 "cosmo_dispersion_energy": -28.87, 
			 "cosmo_repulsion_energy": 2.24, 
			 "cosmo_total_nonelectrostatic_energy": 15.46, 
			 "SMD_solvation_energy": 11.37 
		},
		"coords": [
			{
				"x": 1.0566220913,
				"y": -3.8846631287,
				"z": -1.9630742581,
				"element": "C" 
			},
			{
				"x": 1.0648763845,
				"y": -4.0954595577,
				"z": -0.5532099752,
				"element": "O" 
			},
			{
				"x": 0.4859347074,
				"y": -3.1683370625,
				"z": 0.2459871478,
				"element": "C" 
			},
			{
				"x": 0.455140294,
				"y": -3.4716354846,
				"z": 1.6322267673,
				"element": "C" 
			},
			{
				"x": 0.9364941014,
				"y": -4.6526968022,
				"z": 2.1222230781,
				"element": "O" 
			},
			{
				"x": 2.3542899837,
				"y": -4.8455229431,
				"z": 2.0469452087,
				"element": "C" 
			},
			{
				"x": -0.1629551525,
				"y": -2.5881276499,
				"z": 2.5024353935,
				"element": "C" 
			},
			{
				"x": -0.7354074281,
				"y": -1.4062982246,
				"z": 2.0216506927,
				"element": "C" 
			},
			{
				"x": -0.6861503073,
				"y": -1.0662059443,
				"z": 0.666354785,
				"element": "C" 
			},
			{
				"x": -0.0776115246,
				"y": -1.9724596127,
				"z": -0.2097175957,
				"element": "C" 
			},
			{
				"x": -1.2687395686,
				"y": 0.1880862998,
				"z": 0.0320309923,
				"element": "C" 
			},
			{
				"x": -2.1831968056,
				"y": 0.0574346498,
				"z": -0.7662455502,
				"element": "O" 
			},
			{
				"x": -0.6106386664,
				"y": 1.506054265,
				"z": 0.274497745,
				"element": "C" 
			},
			{
				"x": 0.5928523025,
				"y": 1.6296192555,
				"z": 0.9800076062,
				"element": "C" 
			},
			{
				"x": 1.175715811,
				"y": 2.8869539789,
				"z": 1.1352671804,
				"element": "C" 
			},
			{
				"x": 0.5614612191,
				"y": 4.0156390819,
				"z": 0.5946362173,
				"element": "C" 
			},
			{
				"x": -0.6459471082,
				"y": 3.9137375861,
				"z": -0.1159801503,
				"element": "C" 
			},
			{
				"x": -1.3172589346,
				"y": 5.1458958501,
				"z": -0.6760505641,
				"element": "C" 
			},
			{
				"x": -1.2131766125,
				"y": 2.6489168392,
				"z": -0.2728498508,
				"element": "C" 
			},
			{
				"x": -1.4320195394,
				"y": -0.5490095337,
				"z": 2.9807979845,
				"element": "N" 
			},
			{
				"x": -1.2996941623,
				"y": -0.7962088914,
				"z": 4.1797570448,
				"element": "O" 
			},
			{
				"x": -2.1214299545,
				"y": 0.3686705527,
				"z": 2.5296109853,
				"element": "O" 
			},
			{
				"x": 1.5346058268,
				"y": -4.7636594017,
				"z": -2.3960008667,
				"element": "H" 
			},
			{
				"x": 0.0332174041,
				"y": -3.799500546,
				"z": -2.3454036955,
				"element": "H" 
			},
			{
				"x": 1.6253542142,
				"y": -2.9883440928,
				"z": -2.2375208961,
				"element": "H" 
			},
			{
				"x": 2.8829652322,
				"y": -4.0562160698,
				"z": 2.5958423024,
				"element": "H" 
			},
			{
				"x": 2.7022329362,
				"y": -4.8712206837,
				"z": 1.0108063676,
				"element": "H" 
			},
			{
				"x": 2.5502681423,
				"y": -5.8076702249,
				"z": 2.5229610449,
				"element": "H" 
			},
			{
				"x": -0.2228049982,
				"y": -2.8269704373,
				"z": 3.556361915,
				"element": "H" 
			},
			{
				"x": -0.0677784141,
				"y": -1.7295961248,
				"z": -1.2648687843,
				"element": "H" 
			},
			{
				"x": 1.077431469,
				"y": 0.7527473222,
				"z": 1.3972642104,
				"element": "H" 
			},
			{
				"x": 2.1116531857,
				"y": 2.9871190678,
				"z": 1.6771646577,
				"element": "H" 
			},
			{
				"x": 1.0239018759,
				"y": 4.9915811863,
				"z": 0.7228089597,
				"element": "H" 
			},
			{
				"x": -0.5936250991,
				"y": 5.8136322878,
				"z": -1.1552456579,
				"element": "H" 
			},
			{
				"x": -2.0786968805,
				"y": 4.8833881021,
				"z": -1.4152256108,
				"element": "H" 
			},
			{
				"x": -1.811612143,
				"y": 5.720163677,
				"z": 0.1169149234,
				"element": "H" 
			},
			{
				"x": -2.1405738819,
				"y": 2.5215624142,
				"z": -0.8225597543,
				"element": "H" 
			}
		],
		 "valence_orbital": [ 
			{
				"type": "occ",
				"energy": -0.2714,
				"method": "rhf"
			},
			{
				"type": "occ",
				"energy": -0.2555,
				"method": "rhf"
			},
			{
				"type": "occ",
				"energy": -0.25239,
				"method": "rhf"
			},
			{
				"type": "occ",
				"energy": -0.24771,
				"method": "rhf"
			},
			{
				"type": "occ",
				"energy": -0.24231,
				"method": "rhf"
			},
			{
				"type": "unocc",
				"energy": -0.08406,
				"method": "rhf"
			},
			{
				"type": "unocc",
				"energy": -0.05628,
				"method": "rhf"
			},
			{
				"type": "unocc",
				"energy": -0.02527,
				"method": "rhf"
			},
			{
				"type": "unocc",
				"energy": -0.00466,
				"method": "rhf"
			},
			{
				"type": "unocc",
				"energy": 0.00925,
				"method": "rhf"
			}
		],
		"cosmo_sigma_profile": { 
			"-0.025": 0.0,
			"-0.024": 0.0,
			"-0.023": 0.0,
			"-0.022": 0.0,
			"-0.021": 0.0,
			"-0.02": 0.0,
			"-0.019": 0.0,
			"-0.018": 0.0,
			"-0.017": 0.0,
			"-0.016": 0.0,
			"-0.015": 0.0,
			"-0.014": 0.0,
			"-0.013": 0.0,
			"-0.012": 0.0,
			"-0.011": 0.0,
			"-0.01": 0.0,
			"-0.009": 0.500355007767,
			"-0.008": 3.06824019865,
			"-0.007": 7.59853654647,
			"-0.006": 21.0668876921,
			"-0.005": 26.6791041749,
			"-0.004": 35.3800720556,
			"-0.003": 31.0425606159,
			"-0.002": 29.015287369,
			"-0.001": 26.3272589067,
			"0.0": 27.2967843063,
			"0.001": 17.1804022768,
			"0.002": 14.7914953422,
			"0.003": 14.6976311746,
			"0.004": 16.0576870018,
			"0.005": 10.606268466,
			"0.006": 9.10282108864,
			"0.007": 11.3701529091,
			"0.008": 11.5373804102,
			"0.009": 7.70862806361,
			"0.01": 7.16587557225,
			"0.011": 4.78433734768,
			"0.012": 2.30195931646,
			"0.013": 0.283570322203,
			"0.014": 0.0,
			"0.015": 0.0,
			"0.016": 0.0,
			"0.017": 0.0,
			"0.018": 0.0,
			"0.019": 0.0,
			"0.02": 0.0,
			"0.021": 0.0,
			"0.022": 0.0,
			"0.023": 0.0,
			"0.024": 0.0,
			"0.025": 0.0
		}
	}
}
