{
	 "smiles": "ClC1=CC(Cl)=C(Cl)C=C1S(Cl)(=O)=O", 
	 "Tm": 342.15, 
	 "num_atms": 15, 
	 "gaussian": { 
		 "optdone": 1, 
		 "sigma_profile": "yes", 
		 "theory": "DFT", 
		 "functional": "B3LYP", 
		 "basiset": "6-31G**", 
		 "properties": { 
			 "R2extent": 4730.0143, 
			 "electric_dipole_moment_norm": 3.40277165852, 
			 "electric_quadrupole_moment_norm": 12.3821494782, 
			 "total_energy": -2619.15309923, 
			 "HOMO_LUMO_gap": 0.1793, 
			 "cosmo_polarized_energy": -8.32, 
			 "cosmo_cavitation_energy": 28.59, 
			 "cosmo_dispersion_energy": -21.81, 
			 "cosmo_repulsion_energy": 1.68, 
			 "cosmo_total_nonelectrostatic_energy": 8.46, 
			 "SMD_solvation_energy": 2.89 
		},
		"coords": [
			{
				"x": 0.8449140958,
				"y": -1.8219897227,
				"z": -2.4691056383,
				"element": "Cl" 
			},
			{
				"x": 0.168188634,
				"y": -0.8920256023,
				"z": -1.1636859248,
				"element": "C" 
			},
			{
				"x": -0.741988737,
				"y": -1.5221846124,
				"z": -0.3186519713,
				"element": "C" 
			},
			{
				"x": -1.3210349453,
				"y": -0.8322518798,
				"z": 0.7473254755,
				"element": "C" 
			},
			{
				"x": -2.448638745,
				"y": -1.6727881979,
				"z": 1.7650473658,
				"element": "Cl" 
			},
			{
				"x": -0.9857660121,
				"y": 0.5095091454,
				"z": 0.9737135547,
				"element": "C" 
			},
			{
				"x": -1.6763299788,
				"y": 1.4159102321,
				"z": 2.2856699215,
				"element": "Cl" 
			},
			{
				"x": -0.0740528203,
				"y": 1.1430445289,
				"z": 0.1283804042,
				"element": "C" 
			},
			{
				"x": 0.5030613545,
				"y": 0.4543369315,
				"z": -0.9348340608,
				"element": "C" 
			},
			{
				"x": 1.6935564132,
				"y": 1.2463874707,
				"z": -2.0557513531,
				"element": "S" 
			},
			{
				"x": 1.8331666129,
				"y": 3.2274568275,
				"z": -1.276815547,
				"element": "Cl" 
			},
			{
				"x": 1.0872116522,
				"y": 1.3765079496,
				"z": -3.371332153,
				"element": "O" 
			},
			{
				"x": 3.0023786753,
				"y": 0.6449296891,
				"z": -1.8542973909,
				"element": "O" 
			},
			{
				"x": -1.002827143,
				"y": -2.5591038263,
				"z": -0.4912660749,
				"element": "H" 
			},
			{
				"x": 0.1772609436,
				"y": 2.1785610665,
				"z": 0.3126033925,
				"element": "H" 
			}
		],
		 "valence_orbital": [ 
			{
				"type": "occ",
				"energy": -0.34072,
				"method": "rhf"
			},
			{
				"type": "occ",
				"energy": -0.3342,
				"method": "rhf"
			},
			{
				"type": "occ",
				"energy": -0.32816,
				"method": "rhf"
			},
			{
				"type": "occ",
				"energy": -0.3008,
				"method": "rhf"
			},
			{
				"type": "occ",
				"energy": -0.28021,
				"method": "rhf"
			},
			{
				"type": "unocc",
				"energy": -0.10091,
				"method": "rhf"
			},
			{
				"type": "unocc",
				"energy": -0.0794,
				"method": "rhf"
			},
			{
				"type": "unocc",
				"energy": -0.06611,
				"method": "rhf"
			},
			{
				"type": "unocc",
				"energy": -0.03728,
				"method": "rhf"
			},
			{
				"type": "unocc",
				"energy": 0.00262,
				"method": "rhf"
			}
		],
		"cosmo_sigma_profile": { 
			"-0.025": 0.0,
			"-0.024": 0.0,
			"-0.023": 0.0,
			"-0.022": 0.0,
			"-0.021": 0.0,
			"-0.02": 0.0,
			"-0.019": 0.0,
			"-0.018": 0.0,
			"-0.017": 0.0,
			"-0.016": 0.0,
			"-0.015": 0.0,
			"-0.014": 0.0,
			"-0.013": 0.0,
			"-0.012": 0.0,
			"-0.011": 0.344538575202,
			"-0.01": 1.71235794501,
			"-0.009": 1.7143837323,
			"-0.008": 3.79661269539,
			"-0.007": 4.93780940177,
			"-0.006": 5.73282042689,
			"-0.005": 6.79616404206,
			"-0.004": 13.0698080696,
			"-0.003": 28.0635008354,
			"-0.002": 26.7593086462,
			"-0.001": 18.369593638,
			"0.0": 17.4164950232,
			"0.001": 21.369998999,
			"0.002": 32.5389525266,
			"0.003": 23.1677749903,
			"0.004": 7.00214266796,
			"0.005": 3.23775003038,
			"0.006": 4.67521956887,
			"0.007": 10.6028464503,
			"0.008": 8.73683688902,
			"0.009": 0.325928547509,
			"0.01": 0.0,
			"0.011": 0.0,
			"0.012": 0.0,
			"0.013": 0.0,
			"0.014": 0.0,
			"0.015": 0.0,
			"0.016": 0.0,
			"0.017": 0.0,
			"0.018": 0.0,
			"0.019": 0.0,
			"0.02": 0.0,
			"0.021": 0.0,
			"0.022": 0.0,
			"0.023": 0.0,
			"0.024": 0.0,
			"0.025": 0.0
		}
	}
}
