{
	 "smiles": "CC1=CC(CSCC(O)=O)=CC=C1", 
	 "Tm": 348.15, 
	 "num_atms": 25, 
	 "gaussian": { 
		 "optdone": 1, 
		 "sigma_profile": "yes", 
		 "theory": "DFT", 
		 "functional": "B3LYP", 
		 "basiset": "6-31G**", 
		 "properties": { 
			 "R2extent": 3208.0662, 
			 "electric_dipole_moment_norm": 2.98661181609, 
			 "electric_quadrupole_moment_norm": 11.5056909806, 
			 "total_energy": -936.950858448, 
			 "HOMO_LUMO_gap": 0.21957, 
			 "cosmo_polarized_energy": -13.75, 
			 "cosmo_cavitation_energy": 29.87, 
			 "cosmo_dispersion_energy": -20.83, 
			 "cosmo_repulsion_energy": 1.6, 
			 "cosmo_total_nonelectrostatic_energy": 10.65, 
			 "SMD_solvation_energy": 5.47 
		},
		"coords": [
			{
				"x": -2.3917544464,
				"y": 0.1359269161,
				"z": -1.007664885,
				"element": "C" 
			},
			{
				"x": -0.8910624496,
				"y": -0.0134831886,
				"z": -0.9423625918,
				"element": "C" 
			},
			{
				"x": -0.1979991211,
				"y": 0.343613207,
				"z": 0.223006874,
				"element": "C" 
			},
			{
				"x": 1.1817773119,
				"y": 0.1523671998,
				"z": 0.3457633917,
				"element": "C" 
			},
			{
				"x": 1.8819796251,
				"y": 0.4814293156,
				"z": 1.6370470758,
				"element": "C" 
			},
			{
				"x": 2.1087171,
				"y": -0.9498631179,
				"z": 2.8021522899,
				"element": "S" 
			},
			{
				"x": 0.3754262544,
				"y": -1.3440609912,
				"z": 3.2406342068,
				"element": "C" 
			},
			{
				"x": -0.4325235846,
				"y": -2.1855372741,
				"z": 2.2403970378,
				"element": "C" 
			},
			{
				"x": 0.2730053323,
				"y": -2.9618691342,
				"z": 1.4031253856,
				"element": "O" 
			},
			{
				"x": -1.6401069916,
				"y": -2.1908957389,
				"z": 2.261011311,
				"element": "O" 
			},
			{
				"x": 1.8935620536,
				"y": -0.3784661742,
				"z": -0.7404379354,
				"element": "C" 
			},
			{
				"x": 1.224039677,
				"y": -0.714591197,
				"z": -1.9136859598,
				"element": "C" 
			},
			{
				"x": -0.1588907476,
				"y": -0.5392198079,
				"z": -2.0115599953,
				"element": "C" 
			},
			{
				"x": -2.8739910822,
				"y": -0.5735876775,
				"z": -0.3251094463,
				"element": "H" 
			},
			{
				"x": -2.7093356396,
				"y": 1.1411291841,
				"z": -0.7093804848,
				"element": "H" 
			},
			{
				"x": -2.7709997198,
				"y": -0.0537781518,
				"z": -2.0153817174,
				"element": "H" 
			},
			{
				"x": -0.7551543927,
				"y": 0.7660048115,
				"z": 1.0568453153,
				"element": "H" 
			},
			{
				"x": 2.9063756476,
				"y": 0.8228243421,
				"z": 1.4631483076,
				"element": "H" 
			},
			{
				"x": 1.3583592557,
				"y": 1.2655135688,
				"z": 2.1911412116,
				"element": "H" 
			},
			{
				"x": -0.1896275178,
				"y": -0.4372732211,
				"z": 3.4650099909,
				"element": "H" 
			},
			{
				"x": 0.4387224652,
				"y": -1.9215250677,
				"z": 4.169644082,
				"element": "H" 
			},
			{
				"x": 1.2175786008,
				"y": -2.7260449299,
				"z": 1.4821056917,
				"element": "H" 
			},
			{
				"x": 2.9678388744,
				"y": -0.526490052,
				"z": -0.6623084273,
				"element": "H" 
			},
			{
				"x": 1.7780981174,
				"y": -1.117973332,
				"z": -2.7565705943,
				"element": "H" 
			},
			{
				"x": -0.6744346222,
				"y": -0.8174494891,
				"z": -2.9269701346,
				"element": "H" 
			}
		],
		 "valence_orbital": [ 
			{
				"type": "occ",
				"energy": -0.30873,
				"method": "rhf"
			},
			{
				"type": "occ",
				"energy": -0.27944,
				"method": "rhf"
			},
			{
				"type": "occ",
				"energy": -0.2523,
				"method": "rhf"
			},
			{
				"type": "occ",
				"energy": -0.24847,
				"method": "rhf"
			},
			{
				"type": "occ",
				"energy": -0.23856,
				"method": "rhf"
			},
			{
				"type": "unocc",
				"energy": -0.01899,
				"method": "rhf"
			},
			{
				"type": "unocc",
				"energy": -0.00995,
				"method": "rhf"
			},
			{
				"type": "unocc",
				"energy": 0.00901,
				"method": "rhf"
			},
			{
				"type": "unocc",
				"energy": 0.0334,
				"method": "rhf"
			},
			{
				"type": "unocc",
				"energy": 0.06003,
				"method": "rhf"
			}
		],
		"cosmo_sigma_profile": { 
			"-0.025": 0.0,
			"-0.024": 0.0,
			"-0.023": 0.0,
			"-0.022": 0.0,
			"-0.021": 0.0,
			"-0.02": 0.0,
			"-0.019": 0.0,
			"-0.018": 0.0,
			"-0.017": 0.0,
			"-0.016": 0.0,
			"-0.015": 0.0,
			"-0.014": 0.0,
			"-0.013": 0.0,
			"-0.012": 0.288731774471,
			"-0.011": 0.889029278881,
			"-0.01": 1.00424725116,
			"-0.009": 4.47289560045,
			"-0.008": 6.14961650512,
			"-0.007": 8.83328314441,
			"-0.006": 13.6926080561,
			"-0.005": 16.1709029861,
			"-0.004": 19.0449377318,
			"-0.003": 19.3872997646,
			"-0.002": 16.0031293205,
			"-0.001": 15.1863519482,
			"0.0": 18.5342019742,
			"0.001": 13.215699043,
			"0.002": 10.2836871226,
			"0.003": 11.8573458388,
			"0.004": 11.2997569216,
			"0.005": 12.5436067028,
			"0.006": 10.7677634131,
			"0.007": 5.05364952519,
			"0.008": 3.95135723763,
			"0.009": 4.45507413779,
			"0.01": 4.18909053842,
			"0.011": 3.69737243485,
			"0.012": 4.75493000687,
			"0.013": 1.97521822632,
			"0.014": 0.0373203662428,
			"0.015": 0.0,
			"0.016": 0.0,
			"0.017": 0.0,
			"0.018": 0.0,
			"0.019": 0.0,
			"0.02": 0.0,
			"0.021": 0.0,
			"0.022": 0.0,
			"0.023": 0.0,
			"0.024": 0.0,
			"0.025": 0.0
		}
	}
}
