{
	 "smiles": "ClC(=O)C1=NC2=C(C=CC=C2)N=C1", 
	 "Tm": 373.15, 
	 "num_atms": 18, 
	 "gaussian": { 
		 "optdone": 1, 
		 "sigma_profile": "yes", 
		 "theory": "DFT", 
		 "functional": "B3LYP", 
		 "basiset": "6-31G**", 
		 "properties": { 
			 "R2extent": 3078.7717, 
			 "electric_dipole_moment_norm": 4.66493995031, 
			 "electric_quadrupole_moment_norm": 8.31971158454, 
			 "total_energy": -990.884893215, 
			 "HOMO_LUMO_gap": 0.15746, 
			 "cosmo_polarized_energy": -9.01, 
			 "cosmo_cavitation_energy": 25.26, 
			 "cosmo_dispersion_energy": -18.99, 
			 "cosmo_repulsion_energy": 1.48, 
			 "cosmo_total_nonelectrostatic_energy": 7.75, 
			 "SMD_solvation_energy": 2.07 
		},
		"coords": [
			{
				"x": 1.0497387477,
				"y": -2.3050834667,
				"z": 3.0748847355,
				"element": "Cl" 
			},
			{
				"x": 0.699127183,
				"y": -2.1828279561,
				"z": 1.2833860451,
				"element": "C" 
			},
			{
				"x": 0.6767598431,
				"y": -3.1684969623,
				"z": 0.6207119271,
				"element": "O" 
			},
			{
				"x": 0.461411374,
				"y": -0.7821667916,
				"z": 0.7948149711,
				"element": "C" 
			},
			{
				"x": 0.2093941357,
				"y": -0.6983972362,
				"z": -0.4999313926,
				"element": "N" 
			},
			{
				"x": -0.0144615957,
				"y": 0.5385809532,
				"z": -1.0052089579,
				"element": "C" 
			},
			{
				"x": 0.0235555025,
				"y": 1.6956597904,
				"z": -0.1606836739,
				"element": "C" 
			},
			{
				"x": -0.2157005025,
				"y": 2.974634521,
				"z": -0.7234641039,
				"element": "C" 
			},
			{
				"x": -0.4807287815,
				"y": 3.0889831101,
				"z": -2.0697420449,
				"element": "C" 
			},
			{
				"x": -0.5185268007,
				"y": 1.9417345769,
				"z": -2.9079099045,
				"element": "C" 
			},
			{
				"x": -0.2906024013,
				"y": 0.6879828497,
				"z": -2.3915410525,
				"element": "C" 
			},
			{
				"x": 0.2857651843,
				"y": 1.5812280369,
				"z": 1.1710438779,
				"element": "N" 
			},
			{
				"x": 0.4997204764,
				"y": 0.3685707611,
				"z": 1.6368071253,
				"element": "C" 
			},
			{
				"x": -0.1818695005,
				"y": 3.8362653778,
				"z": -0.0651150559,
				"element": "H" 
			},
			{
				"x": -0.664446622,
				"y": 4.0673202144,
				"z": -2.5037613435,
				"element": "H" 
			},
			{
				"x": -0.7301594475,
				"y": 2.0641952278,
				"z": -3.9657196025,
				"element": "H" 
			},
			{
				"x": -0.3126105247,
				"y": -0.206492199,
				"z": -3.0050975557,
				"element": "H" 
			},
			{
				"x": 0.7092337297,
				"y": 0.2703091927,
				"z": 2.6967260058,
				"element": "H" 
			}
		],
		 "valence_orbital": [ 
			{
				"type": "occ",
				"energy": -0.32662,
				"method": "rhf"
			},
			{
				"type": "occ",
				"energy": -0.30083,
				"method": "rhf"
			},
			{
				"type": "occ",
				"energy": -0.28265,
				"method": "rhf"
			},
			{
				"type": "occ",
				"energy": -0.26834,
				"method": "rhf"
			},
			{
				"type": "occ",
				"energy": -0.26574,
				"method": "rhf"
			},
			{
				"type": "unocc",
				"energy": -0.10828,
				"method": "rhf"
			},
			{
				"type": "unocc",
				"energy": -0.06667,
				"method": "rhf"
			},
			{
				"type": "unocc",
				"energy": -0.01462,
				"method": "rhf"
			},
			{
				"type": "unocc",
				"energy": -0.00225,
				"method": "rhf"
			},
			{
				"type": "unocc",
				"energy": 0.01488,
				"method": "rhf"
			}
		],
		"cosmo_sigma_profile": { 
			"-0.025": 0.0,
			"-0.024": 0.0,
			"-0.023": 0.0,
			"-0.022": 0.0,
			"-0.021": 0.0,
			"-0.02": 0.0,
			"-0.019": 0.0,
			"-0.018": 0.0,
			"-0.017": 0.0,
			"-0.016": 0.0,
			"-0.015": 0.0,
			"-0.014": 0.0,
			"-0.013": 0.0,
			"-0.012": 0.0,
			"-0.011": 0.0,
			"-0.01": 0.0,
			"-0.009": 0.0373483328643,
			"-0.008": 2.33159943531,
			"-0.007": 10.7998047057,
			"-0.006": 13.3983908877,
			"-0.005": 15.0735441994,
			"-0.004": 13.7705873022,
			"-0.003": 13.1864135078,
			"-0.002": 13.1917502595,
			"-0.001": 15.3305388547,
			"0.0": 18.6920317206,
			"0.001": 20.8200051505,
			"0.002": 17.6432052809,
			"0.003": 10.6142460004,
			"0.004": 9.92307972441,
			"0.005": 6.41622759514,
			"0.006": 4.08229985356,
			"0.007": 4.54931715912,
			"0.008": 6.46026559058,
			"0.009": 3.20081786516,
			"0.01": 2.02376437195,
			"0.011": 1.82561469513,
			"0.012": 1.94653241857,
			"0.013": 1.33683339692,
			"0.014": 0.617652389907,
			"0.015": 0.0,
			"0.016": 0.0,
			"0.017": 0.0,
			"0.018": 0.0,
			"0.019": 0.0,
			"0.02": 0.0,
			"0.021": 0.0,
			"0.022": 0.0,
			"0.023": 0.0,
			"0.024": 0.0,
			"0.025": 0.0
		}
	}
}
