{
	 "smiles": "COC1=C(C=CC=C1)C1(C)CC1C(O)=O", 
	 "Tm": 440.15, 
	 "num_atms": 29, 
	 "gaussian": { 
		 "optdone": 1, 
		 "sigma_profile": "yes", 
		 "theory": "DFT", 
		 "functional": "B3LYP", 
		 "basiset": "6-31G**", 
		 "properties": { 
			 "R2extent": 3647.4028, 
			 "electric_dipole_moment_norm": 2.69838365323, 
			 "electric_quadrupole_moment_norm": 10.5123623206, 
			 "total_energy": -691.370019706, 
			 "HOMO_LUMO_gap": 0.21321, 
			 "cosmo_polarized_energy": -11.23, 
			 "cosmo_cavitation_energy": 31.94, 
			 "cosmo_dispersion_energy": -22.03, 
			 "cosmo_repulsion_energy": 1.73, 
			 "cosmo_total_nonelectrostatic_energy": 11.64, 
			 "SMD_solvation_energy": 7.3 
		},
		"coords": [
			{
				"x": -0.8736516881,
				"y": 3.2491754443,
				"z": -0.9376597619,
				"element": "C" 
			},
			{
				"x": -0.6964191521,
				"y": 1.8427764331,
				"z": -0.9882426646,
				"element": "O" 
			},
			{
				"x": -1.7976825382,
				"y": 1.0490779302,
				"z": -1.1508904098,
				"element": "C" 
			},
			{
				"x": -1.5536881696,
				"y": -0.3436743064,
				"z": -1.1575076705,
				"element": "C" 
			},
			{
				"x": -2.6413343854,
				"y": -1.2013202156,
				"z": -1.3296580176,
				"element": "C" 
			},
			{
				"x": -3.9440337867,
				"y": -0.7176642575,
				"z": -1.483163753,
				"element": "C" 
			},
			{
				"x": -4.1657136381,
				"y": 0.6557706188,
				"z": -1.4645719628,
				"element": "C" 
			},
			{
				"x": -3.0981187748,
				"y": 1.5428739863,
				"z": -1.2983448329,
				"element": "C" 
			},
			{
				"x": -0.1484607204,
				"y": -0.8755454076,
				"z": -1.0377916365,
				"element": "C" 
			},
			{
				"x": 0.6875924263,
				"y": -0.7206684964,
				"z": -2.3028809165,
				"element": "C" 
			},
			{
				"x": 0.0855459717,
				"y": -2.0653835966,
				"z": -0.1560320905,
				"element": "C" 
			},
			{
				"x": 0.5046961124,
				"y": -0.6977410401,
				"z": 0.3477017737,
				"element": "C" 
			},
			{
				"x": 1.9491053206,
				"y": -0.395411488,
				"z": 0.4816602629,
				"element": "C" 
			},
			{
				"x": 2.1692675798,
				"y": 0.606528412,
				"z": 1.3713935487,
				"element": "O" 
			},
			{
				"x": 2.8647256479,
				"y": -0.9471011709,
				"z": -0.1001243886,
				"element": "O" 
			},
			{
				"x": -1.520965066,
				"y": 3.5457598333,
				"z": -0.102477256,
				"element": "H" 
			},
			{
				"x": -1.2945573307,
				"y": 3.6393629715,
				"z": -1.8732833389,
				"element": "H" 
			},
			{
				"x": 0.1210351128,
				"y": 3.6713720217,
				"z": -0.7874146391,
				"element": "H" 
			},
			{
				"x": -2.458817621,
				"y": -2.2722424673,
				"z": -1.3456274085,
				"element": "H" 
			},
			{
				"x": -4.7707887619,
				"y": -1.4086946479,
				"z": -1.6151852067,
				"element": "H" 
			},
			{
				"x": -5.1709765374,
				"y": 1.0512642037,
				"z": -1.5792878298,
				"element": "H" 
			},
			{
				"x": -3.2880634781,
				"y": 2.6095109386,
				"z": -1.2865766909,
				"element": "H" 
			},
			{
				"x": 1.7059122147,
				"y": -1.0822573235,
				"z": -2.1525715291,
				"element": "H" 
			},
			{
				"x": 0.7311344525,
				"y": 0.3294046855,
				"z": -2.6054811111,
				"element": "H" 
			},
			{
				"x": 0.2267661406,
				"y": -1.2908965292,
				"z": -3.1167666476,
				"element": "H" 
			},
			{
				"x": 0.8969322793,
				"y": -2.7329437962,
				"z": -0.4297785382,
				"element": "H" 
			},
			{
				"x": -0.7543866104,
				"y": -2.535512082,
				"z": 0.3456233341,
				"element": "H" 
			},
			{
				"x": -0.1187694567,
				"y": -0.221656202,
				"z": 1.0955825032,
				"element": "H" 
			},
			{
				"x": 3.1335144571,
				"y": 0.7261355483,
				"z": 1.3951568788,
				"element": "H" 
			}
		],
		 "valence_orbital": [ 
			{
				"type": "occ",
				"energy": -0.29558,
				"method": "rhf"
			},
			{
				"type": "occ",
				"energy": -0.28137,
				"method": "rhf"
			},
			{
				"type": "occ",
				"energy": -0.26551,
				"method": "rhf"
			},
			{
				"type": "occ",
				"energy": -0.24504,
				"method": "rhf"
			},
			{
				"type": "occ",
				"energy": -0.21838,
				"method": "rhf"
			},
			{
				"type": "unocc",
				"energy": -0.00517,
				"method": "rhf"
			},
			{
				"type": "unocc",
				"energy": 0.00943,
				"method": "rhf"
			},
			{
				"type": "unocc",
				"energy": 0.01643,
				"method": "rhf"
			},
			{
				"type": "unocc",
				"energy": 0.08721,
				"method": "rhf"
			},
			{
				"type": "unocc",
				"energy": 0.09059,
				"method": "rhf"
			}
		],
		"cosmo_sigma_profile": { 
			"-0.025": 0.0,
			"-0.024": 0.0,
			"-0.023": 0.0,
			"-0.022": 0.0,
			"-0.021": 0.0,
			"-0.02": 0.0,
			"-0.019": 0.0,
			"-0.018": 0.425941546182,
			"-0.017": 0.729331615401,
			"-0.016": 0.85908377082,
			"-0.015": 0.793148400312,
			"-0.014": 0.831793391698,
			"-0.013": 0.648859251824,
			"-0.012": 0.872229735197,
			"-0.011": 0.737194716892,
			"-0.01": 0.758741210303,
			"-0.009": 0.383414614028,
			"-0.008": 0.391549681153,
			"-0.007": 0.802318251893,
			"-0.006": 8.27654125802,
			"-0.005": 21.6184148258,
			"-0.004": 20.8998349134,
			"-0.003": 24.0406710255,
			"-0.002": 19.2185249134,
			"-0.001": 20.3677347785,
			"0.0": 21.8702543628,
			"0.001": 21.8828699213,
			"0.002": 15.6855202227,
			"0.003": 11.7836415588,
			"0.004": 12.4008771987,
			"0.005": 11.4331754644,
			"0.006": 12.1659203968,
			"0.007": 5.97855079063,
			"0.008": 3.14140645075,
			"0.009": 3.14078719146,
			"0.01": 2.72750584267,
			"0.011": 2.33978425048,
			"0.012": 4.10812620021,
			"0.013": 0.841763196005,
			"0.014": 0.0,
			"0.015": 0.0,
			"0.016": 0.0,
			"0.017": 0.0,
			"0.018": 0.0,
			"0.019": 0.0,
			"0.02": 0.0,
			"0.021": 0.0,
			"0.022": 0.0,
			"0.023": 0.0,
			"0.024": 0.0,
			"0.025": 0.0
		}
	}
}
