{
	 "smiles": "OC(=O)C1=CC=CC2=CC=CC(C=O)=C12", 
	 "Tm": 437.15, 
	 "num_atms": 23, 
	 "gaussian": { 
		 "optdone": 1, 
		 "sigma_profile": "yes", 
		 "theory": "DFT", 
		 "functional": "B3LYP", 
		 "basiset": "6-31G**", 
		 "properties": { 
			 "R2extent": 3905.7194, 
			 "electric_dipole_moment_norm": 4.85835179974, 
			 "electric_quadrupole_moment_norm": 16.6246194768, 
			 "total_energy": -687.77397684, 
			 "HOMO_LUMO_gap": 0.15673, 
			 "cosmo_polarized_energy": -14.86, 
			 "cosmo_cavitation_energy": 27.4, 
			 "cosmo_dispersion_energy": -20.25, 
			 "cosmo_repulsion_energy": 1.55, 
			 "cosmo_total_nonelectrostatic_energy": 8.7, 
			 "SMD_solvation_energy": 6.23 
		},
		"coords": [
			{
				"x": -0.3081148371,
				"y": 3.7667835267,
				"z": -3.3478784011,
				"element": "O" 
			},
			{
				"x": -0.3589688138,
				"y": 3.2875889664,
				"z": -2.0789633068,
				"element": "C" 
			},
			{
				"x": -0.8559266214,
				"y": 3.9373707977,
				"z": -1.1788019811,
				"element": "O" 
			},
			{
				"x": 0.3101932514,
				"y": 1.9644258577,
				"z": -1.928994976,
				"element": "C" 
			},
			{
				"x": 1.3285122143,
				"y": 1.6699120028,
				"z": -2.8260040326,
				"element": "C" 
			},
			{
				"x": 2.2064277465,
				"y": 0.5883179381,
				"z": -2.6196458916,
				"element": "C" 
			},
			{
				"x": 2.0887300459,
				"y": -0.1652806038,
				"z": -1.4767032199,
				"element": "C" 
			},
			{
				"x": 1.0468178251,
				"y": 0.0772230823,
				"z": -0.5423943619,
				"element": "C" 
			},
			{
				"x": 0.9642136694,
				"y": -0.7069325389,
				"z": 0.6397744966,
				"element": "C" 
			},
			{
				"x": -0.0415996607,
				"y": -0.5040058478,
				"z": 1.5547721023,
				"element": "C" 
			},
			{
				"x": -1.0491647797,
				"y": 0.4368151144,
				"z": 1.2702916016,
				"element": "C" 
			},
			{
				"x": -1.0294806293,
				"y": 1.206735462,
				"z": 0.1174096023,
				"element": "C" 
			},
			{
				"x": -2.2965611114,
				"y": 1.9458995612,
				"z": -0.1740313996,
				"element": "C" 
			},
			{
				"x": -3.1230596438,
				"y": 2.2124371354,
				"z": 0.6766595432,
				"element": "O" 
			},
			{
				"x": 0.0797436729,
				"y": 1.1129667491,
				"z": -0.7900582797,
				"element": "C" 
			},
			{
				"x": -0.7001311209,
				"y": 4.6548707114,
				"z": -3.3049437882,
				"element": "H" 
			},
			{
				"x": 1.4766767734,
				"y": 2.3236874866,
				"z": -3.6771542013,
				"element": "H" 
			},
			{
				"x": 2.9960830502,
				"y": 0.389663543,
				"z": -3.3371898971,
				"element": "H" 
			},
			{
				"x": 2.7953800198,
				"y": -0.9638464547,
				"z": -1.2665598744,
				"element": "H" 
			},
			{
				"x": 1.7163648951,
				"y": -1.4740417134,
				"z": 0.8037199881,
				"element": "H" 
			},
			{
				"x": -0.090771631,
				"y": -1.095275352,
				"z": 2.4639174401,
				"element": "H" 
			},
			{
				"x": -1.9038150044,
				"y": 0.5515090351,
				"z": 1.9294849665,
				"element": "H" 
			},
			{
				"x": -2.5055493105,
				"y": 2.1445755406,
				"z": -1.2399061294,
				"element": "H" 
			}
		],
		 "valence_orbital": [ 
			{
				"type": "occ",
				"energy": -0.29864,
				"method": "rhf"
			},
			{
				"type": "occ",
				"energy": -0.28223,
				"method": "rhf"
			},
			{
				"type": "occ",
				"energy": -0.26217,
				"method": "rhf"
			},
			{
				"type": "occ",
				"energy": -0.24536,
				"method": "rhf"
			},
			{
				"type": "occ",
				"energy": -0.23497,
				"method": "rhf"
			},
			{
				"type": "unocc",
				"energy": -0.07824,
				"method": "rhf"
			},
			{
				"type": "unocc",
				"energy": -0.04604,
				"method": "rhf"
			},
			{
				"type": "unocc",
				"energy": -0.02626,
				"method": "rhf"
			},
			{
				"type": "unocc",
				"energy": 0.02586,
				"method": "rhf"
			},
			{
				"type": "unocc",
				"energy": 0.05347,
				"method": "rhf"
			}
		],
		"cosmo_sigma_profile": { 
			"-0.025": 0.0,
			"-0.024": 0.0,
			"-0.023": 0.0,
			"-0.022": 0.0,
			"-0.021": 0.0,
			"-0.02": 0.0,
			"-0.019": 0.203193840293,
			"-0.018": 0.749652932319,
			"-0.017": 0.996055856588,
			"-0.016": 0.749834888181,
			"-0.015": 0.548876872001,
			"-0.014": 0.988441080833,
			"-0.013": 0.48812827674,
			"-0.012": 0.596882933012,
			"-0.011": 0.676827052446,
			"-0.01": 0.538339605811,
			"-0.009": 0.667276958848,
			"-0.008": 3.78771027726,
			"-0.007": 11.5317177026,
			"-0.006": 14.0833111892,
			"-0.005": 15.1260918966,
			"-0.004": 12.7259608373,
			"-0.003": 11.2386432012,
			"-0.002": 12.090582494,
			"-0.001": 12.7073731737,
			"0.0": 12.8444455019,
			"0.001": 22.3457877434,
			"0.002": 24.8301674,
			"0.003": 14.4638859075,
			"0.004": 5.030757002,
			"0.005": 4.39722859843,
			"0.006": 4.11479145971,
			"0.007": 4.63245206811,
			"0.008": 5.60049555723,
			"0.009": 4.07952678265,
			"0.01": 4.84905166098,
			"0.011": 7.31294881246,
			"0.012": 4.22041643845,
			"0.013": 1.16649891098,
			"0.014": 0.0307141012269,
			"0.015": 0.0,
			"0.016": 0.0,
			"0.017": 0.0,
			"0.018": 0.0,
			"0.019": 0.0,
			"0.02": 0.0,
			"0.021": 0.0,
			"0.022": 0.0,
			"0.023": 0.0,
			"0.024": 0.0,
			"0.025": 0.0
		}
	}
}
