{
	 "smiles": "CN(C)S(=O)(=O)C1=CC(C=CC(O)=O)=CN=C1", 
	 "Tm": 516.15, 
	 "num_atms": 29, 
	 "gaussian": { 
		 "optdone": 1, 
		 "sigma_profile": "yes", 
		 "theory": "DFT", 
		 "functional": "B3LYP", 
		 "basiset": "6-31G**", 
		 "properties": { 
			 "R2extent": 5452.7994, 
			 "electric_dipole_moment_norm": 3.46082339047, 
			 "electric_quadrupole_moment_norm": 21.6603722727, 
			 "total_energy": -1196.78778454, 
			 "HOMO_LUMO_gap": 0.17213, 
			 "cosmo_polarized_energy": -20.08, 
			 "cosmo_cavitation_energy": 35.06, 
			 "cosmo_dispersion_energy": -24.3, 
			 "cosmo_repulsion_energy": 1.84, 
			 "cosmo_total_nonelectrostatic_energy": 12.6, 
			 "SMD_solvation_energy": 4.65 
		},
		"coords": [
			{
				"x": 0.3049024002,
				"y": -2.2206942664,
				"z": -0.7472590007,
				"element": "C" 
			},
			{
				"x": -1.0495292033,
				"y": -1.6644337573,
				"z": -0.6347695089,
				"element": "N" 
			},
			{
				"x": -2.0645300685,
				"y": -2.4226411951,
				"z": -1.3838416755,
				"element": "C" 
			},
			{
				"x": -1.5042746898,
				"y": -1.2886627093,
				"z": 0.9631711023,
				"element": "S" 
			},
			{
				"x": -0.9984691167,
				"y": -2.2889006761,
				"z": 1.9130514314,
				"element": "O" 
			},
			{
				"x": -2.929903266,
				"y": -0.9517732421,
				"z": 0.9154964117,
				"element": "O" 
			},
			{
				"x": -0.5764147977,
				"y": 0.2232271894,
				"z": 1.2440931489,
				"element": "C" 
			},
			{
				"x": -0.9970012973,
				"y": 1.4074585366,
				"z": 0.6450965802,
				"element": "C" 
			},
			{
				"x": -0.2812114822,
				"y": 2.580432731,
				"z": 0.9189047447,
				"element": "C" 
			},
			{
				"x": -0.6098274178,
				"y": 3.9230651421,
				"z": 0.4169884378,
				"element": "C" 
			},
			{
				"x": -1.1804778259,
				"y": 4.3746799323,
				"z": -0.7185718438,
				"element": "C" 
			},
			{
				"x": -1.6217371776,
				"y": 3.683379402,
				"z": -1.9493221912,
				"element": "C" 
			},
			{
				"x": -1.2708481096,
				"y": 2.3765185403,
				"z": -2.0451144552,
				"element": "O" 
			},
			{
				"x": -2.2256658682,
				"y": 4.2530122399,
				"z": -2.8366412992,
				"element": "O" 
			},
			{
				"x": 0.7975603056,
				"y": 2.4686215195,
				"z": 1.821817697,
				"element": "C" 
			},
			{
				"x": 1.2026913332,
				"y": 1.3361500483,
				"z": 2.3963429301,
				"element": "N" 
			},
			{
				"x": 0.5185272547,
				"y": 0.2209316485,
				"z": 2.1103741747,
				"element": "C" 
			},
			{
				"x": 1.0210059515,
				"y": -1.5704531049,
				"z": -0.2394995355,
				"element": "H" 
			},
			{
				"x": 0.3847745613,
				"y": -3.2323475798,
				"z": -0.3288837385,
				"element": "H" 
			},
			{
				"x": 0.5686394137,
				"y": -2.2466709128,
				"z": -1.8080144948,
				"element": "H" 
			},
			{
				"x": -3.0403438603,
				"y": -1.9590724354,
				"z": -1.2445130048,
				"element": "H" 
			},
			{
				"x": -1.7946533924,
				"y": -2.3776213774,
				"z": -2.4428611191,
				"element": "H" 
			},
			{
				"x": -2.1181736869,
				"y": -3.4771668155,
				"z": -1.0785250531,
				"element": "H" 
			},
			{
				"x": -1.8646656855,
				"y": 1.4139430689,
				"z": 0.0004523948,
				"element": "H" 
			},
			{
				"x": -0.3198571657,
				"y": 4.7093548565,
				"z": 1.1141102874,
				"element": "H" 
			},
			{
				"x": -1.3408214545,
				"y": 5.4447343133,
				"z": -0.804015371,
				"element": "H" 
			},
			{
				"x": -1.6081375246,
				"y": 2.0763483258,
				"z": -2.9058582526,
				"element": "H" 
			},
			{
				"x": 1.3630246525,
				"y": 3.3620454726,
				"z": 2.0853931086,
				"element": "H" 
			},
			{
				"x": 0.8309172177,
				"y": -0.6991648947,
				"z": 2.5960980942,
				"element": "H" 
			}
		],
		 "valence_orbital": [ 
			{
				"type": "occ",
				"energy": -0.30805,
				"method": "rhf"
			},
			{
				"type": "occ",
				"energy": -0.28914,
				"method": "rhf"
			},
			{
				"type": "occ",
				"energy": -0.2756,
				"method": "rhf"
			},
			{
				"type": "occ",
				"energy": -0.26774,
				"method": "rhf"
			},
			{
				"type": "occ",
				"energy": -0.25991,
				"method": "rhf"
			},
			{
				"type": "unocc",
				"energy": -0.08778,
				"method": "rhf"
			},
			{
				"type": "unocc",
				"energy": -0.05786,
				"method": "rhf"
			},
			{
				"type": "unocc",
				"energy": -0.01965,
				"method": "rhf"
			},
			{
				"type": "unocc",
				"energy": 0.05566,
				"method": "rhf"
			},
			{
				"type": "unocc",
				"energy": 0.05999,
				"method": "rhf"
			}
		],
		"cosmo_sigma_profile": { 
			"-0.025": 0.0,
			"-0.024": 0.0,
			"-0.023": 0.0,
			"-0.022": 0.0,
			"-0.021": 0.0,
			"-0.02": 0.0,
			"-0.019": 0.0425099334646,
			"-0.018": 0.769472751869,
			"-0.017": 0.968561641532,
			"-0.016": 0.790880647669,
			"-0.015": 0.688106231592,
			"-0.014": 0.933472316142,
			"-0.013": 0.354586741425,
			"-0.012": 0.439907193862,
			"-0.011": 0.828589703052,
			"-0.01": 1.02428654115,
			"-0.009": 2.79723439488,
			"-0.008": 6.72951948081,
			"-0.007": 9.95131818971,
			"-0.006": 14.9821529898,
			"-0.005": 19.2758050796,
			"-0.004": 22.0755767424,
			"-0.003": 25.5345703001,
			"-0.002": 29.4613643525,
			"-0.001": 22.3709748527,
			"0.0": 14.1698809301,
			"0.001": 12.4903174795,
			"0.002": 10.7832335456,
			"0.003": 8.23367861908,
			"0.004": 7.24820575962,
			"0.005": 8.13535358251,
			"0.006": 6.37768100171,
			"0.007": 7.15052929944,
			"0.008": 6.35683189079,
			"0.009": 6.42710244661,
			"0.01": 10.8481468511,
			"0.011": 12.0939736016,
			"0.012": 5.95216247001,
			"0.013": 1.66685453455,
			"0.014": 0.919629619888,
			"0.015": 0.392385790737,
			"0.016": 0.0,
			"0.017": 0.0,
			"0.018": 0.0,
			"0.019": 0.0,
			"0.02": 0.0,
			"0.021": 0.0,
			"0.022": 0.0,
			"0.023": 0.0,
			"0.024": 0.0,
			"0.025": 0.0
		}
	}
}
