{
	 "smiles": "CC(Cl)C(=O)NC1=C(C=CC=C1)C(F)(F)F", 
	 "Tm": 366.15, 
	 "num_atms": 25, 
	 "gaussian": { 
		 "optdone": 1, 
		 "sigma_profile": "yes", 
		 "theory": "DFT", 
		 "functional": "B3LYP", 
		 "basiset": "6-31G**", 
		 "properties": { 
			 "R2extent": 4997.8717, 
			 "electric_dipole_moment_norm": 2.98797615285, 
			 "electric_quadrupole_moment_norm": 15.3562183297, 
			 "total_energy": -1276.2007321, 
			 "HOMO_LUMO_gap": 0.21578, 
			 "cosmo_polarized_energy": -11.69, 
			 "cosmo_cavitation_energy": 31.69, 
			 "cosmo_dispersion_energy": -22.25, 
			 "cosmo_repulsion_energy": 1.69, 
			 "cosmo_total_nonelectrostatic_energy": 11.12, 
			 "SMD_solvation_energy": 6.64 
		},
		"coords": [
			{
				"x": 0.0005934915,
				"y": -0.352581841,
				"z": 2.8958373656,
				"element": "C" 
			},
			{
				"x": -0.9892694161,
				"y": 0.0161176279,
				"z": 1.7993841682,
				"element": "C" 
			},
			{
				"x": -2.6401508596,
				"y": -0.7046021586,
				"z": 2.17783937,
				"element": "Cl" 
			},
			{
				"x": -0.4538479551,
				"y": -0.3512383263,
				"z": 0.4019700735,
				"element": "C" 
			},
			{
				"x": 0.7151720508,
				"y": -0.1117596331,
				"z": 0.1488398294,
				"element": "O" 
			},
			{
				"x": -1.3439985644,
				"y": -0.8731338524,
				"z": -0.4938556898,
				"element": "N" 
			},
			{
				"x": -1.0100889944,
				"y": -1.2709266727,
				"z": -1.8166308976,
				"element": "C" 
			},
			{
				"x": -0.4956738722,
				"y": -0.3937007226,
				"z": -2.7907321448,
				"element": "C" 
			},
			{
				"x": -0.2014441011,
				"y": -0.8940706831,
				"z": -4.0657061758,
				"element": "C" 
			},
			{
				"x": -0.4375421571,
				"y": -2.224951081,
				"z": -4.3957585552,
				"element": "C" 
			},
			{
				"x": -0.9826094549,
				"y": -3.0828082353,
				"z": -3.4406241896,
				"element": "C" 
			},
			{
				"x": -1.2572706137,
				"y": -2.6061081122,
				"z": -2.1627547622,
				"element": "C" 
			},
			{
				"x": -0.2387518179,
				"y": 1.0834685333,
				"z": -2.5762537442,
				"element": "C" 
			},
			{
				"x": -0.5186920705,
				"y": 1.7723398701,
				"z": -3.712975681,
				"element": "F" 
			},
			{
				"x": 1.0477207953,
				"y": 1.3420469845,
				"z": -2.2819541971,
				"element": "F" 
			},
			{
				"x": -1.003007523,
				"y": 1.6251561786,
				"z": -1.604992328,
				"element": "F" 
			},
			{
				"x": 0.1168644964,
				"y": -1.4370952321,
				"z": 2.9682423934,
				"element": "H" 
			},
			{
				"x": 0.9691034021,
				"y": 0.0848034855,
				"z": 2.6440888202,
				"element": "H" 
			},
			{
				"x": -0.3346699164,
				"y": 0.0319449498,
				"z": 3.8610417891,
				"element": "H" 
			},
			{
				"x": -1.168631695,
				"y": 1.0944623542,
				"z": 1.7866135927,
				"element": "H" 
			},
			{
				"x": -2.2440576662,
				"y": -1.1625433092,
				"z": -0.1348141323,
				"element": "H" 
			},
			{
				"x": 0.194072693,
				"y": -0.2144036812,
				"z": -4.8119648217,
				"element": "H" 
			},
			{
				"x": -0.2067704588,
				"y": -2.5848005629,
				"z": -5.3932927976,
				"element": "H" 
			},
			{
				"x": -1.1822742223,
				"y": -4.1222021871,
				"z": -3.6827719623,
				"element": "H" 
			},
			{
				"x": -1.6554755702,
				"y": -3.2721136933,
				"z": -1.4028753229,
				"element": "H" 
			}
		],
		 "valence_orbital": [ 
			{
				"type": "occ",
				"energy": -0.31309,
				"method": "rhf"
			},
			{
				"type": "occ",
				"energy": -0.29853,
				"method": "rhf"
			},
			{
				"type": "occ",
				"energy": -0.27475,
				"method": "rhf"
			},
			{
				"type": "occ",
				"energy": -0.26361,
				"method": "rhf"
			},
			{
				"type": "occ",
				"energy": -0.25121,
				"method": "rhf"
			},
			{
				"type": "unocc",
				"energy": -0.03543,
				"method": "rhf"
			},
			{
				"type": "unocc",
				"energy": -0.02721,
				"method": "rhf"
			},
			{
				"type": "unocc",
				"energy": 0.00413,
				"method": "rhf"
			},
			{
				"type": "unocc",
				"energy": 0.0194,
				"method": "rhf"
			},
			{
				"type": "unocc",
				"energy": 0.08247,
				"method": "rhf"
			}
		],
		"cosmo_sigma_profile": { 
			"-0.025": 0.0,
			"-0.024": 0.0,
			"-0.023": 0.0,
			"-0.022": 0.0,
			"-0.021": 0.0,
			"-0.02": 0.0,
			"-0.019": 0.0,
			"-0.018": 0.0,
			"-0.017": 0.0,
			"-0.016": 0.0,
			"-0.015": 0.0,
			"-0.014": 0.0355580088179,
			"-0.013": 0.603380411154,
			"-0.012": 0.724471815819,
			"-0.011": 1.27807851846,
			"-0.01": 1.21690785512,
			"-0.009": 2.63518820732,
			"-0.008": 3.45545050419,
			"-0.007": 9.53848739576,
			"-0.006": 12.0769331977,
			"-0.005": 17.2723477389,
			"-0.004": 15.6786503386,
			"-0.003": 14.328145735,
			"-0.002": 15.5453318975,
			"-0.001": 18.2571636344,
			"0.0": 17.5870216961,
			"0.001": 17.9283938838,
			"0.002": 24.3578655676,
			"0.003": 39.5904972857,
			"0.004": 11.9326678597,
			"0.005": 9.23394086042,
			"0.006": 5.05312633494,
			"0.007": 2.65177877234,
			"0.008": 1.93115702747,
			"0.009": 2.24359107259,
			"0.01": 2.1459022752,
			"0.011": 2.74392542297,
			"0.012": 3.75224759422,
			"0.013": 1.04724297517,
			"0.014": 0.0,
			"0.015": 0.0,
			"0.016": 0.0,
			"0.017": 0.0,
			"0.018": 0.0,
			"0.019": 0.0,
			"0.02": 0.0,
			"0.021": 0.0,
			"0.022": 0.0,
			"0.023": 0.0,
			"0.024": 0.0,
			"0.025": 0.0
		}
	}
}
