{
	 "smiles": "NC1=C(C=O)C(=O)C2=C(O1)C=CC(F)=C2", 
	 "Tm": 525.15, 
	 "num_atms": 21, 
	 "gaussian": { 
		 "optdone": 1, 
		 "sigma_profile": "yes", 
		 "theory": "DFT", 
		 "functional": "B3LYP", 
		 "basiset": "6-31G**", 
		 "properties": { 
			 "R2extent": 3648.7439, 
			 "electric_dipole_moment_norm": 5.71625842488, 
			 "electric_quadrupole_moment_norm": 8.56038525769, 
			 "total_energy": -764.945509757, 
			 "HOMO_LUMO_gap": 0.1789, 
			 "cosmo_polarized_energy": -14.82, 
			 "cosmo_cavitation_energy": 26.55, 
			 "cosmo_dispersion_energy": -19.9, 
			 "cosmo_repulsion_energy": 1.49, 
			 "cosmo_total_nonelectrostatic_energy": 8.15, 
			 "SMD_solvation_energy": 6.8 
		},
		"coords": [
			{
				"x": -0.0529893217,
				"y": -2.8340864299,
				"z": 1.5052734261,
				"element": "N" 
			},
			{
				"x": -0.2190559734,
				"y": -1.9315729758,
				"z": 0.5394028598,
				"element": "C" 
			},
			{
				"x": -1.1694312167,
				"y": -2.0663903289,
				"z": -0.4791112384,
				"element": "C" 
			},
			{
				"x": -2.0274356701,
				"y": -3.2328249562,
				"z": -0.508943886,
				"element": "C" 
			},
			{
				"x": -2.0028628384,
				"y": -4.1610760276,
				"z": 0.3106305413,
				"element": "O" 
			},
			{
				"x": -1.2993130155,
				"y": -1.0417967988,
				"z": -1.5063552151,
				"element": "C" 
			},
			{
				"x": -2.1095309978,
				"y": -1.0888817552,
				"z": -2.4319766041,
				"element": "O" 
			},
			{
				"x": -0.3567829994,
				"y": 0.1032199504,
				"z": -1.3582961727,
				"element": "C" 
			},
			{
				"x": 0.5551200595,
				"y": 0.1375952768,
				"z": -0.3001550822,
				"element": "C" 
			},
			{
				"x": 0.615707911,
				"y": -0.8803843569,
				"z": 0.6402481663,
				"element": "O" 
			},
			{
				"x": 1.4507993505,
				"y": 1.1925714239,
				"z": -0.1316722874,
				"element": "C" 
			},
			{
				"x": 1.4333614547,
				"y": 2.2406242889,
				"z": -1.046155664,
				"element": "C" 
			},
			{
				"x": 0.5221378966,
				"y": 2.2077020908,
				"z": -2.1046555209,
				"element": "C" 
			},
			{
				"x": 0.5188507197,
				"y": 3.2308414885,
				"z": -2.9809631665,
				"element": "F" 
			},
			{
				"x": -0.3680445801,
				"y": 1.1621207405,
				"z": -2.2746303842,
				"element": "C" 
			},
			{
				"x": 0.6437478763,
				"y": -2.6947326416,
				"z": 2.2194896075,
				"element": "H" 
			},
			{
				"x": -0.677927415,
				"y": -3.6456275387,
				"z": 1.451438875,
				"element": "H" 
			},
			{
				"x": -2.7417088017,
				"y": -3.2476122506,
				"z": -1.348003777,
				"element": "H" 
			},
			{
				"x": 2.1431860015,
				"y": 1.1820531272,
				"z": 0.7028844526,
				"element": "H" 
			},
			{
				"x": 2.1126095846,
				"y": 3.080583804,
				"z": -0.9524858954,
				"element": "H" 
			},
			{
				"x": -1.0743380248,
				"y": 1.138573869,
				"z": -3.0967630347,
				"element": "H" 
			}
		],
		 "valence_orbital": [ 
			{
				"type": "occ",
				"energy": -0.27929,
				"method": "rhf"
			},
			{
				"type": "occ",
				"energy": -0.27043,
				"method": "rhf"
			},
			{
				"type": "occ",
				"energy": -0.25409,
				"method": "rhf"
			},
			{
				"type": "occ",
				"energy": -0.24285,
				"method": "rhf"
			},
			{
				"type": "occ",
				"energy": -0.24198,
				"method": "rhf"
			},
			{
				"type": "unocc",
				"energy": -0.06308,
				"method": "rhf"
			},
			{
				"type": "unocc",
				"energy": -0.04508,
				"method": "rhf"
			},
			{
				"type": "unocc",
				"energy": -0.01166,
				"method": "rhf"
			},
			{
				"type": "unocc",
				"energy": 0.01534,
				"method": "rhf"
			},
			{
				"type": "unocc",
				"energy": 0.07247,
				"method": "rhf"
			}
		],
		"cosmo_sigma_profile": { 
			"-0.025": 0.0,
			"-0.024": 0.0,
			"-0.023": 0.0,
			"-0.022": 0.0,
			"-0.021": 0.0,
			"-0.02": 0.0,
			"-0.019": 0.0,
			"-0.018": 0.0,
			"-0.017": 0.0850835646974,
			"-0.016": 1.16765492674,
			"-0.015": 1.28421761457,
			"-0.014": 1.2683500261,
			"-0.013": 0.938719515463,
			"-0.012": 1.01934281293,
			"-0.011": 1.41914319377,
			"-0.01": 1.91988818744,
			"-0.009": 2.23577040666,
			"-0.008": 5.67819205733,
			"-0.007": 6.32072212949,
			"-0.006": 8.21436575455,
			"-0.005": 7.89987631145,
			"-0.004": 10.6727089953,
			"-0.003": 11.3407305869,
			"-0.002": 15.063635092,
			"-0.001": 23.2879125019,
			"0.0": 27.1718505714,
			"0.001": 20.6858672662,
			"0.002": 11.7835666216,
			"0.003": 8.38572177032,
			"0.004": 13.4316815125,
			"0.005": 3.28238284059,
			"0.006": 3.04047485249,
			"0.007": 3.09519920571,
			"0.008": 2.19577988473,
			"0.009": 3.17654119976,
			"0.01": 3.29927492716,
			"0.011": 3.95697306495,
			"0.012": 4.60080247348,
			"0.013": 6.08976308787,
			"0.014": 0.536969511024,
			"0.015": 0.0,
			"0.016": 0.0,
			"0.017": 0.0,
			"0.018": 0.0,
			"0.019": 0.0,
			"0.02": 0.0,
			"0.021": 0.0,
			"0.022": 0.0,
			"0.023": 0.0,
			"0.024": 0.0,
			"0.025": 0.0
		}
	}
}
