{
	 "smiles": "ClCC(=O)NC1=NC(=C(S1)C1=C(Cl)C=CC=C1)C1=C(Cl)C=CC=C1", 
	 "Tm": 409.15, 
	 "num_atms": 35, 
	 "gaussian": { 
		 "optdone": 1, 
		 "sigma_profile": "yes", 
		 "theory": "DFT", 
		 "functional": "B3LYP", 
		 "basiset": "6-31G**", 
		 "properties": { 
			 "R2extent": 10215.9799, 
			 "electric_dipole_moment_norm": 4.1470506158, 
			 "electric_quadrupole_moment_norm": 13.3561987762, 
			 "total_energy": -2617.93365775, 
			 "HOMO_LUMO_gap": 0.17137, 
			 "cosmo_polarized_energy": -15.32, 
			 "cosmo_cavitation_energy": 46.91, 
			 "cosmo_dispersion_energy": -31.28, 
			 "cosmo_repulsion_energy": 2.38, 
			 "cosmo_total_nonelectrostatic_energy": 18.01, 
			 "SMD_solvation_energy": 6.51 
		},
		"coords": [
			{
				"x": 2.7036327224,
				"y": 2.0235526677,
				"z": -3.2193818474,
				"element": "Cl" 
			},
			{
				"x": 3.6587573194,
				"y": 1.7900546066,
				"z": -1.6938787845,
				"element": "C" 
			},
			{
				"x": 3.2299173283,
				"y": 2.8012042436,
				"z": -0.6434733095,
				"element": "C" 
			},
			{
				"x": 3.9040078053,
				"y": 3.7794266958,
				"z": -0.3776213914,
				"element": "O" 
			},
			{
				"x": 2.0190555196,
				"y": 2.6090497501,
				"z": 0.0207533001,
				"element": "N" 
			},
			{
				"x": 1.1342370461,
				"y": 1.5394333627,
				"z": 0.0067736988,
				"element": "C" 
			},
			{
				"x": 1.3770521947,
				"y": 0.3611353196,
				"z": -0.4805201315,
				"element": "N" 
			},
			{
				"x": 0.2925210264,
				"y": -0.4846336648,
				"z": -0.3271881872,
				"element": "C" 
			},
			{
				"x": -0.8102106771,
				"y": 0.0593733908,
				"z": 0.2841050694,
				"element": "C" 
			},
			{
				"x": -0.4677544846,
				"y": 1.7345917659,
				"z": 0.7030048712,
				"element": "S" 
			},
			{
				"x": -2.1370870424,
				"y": -0.5117571767,
				"z": 0.5948853041,
				"element": "C" 
			},
			{
				"x": -3.078346142,
				"y": -0.8431342709,
				"z": -0.3975088413,
				"element": "C" 
			},
			{
				"x": -2.7338783907,
				"y": -0.561770311,
				"z": -2.0962298041,
				"element": "Cl" 
			},
			{
				"x": -4.3268095937,
				"y": -1.3730027713,
				"z": -0.068063667,
				"element": "C" 
			},
			{
				"x": -4.6678770265,
				"y": -1.5617777386,
				"z": 1.2695602977,
				"element": "C" 
			},
			{
				"x": -3.7633895432,
				"y": -1.2189098002,
				"z": 2.2755756026,
				"element": "C" 
			},
			{
				"x": -2.5166570179,
				"y": -0.7024890501,
				"z": 1.9358703546,
				"element": "C" 
			},
			{
				"x": 0.4182992456,
				"y": -1.8614716898,
				"z": -0.8718276331,
				"element": "C" 
			},
			{
				"x": 0.3722813631,
				"y": -3.0280306888,
				"z": -0.0930102491,
				"element": "C" 
			},
			{
				"x": 0.2103740149,
				"y": -2.9478015139,
				"z": 1.6582017156,
				"element": "Cl" 
			},
			{
				"x": 0.5068045829,
				"y": -4.2935528216,
				"z": -0.6675005635,
				"element": "C" 
			},
			{
				"x": 0.7088953757,
				"y": -4.4107563342,
				"z": -2.0406390606,
				"element": "C" 
			},
			{
				"x": 0.7891229951,
				"y": -3.2649006521,
				"z": -2.8341246592,
				"element": "C" 
			},
			{
				"x": 0.6483476307,
				"y": -2.0097745843,
				"z": -2.2505655611,
				"element": "C" 
			},
			{
				"x": 3.4884192939,
				"y": 0.7640682435,
				"z": -1.374237048,
				"element": "H" 
			},
			{
				"x": 4.7013889161,
				"y": 1.9895814283,
				"z": -1.931242256,
				"element": "H" 
			},
			{
				"x": 1.8026760348,
				"y": 3.384785387,
				"z": 0.6347669486,
				"element": "H" 
			},
			{
				"x": -5.0243110594,
				"y": -1.6204920366,
				"z": -0.8603999727,
				"element": "H" 
			},
			{
				"x": -5.6417551911,
				"y": -1.9708181317,
				"z": 1.5209788776,
				"element": "H" 
			},
			{
				"x": -4.0239963569,
				"y": -1.3597016062,
				"z": 3.3198090983,
				"element": "H" 
			},
			{
				"x": -1.8017275146,
				"y": -0.4507093513,
				"z": 2.7125112905,
				"element": "H" 
			},
			{
				"x": 0.4664855072,
				"y": -5.1721962876,
				"z": -0.0335159225,
				"element": "H" 
			},
			{
				"x": 0.8139965262,
				"y": -5.3964076224,
				"z": -2.4840336517,
				"element": "H" 
			},
			{
				"x": 0.9589417953,
				"y": -3.3481703793,
				"z": -3.9030372695,
				"element": "H" 
			},
			{
				"x": 0.7109857963,
				"y": -1.1127983785,
				"z": -2.858096618,
				"element": "H" 
			}
		],
		 "valence_orbital": [ 
			{
				"type": "occ",
				"energy": -0.2697,
				"method": "rhf"
			},
			{
				"type": "occ",
				"energy": -0.26469,
				"method": "rhf"
			},
			{
				"type": "occ",
				"energy": -0.25419,
				"method": "rhf"
			},
			{
				"type": "occ",
				"energy": -0.24847,
				"method": "rhf"
			},
			{
				"type": "occ",
				"energy": -0.2268,
				"method": "rhf"
			},
			{
				"type": "unocc",
				"energy": -0.05543,
				"method": "rhf"
			},
			{
				"type": "unocc",
				"energy": -0.03787,
				"method": "rhf"
			},
			{
				"type": "unocc",
				"energy": -0.02347,
				"method": "rhf"
			},
			{
				"type": "unocc",
				"energy": -0.0224,
				"method": "rhf"
			},
			{
				"type": "unocc",
				"energy": -0.01348,
				"method": "rhf"
			}
		],
		"cosmo_sigma_profile": { 
			"-0.025": 0.0,
			"-0.024": 0.0,
			"-0.023": 0.0,
			"-0.022": 0.0,
			"-0.021": 0.0,
			"-0.02": 0.0,
			"-0.019": 0.0,
			"-0.018": 0.0,
			"-0.017": 0.623272008501,
			"-0.016": 1.17789091032,
			"-0.015": 1.23806676136,
			"-0.014": 1.42741831821,
			"-0.013": 0.725939579138,
			"-0.012": 1.54306621875,
			"-0.011": 0.488763066728,
			"-0.01": 0.576204988686,
			"-0.009": 1.6487229619,
			"-0.008": 3.50308687903,
			"-0.007": 13.3148031361,
			"-0.006": 21.3992553195,
			"-0.005": 22.2946057686,
			"-0.004": 19.2828520688,
			"-0.003": 18.7490106103,
			"-0.002": 22.350784616,
			"-0.001": 25.4639681832,
			"0.0": 32.0186491993,
			"0.001": 36.3188075848,
			"0.002": 39.9907708098,
			"0.003": 40.0140248618,
			"0.004": 38.7547439705,
			"0.005": 21.9616429062,
			"0.006": 5.24993857986,
			"0.007": 2.10602707703,
			"0.008": 1.58265831116,
			"0.009": 1.26699794809,
			"0.01": 2.6878931389,
			"0.011": 4.82267883146,
			"0.012": 2.77092035849,
			"0.013": 0.0798231074253,
			"0.014": 0.0,
			"0.015": 0.0,
			"0.016": 0.0,
			"0.017": 0.0,
			"0.018": 0.0,
			"0.019": 0.0,
			"0.02": 0.0,
			"0.021": 0.0,
			"0.022": 0.0,
			"0.023": 0.0,
			"0.024": 0.0,
			"0.025": 0.0
		}
	}
}
