{
	 "smiles": "CCOC(=O)CN1NC=C(C#N)C1=N", 
	 "Tm": 395.15, 
	 "num_atms": 24, 
	 "gaussian": { 
		 "optdone": 1, 
		 "sigma_profile": "yes", 
		 "theory": "DFT", 
		 "functional": "B3LYP", 
		 "basiset": "6-31G**", 
		 "properties": { 
			 "R2extent": 3805.7579, 
			 "electric_dipole_moment_norm": 6.83338159991, 
			 "electric_quadrupole_moment_norm": 25.6770419708, 
			 "total_energy": -680.272757896, 
			 "HOMO_LUMO_gap": 0.16677, 
			 "cosmo_polarized_energy": -21.41, 
			 "cosmo_cavitation_energy": 29.87, 
			 "cosmo_dispersion_energy": -20.75, 
			 "cosmo_repulsion_energy": 1.68, 
			 "cosmo_total_nonelectrostatic_energy": 10.8, 
			 "SMD_solvation_energy": 6.69 
		},
		"coords": [
			{
				"x": 1.403503141,
				"y": -1.9759921306,
				"z": -3.4692584904,
				"element": "C" 
			},
			{
				"x": 1.6118121308,
				"y": -0.5892675376,
				"z": -2.8831913117,
				"element": "C" 
			},
			{
				"x": 0.863925845,
				"y": -0.4250230177,
				"z": -1.6451368595,
				"element": "O" 
			},
			{
				"x": 1.4720995865,
				"y": -0.8598248223,
				"z": -0.5150378197,
				"element": "C" 
			},
			{
				"x": 2.5882747181,
				"y": -1.3219915242,
				"z": -0.4746136293,
				"element": "O" 
			},
			{
				"x": 0.621210141,
				"y": -0.6466917927,
				"z": 0.728443587,
				"element": "C" 
			},
			{
				"x": -0.7819964497,
				"y": -0.3934683069,
				"z": 0.4757839872,
				"element": "N" 
			},
			{
				"x": -1.1285801859,
				"y": 0.8602105806,
				"z": -0.0723787547,
				"element": "N" 
			},
			{
				"x": -2.4147810989,
				"y": 1.1250469689,
				"z": 0.3016263072,
				"element": "C" 
			},
			{
				"x": -2.8429955174,
				"y": 0.2211707804,
				"z": 1.2311728896,
				"element": "C" 
			},
			{
				"x": -4.069467068,
				"y": 0.2209681675,
				"z": 1.9348070721,
				"element": "C" 
			},
			{
				"x": -5.0717031521,
				"y": 0.1860944121,
				"z": 2.5276916911,
				"element": "N" 
			},
			{
				"x": -1.7544742388,
				"y": -0.7565522805,
				"z": 1.4367579536,
				"element": "C" 
			},
			{
				"x": -1.5633156431,
				"y": -1.727635389,
				"z": 2.2459723134,
				"element": "N" 
			},
			{
				"x": 0.3405437469,
				"y": -2.1789940563,
				"z": -3.6278216088,
				"element": "H" 
			},
			{
				"x": 1.8154155923,
				"y": -2.7401910827,
				"z": -2.8059990542,
				"element": "H" 
			},
			{
				"x": 1.9156971087,
				"y": -2.0479759456,
				"z": -4.4342924457,
				"element": "H" 
			},
			{
				"x": 2.6667691549,
				"y": -0.3967849277,
				"z": -2.6772230422,
				"element": "H" 
			},
			{
				"x": 1.2197660244,
				"y": 0.1906071651,
				"z": -3.5400819828,
				"element": "H" 
			},
			{
				"x": 1.0851427307,
				"y": 0.163611145,
				"z": 1.3103659872,
				"element": "H" 
			},
			{
				"x": 0.6614089701,
				"y": -1.5520486446,
				"z": 1.3385696013,
				"element": "H" 
			},
			{
				"x": -0.84934033,
				"y": 0.9420578468,
				"z": -1.0465380842,
				"element": "H" 
			},
			{
				"x": -2.9425005319,
				"y": 1.9652376685,
				"z": -0.1291030063,
				"element": "H" 
			},
			{
				"x": -2.3676146746,
				"y": -1.8512632765,
				"z": 2.8590846997,
				"element": "H" 
			}
		],
		 "valence_orbital": [ 
			{
				"type": "occ",
				"energy": -0.32145,
				"method": "rhf"
			},
			{
				"type": "occ",
				"energy": -0.29841,
				"method": "rhf"
			},
			{
				"type": "occ",
				"energy": -0.28074,
				"method": "rhf"
			},
			{
				"type": "occ",
				"energy": -0.26821,
				"method": "rhf"
			},
			{
				"type": "occ",
				"energy": -0.21598,
				"method": "rhf"
			},
			{
				"type": "unocc",
				"energy": -0.04921,
				"method": "rhf"
			},
			{
				"type": "unocc",
				"energy": -0.00854,
				"method": "rhf"
			},
			{
				"type": "unocc",
				"energy": 0.02154,
				"method": "rhf"
			},
			{
				"type": "unocc",
				"energy": 0.02416,
				"method": "rhf"
			},
			{
				"type": "unocc",
				"energy": 0.06511,
				"method": "rhf"
			}
		],
		"cosmo_sigma_profile": { 
			"-0.025": 0.0,
			"-0.024": 0.0,
			"-0.023": 0.0,
			"-0.022": 0.0,
			"-0.021": 0.0,
			"-0.02": 0.0,
			"-0.019": 0.0,
			"-0.018": 0.0,
			"-0.017": 0.0392721070615,
			"-0.016": 0.51803013735,
			"-0.015": 1.06169930841,
			"-0.014": 1.25907865902,
			"-0.013": 0.827895312719,
			"-0.012": 3.10510196837,
			"-0.011": 2.98387403396,
			"-0.01": 3.33634487036,
			"-0.009": 3.55544592246,
			"-0.008": 5.64143205944,
			"-0.007": 7.68927880578,
			"-0.006": 10.2128924407,
			"-0.005": 13.914368664,
			"-0.004": 20.9141331242,
			"-0.003": 19.9829759437,
			"-0.002": 17.5721114294,
			"-0.001": 18.2855770073,
			"0.0": 19.0702139112,
			"0.001": 9.26246582629,
			"0.002": 6.96935958655,
			"0.003": 6.01797287011,
			"0.004": 7.6343580654,
			"0.005": 6.5324898661,
			"0.006": 6.08907144202,
			"0.007": 6.21612732919,
			"0.008": 5.25281104634,
			"0.009": 6.92142318147,
			"0.01": 6.21568221545,
			"0.011": 8.19044594746,
			"0.012": 6.16499375748,
			"0.013": 3.2998564074,
			"0.014": 1.45939765789,
			"0.015": 1.37786497875,
			"0.016": 0.765014343061,
			"0.017": 0.196967942709,
			"0.018": 0.0,
			"0.019": 0.0,
			"0.02": 0.0,
			"0.021": 0.0,
			"0.022": 0.0,
			"0.023": 0.0,
			"0.024": 0.0,
			"0.025": 0.0
		}
	}
}
