{
	 "smiles": "CCOC1=NC=C(C=C1)S(Cl)(=O)=O", 
	 "Tm": 321.15, 
	 "num_atms": 21, 
	 "gaussian": { 
		 "optdone": 1, 
		 "sigma_profile": "yes", 
		 "theory": "DFT", 
		 "functional": "B3LYP", 
		 "basiset": "6-31G**", 
		 "properties": { 
			 "R2extent": 4577.2054, 
			 "electric_dipole_moment_norm": 5.71011899526, 
			 "electric_quadrupole_moment_norm": 13.2181074731, 
			 "total_energy": -1410.29936013, 
			 "HOMO_LUMO_gap": 0.17673, 
			 "cosmo_polarized_energy": -9.5, 
			 "cosmo_cavitation_energy": 28.93, 
			 "cosmo_dispersion_energy": -21.66, 
			 "cosmo_repulsion_energy": 1.7, 
			 "cosmo_total_nonelectrostatic_energy": 8.97, 
			 "SMD_solvation_energy": 3.58 
		},
		"coords": [
			{
				"x": 3.0485929861,
				"y": 2.2548129861,
				"z": 0.558989115,
				"element": "C" 
			},
			{
				"x": 3.0604224743,
				"y": 0.7650677258,
				"z": 0.2537900559,
				"element": "C" 
			},
			{
				"x": 2.176868613,
				"y": 0.0315579134,
				"z": 1.1390414376,
				"element": "O" 
			},
			{
				"x": 0.8752450123,
				"y": -0.0463032536,
				"z": 0.8415191463,
				"element": "C" 
			},
			{
				"x": 0.4066049284,
				"y": 0.5418466783,
				"z": -0.2618110507,
				"element": "N" 
			},
			{
				"x": -0.8989363052,
				"y": 0.433996738,
				"z": -0.5245049351,
				"element": "C" 
			},
			{
				"x": -1.7681525986,
				"y": -0.2654609001,
				"z": 0.309021597,
				"element": "C" 
			},
			{
				"x": -1.2787584713,
				"y": -0.8868592603,
				"z": 1.4702541275,
				"element": "C" 
			},
			{
				"x": 0.0684068903,
				"y": -0.7791664765,
				"z": 1.742988989,
				"element": "C" 
			},
			{
				"x": -3.4854598074,
				"y": -0.3808584803,
				"z": -0.1053394743,
				"element": "S" 
			},
			{
				"x": -4.3128055008,
				"y": 1.2551892399,
				"z": 0.9973875117,
				"element": "Cl" 
			},
			{
				"x": -4.0446602183,
				"y": -1.5859548968,
				"z": 0.494829664,
				"element": "O" 
			},
			{
				"x": -3.6668122873,
				"y": -0.0488150077,
				"z": -1.5127866809,
				"element": "O" 
			},
			{
				"x": 3.7962636782,
				"y": 2.7615330229,
				"z": -0.0601075845,
				"element": "H" 
			},
			{
				"x": 2.0708612794,
				"y": 2.689461734,
				"z": 0.3385276206,
				"element": "H" 
			},
			{
				"x": 3.2915999175,
				"y": 2.4385833997,
				"z": 1.6095172527,
				"element": "H" 
			},
			{
				"x": 2.7740253627,
				"y": 0.5680149839,
				"z": -0.7814438943,
				"element": "H" 
			},
			{
				"x": 4.0418828885,
				"y": 0.326737558,
				"z": 0.4484972706,
				"element": "H" 
			},
			{
				"x": -1.2640099683,
				"y": 0.9107177545,
				"z": -1.4299197828,
				"element": "H" 
			},
			{
				"x": -1.9460851751,
				"y": -1.4429515819,
				"z": 2.1196634754,
				"element": "H" 
			},
			{
				"x": 0.5213063017,
				"y": -1.2384498774,
				"z": 2.6134861392,
				"element": "H" 
			}
		],
		 "valence_orbital": [ 
			{
				"type": "occ",
				"energy": -0.33114,
				"method": "rhf"
			},
			{
				"type": "occ",
				"energy": -0.31927,
				"method": "rhf"
			},
			{
				"type": "occ",
				"energy": -0.31275,
				"method": "rhf"
			},
			{
				"type": "occ",
				"energy": -0.29589,
				"method": "rhf"
			},
			{
				"type": "occ",
				"energy": -0.26603,
				"method": "rhf"
			},
			{
				"type": "unocc",
				"energy": -0.0893,
				"method": "rhf"
			},
			{
				"type": "unocc",
				"energy": -0.05499,
				"method": "rhf"
			},
			{
				"type": "unocc",
				"energy": -0.03955,
				"method": "rhf"
			},
			{
				"type": "unocc",
				"energy": 0.0552,
				"method": "rhf"
			},
			{
				"type": "unocc",
				"energy": 0.07465,
				"method": "rhf"
			}
		],
		"cosmo_sigma_profile": { 
			"-0.025": 0.0,
			"-0.024": 0.0,
			"-0.023": 0.0,
			"-0.022": 0.0,
			"-0.021": 0.0,
			"-0.02": 0.0,
			"-0.019": 0.0,
			"-0.018": 0.0,
			"-0.017": 0.0,
			"-0.016": 0.0,
			"-0.015": 0.0,
			"-0.014": 0.0,
			"-0.013": 0.0,
			"-0.012": 0.0,
			"-0.011": 0.0,
			"-0.01": 0.218199374469,
			"-0.009": 2.77257926598,
			"-0.008": 5.35271741427,
			"-0.007": 5.36001459233,
			"-0.006": 8.43638490308,
			"-0.005": 10.1560159917,
			"-0.004": 17.0621007906,
			"-0.003": 19.8966431147,
			"-0.002": 24.1118524254,
			"-0.001": 24.6193529582,
			"0.0": 23.1690430936,
			"0.001": 13.5712021107,
			"0.002": 11.5209308036,
			"0.003": 15.8772562861,
			"0.004": 14.4850496603,
			"0.005": 5.59114149024,
			"0.006": 6.13321973972,
			"0.007": 7.44096610759,
			"0.008": 12.058537671,
			"0.009": 5.73053460682,
			"0.01": 0.314339002649,
			"0.011": 0.0,
			"0.012": 0.0,
			"0.013": 0.0,
			"0.014": 0.0,
			"0.015": 0.0,
			"0.016": 0.0,
			"0.017": 0.0,
			"0.018": 0.0,
			"0.019": 0.0,
			"0.02": 0.0,
			"0.021": 0.0,
			"0.022": 0.0,
			"0.023": 0.0,
			"0.024": 0.0,
			"0.025": 0.0
		}
	}
}
