{
	 "smiles": "NCCCC(N)C(O)=O", 
	 "Tm": 413.15, 
	 "num_atms": 21, 
	 "gaussian": { 
		 "optdone": 1, 
		 "sigma_profile": "yes", 
		 "theory": "DFT", 
		 "functional": "B3LYP", 
		 "basiset": "6-31G**", 
		 "properties": { 
			 "R2extent": 1770.6777, 
			 "electric_dipole_moment_norm": 5.34208923737, 
			 "electric_quadrupole_moment_norm": 16.3114416527, 
			 "total_energy": -457.727228974, 
			 "HOMO_LUMO_gap": 0.25395, 
			 "cosmo_polarized_energy": -15.89, 
			 "cosmo_cavitation_energy": 22.24, 
			 "cosmo_dispersion_energy": -16.78, 
			 "cosmo_repulsion_energy": 1.4, 
			 "cosmo_total_nonelectrostatic_energy": 6.86, 
			 "SMD_solvation_energy": 3.79 
		},
		"coords": [
			{
				"x": 0.9541989166,
				"y": -0.6152071327,
				"z": -0.8259926185,
				"element": "N" 
			},
			{
				"x": 0.3159541162,
				"y": 0.630494461,
				"z": -0.3508951918,
				"element": "C" 
			},
			{
				"x": -1.1946235987,
				"y": 0.4382368434,
				"z": -0.1892210724,
				"element": "C" 
			},
			{
				"x": -1.6261487664,
				"y": -0.8206786058,
				"z": 0.5815369802,
				"element": "C" 
			},
			{
				"x": -1.2596243102,
				"y": -0.8850114241,
				"z": 2.0768292464,
				"element": "C" 
			},
			{
				"x": -1.6773459902,
				"y": 0.3337637696,
				"z": 2.7710543217,
				"element": "N" 
			},
			{
				"x": 0.2087322589,
				"y": -1.1665518606,
				"z": 2.4740828882,
				"element": "C" 
			},
			{
				"x": 1.0217279791,
				"y": -1.7621683539,
				"z": 1.5984591512,
				"element": "O" 
			},
			{
				"x": 0.5650291772,
				"y": -0.9495206446,
				"z": 3.6155992969,
				"element": "O" 
			},
			{
				"x": 0.5578884922,
				"y": -0.9017994123,
				"z": -1.7187942491,
				"element": "H" 
			},
			{
				"x": 1.9507352736,
				"y": -0.4741726546,
				"z": -0.974571074,
				"element": "H" 
			},
			{
				"x": 0.5036525109,
				"y": 1.4829893396,
				"z": -1.0195986515,
				"element": "H" 
			},
			{
				"x": 0.769387446,
				"y": 0.8788604647,
				"z": 0.6146439542,
				"element": "H" 
			},
			{
				"x": -1.596650163,
				"y": 1.3203764922,
				"z": 0.3173700475,
				"element": "H" 
			},
			{
				"x": -1.6555701106,
				"y": 0.4011726161,
				"z": -1.186331295,
				"element": "H" 
			},
			{
				"x": -2.7208153976,
				"y": -0.8776086067,
				"z": 0.5239201873,
				"element": "H" 
			},
			{
				"x": -1.2643797467,
				"y": -1.7275976588,
				"z": 0.0835083516,
				"element": "H" 
			},
			{
				"x": -1.7658652851,
				"y": -1.7917815247,
				"z": 2.4640769141,
				"element": "H" 
			},
			{
				"x": -1.2194590413,
				"y": 0.3381268979,
				"z": 3.680292361,
				"element": "H" 
			},
			{
				"x": -2.6809416838,
				"y": 0.3189298401,
				"z": 2.9312247853,
				"element": "H" 
			},
			{
				"x": 0.8298179228,
				"y": -1.5439528457,
				"z": 0.6383056669,
				"element": "H" 
			}
		],
		 "valence_orbital": [ 
			{
				"type": "occ",
				"energy": -0.33225,
				"method": "rhf"
			},
			{
				"type": "occ",
				"energy": -0.28844,
				"method": "rhf"
			},
			{
				"type": "occ",
				"energy": -0.27565,
				"method": "rhf"
			},
			{
				"type": "occ",
				"energy": -0.25286,
				"method": "rhf"
			},
			{
				"type": "occ",
				"energy": -0.22971,
				"method": "rhf"
			},
			{
				"type": "unocc",
				"energy": 0.02424,
				"method": "rhf"
			},
			{
				"type": "unocc",
				"energy": 0.056,
				"method": "rhf"
			},
			{
				"type": "unocc",
				"energy": 0.09429,
				"method": "rhf"
			},
			{
				"type": "unocc",
				"energy": 0.11434,
				"method": "rhf"
			},
			{
				"type": "unocc",
				"energy": 0.11839,
				"method": "rhf"
			}
		],
		"cosmo_sigma_profile": { 
			"-0.025": 0.0,
			"-0.024": 0.0,
			"-0.023": 0.0,
			"-0.022": 0.0,
			"-0.021": 0.0,
			"-0.02": 0.0,
			"-0.019": 0.0,
			"-0.018": 0.0,
			"-0.017": 0.0,
			"-0.016": 0.0,
			"-0.015": 0.0,
			"-0.014": 0.0,
			"-0.013": 0.0,
			"-0.012": 0.685833663907,
			"-0.011": 2.58590329777,
			"-0.01": 3.96849025754,
			"-0.009": 4.74229035516,
			"-0.008": 4.81371285914,
			"-0.007": 4.74678647361,
			"-0.006": 5.86957446925,
			"-0.005": 8.51337650564,
			"-0.004": 15.5539275726,
			"-0.003": 19.9869934364,
			"-0.002": 16.7573670676,
			"-0.001": 15.4127408823,
			"0.0": 10.8582197693,
			"0.001": 6.62502755743,
			"0.002": 4.1119987659,
			"0.003": 3.82194931228,
			"0.004": 3.21650705098,
			"0.005": 3.09335544274,
			"0.006": 2.67962644115,
			"0.007": 3.11664423282,
			"0.008": 3.70026636341,
			"0.009": 2.73981790313,
			"0.01": 3.77683626814,
			"0.011": 4.27827062276,
			"0.012": 6.0642801661,
			"0.013": 5.53228822045,
			"0.014": 2.91164201901,
			"0.015": 0.880303585465,
			"0.016": 0.385612688149,
			"0.017": 0.195825643851,
			"0.018": 0.0,
			"0.019": 0.0,
			"0.02": 0.0,
			"0.021": 0.0,
			"0.022": 0.0,
			"0.023": 0.0,
			"0.024": 0.0,
			"0.025": 0.0
		}
	}
}
