{
	 "smiles": "NCC1=CC(NC(=O)C2=NC=CC=C2)=CC=C1", 
	 "Tm": 348.15, 
	 "num_atms": 30, 
	 "gaussian": { 
		 "optdone": 1, 
		 "sigma_profile": "yes", 
		 "theory": "DFT", 
		 "functional": "B3LYP", 
		 "basiset": "6-31G**", 
		 "properties": { 
			 "R2extent": 4846.9033, 
			 "electric_dipole_moment_norm": 1.88648532727, 
			 "electric_quadrupole_moment_norm": 17.8452949275, 
			 "total_energy": -742.699318433, 
			 "HOMO_LUMO_gap": 0.16753, 
			 "cosmo_polarized_energy": -17.05, 
			 "cosmo_cavitation_energy": 34.65, 
			 "cosmo_dispersion_energy": -23.57, 
			 "cosmo_repulsion_energy": 1.84, 
			 "cosmo_total_nonelectrostatic_energy": 12.93, 
			 "SMD_solvation_energy": 4.18 
		},
		"coords": [
			{
				"x": -1.6932035646,
				"y": 2.6598799712,
				"z": 3.1051035697,
				"element": "N" 
			},
			{
				"x": -2.3608648971,
				"y": 2.938600094,
				"z": 1.8218245013,
				"element": "C" 
			},
			{
				"x": -2.2542245498,
				"y": 1.8300217843,
				"z": 0.7885715657,
				"element": "C" 
			},
			{
				"x": -1.1292834731,
				"y": 1.7517198731,
				"z": -0.0383708271,
				"element": "C" 
			},
			{
				"x": -0.9631258863,
				"y": 0.6844672937,
				"z": -0.9276139434,
				"element": "C" 
			},
			{
				"x": 0.1521556042,
				"y": 0.598498193,
				"z": -1.7989906793,
				"element": "N" 
			},
			{
				"x": 1.4678192566,
				"y": 0.9752961746,
				"z": -1.6524877097,
				"element": "C" 
			},
			{
				"x": 2.1820419664,
				"y": 1.1239780568,
				"z": -2.6400351348,
				"element": "O" 
			},
			{
				"x": 2.0593556377,
				"y": 1.1346361274,
				"z": -0.2725879655,
				"element": "C" 
			},
			{
				"x": 1.5419106536,
				"y": 0.4291649645,
				"z": 0.7429237723,
				"element": "N" 
			},
			{
				"x": 2.1395876228,
				"y": 0.5298806093,
				"z": 1.9343922079,
				"element": "C" 
			},
			{
				"x": 3.2541311111,
				"y": 1.3378037434,
				"z": 2.1732075409,
				"element": "C" 
			},
			{
				"x": 3.7872094606,
				"y": 2.064362792,
				"z": 1.1084699406,
				"element": "C" 
			},
			{
				"x": 3.1878410218,
				"y": 1.9532119922,
				"z": -0.1434998009,
				"element": "C" 
			},
			{
				"x": -1.9633836534,
				"y": -0.2903224584,
				"z": -1.028982552,
				"element": "C" 
			},
			{
				"x": -3.1041821259,
				"y": -0.1989535589,
				"z": -0.2336218499,
				"element": "C" 
			},
			{
				"x": -3.2473712463,
				"y": 0.8474709695,
				"z": 0.6776697284,
				"element": "C" 
			},
			{
				"x": -2.0831942426,
				"y": 1.8061186396,
				"z": 3.5009608165,
				"element": "H" 
			},
			{
				"x": -0.7122821892,
				"y": 2.4495918326,
				"z": 2.9273152914,
				"element": "H" 
			},
			{
				"x": -1.9308285107,
				"y": 3.8631281622,
				"z": 1.419466964,
				"element": "H" 
			},
			{
				"x": -3.4153475311,
				"y": 3.1479023471,
				"z": 2.0336791038,
				"element": "H" 
			},
			{
				"x": -0.3753923093,
				"y": 2.5321529378,
				"z": 0.0069375225,
				"element": "H" 
			},
			{
				"x": -0.0521543007,
				"y": 0.3723200232,
				"z": -2.7652660123,
				"element": "H" 
			},
			{
				"x": 1.7088717329,
				"y": -0.0659467437,
				"z": 2.7373853298,
				"element": "H" 
			},
			{
				"x": 3.6915482225,
				"y": 1.387303792,
				"z": 3.1654181605,
				"element": "H" 
			},
			{
				"x": 4.6571486294,
				"y": 2.6990294319,
				"z": 1.2495866983,
				"element": "H" 
			},
			{
				"x": 3.5703076606,
				"y": 2.4673258583,
				"z": -1.0173923246,
				"element": "H" 
			},
			{
				"x": -1.8373072866,
				"y": -1.1166315112,
				"z": -1.7227535112,
				"element": "H" 
			},
			{
				"x": -3.8806200419,
				"y": -0.9535158712,
				"z": -0.3222012089,
				"element": "H" 
			},
			{
				"x": -4.1374627715,
				"y": 0.9097044796,
				"z": 1.299090806,
				"element": "H" 
			}
		],
		 "valence_orbital": [ 
			{
				"type": "occ",
				"energy": -0.27017,
				"method": "rhf"
			},
			{
				"type": "occ",
				"energy": -0.25684,
				"method": "rhf"
			},
			{
				"type": "occ",
				"energy": -0.2492,
				"method": "rhf"
			},
			{
				"type": "occ",
				"energy": -0.23331,
				"method": "rhf"
			},
			{
				"type": "occ",
				"energy": -0.22203,
				"method": "rhf"
			},
			{
				"type": "unocc",
				"energy": -0.0545,
				"method": "rhf"
			},
			{
				"type": "unocc",
				"energy": -0.03103,
				"method": "rhf"
			},
			{
				"type": "unocc",
				"energy": -0.00541,
				"method": "rhf"
			},
			{
				"type": "unocc",
				"energy": -0.00238,
				"method": "rhf"
			},
			{
				"type": "unocc",
				"energy": 0.05164,
				"method": "rhf"
			}
		],
		"cosmo_sigma_profile": { 
			"-0.025": 0.0,
			"-0.024": 0.0,
			"-0.023": 0.0,
			"-0.022": 0.0,
			"-0.021": 0.0,
			"-0.02": 0.0,
			"-0.019": 0.0,
			"-0.018": 0.0,
			"-0.017": 0.0,
			"-0.016": 0.0,
			"-0.015": 0.0627211054176,
			"-0.014": 0.755004652448,
			"-0.013": 1.13449316984,
			"-0.012": 0.725711228137,
			"-0.011": 1.56260068485,
			"-0.01": 0.874931310465,
			"-0.009": 1.97511576144,
			"-0.008": 3.1440114702,
			"-0.007": 10.6534431292,
			"-0.006": 21.5739045943,
			"-0.005": 22.4041090408,
			"-0.004": 23.9212406348,
			"-0.003": 19.1997053109,
			"-0.002": 18.0379253722,
			"-0.001": 18.8524408102,
			"0.0": 18.5094590053,
			"0.001": 18.9564731778,
			"0.002": 18.5948230755,
			"0.003": 11.7179257705,
			"0.004": 10.030402624,
			"0.005": 10.9591368613,
			"0.006": 6.41069065067,
			"0.007": 4.64852200213,
			"0.008": 3.20474072136,
			"0.009": 3.86587461437,
			"0.01": 3.19369807005,
			"0.011": 2.53933245579,
			"0.012": 5.39185634687,
			"0.013": 7.34522948444,
			"0.014": 2.03362612795,
			"0.015": 0.643340870127,
			"0.016": 0.352067763789,
			"0.017": 0.677771177551,
			"0.018": 0.675653677007,
			"0.019": 0.692979495158,
			"0.02": 0.319499729317,
			"0.021": 0.0,
			"0.022": 0.0,
			"0.023": 0.0,
			"0.024": 0.0,
			"0.025": 0.0
		}
	}
}
