{
	 "smiles": "NC1=NN=C(O1)C1CC1", 
	 "Tm": 444.15, 
	 "num_atms": 16, 
	 "gaussian": { 
		 "optdone": 1, 
		 "sigma_profile": "yes", 
		 "theory": "DFT", 
		 "functional": "B3LYP", 
		 "basiset": "6-31G**", 
		 "properties": { 
			 "R2extent": 2607.0344, 
			 "electric_dipole_moment_norm": 3.73187755158, 
			 "electric_quadrupole_moment_norm": 15.7977214718, 
			 "total_energy": -434.1700082, 
			 "HOMO_LUMO_gap": 0.23425, 
			 "cosmo_polarized_energy": -15.04, 
			 "cosmo_cavitation_energy": 20.41, 
			 "cosmo_dispersion_energy": -15.37, 
			 "cosmo_repulsion_energy": 1.29, 
			 "cosmo_total_nonelectrostatic_energy": 6.33, 
			 "SMD_solvation_energy": 1.79 
		},
		"coords": [
			{
				"x": -3.5614624693,
				"y": 2.7243143425,
				"z": 1.3794108782,
				"element": "N" 
			},
			{
				"x": -2.8296844845,
				"y": 1.729751973,
				"z": 0.7822731357,
				"element": "C" 
			},
			{
				"x": -1.7243599805,
				"y": 1.828175613,
				"z": 0.1098337004,
				"element": "N" 
			},
			{
				"x": -1.3442165142,
				"y": 0.5044978528,
				"z": -0.1753518191,
				"element": "N" 
			},
			{
				"x": -2.2527390801,
				"y": -0.2666834473,
				"z": 0.3211363788,
				"element": "C" 
			},
			{
				"x": -3.2472725341,
				"y": 0.4473056709,
				"z": 0.9616110221,
				"element": "O" 
			},
			{
				"x": -2.3832406747,
				"y": -1.7280233912,
				"z": 0.2566216974,
				"element": "C" 
			},
			{
				"x": -1.1836529695,
				"y": -2.54591284,
				"z": -0.1691536377,
				"element": "C" 
			},
			{
				"x": -2.3514087098,
				"y": -2.4225799307,
				"z": -1.1007429472,
				"element": "C" 
			},
			{
				"x": -4.5612768245,
				"y": 2.5731250292,
				"z": 1.3904825975,
				"element": "H" 
			},
			{
				"x": -3.294628134,
				"y": 3.6454590547,
				"z": 1.0592267705,
				"element": "H" 
			},
			{
				"x": -3.0445159351,
				"y": -2.1452255075,
				"z": 1.0093312616,
				"element": "H" 
			},
			{
				"x": -1.0202323639,
				"y": -3.4894530149,
				"z": 0.3417257065,
				"element": "H" 
			},
			{
				"x": -0.284962621,
				"y": -1.9873875218,
				"z": -0.40834465,
				"element": "H" 
			},
			{
				"x": -3.0072736765,
				"y": -3.2771543216,
				"z": -1.2366439325,
				"element": "H" 
			},
			{
				"x": -2.2394730285,
				"y": -1.7843095613,
				"z": -1.9710161621,
				"element": "H" 
			}
		],
		 "valence_orbital": [ 
			{
				"type": "occ",
				"energy": -0.31289,
				"method": "rhf"
			},
			{
				"type": "occ",
				"energy": -0.3074,
				"method": "rhf"
			},
			{
				"type": "occ",
				"energy": -0.30551,
				"method": "rhf"
			},
			{
				"type": "occ",
				"energy": -0.26416,
				"method": "rhf"
			},
			{
				"type": "occ",
				"energy": -0.22202,
				"method": "rhf"
			},
			{
				"type": "unocc",
				"energy": 0.01223,
				"method": "rhf"
			},
			{
				"type": "unocc",
				"energy": 0.05265,
				"method": "rhf"
			},
			{
				"type": "unocc",
				"energy": 0.07018,
				"method": "rhf"
			},
			{
				"type": "unocc",
				"energy": 0.09004,
				"method": "rhf"
			},
			{
				"type": "unocc",
				"energy": 0.11509,
				"method": "rhf"
			}
		],
		"cosmo_sigma_profile": { 
			"-0.025": 0.0,
			"-0.024": 0.0,
			"-0.023": 0.0,
			"-0.022": 0.0,
			"-0.021": 0.0,
			"-0.02": 0.0,
			"-0.019": 0.0,
			"-0.018": 0.0,
			"-0.017": 0.0,
			"-0.016": 0.0325011360795,
			"-0.015": 1.62936688888,
			"-0.014": 2.23900840567,
			"-0.013": 2.25618338286,
			"-0.012": 3.49141567207,
			"-0.011": 1.91817830725,
			"-0.01": 2.21430085294,
			"-0.009": 1.36579513025,
			"-0.008": 2.59848463721,
			"-0.007": 2.77235141095,
			"-0.006": 6.36771490591,
			"-0.005": 11.1018179295,
			"-0.004": 10.5573016452,
			"-0.003": 10.4865690231,
			"-0.002": 11.8647771084,
			"-0.001": 11.7664041908,
			"0.0": 11.4321116173,
			"0.001": 10.7037696212,
			"0.002": 9.07781222587,
			"0.003": 7.61576935976,
			"0.004": 6.78424309196,
			"0.005": 3.49865942013,
			"0.006": 3.63504877496,
			"0.007": 2.66101363054,
			"0.008": 2.50014766147,
			"0.009": 2.4155318351,
			"0.01": 2.88575302433,
			"0.011": 2.86775769577,
			"0.012": 2.57837212012,
			"0.013": 3.74849440483,
			"0.014": 3.0994533098,
			"0.015": 2.45497134515,
			"0.016": 1.2358209061,
			"0.017": 0.281683697517,
			"0.018": 0.0,
			"0.019": 0.0,
			"0.02": 0.0,
			"0.021": 0.0,
			"0.022": 0.0,
			"0.023": 0.0,
			"0.024": 0.0,
			"0.025": 0.0
		}
	}
}
