{
	 "smiles": "CCCC1=CC=C(C=C1)[N+]([O-])=O", 
	 "Tm": 259.15, 
	 "num_atms": 23, 
	 "gaussian": { 
		 "optdone": 1, 
		 "sigma_profile": "yes", 
		 "theory": "DFT", 
		 "functional": "B3LYP", 
		 "basiset": "6-31G**", 
		 "properties": { 
			 "R2extent": 3648.9173, 
			 "electric_dipole_moment_norm": 5.24227081521, 
			 "electric_quadrupole_moment_norm": 19.5965283076, 
			 "total_energy": -554.701604211, 
			 "HOMO_LUMO_gap": 0.18441, 
			 "cosmo_polarized_energy": -7.87, 
			 "cosmo_cavitation_energy": 26.89, 
			 "cosmo_dispersion_energy": -19.25, 
			 "cosmo_repulsion_energy": 1.55, 
			 "cosmo_total_nonelectrostatic_energy": 9.19, 
			 "SMD_solvation_energy": 6.7 
		},
		"coords": [
			{
				"x": 0.1035179083,
				"y": -1.6278847137,
				"z": 1.8218770493,
				"element": "C" 
			},
			{
				"x": 1.2805355702,
				"y": -0.6641357483,
				"z": 1.9963575274,
				"element": "C" 
			},
			{
				"x": 1.7012547055,
				"y": 0.0584626475,
				"z": 0.6956200575,
				"element": "C" 
			},
			{
				"x": 0.6512395143,
				"y": 1.0035190924,
				"z": 0.1538111984,
				"element": "C" 
			},
			{
				"x": 0.4464213851,
				"y": 2.2567944875,
				"z": 0.7555959011,
				"element": "C" 
			},
			{
				"x": -0.5263349745,
				"y": 3.1331457309,
				"z": 0.2871981102,
				"element": "C" 
			},
			{
				"x": -1.305352225,
				"y": 2.7457991384,
				"z": -0.8026566629,
				"element": "C" 
			},
			{
				"x": -1.1311048991,
				"y": 1.5134979698,
				"z": -1.4278894867,
				"element": "C" 
			},
			{
				"x": -0.1509355081,
				"y": 0.6515582154,
				"z": -0.9424098479,
				"element": "C" 
			},
			{
				"x": -2.334451303,
				"y": 3.6647132957,
				"z": -1.3079312006,
				"element": "N" 
			},
			{
				"x": -3.0060672238,
				"y": 3.2974684066,
				"z": -2.2722840663,
				"element": "O" 
			},
			{
				"x": -2.4648510588,
				"y": 4.7474886374,
				"z": -0.7364021165,
				"element": "O" 
			},
			{
				"x": 0.3386546887,
				"y": -2.4111419366,
				"z": 1.0918550336,
				"element": "H" 
			},
			{
				"x": -0.1424548756,
				"y": -2.1200644272,
				"z": 2.7680339613,
				"element": "H" 
			},
			{
				"x": -0.7946258042,
				"y": -1.1078016713,
				"z": 1.4739679108,
				"element": "H" 
			},
			{
				"x": 2.1509351373,
				"y": -1.2132986523,
				"z": 2.3758873708,
				"element": "H" 
			},
			{
				"x": 1.0341537674,
				"y": 0.086112979,
				"z": 2.7584416673,
				"element": "H" 
			},
			{
				"x": 2.6215576129,
				"y": 0.6224078946,
				"z": 0.8908392093,
				"element": "H" 
			},
			{
				"x": 1.9477138932,
				"y": -0.6899784288,
				"z": -0.0669904898,
				"element": "H" 
			},
			{
				"x": 1.063533143,
				"y": 2.5511700281,
				"z": 1.6002988835,
				"element": "H" 
			},
			{
				"x": -0.6900653799,
				"y": 4.102838407,
				"z": 0.7404103869,
				"element": "H" 
			},
			{
				"x": -1.7544950087,
				"y": 1.2526261068,
				"z": -2.2739760523,
				"element": "H" 
			},
			{
				"x": -0.0026790652,
				"y": -0.3101974588,
				"z": -1.4251543442,
				"element": "H" 
			}
		],
		 "valence_orbital": [ 
			{
				"type": "occ",
				"energy": -0.3055,
				"method": "rhf"
			},
			{
				"type": "occ",
				"energy": -0.30297,
				"method": "rhf"
			},
			{
				"type": "occ",
				"energy": -0.28639,
				"method": "rhf"
			},
			{
				"type": "occ",
				"energy": -0.27506,
				"method": "rhf"
			},
			{
				"type": "occ",
				"energy": -0.26923,
				"method": "rhf"
			},
			{
				"type": "unocc",
				"energy": -0.08482,
				"method": "rhf"
			},
			{
				"type": "unocc",
				"energy": -0.02539,
				"method": "rhf"
			},
			{
				"type": "unocc",
				"energy": 0.00339,
				"method": "rhf"
			},
			{
				"type": "unocc",
				"energy": 0.07495,
				"method": "rhf"
			},
			{
				"type": "unocc",
				"energy": 0.09792,
				"method": "rhf"
			}
		],
		"cosmo_sigma_profile": { 
			"-0.025": 0.0,
			"-0.024": 0.0,
			"-0.023": 0.0,
			"-0.022": 0.0,
			"-0.021": 0.0,
			"-0.02": 0.0,
			"-0.019": 0.0,
			"-0.018": 0.0,
			"-0.017": 0.0,
			"-0.016": 0.0,
			"-0.015": 0.0,
			"-0.014": 0.0,
			"-0.013": 0.0,
			"-0.012": 0.0,
			"-0.011": 0.0,
			"-0.01": 0.0,
			"-0.009": 0.0,
			"-0.008": 0.223073188332,
			"-0.007": 3.52898773,
			"-0.006": 9.08043083348,
			"-0.005": 11.1214342181,
			"-0.004": 13.9415718253,
			"-0.003": 18.9270847962,
			"-0.002": 22.4302427489,
			"-0.001": 27.1134637964,
			"0.0": 27.2152026534,
			"0.001": 22.145790171,
			"0.002": 17.2957366913,
			"0.003": 6.72353430816,
			"0.004": 2.63996122891,
			"0.005": 2.30446235424,
			"0.006": 3.54925785691,
			"0.007": 6.17404173253,
			"0.008": 9.6726886104,
			"0.009": 4.37531651515,
			"0.01": 3.60337985275,
			"0.011": 0.519462230477,
			"0.012": 0.0,
			"0.013": 0.0,
			"0.014": 0.0,
			"0.015": 0.0,
			"0.016": 0.0,
			"0.017": 0.0,
			"0.018": 0.0,
			"0.019": 0.0,
			"0.02": 0.0,
			"0.021": 0.0,
			"0.022": 0.0,
			"0.023": 0.0,
			"0.024": 0.0,
			"0.025": 0.0
		}
	}
}
