{
	 "smiles": "OCCNC(=O)C1=CC(Br)=CN=C1", 
	 "Tm": 402.15, 
	 "num_atms": 22, 
	 "gaussian": { 
		 "optdone": 1, 
		 "sigma_profile": "yes", 
		 "theory": "DFT", 
		 "functional": "B3LYP", 
		 "basiset": "6-31G**", 
		 "properties": { 
			 "R2extent": 5873.9848, 
			 "electric_dipole_moment_norm": 2.88966031741, 
			 "electric_quadrupole_moment_norm": 3.81108258504, 
			 "total_energy": -3141.61780023, 
			 "HOMO_LUMO_gap": 0.19597, 
			 "cosmo_polarized_energy": -17.61, 
			 "cosmo_cavitation_energy": 29.31, 
			 "cosmo_dispersion_energy": -20.97, 
			 "cosmo_repulsion_energy": 1.72, 
			 "cosmo_total_nonelectrostatic_energy": 10.06, 
			 "SMD_solvation_energy": 2.48 
		},
		"coords": [
			{
				"x": 2.8172563262,
				"y": -2.6449814606,
				"z": 3.4019577886,
				"element": "O" 
			},
			{
				"x": 2.199419657,
				"y": -1.4436475331,
				"z": 2.9752492993,
				"element": "C" 
			},
			{
				"x": 2.6862817674,
				"y": -1.0205128585,
				"z": 1.5792041109,
				"element": "C" 
			},
			{
				"x": 2.1546241696,
				"y": 0.2737651409,
				"z": 1.1591785477,
				"element": "N" 
			},
			{
				"x": 0.9356981766,
				"y": 0.5292608428,
				"z": 0.5698218785,
				"element": "C" 
			},
			{
				"x": 0.3605357733,
				"y": 1.5999102486,
				"z": 0.7245317537,
				"element": "O" 
			},
			{
				"x": 0.3450068467,
				"y": -0.5211540073,
				"z": -0.3311651085,
				"element": "C" 
			},
			{
				"x": 1.0907042607,
				"y": -1.2297181708,
				"z": -1.2793221672,
				"element": "C" 
			},
			{
				"x": 0.4161333016,
				"y": -2.1118812763,
				"z": -2.1178074726,
				"element": "C" 
			},
			{
				"x": 1.3644750379,
				"y": -3.1006055906,
				"z": -3.4434340451,
				"element": "Br" 
			},
			{
				"x": -0.9651828573,
				"y": -2.2694648412,
				"z": -1.9895400607,
				"element": "C" 
			},
			{
				"x": -1.6829414179,
				"y": -1.5855004434,
				"z": -1.0924643543,
				"element": "N" 
			},
			{
				"x": -1.0417740548,
				"y": -0.7242534221,
				"z": -0.2979880924,
				"element": "C" 
			},
			{
				"x": 2.4481715717,
				"y": -3.3746509822,
				"z": 2.8879673077,
				"element": "H" 
			},
			{
				"x": 1.1006238365,
				"y": -1.5148334236,
				"z": 2.9771881101,
				"element": "H" 
			},
			{
				"x": 2.4749797805,
				"y": -0.6791403581,
				"z": 3.7099896719,
				"element": "H" 
			},
			{
				"x": 3.7801024345,
				"y": -0.9730267189,
				"z": 1.5831587188,
				"element": "H" 
			},
			{
				"x": 2.4008565419,
				"y": -1.7814171071,
				"z": 0.8494156399,
				"element": "H" 
			},
			{
				"x": 2.4486235292,
				"y": 1.0667347713,
				"z": 1.7200102075,
				"element": "H" 
			},
			{
				"x": 2.1600481633,
				"y": -1.0800875017,
				"z": -1.3792952342,
				"element": "H" 
			},
			{
				"x": -1.5025132544,
				"y": -2.9601906826,
				"z": -2.6341751524,
				"element": "H" 
			},
			{
				"x": -1.6467295902,
				"y": -0.1576046258,
				"z": 0.4049186528,
				"element": "H" 
			}
		],
		 "valence_orbital": [ 
			{
				"type": "occ",
				"energy": -0.30218,
				"method": "rhf"
			},
			{
				"type": "occ",
				"energy": -0.28056,
				"method": "rhf"
			},
			{
				"type": "occ",
				"energy": -0.26818,
				"method": "rhf"
			},
			{
				"type": "occ",
				"energy": -0.26273,
				"method": "rhf"
			},
			{
				"type": "occ",
				"energy": -0.25539,
				"method": "rhf"
			},
			{
				"type": "unocc",
				"energy": -0.05942,
				"method": "rhf"
			},
			{
				"type": "unocc",
				"energy": -0.04333,
				"method": "rhf"
			},
			{
				"type": "unocc",
				"energy": -0.00917,
				"method": "rhf"
			},
			{
				"type": "unocc",
				"energy": 0.02538,
				"method": "rhf"
			},
			{
				"type": "unocc",
				"energy": 0.05573,
				"method": "rhf"
			}
		],
		"cosmo_sigma_profile": { 
			"-0.025": 0.0,
			"-0.024": 0.0,
			"-0.023": 0.0,
			"-0.022": 0.0,
			"-0.021": 0.0,
			"-0.02": 0.0,
			"-0.019": 0.0,
			"-0.018": 0.0,
			"-0.017": 0.0,
			"-0.016": 0.630706965544,
			"-0.015": 1.15542319215,
			"-0.014": 1.65604147019,
			"-0.013": 2.04238288975,
			"-0.012": 2.35586123951,
			"-0.011": 1.93405529175,
			"-0.01": 2.47992134593,
			"-0.009": 2.36138537732,
			"-0.008": 5.33463173709,
			"-0.007": 8.0959916615,
			"-0.006": 11.0323228957,
			"-0.005": 15.8026870534,
			"-0.004": 17.1395063685,
			"-0.003": 14.6272811831,
			"-0.002": 16.2915449163,
			"-0.001": 19.2904275409,
			"0.0": 17.6315900261,
			"0.001": 12.6628432068,
			"0.002": 12.2682962742,
			"0.003": 12.7029237557,
			"0.004": 13.4550842141,
			"0.005": 4.44420443053,
			"0.006": 4.69602360711,
			"0.007": 3.89475826523,
			"0.008": 2.97916163023,
			"0.009": 3.03434496287,
			"0.01": 3.8154274024,
			"0.011": 3.6995358478,
			"0.012": 5.62542356626,
			"0.013": 8.1682886791,
			"0.014": 4.01442409166,
			"0.015": 0.76011121992,
			"0.016": 0.0350469922021,
			"0.017": 0.0,
			"0.018": 0.0,
			"0.019": 0.0,
			"0.02": 0.0,
			"0.021": 0.0,
			"0.022": 0.0,
			"0.023": 0.0,
			"0.024": 0.0,
			"0.025": 0.0
		}
	}
}
