{
	 "smiles": "OC(=O)C1=CC(=NC=C1)N1CCCCC1", 
	 "Tm": 441.15, 
	 "num_atms": 29, 
	 "gaussian": { 
		 "optdone": 1, 
		 "sigma_profile": "yes", 
		 "theory": "DFT", 
		 "functional": "B3LYP", 
		 "basiset": "6-31G**", 
		 "properties": { 
			 "R2extent": 5025.6307, 
			 "electric_dipole_moment_norm": 5.7612632521, 
			 "electric_quadrupole_moment_norm": 21.1006563277, 
			 "total_energy": -687.569681543, 
			 "HOMO_LUMO_gap": 0.15337, 
			 "cosmo_polarized_energy": -14.88, 
			 "cosmo_cavitation_energy": 31.01, 
			 "cosmo_dispersion_energy": -23.02, 
			 "cosmo_repulsion_energy": 1.8, 
			 "cosmo_total_nonelectrostatic_energy": 9.79, 
			 "SMD_solvation_energy": 4.33 
		},
		"coords": [
			{
				"x": 3.3529876358,
				"y": -0.2097748109,
				"z": -3.4786326668,
				"element": "O" 
			},
			{
				"x": 2.970969594,
				"y": -1.5149573018,
				"z": -3.4642091062,
				"element": "C" 
			},
			{
				"x": 3.6614794979,
				"y": -2.3584681472,
				"z": -3.9825424943,
				"element": "O" 
			},
			{
				"x": 1.6665207137,
				"y": -1.8186306518,
				"z": -2.7805228298,
				"element": "C" 
			},
			{
				"x": 1.1566965734,
				"y": -1.0054840007,
				"z": -1.7698829755,
				"element": "C" 
			},
			{
				"x": -0.0763448227,
				"y": -1.3598733532,
				"z": -1.1604086702,
				"element": "C" 
			},
			{
				"x": -0.7477653996,
				"y": -2.4657730253,
				"z": -1.5428017441,
				"element": "N" 
			},
			{
				"x": -0.2301575969,
				"y": -3.2314211264,
				"z": -2.5051540066,
				"element": "C" 
			},
			{
				"x": 0.9698768045,
				"y": -2.9709537055,
				"z": -3.1599162301,
				"element": "C" 
			},
			{
				"x": -0.631483231,
				"y": -0.5902969422,
				"z": -0.16693006,
				"element": "N" 
			},
			{
				"x": 0.0534810333,
				"y": 0.6088764769,
				"z": 0.3163139521,
				"element": "C" 
			},
			{
				"x": -0.8108279773,
				"y": 1.3664472784,
				"z": 1.3330324807,
				"element": "C" 
			},
			{
				"x": -2.2510558602,
				"y": 1.4978408029,
				"z": 0.8226323781,
				"element": "C" 
			},
			{
				"x": -2.8885235734,
				"y": 0.1023949181,
				"z": 0.5870581514,
				"element": "C" 
			},
			{
				"x": -1.8312304033,
				"y": -1.0149331218,
				"z": 0.5579602533,
				"element": "C" 
			},
			{
				"x": 2.6231094533,
				"y": 0.3448070399,
				"z": -3.1678874074,
				"element": "H" 
			},
			{
				"x": 1.7211072301,
				"y": -0.1533955714,
				"z": -1.4106739691,
				"element": "H" 
			},
			{
				"x": -0.8145825528,
				"y": -4.1120401679,
				"z": -2.7677809878,
				"element": "H" 
			},
			{
				"x": 1.3629256859,
				"y": -3.62317489,
				"z": -3.9296274842,
				"element": "H" 
			},
			{
				"x": 1.0289181275,
				"y": 0.3534469337,
				"z": 0.7607815728,
				"element": "H" 
			},
			{
				"x": 0.2556713351,
				"y": 1.2737667203,
				"z": -0.5367223646,
				"element": "H" 
			},
			{
				"x": -0.7976014223,
				"y": 0.849760399,
				"z": 2.2999789185,
				"element": "H" 
			},
			{
				"x": -0.3620481577,
				"y": 2.3509211868,
				"z": 1.5022439841,
				"element": "H" 
			},
			{
				"x": -2.2357833988,
				"y": 2.063124585,
				"z": -0.1173414634,
				"element": "H" 
			},
			{
				"x": -2.8504412134,
				"y": 2.0857820334,
				"z": 1.5252350205,
				"element": "H" 
			},
			{
				"x": -3.6101219314,
				"y": -0.1330468088,
				"z": 1.3778665652,
				"element": "H" 
			},
			{
				"x": -3.4444678703,
				"y": 0.1017883479,
				"z": -0.3561394255,
				"element": "H" 
			},
			{
				"x": -2.2116726693,
				"y": -1.9077101761,
				"z": 0.0659285588,
				"element": "H" 
			},
			{
				"x": -1.5542356043,
				"y": -1.3002229212,
				"z": 1.5833420502,
				"element": "H" 
			}
		],
		 "valence_orbital": [ 
			{
				"type": "occ",
				"energy": -0.29936,
				"method": "rhf"
			},
			{
				"type": "occ",
				"energy": -0.28717,
				"method": "rhf"
			},
			{
				"type": "occ",
				"energy": -0.27377,
				"method": "rhf"
			},
			{
				"type": "occ",
				"energy": -0.26045,
				"method": "rhf"
			},
			{
				"type": "occ",
				"energy": -0.20818,
				"method": "rhf"
			},
			{
				"type": "unocc",
				"energy": -0.05481,
				"method": "rhf"
			},
			{
				"type": "unocc",
				"energy": -0.00299,
				"method": "rhf"
			},
			{
				"type": "unocc",
				"energy": 0.04658,
				"method": "rhf"
			},
			{
				"type": "unocc",
				"energy": 0.06107,
				"method": "rhf"
			},
			{
				"type": "unocc",
				"energy": 0.07442,
				"method": "rhf"
			}
		],
		"cosmo_sigma_profile": { 
			"-0.025": 0.0,
			"-0.024": 0.0,
			"-0.023": 0.0,
			"-0.022": 0.0,
			"-0.021": 0.0,
			"-0.02": 0.0,
			"-0.019": 0.0114095837255,
			"-0.018": 0.494592465661,
			"-0.017": 0.769022701156,
			"-0.016": 1.0027675281,
			"-0.015": 0.806281500031,
			"-0.014": 1.5738865412,
			"-0.013": 0.867799404613,
			"-0.012": 0.867904484518,
			"-0.011": 1.21950451879,
			"-0.01": 1.49838137025,
			"-0.009": 0.764309253267,
			"-0.008": 1.7508164765,
			"-0.007": 2.8773156345,
			"-0.006": 6.07383604841,
			"-0.005": 6.56641697833,
			"-0.004": 16.2451394184,
			"-0.003": 28.7211348167,
			"-0.002": 31.8160137002,
			"-0.001": 28.1857325734,
			"0.0": 19.4504736594,
			"0.001": 17.5697103885,
			"0.002": 15.3581804978,
			"0.003": 11.6505098149,
			"0.004": 6.37282977409,
			"0.005": 4.89592834238,
			"0.006": 4.13843481035,
			"0.007": 4.80789860866,
			"0.008": 4.19601707191,
			"0.009": 4.92748696878,
			"0.01": 7.21769338296,
			"0.011": 6.46091825152,
			"0.012": 4.39162216069,
			"0.013": 0.714952478234,
			"0.014": 0.0,
			"0.015": 0.0,
			"0.016": 0.0,
			"0.017": 0.0,
			"0.018": 0.0,
			"0.019": 0.0,
			"0.02": 0.0,
			"0.021": 0.0,
			"0.022": 0.0,
			"0.023": 0.0,
			"0.024": 0.0,
			"0.025": 0.0
		}
	}
}
