{
	 "smiles": "OCC1=CC=C(OCC2=CC=CC=C2)C=C1", 
	 "Tm": 359.15, 
	 "num_atms": 30, 
	 "gaussian": { 
		 "optdone": 1, 
		 "sigma_profile": "yes", 
		 "theory": "DFT", 
		 "functional": "B3LYP", 
		 "basiset": "6-31G**", 
		 "properties": { 
			 "R2extent": 5339.0304, 
			 "electric_dipole_moment_norm": 1.70647091976, 
			 "electric_quadrupole_moment_norm": 13.9325810534, 
			 "total_energy": -692.356671194, 
			 "HOMO_LUMO_gap": 0.20566, 
			 "cosmo_polarized_energy": -10.64, 
			 "cosmo_cavitation_energy": 33.67, 
			 "cosmo_dispersion_energy": -24.1, 
			 "cosmo_repulsion_energy": 1.9, 
			 "cosmo_total_nonelectrostatic_energy": 11.47, 
			 "SMD_solvation_energy": 5.8 
		},
		"coords": [
			{
				"x": 4.7666948754,
				"y": 1.8036122658,
				"z": -3.1995555836,
				"element": "O" 
			},
			{
				"x": 4.7969109029,
				"y": 1.1232218504,
				"z": -1.9507621531,
				"element": "C" 
			},
			{
				"x": 3.4521298216,
				"y": 1.0741835744,
				"z": -1.2535614864,
				"element": "C" 
			},
			{
				"x": 3.3581385681,
				"y": 1.1037485287,
				"z": 0.1447607338,
				"element": "C" 
			},
			{
				"x": 2.126039276,
				"y": 1.0267461848,
				"z": 0.7840664766,
				"element": "C" 
			},
			{
				"x": 0.9488176662,
				"y": 0.9256785398,
				"z": 0.0297984254,
				"element": "C" 
			},
			{
				"x": -0.2122262928,
				"y": 0.8725898383,
				"z": 0.7571491644,
				"element": "O" 
			},
			{
				"x": -1.4628153298,
				"y": 0.9315848212,
				"z": 0.0768595886,
				"element": "C" 
			},
			{
				"x": -1.8941913358,
				"y": -0.3793779079,
				"z": -0.5537509208,
				"element": "C" 
			},
			{
				"x": -1.510250305,
				"y": -1.6041722013,
				"z": 0.0039640403,
				"element": "C" 
			},
			{
				"x": -1.9578286243,
				"y": -2.8029451191,
				"z": -0.5518147982,
				"element": "C" 
			},
			{
				"x": -2.8004353402,
				"y": -2.7915088676,
				"z": -1.6655881476,
				"element": "C" 
			},
			{
				"x": -3.1891790728,
				"y": -1.5732390294,
				"z": -2.2251301502,
				"element": "C" 
			},
			{
				"x": -2.7340356089,
				"y": -0.3744124974,
				"z": -1.6735821727,
				"element": "C" 
			},
			{
				"x": 1.0227702789,
				"y": 0.8967727707,
				"z": -1.3677393547,
				"element": "C" 
			},
			{
				"x": 2.2700417432,
				"y": 0.9710908089,
				"z": -1.9920624738,
				"element": "C" 
			},
			{
				"x": 4.4025662697,
				"y": 2.6840698829,
				"z": -3.0359187726,
				"element": "H" 
			},
			{
				"x": 5.1416957958,
				"y": 0.1099759107,
				"z": -2.1913104491,
				"element": "H" 
			},
			{
				"x": 5.5475110999,
				"y": 1.558614979,
				"z": -1.2712968138,
				"element": "H" 
			},
			{
				"x": 4.262083934,
				"y": 1.1944209066,
				"z": 0.743180611,
				"element": "H" 
			},
			{
				"x": 2.047840453,
				"y": 1.0588243865,
				"z": 1.8660340248,
				"element": "H" 
			},
			{
				"x": -2.1752827569,
				"y": 1.2201186419,
				"z": 0.857917388,
				"element": "H" 
			},
			{
				"x": -1.4557698062,
				"y": 1.7354425345,
				"z": -0.6714277893,
				"element": "H" 
			},
			{
				"x": -0.852419061,
				"y": -1.6099438659,
				"z": 0.8673711025,
				"element": "H" 
			},
			{
				"x": -1.6482521562,
				"y": -3.7479130238,
				"z": -0.1142324341,
				"element": "H" 
			},
			{
				"x": -3.1480981208,
				"y": -3.7257260221,
				"z": -2.0970317854,
				"element": "H" 
			},
			{
				"x": -3.8391452823,
				"y": -1.5550581979,
				"z": -3.0954126256,
				"element": "H" 
			},
			{
				"x": -3.0336123693,
				"y": 0.5722477544,
				"z": -2.1185083404,
				"element": "H" 
			},
			{
				"x": 0.1295406157,
				"y": 0.7927805071,
				"z": -1.9716578838,
				"element": "H" 
			},
			{
				"x": 2.328960162,
				"y": 0.9499720458,
				"z": -3.0762574203,
				"element": "H" 
			}
		],
		 "valence_orbital": [ 
			{
				"type": "occ",
				"energy": -0.2699,
				"method": "rhf"
			},
			{
				"type": "occ",
				"energy": -0.25285,
				"method": "rhf"
			},
			{
				"type": "occ",
				"energy": -0.25117,
				"method": "rhf"
			},
			{
				"type": "occ",
				"energy": -0.24454,
				"method": "rhf"
			},
			{
				"type": "occ",
				"energy": -0.21447,
				"method": "rhf"
			},
			{
				"type": "unocc",
				"energy": -0.00881,
				"method": "rhf"
			},
			{
				"type": "unocc",
				"energy": -0.00536,
				"method": "rhf"
			},
			{
				"type": "unocc",
				"energy": 0.00211,
				"method": "rhf"
			},
			{
				"type": "unocc",
				"energy": 0.01012,
				"method": "rhf"
			},
			{
				"type": "unocc",
				"energy": 0.09194,
				"method": "rhf"
			}
		],
		"cosmo_sigma_profile": { 
			"-0.025": 0.0,
			"-0.024": 0.0,
			"-0.023": 0.0,
			"-0.022": 0.0,
			"-0.021": 0.0,
			"-0.02": 0.0,
			"-0.019": 0.0,
			"-0.018": 0.0,
			"-0.017": 0.0,
			"-0.016": 0.0356657785933,
			"-0.015": 0.971123046819,
			"-0.014": 0.473189736369,
			"-0.013": 0.906285596857,
			"-0.012": 1.05874361201,
			"-0.011": 0.705596494572,
			"-0.01": 0.647469695452,
			"-0.009": 0.310850179626,
			"-0.008": 0.957576117288,
			"-0.007": 1.82059867842,
			"-0.006": 13.0048789427,
			"-0.005": 22.8733011519,
			"-0.004": 29.4568882429,
			"-0.003": 24.8104606321,
			"-0.002": 19.4579275833,
			"-0.001": 16.8884164734,
			"0.0": 14.8345544301,
			"0.001": 14.9572429372,
			"0.002": 16.9324718102,
			"0.003": 16.8089163056,
			"0.004": 20.0083500605,
			"0.005": 20.1341124228,
			"0.006": 13.9437764511,
			"0.007": 2.32703014192,
			"0.008": 2.65806903536,
			"0.009": 1.44315576612,
			"0.01": 1.98623368094,
			"0.011": 1.91149646696,
			"0.012": 1.10781431437,
			"0.013": 1.45800037814,
			"0.014": 2.17529267743,
			"0.015": 0.344016427008,
			"0.016": 0.0,
			"0.017": 0.0,
			"0.018": 0.0,
			"0.019": 0.0,
			"0.02": 0.0,
			"0.021": 0.0,
			"0.022": 0.0,
			"0.023": 0.0,
			"0.024": 0.0,
			"0.025": 0.0
		}
	}
}
