{
	 "smiles": "CC1=CC=C(Cl)C(CO)=C1F", 
	 "Tm": 330.15, 
	 "num_atms": 19, 
	 "gaussian": { 
		 "optdone": 1, 
		 "sigma_profile": "yes", 
		 "theory": "DFT", 
		 "functional": "B3LYP", 
		 "basiset": "6-31G**", 
		 "properties": { 
			 "R2extent": 2253.6986, 
			 "electric_dipole_moment_norm": 3.23978586021, 
			 "electric_quadrupole_moment_norm": 6.17358765225, 
			 "total_energy": -944.920512016, 
			 "HOMO_LUMO_gap": 0.22414, 
			 "cosmo_polarized_energy": -7.03, 
			 "cosmo_cavitation_energy": 24.38, 
			 "cosmo_dispersion_energy": -18.15, 
			 "cosmo_repulsion_energy": 1.45, 
			 "cosmo_total_nonelectrostatic_energy": 7.67, 
			 "SMD_solvation_energy": 4.23 
		},
		"coords": [
			{
				"x": -2.2624850401,
				"y": 2.5472440402,
				"z": -0.3156992591,
				"element": "C" 
			},
			{
				"x": -1.0917430278,
				"y": 1.8551468832,
				"z": 0.3327004072,
				"element": "C" 
			},
			{
				"x": -0.2894896926,
				"y": 2.4574085783,
				"z": 1.3083473064,
				"element": "C" 
			},
			{
				"x": 0.7836090084,
				"y": 1.7818047767,
				"z": 1.8856463758,
				"element": "C" 
			},
			{
				"x": 1.0742419812,
				"y": 0.4773495165,
				"z": 1.4844604488,
				"element": "C" 
			},
			{
				"x": 2.4354781239,
				"y": -0.3337433635,
				"z": 2.2539356705,
				"element": "Cl" 
			},
			{
				"x": 0.3123115055,
				"y": -0.1819218783,
				"z": 0.5102293165,
				"element": "C" 
			},
			{
				"x": 0.5550016629,
				"y": -1.5947450561,
				"z": 0.0048047288,
				"element": "C" 
			},
			{
				"x": 0.7625505089,
				"y": -1.6581983318,
				"z": -1.3972553553,
				"element": "O" 
			},
			{
				"x": -0.7494607784,
				"y": 0.5530330785,
				"z": -0.0196592242,
				"element": "C" 
			},
			{
				"x": -1.5180116639,
				"y": -0.065205985,
				"z": -0.9659969386,
				"element": "F" 
			},
			{
				"x": -2.3875625686,
				"y": 3.5552480614,
				"z": 0.0865803171,
				"element": "H" 
			},
			{
				"x": -2.1275611076,
				"y": 2.6262058731,
				"z": -1.3997495564,
				"element": "H" 
			},
			{
				"x": -3.1937205672,
				"y": 1.9950488229,
				"z": -0.1505397648,
				"element": "H" 
			},
			{
				"x": -0.5106953227,
				"y": 3.4738211746,
				"z": 1.6212764543,
				"element": "H" 
			},
			{
				"x": 1.3959147541,
				"y": 2.2597854377,
				"z": 2.6414980778,
				"element": "H" 
			},
			{
				"x": 1.4540154001,
				"y": -2.0012306267,
				"z": 0.4678013923,
				"element": "H" 
			},
			{
				"x": -0.2904809544,
				"y": -2.2293042625,
				"z": 0.313445147,
				"element": "H" 
			},
			{
				"x": -0.0596122216,
				"y": -1.3751467391,
				"z": -1.8180255441,
				"element": "H" 
			}
		],
		 "valence_orbital": [ 
			{
				"type": "occ",
				"energy": -0.329,
				"method": "rhf"
			},
			{
				"type": "occ",
				"energy": -0.3144,
				"method": "rhf"
			},
			{
				"type": "occ",
				"energy": -0.27227,
				"method": "rhf"
			},
			{
				"type": "occ",
				"energy": -0.25879,
				"method": "rhf"
			},
			{
				"type": "occ",
				"energy": -0.24631,
				"method": "rhf"
			},
			{
				"type": "unocc",
				"energy": -0.02217,
				"method": "rhf"
			},
			{
				"type": "unocc",
				"energy": -0.01557,
				"method": "rhf"
			},
			{
				"type": "unocc",
				"energy": 0.0223,
				"method": "rhf"
			},
			{
				"type": "unocc",
				"energy": 0.08709,
				"method": "rhf"
			},
			{
				"type": "unocc",
				"energy": 0.10644,
				"method": "rhf"
			}
		],
		"cosmo_sigma_profile": { 
			"-0.025": 0.0,
			"-0.024": 0.0,
			"-0.023": 0.0,
			"-0.022": 0.0,
			"-0.021": 0.0,
			"-0.02": 0.0,
			"-0.019": 0.0,
			"-0.018": 0.0,
			"-0.017": 0.0,
			"-0.016": 0.0,
			"-0.015": 0.0,
			"-0.014": 0.0,
			"-0.013": 0.233698497175,
			"-0.012": 0.508537431484,
			"-0.011": 0.448354941828,
			"-0.01": 0.786469546086,
			"-0.009": 0.864207877428,
			"-0.008": 0.928138752153,
			"-0.007": 3.94863337833,
			"-0.006": 7.22618366802,
			"-0.005": 12.2818586376,
			"-0.004": 14.3308978456,
			"-0.003": 14.4509909972,
			"-0.002": 17.0086077603,
			"-0.001": 19.1525587248,
			"0.0": 18.8631022803,
			"0.001": 17.0549887984,
			"0.002": 20.449774995,
			"0.003": 15.8809619912,
			"0.004": 13.6457621011,
			"0.005": 5.27278688205,
			"0.006": 1.34565559485,
			"0.007": 0.81276087626,
			"0.008": 0.976477474484,
			"0.009": 1.25874615452,
			"0.01": 1.20359040651,
			"0.011": 1.59133619345,
			"0.012": 1.71607959763,
			"0.013": 1.70474261017,
			"0.014": 2.05471418065,
			"0.015": 0.0383755663935,
			"0.016": 0.0,
			"0.017": 0.0,
			"0.018": 0.0,
			"0.019": 0.0,
			"0.02": 0.0,
			"0.021": 0.0,
			"0.022": 0.0,
			"0.023": 0.0,
			"0.024": 0.0,
			"0.025": 0.0
		}
	}
}
