{
	 "smiles": "COC1=CC=C(C(OC)=C1)[N+]([O-])=O", 
	 "Tm": 348.35, 
	 "num_atms": 22, 
	 "gaussian": { 
		 "optdone": 1, 
		 "sigma_profile": "yes", 
		 "theory": "DFT", 
		 "functional": "B3LYP", 
		 "basiset": "6-31G**", 
		 "properties": { 
			 "R2extent": 3482.5011, 
			 "electric_dipole_moment_norm": 7.29981255102, 
			 "electric_quadrupole_moment_norm": 19.6403193892, 
			 "total_energy": -665.788988176, 
			 "HOMO_LUMO_gap": 0.1677, 
			 "cosmo_polarized_energy": -15.1, 
			 "cosmo_cavitation_energy": 26.61, 
			 "cosmo_dispersion_energy": -19.46, 
			 "cosmo_repulsion_energy": 1.54, 
			 "cosmo_total_nonelectrostatic_energy": 8.69, 
			 "SMD_solvation_energy": 8.52 
		},
		"coords": [
			{
				"x": -2.7175578353,
				"y": -0.3318225034,
				"z": 1.570242648,
				"element": "C" 
			},
			{
				"x": -2.6122723575,
				"y": -1.2178308044,
				"z": 0.4633167794,
				"element": "O" 
			},
			{
				"x": -1.6674266471,
				"y": -0.9842271447,
				"z": -0.4802231849,
				"element": "C" 
			},
			{
				"x": -1.6303461673,
				"y": -1.9002094286,
				"z": -1.5444735661,
				"element": "C" 
			},
			{
				"x": -0.6943191407,
				"y": -1.7276492761,
				"z": -2.5444037315,
				"element": "C" 
			},
			{
				"x": 0.2086128304,
				"y": -0.6569348709,
				"z": -2.5252185667,
				"element": "C" 
			},
			{
				"x": 0.1840784618,
				"y": 0.2687649485,
				"z": -1.4533644523,
				"element": "C" 
			},
			{
				"x": 1.0806417786,
				"y": 1.2741137248,
				"z": -1.4325235215,
				"element": "O" 
			},
			{
				"x": 1.088906524,
				"y": 2.1793739806,
				"z": -0.3363236918,
				"element": "C" 
			},
			{
				"x": -0.7659569214,
				"y": 0.084615783,
				"z": -0.4340775692,
				"element": "C" 
			},
			{
				"x": 1.1424331269,
				"y": -0.5582778823,
				"z": -3.6433793727,
				"element": "N" 
			},
			{
				"x": 1.2436004118,
				"y": -1.5470334973,
				"z": -4.3799309577,
				"element": "O" 
			},
			{
				"x": 1.7654379948,
				"y": 0.4887858325,
				"z": -3.8102687918,
				"element": "O" 
			},
			{
				"x": -2.9510977734,
				"y": 0.6898508105,
				"z": 1.2463872095,
				"element": "H" 
			},
			{
				"x": -1.7973173397,
				"y": -0.3232821072,
				"z": 2.167285067,
				"element": "H" 
			},
			{
				"x": -3.5377569086,
				"y": -0.7122150737,
				"z": 2.1799246203,
				"element": "H" 
			},
			{
				"x": -2.3368594172,
				"y": -2.7215841933,
				"z": -1.5604651639,
				"element": "H" 
			},
			{
				"x": -0.6314414277,
				"y": -2.4165972125,
				"z": -3.3769733624,
				"element": "H" 
			},
			{
				"x": 1.8984407963,
				"y": 2.8790128808,
				"z": -0.5450961068,
				"element": "H" 
			},
			{
				"x": 0.1439902769,
				"y": 2.7313376792,
				"z": -0.2619777681,
				"element": "H" 
			},
			{
				"x": 1.2882882425,
				"y": 1.6648354402,
				"z": 0.611715206,
				"element": "H" 
			},
			{
				"x": -0.7930785082,
				"y": 0.7784729143,
				"z": 0.3925282773,
				"element": "H" 
			}
		],
		 "valence_orbital": [ 
			{
				"type": "occ",
				"energy": -0.28655,
				"method": "rhf"
			},
			{
				"type": "occ",
				"energy": -0.2854,
				"method": "rhf"
			},
			{
				"type": "occ",
				"energy": -0.26712,
				"method": "rhf"
			},
			{
				"type": "occ",
				"energy": -0.25778,
				"method": "rhf"
			},
			{
				"type": "occ",
				"energy": -0.23451,
				"method": "rhf"
			},
			{
				"type": "unocc",
				"energy": -0.06681,
				"method": "rhf"
			},
			{
				"type": "unocc",
				"energy": -0.01075,
				"method": "rhf"
			},
			{
				"type": "unocc",
				"energy": 0.0174,
				"method": "rhf"
			},
			{
				"type": "unocc",
				"energy": 0.06745,
				"method": "rhf"
			},
			{
				"type": "unocc",
				"energy": 0.08949,
				"method": "rhf"
			}
		],
		"cosmo_sigma_profile": { 
			"-0.025": 0.0,
			"-0.024": 0.0,
			"-0.023": 0.0,
			"-0.022": 0.0,
			"-0.021": 0.0,
			"-0.02": 0.0,
			"-0.019": 0.0,
			"-0.018": 0.0,
			"-0.017": 0.0,
			"-0.016": 0.0,
			"-0.015": 0.0,
			"-0.014": 0.0,
			"-0.013": 0.0,
			"-0.012": 0.0,
			"-0.011": 0.0,
			"-0.01": 0.0,
			"-0.009": 0.104478292528,
			"-0.008": 2.69762358518,
			"-0.007": 9.96119355652,
			"-0.006": 20.3384955169,
			"-0.005": 19.0917037696,
			"-0.004": 21.724419326,
			"-0.003": 14.7919776636,
			"-0.002": 10.4461856789,
			"-0.001": 11.5855698584,
			"0.0": 12.2412137262,
			"0.001": 17.0550732086,
			"0.002": 13.4840785038,
			"0.003": 8.03134125973,
			"0.004": 4.57886165585,
			"0.005": 5.19023995599,
			"0.006": 3.98563021314,
			"0.007": 4.55011938547,
			"0.008": 8.38423434945,
			"0.009": 10.3843298476,
			"0.01": 6.49862116571,
			"0.011": 4.39368935855,
			"0.012": 1.99161630984,
			"0.013": 0.627777688862,
			"0.014": 0.00145216054314,
			"0.015": 0.0,
			"0.016": 0.0,
			"0.017": 0.0,
			"0.018": 0.0,
			"0.019": 0.0,
			"0.02": 0.0,
			"0.021": 0.0,
			"0.022": 0.0,
			"0.023": 0.0,
			"0.024": 0.0,
			"0.025": 0.0
		}
	}
}
