{
	 "smiles": "O=C1NC2=C(N1)C=C(NCC1=CC(=CC=C1)C#N)C=C2", 
	 "Tm": 535.15, 
	 "num_atms": 32, 
	 "gaussian": { 
		 "optdone": 1, 
		 "sigma_profile": "yes", 
		 "theory": "DFT", 
		 "functional": "B3LYP", 
		 "basiset": "6-31G**", 
		 "properties": { 
			 "R2extent": 7404.3437, 
			 "electric_dipole_moment_norm": 6.75226949551, 
			 "electric_quadrupole_moment_norm": 19.060967545, 
			 "total_energy": -873.07530775, 
			 "HOMO_LUMO_gap": 0.13703, 
			 "cosmo_polarized_energy": -23.97, 
			 "cosmo_cavitation_energy": 37.99, 
			 "cosmo_dispersion_energy": -26.72, 
			 "cosmo_repulsion_energy": 2.07, 
			 "cosmo_total_nonelectrostatic_energy": 13.34, 
			 "SMD_solvation_energy": 7.76 
		},
		"coords": [
			{
				"x": 1.6131758727,
				"y": 4.8677768273,
				"z": -1.2978810523,
				"element": "O" 
			},
			{
				"x": 1.5557976779,
				"y": 3.8336913007,
				"z": -0.6573732958,
				"element": "C" 
			},
			{
				"x": 2.3509231771,
				"y": 3.4403955623,
				"z": 0.4162894271,
				"element": "N" 
			},
			{
				"x": 1.9800577181,
				"y": 2.1798299593,
				"z": 0.8865525803,
				"element": "C" 
			},
			{
				"x": 0.9047427369,
				"y": 1.7511541593,
				"z": 0.0845869485,
				"element": "C" 
			},
			{
				"x": 0.6696946406,
				"y": 2.765229305,
				"z": -0.835071455,
				"element": "N" 
			},
			{
				"x": 0.2824318002,
				"y": 0.5236533258,
				"z": 0.2789486903,
				"element": "C" 
			},
			{
				"x": 0.7617368961,
				"y": -0.2995373161,
				"z": 1.3169448445,
				"element": "C" 
			},
			{
				"x": 0.209724002,
				"y": -1.5691885592,
				"z": 1.5568052218,
				"element": "N" 
			},
			{
				"x": -1.1324534821,
				"y": -1.9050845747,
				"z": 1.1129130255,
				"element": "C" 
			},
			{
				"x": -1.2126456875,
				"y": -2.4084225585,
				"z": -0.3245193255,
				"element": "C" 
			},
			{
				"x": -2.4143235684,
				"y": -2.3013580185,
				"z": -1.027698527,
				"element": "C" 
			},
			{
				"x": -2.5235003875,
				"y": -2.8087580987,
				"z": -2.3327623694,
				"element": "C" 
			},
			{
				"x": -1.418668208,
				"y": -3.4232058878,
				"z": -2.9451126356,
				"element": "C" 
			},
			{
				"x": -0.2200253036,
				"y": -3.5208995598,
				"z": -2.2433110696,
				"element": "C" 
			},
			{
				"x": -0.1165541201,
				"y": -3.0195786381,
				"z": -0.9445376332,
				"element": "C" 
			},
			{
				"x": -3.7652901588,
				"y": -2.6903911956,
				"z": -3.0416646181,
				"element": "C" 
			},
			{
				"x": -4.7730024108,
				"y": -2.5930012781,
				"z": -3.6147375797,
				"element": "N" 
			},
			{
				"x": 1.8388699713,
				"y": 0.1346199114,
				"z": 2.1148905817,
				"element": "C" 
			},
			{
				"x": 2.4558630125,
				"y": 1.3713816886,
				"z": 1.9092476305,
				"element": "C" 
			},
			{
				"x": 3.090124774,
				"y": 4.0279378449,
				"z": 0.7650994737,
				"element": "H" 
			},
			{
				"x": -0.0277238757,
				"y": 2.7782969214,
				"z": -1.5614725286,
				"element": "H" 
			},
			{
				"x": -0.5304667485,
				"y": 0.2075925517,
				"z": -0.3634823846,
				"element": "H" 
			},
			{
				"x": 0.4295139814,
				"y": -1.9224490893,
				"z": 2.4766409832,
				"element": "H" 
			},
			{
				"x": -1.5005689915,
				"y": -2.6997531953,
				"z": 1.7729497616,
				"element": "H" 
			},
			{
				"x": -1.8258428705,
				"y": -1.0574827567,
				"z": 1.234047778,
				"element": "H" 
			},
			{
				"x": -3.2765072091,
				"y": -1.8234186719,
				"z": -0.57073374,
				"element": "H" 
			},
			{
				"x": -1.5081185413,
				"y": -3.8084985407,
				"z": -3.9550933254,
				"element": "H" 
			},
			{
				"x": 0.6403796137,
				"y": -3.988864101,
				"z": -2.7119799832,
				"element": "H" 
			},
			{
				"x": 0.8190524356,
				"y": -3.084704763,
				"z": -0.3986169409,
				"element": "H" 
			},
			{
				"x": 2.1996542437,
				"y": -0.5115360512,
				"z": 2.9107942835,
				"element": "H" 
			},
			{
				"x": 3.2820490095,
				"y": 1.6845734966,
				"z": 2.5398372338,
				"element": "H" 
			}
		],
		 "valence_orbital": [ 
			{
				"type": "occ",
				"energy": -0.2704,
				"method": "rhf"
			},
			{
				"type": "occ",
				"energy": -0.26522,
				"method": "rhf"
			},
			{
				"type": "occ",
				"energy": -0.26338,
				"method": "rhf"
			},
			{
				"type": "occ",
				"energy": -0.2335,
				"method": "rhf"
			},
			{
				"type": "occ",
				"energy": -0.19033,
				"method": "rhf"
			},
			{
				"type": "unocc",
				"energy": -0.0533,
				"method": "rhf"
			},
			{
				"type": "unocc",
				"energy": -0.02861,
				"method": "rhf"
			},
			{
				"type": "unocc",
				"energy": -0.00666,
				"method": "rhf"
			},
			{
				"type": "unocc",
				"energy": 0.01996,
				"method": "rhf"
			},
			{
				"type": "unocc",
				"energy": 0.03563,
				"method": "rhf"
			}
		],
		"cosmo_sigma_profile": { 
			"-0.025": 0.0,
			"-0.024": 0.0,
			"-0.023": 0.0,
			"-0.022": 0.0,
			"-0.021": 0.0,
			"-0.02": 0.0,
			"-0.019": 0.0,
			"-0.018": 0.0,
			"-0.017": 0.0,
			"-0.016": 1.03873030554,
			"-0.015": 2.61666970581,
			"-0.014": 2.59246878074,
			"-0.013": 2.84742472853,
			"-0.012": 3.53570367294,
			"-0.011": 2.72654768606,
			"-0.01": 3.36861538311,
			"-0.009": 4.27763579543,
			"-0.008": 5.43373052639,
			"-0.007": 12.8042533656,
			"-0.006": 16.7337346824,
			"-0.005": 18.3665424312,
			"-0.004": 17.93975964,
			"-0.003": 16.6650542253,
			"-0.002": 15.017686488,
			"-0.001": 16.8523375616,
			"0.0": 19.7384806687,
			"0.001": 19.4122561533,
			"0.002": 22.7871598173,
			"0.003": 21.7196289431,
			"0.004": 12.5938632096,
			"0.005": 12.4978171759,
			"0.006": 12.6025249721,
			"0.007": 4.61246381397,
			"0.008": 4.63250266498,
			"0.009": 4.63126684068,
			"0.01": 4.27481913646,
			"0.011": 4.70384871091,
			"0.012": 3.7822818196,
			"0.013": 5.09126213338,
			"0.014": 7.47850820111,
			"0.015": 1.56112664209,
			"0.016": 0.0,
			"0.017": 0.0,
			"0.018": 0.0,
			"0.019": 0.0,
			"0.02": 0.0,
			"0.021": 0.0,
			"0.022": 0.0,
			"0.023": 0.0,
			"0.024": 0.0,
			"0.025": 0.0
		}
	}
}
