{
	 "smiles": "CCCCC1=CC=C(CC(O)=O)C=C1", 
	 "Tm": 352.15, 
	 "num_atms": 30, 
	 "gaussian": { 
		 "optdone": 1, 
		 "sigma_profile": "yes", 
		 "theory": "DFT", 
		 "functional": "B3LYP", 
		 "basiset": "6-31G**", 
		 "properties": { 
			 "R2extent": 4030.9758, 
			 "electric_dipole_moment_norm": 1.467404525, 
			 "electric_quadrupole_moment_norm": 6.95047593263, 
			 "total_energy": -617.40045272, 
			 "HOMO_LUMO_gap": 0.22318, 
			 "cosmo_polarized_energy": -9.56, 
			 "cosmo_cavitation_energy": 32.91, 
			 "cosmo_dispersion_energy": -22.58, 
			 "cosmo_repulsion_energy": 1.83, 
			 "cosmo_total_nonelectrostatic_energy": 12.16, 
			 "SMD_solvation_energy": 6.31 
		},
		"coords": [
			{
				"x": -2.5618192641,
				"y": -2.1635686788,
				"z": -0.4426779275,
				"element": "C" 
			},
			{
				"x": -1.7203079725,
				"y": -3.2952323998,
				"z": -1.0462742511,
				"element": "C" 
			},
			{
				"x": -0.2038222978,
				"y": -3.2125194369,
				"z": -0.7932548089,
				"element": "C" 
			},
			{
				"x": 0.5764849588,
				"y": -2.1672582848,
				"z": -1.6239497188,
				"element": "C" 
			},
			{
				"x": 0.3809079424,
				"y": -0.7131721214,
				"z": -1.2415907326,
				"element": "C" 
			},
			{
				"x": 0.7809975957,
				"y": -0.2399585858,
				"z": 0.0181239132,
				"element": "C" 
			},
			{
				"x": 0.6225757437,
				"y": 1.097044707,
				"z": 0.3720388127,
				"element": "C" 
			},
			{
				"x": 0.0599328909,
				"y": 2.0120819854,
				"z": -0.5292588155,
				"element": "C" 
			},
			{
				"x": -0.1054089141,
				"y": 3.4747322564,
				"z": -0.1433873808,
				"element": "C" 
			},
			{
				"x": -1.0435728505,
				"y": 3.6244501094,
				"z": 1.0401905786,
				"element": "C" 
			},
			{
				"x": -2.3138536863,
				"y": 3.8870672894,
				"z": 0.6529095773,
				"element": "O" 
			},
			{
				"x": -0.7266906789,
				"y": 3.4988779917,
				"z": 2.2031038672,
				"element": "O" 
			},
			{
				"x": -0.3386453402,
				"y": 1.550004843,
				"z": -1.7860299868,
				"element": "C" 
			},
			{
				"x": -0.1751383697,
				"y": 0.2078820422,
				"z": -2.1365926096,
				"element": "C" 
			},
			{
				"x": -3.6295114947,
				"y": -2.3479498614,
				"z": -0.6046825867,
				"element": "H" 
			},
			{
				"x": -2.3991129084,
				"y": -2.0883073546,
				"z": 0.6386564907,
				"element": "H" 
			},
			{
				"x": -2.3203264719,
				"y": -1.1915537891,
				"z": -0.8789453414,
				"element": "H" 
			},
			{
				"x": -2.0771090571,
				"y": -4.2493760122,
				"z": -0.6367988183,
				"element": "H" 
			},
			{
				"x": -1.8991845117,
				"y": -3.3511600755,
				"z": -2.1293360387,
				"element": "H" 
			},
			{
				"x": 0.2330473522,
				"y": -4.1934073496,
				"z": -1.0205956451,
				"element": "H" 
			},
			{
				"x": -0.020470022,
				"y": -3.0425741475,
				"z": 0.2763217159,
				"element": "H" 
			},
			{
				"x": 1.645477472,
				"y": -2.4043442361,
				"z": -1.5359012175,
				"element": "H" 
			},
			{
				"x": 0.3249730345,
				"y": -2.2985145301,
				"z": -2.683843095,
				"element": "H" 
			},
			{
				"x": 1.2279793972,
				"y": -0.927956894,
				"z": 0.7318378469,
				"element": "H" 
			},
			{
				"x": 0.9293917059,
				"y": 1.4398135352,
				"z": 1.3562176624,
				"element": "H" 
			},
			{
				"x": 0.8569438307,
				"y": 3.8982344949,
				"z": 0.1605134793,
				"element": "H" 
			},
			{
				"x": -0.4890051754,
				"y": 4.0480643289,
				"z": -0.9901881505,
				"element": "H" 
			},
			{
				"x": -2.8423880105,
				"y": 3.9223121113,
				"z": 1.4684142583,
				"element": "H" 
			},
			{
				"x": -0.7768241531,
				"y": 2.2424897966,
				"z": -2.5004017119,
				"element": "H" 
			},
			{
				"x": -0.4877207451,
				"y": -0.1277017341,
				"z": -3.1225193658,
				"element": "H" 
			}
		],
		 "valence_orbital": [ 
			{
				"type": "occ",
				"energy": -0.31778,
				"method": "rhf"
			},
			{
				"type": "occ",
				"energy": -0.31451,
				"method": "rhf"
			},
			{
				"type": "occ",
				"energy": -0.27532,
				"method": "rhf"
			},
			{
				"type": "occ",
				"energy": -0.24881,
				"method": "rhf"
			},
			{
				"type": "occ",
				"energy": -0.23317,
				"method": "rhf"
			},
			{
				"type": "unocc",
				"energy": -0.00999,
				"method": "rhf"
			},
			{
				"type": "unocc",
				"energy": -0.00234,
				"method": "rhf"
			},
			{
				"type": "unocc",
				"energy": 0.0191,
				"method": "rhf"
			},
			{
				"type": "unocc",
				"energy": 0.07924,
				"method": "rhf"
			},
			{
				"type": "unocc",
				"energy": 0.09044,
				"method": "rhf"
			}
		],
		"cosmo_sigma_profile": { 
			"-0.025": 0.0,
			"-0.024": 0.0,
			"-0.023": 0.0,
			"-0.022": 0.0,
			"-0.021": 0.0,
			"-0.02": 0.0,
			"-0.019": 0.0,
			"-0.018": 0.534814954575,
			"-0.017": 1.11897663324,
			"-0.016": 0.857591508823,
			"-0.015": 0.741059300033,
			"-0.014": 0.701325367219,
			"-0.013": 0.763619452997,
			"-0.012": 0.388061779684,
			"-0.011": 0.939273853823,
			"-0.01": 1.18522101878,
			"-0.009": 0.340831052254,
			"-0.008": 0.358206786678,
			"-0.007": 1.68978436835,
			"-0.006": 6.01248291381,
			"-0.005": 11.2921319711,
			"-0.004": 15.3740810965,
			"-0.003": 22.6158279552,
			"-0.002": 27.7447246366,
			"-0.001": 27.8125232478,
			"0.0": 31.0483311111,
			"0.001": 28.935252893,
			"0.002": 18.0672106986,
			"0.003": 12.3071241929,
			"0.004": 11.0612677568,
			"0.005": 10.6937797337,
			"0.006": 6.10796323416,
			"0.007": 2.69030976594,
			"0.008": 2.86538349389,
			"0.009": 3.04107390846,
			"0.01": 2.21441111192,
			"0.011": 3.31566599105,
			"0.012": 4.39249959429,
			"0.013": 0.397299788701,
			"0.014": 0.0,
			"0.015": 0.0,
			"0.016": 0.0,
			"0.017": 0.0,
			"0.018": 0.0,
			"0.019": 0.0,
			"0.02": 0.0,
			"0.021": 0.0,
			"0.022": 0.0,
			"0.023": 0.0,
			"0.024": 0.0,
			"0.025": 0.0
		}
	}
}
