{
	 "smiles": "OC1=C2C=CSC2=CC=C1", 
	 "Tm": 352.95, 
	 "num_atms": 16, 
	 "gaussian": { 
		 "optdone": 1, 
		 "sigma_profile": "yes", 
		 "theory": "DFT", 
		 "functional": "B3LYP", 
		 "basiset": "6-31G**", 
		 "properties": { 
			 "R2extent": 2192.0152, 
			 "electric_dipole_moment_norm": 1.42213808401, 
			 "electric_quadrupole_moment_norm": 8.58650469574, 
			 "total_energy": -781.871288376, 
			 "HOMO_LUMO_gap": 0.18154, 
			 "cosmo_polarized_energy": -9.01, 
			 "cosmo_cavitation_energy": 21.29, 
			 "cosmo_dispersion_energy": -16.83, 
			 "cosmo_repulsion_energy": 1.29, 
			 "cosmo_total_nonelectrostatic_energy": 5.74, 
			 "SMD_solvation_energy": 3.65 
		},
		"coords": [
			{
				"x": 2.0548384755,
				"y": 0.6598117422,
				"z": 0.8989657207,
				"element": "O" 
			},
			{
				"x": 0.9444590136,
				"y": 0.3094666295,
				"z": 1.6140193621,
				"element": "C" 
			},
			{
				"x": -0.216654911,
				"y": -0.2177375907,
				"z": 1.0045072043,
				"element": "C" 
			},
			{
				"x": -0.4828872891,
				"y": -0.4868673155,
				"z": -0.3872167308,
				"element": "C" 
			},
			{
				"x": -1.7228732581,
				"y": -0.9980594081,
				"z": -0.6002394354,
				"element": "C" 
			},
			{
				"x": -2.64683587,
				"y": -1.1857474368,
				"z": 0.8724047738,
				"element": "S" 
			},
			{
				"x": -1.3176348788,
				"y": -0.5511335235,
				"z": 1.8324516176,
				"element": "C" 
			},
			{
				"x": -1.2906080381,
				"y": -0.3761768072,
				"z": 3.2196920945,
				"element": "C" 
			},
			{
				"x": -0.1301341618,
				"y": 0.1452824198,
				"z": 3.7822168872,
				"element": "C" 
			},
			{
				"x": 0.9784141466,
				"y": 0.4861886434,
				"z": 2.9930262691,
				"element": "C" 
			},
			{
				"x": 1.904634022,
				"y": 0.489579464,
				"z": -0.0387398418,
				"element": "H" 
			},
			{
				"x": 0.2149166654,
				"y": -0.3095606746,
				"z": -1.1997419695,
				"element": "H" 
			},
			{
				"x": -2.1652367646,
				"y": -1.2832694636,
				"z": -1.5449675786,
				"element": "H" 
			},
			{
				"x": -2.1440661322,
				"y": -0.6376146614,
				"z": 3.8360876404,
				"element": "H" 
			},
			{
				"x": -0.0766509667,
				"y": 0.2935571623,
				"z": 4.8566969178,
				"element": "H" 
			},
			{
				"x": 1.8792199472,
				"y": 0.8921808202,
				"z": 3.4405370684,
				"element": "H" 
			}
		],
		 "valence_orbital": [ 
			{
				"type": "occ",
				"energy": -0.33473,
				"method": "rhf"
			},
			{
				"type": "occ",
				"energy": -0.31939,
				"method": "rhf"
			},
			{
				"type": "occ",
				"energy": -0.26819,
				"method": "rhf"
			},
			{
				"type": "occ",
				"energy": -0.23711,
				"method": "rhf"
			},
			{
				"type": "occ",
				"energy": -0.20464,
				"method": "rhf"
			},
			{
				"type": "unocc",
				"energy": -0.0231,
				"method": "rhf"
			},
			{
				"type": "unocc",
				"energy": 0.00672,
				"method": "rhf"
			},
			{
				"type": "unocc",
				"energy": 0.02044,
				"method": "rhf"
			},
			{
				"type": "unocc",
				"energy": 0.04732,
				"method": "rhf"
			},
			{
				"type": "unocc",
				"energy": 0.058,
				"method": "rhf"
			}
		],
		"cosmo_sigma_profile": { 
			"-0.025": 0.0,
			"-0.024": 0.0,
			"-0.023": 0.0,
			"-0.022": 0.0,
			"-0.021": 0.0,
			"-0.02": 0.0,
			"-0.019": 0.0,
			"-0.018": 0.263499676677,
			"-0.017": 1.23773293144,
			"-0.016": 0.968923579313,
			"-0.015": 0.665642195063,
			"-0.014": 1.23611947468,
			"-0.013": 1.33079608529,
			"-0.012": 0.75378972971,
			"-0.011": 0.619759057993,
			"-0.01": 1.83323906384,
			"-0.009": 1.67507994959,
			"-0.008": 3.70607919183,
			"-0.007": 3.419070303,
			"-0.006": 8.94652998588,
			"-0.005": 9.5069433491,
			"-0.004": 9.80919017866,
			"-0.003": 10.1916911667,
			"-0.002": 6.89319740098,
			"-0.001": 8.25663689818,
			"0.0": 7.93992782906,
			"0.001": 10.164982585,
			"0.002": 11.0921669261,
			"0.003": 19.2469459992,
			"0.004": 22.4486312195,
			"0.005": 16.4425121589,
			"0.006": 6.43827916763,
			"0.007": 1.66283678931,
			"0.008": 1.20292387349,
			"0.009": 1.46288895301,
			"0.01": 1.75437706544,
			"0.011": 1.88671549088,
			"0.012": 0.34746024854,
			"0.013": 0.0,
			"0.014": 0.0,
			"0.015": 0.0,
			"0.016": 0.0,
			"0.017": 0.0,
			"0.018": 0.0,
			"0.019": 0.0,
			"0.02": 0.0,
			"0.021": 0.0,
			"0.022": 0.0,
			"0.023": 0.0,
			"0.024": 0.0,
			"0.025": 0.0
		}
	}
}
