{
	 "smiles": "OCCNC1=CC=CC=C1", 
	 "Tm": 284.15, 
	 "num_atms": 21, 
	 "gaussian": { 
		 "optdone": 1, 
		 "sigma_profile": "yes", 
		 "theory": "DFT", 
		 "functional": "B3LYP", 
		 "basiset": "6-31G**", 
		 "properties": { 
			 "R2extent": 2357.637, 
			 "electric_dipole_moment_norm": 1.05082554689, 
			 "electric_quadrupole_moment_norm": 10.2833352202, 
			 "total_energy": -441.441361715, 
			 "HOMO_LUMO_gap": 0.19839, 
			 "cosmo_polarized_energy": -11.1, 
			 "cosmo_cavitation_energy": 24.07, 
			 "cosmo_dispersion_energy": -17.82, 
			 "cosmo_repulsion_energy": 1.46, 
			 "cosmo_total_nonelectrostatic_energy": 7.72, 
			 "SMD_solvation_energy": 3.4 
		},
		"coords": [
			{
				"x": 0.4734613968,
				"y": 2.7972007476,
				"z": -4.1512278736,
				"element": "O" 
			},
			{
				"x": 1.1372952705,
				"y": 2.162296698,
				"z": -3.0679482462,
				"element": "C" 
			},
			{
				"x": 0.6170873649,
				"y": 0.7336549636,
				"z": -2.8404563525,
				"element": "C" 
			},
			{
				"x": 1.3161817748,
				"y": 0.0353296564,
				"z": -1.7771518988,
				"element": "N" 
			},
			{
				"x": 0.9086770172,
				"y": 0.025636414,
				"z": -0.4488044101,
				"element": "C" 
			},
			{
				"x": -0.0357277877,
				"y": 0.9375868856,
				"z": 0.0600774944,
				"element": "C" 
			},
			{
				"x": -0.4026737594,
				"y": 0.8963201809,
				"z": 1.4056563612,
				"element": "C" 
			},
			{
				"x": 0.1550718392,
				"y": -0.0380925548,
				"z": 2.2775612554,
				"element": "C" 
			},
			{
				"x": 1.0972340135,
				"y": -0.942542757,
				"z": 1.7783222178,
				"element": "C" 
			},
			{
				"x": 1.4694419958,
				"y": -0.9157413401,
				"z": 0.4390965537,
				"element": "C" 
			},
			{
				"x": -0.441301381,
				"y": 2.9588286547,
				"z": -3.8867947612,
				"element": "H" 
			},
			{
				"x": 2.1972830108,
				"y": 2.1209831206,
				"z": -3.3361255665,
				"element": "H" 
			},
			{
				"x": 1.062340323,
				"y": 2.7460377327,
				"z": -2.1382515915,
				"element": "H" 
			},
			{
				"x": 0.743064473,
				"y": 0.1748288816,
				"z": -3.7733070542,
				"element": "H" 
			},
			{
				"x": -0.4648778873,
				"y": 0.7629321424,
				"z": -2.6377600496,
				"element": "H" 
			},
			{
				"x": 1.8573671685,
				"y": -0.7664325551,
				"z": -2.0601466377,
				"element": "H" 
			},
			{
				"x": -0.4785056478,
				"y": 1.6860621518,
				"z": -0.5880665951,
				"element": "H" 
			},
			{
				"x": -1.1343379824,
				"y": 1.6115455645,
				"z": 1.7723195896,
				"element": "H" 
			},
			{
				"x": -0.134234566,
				"y": -0.0614323699,
				"z": 3.3233264637,
				"element": "H" 
			},
			{
				"x": 1.5457222812,
				"y": -1.681069014,
				"z": 2.4375118721,
				"element": "H" 
			},
			{
				"x": 2.2015310827,
				"y": -1.6280332035,
				"z": 0.0642692291,
				"element": "H" 
			}
		],
		 "valence_orbital": [ 
			{
				"type": "occ",
				"energy": -0.32799,
				"method": "rhf"
			},
			{
				"type": "occ",
				"energy": -0.29759,
				"method": "rhf"
			},
			{
				"type": "occ",
				"energy": -0.26995,
				"method": "rhf"
			},
			{
				"type": "occ",
				"energy": -0.24245,
				"method": "rhf"
			},
			{
				"type": "occ",
				"energy": -0.19208,
				"method": "rhf"
			},
			{
				"type": "unocc",
				"energy": 0.00631,
				"method": "rhf"
			},
			{
				"type": "unocc",
				"energy": 0.02315,
				"method": "rhf"
			},
			{
				"type": "unocc",
				"energy": 0.06384,
				"method": "rhf"
			},
			{
				"type": "unocc",
				"energy": 0.07721,
				"method": "rhf"
			},
			{
				"type": "unocc",
				"energy": 0.10554,
				"method": "rhf"
			}
		],
		"cosmo_sigma_profile": { 
			"-0.025": 0.0,
			"-0.024": 0.0,
			"-0.023": 0.0,
			"-0.022": 0.0,
			"-0.021": 0.0,
			"-0.02": 0.0,
			"-0.019": 0.0,
			"-0.018": 0.0,
			"-0.017": 0.0,
			"-0.016": 0.190422781791,
			"-0.015": 1.14672190734,
			"-0.014": 0.682578755684,
			"-0.013": 1.67531075927,
			"-0.012": 1.91591586482,
			"-0.011": 2.27854759397,
			"-0.01": 3.02871332431,
			"-0.009": 2.24314526622,
			"-0.008": 2.28142298235,
			"-0.007": 3.7731254331,
			"-0.006": 5.59650361619,
			"-0.005": 10.629037528,
			"-0.004": 14.9782225182,
			"-0.003": 17.3335527476,
			"-0.002": 15.7152661468,
			"-0.001": 13.7431585603,
			"0.0": 11.9106967752,
			"0.001": 8.74833326102,
			"0.002": 8.43340877695,
			"0.003": 8.26724520162,
			"0.004": 8.74942362336,
			"0.005": 9.41673029015,
			"0.006": 10.4821876783,
			"0.007": 10.2782492214,
			"0.008": 5.31149420559,
			"0.009": 2.11152425035,
			"0.01": 1.40921785848,
			"0.011": 0.842107865585,
			"0.012": 1.2575471581,
			"0.013": 1.84061080717,
			"0.014": 2.36970499672,
			"0.015": 0.784718953064,
			"0.016": 0.0,
			"0.017": 0.0,
			"0.018": 0.0,
			"0.019": 0.0,
			"0.02": 0.0,
			"0.021": 0.0,
			"0.022": 0.0,
			"0.023": 0.0,
			"0.024": 0.0,
			"0.025": 0.0
		}
	}
}
