{
	 "smiles": "CN(C)S(=O)(=O)C1=CC(N)=C(C=C1)N1CCOCC1", 
	 "Tm": 448.15, 
	 "num_atms": 38, 
	 "gaussian": { 
		 "optdone": 1, 
		 "sigma_profile": "yes", 
		 "theory": "DFT", 
		 "functional": "B3LYP", 
		 "basiset": "6-31G**", 
		 "properties": { 
			 "R2extent": 8418.1768, 
			 "electric_dipole_moment_norm": 6.51817245399, 
			 "electric_quadrupole_moment_norm": 32.0564156162, 
			 "total_energy": -1256.7403817, 
			 "HOMO_LUMO_gap": 0.1801, 
			 "cosmo_polarized_energy": -21.2, 
			 "cosmo_cavitation_energy": 39.71, 
			 "cosmo_dispersion_energy": -28.88, 
			 "cosmo_repulsion_energy": 2.18, 
			 "cosmo_total_nonelectrostatic_energy": 13.01, 
			 "SMD_solvation_energy": 4.08 
		},
		"coords": [
			{
				"x": 0.9601369433,
				"y": 0.6173837588,
				"z": 5.3514911098,
				"element": "C" 
			},
			{
				"x": 2.2862404262,
				"y": 0.5752406601,
				"z": 4.7333967012,
				"element": "N" 
			},
			{
				"x": 2.7661837917,
				"y": 1.858818752,
				"z": 4.2203801303,
				"element": "C" 
			},
			{
				"x": 2.6139887602,
				"y": -0.7800590462,
				"z": 3.7671734567,
				"element": "S" 
			},
			{
				"x": 4.0141724557,
				"y": -0.6484726917,
				"z": 3.3551301518,
				"element": "O" 
			},
			{
				"x": 2.1311759123,
				"y": -1.9372915619,
				"z": 4.5242134589,
				"element": "O" 
			},
			{
				"x": 1.6002786158,
				"y": -0.6312838803,
				"z": 2.295687901,
				"element": "C" 
			},
			{
				"x": 2.1167027343,
				"y": 0.0283386001,
				"z": 1.1772698075,
				"element": "C" 
			},
			{
				"x": 1.3291633793,
				"y": 0.2030321673,
				"z": 0.0363368728,
				"element": "C" 
			},
			{
				"x": 1.8202838735,
				"y": 0.8661927517,
				"z": -1.0909583477,
				"element": "N" 
			},
			{
				"x": 0.007375996,
				"y": -0.3269812622,
				"z": 0.0102627056,
				"element": "C" 
			},
			{
				"x": -0.4884527293,
				"y": -0.9582833259,
				"z": 1.1585825106,
				"element": "C" 
			},
			{
				"x": 0.2927740775,
				"y": -1.1147532813,
				"z": 2.3042619109,
				"element": "C" 
			},
			{
				"x": -0.7579577036,
				"y": -0.1444359651,
				"z": -1.1649902726,
				"element": "N" 
			},
			{
				"x": -2.2167836054,
				"y": -0.1987724506,
				"z": -1.042963018,
				"element": "C" 
			},
			{
				"x": -2.8450421435,
				"y": 0.040355105,
				"z": -2.4111072446,
				"element": "C" 
			},
			{
				"x": -2.5050156703,
				"y": -0.9780553341,
				"z": -3.3515900272,
				"element": "O" 
			},
			{
				"x": -1.3067916116,
				"y": -1.6805068146,
				"z": -3.0367803041,
				"element": "C" 
			},
			{
				"x": -0.2484457161,
				"y": -0.7729977485,
				"z": -2.415740792,
				"element": "C" 
			},
			{
				"x": 0.723300273,
				"y": -0.3633713186,
				"z": 5.7630682747,
				"element": "H" 
			},
			{
				"x": 0.9918509853,
				"y": 1.3404822916,
				"z": 6.1720176852,
				"element": "H" 
			},
			{
				"x": 0.1699797881,
				"y": 0.9222186339,
				"z": 4.6474185913,
				"element": "H" 
			},
			{
				"x": 2.1270603577,
				"y": 2.2657865901,
				"z": 3.4207481194,
				"element": "H" 
			},
			{
				"x": 3.7842335839,
				"y": 1.7408710322,
				"z": 3.8499880677,
				"element": "H" 
			},
			{
				"x": 2.7786960056,
				"y": 2.5721706063,
				"z": 5.0499001537,
				"element": "H" 
			},
			{
				"x": 3.1368148622,
				"y": 0.3987530487,
				"z": 1.1967459239,
				"element": "H" 
			},
			{
				"x": 2.6283477204,
				"y": 1.4471455151,
				"z": -0.9103270384,
				"element": "H" 
			},
			{
				"x": 1.0965828785,
				"y": 1.3667153473,
				"z": -1.5942550796,
				"element": "H" 
			},
			{
				"x": -1.4957525914,
				"y": -1.3586984746,
				"z": 1.1563824637,
				"element": "H" 
			},
			{
				"x": -0.0891547292,
				"y": -1.6449369348,
				"z": 3.1687158925,
				"element": "H" 
			},
			{
				"x": -2.5843936069,
				"y": -1.1644933023,
				"z": -0.6582019107,
				"element": "H" 
			},
			{
				"x": -2.5453756712,
				"y": 0.5751323387,
				"z": -0.3402598227,
				"element": "H" 
			},
			{
				"x": -3.9369224722,
				"y": 0.0512425097,
				"z": -2.3234866813,
				"element": "H" 
			},
			{
				"x": -2.5258590339,
				"y": 1.023238051,
				"z": -2.7905089634,
				"element": "H" 
			},
			{
				"x": -0.9326154013,
				"y": -2.0968416265,
				"z": -3.9775655643,
				"element": "H" 
			},
			{
				"x": -1.5178804013,
				"y": -2.5245747132,
				"z": -2.3617478266,
				"element": "H" 
			},
			{
				"x": 0.6507794111,
				"y": -1.3543109362,
				"z": -2.1982858584,
				"element": "H" 
			},
			{
				"x": 0.0300202559,
				"y": -0.0043970909,
				"z": -3.1481031373,
				"element": "H" 
			}
		],
		 "valence_orbital": [ 
			{
				"type": "occ",
				"energy": -0.282,
				"method": "rhf"
			},
			{
				"type": "occ",
				"energy": -0.25849,
				"method": "rhf"
			},
			{
				"type": "occ",
				"energy": -0.25156,
				"method": "rhf"
			},
			{
				"type": "occ",
				"energy": -0.235,
				"method": "rhf"
			},
			{
				"type": "occ",
				"energy": -0.20433,
				"method": "rhf"
			},
			{
				"type": "unocc",
				"energy": -0.02423,
				"method": "rhf"
			},
			{
				"type": "unocc",
				"energy": -0.00396,
				"method": "rhf"
			},
			{
				"type": "unocc",
				"energy": 0.06712,
				"method": "rhf"
			},
			{
				"type": "unocc",
				"energy": 0.06899,
				"method": "rhf"
			},
			{
				"type": "unocc",
				"energy": 0.07618,
				"method": "rhf"
			}
		],
		"cosmo_sigma_profile": { 
			"-0.025": 0.0,
			"-0.024": 0.0,
			"-0.023": 0.0,
			"-0.022": 0.0,
			"-0.021": 0.0,
			"-0.02": 0.0,
			"-0.019": 0.0,
			"-0.018": 0.0,
			"-0.017": 0.0,
			"-0.016": 0.0,
			"-0.015": 0.0,
			"-0.014": 0.0,
			"-0.013": 0.355494916113,
			"-0.012": 1.99097242347,
			"-0.011": 1.61551678204,
			"-0.01": 2.94921053735,
			"-0.009": 2.55304322074,
			"-0.008": 3.26796316707,
			"-0.007": 3.08377189241,
			"-0.006": 11.5871858563,
			"-0.005": 24.5593559868,
			"-0.004": 38.5191018665,
			"-0.003": 39.1761391978,
			"-0.002": 36.8753033563,
			"-0.001": 16.9238328697,
			"0.0": 12.5386858862,
			"0.001": 11.108442676,
			"0.002": 11.0113407965,
			"0.003": 14.7471440831,
			"0.004": 14.7956691992,
			"0.005": 8.90364822506,
			"0.006": 6.58345017313,
			"0.007": 6.53451530475,
			"0.008": 6.10848937487,
			"0.009": 6.68812323395,
			"0.01": 7.74629975949,
			"0.011": 9.05355013878,
			"0.012": 8.77742266374,
			"0.013": 2.30332347894,
			"0.014": 0.89811140874,
			"0.015": 0.0,
			"0.016": 0.0,
			"0.017": 0.0,
			"0.018": 0.0,
			"0.019": 0.0,
			"0.02": 0.0,
			"0.021": 0.0,
			"0.022": 0.0,
			"0.023": 0.0,
			"0.024": 0.0,
			"0.025": 0.0
		}
	}
}
