{
	 "smiles": "[O-][N+](=O)C1=C(OC2=CC=C(F)C=C2)N=CC=C1", 
	 "Tm": 371.65, 
	 "num_atms": 24, 
	 "gaussian": { 
		 "optdone": 1, 
		 "sigma_profile": "yes", 
		 "theory": "DFT", 
		 "functional": "B3LYP", 
		 "basiset": "6-31G**", 
		 "properties": { 
			 "R2extent": 4722.8836, 
			 "electric_dipole_moment_norm": 4.13851571823, 
			 "electric_quadrupole_moment_norm": 16.2897066576, 
			 "total_energy": -858.274430837, 
			 "HOMO_LUMO_gap": 0.1531, 
			 "cosmo_polarized_energy": -12.57, 
			 "cosmo_cavitation_energy": 31.03, 
			 "cosmo_dispersion_energy": -21.99, 
			 "cosmo_repulsion_energy": 1.69, 
			 "cosmo_total_nonelectrostatic_energy": 10.73, 
			 "SMD_solvation_energy": 7.5 
		},
		"coords": [
			{
				"x": -2.1543868204,
				"y": -1.3508711862,
				"z": 3.535783327,
				"element": "O" 
			},
			{
				"x": -1.4896591764,
				"y": -1.3834755668,
				"z": 2.496742409,
				"element": "N" 
			},
			{
				"x": -1.4509250866,
				"y": -2.3305573383,
				"z": 1.7184619987,
				"element": "O" 
			},
			{
				"x": -0.6733915983,
				"y": -0.1998063735,
				"z": 2.2000309467,
				"element": "C" 
			},
			{
				"x": -0.1470399491,
				"y": 0.0885339266,
				"z": 0.9168705127,
				"element": "C" 
			},
			{
				"x": -0.4391618011,
				"y": -0.7231075529,
				"z": -0.1172464774,
				"element": "O" 
			},
			{
				"x": 0.028508999,
				"y": -0.4028782396,
				"z": -1.3983431051,
				"element": "C" 
			},
			{
				"x": -0.6785332455,
				"y": 0.4989083326,
				"z": -2.1897061881,
				"element": "C" 
			},
			{
				"x": -0.2620496238,
				"y": 0.7306394085,
				"z": -3.499761516,
				"element": "C" 
			},
			{
				"x": 0.8502457664,
				"y": 0.0479271797,
				"z": -3.9818940058,
				"element": "C" 
			},
			{
				"x": 1.2528418796,
				"y": 0.2701249864,
				"z": -5.2500176798,
				"element": "F" 
			},
			{
				"x": 1.5557388216,
				"y": -0.8600754124,
				"z": -3.2001616441,
				"element": "C" 
			},
			{
				"x": 1.1360971136,
				"y": -1.0873613727,
				"z": -1.889290905,
				"element": "C" 
			},
			{
				"x": 0.6090726993,
				"y": 1.1600348311,
				"z": 0.7027213209,
				"element": "N" 
			},
			{
				"x": 0.8766647581,
				"y": 1.9822710551,
				"z": 1.7214939434,
				"element": "C" 
			},
			{
				"x": 0.3907545735,
				"y": 1.7945125583,
				"z": 3.0142773849,
				"element": "C" 
			},
			{
				"x": -0.4049328206,
				"y": 0.677561438,
				"z": 3.2466823443,
				"element": "C" 
			},
			{
				"x": -1.545768626,
				"y": 1.0085294717,
				"z": -1.7844316491,
				"element": "H" 
			},
			{
				"x": -0.786980138,
				"y": 1.4249360001,
				"z": -4.1463930044,
				"element": "H" 
			},
			{
				"x": 2.4127901303,
				"y": -1.3763146577,
				"z": -3.618049017,
				"element": "H" 
			},
			{
				"x": 1.6543614542,
				"y": -1.7945324277,
				"z": -1.2510443714,
				"element": "H" 
			},
			{
				"x": 1.5111862011,
				"y": 2.8340713483,
				"z": 1.4851971016,
				"element": "H" 
			},
			{
				"x": 0.6284495018,
				"y": 2.4930734606,
				"z": 3.8081637046,
				"element": "H" 
			},
			{
				"x": -0.8272830126,
				"y": 0.4584561308,
				"z": 4.2198145695,
				"element": "H" 
			}
		],
		 "valence_orbital": [ 
			{
				"type": "occ",
				"energy": -0.29318,
				"method": "rhf"
			},
			{
				"type": "occ",
				"energy": -0.2871,
				"method": "rhf"
			},
			{
				"type": "occ",
				"energy": -0.27187,
				"method": "rhf"
			},
			{
				"type": "occ",
				"energy": -0.26658,
				"method": "rhf"
			},
			{
				"type": "occ",
				"energy": -0.24528,
				"method": "rhf"
			},
			{
				"type": "unocc",
				"energy": -0.09218,
				"method": "rhf"
			},
			{
				"type": "unocc",
				"energy": -0.03859,
				"method": "rhf"
			},
			{
				"type": "unocc",
				"energy": -0.02259,
				"method": "rhf"
			},
			{
				"type": "unocc",
				"energy": -0.011,
				"method": "rhf"
			},
			{
				"type": "unocc",
				"energy": -0.00449,
				"method": "rhf"
			}
		],
		"cosmo_sigma_profile": { 
			"-0.025": 0.0,
			"-0.024": 0.0,
			"-0.023": 0.0,
			"-0.022": 0.0,
			"-0.021": 0.0,
			"-0.02": 0.0,
			"-0.019": 0.0,
			"-0.018": 0.0,
			"-0.017": 0.0,
			"-0.016": 0.0,
			"-0.015": 0.0,
			"-0.014": 0.0,
			"-0.013": 0.0,
			"-0.012": 0.0,
			"-0.011": 0.0,
			"-0.01": 0.0,
			"-0.009": 1.079070588,
			"-0.008": 9.59523196547,
			"-0.007": 16.0138857508,
			"-0.006": 14.9063112996,
			"-0.005": 14.772504686,
			"-0.004": 15.0232080343,
			"-0.003": 16.008658113,
			"-0.002": 15.3359387202,
			"-0.001": 14.6463941082,
			"0.0": 20.3199320615,
			"0.001": 18.4467130695,
			"0.002": 18.3318811221,
			"0.003": 14.1965692599,
			"0.004": 14.8547519788,
			"0.005": 8.06104655061,
			"0.006": 5.98080399398,
			"0.007": 8.39204178406,
			"0.008": 10.1791144062,
			"0.009": 6.99494074955,
			"0.01": 5.03427641059,
			"0.011": 1.77074853244,
			"0.012": 0.853836934915,
			"0.013": 0.0907819045089,
			"0.014": 0.0,
			"0.015": 0.0,
			"0.016": 0.0,
			"0.017": 0.0,
			"0.018": 0.0,
			"0.019": 0.0,
			"0.02": 0.0,
			"0.021": 0.0,
			"0.022": 0.0,
			"0.023": 0.0,
			"0.024": 0.0,
			"0.025": 0.0
		}
	}
}
