{
	 "smiles": "CC1=C(C)C=C(C=C1)C(=O)CCl", 
	 "Tm": 325.15, 
	 "num_atms": 23, 
	 "gaussian": { 
		 "optdone": 1, 
		 "sigma_profile": "yes", 
		 "theory": "DFT", 
		 "functional": "B3LYP", 
		 "basiset": "6-31G**", 
		 "properties": { 
			 "R2extent": 3780.6435, 
			 "electric_dipole_moment_norm": 3.69000519918, 
			 "electric_quadrupole_moment_norm": 13.8517154237, 
			 "total_energy": -923.123831594, 
			 "HOMO_LUMO_gap": 0.18214, 
			 "cosmo_polarized_energy": -8.79, 
			 "cosmo_cavitation_energy": 28.13, 
			 "cosmo_dispersion_energy": -20.36, 
			 "cosmo_repulsion_energy": 1.62, 
			 "cosmo_total_nonelectrostatic_energy": 9.4, 
			 "SMD_solvation_energy": 5.12 
		},
		"coords": [
			{
				"x": -1.7050150724,
				"y": -0.2976906469,
				"z": -1.8012774745,
				"element": "C" 
			},
			{
				"x": -0.7876358607,
				"y": -0.1579962418,
				"z": -0.6122665592,
				"element": "C" 
			},
			{
				"x": -0.8710737209,
				"y": -1.0585126648,
				"z": 0.4764148739,
				"element": "C" 
			},
			{
				"x": -1.8796676343,
				"y": -2.1824778508,
				"z": 0.4762142667,
				"element": "C" 
			},
			{
				"x": -0.0043974607,
				"y": -0.8934898372,
				"z": 1.5542123893,
				"element": "C" 
			},
			{
				"x": 0.9457550346,
				"y": 0.1402712437,
				"z": 1.5926793109,
				"element": "C" 
			},
			{
				"x": 1.0203644054,
				"y": 1.0286864058,
				"z": 0.511944427,
				"element": "C" 
			},
			{
				"x": 0.1604104717,
				"y": 0.8711728834,
				"z": -0.5719296526,
				"element": "C" 
			},
			{
				"x": 1.8437358942,
				"y": 0.214615108,
				"z": 2.777064457,
				"element": "C" 
			},
			{
				"x": 1.800774684,
				"y": -0.6097102708,
				"z": 3.6774168385,
				"element": "O" 
			},
			{
				"x": 2.8936208066,
				"y": 1.3277991963,
				"z": 2.8711822508,
				"element": "C" 
			},
			{
				"x": 2.1366770948,
				"y": 2.9517240707,
				"z": 3.1722949046,
				"element": "Cl" 
			},
			{
				"x": -2.7584628424,
				"y": -0.2177197939,
				"z": -1.5069784826,
				"element": "H" 
			},
			{
				"x": -1.5887492987,
				"y": -1.2744721899,
				"z": -2.286177688,
				"element": "H" 
			},
			{
				"x": -1.5060801916,
				"y": 0.4741679189,
				"z": -2.5487803064,
				"element": "H" 
			},
			{
				"x": -1.7330663692,
				"y": -2.8580278552,
				"z": -0.3752308821,
				"element": "H" 
			},
			{
				"x": -2.9065907989,
				"y": -1.8041792043,
				"z": 0.405485841,
				"element": "H" 
			},
			{
				"x": -1.8048187082,
				"y": -2.7761188691,
				"z": 1.3904087465,
				"element": "H" 
			},
			{
				"x": -0.0457195334,
				"y": -1.5738432928,
				"z": 2.3991793184,
				"element": "H" 
			},
			{
				"x": 1.7291439563,
				"y": 1.8495109987,
				"z": 0.5120007288,
				"element": "H" 
			},
			{
				"x": 0.2222711489,
				"y": 1.5644711137,
				"z": -1.406553009,
				"element": "H" 
			},
			{
				"x": 3.5357610736,
				"y": 1.1110933653,
				"z": 3.7225952457,
				"element": "H" 
			},
			{
				"x": 3.4866629213,
				"y": 1.417526413,
				"z": 1.9592004553,
				"element": "H" 
			}
		],
		 "valence_orbital": [ 
			{
				"type": "occ",
				"energy": -0.3138,
				"method": "rhf"
			},
			{
				"type": "occ",
				"energy": -0.30281,
				"method": "rhf"
			},
			{
				"type": "occ",
				"energy": -0.25685,
				"method": "rhf"
			},
			{
				"type": "occ",
				"energy": -0.25511,
				"method": "rhf"
			},
			{
				"type": "occ",
				"energy": -0.24929,
				"method": "rhf"
			},
			{
				"type": "unocc",
				"energy": -0.06715,
				"method": "rhf"
			},
			{
				"type": "unocc",
				"energy": -0.00771,
				"method": "rhf"
			},
			{
				"type": "unocc",
				"energy": 0.00579,
				"method": "rhf"
			},
			{
				"type": "unocc",
				"energy": 0.05465,
				"method": "rhf"
			},
			{
				"type": "unocc",
				"energy": 0.0856,
				"method": "rhf"
			}
		],
		"cosmo_sigma_profile": { 
			"-0.025": 0.0,
			"-0.024": 0.0,
			"-0.023": 0.0,
			"-0.022": 0.0,
			"-0.021": 0.0,
			"-0.02": 0.0,
			"-0.019": 0.0,
			"-0.018": 0.0,
			"-0.017": 0.0,
			"-0.016": 0.0,
			"-0.015": 0.0,
			"-0.014": 0.0,
			"-0.013": 0.0,
			"-0.012": 0.0,
			"-0.011": 0.0,
			"-0.01": 0.0785338565181,
			"-0.009": 2.58475357157,
			"-0.008": 4.57073991064,
			"-0.007": 3.87923675529,
			"-0.006": 6.928703948,
			"-0.005": 15.390688387,
			"-0.004": 21.3060939504,
			"-0.003": 16.0335243486,
			"-0.002": 16.7418174606,
			"-0.001": 19.2554038067,
			"0.0": 23.6189618906,
			"0.001": 15.8637453894,
			"0.002": 14.3398501763,
			"0.003": 14.5920038667,
			"0.004": 19.4351739685,
			"0.005": 11.9072074437,
			"0.006": 4.88547810331,
			"0.007": 1.43985288711,
			"0.008": 1.8573995734,
			"0.009": 1.5411523534,
			"0.01": 2.85458142002,
			"0.011": 3.96413472699,
			"0.012": 1.89050908785,
			"0.013": 0.101961925427,
			"0.014": 0.0,
			"0.015": 0.0,
			"0.016": 0.0,
			"0.017": 0.0,
			"0.018": 0.0,
			"0.019": 0.0,
			"0.02": 0.0,
			"0.021": 0.0,
			"0.022": 0.0,
			"0.023": 0.0,
			"0.024": 0.0,
			"0.025": 0.0
		}
	}
}
