{
	 "smiles": "CCCCOC(=O)C1=C(O)C=CC=C1", 
	 "Tm": 267.25, 
	 "num_atms": 28, 
	 "gaussian": { 
		 "optdone": 1, 
		 "sigma_profile": "yes", 
		 "theory": "DFT", 
		 "functional": "B3LYP", 
		 "basiset": "6-31G**", 
		 "properties": { 
			 "R2extent": 3423.2893, 
			 "electric_dipole_moment_norm": 1.21063766256, 
			 "electric_quadrupole_moment_norm": 12.1786487317, 
			 "total_energy": -653.308562225, 
			 "HOMO_LUMO_gap": 0.18192, 
			 "cosmo_polarized_energy": -8.14, 
			 "cosmo_cavitation_energy": 30.79, 
			 "cosmo_dispersion_energy": -21.87, 
			 "cosmo_repulsion_energy": 1.73, 
			 "cosmo_total_nonelectrostatic_energy": 10.65, 
			 "SMD_solvation_energy": 6.16 
		},
		"coords": [
			{
				"x": 2.4126701028,
				"y": -0.3552285281,
				"z": 1.1384216154,
				"element": "C" 
			},
			{
				"x": 1.7046826782,
				"y": -0.6642547949,
				"z": 2.4642491746,
				"element": "C" 
			},
			{
				"x": 0.3307185425,
				"y": 0.0026275586,
				"z": 2.6559585468,
				"element": "C" 
			},
			{
				"x": -0.8296207235,
				"y": -0.5954568177,
				"z": 1.865416043,
				"element": "C" 
			},
			{
				"x": -0.6955226777,
				"y": -0.4188721992,
				"z": 0.4287911275,
				"element": "O" 
			},
			{
				"x": -1.139324068,
				"y": 0.7693735675,
				"z": -0.0998137282,
				"element": "C" 
			},
			{
				"x": -1.6438936787,
				"y": 1.6297543303,
				"z": 0.5919338234,
				"element": "O" 
			},
			{
				"x": -0.9292741367,
				"y": 0.8621532344,
				"z": -1.5631071017,
				"element": "C" 
			},
			{
				"x": -0.3384636425,
				"y": -0.149776663,
				"z": -2.3606047956,
				"element": "C" 
			},
			{
				"x": 0.0993435274,
				"y": -1.3364042457,
				"z": -1.8828988642,
				"element": "O" 
			},
			{
				"x": -0.1831992242,
				"y": 0.0660163459,
				"z": -3.7394148647,
				"element": "C" 
			},
			{
				"x": -0.6054359241,
				"y": 1.2533729767,
				"z": -4.320016886,
				"element": "C" 
			},
			{
				"x": -1.1953173614,
				"y": 2.2603426965,
				"z": -3.5421477758,
				"element": "C" 
			},
			{
				"x": -1.3501754439,
				"y": 2.0564456552,
				"z": -2.1805926924,
				"element": "C" 
			},
			{
				"x": 3.4153267615,
				"y": -0.7951145425,
				"z": 1.1252343331,
				"element": "H" 
			},
			{
				"x": 2.5247660973,
				"y": 0.7260204269,
				"z": 0.9982023946,
				"element": "H" 
			},
			{
				"x": 1.870102735,
				"y": -0.7437631209,
				"z": 0.2734216183,
				"element": "H" 
			},
			{
				"x": 2.3516999258,
				"y": -0.3372493214,
				"z": 3.287793175,
				"element": "H" 
			},
			{
				"x": 1.5976306864,
				"y": -1.7516614005,
				"z": 2.5836589504,
				"element": "H" 
			},
			{
				"x": 0.3889384055,
				"y": 1.0755545112,
				"z": 2.4393617049,
				"element": "H" 
			},
			{
				"x": 0.0425901553,
				"y": -0.0793616474,
				"z": 3.7128544242,
				"element": "H" 
			},
			{
				"x": -0.883586937,
				"y": -1.6797233334,
				"z": 1.9977657611,
				"element": "H" 
			},
			{
				"x": -1.7753898113,
				"y": -0.1432738213,
				"z": 2.1700416177,
				"element": "H" 
			},
			{
				"x": -0.1003476076,
				"y": -1.3671653726,
				"z": -0.9287632862,
				"element": "H" 
			},
			{
				"x": 0.2728168505,
				"y": -0.7234789911,
				"z": -4.3272963068,
				"element": "H" 
			},
			{
				"x": -0.4760667613,
				"y": 1.3983421647,
				"z": -5.3890140703,
				"element": "H" 
			},
			{
				"x": -1.5255970282,
				"y": 3.1873550486,
				"z": -3.9991390528,
				"element": "H" 
			},
			{
				"x": -1.7998714422,
				"y": 2.8127262831,
				"z": -1.5461948853,
				"element": "H" 
			}
		],
		 "valence_orbital": [ 
			{
				"type": "occ",
				"energy": -0.32723,
				"method": "rhf"
			},
			{
				"type": "occ",
				"energy": -0.30263,
				"method": "rhf"
			},
			{
				"type": "occ",
				"energy": -0.28283,
				"method": "rhf"
			},
			{
				"type": "occ",
				"energy": -0.25892,
				"method": "rhf"
			},
			{
				"type": "occ",
				"energy": -0.22698,
				"method": "rhf"
			},
			{
				"type": "unocc",
				"energy": -0.04506,
				"method": "rhf"
			},
			{
				"type": "unocc",
				"energy": 0.00604,
				"method": "rhf"
			},
			{
				"type": "unocc",
				"energy": 0.05527,
				"method": "rhf"
			},
			{
				"type": "unocc",
				"energy": 0.08163,
				"method": "rhf"
			},
			{
				"type": "unocc",
				"energy": 0.09701,
				"method": "rhf"
			}
		],
		"cosmo_sigma_profile": { 
			"-0.025": 0.0,
			"-0.024": 0.0,
			"-0.023": 0.0,
			"-0.022": 0.0,
			"-0.021": 0.0,
			"-0.02": 0.0,
			"-0.019": 0.0,
			"-0.018": 0.0,
			"-0.017": 0.0,
			"-0.016": 0.0,
			"-0.015": 0.0,
			"-0.014": 0.0,
			"-0.013": 0.0,
			"-0.012": 0.0,
			"-0.011": 0.0,
			"-0.01": 0.29259035038,
			"-0.009": 0.568736582446,
			"-0.008": 0.498831232582,
			"-0.007": 2.19598250632,
			"-0.006": 9.74280695636,
			"-0.005": 14.1045420545,
			"-0.004": 19.9898795316,
			"-0.003": 22.2394830345,
			"-0.002": 28.032073607,
			"-0.001": 26.5457971883,
			"0.0": 23.5609968189,
			"0.001": 23.3367923912,
			"0.002": 16.2110457176,
			"0.003": 15.0864083424,
			"0.004": 12.301813741,
			"0.005": 6.38297231198,
			"0.006": 3.04089921883,
			"0.007": 2.43096151793,
			"0.008": 3.00632442168,
			"0.009": 2.86690833063,
			"0.01": 3.43155871983,
			"0.011": 4.77236384098,
			"0.012": 2.61734968417,
			"0.013": 0.0,
			"0.014": 0.0,
			"0.015": 0.0,
			"0.016": 0.0,
			"0.017": 0.0,
			"0.018": 0.0,
			"0.019": 0.0,
			"0.02": 0.0,
			"0.021": 0.0,
			"0.022": 0.0,
			"0.023": 0.0,
			"0.024": 0.0,
			"0.025": 0.0
		}
	}
}
