{
	 "smiles": "CN(C1CCCCC1)S(=O)(=O)C1=C(N)C=CC=C1", 
	 "Tm": 372.65, 
	 "num_atms": 38, 
	 "gaussian": { 
		 "optdone": 1, 
		 "sigma_profile": "yes", 
		 "theory": "DFT", 
		 "functional": "B3LYP", 
		 "basiset": "6-31G**", 
		 "properties": { 
			 "R2extent": 5082.8235, 
			 "electric_dipole_moment_norm": 3.78796412206, 
			 "electric_quadrupole_moment_norm": 21.8872185417, 
			 "total_energy": -1165.5089774, 
			 "HOMO_LUMO_gap": 0.18763, 
			 "cosmo_polarized_energy": -13.84, 
			 "cosmo_cavitation_energy": 37.4, 
			 "cosmo_dispersion_energy": -27.2, 
			 "cosmo_repulsion_energy": 2.02, 
			 "cosmo_total_nonelectrostatic_energy": 12.22, 
			 "SMD_solvation_energy": 4.77 
		},
		"coords": [
			{
				"x": 0.2856963083,
				"y": 0.0259396587,
				"z": 2.2935835557,
				"element": "C" 
			},
			{
				"x": 0.488097816,
				"y": -0.4231696807,
				"z": 0.9054882284,
				"element": "N" 
			},
			{
				"x": 0.4252771848,
				"y": -1.9086708873,
				"z": 0.6042671888,
				"element": "C" 
			},
			{
				"x": -0.3157164204,
				"y": -2.1665869516,
				"z": -0.7187148085,
				"element": "C" 
			},
			{
				"x": -1.7704195816,
				"y": -1.6486049522,
				"z": -0.7029554529,
				"element": "C" 
			},
			{
				"x": -2.410203105,
				"y": -1.7172922318,
				"z": 0.7025138357,
				"element": "C" 
			},
			{
				"x": -1.8128143151,
				"y": -2.8548605593,
				"z": 1.5443021905,
				"element": "C" 
			},
			{
				"x": -0.2717569185,
				"y": -2.7411845923,
				"z": 1.7100047204,
				"element": "C" 
			},
			{
				"x": 1.8574213841,
				"y": 0.338407998,
				"z": 0.2257722132,
				"element": "S" 
			},
			{
				"x": 2.0535190448,
				"y": -0.258990225,
				"z": -1.109609334,
				"element": "O" 
			},
			{
				"x": 2.9791163071,
				"y": 0.3300496054,
				"z": 1.1765259866,
				"element": "O" 
			},
			{
				"x": 1.3214478401,
				"y": 2.032136477,
				"z": 0.0210954454,
				"element": "C" 
			},
			{
				"x": 0.4606258185,
				"y": 2.4102115373,
				"z": -1.0406943782,
				"element": "C" 
			},
			{
				"x": -0.0367814404,
				"y": 1.5068656077,
				"z": -1.9559896014,
				"element": "N" 
			},
			{
				"x": 0.0916900843,
				"y": 3.7705349556,
				"z": -1.1097501399,
				"element": "C" 
			},
			{
				"x": 0.5668089508,
				"y": 4.6977082204,
				"z": -0.1927425132,
				"element": "C" 
			},
			{
				"x": 1.4408099401,
				"y": 4.3144135935,
				"z": 0.830940815,
				"element": "C" 
			},
			{
				"x": 1.8152688892,
				"y": 2.9792775938,
				"z": 0.9265610151,
				"element": "C" 
			},
			{
				"x": 1.0407322149,
				"y": -0.3543679431,
				"z": 2.9925364119,
				"element": "H" 
			},
			{
				"x": 0.3118839577,
				"y": 1.1173319141,
				"z": 2.3163548097,
				"element": "H" 
			},
			{
				"x": -0.7067191224,
				"y": -0.2773453655,
				"z": 2.6266895654,
				"element": "H" 
			},
			{
				"x": 1.4520511978,
				"y": -2.2810522175,
				"z": 0.5175282196,
				"element": "H" 
			},
			{
				"x": -0.3087517266,
				"y": -3.2550880424,
				"z": -0.8660302731,
				"element": "H" 
			},
			{
				"x": 0.2410135582,
				"y": -1.7419434823,
				"z": -1.5545811399,
				"element": "H" 
			},
			{
				"x": -2.3592094182,
				"y": -2.2433147527,
				"z": -1.4120901541,
				"element": "H" 
			},
			{
				"x": -1.7945498682,
				"y": -0.615121628,
				"z": -1.060841683,
				"element": "H" 
			},
			{
				"x": -2.2563558156,
				"y": -0.7626182153,
				"z": 1.217131545,
				"element": "H" 
			},
			{
				"x": -3.4957966446,
				"y": -1.8448428701,
				"z": 0.6216381785,
				"element": "H" 
			},
			{
				"x": -2.2909843984,
				"y": -2.8915673328,
				"z": 2.5297049756,
				"element": "H" 
			},
			{
				"x": -2.0531260038,
				"y": -3.809000207,
				"z": 1.0586389462,
				"element": "H" 
			},
			{
				"x": 0.1642887498,
				"y": -3.744171443,
				"z": 1.6482881041,
				"element": "H" 
			},
			{
				"x": -0.0069332418,
				"y": -2.3761442326,
				"z": 2.704383713,
				"element": "H" 
			},
			{
				"x": 0.528297488,
				"y": 0.6780047041,
				"z": -2.1019017966,
				"element": "H" 
			},
			{
				"x": -0.4202015652,
				"y": 1.9092193986,
				"z": -2.7986802112,
				"element": "H" 
			},
			{
				"x": -0.5736322869,
				"y": 4.0869130503,
				"z": -1.9092451252,
				"element": "H" 
			},
			{
				"x": 0.2613516663,
				"y": 5.7362498369,
				"z": -0.2852354364,
				"element": "H" 
			},
			{
				"x": 1.8248909051,
				"y": 5.0435768171,
				"z": 1.5361225869,
				"element": "H" 
			},
			{
				"x": 2.5030625667,
				"y": 2.6437968443,
				"z": 1.6951897972,
				"element": "H" 
			}
		],
		 "valence_orbital": [ 
			{
				"type": "occ",
				"energy": -0.29719,
				"method": "rhf"
			},
			{
				"type": "occ",
				"energy": -0.28891,
				"method": "rhf"
			},
			{
				"type": "occ",
				"energy": -0.26709,
				"method": "rhf"
			},
			{
				"type": "occ",
				"energy": -0.2405,
				"method": "rhf"
			},
			{
				"type": "occ",
				"energy": -0.21637,
				"method": "rhf"
			},
			{
				"type": "unocc",
				"energy": -0.02874,
				"method": "rhf"
			},
			{
				"type": "unocc",
				"energy": 0.00023,
				"method": "rhf"
			},
			{
				"type": "unocc",
				"energy": 0.06014,
				"method": "rhf"
			},
			{
				"type": "unocc",
				"energy": 0.06974,
				"method": "rhf"
			},
			{
				"type": "unocc",
				"energy": 0.081,
				"method": "rhf"
			}
		],
		"cosmo_sigma_profile": { 
			"-0.025": 0.0,
			"-0.024": 0.0,
			"-0.023": 0.0,
			"-0.022": 0.0,
			"-0.021": 0.0,
			"-0.02": 0.0,
			"-0.019": 0.0,
			"-0.018": 0.0,
			"-0.017": 0.0,
			"-0.016": 0.0,
			"-0.015": 0.0,
			"-0.014": 0.234852637726,
			"-0.013": 1.51759253333,
			"-0.012": 1.11187930541,
			"-0.011": 1.7635463566,
			"-0.01": 1.63914116429,
			"-0.009": 2.4039654829,
			"-0.008": 2.0036384804,
			"-0.007": 3.54284624262,
			"-0.006": 8.30417531804,
			"-0.005": 11.9129980635,
			"-0.004": 23.3170082871,
			"-0.003": 28.9128702308,
			"-0.002": 34.457117485,
			"-0.001": 27.5587633412,
			"0.0": 26.9982801926,
			"0.001": 29.2378081769,
			"0.002": 17.5258427595,
			"0.003": 13.0900626174,
			"0.004": 14.0769355262,
			"0.005": 8.17127265161,
			"0.006": 4.69392902023,
			"0.007": 4.21990406735,
			"0.008": 5.11879886073,
			"0.009": 5.1005006126,
			"0.01": 4.76753392529,
			"0.011": 6.20952504932,
			"0.012": 4.95650245645,
			"0.013": 0.167420092049,
			"0.014": 0.0,
			"0.015": 0.0,
			"0.016": 0.0,
			"0.017": 0.0,
			"0.018": 0.0,
			"0.019": 0.0,
			"0.02": 0.0,
			"0.021": 0.0,
			"0.022": 0.0,
			"0.023": 0.0,
			"0.024": 0.0,
			"0.025": 0.0
		}
	}
}
