{
	 "smiles": "COC1=CC2=C(C=C1OC)C(N(CC2)C(C)=O)C1=CC=CC=C1", 
	 "Tm": 469.15, 
	 "num_atms": 44, 
	 "gaussian": { 
		 "optdone": 1, 
		 "sigma_profile": "yes", 
		 "theory": "DFT", 
		 "functional": "B3LYP", 
		 "basiset": "6-31G**", 
		 "properties": { 
			 "R2extent": 7920.1334, 
			 "electric_dipole_moment_norm": 2.13696816308, 
			 "electric_quadrupole_moment_norm": 20.2458281841, 
			 "total_energy": -1017.09182984, 
			 "HOMO_LUMO_gap": 0.2077, 
			 "cosmo_polarized_energy": -15.35, 
			 "cosmo_cavitation_energy": 45.04, 
			 "cosmo_dispersion_energy": -31.11, 
			 "cosmo_repulsion_energy": 2.39, 
			 "cosmo_total_nonelectrostatic_energy": 16.32, 
			 "SMD_solvation_energy": 9.06 
		},
		"coords": [
			{
				"x": 1.5825944667,
				"y": -4.3249408576,
				"z": 3.0967318976,
				"element": "C" 
			},
			{
				"x": 0.6230773454,
				"y": -3.2722418572,
				"z": 3.219474597,
				"element": "O" 
			},
			{
				"x": 0.5646133219,
				"y": -2.3831737666,
				"z": 2.1747152756,
				"element": "C" 
			},
			{
				"x": -0.5989239735,
				"y": -2.3261778292,
				"z": 1.4118520927,
				"element": "C" 
			},
			{
				"x": -0.7438234965,
				"y": -1.3934577073,
				"z": 0.3806678723,
				"element": "C" 
			},
			{
				"x": 0.3112413235,
				"y": -0.5209771951,
				"z": 0.0972687494,
				"element": "C" 
			},
			{
				"x": 1.4888424787,
				"y": -0.5718117877,
				"z": 0.8514587878,
				"element": "C" 
			},
			{
				"x": 1.6235711913,
				"y": -1.4873756291,
				"z": 1.8990490302,
				"element": "C" 
			},
			{
				"x": 2.7232652531,
				"y": -1.5889637085,
				"z": 2.7030123691,
				"element": "O" 
			},
			{
				"x": 3.7950950264,
				"y": -0.6829041301,
				"z": 2.4894215652,
				"element": "C" 
			},
			{
				"x": 0.138988767,
				"y": 0.4729784479,
				"z": -1.0329331544,
				"element": "C" 
			},
			{
				"x": -0.5119456864,
				"y": -0.1997217221,
				"z": -2.1888475889,
				"element": "N" 
			},
			{
				"x": -1.5900165821,
				"y": -1.175452233,
				"z": -1.9631442802,
				"element": "C" 
			},
			{
				"x": -1.9757647292,
				"y": -1.2720976522,
				"z": -0.47929506,
				"element": "C" 
			},
			{
				"x": 0.0336325136,
				"y": 0.001140943,
				"z": -3.4339681913,
				"element": "C" 
			},
			{
				"x": -0.5729425424,
				"y": -0.7832979089,
				"z": -4.5883037601,
				"element": "C" 
			},
			{
				"x": 0.9645357791,
				"y": 0.7839272991,
				"z": -3.6259213519,
				"element": "O" 
			},
			{
				"x": -0.5901452275,
				"y": 1.770820469,
				"z": -0.6419753816,
				"element": "C" 
			},
			{
				"x": -0.7072196374,
				"y": 2.7909616818,
				"z": -1.6004946024,
				"element": "C" 
			},
			{
				"x": -1.346376956,
				"y": 3.9893000646,
				"z": -1.2882171854,
				"element": "C" 
			},
			{
				"x": -1.8773513527,
				"y": 4.1945550377,
				"z": -0.0116343535,
				"element": "C" 
			},
			{
				"x": -1.7548769724,
				"y": 3.1928785131,
				"z": 0.9496896552,
				"element": "C" 
			},
			{
				"x": -1.1120375181,
				"y": 1.991061199,
				"z": 0.6375774856,
				"element": "C" 
			},
			{
				"x": 2.6048363427,
				"y": -3.937307402,
				"z": 3.0694169049,
				"element": "H" 
			},
			{
				"x": 1.4544617231,
				"y": -4.9555788101,
				"z": 3.9790144111,
				"element": "H" 
			},
			{
				"x": 1.3933994311,
				"y": -4.9235702042,
				"z": 2.195865455,
				"element": "H" 
			},
			{
				"x": -1.3953756634,
				"y": -3.0243942144,
				"z": 1.6532389389,
				"element": "H" 
			},
			{
				"x": 2.2936001094,
				"y": 0.1161291063,
				"z": 0.6177209329,
				"element": "H" 
			},
			{
				"x": 4.2365016917,
				"y": -0.8033093544,
				"z": 1.491739204,
				"element": "H" 
			},
			{
				"x": 3.473170072,
				"y": 0.3584058278,
				"z": 2.6156972248,
				"element": "H" 
			},
			{
				"x": 4.5448233897,
				"y": -0.9216005227,
				"z": 3.2451943038,
				"element": "H" 
			},
			{
				"x": 1.1219630589,
				"y": 0.7633077119,
				"z": -1.4127629749,
				"element": "H" 
			},
			{
				"x": -1.2648675501,
				"y": -2.1678697092,
				"z": -2.3019782313,
				"element": "H" 
			},
			{
				"x": -2.4740575884,
				"y": -0.9027207816,
				"z": -2.5518576582,
				"element": "H" 
			},
			{
				"x": -2.6414211297,
				"y": -2.1305704646,
				"z": -0.3461957689,
				"element": "H" 
			},
			{
				"x": -2.545445877,
				"y": -0.378168231,
				"z": -0.1964642099,
				"element": "H" 
			},
			{
				"x": -0.0432727987,
				"y": -0.4954005414,
				"z": -5.495679176,
				"element": "H" 
			},
			{
				"x": -0.4738757678,
				"y": -1.8640487714,
				"z": -4.4413042903,
				"element": "H" 
			},
			{
				"x": -1.6393476578,
				"y": -0.5656809163,
				"z": -4.7093077493,
				"element": "H" 
			},
			{
				"x": -0.2776466398,
				"y": 2.6411087291,
				"z": -2.5860991927,
				"element": "H" 
			},
			{
				"x": -1.4245575462,
				"y": 4.7684386582,
				"z": -2.0417037185,
				"element": "H" 
			},
			{
				"x": -2.3750171175,
				"y": 5.1293095036,
				"z": 0.2309855994,
				"element": "H" 
			},
			{
				"x": -2.1566700668,
				"y": 3.3423852021,
				"z": 1.948199495,
				"element": "H" 
			},
			{
				"x": -1.0141332077,
				"y": 1.2243055137,
				"z": 1.3994960321,
				"element": "H" 
			}
		],
		 "valence_orbital": [ 
			{
				"type": "occ",
				"energy": -0.24284,
				"method": "rhf"
			},
			{
				"type": "occ",
				"energy": -0.24085,
				"method": "rhf"
			},
			{
				"type": "occ",
				"energy": -0.2368,
				"method": "rhf"
			},
			{
				"type": "occ",
				"energy": -0.22831,
				"method": "rhf"
			},
			{
				"type": "occ",
				"energy": -0.21127,
				"method": "rhf"
			},
			{
				"type": "unocc",
				"energy": -0.00357,
				"method": "rhf"
			},
			{
				"type": "unocc",
				"energy": -0.00103,
				"method": "rhf"
			},
			{
				"type": "unocc",
				"energy": 0.00631,
				"method": "rhf"
			},
			{
				"type": "unocc",
				"energy": 0.00978,
				"method": "rhf"
			},
			{
				"type": "unocc",
				"energy": 0.03422,
				"method": "rhf"
			}
		],
		"cosmo_sigma_profile": { 
			"-0.025": 0.0,
			"-0.024": 0.0,
			"-0.023": 0.0,
			"-0.022": 0.0,
			"-0.021": 0.0,
			"-0.02": 0.0,
			"-0.019": 0.0,
			"-0.018": 0.0,
			"-0.017": 0.0,
			"-0.016": 0.0,
			"-0.015": 0.0,
			"-0.014": 0.0,
			"-0.013": 0.0,
			"-0.012": 0.0,
			"-0.011": 0.0,
			"-0.01": 0.0,
			"-0.009": 0.0,
			"-0.008": 0.0,
			"-0.007": 1.68178781703,
			"-0.006": 16.5754831526,
			"-0.005": 33.9111922698,
			"-0.004": 37.5534286429,
			"-0.003": 43.5494279968,
			"-0.002": 35.0088483397,
			"-0.001": 29.6480340038,
			"0.0": 21.1570885098,
			"0.001": 19.2333710961,
			"0.002": 20.7937900404,
			"0.003": 21.6240848723,
			"0.004": 20.2956985716,
			"0.005": 13.7958328613,
			"0.006": 11.8707750298,
			"0.007": 4.33870286418,
			"0.008": 3.73085750227,
			"0.009": 3.41451663284,
			"0.01": 3.29618229006,
			"0.011": 3.63196427399,
			"0.012": 3.27641676054,
			"0.013": 2.31075176592,
			"0.014": 3.62839498938,
			"0.015": 1.85342785486,
			"0.016": 0.110673352213,
			"0.017": 0.0,
			"0.018": 0.0,
			"0.019": 0.0,
			"0.02": 0.0,
			"0.021": 0.0,
			"0.022": 0.0,
			"0.023": 0.0,
			"0.024": 0.0,
			"0.025": 0.0
		}
	}
}
