{
	 "smiles": "NCCCCCCN", 
	 "Tm": 313.35, 
	 "num_atms": 24, 
	 "gaussian": { 
		 "optdone": 1, 
		 "sigma_profile": "yes", 
		 "theory": "DFT", 
		 "functional": "B3LYP", 
		 "basiset": "6-31G**", 
		 "properties": { 
			 "R2extent": 2154.6838, 
			 "electric_dipole_moment_norm": 0.388968803376, 
			 "electric_quadrupole_moment_norm": 13.7098822045, 
			 "total_energy": -347.785732652, 
			 "HOMO_LUMO_gap": 0.2964, 
			 "cosmo_polarized_energy": -9.35, 
			 "cosmo_cavitation_energy": 25.37, 
			 "cosmo_dispersion_energy": -18.38, 
			 "cosmo_repulsion_energy": 1.59, 
			 "cosmo_total_nonelectrostatic_energy": 8.59, 
			 "SMD_solvation_energy": 1.18 
		},
		"coords": [
			{
				"x": -3.1699938629,
				"y": 0.6192049943,
				"z": 0.6152142068,
				"element": "N" 
			},
			{
				"x": -2.6124360874,
				"y": 1.4141528935,
				"z": -0.4866193215,
				"element": "C" 
			},
			{
				"x": -1.6413489291,
				"y": 0.585388338,
				"z": -1.3374743384,
				"element": "C" 
			},
			{
				"x": -0.3999754605,
				"y": 0.0591369427,
				"z": -0.596661628,
				"element": "C" 
			},
			{
				"x": 0.5395435396,
				"y": 1.1458347591,
				"z": -0.0540690673,
				"element": "C" 
			},
			{
				"x": 1.8034465584,
				"y": 0.5805200465,
				"z": 0.6073525676,
				"element": "C" 
			},
			{
				"x": 2.7468743026,
				"y": 1.6635923374,
				"z": 1.1553971019,
				"element": "C" 
			},
			{
				"x": 3.9752300736,
				"y": 1.187905514,
				"z": 1.7981218386,
				"element": "N" 
			},
			{
				"x": -3.9096624337,
				"y": 1.1425810717,
				"z": 1.0768237239,
				"element": "H" 
			},
			{
				"x": -2.45822646,
				"y": 0.4609593376,
				"z": 1.3243954679,
				"element": "H" 
			},
			{
				"x": -3.4488086769,
				"y": 1.7241462694,
				"z": -1.1243013268,
				"element": "H" 
			},
			{
				"x": -2.1160681329,
				"y": 2.3448181594,
				"z": -0.1583365711,
				"element": "H" 
			},
			{
				"x": -2.1947581526,
				"y": -0.2677923361,
				"z": -1.7470550444,
				"element": "H" 
			},
			{
				"x": -1.3190168406,
				"y": 1.198772857,
				"z": -2.1901998793,
				"element": "H" 
			},
			{
				"x": -0.7165463366,
				"y": -0.5977913733,
				"z": 0.2252247318,
				"element": "H" 
			},
			{
				"x": 0.1653344856,
				"y": -0.5844838626,
				"z": -1.2838505069,
				"element": "H" 
			},
			{
				"x": 0.0079632001,
				"y": 1.7751237092,
				"z": 0.6733065292,
				"element": "H" 
			},
			{
				"x": 0.8291341519,
				"y": 1.8169346468,
				"z": -0.8755856092,
				"element": "H" 
			},
			{
				"x": 1.5183555581,
				"y": -0.0943469088,
				"z": 1.4282060403,
				"element": "H" 
			},
			{
				"x": 2.3514767824,
				"y": -0.038085632,
				"z": -0.1186178044,
				"element": "H" 
			},
			{
				"x": 2.2063864754,
				"y": 2.2824320957,
				"z": 1.8838532947,
				"element": "H" 
			},
			{
				"x": 3.0361928208,
				"y": 2.3401285184,
				"z": 0.3405276364,
				"element": "H" 
			},
			{
				"x": 4.5086875138,
				"y": 0.6236982567,
				"z": 1.1394544718,
				"element": "H" 
			},
			{
				"x": 3.7387159111,
				"y": 0.5653693654,
				"z": 2.5683934866,
				"element": "H" 
			}
		],
		 "valence_orbital": [ 
			{
				"type": "occ",
				"energy": -0.32318,
				"method": "rhf"
			},
			{
				"type": "occ",
				"energy": -0.31868,
				"method": "rhf"
			},
			{
				"type": "occ",
				"energy": -0.3186,
				"method": "rhf"
			},
			{
				"type": "occ",
				"energy": -0.22997,
				"method": "rhf"
			},
			{
				"type": "occ",
				"energy": -0.22801,
				"method": "rhf"
			},
			{
				"type": "unocc",
				"energy": 0.06839,
				"method": "rhf"
			},
			{
				"type": "unocc",
				"energy": 0.0842,
				"method": "rhf"
			},
			{
				"type": "unocc",
				"energy": 0.10903,
				"method": "rhf"
			},
			{
				"type": "unocc",
				"energy": 0.117,
				"method": "rhf"
			},
			{
				"type": "unocc",
				"energy": 0.12032,
				"method": "rhf"
			}
		],
		"cosmo_sigma_profile": { 
			"-0.025": 0.0,
			"-0.024": 0.0,
			"-0.023": 0.0,
			"-0.022": 0.0,
			"-0.021": 0.0,
			"-0.02": 0.0,
			"-0.019": 0.0,
			"-0.018": 0.0,
			"-0.017": 0.0,
			"-0.016": 0.0,
			"-0.015": 0.0,
			"-0.014": 0.0,
			"-0.013": 0.0,
			"-0.012": 0.0,
			"-0.011": 0.0,
			"-0.01": 0.261651421579,
			"-0.009": 3.27734604016,
			"-0.008": 5.32824532508,
			"-0.007": 5.17285056288,
			"-0.006": 6.83689573694,
			"-0.005": 5.88747934007,
			"-0.004": 5.22815516973,
			"-0.003": 11.0508719789,
			"-0.002": 27.8092012899,
			"-0.001": 35.7330888179,
			"0.0": 30.7981199281,
			"0.001": 19.3147512154,
			"0.002": 8.9704175489,
			"0.003": 2.30939872241,
			"0.004": 2.57328849555,
			"0.005": 1.76935738933,
			"0.006": 1.59222488248,
			"0.007": 1.3765527824,
			"0.008": 2.26955184649,
			"0.009": 1.9810514111,
			"0.01": 1.04912607565,
			"0.011": 1.54901566126,
			"0.012": 1.03415637196,
			"0.013": 1.28499079847,
			"0.014": 1.25530741173,
			"0.015": 1.28163399414,
			"0.016": 1.5381873889,
			"0.017": 1.26038622382,
			"0.018": 1.16175342224,
			"0.019": 1.06295634297,
			"0.02": 1.24976495419,
			"0.021": 0.109368092519,
			"0.022": 0.0,
			"0.023": 0.0,
			"0.024": 0.0,
			"0.025": 0.0
		}
	}
}
