{
	 "smiles": "BrCCCCCN1C(=O)C2=CC=CC=C2C1=O", 
	 "Tm": 333.15, 
	 "num_atms": 31, 
	 "gaussian": { 
		 "optdone": 1, 
		 "sigma_profile": "yes", 
		 "theory": "DFT", 
		 "functional": "B3LYP", 
		 "basiset": "6-31G**", 
		 "properties": { 
			 "R2extent": 9018.1135, 
			 "electric_dipole_moment_norm": 3.91734744055, 
			 "electric_quadrupole_moment_norm": 17.4097501272, 
			 "total_energy": -3280.47574767, 
			 "HOMO_LUMO_gap": 0.18097, 
			 "cosmo_polarized_energy": -12.96, 
			 "cosmo_cavitation_energy": 37.56, 
			 "cosmo_dispersion_energy": -26.58, 
			 "cosmo_repulsion_energy": 2.1, 
			 "cosmo_total_nonelectrostatic_energy": 13.08, 
			 "SMD_solvation_energy": 5.66 
		},
		"coords": [
			{
				"x": 2.0353344358,
				"y": 5.0937066035,
				"z": 0.5042557112,
				"element": "Br" 
			},
			{
				"x": 0.9537785627,
				"y": 3.529225308,
				"z": -0.0589366237,
				"element": "C" 
			},
			{
				"x": 1.8031667897,
				"y": 2.4759839346,
				"z": -0.754045552,
				"element": "C" 
			},
			{
				"x": 0.9565890501,
				"y": 1.2675737704,
				"z": -1.187332247,
				"element": "C" 
			},
			{
				"x": 1.7963354478,
				"y": 0.1888398666,
				"z": -1.8833997841,
				"element": "C" 
			},
			{
				"x": 0.9872918217,
				"y": -1.0187429635,
				"z": -2.3772896124,
				"element": "C" 
			},
			{
				"x": 0.3569698279,
				"y": -1.781773701,
				"z": -1.3045867601,
				"element": "N" 
			},
			{
				"x": -1.0029948848,
				"y": -1.6889510205,
				"z": -0.9634314351,
				"element": "C" 
			},
			{
				"x": -1.8110079949,
				"y": -0.9479013963,
				"z": -1.4887186089,
				"element": "O" 
			},
			{
				"x": -1.2086428253,
				"y": -2.6720787597,
				"z": 0.1422980589,
				"element": "C" 
			},
			{
				"x": -2.3550902493,
				"y": -2.9894223685,
				"z": 0.8559638204,
				"element": "C" 
			},
			{
				"x": -2.2436626362,
				"y": -3.9694792673,
				"z": 1.8516527312,
				"element": "C" 
			},
			{
				"x": -1.0204894468,
				"y": -4.6010469655,
				"z": 2.1111405281,
				"element": "C" 
			},
			{
				"x": 0.1317698456,
				"y": -4.2735632187,
				"z": 1.3835283583,
				"element": "C" 
			},
			{
				"x": 0.0109485729,
				"y": -3.3017796176,
				"z": 0.4010458667,
				"element": "C" 
			},
			{
				"x": 1.0330852209,
				"y": -2.7416525997,
				"z": -0.5332291789,
				"element": "C" 
			},
			{
				"x": 2.2094054255,
				"y": -3.0270662637,
				"z": -0.644831665,
				"element": "O" 
			},
			{
				"x": 0.4942224682,
				"y": 3.1554692778,
				"z": 0.8565087947,
				"element": "H" 
			},
			{
				"x": 0.1800181728,
				"y": 3.9364056736,
				"z": -0.7103606981,
				"element": "H" 
			},
			{
				"x": 2.2923922305,
				"y": 2.9230828536,
				"z": -1.6271814489,
				"element": "H" 
			},
			{
				"x": 2.6024737827,
				"y": 2.1499523158,
				"z": -0.078552127,
				"element": "H" 
			},
			{
				"x": 0.1533078877,
				"y": 1.5964664227,
				"z": -1.8595742495,
				"element": "H" 
			},
			{
				"x": 0.4597211408,
				"y": 0.8372701102,
				"z": -0.3084720973,
				"element": "H" 
			},
			{
				"x": 2.3010522499,
				"y": 0.6229897956,
				"z": -2.7565118153,
				"element": "H" 
			},
			{
				"x": 2.5873993594,
				"y": -0.1672149609,
				"z": -1.2127886225,
				"element": "H" 
			},
			{
				"x": 1.6433014322,
				"y": -1.7041696841,
				"z": -2.9215658533,
				"element": "H" 
			},
			{
				"x": 0.1809935501,
				"y": -0.6998234877,
				"z": -3.0437179967,
				"element": "H" 
			},
			{
				"x": -3.2976650426,
				"y": -2.4945383835,
				"z": 0.6453855303,
				"element": "H" 
			},
			{
				"x": -3.118670684,
				"y": -4.2456750041,
				"z": 2.4323940515,
				"element": "H" 
			},
			{
				"x": -0.9665580461,
				"y": -5.3567658439,
				"z": 2.8890681915,
				"element": "H" 
			},
			{
				"x": 1.0842245351,
				"y": -4.7571204262,
				"z": 1.5750847329,
				"element": "H" 
			}
		],
		 "valence_orbital": [ 
			{
				"type": "occ",
				"energy": -0.2808,
				"method": "rhf"
			},
			{
				"type": "occ",
				"energy": -0.27055,
				"method": "rhf"
			},
			{
				"type": "occ",
				"energy": -0.27037,
				"method": "rhf"
			},
			{
				"type": "occ",
				"energy": -0.26708,
				"method": "rhf"
			},
			{
				"type": "occ",
				"energy": -0.26562,
				"method": "rhf"
			},
			{
				"type": "unocc",
				"energy": -0.08465,
				"method": "rhf"
			},
			{
				"type": "unocc",
				"energy": -0.04365,
				"method": "rhf"
			},
			{
				"type": "unocc",
				"energy": 0.00533,
				"method": "rhf"
			},
			{
				"type": "unocc",
				"energy": 0.02515,
				"method": "rhf"
			},
			{
				"type": "unocc",
				"energy": 0.06868,
				"method": "rhf"
			}
		],
		"cosmo_sigma_profile": { 
			"-0.025": 0.0,
			"-0.024": 0.0,
			"-0.023": 0.0,
			"-0.022": 0.0,
			"-0.021": 0.0,
			"-0.02": 0.0,
			"-0.019": 0.0,
			"-0.018": 0.0,
			"-0.017": 0.0,
			"-0.016": 0.0,
			"-0.015": 0.0,
			"-0.014": 0.0,
			"-0.013": 0.0,
			"-0.012": 0.0,
			"-0.011": 0.0,
			"-0.01": 0.0,
			"-0.009": 0.0,
			"-0.008": 1.2879139595,
			"-0.007": 9.49329097343,
			"-0.006": 14.6777517282,
			"-0.005": 20.1932099079,
			"-0.004": 28.1255123661,
			"-0.003": 39.4786826455,
			"-0.002": 28.5816813021,
			"-0.001": 22.3998560481,
			"0.0": 20.410094578,
			"0.001": 17.9329046595,
			"0.002": 20.8714634356,
			"0.003": 12.1076869084,
			"0.004": 8.22128523556,
			"0.005": 10.3128700944,
			"0.006": 13.4235402771,
			"0.007": 8.39521040673,
			"0.008": 3.39001330487,
			"0.009": 3.43529549528,
			"0.01": 4.83943686978,
			"0.011": 8.40358788059,
			"0.012": 4.72632155222,
			"0.013": 0.0880005701058,
			"0.014": 0.0,
			"0.015": 0.0,
			"0.016": 0.0,
			"0.017": 0.0,
			"0.018": 0.0,
			"0.019": 0.0,
			"0.02": 0.0,
			"0.021": 0.0,
			"0.022": 0.0,
			"0.023": 0.0,
			"0.024": 0.0,
			"0.025": 0.0
		}
	}
}
