{
	 "smiles": "CN1CCNCC1", 
	 "Tm": 267.15, 
	 "num_atms": 19, 
	 "gaussian": { 
		 "optdone": 1, 
		 "sigma_profile": "yes", 
		 "theory": "DFT", 
		 "functional": "B3LYP", 
		 "basiset": "6-31G**", 
		 "properties": { 
			 "R2extent": 932.9066, 
			 "electric_dipole_moment_norm": 1.27092597739, 
			 "electric_quadrupole_moment_norm": 5.19131328953, 
			 "total_energy": -307.241847199, 
			 "HOMO_LUMO_gap": 0.28412, 
			 "cosmo_polarized_energy": -4.79, 
			 "cosmo_cavitation_energy": 19.61, 
			 "cosmo_dispersion_energy": -15.11, 
			 "cosmo_repulsion_energy": 1.27, 
			 "cosmo_total_nonelectrostatic_energy": 5.77, 
			 "SMD_solvation_energy": -1.59 
		},
		"coords": [
			{
				"x": 1.0678144791,
				"y": 1.4341039946,
				"z": 0.2620578261,
				"element": "C" 
			},
			{
				"x": 0.3954113962,
				"y": 0.2157255642,
				"z": 0.6762652914,
				"element": "N" 
			},
			{
				"x": 1.0735520565,
				"y": -0.9981750033,
				"z": 0.2310066348,
				"element": "C" 
			},
			{
				"x": 0.48089646,
				"y": -2.2179789639,
				"z": 0.9943750607,
				"element": "C" 
			},
			{
				"x": -0.8675772033,
				"y": -1.9738007663,
				"z": 1.5212341336,
				"element": "N" 
			},
			{
				"x": -1.6456723259,
				"y": -1.1843625664,
				"z": 0.5683473697,
				"element": "C" 
			},
			{
				"x": -1.0095112975,
				"y": 0.2028817213,
				"z": 0.2622994379,
				"element": "C" 
			},
			{
				"x": 2.0923254025,
				"y": 1.4448158406,
				"z": 0.6490282415,
				"element": "H" 
			},
			{
				"x": 0.5406586426,
				"y": 2.3031345956,
				"z": 0.6713754207,
				"element": "H" 
			},
			{
				"x": 1.1159398269,
				"y": 1.558232789,
				"z": -0.8375923028,
				"element": "H" 
			},
			{
				"x": 2.1445462653,
				"y": -0.9008627878,
				"z": 0.4404138053,
				"element": "H" 
			},
			{
				"x": 0.9793219436,
				"y": -1.1390411117,
				"z": -0.8651577345,
				"element": "H" 
			},
			{
				"x": 0.4486271651,
				"y": -3.0878320253,
				"z": 0.3253010763,
				"element": "H" 
			},
			{
				"x": 1.1237955609,
				"y": -2.4871642414,
				"z": 1.8381568407,
				"element": "H" 
			},
			{
				"x": -0.7708512529,
				"y": -1.4247306861,
				"z": 2.3723149391,
				"element": "H" 
			},
			{
				"x": -1.7279208408,
				"y": -1.7710505981,
				"z": -0.3548249515,
				"element": "H" 
			},
			{
				"x": -2.6640853017,
				"y": -1.0578458323,
				"z": 0.9498204167,
				"element": "H" 
			},
			{
				"x": -1.5291040628,
				"y": 0.9993446432,
				"z": 0.8104965032,
				"element": "H" 
			},
			{
				"x": -1.1196669138,
				"y": 0.4339054342,
				"z": -0.8173180091,
				"element": "H" 
			}
		],
		 "valence_orbital": [ 
			{
				"type": "occ",
				"energy": -0.35138,
				"method": "rhf"
			},
			{
				"type": "occ",
				"energy": -0.33923,
				"method": "rhf"
			},
			{
				"type": "occ",
				"energy": -0.32239,
				"method": "rhf"
			},
			{
				"type": "occ",
				"energy": -0.21589,
				"method": "rhf"
			},
			{
				"type": "occ",
				"energy": -0.20851,
				"method": "rhf"
			},
			{
				"type": "unocc",
				"energy": 0.07561,
				"method": "rhf"
			},
			{
				"type": "unocc",
				"energy": 0.11076,
				"method": "rhf"
			},
			{
				"type": "unocc",
				"energy": 0.11726,
				"method": "rhf"
			},
			{
				"type": "unocc",
				"energy": 0.12637,
				"method": "rhf"
			},
			{
				"type": "unocc",
				"energy": 0.13409,
				"method": "rhf"
			}
		],
		"cosmo_sigma_profile": { 
			"-0.025": 0.0,
			"-0.024": 0.0,
			"-0.023": 0.0,
			"-0.022": 0.0,
			"-0.021": 0.0,
			"-0.02": 0.0,
			"-0.019": 0.0,
			"-0.018": 0.0,
			"-0.017": 0.0,
			"-0.016": 0.0,
			"-0.015": 0.0,
			"-0.014": 0.0,
			"-0.013": 0.0,
			"-0.012": 0.0,
			"-0.011": 0.0,
			"-0.01": 0.0,
			"-0.009": 0.611846296461,
			"-0.008": 0.804501786898,
			"-0.007": 0.946345801462,
			"-0.006": 1.18076447507,
			"-0.005": 1.24911855163,
			"-0.004": 6.58466507356,
			"-0.003": 21.8075289885,
			"-0.002": 25.507405617,
			"-0.001": 30.9261307426,
			"0.0": 26.9449908213,
			"0.001": 9.34926440725,
			"0.002": 3.26864514673,
			"0.003": 2.40089241179,
			"0.004": 2.2989800525,
			"0.005": 1.439808751,
			"0.006": 1.93545891656,
			"0.007": 1.72440917271,
			"0.008": 1.70476274606,
			"0.009": 1.21050823024,
			"0.01": 1.28802349848,
			"0.011": 0.844248529897,
			"0.012": 1.37485064711,
			"0.013": 1.19609299785,
			"0.014": 0.872721566068,
			"0.015": 0.891101937388,
			"0.016": 0.649004026317,
			"0.017": 0.663960743854,
			"0.018": 0.499461841607,
			"0.019": 0.392104180103,
			"0.02": 0.0,
			"0.021": 0.0,
			"0.022": 0.0,
			"0.023": 0.0,
			"0.024": 0.0,
			"0.025": 0.0
		}
	}
}
