{
	 "smiles": "COC(=O)C1=CNC(=O)C(=C1)[N+]([O-])=O", 
	 "Tm": 488.15, 
	 "num_atms": 20, 
	 "gaussian": { 
		 "optdone": 1, 
		 "sigma_profile": "yes", 
		 "theory": "DFT", 
		 "functional": "B3LYP", 
		 "basiset": "6-31G**", 
		 "properties": { 
			 "R2extent": 4675.2982, 
			 "electric_dipole_moment_norm": 8.5642577028, 
			 "electric_quadrupole_moment_norm": 27.7188390334, 
			 "total_energy": -755.884882392, 
			 "HOMO_LUMO_gap": 0.15842, 
			 "cosmo_polarized_energy": -23.69, 
			 "cosmo_cavitation_energy": 26.6, 
			 "cosmo_dispersion_energy": -19.43, 
			 "cosmo_repulsion_energy": 1.53, 
			 "cosmo_total_nonelectrostatic_energy": 8.7, 
			 "SMD_solvation_energy": 9.5 
		},
		"coords": [
			{
				"x": -2.1973918736,
				"y": 2.3408731351,
				"z": -1.2568871581,
				"element": "C" 
			},
			{
				"x": -2.2598522045,
				"y": 1.250335913,
				"z": -0.3196851949,
				"element": "O" 
			},
			{
				"x": -1.0759325049,
				"y": 0.6536053321,
				"z": -0.0510857255,
				"element": "C" 
			},
			{
				"x": -0.020237373,
				"y": 0.9891388834,
				"z": -0.547461702,
				"element": "O" 
			},
			{
				"x": -1.2200205745,
				"y": -0.4559504101,
				"z": 0.9191358915,
				"element": "C" 
			},
			{
				"x": -2.4318313334,
				"y": -0.8192884036,
				"z": 1.4622419826,
				"element": "C" 
			},
			{
				"x": -2.5030948183,
				"y": -1.8368880828,
				"z": 2.3413431096,
				"element": "N" 
			},
			{
				"x": -1.4192467188,
				"y": -2.6419526775,
				"z": 2.8132130797,
				"element": "C" 
			},
			{
				"x": -1.6493970011,
				"y": -3.5009468358,
				"z": 3.6411477831,
				"element": "O" 
			},
			{
				"x": -0.1563828587,
				"y": -2.2341654407,
				"z": 2.1935371765,
				"element": "C" 
			},
			{
				"x": -0.0709292753,
				"y": -1.1904485347,
				"z": 1.3147667988,
				"element": "C" 
			},
			{
				"x": 1.0749950948,
				"y": -2.9643882748,
				"z": 2.5124808082,
				"element": "N" 
			},
			{
				"x": 0.9664023884,
				"y": -4.0954047592,
				"z": 2.971225177,
				"element": "O" 
			},
			{
				"x": 2.1413999416,
				"y": -2.3917581424,
				"z": 2.2734425838,
				"element": "O" 
			},
			{
				"x": -3.2211187457,
				"y": 2.7004560478,
				"z": -1.3562106671,
				"element": "H" 
			},
			{
				"x": -1.8149039951,
				"y": 1.9955627106,
				"z": -2.2201351944,
				"element": "H" 
			},
			{
				"x": -1.5457112642,
				"y": 3.132220215,
				"z": -0.8794758942,
				"element": "H" 
			},
			{
				"x": -3.3560853454,
				"y": -0.3126559981,
				"z": 1.2109894155,
				"element": "H" 
			},
			{
				"x": -3.3923430754,
				"y": -2.0986354198,
				"z": 2.7527766232,
				"element": "H" 
			},
			{
				"x": 0.8960815369,
				"y": -0.9186092574,
				"z": 0.9061411066,
				"element": "H" 
			}
		],
		 "valence_orbital": [ 
			{
				"type": "occ",
				"energy": -0.30457,
				"method": "rhf"
			},
			{
				"type": "occ",
				"energy": -0.30008,
				"method": "rhf"
			},
			{
				"type": "occ",
				"energy": -0.29208,
				"method": "rhf"
			},
			{
				"type": "occ",
				"energy": -0.27468,
				"method": "rhf"
			},
			{
				"type": "occ",
				"energy": -0.25908,
				"method": "rhf"
			},
			{
				"type": "unocc",
				"energy": -0.10066,
				"method": "rhf"
			},
			{
				"type": "unocc",
				"energy": -0.05896,
				"method": "rhf"
			},
			{
				"type": "unocc",
				"energy": -0.04177,
				"method": "rhf"
			},
			{
				"type": "unocc",
				"energy": 0.04245,
				"method": "rhf"
			},
			{
				"type": "unocc",
				"energy": 0.04378,
				"method": "rhf"
			}
		],
		"cosmo_sigma_profile": { 
			"-0.025": 0.0,
			"-0.024": 0.0,
			"-0.023": 0.0,
			"-0.022": 0.0,
			"-0.021": 0.0,
			"-0.02": 0.0,
			"-0.019": 0.105339458525,
			"-0.018": 1.50173650793,
			"-0.017": 1.576276351,
			"-0.016": 1.17679794408,
			"-0.015": 1.54882905402,
			"-0.014": 1.19035457613,
			"-0.013": 1.72328365251,
			"-0.012": 1.31663358803,
			"-0.011": 2.1197677119,
			"-0.01": 1.5411837676,
			"-0.009": 1.69341106078,
			"-0.008": 2.02045936323,
			"-0.007": 4.70675799774,
			"-0.006": 13.4844638806,
			"-0.005": 17.6933370429,
			"-0.004": 23.2010620373,
			"-0.003": 22.0829751997,
			"-0.002": 13.9404908716,
			"-0.001": 7.66269963769,
			"0.0": 6.28719711972,
			"0.001": 6.50858571486,
			"0.002": 5.00480610689,
			"0.003": 5.62627266064,
			"0.004": 6.41573244427,
			"0.005": 5.61395882158,
			"0.006": 5.62496174809,
			"0.007": 7.4232803916,
			"0.008": 11.5125372168,
			"0.009": 8.42011606943,
			"0.01": 6.19123081129,
			"0.011": 8.42371829275,
			"0.012": 6.50111886143,
			"0.013": 1.94851735026,
			"0.014": 1.37052122589,
			"0.015": 0.173443052157,
			"0.016": 0.0,
			"0.017": 0.0,
			"0.018": 0.0,
			"0.019": 0.0,
			"0.02": 0.0,
			"0.021": 0.0,
			"0.022": 0.0,
			"0.023": 0.0,
			"0.024": 0.0,
			"0.025": 0.0
		}
	}
}
