{
	 "smiles": "N1C=C2C=CN=CC2=N1", 
	 "Tm": 378.15, 
	 "num_atms": 14, 
	 "gaussian": { 
		 "optdone": 1, 
		 "sigma_profile": "yes", 
		 "theory": "DFT", 
		 "functional": "B3LYP", 
		 "basiset": "6-31G**", 
		 "properties": { 
			 "R2extent": 1433.9044, 
			 "electric_dipole_moment_norm": 4.59857946436, 
			 "electric_quadrupole_moment_norm": 5.64193064651, 
			 "total_energy": -395.870539853, 
			 "HOMO_LUMO_gap": 0.17281, 
			 "cosmo_polarized_energy": -13.46, 
			 "cosmo_cavitation_energy": 18.22, 
			 "cosmo_dispersion_energy": -14.13, 
			 "cosmo_repulsion_energy": 1.14, 
			 "cosmo_total_nonelectrostatic_energy": 5.24, 
			 "SMD_solvation_energy": 1.03 
		},
		"coords": [
			{
				"x": 0.4764183469,
				"y": -0.9084332718,
				"z": 0.2998091582,
				"element": "N" 
			},
			{
				"x": -0.3346972639,
				"y": -0.3511638285,
				"z": 1.2332425111,
				"element": "C" 
			},
			{
				"x": -0.2083952149,
				"y": 1.028466392,
				"z": 1.0515412365,
				"element": "C" 
			},
			{
				"x": -0.7303913847,
				"y": 2.2114241914,
				"z": 1.6317820211,
				"element": "C" 
			},
			{
				"x": -0.301847585,
				"y": 3.4058680558,
				"z": 1.1016770348,
				"element": "C" 
			},
			{
				"x": 0.5851079463,
				"y": 3.5352850803,
				"z": 0.062620195,
				"element": "N" 
			},
			{
				"x": 1.0808685001,
				"y": 2.4500491955,
				"z": -0.489420486,
				"element": "C" 
			},
			{
				"x": 0.7192714752,
				"y": 1.1533889173,
				"z": -0.0349496455,
				"element": "C" 
			},
			{
				"x": 1.1347001223,
				"y": -0.0474047403,
				"z": -0.4903036834,
				"element": "N" 
			},
			{
				"x": 0.6242340647,
				"y": -1.8969243512,
				"z": 0.1516945275,
				"element": "H" 
			},
			{
				"x": -0.91130763,
				"y": -0.9504063133,
				"z": 1.9214426606,
				"element": "H" 
			},
			{
				"x": -1.4360826992,
				"y": 2.1873433321,
				"z": 2.4564659293,
				"element": "H" 
			},
			{
				"x": -0.6694881374,
				"y": 4.3449628019,
				"z": 1.5077107991,
				"element": "H" 
			},
			{
				"x": 1.7836094597,
				"y": 2.5682445387,
				"z": -1.3130122583,
				"element": "H" 
			}
		],
		 "valence_orbital": [ 
			{
				"type": "occ",
				"energy": -0.30141,
				"method": "rhf"
			},
			{
				"type": "occ",
				"energy": -0.299,
				"method": "rhf"
			},
			{
				"type": "occ",
				"energy": -0.27093,
				"method": "rhf"
			},
			{
				"type": "occ",
				"energy": -0.24793,
				"method": "rhf"
			},
			{
				"type": "occ",
				"energy": -0.22129,
				"method": "rhf"
			},
			{
				"type": "unocc",
				"energy": -0.04848,
				"method": "rhf"
			},
			{
				"type": "unocc",
				"energy": 0.0172,
				"method": "rhf"
			},
			{
				"type": "unocc",
				"energy": 0.03878,
				"method": "rhf"
			},
			{
				"type": "unocc",
				"energy": 0.06613,
				"method": "rhf"
			},
			{
				"type": "unocc",
				"energy": 0.11878,
				"method": "rhf"
			}
		],
		"cosmo_sigma_profile": { 
			"-0.025": 0.0,
			"-0.024": 0.0,
			"-0.023": 0.0,
			"-0.022": 0.0,
			"-0.021": 0.0,
			"-0.02": 0.0,
			"-0.019": 0.0,
			"-0.018": 1.01449387868,
			"-0.017": 1.47424634947,
			"-0.016": 1.9200170342,
			"-0.015": 1.07349538686,
			"-0.014": 1.29665664025,
			"-0.013": 0.508216020039,
			"-0.012": 0.822256749568,
			"-0.011": 1.42839133337,
			"-0.01": 2.5805992186,
			"-0.009": 2.89675589565,
			"-0.008": 1.75409350316,
			"-0.007": 4.78692494025,
			"-0.006": 7.57964019612,
			"-0.005": 8.08743789199,
			"-0.004": 7.28900419955,
			"-0.003": 6.30514477868,
			"-0.002": 5.66140112922,
			"-0.001": 5.88311384832,
			"0.0": 7.64786448807,
			"0.001": 11.9546748173,
			"0.002": 15.7730736025,
			"0.003": 12.3635474432,
			"0.004": 8.49074774823,
			"0.005": 4.4082565447,
			"0.006": 3.37587868584,
			"0.007": 2.13706058109,
			"0.008": 2.62111064932,
			"0.009": 1.7876930311,
			"0.01": 2.60966208705,
			"0.011": 2.17936414464,
			"0.012": 2.41929840477,
			"0.013": 1.82685883193,
			"0.014": 1.76301986877,
			"0.015": 1.83034796238,
			"0.016": 1.08261210184,
			"0.017": 0.498249987315,
			"0.018": 0.0,
			"0.019": 0.0,
			"0.02": 0.0,
			"0.021": 0.0,
			"0.022": 0.0,
			"0.023": 0.0,
			"0.024": 0.0,
			"0.025": 0.0
		}
	}
}
