{
	 "smiles": "OC(=O)C1=NN(C(=N1)C1CC1)C1=C(Cl)C=CC=C1", 
	 "Tm": 436.15, 
	 "num_atms": 28, 
	 "gaussian": { 
		 "optdone": 1, 
		 "sigma_profile": "yes", 
		 "theory": "DFT", 
		 "functional": "B3LYP", 
		 "basiset": "6-31G**", 
		 "properties": { 
			 "R2extent": 5387.0237, 
			 "electric_dipole_moment_norm": 8.98603297679, 
			 "electric_quadrupole_moment_norm": 17.8235726405, 
			 "total_energy": -1238.16540708, 
			 "HOMO_LUMO_gap": 0.20955, 
			 "cosmo_polarized_energy": -17.94, 
			 "cosmo_cavitation_energy": 35.15, 
			 "cosmo_dispersion_energy": -24.44, 
			 "cosmo_repulsion_energy": 1.92, 
			 "cosmo_total_nonelectrostatic_energy": 12.63, 
			 "SMD_solvation_energy": 4.77 
		},
		"coords": [
			{
				"x": -3.1315812905,
				"y": -2.5236012814,
				"z": -0.7893749474,
				"element": "O" 
			},
			{
				"x": -2.4660693293,
				"y": -2.8285552304,
				"z": 0.3486935737,
				"element": "C" 
			},
			{
				"x": -2.7149529909,
				"y": -3.8114297644,
				"z": 0.9989328475,
				"element": "O" 
			},
			{
				"x": -1.4061315891,
				"y": -1.8345058005,
				"z": 0.7032651673,
				"element": "C" 
			},
			{
				"x": -1.1821949869,
				"y": -0.7938930735,
				"z": -0.0897229506,
				"element": "N" 
			},
			{
				"x": -0.1799727305,
				"y": -0.1389533395,
				"z": 0.558794436,
				"element": "N" 
			},
			{
				"x": 0.1533337264,
				"y": -0.8289106339,
				"z": 1.6978319211,
				"element": "C" 
			},
			{
				"x": -0.6156459595,
				"y": -1.9006789065,
				"z": 1.8051464693,
				"element": "N" 
			},
			{
				"x": 1.221417337,
				"y": -0.4375171926,
				"z": 2.6283456891,
				"element": "C" 
			},
			{
				"x": 1.0250487273,
				"y": -0.7074332253,
				"z": 4.1120075649,
				"element": "C" 
			},
			{
				"x": 1.9990009886,
				"y": -1.5365734644,
				"z": 3.3374548988,
				"element": "C" 
			},
			{
				"x": 0.3966462852,
				"y": 1.0358625273,
				"z": -0.0067621413,
				"element": "C" 
			},
			{
				"x": 0.2183543606,
				"y": 2.2989205784,
				"z": 0.5769607165,
				"element": "C" 
			},
			{
				"x": -0.7419822515,
				"y": 2.4892415223,
				"z": 2.0257954667,
				"element": "Cl" 
			},
			{
				"x": 0.7936420426,
				"y": 3.4282402516,
				"z": -0.0083951219,
				"element": "C" 
			},
			{
				"x": 1.5306980366,
				"y": 3.3006851796,
				"z": -1.1845722666,
				"element": "C" 
			},
			{
				"x": 1.6967632887,
				"y": 2.0491423435,
				"z": -1.7811937745,
				"element": "C" 
			},
			{
				"x": 1.1330988894,
				"y": 0.9219401683,
				"z": -1.1900622473,
				"element": "C" 
			},
			{
				"x": -2.7756188332,
				"y": -1.689640491,
				"z": -1.1430450467,
				"element": "H" 
			},
			{
				"x": 1.764750056,
				"y": 0.460074259,
				"z": 2.3542678242,
				"element": "H" 
			},
			{
				"x": 0.0846730068,
				"y": -1.1689336988,
				"z": 4.3938662401,
				"element": "H" 
			},
			{
				"x": 1.4017852625,
				"y": 0.0414443288,
				"z": 4.8013733401,
				"element": "H" 
			},
			{
				"x": 3.0620356328,
				"y": -1.3714003506,
				"z": 3.4824954132,
				"element": "H" 
			},
			{
				"x": 1.7132975168,
				"y": -2.555588093,
				"z": 3.0990614216,
				"element": "H" 
			},
			{
				"x": 0.6483987864,
				"y": 4.397188629,
				"z": 0.4557358704,
				"element": "H" 
			},
			{
				"x": 1.9703758918,
				"y": 4.1846121773,
				"z": -1.6359515988,
				"element": "H" 
			},
			{
				"x": 2.265493362,
				"y": 1.9499506928,
				"z": -2.6998984149,
				"element": "H" 
			},
			{
				"x": 1.2476367639,
				"y": -0.061588112,
				"z": -1.6330503505,
				"element": "H" 
			}
		],
		 "valence_orbital": [ 
			{
				"type": "occ",
				"energy": -0.29529,
				"method": "rhf"
			},
			{
				"type": "occ",
				"energy": -0.28373,
				"method": "rhf"
			},
			{
				"type": "occ",
				"energy": -0.27352,
				"method": "rhf"
			},
			{
				"type": "occ",
				"energy": -0.26646,
				"method": "rhf"
			},
			{
				"type": "occ",
				"energy": -0.26067,
				"method": "rhf"
			},
			{
				"type": "unocc",
				"energy": -0.05112,
				"method": "rhf"
			},
			{
				"type": "unocc",
				"energy": -0.04186,
				"method": "rhf"
			},
			{
				"type": "unocc",
				"energy": -0.03288,
				"method": "rhf"
			},
			{
				"type": "unocc",
				"energy": 0.0027,
				"method": "rhf"
			},
			{
				"type": "unocc",
				"energy": 0.00667,
				"method": "rhf"
			}
		],
		"cosmo_sigma_profile": { 
			"-0.025": 0.0,
			"-0.024": 0.0,
			"-0.023": 0.0,
			"-0.022": 0.0,
			"-0.021": 0.0,
			"-0.02": 0.0,
			"-0.019": 0.0,
			"-0.018": 0.0,
			"-0.017": 0.0,
			"-0.016": 0.0457734956003,
			"-0.015": 0.4811055244,
			"-0.014": 0.534263137935,
			"-0.013": 0.345056919869,
			"-0.012": 0.664618398371,
			"-0.011": 0.873672218352,
			"-0.01": 0.722133344686,
			"-0.009": 0.798008489761,
			"-0.008": 4.59684757204,
			"-0.007": 11.5763606971,
			"-0.006": 17.6582993292,
			"-0.005": 21.4103917657,
			"-0.004": 17.5401774323,
			"-0.003": 18.8881156741,
			"-0.002": 19.7490019123,
			"-0.001": 21.6253614475,
			"0.0": 22.6322256383,
			"0.001": 25.3287245251,
			"0.002": 26.4596101343,
			"0.003": 19.0187249409,
			"0.004": 10.2395347452,
			"0.005": 4.30939926962,
			"0.006": 4.5047268538,
			"0.007": 3.84187833594,
			"0.008": 3.99271022867,
			"0.009": 5.29654827254,
			"0.01": 5.83013823087,
			"0.011": 6.63513563213,
			"0.012": 4.63367329314,
			"0.013": 2.66868593603,
			"0.014": 0.932981365211,
			"0.015": 0.379830071852,
			"0.016": 0.0,
			"0.017": 0.0,
			"0.018": 0.0,
			"0.019": 0.0,
			"0.02": 0.0,
			"0.021": 0.0,
			"0.022": 0.0,
			"0.023": 0.0,
			"0.024": 0.0,
			"0.025": 0.0
		}
	}
}
