{
	 "smiles": "SC1=NN=C(O1)C1=CC=CN1", 
	 "Tm": 479.15, 
	 "num_atms": 16, 
	 "gaussian": { 
		 "optdone": 1, 
		 "sigma_profile": "yes", 
		 "theory": "DFT", 
		 "functional": "B3LYP", 
		 "basiset": "6-31G**", 
		 "properties": { 
			 "R2extent": 2730.3136, 
			 "electric_dipole_moment_norm": 5.69404711958, 
			 "electric_quadrupole_moment_norm": 10.9853819296, 
			 "total_energy": -869.263669016, 
			 "HOMO_LUMO_gap": 0.17582, 
			 "cosmo_polarized_energy": -16.57, 
			 "cosmo_cavitation_energy": 23.35, 
			 "cosmo_dispersion_energy": -18.02, 
			 "cosmo_repulsion_energy": 1.4, 
			 "cosmo_total_nonelectrostatic_energy": 6.73, 
			 "SMD_solvation_energy": 2.17 
		},
		"coords": [
			{
				"x": 4.1056683046,
				"y": -0.8027670758,
				"z": 1.9615031522,
				"element": "S" 
			},
			{
				"x": 2.7542250881,
				"y": 0.0386604011,
				"z": 1.2164852102,
				"element": "C" 
			},
			{
				"x": 2.7449376137,
				"y": 1.2574570935,
				"z": 0.7884599152,
				"element": "N" 
			},
			{
				"x": 1.4610879348,
				"y": 1.4831361737,
				"z": 0.2813016757,
				"element": "N" 
			},
			{
				"x": 0.7964885506,
				"y": 0.3777242855,
				"z": 0.44479859,
				"element": "C" 
			},
			{
				"x": 1.5605993006,
				"y": -0.6061637562,
				"z": 1.0425426229,
				"element": "O" 
			},
			{
				"x": -0.5620873989,
				"y": 0.0635948374,
				"z": 0.1007394883,
				"element": "C" 
			},
			{
				"x": -1.5404246283,
				"y": 0.8453219665,
				"z": -0.4989119178,
				"element": "C" 
			},
			{
				"x": -2.7052890979,
				"y": 0.0492088763,
				"z": -0.6100278217,
				"element": "C" 
			},
			{
				"x": -2.4134983625,
				"y": -1.1945119001,
				"z": -0.0781363376,
				"element": "C" 
			},
			{
				"x": -1.1139535862,
				"y": -1.1776231563,
				"z": 0.3498161884,
				"element": "N" 
			},
			{
				"x": 3.4335117016,
				"y": -1.9566654832,
				"z": 2.1347931654,
				"element": "H" 
			},
			{
				"x": -1.4066728051,
				"y": 1.8701333785,
				"z": -0.8121022008,
				"element": "H" 
			},
			{
				"x": -3.654126816,
				"y": 0.3484266133,
				"z": -1.0314361679,
				"element": "H" 
			},
			{
				"x": -3.0235451868,
				"y": -2.0791469896,
				"z": 0.0271335923,
				"element": "H" 
			},
			{
				"x": -0.6226206123,
				"y": -1.9440852645,
				"z": 0.7815408451,
				"element": "H" 
			}
		],
		 "valence_orbital": [ 
			{
				"type": "occ",
				"energy": -0.32426,
				"method": "rhf"
			},
			{
				"type": "occ",
				"energy": -0.27898,
				"method": "rhf"
			},
			{
				"type": "occ",
				"energy": -0.27026,
				"method": "rhf"
			},
			{
				"type": "occ",
				"energy": -0.26092,
				"method": "rhf"
			},
			{
				"type": "occ",
				"energy": -0.21202,
				"method": "rhf"
			},
			{
				"type": "unocc",
				"energy": -0.0362,
				"method": "rhf"
			},
			{
				"type": "unocc",
				"energy": -0.00615,
				"method": "rhf"
			},
			{
				"type": "unocc",
				"energy": 0.01762,
				"method": "rhf"
			},
			{
				"type": "unocc",
				"energy": 0.04554,
				"method": "rhf"
			},
			{
				"type": "unocc",
				"energy": 0.05267,
				"method": "rhf"
			}
		],
		"cosmo_sigma_profile": { 
			"-0.025": 0.0,
			"-0.024": 0.0,
			"-0.023": 0.0,
			"-0.022": 0.0,
			"-0.021": 0.0,
			"-0.02": 0.0,
			"-0.019": 0.0,
			"-0.018": 0.0,
			"-0.017": 0.11263436985,
			"-0.016": 0.97772453964,
			"-0.015": 0.832949068434,
			"-0.014": 1.26893449207,
			"-0.013": 2.62602851944,
			"-0.012": 2.5602608572,
			"-0.011": 2.90694669086,
			"-0.01": 3.04850819831,
			"-0.009": 2.44399140877,
			"-0.008": 5.39765397393,
			"-0.007": 5.25359147456,
			"-0.006": 7.44629061194,
			"-0.005": 7.28170673868,
			"-0.004": 9.13890053211,
			"-0.003": 13.9117983975,
			"-0.002": 10.7843072054,
			"-0.001": 12.2481688199,
			"0.0": 11.4406959358,
			"0.001": 14.4064957876,
			"0.002": 12.4368943515,
			"0.003": 11.932849273,
			"0.004": 11.9293333818,
			"0.005": 10.3432436462,
			"0.006": 7.8719873625,
			"0.007": 2.92673756632,
			"0.008": 1.62571393207,
			"0.009": 2.67211103831,
			"0.01": 2.7494840152,
			"0.011": 2.92593207177,
			"0.012": 3.65961141577,
			"0.013": 2.4578698904,
			"0.014": 2.26327951947,
			"0.015": 1.25514508156,
			"0.016": 0.0653451610178,
			"0.017": 0.0,
			"0.018": 0.0,
			"0.019": 0.0,
			"0.02": 0.0,
			"0.021": 0.0,
			"0.022": 0.0,
			"0.023": 0.0,
			"0.024": 0.0,
			"0.025": 0.0
		}
	}
}
