{
	 "smiles": "CC(=O)NC1=C(F)C=C(F)C(=C1)[N+]([O-])=O", 
	 "Tm": 420.15, 
	 "num_atms": 21, 
	 "gaussian": { 
		 "optdone": 1, 
		 "sigma_profile": "yes", 
		 "theory": "DFT", 
		 "functional": "B3LYP", 
		 "basiset": "6-31G**", 
		 "properties": { 
			 "R2extent": 3972.6562, 
			 "electric_dipole_moment_norm": 2.45902584167, 
			 "electric_quadrupole_moment_norm": 21.2107243452, 
			 "total_energy": -843.209738205, 
			 "HOMO_LUMO_gap": 0.14972, 
			 "cosmo_polarized_energy": -14.95, 
			 "cosmo_cavitation_energy": 27.62, 
			 "cosmo_dispersion_energy": -19.69, 
			 "cosmo_repulsion_energy": 1.49, 
			 "cosmo_total_nonelectrostatic_energy": 9.42, 
			 "SMD_solvation_energy": 8.76 
		},
		"coords": [
			{
				"x": 1.0047518136,
				"y": 1.5287039645,
				"z": 2.8340287485,
				"element": "C" 
			},
			{
				"x": 2.1351502661,
				"y": 1.6792742882,
				"z": 1.8394273032,
				"element": "C" 
			},
			{
				"x": 3.0077104947,
				"y": 2.5214377407,
				"z": 1.9620320419,
				"element": "O" 
			},
			{
				"x": 2.1852782829,
				"y": 0.8331181977,
				"z": 0.7301187516,
				"element": "N" 
			},
			{
				"x": 1.3450586863,
				"y": -0.1798570704,
				"z": 0.2601933913,
				"element": "C" 
			},
			{
				"x": 1.3688723594,
				"y": -0.4485815266,
				"z": -1.1240175736,
				"element": "C" 
			},
			{
				"x": 2.1866801767,
				"y": 0.2975507006,
				"z": -1.8894669309,
				"element": "F" 
			},
			{
				"x": 0.6085138339,
				"y": -1.4365355951,
				"z": -1.718861173,
				"element": "C" 
			},
			{
				"x": -0.2328423783,
				"y": -2.2139109786,
				"z": -0.9260381933,
				"element": "C" 
			},
			{
				"x": -0.9682655019,
				"y": -3.1434272253,
				"z": -1.5325423465,
				"element": "F" 
			},
			{
				"x": -0.2751043261,
				"y": -1.987136606,
				"z": 0.4550651985,
				"element": "C" 
			},
			{
				"x": 0.5191287492,
				"y": -0.9919923657,
				"z": 1.0361132258,
				"element": "C" 
			},
			{
				"x": -1.1198326087,
				"y": -2.7834085811,
				"z": 1.3551350293,
				"element": "N" 
			},
			{
				"x": -1.7562487257,
				"y": -3.7156911142,
				"z": 0.8746014488,
				"element": "O" 
			},
			{
				"x": -1.1322491032,
				"y": -2.4607433805,
				"z": 2.5446548136,
				"element": "O" 
			},
			{
				"x": 0.9844566488,
				"y": 2.4346496851,
				"z": 3.4394302299,
				"element": "H" 
			},
			{
				"x": 1.1846535384,
				"y": 0.6774683421,
				"z": 3.4995052627,
				"element": "H" 
			},
			{
				"x": 0.0349269752,
				"y": 1.3845795551,
				"z": 2.3504741729,
				"element": "H" 
			},
			{
				"x": 2.9186200318,
				"y": 1.1155634509,
				"z": 0.0904590877,
				"element": "H" 
			},
			{
				"x": 0.6550536962,
				"y": -1.6002406618,
				"z": -2.7885201217,
				"element": "H" 
			},
			{
				"x": 0.4656870907,
				"y": -0.8938208198,
				"z": 2.1094076332,
				"element": "H" 
			}
		],
		 "valence_orbital": [ 
			{
				"type": "occ",
				"energy": -0.31858,
				"method": "rhf"
			},
			{
				"type": "occ",
				"energy": -0.30245,
				"method": "rhf"
			},
			{
				"type": "occ",
				"energy": -0.29872,
				"method": "rhf"
			},
			{
				"type": "occ",
				"energy": -0.27513,
				"method": "rhf"
			},
			{
				"type": "occ",
				"energy": -0.25084,
				"method": "rhf"
			},
			{
				"type": "unocc",
				"energy": -0.10112,
				"method": "rhf"
			},
			{
				"type": "unocc",
				"energy": -0.04811,
				"method": "rhf"
			},
			{
				"type": "unocc",
				"energy": -0.0199,
				"method": "rhf"
			},
			{
				"type": "unocc",
				"energy": 0.01532,
				"method": "rhf"
			},
			{
				"type": "unocc",
				"energy": 0.04393,
				"method": "rhf"
			}
		],
		"cosmo_sigma_profile": { 
			"-0.025": 0.0,
			"-0.024": 0.0,
			"-0.023": 0.0,
			"-0.022": 0.0,
			"-0.021": 0.0,
			"-0.02": 0.0,
			"-0.019": 0.0,
			"-0.018": 0.0,
			"-0.017": 0.0,
			"-0.016": 0.0,
			"-0.015": 0.0,
			"-0.014": 0.0586333161979,
			"-0.013": 0.529053225237,
			"-0.012": 0.701905930611,
			"-0.011": 1.38906439341,
			"-0.01": 3.5916871788,
			"-0.009": 3.78775798318,
			"-0.008": 4.79382718695,
			"-0.007": 7.33004214145,
			"-0.006": 10.8778082964,
			"-0.005": 12.5906128185,
			"-0.004": 13.6122888472,
			"-0.003": 25.8339537242,
			"-0.002": 25.73901139,
			"-0.001": 15.5991480701,
			"0.0": 8.26119663217,
			"0.001": 8.08805423929,
			"0.002": 12.9678063357,
			"0.003": 10.9643759616,
			"0.004": 4.99357701954,
			"0.005": 4.80583036546,
			"0.006": 5.35732284345,
			"0.007": 10.8002172134,
			"0.008": 9.47861715745,
			"0.009": 5.4721787177,
			"0.01": 2.96774333004,
			"0.011": 2.4359139545,
			"0.012": 4.21136608112,
			"0.013": 4.29005190008,
			"0.014": 0.662466277326,
			"0.015": 0.0,
			"0.016": 0.0,
			"0.017": 0.0,
			"0.018": 0.0,
			"0.019": 0.0,
			"0.02": 0.0,
			"0.021": 0.0,
			"0.022": 0.0,
			"0.023": 0.0,
			"0.024": 0.0,
			"0.025": 0.0
		}
	}
}
