{
	 "smiles": "COC(=O)[C@]1(O)CC2=C(N(C)CCC2)C2=C1C=C(OC)N=C2Cl", 
	 "Tm": 426.0, 
	 "num_atms": 42, 
	 "gaussian": { 
		 "optdone": 1, 
		 "sigma_profile": "yes", 
		 "theory": "DFT", 
		 "functional": "B3LYP", 
		 "basiset": "6-31G**", 
		 "properties": { 
			 "R2extent": 8007.996, 
			 "electric_dipole_moment_norm": 3.18372816679, 
			 "electric_quadrupole_moment_norm": 16.6693203047, 
			 "total_energy": -1491.72103414, 
			 "HOMO_LUMO_gap": 0.1454, 
			 "cosmo_polarized_energy": -14.66, 
			 "cosmo_cavitation_energy": 44.39, 
			 "cosmo_dispersion_energy": -30.82, 
			 "cosmo_repulsion_energy": 2.38, 
			 "cosmo_total_nonelectrostatic_energy": 15.95, 
			 "SMD_solvation_energy": 7.36 
		},
		"coords": [
			{
				"x": -0.7175533716,
				"y": -2.6086951839,
				"z": 4.2568209068,
				"element": "C" 
			},
			{
				"x": -0.021710924,
				"y": -1.8138156006,
				"z": 3.2775665426,
				"element": "O" 
			},
			{
				"x": -0.8083685061,
				"y": -1.0628961984,
				"z": 2.4706790561,
				"element": "C" 
			},
			{
				"x": -2.0159055758,
				"y": -1.0564767377,
				"z": 2.5356269923,
				"element": "O" 
			},
			{
				"x": 0.0422481607,
				"y": -0.2450625421,
				"z": 1.4766357509,
				"element": "C" 
			},
			{
				"x": 1.2976911848,
				"y": 0.0939894008,
				"z": 2.0539138383,
				"element": "O" 
			},
			{
				"x": -0.6945255524,
				"y": 1.061927401,
				"z": 1.1574297447,
				"element": "C" 
			},
			{
				"x": 0.0178137767,
				"y": 1.8419352764,
				"z": 0.086692061,
				"element": "C" 
			},
			{
				"x": 0.674473264,
				"y": 1.1942372345,
				"z": -0.9088581638,
				"element": "C" 
			},
			{
				"x": 1.4790411746,
				"y": 1.8528932822,
				"z": -1.8651555036,
				"element": "N" 
			},
			{
				"x": 2.7906837821,
				"y": 1.2643859504,
				"z": -2.1306463066,
				"element": "C" 
			},
			{
				"x": 1.6012510117,
				"y": 3.3045106197,
				"z": -1.7132038953,
				"element": "C" 
			},
			{
				"x": 0.3112021062,
				"y": 3.9433006212,
				"z": -1.2134598014,
				"element": "C" 
			},
			{
				"x": -0.0503030501,
				"y": 3.345904168,
				"z": 0.1491589096,
				"element": "C" 
			},
			{
				"x": 0.4902250778,
				"y": -0.2776161909,
				"z": -1.0154280587,
				"element": "C" 
			},
			{
				"x": 0.2323540421,
				"y": -1.0269055506,
				"z": 0.1698148978,
				"element": "C" 
			},
			{
				"x": 0.135184036,
				"y": -2.4067078728,
				"z": 0.1260394507,
				"element": "C" 
			},
			{
				"x": 0.253383099,
				"y": -3.0395893665,
				"z": -1.1206866786,
				"element": "C" 
			},
			{
				"x": 0.2100887119,
				"y": -4.3870755589,
				"z": -1.1427464072,
				"element": "O" 
			},
			{
				"x": 0.2738555489,
				"y": -5.0198151249,
				"z": -2.4257537996,
				"element": "C" 
			},
			{
				"x": 0.365109689,
				"y": -2.3643750021,
				"z": -2.253700684,
				"element": "N" 
			},
			{
				"x": 0.4494405572,
				"y": -1.0387661816,
				"z": -2.197588589,
				"element": "C" 
			},
			{
				"x": 0.3996224959,
				"y": -0.2821156019,
				"z": -3.7923213171,
				"element": "Cl" 
			},
			{
				"x": -1.4044227334,
				"y": -3.3030929825,
				"z": 3.7675473553,
				"element": "H" 
			},
			{
				"x": -1.2853046287,
				"y": -1.9643227641,
				"z": 4.931693322,
				"element": "H" 
			},
			{
				"x": 0.0561473995,
				"y": -3.1493458257,
				"z": 4.8009439905,
				"element": "H" 
			},
			{
				"x": 1.6758294525,
				"y": -0.7211373119,
				"z": 2.4118224836,
				"element": "H" 
			},
			{
				"x": -1.7340771986,
				"y": 0.8203331452,
				"z": 0.8999568197,
				"element": "H" 
			},
			{
				"x": -0.7304717729,
				"y": 1.6570585942,
				"z": 2.0771780505,
				"element": "H" 
			},
			{
				"x": 2.7206988518,
				"y": 0.1904954076,
				"z": -2.2948202567,
				"element": "H" 
			},
			{
				"x": 3.4983461506,
				"y": 1.4416806131,
				"z": -1.3020933596,
				"element": "H" 
			},
			{
				"x": 3.2052771359,
				"y": 1.7145262005,
				"z": -3.0382168273,
				"element": "H" 
			},
			{
				"x": 2.4147806965,
				"y": 3.5470691274,
				"z": -1.0035109498,
				"element": "H" 
			},
			{
				"x": 1.8950231,
				"y": 3.718781505,
				"z": -2.6856700164,
				"element": "H" 
			},
			{
				"x": 0.4401096831,
				"y": 5.0290753262,
				"z": -1.1518784814,
				"element": "H" 
			},
			{
				"x": -0.4949376671,
				"y": 3.7474468449,
				"z": -1.9298934238,
				"element": "H" 
			},
			{
				"x": -1.0644939889,
				"y": 3.6500694588,
				"z": 0.4443678637,
				"element": "H" 
			},
			{
				"x": 0.6169198436,
				"y": 3.736801089,
				"z": 0.9330045838,
				"element": "H" 
			},
			{
				"x": -0.0430800653,
				"y": -3.005625658,
				"z": 1.0102452108,
				"element": "H" 
			},
			{
				"x": 0.2178636964,
				"y": -6.0898147564,
				"z": -2.2223660853,
				"element": "H" 
			},
			{
				"x": -0.5605187604,
				"y": -4.7070379206,
				"z": -3.0597043976,
				"element": "H" 
			},
			{
				"x": 1.2095100666,
				"y": -4.7778313338,
				"z": -2.937834828,
				"element": "H" 
			}
		],
		 "valence_orbital": [ 
			{
				"type": "occ",
				"energy": -0.27658,
				"method": "rhf"
			},
			{
				"type": "occ",
				"energy": -0.27332,
				"method": "rhf"
			},
			{
				"type": "occ",
				"energy": -0.26395,
				"method": "rhf"
			},
			{
				"type": "occ",
				"energy": -0.22711,
				"method": "rhf"
			},
			{
				"type": "occ",
				"energy": -0.1774,
				"method": "rhf"
			},
			{
				"type": "unocc",
				"energy": -0.032,
				"method": "rhf"
			},
			{
				"type": "unocc",
				"energy": -0.02472,
				"method": "rhf"
			},
			{
				"type": "unocc",
				"energy": -0.00327,
				"method": "rhf"
			},
			{
				"type": "unocc",
				"energy": 0.0441,
				"method": "rhf"
			},
			{
				"type": "unocc",
				"energy": 0.05271,
				"method": "rhf"
			}
		],
		"cosmo_sigma_profile": { 
			"-0.025": 0.0,
			"-0.024": 0.0,
			"-0.023": 0.0,
			"-0.022": 0.0,
			"-0.021": 0.0,
			"-0.02": 0.0,
			"-0.019": 0.0,
			"-0.018": 0.0,
			"-0.017": 0.0,
			"-0.016": 0.0,
			"-0.015": 0.0,
			"-0.014": 0.325228312353,
			"-0.013": 0.971884016107,
			"-0.012": 0.597676010831,
			"-0.011": 0.326493391799,
			"-0.01": 0.672458086342,
			"-0.009": 0.976316695547,
			"-0.008": 1.54794517965,
			"-0.007": 4.37075658921,
			"-0.006": 12.251704564,
			"-0.005": 16.8271115911,
			"-0.004": 29.4690038936,
			"-0.003": 41.4757824073,
			"-0.002": 43.7548777308,
			"-0.001": 41.5934111762,
			"0.0": 32.5656505785,
			"0.001": 23.1557889183,
			"0.002": 14.0414984938,
			"0.003": 12.6488832285,
			"0.004": 14.8897213055,
			"0.005": 12.044989109,
			"0.006": 7.73805331295,
			"0.007": 7.84900478771,
			"0.008": 6.08995272985,
			"0.009": 7.43190744003,
			"0.01": 5.23800800738,
			"0.011": 8.25103791831,
			"0.012": 2.82304797085,
			"0.013": 1.15616478291,
			"0.014": 0.0181820345442,
			"0.015": 0.0,
			"0.016": 0.0,
			"0.017": 0.0,
			"0.018": 0.0,
			"0.019": 0.0,
			"0.02": 0.0,
			"0.021": 0.0,
			"0.022": 0.0,
			"0.023": 0.0,
			"0.024": 0.0,
			"0.025": 0.0
		}
	}
}
