{
	 "smiles": "CC1=NNC(Cl)=C1", 
	 "Tm": 391.15, 
	 "num_atms": 12, 
	 "gaussian": { 
		 "optdone": 1, 
		 "sigma_profile": "yes", 
		 "theory": "DFT", 
		 "functional": "B3LYP", 
		 "basiset": "6-31G**", 
		 "properties": { 
			 "R2extent": 2884.3704, 
			 "electric_dipole_moment_norm": 0.378143173943, 
			 "electric_quadrupole_moment_norm": 5.81640321247, 
			 "total_energy": -725.110619024, 
			 "HOMO_LUMO_gap": 0.25094, 
			 "cosmo_polarized_energy": -7.32, 
			 "cosmo_cavitation_energy": 17.9, 
			 "cosmo_dispersion_energy": -13.73, 
			 "cosmo_repulsion_energy": 1.18, 
			 "cosmo_total_nonelectrostatic_energy": 5.35, 
			 "SMD_solvation_energy": 2.2 
		},
		"coords": [
			{
				"x": -0.1928182875,
				"y": 0.0398673181,
				"z": -0.1077105075,
				"element": "C" 
			},
			{
				"x": 0.2656105842,
				"y": 1.3865188555,
				"z": 0.3706129128,
				"element": "C" 
			},
			{
				"x": 1.4859719833,
				"y": 1.5464471864,
				"z": 0.8899709508,
				"element": "N" 
			},
			{
				"x": 1.5562211404,
				"y": 2.859682208,
				"z": 1.2069522721,
				"element": "N" 
			},
			{
				"x": 0.415441259,
				"y": 3.5237423543,
				"z": 0.9006602933,
				"element": "C" 
			},
			{
				"x": 0.2447445859,
				"y": 5.2154408432,
				"z": 1.2054687942,
				"element": "Cl" 
			},
			{
				"x": -0.4568156593,
				"y": 2.6070433389,
				"z": 0.3527378022,
				"element": "C" 
			},
			{
				"x": -1.2113732129,
				"y": 0.0950418245,
				"z": -0.4996308942,
				"element": "H" 
			},
			{
				"x": 0.4587627161,
				"y": -0.3387394073,
				"z": -0.9016400234,
				"element": "H" 
			},
			{
				"x": -0.1788750129,
				"y": -0.6925604404,
				"z": 0.7056643229,
				"element": "H" 
			},
			{
				"x": 2.3934950675,
				"y": 3.2380298922,
				"z": 1.6223723379,
				"element": "H" 
			},
			{
				"x": -1.4580651639,
				"y": 2.7923860266,
				"z": -0.003658261,
				"element": "H" 
			}
		],
		 "valence_orbital": [ 
			{
				"type": "occ",
				"energy": -0.35454,
				"method": "rhf"
			},
			{
				"type": "occ",
				"energy": -0.33986,
				"method": "rhf"
			},
			{
				"type": "occ",
				"energy": -0.28809,
				"method": "rhf"
			},
			{
				"type": "occ",
				"energy": -0.25631,
				"method": "rhf"
			},
			{
				"type": "occ",
				"energy": -0.24004,
				"method": "rhf"
			},
			{
				"type": "unocc",
				"energy": 0.0109,
				"method": "rhf"
			},
			{
				"type": "unocc",
				"energy": 0.02672,
				"method": "rhf"
			},
			{
				"type": "unocc",
				"energy": 0.06492,
				"method": "rhf"
			},
			{
				"type": "unocc",
				"energy": 0.08567,
				"method": "rhf"
			},
			{
				"type": "unocc",
				"energy": 0.11768,
				"method": "rhf"
			}
		],
		"cosmo_sigma_profile": { 
			"-0.025": 0.0,
			"-0.024": 0.0,
			"-0.023": 0.0,
			"-0.022": 0.0,
			"-0.021": 0.0,
			"-0.02": 0.0,
			"-0.019": 0.0,
			"-0.018": 0.0,
			"-0.017": 1.07158320903,
			"-0.016": 1.0623616791,
			"-0.015": 1.26825614277,
			"-0.014": 1.28512556464,
			"-0.013": 0.802224890122,
			"-0.012": 0.722394901736,
			"-0.011": 1.29862403486,
			"-0.01": 0.645029412281,
			"-0.009": 1.02438820049,
			"-0.008": 1.08623905963,
			"-0.007": 2.40051568762,
			"-0.006": 2.64131009395,
			"-0.005": 5.25144344325,
			"-0.004": 9.31330820209,
			"-0.003": 9.19959219377,
			"-0.002": 10.1639637769,
			"-0.001": 12.4250500624,
			"0.0": 14.8219080192,
			"0.001": 12.2022411581,
			"0.002": 13.0552697017,
			"0.003": 15.9890749477,
			"0.004": 10.4718589737,
			"0.005": 3.23651195645,
			"0.006": 1.6910018696,
			"0.007": 2.00910625436,
			"0.008": 1.38825016723,
			"0.009": 1.24286294594,
			"0.01": 1.11385480443,
			"0.011": 1.40779994713,
			"0.012": 1.02076072628,
			"0.013": 1.32243364898,
			"0.014": 0.480121615064,
			"0.015": 1.42959559488,
			"0.016": 0.532359719437,
			"0.017": 0.010456729256,
			"0.018": 0.0,
			"0.019": 0.0,
			"0.02": 0.0,
			"0.021": 0.0,
			"0.022": 0.0,
			"0.023": 0.0,
			"0.024": 0.0,
			"0.025": 0.0
		}
	}
}
