{
	 "smiles": "[O-][N+](=O)C1=CC=CC=C1Cl", 
	 "Tm": 306.15, 
	 "num_atms": 14, 
	 "gaussian": { 
		 "optdone": 1, 
		 "sigma_profile": "yes", 
		 "theory": "DFT", 
		 "functional": "B3LYP", 
		 "basiset": "6-31G**", 
		 "properties": { 
			 "R2extent": 2199.5494, 
			 "electric_dipole_moment_norm": 4.94921573686, 
			 "electric_quadrupole_moment_norm": 9.30248919053, 
			 "total_energy": -896.326419469, 
			 "HOMO_LUMO_gap": 0.18072, 
			 "cosmo_polarized_energy": -8.62, 
			 "cosmo_cavitation_energy": 20.8, 
			 "cosmo_dispersion_energy": -15.62, 
			 "cosmo_repulsion_energy": 1.26, 
			 "cosmo_total_nonelectrostatic_energy": 6.45, 
			 "SMD_solvation_energy": 5.65 
		},
		"coords": [
			{
				"x": 1.7403105414,
				"y": 2.0305543367,
				"z": 0.7061019137,
				"element": "O" 
			},
			{
				"x": 0.8758110529,
				"y": 1.596760096,
				"z": 1.4681330821,
				"element": "N" 
			},
			{
				"x": 0.2504260088,
				"y": 2.2674842796,
				"z": 2.2819283008,
				"element": "O" 
			},
			{
				"x": 0.6119322087,
				"y": 0.1473997754,
				"z": 1.4096968607,
				"element": "C" 
			},
			{
				"x": 1.6977450169,
				"y": -0.6639742368,
				"z": 1.0710557623,
				"element": "C" 
			},
			{
				"x": 1.5533612534,
				"y": -2.0456489874,
				"z": 1.0300155761,
				"element": "C" 
			},
			{
				"x": 0.3091959217,
				"y": -2.6158078309,
				"z": 1.3066912908,
				"element": "C" 
			},
			{
				"x": -0.7814742575,
				"y": -1.8075694226,
				"z": 1.6195266795,
				"element": "C" 
			},
			{
				"x": -0.6434764898,
				"y": -0.4177003661,
				"z": 1.6830362801,
				"element": "C" 
			},
			{
				"x": -2.0724254119,
				"y": 0.5176061941,
				"z": 2.0292531,
				"element": "Cl" 
			},
			{
				"x": 2.6426068743,
				"y": -0.1837132721,
				"z": 0.848066439,
				"element": "H" 
			},
			{
				"x": 2.4042573309,
				"y": -2.6705620207,
				"z": 0.7803290006,
				"element": "H" 
			},
			{
				"x": 0.1800960772,
				"y": -3.6931441662,
				"z": 1.2727781792,
				"element": "H" 
			},
			{
				"x": -1.7549661269,
				"y": -2.242684379,
				"z": 1.8150875348,
				"element": "H" 
			}
		],
		 "valence_orbital": [ 
			{
				"type": "occ",
				"energy": -0.3124,
				"method": "rhf"
			},
			{
				"type": "occ",
				"energy": -0.3111,
				"method": "rhf"
			},
			{
				"type": "occ",
				"energy": -0.29948,
				"method": "rhf"
			},
			{
				"type": "occ",
				"energy": -0.28204,
				"method": "rhf"
			},
			{
				"type": "occ",
				"energy": -0.2719,
				"method": "rhf"
			},
			{
				"type": "unocc",
				"energy": -0.09118,
				"method": "rhf"
			},
			{
				"type": "unocc",
				"energy": -0.03913,
				"method": "rhf"
			},
			{
				"type": "unocc",
				"energy": -0.01762,
				"method": "rhf"
			},
			{
				"type": "unocc",
				"energy": 0.00984,
				"method": "rhf"
			},
			{
				"type": "unocc",
				"energy": 0.08803,
				"method": "rhf"
			}
		],
		"cosmo_sigma_profile": { 
			"-0.025": 0.0,
			"-0.024": 0.0,
			"-0.023": 0.0,
			"-0.022": 0.0,
			"-0.021": 0.0,
			"-0.02": 0.0,
			"-0.019": 0.0,
			"-0.018": 0.0,
			"-0.017": 0.0,
			"-0.016": 0.0,
			"-0.015": 0.0,
			"-0.014": 0.0,
			"-0.013": 0.0,
			"-0.012": 0.0,
			"-0.011": 0.0,
			"-0.01": 0.0,
			"-0.009": 0.598027669475,
			"-0.008": 6.75257934235,
			"-0.007": 10.5264808456,
			"-0.006": 10.231617504,
			"-0.005": 7.72058949504,
			"-0.004": 9.05731152158,
			"-0.003": 8.01103667231,
			"-0.002": 9.89926765539,
			"-0.001": 13.856408906,
			"0.0": 17.8674137966,
			"0.001": 16.1133954035,
			"0.002": 11.2468808109,
			"0.003": 9.55366612469,
			"0.004": 5.77965992622,
			"0.005": 4.49541572414,
			"0.006": 4.45541587192,
			"0.007": 9.69959983474,
			"0.008": 8.89794096613,
			"0.009": 4.07302821088,
			"0.01": 1.11301502851,
			"0.011": 0.0,
			"0.012": 0.0,
			"0.013": 0.0,
			"0.014": 0.0,
			"0.015": 0.0,
			"0.016": 0.0,
			"0.017": 0.0,
			"0.018": 0.0,
			"0.019": 0.0,
			"0.02": 0.0,
			"0.021": 0.0,
			"0.022": 0.0,
			"0.023": 0.0,
			"0.024": 0.0,
			"0.025": 0.0
		}
	}
}
