{
	 "smiles": "FC1=CC=C(C=C1)C1=CNC(S)=N1", 
	 "Tm": 290.15, 
	 "num_atms": 20, 
	 "gaussian": { 
		 "optdone": 1, 
		 "sigma_profile": "yes", 
		 "theory": "DFT", 
		 "functional": "B3LYP", 
		 "basiset": "6-31G**", 
		 "properties": { 
			 "R2extent": 3801.0419, 
			 "electric_dipole_moment_norm": 3.61831766848, 
			 "electric_quadrupole_moment_norm": 13.1848700999, 
			 "total_energy": -954.698096555, 
			 "HOMO_LUMO_gap": 0.18506, 
			 "cosmo_polarized_energy": -13.41, 
			 "cosmo_cavitation_energy": 27.08, 
			 "cosmo_dispersion_energy": -20.54, 
			 "cosmo_repulsion_energy": 1.54, 
			 "cosmo_total_nonelectrostatic_energy": 8.08, 
			 "SMD_solvation_energy": 3.36 
		},
		"coords": [
			{
				"x": -0.8218384919,
				"y": 3.7844591161,
				"z": -2.7833655766,
				"element": "F" 
			},
			{
				"x": -0.5638402451,
				"y": 2.7535134733,
				"z": -1.9491134067,
				"element": "C" 
			},
			{
				"x": -0.4030786456,
				"y": 1.4774896287,
				"z": -2.4760933034,
				"element": "C" 
			},
			{
				"x": -0.1373195068,
				"y": 0.4200682799,
				"z": -1.6092606087,
				"element": "C" 
			},
			{
				"x": -0.0312933376,
				"y": 0.6275983558,
				"z": -0.2237871167,
				"element": "C" 
			},
			{
				"x": -0.2000600825,
				"y": 1.9319673983,
				"z": 0.2713809893,
				"element": "C" 
			},
			{
				"x": -0.4661364916,
				"y": 2.9984796197,
				"z": -0.5835326155,
				"element": "C" 
			},
			{
				"x": 0.2496974389,
				"y": -0.5067614721,
				"z": 0.665968734,
				"element": "C" 
			},
			{
				"x": 0.3933499427,
				"y": -0.5270240551,
				"z": 2.035707306,
				"element": "C" 
			},
			{
				"x": 0.6479827209,
				"y": -1.8469159481,
				"z": 2.3655363052,
				"element": "N" 
			},
			{
				"x": 0.6470939185,
				"y": -2.5558527083,
				"z": 1.1972269568,
				"element": "C" 
			},
			{
				"x": 0.9375314759,
				"y": -4.3043126694,
				"z": 1.1765139874,
				"element": "S" 
			},
			{
				"x": 0.4127104276,
				"y": -1.7902545593,
				"z": 0.1597618217,
				"element": "N" 
			},
			{
				"x": -0.4865170493,
				"y": 1.3258926902,
				"z": -3.5470296256,
				"element": "H" 
			},
			{
				"x": -0.0076571201,
				"y": -0.5850550279,
				"z": -1.9943680506,
				"element": "H" 
			},
			{
				"x": -0.1238650899,
				"y": 2.1234388722,
				"z": 1.337774672,
				"element": "H" 
			},
			{
				"x": -0.5976397762,
				"y": 4.0079664428,
				"z": -0.2091192761,
				"element": "H" 
			},
			{
				"x": 0.3421163985,
				"y": 0.2413246185,
				"z": 2.7904428834,
				"element": "H" 
			},
			{
				"x": 0.803756507,
				"y": -2.2101945961,
				"z": 3.2933971777,
				"element": "H" 
			},
			{
				"x": 0.8141070065,
				"y": -4.3869274593,
				"z": -0.1603412536,
				"element": "H" 
			}
		],
		 "valence_orbital": [ 
			{
				"type": "occ",
				"energy": -0.29683,
				"method": "rhf"
			},
			{
				"type": "occ",
				"energy": -0.28087,
				"method": "rhf"
			},
			{
				"type": "occ",
				"energy": -0.25425,
				"method": "rhf"
			},
			{
				"type": "occ",
				"energy": -0.24367,
				"method": "rhf"
			},
			{
				"type": "occ",
				"energy": -0.20025,
				"method": "rhf"
			},
			{
				"type": "unocc",
				"energy": -0.01519,
				"method": "rhf"
			},
			{
				"type": "unocc",
				"energy": -0.00375,
				"method": "rhf"
			},
			{
				"type": "unocc",
				"energy": 0.00111,
				"method": "rhf"
			},
			{
				"type": "unocc",
				"energy": 0.02799,
				"method": "rhf"
			},
			{
				"type": "unocc",
				"energy": 0.06486,
				"method": "rhf"
			}
		],
		"cosmo_sigma_profile": { 
			"-0.025": 0.0,
			"-0.024": 0.0,
			"-0.023": 0.0,
			"-0.022": 0.0,
			"-0.021": 0.0,
			"-0.02": 0.0,
			"-0.019": 0.0,
			"-0.018": 0.0165687905105,
			"-0.017": 1.31298914749,
			"-0.016": 1.87457828509,
			"-0.015": 1.09830257959,
			"-0.014": 1.41394667703,
			"-0.013": 1.73462424069,
			"-0.012": 1.50071919254,
			"-0.011": 2.15033682417,
			"-0.01": 2.41184572784,
			"-0.009": 4.3170651904,
			"-0.008": 5.10462200252,
			"-0.007": 7.53705161835,
			"-0.006": 8.28931552034,
			"-0.005": 7.8882843731,
			"-0.004": 10.5405525264,
			"-0.003": 8.54118976608,
			"-0.002": 9.01571214164,
			"-0.001": 8.90883363627,
			"0.0": 11.0383903892,
			"0.001": 15.986988108,
			"0.002": 19.455748531,
			"0.003": 20.7396635344,
			"0.004": 32.4743070175,
			"0.005": 18.9788158686,
			"0.006": 5.18245128282,
			"0.007": 4.63417772281,
			"0.008": 2.3614075296,
			"0.009": 1.0730754657,
			"0.01": 1.76275825534,
			"0.011": 1.11681635189,
			"0.012": 1.51608849157,
			"0.013": 0.539991021428,
			"0.014": 0.0,
			"0.015": 0.0,
			"0.016": 0.0,
			"0.017": 0.0,
			"0.018": 0.0,
			"0.019": 0.0,
			"0.02": 0.0,
			"0.021": 0.0,
			"0.022": 0.0,
			"0.023": 0.0,
			"0.024": 0.0,
			"0.025": 0.0
		}
	}
}
