{
	 "smiles": "CN1C(=O)N(C)C(=O)C(C(=O)CC#N)=C1N", 
	 "Tm": 534.15, 
	 "num_atms": 26, 
	 "gaussian": { 
		 "optdone": 1, 
		 "sigma_profile": "yes", 
		 "theory": "DFT", 
		 "functional": "B3LYP", 
		 "basiset": "6-31G**", 
		 "properties": { 
			 "R2extent": 3591.3537, 
			 "electric_dipole_moment_norm": 7.02779328452, 
			 "electric_quadrupole_moment_norm": 14.7023050659, 
			 "total_energy": -793.697057727, 
			 "HOMO_LUMO_gap": 0.19152, 
			 "cosmo_polarized_energy": -22.4, 
			 "cosmo_cavitation_energy": 30.26, 
			 "cosmo_dispersion_energy": -21.9, 
			 "cosmo_repulsion_energy": 1.68, 
			 "cosmo_total_nonelectrostatic_energy": 10.03, 
			 "SMD_solvation_energy": 8.13 
		},
		"coords": [
			{
				"x": 0.2396713532,
				"y": -0.2388704202,
				"z": -3.2621608618,
				"element": "C" 
			},
			{
				"x": 0.5735883391,
				"y": -0.0657700876,
				"z": -1.8464685244,
				"element": "N" 
			},
			{
				"x": 1.8707829629,
				"y": 0.4188282463,
				"z": -1.555321439,
				"element": "C" 
			},
			{
				"x": 2.6574378696,
				"y": 0.6857131451,
				"z": -2.4491703783,
				"element": "O" 
			},
			{
				"x": 2.1809477503,
				"y": 0.5556356052,
				"z": -0.2227813913,
				"element": "N" 
			},
			{
				"x": 3.535222656,
				"y": 1.0450101141,
				"z": 0.0702149021,
				"element": "C" 
			},
			{
				"x": 1.31292946,
				"y": 0.2594928964,
				"z": 0.8615681873,
				"element": "C" 
			},
			{
				"x": 1.7336767971,
				"y": 0.3915120711,
				"z": 2.0062712741,
				"element": "O" 
			},
			{
				"x": -0.0231238631,
				"y": -0.1902767201,
				"z": 0.5017874918,
				"element": "C" 
			},
			{
				"x": -1.0374978131,
				"y": -0.4668008125,
				"z": 1.5060314691,
				"element": "C" 
			},
			{
				"x": -2.1564026126,
				"y": -0.9332120455,
				"z": 1.2322440307,
				"element": "O" 
			},
			{
				"x": -0.7791472701,
				"y": -0.1682175232,
				"z": 2.9958988519,
				"element": "C" 
			},
			{
				"x": -0.7995511038,
				"y": 1.2695668697,
				"z": 3.2708183732,
				"element": "C" 
			},
			{
				"x": -0.8536553261,
				"y": 2.4095814345,
				"z": 3.481649633,
				"element": "N" 
			},
			{
				"x": -0.3416981806,
				"y": -0.3665100862,
				"z": -0.867424311,
				"element": "C" 
			},
			{
				"x": -1.5368009753,
				"y": -0.8288767302,
				"z": -1.2487276511,
				"element": "N" 
			},
			{
				"x": -0.0050654425,
				"y": -1.28445136,
				"z": -3.4749654724,
				"element": "H" 
			},
			{
				"x": 1.1185241832,
				"y": 0.0488166499,
				"z": -3.8338572887,
				"element": "H" 
			},
			{
				"x": -0.5985538575,
				"y": 0.4067969512,
				"z": -3.5442136585,
				"element": "H" 
			},
			{
				"x": 4.2773578853,
				"y": 0.3442659202,
				"z": -0.3182600156,
				"element": "H" 
			},
			{
				"x": 3.6196600269,
				"y": 1.1310317439,
				"z": 1.1501692248,
				"element": "H" 
			},
			{
				"x": 3.6876291269,
				"y": 2.0140633171,
				"z": -0.4081994124,
				"element": "H" 
			},
			{
				"x": 0.186100258,
				"y": -0.5658599261,
				"z": 3.3146707418,
				"element": "H" 
			},
			{
				"x": -1.5944552991,
				"y": -0.6481072891,
				"z": 3.5441103987,
				"element": "H" 
			},
			{
				"x": -2.1791762652,
				"y": -1.0283082448,
				"z": -0.4697877291,
				"element": "H" 
			},
			{
				"x": -1.8024006596,
				"y": -0.8997537191,
				"z": -2.215396445,
				"element": "H" 
			}
		],
		 "valence_orbital": [ 
			{
				"type": "occ",
				"energy": -0.30529,
				"method": "rhf"
			},
			{
				"type": "occ",
				"energy": -0.28142,
				"method": "rhf"
			},
			{
				"type": "occ",
				"energy": -0.27187,
				"method": "rhf"
			},
			{
				"type": "occ",
				"energy": -0.27126,
				"method": "rhf"
			},
			{
				"type": "occ",
				"energy": -0.24848,
				"method": "rhf"
			},
			{
				"type": "unocc",
				"energy": -0.05696,
				"method": "rhf"
			},
			{
				"type": "unocc",
				"energy": -0.02007,
				"method": "rhf"
			},
			{
				"type": "unocc",
				"energy": 0.01415,
				"method": "rhf"
			},
			{
				"type": "unocc",
				"energy": 0.04911,
				"method": "rhf"
			},
			{
				"type": "unocc",
				"energy": 0.0521,
				"method": "rhf"
			}
		],
		"cosmo_sigma_profile": { 
			"-0.025": 0.0,
			"-0.024": 0.0,
			"-0.023": 0.0,
			"-0.022": 0.0,
			"-0.021": 0.0,
			"-0.02": 0.0,
			"-0.019": 0.0,
			"-0.018": 0.0,
			"-0.017": 0.0114986346087,
			"-0.016": 0.774187046817,
			"-0.015": 1.09600032763,
			"-0.014": 1.27988566812,
			"-0.013": 1.47778042397,
			"-0.012": 1.23671415071,
			"-0.011": 1.75221766483,
			"-0.01": 2.63748194865,
			"-0.009": 3.08592911529,
			"-0.008": 5.83674451744,
			"-0.007": 9.98289565236,
			"-0.006": 13.7500262303,
			"-0.005": 18.6008734916,
			"-0.004": 22.0472676611,
			"-0.003": 20.3508867934,
			"-0.002": 18.5295104582,
			"-0.001": 15.2185905916,
			"0.0": 11.7846977129,
			"0.001": 10.0611788291,
			"0.002": 5.98791277053,
			"0.003": 5.5570550053,
			"0.004": 6.23235183901,
			"0.005": 5.7211832692,
			"0.006": 6.855687898,
			"0.007": 7.25783774014,
			"0.008": 7.95855986668,
			"0.009": 7.81068771465,
			"0.01": 8.85245465667,
			"0.011": 9.60340615408,
			"0.012": 8.59087266784,
			"0.013": 2.19218434499,
			"0.014": 0.160155435429,
			"0.015": 0.0,
			"0.016": 0.0,
			"0.017": 0.0,
			"0.018": 0.0,
			"0.019": 0.0,
			"0.02": 0.0,
			"0.021": 0.0,
			"0.022": 0.0,
			"0.023": 0.0,
			"0.024": 0.0,
			"0.025": 0.0
		}
	}
}
