{
	 "smiles": "NC1=C(N=C2SC=CN12)C1=CC=C(F)C=C1", 
	 "Tm": 411.15, 
	 "num_atms": 24, 
	 "gaussian": { 
		 "optdone": 1, 
		 "sigma_profile": "yes", 
		 "theory": "DFT", 
		 "functional": "B3LYP", 
		 "basiset": "6-31G**", 
		 "properties": { 
			 "R2extent": 5612.9202, 
			 "electric_dipole_moment_norm": 4.7510774157, 
			 "electric_quadrupole_moment_norm": 7.70465814621, 
			 "total_energy": -1086.24239403, 
			 "HOMO_LUMO_gap": 0.17003, 
			 "cosmo_polarized_energy": -14.73, 
			 "cosmo_cavitation_energy": 30.68, 
			 "cosmo_dispersion_energy": -23.14, 
			 "cosmo_repulsion_energy": 1.7, 
			 "cosmo_total_nonelectrostatic_energy": 9.24, 
			 "SMD_solvation_energy": 4.17 
		},
		"coords": [
			{
				"x": 1.970308539,
				"y": -0.8862934136,
				"z": -0.4424446188,
				"element": "N" 
			},
			{
				"x": 1.3331012889,
				"y": 0.2523060195,
				"z": 0.0767473656,
				"element": "C" 
			},
			{
				"x": 0.3362143125,
				"y": 1.1157498099,
				"z": -0.3657079465,
				"element": "C" 
			},
			{
				"x": 0.0623507775,
				"y": 2.0924629786,
				"z": 0.5935757845,
				"element": "N" 
			},
			{
				"x": 0.8776263025,
				"y": 1.8236572654,
				"z": 1.5747997977,
				"element": "C" 
			},
			{
				"x": 1.2311651854,
				"y": 2.4966486873,
				"z": 3.1603602787,
				"element": "S" 
			},
			{
				"x": 2.4774137975,
				"y": 1.2649004114,
				"z": 3.3904125296,
				"element": "C" 
			},
			{
				"x": 2.5921341498,
				"y": 0.4234458279,
				"z": 2.3395780593,
				"element": "C" 
			},
			{
				"x": 1.6914383369,
				"y": 0.7306256446,
				"z": 1.3269301895,
				"element": "N" 
			},
			{
				"x": -0.406750135,
				"y": 1.0767476684,
				"z": -1.6306436458,
				"element": "C" 
			},
			{
				"x": 0.1732089455,
				"y": 0.6168982623,
				"z": -2.826380587,
				"element": "C" 
			},
			{
				"x": -0.5617305488,
				"y": 0.5551010504,
				"z": -4.0108847372,
				"element": "C" 
			},
			{
				"x": -1.88365391,
				"y": 0.9806952428,
				"z": -3.9988891864,
				"element": "C" 
			},
			{
				"x": -2.6018392271,
				"y": 0.9280247714,
				"z": -5.1420579145,
				"element": "F" 
			},
			{
				"x": -2.4832957502,
				"y": 1.474148465,
				"z": -2.8439812364,
				"element": "C" 
			},
			{
				"x": -1.7424668952,
				"y": 1.5185348438,
				"z": -1.6669308484,
				"element": "C" 
			},
			{
				"x": 1.6868850604,
				"y": -1.0541509973,
				"z": -1.4000604764,
				"element": "H" 
			},
			{
				"x": 1.7528635546,
				"y": -1.7221516018,
				"z": 0.0980693686,
				"element": "H" 
			},
			{
				"x": 3.0602965876,
				"y": 1.2505410166,
				"z": 4.2991135413,
				"element": "H" 
			},
			{
				"x": 3.2862390565,
				"y": -0.3960827137,
				"z": 2.2198680239,
				"element": "H" 
			},
			{
				"x": 1.2280715088,
				"y": 0.3579716217,
				"z": -2.8545387891,
				"element": "H" 
			},
			{
				"x": -0.1179576178,
				"y": 0.2076590053,
				"z": -4.937696276,
				"element": "H" 
			},
			{
				"x": -3.5142405189,
				"y": 1.8101478111,
				"z": -2.8787959166,
				"element": "H" 
			},
			{
				"x": -2.1875828006,
				"y": 1.900112323,
				"z": -0.7545427599,
				"element": "H" 
			}
		],
		 "valence_orbital": [ 
			{
				"type": "occ",
				"energy": -0.27381,
				"method": "rhf"
			},
			{
				"type": "occ",
				"energy": -0.26041,
				"method": "rhf"
			},
			{
				"type": "occ",
				"energy": -0.25599,
				"method": "rhf"
			},
			{
				"type": "occ",
				"energy": -0.22001,
				"method": "rhf"
			},
			{
				"type": "occ",
				"energy": -0.19191,
				"method": "rhf"
			},
			{
				"type": "unocc",
				"energy": -0.02188,
				"method": "rhf"
			},
			{
				"type": "unocc",
				"energy": -0.0079,
				"method": "rhf"
			},
			{
				"type": "unocc",
				"energy": 0.00349,
				"method": "rhf"
			},
			{
				"type": "unocc",
				"energy": 0.00967,
				"method": "rhf"
			},
			{
				"type": "unocc",
				"energy": 0.04735,
				"method": "rhf"
			}
		],
		"cosmo_sigma_profile": { 
			"-0.025": 0.0,
			"-0.024": 0.0,
			"-0.023": 0.0,
			"-0.022": 0.0,
			"-0.021": 0.0,
			"-0.02": 0.0,
			"-0.019": 0.0,
			"-0.018": 0.0,
			"-0.017": 0.0,
			"-0.016": 0.0,
			"-0.015": 0.0,
			"-0.014": 0.0,
			"-0.013": 0.831504277914,
			"-0.012": 2.13146150865,
			"-0.011": 3.3734612728,
			"-0.01": 5.57964412637,
			"-0.009": 6.51460348738,
			"-0.008": 6.91369824906,
			"-0.007": 10.0328721796,
			"-0.006": 9.70383732882,
			"-0.005": 10.4450568665,
			"-0.004": 11.1189737925,
			"-0.003": 8.41237448878,
			"-0.002": 11.1978976387,
			"-0.001": 13.4785057377,
			"0.0": 17.197250495,
			"0.001": 22.5165506622,
			"0.002": 22.5492552063,
			"0.003": 24.7914673196,
			"0.004": 28.2860493869,
			"0.005": 14.6966270109,
			"0.006": 2.79551728088,
			"0.007": 3.09181632738,
			"0.008": 2.17843201554,
			"0.009": 1.94774553863,
			"0.01": 2.01764747328,
			"0.011": 2.09844115615,
			"0.012": 1.36930732523,
			"0.013": 1.62204265108,
			"0.014": 1.09664331548,
			"0.015": 1.2572059584,
			"0.016": 0.497392116462,
			"0.017": 0.0603375649572,
			"0.018": 0.0,
			"0.019": 0.0,
			"0.02": 0.0,
			"0.021": 0.0,
			"0.022": 0.0,
			"0.023": 0.0,
			"0.024": 0.0,
			"0.025": 0.0
		}
	}
}
