{
	 "smiles": "OC(=O)C1=C(C(Cl)=NC=C1)[N+]([O-])=O", 
	 "Tm": 496.15, 
	 "num_atms": 16, 
	 "gaussian": { 
		 "optdone": 1, 
		 "sigma_profile": "yes", 
		 "theory": "DFT", 
		 "functional": "B3LYP", 
		 "basiset": "6-31G**", 
		 "properties": { 
			 "R2extent": 3702.1022, 
			 "electric_dipole_moment_norm": 3.06108266631, 
			 "electric_quadrupole_moment_norm": 11.591659351, 
			 "total_energy": -1100.92010394, 
			 "HOMO_LUMO_gap": 0.18345, 
			 "cosmo_polarized_energy": -13.22, 
			 "cosmo_cavitation_energy": 24.43, 
			 "cosmo_dispersion_energy": -17.59, 
			 "cosmo_repulsion_energy": 1.39, 
			 "cosmo_total_nonelectrostatic_energy": 8.23, 
			 "SMD_solvation_energy": 6.6 
		},
		"coords": [
			{
				"x": 1.7539334146,
				"y": 1.9706346055,
				"z": -2.1181510931,
				"element": "O" 
			},
			{
				"x": 1.9348170808,
				"y": 0.8262674404,
				"z": -1.4412470523,
				"element": "C" 
			},
			{
				"x": 2.5575884915,
				"y": -0.1198859344,
				"z": -1.8707329608,
				"element": "O" 
			},
			{
				"x": 1.2858093832,
				"y": 0.8274390512,
				"z": -0.0855263591,
				"element": "C" 
			},
			{
				"x": 0.5534657854,
				"y": 1.8805066466,
				"z": 0.4717486368,
				"element": "C" 
			},
			{
				"x": 0.0100434643,
				"y": 1.7207131789,
				"z": 1.7558044133,
				"element": "C" 
			},
			{
				"x": -0.9091055664,
				"y": 3.0204206044,
				"z": 2.475585416,
				"element": "Cl" 
			},
			{
				"x": 0.1541303169,
				"y": 0.6218535016,
				"z": 2.4707240754,
				"element": "N" 
			},
			{
				"x": 0.8543752362,
				"y": -0.3906353844,
				"z": 1.9429423739,
				"element": "C" 
			},
			{
				"x": 1.4329542156,
				"y": -0.334066807,
				"z": 0.6809796208,
				"element": "C" 
			},
			{
				"x": 0.3277222392,
				"y": 3.1572864764,
				"z": -0.2375176148,
				"element": "N" 
			},
			{
				"x": -0.6802825106,
				"y": 3.2259277966,
				"z": -0.9269601481,
				"element": "O" 
			},
			{
				"x": 1.1543255821,
				"y": 4.0386892816,
				"z": -0.0479397735,
				"element": "O" 
			},
			{
				"x": 2.2049076205,
				"y": 1.8761214182,
				"z": -2.9739015914,
				"element": "H" 
			},
			{
				"x": 0.9506080312,
				"y": -1.2781167629,
				"z": 2.562418647,
				"element": "H" 
			},
			{
				"x": 1.9961072158,
				"y": -1.1636551126,
				"z": 0.2707734099,
				"element": "H" 
			}
		],
		 "valence_orbital": [ 
			{
				"type": "occ",
				"energy": -0.32694,
				"method": "rhf"
			},
			{
				"type": "occ",
				"energy": -0.31499,
				"method": "rhf"
			},
			{
				"type": "occ",
				"energy": -0.31145,
				"method": "rhf"
			},
			{
				"type": "occ",
				"energy": -0.30274,
				"method": "rhf"
			},
			{
				"type": "occ",
				"energy": -0.28424,
				"method": "rhf"
			},
			{
				"type": "unocc",
				"energy": -0.10079,
				"method": "rhf"
			},
			{
				"type": "unocc",
				"energy": -0.08647,
				"method": "rhf"
			},
			{
				"type": "unocc",
				"energy": -0.05813,
				"method": "rhf"
			},
			{
				"type": "unocc",
				"energy": 0.00772,
				"method": "rhf"
			},
			{
				"type": "unocc",
				"energy": 0.01227,
				"method": "rhf"
			}
		],
		"cosmo_sigma_profile": { 
			"-0.025": 0.0,
			"-0.024": 0.0,
			"-0.023": 0.0,
			"-0.022": 0.0,
			"-0.021": 0.00280078222354,
			"-0.02": 0.705075013849,
			"-0.019": 0.896475787449,
			"-0.018": 1.33480952992,
			"-0.017": 0.704728876769,
			"-0.016": 0.31715075872,
			"-0.015": 0.349573967317,
			"-0.014": 1.37827860192,
			"-0.013": 1.27411545244,
			"-0.012": 0.308885014583,
			"-0.011": 0.357706937535,
			"-0.01": 0.726186614807,
			"-0.009": 5.30775880013,
			"-0.008": 5.20186136443,
			"-0.007": 4.68248423863,
			"-0.006": 6.52288858609,
			"-0.005": 10.2629025837,
			"-0.004": 12.8688932868,
			"-0.003": 13.5136830216,
			"-0.002": 14.6130352906,
			"-0.001": 11.1636945043,
			"0.0": 10.6391535714,
			"0.001": 11.5015940436,
			"0.002": 12.2793686419,
			"0.003": 11.9460182291,
			"0.004": 8.72044958594,
			"0.005": 8.88707371163,
			"0.006": 16.1456247141,
			"0.007": 9.56556137781,
			"0.008": 6.35606708796,
			"0.009": 3.48955944147,
			"0.01": 5.23770396433,
			"0.011": 1.63698707791,
			"0.012": 0.524351230362,
			"0.013": 0.0425161815975,
			"0.014": 0.0,
			"0.015": 0.0,
			"0.016": 0.0,
			"0.017": 0.0,
			"0.018": 0.0,
			"0.019": 0.0,
			"0.02": 0.0,
			"0.021": 0.0,
			"0.022": 0.0,
			"0.023": 0.0,
			"0.024": 0.0,
			"0.025": 0.0
		}
	}
}
