{
	 "smiles": "COC(=O)C1=CC=NO1", 
	 "Tm": 322.15, 
	 "num_atms": 14, 
	 "gaussian": { 
		 "optdone": 1, 
		 "sigma_profile": "yes", 
		 "theory": "DFT", 
		 "functional": "B3LYP", 
		 "basiset": "6-31G**", 
		 "properties": { 
			 "R2extent": 1711.9096, 
			 "electric_dipole_moment_norm": 1.26115941102, 
			 "electric_quadrupole_moment_norm": 16.4349397775, 
			 "total_energy": -473.908017399, 
			 "HOMO_LUMO_gap": 0.21377, 
			 "cosmo_polarized_energy": -9.67, 
			 "cosmo_cavitation_energy": 19.53, 
			 "cosmo_dispersion_energy": -14.42, 
			 "cosmo_repulsion_energy": 1.19, 
			 "cosmo_total_nonelectrostatic_energy": 6.3, 
			 "SMD_solvation_energy": 5.45 
		},
		"coords": [
			{
				"x": -0.2416214713,
				"y": 0.0538362453,
				"z": -2.3707925177,
				"element": "C" 
			},
			{
				"x": -0.6136579241,
				"y": -0.5718030049,
				"z": -1.1290693468,
				"element": "O" 
			},
			{
				"x": 0.4117355266,
				"y": -0.9402858065,
				"z": -0.3473026536,
				"element": "C" 
			},
			{
				"x": 1.5864192844,
				"y": -0.7845589262,
				"z": -0.6120927809,
				"element": "O" 
			},
			{
				"x": -0.0411153674,
				"y": -1.5750638938,
				"z": 0.9099824618,
				"element": "C" 
			},
			{
				"x": 0.6964488479,
				"y": -2.0746397123,
				"z": 1.944524057,
				"element": "C" 
			},
			{
				"x": -0.2907940061,
				"y": -2.5445088234,
				"z": 2.8482319238,
				"element": "C" 
			},
			{
				"x": -1.5115476762,
				"y": -2.3455529465,
				"z": 2.3982654351,
				"element": "N" 
			},
			{
				"x": -1.3590036393,
				"y": -1.7284405298,
				"z": 1.16387377,
				"element": "O" 
			},
			{
				"x": 0.3626058142,
				"y": -0.6268520763,
				"z": -2.9753115912,
				"element": "H" 
			},
			{
				"x": -1.180752668,
				"y": 0.2842379671,
				"z": -2.8718801419,
				"element": "H" 
			},
			{
				"x": 0.3303480393,
				"y": 0.9656003483,
				"z": -2.1826183668,
				"element": "H" 
			},
			{
				"x": 1.770913275,
				"y": -2.0958723353,
				"z": 2.0314549618,
				"element": "H" 
			},
			{
				"x": -0.1587780351,
				"y": -3.0207965056,
				"z": 3.8110347893,
				"element": "H" 
			}
		],
		 "valence_orbital": [ 
			{
				"type": "occ",
				"energy": -0.32355,
				"method": "rhf"
			},
			{
				"type": "occ",
				"energy": -0.31826,
				"method": "rhf"
			},
			{
				"type": "occ",
				"energy": -0.31237,
				"method": "rhf"
			},
			{
				"type": "occ",
				"energy": -0.29121,
				"method": "rhf"
			},
			{
				"type": "occ",
				"energy": -0.27895,
				"method": "rhf"
			},
			{
				"type": "unocc",
				"energy": -0.06518,
				"method": "rhf"
			},
			{
				"type": "unocc",
				"energy": 0.01985,
				"method": "rhf"
			},
			{
				"type": "unocc",
				"energy": 0.089,
				"method": "rhf"
			},
			{
				"type": "unocc",
				"energy": 0.09047,
				"method": "rhf"
			},
			{
				"type": "unocc",
				"energy": 0.10438,
				"method": "rhf"
			}
		],
		"cosmo_sigma_profile": { 
			"-0.025": 0.0,
			"-0.024": 0.0,
			"-0.023": 0.0,
			"-0.022": 0.0,
			"-0.021": 0.0,
			"-0.02": 0.0,
			"-0.019": 0.0,
			"-0.018": 0.0,
			"-0.017": 0.0,
			"-0.016": 0.0,
			"-0.015": 0.0,
			"-0.014": 0.0,
			"-0.013": 0.0,
			"-0.012": 0.0,
			"-0.011": 0.16704273525,
			"-0.01": 2.83069509114,
			"-0.009": 2.8379280912,
			"-0.008": 3.55514425104,
			"-0.007": 6.61897213219,
			"-0.006": 10.0872763549,
			"-0.005": 13.3907014142,
			"-0.004": 14.0324636958,
			"-0.003": 10.9343749251,
			"-0.002": 10.4175546267,
			"-0.001": 11.3411840429,
			"0.0": 10.517854864,
			"0.001": 5.93911470698,
			"0.002": 4.80445939669,
			"0.003": 4.66692047824,
			"0.004": 4.33146574098,
			"0.005": 4.7657192065,
			"0.006": 6.28633172718,
			"0.007": 6.36766876534,
			"0.008": 5.82305679703,
			"0.009": 4.9326845751,
			"0.01": 3.72833712703,
			"0.011": 6.14613757172,
			"0.012": 1.74407417221,
			"0.013": 0.713409719744,
			"0.014": 0.0112047818578,
			"0.015": 0.0,
			"0.016": 0.0,
			"0.017": 0.0,
			"0.018": 0.0,
			"0.019": 0.0,
			"0.02": 0.0,
			"0.021": 0.0,
			"0.022": 0.0,
			"0.023": 0.0,
			"0.024": 0.0,
			"0.025": 0.0
		}
	}
}
