{
	 "smiles": "NC(CSCC1=CC=CC=C1)C(O)=O", 
	 "Tm": 485.15, 
	 "num_atms": 27, 
	 "gaussian": { 
		 "optdone": 1, 
		 "sigma_profile": "yes", 
		 "theory": "DFT", 
		 "functional": "B3LYP", 
		 "basiset": "6-31G**", 
		 "properties": { 
			 "R2extent": 3515.5819, 
			 "electric_dipole_moment_norm": 4.95755496288, 
			 "electric_quadrupole_moment_norm": 19.1213043585, 
			 "total_energy": -992.301596225, 
			 "HOMO_LUMO_gap": 0.21627, 
			 "cosmo_polarized_energy": -15.43, 
			 "cosmo_cavitation_energy": 31.7, 
			 "cosmo_dispersion_energy": -22.11, 
			 "cosmo_repulsion_energy": 1.72, 
			 "cosmo_total_nonelectrostatic_energy": 11.3, 
			 "SMD_solvation_energy": 5.5 
		},
		"coords": [
			{
				"x": -1.4661241751,
				"y": -1.6750233451,
				"z": 0.268574884,
				"element": "N" 
			},
			{
				"x": -1.0952790732,
				"y": -0.6060055123,
				"z": 1.2066054788,
				"element": "C" 
			},
			{
				"x": -2.0468879711,
				"y": 0.6021393,
				"z": 1.0999372421,
				"element": "C" 
			},
			{
				"x": -2.1933175201,
				"y": 1.3787080051,
				"z": -0.5546177109,
				"element": "S" 
			},
			{
				"x": -0.5693368702,
				"y": 2.2361778997,
				"z": -0.7539269552,
				"element": "C" 
			},
			{
				"x": 0.6298834758,
				"y": 1.3676396889,
				"z": -1.06324175,
				"element": "C" 
			},
			{
				"x": 0.6573977818,
				"y": 0.5498340258,
				"z": -2.2027463953,
				"element": "C" 
			},
			{
				"x": 1.7783570427,
				"y": -0.2257841582,
				"z": -2.4946288565,
				"element": "C" 
			},
			{
				"x": 2.8921568247,
				"y": -0.1992689158,
				"z": -1.64986408,
				"element": "C" 
			},
			{
				"x": 2.8768204538,
				"y": 0.6117397904,
				"z": -0.5152830185,
				"element": "C" 
			},
			{
				"x": 1.7531553994,
				"y": 1.3907002224,
				"z": -0.2263998169,
				"element": "C" 
			},
			{
				"x": -1.198221924,
				"y": -1.1352642163,
				"z": 2.654853931,
				"element": "C" 
			},
			{
				"x": -1.839159262,
				"y": -2.3067227752,
				"z": 2.7500235204,
				"element": "O" 
			},
			{
				"x": -0.7690280734,
				"y": -0.5202301619,
				"z": 3.6041476679,
				"element": "O" 
			},
			{
				"x": -0.635056536,
				"y": -2.1505695234,
				"z": -0.0722751383,
				"element": "H" 
			},
			{
				"x": -1.9251246728,
				"y": -1.2754718559,
				"z": -0.5482124186,
				"element": "H" 
			},
			{
				"x": -0.0671468845,
				"y": -0.2574778184,
				"z": 1.0697247483,
				"element": "H" 
			},
			{
				"x": -3.0698416202,
				"y": 0.2856855677,
				"z": 1.3325779917,
				"element": "H" 
			},
			{
				"x": -1.7563670482,
				"y": 1.349029781,
				"z": 1.8422241144,
				"element": "H" 
			},
			{
				"x": -0.76175845,
				"y": 2.9319161132,
				"z": -1.5777572616,
				"element": "H" 
			},
			{
				"x": -0.3922597471,
				"y": 2.8404660579,
				"z": 0.1406084673,
				"element": "H" 
			},
			{
				"x": -0.2081287173,
				"y": 0.5209710017,
				"z": -2.8595535414,
				"element": "H" 
			},
			{
				"x": 1.7853996202,
				"y": -0.8498187409,
				"z": -3.3839861801,
				"element": "H" 
			},
			{
				"x": 3.7646018236,
				"y": -0.8047235695,
				"z": -1.8773970389,
				"element": "H" 
			},
			{
				"x": 3.7367578676,
				"y": 0.6405877202,
				"z": 0.1475588459,
				"element": "H" 
			},
			{
				"x": 1.7492934325,
				"y": 2.0225117072,
				"z": 0.6585167442,
				"element": "H" 
			},
			{
				"x": -2.0466851768,
				"y": -2.5449462885,
				"z": 1.8114365262,
				"element": "H" 
			}
		],
		 "valence_orbital": [ 
			{
				"type": "occ",
				"energy": -0.29377,
				"method": "rhf"
			},
			{
				"type": "occ",
				"energy": -0.2643,
				"method": "rhf"
			},
			{
				"type": "occ",
				"energy": -0.25985,
				"method": "rhf"
			},
			{
				"type": "occ",
				"energy": -0.24891,
				"method": "rhf"
			},
			{
				"type": "occ",
				"energy": -0.23993,
				"method": "rhf"
			},
			{
				"type": "unocc",
				"energy": -0.02366,
				"method": "rhf"
			},
			{
				"type": "unocc",
				"energy": -0.01546,
				"method": "rhf"
			},
			{
				"type": "unocc",
				"energy": 0.01115,
				"method": "rhf"
			},
			{
				"type": "unocc",
				"energy": 0.03779,
				"method": "rhf"
			},
			{
				"type": "unocc",
				"energy": 0.06499,
				"method": "rhf"
			}
		],
		"cosmo_sigma_profile": { 
			"-0.025": 0.0,
			"-0.024": 0.0,
			"-0.023": 0.0,
			"-0.022": 0.0,
			"-0.021": 0.0,
			"-0.02": 0.0,
			"-0.019": 0.0,
			"-0.018": 0.0,
			"-0.017": 0.0,
			"-0.016": 0.0,
			"-0.015": 0.0,
			"-0.014": 0.0,
			"-0.013": 0.0,
			"-0.012": 0.493713295888,
			"-0.011": 1.21692364904,
			"-0.01": 1.87556841495,
			"-0.009": 2.69336918132,
			"-0.008": 3.45785438813,
			"-0.007": 7.99737596221,
			"-0.006": 19.1298263832,
			"-0.005": 23.9798832525,
			"-0.004": 21.3930026196,
			"-0.003": 21.1754527194,
			"-0.002": 16.0316522074,
			"-0.001": 13.9342289484,
			"0.0": 13.8741411732,
			"0.001": 13.2455744338,
			"0.002": 13.2389956323,
			"0.003": 12.6458999208,
			"0.004": 12.2119813472,
			"0.005": 11.7283829607,
			"0.006": 7.81093449471,
			"0.007": 5.81447804089,
			"0.008": 3.75967019634,
			"0.009": 4.01452329994,
			"0.01": 5.21563161953,
			"0.011": 5.00401982012,
			"0.012": 5.2156312451,
			"0.013": 4.23500598378,
			"0.014": 0.729065081595,
			"0.015": 0.0,
			"0.016": 0.0,
			"0.017": 0.0,
			"0.018": 0.0,
			"0.019": 0.0,
			"0.02": 0.0,
			"0.021": 0.0,
			"0.022": 0.0,
			"0.023": 0.0,
			"0.024": 0.0,
			"0.025": 0.0
		}
	}
}
