{
	 "smiles": "CC1=NC2=NC(CC(O)=O)=NN2C(C)=C1", 
	 "Tm": 471.15, 
	 "num_atms": 25, 
	 "gaussian": { 
		 "optdone": 1, 
		 "sigma_profile": "yes", 
		 "theory": "DFT", 
		 "functional": "B3LYP", 
		 "basiset": "6-31G**", 
		 "properties": { 
			 "R2extent": 4078.3613, 
			 "electric_dipole_moment_norm": 9.58106370608, 
			 "electric_quadrupole_moment_norm": 14.2898401517, 
			 "total_energy": -718.460892724, 
			 "HOMO_LUMO_gap": 0.17731, 
			 "cosmo_polarized_energy": -18.73, 
			 "cosmo_cavitation_energy": 29.6, 
			 "cosmo_dispersion_energy": -22.07, 
			 "cosmo_repulsion_energy": 1.74, 
			 "cosmo_total_nonelectrostatic_energy": 9.27, 
			 "SMD_solvation_energy": 2.99 
		},
		"coords": [
			{
				"x": -1.7473255342,
				"y": -2.3453782409,
				"z": 3.5397302779,
				"element": "C" 
			},
			{
				"x": -0.9885298966,
				"y": -1.446571891,
				"z": 2.5991611741,
				"element": "C" 
			},
			{
				"x": -0.3347457194,
				"y": -2.0390836994,
				"z": 1.6048279791,
				"element": "N" 
			},
			{
				"x": 0.3388662118,
				"y": -1.2427102714,
				"z": 0.7693237833,
				"element": "C" 
			},
			{
				"x": 1.0768545773,
				"y": -1.5522980042,
				"z": -0.3005745117,
				"element": "N" 
			},
			{
				"x": 1.5100337384,
				"y": -0.3503599085,
				"z": -0.7614016576,
				"element": "C" 
			},
			{
				"x": 2.3901506303,
				"y": -0.2459014091,
				"z": -1.9657976439,
				"element": "C" 
			},
			{
				"x": 2.0639827085,
				"y": -1.1990734561,
				"z": -3.1343545574,
				"element": "C" 
			},
			{
				"x": 1.5474726883,
				"y": -2.3925369547,
				"z": -2.8168152329,
				"element": "O" 
			},
			{
				"x": 2.3279787905,
				"y": -0.891996744,
				"z": -4.2725879945,
				"element": "O" 
			},
			{
				"x": 1.1131217803,
				"y": 0.7185420906,
				"z": -0.0676971288,
				"element": "N" 
			},
			{
				"x": 0.3655428799,
				"y": 0.1463546792,
				"z": 0.9167662167,
				"element": "N" 
			},
			{
				"x": -0.2938364381,
				"y": 0.7857134744,
				"z": 1.9234390792,
				"element": "C" 
			},
			{
				"x": -0.2036347923,
				"y": 2.2746773126,
				"z": 1.9892288487,
				"element": "C" 
			},
			{
				"x": -0.9870480528,
				"y": -0.0361143516,
				"z": 2.7860874273,
				"element": "C" 
			},
			{
				"x": -2.4907075484,
				"y": -2.9253485901,
				"z": 2.9840554819,
				"element": "H" 
			},
			{
				"x": -2.2545027899,
				"y": -1.7812942835,
				"z": 4.3254193007,
				"element": "H" 
			},
			{
				"x": -1.063970573,
				"y": -3.063235075,
				"z": 4.003931211,
				"element": "H" 
			},
			{
				"x": 3.4231041043,
				"y": -0.4770866976,
				"z": -1.6694129078,
				"element": "H" 
			},
			{
				"x": 2.389577505,
				"y": 0.7736155166,
				"z": -2.3515087592,
				"element": "H" 
			},
			{
				"x": 1.3396160928,
				"y": -2.4340062876,
				"z": -1.8517318035,
				"element": "H" 
			},
			{
				"x": -0.5851144834,
				"y": 2.7207334893,
				"z": 1.0650889588,
				"element": "H" 
			},
			{
				"x": -0.7740365799,
				"y": 2.6544740956,
				"z": 2.8380580588,
				"element": "H" 
			},
			{
				"x": 0.8405801439,
				"y": 2.5902875196,
				"z": 2.0814545929,
				"element": "H" 
			},
			{
				"x": -1.5338294433,
				"y": 0.4057976868,
				"z": 3.6103098071,
				"element": "H" 
			}
		],
		 "valence_orbital": [ 
			{
				"type": "occ",
				"energy": -0.29313,
				"method": "rhf"
			},
			{
				"type": "occ",
				"energy": -0.2901,
				"method": "rhf"
			},
			{
				"type": "occ",
				"energy": -0.28258,
				"method": "rhf"
			},
			{
				"type": "occ",
				"energy": -0.2666,
				"method": "rhf"
			},
			{
				"type": "occ",
				"energy": -0.25,
				"method": "rhf"
			},
			{
				"type": "unocc",
				"energy": -0.07269,
				"method": "rhf"
			},
			{
				"type": "unocc",
				"energy": -0.03245,
				"method": "rhf"
			},
			{
				"type": "unocc",
				"energy": 0.02206,
				"method": "rhf"
			},
			{
				"type": "unocc",
				"energy": 0.03642,
				"method": "rhf"
			},
			{
				"type": "unocc",
				"energy": 0.07504,
				"method": "rhf"
			}
		],
		"cosmo_sigma_profile": { 
			"-0.025": 0.0,
			"-0.024": 0.0,
			"-0.023": 0.0,
			"-0.022": 0.0,
			"-0.021": 0.0,
			"-0.02": 0.0,
			"-0.019": 0.0,
			"-0.018": 0.0,
			"-0.017": 0.0,
			"-0.016": 0.0,
			"-0.015": 0.0,
			"-0.014": 0.0,
			"-0.013": 0.0,
			"-0.012": 0.0,
			"-0.011": 0.0,
			"-0.01": 0.0,
			"-0.009": 2.31080473764,
			"-0.008": 7.16846525876,
			"-0.007": 9.00832611147,
			"-0.006": 15.741849332,
			"-0.005": 21.7656852322,
			"-0.004": 22.5163498585,
			"-0.003": 23.5370795819,
			"-0.002": 26.1869766288,
			"-0.001": 18.7365837284,
			"0.0": 10.5347047668,
			"0.001": 6.66978829489,
			"0.002": 6.04621078718,
			"0.003": 5.72119546588,
			"0.004": 5.22853871639,
			"0.005": 4.82192400302,
			"0.006": 5.71888777169,
			"0.007": 4.61592109735,
			"0.008": 5.57090573382,
			"0.009": 6.94533848788,
			"0.01": 5.84536000838,
			"0.011": 7.83983648336,
			"0.012": 7.71220736899,
			"0.013": 4.5039389527,
			"0.014": 1.41303923628,
			"0.015": 0.167554085844,
			"0.016": 0.0,
			"0.017": 0.0,
			"0.018": 0.0,
			"0.019": 0.0,
			"0.02": 0.0,
			"0.021": 0.0,
			"0.022": 0.0,
			"0.023": 0.0,
			"0.024": 0.0,
			"0.025": 0.0
		}
	}
}
