{
	 "smiles": "COC1=C(C=C(Cl)C(Cl)=C1)C(O)=O", 
	 "Tm": 422.15, 
	 "num_atms": 19, 
	 "gaussian": { 
		 "optdone": 1, 
		 "sigma_profile": "yes", 
		 "theory": "DFT", 
		 "functional": "B3LYP", 
		 "basiset": "6-31G**", 
		 "properties": { 
			 "R2extent": 4377.8501, 
			 "electric_dipole_moment_norm": 6.34849392376, 
			 "electric_quadrupole_moment_norm": 10.1861696643, 
			 "total_energy": -1454.52069777, 
			 "HOMO_LUMO_gap": 0.18717, 
			 "cosmo_polarized_energy": -14.08, 
			 "cosmo_cavitation_energy": 27.11, 
			 "cosmo_dispersion_energy": -20.35, 
			 "cosmo_repulsion_energy": 1.61, 
			 "cosmo_total_nonelectrostatic_energy": 8.37, 
			 "SMD_solvation_energy": 6.1 
		},
		"coords": [
			{
				"x": 0.0784628052,
				"y": 2.0036890615,
				"z": -1.034425808,
				"element": "C" 
			},
			{
				"x": 0.50184006,
				"y": 0.6546491958,
				"z": -0.8336482344,
				"element": "O" 
			},
			{
				"x": 0.192442572,
				"y": 0.009612807,
				"z": 0.3351311491,
				"element": "C" 
			},
			{
				"x": 0.6377420253,
				"y": -1.3235613973,
				"z": 0.4778397176,
				"element": "C" 
			},
			{
				"x": 0.3324521174,
				"y": -1.9975665519,
				"z": 1.6619658945,
				"element": "C" 
			},
			{
				"x": -0.3889243499,
				"y": -1.3977750013,
				"z": 2.6900859401,
				"element": "C" 
			},
			{
				"x": -0.7291779323,
				"y": -2.3079867556,
				"z": 4.1383496285,
				"element": "Cl" 
			},
			{
				"x": -0.8221380108,
				"y": -0.0760033266,
				"z": 2.5310378402,
				"element": "C" 
			},
			{
				"x": -1.7297968892,
				"y": 0.7429159654,
				"z": 3.7727447962,
				"element": "Cl" 
			},
			{
				"x": -0.531838675,
				"y": 0.623692204,
				"z": 1.3575548436,
				"element": "C" 
			},
			{
				"x": 1.4277139934,
				"y": -2.1124716323,
				"z": -0.5415521068,
				"element": "C" 
			},
			{
				"x": 1.744816129,
				"y": -1.5045640157,
				"z": -1.6977712711,
				"element": "O" 
			},
			{
				"x": 1.7663573504,
				"y": -3.2555070565,
				"z": -0.3283211831,
				"element": "O" 
			},
			{
				"x": -1.0138722793,
				"y": 2.0793186272,
				"z": -1.0108734493,
				"element": "H" 
			},
			{
				"x": 0.5150618089,
				"y": 2.6677382479,
				"z": -0.2808405555,
				"element": "H" 
			},
			{
				"x": 0.4424681868,
				"y": 2.2839012566,
				"z": -2.022664756,
				"element": "H" 
			},
			{
				"x": 0.6802877903,
				"y": -3.019676609,
				"z": 1.7578895418,
				"element": "H" 
			},
			{
				"x": -0.8810449945,
				"y": 1.6430941613,
				"z": 1.2665820009,
				"element": "H" 
			},
			{
				"x": 1.3957482923,
				"y": -0.5942991804,
				"z": -1.7009839885,
				"element": "H" 
			}
		],
		 "valence_orbital": [ 
			{
				"type": "occ",
				"energy": -0.31966,
				"method": "rhf"
			},
			{
				"type": "occ",
				"energy": -0.30824,
				"method": "rhf"
			},
			{
				"type": "occ",
				"energy": -0.27676,
				"method": "rhf"
			},
			{
				"type": "occ",
				"energy": -0.27483,
				"method": "rhf"
			},
			{
				"type": "occ",
				"energy": -0.25177,
				"method": "rhf"
			},
			{
				"type": "unocc",
				"energy": -0.0646,
				"method": "rhf"
			},
			{
				"type": "unocc",
				"energy": -0.02952,
				"method": "rhf"
			},
			{
				"type": "unocc",
				"energy": -0.0083,
				"method": "rhf"
			},
			{
				"type": "unocc",
				"energy": 0.0408,
				"method": "rhf"
			},
			{
				"type": "unocc",
				"energy": 0.04786,
				"method": "rhf"
			}
		],
		"cosmo_sigma_profile": { 
			"-0.025": 0.0,
			"-0.024": 0.0,
			"-0.023": 0.0,
			"-0.022": 0.0,
			"-0.021": 0.0,
			"-0.02": 0.0,
			"-0.019": 0.0,
			"-0.018": 0.0,
			"-0.017": 0.0,
			"-0.016": 0.0,
			"-0.015": 0.0,
			"-0.014": 0.0,
			"-0.013": 0.0,
			"-0.012": 0.0,
			"-0.011": 0.161965524403,
			"-0.01": 0.90898626952,
			"-0.009": 2.90836865429,
			"-0.008": 4.64019017244,
			"-0.007": 11.4786234082,
			"-0.006": 12.4503291485,
			"-0.005": 13.2598645894,
			"-0.004": 13.2087995355,
			"-0.003": 11.7822564313,
			"-0.002": 14.1377111465,
			"-0.001": 21.5988239744,
			"0.0": 27.3669422804,
			"0.001": 13.8624225642,
			"0.002": 11.9611313637,
			"0.003": 16.9987789822,
			"0.004": 14.8355552062,
			"0.005": 4.42421187851,
			"0.006": 1.85409575053,
			"0.007": 2.34174015759,
			"0.008": 2.65431603557,
			"0.009": 3.254231326,
			"0.01": 4.00979172649,
			"0.011": 5.70722628478,
			"0.012": 4.45273372633,
			"0.013": 1.88590814457,
			"0.014": 0.160884124236,
			"0.015": 0.0,
			"0.016": 0.0,
			"0.017": 0.0,
			"0.018": 0.0,
			"0.019": 0.0,
			"0.02": 0.0,
			"0.021": 0.0,
			"0.022": 0.0,
			"0.023": 0.0,
			"0.024": 0.0,
			"0.025": 0.0
		}
	}
}
