{
	 "smiles": "OC(=O)CCC1=CC=CC(Br)=C1", 
	 "Tm": 350.15, 
	 "num_atms": 21, 
	 "gaussian": { 
		 "optdone": 1, 
		 "sigma_profile": "yes", 
		 "theory": "DFT", 
		 "functional": "B3LYP", 
		 "basiset": "6-31G**", 
		 "properties": { 
			 "R2extent": 5424.6586, 
			 "electric_dipole_moment_norm": 2.05828787345, 
			 "electric_quadrupole_moment_norm": 12.3700755491, 
			 "total_energy": -3070.25758458, 
			 "HOMO_LUMO_gap": 0.22606, 
			 "cosmo_polarized_energy": -10.72, 
			 "cosmo_cavitation_energy": 28.17, 
			 "cosmo_dispersion_energy": -20.56, 
			 "cosmo_repulsion_energy": 1.67, 
			 "cosmo_total_nonelectrostatic_energy": 9.28, 
			 "SMD_solvation_energy": 4.63 
		},
		"coords": [
			{
				"x": 0.9427755151,
				"y": 0.7322311203,
				"z": 4.1011411002,
				"element": "O" 
			},
			{
				"x": 0.4332389415,
				"y": 1.4396081357,
				"z": 3.0635830279,
				"element": "C" 
			},
			{
				"x": 0.2557945384,
				"y": 2.6369477879,
				"z": 3.1140025754,
				"element": "O" 
			},
			{
				"x": 0.1323105643,
				"y": 0.5464576661,
				"z": 1.8794907912,
				"element": "C" 
			},
			{
				"x": -0.4582023402,
				"y": 1.3201859288,
				"z": 0.6904714194,
				"element": "C" 
			},
			{
				"x": -0.7454938831,
				"y": 0.4197689965,
				"z": -0.4920338422,
				"element": "C" 
			},
			{
				"x": 0.2273107099,
				"y": 0.1840751793,
				"z": -1.4725609531,
				"element": "C" 
			},
			{
				"x": -0.0309979075,
				"y": -0.6723511129,
				"z": -2.5428538376,
				"element": "C" 
			},
			{
				"x": -1.2660429135,
				"y": -1.312103083,
				"z": -2.6581053177,
				"element": "C" 
			},
			{
				"x": -2.2314178695,
				"y": -1.0736343596,
				"z": -1.6821604209,
				"element": "C" 
			},
			{
				"x": -3.9362068584,
				"y": -1.9325818224,
				"z": -1.8218049212,
				"element": "Br" 
			},
			{
				"x": -1.9867726012,
				"y": -0.2203187964,
				"z": -0.6087305357,
				"element": "C" 
			},
			{
				"x": 1.1060492232,
				"y": 1.3747239059,
				"z": 4.8121447195,
				"element": "H" 
			},
			{
				"x": -0.5480594915,
				"y": -0.2458000898,
				"z": 2.2144623775,
				"element": "H" 
			},
			{
				"x": 1.0595866085,
				"y": 0.0333488084,
				"z": 1.5967599861,
				"element": "H" 
			},
			{
				"x": -1.3736718259,
				"y": 1.8244863945,
				"z": 1.015300876,
				"element": "H" 
			},
			{
				"x": 0.2398478326,
				"y": 2.1119070908,
				"z": 0.4010307657,
				"element": "H" 
			},
			{
				"x": 1.1912939252,
				"y": 0.6809442005,
				"z": -1.3994331376,
				"element": "H" 
			},
			{
				"x": 0.7304071068,
				"y": -0.8426329562,
				"z": -3.2985248938,
				"element": "H" 
			},
			{
				"x": -1.4769693921,
				"y": -1.9764963889,
				"z": -3.4880051695,
				"element": "H" 
			},
			{
				"x": -2.7616798826,
				"y": -0.0487666054,
				"z": 0.1314253905,
				"element": "H" 
			}
		],
		 "valence_orbital": [ 
			{
				"type": "occ",
				"energy": -0.31046,
				"method": "rhf"
			},
			{
				"type": "occ",
				"energy": -0.28663,
				"method": "rhf"
			},
			{
				"type": "occ",
				"energy": -0.28199,
				"method": "rhf"
			},
			{
				"type": "occ",
				"energy": -0.25821,
				"method": "rhf"
			},
			{
				"type": "occ",
				"energy": -0.24251,
				"method": "rhf"
			},
			{
				"type": "unocc",
				"energy": -0.01645,
				"method": "rhf"
			},
			{
				"type": "unocc",
				"energy": -0.01528,
				"method": "rhf"
			},
			{
				"type": "unocc",
				"energy": 0.00605,
				"method": "rhf"
			},
			{
				"type": "unocc",
				"energy": 0.00719,
				"method": "rhf"
			},
			{
				"type": "unocc",
				"energy": 0.07583,
				"method": "rhf"
			}
		],
		"cosmo_sigma_profile": { 
			"-0.025": 0.0,
			"-0.024": 0.0,
			"-0.023": 0.0,
			"-0.022": 0.0,
			"-0.021": 0.0,
			"-0.02": 0.0,
			"-0.019": 0.00766874654766,
			"-0.018": 0.6965410754,
			"-0.017": 1.0081270815,
			"-0.016": 0.592371438673,
			"-0.015": 0.640256440376,
			"-0.014": 1.1909561323,
			"-0.013": 0.448768076012,
			"-0.012": 0.88760469882,
			"-0.011": 0.525980796071,
			"-0.01": 0.840288029084,
			"-0.009": 0.398572401079,
			"-0.008": 0.717129891799,
			"-0.007": 3.24660844523,
			"-0.006": 14.0953787625,
			"-0.005": 19.1561974956,
			"-0.004": 18.9575198264,
			"-0.003": 15.1228089099,
			"-0.002": 14.7480871514,
			"-0.001": 13.200169107,
			"0.0": 13.0699742793,
			"0.001": 13.4254580753,
			"0.002": 16.7094687105,
			"0.003": 19.3999627393,
			"0.004": 22.1757078265,
			"0.005": 12.4471687182,
			"0.006": 3.18513359972,
			"0.007": 2.96697739965,
			"0.008": 2.77232546564,
			"0.009": 3.14514207422,
			"0.01": 2.53344939789,
			"0.011": 3.76919013653,
			"0.012": 4.36247369443,
			"0.013": 0.393555972255,
			"0.014": 0.0,
			"0.015": 0.0,
			"0.016": 0.0,
			"0.017": 0.0,
			"0.018": 0.0,
			"0.019": 0.0,
			"0.02": 0.0,
			"0.021": 0.0,
			"0.022": 0.0,
			"0.023": 0.0,
			"0.024": 0.0,
			"0.025": 0.0
		}
	}
}
