{
	 "smiles": "CCOC(=O)C1=C(C=O)C=NN1", 
	 "Tm": 442.15, 
	 "num_atms": 20, 
	 "gaussian": { 
		 "optdone": 1, 
		 "sigma_profile": "yes", 
		 "theory": "DFT", 
		 "functional": "B3LYP", 
		 "basiset": "6-31G**", 
		 "properties": { 
			 "R2extent": 2754.5311, 
			 "electric_dipole_moment_norm": 0.780735640278, 
			 "electric_quadrupole_moment_norm": 7.7628704852, 
			 "total_energy": -606.719459559, 
			 "HOMO_LUMO_gap": 0.17896, 
			 "cosmo_polarized_energy": -13.39, 
			 "cosmo_cavitation_energy": 25.43, 
			 "cosmo_dispersion_energy": -18.15, 
			 "cosmo_repulsion_energy": 1.46, 
			 "cosmo_total_nonelectrostatic_energy": 8.75, 
			 "SMD_solvation_energy": 5.83 
		},
		"coords": [
			{
				"x": 2.6438368355,
				"y": -1.1883075008,
				"z": -1.5156418079,
				"element": "C" 
			},
			{
				"x": 1.7731949328,
				"y": -1.2035863999,
				"z": -0.2691591039,
				"element": "C" 
			},
			{
				"x": 0.5417869338,
				"y": -0.464555493,
				"z": -0.4835061027,
				"element": "O" 
			},
			{
				"x": -0.4686034967,
				"y": -1.1267941822,
				"z": -1.0397671861,
				"element": "C" 
			},
			{
				"x": -0.45459455,
				"y": -2.3004550953,
				"z": -1.3775898525,
				"element": "O" 
			},
			{
				"x": -1.6837425893,
				"y": -0.300061313,
				"z": -1.2253510701,
				"element": "C" 
			},
			{
				"x": -2.1003046326,
				"y": 1.0217007775,
				"z": -0.9949711869,
				"element": "C" 
			},
			{
				"x": -1.4236459152,
				"y": 2.1980160857,
				"z": -0.4330273684,
				"element": "C" 
			},
			{
				"x": -0.2790127086,
				"y": 2.2636335447,
				"z": -0.0307957868,
				"element": "O" 
			},
			{
				"x": -3.4427809198,
				"y": 1.0367810992,
				"z": -1.452971821,
				"element": "C" 
			},
			{
				"x": -3.8336816556,
				"y": -0.1464599562,
				"z": -1.9225356457,
				"element": "N" 
			},
			{
				"x": -2.7526905005,
				"y": -0.9264541047,
				"z": -1.7714352841,
				"element": "N" 
			},
			{
				"x": 3.5994350973,
				"y": -1.6784149629,
				"z": -1.3021856904,
				"element": "H" 
			},
			{
				"x": 2.1588035777,
				"y": -1.7266643706,
				"z": -2.3337021165,
				"element": "H" 
			},
			{
				"x": 2.8464200856,
				"y": -0.1619599155,
				"z": -1.8338958629,
				"element": "H" 
			},
			{
				"x": 2.2494763956,
				"y": -0.6810787129,
				"z": 0.5623116037,
				"element": "H" 
			},
			{
				"x": 1.5224639545,
				"y": -2.2235241238,
				"z": 0.0314121983,
				"element": "H" 
			},
			{
				"x": -2.087419074,
				"y": 3.0914578033,
				"z": -0.4024832108,
				"element": "H" 
			},
			{
				"x": -4.130592306,
				"y": 1.87252489,
				"z": -1.4538153701,
				"element": "H" 
			},
			{
				"x": -2.7597494645,
				"y": -1.8998980696,
				"z": -2.0488893351,
				"element": "H" 
			}
		],
		 "valence_orbital": [ 
			{
				"type": "occ",
				"energy": -0.31236,
				"method": "rhf"
			},
			{
				"type": "occ",
				"energy": -0.29639,
				"method": "rhf"
			},
			{
				"type": "occ",
				"energy": -0.28551,
				"method": "rhf"
			},
			{
				"type": "occ",
				"energy": -0.2743,
				"method": "rhf"
			},
			{
				"type": "occ",
				"energy": -0.25413,
				"method": "rhf"
			},
			{
				"type": "unocc",
				"energy": -0.07517,
				"method": "rhf"
			},
			{
				"type": "unocc",
				"energy": -0.01597,
				"method": "rhf"
			},
			{
				"type": "unocc",
				"energy": 0.04011,
				"method": "rhf"
			},
			{
				"type": "unocc",
				"energy": 0.08403,
				"method": "rhf"
			},
			{
				"type": "unocc",
				"energy": 0.10575,
				"method": "rhf"
			}
		],
		"cosmo_sigma_profile": { 
			"-0.025": 0.0,
			"-0.024": 0.0,
			"-0.023": 0.0,
			"-0.022": 0.0,
			"-0.021": 0.0,
			"-0.02": 0.0,
			"-0.019": 0.0,
			"-0.018": 0.0350008199421,
			"-0.017": 0.892964768929,
			"-0.016": 0.504883897418,
			"-0.015": 0.975338912377,
			"-0.014": 0.224720418353,
			"-0.013": 1.30377426469,
			"-0.012": 0.992865135185,
			"-0.011": 0.23070598623,
			"-0.01": 0.373257262161,
			"-0.009": 3.19184365405,
			"-0.008": 3.95288925455,
			"-0.007": 5.90375984926,
			"-0.006": 8.4792182118,
			"-0.005": 12.1312445477,
			"-0.004": 21.6980838732,
			"-0.003": 18.173300155,
			"-0.002": 16.851093018,
			"-0.001": 18.9465392515,
			"0.0": 16.0784919768,
			"0.001": 9.37802769214,
			"0.002": 5.61301790699,
			"0.003": 5.5031524993,
			"0.004": 4.21475840119,
			"0.005": 5.32109400981,
			"0.006": 5.24031226631,
			"0.007": 3.53094232452,
			"0.008": 4.28797605791,
			"0.009": 4.9445864224,
			"0.01": 5.87514042382,
			"0.011": 8.34508658531,
			"0.012": 6.84253235436,
			"0.013": 2.03846720352,
			"0.014": 0.818237897416,
			"0.015": 0.0167623917851,
			"0.016": 0.0,
			"0.017": 0.0,
			"0.018": 0.0,
			"0.019": 0.0,
			"0.02": 0.0,
			"0.021": 0.0,
			"0.022": 0.0,
			"0.023": 0.0,
			"0.024": 0.0,
			"0.025": 0.0
		}
	}
}
