{
	 "smiles": "CC(C)(C)OC(=O)NC1=C(Br)SC=C1", 
	 "Tm": 343.15, 
	 "num_atms": 26, 
	 "gaussian": { 
		 "optdone": 1, 
		 "sigma_profile": "yes", 
		 "theory": "DFT", 
		 "functional": "B3LYP", 
		 "basiset": "6-31G**", 
		 "properties": { 
			 "R2extent": 5315.3206, 
			 "electric_dipole_moment_norm": 2.35591004497, 
			 "electric_quadrupole_moment_norm": 14.2840091795, 
			 "total_energy": -3524.98996647, 
			 "HOMO_LUMO_gap": 0.20194, 
			 "cosmo_polarized_energy": -10.22, 
			 "cosmo_cavitation_energy": 33.27, 
			 "cosmo_dispersion_energy": -23.19, 
			 "cosmo_repulsion_energy": 1.79, 
			 "cosmo_total_nonelectrostatic_energy": 11.87, 
			 "SMD_solvation_energy": 5.84 
		},
		"coords": [
			{
				"x": 0.9010181099,
				"y": 1.098664255,
				"z": 1.4606872245,
				"element": "C" 
			},
			{
				"x": 1.173238252,
				"y": 0.5209831826,
				"z": 0.0697744634,
				"element": "C" 
			},
			{
				"x": 2.4818337794,
				"y": -0.2754685157,
				"z": 0.0534486395,
				"element": "C" 
			},
			{
				"x": 1.1484477039,
				"y": 1.6233851308,
				"z": -0.9936701419,
				"element": "C" 
			},
			{
				"x": 0.0303442578,
				"y": -0.3897908948,
				"z": -0.123351288,
				"element": "O" 
			},
			{
				"x": -0.1139141292,
				"y": -1.0826920465,
				"z": -1.265253866,
				"element": "C" 
			},
			{
				"x": 0.6469889855,
				"y": -1.1047679892,
				"z": -2.2170621095,
				"element": "O" 
			},
			{
				"x": -1.2828132928,
				"y": -1.8222689023,
				"z": -1.2503164083,
				"element": "N" 
			},
			{
				"x": -2.2203695953,
				"y": -1.9292483751,
				"z": -0.202352007,
				"element": "C" 
			},
			{
				"x": -3.0668450277,
				"y": -0.9258783986,
				"z": 0.2077362317,
				"element": "C" 
			},
			{
				"x": -3.1941338767,
				"y": 0.8117155229,
				"z": -0.4959366353,
				"element": "Br" 
			},
			{
				"x": -4.0963079206,
				"y": -1.4252913659,
				"z": 1.5142028049,
				"element": "S" 
			},
			{
				"x": -3.4093518208,
				"y": -3.0210792193,
				"z": 1.4896787312,
				"element": "C" 
			},
			{
				"x": -2.4329694575,
				"y": -3.1361416232,
				"z": 0.5450497655,
				"element": "C" 
			},
			{
				"x": 0.8735251835,
				"y": 0.302827668,
				"z": 2.2105915248,
				"element": "H" 
			},
			{
				"x": 1.6897758709,
				"y": 1.8060824439,
				"z": 1.7335714362,
				"element": "H" 
			},
			{
				"x": -0.0591730624,
				"y": 1.6216666768,
				"z": 1.4782253348,
				"element": "H" 
			},
			{
				"x": 3.3164826765,
				"y": 0.3857431585,
				"z": 0.3083272118,
				"element": "H" 
			},
			{
				"x": 2.4467769577,
				"y": -1.0790997026,
				"z": 0.7958871537,
				"element": "H" 
			},
			{
				"x": 2.6626920663,
				"y": -0.7089755943,
				"z": -0.9304373103,
				"element": "H" 
			},
			{
				"x": 0.1807214902,
				"y": 2.1341071102,
				"z": -0.9857903955,
				"element": "H" 
			},
			{
				"x": 1.3241365401,
				"y": 1.2124209798,
				"z": -1.9881895684,
				"element": "H" 
			},
			{
				"x": 1.9264711947,
				"y": 2.3615174705,
				"z": -0.7733777469,
				"element": "H" 
			},
			{
				"x": -1.377236994,
				"y": -2.426304931,
				"z": -2.0543750232,
				"element": "H" 
			},
			{
				"x": -3.7600898966,
				"y": -3.7668747433,
				"z": 2.1891029556,
				"element": "H" 
			},
			{
				"x": -1.8581479947,
				"y": -4.038631297,
				"z": 0.3716290225,
				"element": "H" 
			}
		],
		 "valence_orbital": [ 
			{
				"type": "occ",
				"energy": -0.28738,
				"method": "rhf"
			},
			{
				"type": "occ",
				"energy": -0.28459,
				"method": "rhf"
			},
			{
				"type": "occ",
				"energy": -0.26499,
				"method": "rhf"
			},
			{
				"type": "occ",
				"energy": -0.25294,
				"method": "rhf"
			},
			{
				"type": "occ",
				"energy": -0.23009,
				"method": "rhf"
			},
			{
				"type": "unocc",
				"energy": -0.02815,
				"method": "rhf"
			},
			{
				"type": "unocc",
				"energy": -0.00356,
				"method": "rhf"
			},
			{
				"type": "unocc",
				"energy": 0.015,
				"method": "rhf"
			},
			{
				"type": "unocc",
				"energy": 0.03718,
				"method": "rhf"
			},
			{
				"type": "unocc",
				"energy": 0.06251,
				"method": "rhf"
			}
		],
		"cosmo_sigma_profile": { 
			"-0.025": 0.0,
			"-0.024": 0.0,
			"-0.023": 0.0,
			"-0.022": 0.0,
			"-0.021": 0.0,
			"-0.02": 0.0,
			"-0.019": 0.0,
			"-0.018": 0.0,
			"-0.017": 0.0,
			"-0.016": 0.0,
			"-0.015": 0.476145961032,
			"-0.014": 1.48753607215,
			"-0.013": 0.590170831668,
			"-0.012": 0.857719584187,
			"-0.011": 1.03470847988,
			"-0.01": 1.02341668823,
			"-0.009": 3.12653956416,
			"-0.008": 4.03419548791,
			"-0.007": 4.94916073328,
			"-0.006": 5.67079113323,
			"-0.005": 7.15703770038,
			"-0.004": 15.9384800408,
			"-0.003": 18.276977857,
			"-0.002": 20.9683852002,
			"-0.001": 26.61970913,
			"0.0": 37.5457648556,
			"0.001": 30.8409654243,
			"0.002": 26.5604247333,
			"0.003": 23.7435311381,
			"0.004": 12.7362087797,
			"0.005": 4.77445695066,
			"0.006": 3.41373044637,
			"0.007": 3.25328074781,
			"0.008": 2.05003778233,
			"0.009": 1.53164221301,
			"0.01": 1.52215718287,
			"0.011": 1.46264236367,
			"0.012": 2.20739221628,
			"0.013": 3.62528093798,
			"0.014": 0.791510474978,
			"0.015": 0.0,
			"0.016": 0.0,
			"0.017": 0.0,
			"0.018": 0.0,
			"0.019": 0.0,
			"0.02": 0.0,
			"0.021": 0.0,
			"0.022": 0.0,
			"0.023": 0.0,
			"0.024": 0.0,
			"0.025": 0.0
		}
	}
}
