{
	 "smiles": "NC1=CC=C(C=C1)C1=CNC=C1", 
	 "Tm": 373.15, 
	 "num_atms": 22, 
	 "gaussian": { 
		 "optdone": 1, 
		 "sigma_profile": "yes", 
		 "theory": "DFT", 
		 "functional": "B3LYP", 
		 "basiset": "6-31G**", 
		 "properties": { 
			 "R2extent": 2876.5208, 
			 "electric_dipole_moment_norm": 1.25959437122, 
			 "electric_quadrupole_moment_norm": 19.9480349749, 
			 "total_energy": -496.589055769, 
			 "HOMO_LUMO_gap": 0.18647, 
			 "cosmo_polarized_energy": -14.06, 
			 "cosmo_cavitation_energy": 25.8, 
			 "cosmo_dispersion_energy": -19.27, 
			 "cosmo_repulsion_energy": 1.52, 
			 "cosmo_total_nonelectrostatic_energy": 8.06, 
			 "SMD_solvation_energy": 4.61 
		},
		"coords": [
			{
				"x": 2.6386585742,
				"y": -2.9467863393,
				"z": 2.5086366004,
				"element": "N" 
			},
			{
				"x": 1.7780333504,
				"y": -2.2874066915,
				"z": 1.6221177816,
				"element": "C" 
			},
			{
				"x": 1.0568827442,
				"y": -1.1513779288,
				"z": 2.025553868,
				"element": "C" 
			},
			{
				"x": 0.1647871874,
				"y": -0.5305001977,
				"z": 1.1578040889,
				"element": "C" 
			},
			{
				"x": -0.0613878315,
				"y": -1.014974637,
				"z": -0.1423684098,
				"element": "C" 
			},
			{
				"x": 0.6647287575,
				"y": -2.1526226422,
				"z": -0.5339571959,
				"element": "C" 
			},
			{
				"x": 1.567027255,
				"y": -2.7755551112,
				"z": 0.322322442,
				"element": "C" 
			},
			{
				"x": -1.013637868,
				"y": -0.3636409125,
				"z": -1.0551455476,
				"element": "C" 
			},
			{
				"x": -2.1327139695,
				"y": 0.3721035857,
				"z": -0.6961585836,
				"element": "C" 
			},
			{
				"x": -2.749793782,
				"y": 0.8062119461,
				"z": -1.8445901757,
				"element": "N" 
			},
			{
				"x": -2.0523843521,
				"y": 0.3620262339,
				"z": -2.9431511767,
				"element": "C" 
			},
			{
				"x": -0.9758712029,
				"y": -0.3641247107,
				"z": -2.4886731214,
				"element": "C" 
			},
			{
				"x": 3.0088158732,
				"y": -2.3634961644,
				"z": 3.2471812874,
				"element": "H" 
			},
			{
				"x": 3.371232638,
				"y": -3.4828810286,
				"z": 2.0629353287,
				"element": "H" 
			},
			{
				"x": 1.2073900528,
				"y": -0.7487172645,
				"z": 3.024831343,
				"element": "H" 
			},
			{
				"x": -0.3524591715,
				"y": 0.3660443314,
				"z": 1.488700357,
				"element": "H" 
			},
			{
				"x": 0.5082869485,
				"y": -2.5680582112,
				"z": -1.5254635452,
				"element": "H" 
			},
			{
				"x": 2.1063916787,
				"y": -3.6592205364,
				"z": -0.0115036057,
				"element": "H" 
			},
			{
				"x": -2.5499694614,
				"y": 0.5862175466,
				"z": 0.2763931158,
				"element": "H" 
			},
			{
				"x": -3.5970405729,
				"y": 1.3491221817,
				"z": -1.8746484966,
				"element": "H" 
			},
			{
				"x": -2.3703101349,
				"y": 0.6074177459,
				"z": -3.9455581699,
				"element": "H" 
			},
			{
				"x": -0.2181667131,
				"y": -0.8224811954,
				"z": -3.1085581846,
				"element": "H" 
			}
		],
		 "valence_orbital": [ 
			{
				"type": "occ",
				"energy": -0.30368,
				"method": "rhf"
			},
			{
				"type": "occ",
				"energy": -0.23934,
				"method": "rhf"
			},
			{
				"type": "occ",
				"energy": -0.23546,
				"method": "rhf"
			},
			{
				"type": "occ",
				"energy": -0.20932,
				"method": "rhf"
			},
			{
				"type": "occ",
				"energy": -0.17401,
				"method": "rhf"
			},
			{
				"type": "unocc",
				"energy": 0.01246,
				"method": "rhf"
			},
			{
				"type": "unocc",
				"energy": 0.01506,
				"method": "rhf"
			},
			{
				"type": "unocc",
				"energy": 0.05341,
				"method": "rhf"
			},
			{
				"type": "unocc",
				"energy": 0.08185,
				"method": "rhf"
			},
			{
				"type": "unocc",
				"energy": 0.08724,
				"method": "rhf"
			}
		],
		"cosmo_sigma_profile": { 
			"-0.025": 0.0,
			"-0.024": 0.0,
			"-0.023": 0.0,
			"-0.022": 0.0,
			"-0.021": 0.0,
			"-0.02": 0.0,
			"-0.019": 0.0,
			"-0.018": 0.0,
			"-0.017": 0.0,
			"-0.016": 0.187209622793,
			"-0.015": 1.48357434027,
			"-0.014": 1.6616856905,
			"-0.013": 0.917480140458,
			"-0.012": 3.18210691965,
			"-0.011": 3.26067970598,
			"-0.01": 4.27932709508,
			"-0.009": 4.36145591286,
			"-0.008": 4.32827722917,
			"-0.007": 6.84361059287,
			"-0.006": 8.78852927344,
			"-0.005": 11.6676160321,
			"-0.004": 14.3202785839,
			"-0.003": 11.439203632,
			"-0.002": 10.0243613025,
			"-0.001": 10.4374226323,
			"0.0": 10.0402531066,
			"0.001": 7.97224361428,
			"0.002": 9.22680302701,
			"0.003": 8.64492205405,
			"0.004": 9.79340926818,
			"0.005": 12.9103150314,
			"0.006": 15.108058448,
			"0.007": 17.3294508269,
			"0.008": 8.9541808075,
			"0.009": 4.17133596955,
			"0.01": 0.576295864804,
			"0.011": 0.565964776468,
			"0.012": 0.94790175493,
			"0.013": 0.704589834904,
			"0.014": 0.705239789633,
			"0.015": 0.490647414682,
			"0.016": 0.0828206910768,
			"0.017": 0.0,
			"0.018": 0.0,
			"0.019": 0.0,
			"0.02": 0.0,
			"0.021": 0.0,
			"0.022": 0.0,
			"0.023": 0.0,
			"0.024": 0.0,
			"0.025": 0.0
		}
	}
}
