{
	 "smiles": "CC(C)(C)C1=CC(O)=CC=C1O", 
	 "Tm": 401.15, 
	 "num_atms": 26, 
	 "gaussian": { 
		 "optdone": 1, 
		 "sigma_profile": "yes", 
		 "theory": "DFT", 
		 "functional": "B3LYP", 
		 "basiset": "6-31G**", 
		 "properties": { 
			 "R2extent": 2261.1279, 
			 "electric_dipole_moment_norm": 0.288748783547, 
			 "electric_quadrupole_moment_norm": 12.4677601838, 
			 "total_energy": -539.950479498, 
			 "HOMO_LUMO_gap": 0.19705, 
			 "cosmo_polarized_energy": -11.26, 
			 "cosmo_cavitation_energy": 27.34, 
			 "cosmo_dispersion_energy": -19.95, 
			 "cosmo_repulsion_energy": 1.58, 
			 "cosmo_total_nonelectrostatic_energy": 8.97, 
			 "SMD_solvation_energy": 5.49 
		},
		"coords": [
			{
				"x": 1.8220595298,
				"y": 0.8316418065,
				"z": 1.3693554872,
				"element": "C" 
			},
			{
				"x": 0.3700453038,
				"y": 0.9345176738,
				"z": 0.8403758787,
				"element": "C" 
			},
			{
				"x": -0.5628640016,
				"y": 1.041803904,
				"z": 2.0633751438,
				"element": "C" 
			},
			{
				"x": 0.2010807582,
				"y": 2.2311796852,
				"z": 0.010336735,
				"element": "C" 
			},
			{
				"x": 0.0417759701,
				"y": -0.2939358705,
				"z": -0.033071832,
				"element": "C" 
			},
			{
				"x": -0.9970781525,
				"y": -1.1750328796,
				"z": 0.2998448398,
				"element": "C" 
			},
			{
				"x": -1.3166687056,
				"y": -2.2957287029,
				"z": -0.4729519482,
				"element": "C" 
			},
			{
				"x": -2.334738619,
				"y": -3.1532600732,
				"z": -0.1406001774,
				"element": "O" 
			},
			{
				"x": -0.5864575758,
				"y": -2.5693242172,
				"z": -1.6268166678,
				"element": "C" 
			},
			{
				"x": 0.4505644809,
				"y": -1.7113919506,
				"z": -1.9812240689,
				"element": "C" 
			},
			{
				"x": 0.7679948168,
				"y": -0.5923695549,
				"z": -1.2073902537,
				"element": "C" 
			},
			{
				"x": 1.8018001155,
				"y": 0.2389406575,
				"z": -1.5849223511,
				"element": "O" 
			},
			{
				"x": 2.0558644469,
				"y": 1.7031432791,
				"z": 1.9918465739,
				"element": "H" 
			},
			{
				"x": 1.9458830409,
				"y": -0.0650532668,
				"z": 1.9863613418,
				"element": "H" 
			},
			{
				"x": 2.5448025747,
				"y": 0.7894456106,
				"z": 0.5536517411,
				"element": "H" 
			},
			{
				"x": -0.2894076081,
				"y": 1.9260122748,
				"z": 2.6478525388,
				"element": "H" 
			},
			{
				"x": -0.4771740622,
				"y": 0.1731556665,
				"z": 2.725077403,
				"element": "H" 
			},
			{
				"x": -1.6129172878,
				"y": 1.1539759395,
				"z": 1.7726165727,
				"element": "H" 
			},
			{
				"x": 0.4319028714,
				"y": 3.1049759916,
				"z": 0.6307238618,
				"element": "H" 
			},
			{
				"x": 0.8624735625,
				"y": 2.242320938,
				"z": -0.8568001086,
				"element": "H" 
			},
			{
				"x": -0.8311811031,
				"y": 2.3325258301,
				"z": -0.3421839702,
				"element": "H" 
			},
			{
				"x": -1.584517458,
				"y": -0.9886576782,
				"z": 1.1932343382,
				"element": "H" 
			},
			{
				"x": -2.7502013924,
				"y": -2.843902021,
				"z": 0.6742568351,
				"element": "H" 
			},
			{
				"x": -0.8323008588,
				"y": -3.4378045965,
				"z": -2.2280059635,
				"element": "H" 
			},
			{
				"x": 1.0288814914,
				"y": -1.9146046709,
				"z": -2.8810908539,
				"element": "H" 
			},
			{
				"x": 2.1888778621,
				"y": -0.1042737748,
				"z": -2.4000510956,
				"element": "H" 
			}
		],
		 "valence_orbital": [ 
			{
				"type": "occ",
				"energy": -0.31385,
				"method": "rhf"
			},
			{
				"type": "occ",
				"energy": -0.30863,
				"method": "rhf"
			},
			{
				"type": "occ",
				"energy": -0.29754,
				"method": "rhf"
			},
			{
				"type": "occ",
				"energy": -0.24394,
				"method": "rhf"
			},
			{
				"type": "occ",
				"energy": -0.19616,
				"method": "rhf"
			},
			{
				"type": "unocc",
				"energy": 0.00089,
				"method": "rhf"
			},
			{
				"type": "unocc",
				"energy": 0.02852,
				"method": "rhf"
			},
			{
				"type": "unocc",
				"energy": 0.06489,
				"method": "rhf"
			},
			{
				"type": "unocc",
				"energy": 0.08016,
				"method": "rhf"
			},
			{
				"type": "unocc",
				"energy": 0.09954,
				"method": "rhf"
			}
		],
		"cosmo_sigma_profile": { 
			"-0.025": 0.0,
			"-0.024": 0.0,
			"-0.023": 0.0,
			"-0.022": 0.0,
			"-0.021": 0.0,
			"-0.02": 0.0,
			"-0.019": 0.0,
			"-0.018": 0.0,
			"-0.017": 1.44922255373,
			"-0.016": 2.21940256163,
			"-0.015": 2.11177803804,
			"-0.014": 1.6692663876,
			"-0.013": 2.65557733823,
			"-0.012": 1.80064024991,
			"-0.011": 1.31975424832,
			"-0.01": 1.72911883816,
			"-0.009": 2.85172594551,
			"-0.008": 2.28077659296,
			"-0.007": 1.76210491826,
			"-0.006": 3.47441387871,
			"-0.005": 5.44956876673,
			"-0.004": 5.82596107989,
			"-0.003": 10.939796057,
			"-0.002": 21.5712942703,
			"-0.001": 16.4591934985,
			"0.0": 20.3824285836,
			"0.001": 22.6631586864,
			"0.002": 21.2628350076,
			"0.003": 8.89225170327,
			"0.004": 13.0351080957,
			"0.005": 14.8378487747,
			"0.006": 13.3935562903,
			"0.007": 3.6623526973,
			"0.008": 2.98033307544,
			"0.009": 1.30762826183,
			"0.01": 1.38489998643,
			"0.011": 2.10610774423,
			"0.012": 1.81056020164,
			"0.013": 0.219581113054,
			"0.014": 0.0,
			"0.015": 0.0,
			"0.016": 0.0,
			"0.017": 0.0,
			"0.018": 0.0,
			"0.019": 0.0,
			"0.02": 0.0,
			"0.021": 0.0,
			"0.022": 0.0,
			"0.023": 0.0,
			"0.024": 0.0,
			"0.025": 0.0
		}
	}
}
