{
	 "smiles": "CC1=CC(=CC=C1)N1N=C(C=C1N)C(C)(C)C", 
	 "Tm": 364.15, 
	 "num_atms": 36, 
	 "gaussian": { 
		 "optdone": 1, 
		 "sigma_profile": "yes", 
		 "theory": "DFT", 
		 "functional": "B3LYP", 
		 "basiset": "6-31G**", 
		 "properties": { 
			 "R2extent": 5453.5628, 
			 "electric_dipole_moment_norm": 3.11455166115, 
			 "electric_quadrupole_moment_norm": 10.134770321, 
			 "total_energy": -709.199928403, 
			 "HOMO_LUMO_gap": 0.19246, 
			 "cosmo_polarized_energy": -11.88, 
			 "cosmo_cavitation_energy": 37.76, 
			 "cosmo_dispersion_energy": -26.44, 
			 "cosmo_repulsion_energy": 2.07, 
			 "cosmo_total_nonelectrostatic_energy": 13.38, 
			 "SMD_solvation_energy": 6.02 
		},
		"coords": [
			{
				"x": -5.3958745729,
				"y": -0.080323175,
				"z": 1.0633017849,
				"element": "C" 
			},
			{
				"x": -4.0820906447,
				"y": 0.4388871151,
				"z": 0.5254863419,
				"element": "C" 
			},
			{
				"x": -2.9292110603,
				"y": -0.3548080537,
				"z": 0.5900168377,
				"element": "C" 
			},
			{
				"x": -1.7007659289,
				"y": 0.1313683043,
				"z": 0.1239031671,
				"element": "C" 
			},
			{
				"x": -1.6072710077,
				"y": 1.4320294819,
				"z": -0.3878025942,
				"element": "C" 
			},
			{
				"x": -2.7507467109,
				"y": 2.2231794299,
				"z": -0.4413968187,
				"element": "C" 
			},
			{
				"x": -3.9816007277,
				"y": 1.7316747479,
				"z": -0.0010198675,
				"element": "C" 
			},
			{
				"x": -0.5315623955,
				"y": -0.6689189061,
				"z": 0.1795815643,
				"element": "N" 
			},
			{
				"x": 0.6881480911,
				"y": -0.0639957092,
				"z": 0.3859387172,
				"element": "N" 
			},
			{
				"x": 1.5788997794,
				"y": -1.0454462679,
				"z": 0.3433412215,
				"element": "C" 
			},
			{
				"x": 0.9589318861,
				"y": -2.2998945575,
				"z": 0.0893272552,
				"element": "C" 
			},
			{
				"x": -0.3894949411,
				"y": -2.020410718,
				"z": -0.0211075586,
				"element": "C" 
			},
			{
				"x": -1.470238077,
				"y": -2.8735200039,
				"z": -0.2470099536,
				"element": "N" 
			},
			{
				"x": 3.0582644991,
				"y": -0.7775213787,
				"z": 0.5623193817,
				"element": "C" 
			},
			{
				"x": 3.5233446754,
				"y": -1.5279165435,
				"z": 1.8318000649,
				"element": "C" 
			},
			{
				"x": 3.8561288728,
				"y": -1.2962669927,
				"z": -0.6556039273,
				"element": "C" 
			},
			{
				"x": 3.3189471007,
				"y": 0.7292099809,
				"z": 0.7374886761,
				"element": "C" 
			},
			{
				"x": -5.5048400629,
				"y": 0.1514564594,
				"z": 2.1301345495,
				"element": "H" 
			},
			{
				"x": -5.4731416451,
				"y": -1.1668035228,
				"z": 0.958949739,
				"element": "H" 
			},
			{
				"x": -6.2461381702,
				"y": 0.372380512,
				"z": 0.54444644,
				"element": "H" 
			},
			{
				"x": -2.982177541,
				"y": -1.3452963844,
				"z": 1.0298224854,
				"element": "H" 
			},
			{
				"x": -0.6443093039,
				"y": 1.7965955808,
				"z": -0.7231630676,
				"element": "H" 
			},
			{
				"x": -2.6837866716,
				"y": 3.2310038413,
				"z": -0.8413861064,
				"element": "H" 
			},
			{
				"x": -4.8677871649,
				"y": 2.358250302,
				"z": -0.0593300905,
				"element": "H" 
			},
			{
				"x": 1.4222032259,
				"y": -3.2703829521,
				"z": -0.0112747324,
				"element": "H" 
			},
			{
				"x": -1.171806656,
				"y": -3.7560328529,
				"z": -0.6429717502,
				"element": "H" 
			},
			{
				"x": -2.2036043306,
				"y": -2.460384417,
				"z": -0.8128717033,
				"element": "H" 
			},
			{
				"x": 4.5932207898,
				"y": -1.3628257346,
				"z": 2.0038146443,
				"element": "H" 
			},
			{
				"x": 3.3592517644,
				"y": -2.6068344415,
				"z": 1.7424351963,
				"element": "H" 
			},
			{
				"x": 2.9781447777,
				"y": -1.1776487421,
				"z": 2.7140569113,
				"element": "H" 
			},
			{
				"x": 4.9286295747,
				"y": -1.1227999959,
				"z": -0.5112949301,
				"element": "H" 
			},
			{
				"x": 3.5491913261,
				"y": -0.7834240725,
				"z": -1.5729534774,
				"element": "H" 
			},
			{
				"x": 3.7088431151,
				"y": -2.3708420823,
				"z": -0.806183536,
				"element": "H" 
			},
			{
				"x": 4.387620076,
				"y": 0.905851591,
				"z": 0.9021263908,
				"element": "H" 
			},
			{
				"x": 3.0083825461,
				"y": 1.2901317067,
				"z": -0.1484546788,
				"element": "H" 
			},
			{
				"x": 2.7643955127,
				"y": 1.1300784509,
				"z": 1.5898334236,
				"element": "H" 
			}
		],
		 "valence_orbital": [ 
			{
				"type": "occ",
				"energy": -0.27025,
				"method": "rhf"
			},
			{
				"type": "occ",
				"energy": -0.26966,
				"method": "rhf"
			},
			{
				"type": "occ",
				"energy": -0.2437,
				"method": "rhf"
			},
			{
				"type": "occ",
				"energy": -0.21291,
				"method": "rhf"
			},
			{
				"type": "occ",
				"energy": -0.20185,
				"method": "rhf"
			},
			{
				"type": "unocc",
				"energy": -0.00939,
				"method": "rhf"
			},
			{
				"type": "unocc",
				"energy": -0.00253,
				"method": "rhf"
			},
			{
				"type": "unocc",
				"energy": 0.05156,
				"method": "rhf"
			},
			{
				"type": "unocc",
				"energy": 0.07603,
				"method": "rhf"
			},
			{
				"type": "unocc",
				"energy": 0.09186,
				"method": "rhf"
			}
		],
		"cosmo_sigma_profile": { 
			"-0.025": 0.0,
			"-0.024": 0.0,
			"-0.023": 0.0,
			"-0.022": 0.0,
			"-0.021": 0.0,
			"-0.02": 0.0,
			"-0.019": 0.0,
			"-0.018": 0.0,
			"-0.017": 0.0,
			"-0.016": 0.0,
			"-0.015": 0.0,
			"-0.014": 0.0974748696486,
			"-0.013": 1.39109394051,
			"-0.012": 2.24601460348,
			"-0.011": 2.06204051556,
			"-0.01": 3.23888947836,
			"-0.009": 2.49584326763,
			"-0.008": 2.41815059667,
			"-0.007": 2.36610644322,
			"-0.006": 4.93233399853,
			"-0.005": 10.0941189104,
			"-0.004": 18.3414447701,
			"-0.003": 24.1255066422,
			"-0.002": 33.5984521907,
			"-0.001": 31.0308468584,
			"0.0": 30.2205580085,
			"0.001": 33.6217008591,
			"0.002": 22.2422447362,
			"0.003": 12.9245078754,
			"0.004": 13.8674566934,
			"0.005": 16.7962903633,
			"0.006": 10.6876909531,
			"0.007": 4.32938347581,
			"0.008": 3.04370389055,
			"0.009": 2.97315092412,
			"0.01": 1.6836688856,
			"0.011": 1.71796626436,
			"0.012": 1.71643674373,
			"0.013": 1.17220514887,
			"0.014": 0.776407327961,
			"0.015": 0.0246359374942,
			"0.016": 0.0,
			"0.017": 0.0,
			"0.018": 0.0,
			"0.019": 0.0,
			"0.02": 0.0,
			"0.021": 0.0,
			"0.022": 0.0,
			"0.023": 0.0,
			"0.024": 0.0,
			"0.025": 0.0
		}
	}
}
