{
	 "smiles": "NC1=C(C(=NN1)C1=CC=CC=C1)C1=CC=CC=C1", 
	 "Tm": 415.15, 
	 "num_atms": 31, 
	 "gaussian": { 
		 "optdone": 1, 
		 "sigma_profile": "yes", 
		 "theory": "DFT", 
		 "functional": "B3LYP", 
		 "basiset": "6-31G**", 
		 "properties": { 
			 "R2extent": 4736.3221, 
			 "electric_dipole_moment_norm": 3.38909902039, 
			 "electric_quadrupole_moment_norm": 13.2052224957, 
			 "total_energy": -743.676715553, 
			 "HOMO_LUMO_gap": 0.188, 
			 "cosmo_polarized_energy": -16.02, 
			 "cosmo_cavitation_energy": 34.64, 
			 "cosmo_dispersion_energy": -24.76, 
			 "cosmo_repulsion_energy": 1.93, 
			 "cosmo_total_nonelectrostatic_energy": 11.8, 
			 "SMD_solvation_energy": 4.58 
		},
		"coords": [
			{
				"x": -1.3366833806,
				"y": -2.624068893,
				"z": 2.5082223915,
				"element": "N" 
			},
			{
				"x": -0.7509755232,
				"y": -1.3991955528,
				"z": 2.1909791581,
				"element": "C" 
			},
			{
				"x": -0.7605258339,
				"y": -0.644736666,
				"z": 1.018679808,
				"element": "C" 
			},
			{
				"x": 0.0034837967,
				"y": 0.5249970085,
				"z": 1.3530635615,
				"element": "C" 
			},
			{
				"x": 0.4405205831,
				"y": 0.4832016217,
				"z": 2.6120596288,
				"element": "N" 
			},
			{
				"x": -0.02354816,
				"y": -0.6988466672,
				"z": 3.0978836434,
				"element": "N" 
			},
			{
				"x": 0.3242400939,
				"y": 1.7052958918,
				"z": 0.5248213808,
				"element": "C" 
			},
			{
				"x": -0.5574289712,
				"y": 2.1756655531,
				"z": -0.4617333755,
				"element": "C" 
			},
			{
				"x": -0.2443362886,
				"y": 3.3098274026,
				"z": -1.2109452822,
				"element": "C" 
			},
			{
				"x": 0.9497717491,
				"y": 3.9966443424,
				"z": -0.9851679406,
				"element": "C" 
			},
			{
				"x": 1.8292261356,
				"y": 3.5421308074,
				"z": 0.0007184652,
				"element": "C" 
			},
			{
				"x": 1.5212866086,
				"y": 2.4071121296,
				"z": 0.7475197309,
				"element": "C" 
			},
			{
				"x": -1.3472313747,
				"y": -1.086503006,
				"z": -0.2595589312,
				"element": "C" 
			},
			{
				"x": -0.6119278337,
				"y": -1.0363625486,
				"z": -1.4591241347,
				"element": "C" 
			},
			{
				"x": -1.159910581,
				"y": -1.4985580703,
				"z": -2.653422871,
				"element": "C" 
			},
			{
				"x": -2.4504514064,
				"y": -2.0356340688,
				"z": -2.6802018222,
				"element": "C" 
			},
			{
				"x": -3.1925631209,
				"y": -2.0942379959,
				"z": -1.5008542962,
				"element": "C" 
			},
			{
				"x": -2.650098425,
				"y": -1.617743927,
				"z": -0.3051753464,
				"element": "C" 
			},
			{
				"x": -1.7313443078,
				"y": -3.0671132764,
				"z": 1.6861452514,
				"element": "H" 
			},
			{
				"x": -0.7043485065,
				"y": -3.2654202436,
				"z": 2.9758106435,
				"element": "H" 
			},
			{
				"x": 0.0991518363,
				"y": -0.9097295401,
				"z": 4.075702966,
				"element": "H" 
			},
			{
				"x": -1.4959038524,
				"y": 1.6597634562,
				"z": -0.6332356687,
				"element": "H" 
			},
			{
				"x": -0.9402018965,
				"y": 3.6611376553,
				"z": -1.9678447139,
				"element": "H" 
			},
			{
				"x": 1.1921677912,
				"y": 4.8794129862,
				"z": -1.5701692193,
				"element": "H" 
			},
			{
				"x": 2.7601065111,
				"y": 4.0713142582,
				"z": 0.1856031257,
				"element": "H" 
			},
			{
				"x": 2.1994471426,
				"y": 2.0496050847,
				"z": 1.5151287458,
				"element": "H" 
			},
			{
				"x": 0.3961300289,
				"y": -0.6344323844,
				"z": -1.4444650271,
				"element": "H" 
			},
			{
				"x": -0.5734091671,
				"y": -1.4489455354,
				"z": -3.5667536822,
				"element": "H" 
			},
			{
				"x": -2.8724848777,
				"y": -2.4002732542,
				"z": -3.6122104008,
				"element": "H" 
			},
			{
				"x": -4.201421467,
				"y": -2.4978240192,
				"z": -1.5102276488,
				"element": "H" 
			},
			{
				"x": -3.2517373027,
				"y": -1.6273825485,
				"z": 0.6002518602,
				"element": "H" 
			}
		],
		 "valence_orbital": [ 
			{
				"type": "occ",
				"energy": -0.25507,
				"method": "rhf"
			},
			{
				"type": "occ",
				"energy": -0.25021,
				"method": "rhf"
			},
			{
				"type": "occ",
				"energy": -0.23784,
				"method": "rhf"
			},
			{
				"type": "occ",
				"energy": -0.21074,
				"method": "rhf"
			},
			{
				"type": "occ",
				"energy": -0.20159,
				"method": "rhf"
			},
			{
				"type": "unocc",
				"energy": -0.01359,
				"method": "rhf"
			},
			{
				"type": "unocc",
				"energy": -0.00442,
				"method": "rhf"
			},
			{
				"type": "unocc",
				"energy": -0.00161,
				"method": "rhf"
			},
			{
				"type": "unocc",
				"energy": 0.01346,
				"method": "rhf"
			},
			{
				"type": "unocc",
				"energy": 0.04545,
				"method": "rhf"
			}
		],
		"cosmo_sigma_profile": { 
			"-0.025": 0.0,
			"-0.024": 0.0,
			"-0.023": 0.0,
			"-0.022": 0.0,
			"-0.021": 0.0,
			"-0.02": 0.0,
			"-0.019": 0.0,
			"-0.018": 0.0,
			"-0.017": 0.172427162989,
			"-0.016": 1.28368306447,
			"-0.015": 1.68244894449,
			"-0.014": 1.81826171201,
			"-0.013": 3.15942881953,
			"-0.012": 2.53681616058,
			"-0.011": 2.67645884102,
			"-0.01": 4.05308792555,
			"-0.009": 2.54513140504,
			"-0.008": 2.0717639338,
			"-0.007": 2.28652818177,
			"-0.006": 7.2727815946,
			"-0.005": 18.8750350572,
			"-0.004": 20.9519953026,
			"-0.003": 23.8797967242,
			"-0.002": 15.6751037482,
			"-0.001": 15.5156415891,
			"0.0": 14.5181721686,
			"0.001": 17.2232487854,
			"0.002": 17.2380965984,
			"0.003": 21.4484958996,
			"0.004": 22.6257279266,
			"0.005": 22.3747069437,
			"0.006": 16.650466622,
			"0.007": 3.40640018934,
			"0.008": 2.5282348943,
			"0.009": 2.52192931014,
			"0.01": 2.05165292471,
			"0.011": 2.20069671981,
			"0.012": 1.63297237396,
			"0.013": 0.908958858034,
			"0.014": 1.50857995201,
			"0.015": 1.07818985367,
			"0.016": 0.619326945655,
			"0.017": 0.0,
			"0.018": 0.0,
			"0.019": 0.0,
			"0.02": 0.0,
			"0.021": 0.0,
			"0.022": 0.0,
			"0.023": 0.0,
			"0.024": 0.0,
			"0.025": 0.0
		}
	}
}
