{
	 "smiles": "CC[Si](Cl)(Cl)Cl", 
	 "Tm": 167.15, 
	 "num_atms": 11, 
	 "gaussian": { 
		 "optdone": 1, 
		 "sigma_profile": "yes", 
		 "theory": "DFT", 
		 "functional": "B3LYP", 
		 "basiset": "6-31G**", 
		 "properties": { 
			 "R2extent": 1674.1663, 
			 "electric_dipole_moment_norm": 2.64542462943, 
			 "electric_quadrupole_moment_norm": 4.37993067525, 
			 "total_energy": -1749.46880778, 
			 "HOMO_LUMO_gap": 0.31123, 
			 "cosmo_polarized_energy": -3.31, 
			 "cosmo_cavitation_energy": 21.27, 
			 "cosmo_dispersion_energy": -13.77, 
			 "cosmo_repulsion_energy": 1.3, 
			 "cosmo_total_nonelectrostatic_energy": 8.8, 
			 "SMD_solvation_energy": 2.66 
		},
		"coords": [
			{
				"x": -2.645471342,
				"y": 0.5047438537,
				"z": -1.901164876,
				"element": "C" 
			},
			{
				"x": -1.5732073642,
				"y": 1.2468333754,
				"z": -1.0841841739,
				"element": "C" 
			},
			{
				"x": -0.9087530825,
				"y": 0.3099782179,
				"z": 0.3901059647,
				"element": "Si" 
			},
			{
				"x": -0.0294381107,
				"y": -1.4671079078,
				"z": -0.1977676334,
				"element": "Cl" 
			},
			{
				"x": 0.513950831,
				"y": 1.4470052916,
				"z": 1.3678581445,
				"element": "Cl" 
			},
			{
				"x": -2.4214284328,
				"y": -0.13127361,
				"z": 1.7294730696,
				"element": "Cl" 
			},
			{
				"x": -3.5235903397,
				"y": 0.2719831968,
				"z": -1.2919318222,
				"element": "H" 
			},
			{
				"x": -2.9768145491,
				"y": 1.1225219809,
				"z": -2.7413648649,
				"element": "H" 
			},
			{
				"x": -2.2598027755,
				"y": -0.4339088693,
				"z": -2.3093547174,
				"element": "H" 
			},
			{
				"x": -0.7091201556,
				"y": 1.4980857104,
				"z": -1.7121293302,
				"element": "H" 
			},
			{
				"x": -1.9635246789,
				"y": 2.1984387605,
				"z": -0.701839761,
				"element": "H" 
			}
		],
		 "valence_orbital": [ 
			{
				"type": "occ",
				"energy": -0.35714,
				"method": "rhf"
			},
			{
				"type": "occ",
				"energy": -0.33607,
				"method": "rhf"
			},
			{
				"type": "occ",
				"energy": -0.33592,
				"method": "rhf"
			},
			{
				"type": "occ",
				"energy": -0.32464,
				"method": "rhf"
			},
			{
				"type": "occ",
				"energy": -0.32264,
				"method": "rhf"
			},
			{
				"type": "unocc",
				"energy": -0.01141,
				"method": "rhf"
			},
			{
				"type": "unocc",
				"energy": 0.02131,
				"method": "rhf"
			},
			{
				"type": "unocc",
				"energy": 0.02765,
				"method": "rhf"
			},
			{
				"type": "unocc",
				"energy": 0.06528,
				"method": "rhf"
			},
			{
				"type": "unocc",
				"energy": 0.10051,
				"method": "rhf"
			}
		],
		"cosmo_sigma_profile": { 
			"-0.025": 0.0,
			"-0.024": 0.0,
			"-0.023": 0.0,
			"-0.022": 0.0,
			"-0.021": 0.0,
			"-0.02": 0.0,
			"-0.019": 0.0,
			"-0.018": 0.0,
			"-0.017": 0.0,
			"-0.016": 0.0,
			"-0.015": 0.0,
			"-0.014": 0.0,
			"-0.013": 0.0,
			"-0.012": 0.0,
			"-0.011": 0.0,
			"-0.01": 0.0,
			"-0.009": 0.0,
			"-0.008": 0.138776751554,
			"-0.007": 3.6080269501,
			"-0.006": 4.70790271107,
			"-0.005": 4.56785711188,
			"-0.004": 8.36360329568,
			"-0.003": 13.7783087159,
			"-0.002": 19.3443622769,
			"-0.001": 15.0592248511,
			"0.0": 19.4749924149,
			"0.001": 17.8769184507,
			"0.002": 20.5720599926,
			"0.003": 31.2161056819,
			"0.004": 12.7763884558,
			"0.005": 0.0,
			"0.006": 0.0,
			"0.007": 0.0,
			"0.008": 0.0,
			"0.009": 0.0,
			"0.01": 0.0,
			"0.011": 0.0,
			"0.012": 0.0,
			"0.013": 0.0,
			"0.014": 0.0,
			"0.015": 0.0,
			"0.016": 0.0,
			"0.017": 0.0,
			"0.018": 0.0,
			"0.019": 0.0,
			"0.02": 0.0,
			"0.021": 0.0,
			"0.022": 0.0,
			"0.023": 0.0,
			"0.024": 0.0,
			"0.025": 0.0
		}
	}
}
