{
	 "smiles": "CCOC(=O)CCC1=CC=C2CCC(=O)NC2=C1", 
	 "Tm": 397.15, 
	 "num_atms": 35, 
	 "gaussian": { 
		 "optdone": 1, 
		 "sigma_profile": "yes", 
		 "theory": "DFT", 
		 "functional": "B3LYP", 
		 "basiset": "6-31G**", 
		 "properties": { 
			 "R2extent": 7020.4658, 
			 "electric_dipole_moment_norm": 3.20905408649, 
			 "electric_quadrupole_moment_norm": 23.3327606123, 
			 "total_energy": -824.215884001, 
			 "HOMO_LUMO_gap": 0.20399, 
			 "cosmo_polarized_energy": -15.72, 
			 "cosmo_cavitation_energy": 38.22, 
			 "cosmo_dispersion_energy": -27.3, 
			 "cosmo_repulsion_energy": 2.17, 
			 "cosmo_total_nonelectrostatic_energy": 13.09, 
			 "SMD_solvation_energy": 7.34 
		},
		"coords": [
			{
				"x": -0.6150699997,
				"y": -2.3167817551,
				"z": -5.3738824983,
				"element": "C" 
			},
			{
				"x": 0.0481711653,
				"y": -1.108623967,
				"z": -4.7406348541,
				"element": "C" 
			},
			{
				"x": -0.9613133625,
				"y": -0.4108978092,
				"z": -3.9728229459,
				"element": "O" 
			},
			{
				"x": -0.5496665875,
				"y": 0.6980361429,
				"z": -3.3256943006,
				"element": "C" 
			},
			{
				"x": 0.5934510984,
				"y": 1.1066646414,
				"z": -3.3546018329,
				"element": "O" 
			},
			{
				"x": -1.7058628487,
				"y": 1.3754537946,
				"z": -2.6117370082,
				"element": "C" 
			},
			{
				"x": -1.2545350993,
				"y": 2.271378903,
				"z": -1.4429908388,
				"element": "C" 
			},
			{
				"x": -0.8123981447,
				"y": 1.4961464029,
				"z": -0.21756916,
				"element": "C" 
			},
			{
				"x": 0.5153473266,
				"y": 1.0758156503,
				"z": -0.0628327997,
				"element": "C" 
			},
			{
				"x": 0.8945666115,
				"y": 0.3441729967,
				"z": 1.064057821,
				"element": "C" 
			},
			{
				"x": -0.0218204996,
				"y": 0.0146354754,
				"z": 2.0620403727,
				"element": "C" 
			},
			{
				"x": 0.3450586958,
				"y": -0.7150525412,
				"z": 3.3333471178,
				"element": "C" 
			},
			{
				"x": -0.809123321,
				"y": -1.6118989399,
				"z": 3.8051431038,
				"element": "C" 
			},
			{
				"x": -2.1388201627,
				"y": -0.8729484385,
				"z": 3.8635508921,
				"element": "C" 
			},
			{
				"x": -3.0257137063,
				"y": -1.122106628,
				"z": 4.6648055463,
				"element": "O" 
			},
			{
				"x": -2.2949680539,
				"y": 0.1000850974,
				"z": 2.8952125254,
				"element": "N" 
			},
			{
				"x": -1.3570786504,
				"y": 0.4242624457,
				"z": 1.8978043222,
				"element": "C" 
			},
			{
				"x": -1.742620855,
				"y": 1.1582841796,
				"z": 0.7723819406,
				"element": "C" 
			},
			{
				"x": 0.117389657,
				"y": -2.8745723004,
				"z": -5.9656654849,
				"element": "H" 
			},
			{
				"x": -1.0209057775,
				"y": -2.9855999844,
				"z": -4.6094944611,
				"element": "H" 
			},
			{
				"x": -1.4321289657,
				"y": -2.0136707162,
				"z": -6.0349118246,
				"element": "H" 
			},
			{
				"x": 0.4585163775,
				"y": -0.4235462158,
				"z": -5.4894034135,
				"element": "H" 
			},
			{
				"x": 0.8663611047,
				"y": -1.3908908783,
				"z": -4.0708527999,
				"element": "H" 
			},
			{
				"x": -2.2223705023,
				"y": 1.9833566689,
				"z": -3.3671584077,
				"element": "H" 
			},
			{
				"x": -2.4203790698,
				"y": 0.6141649103,
				"z": -2.2854212274,
				"element": "H" 
			},
			{
				"x": -0.4384912845,
				"y": 2.9088492086,
				"z": -1.7957415627,
				"element": "H" 
			},
			{
				"x": -2.0887681074,
				"y": 2.9288617657,
				"z": -1.1751349003,
				"element": "H" 
			},
			{
				"x": 1.2432315353,
				"y": 1.3168163553,
				"z": -0.8302771237,
				"element": "H" 
			},
			{
				"x": 1.9298290142,
				"y": 0.0308998921,
				"z": 1.177203243,
				"element": "H" 
			},
			{
				"x": 1.2546187436,
				"y": -1.3070095109,
				"z": 3.1897887606,
				"element": "H" 
			},
			{
				"x": 0.572490514,
				"y": 0.0180411305,
				"z": 4.1213607174,
				"element": "H" 
			},
			{
				"x": -0.6269718101,
				"y": -2.038060074,
				"z": 4.7937612575,
				"element": "H" 
			},
			{
				"x": -0.9401318893,
				"y": -2.4504123114,
				"z": 3.1071704996,
				"element": "H" 
			},
			{
				"x": -3.211189259,
				"y": 0.5290265172,
				"z": 2.868661875,
				"element": "H" 
			},
			{
				"x": -2.7806038869,
				"y": 1.4694198919,
				"z": 0.6693374491,
				"element": "H" 
			}
		],
		 "valence_orbital": [ 
			{
				"type": "occ",
				"energy": -0.29872,
				"method": "rhf"
			},
			{
				"type": "occ",
				"energy": -0.27319,
				"method": "rhf"
			},
			{
				"type": "occ",
				"energy": -0.24947,
				"method": "rhf"
			},
			{
				"type": "occ",
				"energy": -0.24408,
				"method": "rhf"
			},
			{
				"type": "occ",
				"energy": -0.21382,
				"method": "rhf"
			},
			{
				"type": "unocc",
				"energy": -0.00983,
				"method": "rhf"
			},
			{
				"type": "unocc",
				"energy": -0.00628,
				"method": "rhf"
			},
			{
				"type": "unocc",
				"energy": 0.01063,
				"method": "rhf"
			},
			{
				"type": "unocc",
				"energy": 0.03897,
				"method": "rhf"
			},
			{
				"type": "unocc",
				"energy": 0.08934,
				"method": "rhf"
			}
		],
		"cosmo_sigma_profile": { 
			"-0.025": 0.0,
			"-0.024": 0.0,
			"-0.023": 0.0,
			"-0.022": 0.0,
			"-0.021": 0.0,
			"-0.02": 0.0,
			"-0.019": 0.0,
			"-0.018": 0.0,
			"-0.017": 0.0,
			"-0.016": 0.0,
			"-0.015": 0.14957773829,
			"-0.014": 1.07798446766,
			"-0.013": 1.24426718005,
			"-0.012": 0.701560833715,
			"-0.011": 1.39712183719,
			"-0.01": 1.05863254643,
			"-0.009": 1.57673900934,
			"-0.008": 1.14008334488,
			"-0.007": 1.88574138365,
			"-0.006": 7.75142142304,
			"-0.005": 21.4286210744,
			"-0.004": 35.836258161,
			"-0.003": 37.1826776048,
			"-0.002": 32.6292045506,
			"-0.001": 26.9009212704,
			"0.0": 22.0509317184,
			"0.001": 15.1008999839,
			"0.002": 11.9641599811,
			"0.003": 12.7428334928,
			"0.004": 11.5419523113,
			"0.005": 12.3481642527,
			"0.006": 8.75702760476,
			"0.007": 5.01140636461,
			"0.008": 3.27127018292,
			"0.009": 2.73313466399,
			"0.01": 3.58302722876,
			"0.011": 3.55169280986,
			"0.012": 5.84032946437,
			"0.013": 5.52473457109,
			"0.014": 4.0265130235,
			"0.015": 0.476812960445,
			"0.016": 0.0,
			"0.017": 0.0,
			"0.018": 0.0,
			"0.019": 0.0,
			"0.02": 0.0,
			"0.021": 0.0,
			"0.022": 0.0,
			"0.023": 0.0,
			"0.024": 0.0,
			"0.025": 0.0
		}
	}
}
