{
	 "smiles": "ClC1=NC=C(C=O)C=C1", 
	 "Tm": 349.15, 
	 "num_atms": 13, 
	 "gaussian": { 
		 "optdone": 1, 
		 "sigma_profile": "yes", 
		 "theory": "DFT", 
		 "functional": "B3LYP", 
		 "basiset": "6-31G**", 
		 "properties": { 
			 "R2extent": 1924.1106, 
			 "electric_dipole_moment_norm": 0.270849072363, 
			 "electric_quadrupole_moment_norm": 13.5339874139, 
			 "total_energy": -821.200285907, 
			 "HOMO_LUMO_gap": 0.18465, 
			 "cosmo_polarized_energy": -8.98, 
			 "cosmo_cavitation_energy": 20.04, 
			 "cosmo_dispersion_energy": -14.92, 
			 "cosmo_repulsion_energy": 1.22, 
			 "cosmo_total_nonelectrostatic_energy": 6.34, 
			 "SMD_solvation_energy": 2.95 
		},
		"coords": [
			{
				"x": -0.6784555643,
				"y": 2.2666149267,
				"z": 2.202770552,
				"element": "Cl" 
			},
			{
				"x": 0.2070909122,
				"y": 1.3322352056,
				"z": 1.0097381612,
				"element": "C" 
			},
			{
				"x": 0.3336008531,
				"y": 1.8734215492,
				"z": -0.1900212408,
				"element": "N" 
			},
			{
				"x": 1.0080494123,
				"y": 1.1661284592,
				"z": -1.1054233914,
				"element": "C" 
			},
			{
				"x": 1.5698826083,
				"y": -0.0878820755,
				"z": -0.8537672137,
				"element": "C" 
			},
			{
				"x": 2.3033874815,
				"y": -0.8159583559,
				"z": -1.9123579998,
				"element": "C" 
			},
			{
				"x": 2.8138461464,
				"y": -1.9083347592,
				"z": -1.7556101378,
				"element": "O" 
			},
			{
				"x": 1.4176695598,
				"y": -0.6346396216,
				"z": 0.4306101094,
				"element": "C" 
			},
			{
				"x": 0.7227196177,
				"y": 0.0835029228,
				"z": 1.3901240439,
				"element": "C" 
			},
			{
				"x": 1.1030384492,
				"y": 1.6261648774,
				"z": -2.0881967877,
				"element": "H" 
			},
			{
				"x": 2.3614238215,
				"y": -0.2887115261,
				"z": -2.8889492557,
				"element": "H" 
			},
			{
				"x": 1.8476375955,
				"y": -1.6082914943,
				"z": 0.6445832303,
				"element": "H" 
			},
			{
				"x": 0.575309107,
				"y": -0.2901501083,
				"z": 2.3961999302,
				"element": "H" 
			}
		],
		 "valence_orbital": [ 
			{
				"type": "occ",
				"energy": -0.32791,
				"method": "rhf"
			},
			{
				"type": "occ",
				"energy": -0.31592,
				"method": "rhf"
			},
			{
				"type": "occ",
				"energy": -0.29735,
				"method": "rhf"
			},
			{
				"type": "occ",
				"energy": -0.27751,
				"method": "rhf"
			},
			{
				"type": "occ",
				"energy": -0.27027,
				"method": "rhf"
			},
			{
				"type": "unocc",
				"energy": -0.08562,
				"method": "rhf"
			},
			{
				"type": "unocc",
				"energy": -0.05113,
				"method": "rhf"
			},
			{
				"type": "unocc",
				"energy": 0.01158,
				"method": "rhf"
			},
			{
				"type": "unocc",
				"energy": 0.02212,
				"method": "rhf"
			},
			{
				"type": "unocc",
				"energy": 0.10032,
				"method": "rhf"
			}
		],
		"cosmo_sigma_profile": { 
			"-0.025": 0.0,
			"-0.024": 0.0,
			"-0.023": 0.0,
			"-0.022": 0.0,
			"-0.021": 0.0,
			"-0.02": 0.0,
			"-0.019": 0.0,
			"-0.018": 0.0,
			"-0.017": 0.0,
			"-0.016": 0.0,
			"-0.015": 0.0,
			"-0.014": 0.0,
			"-0.013": 0.0,
			"-0.012": 0.0,
			"-0.011": 0.0,
			"-0.01": 0.652654449982,
			"-0.009": 4.07140226286,
			"-0.008": 8.04794477307,
			"-0.007": 8.59270258742,
			"-0.006": 6.8924220624,
			"-0.005": 6.86490221341,
			"-0.004": 6.53110553549,
			"-0.003": 9.89797501661,
			"-0.002": 18.0279177268,
			"-0.001": 17.328489775,
			"0.0": 12.4141553191,
			"0.001": 6.56622458577,
			"0.002": 8.5449949531,
			"0.003": 10.1042795366,
			"0.004": 9.81308085493,
			"0.005": 4.76533511174,
			"0.006": 3.37531823484,
			"0.007": 2.67759245217,
			"0.008": 3.49679438267,
			"0.009": 2.71862162136,
			"0.01": 4.17628769829,
			"0.011": 5.18488304078,
			"0.012": 2.29688736466,
			"0.013": 0.804553983331,
			"0.014": 0.403900943603,
			"0.015": 0.0,
			"0.016": 0.0,
			"0.017": 0.0,
			"0.018": 0.0,
			"0.019": 0.0,
			"0.02": 0.0,
			"0.021": 0.0,
			"0.022": 0.0,
			"0.023": 0.0,
			"0.024": 0.0,
			"0.025": 0.0
		}
	}
}
