{
	 "smiles": "COP(OC)OC", 
	 "Tm": 195.15, 
	 "num_atms": 16, 
	 "gaussian": { 
		 "optdone": 1, 
		 "sigma_profile": "yes", 
		 "theory": "DFT", 
		 "functional": "B3LYP", 
		 "basiset": "6-31G**", 
		 "properties": { 
			 "R2extent": 1401.0281, 
			 "electric_dipole_moment_norm": 1.63117100882, 
			 "electric_quadrupole_moment_norm": 8.27146847905, 
			 "total_energy": -686.783709632, 
			 "HOMO_LUMO_gap": 0.2775, 
			 "cosmo_polarized_energy": -6.41, 
			 "cosmo_cavitation_energy": 20.75, 
			 "cosmo_dispersion_energy": -16.0, 
			 "cosmo_repulsion_energy": 1.53, 
			 "cosmo_total_nonelectrostatic_energy": 6.28, 
			 "SMD_solvation_energy": 6.64 
		},
		"coords": [
			{
				"x": -2.7230872173,
				"y": -0.2470765377,
				"z": 0.7806418715,
				"element": "C" 
			},
			{
				"x": -1.7913478196,
				"y": 0.2059806495,
				"z": 1.7794481551,
				"element": "O" 
			},
			{
				"x": -0.474181884,
				"y": 1.0947872259,
				"z": 1.3952448079,
				"element": "P" 
			},
			{
				"x": 0.2532315501,
				"y": 0.2076990412,
				"z": 0.1788579717,
				"element": "O" 
			},
			{
				"x": 1.2824108059,
				"y": -0.7070318172,
				"z": 0.5577910349,
				"element": "C" 
			},
			{
				"x": -1.2192685416,
				"y": 2.1808325677,
				"z": 0.3905837904,
				"element": "O" 
			},
			{
				"x": -0.3999688651,
				"y": 3.1484326441,
				"z": -0.2645148499,
				"element": "C" 
			},
			{
				"x": -3.3573957314,
				"y": -0.9954913458,
				"z": 1.2598732487,
				"element": "H" 
			},
			{
				"x": -2.1968754077,
				"y": -0.6961998782,
				"z": -0.0666102211,
				"element": "H" 
			},
			{
				"x": -3.3351335421,
				"y": 0.5861147679,
				"z": 0.4265055129,
				"element": "H" 
			},
			{
				"x": 1.9373254131,
				"y": -0.845761431,
				"z": -0.3062220177,
				"element": "H" 
			},
			{
				"x": 0.8602469322,
				"y": -1.6782903128,
				"z": 0.8418019214,
				"element": "H" 
			},
			{
				"x": 1.8796284037,
				"y": -0.3271526684,
				"z": 1.3971732588,
				"element": "H" 
			},
			{
				"x": 0.2775109024,
				"y": 3.6510664084,
				"z": 0.4392663626,
				"element": "H" 
			},
			{
				"x": 0.1939483857,
				"y": 2.6851229189,
				"z": -1.0596736756,
				"element": "H" 
			},
			{
				"x": -1.0678433843,
				"y": 3.8948677676,
				"z": -0.7002671716,
				"element": "H" 
			}
		],
		 "valence_orbital": [ 
			{
				"type": "occ",
				"energy": -0.3246,
				"method": "rhf"
			},
			{
				"type": "occ",
				"energy": -0.30354,
				"method": "rhf"
			},
			{
				"type": "occ",
				"energy": -0.29333,
				"method": "rhf"
			},
			{
				"type": "occ",
				"energy": -0.2813,
				"method": "rhf"
			},
			{
				"type": "occ",
				"energy": -0.24166,
				"method": "rhf"
			},
			{
				"type": "unocc",
				"energy": 0.03584,
				"method": "rhf"
			},
			{
				"type": "unocc",
				"energy": 0.04543,
				"method": "rhf"
			},
			{
				"type": "unocc",
				"energy": 0.10034,
				"method": "rhf"
			},
			{
				"type": "unocc",
				"energy": 0.11962,
				"method": "rhf"
			},
			{
				"type": "unocc",
				"energy": 0.12693,
				"method": "rhf"
			}
		],
		"cosmo_sigma_profile": { 
			"-0.025": 0.0,
			"-0.024": 0.0,
			"-0.023": 0.0,
			"-0.022": 0.0,
			"-0.021": 0.0,
			"-0.02": 0.0,
			"-0.019": 0.0,
			"-0.018": 0.0,
			"-0.017": 0.0,
			"-0.016": 0.0,
			"-0.015": 0.0,
			"-0.014": 0.0,
			"-0.013": 0.0,
			"-0.012": 0.0,
			"-0.011": 0.0,
			"-0.01": 0.0,
			"-0.009": 0.0,
			"-0.008": 0.0,
			"-0.007": 0.0,
			"-0.006": 1.88856264074,
			"-0.005": 13.9042299973,
			"-0.004": 21.2874484514,
			"-0.003": 28.7583490675,
			"-0.002": 21.3175815794,
			"-0.001": 9.72394973778,
			"0.0": 8.94187439675,
			"0.001": 7.9731618062,
			"0.002": 5.89628120692,
			"0.003": 5.88257751808,
			"0.004": 6.39825343145,
			"0.005": 6.39448588297,
			"0.006": 5.66345632586,
			"0.007": 4.86305270083,
			"0.008": 5.91788412758,
			"0.009": 2.94406414973,
			"0.01": 2.34227264502,
			"0.011": 2.43910705721,
			"0.012": 1.41139767478,
			"0.013": 0.0869727794848,
			"0.014": 0.0,
			"0.015": 0.0,
			"0.016": 0.0,
			"0.017": 0.0,
			"0.018": 0.0,
			"0.019": 0.0,
			"0.02": 0.0,
			"0.021": 0.0,
			"0.022": 0.0,
			"0.023": 0.0,
			"0.024": 0.0,
			"0.025": 0.0
		}
	}
}
