{
	 "smiles": "BrC1=C(OCC2=CC=CC=C2)N=C(N=C1)N1CCCC1", 
	 "Tm": 380.15, 
	 "num_atms": 36, 
	 "gaussian": { 
		 "optdone": 1, 
		 "sigma_profile": "yes", 
		 "theory": "DFT", 
		 "functional": "B3LYP", 
		 "basiset": "6-31G**", 
		 "properties": { 
			 "R2extent": 10177.096, 
			 "electric_dipole_moment_norm": 3.88960102838, 
			 "electric_quadrupole_moment_norm": 8.60679441546, 
			 "total_energy": -3392.1338896, 
			 "HOMO_LUMO_gap": 0.18349, 
			 "cosmo_polarized_energy": -9.69, 
			 "cosmo_cavitation_energy": 41.52, 
			 "cosmo_dispersion_energy": -28.99, 
			 "cosmo_repulsion_energy": 2.27, 
			 "cosmo_total_nonelectrostatic_energy": 14.8, 
			 "SMD_solvation_energy": 3.32 
		},
		"coords": [
			{
				"x": 0.1166170898,
				"y": 2.5313948068,
				"z": -4.8311303185,
				"element": "Br" 
			},
			{
				"x": -0.4714552041,
				"y": 2.0661296384,
				"z": -3.086402309,
				"element": "C" 
			},
			{
				"x": 0.3333057822,
				"y": 2.2564378681,
				"z": -1.9453090173,
				"element": "C" 
			},
			{
				"x": 1.5506096149,
				"y": 2.8003479896,
				"z": -2.1114936123,
				"element": "O" 
			},
			{
				"x": 2.3964776835,
				"y": 2.942614656,
				"z": -0.9533963882,
				"element": "C" 
			},
			{
				"x": 3.1167772889,
				"y": 1.6626030388,
				"z": -0.5898334794,
				"element": "C" 
			},
			{
				"x": 3.3641307898,
				"y": 1.3548329355,
				"z": 0.7523983605,
				"element": "C" 
			},
			{
				"x": 4.0810745882,
				"y": 0.2076648168,
				"z": 1.0973915455,
				"element": "C" 
			},
			{
				"x": 4.5487420359,
				"y": -0.6500848004,
				"z": 0.1005364678,
				"element": "C" 
			},
			{
				"x": 4.2988459627,
				"y": -0.3521464476,
				"z": -1.2410525569,
				"element": "C" 
			},
			{
				"x": 3.5918331601,
				"y": 0.8000874081,
				"z": -1.5852206698,
				"element": "C" 
			},
			{
				"x": -0.088138088,
				"y": 1.9288115476,
				"z": -0.7347540627,
				"element": "N" 
			},
			{
				"x": -1.3268001222,
				"y": 1.3892066531,
				"z": -0.6349226891,
				"element": "C" 
			},
			{
				"x": -2.176950926,
				"y": 1.1664442159,
				"z": -1.6604712903,
				"element": "N" 
			},
			{
				"x": -1.7264674537,
				"y": 1.5156448087,
				"z": -2.8675877608,
				"element": "C" 
			},
			{
				"x": -1.7451642598,
				"y": 1.0418734989,
				"z": 0.6059407936,
				"element": "N" 
			},
			{
				"x": -3.0645419573,
				"y": 0.4600958221,
				"z": 0.8717794644,
				"element": "C" 
			},
			{
				"x": -3.1494062713,
				"y": 0.4798555074,
				"z": 2.405744511,
				"element": "C" 
			},
			{
				"x": -1.6824615812,
				"y": 0.332623855,
				"z": 2.8465907934,
				"element": "C" 
			},
			{
				"x": -0.9127332438,
				"y": 1.1607869819,
				"z": 1.8058476326,
				"element": "C" 
			},
			{
				"x": 3.1091478429,
				"y": 3.7157114839,
				"z": -1.2571087642,
				"element": "H" 
			},
			{
				"x": 1.810390025,
				"y": 3.3097941408,
				"z": -0.1081007838,
				"element": "H" 
			},
			{
				"x": 2.9920724632,
				"y": 2.0155477627,
				"z": 1.5318759988,
				"element": "H" 
			},
			{
				"x": 4.2660075659,
				"y": -0.0196932483,
				"z": 2.1435692518,
				"element": "H" 
			},
			{
				"x": 5.1013867265,
				"y": -1.5465002049,
				"z": 0.3668933879,
				"element": "H" 
			},
			{
				"x": 4.6574002038,
				"y": -1.0172082002,
				"z": -2.0216838588,
				"element": "H" 
			},
			{
				"x": 3.3938425353,
				"y": 1.0302864345,
				"z": -2.6278435,
				"element": "H" 
			},
			{
				"x": -2.395237547,
				"y": 1.346314262,
				"z": -3.7088453401,
				"element": "H" 
			},
			{
				"x": -3.8495063343,
				"y": 1.0425458378,
				"z": 0.3823206236,
				"element": "H" 
			},
			{
				"x": -3.1225254952,
				"y": -0.5614690421,
				"z": 0.4717935736,
				"element": "H" 
			},
			{
				"x": -3.5492868115,
				"y": 1.4421286472,
				"z": 2.7456548228,
				"element": "H" 
			},
			{
				"x": -3.7992745822,
				"y": -0.3077601555,
				"z": 2.7961826021,
				"element": "H" 
			},
			{
				"x": -1.5010470688,
				"y": 0.6757885849,
				"z": 3.8686758067,
				"element": "H" 
			},
			{
				"x": -1.3756929248,
				"y": -0.7178508433,
				"z": 2.7868589873,
				"element": "H" 
			},
			{
				"x": 0.0979026795,
				"y": 0.7904788532,
				"z": 1.6133918776,
				"element": "H" 
			},
			{
				"x": -0.8229741669,
				"y": 2.2131608866,
				"z": 2.1114099002,
				"element": "H" 
			}
		],
		 "valence_orbital": [ 
			{
				"type": "occ",
				"energy": -0.2602,
				"method": "rhf"
			},
			{
				"type": "occ",
				"energy": -0.25184,
				"method": "rhf"
			},
			{
				"type": "occ",
				"energy": -0.24939,
				"method": "rhf"
			},
			{
				"type": "occ",
				"energy": -0.24303,
				"method": "rhf"
			},
			{
				"type": "occ",
				"energy": -0.20196,
				"method": "rhf"
			},
			{
				"type": "unocc",
				"energy": -0.01847,
				"method": "rhf"
			},
			{
				"type": "unocc",
				"energy": -0.00581,
				"method": "rhf"
			},
			{
				"type": "unocc",
				"energy": -0.00337,
				"method": "rhf"
			},
			{
				"type": "unocc",
				"energy": 0.00703,
				"method": "rhf"
			},
			{
				"type": "unocc",
				"energy": 0.01851,
				"method": "rhf"
			}
		],
		"cosmo_sigma_profile": { 
			"-0.025": 0.0,
			"-0.024": 0.0,
			"-0.023": 0.0,
			"-0.022": 0.0,
			"-0.021": 0.0,
			"-0.02": 0.0,
			"-0.019": 0.0,
			"-0.018": 0.0,
			"-0.017": 0.0,
			"-0.016": 0.0,
			"-0.015": 0.0,
			"-0.014": 0.0,
			"-0.013": 0.0,
			"-0.012": 0.0,
			"-0.011": 0.0,
			"-0.01": 0.0,
			"-0.009": 0.0,
			"-0.008": 0.621744625676,
			"-0.007": 3.03758681803,
			"-0.006": 9.54244390241,
			"-0.005": 16.3714565373,
			"-0.004": 27.4523444869,
			"-0.003": 41.7973257636,
			"-0.002": 37.6597291481,
			"-0.001": 32.5870312874,
			"0.0": 31.2979006365,
			"0.001": 25.8354089104,
			"0.002": 19.5981903308,
			"0.003": 20.1404035259,
			"0.004": 20.298121652,
			"0.005": 19.2401574044,
			"0.006": 12.6338812382,
			"0.007": 4.928362732,
			"0.008": 3.47282332162,
			"0.009": 2.39776957132,
			"0.01": 1.04636938299,
			"0.011": 0.936221805901,
			"0.012": 0.838488613249,
			"0.013": 0.835737845975,
			"0.014": 0.439084112573,
			"0.015": 0.0300749527834,
			"0.016": 0.0,
			"0.017": 0.0,
			"0.018": 0.0,
			"0.019": 0.0,
			"0.02": 0.0,
			"0.021": 0.0,
			"0.022": 0.0,
			"0.023": 0.0,
			"0.024": 0.0,
			"0.025": 0.0
		}
	}
}
