{
	 "smiles": "CC1=NN=C(S)N1CC1=CC=CC=C1", 
	 "Tm": 438.15, 
	 "num_atms": 25, 
	 "gaussian": { 
		 "optdone": 1, 
		 "sigma_profile": "yes", 
		 "theory": "DFT", 
		 "functional": "B3LYP", 
		 "basiset": "6-31G**", 
		 "properties": { 
			 "R2extent": 3562.5491, 
			 "electric_dipole_moment_norm": 6.30164946185, 
			 "electric_quadrupole_moment_norm": 23.439547639, 
			 "total_energy": -950.113320433, 
			 "HOMO_LUMO_gap": 0.2281, 
			 "cosmo_polarized_energy": -18.31, 
			 "cosmo_cavitation_energy": 30.58, 
			 "cosmo_dispersion_energy": -21.74, 
			 "cosmo_repulsion_energy": 1.67, 
			 "cosmo_total_nonelectrostatic_energy": 10.51, 
			 "SMD_solvation_energy": 2.57 
		},
		"coords": [
			{
				"x": 1.0967911046,
				"y": 1.7575250804,
				"z": -1.7825225435,
				"element": "C" 
			},
			{
				"x": 0.2843350555,
				"y": 0.6131105873,
				"z": -2.285530871,
				"element": "C" 
			},
			{
				"x": 0.3415127201,
				"y": 0.1172048627,
				"z": -3.5046441086,
				"element": "N" 
			},
			{
				"x": -0.5514746944,
				"y": -0.9275474455,
				"z": -3.579825608,
				"element": "N" 
			},
			{
				"x": -1.1254449217,
				"y": -1.0393267088,
				"z": -2.4041554774,
				"element": "C" 
			},
			{
				"x": -2.429236827,
				"y": -2.1703387375,
				"z": -2.0175741932,
				"element": "S" 
			},
			{
				"x": -0.6398167625,
				"y": -0.0745096808,
				"z": -1.5382110656,
				"element": "N" 
			},
			{
				"x": -0.9910852846,
				"y": 0.1407432809,
				"z": -0.1412756749,
				"element": "C" 
			},
			{
				"x": 0.0193758859,
				"y": -0.4025563993,
				"z": 0.8586533237,
				"element": "C" 
			},
			{
				"x": 0.0219992628,
				"y": 0.1106112072,
				"z": 2.162282977,
				"element": "C" 
			},
			{
				"x": 0.8959996361,
				"y": -0.3958003637,
				"z": 3.1234160228,
				"element": "C" 
			},
			{
				"x": 1.7862895754,
				"y": -1.4192706716,
				"z": 2.7904045945,
				"element": "C" 
			},
			{
				"x": 1.7942413519,
				"y": -1.9301458575,
				"z": 1.4924365685,
				"element": "C" 
			},
			{
				"x": 0.9145889141,
				"y": -1.4263687673,
				"z": 0.5312148485,
				"element": "C" 
			},
			{
				"x": 0.4661299278,
				"y": 2.6012850961,
				"z": -1.4787706271,
				"element": "H" 
			},
			{
				"x": 1.7515505446,
				"y": 2.0896036737,
				"z": -2.5894303007,
				"element": "H" 
			},
			{
				"x": 1.7102354639,
				"y": 1.4708127177,
				"z": -0.9219661734,
				"element": "H" 
			},
			{
				"x": -1.6936183958,
				"y": -3.0468457498,
				"z": -1.2982214872,
				"element": "H" 
			},
			{
				"x": -1.1322905559,
				"y": 1.2148700829,
				"z": 0.0170786508,
				"element": "H" 
			},
			{
				"x": -1.9658402643,
				"y": -0.3349603982,
				"z": 0.0103574947,
				"element": "H" 
			},
			{
				"x": -0.6645217946,
				"y": 0.9118075501,
				"z": 2.4268857575,
				"element": "H" 
			},
			{
				"x": 0.8870191266,
				"y": 0.0136903696,
				"z": 4.1293966142,
				"element": "H" 
			},
			{
				"x": 2.4714799095,
				"y": -1.8110401328,
				"z": 3.5362493453,
				"element": "H" 
			},
			{
				"x": 2.4872101578,
				"y": -2.7216979566,
				"z": 1.2223838764,
				"element": "H" 
			},
			{
				"x": 0.9367708643,
				"y": -1.825255639,
				"z": -0.4786319435,
				"element": "H" 
			}
		],
		 "valence_orbital": [ 
			{
				"type": "occ",
				"energy": -0.27354,
				"method": "rhf"
			},
			{
				"type": "occ",
				"energy": -0.26643,
				"method": "rhf"
			},
			{
				"type": "occ",
				"energy": -0.25997,
				"method": "rhf"
			},
			{
				"type": "occ",
				"energy": -0.25176,
				"method": "rhf"
			},
			{
				"type": "occ",
				"energy": -0.24841,
				"method": "rhf"
			},
			{
				"type": "unocc",
				"energy": -0.02031,
				"method": "rhf"
			},
			{
				"type": "unocc",
				"energy": -0.01885,
				"method": "rhf"
			},
			{
				"type": "unocc",
				"energy": -0.00624,
				"method": "rhf"
			},
			{
				"type": "unocc",
				"energy": 0.03144,
				"method": "rhf"
			},
			{
				"type": "unocc",
				"energy": 0.04742,
				"method": "rhf"
			}
		],
		"cosmo_sigma_profile": { 
			"-0.025": 0.0,
			"-0.024": 0.0,
			"-0.023": 0.0,
			"-0.022": 0.0,
			"-0.021": 0.0,
			"-0.02": 0.0,
			"-0.019": 0.0,
			"-0.018": 0.0,
			"-0.017": 0.0,
			"-0.016": 0.0,
			"-0.015": 0.0,
			"-0.014": 0.0,
			"-0.013": 0.0,
			"-0.012": 0.0827202456303,
			"-0.011": 1.3140308627,
			"-0.01": 2.15812616402,
			"-0.009": 1.9880628193,
			"-0.008": 5.45211045648,
			"-0.007": 8.10486922398,
			"-0.006": 15.9607734714,
			"-0.005": 21.5338767733,
			"-0.004": 23.0855491541,
			"-0.003": 21.7262473121,
			"-0.002": 20.7519485701,
			"-0.001": 16.6508913294,
			"0.0": 11.3282606061,
			"0.001": 9.88159396668,
			"0.002": 12.7809486812,
			"0.003": 13.4140206008,
			"0.004": 10.8810813567,
			"0.005": 12.4324500597,
			"0.006": 7.90450561313,
			"0.007": 3.02462330388,
			"0.008": 2.64231847911,
			"0.009": 2.42813902601,
			"0.01": 2.36509827499,
			"0.011": 2.91722444935,
			"0.012": 2.37798369004,
			"0.013": 3.43976896162,
			"0.014": 3.47496865876,
			"0.015": 2.74947377438,
			"0.016": 2.34613916648,
			"0.017": 1.26797287528,
			"0.018": 0.0565425632232,
			"0.019": 0.0,
			"0.02": 0.0,
			"0.021": 0.0,
			"0.022": 0.0,
			"0.023": 0.0,
			"0.024": 0.0,
			"0.025": 0.0
		}
	}
}
