{
	 "smiles": "OC(=O)C1=CC(OCC2=CC(Cl)=CC=C2)=CC=C1", 
	 "Tm": 418.15, 
	 "num_atms": 29, 
	 "gaussian": { 
		 "optdone": 1, 
		 "sigma_profile": "yes", 
		 "theory": "DFT", 
		 "functional": "B3LYP", 
		 "basiset": "6-31G**", 
		 "properties": { 
			 "R2extent": 8820.1545, 
			 "electric_dipole_moment_norm": 4.66668298795, 
			 "electric_quadrupole_moment_norm": 25.9027769845, 
			 "total_energy": -1225.98326595, 
			 "HOMO_LUMO_gap": 0.18891, 
			 "cosmo_polarized_energy": -17.97, 
			 "cosmo_cavitation_energy": 36.27, 
			 "cosmo_dispersion_energy": -26.27, 
			 "cosmo_repulsion_energy": 2.02, 
			 "cosmo_total_nonelectrostatic_energy": 12.02, 
			 "SMD_solvation_energy": 7.04 
		},
		"coords": [
			{
				"x": -4.0885518641,
				"y": -0.8857440558,
				"z": -2.363107609,
				"element": "O" 
			},
			{
				"x": -4.345133819,
				"y": 0.1494108915,
				"z": -1.515275508,
				"element": "C" 
			},
			{
				"x": -5.3934952356,
				"y": 0.7445274512,
				"z": -1.5890538302,
				"element": "O" 
			},
			{
				"x": -3.2716219393,
				"y": 0.4818666947,
				"z": -0.5211738306,
				"element": "C" 
			},
			{
				"x": -1.9223120827,
				"y": 0.1576466758,
				"z": -0.7504531663,
				"element": "C" 
			},
			{
				"x": -0.9571322768,
				"y": 0.498341783,
				"z": 0.2024675093,
				"element": "C" 
			},
			{
				"x": 0.3783906125,
				"y": 0.2490176858,
				"z": 0.0786349506,
				"element": "O" 
			},
			{
				"x": 0.8427285445,
				"y": -0.4441836136,
				"z": -1.0763588491,
				"element": "C" 
			},
			{
				"x": 2.329886915,
				"y": -0.6763463384,
				"z": -0.9458262511,
				"element": "C" 
			},
			{
				"x": 3.1310993511,
				"y": -0.6442257901,
				"z": -2.0913193244,
				"element": "C" 
			},
			{
				"x": 4.4942854035,
				"y": -0.9169990469,
				"z": -1.9853696012,
				"element": "C" 
			},
			{
				"x": 5.4905295225,
				"y": -0.8749034121,
				"z": -3.4332123898,
				"element": "Cl" 
			},
			{
				"x": 5.0819986424,
				"y": -1.2104964147,
				"z": -0.7564935737,
				"element": "C" 
			},
			{
				"x": 4.2753739905,
				"y": -1.2314337035,
				"z": 0.3827770088,
				"element": "C" 
			},
			{
				"x": 2.9085429258,
				"y": -0.9715975015,
				"z": 0.2938054284,
				"element": "C" 
			},
			{
				"x": -1.343134627,
				"y": 1.1560127672,
				"z": 1.3807493127,
				"element": "C" 
			},
			{
				"x": -2.6779944451,
				"y": 1.4817250858,
				"z": 1.5917894309,
				"element": "C" 
			},
			{
				"x": -3.6482448757,
				"y": 1.1562493224,
				"z": 0.6417368254,
				"element": "C" 
			},
			{
				"x": -3.3106718241,
				"y": -1.3736997829,
				"z": -2.059178012,
				"element": "H" 
			},
			{
				"x": -1.6257130686,
				"y": -0.3018503811,
				"z": -1.6866148256,
				"element": "H" 
			},
			{
				"x": 0.6255116885,
				"y": 0.1356984782,
				"z": -1.9838953261,
				"element": "H" 
			},
			{
				"x": 0.3147023055,
				"y": -1.4068490113,
				"z": -1.1625447308,
				"element": "H" 
			},
			{
				"x": 2.7043680336,
				"y": -0.4056644389,
				"z": -3.0604057382,
				"element": "H" 
			},
			{
				"x": 6.1453648516,
				"y": -1.4127802725,
				"z": -0.6949815631,
				"element": "H" 
			},
			{
				"x": 4.7218951175,
				"y": -1.4542337217,
				"z": 1.3472698602,
				"element": "H" 
			},
			{
				"x": 2.2879620365,
				"y": -0.9815405443,
				"z": 1.1829114022,
				"element": "H" 
			},
			{
				"x": -0.5758657921,
				"y": 1.4079166718,
				"z": 2.1053832018,
				"element": "H" 
			},
			{
				"x": -2.9641412466,
				"y": 1.9964858994,
				"z": 2.5039888887,
				"element": "H" 
			},
			{
				"x": -4.6918268442,
				"y": 1.4123486223,
				"z": 0.78345031,
				"element": "H" 
			}
		],
		 "valence_orbital": [ 
			{
				"type": "occ",
				"energy": -0.2792,
				"method": "rhf"
			},
			{
				"type": "occ",
				"energy": -0.27162,
				"method": "rhf"
			},
			{
				"type": "occ",
				"energy": -0.27032,
				"method": "rhf"
			},
			{
				"type": "occ",
				"energy": -0.25503,
				"method": "rhf"
			},
			{
				"type": "occ",
				"energy": -0.24208,
				"method": "rhf"
			},
			{
				"type": "unocc",
				"energy": -0.05317,
				"method": "rhf"
			},
			{
				"type": "unocc",
				"energy": -0.02678,
				"method": "rhf"
			},
			{
				"type": "unocc",
				"energy": -0.0238,
				"method": "rhf"
			},
			{
				"type": "unocc",
				"energy": -0.01358,
				"method": "rhf"
			},
			{
				"type": "unocc",
				"energy": 0.02197,
				"method": "rhf"
			}
		],
		"cosmo_sigma_profile": { 
			"-0.025": 0.0,
			"-0.024": 0.0,
			"-0.023": 0.0,
			"-0.022": 0.0,
			"-0.021": 0.0,
			"-0.02": 0.0,
			"-0.019": 0.0,
			"-0.018": 0.726437092171,
			"-0.017": 0.822689236182,
			"-0.016": 1.2574620414,
			"-0.015": 0.971409804857,
			"-0.014": 1.00027714155,
			"-0.013": 1.10846718772,
			"-0.012": 1.225121902,
			"-0.011": 1.02311877427,
			"-0.01": 1.07547361154,
			"-0.009": 2.11969911478,
			"-0.008": 4.64252228759,
			"-0.007": 12.8072038411,
			"-0.006": 17.7973309747,
			"-0.005": 18.1258237124,
			"-0.004": 17.0742791747,
			"-0.003": 14.4637911737,
			"-0.002": 16.2045736557,
			"-0.001": 15.1386208985,
			"0.0": 17.2088346669,
			"0.001": 19.9652912898,
			"0.002": 28.5957176383,
			"0.003": 30.9931954694,
			"0.004": 25.8087666975,
			"0.005": 11.4081257157,
			"0.006": 3.48294211842,
			"0.007": 4.23724728755,
			"0.008": 3.36304764183,
			"0.009": 4.04142815783,
			"0.01": 4.48005434034,
			"0.011": 5.56557974406,
			"0.012": 4.7532601809,
			"0.013": 1.48748116183,
			"0.014": 0.0397184636825,
			"0.015": 0.0,
			"0.016": 0.0,
			"0.017": 0.0,
			"0.018": 0.0,
			"0.019": 0.0,
			"0.02": 0.0,
			"0.021": 0.0,
			"0.022": 0.0,
			"0.023": 0.0,
			"0.024": 0.0,
			"0.025": 0.0
		}
	}
}
