{
	 "smiles": "CN(C)CN(C)C", 
	 "Tm": 218.15, 
	 "num_atms": 21, 
	 "gaussian": { 
		 "optdone": 1, 
		 "sigma_profile": "yes", 
		 "theory": "DFT", 
		 "functional": "B3LYP", 
		 "basiset": "6-31G**", 
		 "properties": { 
			 "R2extent": 2180.7612, 
			 "electric_dipole_moment_norm": 0.676713846467, 
			 "electric_quadrupole_moment_norm": 3.46093906043, 
			 "total_energy": -308.451429342, 
			 "HOMO_LUMO_gap": 0.29256, 
			 "cosmo_polarized_energy": -3.21, 
			 "cosmo_cavitation_energy": 22.12, 
			 "cosmo_dispersion_energy": -15.89, 
			 "cosmo_repulsion_energy": 1.34, 
			 "cosmo_total_nonelectrostatic_energy": 7.58, 
			 "SMD_solvation_energy": 2.22 
		},
		"coords": [
			{
				"x": -0.1403751893,
				"y": -2.2441106299,
				"z": 1.3310622128,
				"element": "C" 
			},
			{
				"x": 1.1767717857,
				"y": -2.4912700449,
				"z": 0.7556721148,
				"element": "N" 
			},
			{
				"x": 2.2317170173,
				"y": -2.3868086502,
				"z": 1.7517408561,
				"element": "C" 
			},
			{
				"x": 1.4330440053,
				"y": -1.6552622012,
				"z": -0.4084650775,
				"element": "C" 
			},
			{
				"x": 0.5743562969,
				"y": -2.0284330326,
				"z": -1.5234472469,
				"element": "N" 
			},
			{
				"x": 0.5517743303,
				"y": -1.013230328,
				"z": -2.5650122859,
				"element": "C" 
			},
			{
				"x": 0.9049582344,
				"y": -3.3455303924,
				"z": -2.055412186,
				"element": "C" 
			},
			{
				"x": -0.221648469,
				"y": -1.2435652144,
				"z": 1.7998062005,
				"element": "H" 
			},
			{
				"x": -0.3569129733,
				"y": -2.9956943628,
				"z": 2.0972619573,
				"element": "H" 
			},
			{
				"x": -0.891909401,
				"y": -2.3159720966,
				"z": 0.5428674158,
				"element": "H" 
			},
			{
				"x": 2.0387814811,
				"y": -3.0945044105,
				"z": 2.5645416857,
				"element": "H" 
			},
			{
				"x": 3.1980914302,
				"y": -2.6407532209,
				"z": 1.3040252482,
				"element": "H" 
			},
			{
				"x": 2.3173279945,
				"y": -1.3777060746,
				"z": 2.2008239337,
				"element": "H" 
			},
			{
				"x": 1.2535913856,
				"y": -0.5826767665,
				"z": -0.1970165829,
				"element": "H" 
			},
			{
				"x": 2.5072677129,
				"y": -1.7574655766,
				"z": -0.6593534986,
				"element": "H" 
			},
			{
				"x": 1.5314175134,
				"y": -0.8671272539,
				"z": -3.061258917,
				"element": "H" 
			},
			{
				"x": 0.2382688846,
				"y": -0.051487009,
				"z": -2.1459855873,
				"element": "H" 
			},
			{
				"x": -0.1702986668,
				"y": -1.2975061188,
				"z": -3.3373456868,
				"element": "H" 
			},
			{
				"x": 1.8891374192,
				"y": -3.3670102152,
				"z": -2.5636965329,
				"element": "H" 
			},
			{
				"x": 0.9264638691,
				"y": -4.0652222115,
				"z": -1.235172136,
				"element": "H" 
			},
			{
				"x": 0.143375339,
				"y": -3.6547641896,
				"z": -2.7787358872,
				"element": "H" 
			}
		],
		 "valence_orbital": [ 
			{
				"type": "occ",
				"energy": -0.35641,
				"method": "rhf"
			},
			{
				"type": "occ",
				"energy": -0.35302,
				"method": "rhf"
			},
			{
				"type": "occ",
				"energy": -0.3455,
				"method": "rhf"
			},
			{
				"type": "occ",
				"energy": -0.21282,
				"method": "rhf"
			},
			{
				"type": "occ",
				"energy": -0.20691,
				"method": "rhf"
			},
			{
				"type": "unocc",
				"energy": 0.08565,
				"method": "rhf"
			},
			{
				"type": "unocc",
				"energy": 0.10545,
				"method": "rhf"
			},
			{
				"type": "unocc",
				"energy": 0.14106,
				"method": "rhf"
			},
			{
				"type": "unocc",
				"energy": 0.1424,
				"method": "rhf"
			},
			{
				"type": "unocc",
				"energy": 0.15167,
				"method": "rhf"
			}
		],
		"cosmo_sigma_profile": { 
			"-0.025": 0.0,
			"-0.024": 0.0,
			"-0.023": 0.0,
			"-0.022": 0.0,
			"-0.021": 0.0,
			"-0.02": 0.0,
			"-0.019": 0.0,
			"-0.018": 0.0,
			"-0.017": 0.0,
			"-0.016": 0.0,
			"-0.015": 0.0,
			"-0.014": 0.0,
			"-0.013": 0.0,
			"-0.012": 0.0,
			"-0.011": 0.0,
			"-0.01": 0.0,
			"-0.009": 0.0,
			"-0.008": 0.0,
			"-0.007": 0.0,
			"-0.006": 0.0,
			"-0.005": 0.0,
			"-0.004": 5.65201768422,
			"-0.003": 17.3384874075,
			"-0.002": 26.1272533044,
			"-0.001": 39.8666961466,
			"0.0": 39.1453781503,
			"0.001": 16.0618688244,
			"0.002": 4.58804250609,
			"0.003": 2.96576909098,
			"0.004": 2.69397931597,
			"0.005": 2.65652485907,
			"0.006": 3.35174708761,
			"0.007": 1.64980998668,
			"0.008": 2.35174720668,
			"0.009": 1.72425080189,
			"0.01": 1.40923977911,
			"0.011": 1.13922226783,
			"0.012": 1.23031269387,
			"0.013": 0.241302040883,
			"0.014": 0.0,
			"0.015": 0.0,
			"0.016": 0.0,
			"0.017": 0.0,
			"0.018": 0.0,
			"0.019": 0.0,
			"0.02": 0.0,
			"0.021": 0.0,
			"0.022": 0.0,
			"0.023": 0.0,
			"0.024": 0.0,
			"0.025": 0.0
		}
	}
}
