{
	 "smiles": "CC(=O)C1=CC=C2OCCC2=C1", 
	 "Tm": 336.15, 
	 "num_atms": 22, 
	 "gaussian": { 
		 "optdone": 1, 
		 "sigma_profile": "yes", 
		 "theory": "DFT", 
		 "functional": "B3LYP", 
		 "basiset": "6-31G**", 
		 "properties": { 
			 "R2extent": 2577.4674, 
			 "electric_dipole_moment_norm": 2.62725199781, 
			 "electric_quadrupole_moment_norm": 16.0248814311, 
			 "total_energy": -537.538003719, 
			 "HOMO_LUMO_gap": 0.17932, 
			 "cosmo_polarized_energy": -9.96, 
			 "cosmo_cavitation_energy": 25.38, 
			 "cosmo_dispersion_energy": -19.04, 
			 "cosmo_repulsion_energy": 1.51, 
			 "cosmo_total_nonelectrostatic_energy": 7.85, 
			 "SMD_solvation_energy": 5.06 
		},
		"coords": [
			{
				"x": -1.9330137536,
				"y": -1.1027013371,
				"z": 3.8230137302,
				"element": "C" 
			},
			{
				"x": -0.6623234866,
				"y": -0.6848848123,
				"z": 3.0973409653,
				"element": "C" 
			},
			{
				"x": 0.3064922018,
				"y": -0.2894012709,
				"z": 3.733093526,
				"element": "O" 
			},
			{
				"x": -0.6193671279,
				"y": -0.7662411149,
				"z": 1.608474565,
				"element": "C" 
			},
			{
				"x": -1.7076996045,
				"y": -1.2105189597,
				"z": 0.8376503953,
				"element": "C" 
			},
			{
				"x": -1.6432159247,
				"y": -1.2730443694,
				"z": -0.555464139,
				"element": "C" 
			},
			{
				"x": -0.4530012055,
				"y": -0.8772274043,
				"z": -1.1598119289,
				"element": "C" 
			},
			{
				"x": -0.2364206581,
				"y": -0.8831987712,
				"z": -2.5000411325,
				"element": "O" 
			},
			{
				"x": 1.0432287854,
				"y": -0.2367936211,
				"z": -2.74811784,
				"element": "C" 
			},
			{
				"x": 1.7749723909,
				"y": -0.1419550511,
				"z": -1.3864604598,
				"element": "C" 
			},
			{
				"x": 0.6506417633,
				"y": -0.43447466,
				"z": -0.4169502653,
				"element": "C" 
			},
			{
				"x": 0.5739847592,
				"y": -0.3794953273,
				"z": 0.9610882225,
				"element": "C" 
			},
			{
				"x": -2.182568036,
				"y": -2.1486199185,
				"z": 3.6130992441,
				"element": "H" 
			},
			{
				"x": -1.7769233883,
				"y": -0.9771953159,
				"z": 4.8948023403,
				"element": "H" 
			},
			{
				"x": -2.7869758467,
				"y": -0.493154878,
				"z": 3.507488464,
				"element": "H" 
			},
			{
				"x": -2.628877171,
				"y": -1.5107378349,
				"z": 1.3263116932,
				"element": "H" 
			},
			{
				"x": -2.4831566887,
				"y": -1.6107428468,
				"z": -1.1522554955,
				"element": "H" 
			},
			{
				"x": 1.5724209175,
				"y": -0.8339896785,
				"z": -3.4935714153,
				"element": "H" 
			},
			{
				"x": 0.8371970922,
				"y": 0.7534476546,
				"z": -3.1697727537,
				"element": "H" 
			},
			{
				"x": 2.2301216595,
				"y": 0.8417613718,
				"z": -1.2378215525,
				"element": "H" 
			},
			{
				"x": 2.5738773506,
				"y": -0.8885785103,
				"z": -1.3033504552,
				"element": "H" 
			},
			{
				"x": 1.4045059715,
				"y": -0.0467533442,
				"z": 1.5755542916,
				"element": "H" 
			}
		],
		 "valence_orbital": [ 
			{
				"type": "occ",
				"energy": -0.33435,
				"method": "rhf"
			},
			{
				"type": "occ",
				"energy": -0.314,
				"method": "rhf"
			},
			{
				"type": "occ",
				"energy": -0.2557,
				"method": "rhf"
			},
			{
				"type": "occ",
				"energy": -0.23935,
				"method": "rhf"
			},
			{
				"type": "occ",
				"energy": -0.22131,
				"method": "rhf"
			},
			{
				"type": "unocc",
				"energy": -0.04199,
				"method": "rhf"
			},
			{
				"type": "unocc",
				"energy": -0.01071,
				"method": "rhf"
			},
			{
				"type": "unocc",
				"energy": 0.05372,
				"method": "rhf"
			},
			{
				"type": "unocc",
				"energy": 0.08771,
				"method": "rhf"
			},
			{
				"type": "unocc",
				"energy": 0.09569,
				"method": "rhf"
			}
		],
		"cosmo_sigma_profile": { 
			"-0.025": 0.0,
			"-0.024": 0.0,
			"-0.023": 0.0,
			"-0.022": 0.0,
			"-0.021": 0.0,
			"-0.02": 0.0,
			"-0.019": 0.0,
			"-0.018": 0.0,
			"-0.017": 0.0,
			"-0.016": 0.0,
			"-0.015": 0.0,
			"-0.014": 0.0,
			"-0.013": 0.0,
			"-0.012": 0.0,
			"-0.011": 0.0,
			"-0.01": 0.0,
			"-0.009": 0.0,
			"-0.008": 0.0,
			"-0.007": 1.43171235007,
			"-0.006": 13.5907195918,
			"-0.005": 23.97749901,
			"-0.004": 22.0662086516,
			"-0.003": 19.5087713286,
			"-0.002": 17.507676667,
			"-0.001": 13.0161961548,
			"0.0": 12.0767128479,
			"0.001": 9.34500991911,
			"0.002": 12.1474692177,
			"0.003": 12.3383928936,
			"0.004": 13.9389796376,
			"0.005": 4.36286357008,
			"0.006": 3.25816888571,
			"0.007": 2.45273072755,
			"0.008": 3.33320770445,
			"0.009": 3.14130717195,
			"0.01": 2.96668322839,
			"0.011": 3.14013400511,
			"0.012": 4.26170094635,
			"0.013": 2.94368289193,
			"0.014": 0.870649966966,
			"0.015": 0.00164453165029,
			"0.016": 0.0,
			"0.017": 0.0,
			"0.018": 0.0,
			"0.019": 0.0,
			"0.02": 0.0,
			"0.021": 0.0,
			"0.022": 0.0,
			"0.023": 0.0,
			"0.024": 0.0,
			"0.025": 0.0
		}
	}
}
