{
	 "smiles": "ClC1=CC(OC(=O)C2=CC=C(C=C2)C(=O)OC2=CC(Cl)=CC(Cl)=C2)=CC(Cl)=C1", 
	 "Tm": 503.15, 
	 "num_atms": 38, 
	 "gaussian": { 
		 "optdone": 1, 
		 "sigma_profile": "yes", 
		 "theory": "DFT", 
		 "functional": "B3LYP", 
		 "basiset": "6-31G**", 
		 "properties": { 
			 "R2extent": 31161.0824, 
			 "electric_dipole_moment_norm": 1.73906742825, 
			 "electric_quadrupole_moment_norm": 13.423578841, 
			 "total_energy": -2909.83873238, 
			 "HOMO_LUMO_gap": 0.16544, 
			 "cosmo_polarized_energy": -11.85, 
			 "cosmo_cavitation_energy": 53.65, 
			 "cosmo_dispersion_energy": -38.62, 
			 "cosmo_repulsion_energy": 2.9, 
			 "cosmo_total_nonelectrostatic_energy": 17.92, 
			 "SMD_solvation_energy": 9.69 
		},
		"coords": [
			{
				"x": -8.3793920053,
				"y": 1.1660528503,
				"z": 2.7061589615,
				"element": "Cl" 
			},
			{
				"x": -6.6972851444,
				"y": 1.6436057224,
				"z": 2.8349037431,
				"element": "C" 
			},
			{
				"x": -5.7354624894,
				"y": 0.9076726883,
				"z": 2.1444099169,
				"element": "C" 
			},
			{
				"x": -4.4041702777,
				"y": 1.3078737671,
				"z": 2.2642831474,
				"element": "C" 
			},
			{
				"x": -3.3659609243,
				"y": 0.7029895964,
				"z": 1.5649786951,
				"element": "O" 
			},
			{
				"x": -3.2856002748,
				"y": -0.6603589769,
				"z": 1.4304553523,
				"element": "C" 
			},
			{
				"x": -4.0893543084,
				"y": -1.4357673058,
				"z": 1.893450812,
				"element": "O" 
			},
			{
				"x": -2.0814069242,
				"y": -1.0542017484,
				"z": 0.645486518,
				"element": "C" 
			},
			{
				"x": -1.8610786812,
				"y": -2.4256894197,
				"z": 0.4494666259,
				"element": "C" 
			},
			{
				"x": -0.7574192635,
				"y": -2.8556023979,
				"z": -0.2755226693,
				"element": "C" 
			},
			{
				"x": 0.1381913106,
				"y": -1.9187691522,
				"z": -0.8123577028,
				"element": "C" 
			},
			{
				"x": -0.0811157909,
				"y": -0.547572907,
				"z": -0.6174404401,
				"element": "C" 
			},
			{
				"x": -1.1872271196,
				"y": -0.1167347011,
				"z": 0.108964759,
				"element": "C" 
			},
			{
				"x": 1.3004502845,
				"y": -2.446689797,
				"z": -1.5816785612,
				"element": "C" 
			},
			{
				"x": 1.5137937917,
				"y": -3.6185220891,
				"z": -1.7888588177,
				"element": "O" 
			},
			{
				"x": 2.1056509656,
				"y": -1.4278447403,
				"z": -2.0254528568,
				"element": "O" 
			},
			{
				"x": 3.2574257105,
				"y": -1.675965578,
				"z": -2.763441219,
				"element": "C" 
			},
			{
				"x": 3.3115266143,
				"y": -2.6139967765,
				"z": -3.7949535631,
				"element": "C" 
			},
			{
				"x": 4.5006289387,
				"y": -2.7159230469,
				"z": -4.5154651767,
				"element": "C" 
			},
			{
				"x": 4.6016923416,
				"y": -3.8858246135,
				"z": -5.8174671778,
				"element": "Cl" 
			},
			{
				"x": 5.6117015303,
				"y": -1.9188366833,
				"z": -4.2417588759,
				"element": "C" 
			},
			{
				"x": 5.5085653244,
				"y": -0.9919856973,
				"z": -3.2054082324,
				"element": "C" 
			},
			{
				"x": 6.883781236,
				"y": 0.0305997965,
				"z": -2.8360784615,
				"element": "Cl" 
			},
			{
				"x": 4.3430991354,
				"y": -0.8565819054,
				"z": -2.4558074016,
				"element": "C" 
			},
			{
				"x": -4.0326980722,
				"y": 2.4072383421,
				"z": 3.0376638968,
				"element": "C" 
			},
			{
				"x": -5.0288884158,
				"y": 3.1138019366,
				"z": 3.7061957883,
				"element": "C" 
			},
			{
				"x": -4.582810772,
				"y": 4.5005737542,
				"z": 4.6814587951,
				"element": "Cl" 
			},
			{
				"x": -6.3716244893,
				"y": 2.7483826759,
				"z": 3.6211311773,
				"element": "C" 
			},
			{
				"x": -6.0142507486,
				"y": 0.0501142264,
				"z": 1.5502485722,
				"element": "H" 
			},
			{
				"x": -2.5654196569,
				"y": -3.133416591,
				"z": 0.8723086234,
				"element": "H" 
			},
			{
				"x": -0.5694231921,
				"y": -3.9109369686,
				"z": -0.4389075489,
				"element": "H" 
			},
			{
				"x": 0.6121439423,
				"y": 0.1728497629,
				"z": -1.0343670069,
				"element": "H" 
			},
			{
				"x": -1.3613103959,
				"y": 0.9415077153,
				"z": 0.261507949,
				"element": "H" 
			},
			{
				"x": 2.4693427546,
				"y": -3.2507896924,
				"z": -4.0216312344,
				"element": "H" 
			},
			{
				"x": 6.5241312137,
				"y": -2.0164738727,
				"z": -4.8158438372,
				"element": "H" 
			},
			{
				"x": 4.267806918,
				"y": -0.1343492895,
				"z": -1.6525747832,
				"element": "H" 
			},
			{
				"x": -2.9913382438,
				"y": 2.6959370851,
				"z": 3.1061414557,
				"element": "H" 
			},
			{
				"x": -7.1367948217,
				"y": 3.3042340306,
				"z": 4.1476007775,
				"element": "H" 
			}
		],
		 "valence_orbital": [ 
			{
				"type": "occ",
				"energy": -0.28531,
				"method": "rhf"
			},
			{
				"type": "occ",
				"energy": -0.26482,
				"method": "rhf"
			},
			{
				"type": "occ",
				"energy": -0.2638,
				"method": "rhf"
			},
			{
				"type": "occ",
				"energy": -0.2618,
				"method": "rhf"
			},
			{
				"type": "occ",
				"energy": -0.26178,
				"method": "rhf"
			},
			{
				"type": "unocc",
				"energy": -0.09634,
				"method": "rhf"
			},
			{
				"type": "unocc",
				"energy": -0.03911,
				"method": "rhf"
			},
			{
				"type": "unocc",
				"energy": -0.03447,
				"method": "rhf"
			},
			{
				"type": "unocc",
				"energy": -0.03446,
				"method": "rhf"
			},
			{
				"type": "unocc",
				"energy": -0.03294,
				"method": "rhf"
			}
		],
		"cosmo_sigma_profile": { 
			"-0.025": 0.0,
			"-0.024": 0.0,
			"-0.023": 0.0,
			"-0.022": 0.0,
			"-0.021": 0.0,
			"-0.02": 0.0,
			"-0.019": 0.0,
			"-0.018": 0.0,
			"-0.017": 0.0,
			"-0.016": 0.0,
			"-0.015": 0.0,
			"-0.014": 0.0,
			"-0.013": 0.0,
			"-0.012": 0.0,
			"-0.011": 0.0,
			"-0.01": 0.0,
			"-0.009": 2.24324938554,
			"-0.008": 6.97297329323,
			"-0.007": 13.6552005938,
			"-0.006": 16.8322927,
			"-0.005": 17.7895972617,
			"-0.004": 19.9723392203,
			"-0.003": 24.7365052214,
			"-0.002": 30.9202860264,
			"-0.001": 40.5306850138,
			"0.0": 66.3258607456,
			"0.001": 69.7279540934,
			"0.002": 32.9116399256,
			"0.003": 34.2764114266,
			"0.004": 37.608546617,
			"0.005": 5.11036854252,
			"0.006": 3.28535290552,
			"0.007": 4.66865707526,
			"0.008": 2.98159945869,
			"0.009": 3.98523129986,
			"0.01": 7.17245599749,
			"0.011": 1.66196809733,
			"0.012": 0.0,
			"0.013": 0.0,
			"0.014": 0.0,
			"0.015": 0.0,
			"0.016": 0.0,
			"0.017": 0.0,
			"0.018": 0.0,
			"0.019": 0.0,
			"0.02": 0.0,
			"0.021": 0.0,
			"0.022": 0.0,
			"0.023": 0.0,
			"0.024": 0.0,
			"0.025": 0.0
		}
	}
}
