{
	 "smiles": "FC(F)(F)C(=NOCC1OCCO1)C1=CC=C(Cl)C=C1", 
	 "Tm": 298.15, 
	 "num_atms": 31, 
	 "gaussian": { 
		 "optdone": 1, 
		 "sigma_profile": "yes", 
		 "theory": "DFT", 
		 "functional": "B3LYP", 
		 "basiset": "6-31G**", 
		 "properties": { 
			 "R2extent": 9635.8572, 
			 "electric_dipole_moment_norm": 3.67432259879, 
			 "electric_quadrupole_moment_norm": 13.7312929617, 
			 "total_energy": -1503.95429295, 
			 "HOMO_LUMO_gap": 0.18145, 
			 "cosmo_polarized_energy": -9.56, 
			 "cosmo_cavitation_energy": 38.88, 
			 "cosmo_dispersion_energy": -27.14, 
			 "cosmo_repulsion_energy": 2.08, 
			 "cosmo_total_nonelectrostatic_energy": 13.81, 
			 "SMD_solvation_energy": 7.29 
		},
		"coords": [
			{
				"x": -1.3529744138,
				"y": 0.1440221964,
				"z": -5.1112654375,
				"element": "F" 
			},
			{
				"x": -1.7470711789,
				"y": -0.102639827,
				"z": -3.8333910962,
				"element": "C" 
			},
			{
				"x": -2.1791700737,
				"y": -1.3805064034,
				"z": -3.7968631861,
				"element": "F" 
			},
			{
				"x": -2.7910151659,
				"y": 0.693642684,
				"z": -3.5795636711,
				"element": "F" 
			},
			{
				"x": -0.5922099718,
				"y": 0.1022708951,
				"z": -2.8622693617,
				"element": "C" 
			},
			{
				"x": -0.7237749248,
				"y": 1.1716955937,
				"z": -2.1587824967,
				"element": "N" 
			},
			{
				"x": 0.3488890584,
				"y": 1.4212418501,
				"z": -1.3248017864,
				"element": "O" 
			},
			{
				"x": 0.0337471175,
				"y": 2.5001535421,
				"z": -0.4414372677,
				"element": "C" 
			},
			{
				"x": -0.8488395618,
				"y": 2.0232301677,
				"z": 0.7094245834,
				"element": "C" 
			},
			{
				"x": -0.2046410571,
				"y": 1.0287219396,
				"z": 1.4978385112,
				"element": "O" 
			},
			{
				"x": 0.134864116,
				"y": 1.6278361819,
				"z": 2.7492691684,
				"element": "C" 
			},
			{
				"x": -0.9363105141,
				"y": 2.7048234065,
				"z": 2.8924952179,
				"element": "C" 
			},
			{
				"x": -1.1103973178,
				"y": 3.1381661423,
				"z": 1.5433191489,
				"element": "O" 
			},
			{
				"x": 0.4885009028,
				"y": -0.9128665125,
				"z": -2.831003665,
				"element": "C" 
			},
			{
				"x": 1.1080007511,
				"y": -1.2717655913,
				"z": -1.6194676723,
				"element": "C" 
			},
			{
				"x": 2.0919088389,
				"y": -2.255529726,
				"z": -1.5886630129,
				"element": "C" 
			},
			{
				"x": 2.4743562058,
				"y": -2.881507313,
				"z": -2.7750584412,
				"element": "C" 
			},
			{
				"x": 3.7238481212,
				"y": -4.1137106444,
				"z": -2.7386634308,
				"element": "Cl" 
			},
			{
				"x": 1.8780894036,
				"y": -2.5438550131,
				"z": -3.9886884905,
				"element": "C" 
			},
			{
				"x": 0.8850630046,
				"y": -1.5681451748,
				"z": -4.0099004784,
				"element": "C" 
			},
			{
				"x": -0.461572958,
				"y": 3.3080792608,
				"z": -0.9884441044,
				"element": "H" 
			},
			{
				"x": 0.9945038518,
				"y": 2.8458566302,
				"z": -0.053053502,
				"element": "H" 
			},
			{
				"x": -1.7777797247,
				"y": 1.5819486515,
				"z": 0.3191376754,
				"element": "H" 
			},
			{
				"x": 1.1425576288,
				"y": 2.0667660337,
				"z": 2.7212405453,
				"element": "H" 
			},
			{
				"x": 0.1006935852,
				"y": 0.8557846136,
				"z": 3.5221251404,
				"element": "H" 
			},
			{
				"x": -1.8710877388,
				"y": 2.2888131387,
				"z": 3.2944607738,
				"element": "H" 
			},
			{
				"x": -0.6328429973,
				"y": 3.5651123181,
				"z": 3.4938860855,
				"element": "H" 
			},
			{
				"x": 0.8188585545,
				"y": -0.7822177184,
				"z": -0.6982062822,
				"element": "H" 
			},
			{
				"x": 2.5600597965,
				"y": -2.5344497767,
				"z": -0.6513335863,
				"element": "H" 
			},
			{
				"x": 2.1845548981,
				"y": -3.0382188644,
				"z": -4.9035860771,
				"element": "H" 
			},
			{
				"x": 0.4230917639,
				"y": -1.311352681,
				"z": -4.9553538036,
				"element": "H" 
			}
		],
		 "valence_orbital": [ 
			{
				"type": "occ",
				"energy": -0.28748,
				"method": "rhf"
			},
			{
				"type": "occ",
				"energy": -0.28483,
				"method": "rhf"
			},
			{
				"type": "occ",
				"energy": -0.26923,
				"method": "rhf"
			},
			{
				"type": "occ",
				"energy": -0.26356,
				"method": "rhf"
			},
			{
				"type": "occ",
				"energy": -0.24048,
				"method": "rhf"
			},
			{
				"type": "unocc",
				"energy": -0.05903,
				"method": "rhf"
			},
			{
				"type": "unocc",
				"energy": -0.01878,
				"method": "rhf"
			},
			{
				"type": "unocc",
				"energy": 0.00864,
				"method": "rhf"
			},
			{
				"type": "unocc",
				"energy": 0.02637,
				"method": "rhf"
			},
			{
				"type": "unocc",
				"energy": 0.07633,
				"method": "rhf"
			}
		],
		"cosmo_sigma_profile": { 
			"-0.025": 0.0,
			"-0.024": 0.0,
			"-0.023": 0.0,
			"-0.022": 0.0,
			"-0.021": 0.0,
			"-0.02": 0.0,
			"-0.019": 0.0,
			"-0.018": 0.0,
			"-0.017": 0.0,
			"-0.016": 0.0,
			"-0.015": 0.0,
			"-0.014": 0.0,
			"-0.013": 0.0,
			"-0.012": 0.0,
			"-0.011": 0.0,
			"-0.01": 0.0,
			"-0.009": 0.0,
			"-0.008": 1.68365278415,
			"-0.007": 7.57403370872,
			"-0.006": 15.6229113445,
			"-0.005": 25.8642106086,
			"-0.004": 22.4929864375,
			"-0.003": 23.2592237452,
			"-0.002": 19.5023582064,
			"-0.001": 20.8002900216,
			"0.0": 20.4031421501,
			"0.001": 28.8894666714,
			"0.002": 48.5269455468,
			"0.003": 29.1509485138,
			"0.004": 17.8553481242,
			"0.005": 8.34377819832,
			"0.006": 5.28069305589,
			"0.007": 5.37759956437,
			"0.008": 3.37096790703,
			"0.009": 3.02568894491,
			"0.01": 2.06779102001,
			"0.011": 2.1561549941,
			"0.012": 1.18678886629,
			"0.013": 0.0109964602621,
			"0.014": 0.0,
			"0.015": 0.0,
			"0.016": 0.0,
			"0.017": 0.0,
			"0.018": 0.0,
			"0.019": 0.0,
			"0.02": 0.0,
			"0.021": 0.0,
			"0.022": 0.0,
			"0.023": 0.0,
			"0.024": 0.0,
			"0.025": 0.0
		}
	}
}
