{
	 "smiles": "NC1=CC(=NO1)C1CCCO1", 
	 "Tm": 342.15, 
	 "num_atms": 21, 
	 "gaussian": { 
		 "optdone": 1, 
		 "sigma_profile": "yes", 
		 "theory": "DFT", 
		 "functional": "B3LYP", 
		 "basiset": "6-31G**", 
		 "properties": { 
			 "R2extent": 2489.4332, 
			 "electric_dipole_moment_norm": 3.00617497495, 
			 "electric_quadrupole_moment_norm": 20.0012362808, 
			 "total_energy": -532.659320315, 
			 "HOMO_LUMO_gap": 0.22761, 
			 "cosmo_polarized_energy": -14.64, 
			 "cosmo_cavitation_energy": 24.36, 
			 "cosmo_dispersion_energy": -18.26, 
			 "cosmo_repulsion_energy": 1.5, 
			 "cosmo_total_nonelectrostatic_energy": 7.6, 
			 "SMD_solvation_energy": 3.81 
		},
		"coords": [
			{
				"x": -2.3706786534,
				"y": 1.7377122675,
				"z": 1.9862948634,
				"element": "N" 
			},
			{
				"x": -1.3770898976,
				"y": 1.7094596977,
				"z": 1.035335268,
				"element": "C" 
			},
			{
				"x": -0.8076831436,
				"y": 0.7066457094,
				"z": 0.2952549965,
				"element": "C" 
			},
			{
				"x": 0.1102359522,
				"y": 1.4039880553,
				"z": -0.536455482,
				"element": "C" 
			},
			{
				"x": 0.1115879425,
				"y": 2.7020942706,
				"z": -0.3270251841,
				"element": "N" 
			},
			{
				"x": -0.8593881655,
				"y": 2.9014328411,
				"z": 0.689801679,
				"element": "O" 
			},
			{
				"x": 0.9927910286,
				"y": 0.8307095607,
				"z": -1.6085093198,
				"element": "C" 
			},
			{
				"x": 0.2917958281,
				"y": 0.6228185959,
				"z": -2.9636454384,
				"element": "C" 
			},
			{
				"x": 1.1381565115,
				"y": -0.5005738727,
				"z": -3.5754360754,
				"element": "C" 
			},
			{
				"x": 1.4740420315,
				"y": -1.3528571101,
				"z": -2.3423899869,
				"element": "C" 
			},
			{
				"x": 1.4385870086,
				"y": -0.4721826983,
				"z": -1.2099101262,
				"element": "O" 
			},
			{
				"x": -2.4903028552,
				"y": 0.87690377,
				"z": 2.500650109,
				"element": "H" 
			},
			{
				"x": -2.3541872369,
				"y": 2.556971194,
				"z": 2.5794124779,
				"element": "H" 
			},
			{
				"x": -0.9839097747,
				"y": -0.3551885036,
				"z": 0.3441263391,
				"element": "H" 
			},
			{
				"x": 1.8558809714,
				"y": 1.5001310123,
				"z": -1.7386671732,
				"element": "H" 
			},
			{
				"x": 0.266188576,
				"y": 1.5381202006,
				"z": -3.5597636712,
				"element": "H" 
			},
			{
				"x": -0.7395287166,
				"y": 0.2903929792,
				"z": -2.8013007647,
				"element": "H" 
			},
			{
				"x": 2.051709847,
				"y": -0.0891132757,
				"z": -4.0187983077,
				"element": "H" 
			},
			{
				"x": 0.6144667984,
				"y": -1.0675064067,
				"z": -4.3501626285,
				"element": "H" 
			},
			{
				"x": 0.7342227403,
				"y": -2.1522078032,
				"z": -2.1937051197,
				"element": "H" 
			},
			{
				"x": 2.4652032072,
				"y": -1.817350484,
				"z": -2.4036064552,
				"element": "H" 
			}
		],
		 "valence_orbital": [ 
			{
				"type": "occ",
				"energy": -0.31573,
				"method": "rhf"
			},
			{
				"type": "occ",
				"energy": -0.29156,
				"method": "rhf"
			},
			{
				"type": "occ",
				"energy": -0.27972,
				"method": "rhf"
			},
			{
				"type": "occ",
				"energy": -0.24475,
				"method": "rhf"
			},
			{
				"type": "occ",
				"energy": -0.21346,
				"method": "rhf"
			},
			{
				"type": "unocc",
				"energy": 0.01415,
				"method": "rhf"
			},
			{
				"type": "unocc",
				"energy": 0.06215,
				"method": "rhf"
			},
			{
				"type": "unocc",
				"energy": 0.07752,
				"method": "rhf"
			},
			{
				"type": "unocc",
				"energy": 0.08825,
				"method": "rhf"
			},
			{
				"type": "unocc",
				"energy": 0.1116,
				"method": "rhf"
			}
		],
		"cosmo_sigma_profile": { 
			"-0.025": 0.0,
			"-0.024": 0.0,
			"-0.023": 0.0,
			"-0.022": 0.0,
			"-0.021": 0.0,
			"-0.02": 0.0,
			"-0.019": 0.0,
			"-0.018": 0.0,
			"-0.017": 0.0,
			"-0.016": 0.0,
			"-0.015": 0.37552967039,
			"-0.014": 2.61151500497,
			"-0.013": 2.69364197141,
			"-0.012": 3.06514141457,
			"-0.011": 2.88692725791,
			"-0.01": 1.67029749547,
			"-0.009": 1.71104446513,
			"-0.008": 2.2643925518,
			"-0.007": 4.09204056245,
			"-0.006": 2.48192730326,
			"-0.005": 4.95482999214,
			"-0.004": 18.93448898,
			"-0.003": 24.4446125355,
			"-0.002": 18.6926600255,
			"-0.001": 14.8719866116,
			"0.0": 12.4848816323,
			"0.001": 6.1385197806,
			"0.002": 7.50510061781,
			"0.003": 8.44642659723,
			"0.004": 8.71984898572,
			"0.005": 5.95436774391,
			"0.006": 3.61768881365,
			"0.007": 4.52538753576,
			"0.008": 5.75992375498,
			"0.009": 6.0506459563,
			"0.01": 3.86374873909,
			"0.011": 3.46491184427,
			"0.012": 2.97475461976,
			"0.013": 3.07451463989,
			"0.014": 1.58364539773,
			"0.015": 1.27262890196,
			"0.016": 0.314810726078,
			"0.017": 0.0,
			"0.018": 0.0,
			"0.019": 0.0,
			"0.02": 0.0,
			"0.021": 0.0,
			"0.022": 0.0,
			"0.023": 0.0,
			"0.024": 0.0,
			"0.025": 0.0
		}
	}
}
