{
	 "smiles": "COC1=CC=C(C=C1)C1=NC(S)=NC=C1", 
	 "Tm": 475.15, 
	 "num_atms": 25, 
	 "gaussian": { 
		 "optdone": 1, 
		 "sigma_profile": "yes", 
		 "theory": "DFT", 
		 "functional": "B3LYP", 
		 "basiset": "6-31G**", 
		 "properties": { 
			 "R2extent": 6021.3778, 
			 "electric_dipole_moment_norm": 4.44299153837, 
			 "electric_quadrupole_moment_norm": 25.7972013381, 
			 "total_energy": -1008.1026416, 
			 "HOMO_LUMO_gap": 0.16548, 
			 "cosmo_polarized_energy": -11.23, 
			 "cosmo_cavitation_energy": 31.2, 
			 "cosmo_dispersion_energy": -23.66, 
			 "cosmo_repulsion_energy": 1.78, 
			 "cosmo_total_nonelectrostatic_energy": 9.31, 
			 "SMD_solvation_energy": 3.18 
		},
		"coords": [
			{
				"x": -0.8994948483,
				"y": 3.7111468894,
				"z": 2.5543463393,
				"element": "C" 
			},
			{
				"x": -0.8304875016,
				"y": 3.2239965805,
				"z": 1.221155928,
				"element": "O" 
			},
			{
				"x": -0.4535298619,
				"y": 1.9332252035,
				"z": 1.0214764801,
				"element": "C" 
			},
			{
				"x": -0.1263836277,
				"y": 1.0282797584,
				"z": 2.0406848896,
				"element": "C" 
			},
			{
				"x": 0.2476714148,
				"y": -0.2724608439,
				"z": 1.7134457868,
				"element": "C" 
			},
			{
				"x": 0.3022798725,
				"y": -0.7101536041,
				"z": 0.3818724735,
				"element": "C" 
			},
			{
				"x": -0.0264669674,
				"y": 0.2159938065,
				"z": -0.6275902635,
				"element": "C" 
			},
			{
				"x": -0.3974062584,
				"y": 1.5144591276,
				"z": -0.3179957041,
				"element": "C" 
			},
			{
				"x": 0.6984575283,
				"y": -2.102593098,
				"z": 0.0783893195,
				"element": "C" 
			},
			{
				"x": 1.1588324857,
				"y": -2.8448966431,
				"z": 1.1076668107,
				"element": "N" 
			},
			{
				"x": 1.5185385691,
				"y": -4.0999100335,
				"z": 0.8449115646,
				"element": "C" 
			},
			{
				"x": 2.1286280939,
				"y": -5.1038357935,
				"z": 2.184807095,
				"element": "S" 
			},
			{
				"x": 1.4830617843,
				"y": -4.7294959049,
				"z": -0.3357261559,
				"element": "N" 
			},
			{
				"x": 1.0195977228,
				"y": -3.9895420676,
				"z": -1.3489027735,
				"element": "C" 
			},
			{
				"x": 0.6088710411,
				"y": -2.6698805693,
				"z": -1.2042047474,
				"element": "C" 
			},
			{
				"x": 0.0773967314,
				"y": 3.6649366146,
				"z": 3.0515186719,
				"element": "H" 
			},
			{
				"x": -1.6336110994,
				"y": 3.1541632417,
				"z": 3.1497613914,
				"element": "H" 
			},
			{
				"x": -1.2149035187,
				"y": 4.7524472951,
				"z": 2.4770416962,
				"element": "H" 
			},
			{
				"x": -0.1604443791,
				"y": 1.3246293569,
				"z": 3.082259682,
				"element": "H" 
			},
			{
				"x": 0.5040955502,
				"y": -0.9755980867,
				"z": 2.4972915188,
				"element": "H" 
			},
			{
				"x": 0.0198432636,
				"y": -0.0699862685,
				"z": -1.6731054066,
				"element": "H" 
			},
			{
				"x": -0.6455166303,
				"y": 2.2299754461,
				"z": -1.094772172,
				"element": "H" 
			},
			{
				"x": 2.0101726974,
				"y": -4.13881035,
				"z": 3.1164293363,
				"element": "H" 
			},
			{
				"x": 0.9739938123,
				"y": -4.4811050906,
				"z": -2.3192606769,
				"element": "H" 
			},
			{
				"x": 0.2260041254,
				"y": -2.1214849665,
				"z": -2.0552010838,
				"element": "H" 
			}
		],
		 "valence_orbital": [ 
			{
				"type": "occ",
				"energy": -0.29932,
				"method": "rhf"
			},
			{
				"type": "occ",
				"energy": -0.26256,
				"method": "rhf"
			},
			{
				"type": "occ",
				"energy": -0.25363,
				"method": "rhf"
			},
			{
				"type": "occ",
				"energy": -0.23895,
				"method": "rhf"
			},
			{
				"type": "occ",
				"energy": -0.22205,
				"method": "rhf"
			},
			{
				"type": "unocc",
				"energy": -0.05657,
				"method": "rhf"
			},
			{
				"type": "unocc",
				"energy": -0.02714,
				"method": "rhf"
			},
			{
				"type": "unocc",
				"energy": -0.00652,
				"method": "rhf"
			},
			{
				"type": "unocc",
				"energy": 0.02659,
				"method": "rhf"
			},
			{
				"type": "unocc",
				"energy": 0.02887,
				"method": "rhf"
			}
		],
		"cosmo_sigma_profile": { 
			"-0.025": 0.0,
			"-0.024": 0.0,
			"-0.023": 0.0,
			"-0.022": 0.0,
			"-0.021": 0.0,
			"-0.02": 0.0,
			"-0.019": 0.0,
			"-0.018": 0.0,
			"-0.017": 0.0,
			"-0.016": 0.0,
			"-0.015": 0.0,
			"-0.014": 0.0,
			"-0.013": 0.0,
			"-0.012": 0.0,
			"-0.011": 0.445104849145,
			"-0.01": 1.65139434052,
			"-0.009": 3.17163371368,
			"-0.008": 4.45780595521,
			"-0.007": 7.76009414057,
			"-0.006": 16.0801559744,
			"-0.005": 18.7531580621,
			"-0.004": 17.7030335515,
			"-0.003": 16.5084022726,
			"-0.002": 11.9934023361,
			"-0.001": 15.4412095195,
			"0.0": 18.0644680871,
			"0.001": 18.8466007512,
			"0.002": 18.7999290956,
			"0.003": 21.4752445721,
			"0.004": 22.776883976,
			"0.005": 11.7999023083,
			"0.006": 8.76271147981,
			"0.007": 6.4757867661,
			"0.008": 4.49191738731,
			"0.009": 2.13826480908,
			"0.01": 1.94299970969,
			"0.011": 0.972874731868,
			"0.012": 1.02315190181,
			"0.013": 0.708433381138,
			"0.014": 0.72159094786,
			"0.015": 0.181310311739,
			"0.016": 0.0,
			"0.017": 0.0,
			"0.018": 0.0,
			"0.019": 0.0,
			"0.02": 0.0,
			"0.021": 0.0,
			"0.022": 0.0,
			"0.023": 0.0,
			"0.024": 0.0,
			"0.025": 0.0
		}
	}
}
