{
	 "smiles": "OCC1=CC=CC=C1", 
	 "Tm": 258.05, 
	 "num_atms": 16, 
	 "gaussian": { 
		 "optdone": 1, 
		 "sigma_profile": "yes", 
		 "theory": "DFT", 
		 "functional": "B3LYP", 
		 "basiset": "6-31G**", 
		 "properties": { 
			 "R2extent": 1093.5363, 
			 "electric_dipole_moment_norm": 2.06340016962, 
			 "electric_quadrupole_moment_norm": 8.62837692848, 
			 "total_energy": -346.776422961, 
			 "HOMO_LUMO_gap": 0.23926, 
			 "cosmo_polarized_energy": -6.81, 
			 "cosmo_cavitation_energy": 19.46, 
			 "cosmo_dispersion_energy": -14.44, 
			 "cosmo_repulsion_energy": 1.21, 
			 "cosmo_total_nonelectrostatic_energy": 6.23, 
			 "SMD_solvation_energy": 3.39 
		},
		"coords": [
			{
				"x": -3.0788816861,
				"y": 0.2913363279,
				"z": -0.2209421477,
				"element": "O" 
			},
			{
				"x": -1.8628897032,
				"y": 0.1705780903,
				"z": -0.9671472241,
				"element": "C" 
			},
			{
				"x": -0.6313296453,
				"y": 0.3790891035,
				"z": -0.1179671656,
				"element": "C" 
			},
			{
				"x": -0.0383562127,
				"y": -0.6978960057,
				"z": 0.5562023114,
				"element": "C" 
			},
			{
				"x": 1.0620849065,
				"y": -0.4980266939,
				"z": 1.3906320265,
				"element": "C" 
			},
			{
				"x": 1.5825439212,
				"y": 0.7861303862,
				"z": 1.5650368752,
				"element": "C" 
			},
			{
				"x": 0.9985073646,
				"y": 1.8676868648,
				"z": 0.9020951012,
				"element": "C" 
			},
			{
				"x": -0.1018569004,
				"y": 1.6639536637,
				"z": 0.0684923935,
				"element": "C" 
			},
			{
				"x": -2.8402748936,
				"y": 0.4861895934,
				"z": 0.6931662051,
				"element": "H" 
			},
			{
				"x": -1.8347395246,
				"y": -0.827141594,
				"z": -1.4261185586,
				"element": "H" 
			},
			{
				"x": -1.8818549047,
				"y": 0.9056570188,
				"z": -1.7833516288,
				"element": "H" 
			},
			{
				"x": -0.4403135827,
				"y": -1.6988257826,
				"z": 0.4187167846,
				"element": "H" 
			},
			{
				"x": 1.5150381824,
				"y": -1.3432110656,
				"z": 1.9011507421,
				"element": "H" 
			},
			{
				"x": 2.4412903476,
				"y": 0.9427137232,
				"z": 2.2115579375,
				"element": "H" 
			},
			{
				"x": 1.4018974881,
				"y": 2.8680226233,
				"z": 1.0314639963,
				"element": "H" 
			},
			{
				"x": -0.553365157,
				"y": 2.5065437469,
				"z": -0.4496876486,
				"element": "H" 
			}
		],
		 "valence_orbital": [ 
			{
				"type": "occ",
				"energy": -0.34569,
				"method": "rhf"
			},
			{
				"type": "occ",
				"energy": -0.32063,
				"method": "rhf"
			},
			{
				"type": "occ",
				"energy": -0.26338,
				"method": "rhf"
			},
			{
				"type": "occ",
				"energy": -0.254,
				"method": "rhf"
			},
			{
				"type": "occ",
				"energy": -0.25249,
				"method": "rhf"
			},
			{
				"type": "unocc",
				"energy": -0.01323,
				"method": "rhf"
			},
			{
				"type": "unocc",
				"energy": -0.00739,
				"method": "rhf"
			},
			{
				"type": "unocc",
				"energy": 0.08822,
				"method": "rhf"
			},
			{
				"type": "unocc",
				"energy": 0.10664,
				"method": "rhf"
			},
			{
				"type": "unocc",
				"energy": 0.12453,
				"method": "rhf"
			}
		],
		"cosmo_sigma_profile": { 
			"-0.025": 0.0,
			"-0.024": 0.0,
			"-0.023": 0.0,
			"-0.022": 0.0,
			"-0.021": 0.0,
			"-0.02": 0.0,
			"-0.019": 0.0,
			"-0.018": 0.0,
			"-0.017": 0.0,
			"-0.016": 0.0,
			"-0.015": 0.0749279357579,
			"-0.014": 0.775825873689,
			"-0.013": 0.387940243465,
			"-0.012": 0.892033012527,
			"-0.011": 0.702473277242,
			"-0.01": 0.358847122659,
			"-0.009": 0.440969990361,
			"-0.008": 1.09860119039,
			"-0.007": 0.781731100257,
			"-0.006": 5.65144694884,
			"-0.005": 13.2881048403,
			"-0.004": 18.1823951176,
			"-0.003": 15.9155862055,
			"-0.002": 12.3460388844,
			"-0.001": 12.8096253297,
			"0.0": 8.83396756311,
			"0.001": 7.44160166258,
			"0.002": 7.83466113667,
			"0.003": 9.04587623796,
			"0.004": 9.11122164604,
			"0.005": 10.5233341925,
			"0.006": 5.07428011882,
			"0.007": 0.989102875842,
			"0.008": 1.20383917838,
			"0.009": 1.28377723156,
			"0.01": 0.923218477912,
			"0.011": 1.31725751584,
			"0.012": 1.36261798306,
			"0.013": 2.01203749906,
			"0.014": 2.12844028309,
			"0.015": 1.32032122095,
			"0.016": 0.0,
			"0.017": 0.0,
			"0.018": 0.0,
			"0.019": 0.0,
			"0.02": 0.0,
			"0.021": 0.0,
			"0.022": 0.0,
			"0.023": 0.0,
			"0.024": 0.0,
			"0.025": 0.0
		}
	}
}
