{
	 "smiles": "NCC1=CC=C(O1)C1=NC2=C(S1)C=CC=C2", 
	 "Tm": 398.15, 
	 "num_atms": 26, 
	 "gaussian": { 
		 "optdone": 1, 
		 "sigma_profile": "yes", 
		 "theory": "DFT", 
		 "functional": "B3LYP", 
		 "basiset": "6-31G**", 
		 "properties": { 
			 "R2extent": 5285.4778, 
			 "electric_dipole_moment_norm": 1.85908886555, 
			 "electric_quadrupole_moment_norm": 10.9080072195, 
			 "total_energy": -1046.2029498, 
			 "HOMO_LUMO_gap": 0.15197, 
			 "cosmo_polarized_energy": -12.12, 
			 "cosmo_cavitation_energy": 32.52, 
			 "cosmo_dispersion_energy": -24.33, 
			 "cosmo_repulsion_energy": 1.86, 
			 "cosmo_total_nonelectrostatic_energy": 10.04, 
			 "SMD_solvation_energy": 2.25 
		},
		"coords": [
			{
				"x": 2.1912357862,
				"y": -3.1790658935,
				"z": 3.0798913378,
				"element": "N" 
			},
			{
				"x": 0.97155808,
				"y": -3.6276077709,
				"z": 2.3959432605,
				"element": "C" 
			},
			{
				"x": 0.0992938314,
				"y": -2.5436995802,
				"z": 1.8400977985,
				"element": "C" 
			},
			{
				"x": -1.1802786925,
				"y": -2.1282299477,
				"z": 2.0969843251,
				"element": "C" 
			},
			{
				"x": -1.4239227649,
				"y": -1.0084388388,
				"z": 1.2500780183,
				"element": "C" 
			},
			{
				"x": -0.2709562877,
				"y": -0.8074651704,
				"z": 0.5308981564,
				"element": "C" 
			},
			{
				"x": 0.6610846827,
				"y": -1.744696646,
				"z": 0.8874535648,
				"element": "O" 
			},
			{
				"x": 0.108116468,
				"y": 0.160634164,
				"z": -0.4703209018,
				"element": "C" 
			},
			{
				"x": 1.2734046191,
				"y": 0.220958516,
				"z": -1.0424307155,
				"element": "N" 
			},
			{
				"x": 1.3292003903,
				"y": 1.2564879587,
				"z": -1.9556811988,
				"element": "C" 
			},
			{
				"x": 0.144598705,
				"y": 2.0255313049,
				"z": -2.0853551392,
				"element": "C" 
			},
			{
				"x": -1.0774483372,
				"y": 1.3937849392,
				"z": -0.99904993,
				"element": "S" 
			},
			{
				"x": 0.0656356981,
				"y": 3.1010930928,
				"z": -2.9717253149,
				"element": "C" 
			},
			{
				"x": 1.1907926999,
				"y": 3.4055654843,
				"z": -3.7354713454,
				"element": "C" 
			},
			{
				"x": 2.3715916362,
				"y": 2.6522179114,
				"z": -3.6176432322,
				"element": "C" 
			},
			{
				"x": 2.4501603888,
				"y": 1.5816158635,
				"z": -2.7352919914,
				"element": "C" 
			},
			{
				"x": 2.7626787275,
				"y": -2.6482800927,
				"z": 2.4261321047,
				"element": "H" 
			},
			{
				"x": 1.9431787882,
				"y": -2.5315613282,
				"z": 3.8252343852,
				"element": "H" 
			},
			{
				"x": 0.3712514256,
				"y": -4.2214294095,
				"z": 3.0928911426,
				"element": "H" 
			},
			{
				"x": 1.2747374473,
				"y": -4.30303241,
				"z": 1.5864973657,
				"element": "H" 
			},
			{
				"x": -1.8645467069,
				"y": -2.5730758197,
				"z": 2.8052805584,
				"element": "H" 
			},
			{
				"x": -2.3309272423,
				"y": -0.4244775662,
				"z": 1.1818736401,
				"element": "H" 
			},
			{
				"x": -0.8438264555,
				"y": 3.6856531983,
				"z": -3.0663822475,
				"element": "H" 
			},
			{
				"x": 1.1517104889,
				"y": 4.2380698166,
				"z": -4.4315591533,
				"element": "H" 
			},
			{
				"x": 3.2332538298,
				"y": 2.9116879378,
				"z": -4.2253033869,
				"element": "H" 
			},
			{
				"x": 3.3540227937,
				"y": 0.9903602863,
				"z": -2.6329411013,
				"element": "H" 
			}
		],
		 "valence_orbital": [ 
			{
				"type": "occ",
				"energy": -0.27529,
				"method": "rhf"
			},
			{
				"type": "occ",
				"energy": -0.26717,
				"method": "rhf"
			},
			{
				"type": "occ",
				"energy": -0.24716,
				"method": "rhf"
			},
			{
				"type": "occ",
				"energy": -0.23455,
				"method": "rhf"
			},
			{
				"type": "occ",
				"energy": -0.20943,
				"method": "rhf"
			},
			{
				"type": "unocc",
				"energy": -0.05746,
				"method": "rhf"
			},
			{
				"type": "unocc",
				"energy": -0.00556,
				"method": "rhf"
			},
			{
				"type": "unocc",
				"energy": 0.00797,
				"method": "rhf"
			},
			{
				"type": "unocc",
				"energy": 0.01288,
				"method": "rhf"
			},
			{
				"type": "unocc",
				"energy": 0.0419,
				"method": "rhf"
			}
		],
		"cosmo_sigma_profile": { 
			"-0.025": 0.0,
			"-0.024": 0.0,
			"-0.023": 0.0,
			"-0.022": 0.0,
			"-0.021": 0.0,
			"-0.02": 0.0,
			"-0.019": 0.0,
			"-0.018": 0.0,
			"-0.017": 0.0,
			"-0.016": 0.0,
			"-0.015": 0.0,
			"-0.014": 0.0,
			"-0.013": 0.0,
			"-0.012": 0.0,
			"-0.011": 0.0235270581044,
			"-0.01": 1.46865676367,
			"-0.009": 2.48890236949,
			"-0.008": 5.03220794459,
			"-0.007": 10.5882303466,
			"-0.006": 16.5224207516,
			"-0.005": 20.7588931803,
			"-0.004": 18.9293185925,
			"-0.003": 15.5355981157,
			"-0.002": 15.5758650775,
			"-0.001": 14.309100192,
			"0.0": 20.1679898449,
			"0.001": 21.6335133754,
			"0.002": 23.8463759147,
			"0.003": 22.3772370854,
			"0.004": 20.1208078728,
			"0.005": 9.34241627821,
			"0.006": 3.77285786365,
			"0.007": 2.24630950169,
			"0.008": 2.71508723448,
			"0.009": 1.76697761538,
			"0.01": 1.56877310232,
			"0.011": 2.66064321673,
			"0.012": 2.19252383191,
			"0.013": 1.66017133602,
			"0.014": 1.59449167728,
			"0.015": 1.43074325647,
			"0.016": 0.664281777557,
			"0.017": 0.584318853153,
			"0.018": 0.719733409933,
			"0.019": 0.474039911806,
			"0.02": 0.0203039231077,
			"0.021": 0.0,
			"0.022": 0.0,
			"0.023": 0.0,
			"0.024": 0.0,
			"0.025": 0.0
		}
	}
}
