{
	 "smiles": "FC(=C(F)C(F)(F)F)C(F)(F)F", 
	 "Tm": 144.15, 
	 "num_atms": 12, 
	 "gaussian": { 
		 "optdone": 1, 
		 "sigma_profile": "yes", 
		 "theory": "DFT", 
		 "functional": "B3LYP", 
		 "basiset": "6-31G**", 
		 "properties": { 
			 "R2extent": 2054.1771, 
			 "electric_dipole_moment_norm": 0.0, 
			 "electric_quadrupole_moment_norm": 2.05045989476, 
			 "total_energy": -951.090444005, 
			 "HOMO_LUMO_gap": 0.25191, 
			 "cosmo_polarized_energy": -2.0, 
			 "cosmo_cavitation_energy": 21.07, 
			 "cosmo_dispersion_energy": -14.26, 
			 "cosmo_repulsion_energy": 1.02, 
			 "cosmo_total_nonelectrostatic_energy": 7.82, 
			 "SMD_solvation_energy": 7.19 
		},
		"coords": [
			{
				"x": -0.3725977959,
				"y": 0.6096747331,
				"z": -1.7815819078,
				"element": "F" 
			},
			{
				"x": 0.3018541043,
				"y": 0.1848864573,
				"z": -0.7078496689,
				"element": "C" 
			},
			{
				"x": -0.1915234559,
				"y": -0.7577521113,
				"z": 0.0973245833,
				"element": "C" 
			},
			{
				"x": 0.4829213598,
				"y": -1.1825392387,
				"z": 1.1710616587,
				"element": "F" 
			},
			{
				"x": -1.5126630544,
				"y": -1.4773877647,
				"z": -0.0366668266,
				"element": "C" 
			},
			{
				"x": -2.2095796321,
				"y": -1.0727918797,
				"z": -1.1039527976,
				"element": "F" 
			},
			{
				"x": -1.298269011,
				"y": -2.8017594425,
				"z": -0.1396643879,
				"element": "F" 
			},
			{
				"x": -2.2552096089,
				"y": -1.2695634385,
				"z": 1.0660449112,
				"element": "F" 
			},
			{
				"x": 1.6229959972,
				"y": 0.9045227238,
				"z": -0.5738670018,
				"element": "C" 
			},
			{
				"x": 2.3655125427,
				"y": 0.6967281031,
				"z": -1.676608381,
				"element": "F" 
			},
			{
				"x": 2.3199454255,
				"y": 0.4998935386,
				"z": 0.4933857287,
				"element": "F" 
			},
			{
				"x": 1.4086131287,
				"y": 2.2288883195,
				"z": -0.4708259103,
				"element": "F" 
			}
		],
		 "valence_orbital": [ 
			{
				"type": "occ",
				"energy": -0.42824,
				"method": "rhf"
			},
			{
				"type": "occ",
				"energy": -0.42338,
				"method": "rhf"
			},
			{
				"type": "occ",
				"energy": -0.42334,
				"method": "rhf"
			},
			{
				"type": "occ",
				"energy": -0.38218,
				"method": "rhf"
			},
			{
				"type": "occ",
				"energy": -0.30292,
				"method": "rhf"
			},
			{
				"type": "unocc",
				"energy": -0.05101,
				"method": "rhf"
			},
			{
				"type": "unocc",
				"energy": 0.02372,
				"method": "rhf"
			},
			{
				"type": "unocc",
				"energy": 0.11483,
				"method": "rhf"
			},
			{
				"type": "unocc",
				"energy": 0.17193,
				"method": "rhf"
			},
			{
				"type": "unocc",
				"energy": 0.17288,
				"method": "rhf"
			}
		],
		"cosmo_sigma_profile": { 
			"-0.025": 0.0,
			"-0.024": 0.0,
			"-0.023": 0.0,
			"-0.022": 0.0,
			"-0.021": 0.0,
			"-0.02": 0.0,
			"-0.019": 0.0,
			"-0.018": 0.0,
			"-0.017": 0.0,
			"-0.016": 0.0,
			"-0.015": 0.0,
			"-0.014": 0.0,
			"-0.013": 0.0,
			"-0.012": 0.0,
			"-0.011": 0.0,
			"-0.01": 0.0,
			"-0.009": 0.0,
			"-0.008": 1.06788058409,
			"-0.007": 2.96654654248,
			"-0.006": 4.89952140487,
			"-0.005": 5.53595932883,
			"-0.004": 4.51068547384,
			"-0.003": 6.21005982254,
			"-0.002": 7.91898546642,
			"-0.001": 13.3738489766,
			"0.0": 20.4759773012,
			"0.001": 56.7544940917,
			"0.002": 46.3532386578,
			"0.003": 0.486292421589,
			"0.004": 0.0,
			"0.005": 0.0,
			"0.006": 0.0,
			"0.007": 0.0,
			"0.008": 0.0,
			"0.009": 0.0,
			"0.01": 0.0,
			"0.011": 0.0,
			"0.012": 0.0,
			"0.013": 0.0,
			"0.014": 0.0,
			"0.015": 0.0,
			"0.016": 0.0,
			"0.017": 0.0,
			"0.018": 0.0,
			"0.019": 0.0,
			"0.02": 0.0,
			"0.021": 0.0,
			"0.022": 0.0,
			"0.023": 0.0,
			"0.024": 0.0,
			"0.025": 0.0
		}
	}
}
