{
	 "smiles": "CC(CC(=O)OOC(C)(C)C)CC(C)(C)C", 
	 "Tm": 243.15, 
	 "num_atms": 42, 
	 "gaussian": { 
		 "optdone": 1, 
		 "sigma_profile": "yes", 
		 "theory": "DFT", 
		 "functional": "B3LYP", 
		 "basiset": "6-31G**", 
		 "properties": { 
			 "R2extent": 5836.4842, 
			 "electric_dipole_moment_norm": 2.28216666131, 
			 "electric_quadrupole_moment_norm": 10.7306264934, 
			 "total_energy": -736.681625662, 
			 "HOMO_LUMO_gap": 0.2709, 
			 "cosmo_polarized_energy": -8.96, 
			 "cosmo_cavitation_energy": 41.14, 
			 "cosmo_dispersion_energy": -27.2, 
			 "cosmo_repulsion_energy": 2.14, 
			 "cosmo_total_nonelectrostatic_energy": 16.09, 
			 "SMD_solvation_energy": 7.41 
		},
		"coords": [
			{
				"x": 0.3977561112,
				"y": 0.3891013549,
				"z": -4.3137878014,
				"element": "C" 
			},
			{
				"x": -0.2051756719,
				"y": 1.0840772508,
				"z": -3.0786447254,
				"element": "C" 
			},
			{
				"x": -0.5840870581,
				"y": 0.0486072251,
				"z": -1.9928369425,
				"element": "C" 
			},
			{
				"x": 0.5898862072,
				"y": -0.5826679288,
				"z": -1.2604144308,
				"element": "C" 
			},
			{
				"x": 1.7009751341,
				"y": -0.7746007869,
				"z": -1.6836238365,
				"element": "O" 
			},
			{
				"x": 0.156346059,
				"y": -0.9316670907,
				"z": -0.0042699967,
				"element": "O" 
			},
			{
				"x": 1.2373663412,
				"y": -1.4943554476,
				"z": 0.7906427058,
				"element": "O" 
			},
			{
				"x": 0.9246956693,
				"y": -2.8760468198,
				"z": 1.1161089076,
				"element": "C" 
			},
			{
				"x": -0.3532905217,
				"y": -2.9420988211,
				"z": 1.9584513181,
				"element": "C" 
			},
			{
				"x": 0.822137045,
				"y": -3.72319833,
				"z": -0.1555427256,
				"element": "C" 
			},
			{
				"x": 2.1599274713,
				"y": -3.2608583156,
				"z": 1.9407452011,
				"element": "C" 
			},
			{
				"x": 0.7244008203,
				"y": 2.2336012703,
				"z": -2.6227299643,
				"element": "C" 
			},
			{
				"x": 0.2536836745,
				"y": 3.2559034678,
				"z": -1.5450271459,
				"element": "C" 
			},
			{
				"x": 0.3643879745,
				"y": 2.6922991614,
				"z": -0.1124950646,
				"element": "C" 
			},
			{
				"x": -1.1886342698,
				"y": 3.7291050054,
				"z": -1.8084315003,
				"element": "C" 
			},
			{
				"x": 1.1973202974,
				"y": 4.4751684376,
				"z": -1.6403177791,
				"element": "C" 
			},
			{
				"x": -0.2737688634,
				"y": -0.3898584532,
				"z": -4.6933121465,
				"element": "H" 
			},
			{
				"x": 0.5598948719,
				"y": 1.1096587413,
				"z": -5.1223577571,
				"element": "H" 
			},
			{
				"x": 1.3548376379,
				"y": -0.0784041138,
				"z": -4.0707612765,
				"element": "H" 
			},
			{
				"x": -1.1593624148,
				"y": 1.5275420998,
				"z": -3.3923086906,
				"element": "H" 
			},
			{
				"x": -1.2712098478,
				"y": 0.4719568699,
				"z": -1.2566625584,
				"element": "H" 
			},
			{
				"x": -1.1283643819,
				"y": -0.7781141242,
				"z": -2.4701380361,
				"element": "H" 
			},
			{
				"x": -0.2542975417,
				"y": -2.3191003079,
				"z": 2.8520432227,
				"element": "H" 
			},
			{
				"x": -1.2145281104,
				"y": -2.589546847,
				"z": 1.3855910618,
				"element": "H" 
			},
			{
				"x": -0.5497034819,
				"y": -3.9722408349,
				"z": 2.272661833,
				"element": "H" 
			},
			{
				"x": 0.738698988,
				"y": -4.7834192552,
				"z": 0.1035266303,
				"element": "H" 
			},
			{
				"x": -0.0632564237,
				"y": -3.4527638062,
				"z": -0.7377244886,
				"element": "H" 
			},
			{
				"x": 1.7070637647,
				"y": -3.5793833603,
				"z": -0.7801575166,
				"element": "H" 
			},
			{
				"x": 2.0600815767,
				"y": -4.2921904617,
				"z": 2.2914231314,
				"element": "H" 
			},
			{
				"x": 3.0676366444,
				"y": -3.1826469357,
				"z": 1.3365870966,
				"element": "H" 
			},
			{
				"x": 2.2621724706,
				"y": -2.6066310029,
				"z": 2.8109535056,
				"element": "H" 
			},
			{
				"x": 1.6833774898,
				"y": 1.806038932,
				"z": -2.3048800004,
				"element": "H" 
			},
			{
				"x": 0.9440848796,
				"y": 2.809951035,
				"z": -3.531521015,
				"element": "H" 
			},
			{
				"x": -0.3112087663,
				"y": 1.8538243717,
				"z": 0.0726449319,
				"element": "H" 
			},
			{
				"x": 1.3832613448,
				"y": 2.3482898874,
				"z": 0.0971415807,
				"element": "H" 
			},
			{
				"x": 0.1205125103,
				"y": 3.469546282,
				"z": 0.621089903,
				"element": "H" 
			},
			{
				"x": -1.4641015222,
				"y": 4.5304548801,
				"z": -1.1134722191,
				"element": "H" 
			},
			{
				"x": -1.3006151226,
				"y": 4.1205559703,
				"z": -2.82647433,
				"element": "H" 
			},
			{
				"x": -1.9173949243,
				"y": 2.9217500685,
				"z": -1.6784251175,
				"element": "H" 
			},
			{
				"x": 2.2421851175,
				"y": 4.1773079462,
				"z": -1.4961499352,
				"element": "H" 
			},
			{
				"x": 1.1209179073,
				"y": 4.962293251,
				"z": -2.619120787,
				"element": "H" 
			},
			{
				"x": 0.954290914,
				"y": 5.2206595351,
				"z": -0.874723242,
				"element": "H" 
			}
		],
		 "valence_orbital": [ 
			{
				"type": "occ",
				"energy": -0.30756,
				"method": "rhf"
			},
			{
				"type": "occ",
				"energy": -0.30553,
				"method": "rhf"
			},
			{
				"type": "occ",
				"energy": -0.29749,
				"method": "rhf"
			},
			{
				"type": "occ",
				"energy": -0.27307,
				"method": "rhf"
			},
			{
				"type": "occ",
				"energy": -0.26501,
				"method": "rhf"
			},
			{
				"type": "unocc",
				"energy": 0.00589,
				"method": "rhf"
			},
			{
				"type": "unocc",
				"energy": 0.01466,
				"method": "rhf"
			},
			{
				"type": "unocc",
				"energy": 0.06858,
				"method": "rhf"
			},
			{
				"type": "unocc",
				"energy": 0.08578,
				"method": "rhf"
			},
			{
				"type": "unocc",
				"energy": 0.10748,
				"method": "rhf"
			}
		],
		"cosmo_sigma_profile": { 
			"-0.025": 0.0,
			"-0.024": 0.0,
			"-0.023": 0.0,
			"-0.022": 0.0,
			"-0.021": 0.0,
			"-0.02": 0.0,
			"-0.019": 0.0,
			"-0.018": 0.0,
			"-0.017": 0.0,
			"-0.016": 0.0,
			"-0.015": 0.0,
			"-0.014": 0.0,
			"-0.013": 0.0,
			"-0.012": 0.0,
			"-0.011": 0.0,
			"-0.01": 0.0,
			"-0.009": 0.0,
			"-0.008": 0.0,
			"-0.007": 0.208642001551,
			"-0.006": 3.12284439765,
			"-0.005": 9.2901988928,
			"-0.004": 20.4448396241,
			"-0.003": 29.2740494983,
			"-0.002": 50.357723283,
			"-0.001": 48.8920280735,
			"0.0": 47.1081275566,
			"0.001": 37.8799916629,
			"0.002": 27.7198299912,
			"0.003": 7.30215061566,
			"0.004": 4.36335444619,
			"0.005": 4.38275166101,
			"0.006": 4.58701961429,
			"0.007": 3.70197550311,
			"0.008": 3.57860591095,
			"0.009": 3.09703783221,
			"0.01": 3.39401809428,
			"0.011": 3.32211199967,
			"0.012": 2.08066107711,
			"0.013": 1.13105960302,
			"0.014": 0.81766780319,
			"0.015": 0.0577020056851,
			"0.016": 0.0,
			"0.017": 0.0,
			"0.018": 0.0,
			"0.019": 0.0,
			"0.02": 0.0,
			"0.021": 0.0,
			"0.022": 0.0,
			"0.023": 0.0,
			"0.024": 0.0,
			"0.025": 0.0
		}
	}
}
