{
	 "smiles": "CN1C=CC(=CC1=O)C(=O)N1CCCC(C1)C(O)=O", 
	 "Tm": 482.15, 
	 "num_atms": 35, 
	 "gaussian": { 
		 "optdone": 1, 
		 "sigma_profile": "yes", 
		 "theory": "DFT", 
		 "functional": "B3LYP", 
		 "basiset": "6-31G**", 
		 "properties": { 
			 "R2extent": 6711.1482, 
			 "electric_dipole_moment_norm": 5.33709090142, 
			 "electric_quadrupole_moment_norm": 31.2187378392, 
			 "total_energy": -915.453180498, 
			 "HOMO_LUMO_gap": 0.16591, 
			 "cosmo_polarized_energy": -25.43, 
			 "cosmo_cavitation_energy": 37.96, 
			 "cosmo_dispersion_energy": -26.49, 
			 "cosmo_repulsion_energy": 2.06, 
			 "cosmo_total_nonelectrostatic_energy": 13.53, 
			 "SMD_solvation_energy": 8.03 
		},
		"coords": [
			{
				"x": -1.3966796572,
				"y": -2.5792255186,
				"z": 5.1687905434,
				"element": "C" 
			},
			{
				"x": -1.2777039552,
				"y": -1.5828589325,
				"z": 4.1051726133,
				"element": "N" 
			},
			{
				"x": -0.0636509714,
				"y": -1.2242791032,
				"z": 3.5963951271,
				"element": "C" 
			},
			{
				"x": 0.0568037015,
				"y": -0.3026762824,
				"z": 2.596948288,
				"element": "C" 
			},
			{
				"x": -1.1286324276,
				"y": 0.3155288692,
				"z": 2.0905133205,
				"element": "C" 
			},
			{
				"x": -2.3483370846,
				"y": -0.0192084606,
				"z": 2.6135516097,
				"element": "C" 
			},
			{
				"x": -2.5014028634,
				"y": -1.016592451,
				"z": 3.6524639248,
				"element": "C" 
			},
			{
				"x": -3.5608567441,
				"y": -1.3905619771,
				"z": 4.1516029413,
				"element": "O" 
			},
			{
				"x": -1.0653334054,
				"y": 1.4181880974,
				"z": 1.057749874,
				"element": "C" 
			},
			{
				"x": -1.638815847,
				"y": 2.4851639632,
				"z": 1.2583953064,
				"element": "O" 
			},
			{
				"x": -0.319886433,
				"y": 1.2110496675,
				"z": -0.0777283794,
				"element": "N" 
			},
			{
				"x": -0.2365297546,
				"y": 2.35365474,
				"z": -1.0088276562,
				"element": "C" 
			},
			{
				"x": 0.6294895001,
				"y": 1.9954350786,
				"z": -2.2147883501,
				"element": "C" 
			},
			{
				"x": 0.0792750772,
				"y": 0.776372602,
				"z": -2.9768686404,
				"element": "C" 
			},
			{
				"x": -0.4245681965,
				"y": -0.3247725541,
				"z": -2.0129287653,
				"element": "C" 
			},
			{
				"x": 0.0990186702,
				"y": -0.1011965599,
				"z": -0.571292842,
				"element": "C" 
			},
			{
				"x": -0.043774748,
				"y": -1.7211187831,
				"z": -2.482544292,
				"element": "C" 
			},
			{
				"x": -0.6966043923,
				"y": -2.6720187731,
				"z": -1.7697261536,
				"element": "O" 
			},
			{
				"x": 0.7458712958,
				"y": -1.996010409,
				"z": -3.3586745011,
				"element": "O" 
			},
			{
				"x": -0.4020328526,
				"y": -2.9324885123,
				"z": 5.4437099856,
				"element": "H" 
			},
			{
				"x": -2.0115449492,
				"y": -3.4154501562,
				"z": 4.8277644436,
				"element": "H" 
			},
			{
				"x": -1.892009688,
				"y": -2.1376836706,
				"z": 6.0365044338,
				"element": "H" 
			},
			{
				"x": 0.7975303543,
				"y": -1.7142467092,
				"z": 4.0382296909,
				"element": "H" 
			},
			{
				"x": 1.0375877723,
				"y": -0.0308244146,
				"z": 2.2277705717,
				"element": "H" 
			},
			{
				"x": -3.2563764347,
				"y": 0.4627824406,
				"z": 2.2717797873,
				"element": "H" 
			},
			{
				"x": -1.2488087125,
				"y": 2.6362331476,
				"z": -1.3275421459,
				"element": "H" 
			},
			{
				"x": 0.1645987617,
				"y": 3.2142735528,
				"z": -0.4655091806,
				"element": "H" 
			},
			{
				"x": 0.6834813328,
				"y": 2.8619072234,
				"z": -2.8813778896,
				"element": "H" 
			},
			{
				"x": 1.655986333,
				"y": 1.8015079143,
				"z": -1.880915226,
				"element": "H" 
			},
			{
				"x": 0.8507217187,
				"y": 0.3567527386,
				"z": -3.6277416144,
				"element": "H" 
			},
			{
				"x": -0.7474187301,
				"y": 1.0883206265,
				"z": -3.6242193639,
				"element": "H" 
			},
			{
				"x": -1.5186978315,
				"y": -0.3086919035,
				"z": -1.9466595043,
				"element": "H" 
			},
			{
				"x": -0.2945255054,
				"y": -0.8743506746,
				"z": 0.085924985,
				"element": "H" 
			},
			{
				"x": 1.19431351,
				"y": -0.1878064422,
				"z": -0.5652167106,
				"element": "H" 
			},
			{
				"x": -0.3921868431,
				"y": -3.529108374,
				"z": -2.112806231,
				"element": "H" 
			}
		],
		 "valence_orbital": [ 
			{
				"type": "occ",
				"energy": -0.29075,
				"method": "rhf"
			},
			{
				"type": "occ",
				"energy": -0.25685,
				"method": "rhf"
			},
			{
				"type": "occ",
				"energy": -0.2462,
				"method": "rhf"
			},
			{
				"type": "occ",
				"energy": -0.24256,
				"method": "rhf"
			},
			{
				"type": "occ",
				"energy": -0.21696,
				"method": "rhf"
			},
			{
				"type": "unocc",
				"energy": -0.05105,
				"method": "rhf"
			},
			{
				"type": "unocc",
				"energy": -0.00821,
				"method": "rhf"
			},
			{
				"type": "unocc",
				"energy": 0.0038,
				"method": "rhf"
			},
			{
				"type": "unocc",
				"energy": 0.04012,
				"method": "rhf"
			},
			{
				"type": "unocc",
				"energy": 0.06221,
				"method": "rhf"
			}
		],
		"cosmo_sigma_profile": { 
			"-0.025": 0.0,
			"-0.024": 0.0,
			"-0.023": 0.0,
			"-0.022": 0.0,
			"-0.021": 0.0,
			"-0.02": 0.0,
			"-0.019": 0.0811483697441,
			"-0.018": 0.865795321945,
			"-0.017": 0.483300048751,
			"-0.016": 1.44657680104,
			"-0.015": 0.416000651935,
			"-0.014": 0.78477337672,
			"-0.013": 1.13279810701,
			"-0.012": 0.504808236112,
			"-0.011": 0.718640233519,
			"-0.01": 2.14736091409,
			"-0.009": 3.58812719303,
			"-0.008": 4.08350225068,
			"-0.007": 6.48803064972,
			"-0.006": 14.9804709555,
			"-0.005": 21.9526544739,
			"-0.004": 29.4212903742,
			"-0.003": 38.3988066895,
			"-0.002": 27.9930578389,
			"-0.001": 23.1425430854,
			"0.0": 17.4868440675,
			"0.001": 13.2134863124,
			"0.002": 11.2903366634,
			"0.003": 6.78418595329,
			"0.004": 5.95273902116,
			"0.005": 6.9486043603,
			"0.006": 5.22986780407,
			"0.007": 4.4175806674,
			"0.008": 6.09295320133,
			"0.009": 5.28864862552,
			"0.01": 5.14433978768,
			"0.011": 7.45218179166,
			"0.012": 6.33892908577,
			"0.013": 6.63864073063,
			"0.014": 8.51978006997,
			"0.015": 2.97678981815,
			"0.016": 0.299238399192,
			"0.017": 0.0,
			"0.018": 0.0,
			"0.019": 0.0,
			"0.02": 0.0,
			"0.021": 0.0,
			"0.022": 0.0,
			"0.023": 0.0,
			"0.024": 0.0,
			"0.025": 0.0
		}
	}
}
