{
	 "smiles": "CCC1=CC(OCC(O)=O)=CC=C1", 
	 "Tm": 341.15, 
	 "num_atms": 25, 
	 "gaussian": { 
		 "optdone": 1, 
		 "sigma_profile": "yes", 
		 "theory": "DFT", 
		 "functional": "B3LYP", 
		 "basiset": "6-31G**", 
		 "properties": { 
			 "R2extent": 4213.593, 
			 "electric_dipole_moment_norm": 4.79621932463, 
			 "electric_quadrupole_moment_norm": 24.7935478004, 
			 "total_energy": -613.975481029, 
			 "HOMO_LUMO_gap": 0.22222, 
			 "cosmo_polarized_energy": -12.25, 
			 "cosmo_cavitation_energy": 29.16, 
			 "cosmo_dispersion_energy": -21.07, 
			 "cosmo_repulsion_energy": 1.7, 
			 "cosmo_total_nonelectrostatic_energy": 9.78, 
			 "SMD_solvation_energy": 6.55 
		},
		"coords": [
			{
				"x": -1.7809692874,
				"y": 3.2831142731,
				"z": -0.1832904635,
				"element": "C" 
			},
			{
				"x": -2.032899474,
				"y": 1.8905683697,
				"z": -0.7892942963,
				"element": "C" 
			},
			{
				"x": -0.9160118472,
				"y": 0.9115301245,
				"z": -0.4934685178,
				"element": "C" 
			},
			{
				"x": -0.9747978437,
				"y": 0.0872699046,
				"z": 0.6314071158,
				"element": "C" 
			},
			{
				"x": 0.0727346345,
				"y": -0.7907714296,
				"z": 0.9297470136,
				"element": "C" 
			},
			{
				"x": -0.0968044439,
				"y": -1.5569467479,
				"z": 2.0627184397,
				"element": "O" 
			},
			{
				"x": 0.9150615032,
				"y": -2.4800170537,
				"z": 2.4388966249,
				"element": "C" 
			},
			{
				"x": 0.4806958796,
				"y": -3.1953871929,
				"z": 3.7197100752,
				"element": "C" 
			},
			{
				"x": -0.7138207368,
				"y": -2.8274434819,
				"z": 4.2107162922,
				"element": "O" 
			},
			{
				"x": 1.1783191758,
				"y": -4.0303887309,
				"z": 4.2380266184,
				"element": "O" 
			},
			{
				"x": 1.1984788404,
				"y": -0.8603835474,
				"z": 0.106866096,
				"element": "C" 
			},
			{
				"x": 1.2550388842,
				"y": -0.034809446,
				"z": -1.0207218324,
				"element": "C" 
			},
			{
				"x": 0.2159047687,
				"y": 0.8401210764,
				"z": -1.3218325655,
				"element": "C" 
			},
			{
				"x": -0.8550579469,
				"y": 3.7189927518,
				"z": -0.5720571201,
				"element": "H" 
			},
			{
				"x": -1.6884623551,
				"y": 3.2257477821,
				"z": 0.9060236307,
				"element": "H" 
			},
			{
				"x": -2.603348301,
				"y": 3.9662887512,
				"z": -0.4194027734,
				"element": "H" 
			},
			{
				"x": -2.1535061018,
				"y": 1.9858787638,
				"z": -1.8749162175,
				"element": "H" 
			},
			{
				"x": -2.9793808226,
				"y": 1.4938463574,
				"z": -0.4040345483,
				"element": "H" 
			},
			{
				"x": -1.8370029968,
				"y": 0.1112735982,
				"z": 1.2919597639,
				"element": "H" 
			},
			{
				"x": 1.0794868173,
				"y": -3.2371641372,
				"z": 1.6622195017,
				"element": "H" 
			},
			{
				"x": 1.8691390441,
				"y": -1.9752325092,
				"z": 2.6350170145,
				"element": "H" 
			},
			{
				"x": -1.0801489669,
				"y": -2.1442368442,
				"z": 3.6207812555,
				"element": "H" 
			},
			{
				"x": 2.0161341993,
				"y": -1.5377569471,
				"z": 0.3220714104,
				"element": "H" 
			},
			{
				"x": 2.124964442,
				"y": -0.0866781724,
				"z": -1.669064501,
				"element": "H" 
			},
			{
				"x": 0.2755529349,
				"y": 1.4699844877,
				"z": -2.2052780167,
				"element": "H" 
			}
		],
		 "valence_orbital": [ 
			{
				"type": "occ",
				"energy": -0.33389,
				"method": "rhf"
			},
			{
				"type": "occ",
				"energy": -0.31269,
				"method": "rhf"
			},
			{
				"type": "occ",
				"energy": -0.27534,
				"method": "rhf"
			},
			{
				"type": "occ",
				"energy": -0.25548,
				"method": "rhf"
			},
			{
				"type": "occ",
				"energy": -0.23636,
				"method": "rhf"
			},
			{
				"type": "unocc",
				"energy": -0.01414,
				"method": "rhf"
			},
			{
				"type": "unocc",
				"energy": -0.00256,
				"method": "rhf"
			},
			{
				"type": "unocc",
				"energy": 0.01047,
				"method": "rhf"
			},
			{
				"type": "unocc",
				"energy": 0.07893,
				"method": "rhf"
			},
			{
				"type": "unocc",
				"energy": 0.08057,
				"method": "rhf"
			}
		],
		"cosmo_sigma_profile": { 
			"-0.025": 0.0,
			"-0.024": 0.0,
			"-0.023": 0.0,
			"-0.022": 0.0,
			"-0.021": 0.0,
			"-0.02": 0.0,
			"-0.019": 0.0,
			"-0.018": 0.0,
			"-0.017": 0.0,
			"-0.016": 0.0,
			"-0.015": 0.192168747047,
			"-0.014": 0.601816679084,
			"-0.013": 0.526584834349,
			"-0.012": 0.569011236957,
			"-0.011": 0.681498181707,
			"-0.01": 0.626741669963,
			"-0.009": 1.40388255251,
			"-0.008": 8.51558343321,
			"-0.007": 9.33007813568,
			"-0.006": 9.21703127363,
			"-0.005": 12.6512269851,
			"-0.004": 14.0770906072,
			"-0.003": 18.9709059241,
			"-0.002": 18.4239134546,
			"-0.001": 21.3562989531,
			"0.0": 18.0116980478,
			"0.001": 16.9816794408,
			"0.002": 11.6003982997,
			"0.003": 12.00578411,
			"0.004": 11.6079008369,
			"0.005": 11.4720715123,
			"0.006": 6.56397813236,
			"0.007": 2.0057412557,
			"0.008": 2.75443344021,
			"0.009": 4.59383368065,
			"0.01": 4.84890814382,
			"0.011": 4.50706607663,
			"0.012": 5.29521602604,
			"0.013": 1.17795081875,
			"0.014": 0.0,
			"0.015": 0.0,
			"0.016": 0.0,
			"0.017": 0.0,
			"0.018": 0.0,
			"0.019": 0.0,
			"0.02": 0.0,
			"0.021": 0.0,
			"0.022": 0.0,
			"0.023": 0.0,
			"0.024": 0.0,
			"0.025": 0.0
		}
	}
}
