{
	 "smiles": "CC(Cl)C(=O)NC1=CC(=CC=C1)C#N", 
	 "Tm": 382.15, 
	 "num_atms": 23, 
	 "gaussian": { 
		 "optdone": 1, 
		 "sigma_profile": "yes", 
		 "theory": "DFT", 
		 "functional": "B3LYP", 
		 "basiset": "6-31G**", 
		 "properties": { 
			 "R2extent": 4512.7134, 
			 "electric_dipole_moment_norm": 4.98936187202, 
			 "electric_quadrupole_moment_norm": 19.2544221448, 
			 "total_energy": -1031.40522077, 
			 "HOMO_LUMO_gap": 0.19541, 
			 "cosmo_polarized_energy": -17.87, 
			 "cosmo_cavitation_energy": 30.63, 
			 "cosmo_dispersion_energy": -20.72, 
			 "cosmo_repulsion_energy": 1.66, 
			 "cosmo_total_nonelectrostatic_energy": 11.57, 
			 "SMD_solvation_energy": 7.03 
		},
		"coords": [
			{
				"x": -0.4817321059,
				"y": 0.0335795795,
				"z": 5.319361128,
				"element": "C" 
			},
			{
				"x": -0.3188642492,
				"y": -0.0252072787,
				"z": 3.8118233824,
				"element": "C" 
			},
			{
				"x": 0.8175833578,
				"y": 1.2981678728,
				"z": 3.2386517331,
				"element": "Cl" 
			},
			{
				"x": -1.6555795559,
				"y": 0.1877364069,
				"z": 3.0845149119,
				"element": "C" 
			},
			{
				"x": -2.5951493148,
				"y": 0.7407076331,
				"z": 3.6304904134,
				"element": "O" 
			},
			{
				"x": -1.7550496807,
				"y": -0.2379811055,
				"z": 1.7746091472,
				"element": "N" 
			},
			{
				"x": -0.8012955448,
				"y": -0.8980282899,
				"z": 0.9528330027,
				"element": "C" 
			},
			{
				"x": -0.3643892068,
				"y": -0.279681702,
				"z": -0.2215401587,
				"element": "C" 
			},
			{
				"x": 0.5351453886,
				"y": -0.9440503987,
				"z": -1.0684409737,
				"element": "C" 
			},
			{
				"x": 1.0176891386,
				"y": -2.2195022926,
				"z": -0.7307426558,
				"element": "C" 
			},
			{
				"x": 0.5773326462,
				"y": -2.8276463183,
				"z": 0.441534869,
				"element": "C" 
			},
			{
				"x": -0.341280924,
				"y": -2.1833137795,
				"z": 1.2709187709,
				"element": "C" 
			},
			{
				"x": 0.9718502371,
				"y": -0.3099341931,
				"z": -2.279481542,
				"element": "C" 
			},
			{
				"x": 1.3238428537,
				"y": 0.1995498836,
				"z": -3.2638284729,
				"element": "N" 
			},
			{
				"x": -0.9723259799,
				"y": 0.962142552,
				"z": 5.6130657414,
				"element": "H" 
			},
			{
				"x": -1.1115452306,
				"y": -0.8003967655,
				"z": 5.6475785137,
				"element": "H" 
			},
			{
				"x": 0.4900353741,
				"y": -0.0442713051,
				"z": 5.8110722852,
				"element": "H" 
			},
			{
				"x": 0.1679787276,
				"y": -0.9475974775,
				"z": 3.4979069324,
				"element": "H" 
			},
			{
				"x": -2.6010158253,
				"y": 0.0983590158,
				"z": 1.3294856173,
				"element": "H" 
			},
			{
				"x": -0.7126890405,
				"y": 0.7165631221,
				"z": -0.4715450636,
				"element": "H" 
			},
			{
				"x": 1.7201747283,
				"y": -2.7200466641,
				"z": -1.3877988505,
				"element": "H" 
			},
			{
				"x": 0.932309844,
				"y": -3.8199805966,
				"z": 0.7006651457,
				"element": "H" 
			},
			{
				"x": -0.7243256374,
				"y": -2.6819678988,
				"z": 2.1556661229,
				"element": "H" 
			}
		],
		 "valence_orbital": [ 
			{
				"type": "occ",
				"energy": -0.31384,
				"method": "rhf"
			},
			{
				"type": "occ",
				"energy": -0.30373,
				"method": "rhf"
			},
			{
				"type": "occ",
				"energy": -0.28314,
				"method": "rhf"
			},
			{
				"type": "occ",
				"energy": -0.27416,
				"method": "rhf"
			},
			{
				"type": "occ",
				"energy": -0.26263,
				"method": "rhf"
			},
			{
				"type": "unocc",
				"energy": -0.06722,
				"method": "rhf"
			},
			{
				"type": "unocc",
				"energy": -0.04749,
				"method": "rhf"
			},
			{
				"type": "unocc",
				"energy": -0.02747,
				"method": "rhf"
			},
			{
				"type": "unocc",
				"energy": 0.02695,
				"method": "rhf"
			},
			{
				"type": "unocc",
				"energy": 0.04457,
				"method": "rhf"
			}
		],
		"cosmo_sigma_profile": { 
			"-0.025": 0.0,
			"-0.024": 0.0,
			"-0.023": 0.0,
			"-0.022": 0.0,
			"-0.021": 0.0,
			"-0.02": 0.0,
			"-0.019": 0.0,
			"-0.018": 0.0,
			"-0.017": 0.0,
			"-0.016": 0.025756119927,
			"-0.015": 0.822860004852,
			"-0.014": 1.23099462892,
			"-0.013": 1.16251138318,
			"-0.012": 0.737169461144,
			"-0.011": 1.75370262054,
			"-0.01": 2.31114771642,
			"-0.009": 4.18928914295,
			"-0.008": 10.1505596483,
			"-0.007": 12.2518985553,
			"-0.006": 12.43143947,
			"-0.005": 12.9560336474,
			"-0.004": 12.1645849041,
			"-0.003": 13.0573293862,
			"-0.002": 15.4919417192,
			"-0.001": 19.9711453128,
			"0.0": 18.285019876,
			"0.001": 17.7383068292,
			"0.002": 14.9011658073,
			"0.003": 11.9062858909,
			"0.004": 9.39129945475,
			"0.005": 11.4752371037,
			"0.006": 8.37541641872,
			"0.007": 4.06896910397,
			"0.008": 5.79770696643,
			"0.009": 4.3274230874,
			"0.01": 4.49305744603,
			"0.011": 5.22341578263,
			"0.012": 7.37142536265,
			"0.013": 3.49201279022,
			"0.014": 0.0,
			"0.015": 0.0,
			"0.016": 0.0,
			"0.017": 0.0,
			"0.018": 0.0,
			"0.019": 0.0,
			"0.02": 0.0,
			"0.021": 0.0,
			"0.022": 0.0,
			"0.023": 0.0,
			"0.024": 0.0,
			"0.025": 0.0
		}
	}
}
