{
	 "smiles": "CN1C=C(C=C1C(O)=O)S(=O)(=O)N1CCCCC1", 
	 "Tm": 510.15, 
	 "num_atms": 34, 
	 "gaussian": { 
		 "optdone": 1, 
		 "sigma_profile": "yes", 
		 "theory": "DFT", 
		 "functional": "B3LYP", 
		 "basiset": "6-31G**", 
		 "properties": { 
			 "R2extent": 6317.4603, 
			 "electric_dipole_moment_norm": 5.31026610821, 
			 "electric_quadrupole_moment_norm": 20.7112169792, 
			 "total_energy": -1237.35025197, 
			 "HOMO_LUMO_gap": 0.19776, 
			 "cosmo_polarized_energy": -19.87, 
			 "cosmo_cavitation_energy": 37.5, 
			 "cosmo_dispersion_energy": -26.97, 
			 "cosmo_repulsion_energy": 2.06, 
			 "cosmo_total_nonelectrostatic_energy": 12.59, 
			 "SMD_solvation_energy": 5.18 
		},
		"coords": [
			{
				"x": 3.9826485284,
				"y": 2.8098159267,
				"z": -0.1465787266,
				"element": "C" 
			},
			{
				"x": 2.8379814659,
				"y": 2.0452371686,
				"z": 0.3475466004,
				"element": "N" 
			},
			{
				"x": 2.8591866115,
				"y": 0.7125485439,
				"z": 0.598945723,
				"element": "C" 
			},
			{
				"x": 1.6103731315,
				"y": 0.3316811162,
				"z": 1.0783960602,
				"element": "C" 
			},
			{
				"x": 0.7962334352,
				"y": 1.4839063533,
				"z": 1.1175016958,
				"element": "C" 
			},
			{
				"x": 1.5742193699,
				"y": 2.5386355977,
				"z": 0.6600197701,
				"element": "C" 
			},
			{
				"x": 1.2252399984,
				"y": 3.9470093844,
				"z": 0.50702846,
				"element": "C" 
			},
			{
				"x": -0.0565357605,
				"y": 4.1902851196,
				"z": 0.8750399226,
				"element": "O" 
			},
			{
				"x": 1.9664595234,
				"y": 4.8262838738,
				"z": 0.0995289981,
				"element": "O" 
			},
			{
				"x": 1.1655950378,
				"y": -1.3209512663,
				"z": 1.5231440314,
				"element": "S" 
			},
			{
				"x": 0.1522223409,
				"y": -1.232977875,
				"z": 2.5751612105,
				"element": "O" 
			},
			{
				"x": 2.4194388611,
				"y": -2.0586622062,
				"z": 1.7009925694,
				"element": "O" 
			},
			{
				"x": 0.3983562923,
				"y": -2.0098908839,
				"z": 0.1851170978,
				"element": "N" 
			},
			{
				"x": 1.2495937148,
				"y": -2.278144307,
				"z": -0.9872914052,
				"element": "C" 
			},
			{
				"x": 0.5534643759,
				"y": -3.289587591,
				"z": -1.9047576566,
				"element": "C" 
			},
			{
				"x": -0.8499911979,
				"y": -2.8103372412,
				"z": -2.2988978828,
				"element": "C" 
			},
			{
				"x": -1.6732574351,
				"y": -2.4797353091,
				"z": -1.0468151367,
				"element": "C" 
			},
			{
				"x": -0.9377019918,
				"y": -1.4818130393,
				"z": -0.1455425911,
				"element": "C" 
			},
			{
				"x": 4.8172462109,
				"y": 2.1192430631,
				"z": -0.2759128749,
				"element": "H" 
			},
			{
				"x": 4.2549320814,
				"y": 3.5912804437,
				"z": 0.563803516,
				"element": "H" 
			},
			{
				"x": 3.7425962466,
				"y": 3.2852082699,
				"z": -1.0983873933,
				"element": "H" 
			},
			{
				"x": 3.7486945297,
				"y": 0.1178433193,
				"z": 0.4558634707,
				"element": "H" 
			},
			{
				"x": -0.2238959303,
				"y": 1.5536176261,
				"z": 1.4621837034,
				"element": "H" 
			},
			{
				"x": -0.1914772756,
				"y": 5.1433178484,
				"z": 0.7461108493,
				"element": "H" 
			},
			{
				"x": 1.4488652189,
				"y": -1.3449929048,
				"z": -1.5437142986,
				"element": "H" 
			},
			{
				"x": 2.2006662801,
				"y": -2.6741425954,
				"z": -0.6287680552,
				"element": "H" 
			},
			{
				"x": 0.4841283291,
				"y": -4.2492106099,
				"z": -1.3788537667,
				"element": "H" 
			},
			{
				"x": 1.1755687501,
				"y": -3.4476802228,
				"z": -2.7933495154,
				"element": "H" 
			},
			{
				"x": -1.3586817037,
				"y": -3.5700439901,
				"z": -2.9027074427,
				"element": "H" 
			},
			{
				"x": -0.765629402,
				"y": -1.9122942238,
				"z": -2.9274020512,
				"element": "H" 
			},
			{
				"x": -2.6469966375,
				"y": -2.0574719312,
				"z": -1.3205778377,
				"element": "H" 
			},
			{
				"x": -1.8627582154,
				"y": -3.3954220592,
				"z": -0.4742028625,
				"element": "H" 
			},
			{
				"x": -0.8532633776,
				"y": -0.5079489878,
				"z": -0.6592829224,
				"element": "H" 
			},
			{
				"x": -1.4810214064,
				"y": -1.3319064108,
				"z": 0.7883587407,
				"element": "H" 
			}
		],
		 "valence_orbital": [ 
			{
				"type": "occ",
				"energy": -0.294,
				"method": "rhf"
			},
			{
				"type": "occ",
				"energy": -0.28675,
				"method": "rhf"
			},
			{
				"type": "occ",
				"energy": -0.2742,
				"method": "rhf"
			},
			{
				"type": "occ",
				"energy": -0.25617,
				"method": "rhf"
			},
			{
				"type": "occ",
				"energy": -0.24237,
				"method": "rhf"
			},
			{
				"type": "unocc",
				"energy": -0.04461,
				"method": "rhf"
			},
			{
				"type": "unocc",
				"energy": 0.00636,
				"method": "rhf"
			},
			{
				"type": "unocc",
				"energy": 0.06661,
				"method": "rhf"
			},
			{
				"type": "unocc",
				"energy": 0.07374,
				"method": "rhf"
			},
			{
				"type": "unocc",
				"energy": 0.08688,
				"method": "rhf"
			}
		],
		"cosmo_sigma_profile": { 
			"-0.025": 0.0,
			"-0.024": 0.0,
			"-0.023": 0.0,
			"-0.022": 0.0,
			"-0.021": 0.0,
			"-0.02": 0.0,
			"-0.019": 0.115432844391,
			"-0.018": 0.667986106891,
			"-0.017": 1.11878292854,
			"-0.016": 1.01867486984,
			"-0.015": 0.535885492987,
			"-0.014": 0.480576489624,
			"-0.013": 0.644297790636,
			"-0.012": 0.33025178754,
			"-0.011": 1.56198139794,
			"-0.01": 2.98886677929,
			"-0.009": 2.6346698212,
			"-0.008": 3.15117243553,
			"-0.007": 4.38379663022,
			"-0.006": 8.18128665601,
			"-0.005": 9.52292133738,
			"-0.004": 22.1639519138,
			"-0.003": 44.0060398882,
			"-0.002": 40.6078036939,
			"-0.001": 27.3756741861,
			"0.0": 21.2034604631,
			"0.001": 13.1905406297,
			"0.002": 11.2091955602,
			"0.003": 10.0191174123,
			"0.004": 6.08408605871,
			"0.005": 6.39208867876,
			"0.006": 7.26857001366,
			"0.007": 6.86851368068,
			"0.008": 7.78280769238,
			"0.009": 5.15655981838,
			"0.01": 7.827389858,
			"0.011": 11.3814512178,
			"0.012": 8.56894213684,
			"0.013": 0.287697475466,
			"0.014": 0.0,
			"0.015": 0.0,
			"0.016": 0.0,
			"0.017": 0.0,
			"0.018": 0.0,
			"0.019": 0.0,
			"0.02": 0.0,
			"0.021": 0.0,
			"0.022": 0.0,
			"0.023": 0.0,
			"0.024": 0.0,
			"0.025": 0.0
		}
	}
}
