{
	 "smiles": "NC1=C(C(=O)C2=CC=CC=C2)C2=C(CCCC2)S1", 
	 "Tm": 398.15, 
	 "num_atms": 33, 
	 "gaussian": { 
		 "optdone": 1, 
		 "sigma_profile": "yes", 
		 "theory": "DFT", 
		 "functional": "B3LYP", 
		 "basiset": "6-31G**", 
		 "properties": { 
			 "R2extent": 5601.7943, 
			 "electric_dipole_moment_norm": 2.8215933247, 
			 "electric_quadrupole_moment_norm": 11.6689396455, 
			 "total_energy": -1108.80467728, 
			 "HOMO_LUMO_gap": 0.13984, 
			 "cosmo_polarized_energy": -12.26, 
			 "cosmo_cavitation_energy": 36.09, 
			 "cosmo_dispersion_energy": -26.8, 
			 "cosmo_repulsion_energy": 2.03, 
			 "cosmo_total_nonelectrostatic_energy": 11.33, 
			 "SMD_solvation_energy": 5.15 
		},
		"coords": [
			{
				"x": -0.019787383,
				"y": -1.7226376598,
				"z": 1.8155200607,
				"element": "N" 
			},
			{
				"x": -0.5916863589,
				"y": -0.5375995808,
				"z": 1.3939806712,
				"element": "C" 
			},
			{
				"x": -0.1384904022,
				"y": 0.418259544,
				"z": 0.4914496006,
				"element": "C" 
			},
			{
				"x": 1.201358485,
				"y": 0.4253287282,
				"z": -0.1378873954,
				"element": "C" 
			},
			{
				"x": 1.8077628012,
				"y": 1.4772851844,
				"z": -0.3411885577,
				"element": "O" 
			},
			{
				"x": 1.8506808226,
				"y": -0.8653981448,
				"z": -0.5659803706,
				"element": "C" 
			},
			{
				"x": 3.2535857275,
				"y": -0.9231871022,
				"z": -0.6003358216,
				"element": "C" 
			},
			{
				"x": 3.9013877747,
				"y": -2.0677206694,
				"z": -1.057037823,
				"element": "C" 
			},
			{
				"x": 3.154568609,
				"y": -3.1592039074,
				"z": -1.5124843557,
				"element": "C" 
			},
			{
				"x": 1.7596366082,
				"y": -3.1026487727,
				"z": -1.5041724948,
				"element": "C" 
			},
			{
				"x": 1.108504773,
				"y": -1.9637867405,
				"z": -1.0274489535,
				"element": "C" 
			},
			{
				"x": -1.0794683137,
				"y": 1.5253288066,
				"z": 0.3601067162,
				"element": "C" 
			},
			{
				"x": -2.2055873748,
				"y": 1.3753719035,
				"z": 1.1093016268,
				"element": "C" 
			},
			{
				"x": -3.3772823258,
				"y": 2.315889689,
				"z": 1.1699360707,
				"element": "C" 
			},
			{
				"x": -3.3273669297,
				"y": 3.2877037885,
				"z": -0.0231704389,
				"element": "C" 
			},
			{
				"x": -1.90934414,
				"y": 3.8389218469,
				"z": -0.2222821462,
				"element": "C" 
			},
			{
				"x": -0.8991815114,
				"y": 2.7246264536,
				"z": -0.5440451238,
				"element": "C" 
			},
			{
				"x": -2.1622207077,
				"y": -0.1161201712,
				"z": 2.045713045,
				"element": "S" 
			},
			{
				"x": -0.2143745123,
				"y": -1.9914532546,
				"z": 2.7700461865,
				"element": "H" 
			},
			{
				"x": 0.9449341169,
				"y": -1.8616479186,
				"z": 1.5496420561,
				"element": "H" 
			},
			{
				"x": 3.8131883035,
				"y": -0.0531861879,
				"z": -0.2725721551,
				"element": "H" 
			},
			{
				"x": 4.9868081948,
				"y": -2.1088580617,
				"z": -1.0682593091,
				"element": "H" 
			},
			{
				"x": 3.6598768299,
				"y": -4.0488795169,
				"z": -1.8778003027,
				"element": "H" 
			},
			{
				"x": 1.1777774047,
				"y": -3.9428269988,
				"z": -1.8719040982,
				"element": "H" 
			},
			{
				"x": 0.0241965146,
				"y": -1.9171626725,
				"z": -1.0241943174,
				"element": "H" 
			},
			{
				"x": -4.3239966604,
				"y": 1.7610523786,
				"z": 1.1660857801,
				"element": "H" 
			},
			{
				"x": -3.3600609304,
				"y": 2.8834530577,
				"z": 2.1123409381,
				"element": "H" 
			},
			{
				"x": -3.6428553804,
				"y": 2.7594539541,
				"z": -0.9323526237,
				"element": "H" 
			},
			{
				"x": -4.0423190895,
				"y": 4.1027949904,
				"z": 0.136408278,
				"element": "H" 
			},
			{
				"x": -1.8994087585,
				"y": 4.5852564486,
				"z": -1.0245384632,
				"element": "H" 
			},
			{
				"x": -1.5961033968,
				"y": 4.3585101852,
				"z": 0.6932911396,
				"element": "H" 
			},
			{
				"x": -1.0174035997,
				"y": 2.4053505733,
				"z": -1.5904049131,
				"element": "H" 
			},
			{
				"x": 0.1252708098,
				"y": 3.0927298268,
				"z": -0.4604625059,
				"element": "H" 
			}
		],
		 "valence_orbital": [ 
			{
				"type": "occ",
				"energy": -0.25868,
				"method": "rhf"
			},
			{
				"type": "occ",
				"energy": -0.25827,
				"method": "rhf"
			},
			{
				"type": "occ",
				"energy": -0.24079,
				"method": "rhf"
			},
			{
				"type": "occ",
				"energy": -0.23514,
				"method": "rhf"
			},
			{
				"type": "occ",
				"energy": -0.19277,
				"method": "rhf"
			},
			{
				"type": "unocc",
				"energy": -0.05293,
				"method": "rhf"
			},
			{
				"type": "unocc",
				"energy": -0.00855,
				"method": "rhf"
			},
			{
				"type": "unocc",
				"energy": 0.00124,
				"method": "rhf"
			},
			{
				"type": "unocc",
				"energy": 0.01777,
				"method": "rhf"
			},
			{
				"type": "unocc",
				"energy": 0.02884,
				"method": "rhf"
			}
		],
		"cosmo_sigma_profile": { 
			"-0.025": 0.0,
			"-0.024": 0.0,
			"-0.023": 0.0,
			"-0.022": 0.0,
			"-0.021": 0.0,
			"-0.02": 0.0,
			"-0.019": 0.0,
			"-0.018": 0.0,
			"-0.017": 0.0,
			"-0.016": 0.0,
			"-0.015": 0.148999288536,
			"-0.014": 0.992128370727,
			"-0.013": 1.64273465037,
			"-0.012": 1.56624987751,
			"-0.011": 2.32646413896,
			"-0.01": 1.86284205139,
			"-0.009": 2.68267540386,
			"-0.008": 2.49816848821,
			"-0.007": 2.63891031953,
			"-0.006": 8.51130544671,
			"-0.005": 11.0650049611,
			"-0.004": 16.8404746687,
			"-0.003": 21.6648051324,
			"-0.002": 30.8085587812,
			"-0.001": 33.8250225799,
			"0.0": 29.8256860125,
			"0.001": 22.4221452989,
			"0.002": 16.8844296284,
			"0.003": 19.9364234863,
			"0.004": 21.4557041001,
			"0.005": 13.3494849197,
			"0.006": 5.44320249428,
			"0.007": 2.9386255627,
			"0.008": 3.09174133844,
			"0.009": 2.69440140469,
			"0.01": 2.35074402401,
			"0.011": 2.6356003798,
			"0.012": 2.94301454745,
			"0.013": 2.50523384464,
			"0.014": 0.298430051991,
			"0.015": 0.0,
			"0.016": 0.0,
			"0.017": 0.0,
			"0.018": 0.0,
			"0.019": 0.0,
			"0.02": 0.0,
			"0.021": 0.0,
			"0.022": 0.0,
			"0.023": 0.0,
			"0.024": 0.0,
			"0.025": 0.0
		}
	}
}
