{
	 "smiles": "CO[P@@]1(=S)OCC2=C(O1)C=CC=C2", 
	 "Tm": 328.15, 
	 "num_atms": 22, 
	 "gaussian": { 
		 "optdone": 1, 
		 "sigma_profile": "yes", 
		 "theory": "DFT", 
		 "functional": "B3LYP", 
		 "basiset": "6-31G**", 
		 "properties": { 
			 "R2extent": 3358.9711, 
			 "electric_dipole_moment_norm": 4.48909509033, 
			 "electric_quadrupole_moment_norm": 18.1017862276, 
			 "total_energy": -1275.54267478, 
			 "HOMO_LUMO_gap": 0.21476, 
			 "cosmo_polarized_energy": -11.89, 
			 "cosmo_cavitation_energy": 28.8, 
			 "cosmo_dispersion_energy": -21.78, 
			 "cosmo_repulsion_energy": 1.64, 
			 "cosmo_total_nonelectrostatic_energy": 8.65, 
			 "SMD_solvation_energy": 5.62 
		},
		"coords": [
			{
				"x": 3.8426223425,
				"y": -0.4832429645,
				"z": -1.2702931713,
				"element": "C" 
			},
			{
				"x": 2.7607564215,
				"y": 0.2308623401,
				"z": -0.641782352,
				"element": "O" 
			},
			{
				"x": 1.3217208234,
				"y": 0.3653482678,
				"z": -1.3672168201,
				"element": "P" 
			},
			{
				"x": 1.3024106437,
				"y": 0.5564489986,
				"z": -3.2817794836,
				"element": "S" 
			},
			{
				"x": 0.4382157026,
				"y": -0.8821081934,
				"z": -0.8349063529,
				"element": "O" 
			},
			{
				"x": 0.0774575796,
				"y": -0.8955134961,
				"z": 0.5732944079,
				"element": "C" 
			},
			{
				"x": -0.7370356851,
				"y": 0.3241263193,
				"z": 0.9043223599,
				"element": "C" 
			},
			{
				"x": -0.3539168821,
				"y": 1.5434723994,
				"z": 0.334839513,
				"element": "C" 
			},
			{
				"x": 0.7691278437,
				"y": 1.6242719378,
				"z": -0.4790146912,
				"element": "O" 
			},
			{
				"x": -1.0516681461,
				"y": 2.7199054766,
				"z": 0.590845902,
				"element": "C" 
			},
			{
				"x": -2.1539157059,
				"y": 2.6790259136,
				"z": 1.4449393697,
				"element": "C" 
			},
			{
				"x": -2.5577949529,
				"y": 1.4727537786,
				"z": 2.0219096,
				"element": "C" 
			},
			{
				"x": -1.8542715554,
				"y": 0.3005926087,
				"z": 1.7416959165,
				"element": "C" 
			},
			{
				"x": 4.0185287807,
				"y": -0.100932584,
				"z": -2.2786209098,
				"element": "H" 
			},
			{
				"x": 3.6235088756,
				"y": -1.5543095243,
				"z": -1.3150830925,
				"element": "H" 
			},
			{
				"x": 4.7181510668,
				"y": -0.3109766773,
				"z": -0.6433024856,
				"element": "H" 
			},
			{
				"x": -0.4897791648,
				"y": -1.8157770359,
				"z": 0.7238331877,
				"element": "H" 
			},
			{
				"x": 0.9956492739,
				"y": -0.9486220264,
				"z": 1.1723332645,
				"element": "H" 
			},
			{
				"x": -0.7228403174,
				"y": 3.6417026339,
				"z": 0.1237557797,
				"element": "H" 
			},
			{
				"x": -2.7021380273,
				"y": 3.5929318208,
				"z": 1.6524005687,
				"element": "H" 
			},
			{
				"x": -3.4216875072,
				"y": 1.4428490261,
				"z": 2.6782101734,
				"element": "H" 
			},
			{
				"x": -2.1707014098,
				"y": -0.6436090197,
				"z": 2.1777193161,
				"element": "H" 
			}
		],
		 "valence_orbital": [ 
			{
				"type": "occ",
				"energy": -0.31589,
				"method": "rhf"
			},
			{
				"type": "occ",
				"energy": -0.26496,
				"method": "rhf"
			},
			{
				"type": "occ",
				"energy": -0.25865,
				"method": "rhf"
			},
			{
				"type": "occ",
				"energy": -0.24414,
				"method": "rhf"
			},
			{
				"type": "occ",
				"energy": -0.23696,
				"method": "rhf"
			},
			{
				"type": "unocc",
				"energy": -0.0222,
				"method": "rhf"
			},
			{
				"type": "unocc",
				"energy": -0.01206,
				"method": "rhf"
			},
			{
				"type": "unocc",
				"energy": 0.03591,
				"method": "rhf"
			},
			{
				"type": "unocc",
				"energy": 0.04154,
				"method": "rhf"
			},
			{
				"type": "unocc",
				"energy": 0.0633,
				"method": "rhf"
			}
		],
		"cosmo_sigma_profile": { 
			"-0.025": 0.0,
			"-0.024": 0.0,
			"-0.023": 0.0,
			"-0.022": 0.0,
			"-0.021": 0.0,
			"-0.02": 0.0,
			"-0.019": 0.0,
			"-0.018": 0.0,
			"-0.017": 0.0,
			"-0.016": 0.0,
			"-0.015": 0.0,
			"-0.014": 0.0,
			"-0.013": 0.0,
			"-0.012": 0.0,
			"-0.011": 0.0,
			"-0.01": 0.0,
			"-0.009": 0.417669068346,
			"-0.008": 3.92705111927,
			"-0.007": 10.3148252895,
			"-0.006": 18.7795497753,
			"-0.005": 20.5211082088,
			"-0.004": 20.2224285308,
			"-0.003": 14.2372499752,
			"-0.002": 13.3291649096,
			"-0.001": 10.900353801,
			"0.0": 11.2038452362,
			"0.001": 13.8309736692,
			"0.002": 15.2974716846,
			"0.003": 15.7470674299,
			"0.004": 14.4585072499,
			"0.005": 9.83050034047,
			"0.006": 8.84838850439,
			"0.007": 10.4298237446,
			"0.008": 11.9426702952,
			"0.009": 6.13785998641,
			"0.01": 0.774734231353,
			"0.011": 0.0,
			"0.012": 0.0,
			"0.013": 0.0,
			"0.014": 0.0,
			"0.015": 0.0,
			"0.016": 0.0,
			"0.017": 0.0,
			"0.018": 0.0,
			"0.019": 0.0,
			"0.02": 0.0,
			"0.021": 0.0,
			"0.022": 0.0,
			"0.023": 0.0,
			"0.024": 0.0,
			"0.025": 0.0
		}
	}
}
