{
	 "smiles": "IC1=CC(I)=C(I)C=C1I", 
	 "Tm": 527.15, 
	 "num_atms": 12, 
	 "gaussian": { 
		 "optdone": 1, 
		 "sigma_profile": "yes", 
		 "theory": "DFT", 
		 "functional": "B3LYP", 
		 "basiset": "6-31G**", 
		 "properties": { 
			 "R2extent": 2019.4086, 
			 "electric_dipole_moment_norm": 0.0, 
			 "electric_quadrupole_moment_norm": 6.86646343324, 
			 "total_energy": -275.367632743, 
			 "HOMO_LUMO_gap": 0.16068, 
			 "cosmo_polarized_energy": -4.57, 
			 "cosmo_cavitation_energy": 28.79, 
			 "cosmo_dispersion_energy": -26.28, 
			 "cosmo_repulsion_energy": 1.99, 
			 "cosmo_total_nonelectrostatic_energy": 4.49, 
			 "SMD_solvation_energy": 1.53 
		},
		"coords": [
			{
				"x": 3.9636243845,
				"y": 0.858425396,
				"z": -0.5692400394,
				"element": "I" 
			},
			{
				"x": 2.0531943988,
				"y": 0.3148573757,
				"z": 0.148992767,
				"element": "C" 
			},
			{
				"x": 1.2429793349,
				"y": 1.3481359287,
				"z": 0.6299574657,
				"element": "C" 
			},
			{
				"x": -0.0387293683,
				"y": 1.0918204263,
				"z": 1.1268923129,
				"element": "C" 
			},
			{
				"x": -1.1423563855,
				"y": 2.7549764671,
				"z": 1.8176199462,
				"element": "I" 
			},
			{
				"x": -0.5199390115,
				"y": -0.224258796,
				"z": 1.1432055685,
				"element": "C" 
			},
			{
				"x": -2.4303773335,
				"y": -0.7678160558,
				"z": 1.8614430693,
				"element": "I" 
			},
			{
				"x": 0.2902661194,
				"y": -1.2575395528,
				"z": 0.6622444546,
				"element": "C" 
			},
			{
				"x": 1.5719761024,
				"y": -1.001219081,
				"z": 0.1653085727,
				"element": "C" 
			},
			{
				"x": 2.6756075533,
				"y": -2.6643752298,
				"z": -0.525423524,
				"element": "I" 
			},
			{
				"x": 1.6145783941,
				"y": 2.3645466916,
				"z": 0.6173629248,
				"element": "H" 
			},
			{
				"x": -0.0813241887,
				"y": -2.27395357,
				"z": 0.6748364818,
				"element": "H" 
			}
		],
		 "valence_orbital": [ 
			{
				"type": "occ",
				"energy": -0.28109,
				"method": "rhf"
			},
			{
				"type": "occ",
				"energy": -0.26746,
				"method": "rhf"
			},
			{
				"type": "occ",
				"energy": -0.2662,
				"method": "rhf"
			},
			{
				"type": "occ",
				"energy": -0.25736,
				"method": "rhf"
			},
			{
				"type": "occ",
				"energy": -0.2477,
				"method": "rhf"
			},
			{
				"type": "unocc",
				"energy": -0.08702,
				"method": "rhf"
			},
			{
				"type": "unocc",
				"energy": -0.06062,
				"method": "rhf"
			},
			{
				"type": "unocc",
				"energy": -0.05226,
				"method": "rhf"
			},
			{
				"type": "unocc",
				"energy": -0.0486,
				"method": "rhf"
			},
			{
				"type": "unocc",
				"energy": -0.04421,
				"method": "rhf"
			}
		],
		"cosmo_sigma_profile": { 
			"-0.025": 0.0,
			"-0.024": 0.0,
			"-0.023": 0.0,
			"-0.022": 0.0,
			"-0.021": 0.0,
			"-0.02": 0.0,
			"-0.019": 0.0,
			"-0.018": 0.0,
			"-0.017": 0.0,
			"-0.016": 0.0,
			"-0.015": 0.0,
			"-0.014": 0.0,
			"-0.013": 0.0,
			"-0.012": 0.0,
			"-0.011": 0.0,
			"-0.01": 0.0,
			"-0.009": 0.287703182828,
			"-0.008": 5.76477616057,
			"-0.007": 7.92930360264,
			"-0.006": 9.2795687417,
			"-0.005": 9.61389750516,
			"-0.004": 10.8416150468,
			"-0.003": 10.422411411,
			"-0.002": 13.5507287308,
			"-0.001": 22.6290101622,
			"0.0": 35.8124659711,
			"0.001": 28.3022137881,
			"0.002": 25.2478266913,
			"0.003": 38.8204734348,
			"0.004": 33.4269846276,
			"0.005": 1.56134708224e-05,
			"0.006": 0.0,
			"0.007": 0.0,
			"0.008": 0.0,
			"0.009": 0.0,
			"0.01": 0.0,
			"0.011": 0.0,
			"0.012": 0.0,
			"0.013": 0.0,
			"0.014": 0.0,
			"0.015": 0.0,
			"0.016": 0.0,
			"0.017": 0.0,
			"0.018": 0.0,
			"0.019": 0.0,
			"0.02": 0.0,
			"0.021": 0.0,
			"0.022": 0.0,
			"0.023": 0.0,
			"0.024": 0.0,
			"0.025": 0.0
		}
	}
}
