{
	 "smiles": "CC(C)C(C(N)=O)C1=CN=CC=C1", 
	 "Tm": 450.15, 
	 "num_atms": 27, 
	 "gaussian": { 
		 "optdone": 1, 
		 "sigma_profile": "yes", 
		 "theory": "DFT", 
		 "functional": "B3LYP", 
		 "basiset": "6-31G**", 
		 "properties": { 
			 "R2extent": 3025.392, 
			 "electric_dipole_moment_norm": 3.43162830592, 
			 "electric_quadrupole_moment_norm": 10.3991317037, 
			 "total_energy": -574.247030235, 
			 "HOMO_LUMO_gap": 0.20781, 
			 "cosmo_polarized_energy": -14.47, 
			 "cosmo_cavitation_energy": 29.02, 
			 "cosmo_dispersion_energy": -20.53, 
			 "cosmo_repulsion_energy": 1.63, 
			 "cosmo_total_nonelectrostatic_energy": 10.12, 
			 "SMD_solvation_energy": 4.19 
		},
		"coords": [
			{
				"x": 1.7799957587,
				"y": -0.1586040247,
				"z": 2.7018014866,
				"element": "C" 
			},
			{
				"x": 0.8480289896,
				"y": 0.1738988593,
				"z": 1.5259772688,
				"element": "C" 
			},
			{
				"x": 1.6765104655,
				"y": 0.5987212708,
				"z": 0.2998544817,
				"element": "C" 
			},
			{
				"x": -0.1370952004,
				"y": -1.0132342893,
				"z": 1.2459610836,
				"element": "C" 
			},
			{
				"x": 0.561357795,
				"y": -2.0898423609,
				"z": 0.3826544973,
				"element": "C" 
			},
			{
				"x": 0.0872695372,
				"y": -2.2667594638,
				"z": -0.8834188031,
				"element": "N" 
			},
			{
				"x": 1.5211023049,
				"y": -2.7175298512,
				"z": 0.812165052,
				"element": "O" 
			},
			{
				"x": -1.5169299101,
				"y": -0.6073530744,
				"z": 0.7479328525,
				"element": "C" 
			},
			{
				"x": -2.6097164932,
				"y": -1.455594173,
				"z": 1.0042051275,
				"element": "C" 
			},
			{
				"x": -3.8668956891,
				"y": -1.2245113283,
				"z": 0.617694176,
				"element": "N" 
			},
			{
				"x": -4.1021695549,
				"y": -0.0944721888,
				"z": -0.0627545109,
				"element": "C" 
			},
			{
				"x": -3.1052167277,
				"y": 0.8290198421,
				"z": -0.3715414792,
				"element": "C" 
			},
			{
				"x": -1.7972395114,
				"y": 0.5679801227,
				"z": 0.0390713269,
				"element": "C" 
			},
			{
				"x": 2.3679141637,
				"y": -1.0528205284,
				"z": 2.4796889501,
				"element": "H" 
			},
			{
				"x": 2.4652286415,
				"y": 0.6732527281,
				"z": 2.8982951295,
				"element": "H" 
			},
			{
				"x": 1.2091541642,
				"y": -0.3458990659,
				"z": 3.6180906584,
				"element": "H" 
			},
			{
				"x": 0.2204650823,
				"y": 1.0232237152,
				"z": 1.8267447498,
				"element": "H" 
			},
			{
				"x": 1.0632182759,
				"y": 0.7995098132,
				"z": -0.5840191437,
				"element": "H" 
			},
			{
				"x": 2.3948637834,
				"y": -0.1822020204,
				"z": 0.0316093168,
				"element": "H" 
			},
			{
				"x": 2.2430657211,
				"y": 1.5077883135,
				"z": 0.5264307203,
				"element": "H" 
			},
			{
				"x": -0.2915254485,
				"y": -1.523025088,
				"z": 2.2041936443,
				"element": "H" 
			},
			{
				"x": 0.510583032,
				"y": -2.9936196453,
				"z": -1.4406622595,
				"element": "H" 
			},
			{
				"x": -0.767384772,
				"y": -1.8384222343,
				"z": -1.1994452028,
				"element": "H" 
			},
			{
				"x": -2.4472019973,
				"y": -2.3777680836,
				"z": 1.5631621665,
				"element": "H" 
			},
			{
				"x": -5.1323903458,
				"y": 0.0782081782,
				"z": -0.368703666,
				"element": "H" 
			},
			{
				"x": -3.3461968621,
				"y": 1.7355575013,
				"z": -0.9182909819,
				"element": "H" 
			},
			{
				"x": -1.0110952024,
				"y": 1.2808970757,
				"z": -0.1849966413,
				"element": "H" 
			}
		],
		 "valence_orbital": [ 
			{
				"type": "occ",
				"energy": -0.29326,
				"method": "rhf"
			},
			{
				"type": "occ",
				"energy": -0.27404,
				"method": "rhf"
			},
			{
				"type": "occ",
				"energy": -0.26742,
				"method": "rhf"
			},
			{
				"type": "occ",
				"energy": -0.25807,
				"method": "rhf"
			},
			{
				"type": "occ",
				"energy": -0.2405,
				"method": "rhf"
			},
			{
				"type": "unocc",
				"energy": -0.03269,
				"method": "rhf"
			},
			{
				"type": "unocc",
				"energy": -0.02189,
				"method": "rhf"
			},
			{
				"type": "unocc",
				"energy": 0.02552,
				"method": "rhf"
			},
			{
				"type": "unocc",
				"energy": 0.07961,
				"method": "rhf"
			},
			{
				"type": "unocc",
				"energy": 0.09113,
				"method": "rhf"
			}
		],
		"cosmo_sigma_profile": { 
			"-0.025": 0.0,
			"-0.024": 0.0,
			"-0.023": 0.0,
			"-0.022": 0.0,
			"-0.021": 0.0,
			"-0.02": 0.0,
			"-0.019": 0.0,
			"-0.018": 0.0,
			"-0.017": 0.0,
			"-0.016": 0.0,
			"-0.015": 0.0,
			"-0.014": 0.652612020841,
			"-0.013": 1.4845368705,
			"-0.012": 2.14775497365,
			"-0.011": 1.35386484467,
			"-0.01": 2.29656275797,
			"-0.009": 2.05920981061,
			"-0.008": 1.77536738547,
			"-0.007": 5.39183832743,
			"-0.006": 12.9848264938,
			"-0.005": 13.083168161,
			"-0.004": 13.6565478078,
			"-0.003": 18.6602257892,
			"-0.002": 20.7229191753,
			"-0.001": 19.5997287159,
			"0.0": 18.9361179622,
			"0.001": 22.5396202087,
			"0.002": 19.2087483275,
			"0.003": 11.2259408248,
			"0.004": 4.83256101093,
			"0.005": 4.83737286595,
			"0.006": 2.49152217562,
			"0.007": 2.1295431409,
			"0.008": 3.64962336999,
			"0.009": 3.21218092278,
			"0.01": 2.44719818983,
			"0.011": 2.13183135033,
			"0.012": 1.69489077151,
			"0.013": 4.24743473322,
			"0.014": 5.46414805387,
			"0.015": 1.98215948904,
			"0.016": 0.747592647211,
			"0.017": 0.427622412494,
			"0.018": 0.0,
			"0.019": 0.0,
			"0.02": 0.0,
			"0.021": 0.0,
			"0.022": 0.0,
			"0.023": 0.0,
			"0.024": 0.0,
			"0.025": 0.0
		}
	}
}
