{
	 "smiles": "OC1=CC2=C(NC(=O)CCC2)C=C1", 
	 "Tm": 493.15, 
	 "num_atms": 24, 
	 "gaussian": { 
		 "optdone": 1, 
		 "sigma_profile": "yes", 
		 "theory": "DFT", 
		 "functional": "B3LYP", 
		 "basiset": "6-31G**", 
		 "properties": { 
			 "R2extent": 3155.3592, 
			 "electric_dipole_moment_norm": 3.74713930085, 
			 "electric_quadrupole_moment_norm": 24.078382134, 
			 "total_energy": -592.913394886, 
			 "HOMO_LUMO_gap": 0.19797, 
			 "cosmo_polarized_energy": -15.14, 
			 "cosmo_cavitation_energy": 26.61, 
			 "cosmo_dispersion_energy": -19.81, 
			 "cosmo_repulsion_energy": 1.57, 
			 "cosmo_total_nonelectrostatic_energy": 8.37, 
			 "SMD_solvation_energy": 5.07 
		},
		"coords": [
			{
				"x": -0.738325926,
				"y": 2.9253350298,
				"z": 3.076959306,
				"element": "O" 
			},
			{
				"x": -0.8901955164,
				"y": 1.674003407,
				"z": 2.5476397667,
				"element": "C" 
			},
			{
				"x": -0.112308862,
				"y": 1.3507788104,
				"z": 1.4305380249,
				"element": "C" 
			},
			{
				"x": -0.2131051784,
				"y": 0.1019009482,
				"z": 0.8183366879,
				"element": "C" 
			},
			{
				"x": -1.0898493304,
				"y": -0.8586195188,
				"z": 1.3688433582,
				"element": "C" 
			},
			{
				"x": -1.2123052694,
				"y": -2.1407250331,
				"z": 0.7735493378,
				"element": "N" 
			},
			{
				"x": -0.1890009609,
				"y": -2.9842605153,
				"z": 0.3791194985,
				"element": "C" 
			},
			{
				"x": -0.4338492672,
				"y": -4.0724696683,
				"z": -0.1220751786,
				"element": "O" 
			},
			{
				"x": 1.2210890805,
				"y": -2.4751126047,
				"z": 0.6465548099,
				"element": "C" 
			},
			{
				"x": 1.6569500911,
				"y": -1.2967494776,
				"z": -0.251985743,
				"element": "C" 
			},
			{
				"x": 0.5577931435,
				"y": -0.2283185099,
				"z": -0.4394288808,
				"element": "C" 
			},
			{
				"x": -1.8685063153,
				"y": -0.5303449483,
				"z": 2.4816839192,
				"element": "C" 
			},
			{
				"x": -1.7827335219,
				"y": 0.7322675925,
				"z": 3.0663684992,
				"element": "C" 
			},
			{
				"x": -1.3299600233,
				"y": 3.0233022676,
				"z": 3.8340478179,
				"element": "H" 
			},
			{
				"x": 0.5569680112,
				"y": 2.1059855066,
				"z": 1.0298005034,
				"element": "H" 
			},
			{
				"x": -2.1335489546,
				"y": -2.5520469948,
				"z": 0.6880206181,
				"element": "H" 
			},
			{
				"x": 1.8921702502,
				"y": -3.3255771569,
				"z": 0.5125662366,
				"element": "H" 
			},
			{
				"x": 1.275609708,
				"y": -2.1627472559,
				"z": 1.696285399,
				"element": "H" 
			},
			{
				"x": 2.5502630057,
				"y": -0.841728532,
				"z": 0.1911979385,
				"element": "H" 
			},
			{
				"x": 1.9496900586,
				"y": -1.6724707928,
				"z": -1.238671327,
				"element": "H" 
			},
			{
				"x": -0.1585800786,
				"y": -0.5985290614,
				"z": -1.1845394575,
				"element": "H" 
			},
			{
				"x": 0.999298618,
				"y": 0.6834220543,
				"z": -0.8537283936,
				"element": "H" 
			},
			{
				"x": -2.5438170264,
				"y": -1.2731211799,
				"z": 2.8973148799,
				"element": "H" 
			},
			{
				"x": -2.398245736,
				"y": 0.9750256334,
				"z": 3.9297023787,
				"element": "H" 
			}
		],
		 "valence_orbital": [ 
			{
				"type": "occ",
				"energy": -0.32896,
				"method": "rhf"
			},
			{
				"type": "occ",
				"energy": -0.27484,
				"method": "rhf"
			},
			{
				"type": "occ",
				"energy": -0.25477,
				"method": "rhf"
			},
			{
				"type": "occ",
				"energy": -0.24321,
				"method": "rhf"
			},
			{
				"type": "occ",
				"energy": -0.20941,
				"method": "rhf"
			},
			{
				"type": "unocc",
				"energy": -0.01144,
				"method": "rhf"
			},
			{
				"type": "unocc",
				"energy": -0.00227,
				"method": "rhf"
			},
			{
				"type": "unocc",
				"energy": 0.03587,
				"method": "rhf"
			},
			{
				"type": "unocc",
				"energy": 0.06533,
				"method": "rhf"
			},
			{
				"type": "unocc",
				"energy": 0.09146,
				"method": "rhf"
			}
		],
		"cosmo_sigma_profile": { 
			"-0.025": 0.0,
			"-0.024": 0.0,
			"-0.023": 0.0,
			"-0.022": 0.0,
			"-0.021": 0.0,
			"-0.02": 0.0,
			"-0.019": 0.0,
			"-0.018": 0.313119942082,
			"-0.017": 1.03829368664,
			"-0.016": 1.08768142827,
			"-0.015": 1.28726671394,
			"-0.014": 1.10817579355,
			"-0.013": 2.12698686885,
			"-0.012": 1.80526560973,
			"-0.011": 1.91933257299,
			"-0.01": 1.92047863788,
			"-0.009": 2.84614760887,
			"-0.008": 2.67112669257,
			"-0.007": 3.10021579366,
			"-0.006": 4.95211072206,
			"-0.005": 8.92186035306,
			"-0.004": 17.4774017165,
			"-0.003": 20.7683103873,
			"-0.002": 20.2683078896,
			"-0.001": 18.7717865905,
			"0.0": 13.8078234244,
			"0.001": 9.84873704168,
			"0.002": 9.11419689836,
			"0.003": 9.72874942308,
			"0.004": 12.0003740636,
			"0.005": 11.3316858686,
			"0.006": 3.19224675661,
			"0.007": 2.71034769974,
			"0.008": 2.68416294452,
			"0.009": 2.91252053603,
			"0.01": 2.46391160825,
			"0.011": 3.69762341573,
			"0.012": 3.01626738537,
			"0.013": 3.86032549026,
			"0.014": 5.48906993996,
			"0.015": 1.33475735466,
			"0.016": 0.00283119397261,
			"0.017": 0.0,
			"0.018": 0.0,
			"0.019": 0.0,
			"0.02": 0.0,
			"0.021": 0.0,
			"0.022": 0.0,
			"0.023": 0.0,
			"0.024": 0.0,
			"0.025": 0.0
		}
	}
}
