{
	 "smiles": "ClCC1=NC2=C(S1)N=CC=C2", 
	 "Tm": 339.15, 
	 "num_atms": 16, 
	 "gaussian": { 
		 "optdone": 1, 
		 "sigma_profile": "yes", 
		 "theory": "DFT", 
		 "functional": "B3LYP", 
		 "basiset": "6-31G**", 
		 "properties": { 
			 "R2extent": 3626.9099, 
			 "electric_dipole_moment_norm": 2.59880732068, 
			 "electric_quadrupole_moment_norm": 11.3418442332, 
			 "total_energy": -1237.64150224, 
			 "HOMO_LUMO_gap": 0.19106, 
			 "cosmo_polarized_energy": -8.47, 
			 "cosmo_cavitation_energy": 24.0, 
			 "cosmo_dispersion_energy": -18.61, 
			 "cosmo_repulsion_energy": 1.45, 
			 "cosmo_total_nonelectrostatic_energy": 6.84, 
			 "SMD_solvation_energy": -0.06 
		},
		"coords": [
			{
				"x": -2.9987113627,
				"y": 3.0172455996,
				"z": 2.5555546308,
				"element": "Cl" 
			},
			{
				"x": -1.2564627892,
				"y": 2.9971854817,
				"z": 2.0207686108,
				"element": "C" 
			},
			{
				"x": -1.0380993619,
				"y": 2.1331664546,
				"z": 0.8216758237,
				"element": "C" 
			},
			{
				"x": -0.3829115807,
				"y": 1.0146684499,
				"z": 0.8898214687,
				"element": "N" 
			},
			{
				"x": -0.2977505392,
				"y": 0.4223358283,
				"z": -0.3553131062,
				"element": "C" 
			},
			{
				"x": -0.9206412077,
				"y": 1.1288134152,
				"z": -1.4143525605,
				"element": "C" 
			},
			{
				"x": -1.6403549027,
				"y": 2.6055250457,
				"z": -0.7781977163,
				"element": "S" 
			},
			{
				"x": -0.9630399112,
				"y": 0.7474821805,
				"z": -2.6848658171,
				"element": "N" 
			},
			{
				"x": -0.3526352772,
				"y": -0.4122647548,
				"z": -2.9563508638,
				"element": "C" 
			},
			{
				"x": 0.2986798722,
				"y": -1.2031721606,
				"z": -1.9952018468,
				"element": "C" 
			},
			{
				"x": 0.3324725486,
				"y": -0.7872857315,
				"z": -0.6688473333,
				"element": "C" 
			},
			{
				"x": -0.6699389402,
				"y": 2.5976287021,
				"z": 2.8467305625,
				"element": "H" 
			},
			{
				"x": -0.9881362193,
				"y": 4.03741725,
				"z": 1.8322598918,
				"element": "H" 
			},
			{
				"x": -0.3824179389,
				"y": -0.7316952562,
				"z": -3.9956188403,
				"element": "H" 
			},
			{
				"x": 0.7694575239,
				"y": -2.132759557,
				"z": -2.2975695742,
				"element": "H" 
			},
			{
				"x": 0.8225900862,
				"y": -1.3652909474,
				"z": 0.1079066701,
				"element": "H" 
			}
		],
		 "valence_orbital": [ 
			{
				"type": "occ",
				"energy": -0.30676,
				"method": "rhf"
			},
			{
				"type": "occ",
				"energy": -0.30356,
				"method": "rhf"
			},
			{
				"type": "occ",
				"energy": -0.26799,
				"method": "rhf"
			},
			{
				"type": "occ",
				"energy": -0.26646,
				"method": "rhf"
			},
			{
				"type": "occ",
				"energy": -0.2583,
				"method": "rhf"
			},
			{
				"type": "unocc",
				"energy": -0.06724,
				"method": "rhf"
			},
			{
				"type": "unocc",
				"energy": -0.03134,
				"method": "rhf"
			},
			{
				"type": "unocc",
				"energy": 1e-05,
				"method": "rhf"
			},
			{
				"type": "unocc",
				"energy": 0.00319,
				"method": "rhf"
			},
			{
				"type": "unocc",
				"energy": 0.03835,
				"method": "rhf"
			}
		],
		"cosmo_sigma_profile": { 
			"-0.025": 0.0,
			"-0.024": 0.0,
			"-0.023": 0.0,
			"-0.022": 0.0,
			"-0.021": 0.0,
			"-0.02": 0.0,
			"-0.019": 0.0,
			"-0.018": 0.0,
			"-0.017": 0.0,
			"-0.016": 0.0,
			"-0.015": 0.0,
			"-0.014": 0.0,
			"-0.013": 0.0,
			"-0.012": 0.0,
			"-0.011": 0.0,
			"-0.01": 0.849227894693,
			"-0.009": 3.79016512055,
			"-0.008": 6.88158674141,
			"-0.007": 9.75308284719,
			"-0.006": 11.7628972285,
			"-0.005": 9.60049122048,
			"-0.004": 6.87884380954,
			"-0.003": 7.49195170995,
			"-0.002": 10.3436289053,
			"-0.001": 14.6643749928,
			"0.0": 21.7432556726,
			"0.001": 23.4163658003,
			"0.002": 17.7715299383,
			"0.003": 11.8129799962,
			"0.004": 9.72402696273,
			"0.005": 11.1637695594,
			"0.006": 6.83807461104,
			"0.007": 2.497531019,
			"0.008": 2.30303106832,
			"0.009": 1.52774259139,
			"0.01": 1.29690427998,
			"0.011": 2.27101647656,
			"0.012": 1.28622720478,
			"0.013": 1.67939440677,
			"0.014": 0.594200189421,
			"0.015": 0.224094761006,
			"0.016": 0.0,
			"0.017": 0.0,
			"0.018": 0.0,
			"0.019": 0.0,
			"0.02": 0.0,
			"0.021": 0.0,
			"0.022": 0.0,
			"0.023": 0.0,
			"0.024": 0.0,
			"0.025": 0.0
		}
	}
}
