{
	 "smiles": "COC(=O)C(CC1=CC=CC=C1)NC(=O)C(N)CC(O)=O", 
	 "Tm": 519.15, 
	 "num_atms": 39, 
	 "gaussian": { 
		 "optdone": 1, 
		 "sigma_profile": "yes", 
		 "theory": "DFT", 
		 "functional": "B3LYP", 
		 "basiset": "6-31G**", 
		 "properties": { 
			 "R2extent": 8904.2058, 
			 "electric_dipole_moment_norm": 8.11832671737, 
			 "electric_quadrupole_moment_norm": 44.349540702, 
			 "total_energy": -1029.99375157, 
			 "HOMO_LUMO_gap": 0.22389, 
			 "cosmo_polarized_energy": -28.33, 
			 "cosmo_cavitation_energy": 43.59, 
			 "cosmo_dispersion_energy": -29.12, 
			 "cosmo_repulsion_energy": 2.29, 
			 "cosmo_total_nonelectrostatic_energy": 16.76, 
			 "SMD_solvation_energy": 8.59 
		},
		"coords": [
			{
				"x": -4.0799205733,
				"y": -0.2410961594,
				"z": 2.6873927818,
				"element": "C" 
			},
			{
				"x": -3.2641317632,
				"y": 0.0135776157,
				"z": 1.5266594495,
				"element": "O" 
			},
			{
				"x": -1.9305208211,
				"y": -0.1730477825,
				"z": 1.7023766033,
				"element": "C" 
			},
			{
				"x": -1.4315056056,
				"y": -0.507677632,
				"z": 2.7487113666,
				"element": "O" 
			},
			{
				"x": -1.1570315956,
				"y": 0.1497801266,
				"z": 0.4304407715,
				"element": "C" 
			},
			{
				"x": -0.7994319228,
				"y": 1.665374647,
				"z": 0.3568853791,
				"element": "C" 
			},
			{
				"x": 0.167723507,
				"y": 2.1220698169,
				"z": 1.4256632915,
				"element": "C" 
			},
			{
				"x": -0.2725897939,
				"y": 2.8370985743,
				"z": 2.5456118404,
				"element": "C" 
			},
			{
				"x": 0.6277161172,
				"y": 3.2475079403,
				"z": 3.5302609186,
				"element": "C" 
			},
			{
				"x": 1.9840998796,
				"y": 2.9449202748,
				"z": 3.4070196513,
				"element": "C" 
			},
			{
				"x": 2.4353092917,
				"y": 2.2331663984,
				"z": 2.2929985902,
				"element": "C" 
			},
			{
				"x": 1.5337840793,
				"y": 1.8273994988,
				"z": 1.309897318,
				"element": "C" 
			},
			{
				"x": -1.9193624002,
				"y": -0.2695922399,
				"z": -0.7432974263,
				"element": "N" 
			},
			{
				"x": -1.3158878164,
				"y": -0.6208901465,
				"z": -1.902523776,
				"element": "C" 
			},
			{
				"x": -0.0835349353,
				"y": -0.6327120676,
				"z": -2.0107998777,
				"element": "O" 
			},
			{
				"x": -2.2664304225,
				"y": -0.9876137451,
				"z": -3.0589086528,
				"element": "C" 
			},
			{
				"x": -3.0059251863,
				"y": 0.2313101801,
				"z": -3.4293777904,
				"element": "N" 
			},
			{
				"x": -1.4943451935,
				"y": -1.4677042122,
				"z": -4.3002975684,
				"element": "C" 
			},
			{
				"x": -0.8625532472,
				"y": -2.8572179737,
				"z": -4.171424868,
				"element": "C" 
			},
			{
				"x": 0.2146231206,
				"y": -2.9411397617,
				"z": -3.373772828,
				"element": "O" 
			},
			{
				"x": -1.298247105,
				"y": -3.8238101618,
				"z": -4.7547515594,
				"element": "O" 
			},
			{
				"x": -5.1054369122,
				"y": -0.0444423652,
				"z": 2.3763042452,
				"element": "H" 
			},
			{
				"x": -3.9664211341,
				"y": -1.277824502,
				"z": 3.0120271065,
				"element": "H" 
			},
			{
				"x": -3.7904603993,
				"y": 0.4209904238,
				"z": 3.5061877098,
				"element": "H" 
			},
			{
				"x": -0.2318046465,
				"y": -0.4283625315,
				"z": 0.4560904999,
				"element": "H" 
			},
			{
				"x": -0.3634269263,
				"y": 1.8198191367,
				"z": -0.6350176335,
				"element": "H" 
			},
			{
				"x": -1.7287962776,
				"y": 2.2437445432,
				"z": 0.4004664562,
				"element": "H" 
			},
			{
				"x": -1.3278585772,
				"y": 3.0806491395,
				"z": 2.6453126214,
				"element": "H" 
			},
			{
				"x": 0.2692694754,
				"y": 3.8043304245,
				"z": 4.3913799365,
				"element": "H" 
			},
			{
				"x": 2.6863339002,
				"y": 3.2641579598,
				"z": 4.1716296891,
				"element": "H" 
			},
			{
				"x": 3.4906124815,
				"y": 1.9984378339,
				"z": 2.1872944171,
				"element": "H" 
			},
			{
				"x": 1.8905725904,
				"y": 1.2805735769,
				"z": 0.4400271783,
				"element": "H" 
			},
			{
				"x": -2.9257414554,
				"y": -0.2766354077,
				"z": -0.6584603978,
				"element": "H" 
			},
			{
				"x": -2.9177358821,
				"y": -1.8089124606,
				"z": -2.7075567527,
				"element": "H" 
			},
			{
				"x": -3.5895192999,
				"y": 0.5605743112,
				"z": -2.66510516,
				"element": "H" 
			},
			{
				"x": -3.6320359271,
				"y": 0.0219411643,
				"z": -4.2031499932,
				"element": "H" 
			},
			{
				"x": -2.194749204,
				"y": -1.5311937711,
				"z": -5.136062184,
				"element": "H" 
			},
			{
				"x": -0.732606878,
				"y": -0.7196107221,
				"z": -4.540675906,
				"element": "H" 
			},
			{
				"x": 0.3655674585,
				"y": -2.0712399442,
				"z": -2.9388554475,
				"element": "H" 
			}
		],
		 "valence_orbital": [ 
			{
				"type": "occ",
				"energy": -0.28263,
				"method": "rhf"
			},
			{
				"type": "occ",
				"energy": -0.26201,
				"method": "rhf"
			},
			{
				"type": "occ",
				"energy": -0.2531,
				"method": "rhf"
			},
			{
				"type": "occ",
				"energy": -0.25044,
				"method": "rhf"
			},
			{
				"type": "occ",
				"energy": -0.24559,
				"method": "rhf"
			},
			{
				"type": "unocc",
				"energy": -0.0217,
				"method": "rhf"
			},
			{
				"type": "unocc",
				"energy": -0.00903,
				"method": "rhf"
			},
			{
				"type": "unocc",
				"energy": -0.00394,
				"method": "rhf"
			},
			{
				"type": "unocc",
				"energy": -0.00348,
				"method": "rhf"
			},
			{
				"type": "unocc",
				"energy": 0.02378,
				"method": "rhf"
			}
		],
		"cosmo_sigma_profile": { 
			"-0.025": 0.0,
			"-0.024": 0.0,
			"-0.023": 0.0,
			"-0.022": 0.0,
			"-0.021": 0.0,
			"-0.02": 0.0,
			"-0.019": 0.0,
			"-0.018": 0.0,
			"-0.017": 0.0,
			"-0.016": 0.468806490486,
			"-0.015": 0.873560978026,
			"-0.014": 1.35073445952,
			"-0.013": 1.31876469489,
			"-0.012": 1.43154192913,
			"-0.011": 3.01288753098,
			"-0.01": 3.73254276743,
			"-0.009": 3.79501708833,
			"-0.008": 4.03802348614,
			"-0.007": 9.37818678435,
			"-0.006": 20.6278714899,
			"-0.005": 32.9833112219,
			"-0.004": 35.4176332086,
			"-0.003": 31.7975517965,
			"-0.002": 24.9132877647,
			"-0.001": 16.8125732622,
			"0.0": 14.2537207218,
			"0.001": 15.3604589646,
			"0.002": 13.02808371,
			"0.003": 12.2021448284,
			"0.004": 13.8783163438,
			"0.005": 13.2413441596,
			"0.006": 12.5512775539,
			"0.007": 7.5525233725,
			"0.008": 6.16720090125,
			"0.009": 7.02236908333,
			"0.01": 8.01878498901,
			"0.011": 11.3354018174,
			"0.012": 8.56008535491,
			"0.013": 5.20908152034,
			"0.014": 1.70303083423,
			"0.015": 0.58270218169,
			"0.016": 0.407851026391,
			"0.017": 0.387187274096,
			"0.018": 0.250846346646,
			"0.019": 0.0,
			"0.02": 0.0,
			"0.021": 0.0,
			"0.022": 0.0,
			"0.023": 0.0,
			"0.024": 0.0,
			"0.025": 0.0
		}
	}
}
