{
	 "smiles": "CNC(=O)CNC(=S)NN", 
	 "Tm": 430.15, 
	 "num_atms": 20, 
	 "gaussian": { 
		 "optdone": 1, 
		 "sigma_profile": "yes", 
		 "theory": "DFT", 
		 "functional": "B3LYP", 
		 "basiset": "6-31G**", 
		 "properties": { 
			 "R2extent": 2579.0334, 
			 "electric_dipole_moment_norm": 2.23870968417, 
			 "electric_quadrupole_moment_norm": 14.5972629592, 
			 "total_energy": -850.864796448, 
			 "HOMO_LUMO_gap": 0.20945, 
			 "cosmo_polarized_energy": -19.77, 
			 "cosmo_cavitation_energy": 25.26, 
			 "cosmo_dispersion_energy": -18.83, 
			 "cosmo_repulsion_energy": 1.53, 
			 "cosmo_total_nonelectrostatic_energy": 7.96, 
			 "SMD_solvation_energy": 4.1 
		},
		"coords": [
			{
				"x": -2.0629262314,
				"y": 0.5825201551,
				"z": 2.0418938023,
				"element": "C" 
			},
			{
				"x": -1.6776422908,
				"y": 0.8711138232,
				"z": 0.6721533524,
				"element": "N" 
			},
			{
				"x": -1.8144125109,
				"y": -0.03905383,
				"z": -0.3275263384,
				"element": "C" 
			},
			{
				"x": -2.3184705707,
				"y": -1.1502922553,
				"z": -0.1990404689,
				"element": "O" 
			},
			{
				"x": -1.255524111,
				"y": 0.4252917217,
				"z": -1.6869235489,
				"element": "C" 
			},
			{
				"x": 0.1955845124,
				"y": 0.2960163452,
				"z": -1.7685961133,
				"element": "N" 
			},
			{
				"x": 1.089666753,
				"y": 1.2716845476,
				"z": -1.458266945,
				"element": "C" 
			},
			{
				"x": 0.6682893551,
				"y": 2.8292008576,
				"z": -0.9531716808,
				"element": "S" 
			},
			{
				"x": 2.3947145542,
				"y": 0.8909723992,
				"z": -1.5959805807,
				"element": "N" 
			},
			{
				"x": 3.4905937267,
				"y": 1.7521097891,
				"z": -1.4317805381,
				"element": "N" 
			},
			{
				"x": -2.7338212901,
				"y": 1.3566582779,
				"z": 2.428773682,
				"element": "H" 
			},
			{
				"x": -1.188214609,
				"y": 0.5177242046,
				"z": 2.6999532541,
				"element": "H" 
			},
			{
				"x": -2.5812822666,
				"y": -0.3769136815,
				"z": 2.04554115,
				"element": "H" 
			},
			{
				"x": -1.1718295944,
				"y": 1.7268560845,
				"z": 0.4629149958,
				"element": "H" 
			},
			{
				"x": -1.5086032667,
				"y": 1.4679958001,
				"z": -1.8893983025,
				"element": "H" 
			},
			{
				"x": -1.7009568282,
				"y": -0.2158868235,
				"z": -2.449865173,
				"element": "H" 
			},
			{
				"x": 0.5454268726,
				"y": -0.6491671807,
				"z": -1.8644023557,
				"element": "H" 
			},
			{
				"x": 2.6144252395,
				"y": 0.0601131714,
				"z": -2.129132089,
				"element": "H" 
			},
			{
				"x": 3.5645625192,
				"y": 1.9702743746,
				"z": -0.4386698904,
				"element": "H" 
			},
			{
				"x": 3.2634200372,
				"y": 2.6369822191,
				"z": -1.8880762118,
				"element": "H" 
			}
		],
		 "valence_orbital": [ 
			{
				"type": "occ",
				"energy": -0.28114,
				"method": "rhf"
			},
			{
				"type": "occ",
				"energy": -0.24829,
				"method": "rhf"
			},
			{
				"type": "occ",
				"energy": -0.24341,
				"method": "rhf"
			},
			{
				"type": "occ",
				"energy": -0.23411,
				"method": "rhf"
			},
			{
				"type": "occ",
				"energy": -0.22548,
				"method": "rhf"
			},
			{
				"type": "unocc",
				"energy": -0.01603,
				"method": "rhf"
			},
			{
				"type": "unocc",
				"energy": 0.02215,
				"method": "rhf"
			},
			{
				"type": "unocc",
				"energy": 0.04875,
				"method": "rhf"
			},
			{
				"type": "unocc",
				"energy": 0.08131,
				"method": "rhf"
			},
			{
				"type": "unocc",
				"energy": 0.09369,
				"method": "rhf"
			}
		],
		"cosmo_sigma_profile": { 
			"-0.025": 0.0,
			"-0.024": 0.0,
			"-0.023": 0.0,
			"-0.022": 0.0,
			"-0.021": 0.0,
			"-0.02": 0.0,
			"-0.019": 0.00239764262368,
			"-0.018": 0.782719423186,
			"-0.017": 1.65949175894,
			"-0.016": 2.34308036632,
			"-0.015": 2.07055082314,
			"-0.014": 1.6458733623,
			"-0.013": 1.72728809209,
			"-0.012": 1.38423045908,
			"-0.011": 3.12629053596,
			"-0.01": 3.14942873566,
			"-0.009": 3.06328505042,
			"-0.008": 4.00822665141,
			"-0.007": 4.86414062344,
			"-0.006": 7.11180955049,
			"-0.005": 10.8138127015,
			"-0.004": 14.2702856059,
			"-0.003": 15.1991797951,
			"-0.002": 14.0983207815,
			"-0.001": 13.3828879366,
			"0.0": 9.9979259676,
			"0.001": 9.94189947888,
			"0.002": 9.11470133173,
			"0.003": 7.66597358805,
			"0.004": 6.77458287987,
			"0.005": 6.91801433084,
			"0.006": 4.68241897793,
			"0.007": 5.94202784852,
			"0.008": 4.85626767264,
			"0.009": 6.09386106836,
			"0.01": 6.55902895075,
			"0.011": 4.07204446064,
			"0.012": 2.21970289732,
			"0.013": 3.79575498641,
			"0.014": 5.25862537676,
			"0.015": 1.98704657353,
			"0.016": 0.281168605457,
			"0.017": 0.0,
			"0.018": 0.0,
			"0.019": 0.0,
			"0.02": 0.0,
			"0.021": 0.0,
			"0.022": 0.0,
			"0.023": 0.0,
			"0.024": 0.0,
			"0.025": 0.0
		}
	}
}
