{
	 "smiles": "CCOC(=O)C1=CC2=C(N1)C=C(C)C=C2C", 
	 "Tm": 393.15, 
	 "num_atms": 31, 
	 "gaussian": { 
		 "optdone": 1, 
		 "sigma_profile": "yes", 
		 "theory": "DFT", 
		 "functional": "B3LYP", 
		 "basiset": "6-31G**", 
		 "properties": { 
			 "R2extent": 5892.7056, 
			 "electric_dipole_moment_norm": 2.67656852892, 
			 "electric_quadrupole_moment_norm": 13.1286509158, 
			 "total_energy": -709.666275383, 
			 "HOMO_LUMO_gap": 0.16255, 
			 "cosmo_polarized_energy": -10.38, 
			 "cosmo_cavitation_energy": 34.71, 
			 "cosmo_dispersion_energy": -25.03, 
			 "cosmo_repulsion_energy": 1.97, 
			 "cosmo_total_nonelectrostatic_energy": 11.65, 
			 "SMD_solvation_energy": 6.65 
		},
		"coords": [
			{
				"x": 3.5124174181,
				"y": 3.1319796655,
				"z": 2.9049404205,
				"element": "C" 
			},
			{
				"x": 2.6204653952,
				"y": 3.252568399,
				"z": 1.678232657,
				"element": "C" 
			},
			{
				"x": 1.6442381872,
				"y": 2.1860979497,
				"z": 1.6288569531,
				"element": "O" 
			},
			{
				"x": 2.0552785294,
				"y": 1.0182377377,
				"z": 1.0569854864,
				"element": "C" 
			},
			{
				"x": 3.1655289819,
				"y": 0.8402868515,
				"z": 0.5936753889,
				"element": "O" 
			},
			{
				"x": 0.98443928,
				"y": 0.0221974436,
				"z": 1.0746263681,
				"element": "C" 
			},
			{
				"x": 1.010871262,
				"y": -1.2708184414,
				"z": 0.593775228,
				"element": "C" 
			},
			{
				"x": -0.2745083236,
				"y": -1.8385885023,
				"z": 0.8439735397,
				"element": "C" 
			},
			{
				"x": -1.0545846146,
				"y": -0.8357405508,
				"z": 1.4875320897,
				"element": "C" 
			},
			{
				"x": -0.2671166606,
				"y": 0.2806278731,
				"z": 1.6147795905,
				"element": "N" 
			},
			{
				"x": -2.3835663564,
				"y": -1.0542845276,
				"z": 1.8809154624,
				"element": "C" 
			},
			{
				"x": -2.9407598308,
				"y": -2.2998039624,
				"z": 1.6248573157,
				"element": "C" 
			},
			{
				"x": -4.3660801779,
				"y": -2.6069138133,
				"z": 2.0201823114,
				"element": "C" 
			},
			{
				"x": -2.1650918243,
				"y": -3.3033699275,
				"z": 0.9826770147,
				"element": "C" 
			},
			{
				"x": -0.8512815798,
				"y": -3.1078714668,
				"z": 0.5863221757,
				"element": "C" 
			},
			{
				"x": -0.0520316625,
				"y": -4.1901134033,
				"z": -0.0927178153,
				"element": "C" 
			},
			{
				"x": 4.1918333922,
				"y": 3.9894168449,
				"z": 2.9562652121,
				"element": "H" 
			},
			{
				"x": 2.9157785875,
				"y": 3.1112978616,
				"z": 3.821850643,
				"element": "H" 
			},
			{
				"x": 4.1131393112,
				"y": 2.220884687,
				"z": 2.8522636408,
				"element": "H" 
			},
			{
				"x": 3.2109998735,
				"y": 3.2292880207,
				"z": 0.7593902569,
				"element": "H" 
			},
			{
				"x": 2.0242348593,
				"y": 4.1681799441,
				"z": 1.7035993661,
				"element": "H" 
			},
			{
				"x": 1.8656661592,
				"y": -1.7318386195,
				"z": 0.1216462157,
				"element": "H" 
			},
			{
				"x": -0.5237451509,
				"y": 1.1634497759,
				"z": 2.0262770695,
				"element": "H" 
			},
			{
				"x": -2.9610018497,
				"y": -0.2748736382,
				"z": 2.3707018303,
				"element": "H" 
			},
			{
				"x": -4.9715157029,
				"y": -2.8799070048,
				"z": 1.1476881212,
				"element": "H" 
			},
			{
				"x": -4.4128842964,
				"y": -3.4519731408,
				"z": 2.7173549375,
				"element": "H" 
			},
			{
				"x": -4.8429933077,
				"y": -1.7491713453,
				"z": 2.5025228232,
				"element": "H" 
			},
			{
				"x": -2.6296249806,
				"y": -4.2693069269,
				"z": 0.7956109192,
				"element": "H" 
			},
			{
				"x": -0.6417158446,
				"y": -5.1023567096,
				"z": -0.2157833241,
				"element": "H" 
			},
			{
				"x": 0.2876584164,
				"y": -3.8706440254,
				"z": -1.0852798761,
				"element": "H" 
			},
			{
				"x": 0.8456525101,
				"y": -4.4431370483,
				"z": 0.4841779785,
				"element": "H" 
			}
		],
		 "valence_orbital": [ 
			{
				"type": "occ",
				"energy": -0.29713,
				"method": "rhf"
			},
			{
				"type": "occ",
				"energy": -0.27227,
				"method": "rhf"
			},
			{
				"type": "occ",
				"energy": -0.27177,
				"method": "rhf"
			},
			{
				"type": "occ",
				"energy": -0.21997,
				"method": "rhf"
			},
			{
				"type": "occ",
				"energy": -0.20333,
				"method": "rhf"
			},
			{
				"type": "unocc",
				"energy": -0.04078,
				"method": "rhf"
			},
			{
				"type": "unocc",
				"energy": 0.02157,
				"method": "rhf"
			},
			{
				"type": "unocc",
				"energy": 0.03275,
				"method": "rhf"
			},
			{
				"type": "unocc",
				"energy": 0.08948,
				"method": "rhf"
			},
			{
				"type": "unocc",
				"energy": 0.10574,
				"method": "rhf"
			}
		],
		"cosmo_sigma_profile": { 
			"-0.025": 0.0,
			"-0.024": 0.0,
			"-0.023": 0.0,
			"-0.022": 0.0,
			"-0.021": 0.0,
			"-0.02": 0.0,
			"-0.019": 0.0,
			"-0.018": 0.0,
			"-0.017": 0.0,
			"-0.016": 0.0,
			"-0.015": 0.413715892523,
			"-0.014": 0.953867743573,
			"-0.013": 1.33328226952,
			"-0.012": 0.439545887492,
			"-0.011": 0.7956894973,
			"-0.01": 0.829182725358,
			"-0.009": 1.12601866233,
			"-0.008": 1.3131264589,
			"-0.007": 1.48665177523,
			"-0.006": 4.23163658906,
			"-0.005": 9.91510261021,
			"-0.004": 25.4485337103,
			"-0.003": 30.118712599,
			"-0.002": 30.2579698836,
			"-0.001": 28.8718223224,
			"0.0": 31.4647267739,
			"0.001": 20.3027919192,
			"0.002": 13.3774387627,
			"0.003": 16.1949774695,
			"0.004": 16.2166296535,
			"0.005": 14.946042977,
			"0.006": 9.39028903917,
			"0.007": 2.19495810897,
			"0.008": 1.14245410747,
			"0.009": 1.83069347578,
			"0.01": 1.67335569846,
			"0.011": 2.34519810474,
			"0.012": 4.5272164618,
			"0.013": 1.25582800808,
			"0.014": 0.0,
			"0.015": 0.0,
			"0.016": 0.0,
			"0.017": 0.0,
			"0.018": 0.0,
			"0.019": 0.0,
			"0.02": 0.0,
			"0.021": 0.0,
			"0.022": 0.0,
			"0.023": 0.0,
			"0.024": 0.0,
			"0.025": 0.0
		}
	}
}
