{
	 "smiles": "ClS(=O)(=O)C1=CC(Br)=CC2=C1OCC2", 
	 "Tm": 395.15, 
	 "num_atms": 20, 
	 "gaussian": { 
		 "optdone": 1, 
		 "sigma_profile": "yes", 
		 "theory": "DFT", 
		 "functional": "B3LYP", 
		 "basiset": "6-31G**", 
		 "properties": { 
			 "R2extent": 10951.1852, 
			 "electric_dipole_moment_norm": 6.82589151467, 
			 "electric_quadrupole_moment_norm": 19.9689604444, 
			 "total_energy": -3963.84008797, 
			 "HOMO_LUMO_gap": 0.15584, 
			 "cosmo_polarized_energy": -12.48, 
			 "cosmo_cavitation_energy": 29.89, 
			 "cosmo_dispersion_energy": -22.82, 
			 "cosmo_repulsion_energy": 1.78, 
			 "cosmo_total_nonelectrostatic_energy": 8.85, 
			 "SMD_solvation_energy": 2.69 
		},
		"coords": [
			{
				"x": 1.1809313159,
				"y": 2.3410469703,
				"z": 5.1654481983,
				"element": "Cl" 
			},
			{
				"x": 2.4675510068,
				"y": 1.625019538,
				"z": 3.6234548922,
				"element": "S" 
			},
			{
				"x": 3.6925641135,
				"y": 1.1902540806,
				"z": 4.2837832615,
				"element": "O" 
			},
			{
				"x": 2.4697107117,
				"y": 2.6438698734,
				"z": 2.5844460376,
				"element": "O" 
			},
			{
				"x": 1.5816634768,
				"y": 0.1829934029,
				"z": 3.0723567647,
				"element": "C" 
			},
			{
				"x": 2.1144103319,
				"y": -1.0815714173,
				"z": 3.367893138,
				"element": "C" 
			},
			{
				"x": 1.4549750737,
				"y": -2.2189878588,
				"z": 2.9195952134,
				"element": "C" 
			},
			{
				"x": 2.1801803309,
				"y": -3.9383014672,
				"z": 3.3151884852,
				"element": "Br" 
			},
			{
				"x": 0.2653280846,
				"y": -2.1315230618,
				"z": 2.1790527937,
				"element": "C" 
			},
			{
				"x": -0.2566716625,
				"y": -0.8795330334,
				"z": 1.9014900378,
				"element": "C" 
			},
			{
				"x": 0.3935685055,
				"y": 0.2801221869,
				"z": 2.3450995555,
				"element": "C" 
			},
			{
				"x": -0.2344597684,
				"y": 1.422221414,
				"z": 2.0111641061,
				"element": "O" 
			},
			{
				"x": -1.5177516386,
				"y": 1.0717524131,
				"z": 1.4123154351,
				"element": "C" 
			},
			{
				"x": -1.4747624144,
				"y": -0.4475460198,
				"z": 1.1151447432,
				"element": "C" 
			},
			{
				"x": 3.0321159874,
				"y": -1.1505463732,
				"z": 3.9382168658,
				"element": "H" 
			},
			{
				"x": -0.2278075531,
				"y": -3.0350304478,
				"z": 1.8374375586,
				"element": "H" 
			},
			{
				"x": -1.637423627,
				"y": 1.6933290932,
				"z": 0.5238413866,
				"element": "H" 
			},
			{
				"x": -2.2948017803,
				"y": 1.3291905221,
				"z": 2.1384704664,
				"element": "H" 
			},
			{
				"x": -2.3914154808,
				"y": -0.9508576776,
				"z": 1.435728225,
				"element": "H" 
			},
			{
				"x": -1.3435050136,
				"y": -0.6487021376,
				"z": 0.0456728354,
				"element": "H" 
			}
		],
		 "valence_orbital": [ 
			{
				"type": "occ",
				"energy": -0.30978,
				"method": "rhf"
			},
			{
				"type": "occ",
				"energy": -0.30861,
				"method": "rhf"
			},
			{
				"type": "occ",
				"energy": -0.30242,
				"method": "rhf"
			},
			{
				"type": "occ",
				"energy": -0.29099,
				"method": "rhf"
			},
			{
				"type": "occ",
				"energy": -0.24298,
				"method": "rhf"
			},
			{
				"type": "unocc",
				"energy": -0.08714,
				"method": "rhf"
			},
			{
				"type": "unocc",
				"energy": -0.0504,
				"method": "rhf"
			},
			{
				"type": "unocc",
				"energy": -0.03017,
				"method": "rhf"
			},
			{
				"type": "unocc",
				"energy": -0.00939,
				"method": "rhf"
			},
			{
				"type": "unocc",
				"energy": 0.04834,
				"method": "rhf"
			}
		],
		"cosmo_sigma_profile": { 
			"-0.025": 0.0,
			"-0.024": 0.0,
			"-0.023": 0.0,
			"-0.022": 0.0,
			"-0.021": 0.0,
			"-0.02": 0.0,
			"-0.019": 0.0,
			"-0.018": 0.0,
			"-0.017": 0.0,
			"-0.016": 0.0,
			"-0.015": 0.0,
			"-0.014": 0.0,
			"-0.013": 0.0,
			"-0.012": 0.0,
			"-0.011": 0.0,
			"-0.01": 0.0,
			"-0.009": 0.516217336571,
			"-0.008": 2.85462687239,
			"-0.007": 10.5616443298,
			"-0.006": 19.7186552479,
			"-0.005": 17.3894486706,
			"-0.004": 16.653490082,
			"-0.003": 14.2639066907,
			"-0.002": 13.8337516329,
			"-0.001": 18.0446337749,
			"0.0": 20.6771298072,
			"0.001": 17.4548321217,
			"0.002": 14.1755736098,
			"0.003": 22.3103721858,
			"0.004": 21.4239446958,
			"0.005": 5.4711992727,
			"0.006": 4.96451535735,
			"0.007": 6.26888833493,
			"0.008": 11.8297453052,
			"0.009": 5.79644892078,
			"0.01": 1.48925498517,
			"0.011": 0.0650315599972,
			"0.012": 0.0,
			"0.013": 0.0,
			"0.014": 0.0,
			"0.015": 0.0,
			"0.016": 0.0,
			"0.017": 0.0,
			"0.018": 0.0,
			"0.019": 0.0,
			"0.02": 0.0,
			"0.021": 0.0,
			"0.022": 0.0,
			"0.023": 0.0,
			"0.024": 0.0,
			"0.025": 0.0
		}
	}
}
