{
	 "smiles": "CC1CCCC2(C)CC3OC(=O)C(=C)C3C=C12", 
	 "Tm": 349.15, 
	 "num_atms": 37, 
	 "gaussian": { 
		 "optdone": 1, 
		 "sigma_profile": "yes", 
		 "theory": "DFT", 
		 "functional": "B3LYP", 
		 "basiset": "6-31G**", 
		 "properties": { 
			 "R2extent": 4512.7746, 
			 "electric_dipole_moment_norm": 5.41275848898, 
			 "electric_quadrupole_moment_norm": 19.36698353, 
			 "total_energy": -734.076932973, 
			 "HOMO_LUMO_gap": 0.20239, 
			 "cosmo_polarized_energy": -10.1, 
			 "cosmo_cavitation_energy": 35.87, 
			 "cosmo_dispersion_energy": -25.24, 
			 "cosmo_repulsion_energy": 1.92, 
			 "cosmo_total_nonelectrostatic_energy": 12.55, 
			 "SMD_solvation_energy": 6.87 
		},
		"coords": [
			{
				"x": -0.9001001864,
				"y": 1.5336947621,
				"z": 2.6010230465,
				"element": "C" 
			},
			{
				"x": -0.7808509231,
				"y": 1.9273860445,
				"z": 1.1266734947,
				"element": "C" 
			},
			{
				"x": -2.1342759751,
				"y": 2.4741314914,
				"z": 0.5727113503,
				"element": "C" 
			},
			{
				"x": -2.2374150071,
				"y": 2.3513188301,
				"z": -0.9628758614,
				"element": "C" 
			},
			{
				"x": -0.8625697219,
				"y": 2.52161374,
				"z": -1.6184074818,
				"element": "C" 
			},
			{
				"x": 0.1292952179,
				"y": 1.3849323174,
				"z": -1.2002660628,
				"element": "C" 
			},
			{
				"x": 1.5507275332,
				"y": 1.9967833903,
				"z": -1.1001102883,
				"element": "C" 
			},
			{
				"x": 0.1394542588,
				"y": 0.2682593934,
				"z": -2.2942640178,
				"element": "C" 
			},
			{
				"x": 0.7427833464,
				"y": -0.977746354,
				"z": -1.6852747729,
				"element": "C" 
			},
			{
				"x": 0.9293398288,
				"y": -2.1166330292,
				"z": -2.5608254276,
				"element": "O" 
			},
			{
				"x": 0.9452507139,
				"y": -3.2465670822,
				"z": -1.7722513549,
				"element": "C" 
			},
			{
				"x": 1.2892638863,
				"y": -4.3240930927,
				"z": -2.1868644017,
				"element": "O" 
			},
			{
				"x": 0.4600291427,
				"y": -2.8756827005,
				"z": -0.3916434767,
				"element": "C" 
			},
			{
				"x": 0.6022642317,
				"y": -3.6731239906,
				"z": 0.665351781,
				"element": "C" 
			},
			{
				"x": -0.1489282147,
				"y": -1.5118484897,
				"z": -0.572642361,
				"element": "C" 
			},
			{
				"x": -0.3541567699,
				"y": -0.4696936753,
				"z": 0.4873746791,
				"element": "C" 
			},
			{
				"x": -0.2989224805,
				"y": 0.8383932709,
				"z": 0.1835920239,
				"element": "C" 
			},
			{
				"x": -1.2130620091,
				"y": 2.3969298021,
				"z": 3.1977241098,
				"element": "H" 
			},
			{
				"x": -1.6492436014,
				"y": 0.7484222841,
				"z": 2.750023602,
				"element": "H" 
			},
			{
				"x": 0.0534741301,
				"y": 1.1745432583,
				"z": 3.0011299378,
				"element": "H" 
			},
			{
				"x": -0.056400957,
				"y": 2.7513724283,
				"z": 1.0714742508,
				"element": "H" 
			},
			{
				"x": -2.2418955792,
				"y": 3.5224416248,
				"z": 0.8778444209,
				"element": "H" 
			},
			{
				"x": -2.9600531398,
				"y": 1.9253301677,
				"z": 1.0413803585,
				"element": "H" 
			},
			{
				"x": -2.9463178855,
				"y": 3.0879203287,
				"z": -1.3567512238,
				"element": "H" 
			},
			{
				"x": -2.6396296464,
				"y": 1.3649723387,
				"z": -1.2267618979,
				"element": "H" 
			},
			{
				"x": -0.4490155469,
				"y": 3.4957282045,
				"z": -1.3276926652,
				"element": "H" 
			},
			{
				"x": -0.9469244646,
				"y": 2.5430059716,
				"z": -2.7112322342,
				"element": "H" 
			},
			{
				"x": 2.3144992573,
				"y": 1.245863003,
				"z": -0.8799908573,
				"element": "H" 
			},
			{
				"x": 1.8154448719,
				"y": 2.4819048386,
				"z": -2.04648041,
				"element": "H" 
			},
			{
				"x": 1.6037486362,
				"y": 2.7567983073,
				"z": -0.3149405077,
				"element": "H" 
			},
			{
				"x": -0.8811807123,
				"y": 0.0518561667,
				"z": -2.6333033673,
				"element": "H" 
			},
			{
				"x": 0.7082732786,
				"y": 0.6142316586,
				"z": -3.1642229882,
				"element": "H" 
			},
			{
				"x": 1.7290210798,
				"y": -0.7403929168,
				"z": -1.2674530936,
				"element": "H" 
			},
			{
				"x": 1.0805588437,
				"y": -4.6413656956,
				"z": 0.5519891828,
				"element": "H" 
			},
			{
				"x": 0.255229119,
				"y": -3.3900289402,
				"z": 1.6543849613,
				"element": "H" 
			},
			{
				"x": -1.1337311695,
				"y": -1.7023862961,
				"z": -1.0393187469,
				"element": "H" 
			},
			{
				"x": -0.6748833862,
				"y": -0.7915713602,
				"z": 1.4744962997,
				"element": "H" 
			}
		],
		 "valence_orbital": [ 
			{
				"type": "occ",
				"energy": -0.30271,
				"method": "rhf"
			},
			{
				"type": "occ",
				"energy": -0.28735,
				"method": "rhf"
			},
			{
				"type": "occ",
				"energy": -0.27798,
				"method": "rhf"
			},
			{
				"type": "occ",
				"energy": -0.26064,
				"method": "rhf"
			},
			{
				"type": "occ",
				"energy": -0.24273,
				"method": "rhf"
			},
			{
				"type": "unocc",
				"energy": -0.04034,
				"method": "rhf"
			},
			{
				"type": "unocc",
				"energy": 0.00596,
				"method": "rhf"
			},
			{
				"type": "unocc",
				"energy": 0.07085,
				"method": "rhf"
			},
			{
				"type": "unocc",
				"energy": 0.07267,
				"method": "rhf"
			},
			{
				"type": "unocc",
				"energy": 0.09037,
				"method": "rhf"
			}
		],
		"cosmo_sigma_profile": { 
			"-0.025": 0.0,
			"-0.024": 0.0,
			"-0.023": 0.0,
			"-0.022": 0.0,
			"-0.021": 0.0,
			"-0.02": 0.0,
			"-0.019": 0.0,
			"-0.018": 0.0,
			"-0.017": 0.0,
			"-0.016": 0.0,
			"-0.015": 0.0,
			"-0.014": 0.0,
			"-0.013": 0.0,
			"-0.012": 0.0,
			"-0.011": 0.0,
			"-0.01": 0.0,
			"-0.009": 0.0,
			"-0.008": 0.0,
			"-0.007": 1.16303504631,
			"-0.006": 7.19590914504,
			"-0.005": 11.5884746996,
			"-0.004": 17.3200779313,
			"-0.003": 29.7700988323,
			"-0.002": 43.421639541,
			"-0.001": 40.8688892893,
			"0.0": 36.4941126372,
			"0.001": 31.7782826922,
			"0.002": 13.6637421327,
			"0.003": 8.59265636554,
			"0.004": 5.93322999967,
			"0.005": 2.83981624267,
			"0.006": 2.95610073905,
			"0.007": 2.70002287855,
			"0.008": 2.57196380298,
			"0.009": 4.32523258364,
			"0.01": 4.46923480177,
			"0.011": 5.51107882201,
			"0.012": 4.83419042382,
			"0.013": 0.941816832336,
			"0.014": 0.0,
			"0.015": 0.0,
			"0.016": 0.0,
			"0.017": 0.0,
			"0.018": 0.0,
			"0.019": 0.0,
			"0.02": 0.0,
			"0.021": 0.0,
			"0.022": 0.0,
			"0.023": 0.0,
			"0.024": 0.0,
			"0.025": 0.0
		}
	}
}
