{
	 "smiles": "CC1=C(Br)C(O)=C(Br)C=C1C1(OS(=O)(=O)C2=CC=CC=C12)C1=C(C)C(Br)=C(O)C(Br)=C1", 
	 "Tm": 494.9, 
	 "num_atms": 45, 
	 "gaussian": { 
		 "optdone": 1, 
		 "sigma_profile": "yes", 
		 "theory": "DFT", 
		 "functional": "B3LYP", 
		 "basiset": "6-31G**", 
		 "properties": { 
			 "R2extent": 25628.7361, 
			 "electric_dipole_moment_norm": 6.64908418731, 
			 "electric_quadrupole_moment_norm": 27.9324402305, 
			 "total_energy": -11868.4974131, 
			 "HOMO_LUMO_gap": 0.17779, 
			 "cosmo_polarized_energy": -21.7, 
			 "cosmo_cavitation_energy": 56.62, 
			 "cosmo_dispersion_energy": -39.21, 
			 "cosmo_repulsion_energy": 2.95, 
			 "cosmo_total_nonelectrostatic_energy": 20.36, 
			 "SMD_solvation_energy": 4.91 
		},
		"coords": [
			{
				"x": 0.3094292382,
				"y": 2.930510571,
				"z": 2.6317570839,
				"element": "C" 
			},
			{
				"x": 0.0319056099,
				"y": 3.268834222,
				"z": 1.1841592422,
				"element": "C" 
			},
			{
				"x": -0.1671575154,
				"y": 4.6141575546,
				"z": 0.8093411305,
				"element": "C" 
			},
			{
				"x": -0.0584565248,
				"y": 6.048616842,
				"z": 2.1006247036,
				"element": "Br" 
			},
			{
				"x": -0.4579544425,
				"y": 5.0395079959,
				"z": -0.4965663645,
				"element": "C" 
			},
			{
				"x": -0.6487955307,
				"y": 6.3232230763,
				"z": -0.8479399845,
				"element": "O" 
			},
			{
				"x": -0.5512059905,
				"y": 4.0485220725,
				"z": -1.4831471762,
				"element": "C" 
			},
			{
				"x": -0.9494888257,
				"y": 4.5392716842,
				"z": -3.2747116314,
				"element": "Br" 
			},
			{
				"x": -0.3525140353,
				"y": 2.7225735362,
				"z": -1.1554053793,
				"element": "C" 
			},
			{
				"x": -0.0552719088,
				"y": 2.3049120897,
				"z": 0.1533794365,
				"element": "C" 
			},
			{
				"x": 0.0978409631,
				"y": 0.7602671415,
				"z": 0.2508249435,
				"element": "C" 
			},
			{
				"x": -1.1559375397,
				"y": 0.2264071232,
				"z": -0.320560083,
				"element": "O" 
			},
			{
				"x": -2.3017784517,
				"y": -0.0797322228,
				"z": 0.8415412301,
				"element": "S" 
			},
			{
				"x": -3.0605169635,
				"y": 1.1289213389,
				"z": 1.141769938,
				"element": "O" 
			},
			{
				"x": -2.9868280701,
				"y": -1.3019155271,
				"z": 0.4427498994,
				"element": "O" 
			},
			{
				"x": -1.0603116589,
				"y": -0.3721003009,
				"z": 2.082869741,
				"element": "C" 
			},
			{
				"x": -1.2311006852,
				"y": -1.0210405719,
				"z": 3.3013845476,
				"element": "C" 
			},
			{
				"x": -0.0982542483,
				"y": -1.20232095,
				"z": 4.0962546025,
				"element": "C" 
			},
			{
				"x": 1.154195551,
				"y": -0.7582445799,
				"z": 3.6536474628,
				"element": "C" 
			},
			{
				"x": 1.2969774777,
				"y": -0.1085100222,
				"z": 2.4257556043,
				"element": "C" 
			},
			{
				"x": 0.1650274377,
				"y": 0.1127555287,
				"z": 1.6411850578,
				"element": "C" 
			},
			{
				"x": 1.2699315199,
				"y": 0.2516179857,
				"z": -0.6167488015,
				"element": "C" 
			},
			{
				"x": 1.3477945168,
				"y": -1.0689953189,
				"z": -1.1333481457,
				"element": "C" 
			},
			{
				"x": 0.2766706491,
				"y": -2.1109462969,
				"z": -0.9072432641,
				"element": "C" 
			},
			{
				"x": 2.4949353272,
				"y": -1.3861493422,
				"z": -1.8780978073,
				"element": "C" 
			},
			{
				"x": 2.6975429235,
				"y": -3.1147136121,
				"z": -2.7127330942,
				"element": "Br" 
			},
			{
				"x": 3.5740314217,
				"y": -0.5068205935,
				"z": -2.0891904291,
				"element": "C" 
			},
			{
				"x": 4.6732896395,
				"y": -0.823903858,
				"z": -2.7959531853,
				"element": "O" 
			},
			{
				"x": 3.4781940946,
				"y": 0.7645535253,
				"z": -1.5158818581,
				"element": "C" 
			},
			{
				"x": 4.9027692868,
				"y": 2.0045530195,
				"z": -1.7278556907,
				"element": "Br" 
			},
			{
				"x": 2.3423007706,
				"y": 1.1307246393,
				"z": -0.8099959936,
				"element": "C" 
			},
			{
				"x": 0.2646834335,
				"y": 3.8209663569,
				"z": 3.2545603994,
				"element": "H" 
			},
			{
				"x": 1.3010986513,
				"y": 2.4907486312,
				"z": 2.7614601287,
				"element": "H" 
			},
			{
				"x": -0.4232704166,
				"y": 2.2215552535,
				"z": 3.0205510913,
				"element": "H" 
			},
			{
				"x": -0.5623191152,
				"y": 6.8795212468,
				"z": -0.0554006547,
				"element": "H" 
			},
			{
				"x": -0.4393555106,
				"y": 1.9816458526,
				"z": -1.9394997777,
				"element": "H" 
			},
			{
				"x": -2.2031926468,
				"y": -1.3940695867,
				"z": 3.6065491362,
				"element": "H" 
			},
			{
				"x": -0.1856622444,
				"y": -1.7122114482,
				"z": 5.0503680183,
				"element": "H" 
			},
			{
				"x": 2.0315760806,
				"y": -0.9330091829,
				"z": 4.2687741925,
				"element": "H" 
			},
			{
				"x": 2.2749814872,
				"y": 0.2127526047,
				"z": 2.082098385,
				"element": "H" 
			},
			{
				"x": 0.6589222891,
				"y": -3.1098223283,
				"z": -1.1118000909,
				"element": "H" 
			},
			{
				"x": -0.0823248341,
				"y": -2.0970891575,
				"z": 0.1213519967,
				"element": "H" 
			},
			{
				"x": -0.5908462076,
				"y": -1.9382484096,
				"z": -1.5490449571,
				"element": "H" 
			},
			{
				"x": 4.5762575129,
				"y": -1.7318009965,
				"z": -3.1304975551,
				"element": "H" 
			},
			{
				"x": 2.2940874844,
				"y": 2.134324414,
				"z": -0.4095360478,
				"element": "H" 
			}
		],
		 "valence_orbital": [ 
			{
				"type": "occ",
				"energy": -0.28313,
				"method": "rhf"
			},
			{
				"type": "occ",
				"energy": -0.25795,
				"method": "rhf"
			},
			{
				"type": "occ",
				"energy": -0.24804,
				"method": "rhf"
			},
			{
				"type": "occ",
				"energy": -0.23986,
				"method": "rhf"
			},
			{
				"type": "occ",
				"energy": -0.23639,
				"method": "rhf"
			},
			{
				"type": "unocc",
				"energy": -0.0586,
				"method": "rhf"
			},
			{
				"type": "unocc",
				"energy": -0.05117,
				"method": "rhf"
			},
			{
				"type": "unocc",
				"energy": -0.03863,
				"method": "rhf"
			},
			{
				"type": "unocc",
				"energy": -0.03246,
				"method": "rhf"
			},
			{
				"type": "unocc",
				"energy": -0.0292,
				"method": "rhf"
			}
		],
		"cosmo_sigma_profile": { 
			"-0.025": 0.0,
			"-0.024": 0.0,
			"-0.023": 0.0,
			"-0.022": 0.0,
			"-0.021": 0.0,
			"-0.02": 0.0,
			"-0.019": 0.0,
			"-0.018": 0.0,
			"-0.017": 0.0,
			"-0.016": 0.0,
			"-0.015": 0.54644249253,
			"-0.014": 0.973438125496,
			"-0.013": 1.4373105097,
			"-0.012": 1.36543703117,
			"-0.011": 1.69846549144,
			"-0.01": 1.89283621103,
			"-0.009": 5.051187962,
			"-0.008": 7.03224537844,
			"-0.007": 14.9986230654,
			"-0.006": 15.7458012969,
			"-0.005": 20.3355945692,
			"-0.004": 23.0812898545,
			"-0.003": 31.3633178561,
			"-0.002": 36.9130378972,
			"-0.001": 47.5367723702,
			"0.0": 55.6340184248,
			"0.001": 46.1291302439,
			"0.002": 33.1018351008,
			"0.003": 29.6378327583,
			"0.004": 29.1124886665,
			"0.005": 13.4547891955,
			"0.006": 7.18292530705,
			"0.007": 8.06315328647,
			"0.008": 8.91336684158,
			"0.009": 14.4965115124,
			"0.01": 11.1234390873,
			"0.011": 0.745037584282,
			"0.012": 0.0,
			"0.013": 0.0,
			"0.014": 0.0,
			"0.015": 0.0,
			"0.016": 0.0,
			"0.017": 0.0,
			"0.018": 0.0,
			"0.019": 0.0,
			"0.02": 0.0,
			"0.021": 0.0,
			"0.022": 0.0,
			"0.023": 0.0,
			"0.024": 0.0,
			"0.025": 0.0
		}
	}
}
