{
	 "smiles": "NC(C(O)=O)(C1=CC(F)=CC(F)=C1)C(F)(F)F", 
	 "Tm": 395.15, 
	 "num_atms": 23, 
	 "gaussian": { 
		 "optdone": 1, 
		 "sigma_profile": "yes", 
		 "theory": "DFT", 
		 "functional": "B3LYP", 
		 "basiset": "6-31G**", 
		 "properties": { 
			 "R2extent": 4310.9665, 
			 "electric_dipole_moment_norm": 3.44515000835, 
			 "electric_quadrupole_moment_norm": 14.9552615026, 
			 "total_energy": -1050.97016737, 
			 "HOMO_LUMO_gap": 0.22011, 
			 "cosmo_polarized_energy": -12.13, 
			 "cosmo_cavitation_energy": 29.68, 
			 "cosmo_dispersion_energy": -20.37, 
			 "cosmo_repulsion_energy": 1.49, 
			 "cosmo_total_nonelectrostatic_energy": 10.8, 
			 "SMD_solvation_energy": 7.85 
		},
		"coords": [
			{
				"x": -2.1969541107,
				"y": 0.0427903157,
				"z": 1.7485374109,
				"element": "N" 
			},
			{
				"x": -2.1109244274,
				"y": -0.0094623677,
				"z": 0.2943631112,
				"element": "C" 
			},
			{
				"x": -3.2008411324,
				"y": 0.8374787403,
				"z": -0.4148786103,
				"element": "C" 
			},
			{
				"x": -3.5511921742,
				"y": 1.9006782666,
				"z": 0.3440724966,
				"element": "O" 
			},
			{
				"x": -3.6744535994,
				"y": 0.6277817413,
				"z": -1.5066826495,
				"element": "O" 
			},
			{
				"x": -0.7286450553,
				"y": 0.4692459448,
				"z": -0.1867596738,
				"element": "C" 
			},
			{
				"x": 0.330493878,
				"y": 0.5171740489,
				"z": 0.7250095957,
				"element": "C" 
			},
			{
				"x": 1.5792411114,
				"y": 0.9308661048,
				"z": 0.2758299994,
				"element": "C" 
			},
			{
				"x": 2.5982172207,
				"y": 0.9821574595,
				"z": 1.1545499103,
				"element": "F" 
			},
			{
				"x": 1.8227747704,
				"y": 1.2932180156,
				"z": -1.0430956166,
				"element": "C" 
			},
			{
				"x": 0.7484308641,
				"y": 1.2206971707,
				"z": -1.9221670008,
				"element": "C" 
			},
			{
				"x": 0.9487636912,
				"y": 1.559761545,
				"z": -3.2094402443,
				"element": "F" 
			},
			{
				"x": -0.5210185708,
				"y": 0.8156652399,
				"z": -1.5283302268,
				"element": "C" 
			},
			{
				"x": -2.3061569903,
				"y": -1.4972792661,
				"z": -0.0970786245,
				"element": "C" 
			},
			{
				"x": -3.5324349087,
				"y": -1.9160619381,
				"z": 0.3068099201,
				"element": "F" 
			},
			{
				"x": -1.3938239696,
				"y": -2.2703219825,
				"z": 0.5104580006,
				"element": "F" 
			},
			{
				"x": -2.2111167798,
				"y": -1.7070399161,
				"z": -1.4151811979,
				"element": "F" 
			},
			{
				"x": -2.1932983002,
				"y": 1.0125180976,
				"z": 2.0501923367,
				"element": "H" 
			},
			{
				"x": -3.0774430865,
				"y": -0.3633524163,
				"z": 2.0534777896,
				"element": "H" 
			},
			{
				"x": -4.1944115588,
				"y": 2.4074520037,
				"z": -0.1803097804,
				"element": "H" 
			},
			{
				"x": 0.1882865324,
				"y": 0.2258037703,
				"z": 1.7572949466,
				"element": "H" 
			},
			{
				"x": 2.8033208679,
				"y": 1.6143336532,
				"z": -1.3720292631,
				"element": "H" 
			},
			{
				"x": -1.3168142716,
				"y": 0.7694957689,
				"z": -2.2611426297,
				"element": "H" 
			}
		],
		 "valence_orbital": [ 
			{
				"type": "occ",
				"energy": -0.34468,
				"method": "rhf"
			},
			{
				"type": "occ",
				"energy": -0.32212,
				"method": "rhf"
			},
			{
				"type": "occ",
				"energy": -0.27252,
				"method": "rhf"
			},
			{
				"type": "occ",
				"energy": -0.26063,
				"method": "rhf"
			},
			{
				"type": "occ",
				"energy": -0.25455,
				"method": "rhf"
			},
			{
				"type": "unocc",
				"energy": -0.03444,
				"method": "rhf"
			},
			{
				"type": "unocc",
				"energy": -0.01747,
				"method": "rhf"
			},
			{
				"type": "unocc",
				"energy": -0.00466,
				"method": "rhf"
			},
			{
				"type": "unocc",
				"energy": 0.05012,
				"method": "rhf"
			},
			{
				"type": "unocc",
				"energy": 0.08344,
				"method": "rhf"
			}
		],
		"cosmo_sigma_profile": { 
			"-0.025": 0.0,
			"-0.024": 0.0,
			"-0.023": 0.0,
			"-0.022": 0.0,
			"-0.021": 0.0,
			"-0.02": 0.0665972242857,
			"-0.019": 0.829723396167,
			"-0.018": 1.08651463295,
			"-0.017": 1.11257280907,
			"-0.016": 0.291171041802,
			"-0.015": 0.726355127669,
			"-0.014": 0.379512080825,
			"-0.013": 0.752210601647,
			"-0.012": 2.2403699057,
			"-0.011": 2.22247153977,
			"-0.01": 2.75607189063,
			"-0.009": 5.16572848312,
			"-0.008": 3.3402277554,
			"-0.007": 5.93290640446,
			"-0.006": 5.93277624754,
			"-0.005": 6.44183388719,
			"-0.004": 6.23410834308,
			"-0.003": 10.9576420331,
			"-0.002": 8.95468334736,
			"-0.001": 15.0544377164,
			"0.0": 25.7973332011,
			"0.001": 29.4682040362,
			"0.002": 31.9960062006,
			"0.003": 24.3737226102,
			"0.004": 22.2929472961,
			"0.005": 5.05160704741,
			"0.006": 2.24095698323,
			"0.007": 2.47444878747,
			"0.008": 2.86126897071,
			"0.009": 2.92000351393,
			"0.01": 4.61331800882,
			"0.011": 2.04229868481,
			"0.012": 0.383517626903,
			"0.013": 0.29363687435,
			"0.014": 0.0,
			"0.015": 0.0,
			"0.016": 0.0,
			"0.017": 0.0,
			"0.018": 0.0,
			"0.019": 0.0,
			"0.02": 0.0,
			"0.021": 0.0,
			"0.022": 0.0,
			"0.023": 0.0,
			"0.024": 0.0,
			"0.025": 0.0
		}
	}
}
