{
	 "smiles": "CCN1C(S)=NN=C1C1=C(OC)C=CC=C1", 
	 "Tm": 445.15, 
	 "num_atms": 29, 
	 "gaussian": { 
		 "optdone": 1, 
		 "sigma_profile": "yes", 
		 "theory": "DFT", 
		 "functional": "B3LYP", 
		 "basiset": "6-31G**", 
		 "properties": { 
			 "R2extent": 5972.4277, 
			 "electric_dipole_moment_norm": 3.87075525964, 
			 "electric_quadrupole_moment_norm": 20.5362892951, 
			 "total_energy": -1064.63705646, 
			 "HOMO_LUMO_gap": 0.19348, 
			 "cosmo_polarized_energy": -14.9, 
			 "cosmo_cavitation_energy": 34.15, 
			 "cosmo_dispersion_energy": -23.75, 
			 "cosmo_repulsion_energy": 1.83, 
			 "cosmo_total_nonelectrostatic_energy": 12.23, 
			 "SMD_solvation_energy": 4.04 
		},
		"coords": [
			{
				"x": -1.7055657484,
				"y": -2.4357869349,
				"z": 2.3465975869,
				"element": "C" 
			},
			{
				"x": -0.4519545,
				"y": -2.1609834725,
				"z": 1.5139334602,
				"element": "C" 
			},
			{
				"x": 0.6153373048,
				"y": -1.5256022049,
				"z": 2.2955214274,
				"element": "N" 
			},
			{
				"x": 1.6007139637,
				"y": -2.155341888,
				"z": 3.0092050384,
				"element": "C" 
			},
			{
				"x": 1.8655274519,
				"y": -3.9041264726,
				"z": 2.9453374636,
				"element": "S" 
			},
			{
				"x": 2.3046221622,
				"y": -1.3028918576,
				"z": 3.7185504979,
				"element": "N" 
			},
			{
				"x": 1.7671385304,
				"y": -0.0548730914,
				"z": 3.4846836238,
				"element": "N" 
			},
			{
				"x": 0.7639689351,
				"y": -0.1926411359,
				"z": 2.641687584,
				"element": "C" 
			},
			{
				"x": -0.0929212541,
				"y": 0.9238883295,
				"z": 2.1994256526,
				"element": "C" 
			},
			{
				"x": -0.3417406952,
				"y": 1.2098944449,
				"z": 0.8435571607,
				"element": "C" 
			},
			{
				"x": 0.1859512296,
				"y": 0.4125721518,
				"z": -0.154545819,
				"element": "O" 
			},
			{
				"x": 1.544513182,
				"y": 0.7144827023,
				"z": -0.4988300793,
				"element": "C" 
			},
			{
				"x": -1.1500651792,
				"y": 2.2881507177,
				"z": 0.4809740814,
				"element": "C" 
			},
			{
				"x": -1.7018725622,
				"y": 3.1108383163,
				"z": 1.4627014344,
				"element": "C" 
			},
			{
				"x": -1.4356434483,
				"y": 2.8616390471,
				"z": 2.8106769092,
				"element": "C" 
			},
			{
				"x": -0.6391048514,
				"y": 1.777164985,
				"z": 3.1721814609,
				"element": "C" 
			},
			{
				"x": -2.4661815334,
				"y": -2.9153932832,
				"z": 1.7225862681,
				"element": "H" 
			},
			{
				"x": -2.1237405055,
				"y": -1.5043518104,
				"z": 2.7384390519,
				"element": "H" 
			},
			{
				"x": -1.4850561157,
				"y": -3.0982218737,
				"z": 3.1886391518,
				"element": "H" 
			},
			{
				"x": -0.0433375645,
				"y": -3.092024309,
				"z": 1.1090642717,
				"element": "H" 
			},
			{
				"x": -0.6636834499,
				"y": -1.5114677529,
				"z": 0.6645685039,
				"element": "H" 
			},
			{
				"x": 2.9330118732,
				"y": -3.8326956486,
				"z": 3.7624023934,
				"element": "H" 
			},
			{
				"x": 2.2089414517,
				"y": 0.6143218734,
				"z": 0.3667875303,
				"element": "H" 
			},
			{
				"x": 1.834728874,
				"y": -0.0036153019,
				"z": -1.2679996876,
				"element": "H" 
			},
			{
				"x": 1.6259967759,
				"y": 1.7323053479,
				"z": -0.899629297,
				"element": "H" 
			},
			{
				"x": -1.3291482604,
				"y": 2.4673254187,
				"z": -0.5744762858,
				"element": "H" 
			},
			{
				"x": -2.3309534001,
				"y": 3.9478586576,
				"z": 1.1742056004,
				"element": "H" 
			},
			{
				"x": -1.8528608792,
				"y": 3.504995764,
				"z": 3.579170537,
				"element": "H" 
			},
			{
				"x": -0.4244217871,
				"y": 1.570979281,
				"z": 4.2154844787,
				"element": "H" 
			}
		],
		 "valence_orbital": [ 
			{
				"type": "occ",
				"energy": -0.28287,
				"method": "rhf"
			},
			{
				"type": "occ",
				"energy": -0.26406,
				"method": "rhf"
			},
			{
				"type": "occ",
				"energy": -0.25372,
				"method": "rhf"
			},
			{
				"type": "occ",
				"energy": -0.2478,
				"method": "rhf"
			},
			{
				"type": "occ",
				"energy": -0.2208,
				"method": "rhf"
			},
			{
				"type": "unocc",
				"energy": -0.02732,
				"method": "rhf"
			},
			{
				"type": "unocc",
				"energy": -0.00889,
				"method": "rhf"
			},
			{
				"type": "unocc",
				"energy": 0.00735,
				"method": "rhf"
			},
			{
				"type": "unocc",
				"energy": 0.02871,
				"method": "rhf"
			},
			{
				"type": "unocc",
				"energy": 0.04955,
				"method": "rhf"
			}
		],
		"cosmo_sigma_profile": { 
			"-0.025": 0.0,
			"-0.024": 0.0,
			"-0.023": 0.0,
			"-0.022": 0.0,
			"-0.021": 0.0,
			"-0.02": 0.0,
			"-0.019": 0.0,
			"-0.018": 0.0,
			"-0.017": 0.0,
			"-0.016": 0.0,
			"-0.015": 0.0,
			"-0.014": 0.0,
			"-0.013": 0.00653411517073,
			"-0.012": 1.26924534038,
			"-0.011": 1.68464492203,
			"-0.01": 0.958669609956,
			"-0.009": 1.16193825549,
			"-0.008": 1.42578807959,
			"-0.007": 2.86613902822,
			"-0.006": 12.5265655923,
			"-0.005": 18.0037298436,
			"-0.004": 27.4973074746,
			"-0.003": 32.8188081055,
			"-0.002": 30.4003418349,
			"-0.001": 22.2074936924,
			"0.0": 19.4567133565,
			"0.001": 17.2112853122,
			"0.002": 14.6098522626,
			"0.003": 15.1405514914,
			"0.004": 14.8226263545,
			"0.005": 7.4341056314,
			"0.006": 5.48041348195,
			"0.007": 3.38241108046,
			"0.008": 1.96314710273,
			"0.009": 2.84047474502,
			"0.01": 2.75600145315,
			"0.011": 2.92860825685,
			"0.012": 1.84615330643,
			"0.013": 3.20098824291,
			"0.014": 3.00714586802,
			"0.015": 2.71887288701,
			"0.016": 2.1547890872,
			"0.017": 0.658748301493,
			"0.018": 0.00742888403571,
			"0.019": 0.0,
			"0.02": 0.0,
			"0.021": 0.0,
			"0.022": 0.0,
			"0.023": 0.0,
			"0.024": 0.0,
			"0.025": 0.0
		}
	}
}
