{
	 "smiles": "CC1=C(CC(O)=O)C(=O)NC(=N1)C1=NC=CC=C1", 
	 "Tm": 483.15, 
	 "num_atms": 29, 
	 "gaussian": { 
		 "optdone": 1, 
		 "sigma_profile": "yes", 
		 "theory": "DFT", 
		 "functional": "B3LYP", 
		 "basiset": "6-31G**", 
		 "properties": { 
			 "R2extent": 5795.608, 
			 "electric_dipole_moment_norm": 9.1500337289, 
			 "electric_quadrupole_moment_norm": 24.9742583782, 
			 "total_energy": -853.867918515, 
			 "HOMO_LUMO_gap": 0.1552, 
			 "cosmo_polarized_energy": -24.88, 
			 "cosmo_cavitation_energy": 33.91, 
			 "cosmo_dispersion_energy": -24.63, 
			 "cosmo_repulsion_energy": 1.88, 
			 "cosmo_total_nonelectrostatic_energy": 11.17, 
			 "SMD_solvation_energy": 4.73 
		},
		"coords": [
			{
				"x": -0.4039771405,
				"y": -2.5506410286,
				"z": 1.0549565649,
				"element": "C" 
			},
			{
				"x": 0.0453323201,
				"y": -1.1273326747,
				"z": 0.8485615261,
				"element": "C" 
			},
			{
				"x": 0.6949635223,
				"y": -0.4065418374,
				"z": 1.8317807027,
				"element": "C" 
			},
			{
				"x": 1.0911063851,
				"y": -0.9602069647,
				"z": 3.1788387742,
				"element": "C" 
			},
			{
				"x": 0.164262051,
				"y": -0.5114495065,
				"z": 4.325169363,
				"element": "C" 
			},
			{
				"x": 0.1885527223,
				"y": 0.8003163863,
				"z": 4.601952135,
				"element": "O" 
			},
			{
				"x": -0.5332607169,
				"y": -1.2871922724,
				"z": 4.9362273008,
				"element": "O" 
			},
			{
				"x": 1.0019628267,
				"y": 0.9823825045,
				"z": 1.587869976,
				"element": "C" 
			},
			{
				"x": 1.4738212405,
				"y": 1.7823714143,
				"z": 2.4136315842,
				"element": "O" 
			},
			{
				"x": 0.6996954469,
				"y": 1.4176267734,
				"z": 0.299220308,
				"element": "N" 
			},
			{
				"x": 0.1102269546,
				"y": 0.6217000765,
				"z": -0.6465785866,
				"element": "C" 
			},
			{
				"x": -0.2263527288,
				"y": -0.6116137931,
				"z": -0.3966446314,
				"element": "N" 
			},
			{
				"x": -0.1220541651,
				"y": 1.2183008182,
				"z": -1.9934414332,
				"element": "C" 
			},
			{
				"x": -1.2054835206,
				"y": 0.7825013612,
				"z": -2.6541531909,
				"element": "N" 
			},
			{
				"x": -1.4417699391,
				"y": 1.2944812334,
				"z": -3.8627239638,
				"element": "C" 
			},
			{
				"x": -0.6272264077,
				"y": 2.2529864565,
				"z": -4.4745367777,
				"element": "C" 
			},
			{
				"x": 0.5007498874,
				"y": 2.6938530276,
				"z": -3.7878850493,
				"element": "C" 
			},
			{
				"x": 0.7627173255,
				"y": 2.1690416718,
				"z": -2.5229020344,
				"element": "C" 
			},
			{
				"x": -1.1144063779,
				"y": -2.818930915,
				"z": 0.2721874717,
				"element": "H" 
			},
			{
				"x": -0.8686037907,
				"y": -2.6870477733,
				"z": 2.0349510708,
				"element": "H" 
			},
			{
				"x": 0.4464874352,
				"y": -3.2410069926,
				"z": 0.9913374469,
				"element": "H" 
			},
			{
				"x": 2.1064297395,
				"y": -0.6140186922,
				"z": 3.4094433109,
				"element": "H" 
			},
			{
				"x": 1.0908425559,
				"y": -2.0487632314,
				"z": 3.1744335136,
				"element": "H" 
			},
			{
				"x": 0.7726169879,
				"y": 1.2729395075,
				"z": 3.9612677408,
				"element": "H" 
			},
			{
				"x": 0.8586175972,
				"y": 2.4038340382,
				"z": 0.1269128949,
				"element": "H" 
			},
			{
				"x": -2.3298273444,
				"y": 0.9234404321,
				"z": -4.3708575324,
				"element": "H" 
			},
			{
				"x": -0.8727578776,
				"y": 2.6333294399,
				"z": -5.4607173649,
				"element": "H" 
			},
			{
				"x": 1.171946634,
				"y": 3.4247699588,
				"z": -4.2284416982,
				"element": "H" 
			},
			{
				"x": 1.655088377,
				"y": 2.4676705814,
				"z": -1.9811594217,
				"element": "H" 
			}
		],
		 "valence_orbital": [ 
			{
				"type": "occ",
				"energy": -0.28982,
				"method": "rhf"
			},
			{
				"type": "occ",
				"energy": -0.28674,
				"method": "rhf"
			},
			{
				"type": "occ",
				"energy": -0.27833,
				"method": "rhf"
			},
			{
				"type": "occ",
				"energy": -0.26307,
				"method": "rhf"
			},
			{
				"type": "occ",
				"energy": -0.23809,
				"method": "rhf"
			},
			{
				"type": "unocc",
				"energy": -0.08289,
				"method": "rhf"
			},
			{
				"type": "unocc",
				"energy": -0.05021,
				"method": "rhf"
			},
			{
				"type": "unocc",
				"energy": -0.03526,
				"method": "rhf"
			},
			{
				"type": "unocc",
				"energy": -0.00143,
				"method": "rhf"
			},
			{
				"type": "unocc",
				"energy": 0.03005,
				"method": "rhf"
			}
		],
		"cosmo_sigma_profile": { 
			"-0.025": 0.0,
			"-0.024": 0.0,
			"-0.023": 0.0,
			"-0.022": 0.0,
			"-0.021": 0.0,
			"-0.02": 0.0,
			"-0.019": 0.0,
			"-0.018": 0.0,
			"-0.017": 0.474073255073,
			"-0.016": 1.20288929025,
			"-0.015": 0.833277424108,
			"-0.014": 1.17710805899,
			"-0.013": 1.82449166418,
			"-0.012": 0.965038843828,
			"-0.011": 1.11515175267,
			"-0.01": 1.57687017815,
			"-0.009": 1.91220991827,
			"-0.008": 5.4079369988,
			"-0.007": 13.1199333901,
			"-0.006": 17.6829490059,
			"-0.005": 19.6301827104,
			"-0.004": 20.8002408449,
			"-0.003": 24.7490542431,
			"-0.002": 20.1913795368,
			"-0.001": 21.154715922,
			"0.0": 18.0176962137,
			"0.001": 17.7974241623,
			"0.002": 9.81015417855,
			"0.003": 4.99612124204,
			"0.004": 5.01889941044,
			"0.005": 6.00629982319,
			"0.006": 4.73157069712,
			"0.007": 5.19020925252,
			"0.008": 4.99092844547,
			"0.009": 4.73570104286,
			"0.01": 6.95591163414,
			"0.011": 8.33795384028,
			"0.012": 10.372645252,
			"0.013": 4.70648689444,
			"0.014": 1.51862314017,
			"0.015": 1.59613654095,
			"0.016": 1.01508996073,
			"0.017": 1.11156687332,
			"0.018": 0.746579464607,
			"0.019": 0.104595701579,
			"0.02": 0.0,
			"0.021": 0.0,
			"0.022": 0.0,
			"0.023": 0.0,
			"0.024": 0.0,
			"0.025": 0.0
		}
	}
}
