{
	 "smiles": "CCC(C1=NN=C(N)S1)C1=CC=CC=C1", 
	 "Tm": 458.15, 
	 "num_atms": 28, 
	 "gaussian": { 
		 "optdone": 1, 
		 "sigma_profile": "yes", 
		 "theory": "DFT", 
		 "functional": "B3LYP", 
		 "basiset": "6-31G**", 
		 "properties": { 
			 "R2extent": 4105.8584, 
			 "electric_dipole_moment_norm": 3.13399410816, 
			 "electric_quadrupole_moment_norm": 17.1303331914, 
			 "total_energy": -989.428379728, 
			 "HOMO_LUMO_gap": 0.20617, 
			 "cosmo_polarized_energy": -15.54, 
			 "cosmo_cavitation_energy": 32.96, 
			 "cosmo_dispersion_energy": -23.53, 
			 "cosmo_repulsion_energy": 1.84, 
			 "cosmo_total_nonelectrostatic_energy": 11.26, 
			 "SMD_solvation_energy": 3.29 
		},
		"coords": [
			{
				"x": -3.0110294353,
				"y": 0.9294117541,
				"z": 0.2019749678,
				"element": "C" 
			},
			{
				"x": -1.6781527745,
				"y": 1.3551879355,
				"z": -0.420855569,
				"element": "C" 
			},
			{
				"x": -0.4548799609,
				"y": 1.059517826,
				"z": 0.4836254674,
				"element": "C" 
			},
			{
				"x": 0.7970909486,
				"y": 1.7033683258,
				"z": -0.0658789066,
				"element": "C" 
			},
			{
				"x": 1.3221265016,
				"y": 2.778643701,
				"z": 0.4328140882,
				"element": "N" 
			},
			{
				"x": 2.4164351682,
				"y": 3.2457686567,
				"z": -0.2485966955,
				"element": "N" 
			},
			{
				"x": 2.7246607518,
				"y": 2.4967754303,
				"z": -1.2720952968,
				"element": "C" 
			},
			{
				"x": 3.8320653109,
				"y": 2.7119980073,
				"z": -2.060228989,
				"element": "N" 
			},
			{
				"x": 1.6682272017,
				"y": 1.1055462655,
				"z": -1.4951856802,
				"element": "S" 
			},
			{
				"x": -0.2440859522,
				"y": -0.4188559972,
				"z": 0.8093482337,
				"element": "C" 
			},
			{
				"x": -0.4053477897,
				"y": -1.4276199516,
				"z": -0.1508730397,
				"element": "C" 
			},
			{
				"x": -0.1725126036,
				"y": -2.7659633439,
				"z": 0.171627977,
				"element": "C" 
			},
			{
				"x": 0.2239698059,
				"y": -3.1196426283,
				"z": 1.4619609692,
				"element": "C" 
			},
			{
				"x": 0.3863201853,
				"y": -2.12471606,
				"z": 2.4274970998,
				"element": "C" 
			},
			{
				"x": 0.1537633528,
				"y": -0.7884122637,
				"z": 2.1012599477,
				"element": "C" 
			},
			{
				"x": -3.1760259743,
				"y": 1.4348826357,
				"z": 1.1600673846,
				"element": "H" 
			},
			{
				"x": -3.8460281604,
				"y": 1.1861752079,
				"z": -0.4575467282,
				"element": "H" 
			},
			{
				"x": -3.0443850907,
				"y": -0.1486931033,
				"z": 0.3841895797,
				"element": "H" 
			},
			{
				"x": -1.6889836973,
				"y": 2.4335577239,
				"z": -0.6157242678,
				"element": "H" 
			},
			{
				"x": -1.5479884642,
				"y": 0.8733942316,
				"z": -1.3975498332,
				"element": "H" 
			},
			{
				"x": -0.6170898142,
				"y": 1.5886932217,
				"z": 1.429878427,
				"element": "H" 
			},
			{
				"x": 3.7435906115,
				"y": 2.4806175556,
				"z": -3.0395010807,
				"element": "H" 
			},
			{
				"x": 4.2508147988,
				"y": 3.6188223535,
				"z": -1.8935841238,
				"element": "H" 
			},
			{
				"x": -0.7200206006,
				"y": -1.1749351164,
				"z": -1.1594702906,
				"element": "H" 
			},
			{
				"x": -0.3045962646,
				"y": -3.5323071749,
				"z": -0.5870582429,
				"element": "H" 
			},
			{
				"x": 0.4025126992,
				"y": -4.1611336378,
				"z": 1.7132701706,
				"element": "H" 
			},
			{
				"x": 0.6927360236,
				"y": -2.3878178488,
				"z": 3.4360023758,
				"element": "H" 
			},
			{
				"x": 0.2867132225,
				"y": -0.0179637064,
				"z": 2.8566320556,
				"element": "H" 
			}
		],
		 "valence_orbital": [ 
			{
				"type": "occ",
				"energy": -0.28202,
				"method": "rhf"
			},
			{
				"type": "occ",
				"energy": -0.25468,
				"method": "rhf"
			},
			{
				"type": "occ",
				"energy": -0.25047,
				"method": "rhf"
			},
			{
				"type": "occ",
				"energy": -0.24506,
				"method": "rhf"
			},
			{
				"type": "occ",
				"energy": -0.22626,
				"method": "rhf"
			},
			{
				"type": "unocc",
				"energy": -0.02009,
				"method": "rhf"
			},
			{
				"type": "unocc",
				"energy": -0.00696,
				"method": "rhf"
			},
			{
				"type": "unocc",
				"energy": 0.00215,
				"method": "rhf"
			},
			{
				"type": "unocc",
				"energy": 0.00974,
				"method": "rhf"
			},
			{
				"type": "unocc",
				"energy": 0.05123,
				"method": "rhf"
			}
		],
		"cosmo_sigma_profile": { 
			"-0.025": 0.0,
			"-0.024": 0.0,
			"-0.023": 0.0,
			"-0.022": 0.0,
			"-0.021": 0.0,
			"-0.02": 0.0,
			"-0.019": 0.0,
			"-0.018": 0.0,
			"-0.017": 0.0,
			"-0.016": 0.0,
			"-0.015": 0.920527071455,
			"-0.014": 2.35054347319,
			"-0.013": 2.19553893189,
			"-0.012": 3.0018152665,
			"-0.011": 3.15744376929,
			"-0.01": 2.31459103936,
			"-0.009": 1.53258411266,
			"-0.008": 2.0508841445,
			"-0.007": 2.1779215976,
			"-0.006": 8.85128847514,
			"-0.005": 14.3928211315,
			"-0.004": 17.289123533,
			"-0.003": 21.2618292045,
			"-0.002": 19.646974268,
			"-0.001": 24.2860008463,
			"0.0": 26.0620297202,
			"0.001": 24.2123333542,
			"0.002": 16.2291103076,
			"0.003": 14.0398074318,
			"0.004": 12.1329263413,
			"0.005": 11.7844297409,
			"0.006": 8.40748129301,
			"0.007": 2.89236542062,
			"0.008": 1.68440495035,
			"0.009": 2.5268298952,
			"0.01": 2.76649044447,
			"0.011": 3.65132476401,
			"0.012": 3.14311858264,
			"0.013": 3.03073835707,
			"0.014": 2.45527748184,
			"0.015": 2.1509944767,
			"0.016": 0.470578618148,
			"0.017": 0.0,
			"0.018": 0.0,
			"0.019": 0.0,
			"0.02": 0.0,
			"0.021": 0.0,
			"0.022": 0.0,
			"0.023": 0.0,
			"0.024": 0.0,
			"0.025": 0.0
		}
	}
}
