{
	 "smiles": "ClC(=O)C1=CC=CC=C1C(Cl)=O", 
	 "Tm": 286.95, 
	 "num_atms": 16, 
	 "gaussian": { 
		 "optdone": 1, 
		 "sigma_profile": "yes", 
		 "theory": "DFT", 
		 "functional": "B3LYP", 
		 "basiset": "6-31G**", 
		 "properties": { 
			 "R2extent": 2735.0871, 
			 "electric_dipole_moment_norm": 5.31794103578, 
			 "electric_quadrupole_moment_norm": 8.35736136589, 
			 "total_energy": -1378.09047012, 
			 "HOMO_LUMO_gap": 0.19141, 
			 "cosmo_polarized_energy": -8.74, 
			 "cosmo_cavitation_energy": 24.98, 
			 "cosmo_dispersion_energy": -17.96, 
			 "cosmo_repulsion_energy": 1.44, 
			 "cosmo_total_nonelectrostatic_energy": 8.46, 
			 "SMD_solvation_energy": 5.23 
		},
		"coords": [
			{
				"x": 1.2875130674,
				"y": 2.20358892,
				"z": 0.2613866346,
				"element": "Cl" 
			},
			{
				"x": -0.3435543238,
				"y": 2.1011647772,
				"z": -0.5371910748,
				"element": "C" 
			},
			{
				"x": -0.9144610889,
				"y": 3.0929044151,
				"z": -0.8688460977,
				"element": "O" 
			},
			{
				"x": -0.9115614414,
				"y": 0.7200908298,
				"z": -0.5658414576,
				"element": "C" 
			},
			{
				"x": -2.2379516177,
				"y": 0.6168019137,
				"z": -0.1306694006,
				"element": "C" 
			},
			{
				"x": -2.8502514264,
				"y": -0.6302595612,
				"z": -0.0031471849,
				"element": "C" 
			},
			{
				"x": -2.1380286327,
				"y": -1.7881685688,
				"z": -0.3088740729,
				"element": "C" 
			},
			{
				"x": -0.8228018724,
				"y": -1.6955262407,
				"z": -0.7648622296,
				"element": "C" 
			},
			{
				"x": -0.2060892856,
				"y": -0.4482917004,
				"z": -0.9179176888,
				"element": "C" 
			},
			{
				"x": 1.1554620173,
				"y": -0.4883220943,
				"z": -1.5306037127,
				"element": "C" 
			},
			{
				"x": 1.3797120613,
				"y": 0.6989412349,
				"z": -2.8902731341,
				"element": "Cl" 
			},
			{
				"x": 2.0040742828,
				"y": -1.2871625039,
				"z": -1.2832299533,
				"element": "O" 
			},
			{
				"x": -2.7721976565,
				"y": 1.5239001717,
				"z": 0.1301190428,
				"element": "H" 
			},
			{
				"x": -3.8772312952,
				"y": -0.6922252165,
				"z": 0.342605303,
				"element": "H" 
			},
			{
				"x": -2.6030283462,
				"y": -2.7631702668,
				"z": -0.2029574802,
				"element": "H" 
			},
			{
				"x": -0.2666044419,
				"y": -2.5873661097,
				"z": -1.032297493,
				"element": "H" 
			}
		],
		 "valence_orbital": [ 
			{
				"type": "occ",
				"energy": -0.31987,
				"method": "rhf"
			},
			{
				"type": "occ",
				"energy": -0.31268,
				"method": "rhf"
			},
			{
				"type": "occ",
				"energy": -0.30834,
				"method": "rhf"
			},
			{
				"type": "occ",
				"energy": -0.29296,
				"method": "rhf"
			},
			{
				"type": "occ",
				"energy": -0.28938,
				"method": "rhf"
			},
			{
				"type": "unocc",
				"energy": -0.09797,
				"method": "rhf"
			},
			{
				"type": "unocc",
				"energy": -0.06272,
				"method": "rhf"
			},
			{
				"type": "unocc",
				"energy": -0.02952,
				"method": "rhf"
			},
			{
				"type": "unocc",
				"energy": -0.01683,
				"method": "rhf"
			},
			{
				"type": "unocc",
				"energy": 0.02038,
				"method": "rhf"
			}
		],
		"cosmo_sigma_profile": { 
			"-0.025": 0.0,
			"-0.024": 0.0,
			"-0.023": 0.0,
			"-0.022": 0.0,
			"-0.021": 0.0,
			"-0.02": 0.0,
			"-0.019": 0.0,
			"-0.018": 0.0,
			"-0.017": 0.0,
			"-0.016": 0.0,
			"-0.015": 0.0,
			"-0.014": 0.0,
			"-0.013": 0.0,
			"-0.012": 0.0,
			"-0.011": 0.0,
			"-0.01": 0.0,
			"-0.009": 1.01614634865,
			"-0.008": 8.57801292309,
			"-0.007": 11.8433508378,
			"-0.006": 9.44922692369,
			"-0.005": 7.44114717173,
			"-0.004": 7.13598860668,
			"-0.003": 6.96714826731,
			"-0.002": 12.8956651362,
			"-0.001": 19.5918378863,
			"0.0": 25.9613236784,
			"0.001": 22.1477886678,
			"0.002": 13.480584753,
			"0.003": 17.4670287864,
			"0.004": 14.6418402389,
			"0.005": 5.24222189329,
			"0.006": 5.30061407164,
			"0.007": 7.12284721289,
			"0.008": 8.48171204376,
			"0.009": 1.20057902645,
			"0.01": 0.0,
			"0.011": 0.0,
			"0.012": 0.0,
			"0.013": 0.0,
			"0.014": 0.0,
			"0.015": 0.0,
			"0.016": 0.0,
			"0.017": 0.0,
			"0.018": 0.0,
			"0.019": 0.0,
			"0.02": 0.0,
			"0.021": 0.0,
			"0.022": 0.0,
			"0.023": 0.0,
			"0.024": 0.0,
			"0.025": 0.0
		}
	}
}
