{
	 "smiles": "NC1=C(O)C=CC(=C1)S(=O)(=O)NC1CC1", 
	 "Tm": 393.15, 
	 "num_atms": 27, 
	 "gaussian": { 
		 "optdone": 1, 
		 "sigma_profile": "yes", 
		 "theory": "DFT", 
		 "functional": "B3LYP", 
		 "basiset": "6-31G**", 
		 "properties": { 
			 "R2extent": 4516.2155, 
			 "electric_dipole_moment_norm": 4.56266744569, 
			 "electric_quadrupole_moment_norm": 14.613225673, 
			 "total_energy": -1083.4457802, 
			 "HOMO_LUMO_gap": 0.20795, 
			 "cosmo_polarized_energy": -19.97, 
			 "cosmo_cavitation_energy": 32.23, 
			 "cosmo_dispersion_energy": -23.67, 
			 "cosmo_repulsion_energy": 1.83, 
			 "cosmo_total_nonelectrostatic_energy": 10.39, 
			 "SMD_solvation_energy": 4.45 
		},
		"coords": [
			{
				"x": -3.47721422,
				"y": 0.8018944853,
				"z": 2.9655941023,
				"element": "N" 
			},
			{
				"x": -2.1878546461,
				"y": 0.3775976207,
				"z": 2.4800579321,
				"element": "C" 
			},
			{
				"x": -1.5079814195,
				"y": -0.5332289094,
				"z": 3.3219401581,
				"element": "C" 
			},
			{
				"x": -2.0978115928,
				"y": -0.929680216,
				"z": 4.4649444818,
				"element": "O" 
			},
			{
				"x": -0.2406811367,
				"y": -1.0125260071,
				"z": 2.9716416001,
				"element": "C" 
			},
			{
				"x": 0.3454797273,
				"y": -0.5957886424,
				"z": 1.7802381429,
				"element": "C" 
			},
			{
				"x": -0.337800096,
				"y": 0.2901629535,
				"z": 0.9424016481,
				"element": "C" 
			},
			{
				"x": -1.5988223842,
				"y": 0.7867118687,
				"z": 1.291019843,
				"element": "C" 
			},
			{
				"x": 0.4205238031,
				"y": 0.8358283413,
				"z": -0.5767198587,
				"element": "S" 
			},
			{
				"x": 1.8123393096,
				"y": 0.357516314,
				"z": -0.5762699165,
				"element": "O" 
			},
			{
				"x": 0.1191391243,
				"y": 2.2529471347,
				"z": -0.8013240654,
				"element": "O" 
			},
			{
				"x": -0.5174748073,
				"y": -0.012300345,
				"z": -1.7270767133,
				"element": "N" 
			},
			{
				"x": -0.4619109235,
				"y": 0.5187915956,
				"z": -3.0801291177,
				"element": "C" 
			},
			{
				"x": 0.7873562211,
				"y": 0.4448536625,
				"z": -3.9269095475,
				"element": "C" 
			},
			{
				"x": -0.389670372,
				"y": -0.4561884079,
				"z": -4.2229740488,
				"element": "C" 
			},
			{
				"x": -4.2049566291,
				"y": 0.6624760585,
				"z": 2.2702148291,
				"element": "H" 
			},
			{
				"x": -3.476801042,
				"y": 1.7886508025,
				"z": 3.2126961285,
				"element": "H" 
			},
			{
				"x": -2.968765184,
				"y": -0.4772940588,
				"z": 4.4557956745,
				"element": "H" 
			},
			{
				"x": 0.2655734127,
				"y": -1.7017839085,
				"z": 3.638515442,
				"element": "H" 
			},
			{
				"x": 1.3323758847,
				"y": -0.9427006677,
				"z": 1.4943517579,
				"element": "H" 
			},
			{
				"x": -2.1043914687,
				"y": 1.4922522001,
				"z": 0.6388997254,
				"element": "H" 
			},
			{
				"x": -0.2683683625,
				"y": -0.9986304104,
				"z": -1.6819856519,
				"element": "H" 
			},
			{
				"x": -1.0952390412,
				"y": 1.3913395178,
				"z": -3.1987645839,
				"element": "H" 
			},
			{
				"x": 0.9919316154,
				"y": 1.2733376833,
				"z": -4.5977238317,
				"element": "H" 
			},
			{
				"x": 1.6687020542,
				"y": -0.0000949751,
				"z": -3.4769193863,
				"element": "H" 
			},
			{
				"x": -0.2909497631,
				"y": -1.5127504461,
				"z": -3.9858961123,
				"element": "H" 
			},
			{
				"x": -1.0021280639,
				"y": -0.2590932442,
				"z": -5.0972186319,
				"element": "H" 
			}
		],
		 "valence_orbital": [ 
			{
				"type": "occ",
				"energy": -0.2947,
				"method": "rhf"
			},
			{
				"type": "occ",
				"energy": -0.28519,
				"method": "rhf"
			},
			{
				"type": "occ",
				"energy": -0.26746,
				"method": "rhf"
			},
			{
				"type": "occ",
				"energy": -0.25082,
				"method": "rhf"
			},
			{
				"type": "occ",
				"energy": -0.23334,
				"method": "rhf"
			},
			{
				"type": "unocc",
				"energy": -0.02539,
				"method": "rhf"
			},
			{
				"type": "unocc",
				"energy": -0.01928,
				"method": "rhf"
			},
			{
				"type": "unocc",
				"energy": 0.05919,
				"method": "rhf"
			},
			{
				"type": "unocc",
				"energy": 0.0682,
				"method": "rhf"
			},
			{
				"type": "unocc",
				"energy": 0.07699,
				"method": "rhf"
			}
		],
		"cosmo_sigma_profile": { 
			"-0.025": 0.0,
			"-0.024": 0.0,
			"-0.023": 0.0,
			"-0.022": 0.0,
			"-0.021": 0.0,
			"-0.02": 0.0,
			"-0.019": 0.0,
			"-0.018": 0.0,
			"-0.017": 0.0,
			"-0.016": 0.0,
			"-0.015": 0.438019593197,
			"-0.014": 0.883309903605,
			"-0.013": 1.73508797466,
			"-0.012": 3.80834873006,
			"-0.011": 5.09690039516,
			"-0.01": 4.33608791673,
			"-0.009": 4.62868552021,
			"-0.008": 6.36544425039,
			"-0.007": 8.24196322943,
			"-0.006": 11.1682547852,
			"-0.005": 16.1211750546,
			"-0.004": 15.6218592324,
			"-0.003": 13.9042484174,
			"-0.002": 15.2424322814,
			"-0.001": 15.3378983397,
			"0.0": 12.9397946295,
			"0.001": 14.2058284254,
			"0.002": 20.4706107823,
			"0.003": 18.3823158256,
			"0.004": 10.8552337674,
			"0.005": 7.25190346993,
			"0.006": 5.52045583585,
			"0.007": 6.58808149093,
			"0.008": 4.87157017822,
			"0.009": 6.35033781569,
			"0.01": 8.00956235383,
			"0.011": 10.9745937527,
			"0.012": 5.48565894415,
			"0.013": 0.223088029491,
			"0.014": 0.0,
			"0.015": 0.0,
			"0.016": 0.0,
			"0.017": 0.0,
			"0.018": 0.0,
			"0.019": 0.0,
			"0.02": 0.0,
			"0.021": 0.0,
			"0.022": 0.0,
			"0.023": 0.0,
			"0.024": 0.0,
			"0.025": 0.0
		}
	}
}
