{
	 "smiles": "ClCC1=CSC(=N1)C1=CC2=C(OCO2)C=C1", 
	 "Tm": 380.15, 
	 "num_atms": 24, 
	 "gaussian": { 
		 "optdone": 1, 
		 "sigma_profile": "yes", 
		 "theory": "DFT", 
		 "functional": "B3LYP", 
		 "basiset": "6-31G**", 
		 "properties": { 
			 "R2extent": 6752.0088, 
			 "electric_dipole_moment_norm": 2.92673948789, 
			 "electric_quadrupole_moment_norm": 26.5532892111, 
			 "total_energy": -1487.54535593, 
			 "HOMO_LUMO_gap": 0.15326, 
			 "cosmo_polarized_energy": -11.45, 
			 "cosmo_cavitation_energy": 32.13, 
			 "cosmo_dispersion_energy": -24.64, 
			 "cosmo_repulsion_energy": 1.88, 
			 "cosmo_total_nonelectrostatic_energy": 9.37, 
			 "SMD_solvation_energy": 4.37 
		},
		"coords": [
			{
				"x": -1.2370929741,
				"y": -5.3176915331,
				"z": 1.1752830593,
				"element": "Cl" 
			},
			{
				"x": -2.1475701696,
				"y": -3.7453948071,
				"z": 1.4294472489,
				"element": "C" 
			},
			{
				"x": -1.2496704953,
				"y": -2.5557629513,
				"z": 1.4048278881,
				"element": "C" 
			},
			{
				"x": -0.7754100256,
				"y": -1.9036875748,
				"z": 2.5113791848,
				"element": "C" 
			},
			{
				"x": 0.2279096065,
				"y": -0.5769894416,
				"z": 2.0398459441,
				"element": "S" 
			},
			{
				"x": -0.069701256,
				"y": -0.9975970798,
				"z": 0.3421955371,
				"element": "C" 
			},
			{
				"x": -0.8479596231,
				"y": -2.036439074,
				"z": 0.1968625893,
				"element": "N" 
			},
			{
				"x": 0.506151767,
				"y": -0.2406899706,
				"z": -0.7744774708,
				"element": "C" 
			},
			{
				"x": 0.2423792785,
				"y": -0.6985576209,
				"z": -2.0908201561,
				"element": "C" 
			},
			{
				"x": 0.7926856539,
				"y": 0.0210149764,
				"z": -3.125168027,
				"element": "C" 
			},
			{
				"x": 1.5784270855,
				"y": 1.1547136753,
				"z": -2.910492091,
				"element": "C" 
			},
			{
				"x": 1.982366697,
				"y": 1.6747980153,
				"z": -4.1102889591,
				"element": "O" 
			},
			{
				"x": 1.4994237577,
				"y": 0.7714203311,
				"z": -5.1162071019,
				"element": "C" 
			},
			{
				"x": 0.6757600257,
				"y": -0.2068940307,
				"z": -4.4746690191,
				"element": "O" 
			},
			{
				"x": 1.8475956411,
				"y": 1.6210501951,
				"z": -1.6382139922,
				"element": "C" 
			},
			{
				"x": 1.2952609369,
				"y": 0.9001739092,
				"z": -0.5683505194,
				"element": "C" 
			},
			{
				"x": -2.656894764,
				"y": -3.8477950645,
				"z": 2.3868738075,
				"element": "H" 
			},
			{
				"x": -2.8757729517,
				"y": -3.6977960604,
				"z": 0.6204468404,
				"element": "H" 
			},
			{
				"x": -0.9507167789,
				"y": -2.132942687,
				"z": 3.5529318854,
				"element": "H" 
			},
			{
				"x": -0.3665465416,
				"y": -1.5788325741,
				"z": -2.2523204728,
				"element": "H" 
			},
			{
				"x": 0.9053184079,
				"y": 1.3283364196,
				"z": -5.8485204164,
				"element": "H" 
			},
			{
				"x": 2.352173701,
				"y": 0.2769235769,
				"z": -5.6001639512,
				"element": "H" 
			},
			{
				"x": 2.4560075205,
				"y": 2.5031796062,
				"z": -1.4765995343,
				"element": "H" 
			},
			{
				"x": 1.4912755007,
				"y": 1.2465597649,
				"z": 0.4416977266,
				"element": "H" 
			}
		],
		 "valence_orbital": [ 
			{
				"type": "occ",
				"energy": -0.28733,
				"method": "rhf"
			},
			{
				"type": "occ",
				"energy": -0.27989,
				"method": "rhf"
			},
			{
				"type": "occ",
				"energy": -0.26681,
				"method": "rhf"
			},
			{
				"type": "occ",
				"energy": -0.24365,
				"method": "rhf"
			},
			{
				"type": "occ",
				"energy": -0.20818,
				"method": "rhf"
			},
			{
				"type": "unocc",
				"energy": -0.05492,
				"method": "rhf"
			},
			{
				"type": "unocc",
				"energy": -0.01464,
				"method": "rhf"
			},
			{
				"type": "unocc",
				"energy": -0.00311,
				"method": "rhf"
			},
			{
				"type": "unocc",
				"energy": 0.0133,
				"method": "rhf"
			},
			{
				"type": "unocc",
				"energy": 0.04456,
				"method": "rhf"
			}
		],
		"cosmo_sigma_profile": { 
			"-0.025": 0.0,
			"-0.024": 0.0,
			"-0.023": 0.0,
			"-0.022": 0.0,
			"-0.021": 0.0,
			"-0.02": 0.0,
			"-0.019": 0.0,
			"-0.018": 0.0,
			"-0.017": 0.0,
			"-0.016": 0.0,
			"-0.015": 0.0,
			"-0.014": 0.0,
			"-0.013": 0.0,
			"-0.012": 0.0,
			"-0.011": 0.0,
			"-0.01": 0.884123259156,
			"-0.009": 3.27916437546,
			"-0.008": 10.4866548415,
			"-0.007": 17.0626825284,
			"-0.006": 15.1427461036,
			"-0.005": 14.5103820645,
			"-0.004": 12.1059291213,
			"-0.003": 8.89760248528,
			"-0.002": 12.1674546072,
			"-0.001": 14.2330122438,
			"0.0": 18.8771591107,
			"0.001": 22.8052657346,
			"0.002": 28.8969966474,
			"0.003": 23.6020730806,
			"0.004": 13.6942720067,
			"0.005": 9.9730272295,
			"0.006": 14.6723595854,
			"0.007": 10.9738054729,
			"0.008": 4.54060537313,
			"0.009": 4.14147573784,
			"0.01": 1.5966625165,
			"0.011": 0.433216834572,
			"0.012": 0.0,
			"0.013": 0.0,
			"0.014": 0.0,
			"0.015": 0.0,
			"0.016": 0.0,
			"0.017": 0.0,
			"0.018": 0.0,
			"0.019": 0.0,
			"0.02": 0.0,
			"0.021": 0.0,
			"0.022": 0.0,
			"0.023": 0.0,
			"0.024": 0.0,
			"0.025": 0.0
		}
	}
}
