{
	 "smiles": "O=C1CC2(CCCC2)OC2=C1C=CC=C2", 
	 "Tm": 309.15, 
	 "num_atms": 29, 
	 "gaussian": { 
		 "optdone": 1, 
		 "sigma_profile": "yes", 
		 "theory": "DFT", 
		 "functional": "B3LYP", 
		 "basiset": "6-31G**", 
		 "properties": { 
			 "R2extent": 3473.9101, 
			 "electric_dipole_moment_norm": 2.70911059575, 
			 "electric_quadrupole_moment_norm": 15.8478538594, 
			 "total_energy": -654.280882689, 
			 "HOMO_LUMO_gap": 0.17506, 
			 "cosmo_polarized_energy": -8.52, 
			 "cosmo_cavitation_energy": 30.29, 
			 "cosmo_dispersion_energy": -22.11, 
			 "cosmo_repulsion_energy": 1.72, 
			 "cosmo_total_nonelectrostatic_energy": 9.9, 
			 "SMD_solvation_energy": 5.02 
		},
		"coords": [
			{
				"x": 0.6035145264,
				"y": 3.6229436043,
				"z": 1.8885260737,
				"element": "O" 
			},
			{
				"x": 0.6338969797,
				"y": 2.4680414817,
				"z": 1.489912739,
				"element": "C" 
			},
			{
				"x": 1.7735087415,
				"y": 1.9373278388,
				"z": 0.6299690113,
				"element": "C" 
			},
			{
				"x": 1.3124892249,
				"y": 0.8597856773,
				"z": -0.3520465274,
				"element": "C" 
			},
			{
				"x": 0.3754478036,
				"y": 1.351560577,
				"z": -1.4748157854,
				"element": "C" 
			},
			{
				"x": 0.4323713698,
				"y": 0.2211358831,
				"z": -2.5120919865,
				"element": "C" 
			},
			{
				"x": 1.922094347,
				"y": -0.1907612363,
				"z": -2.524572806,
				"element": "C" 
			},
			{
				"x": 2.4594089427,
				"y": 0.1503425131,
				"z": -1.1058679609,
				"element": "C" 
			},
			{
				"x": 0.6283804596,
				"y": -0.2023343527,
				"z": 0.3860549258,
				"element": "O" 
			},
			{
				"x": -0.317830771,
				"y": 0.1645445698,
				"z": 1.2914485431,
				"element": "C" 
			},
			{
				"x": -0.3871719616,
				"y": 1.4590511251,
				"z": 1.8452203095,
				"element": "C" 
			},
			{
				"x": -1.4004726844,
				"y": 1.7588406914,
				"z": 2.7713363636,
				"element": "C" 
			},
			{
				"x": -2.317135766,
				"y": 0.7923923976,
				"z": 3.1583597781,
				"element": "C" 
			},
			{
				"x": -2.2251511186,
				"y": -0.4983761755,
				"z": 2.6141899527,
				"element": "C" 
			},
			{
				"x": -1.2400489055,
				"y": -0.8150149686,
				"z": 1.6856122376,
				"element": "C" 
			},
			{
				"x": 2.5226430029,
				"y": 1.5068925621,
				"z": 1.3101743104,
				"element": "H" 
			},
			{
				"x": 2.2463307304,
				"y": 2.7733567421,
				"z": 0.1081178926,
				"element": "H" 
			},
			{
				"x": -0.6321229498,
				"y": 1.5765118415,
				"z": -1.1133065267,
				"element": "H" 
			},
			{
				"x": 0.7895528713,
				"y": 2.2772634055,
				"z": -1.8949423204,
				"element": "H" 
			},
			{
				"x": 0.0664949293,
				"y": 0.5266459641,
				"z": -3.4967199555,
				"element": "H" 
			},
			{
				"x": -0.1888128768,
				"y": -0.6138081585,
				"z": -2.1722151002,
				"element": "H" 
			},
			{
				"x": 2.0572759908,
				"y": -1.2461674347,
				"z": -2.7768904199,
				"element": "H" 
			},
			{
				"x": 2.4651950935,
				"y": 0.38768261,
				"z": -3.2798532831,
				"element": "H" 
			},
			{
				"x": 3.3293053529,
				"y": 0.8124790567,
				"z": -1.1603204842,
				"element": "H" 
			},
			{
				"x": 2.7606331257,
				"y": -0.7346399105,
				"z": -0.539452665,
				"element": "H" 
			},
			{
				"x": -1.4261668433,
				"y": 2.7657868872,
				"z": 3.1761021171,
				"element": "H" 
			},
			{
				"x": -3.095015179,
				"y": 1.0276804938,
				"z": 3.8777280488,
				"element": "H" 
			},
			{
				"x": -2.9369601086,
				"y": -1.2628260267,
				"z": 2.9134012974,
				"element": "H" 
			},
			{
				"x": -1.1674543274,
				"y": -1.8052376585,
				"z": 1.2482422206,
				"element": "H" 
			}
		],
		 "valence_orbital": [ 
			{
				"type": "occ",
				"energy": -0.31726,
				"method": "rhf"
			},
			{
				"type": "occ",
				"energy": -0.31242,
				"method": "rhf"
			},
			{
				"type": "occ",
				"energy": -0.2574,
				"method": "rhf"
			},
			{
				"type": "occ",
				"energy": -0.24248,
				"method": "rhf"
			},
			{
				"type": "occ",
				"energy": -0.22789,
				"method": "rhf"
			},
			{
				"type": "unocc",
				"energy": -0.05283,
				"method": "rhf"
			},
			{
				"type": "unocc",
				"energy": 0.00156,
				"method": "rhf"
			},
			{
				"type": "unocc",
				"energy": 0.04292,
				"method": "rhf"
			},
			{
				"type": "unocc",
				"energy": 0.075,
				"method": "rhf"
			},
			{
				"type": "unocc",
				"energy": 0.08856,
				"method": "rhf"
			}
		],
		"cosmo_sigma_profile": { 
			"-0.025": 0.0,
			"-0.024": 0.0,
			"-0.023": 0.0,
			"-0.022": 0.0,
			"-0.021": 0.0,
			"-0.02": 0.0,
			"-0.019": 0.0,
			"-0.018": 0.0,
			"-0.017": 0.0,
			"-0.016": 0.0,
			"-0.015": 0.0,
			"-0.014": 0.0,
			"-0.013": 0.0,
			"-0.012": 0.0,
			"-0.011": 0.0,
			"-0.01": 0.0,
			"-0.009": 0.0,
			"-0.008": 0.0,
			"-0.007": 1.77549648979,
			"-0.006": 10.3579956561,
			"-0.005": 14.3687831693,
			"-0.004": 20.5876358696,
			"-0.003": 25.6842408233,
			"-0.002": 27.1696782945,
			"-0.001": 26.0670882483,
			"0.0": 23.1877845032,
			"0.001": 20.0010310415,
			"0.002": 13.8091135351,
			"0.003": 14.3042091576,
			"0.004": 13.3228805274,
			"0.005": 5.67618257653,
			"0.006": 2.21172080444,
			"0.007": 2.60907546981,
			"0.008": 3.39174502758,
			"0.009": 2.06648341873,
			"0.01": 1.95725968989,
			"0.011": 2.8964709738,
			"0.012": 4.57830291514,
			"0.013": 2.06996347961,
			"0.014": 0.357847371622,
			"0.015": 0.0,
			"0.016": 0.0,
			"0.017": 0.0,
			"0.018": 0.0,
			"0.019": 0.0,
			"0.02": 0.0,
			"0.021": 0.0,
			"0.022": 0.0,
			"0.023": 0.0,
			"0.024": 0.0,
			"0.025": 0.0
		}
	}
}
