{
	 "smiles": "ClCC1=NN=C(O1)C1=CC(Br)=CC=C1", 
	 "Tm": 348.15, 
	 "num_atms": 20, 
	 "gaussian": { 
		 "optdone": 1, 
		 "sigma_profile": "yes", 
		 "theory": "DFT", 
		 "functional": "B3LYP", 
		 "basiset": "6-31G**", 
		 "properties": { 
			 "R2extent": 6699.7606, 
			 "electric_dipole_moment_norm": 3.784813216, 
			 "electric_quadrupole_moment_norm": 8.90744733018, 
			 "total_energy": -3562.87089699, 
			 "HOMO_LUMO_gap": 0.182, 
			 "cosmo_polarized_energy": -11.56, 
			 "cosmo_cavitation_energy": 29.94, 
			 "cosmo_dispersion_energy": -22.43, 
			 "cosmo_repulsion_energy": 1.78, 
			 "cosmo_total_nonelectrostatic_energy": 9.3, 
			 "SMD_solvation_energy": 2.03 
		},
		"coords": [
			{
				"x": -4.6271203837,
				"y": 0.0995802437,
				"z": -1.424156365,
				"element": "Cl" 
			},
			{
				"x": -3.9316014962,
				"y": -1.1096570151,
				"z": -0.2533900838,
				"element": "C" 
			},
			{
				"x": -2.659610768,
				"y": -0.6454906239,
				"z": 0.3407941611,
				"element": "C" 
			},
			{
				"x": -2.43921171,
				"y": -0.2986504774,
				"z": 1.5707209755,
				"element": "N" 
			},
			{
				"x": -1.0955853346,
				"y": 0.0439105146,
				"z": 1.6469113471,
				"element": "N" 
			},
			{
				"x": -0.6017678983,
				"y": -0.117013313,
				"z": 0.4519577888,
				"element": "C" 
			},
			{
				"x": -1.5421633834,
				"y": -0.5605114266,
				"z": -0.4337228473,
				"element": "O" 
			},
			{
				"x": 0.7642220512,
				"y": 0.1122712723,
				"z": -0.0041647082,
				"element": "C" 
			},
			{
				"x": 1.7203024582,
				"y": 0.5434442617,
				"z": 0.9300625424,
				"element": "C" 
			},
			{
				"x": 3.0240770205,
				"y": 0.7652093924,
				"z": 0.5047799566,
				"element": "C" 
			},
			{
				"x": 4.3315076564,
				"y": 1.3508782037,
				"z": 1.7663179112,
				"element": "Br" 
			},
			{
				"x": 3.3993687395,
				"y": 0.5689194899,
				"z": -0.825871061,
				"element": "C" 
			},
			{
				"x": 2.4401552112,
				"y": 0.1411203762,
				"z": -1.7446936481,
				"element": "C" 
			},
			{
				"x": 1.1256634524,
				"y": -0.0885873805,
				"z": -1.3441637247,
				"element": "C" 
			},
			{
				"x": -3.7986383452,
				"y": -2.0354637839,
				"z": -0.8141519662,
				"element": "H" 
			},
			{
				"x": -4.6584305096,
				"y": -1.2500327122,
				"z": 0.5445795814,
				"element": "H" 
			},
			{
				"x": 1.4321238141,
				"y": 0.6969399174,
				"z": 1.9628810192,
				"element": "H" 
			},
			{
				"x": 4.4227139905,
				"y": 0.7486009489,
				"z": -1.1346049088,
				"element": "H" 
			},
			{
				"x": 2.7239167076,
				"y": -0.0122977541,
				"z": -2.7811797924,
				"element": "H" 
			},
			{
				"x": 0.3818787274,
				"y": -0.4183701342,
				"z": -2.0608061777,
				"element": "H" 
			}
		],
		 "valence_orbital": [ 
			{
				"type": "occ",
				"energy": -0.30854,
				"method": "rhf"
			},
			{
				"type": "occ",
				"energy": -0.29611,
				"method": "rhf"
			},
			{
				"type": "occ",
				"energy": -0.29164,
				"method": "rhf"
			},
			{
				"type": "occ",
				"energy": -0.26358,
				"method": "rhf"
			},
			{
				"type": "occ",
				"energy": -0.25363,
				"method": "rhf"
			},
			{
				"type": "unocc",
				"energy": -0.07163,
				"method": "rhf"
			},
			{
				"type": "unocc",
				"energy": -0.03366,
				"method": "rhf"
			},
			{
				"type": "unocc",
				"energy": -0.02756,
				"method": "rhf"
			},
			{
				"type": "unocc",
				"energy": -0.00269,
				"method": "rhf"
			},
			{
				"type": "unocc",
				"energy": 0.03252,
				"method": "rhf"
			}
		],
		"cosmo_sigma_profile": { 
			"-0.025": 0.0,
			"-0.024": 0.0,
			"-0.023": 0.0,
			"-0.022": 0.0,
			"-0.021": 0.0,
			"-0.02": 0.0,
			"-0.019": 0.0,
			"-0.018": 0.0,
			"-0.017": 0.0,
			"-0.016": 0.0,
			"-0.015": 0.0,
			"-0.014": 0.0,
			"-0.013": 0.0,
			"-0.012": 0.0,
			"-0.011": 0.13184711222,
			"-0.01": 3.68416818742,
			"-0.009": 4.6038710858,
			"-0.008": 5.40447069698,
			"-0.007": 11.2962982268,
			"-0.006": 12.4324215911,
			"-0.005": 12.2914999455,
			"-0.004": 11.8014395632,
			"-0.003": 13.7389911829,
			"-0.002": 15.2395176314,
			"-0.001": 16.8344469601,
			"0.0": 20.0619492548,
			"0.001": 26.4515801992,
			"0.002": 24.5866996439,
			"0.003": 14.5360172974,
			"0.004": 19.1135441459,
			"0.005": 13.0087650686,
			"0.006": 3.87516695962,
			"0.007": 2.56575007457,
			"0.008": 2.03976964857,
			"0.009": 1.95050676664,
			"0.01": 3.57856697365,
			"0.011": 2.31655510242,
			"0.012": 3.01722409941,
			"0.013": 1.70752858097,
			"0.014": 1.04109701696,
			"0.015": 0.0,
			"0.016": 0.0,
			"0.017": 0.0,
			"0.018": 0.0,
			"0.019": 0.0,
			"0.02": 0.0,
			"0.021": 0.0,
			"0.022": 0.0,
			"0.023": 0.0,
			"0.024": 0.0,
			"0.025": 0.0
		}
	}
}
