{
	 "smiles": "CC1=C(C=CC(=C1)S(Cl)(=O)=O)[N+]([O-])=O", 
	 "Tm": 322.15, 
	 "num_atms": 20, 
	 "gaussian": { 
		 "optdone": 1, 
		 "sigma_profile": "yes", 
		 "theory": "DFT", 
		 "functional": "B3LYP", 
		 "basiset": "6-31G**", 
		 "properties": { 
			 "R2extent": 4431.8887, 
			 "electric_dipole_moment_norm": 1.49587102719, 
			 "electric_quadrupole_moment_norm": 24.6339666706, 
			 "total_energy": -1484.21598039, 
			 "HOMO_LUMO_gap": 0.17913, 
			 "cosmo_polarized_energy": -11.57, 
			 "cosmo_cavitation_energy": 28.61, 
			 "cosmo_dispersion_energy": -21.3, 
			 "cosmo_repulsion_energy": 1.63, 
			 "cosmo_total_nonelectrostatic_energy": 8.94, 
			 "SMD_solvation_energy": 5.75 
		},
		"coords": [
			{
				"x": 1.3884017599,
				"y": -3.0454636725,
				"z": 0.8041922155,
				"element": "C" 
			},
			{
				"x": 0.9283098619,
				"y": -1.7150820859,
				"z": 0.2614036991,
				"element": "C" 
			},
			{
				"x": 1.6806360509,
				"y": -0.5234267147,
				"z": 0.2627414899,
				"element": "C" 
			},
			{
				"x": 1.1922712255,
				"y": 0.6882478119,
				"z": -0.2325368071,
				"element": "C" 
			},
			{
				"x": -0.0831277725,
				"y": 0.7530503089,
				"z": -0.7778996383,
				"element": "C" 
			},
			{
				"x": -0.8378541043,
				"y": -0.4184942096,
				"z": -0.7904748573,
				"element": "C" 
			},
			{
				"x": -0.3631215023,
				"y": -1.6221878468,
				"z": -0.2800624918,
				"element": "C" 
			},
			{
				"x": -2.5027664544,
				"y": -0.3671201553,
				"z": -1.4581239378,
				"element": "S" 
			},
			{
				"x": -2.127144228,
				"y": -0.825483417,
				"z": -3.5003990382,
				"element": "Cl" 
			},
			{
				"x": -3.2694728032,
				"y": -1.4818679608,
				"z": -0.9183118654,
				"element": "O" 
			},
			{
				"x": -2.9846739729,
				"y": 1.006917923,
				"z": -1.4239456691,
				"element": "O" 
			},
			{
				"x": 3.0577221008,
				"y": -0.4833459936,
				"z": 0.803856571,
				"element": "N" 
			},
			{
				"x": 3.5186949108,
				"y": 0.6190973324,
				"z": 1.0912018312,
				"element": "O" 
			},
			{
				"x": 3.6625154622,
				"y": -1.5470512868,
				"z": 0.9227509614,
				"element": "O" 
			},
			{
				"x": 2.1804607951,
				"y": -3.4702001261,
				"z": 0.1825224603,
				"element": "H" 
			},
			{
				"x": 1.8038597913,
				"y": -2.9527052869,
				"z": 1.8100895217,
				"element": "H" 
			},
			{
				"x": 0.5472165911,
				"y": -3.741864032,
				"z": 0.8310131678,
				"element": "H" 
			},
			{
				"x": 1.8247284479,
				"y": 1.5648581984,
				"z": -0.1762314494,
				"element": "H" 
			},
			{
				"x": -0.4850528437,
				"y": 1.6804052859,
				"z": -1.1683327125,
				"element": "H" 
			},
			{
				"x": -1.0020033161,
				"y": -2.4982840726,
				"z": -0.2927534509,
				"element": "H" 
			}
		],
		 "valence_orbital": [ 
			{
				"type": "occ",
				"energy": -0.32783,
				"method": "rhf"
			},
			{
				"type": "occ",
				"energy": -0.32675,
				"method": "rhf"
			},
			{
				"type": "occ",
				"energy": -0.31909,
				"method": "rhf"
			},
			{
				"type": "occ",
				"energy": -0.30571,
				"method": "rhf"
			},
			{
				"type": "occ",
				"energy": -0.30076,
				"method": "rhf"
			},
			{
				"type": "unocc",
				"energy": -0.12163,
				"method": "rhf"
			},
			{
				"type": "unocc",
				"energy": -0.09025,
				"method": "rhf"
			},
			{
				"type": "unocc",
				"energy": -0.05658,
				"method": "rhf"
			},
			{
				"type": "unocc",
				"energy": -0.04148,
				"method": "rhf"
			},
			{
				"type": "unocc",
				"energy": 0.03761,
				"method": "rhf"
			}
		],
		"cosmo_sigma_profile": { 
			"-0.025": 0.0,
			"-0.024": 0.0,
			"-0.023": 0.0,
			"-0.022": 0.0,
			"-0.021": 0.0,
			"-0.02": 0.0,
			"-0.019": 0.0,
			"-0.018": 0.0,
			"-0.017": 0.0,
			"-0.016": 0.0,
			"-0.015": 0.0,
			"-0.014": 0.0,
			"-0.013": 0.0,
			"-0.012": 0.0,
			"-0.011": 0.0,
			"-0.01": 0.566368770318,
			"-0.009": 4.64863863043,
			"-0.008": 7.39241310941,
			"-0.007": 8.37541201359,
			"-0.006": 9.26167150591,
			"-0.005": 12.8301613474,
			"-0.004": 13.9211774043,
			"-0.003": 18.259711211,
			"-0.002": 27.1786767143,
			"-0.001": 22.3417508675,
			"0.0": 10.1377287271,
			"0.001": 10.2911772452,
			"0.002": 13.4832362157,
			"0.003": 16.6833529227,
			"0.004": 7.37100136856,
			"0.005": 5.39176654721,
			"0.006": 9.35089683611,
			"0.007": 15.4306075914,
			"0.008": 13.3167468208,
			"0.009": 5.46066306367,
			"0.01": 0.62250663641,
			"0.011": 0.0,
			"0.012": 0.0,
			"0.013": 0.0,
			"0.014": 0.0,
			"0.015": 0.0,
			"0.016": 0.0,
			"0.017": 0.0,
			"0.018": 0.0,
			"0.019": 0.0,
			"0.02": 0.0,
			"0.021": 0.0,
			"0.022": 0.0,
			"0.023": 0.0,
			"0.024": 0.0,
			"0.025": 0.0
		}
	}
}
