{
	 "smiles": "CCOC1=CC=C(C=C1)C(=O)CCl", 
	 "Tm": 337.15, 
	 "num_atms": 24, 
	 "gaussian": { 
		 "optdone": 1, 
		 "sigma_profile": "yes", 
		 "theory": "DFT", 
		 "functional": "B3LYP", 
		 "basiset": "6-31G**", 
		 "properties": { 
			 "R2extent": 6366.2939, 
			 "electric_dipole_moment_norm": 5.87635869651, 
			 "electric_quadrupole_moment_norm": 31.7592564567, 
			 "total_energy": -998.330053875, 
			 "HOMO_LUMO_gap": 0.18137, 
			 "cosmo_polarized_energy": -13.4, 
			 "cosmo_cavitation_energy": 29.91, 
			 "cosmo_dispersion_energy": -22.07, 
			 "cosmo_repulsion_energy": 1.77, 
			 "cosmo_total_nonelectrostatic_energy": 9.61, 
			 "SMD_solvation_energy": 5.68 
		},
		"coords": [
			{
				"x": -2.2514202209,
				"y": -3.074758113,
				"z": -0.0039463455,
				"element": "C" 
			},
			{
				"x": -0.8318197429,
				"y": -2.5471175268,
				"z": 0.0981246665,
				"element": "C" 
			},
			{
				"x": -0.8758610409,
				"y": -1.1409234289,
				"z": -0.1687690412,
				"element": "O" 
			},
			{
				"x": 0.2747800264,
				"y": -0.425804042,
				"z": -0.1389954324,
				"element": "C" 
			},
			{
				"x": 1.5428746029,
				"y": -0.9619536463,
				"z": 0.1393024174,
				"element": "C" 
			},
			{
				"x": 2.6540075624,
				"y": -0.1264216194,
				"z": 0.1412983027,
				"element": "C" 
			},
			{
				"x": 2.5409305496,
				"y": 1.2456155214,
				"z": -0.1288854422,
				"element": "C" 
			},
			{
				"x": 1.2624576276,
				"y": 1.7676356108,
				"z": -0.4060576332,
				"element": "C" 
			},
			{
				"x": 0.1454420885,
				"y": 0.9473152628,
				"z": -0.4117270199,
				"element": "C" 
			},
			{
				"x": 3.7868641865,
				"y": 2.0635455443,
				"z": -0.1046416902,
				"element": "C" 
			},
			{
				"x": 4.8740964402,
				"y": 1.5743072168,
				"z": 0.1399263315,
				"element": "O" 
			},
			{
				"x": 3.6276734275,
				"y": 3.5620678682,
				"z": -0.4041421861,
				"element": "C" 
			},
			{
				"x": 5.1750785996,
				"y": 4.4609144255,
				"z": -0.3507621957,
				"element": "Cl" 
			},
			{
				"x": -2.2655570432,
				"y": -4.1508705166,
				"z": 0.1935730687,
				"element": "H" 
			},
			{
				"x": -2.9003618718,
				"y": -2.5798342104,
				"z": 0.7236753911,
				"element": "H" 
			},
			{
				"x": -2.6570882507,
				"y": -2.9001829875,
				"z": -1.0041795444,
				"element": "H" 
			},
			{
				"x": -0.1743482543,
				"y": -3.0411196587,
				"z": -0.6300532524,
				"element": "H" 
			},
			{
				"x": -0.4180802646,
				"y": -2.720240945,
				"z": 1.1008183917,
				"element": "H" 
			},
			{
				"x": 1.6669159027,
				"y": -2.0167557626,
				"z": 0.3522337423,
				"element": "H" 
			},
			{
				"x": 3.6411511464,
				"y": -0.5233580017,
				"z": 0.3541224933,
				"element": "H" 
			},
			{
				"x": 1.1281570688,
				"y": 2.8232228386,
				"z": -0.6206075821,
				"element": "H" 
			},
			{
				"x": -0.8434214495,
				"y": 1.3396586436,
				"z": -0.6239927142,
				"element": "H" 
			},
			{
				"x": 2.9537759385,
				"y": 4.020335977,
				"z": 0.3241327574,
				"element": "H" 
			},
			{
				"x": 3.1982529711,
				"y": 3.7017215499,
				"z": -1.399447483,
				"element": "H" 
			}
		],
		 "valence_orbital": [ 
			{
				"type": "occ",
				"energy": -0.29406,
				"method": "rhf"
			},
			{
				"type": "occ",
				"energy": -0.29324,
				"method": "rhf"
			},
			{
				"type": "occ",
				"energy": -0.269,
				"method": "rhf"
			},
			{
				"type": "occ",
				"energy": -0.25643,
				"method": "rhf"
			},
			{
				"type": "occ",
				"energy": -0.23621,
				"method": "rhf"
			},
			{
				"type": "unocc",
				"energy": -0.05484,
				"method": "rhf"
			},
			{
				"type": "unocc",
				"energy": -0.01694,
				"method": "rhf"
			},
			{
				"type": "unocc",
				"energy": 0.02946,
				"method": "rhf"
			},
			{
				"type": "unocc",
				"energy": 0.04139,
				"method": "rhf"
			},
			{
				"type": "unocc",
				"energy": 0.08568,
				"method": "rhf"
			}
		],
		"cosmo_sigma_profile": { 
			"-0.025": 0.0,
			"-0.024": 0.0,
			"-0.023": 0.0,
			"-0.022": 0.0,
			"-0.021": 0.0,
			"-0.02": 0.0,
			"-0.019": 0.0,
			"-0.018": 0.0,
			"-0.017": 0.0,
			"-0.016": 0.0,
			"-0.015": 0.0,
			"-0.014": 0.0,
			"-0.013": 0.0,
			"-0.012": 0.0,
			"-0.011": 0.0,
			"-0.01": 0.138098044085,
			"-0.009": 5.08169091558,
			"-0.008": 7.90492985382,
			"-0.007": 8.22763307348,
			"-0.006": 11.4219059615,
			"-0.005": 15.7732344099,
			"-0.004": 20.9201779924,
			"-0.003": 17.3652909827,
			"-0.002": 14.282964799,
			"-0.001": 15.9420232371,
			"0.0": 16.6097889929,
			"0.001": 13.9334467887,
			"0.002": 16.8015502801,
			"0.003": 18.6945915918,
			"0.004": 13.4704264138,
			"0.005": 9.14956040358,
			"0.006": 10.0305279661,
			"0.007": 4.9521304482,
			"0.008": 3.8823431603,
			"0.009": 2.80149295033,
			"0.01": 3.54495821,
			"0.011": 3.63997004396,
			"0.012": 3.04761026319,
			"0.013": 1.83404709902,
			"0.014": 0.321862309409,
			"0.015": 0.0,
			"0.016": 0.0,
			"0.017": 0.0,
			"0.018": 0.0,
			"0.019": 0.0,
			"0.02": 0.0,
			"0.021": 0.0,
			"0.022": 0.0,
			"0.023": 0.0,
			"0.024": 0.0,
			"0.025": 0.0
		}
	}
}
