{
	 "smiles": "COC1=C(OC)C=C(C=C1)C1=NN(C=C1C(O)=O)C1=CC=CC=C1", 
	 "Tm": 462.15, 
	 "num_atms": 40, 
	 "gaussian": { 
		 "optdone": 1, 
		 "sigma_profile": "yes", 
		 "theory": "DFT", 
		 "functional": "B3LYP", 
		 "basiset": "6-31G**", 
		 "properties": { 
			 "R2extent": 10648.4765, 
			 "electric_dipole_moment_norm": 4.92599240864, 
			 "electric_quadrupole_moment_norm": 18.4354342252, 
			 "total_energy": -1105.93064458, 
			 "HOMO_LUMO_gap": 0.15736, 
			 "cosmo_polarized_energy": -16.88, 
			 "cosmo_cavitation_energy": 44.83, 
			 "cosmo_dispersion_energy": -31.85, 
			 "cosmo_repulsion_energy": 2.4, 
			 "cosmo_total_nonelectrostatic_energy": 15.39, 
			 "SMD_solvation_energy": 9.74 
		},
		"coords": [
			{
				"x": -0.0258323617,
				"y": -2.6778810935,
				"z": -4.9251170012,
				"element": "C" 
			},
			{
				"x": -0.8703864304,
				"y": -2.9939674959,
				"z": -3.815928811,
				"element": "O" 
			},
			{
				"x": -0.5542308543,
				"y": -2.3960760581,
				"z": -2.6222686015,
				"element": "C" 
			},
			{
				"x": -0.6725211987,
				"y": -0.9991193506,
				"z": -2.4282068762,
				"element": "C" 
			},
			{
				"x": -1.0799413819,
				"y": -0.2729348991,
				"z": -3.5142028357,
				"element": "O" 
			},
			{
				"x": -1.2537474879,
				"y": 1.1256176796,
				"z": -3.3538712264,
				"element": "C" 
			},
			{
				"x": -0.3852617382,
				"y": -0.4534425716,
				"z": -1.1809944941,
				"element": "C" 
			},
			{
				"x": 0.0092821107,
				"y": -1.2705010522,
				"z": -0.0999919473,
				"element": "C" 
			},
			{
				"x": 0.1072592936,
				"y": -2.6520503051,
				"z": -0.2958009213,
				"element": "C" 
			},
			{
				"x": -0.1698957375,
				"y": -3.1957521854,
				"z": -1.5514735256,
				"element": "C" 
			},
			{
				"x": 0.2522169235,
				"y": -0.6180780954,
				"z": 1.2036764768,
				"element": "C" 
			},
			{
				"x": -0.2684951911,
				"y": 0.5959529679,
				"z": 1.3967065946,
				"element": "N" 
			},
			{
				"x": 0.1166461816,
				"y": 0.9917995082,
				"z": 2.6389936608,
				"element": "N" 
			},
			{
				"x": 0.8685094535,
				"y": 0.0527761608,
				"z": 3.2521203467,
				"element": "C" 
			},
			{
				"x": 0.9962814942,
				"y": -1.0149324642,
				"z": 2.3750542312,
				"element": "C" 
			},
			{
				"x": 1.7845193837,
				"y": -2.2066711537,
				"z": 2.7023436389,
				"element": "C" 
			},
			{
				"x": 2.406564297,
				"y": -2.0685050164,
				"z": 3.9099333594,
				"element": "O" 
			},
			{
				"x": 1.9192780674,
				"y": -3.2229496685,
				"z": 2.0466384697,
				"element": "O" 
			},
			{
				"x": -0.3070250984,
				"y": 2.2497491257,
				"z": 3.1493958102,
				"element": "C" 
			},
			{
				"x": 0.4135726021,
				"y": 2.8723631238,
				"z": 4.1741985622,
				"element": "C" 
			},
			{
				"x": -0.0275366828,
				"y": 4.0952048905,
				"z": 4.6780935807,
				"element": "C" 
			},
			{
				"x": -1.1689376931,
				"y": 4.705670249,
				"z": 4.1556712297,
				"element": "C" 
			},
			{
				"x": -1.8711276879,
				"y": 4.082962704,
				"z": 3.1213618141,
				"element": "C" 
			},
			{
				"x": -1.4493980964,
				"y": 2.8549961862,
				"z": 2.6156859631,
				"element": "C" 
			},
			{
				"x": 1.0158846114,
				"y": -2.9525309079,
				"z": -4.7132352716,
				"element": "H" 
			},
			{
				"x": -0.390297385,
				"y": -3.2764586508,
				"z": -5.7627426604,
				"element": "H" 
			},
			{
				"x": -0.0785056459,
				"y": -1.6164737577,
				"z": -5.1828803177,
				"element": "H" 
			},
			{
				"x": -1.5991285203,
				"y": 1.498224694,
				"z": -4.3196647983,
				"element": "H" 
			},
			{
				"x": -2.0057256558,
				"y": 1.3531415194,
				"z": -2.5877700977,
				"element": "H" 
			},
			{
				"x": -0.3129418261,
				"y": 1.6251908115,
				"z": -3.0886173121,
				"element": "H" 
			},
			{
				"x": -0.4709196112,
				"y": 0.6115322684,
				"z": -1.0124162837,
				"element": "H" 
			},
			{
				"x": 0.4185752989,
				"y": -3.2960763297,
				"z": 0.5143449671,
				"element": "H" 
			},
			{
				"x": -0.098234349,
				"y": -4.265467158,
				"z": -1.7205680609,
				"element": "H" 
			},
			{
				"x": 1.2466212526,
				"y": 0.1661363752,
				"z": 4.2548976716,
				"element": "H" 
			},
			{
				"x": 2.8864313902,
				"y": -2.9015622928,
				"z": 4.0461501305,
				"element": "H" 
			},
			{
				"x": 1.3211362453,
				"y": 2.4218326425,
				"z": 4.5616202722,
				"element": "H" 
			},
			{
				"x": 0.5341211129,
				"y": 4.5762541195,
				"z": 5.4731698436,
				"element": "H" 
			},
			{
				"x": -1.505046703,
				"y": 5.6605580322,
				"z": 4.5477930791,
				"element": "H" 
			},
			{
				"x": -2.759156435,
				"y": 4.5511418508,
				"z": 2.7072592872,
				"element": "H" 
			},
			{
				"x": -1.9847059467,
				"y": 2.3556255974,
				"z": 1.8177420533,
				"element": "H" 
			}
		],
		 "valence_orbital": [ 
			{
				"type": "occ",
				"energy": -0.26645,
				"method": "rhf"
			},
			{
				"type": "occ",
				"energy": -0.26275,
				"method": "rhf"
			},
			{
				"type": "occ",
				"energy": -0.24412,
				"method": "rhf"
			},
			{
				"type": "occ",
				"energy": -0.2242,
				"method": "rhf"
			},
			{
				"type": "occ",
				"energy": -0.20099,
				"method": "rhf"
			},
			{
				"type": "unocc",
				"energy": -0.04363,
				"method": "rhf"
			},
			{
				"type": "unocc",
				"energy": -0.03052,
				"method": "rhf"
			},
			{
				"type": "unocc",
				"energy": -0.01622,
				"method": "rhf"
			},
			{
				"type": "unocc",
				"energy": 0.01159,
				"method": "rhf"
			},
			{
				"type": "unocc",
				"energy": 0.0212,
				"method": "rhf"
			}
		],
		"cosmo_sigma_profile": { 
			"-0.025": 0.0,
			"-0.024": 0.0,
			"-0.023": 0.0,
			"-0.022": 0.0,
			"-0.021": 0.0,
			"-0.02": 0.0,
			"-0.019": 0.0,
			"-0.018": 0.552166355348,
			"-0.017": 0.918903569432,
			"-0.016": 0.892346176018,
			"-0.015": 0.754151409922,
			"-0.014": 0.677774071705,
			"-0.013": 0.661555851485,
			"-0.012": 0.491935340048,
			"-0.011": 1.20212486655,
			"-0.01": 2.54234173953,
			"-0.009": 2.35462882358,
			"-0.008": 2.68485209834,
			"-0.007": 4.8243947183,
			"-0.006": 15.9257011815,
			"-0.005": 26.1674788788,
			"-0.004": 28.0808328735,
			"-0.003": 28.6887720027,
			"-0.002": 25.8594831956,
			"-0.001": 25.1118641126,
			"0.0": 26.7733066121,
			"0.001": 24.9523837196,
			"0.002": 26.1407103913,
			"0.003": 26.6983597679,
			"0.004": 28.7592553921,
			"0.005": 17.7455689922,
			"0.006": 9.46084032687,
			"0.007": 7.46080240557,
			"0.008": 6.05750471601,
			"0.009": 4.19049394366,
			"0.01": 5.17548956696,
			"0.011": 4.73323125826,
			"0.012": 2.6819869451,
			"0.013": 0.0227080704511,
			"0.014": 0.0,
			"0.015": 0.0,
			"0.016": 0.0,
			"0.017": 0.0,
			"0.018": 0.0,
			"0.019": 0.0,
			"0.02": 0.0,
			"0.021": 0.0,
			"0.022": 0.0,
			"0.023": 0.0,
			"0.024": 0.0,
			"0.025": 0.0
		}
	}
}
