{
	 "smiles": "CCOC(=O)C1=C(N)SC(C)=C1CC", 
	 "Tm": 319.15, 
	 "num_atms": 29, 
	 "gaussian": { 
		 "optdone": 1, 
		 "sigma_profile": "yes", 
		 "theory": "DFT", 
		 "functional": "B3LYP", 
		 "basiset": "6-31G**", 
		 "properties": { 
			 "R2extent": 3738.9157, 
			 "electric_dipole_moment_norm": 2.64947396477, 
			 "electric_quadrupole_moment_norm": 12.1146924105, 
			 "total_energy": -993.51566527, 
			 "HOMO_LUMO_gap": 0.17354, 
			 "cosmo_polarized_energy": -10.14, 
			 "cosmo_cavitation_energy": 32.54, 
			 "cosmo_dispersion_energy": -23.82, 
			 "cosmo_repulsion_energy": 1.87, 
			 "cosmo_total_nonelectrostatic_energy": 10.59, 
			 "SMD_solvation_energy": 6.11 
		},
		"coords": [
			{
				"x": -1.8519392563,
				"y": -2.2578832329,
				"z": 2.4861827514,
				"element": "C" 
			},
			{
				"x": -1.8932199403,
				"y": -2.379099183,
				"z": 0.9700981951,
				"element": "C" 
			},
			{
				"x": -0.8028756487,
				"y": -1.6581994112,
				"z": 0.3504512619,
				"element": "O" 
			},
			{
				"x": -1.0066380429,
				"y": -0.3134265711,
				"z": 0.1322336645,
				"element": "C" 
			},
			{
				"x": -2.0635355707,
				"y": 0.2168982663,
				"z": 0.4344155239,
				"element": "O" 
			},
			{
				"x": 0.1457775002,
				"y": 0.3432738901,
				"z": -0.4847991874,
				"element": "C" 
			},
			{
				"x": 1.3348331946,
				"y": -0.3046218248,
				"z": -0.8177418032,
				"element": "C" 
			},
			{
				"x": 1.7181662282,
				"y": -1.5985312073,
				"z": -0.5950310498,
				"element": "N" 
			},
			{
				"x": 2.4733041492,
				"y": 0.7999953269,
				"z": -1.5451499,
				"element": "S" 
			},
			{
				"x": 1.3426760608,
				"y": 2.1534549389,
				"z": -1.4093246727,
				"element": "C" 
			},
			{
				"x": 1.7827355562,
				"y": 3.4884788224,
				"z": -1.9325334496,
				"element": "C" 
			},
			{
				"x": 0.1710976428,
				"y": 1.7658008174,
				"z": -0.8277501279,
				"element": "C" 
			},
			{
				"x": -0.9861836348,
				"y": 2.7129059102,
				"z": -0.5967032696,
				"element": "C" 
			},
			{
				"x": -2.0711362352,
				"y": 2.629458308,
				"z": -1.6846481426,
				"element": "C" 
			},
			{
				"x": -2.0123443257,
				"y": -1.2207806965,
				"z": 2.7892238223,
				"element": "H" 
			},
			{
				"x": -0.8892854929,
				"y": -2.5977209786,
				"z": 2.8800222748,
				"element": "H" 
			},
			{
				"x": -2.6418720752,
				"y": -2.8730576283,
				"z": 2.9303643871,
				"element": "H" 
			},
			{
				"x": -1.7536960625,
				"y": -3.4145384108,
				"z": 0.6477801695,
				"element": "H" 
			},
			{
				"x": -2.8363437742,
				"y": -2.0001008251,
				"z": 0.5711507936,
				"element": "H" 
			},
			{
				"x": 0.9696440093,
				"y": -2.2213527504,
				"z": -0.3240587619,
				"element": "H" 
			},
			{
				"x": 2.4422303712,
				"y": -1.9824312531,
				"z": -1.1827624111,
				"element": "H" 
			},
			{
				"x": 2.7080549123,
				"y": 3.8312012771,
				"z": -1.4536679132,
				"element": "H" 
			},
			{
				"x": 1.9656772445,
				"y": 3.4625737935,
				"z": -3.0139078429,
				"element": "H" 
			},
			{
				"x": 1.0166789448,
				"y": 4.2446522934,
				"z": -1.7491970415,
				"element": "H" 
			},
			{
				"x": -0.6038070137,
				"y": 3.7377269581,
				"z": -0.5462122802,
				"element": "H" 
			},
			{
				"x": -1.4420083244,
				"y": 2.4928149156,
				"z": 0.3706508151,
				"element": "H" 
			},
			{
				"x": -2.514526041,
				"y": 1.6313270979,
				"z": -1.708522228,
				"element": "H" 
			},
			{
				"x": -2.8729332591,
				"y": 3.3479095007,
				"z": -1.4825518507,
				"element": "H" 
			},
			{
				"x": -1.6577311165,
				"y": 2.8501718563,
				"z": -2.6746117271,
				"element": "H" 
			}
		],
		 "valence_orbital": [ 
			{
				"type": "occ",
				"energy": -0.29893,
				"method": "rhf"
			},
			{
				"type": "occ",
				"energy": -0.29013,
				"method": "rhf"
			},
			{
				"type": "occ",
				"energy": -0.26279,
				"method": "rhf"
			},
			{
				"type": "occ",
				"energy": -0.24134,
				"method": "rhf"
			},
			{
				"type": "occ",
				"energy": -0.19067,
				"method": "rhf"
			},
			{
				"type": "unocc",
				"energy": -0.01713,
				"method": "rhf"
			},
			{
				"type": "unocc",
				"energy": 0.01468,
				"method": "rhf"
			},
			{
				"type": "unocc",
				"energy": 0.02443,
				"method": "rhf"
			},
			{
				"type": "unocc",
				"energy": 0.08357,
				"method": "rhf"
			},
			{
				"type": "unocc",
				"energy": 0.10474,
				"method": "rhf"
			}
		],
		"cosmo_sigma_profile": { 
			"-0.025": 0.0,
			"-0.024": 0.0,
			"-0.023": 0.0,
			"-0.022": 0.0,
			"-0.021": 0.0,
			"-0.02": 0.0,
			"-0.019": 0.0,
			"-0.018": 0.0,
			"-0.017": 0.0,
			"-0.016": 0.0,
			"-0.015": 0.193159857506,
			"-0.014": 1.22382277702,
			"-0.013": 1.5771448191,
			"-0.012": 1.02994045891,
			"-0.011": 1.54304676454,
			"-0.01": 2.30798155764,
			"-0.009": 2.25051953937,
			"-0.008": 1.3564075321,
			"-0.007": 1.83470754344,
			"-0.006": 2.64762638143,
			"-0.005": 7.37654877133,
			"-0.004": 16.5613682644,
			"-0.003": 24.0781229973,
			"-0.002": 25.4016098989,
			"-0.001": 27.4396081014,
			"0.0": 32.4623338517,
			"0.001": 26.7573700763,
			"0.002": 20.0200443327,
			"0.003": 15.3484479583,
			"0.004": 15.822712228,
			"0.005": 10.5670093154,
			"0.006": 5.38644539482,
			"0.007": 2.82017731768,
			"0.008": 2.45412834855,
			"0.009": 2.16476361658,
			"0.01": 2.07826339987,
			"0.011": 1.93199830741,
			"0.012": 1.6619718089,
			"0.013": 1.70268974961,
			"0.014": 0.0456409216964,
			"0.015": 0.0,
			"0.016": 0.0,
			"0.017": 0.0,
			"0.018": 0.0,
			"0.019": 0.0,
			"0.02": 0.0,
			"0.021": 0.0,
			"0.022": 0.0,
			"0.023": 0.0,
			"0.024": 0.0,
			"0.025": 0.0
		}
	}
}
