{
	 "smiles": "OC(C(O)=O)C1=CC(F)=CC(F)=C1", 
	 "Tm": 409.15, 
	 "num_atms": 19, 
	 "gaussian": { 
		 "optdone": 1, 
		 "sigma_profile": "yes", 
		 "theory": "DFT", 
		 "functional": "B3LYP", 
		 "basiset": "6-31G**", 
		 "properties": { 
			 "R2extent": 2948.0135, 
			 "electric_dipole_moment_norm": 2.21701206131, 
			 "electric_quadrupole_moment_norm": 11.20049838, 
			 "total_energy": -733.808112829, 
			 "HOMO_LUMO_gap": 0.22432, 
			 "cosmo_polarized_energy": -11.4, 
			 "cosmo_cavitation_energy": 25.04, 
			 "cosmo_dispersion_energy": -17.92, 
			 "cosmo_repulsion_energy": 1.38, 
			 "cosmo_total_nonelectrostatic_energy": 8.5, 
			 "SMD_solvation_energy": 6.48 
		},
		"coords": [
			{
				"x": 1.9549931484,
				"y": -2.1483752964,
				"z": 1.1559981258,
				"element": "O" 
			},
			{
				"x": 1.3281121398,
				"y": -2.1358527586,
				"z": -0.1061889339,
				"element": "C" 
			},
			{
				"x": 2.2374000986,
				"y": -1.5717435764,
				"z": -1.2018594479,
				"element": "C" 
			},
			{
				"x": 3.1054937417,
				"y": -0.6618294311,
				"z": -0.7016683513,
				"element": "O" 
			},
			{
				"x": 2.1801747461,
				"y": -1.8638900137,
				"z": -2.3734738462,
				"element": "O" 
			},
			{
				"x": -0.0150485745,
				"y": -1.3897897393,
				"z": -0.1149532366,
				"element": "C" 
			},
			{
				"x": -0.7134514876,
				"y": -1.1951667716,
				"z": -1.3137154231,
				"element": "C" 
			},
			{
				"x": -1.938069382,
				"y": -0.5409566586,
				"z": -1.2701532177,
				"element": "C" 
			},
			{
				"x": -2.6134602112,
				"y": -0.349513456,
				"z": -2.4196036702,
				"element": "F" 
			},
			{
				"x": -2.4998637792,
				"y": -0.070317792,
				"z": -0.0875433191,
				"element": "C" 
			},
			{
				"x": -1.778093552,
				"y": -0.2868352625,
				"z": 1.0791435647,
				"element": "C" 
			},
			{
				"x": -2.2932140858,
				"y": 0.1507947809,
				"z": 2.2445638216,
				"element": "F" 
			},
			{
				"x": -0.5486858401,
				"y": -0.9375173937,
				"z": 1.0937207434,
				"element": "C" 
			},
			{
				"x": 2.3867245159,
				"y": -1.2907110398,
				"z": 1.2784031951,
				"element": "H" 
			},
			{
				"x": 1.1473328833,
				"y": -3.1823703816,
				"z": -0.3739886162,
				"element": "H" 
			},
			{
				"x": 3.6288212014,
				"y": -0.3272851281,
				"z": -1.4492348956,
				"element": "H" 
			},
			{
				"x": -0.3187331601,
				"y": -1.537871237,
				"z": -2.263190693,
				"element": "H" 
			},
			{
				"x": -3.4560075816,
				"y": 0.437909941,
				"z": -0.0777694518,
				"element": "H" 
			},
			{
				"x": -0.0287248213,
				"y": -1.1035787855,
				"z": 2.028513652,
				"element": "H" 
			}
		],
		 "valence_orbital": [ 
			{
				"type": "occ",
				"energy": -0.34303,
				"method": "rhf"
			},
			{
				"type": "occ",
				"energy": -0.31804,
				"method": "rhf"
			},
			{
				"type": "occ",
				"energy": -0.28267,
				"method": "rhf"
			},
			{
				"type": "occ",
				"energy": -0.26038,
				"method": "rhf"
			},
			{
				"type": "occ",
				"energy": -0.25154,
				"method": "rhf"
			},
			{
				"type": "unocc",
				"energy": -0.02722,
				"method": "rhf"
			},
			{
				"type": "unocc",
				"energy": -0.0098,
				"method": "rhf"
			},
			{
				"type": "unocc",
				"energy": -0.00094,
				"method": "rhf"
			},
			{
				"type": "unocc",
				"energy": 0.04867,
				"method": "rhf"
			},
			{
				"type": "unocc",
				"energy": 0.08703,
				"method": "rhf"
			}
		],
		"cosmo_sigma_profile": { 
			"-0.025": 0.0,
			"-0.024": 0.0,
			"-0.023": 0.0,
			"-0.022": 0.0,
			"-0.021": 0.0,
			"-0.02": 0.0031675561529,
			"-0.019": 0.743001019395,
			"-0.018": 1.10622724179,
			"-0.017": 0.690699970569,
			"-0.016": 1.22059158493,
			"-0.015": 0.935521777378,
			"-0.014": 1.0017972598,
			"-0.013": 1.07235878924,
			"-0.012": 1.59393624692,
			"-0.011": 1.51138054338,
			"-0.01": 1.43660664727,
			"-0.009": 1.97664807653,
			"-0.008": 6.11108437699,
			"-0.007": 5.03481553875,
			"-0.006": 6.11815822487,
			"-0.005": 7.88216790265,
			"-0.004": 7.56159256186,
			"-0.003": 8.479819647,
			"-0.002": 9.61356032279,
			"-0.001": 10.8345270761,
			"0.0": 19.9563537973,
			"0.001": 24.7696162851,
			"0.002": 17.8346510354,
			"0.003": 13.3255178663,
			"0.004": 23.0076821084,
			"0.005": 5.07034578186,
			"0.006": 2.77644702378,
			"0.007": 1.95506107273,
			"0.008": 1.77258982876,
			"0.009": 2.8990404071,
			"0.01": 4.36757247157,
			"0.011": 5.23025968074,
			"0.012": 1.79289690219,
			"0.013": 0.530879639516,
			"0.014": 0.0,
			"0.015": 0.0,
			"0.016": 0.0,
			"0.017": 0.0,
			"0.018": 0.0,
			"0.019": 0.0,
			"0.02": 0.0,
			"0.021": 0.0,
			"0.022": 0.0,
			"0.023": 0.0,
			"0.024": 0.0,
			"0.025": 0.0
		}
	}
}
