{
	 "smiles": "OC(=O)C1CC1C1=CC=NC=C1", 
	 "Tm": 502.15, 
	 "num_atms": 21, 
	 "gaussian": { 
		 "optdone": 1, 
		 "sigma_profile": "yes", 
		 "theory": "DFT", 
		 "functional": "B3LYP", 
		 "basiset": "6-31G**", 
		 "properties": { 
			 "R2extent": 2624.0513, 
			 "electric_dipole_moment_norm": 2.63335191344, 
			 "electric_quadrupole_moment_norm": 29.3365046505, 
			 "total_energy": -553.557546656, 
			 "HOMO_LUMO_gap": 0.22121, 
			 "cosmo_polarized_energy": -18.23, 
			 "cosmo_cavitation_energy": 25.47, 
			 "cosmo_dispersion_energy": -18.49, 
			 "cosmo_repulsion_energy": 1.47, 
			 "cosmo_total_nonelectrostatic_energy": 8.45, 
			 "SMD_solvation_energy": 3.78 
		},
		"coords": [
			{
				"x": 1.4624384304,
				"y": -2.4031190606,
				"z": 3.1723668792,
				"element": "O" 
			},
			{
				"x": 0.6926802277,
				"y": -1.3047312849,
				"z": 2.96018943,
				"element": "C" 
			},
			{
				"x": 0.6798922914,
				"y": -0.4050977992,
				"z": 3.7672542323,
				"element": "O" 
			},
			{
				"x": -0.1044687487,
				"y": -1.2880024852,
				"z": 1.6940327161,
				"element": "C" 
			},
			{
				"x": -1.4072942559,
				"y": -0.5245723048,
				"z": 1.7096273475,
				"element": "C" 
			},
			{
				"x": -0.2332970834,
				"y": 0.0742434998,
				"z": 0.99427108,
				"element": "C" 
			},
			{
				"x": -0.1585430852,
				"y": 0.1679159771,
				"z": -0.4890633084,
				"element": "C" 
			},
			{
				"x": 0.5756696374,
				"y": 1.2002250471,
				"z": -1.0864549425,
				"element": "C" 
			},
			{
				"x": 0.6431782621,
				"y": 1.2785502794,
				"z": -2.4771939521,
				"element": "C" 
			},
			{
				"x": 0.0429766209,
				"y": 0.4143165346,
				"z": -3.3045623804,
				"element": "N" 
			},
			{
				"x": -0.6588388701,
				"y": -0.5717521883,
				"z": -2.7307924458,
				"element": "C" 
			},
			{
				"x": -0.7906387603,
				"y": -0.7375133529,
				"z": -1.3534183083,
				"element": "C" 
			},
			{
				"x": 1.3720552393,
				"y": -3.0266125158,
				"z": 2.4384486192,
				"element": "H" 
			},
			{
				"x": -0.0402054206,
				"y": -2.1540635113,
				"z": 1.0394658006,
				"element": "H" 
			},
			{
				"x": -2.2267600413,
				"y": -0.9188369739,
				"z": 1.1172042689,
				"element": "H" 
			},
			{
				"x": -1.6828210818,
				"y": -0.0787890738,
				"z": 2.6594506235,
				"element": "H" 
			},
			{
				"x": 0.2691730639,
				"y": 0.87470676,
				"z": 1.5294704907,
				"element": "H" 
			},
			{
				"x": 1.0888994311,
				"y": 1.9365050081,
				"z": -0.4746263693,
				"element": "H" 
			},
			{
				"x": 1.2111488308,
				"y": 2.0787934978,
				"z": -2.9488519824,
				"element": "H" 
			},
			{
				"x": -1.1462192493,
				"y": -1.2699147958,
				"z": -3.4095324879,
				"element": "H" 
			},
			{
				"x": -1.3840254382,
				"y": -1.5639512574,
				"z": -0.9722853109,
				"element": "H" 
			}
		],
		 "valence_orbital": [ 
			{
				"type": "occ",
				"energy": -0.31396,
				"method": "rhf"
			},
			{
				"type": "occ",
				"energy": -0.28333,
				"method": "rhf"
			},
			{
				"type": "occ",
				"energy": -0.26859,
				"method": "rhf"
			},
			{
				"type": "occ",
				"energy": -0.26796,
				"method": "rhf"
			},
			{
				"type": "occ",
				"energy": -0.25875,
				"method": "rhf"
			},
			{
				"type": "unocc",
				"energy": -0.03754,
				"method": "rhf"
			},
			{
				"type": "unocc",
				"energy": -0.01799,
				"method": "rhf"
			},
			{
				"type": "unocc",
				"energy": 0.00735,
				"method": "rhf"
			},
			{
				"type": "unocc",
				"energy": 0.04577,
				"method": "rhf"
			},
			{
				"type": "unocc",
				"energy": 0.08343,
				"method": "rhf"
			}
		],
		"cosmo_sigma_profile": { 
			"-0.025": 0.0,
			"-0.024": 0.0,
			"-0.023": 0.0,
			"-0.022": 0.0,
			"-0.021": 0.0,
			"-0.02": 0.0479735068914,
			"-0.019": 1.23222265687,
			"-0.018": 1.06668894707,
			"-0.017": 1.36384316187,
			"-0.016": 1.176688172,
			"-0.015": 0.998678152134,
			"-0.014": 0.750796069972,
			"-0.013": 0.78325371324,
			"-0.012": 1.30515100769,
			"-0.011": 1.13547055629,
			"-0.01": 0.762912654645,
			"-0.009": 1.45809946372,
			"-0.008": 4.31830687516,
			"-0.007": 8.63758114336,
			"-0.006": 13.2485399619,
			"-0.005": 13.4696257699,
			"-0.004": 11.100331189,
			"-0.003": 11.7334691148,
			"-0.002": 12.9826856647,
			"-0.001": 12.9502938428,
			"0.0": 11.216295471,
			"0.001": 12.2442084684,
			"0.002": 16.9107374447,
			"0.003": 14.1746131049,
			"0.004": 4.1457969134,
			"0.005": 4.42923307082,
			"0.006": 3.85178409203,
			"0.007": 3.53901604433,
			"0.008": 4.41180827333,
			"0.009": 3.73477107816,
			"0.01": 5.72763297455,
			"0.011": 5.42848593696,
			"0.012": 5.9960314714,
			"0.013": 3.32811810993,
			"0.014": 1.06466462361,
			"0.015": 0.700223759553,
			"0.016": 1.12192905094,
			"0.017": 0.430330150923,
			"0.018": 0.0,
			"0.019": 0.0,
			"0.02": 0.0,
			"0.021": 0.0,
			"0.022": 0.0,
			"0.023": 0.0,
			"0.024": 0.0,
			"0.025": 0.0
		}
	}
}
