{
	 "smiles": "CC(C)=CCCC(C)=CC=CC(C)=CC=CC(C)=C/C=C/C=C(C)/C=C/C=C(C)/C=C/C=C(C)CCCC(C)(C)O", 
	 "Tm": 444.15, 
	 "num_atms": 99, 
	 "gaussian": { 
		 "optdone": 1, 
		 "sigma_profile": "yes", 
		 "theory": "DFT", 
		 "functional": "B3LYP", 
		 "basiset": "6-31G**", 
		 "properties": { 
			 "R2extent": 76015.4553, 
			 "electric_dipole_moment_norm": 1.75183176418, 
			 "electric_quadrupole_moment_norm": 23.8010574299, 
			 "total_energy": -1634.31271705, 
			 "HOMO_LUMO_gap": 0.0898, 
			 "cosmo_polarized_energy": -16.54, 
			 "cosmo_cavitation_energy": 99.26, 
			 "cosmo_dispersion_energy": -63.74, 
			 "cosmo_repulsion_energy": 4.9, 
			 "cosmo_total_nonelectrostatic_energy": 40.41, 
			 "SMD_solvation_energy": 16.5 
		},
		"coords": [
			{
				"x": 4.295014491,
				"y": -1.0834613535,
				"z": 10.3917510718,
				"element": "C" 
			},
			{
				"x": 4.4749163837,
				"y": -2.4605921454,
				"z": 9.7976188332,
				"element": "C" 
			},
			{
				"x": 5.9029787899,
				"y": -2.9497577157,
				"z": 9.7848756582,
				"element": "C" 
			},
			{
				"x": 3.4201300435,
				"y": -3.1532911721,
				"z": 9.3410922448,
				"element": "C" 
			},
			{
				"x": 3.3868407527,
				"y": -4.5271182571,
				"z": 8.7274855579,
				"element": "C" 
			},
			{
				"x": 2.5994196179,
				"y": -4.5765208758,
				"z": 7.3916914511,
				"element": "C" 
			},
			{
				"x": 3.2063364109,
				"y": -3.7525841004,
				"z": 6.27799197,
				"element": "C" 
			},
			{
				"x": 4.5787445155,
				"y": -4.1792124497,
				"z": 5.8217741196,
				"element": "C" 
			},
			{
				"x": 2.5048369895,
				"y": -2.7306038684,
				"z": 5.733676756,
				"element": "C" 
			},
			{
				"x": 2.8727584964,
				"y": -1.7979715473,
				"z": 4.6763913819,
				"element": "C" 
			},
			{
				"x": 4.1112658192,
				"y": -1.3363023965,
				"z": 4.3655799778,
				"element": "C" 
			},
			{
				"x": 4.4480010207,
				"y": -0.4107143074,
				"z": 3.2949798373,
				"element": "C" 
			},
			{
				"x": 3.345671687,
				"y": 0.1850807138,
				"z": 2.4552133094,
				"element": "C" 
			},
			{
				"x": 5.7697689436,
				"y": -0.0982491826,
				"z": 3.1181039054,
				"element": "C" 
			},
			{
				"x": 6.4210223788,
				"y": 0.7204103847,
				"z": 2.1204876391,
				"element": "C" 
			},
			{
				"x": 6.0041172394,
				"y": 1.0127438413,
				"z": 0.8548174743,
				"element": "C" 
			},
			{
				"x": 6.7642168557,
				"y": 1.7791521831,
				"z": -0.1124485747,
				"element": "C" 
			},
			{
				"x": 8.1815529546,
				"y": 2.1788525574,
				"z": 0.2351097697,
				"element": "C" 
			},
			{
				"x": 6.279199172,
				"y": 2.1015066965,
				"z": -1.3543639835,
				"element": "C" 
			},
			{
				"x": 4.9580602184,
				"y": 1.9334465191,
				"z": -1.9182596081,
				"element": "C" 
			},
			{
				"x": 3.7622655081,
				"y": 1.9697973231,
				"z": -1.2585635507,
				"element": "C" 
			},
			{
				"x": 2.4344706597,
				"y": 1.8045225256,
				"z": -1.8000036904,
				"element": "C" 
			},
			{
				"x": 2.0191740344,
				"y": 1.1465769981,
				"z": -2.9278665232,
				"element": "C" 
			},
			{
				"x": 2.9429361778,
				"y": 0.3227342157,
				"z": -3.7955083002,
				"element": "C" 
			},
			{
				"x": 0.6186857568,
				"y": 1.1615417624,
				"z": -3.3318395279,
				"element": "C" 
			},
			{
				"x": -0.2853955508,
				"y": 2.1426936411,
				"z": -3.0520094727,
				"element": "C" 
			},
			{
				"x": -1.6892613159,
				"y": 2.1990160768,
				"z": -3.3911316942,
				"element": "C" 
			},
			{
				"x": -2.5691953374,
				"y": 1.1881920078,
				"z": -3.6647811397,
				"element": "C" 
			},
			{
				"x": -2.2245881545,
				"y": -0.2767518555,
				"z": -3.5293228587,
				"element": "C" 
			},
			{
				"x": -3.9446079054,
				"y": 1.4810818533,
				"z": -4.0650316118,
				"element": "C" 
			},
			{
				"x": -4.3618660718,
				"y": 2.5858576202,
				"z": -4.7349310145,
				"element": "C" 
			},
			{
				"x": -5.7186516123,
				"y": 2.9399193037,
				"z": -5.1286979993,
				"element": "C" 
			},
			{
				"x": -6.90060588,
				"y": 2.6401742097,
				"z": -4.5380811624,
				"element": "C" 
			},
			{
				"x": -7.0321540216,
				"y": 1.86956708,
				"z": -3.2479472289,
				"element": "C" 
			},
			{
				"x": -8.197850974,
				"y": 3.1235360309,
				"z": -5.1500133586,
				"element": "C" 
			},
			{
				"x": -9.1426747202,
				"y": 1.993905088,
				"z": -5.6253481106,
				"element": "C" 
			},
			{
				"x": -8.5693291839,
				"y": 1.1840473775,
				"z": -6.7956752402,
				"element": "C" 
			},
			{
				"x": -9.4261249022,
				"y": 0.0123728752,
				"z": -7.3265408354,
				"element": "C" 
			},
			{
				"x": -10.7747696874,
				"y": 0.4860609053,
				"z": -7.875641899,
				"element": "C" 
			},
			{
				"x": -9.6222905571,
				"y": -1.0850235622,
				"z": -6.2683599609,
				"element": "C" 
			},
			{
				"x": -8.7541016883,
				"y": -0.5510382809,
				"z": -8.466722849,
				"element": "O" 
			},
			{
				"x": 4.8763672263,
				"y": -0.3352019045,
				"z": 9.8364585568,
				"element": "H" 
			},
			{
				"x": 3.2474650734,
				"y": -0.770064861,
				"z": 10.3863453388,
				"element": "H" 
			},
			{
				"x": 4.6557892729,
				"y": -1.0487246717,
				"z": 11.4286764475,
				"element": "H" 
			},
			{
				"x": 6.2991200906,
				"y": -3.0108155127,
				"z": 10.8073520953,
				"element": "H" 
			},
			{
				"x": 6.0213139747,
				"y": -3.9327795822,
				"z": 9.3251832518,
				"element": "H" 
			},
			{
				"x": 6.5491527646,
				"y": -2.2438756251,
				"z": 9.2465696011,
				"element": "H" 
			},
			{
				"x": 2.4419615448,
				"y": -2.6750633458,
				"z": 9.4194696376,
				"element": "H" 
			},
			{
				"x": 4.3963085633,
				"y": -4.9207459777,
				"z": 8.5738863865,
				"element": "H" 
			},
			{
				"x": 2.8940925733,
				"y": -5.223186916,
				"z": 9.4227394443,
				"element": "H" 
			},
			{
				"x": 1.5690127834,
				"y": -4.2494396191,
				"z": 7.5751068552,
				"element": "H" 
			},
			{
				"x": 2.5456470891,
				"y": -5.6288983436,
				"z": 7.0745502153,
				"element": "H" 
			},
			{
				"x": 4.7682231909,
				"y": -3.8928179516,
				"z": 4.7841968797,
				"element": "H" 
			},
			{
				"x": 4.6922099467,
				"y": -5.26661532,
				"z": 5.9075671343,
				"element": "H" 
			},
			{
				"x": 5.3711804773,
				"y": -3.731067279,
				"z": 6.4360706909,
				"element": "H" 
			},
			{
				"x": 1.4892784621,
				"y": -2.5934239123,
				"z": 6.1072818451,
				"element": "H" 
			},
			{
				"x": 2.0266109113,
				"y": -1.4136428255,
				"z": 4.1084679185,
				"element": "H" 
			},
			{
				"x": 4.953953847,
				"y": -1.6666799809,
				"z": 4.967714882,
				"element": "H" 
			},
			{
				"x": 3.645240368,
				"y": 1.1566178117,
				"z": 2.0570223389,
				"element": "H" 
			},
			{
				"x": 2.4367407744,
				"y": 0.3311483901,
				"z": 3.0455421034,
				"element": "H" 
			},
			{
				"x": 3.0796986284,
				"y": -0.4549207554,
				"z": 1.6038906552,
				"element": "H" 
			},
			{
				"x": 6.4540709051,
				"y": -0.5142829149,
				"z": 3.8582278671,
				"element": "H" 
			},
			{
				"x": 7.3941942165,
				"y": 1.0993015568,
				"z": 2.4288385224,
				"element": "H" 
			},
			{
				"x": 5.0740709872,
				"y": 0.5879590537,
				"z": 0.4962420348,
				"element": "H" 
			},
			{
				"x": 8.2019819114,
				"y": 2.8654579087,
				"z": 1.0905985903,
				"element": "H" 
			},
			{
				"x": 8.7892386618,
				"y": 1.3091087851,
				"z": 0.511484065,
				"element": "H" 
			},
			{
				"x": 8.6670133842,
				"y": 2.6828437562,
				"z": -0.6040439437,
				"element": "H" 
			},
			{
				"x": 7.0008050671,
				"y": 2.5354926673,
				"z": -2.0466855343,
				"element": "H" 
			},
			{
				"x": 4.9383457437,
				"y": 1.8655413064,
				"z": -3.0035792877,
				"element": "H" 
			},
			{
				"x": 3.7896185588,
				"y": 2.2259004734,
				"z": -0.2012155275,
				"element": "H" 
			},
			{
				"x": 1.6469147719,
				"y": 2.2285166617,
				"z": -1.1797530065,
				"element": "H" 
			},
			{
				"x": 3.7918328782,
				"y": -0.0698494601,
				"z": -3.228967449,
				"element": "H" 
			},
			{
				"x": 3.3479524032,
				"y": 0.9095219708,
				"z": -4.6305297096,
				"element": "H" 
			},
			{
				"x": 2.4008405384,
				"y": -0.5191108494,
				"z": -4.2400525511,
				"element": "H" 
			},
			{
				"x": 0.3097746691,
				"y": 0.3368187896,
				"z": -3.9694060109,
				"element": "H" 
			},
			{
				"x": 0.092632855,
				"y": 3.0338954482,
				"z": -2.5518943922,
				"element": "H" 
			},
			{
				"x": -2.1091076594,
				"y": 3.2032985485,
				"z": -3.3800728718,
				"element": "H" 
			},
			{
				"x": -1.8789929103,
				"y": -0.7030103722,
				"z": -4.4805556255,
				"element": "H" 
			},
			{
				"x": -3.108563096,
				"y": -0.8521311613,
				"z": -3.2327557355,
				"element": "H" 
			},
			{
				"x": -1.4364863293,
				"y": -0.4432410337,
				"z": -2.7898985141,
				"element": "H" 
			},
			{
				"x": -4.6696949666,
				"y": 0.6982495497,
				"z": -3.8516144899,
				"element": "H" 
			},
			{
				"x": -3.5947810063,
				"y": 3.2801069347,
				"z": -5.0777305091,
				"element": "H" 
			},
			{
				"x": -5.7714877976,
				"y": 3.5746710397,
				"z": -6.0138625284,
				"element": "H" 
			},
			{
				"x": -7.222033905,
				"y": 0.8017614614,
				"z": -3.4214682573,
				"element": "H" 
			},
			{
				"x": -6.1267232592,
				"y": 1.9423251037,
				"z": -2.6398094612,
				"element": "H" 
			},
			{
				"x": -7.8788233647,
				"y": 2.2450552571,
				"z": -2.6610412685,
				"element": "H" 
			},
			{
				"x": -8.7386727594,
				"y": 3.7231707041,
				"z": -4.402914964,
				"element": "H" 
			},
			{
				"x": -7.9848307327,
				"y": 3.7888722205,
				"z": -5.995246441,
				"element": "H" 
			},
			{
				"x": -9.3697111354,
				"y": 1.3338314391,
				"z": -4.7792253395,
				"element": "H" 
			},
			{
				"x": -10.094688335,
				"y": 2.4507072229,
				"z": -5.9207356545,
				"element": "H" 
			},
			{
				"x": -8.3782249675,
				"y": 1.8554035883,
				"z": -7.6427801242,
				"element": "H" 
			},
			{
				"x": -7.5893893518,
				"y": 0.7805864482,
				"z": -6.5014084229,
				"element": "H" 
			},
			{
				"x": -11.2953381013,
				"y": -0.3516833802,
				"z": -8.3486431183,
				"element": "H" 
			},
			{
				"x": -11.4132620482,
				"y": 0.8852918402,
				"z": -7.0826990521,
				"element": "H" 
			},
			{
				"x": -10.6263853487,
				"y": 1.2630398358,
				"z": -8.6317169105,
				"element": "H" 
			},
			{
				"x": -10.2047703725,
				"y": -0.7336641292,
				"z": -5.4107489038,
				"element": "H" 
			},
			{
				"x": -8.6543191665,
				"y": -1.4388967132,
				"z": -5.8918142841,
				"element": "H" 
			},
			{
				"x": -10.1450401186,
				"y": -1.9373282321,
				"z": -6.7120318529,
				"element": "H" 
			},
			{
				"x": -7.8756457366,
				"y": -0.8321298633,
				"z": -8.1763323792,
				"element": "H" 
			}
		],
		 "valence_orbital": [ 
			{
				"type": "occ",
				"energy": -0.234,
				"method": "rhf"
			},
			{
				"type": "occ",
				"energy": -0.2268,
				"method": "rhf"
			},
			{
				"type": "occ",
				"energy": -0.21182,
				"method": "rhf"
			},
			{
				"type": "occ",
				"energy": -0.18891,
				"method": "rhf"
			},
			{
				"type": "occ",
				"energy": -0.16795,
				"method": "rhf"
			},
			{
				"type": "unocc",
				"energy": -0.07815,
				"method": "rhf"
			},
			{
				"type": "unocc",
				"energy": -0.05247,
				"method": "rhf"
			},
			{
				"type": "unocc",
				"energy": -0.02498,
				"method": "rhf"
			},
			{
				"type": "unocc",
				"energy": 0.00408,
				"method": "rhf"
			},
			{
				"type": "unocc",
				"energy": 0.026,
				"method": "rhf"
			}
		],
		"cosmo_sigma_profile": { 
			"-0.025": 0.0,
			"-0.024": 0.0,
			"-0.023": 0.0,
			"-0.022": 0.0,
			"-0.021": 0.0,
			"-0.02": 0.0,
			"-0.019": 0.0,
			"-0.018": 0.0,
			"-0.017": 0.0,
			"-0.016": 0.0,
			"-0.015": 0.024241312391,
			"-0.014": 0.59054126416,
			"-0.013": 0.92266208367,
			"-0.012": 0.843677565773,
			"-0.011": 0.571985492466,
			"-0.01": 1.62823996384,
			"-0.009": 1.27194396198,
			"-0.008": 0.534203595319,
			"-0.007": 1.26259758233,
			"-0.006": 0.999509441472,
			"-0.005": 12.8218593792,
			"-0.004": 55.8664662875,
			"-0.003": 101.444056027,
			"-0.002": 110.238803069,
			"-0.001": 102.464983703,
			"0.0": 96.7897034355,
			"0.001": 82.7112675407,
			"0.002": 41.8722432745,
			"0.003": 35.6722101201,
			"0.004": 38.3485827503,
			"0.005": 42.1050184438,
			"0.006": 26.9429932692,
			"0.007": 5.67141395721,
			"0.008": 3.29252231331,
			"0.009": 1.79292043593,
			"0.01": 1.40784150046,
			"0.011": 1.18280883389,
			"0.012": 1.0842371558,
			"0.013": 1.31413148775,
			"0.014": 1.87210913313,
			"0.015": 1.73062770668,
			"0.016": 0.0511584807125,
			"0.017": 0.0,
			"0.018": 0.0,
			"0.019": 0.0,
			"0.02": 0.0,
			"0.021": 0.0,
			"0.022": 0.0,
			"0.023": 0.0,
			"0.024": 0.0,
			"0.025": 0.0
		}
	}
}
