{
	 "smiles": "NC(=O)N1CCCC1C(O)=O", 
	 "Tm": 479.15, 
	 "num_atms": 21, 
	 "gaussian": { 
		 "optdone": 1, 
		 "sigma_profile": "yes", 
		 "theory": "DFT", 
		 "functional": "B3LYP", 
		 "basiset": "6-31G**", 
		 "properties": { 
			 "R2extent": 2496.5484, 
			 "electric_dipole_moment_norm": 3.6172769247, 
			 "electric_quadrupole_moment_norm": 14.5990584159, 
			 "total_energy": -569.878737679, 
			 "HOMO_LUMO_gap": 0.25047, 
			 "cosmo_polarized_energy": -19.67, 
			 "cosmo_cavitation_energy": 24.25, 
			 "cosmo_dispersion_energy": -17.61, 
			 "cosmo_repulsion_energy": 1.46, 
			 "cosmo_total_nonelectrostatic_energy": 8.09, 
			 "SMD_solvation_energy": 5.31 
		},
		"coords": [
			{
				"x": -1.3113641825,
				"y": 3.5745492466,
				"z": -0.9726484236,
				"element": "N" 
			},
			{
				"x": -0.8181970965,
				"y": 2.2766844071,
				"z": -1.072339326,
				"element": "C" 
			},
			{
				"x": -1.3262169092,
				"y": 1.4284828574,
				"z": -1.8001247722,
				"element": "O" 
			},
			{
				"x": 0.2517636412,
				"y": 1.9895262484,
				"z": -0.2603084182,
				"element": "N" 
			},
			{
				"x": 0.7895763959,
				"y": 2.8207040559,
				"z": 0.8176643486,
				"element": "C" 
			},
			{
				"x": 1.4419913885,
				"y": 1.7905768242,
				"z": 1.7517599411,
				"element": "C" 
			},
			{
				"x": 1.926177846,
				"y": 0.6992418336,
				"z": 0.7826549276,
				"element": "C" 
			},
			{
				"x": 0.8101112141,
				"y": 0.6435130796,
				"z": -0.2895727517,
				"element": "C" 
			},
			{
				"x": 1.3835723863,
				"y": 0.306462266,
				"z": -1.6633889404,
				"element": "C" 
			},
			{
				"x": 1.2662909185,
				"y": -1.0131967799,
				"z": -1.9283590394,
				"element": "O" 
			},
			{
				"x": 1.9398065922,
				"y": 1.0871231894,
				"z": -2.4008112352,
				"element": "O" 
			},
			{
				"x": -0.6455966971,
				"y": 4.3168358749,
				"z": -0.8060981231,
				"element": "H" 
			},
			{
				"x": -1.9685252172,
				"y": 3.776290375,
				"z": -1.713606312,
				"element": "H" 
			},
			{
				"x": 1.5362072474,
				"y": 3.5355206664,
				"z": 0.438784736,
				"element": "H" 
			},
			{
				"x": -0.0113430225,
				"y": 3.3865991262,
				"z": 1.3038852534,
				"element": "H" 
			},
			{
				"x": 0.6899147344,
				"y": 1.3837761273,
				"z": 2.4364068043,
				"element": "H" 
			},
			{
				"x": 2.2504356801,
				"y": 2.2174541792,
				"z": 2.351409223,
				"element": "H" 
			},
			{
				"x": 2.8664477637,
				"y": 1.0080267153,
				"z": 0.3130997156,
				"element": "H" 
			},
			{
				"x": 2.0840202554,
				"y": -0.2708487697,
				"z": 1.2588597453,
				"element": "H" 
			},
			{
				"x": 0.0468122128,
				"y": -0.1029473863,
				"z": -0.0456371178,
				"element": "H" 
			},
			{
				"x": 1.6772148483,
				"y": -1.1524741366,
				"z": -2.7981302353,
				"element": "H" 
			}
		],
		 "valence_orbital": [ 
			{
				"type": "occ",
				"energy": -0.31153,
				"method": "rhf"
			},
			{
				"type": "occ",
				"energy": -0.27326,
				"method": "rhf"
			},
			{
				"type": "occ",
				"energy": -0.2681,
				"method": "rhf"
			},
			{
				"type": "occ",
				"energy": -0.24799,
				"method": "rhf"
			},
			{
				"type": "occ",
				"energy": -0.23605,
				"method": "rhf"
			},
			{
				"type": "unocc",
				"energy": 0.01442,
				"method": "rhf"
			},
			{
				"type": "unocc",
				"energy": 0.05431,
				"method": "rhf"
			},
			{
				"type": "unocc",
				"energy": 0.07351,
				"method": "rhf"
			},
			{
				"type": "unocc",
				"energy": 0.08505,
				"method": "rhf"
			},
			{
				"type": "unocc",
				"energy": 0.09068,
				"method": "rhf"
			}
		],
		"cosmo_sigma_profile": { 
			"-0.025": 0.0,
			"-0.024": 0.0,
			"-0.023": 0.0,
			"-0.022": 0.0,
			"-0.021": 0.0,
			"-0.02": 0.0,
			"-0.019": 0.00565813799576,
			"-0.018": 1.18633826775,
			"-0.017": 0.608086863779,
			"-0.016": 0.718260585059,
			"-0.015": 1.12303799614,
			"-0.014": 0.729882313528,
			"-0.013": 2.49906364692,
			"-0.012": 3.26427454721,
			"-0.011": 3.09538218938,
			"-0.01": 3.64635988012,
			"-0.009": 2.33841580982,
			"-0.008": 2.6349170308,
			"-0.007": 3.34365003273,
			"-0.006": 3.98460818215,
			"-0.005": 12.4568069985,
			"-0.004": 22.8496852391,
			"-0.003": 20.8304623843,
			"-0.002": 15.0732568883,
			"-0.001": 12.1341205681,
			"0.0": 5.70749928039,
			"0.001": 4.95736001541,
			"0.002": 4.65732028721,
			"0.003": 3.96503565762,
			"0.004": 4.58045388249,
			"0.005": 3.76400409275,
			"0.006": 5.42730098911,
			"0.007": 4.27893823623,
			"0.008": 6.03664231819,
			"0.009": 6.39298602593,
			"0.01": 4.70004949316,
			"0.011": 5.02411196441,
			"0.012": 7.03739393247,
			"0.013": 3.16681846896,
			"0.014": 4.68472602325,
			"0.015": 2.21813366035,
			"0.016": 0.0748756053782,
			"0.017": 0.0,
			"0.018": 0.0,
			"0.019": 0.0,
			"0.02": 0.0,
			"0.021": 0.0,
			"0.022": 0.0,
			"0.023": 0.0,
			"0.024": 0.0,
			"0.025": 0.0
		}
	}
}
