{
	 "smiles": "O=C1C=CC(=O)N1CCCN1CCOCC1", 
	 "Tm": 313.15, 
	 "num_atms": 32, 
	 "gaussian": { 
		 "optdone": 1, 
		 "sigma_profile": "yes", 
		 "theory": "DFT", 
		 "functional": "B3LYP", 
		 "basiset": "6-31G**", 
		 "properties": { 
			 "R2extent": 5066.678, 
			 "electric_dipole_moment_norm": 2.49154391693, 
			 "electric_quadrupole_moment_norm": 17.7504781096, 
			 "total_energy": -763.956162437, 
			 "HOMO_LUMO_gap": 0.09576, 
			 "cosmo_polarized_energy": -13.52, 
			 "cosmo_cavitation_energy": 33.57, 
			 "cosmo_dispersion_energy": -23.96, 
			 "cosmo_repulsion_energy": 1.86, 
			 "cosmo_total_nonelectrostatic_energy": 11.47, 
			 "SMD_solvation_energy": 4.88 
		},
		"coords": [
			{
				"x": 3.3338830158,
				"y": -3.0435960177,
				"z": -2.3104022561,
				"element": "O" 
			},
			{
				"x": 3.1801462143,
				"y": -2.8907367889,
				"z": -1.115597385,
				"element": "C" 
			},
			{
				"x": 4.1629608639,
				"y": -3.1570817647,
				"z": -0.0096432672,
				"element": "C" 
			},
			{
				"x": 3.5739590302,
				"y": -2.8817084848,
				"z": 1.1576271906,
				"element": "C" 
			},
			{
				"x": 2.1702284903,
				"y": -2.4139256239,
				"z": 0.8901074299,
				"element": "C" 
			},
			{
				"x": 1.3283354589,
				"y": -2.087235041,
				"z": 1.7047215363,
				"element": "O" 
			},
			{
				"x": 2.0113490556,
				"y": -2.4302445411,
				"z": -0.4973999452,
				"element": "N" 
			},
			{
				"x": 0.7777143206,
				"y": -2.1146516356,
				"z": -1.2177621105,
				"element": "C" 
			},
			{
				"x": 0.8151055902,
				"y": -0.7469450846,
				"z": -1.9183225537,
				"element": "C" 
			},
			{
				"x": 0.8672630812,
				"y": 0.4903349807,
				"z": -0.9875100428,
				"element": "C" 
			},
			{
				"x": -0.3822744502,
				"y": 0.9925289014,
				"z": -0.439149327,
				"element": "N" 
			},
			{
				"x": -1.2699786251,
				"y": 1.6473872171,
				"z": -1.395433418,
				"element": "C" 
			},
			{
				"x": -2.6491854354,
				"y": 1.8779717037,
				"z": -0.7496027678,
				"element": "C" 
			},
			{
				"x": -2.5241747279,
				"y": 2.2037172734,
				"z": 0.6203210808,
				"element": "O" 
			},
			{
				"x": -1.9752349522,
				"y": 1.1299800037,
				"z": 1.3870854529,
				"element": "C" 
			},
			{
				"x": -1.0931070151,
				"y": 0.1908056644,
				"z": 0.543048579,
				"element": "C" 
			},
			{
				"x": 5.1641650336,
				"y": -3.51582211,
				"z": -0.2086870203,
				"element": "H" 
			},
			{
				"x": 3.9673989423,
				"y": -2.9552288984,
				"z": 2.1628767643,
				"element": "H" 
			},
			{
				"x": -0.0308247605,
				"y": -2.1770987131,
				"z": -0.4871130848,
				"element": "H" 
			},
			{
				"x": 0.6294263537,
				"y": -2.9027628613,
				"z": -1.9623822696,
				"element": "H" 
			},
			{
				"x": 1.6877899557,
				"y": -0.7377986854,
				"z": -2.5816329374,
				"element": "H" 
			},
			{
				"x": -0.0622499657,
				"y": -0.6813364307,
				"z": -2.5736391979,
				"element": "H" 
			},
			{
				"x": 1.3166306646,
				"y": 1.317679526,
				"z": -1.552273091,
				"element": "H" 
			},
			{
				"x": 1.5481792142,
				"y": 0.2868895844,
				"z": -0.1511513651,
				"element": "H" 
			},
			{
				"x": -1.4240770612,
				"y": 1.0669398701,
				"z": -2.3266276794,
				"element": "H" 
			},
			{
				"x": -0.8203867064,
				"y": 2.6061773969,
				"z": -1.6887515134,
				"element": "H" 
			},
			{
				"x": -3.157705644,
				"y": 2.7182641552,
				"z": -1.230833855,
				"element": "H" 
			},
			{
				"x": -3.2874385902,
				"y": 0.9893753119,
				"z": -0.884961085,
				"element": "H" 
			},
			{
				"x": -2.7833093806,
				"y": 0.5526158338,
				"z": 1.8651294314,
				"element": "H" 
			},
			{
				"x": -1.3771043139,
				"y": 1.6001038513,
				"z": 2.1742494177,
				"element": "H" 
			},
			{
				"x": -1.718024128,
				"y": -0.6046711343,
				"z": 0.0910566325,
				"element": "H" 
			},
			{
				"x": -0.3734595286,
				"y": -0.3154274587,
				"z": 1.1927526568,
				"element": "H" 
			}
		],
		 "valence_orbital": [ 
			{
				"type": "occ",
				"energy": -0.29821,
				"method": "rhf"
			},
			{
				"type": "occ",
				"energy": -0.27892,
				"method": "rhf"
			},
			{
				"type": "occ",
				"energy": -0.2757,
				"method": "rhf"
			},
			{
				"type": "occ",
				"energy": -0.23969,
				"method": "rhf"
			},
			{
				"type": "occ",
				"energy": -0.19704,
				"method": "rhf"
			},
			{
				"type": "unocc",
				"energy": -0.10128,
				"method": "rhf"
			},
			{
				"type": "unocc",
				"energy": 0.04795,
				"method": "rhf"
			},
			{
				"type": "unocc",
				"energy": 0.05996,
				"method": "rhf"
			},
			{
				"type": "unocc",
				"energy": 0.0826,
				"method": "rhf"
			},
			{
				"type": "unocc",
				"energy": 0.09989,
				"method": "rhf"
			}
		],
		"cosmo_sigma_profile": { 
			"-0.025": 0.0,
			"-0.024": 0.0,
			"-0.023": 0.0,
			"-0.022": 0.0,
			"-0.021": 0.0,
			"-0.02": 0.0,
			"-0.019": 0.0,
			"-0.018": 0.0,
			"-0.017": 0.0,
			"-0.016": 0.0,
			"-0.015": 0.0,
			"-0.014": 0.0,
			"-0.013": 0.0,
			"-0.012": 0.0,
			"-0.011": 0.0,
			"-0.01": 1.07839946311,
			"-0.009": 3.94690562016,
			"-0.008": 3.01556797583,
			"-0.007": 3.60890679788,
			"-0.006": 3.45466469892,
			"-0.005": 11.7624453554,
			"-0.004": 24.9381826204,
			"-0.003": 49.2009317721,
			"-0.002": 42.7376081936,
			"-0.001": 24.3062202822,
			"0.0": 17.0296856283,
			"0.001": 10.0280275099,
			"0.002": 6.44692673235,
			"0.003": 5.27062707113,
			"0.004": 6.32667855889,
			"0.005": 5.06892834937,
			"0.006": 5.20145723028,
			"0.007": 3.78286045306,
			"0.008": 5.05819695822,
			"0.009": 5.93874502455,
			"0.01": 6.46825226995,
			"0.011": 8.55984379904,
			"0.012": 5.65984093405,
			"0.013": 2.6257824626,
			"0.014": 1.91805716755,
			"0.015": 0.185664524192,
			"0.016": 0.0,
			"0.017": 0.0,
			"0.018": 0.0,
			"0.019": 0.0,
			"0.02": 0.0,
			"0.021": 0.0,
			"0.022": 0.0,
			"0.023": 0.0,
			"0.024": 0.0,
			"0.025": 0.0
		}
	}
}
