{
	 "smiles": "CCOC(=O)C(=O)C1=C(OC)C=CC(F)=C1", 
	 "Tm": 323.15, 
	 "num_atms": 27, 
	 "gaussian": { 
		 "optdone": 1, 
		 "sigma_profile": "yes", 
		 "theory": "DFT", 
		 "functional": "B3LYP", 
		 "basiset": "6-31G**", 
		 "properties": { 
			 "R2extent": 4577.5947, 
			 "electric_dipole_moment_norm": 0.797510752279, 
			 "electric_quadrupole_moment_norm": 20.0400668814, 
			 "total_energy": -826.506017322, 
			 "HOMO_LUMO_gap": 0.16741, 
			 "cosmo_polarized_energy": -10.31, 
			 "cosmo_cavitation_energy": 32.51, 
			 "cosmo_dispersion_energy": -22.93, 
			 "cosmo_repulsion_energy": 1.79, 
			 "cosmo_total_nonelectrostatic_energy": 11.37, 
			 "SMD_solvation_energy": 8.53 
		},
		"coords": [
			{
				"x": -4.3224084846,
				"y": 3.089369202,
				"z": -0.9405888304,
				"element": "C" 
			},
			{
				"x": -4.3326118758,
				"y": 1.6539435495,
				"z": -0.439973073,
				"element": "C" 
			},
			{
				"x": -3.0634180943,
				"y": 1.3106594902,
				"z": 0.1811696879,
				"element": "O" 
			},
			{
				"x": -2.0945452853,
				"y": 0.8805239913,
				"z": -0.6308119549,
				"element": "C" 
			},
			{
				"x": -2.1924012189,
				"y": 0.7364272747,
				"z": -1.8334721136,
				"element": "O" 
			},
			{
				"x": -0.788690633,
				"y": 0.66402394,
				"z": 0.1627818487,
				"element": "C" 
			},
			{
				"x": -0.3870067333,
				"y": 1.6004637801,
				"z": 0.8302048521,
				"element": "O" 
			},
			{
				"x": -0.0944792765,
				"y": -0.6472271962,
				"z": 0.0440814485,
				"element": "C" 
			},
			{
				"x": 0.7561256866,
				"y": -1.1109972336,
				"z": 1.0798556091,
				"element": "C" 
			},
			{
				"x": 0.9249509845,
				"y": -0.4204089649,
				"z": 2.2482539461,
				"element": "O" 
			},
			{
				"x": 2.0295853785,
				"y": 0.4911950121,
				"z": 2.2822062159,
				"element": "C" 
			},
			{
				"x": 1.3695270347,
				"y": -2.3625658414,
				"z": 0.9619940106,
				"element": "C" 
			},
			{
				"x": 1.1761161481,
				"y": -3.1571040171,
				"z": -0.1649606057,
				"element": "C" 
			},
			{
				"x": 0.3420590968,
				"y": -2.6873577112,
				"z": -1.1739938763,
				"element": "C" 
			},
			{
				"x": 0.1484920746,
				"y": -3.4493934897,
				"z": -2.2700326279,
				"element": "F" 
			},
			{
				"x": -0.3026513811,
				"y": -1.4649619297,
				"z": -1.0832980688,
				"element": "C" 
			},
			{
				"x": -4.0750788213,
				"y": 3.7815077227,
				"z": -0.1310243206,
				"element": "H" 
			},
			{
				"x": -3.5948890848,
				"y": 3.2121794736,
				"z": -1.7466040782,
				"element": "H" 
			},
			{
				"x": -5.3123520061,
				"y": 3.3504221092,
				"z": -1.3291175114,
				"element": "H" 
			},
			{
				"x": -4.5277619025,
				"y": 0.9487601537,
				"z": -1.2514067224,
				"element": "H" 
			},
			{
				"x": -5.0652175541,
				"y": 1.5076304008,
				"z": 0.3562014974,
				"element": "H" 
			},
			{
				"x": 2.9733232539,
				"y": -0.0296597893,
				"z": 2.0749115615,
				"element": "H" 
			},
			{
				"x": 1.8803851752,
				"y": 1.3053801027,
				"z": 1.5685284836,
				"element": "H" 
			},
			{
				"x": 2.0546839374,
				"y": 0.8956983416,
				"z": 3.2955188785,
				"element": "H" 
			},
			{
				"x": 1.9912182243,
				"y": -2.7057729738,
				"z": 1.7823972092,
				"element": "H" 
			},
			{
				"x": 1.6521257653,
				"y": -4.1265307232,
				"z": -0.2666466449,
				"element": "H" 
			},
			{
				"x": -0.9444804083,
				"y": -1.1350046743,
				"z": -1.8901748212,
				"element": "H" 
			}
		],
		 "valence_orbital": [ 
			{
				"type": "occ",
				"energy": -0.30927,
				"method": "rhf"
			},
			{
				"type": "occ",
				"energy": -0.27858,
				"method": "rhf"
			},
			{
				"type": "occ",
				"energy": -0.2745,
				"method": "rhf"
			},
			{
				"type": "occ",
				"energy": -0.25052,
				"method": "rhf"
			},
			{
				"type": "occ",
				"energy": -0.24517,
				"method": "rhf"
			},
			{
				"type": "unocc",
				"energy": -0.07776,
				"method": "rhf"
			},
			{
				"type": "unocc",
				"energy": -0.01678,
				"method": "rhf"
			},
			{
				"type": "unocc",
				"energy": 0.0011,
				"method": "rhf"
			},
			{
				"type": "unocc",
				"energy": 0.03222,
				"method": "rhf"
			},
			{
				"type": "unocc",
				"energy": 0.08788,
				"method": "rhf"
			}
		],
		"cosmo_sigma_profile": { 
			"-0.025": 0.0,
			"-0.024": 0.0,
			"-0.023": 0.0,
			"-0.022": 0.0,
			"-0.021": 0.0,
			"-0.02": 0.0,
			"-0.019": 0.0,
			"-0.018": 0.0,
			"-0.017": 0.0,
			"-0.016": 0.0,
			"-0.015": 0.0,
			"-0.014": 0.0,
			"-0.013": 0.0,
			"-0.012": 0.0,
			"-0.011": 0.0,
			"-0.01": 0.0,
			"-0.009": 0.326667703097,
			"-0.008": 2.43078973167,
			"-0.007": 4.40766616444,
			"-0.006": 9.63864669427,
			"-0.005": 17.9009973428,
			"-0.004": 24.732699407,
			"-0.003": 28.1973955165,
			"-0.002": 24.7159491851,
			"-0.001": 23.5992342248,
			"0.0": 27.4698066685,
			"0.001": 18.4300583777,
			"0.002": 12.9386683254,
			"0.003": 9.47449618308,
			"0.004": 14.6268985032,
			"0.005": 6.28518622318,
			"0.006": 4.68138995693,
			"0.007": 4.42972073896,
			"0.008": 5.68156421982,
			"0.009": 7.77301952398,
			"0.01": 7.11670722294,
			"0.011": 4.22674174315,
			"0.012": 0.225337179475,
			"0.013": 0.0,
			"0.014": 0.0,
			"0.015": 0.0,
			"0.016": 0.0,
			"0.017": 0.0,
			"0.018": 0.0,
			"0.019": 0.0,
			"0.02": 0.0,
			"0.021": 0.0,
			"0.022": 0.0,
			"0.023": 0.0,
			"0.024": 0.0,
			"0.025": 0.0
		}
	}
}
