{
	 "smiles": "O=C1NC2=C(CCCCC2)C=C1C#N", 
	 "Tm": 527.15, 
	 "num_atms": 26, 
	 "gaussian": { 
		 "optdone": 1, 
		 "sigma_profile": "yes", 
		 "theory": "DFT", 
		 "functional": "B3LYP", 
		 "basiset": "6-31G**", 
		 "properties": { 
			 "R2extent": 3249.491, 
			 "electric_dipole_moment_norm": 9.40426281481, 
			 "electric_quadrupole_moment_norm": 30.8289113904, 
			 "total_energy": -611.13050132, 
			 "HOMO_LUMO_gap": 0.15466, 
			 "cosmo_polarized_energy": -21.08, 
			 "cosmo_cavitation_energy": 28.94, 
			 "cosmo_dispersion_energy": -20.9, 
			 "cosmo_repulsion_energy": 1.64, 
			 "cosmo_total_nonelectrostatic_energy": 9.68, 
			 "SMD_solvation_energy": 6.03 
		},
		"coords": [
			{
				"x": -1.0441850775,
				"y": 0.321777698,
				"z": -3.9644547481,
				"element": "O" 
			},
			{
				"x": -0.7128018501,
				"y": 0.4717606144,
				"z": -2.7968639358,
				"element": "C" 
			},
			{
				"x": -1.2555259883,
				"y": -0.3554928002,
				"z": -1.7919207724,
				"element": "N" 
			},
			{
				"x": -1.0014891526,
				"y": -0.3197568596,
				"z": -0.4501614248,
				"element": "C" 
			},
			{
				"x": -0.1029860962,
				"y": 0.6066694141,
				"z": 0.0443917574,
				"element": "C" 
			},
			{
				"x": 0.2611513902,
				"y": 0.7586505351,
				"z": 1.5154401773,
				"element": "C" 
			},
			{
				"x": 0.196461776,
				"y": -0.497511441,
				"z": 2.4259628888,
				"element": "C" 
			},
			{
				"x": 0.4685192249,
				"y": -1.8238701771,
				"z": 1.6973671655,
				"element": "C" 
			},
			{
				"x": -0.7846616109,
				"y": -2.4029783474,
				"z": 1.0072325457,
				"element": "C" 
			},
			{
				"x": -1.7212994111,
				"y": -1.3317785484,
				"z": 0.4031686324,
				"element": "C" 
			},
			{
				"x": 0.5005609525,
				"y": 1.4793588201,
				"z": -0.8995457181,
				"element": "C" 
			},
			{
				"x": 0.2288573298,
				"y": 1.4450651192,
				"z": -2.251881493,
				"element": "C" 
			},
			{
				"x": 0.8654024464,
				"y": 2.3489817149,
				"z": -3.1540538088,
				"element": "C" 
			},
			{
				"x": 1.4009204381,
				"y": 3.1001224427,
				"z": -3.8634949677,
				"element": "N" 
			},
			{
				"x": -1.911298331,
				"y": -1.0382427546,
				"z": -2.1543038157,
				"element": "H" 
			},
			{
				"x": -0.3492714617,
				"y": 1.555329306,
				"z": 1.9635258072,
				"element": "H" 
			},
			{
				"x": 1.289322467,
				"y": 1.1384079604,
				"z": 1.5390748423,
				"element": "H" 
			},
			{
				"x": 0.9317619423,
				"y": -0.3598128875,
				"z": 3.2257264875,
				"element": "H" 
			},
			{
				"x": -0.775083094,
				"y": -0.5530458266,
				"z": 2.9317497624,
				"element": "H" 
			},
			{
				"x": 1.2643591814,
				"y": -1.6719788002,
				"z": 0.9587678043,
				"element": "H" 
			},
			{
				"x": 0.8501801157,
				"y": -2.5681848606,
				"z": 2.4046959749,
				"element": "H" 
			},
			{
				"x": -0.4821149023,
				"y": -3.1087476456,
				"z": 0.2252283996,
				"element": "H" 
			},
			{
				"x": -1.3745818082,
				"y": -2.9762226437,
				"z": 1.7324010738,
				"element": "H" 
			},
			{
				"x": -2.5083291295,
				"y": -1.8201481049,
				"z": -0.1819924053,
				"element": "H" 
			},
			{
				"x": -2.2332042105,
				"y": -0.7983790797,
				"z": 1.2112310791,
				"element": "H" 
			},
			{
				"x": 1.2152348595,
				"y": 2.2154271521,
				"z": -0.5395913086,
				"element": "H" 
			}
		],
		 "valence_orbital": [ 
			{
				"type": "occ",
				"energy": -0.32905,
				"method": "rhf"
			},
			{
				"type": "occ",
				"energy": -0.31989,
				"method": "rhf"
			},
			{
				"type": "occ",
				"energy": -0.29737,
				"method": "rhf"
			},
			{
				"type": "occ",
				"energy": -0.2629,
				"method": "rhf"
			},
			{
				"type": "occ",
				"energy": -0.22344,
				"method": "rhf"
			},
			{
				"type": "unocc",
				"energy": -0.06878,
				"method": "rhf"
			},
			{
				"type": "unocc",
				"energy": -0.0042,
				"method": "rhf"
			},
			{
				"type": "unocc",
				"energy": 0.04252,
				"method": "rhf"
			},
			{
				"type": "unocc",
				"energy": 0.05061,
				"method": "rhf"
			},
			{
				"type": "unocc",
				"energy": 0.06161,
				"method": "rhf"
			}
		],
		"cosmo_sigma_profile": { 
			"-0.025": 0.0,
			"-0.024": 0.0,
			"-0.023": 0.0,
			"-0.022": 0.0,
			"-0.021": 0.0,
			"-0.02": 0.0,
			"-0.019": 0.0,
			"-0.018": 0.0,
			"-0.017": 0.0,
			"-0.016": 0.526745089914,
			"-0.015": 1.26087453709,
			"-0.014": 1.32015978793,
			"-0.013": 1.29885556694,
			"-0.012": 0.969580371485,
			"-0.011": 1.20686881937,
			"-0.01": 0.815441546868,
			"-0.009": 1.6359648691,
			"-0.008": 4.13486861737,
			"-0.007": 4.5307951384,
			"-0.006": 6.02796844237,
			"-0.005": 9.49448621815,
			"-0.004": 14.955870807,
			"-0.003": 29.5977504563,
			"-0.002": 34.7943404031,
			"-0.001": 29.4406041788,
			"0.0": 21.9704583269,
			"0.001": 9.55815308752,
			"0.002": 2.23748427188,
			"0.003": 1.96724149696,
			"0.004": 2.98355175577,
			"0.005": 3.33755329308,
			"0.006": 3.73761838185,
			"0.007": 4.70784560683,
			"0.008": 5.51169329503,
			"0.009": 4.76401327773,
			"0.01": 5.00260149804,
			"0.011": 4.48535107704,
			"0.012": 4.81132184478,
			"0.013": 7.96959860895,
			"0.014": 3.70941538941,
			"0.015": 0.0,
			"0.016": 0.0,
			"0.017": 0.0,
			"0.018": 0.0,
			"0.019": 0.0,
			"0.02": 0.0,
			"0.021": 0.0,
			"0.022": 0.0,
			"0.023": 0.0,
			"0.024": 0.0,
			"0.025": 0.0
		}
	}
}
