{
	 "smiles": "OC(=O)C1=C2C=CC=CC2=NO1", 
	 "Tm": 458.15, 
	 "num_atms": 17, 
	 "gaussian": { 
		 "optdone": 1, 
		 "sigma_profile": "yes", 
		 "theory": "DFT", 
		 "functional": "B3LYP", 
		 "basiset": "6-31G**", 
		 "properties": { 
			 "R2extent": 2449.1941, 
			 "electric_dipole_moment_norm": 4.6954743328, 
			 "electric_quadrupole_moment_norm": 16.4182378445, 
			 "total_energy": -588.23469997, 
			 "HOMO_LUMO_gap": 0.14592, 
			 "cosmo_polarized_energy": -12.56, 
			 "cosmo_cavitation_energy": 22.53, 
			 "cosmo_dispersion_energy": -16.9, 
			 "cosmo_repulsion_energy": 1.33, 
			 "cosmo_total_nonelectrostatic_energy": 6.96, 
			 "SMD_solvation_energy": 4.94 
		},
		"coords": [
			{
				"x": 1.6963993211,
				"y": -1.56260059,
				"z": -0.0659985706,
				"element": "O" 
			},
			{
				"x": 1.559213909,
				"y": -1.448058534,
				"z": 1.2801689146,
				"element": "C" 
			},
			{
				"x": 2.3830609825,
				"y": -1.8407882168,
				"z": 2.0754108583,
				"element": "O" 
			},
			{
				"x": 0.288057143,
				"y": -0.7928972255,
				"z": 1.6176044296,
				"element": "C" 
			},
			{
				"x": -0.7624251446,
				"y": -0.2848827507,
				"z": 0.8731666976,
				"element": "C" 
			},
			{
				"x": -1.0901913099,
				"y": -0.163762668,
				"z": -0.5058318043,
				"element": "C" 
			},
			{
				"x": -2.2844001701,
				"y": 0.4309963071,
				"z": -0.8221076752,
				"element": "C" 
			},
			{
				"x": -3.1833613265,
				"y": 0.9193667614,
				"z": 0.1865737441,
				"element": "C" 
			},
			{
				"x": -2.8997004722,
				"y": 0.8192234041,
				"z": 1.5221021301,
				"element": "C" 
			},
			{
				"x": -1.6636224389,
				"y": 0.2046420164,
				"z": 1.8816222916,
				"element": "C" 
			},
			{
				"x": -1.1875806943,
				"y": 0.0034490785,
				"z": 3.1097912408,
				"element": "N" 
			},
			{
				"x": 0.0269747897,
				"y": -0.6180036753,
				"z": 2.9284178966,
				"element": "O" 
			},
			{
				"x": 2.5511656599,
				"y": -2.0014281425,
				"z": -0.211255014,
				"element": "H" 
			},
			{
				"x": -0.4111260028,
				"y": -0.5325754188,
				"z": -1.2651809891,
				"element": "H" 
			},
			{
				"x": -2.5690540754,
				"y": 0.5412673426,
				"z": -1.8641147161,
				"element": "H" 
			},
			{
				"x": -4.1138447676,
				"y": 1.3804605925,
				"z": -0.1309842008,
				"element": "H" 
			},
			{
				"x": -3.5719654029,
				"y": 1.1848917189,
				"z": 2.2901147667,
				"element": "H" 
			}
		],
		 "valence_orbital": [ 
			{
				"type": "occ",
				"energy": -0.31526,
				"method": "rhf"
			},
			{
				"type": "occ",
				"energy": -0.31501,
				"method": "rhf"
			},
			{
				"type": "occ",
				"energy": -0.2945,
				"method": "rhf"
			},
			{
				"type": "occ",
				"energy": -0.28682,
				"method": "rhf"
			},
			{
				"type": "occ",
				"energy": -0.23774,
				"method": "rhf"
			},
			{
				"type": "unocc",
				"energy": -0.09182,
				"method": "rhf"
			},
			{
				"type": "unocc",
				"energy": -0.02187,
				"method": "rhf"
			},
			{
				"type": "unocc",
				"energy": 0.0084,
				"method": "rhf"
			},
			{
				"type": "unocc",
				"energy": 0.06278,
				"method": "rhf"
			},
			{
				"type": "unocc",
				"energy": 0.07708,
				"method": "rhf"
			}
		],
		"cosmo_sigma_profile": { 
			"-0.025": 0.0,
			"-0.024": 0.0,
			"-0.023": 0.0,
			"-0.022": 0.0,
			"-0.021": 0.0,
			"-0.02": 0.0,
			"-0.019": 0.972446024732,
			"-0.018": 0.867638435934,
			"-0.017": 0.399997351897,
			"-0.016": 1.35123619944,
			"-0.015": 0.821014377621,
			"-0.014": 0.285113183377,
			"-0.013": 0.414750280327,
			"-0.012": 1.05074146873,
			"-0.011": 1.16629331906,
			"-0.01": 0.276683421107,
			"-0.009": 0.450483258436,
			"-0.008": 2.56191265209,
			"-0.007": 7.934700834,
			"-0.006": 8.87490925688,
			"-0.005": 11.0021922288,
			"-0.004": 9.90199620771,
			"-0.003": 12.315468051,
			"-0.002": 11.3218336443,
			"-0.001": 11.0174287274,
			"0.0": 16.5479746674,
			"0.001": 15.939885793,
			"0.002": 13.2824480268,
			"0.003": 10.3981321813,
			"0.004": 5.00819972397,
			"0.005": 5.01358052533,
			"0.006": 5.79090721081,
			"0.007": 4.91822740036,
			"0.008": 4.04613994993,
			"0.009": 3.64358082361,
			"0.01": 5.13819507116,
			"0.011": 6.45836700662,
			"0.012": 1.95630544361,
			"0.013": 0.802433977402,
			"0.014": 0.0383496258423,
			"0.015": 0.0,
			"0.016": 0.0,
			"0.017": 0.0,
			"0.018": 0.0,
			"0.019": 0.0,
			"0.02": 0.0,
			"0.021": 0.0,
			"0.022": 0.0,
			"0.023": 0.0,
			"0.024": 0.0,
			"0.025": 0.0
		}
	}
}
