{
	 "smiles": "CC(C)C1(CC=C)C(=O)NC(=O)NC1=O", 
	 "Tm": 415.15, 
	 "num_atms": 29, 
	 "gaussian": { 
		 "optdone": 1, 
		 "sigma_profile": "yes", 
		 "theory": "DFT", 
		 "functional": "B3LYP", 
		 "basiset": "6-31G**", 
		 "properties": { 
			 "R2extent": 3224.5215, 
			 "electric_dipole_moment_norm": 0.561446818497, 
			 "electric_quadrupole_moment_norm": 6.48356261171, 
			 "total_energy": -724.709064574, 
			 "HOMO_LUMO_gap": 0.20922, 
			 "cosmo_polarized_energy": -15.06, 
			 "cosmo_cavitation_energy": 31.05, 
			 "cosmo_dispersion_energy": -21.65, 
			 "cosmo_repulsion_energy": 1.69, 
			 "cosmo_total_nonelectrostatic_energy": 11.09, 
			 "SMD_solvation_energy": 7.75 
		},
		"coords": [
			{
				"x": 1.4834774139,
				"y": 1.6585453813,
				"z": 0.7045713204,
				"element": "C" 
			},
			{
				"x": -0.0166079955,
				"y": 1.6591647594,
				"z": 0.3546696627,
				"element": "C" 
			},
			{
				"x": -0.7451208664,
				"y": 2.7143389353,
				"z": 1.1982002194,
				"element": "C" 
			},
			{
				"x": -0.612021035,
				"y": 0.197319932,
				"z": 0.4116326405,
				"element": "C" 
			},
			{
				"x": -2.1077749703,
				"y": 0.0874834468,
				"z": -0.073723886,
				"element": "C" 
			},
			{
				"x": -3.2010142183,
				"y": 0.7270699026,
				"z": 0.7425696533,
				"element": "C" 
			},
			{
				"x": -4.2110361003,
				"y": 1.4094743367,
				"z": 0.2003802964,
				"element": "C" 
			},
			{
				"x": 0.1624723636,
				"y": -0.6071192048,
				"z": -0.6517448863,
				"element": "C" 
			},
			{
				"x": 0.1848989627,
				"y": -0.2747037695,
				"z": -1.8219622277,
				"element": "O" 
			},
			{
				"x": 0.8274783737,
				"y": -1.75609276,
				"z": -0.2459415429,
				"element": "N" 
			},
			{
				"x": 0.9293142585,
				"y": -2.2746131358,
				"z": 1.0380097682,
				"element": "C" 
			},
			{
				"x": 1.5511899729,
				"y": -3.2838060054,
				"z": 1.2977155956,
				"element": "O" 
			},
			{
				"x": 0.2517598625,
				"y": -1.5336891356,
				"z": 1.9969988057,
				"element": "N" 
			},
			{
				"x": -0.4975942158,
				"y": -0.3736108404,
				"z": 1.8271250329,
				"element": "C" 
			},
			{
				"x": -1.0338472049,
				"y": 0.1313068354,
				"z": 2.7983466344,
				"element": "O" 
			},
			{
				"x": 2.0654611464,
				"y": 0.9789898913,
				"z": 0.0738166147,
				"element": "H" 
			},
			{
				"x": 1.8964168698,
				"y": 2.6619526422,
				"z": 0.5645941966,
				"element": "H" 
			},
			{
				"x": 1.6501890951,
				"y": 1.3839843398,
				"z": 1.752747113,
				"element": "H" 
			},
			{
				"x": -0.1145025358,
				"y": 1.9339770054,
				"z": -0.7018023764,
				"element": "H" 
			},
			{
				"x": -0.6861985955,
				"y": 2.4886922408,
				"z": 2.2651501677,
				"element": "H" 
			},
			{
				"x": -1.7978221052,
				"y": 2.8047362809,
				"z": 0.9299255422,
				"element": "H" 
			},
			{
				"x": -0.2688239267,
				"y": 3.6860161116,
				"z": 1.0263914862,
				"element": "H" 
			},
			{
				"x": -2.1283036856,
				"y": 0.4673397714,
				"z": -1.0992708404,
				"element": "H" 
			},
			{
				"x": -2.3290567294,
				"y": -0.9890087879,
				"z": -0.1439326438,
				"element": "H" 
			},
			{
				"x": -3.1715905105,
				"y": 0.5626422473,
				"z": 1.8161782429,
				"element": "H" 
			},
			{
				"x": -4.2711926523,
				"y": 1.5958984465,
				"z": -0.8696594212,
				"element": "H" 
			},
			{
				"x": -5.0186615334,
				"y": 1.8044278246,
				"z": 0.8093902383,
				"element": "H" 
			},
			{
				"x": 1.3151882961,
				"y": -2.2745618464,
				"z": -0.9674799263,
				"element": "H" 
			},
			{
				"x": 0.3057222654,
				"y": -1.8942548457,
				"z": 2.9428045198,
				"element": "H" 
			}
		],
		 "valence_orbital": [ 
			{
				"type": "occ",
				"energy": -0.3057,
				"method": "rhf"
			},
			{
				"type": "occ",
				"energy": -0.30296,
				"method": "rhf"
			},
			{
				"type": "occ",
				"energy": -0.2914,
				"method": "rhf"
			},
			{
				"type": "occ",
				"energy": -0.26897,
				"method": "rhf"
			},
			{
				"type": "occ",
				"energy": -0.25863,
				"method": "rhf"
			},
			{
				"type": "unocc",
				"energy": -0.04941,
				"method": "rhf"
			},
			{
				"type": "unocc",
				"energy": -0.01178,
				"method": "rhf"
			},
			{
				"type": "unocc",
				"energy": 0.01073,
				"method": "rhf"
			},
			{
				"type": "unocc",
				"energy": 0.05433,
				"method": "rhf"
			},
			{
				"type": "unocc",
				"energy": 0.07064,
				"method": "rhf"
			}
		],
		"cosmo_sigma_profile": { 
			"-0.025": 0.0,
			"-0.024": 0.0,
			"-0.023": 0.0,
			"-0.022": 0.0,
			"-0.021": 0.0,
			"-0.02": 0.0,
			"-0.019": 0.0,
			"-0.018": 0.0,
			"-0.017": 0.414202357393,
			"-0.016": 1.5992748716,
			"-0.015": 1.8752107507,
			"-0.014": 1.96582080559,
			"-0.013": 1.59991979377,
			"-0.012": 1.23606053267,
			"-0.011": 2.56441610062,
			"-0.01": 1.68773659293,
			"-0.009": 2.53093167062,
			"-0.008": 2.8056235337,
			"-0.007": 3.40055878358,
			"-0.006": 5.13832709845,
			"-0.005": 10.9417875753,
			"-0.004": 17.9575946487,
			"-0.003": 25.7094889239,
			"-0.002": 22.1745482947,
			"-0.001": 21.3233549497,
			"0.0": 22.9282981027,
			"0.001": 18.3186185502,
			"0.002": 12.2850486643,
			"0.003": 9.95369966071,
			"0.004": 6.84066064734,
			"0.005": 5.11165626163,
			"0.006": 5.60360000041,
			"0.007": 3.41960009031,
			"0.008": 4.90809214619,
			"0.009": 4.00068818933,
			"0.01": 6.29403861264,
			"0.011": 12.1560240534,
			"0.012": 6.86513591644,
			"0.013": 0.0241988523928,
			"0.014": 0.0,
			"0.015": 0.0,
			"0.016": 0.0,
			"0.017": 0.0,
			"0.018": 0.0,
			"0.019": 0.0,
			"0.02": 0.0,
			"0.021": 0.0,
			"0.022": 0.0,
			"0.023": 0.0,
			"0.024": 0.0,
			"0.025": 0.0
		}
	}
}
