{
	 "smiles": "FC(F)(F)C1=CC=C(C=C1)C1NCCNC1=O", 
	 "Tm": 415.15, 
	 "num_atms": 28, 
	 "gaussian": { 
		 "optdone": 1, 
		 "sigma_profile": "yes", 
		 "theory": "DFT", 
		 "functional": "B3LYP", 
		 "basiset": "6-31G**", 
		 "properties": { 
			 "R2extent": 6693.2614, 
			 "electric_dipole_moment_norm": 6.65214412802, 
			 "electric_quadrupole_moment_norm": 9.91866085064, 
			 "total_energy": -910.055477509, 
			 "HOMO_LUMO_gap": 0.21042, 
			 "cosmo_polarized_energy": -14.61, 
			 "cosmo_cavitation_energy": 32.33, 
			 "cosmo_dispersion_energy": -23.44, 
			 "cosmo_repulsion_energy": 1.75, 
			 "cosmo_total_nonelectrostatic_energy": 10.64, 
			 "SMD_solvation_energy": 4.96 
		},
		"coords": [
			{
				"x": 1.2396318381,
				"y": -4.7541634931,
				"z": 3.1878808306,
				"element": "F" 
			},
			{
				"x": 1.1715440833,
				"y": -4.7089314475,
				"z": 1.8381062822,
				"element": "C" 
			},
			{
				"x": 0.4415986093,
				"y": -5.7832012281,
				"z": 1.4503071041,
				"element": "F" 
			},
			{
				"x": 2.4233657646,
				"y": -4.8977691639,
				"z": 1.3623310914,
				"element": "F" 
			},
			{
				"x": 0.5703857285,
				"y": -3.4214129978,
				"z": 1.3481946992,
				"element": "C" 
			},
			{
				"x": 0.9548806315,
				"y": -2.8901620683,
				"z": 0.11682376,
				"element": "C" 
			},
			{
				"x": 0.3531896428,
				"y": -1.7252948139,
				"z": -0.3576570418,
				"element": "C" 
			},
			{
				"x": -0.6342253448,
				"y": -1.0725751455,
				"z": 0.3899966491,
				"element": "C" 
			},
			{
				"x": -1.0185299054,
				"y": -1.6195918874,
				"z": 1.6241315241,
				"element": "C" 
			},
			{
				"x": -0.4211625125,
				"y": -2.7835119666,
				"z": 2.0990066942,
				"element": "C" 
			},
			{
				"x": -1.3181565208,
				"y": 0.171589596,
				"z": -0.157248352,
				"element": "C" 
			},
			{
				"x": -0.6460966154,
				"y": 0.6969548486,
				"z": -1.3568447273,
				"element": "N" 
			},
			{
				"x": -1.4235294605,
				"y": 1.7306799085,
				"z": -2.0434003049,
				"element": "C" 
			},
			{
				"x": -2.3257405037,
				"y": 2.5697657474,
				"z": -1.091350683,
				"element": "C" 
			},
			{
				"x": -1.8128512426,
				"y": 2.5044379615,
				"z": 0.269922242,
				"element": "N" 
			},
			{
				"x": -1.4803800875,
				"y": 1.3183449925,
				"z": 0.8762038521,
				"element": "C" 
			},
			{
				"x": -1.2876756311,
				"y": 1.233391695,
				"z": 2.0802479163,
				"element": "O" 
			},
			{
				"x": 1.7240684648,
				"y": -3.3829193924,
				"z": -0.4682483882,
				"element": "H" 
			},
			{
				"x": 0.6367566374,
				"y": -1.3213008919,
				"z": -1.3224498055,
				"element": "H" 
			},
			{
				"x": -1.7682113256,
				"y": -1.1199732446,
				"z": 2.2241294212,
				"element": "H" 
			},
			{
				"x": -0.7166576869,
				"y": -3.1916957248,
				"z": 3.0597122824,
				"element": "H" 
			},
			{
				"x": -2.3349120137,
				"y": -0.1178559798,
				"z": -0.4687746396,
				"element": "H" 
			},
			{
				"x": 0.2455070183,
				"y": 1.0895076817,
				"z": -1.0651062315,
				"element": "H" 
			},
			{
				"x": -2.0621128034,
				"y": 1.263426594,
				"z": -2.8031396427,
				"element": "H" 
			},
			{
				"x": -0.719030882,
				"y": 2.3788272841,
				"z": -2.5718574651,
				"element": "H" 
			},
			{
				"x": -2.3546488799,
				"y": 3.6176510967,
				"z": -1.4034486807,
				"element": "H" 
			},
			{
				"x": -3.3587912505,
				"y": 2.1958715767,
				"z": -1.1381089713,
				"element": "H" 
			},
			{
				"x": -1.9905157524,
				"y": 3.2685104631,
				"z": 0.9087405846,
				"element": "H" 
			}
		],
		 "valence_orbital": [ 
			{
				"type": "occ",
				"energy": -0.28233,
				"method": "rhf"
			},
			{
				"type": "occ",
				"energy": -0.26264,
				"method": "rhf"
			},
			{
				"type": "occ",
				"energy": -0.25535,
				"method": "rhf"
			},
			{
				"type": "occ",
				"energy": -0.25209,
				"method": "rhf"
			},
			{
				"type": "occ",
				"energy": -0.22992,
				"method": "rhf"
			},
			{
				"type": "unocc",
				"energy": -0.0195,
				"method": "rhf"
			},
			{
				"type": "unocc",
				"energy": -0.00462,
				"method": "rhf"
			},
			{
				"type": "unocc",
				"energy": 0.01273,
				"method": "rhf"
			},
			{
				"type": "unocc",
				"energy": 0.0568,
				"method": "rhf"
			},
			{
				"type": "unocc",
				"energy": 0.08741,
				"method": "rhf"
			}
		],
		"cosmo_sigma_profile": { 
			"-0.025": 0.0,
			"-0.024": 0.0,
			"-0.023": 0.0,
			"-0.022": 0.0,
			"-0.021": 0.0,
			"-0.02": 0.0,
			"-0.019": 0.0,
			"-0.018": 0.0,
			"-0.017": 0.0,
			"-0.016": 0.0,
			"-0.015": 0.0,
			"-0.014": 0.394793233445,
			"-0.013": 1.42723057356,
			"-0.012": 0.622472569041,
			"-0.011": 2.41520559056,
			"-0.01": 2.55400642492,
			"-0.009": 2.18400096946,
			"-0.008": 2.50528366727,
			"-0.007": 8.06678839139,
			"-0.006": 11.7629844111,
			"-0.005": 18.5359306584,
			"-0.004": 22.7360369694,
			"-0.003": 19.224995967,
			"-0.002": 14.2014314284,
			"-0.001": 11.4876756831,
			"0.0": 12.571749133,
			"0.001": 15.9995561968,
			"0.002": 23.2507562332,
			"0.003": 41.3114783874,
			"0.004": 16.0531201371,
			"0.005": 3.73704288193,
			"0.006": 2.92121570022,
			"0.007": 2.61582190767,
			"0.008": 2.32531837234,
			"0.009": 2.07935618197,
			"0.01": 2.55259819975,
			"0.011": 2.50106608091,
			"0.012": 2.05584961511,
			"0.013": 4.89342550931,
			"0.014": 3.14238742326,
			"0.015": 0.167344302976,
			"0.016": 0.0,
			"0.017": 0.0,
			"0.018": 0.0,
			"0.019": 0.0,
			"0.02": 0.0,
			"0.021": 0.0,
			"0.022": 0.0,
			"0.023": 0.0,
			"0.024": 0.0,
			"0.025": 0.0
		}
	}
}
