{
	 "smiles": "ClC1=C(Cl)C2=C(C=C1)C(=O)NCC2", 
	 "Tm": 474.15, 
	 "num_atms": 20, 
	 "gaussian": { 
		 "optdone": 1, 
		 "sigma_profile": "yes", 
		 "theory": "DFT", 
		 "functional": "B3LYP", 
		 "basiset": "6-31G**", 
		 "properties": { 
			 "R2extent": 3583.995, 
			 "electric_dipole_moment_norm": 2.83971396095, 
			 "electric_quadrupole_moment_norm": 16.3630817302, 
			 "total_energy": -1397.55981824, 
			 "HOMO_LUMO_gap": 0.1993, 
			 "cosmo_polarized_energy": -11.1, 
			 "cosmo_cavitation_energy": 26.71, 
			 "cosmo_dispersion_energy": -20.44, 
			 "cosmo_repulsion_energy": 1.61, 
			 "cosmo_total_nonelectrostatic_energy": 7.87, 
			 "SMD_solvation_energy": 3.54 
		},
		"coords": [
			{
				"x": 2.6117769636,
				"y": -1.9377539956,
				"z": -2.9577944085,
				"element": "Cl" 
			},
			{
				"x": 1.3693838497,
				"y": -1.3041472862,
				"z": -1.9082048012,
				"element": "C" 
			},
			{
				"x": 1.3608996232,
				"y": 0.0440486351,
				"z": -1.5188780318,
				"element": "C" 
			},
			{
				"x": 2.6320510164,
				"y": 1.1195990218,
				"z": -2.0640652124,
				"element": "Cl" 
			},
			{
				"x": 0.3441288744,
				"y": 0.5376806579,
				"z": -0.6859433931,
				"element": "C" 
			},
			{
				"x": -0.6441481573,
				"y": -0.356553788,
				"z": -0.235487719,
				"element": "C" 
			},
			{
				"x": -0.6237105029,
				"y": -1.6999741658,
				"z": -0.6172300958,
				"element": "C" 
			},
			{
				"x": 0.3741918195,
				"y": -2.1743797706,
				"z": -1.4566184558,
				"element": "C" 
			},
			{
				"x": -1.7372049595,
				"y": 0.0863828107,
				"z": 0.6935578016,
				"element": "C" 
			},
			{
				"x": -2.5009281337,
				"y": -0.7101603652,
				"z": 1.2291983342,
				"element": "O" 
			},
			{
				"x": -1.8055747046,
				"y": 1.4357626567,
				"z": 0.922037001,
				"element": "N" 
			},
			{
				"x": -1.1442286116,
				"y": 2.4116103459,
				"z": 0.0631113295,
				"element": "C" 
			},
			{
				"x": 0.293794138,
				"y": 1.9748684681,
				"z": -0.2177311163,
				"element": "C" 
			},
			{
				"x": -1.4007487762,
				"y": -2.3534335573,
				"z": -0.2366161609,
				"element": "H" 
			},
			{
				"x": 0.4005388051,
				"y": -3.2131090673,
				"z": -1.7655651261,
				"element": "H" 
			},
			{
				"x": -2.6190419273,
				"y": 1.7194604317,
				"z": 1.4523484404,
				"element": "H" 
			},
			{
				"x": -1.6862459384,
				"y": 2.5362626583,
				"z": -0.8869572194,
				"element": "H" 
			},
			{
				"x": -1.1468896557,
				"y": 3.3800952359,
				"z": 0.5707774904,
				"element": "H" 
			},
			{
				"x": 0.7376792915,
				"y": 2.6405349071,
				"z": -0.9610657106,
				"element": "H" 
			},
			{
				"x": 0.8937769856,
				"y": 2.0742061668,
				"z": 0.6971270539,
				"element": "H" 
			}
		],
		 "valence_orbital": [ 
			{
				"type": "occ",
				"energy": -0.31374,
				"method": "rhf"
			},
			{
				"type": "occ",
				"energy": -0.26804,
				"method": "rhf"
			},
			{
				"type": "occ",
				"energy": -0.26071,
				"method": "rhf"
			},
			{
				"type": "occ",
				"energy": -0.25649,
				"method": "rhf"
			},
			{
				"type": "occ",
				"energy": -0.25303,
				"method": "rhf"
			},
			{
				"type": "unocc",
				"energy": -0.05373,
				"method": "rhf"
			},
			{
				"type": "unocc",
				"energy": -0.02859,
				"method": "rhf"
			},
			{
				"type": "unocc",
				"energy": -0.00232,
				"method": "rhf"
			},
			{
				"type": "unocc",
				"energy": 0.04669,
				"method": "rhf"
			},
			{
				"type": "unocc",
				"energy": 0.05653,
				"method": "rhf"
			}
		],
		"cosmo_sigma_profile": { 
			"-0.025": 0.0,
			"-0.024": 0.0,
			"-0.023": 0.0,
			"-0.022": 0.0,
			"-0.021": 0.0,
			"-0.02": 0.0,
			"-0.019": 0.0,
			"-0.018": 0.0,
			"-0.017": 0.0,
			"-0.016": 0.0,
			"-0.015": 0.0,
			"-0.014": 0.833701060655,
			"-0.013": 1.19493678173,
			"-0.012": 1.29386258267,
			"-0.011": 0.867414339129,
			"-0.01": 0.936308215113,
			"-0.009": 1.2076533172,
			"-0.008": 2.20755317887,
			"-0.007": 4.18015737596,
			"-0.006": 8.51818957651,
			"-0.005": 15.058546944,
			"-0.004": 16.583195467,
			"-0.003": 16.8708800805,
			"-0.002": 14.3936620906,
			"-0.001": 15.0079750502,
			"0.0": 22.4322256547,
			"0.001": 22.2832166348,
			"0.002": 16.4882516928,
			"0.003": 16.6039336934,
			"0.004": 15.3256706811,
			"0.005": 6.31369075611,
			"0.006": 1.91069143113,
			"0.007": 1.38587499812,
			"0.008": 1.1111532041,
			"0.009": 1.17907220896,
			"0.01": 1.21343417325,
			"0.011": 1.66496326327,
			"0.012": 2.37891642566,
			"0.013": 4.81932689417,
			"0.014": 3.11217474169,
			"0.015": 0.193366016541,
			"0.016": 0.0,
			"0.017": 0.0,
			"0.018": 0.0,
			"0.019": 0.0,
			"0.02": 0.0,
			"0.021": 0.0,
			"0.022": 0.0,
			"0.023": 0.0,
			"0.024": 0.0,
			"0.025": 0.0
		}
	}
}
