{
	 "smiles": "O=C1NN=C2CCCC2=C1", 
	 "Tm": 483.15, 
	 "num_atms": 18, 
	 "gaussian": { 
		 "optdone": 1, 
		 "sigma_profile": "yes", 
		 "theory": "DFT", 
		 "functional": "B3LYP", 
		 "basiset": "6-31G**", 
		 "properties": { 
			 "R2extent": 1585.9689, 
			 "electric_dipole_moment_norm": 4.30317745625, 
			 "electric_quadrupole_moment_norm": 10.4350277149, 
			 "total_energy": -456.278457047, 
			 "HOMO_LUMO_gap": 0.17091, 
			 "cosmo_polarized_energy": -11.94, 
			 "cosmo_cavitation_energy": 21.22, 
			 "cosmo_dispersion_energy": -16.34, 
			 "cosmo_repulsion_energy": 1.34, 
			 "cosmo_total_nonelectrostatic_energy": 6.22, 
			 "SMD_solvation_energy": 3.04 
		},
		"coords": [
			{
				"x": 3.5855235328,
				"y": 0.2564144151,
				"z": -0.0286818986,
				"element": "O" 
			},
			{
				"x": 2.4369047932,
				"y": -0.1710812784,
				"z": 0.0200067371,
				"element": "C" 
			},
			{
				"x": 2.1471806733,
				"y": -1.4763548832,
				"z": -0.4150323419,
				"element": "N" 
			},
			{
				"x": 0.9611929555,
				"y": -2.118666577,
				"z": -0.4465514663,
				"element": "N" 
			},
			{
				"x": -0.0496883769,
				"y": -1.4287341419,
				"z": -0.0051632797,
				"element": "C" 
			},
			{
				"x": -1.4782606622,
				"y": -1.9165051772,
				"z": 0.0668915742,
				"element": "C" 
			},
			{
				"x": -2.2786399165,
				"y": -0.5950459979,
				"z": 0.1867798754,
				"element": "C" 
			},
			{
				"x": -1.3213299233,
				"y": 0.3967722126,
				"z": 0.9013354306,
				"element": "C" 
			},
			{
				"x": 0.0510279063,
				"y": -0.0758843845,
				"z": 0.4815676626,
				"element": "C" 
			},
			{
				"x": 1.2579312192,
				"y": 0.545289038,
				"z": 0.4957783371,
				"element": "C" 
			},
			{
				"x": 2.9349723948,
				"y": -2.0080095024,
				"z": -0.7651810406,
				"element": "H" 
			},
			{
				"x": -1.7620362528,
				"y": -2.5238636119,
				"z": -0.7963051604,
				"element": "H" 
			},
			{
				"x": -1.6173160014,
				"y": -2.5383543376,
				"z": 0.9617190561,
				"element": "H" 
			},
			{
				"x": -3.2269799577,
				"y": -0.7186549317,
				"z": 0.7156058382,
				"element": "H" 
			},
			{
				"x": -2.5073116017,
				"y": -0.216527289,
				"z": -0.8155621687,
				"element": "H" 
			},
			{
				"x": -1.4179853267,
				"y": 0.3086970657,
				"z": 1.9922096385,
				"element": "H" 
			},
			{
				"x": -1.5121646733,
				"y": 1.4433964873,
				"z": 0.6469124507,
				"element": "H" 
			},
			{
				"x": 1.4077792172,
				"y": 1.563812894,
				"z": 0.8389707557,
				"element": "H" 
			}
		],
		 "valence_orbital": [ 
			{
				"type": "occ",
				"energy": -0.34917,
				"method": "rhf"
			},
			{
				"type": "occ",
				"energy": -0.30413,
				"method": "rhf"
			},
			{
				"type": "occ",
				"energy": -0.2944,
				"method": "rhf"
			},
			{
				"type": "occ",
				"energy": -0.24264,
				"method": "rhf"
			},
			{
				"type": "occ",
				"energy": -0.22941,
				"method": "rhf"
			},
			{
				"type": "unocc",
				"energy": -0.0585,
				"method": "rhf"
			},
			{
				"type": "unocc",
				"energy": 0.00872,
				"method": "rhf"
			},
			{
				"type": "unocc",
				"energy": 0.08463,
				"method": "rhf"
			},
			{
				"type": "unocc",
				"energy": 0.09556,
				"method": "rhf"
			},
			{
				"type": "unocc",
				"energy": 0.11338,
				"method": "rhf"
			}
		],
		"cosmo_sigma_profile": { 
			"-0.025": 0.0,
			"-0.024": 0.0,
			"-0.023": 0.0,
			"-0.022": 0.0,
			"-0.021": 0.0,
			"-0.02": 0.0,
			"-0.019": 0.0,
			"-0.018": 0.0,
			"-0.017": 0.0,
			"-0.016": 0.194526461593,
			"-0.015": 0.977234517658,
			"-0.014": 1.01039561567,
			"-0.013": 1.26254219712,
			"-0.012": 0.431274935603,
			"-0.011": 0.517865640586,
			"-0.01": 1.08772012717,
			"-0.009": 0.847442505888,
			"-0.008": 0.742336778009,
			"-0.007": 2.43036883144,
			"-0.006": 3.54224848419,
			"-0.005": 10.9246937721,
			"-0.004": 18.7638924782,
			"-0.003": 20.5666792668,
			"-0.002": 19.8622630652,
			"-0.001": 19.8580655082,
			"0.0": 14.9373258518,
			"0.001": 8.80030624707,
			"0.002": 4.08351382821,
			"0.003": 3.08810555746,
			"0.004": 3.18586708526,
			"0.005": 2.42014910019,
			"0.006": 2.21507533209,
			"0.007": 1.99002929035,
			"0.008": 2.72006872715,
			"0.009": 2.06782263049,
			"0.01": 2.09955132964,
			"0.011": 1.76386035513,
			"0.012": 2.54728404215,
			"0.013": 3.77790719025,
			"0.014": 6.54092595488,
			"0.015": 2.62796725518,
			"0.016": 0.112083428385,
			"0.017": 0.0,
			"0.018": 0.0,
			"0.019": 0.0,
			"0.02": 0.0,
			"0.021": 0.0,
			"0.022": 0.0,
			"0.023": 0.0,
			"0.024": 0.0,
			"0.025": 0.0
		}
	}
}
