{
	 "smiles": "NC1=NC=C(CC2=C(Cl)C=CC=C2)S1", 
	 "Tm": 371.15, 
	 "num_atms": 23, 
	 "gaussian": { 
		 "optdone": 1, 
		 "sigma_profile": "yes", 
		 "theory": "DFT", 
		 "functional": "B3LYP", 
		 "basiset": "6-31G**", 
		 "properties": { 
			 "R2extent": 4100.9856, 
			 "electric_dipole_moment_norm": 0.514339984835, 
			 "electric_quadrupole_moment_norm": 17.0738359571, 
			 "total_energy": -1354.3678648, 
			 "HOMO_LUMO_gap": 0.18639, 
			 "cosmo_polarized_energy": -12.28, 
			 "cosmo_cavitation_energy": 30.71, 
			 "cosmo_dispersion_energy": -22.43, 
			 "cosmo_repulsion_energy": 1.73, 
			 "cosmo_total_nonelectrostatic_energy": 10.01, 
			 "SMD_solvation_energy": 2.72 
		},
		"coords": [
			{
				"x": -0.7889886751,
				"y": -4.1882761222,
				"z": -0.5217466772,
				"element": "N" 
			},
			{
				"x": -0.4620934862,
				"y": -2.8794907731,
				"z": -0.2318442124,
				"element": "C" 
			},
			{
				"x": -1.2106297647,
				"y": -2.0774492418,
				"z": 0.4647049056,
				"element": "N" 
			},
			{
				"x": -0.5758702862,
				"y": -0.8646184399,
				"z": 0.6542136939,
				"element": "C" 
			},
			{
				"x": 0.6583462346,
				"y": -0.7055905662,
				"z": 0.1021144782,
				"element": "C" 
			},
			{
				"x": 1.5973157864,
				"y": 0.4750180349,
				"z": 0.1217499796,
				"element": "C" 
			},
			{
				"x": 0.9792681405,
				"y": 1.7144693439,
				"z": 0.7342244138,
				"element": "C" 
			},
			{
				"x": 0.2275129285,
				"y": 2.6396349013,
				"z": -0.0057288866,
				"element": "C" 
			},
			{
				"x": -0.0320019702,
				"y": 2.3991775045,
				"z": -1.7327092954,
				"element": "Cl" 
			},
			{
				"x": -0.3319002093,
				"y": 3.77478443,
				"z": 0.5822477617,
				"element": "C" 
			},
			{
				"x": -0.1518104879,
				"y": 4.0031016992,
				"z": 1.9455463435,
				"element": "C" 
			},
			{
				"x": 0.5868675303,
				"y": 3.0991726735,
				"z": 2.709638767,
				"element": "C" 
			},
			{
				"x": 1.1418121144,
				"y": 1.9738732369,
				"z": 2.103128021,
				"element": "C" 
			},
			{
				"x": 1.1024095725,
				"y": -2.2051290967,
				"z": -0.717332148,
				"element": "S" 
			},
			{
				"x": -1.7671438771,
				"y": -4.3836701583,
				"z": -0.3483074615,
				"element": "H" 
			},
			{
				"x": -0.4592801923,
				"y": -4.5481874434,
				"z": -1.4066580274,
				"element": "H" 
			},
			{
				"x": -1.0883052774,
				"y": -0.092490734,
				"z": 1.215559254,
				"element": "H" 
			},
			{
				"x": 1.9307970284,
				"y": 0.696669683,
				"z": -0.8981763844,
				"element": "H" 
			},
			{
				"x": 2.4997762726,
				"y": 0.2192227401,
				"z": 0.692425157,
				"element": "H" 
			},
			{
				"x": -0.9008682265,
				"y": 4.4670761215,
				"z": -0.0283697671,
				"element": "H" 
			},
			{
				"x": -0.5872271977,
				"y": 4.8860148877,
				"z": 2.403676324,
				"element": "H" 
			},
			{
				"x": 0.7333187639,
				"y": 3.2699610736,
				"z": 3.7717542713,
				"element": "H" 
			},
			{
				"x": 1.7194952784,
				"y": 1.2702262456,
				"z": 2.6966894893,
				"element": "H" 
			}
		],
		 "valence_orbital": [ 
			{
				"type": "occ",
				"energy": -0.26799,
				"method": "rhf"
			},
			{
				"type": "occ",
				"energy": -0.26731,
				"method": "rhf"
			},
			{
				"type": "occ",
				"energy": -0.25766,
				"method": "rhf"
			},
			{
				"type": "occ",
				"energy": -0.24596,
				"method": "rhf"
			},
			{
				"type": "occ",
				"energy": -0.20363,
				"method": "rhf"
			},
			{
				"type": "unocc",
				"energy": -0.01724,
				"method": "rhf"
			},
			{
				"type": "unocc",
				"energy": -0.01414,
				"method": "rhf"
			},
			{
				"type": "unocc",
				"energy": 0.00095,
				"method": "rhf"
			},
			{
				"type": "unocc",
				"energy": 0.01593,
				"method": "rhf"
			},
			{
				"type": "unocc",
				"energy": 0.03043,
				"method": "rhf"
			}
		],
		"cosmo_sigma_profile": { 
			"-0.025": 0.0,
			"-0.024": 0.0,
			"-0.023": 0.0,
			"-0.022": 0.0,
			"-0.021": 0.0,
			"-0.02": 0.0,
			"-0.019": 0.0,
			"-0.018": 0.0,
			"-0.017": 0.0,
			"-0.016": 0.0,
			"-0.015": 0.0895358052611,
			"-0.014": 1.60710308906,
			"-0.013": 2.18525729497,
			"-0.012": 2.99774858238,
			"-0.011": 2.82980684766,
			"-0.01": 2.18473289532,
			"-0.009": 2.52695176066,
			"-0.008": 1.2846496425,
			"-0.007": 4.53448911245,
			"-0.006": 13.152879334,
			"-0.005": 16.5164836541,
			"-0.004": 16.1772026877,
			"-0.003": 13.3462400652,
			"-0.002": 13.9583125112,
			"-0.001": 13.0406476419,
			"0.0": 16.0010687325,
			"0.001": 18.4567688136,
			"0.002": 21.8889807748,
			"0.003": 25.5656957685,
			"0.004": 25.5433995501,
			"0.005": 16.5400578325,
			"0.006": 3.74163288503,
			"0.007": 2.16778212485,
			"0.008": 3.10881073674,
			"0.009": 1.71671118538,
			"0.01": 1.45465491842,
			"0.011": 1.39232433821,
			"0.012": 2.27713726609,
			"0.013": 0.836593876738,
			"0.014": 1.0249413124,
			"0.015": 0.878999014113,
			"0.016": 0.648308235468,
			"0.017": 0.0434384472652,
			"0.018": 0.0,
			"0.019": 0.0,
			"0.02": 0.0,
			"0.021": 0.0,
			"0.022": 0.0,
			"0.023": 0.0,
			"0.024": 0.0,
			"0.025": 0.0
		}
	}
}
