{
	 "smiles": "OC(=O)C1=CC2=C(S1)C1=C(CC2)C=CC=C1", 
	 "Tm": 486.15, 
	 "num_atms": 26, 
	 "gaussian": { 
		 "optdone": 1, 
		 "sigma_profile": "yes", 
		 "theory": "DFT", 
		 "functional": "B3LYP", 
		 "basiset": "6-31G**", 
		 "properties": { 
			 "R2extent": 4746.3161, 
			 "electric_dipole_moment_norm": 6.16078827424, 
			 "electric_quadrupole_moment_norm": 21.9941193731, 
			 "total_energy": -1050.06238343, 
			 "HOMO_LUMO_gap": 0.14977, 
			 "cosmo_polarized_energy": -16.49, 
			 "cosmo_cavitation_energy": 30.96, 
			 "cosmo_dispersion_energy": -23.54, 
			 "cosmo_repulsion_energy": 1.76, 
			 "cosmo_total_nonelectrostatic_energy": 9.18, 
			 "SMD_solvation_energy": 5.37 
		},
		"coords": [
			{
				"x": 2.1100148042,
				"y": -4.6836470674,
				"z": -0.7099432271,
				"element": "O" 
			},
			{
				"x": 2.4273194083,
				"y": -3.3689111595,
				"z": -0.5556436204,
				"element": "C" 
			},
			{
				"x": 3.5773955451,
				"y": -3.0400517475,
				"z": -0.366852014,
				"element": "O" 
			},
			{
				"x": 1.3127653034,
				"y": -2.4055625107,
				"z": -0.6282024709,
				"element": "C" 
			},
			{
				"x": -0.0514373621,
				"y": -2.6014460559,
				"z": -0.7115854892,
				"element": "C" 
			},
			{
				"x": -0.7913513345,
				"y": -1.3946854599,
				"z": -0.7598583597,
				"element": "C" 
			},
			{
				"x": 0.0247290384,
				"y": -0.2763105538,
				"z": -0.7018720709,
				"element": "C" 
			},
			{
				"x": 1.7053016968,
				"y": -0.7071223636,
				"z": -0.5969158227,
				"element": "S" 
			},
			{
				"x": -0.4977324342,
				"y": 1.0883585704,
				"z": -0.7005353821,
				"element": "C" 
			},
			{
				"x": -1.8483060607,
				"y": 1.2637265691,
				"z": -1.0900598151,
				"element": "C" 
			},
			{
				"x": -2.6461793156,
				"y": 0.0653856529,
				"z": -1.5682891919,
				"element": "C" 
			},
			{
				"x": -2.2891985844,
				"y": -1.2257207288,
				"z": -0.8115973106,
				"element": "C" 
			},
			{
				"x": -2.3923828922,
				"y": 2.5484120009,
				"z": -1.0790875202,
				"element": "C" 
			},
			{
				"x": -1.626800298,
				"y": 3.6532700748,
				"z": -0.6990357355,
				"element": "C" 
			},
			{
				"x": -0.2945744835,
				"y": 3.4786366622,
				"z": -0.3203527264,
				"element": "C" 
			},
			{
				"x": 0.2641079342,
				"y": 2.2029139305,
				"z": -0.317305507,
				"element": "C" 
			},
			{
				"x": 1.1767283545,
				"y": -4.7858536479,
				"z": -0.9405062845,
				"element": "H" 
			},
			{
				"x": -0.5285177663,
				"y": -3.5780007577,
				"z": -0.7224561805,
				"element": "H" 
			},
			{
				"x": -2.4362144945,
				"y": -0.0882500361,
				"z": -2.6373421089,
				"element": "H" 
			},
			{
				"x": -3.7182768297,
				"y": 0.2708584481,
				"z": -1.4870021042,
				"element": "H" 
			},
			{
				"x": -2.6885383854,
				"y": -1.1780996478,
				"z": 0.2120804639,
				"element": "H" 
			},
			{
				"x": -2.763083196,
				"y": -2.0878012874,
				"z": -1.2929191117,
				"element": "H" 
			},
			{
				"x": -3.4291980556,
				"y": 2.6867527724,
				"z": -1.3758691105,
				"element": "H" 
			},
			{
				"x": -2.0704476007,
				"y": 4.6445085907,
				"z": -0.6957944758,
				"element": "H" 
			},
			{
				"x": 0.3057719501,
				"y": 4.3319029724,
				"z": -0.0195069479,
				"element": "H" 
			},
			{
				"x": 1.2949050584,
				"y": 2.0664367796,
				"z": -0.0017478763,
				"element": "H" 
			}
		],
		 "valence_orbital": [ 
			{
				"type": "occ",
				"energy": -0.28876,
				"method": "rhf"
			},
			{
				"type": "occ",
				"energy": -0.2737,
				"method": "rhf"
			},
			{
				"type": "occ",
				"energy": -0.26308,
				"method": "rhf"
			},
			{
				"type": "occ",
				"energy": -0.25517,
				"method": "rhf"
			},
			{
				"type": "occ",
				"energy": -0.21982,
				"method": "rhf"
			},
			{
				"type": "unocc",
				"energy": -0.07005,
				"method": "rhf"
			},
			{
				"type": "unocc",
				"energy": -0.01422,
				"method": "rhf"
			},
			{
				"type": "unocc",
				"energy": -0.00808,
				"method": "rhf"
			},
			{
				"type": "unocc",
				"energy": 0.02319,
				"method": "rhf"
			},
			{
				"type": "unocc",
				"energy": 0.04532,
				"method": "rhf"
			}
		],
		"cosmo_sigma_profile": { 
			"-0.025": 0.0,
			"-0.024": 0.0,
			"-0.023": 0.0,
			"-0.022": 0.0,
			"-0.021": 0.0,
			"-0.02": 0.0,
			"-0.019": 0.402853077597,
			"-0.018": 1.12038894457,
			"-0.017": 1.10983008078,
			"-0.016": 1.08776324754,
			"-0.015": 1.28690741982,
			"-0.014": 0.842007795568,
			"-0.013": 0.997095880579,
			"-0.012": 0.867365694497,
			"-0.011": 1.16890765095,
			"-0.01": 0.819978512965,
			"-0.009": 2.0562439668,
			"-0.008": 2.13891640568,
			"-0.007": 1.8151837584,
			"-0.006": 7.64133367403,
			"-0.005": 15.8803947276,
			"-0.004": 21.0774807895,
			"-0.003": 21.6414237237,
			"-0.002": 20.8127219319,
			"-0.001": 19.0926629118,
			"0.0": 13.8043742833,
			"0.001": 16.7890686256,
			"0.002": 25.1114076575,
			"0.003": 18.1839421145,
			"0.004": 12.0149579337,
			"0.005": 11.8666562133,
			"0.006": 4.09578402065,
			"0.007": 2.79190443118,
			"0.008": 1.93898992408,
			"0.009": 4.09799243568,
			"0.01": 4.35277717067,
			"0.011": 5.28533209419,
			"0.012": 5.44282733136,
			"0.013": 1.87490386947,
			"0.014": 0.0851976286839,
			"0.015": 0.0,
			"0.016": 0.0,
			"0.017": 0.0,
			"0.018": 0.0,
			"0.019": 0.0,
			"0.02": 0.0,
			"0.021": 0.0,
			"0.022": 0.0,
			"0.023": 0.0,
			"0.024": 0.0,
			"0.0": 0.0
		}
	}
}
