{
	 "smiles": "OC1COC2C(COC12)O[N+]([O-])=O", 
	 "Tm": 363.65, 
	 "num_atms": 22, 
	 "gaussian": { 
		 "optdone": 1, 
		 "sigma_profile": "yes", 
		 "theory": "DFT", 
		 "functional": "B3LYP", 
		 "basiset": "6-31G**", 
		 "properties": { 
			 "R2extent": 2653.772, 
			 "electric_dipole_moment_norm": 1.83568133672, 
			 "electric_quadrupole_moment_norm": 15.3635631434, 
			 "total_energy": -739.974319895, 
			 "HOMO_LUMO_gap": 0.19114, 
			 "cosmo_polarized_energy": -12.45, 
			 "cosmo_cavitation_energy": 25.22, 
			 "cosmo_dispersion_energy": -18.99, 
			 "cosmo_repulsion_energy": 1.52, 
			 "cosmo_total_nonelectrostatic_energy": 7.76, 
			 "SMD_solvation_energy": 6.83 
		},
		"coords": [
			{
				"x": 1.98917781,
				"y": 0.0023519649,
				"z": -2.6898490003,
				"element": "O" 
			},
			{
				"x": 2.1113674183,
				"y": 0.3009141961,
				"z": -1.322792892,
				"element": "C" 
			},
			{
				"x": 2.6236633194,
				"y": -0.8615672442,
				"z": -0.4528321929,
				"element": "C" 
			},
			{
				"x": 2.1579434727,
				"y": -0.5897694332,
				"z": 0.8734208056,
				"element": "O" 
			},
			{
				"x": 0.9928642169,
				"y": 0.2379525395,
				"z": 0.8279962118,
				"element": "C" 
			},
			{
				"x": -0.2569425055,
				"y": -0.5846332823,
				"z": 1.184700147,
				"element": "C" 
			},
			{
				"x": -0.6378375296,
				"y": -1.206508676,
				"z": -0.1546672078,
				"element": "C" 
			},
			{
				"x": -0.2434404004,
				"y": -0.2637856896,
				"z": -1.1564943205,
				"element": "O" 
			},
			{
				"x": 0.7679489592,
				"y": 0.6235444885,
				"z": -0.6408875274,
				"element": "C" 
			},
			{
				"x": -1.3616603416,
				"y": 0.2818609233,
				"z": 1.5420524995,
				"element": "O" 
			},
			{
				"x": -1.3466962781,
				"y": 0.7350196181,
				"z": 2.8927093445,
				"element": "N" 
			},
			{
				"x": -0.442242149,
				"y": 0.3517139948,
				"z": 3.6058619037,
				"element": "O" 
			},
			{
				"x": -2.2770847485,
				"y": 1.4578765348,
				"z": 3.1429221328,
				"element": "O" 
			},
			{
				"x": 1.1458377218,
				"y": -0.4703313089,
				"z": -2.7785572019,
				"element": "H" 
			},
			{
				"x": 2.7841100529,
				"y": 1.1611124868,
				"z": -1.2302587742,
				"element": "H" 
			},
			{
				"x": 2.2211306181,
				"y": -1.8125826854,
				"z": -0.8346994953,
				"element": "H" 
			},
			{
				"x": 3.7131614689,
				"y": -0.9380532143,
				"z": -0.4193226948,
				"element": "H" 
			},
			{
				"x": 1.1303326857,
				"y": 1.0834146421,
				"z": 1.5074671812,
				"element": "H" 
			},
			{
				"x": -0.0680562994,
				"y": -1.3040320385,
				"z": 1.9814344608,
				"element": "H" 
			},
			{
				"x": -1.7120897973,
				"y": -1.3857536104,
				"z": -0.2459066668,
				"element": "H" 
			},
			{
				"x": -0.1035089479,
				"y": -2.1586604152,
				"z": -0.2759117754,
				"element": "H" 
			},
			{
				"x": 0.4311212535,
				"y": 1.6512162095,
				"z": -0.7997849372,
				"element": "H" 
			}
		],
		 "valence_orbital": [ 
			{
				"type": "occ",
				"energy": -0.33186,
				"method": "rhf"
			},
			{
				"type": "occ",
				"energy": -0.32338,
				"method": "rhf"
			},
			{
				"type": "occ",
				"energy": -0.29335,
				"method": "rhf"
			},
			{
				"type": "occ",
				"energy": -0.27695,
				"method": "rhf"
			},
			{
				"type": "occ",
				"energy": -0.26554,
				"method": "rhf"
			},
			{
				"type": "unocc",
				"energy": -0.0744,
				"method": "rhf"
			},
			{
				"type": "unocc",
				"energy": 0.0278,
				"method": "rhf"
			},
			{
				"type": "unocc",
				"energy": 0.06251,
				"method": "rhf"
			},
			{
				"type": "unocc",
				"energy": 0.07076,
				"method": "rhf"
			},
			{
				"type": "unocc",
				"energy": 0.08855,
				"method": "rhf"
			}
		],
		"cosmo_sigma_profile": { 
			"-0.025": 0.0,
			"-0.024": 0.0,
			"-0.023": 0.0,
			"-0.022": 0.0,
			"-0.021": 0.0,
			"-0.02": 0.0,
			"-0.019": 0.0,
			"-0.018": 0.0,
			"-0.017": 0.0,
			"-0.016": 0.0,
			"-0.015": 0.0,
			"-0.014": 0.0,
			"-0.013": 0.0,
			"-0.012": 0.182243758078,
			"-0.011": 0.71109109993,
			"-0.01": 0.841164939008,
			"-0.009": 2.62489364678,
			"-0.008": 5.73960431518,
			"-0.007": 11.3639148455,
			"-0.006": 23.4165479974,
			"-0.005": 17.4670791673,
			"-0.004": 12.3676671262,
			"-0.003": 10.368822288,
			"-0.002": 9.71882661236,
			"-0.001": 9.10138107403,
			"0.0": 6.63290913034,
			"0.001": 7.113878713,
			"0.002": 8.71089318744,
			"0.003": 7.76291546024,
			"0.004": 8.50084515928,
			"0.005": 12.336293639,
			"0.006": 14.470139943,
			"0.007": 9.66647703855,
			"0.008": 3.30807811055,
			"0.009": 2.48004571625,
			"0.01": 2.38969753733,
			"0.011": 3.72168607352,
			"0.012": 3.51618965279,
			"0.013": 2.20016590579,
			"0.014": 1.33776250614,
			"0.015": 0.0,
			"0.016": 0.0,
			"0.017": 0.0,
			"0.018": 0.0,
			"0.019": 0.0,
			"0.02": 0.0,
			"0.021": 0.0,
			"0.022": 0.0,
			"0.023": 0.0,
			"0.024": 0.0,
			"0.025": 0.0
		}
	}
}
