{
	 "smiles": "C1=CC=C(C=C1)C1=CC=CN=C1", 
	 "Tm": 437.15, 
	 "num_atms": 21, 
	 "gaussian": { 
		 "optdone": 1, 
		 "sigma_profile": "yes", 
		 "theory": "DFT", 
		 "functional": "B3LYP", 
		 "basiset": "6-31G**", 
		 "properties": { 
			 "R2extent": 2359.0517, 
			 "electric_dipole_moment_norm": 2.29578600701, 
			 "electric_quadrupole_moment_norm": 11.1281355303, 
			 "total_energy": -479.345958537, 
			 "HOMO_LUMO_gap": 0.19618, 
			 "cosmo_polarized_energy": -7.28, 
			 "cosmo_cavitation_energy": 24.91, 
			 "cosmo_dispersion_energy": -18.49, 
			 "cosmo_repulsion_energy": 1.45, 
			 "cosmo_total_nonelectrostatic_energy": 7.87, 
			 "SMD_solvation_energy": 2.69 
		},
		"coords": [
			{
				"x": -1.2907123056,
				"y": 3.2890242093,
				"z": 0.3150491774,
				"element": "C" 
			},
			{
				"x": -0.3709813315,
				"y": 2.738817766,
				"z": 1.2097347805,
				"element": "C" 
			},
			{
				"x": 0.2445120449,
				"y": 1.5208267531,
				"z": 0.9242217838,
				"element": "C" 
			},
			{
				"x": -0.0451150466,
				"y": 0.8291120947,
				"z": -0.26440764,
				"element": "C" 
			},
			{
				"x": -0.9719855099,
				"y": 1.3953840629,
				"z": -1.1561725181,
				"element": "C" 
			},
			{
				"x": -1.5893341145,
				"y": 2.6117571772,
				"z": -0.8689054761,
				"element": "C" 
			},
			{
				"x": 0.6112383167,
				"y": -0.4648638797,
				"z": -0.5708319922,
				"element": "C" 
			},
			{
				"x": -0.0750682069,
				"y": -1.5207802475,
				"z": -1.1889128344,
				"element": "C" 
			},
			{
				"x": 0.5942786086,
				"y": -2.7125142394,
				"z": -1.4527080811,
				"element": "C" 
			},
			{
				"x": 1.9361015024,
				"y": -2.8211109716,
				"z": -1.0850153881,
				"element": "C" 
			},
			{
				"x": 2.6184442871,
				"y": -1.8296072652,
				"z": -0.4985831823,
				"element": "N" 
			},
			{
				"x": 1.9641548488,
				"y": -0.6899545069,
				"z": -0.2584047132,
				"element": "C" 
			},
			{
				"x": -1.7707922956,
				"y": 4.2372930649,
				"z": 0.53845711,
				"element": "H" 
			},
			{
				"x": -0.1383165708,
				"y": 3.2541758349,
				"z": 2.1372650038,
				"element": "H" 
			},
			{
				"x": 0.9373111306,
				"y": 1.0876917797,
				"z": 1.6395219304,
				"element": "H" 
			},
			{
				"x": -1.1900908356,
				"y": 0.8899535737,
				"z": -2.0925921304,
				"element": "H" 
			},
			{
				"x": -2.2978138534,
				"y": 3.035594757,
				"z": -1.5749798583,
				"element": "H" 
			},
			{
				"x": -1.1270184697,
				"y": -1.4131254473,
				"z": -1.4375888695,
				"element": "H" 
			},
			{
				"x": 0.0848657665,
				"y": -3.5477344374,
				"z": -1.9235072354,
				"element": "H" 
			},
			{
				"x": 2.4865325602,
				"y": -3.7422882337,
				"z": -1.2681136179,
				"element": "H" 
			},
			{
				"x": 2.5499894744,
				"y": 0.1087481551,
				"z": 0.193573751,
				"element": "H" 
			}
		],
		 "valence_orbital": [ 
			{
				"type": "occ",
				"energy": -0.29329,
				"method": "rhf"
			},
			{
				"type": "occ",
				"energy": -0.27436,
				"method": "rhf"
			},
			{
				"type": "occ",
				"energy": -0.25551,
				"method": "rhf"
			},
			{
				"type": "occ",
				"energy": -0.25198,
				"method": "rhf"
			},
			{
				"type": "occ",
				"energy": -0.23269,
				"method": "rhf"
			},
			{
				"type": "unocc",
				"energy": -0.03651,
				"method": "rhf"
			},
			{
				"type": "unocc",
				"energy": -0.02074,
				"method": "rhf"
			},
			{
				"type": "unocc",
				"energy": -0.00659,
				"method": "rhf"
			},
			{
				"type": "unocc",
				"energy": 0.02052,
				"method": "rhf"
			},
			{
				"type": "unocc",
				"energy": 0.09292,
				"method": "rhf"
			}
		],
		"cosmo_sigma_profile": { 
			"-0.025": 0.0,
			"-0.024": 0.0,
			"-0.023": 0.0,
			"-0.022": 0.0,
			"-0.021": 0.0,
			"-0.02": 0.0,
			"-0.019": 0.0,
			"-0.018": 0.0,
			"-0.017": 0.0,
			"-0.016": 0.0,
			"-0.015": 0.0,
			"-0.014": 0.0,
			"-0.013": 0.0,
			"-0.012": 0.0,
			"-0.011": 0.0,
			"-0.01": 0.0,
			"-0.009": 0.0,
			"-0.008": 0.0019754600823,
			"-0.007": 2.67783343342,
			"-0.006": 15.4112461342,
			"-0.005": 19.7296005539,
			"-0.004": 19.0169062388,
			"-0.003": 15.0799287305,
			"-0.002": 13.0683083639,
			"-0.001": 11.2769135261,
			"0.0": 11.3608516134,
			"0.001": 14.7535823715,
			"0.002": 22.1894550973,
			"0.003": 16.5287157211,
			"0.004": 11.7019903179,
			"0.005": 12.221441843,
			"0.006": 4.54306131097,
			"0.007": 1.20488569422,
			"0.008": 1.37342134405,
			"0.009": 1.73912112989,
			"0.01": 0.994084285091,
			"0.011": 0.330302876538,
			"0.012": 0.952699035138,
			"0.013": 1.38432283229,
			"0.014": 0.746419749714,
			"0.015": 0.909972502033,
			"0.016": 0.840534935929,
			"0.017": 0.414072721867,
			"0.018": 0.0,
			"0.019": 0.0,
			"0.02": 0.0,
			"0.021": 0.0,
			"0.022": 0.0,
			"0.023": 0.0,
			"0.024": 0.0,
			"0.025": 0.0
		}
	}
}
