{
	 "smiles": "ClC(=O)C1=CC2=CC=CC=C2C=C1", 
	 "Tm": 323.65, 
	 "num_atms": 20, 
	 "gaussian": { 
		 "optdone": 1, 
		 "sigma_profile": "yes", 
		 "theory": "DFT", 
		 "functional": "B3LYP", 
		 "basiset": "6-31G**", 
		 "properties": { 
			 "R2extent": 3770.0583, 
			 "electric_dipole_moment_norm": 4.83147081953, 
			 "electric_quadrupole_moment_norm": 12.0351946985, 
			 "total_energy": -958.826378484, 
			 "HOMO_LUMO_gap": 0.15432, 
			 "cosmo_polarized_energy": -6.91, 
			 "cosmo_cavitation_energy": 26.31, 
			 "cosmo_dispersion_energy": -19.64, 
			 "cosmo_repulsion_energy": 1.52, 
			 "cosmo_total_nonelectrostatic_energy": 8.18, 
			 "SMD_solvation_energy": 4.8 
		},
		"coords": [
			{
				"x": 2.1866723822,
				"y": -1.8734228902,
				"z": 4.1593089439,
				"element": "Cl" 
			},
			{
				"x": 2.3753033128,
				"y": -1.7989269765,
				"z": 2.3349673944,
				"element": "C" 
			},
			{
				"x": 3.2625814207,
				"y": -2.4186675099,
				"z": 1.8291593249,
				"element": "O" 
			},
			{
				"x": 1.3817256387,
				"y": -0.9533699194,
				"z": 1.6344375492,
				"element": "C" 
			},
			{
				"x": 1.5078972501,
				"y": -0.8831801701,
				"z": 0.2541025319,
				"element": "C" 
			},
			{
				"x": 0.6165172592,
				"y": -0.1068169739,
				"z": -0.5212063941,
				"element": "C" 
			},
			{
				"x": 0.7292084111,
				"y": -0.0218523138,
				"z": -1.9370103371,
				"element": "C" 
			},
			{
				"x": -0.1535909657,
				"y": 0.742116638,
				"z": -2.6642712285,
				"element": "C" 
			},
			{
				"x": -1.1888095537,
				"y": 1.4555369534,
				"z": -2.0086484205,
				"element": "C" 
			},
			{
				"x": -1.3244170466,
				"y": 1.3937504716,
				"z": -0.6394775826,
				"element": "C" 
			},
			{
				"x": -0.4305942979,
				"y": 0.6148670777,
				"z": 0.1412836569,
				"element": "C" 
			},
			{
				"x": -0.5351345365,
				"y": 0.5237321259,
				"z": 1.5565374381,
				"element": "C" 
			},
			{
				"x": 0.3423034985,
				"y": -0.2367401376,
				"z": 2.2898056894,
				"element": "C" 
			},
			{
				"x": 2.3057632227,
				"y": -1.4353851488,
				"z": -0.2322807658,
				"element": "H" 
			},
			{
				"x": 1.525158408,
				"y": -0.5714793233,
				"z": -2.4320571013,
				"element": "H" 
			},
			{
				"x": -0.0621041741,
				"y": 0.8027176908,
				"z": -3.7444724339,
				"element": "H" 
			},
			{
				"x": -1.8786307673,
				"y": 2.0547910858,
				"z": -2.5956806807,
				"element": "H" 
			},
			{
				"x": -2.118302249,
				"y": 1.9410875265,
				"z": -0.1385183322,
				"element": "H" 
			},
			{
				"x": -1.3288350303,
				"y": 1.0708284373,
				"z": 2.0577884963,
				"element": "H" 
			},
			{
				"x": 0.2507878173,
				"y": -0.2968866436,
				"z": 3.3669322519,
				"element": "H" 
			}
		],
		 "valence_orbital": [ 
			{
				"type": "occ",
				"energy": -0.31633,
				"method": "rhf"
			},
			{
				"type": "occ",
				"energy": -0.30426,
				"method": "rhf"
			},
			{
				"type": "occ",
				"energy": -0.29056,
				"method": "rhf"
			},
			{
				"type": "occ",
				"energy": -0.26575,
				"method": "rhf"
			},
			{
				"type": "occ",
				"energy": -0.23673,
				"method": "rhf"
			},
			{
				"type": "unocc",
				"energy": -0.08241,
				"method": "rhf"
			},
			{
				"type": "unocc",
				"energy": -0.04575,
				"method": "rhf"
			},
			{
				"type": "unocc",
				"energy": 0.00152,
				"method": "rhf"
			},
			{
				"type": "unocc",
				"energy": 0.02145,
				"method": "rhf"
			},
			{
				"type": "unocc",
				"energy": 0.02163,
				"method": "rhf"
			}
		],
		"cosmo_sigma_profile": { 
			"-0.025": 0.0,
			"-0.024": 0.0,
			"-0.023": 0.0,
			"-0.022": 0.0,
			"-0.021": 0.0,
			"-0.02": 0.0,
			"-0.019": 0.0,
			"-0.018": 0.0,
			"-0.017": 0.0,
			"-0.016": 0.0,
			"-0.015": 0.0,
			"-0.014": 0.0,
			"-0.013": 0.0,
			"-0.012": 0.0,
			"-0.011": 0.0,
			"-0.01": 0.0,
			"-0.009": 0.0,
			"-0.008": 0.934042857628,
			"-0.007": 8.00511071211,
			"-0.006": 14.7021247605,
			"-0.005": 13.1193274384,
			"-0.004": 13.8704337064,
			"-0.003": 11.1543119624,
			"-0.002": 14.471291725,
			"-0.001": 14.3436698057,
			"0.0": 17.1738584846,
			"0.001": 21.0355811034,
			"0.002": 27.2213720167,
			"0.003": 21.5814581536,
			"0.004": 15.3104707495,
			"0.005": 7.33745209583,
			"0.006": 3.49639992814,
			"0.007": 2.77529742774,
			"0.008": 3.66283372174,
			"0.009": 3.68909532925,
			"0.01": 0.694645407375,
			"0.011": 0.0,
			"0.012": 0.0,
			"0.013": 0.0,
			"0.014": 0.0,
			"0.015": 0.0,
			"0.016": 0.0,
			"0.017": 0.0,
			"0.018": 0.0,
			"0.019": 0.0,
			"0.02": 0.0,
			"0.021": 0.0,
			"0.022": 0.0,
			"0.023": 0.0,
			"0.024": 0.0,
			"0.025": 0.0
		}
	}
}
