{
	 "smiles": "CCCOC1=CC=C(C=C1NC(C)=O)[N+]([O-])=O", 
	 "Tm": 375.15, 
	 "num_atms": 31, 
	 "gaussian": { 
		 "optdone": 1, 
		 "sigma_profile": "yes", 
		 "theory": "DFT", 
		 "functional": "B3LYP", 
		 "basiset": "6-31G**", 
		 "properties": { 
			 "R2extent": 6483.7682, 
			 "electric_dipole_moment_norm": 5.75646679917, 
			 "electric_quadrupole_moment_norm": 24.9437518098, 
			 "total_energy": -837.926172258, 
			 "HOMO_LUMO_gap": 0.14647, 
			 "cosmo_polarized_energy": -16.17, 
			 "cosmo_cavitation_energy": 35.53, 
			 "cosmo_dispersion_energy": -24.77, 
			 "cosmo_repulsion_energy": 1.94, 
			 "cosmo_total_nonelectrostatic_energy": 12.71, 
			 "SMD_solvation_energy": 9.35 
		},
		"coords": [
			{
				"x": -1.3859464272,
				"y": 0.5304823596,
				"z": 3.2608796234,
				"element": "C" 
			},
			{
				"x": 0.0367385573,
				"y": 0.9953440059,
				"z": 2.9350833284,
				"element": "C" 
			},
			{
				"x": 0.1532742276,
				"y": 1.7159283788,
				"z": 1.599257339,
				"element": "C" 
			},
			{
				"x": -0.1775536142,
				"y": 0.7809956512,
				"z": 0.5608443951,
				"element": "O" 
			},
			{
				"x": -0.1637946183,
				"y": 1.1830925781,
				"z": -0.7349853541,
				"element": "C" 
			},
			{
				"x": 0.1394358036,
				"y": 2.4776033324,
				"z": -1.161799536,
				"element": "C" 
			},
			{
				"x": 0.1336896553,
				"y": 2.7912633151,
				"z": -2.5203667325,
				"element": "C" 
			},
			{
				"x": -0.1596625651,
				"y": 1.785269674,
				"z": -3.4306705702,
				"element": "C" 
			},
			{
				"x": -0.447850673,
				"y": 0.4767592504,
				"z": -3.0333620726,
				"element": "C" 
			},
			{
				"x": -0.4801266892,
				"y": 0.1608964936,
				"z": -1.6782581717,
				"element": "C" 
			},
			{
				"x": -0.7481830662,
				"y": -1.1080826267,
				"z": -1.1524318543,
				"element": "N" 
			},
			{
				"x": -1.5037958884,
				"y": -2.1894778909,
				"z": -1.5946993897,
				"element": "C" 
			},
			{
				"x": -2.1976615274,
				"y": -2.1130508621,
				"z": -2.9381838574,
				"element": "C" 
			},
			{
				"x": -1.5935851568,
				"y": -3.1701405805,
				"z": -0.872329619,
				"element": "O" 
			},
			{
				"x": -0.1493546259,
				"y": 2.0929848855,
				"z": -4.8629111016,
				"element": "N" 
			},
			{
				"x": -0.4149407065,
				"y": 1.1808137523,
				"z": -5.6483880271,
				"element": "O" 
			},
			{
				"x": 0.1230611726,
				"y": 3.2461308834,
				"z": -5.19956492,
				"element": "O" 
			},
			{
				"x": -1.4164035651,
				"y": 0.0192263727,
				"z": 4.2273787055,
				"element": "H" 
			},
			{
				"x": -1.7584895195,
				"y": -0.1622474409,
				"z": 2.5014529769,
				"element": "H" 
			},
			{
				"x": -2.0774425268,
				"y": 1.3792603341,
				"z": 3.3096732423,
				"element": "H" 
			},
			{
				"x": 0.7258329835,
				"y": 0.1424700812,
				"z": 2.9325154557,
				"element": "H" 
			},
			{
				"x": 0.3963878779,
				"y": 1.6853450438,
				"z": 3.7084387235,
				"element": "H" 
			},
			{
				"x": -0.5391884692,
				"y": 2.5675313028,
				"z": 1.5525245658,
				"element": "H" 
			},
			{
				"x": 1.1732989284,
				"y": 2.0885113719,
				"z": 1.4384115475,
				"element": "H" 
			},
			{
				"x": 0.3734908286,
				"y": 3.2495010715,
				"z": -0.4397523354,
				"element": "H" 
			},
			{
				"x": 0.3565679591,
				"y": 3.7895020491,
				"z": -2.8734771746,
				"element": "H" 
			},
			{
				"x": -0.6257347987,
				"y": -0.2625345111,
				"z": -3.7987688694,
				"element": "H" 
			},
			{
				"x": -0.4496753493,
				"y": -1.2368565256,
				"z": -0.1927782972,
				"element": "H" 
			},
			{
				"x": -2.6669279936,
				"y": -1.1416942893,
				"z": -3.1146275971,
				"element": "H" 
			},
			{
				"x": -1.48907859,
				"y": -2.300727481,
				"z": -3.7520263237,
				"element": "H" 
			},
			{
				"x": -2.9524816235,
				"y": -2.8990999793,
				"z": -2.9567780996,
				"element": "H" 
			}
		],
		 "valence_orbital": [ 
			{
				"type": "occ",
				"energy": -0.30503,
				"method": "rhf"
			},
			{
				"type": "occ",
				"energy": -0.28745,
				"method": "rhf"
			},
			{
				"type": "occ",
				"energy": -0.26795,
				"method": "rhf"
			},
			{
				"type": "occ",
				"energy": -0.26144,
				"method": "rhf"
			},
			{
				"type": "occ",
				"energy": -0.23116,
				"method": "rhf"
			},
			{
				"type": "unocc",
				"energy": -0.08469,
				"method": "rhf"
			},
			{
				"type": "unocc",
				"energy": -0.03306,
				"method": "rhf"
			},
			{
				"type": "unocc",
				"energy": 0.00237,
				"method": "rhf"
			},
			{
				"type": "unocc",
				"energy": 0.03009,
				"method": "rhf"
			},
			{
				"type": "unocc",
				"energy": 0.06729,
				"method": "rhf"
			}
		],
		"cosmo_sigma_profile": { 
			"-0.025": 0.0,
			"-0.024": 0.0,
			"-0.023": 0.0,
			"-0.022": 0.0,
			"-0.021": 0.0,
			"-0.02": 0.0,
			"-0.019": 0.0,
			"-0.018": 0.0,
			"-0.017": 0.0,
			"-0.016": 0.0,
			"-0.015": 0.0,
			"-0.014": 0.0,
			"-0.013": 0.0,
			"-0.012": 0.0,
			"-0.011": 0.0533432510345,
			"-0.01": 0.496757362403,
			"-0.009": 1.93247527971,
			"-0.008": 5.11264642316,
			"-0.007": 7.54504124217,
			"-0.006": 13.2363449967,
			"-0.005": 19.0293211575,
			"-0.004": 23.1812279727,
			"-0.003": 26.3438360541,
			"-0.002": 26.9204670044,
			"-0.001": 29.3911119226,
			"0.0": 28.3288261825,
			"0.001": 25.4778812804,
			"0.002": 13.6923108481,
			"0.003": 6.32204430765,
			"0.004": 3.57943733305,
			"0.005": 3.23289345408,
			"0.006": 5.11150893886,
			"0.007": 5.92685969246,
			"0.008": 11.2027832104,
			"0.009": 6.43332199817,
			"0.01": 5.56777399918,
			"0.011": 2.54021189678,
			"0.012": 3.22186711651,
			"0.013": 5.42560849705,
			"0.014": 1.93087452133,
			"0.015": 0.0831842840618,
			"0.016": 0.0,
			"0.017": 0.0,
			"0.018": 0.0,
			"0.019": 0.0,
			"0.02": 0.0,
			"0.021": 0.0,
			"0.022": 0.0,
			"0.023": 0.0,
			"0.024": 0.0,
			"0.025": 0.0
		}
	}
}
