{
	 "smiles": "COC1=CC=C(C(C)=CC(O)=O)C(OC)=C1", 
	 "Tm": 422.15, 
	 "num_atms": 30, 
	 "gaussian": { 
		 "optdone": 1, 
		 "sigma_profile": "yes", 
		 "theory": "DFT", 
		 "functional": "B3LYP", 
		 "basiset": "6-31G**", 
		 "properties": { 
			 "R2extent": 4848.0362, 
			 "electric_dipole_moment_norm": 7.29221279517, 
			 "electric_quadrupole_moment_norm": 36.0371228316, 
			 "total_energy": -766.583181214, 
			 "HOMO_LUMO_gap": 0.18984, 
			 "cosmo_polarized_energy": -16.33, 
			 "cosmo_cavitation_energy": 33.81, 
			 "cosmo_dispersion_energy": -23.57, 
			 "cosmo_repulsion_energy": 1.86, 
			 "cosmo_total_nonelectrostatic_energy": 12.1, 
			 "SMD_solvation_energy": 8.75 
		},
		"coords": [
			{
				"x": -1.5781334479,
				"y": -4.5581400489,
				"z": -0.2575432029,
				"element": "C" 
			},
			{
				"x": -1.2718424202,
				"y": -3.2847272779,
				"z": -0.8103566251,
				"element": "O" 
			},
			{
				"x": -0.8517139429,
				"y": -2.3010810223,
				"z": 0.0295664801,
				"element": "C" 
			},
			{
				"x": -0.7053709878,
				"y": -2.4412874202,
				"z": 1.4122601663,
				"element": "C" 
			},
			{
				"x": -0.2629788386,
				"y": -1.3435843129,
				"z": 2.1554801564,
				"element": "C" 
			},
			{
				"x": 0.0469820428,
				"y": -0.1110114962,
				"z": 1.5693654471,
				"element": "C" 
			},
			{
				"x": 0.4302416865,
				"y": 1.0638975733,
				"z": 2.4127265428,
				"element": "C" 
			},
			{
				"x": -0.6014097738,
				"y": 2.1656368913,
				"z": 2.4949400295,
				"element": "C" 
			},
			{
				"x": 1.5750583572,
				"y": 1.1544157365,
				"z": 3.1185940095,
				"element": "C" 
			},
			{
				"x": 2.7581781545,
				"y": 0.2485560816,
				"z": 3.1760838544,
				"element": "C" 
			},
			{
				"x": 2.8267529839,
				"y": -0.8093675397,
				"z": 2.3325274569,
				"element": "O" 
			},
			{
				"x": 3.6647787426,
				"y": 0.4625222416,
				"z": 3.9526079716,
				"element": "O" 
			},
			{
				"x": -0.1162104006,
				"y": 0.0059923221,
				"z": 0.163130425,
				"element": "C" 
			},
			{
				"x": 0.2008098159,
				"y": 1.2189893041,
				"z": -0.3685762399,
				"element": "O" 
			},
			{
				"x": 0.1010446262,
				"y": 1.3946395803,
				"z": -1.7761560999,
				"element": "C" 
			},
			{
				"x": -0.5535059026,
				"y": -1.0777925192,
				"z": -0.5935058697,
				"element": "C" 
			},
			{
				"x": -2.4016326181,
				"y": -4.4960925213,
				"z": 0.4645957151,
				"element": "H" 
			},
			{
				"x": -0.7034128234,
				"y": -5.0061364217,
				"z": 0.229644642,
				"element": "H" 
			},
			{
				"x": -1.8825435377,
				"y": -5.1837108333,
				"z": -1.0975571517,
				"element": "H" 
			},
			{
				"x": -0.928510897,
				"y": -3.3732523652,
				"z": 1.9153376026,
				"element": "H" 
			},
			{
				"x": -0.1540607316,
				"y": -1.4437951173,
				"z": 3.2313017589,
				"element": "H" 
			},
			{
				"x": -1.5454848066,
				"y": 1.7760291687,
				"z": 2.894976362,
				"element": "H" 
			},
			{
				"x": -0.8140310797,
				"y": 2.5591104012,
				"z": 1.496135321,
				"element": "H" 
			},
			{
				"x": -0.26310694,
				"y": 2.9864124879,
				"z": 3.1321175919,
				"element": "H" 
			},
			{
				"x": 1.7219890542,
				"y": 2.0196991895,
				"z": 3.7585005458,
				"element": "H" 
			},
			{
				"x": 2.0240819111,
				"y": -0.8514315869,
				"z": 1.7863572108,
				"element": "H" 
			},
			{
				"x": 0.4103096482,
				"y": 2.4221425909,
				"z": -1.9707765293,
				"element": "H" 
			},
			{
				"x": -0.9279944551,
				"y": 1.2513677001,
				"z": -2.127934832,
				"element": "H" 
			},
			{
				"x": 0.7661707784,
				"y": 0.7074045533,
				"z": -2.3126759617,
				"element": "H" 
			},
			{
				"x": -0.6726541978,
				"y": -1.0179053395,
				"z": -1.6674667776,
				"element": "H" 
			}
		],
		 "valence_orbital": [ 
			{
				"type": "occ",
				"energy": -0.29364,
				"method": "rhf"
			},
			{
				"type": "occ",
				"energy": -0.26416,
				"method": "rhf"
			},
			{
				"type": "occ",
				"energy": -0.2505,
				"method": "rhf"
			},
			{
				"type": "occ",
				"energy": -0.24878,
				"method": "rhf"
			},
			{
				"type": "occ",
				"energy": -0.22818,
				"method": "rhf"
			},
			{
				"type": "unocc",
				"energy": -0.03834,
				"method": "rhf"
			},
			{
				"type": "unocc",
				"energy": -0.01424,
				"method": "rhf"
			},
			{
				"type": "unocc",
				"energy": 0.00097,
				"method": "rhf"
			},
			{
				"type": "unocc",
				"energy": 0.08007,
				"method": "rhf"
			},
			{
				"type": "unocc",
				"energy": 0.09057,
				"method": "rhf"
			}
		],
		"cosmo_sigma_profile": { 
			"-0.025": 0.0,
			"-0.024": 0.0,
			"-0.023": 0.0,
			"-0.022": 0.0,
			"-0.021": 0.0,
			"-0.02": 0.0,
			"-0.019": 0.0,
			"-0.018": 0.0,
			"-0.017": 0.0,
			"-0.016": 0.0,
			"-0.015": 0.0,
			"-0.014": 0.0,
			"-0.013": 0.0,
			"-0.012": 0.0,
			"-0.011": 0.0,
			"-0.01": 0.0958888467205,
			"-0.009": 0.698691980084,
			"-0.008": 1.28905279316,
			"-0.007": 4.81186795145,
			"-0.006": 19.3569005311,
			"-0.005": 28.7155917557,
			"-0.004": 27.401727166,
			"-0.003": 26.8447112706,
			"-0.002": 18.8374794304,
			"-0.001": 19.8167055401,
			"0.0": 19.3587974662,
			"0.001": 15.9916581281,
			"0.002": 13.8611966047,
			"0.003": 14.5923615115,
			"0.004": 9.6925820146,
			"0.005": 6.25231794249,
			"0.006": 4.96894485945,
			"0.007": 3.74176273496,
			"0.008": 4.43220788562,
			"0.009": 5.32859090175,
			"0.01": 4.39469736013,
			"0.011": 5.03070546563,
			"0.012": 5.92254284939,
			"0.013": 5.00814845103,
			"0.014": 1.58006536041,
			"0.015": 0.0189428807824,
			"0.016": 0.0,
			"0.017": 0.0,
			"0.018": 0.0,
			"0.019": 0.0,
			"0.02": 0.0,
			"0.021": 0.0,
			"0.022": 0.0,
			"0.023": 0.0,
			"0.024": 0.0,
			"0.025": 0.0
		}
	}
}
