{
	 "smiles": "CC(CC1=CC=CC=C1)(C(O)=O)C(O)=O", 
	 "Tm": 405.15, 
	 "num_atms": 27, 
	 "gaussian": { 
		 "optdone": 1, 
		 "sigma_profile": "yes", 
		 "theory": "DFT", 
		 "functional": "B3LYP", 
		 "basiset": "6-31G**", 
		 "properties": { 
			 "R2extent": 4057.737, 
			 "electric_dipole_moment_norm": 4.23164627775, 
			 "electric_quadrupole_moment_norm": 15.1277318488, 
			 "total_energy": -727.325966239, 
			 "HOMO_LUMO_gap": 0.2116, 
			 "cosmo_polarized_energy": -15.95, 
			 "cosmo_cavitation_energy": 30.08, 
			 "cosmo_dispersion_energy": -21.35, 
			 "cosmo_repulsion_energy": 1.66, 
			 "cosmo_total_nonelectrostatic_energy": 10.39, 
			 "SMD_solvation_energy": 7.16 
		},
		"coords": [
			{
				"x": -1.3812177988,
				"y": -2.1690447741,
				"z": -1.611988423,
				"element": "C" 
			},
			{
				"x": -1.1109062042,
				"y": -0.641702917,
				"z": -1.6626921898,
				"element": "C" 
			},
			{
				"x": -1.7807356063,
				"y": 0.1118659775,
				"z": -0.4801705754,
				"element": "C" 
			},
			{
				"x": -1.5706181671,
				"y": -0.4871251319,
				"z": 0.8980373397,
				"element": "C" 
			},
			{
				"x": -0.4355906414,
				"y": -0.1885226401,
				"z": 1.6676444712,
				"element": "C" 
			},
			{
				"x": -0.2706304179,
				"y": -0.7381387055,
				"z": 2.9400269956,
				"element": "C" 
			},
			{
				"x": -1.2374391151,
				"y": -1.5945831928,
				"z": 3.4699775621,
				"element": "C" 
			},
			{
				"x": -2.3760676422,
				"y": -1.8924287278,
				"z": 2.7199356098,
				"element": "C" 
			},
			{
				"x": -2.5393532175,
				"y": -1.3399408667,
				"z": 1.4487757346,
				"element": "C" 
			},
			{
				"x": -1.7424900589,
				"y": -0.1225764346,
				"z": -2.9996855938,
				"element": "C" 
			},
			{
				"x": -1.0896139198,
				"y": -0.4394704057,
				"z": -4.1367724111,
				"element": "O" 
			},
			{
				"x": -2.7865397268,
				"y": 0.4775926082,
				"z": -3.0365214141,
				"element": "O" 
			},
			{
				"x": 0.3915718536,
				"y": -0.3541284291,
				"z": -1.6901099212,
				"element": "C" 
			},
			{
				"x": 1.0560504259,
				"y": -1.1779323237,
				"z": -2.5641743682,
				"element": "O" 
			},
			{
				"x": 0.9792231205,
				"y": 0.5054088596,
				"z": -1.0797131378,
				"element": "O" 
			},
			{
				"x": -0.945880062,
				"y": -2.6052665436,
				"z": -0.7109085534,
				"element": "H" 
			},
			{
				"x": -0.9710159697,
				"y": -2.6843702129,
				"z": -2.4820975954,
				"element": "H" 
			},
			{
				"x": -2.4604895522,
				"y": -2.341149625,
				"z": -1.5866322598,
				"element": "H" 
			},
			{
				"x": -2.8480287135,
				"y": 0.1441378392,
				"z": -0.7076853569,
				"element": "H" 
			},
			{
				"x": -1.4260477059,
				"y": 1.1458211566,
				"z": -0.4986443531,
				"element": "H" 
			},
			{
				"x": 0.3165780637,
				"y": 0.4810495919,
				"z": 1.2641912197,
				"element": "H" 
			},
			{
				"x": 0.6133653114,
				"y": -0.4902281989,
				"z": 3.5212444384,
				"element": "H" 
			},
			{
				"x": -1.1091497062,
				"y": -2.0185963668,
				"z": 4.4618552278,
				"element": "H" 
			},
			{
				"x": -3.1417766388,
				"y": -2.5475705978,
				"z": 3.1260762702,
				"element": "H" 
			},
			{
				"x": -3.4377943764,
				"y": -1.5640845427,
				"z": 0.8786226159,
				"element": "H" 
			},
			{
				"x": -0.2551035473,
				"y": -0.8989984264,
				"z": -3.9374572702,
				"element": "H" 
			},
			{
				"x": 1.9854000128,
				"y": -0.89011697,
				"z": -2.5609340617,
				"element": "H" 
			}
		],
		 "valence_orbital": [ 
			{
				"type": "occ",
				"energy": -0.32185,
				"method": "rhf"
			},
			{
				"type": "occ",
				"energy": -0.30733,
				"method": "rhf"
			},
			{
				"type": "occ",
				"energy": -0.27565,
				"method": "rhf"
			},
			{
				"type": "occ",
				"energy": -0.24926,
				"method": "rhf"
			},
			{
				"type": "occ",
				"energy": -0.24367,
				"method": "rhf"
			},
			{
				"type": "unocc",
				"energy": -0.03207,
				"method": "rhf"
			},
			{
				"type": "unocc",
				"energy": -0.00376,
				"method": "rhf"
			},
			{
				"type": "unocc",
				"energy": -0.00122,
				"method": "rhf"
			},
			{
				"type": "unocc",
				"energy": 0.01172,
				"method": "rhf"
			},
			{
				"type": "unocc",
				"energy": 0.04448,
				"method": "rhf"
			}
		],
		"cosmo_sigma_profile": { 
			"-0.025": 0.0,
			"-0.024": 0.0,
			"-0.023": 0.0,
			"-0.022": 0.0,
			"-0.021": 0.0,
			"-0.02": 0.151942435168,
			"-0.019": 0.859664484638,
			"-0.018": 1.38738148906,
			"-0.017": 0.611434853735,
			"-0.016": 0.331936419108,
			"-0.015": 0.609530943373,
			"-0.014": 0.888764881741,
			"-0.013": 1.32585902006,
			"-0.012": 1.17316755734,
			"-0.011": 1.83766867186,
			"-0.01": 2.22189496422,
			"-0.009": 3.23670938822,
			"-0.008": 2.526097263,
			"-0.007": 3.17704254339,
			"-0.006": 6.3136293705,
			"-0.005": 18.5056656948,
			"-0.004": 20.3305217511,
			"-0.003": 21.0538538543,
			"-0.002": 16.5166171236,
			"-0.001": 17.6652677453,
			"0.0": 13.9286917575,
			"0.001": 11.8862138724,
			"0.002": 11.209984721,
			"0.003": 13.5109348937,
			"0.004": 11.6303900924,
			"0.005": 12.192800308,
			"0.006": 10.7200401413,
			"0.007": 4.7264712972,
			"0.008": 4.23445573381,
			"0.009": 6.40674445276,
			"0.01": 8.43648678369,
			"0.011": 5.99230395569,
			"0.012": 2.23439127126,
			"0.013": 0.166662980693,
			"0.014": 0.0,
			"0.015": 0.0,
			"0.016": 0.0,
			"0.017": 0.0,
			"0.018": 0.0,
			"0.019": 0.0,
			"0.02": 0.0,
			"0.021": 0.0,
			"0.022": 0.0,
			"0.023": 0.0,
			"0.024": 0.0,
			"0.025": 0.0
		}
	}
}
