{
	 "smiles": "OC1=NN=C(O1)C1=CC=CC=C1", 
	 "Tm": 412.15, 
	 "num_atms": 18, 
	 "gaussian": { 
		 "optdone": 1, 
		 "sigma_profile": "yes", 
		 "theory": "DFT", 
		 "functional": "B3LYP", 
		 "basiset": "6-31G**", 
		 "properties": { 
			 "R2extent": 3250.5064, 
			 "electric_dipole_moment_norm": 4.96336020152, 
			 "electric_quadrupole_moment_norm": 23.3529359565, 
			 "total_energy": -568.379593254, 
			 "HOMO_LUMO_gap": 0.18359, 
			 "cosmo_polarized_energy": -16.04, 
			 "cosmo_cavitation_energy": 23.37, 
			 "cosmo_dispersion_energy": -17.62, 
			 "cosmo_repulsion_energy": 1.39, 
			 "cosmo_total_nonelectrostatic_energy": 7.14, 
			 "SMD_solvation_energy": 3.26 
		},
		"coords": [
			{
				"x": 0.8575332702,
				"y": -1.3038486974,
				"z": -5.1915564036,
				"element": "O" 
			},
			{
				"x": 0.0980105856,
				"y": -0.6665740289,
				"z": -4.3052732658,
				"element": "C" 
			},
			{
				"x": -1.0115037065,
				"y": -0.0434943673,
				"z": -4.5306024472,
				"element": "N" 
			},
			{
				"x": -1.4097193457,
				"y": 0.4491007135,
				"z": -3.2834715017,
				"element": "N" 
			},
			{
				"x": -0.5175650299,
				"y": 0.0873439278,
				"z": -2.4148106454,
				"element": "C" 
			},
			{
				"x": 0.4979906764,
				"y": -0.6447636679,
				"z": -3.0072549199,
				"element": "O" 
			},
			{
				"x": -0.4683897438,
				"y": 0.3478315029,
				"z": -0.9822086458,
				"element": "C" 
			},
			{
				"x": 0.5874906793,
				"y": -0.12817282,
				"z": -0.1898631278,
				"element": "C" 
			},
			{
				"x": 0.6057705657,
				"y": 0.1378171051,
				"z": 1.1781988314,
				"element": "C" 
			},
			{
				"x": -0.4232176003,
				"y": 0.8767883971,
				"z": 1.7647004907,
				"element": "C" 
			},
			{
				"x": -1.4759864976,
				"y": 1.3517133136,
				"z": 0.9763646798,
				"element": "C" 
			},
			{
				"x": -1.5034111121,
				"y": 1.0916090793,
				"z": -0.3899442829,
				"element": "C" 
			},
			{
				"x": 1.6278251412,
				"y": -1.6768070668,
				"z": -4.7408051954,
				"element": "H" 
			},
			{
				"x": 1.3870792631,
				"y": -0.7024746992,
				"z": -0.6457432047,
				"element": "H" 
			},
			{
				"x": 1.425457623,
				"y": -0.2330891958,
				"z": 1.7863943503,
				"element": "H" 
			},
			{
				"x": -0.4059407137,
				"y": 1.0822600817,
				"z": 2.830901812,
				"element": "H" 
			},
			{
				"x": -2.2781586421,
				"y": 1.9268771548,
				"z": 1.4291108791,
				"element": "H" 
			},
			{
				"x": -2.3137654127,
				"y": 1.4537832673,
				"z": -1.0134374031,
				"element": "H" 
			}
		],
		 "valence_orbital": [ 
			{
				"type": "occ",
				"energy": -0.32286,
				"method": "rhf"
			},
			{
				"type": "occ",
				"energy": -0.2936,
				"method": "rhf"
			},
			{
				"type": "occ",
				"energy": -0.27685,
				"method": "rhf"
			},
			{
				"type": "occ",
				"energy": -0.26445,
				"method": "rhf"
			},
			{
				"type": "occ",
				"energy": -0.23277,
				"method": "rhf"
			},
			{
				"type": "unocc",
				"energy": -0.04918,
				"method": "rhf"
			},
			{
				"type": "unocc",
				"energy": -0.0136,
				"method": "rhf"
			},
			{
				"type": "unocc",
				"energy": 0.03267,
				"method": "rhf"
			},
			{
				"type": "unocc",
				"energy": 0.04076,
				"method": "rhf"
			},
			{
				"type": "unocc",
				"energy": 0.0611,
				"method": "rhf"
			}
		],
		"cosmo_sigma_profile": { 
			"-0.025": 0.0,
			"-0.024": 0.0,
			"-0.023": 0.0,
			"-0.022": 0.0,
			"-0.021": 0.623220443938,
			"-0.02": 1.39673234412,
			"-0.019": 0.888905869077,
			"-0.018": 0.656242432587,
			"-0.017": 0.86749359572,
			"-0.016": 0.896487791207,
			"-0.015": 1.35987939821,
			"-0.014": 0.648972159786,
			"-0.013": 0.694512258816,
			"-0.012": 0.75822503747,
			"-0.011": 0.706110031837,
			"-0.01": 0.941974215481,
			"-0.009": 0.58898381874,
			"-0.008": 1.17950525248,
			"-0.007": 2.94355663796,
			"-0.006": 11.1551366667,
			"-0.005": 14.595418074,
			"-0.004": 13.1163321814,
			"-0.003": 11.2993548013,
			"-0.002": 11.7689139142,
			"-0.001": 11.2376391464,
			"0.0": 11.1266164668,
			"0.001": 13.3594131449,
			"0.002": 13.1855635817,
			"0.003": 13.8653134345,
			"0.004": 13.629137564,
			"0.005": 4.84187929935,
			"0.006": 4.00431695302,
			"0.007": 4.29314395726,
			"0.008": 3.51553169071,
			"0.009": 2.83737211968,
			"0.01": 2.53913541382,
			"0.011": 3.30842063595,
			"0.012": 3.90352871129,
			"0.013": 2.3137595351,
			"0.014": 2.48815041696,
			"0.015": 0.998605194334,
			"0.016": 0.0775996732691,
			"0.017": 0.0,
			"0.018": 0.0,
			"0.019": 0.0,
			"0.02": 0.0,
			"0.021": 0.0,
			"0.022": 0.0,
			"0.023": 0.0,
			"0.024": 0.0,
			"0.025": 0.0
		}
	}
}
