{
	 "smiles": "NNC1=NN=C(C=C1)C(F)(F)F", 
	 "Tm": 406.15, 
	 "num_atms": 17, 
	 "gaussian": { 
		 "optdone": 1, 
		 "sigma_profile": "yes", 
		 "theory": "DFT", 
		 "functional": "B3LYP", 
		 "basiset": "6-31G**", 
		 "properties": { 
			 "R2extent": 2486.9165, 
			 "electric_dipole_moment_norm": 4.59241053696, 
			 "electric_quadrupole_moment_norm": 1.91202358249, 
			 "total_energy": -712.002380073, 
			 "HOMO_LUMO_gap": 0.18033, 
			 "cosmo_polarized_energy": -14.47, 
			 "cosmo_cavitation_energy": 23.42, 
			 "cosmo_dispersion_energy": -17.03, 
			 "cosmo_repulsion_energy": 1.32, 
			 "cosmo_total_nonelectrostatic_energy": 7.7, 
			 "SMD_solvation_energy": 4.19 
		},
		"coords": [
			{
				"x": 0.2132562432,
				"y": 4.0959100002,
				"z": -2.0890286967,
				"element": "N" 
			},
			{
				"x": -0.2630369785,
				"y": 2.7927683197,
				"z": -2.3325729202,
				"element": "N" 
			},
			{
				"x": -0.2118069097,
				"y": 1.8025944171,
				"z": -1.3870900172,
				"element": "C" 
			},
			{
				"x": 0.1273501207,
				"y": 2.181501661,
				"z": -0.1380538781,
				"element": "N" 
			},
			{
				"x": 0.1668192202,
				"y": 1.2784138369,
				"z": 0.8333523603,
				"element": "N" 
			},
			{
				"x": -0.1222282507,
				"y": 0.0070546833,
				"z": 0.5785913586,
				"element": "C" 
			},
			{
				"x": -0.4733016613,
				"y": -0.4603787689,
				"z": -0.7001105019,
				"element": "C" 
			},
			{
				"x": -0.5185415226,
				"y": 0.4611793523,
				"z": -1.7179213729,
				"element": "C" 
			},
			{
				"x": -0.0401691683,
				"y": -0.9171690125,
				"z": 1.771734319,
				"element": "C" 
			},
			{
				"x": -0.3432713112,
				"y": -2.1889535082,
				"z": 1.4121477152,
				"element": "F" 
			},
			{
				"x": -0.8987449573,
				"y": -0.5570460011,
				"z": 2.7434325666,
				"element": "F" 
			},
			{
				"x": 1.1937126616,
				"y": -0.9327393764,
				"z": 2.3087745425,
				"element": "F" 
			},
			{
				"x": -0.4779516909,
				"y": 4.5700026678,
				"z": -1.5093068802,
				"element": "H" 
			},
			{
				"x": 1.0472583287,
				"y": 4.0240349297,
				"z": -1.5045376983,
				"element": "H" 
			},
			{
				"x": -0.2414022532,
				"y": 2.525317041,
				"z": -3.3054152706,
				"element": "H" 
			},
			{
				"x": -0.6954033937,
				"y": -1.5079534578,
				"z": -0.8650753562,
				"element": "H" 
			},
			{
				"x": -0.7818384772,
				"y": 0.182763216,
				"z": -2.7342202699,
				"element": "H" 
			}
		],
		 "valence_orbital": [ 
			{
				"type": "occ",
				"energy": -0.33322,
				"method": "rhf"
			},
			{
				"type": "occ",
				"energy": -0.31916,
				"method": "rhf"
			},
			{
				"type": "occ",
				"energy": -0.28761,
				"method": "rhf"
			},
			{
				"type": "occ",
				"energy": -0.24388,
				"method": "rhf"
			},
			{
				"type": "occ",
				"energy": -0.24171,
				"method": "rhf"
			},
			{
				"type": "unocc",
				"energy": -0.06138,
				"method": "rhf"
			},
			{
				"type": "unocc",
				"energy": -0.0294,
				"method": "rhf"
			},
			{
				"type": "unocc",
				"energy": 0.0707,
				"method": "rhf"
			},
			{
				"type": "unocc",
				"energy": 0.08373,
				"method": "rhf"
			},
			{
				"type": "unocc",
				"energy": 0.09796,
				"method": "rhf"
			}
		],
		"cosmo_sigma_profile": { 
			"-0.025": 0.0,
			"-0.024": 0.0,
			"-0.023": 0.0,
			"-0.022": 0.0,
			"-0.021": 0.0,
			"-0.02": 0.0,
			"-0.019": 0.0,
			"-0.018": 0.0,
			"-0.017": 0.0,
			"-0.016": 0.0151766222837,
			"-0.015": 0.862346117708,
			"-0.014": 1.57673229235,
			"-0.013": 1.73767431611,
			"-0.012": 1.56824864734,
			"-0.011": 2.1990744374,
			"-0.01": 3.96146754053,
			"-0.009": 6.55841284193,
			"-0.008": 5.0041036331,
			"-0.007": 6.27673945218,
			"-0.006": 5.80292344825,
			"-0.005": 6.13453262748,
			"-0.004": 8.26956427078,
			"-0.003": 8.5439888064,
			"-0.002": 11.1662564684,
			"-0.001": 12.4027180519,
			"0.0": 11.045448866,
			"0.001": 10.4260316235,
			"0.002": 21.3207438748,
			"0.003": 26.4934953785,
			"0.004": 5.61789633903,
			"0.005": 4.28090019726,
			"0.006": 3.68407149201,
			"0.007": 3.08345412599,
			"0.008": 2.8089927462,
			"0.009": 2.17227624498,
			"0.01": 2.52091405705,
			"0.011": 2.21766064746,
			"0.012": 2.26050360427,
			"0.013": 3.61907508462,
			"0.014": 2.32496488253,
			"0.015": 0.634055427731,
			"0.016": 0.556711617628,
			"0.017": 0.133519949208,
			"0.018": 0.0,
			"0.019": 0.0,
			"0.02": 0.0,
			"0.021": 0.0,
			"0.022": 0.0,
			"0.023": 0.0,
			"0.024": 0.0,
			"0.025": 0.0
		}
	}
}
