{
	 "smiles": "CNC1=CC(=NC=C1)C(N)=O", 
	 "Tm": 431.15, 
	 "num_atms": 20, 
	 "gaussian": { 
		 "optdone": 1, 
		 "sigma_profile": "yes", 
		 "theory": "DFT", 
		 "functional": "B3LYP", 
		 "basiset": "6-31G**", 
		 "properties": { 
			 "R2extent": 2587.4144, 
			 "electric_dipole_moment_norm": 4.02801169065, 
			 "electric_quadrupole_moment_norm": 15.875067409, 
			 "total_energy": -511.671991743, 
			 "HOMO_LUMO_gap": 0.18763, 
			 "cosmo_polarized_energy": -15.52, 
			 "cosmo_cavitation_energy": 24.09, 
			 "cosmo_dispersion_energy": -18.03, 
			 "cosmo_repulsion_energy": 1.47, 
			 "cosmo_total_nonelectrostatic_energy": 7.52, 
			 "SMD_solvation_energy": 3.57 
		},
		"coords": [
			{
				"x": 2.8008739878,
				"y": 1.7871352829,
				"z": -0.1372792667,
				"element": "C" 
			},
			{
				"x": 2.9686268958,
				"y": 0.5794419494,
				"z": 0.6477745144,
				"element": "N" 
			},
			{
				"x": 2.1948348778,
				"y": -0.5400997452,
				"z": 0.4869178097,
				"element": "C" 
			},
			{
				"x": 1.0507104446,
				"y": -0.5555380585,
				"z": -0.3334539011,
				"element": "C" 
			},
			{
				"x": 0.3048013021,
				"y": -1.7253368771,
				"z": -0.421400453,
				"element": "C" 
			},
			{
				"x": 0.5958980423,
				"y": -2.8680695992,
				"z": 0.2229658255,
				"element": "N" 
			},
			{
				"x": 1.6890546877,
				"y": -2.8471583308,
				"z": 0.9989496686,
				"element": "C" 
			},
			{
				"x": 2.5070418712,
				"y": -1.738907434,
				"z": 1.1650702417,
				"element": "C" 
			},
			{
				"x": -0.9223476844,
				"y": -1.7207293305,
				"z": -1.3087712214,
				"element": "C" 
			},
			{
				"x": -1.5816559928,
				"y": -2.9058107537,
				"z": -1.3296946705,
				"element": "N" 
			},
			{
				"x": -1.2653301179,
				"y": -0.7245301819,
				"z": -1.9388503263,
				"element": "O" 
			},
			{
				"x": 2.9238876293,
				"y": 1.6132547156,
				"z": -1.2156422217,
				"element": "H" 
			},
			{
				"x": 1.8101452734,
				"y": 2.2255683618,
				"z": 0.0254572041,
				"element": "H" 
			},
			{
				"x": 3.5460843845,
				"y": 2.5183238763,
				"z": 0.1819201956,
				"element": "H" 
			},
			{
				"x": 3.8537757375,
				"y": 0.4516879572,
				"z": 1.1121999827,
				"element": "H" 
			},
			{
				"x": 0.7213481781,
				"y": 0.3038751181,
				"z": -0.9032747408,
				"element": "H" 
			},
			{
				"x": 1.9263662342,
				"y": -3.7732236945,
				"z": 1.519810259,
				"element": "H" 
			},
			{
				"x": 3.3769268324,
				"y": -1.7955026971,
				"z": 1.8139870055,
				"element": "H" 
			},
			{
				"x": -1.2221366541,
				"y": -3.6701071827,
				"z": -0.7761652736,
				"element": "H" 
			},
			{
				"x": -2.4117059297,
				"y": -2.9960733764,
				"z": -1.8921206316,
				"element": "H" 
			}
		],
		 "valence_orbital": [ 
			{
				"type": "occ",
				"energy": -0.26834,
				"method": "rhf"
			},
			{
				"type": "occ",
				"energy": -0.25773,
				"method": "rhf"
			},
			{
				"type": "occ",
				"energy": -0.25152,
				"method": "rhf"
			},
			{
				"type": "occ",
				"energy": -0.23454,
				"method": "rhf"
			},
			{
				"type": "occ",
				"energy": -0.21923,
				"method": "rhf"
			},
			{
				"type": "unocc",
				"energy": -0.0316,
				"method": "rhf"
			},
			{
				"type": "unocc",
				"energy": -0.00166,
				"method": "rhf"
			},
			{
				"type": "unocc",
				"energy": 0.06892,
				"method": "rhf"
			},
			{
				"type": "unocc",
				"energy": 0.08066,
				"method": "rhf"
			},
			{
				"type": "unocc",
				"energy": 0.1032,
				"method": "rhf"
			}
		],
		"cosmo_sigma_profile": { 
			"-0.025": 0.0,
			"-0.024": 0.0,
			"-0.023": 0.0,
			"-0.022": 0.0,
			"-0.021": 0.0,
			"-0.02": 0.0,
			"-0.019": 0.0,
			"-0.018": 0.0,
			"-0.017": 0.0,
			"-0.016": 0.0,
			"-0.015": 0.0162268678474,
			"-0.014": 1.44468962581,
			"-0.013": 3.03772256006,
			"-0.012": 2.67327777567,
			"-0.011": 2.58566665356,
			"-0.01": 2.78611961543,
			"-0.009": 3.94172052449,
			"-0.008": 4.05146230397,
			"-0.007": 4.60963674308,
			"-0.006": 7.70347595213,
			"-0.005": 10.9879094056,
			"-0.004": 13.3607646344,
			"-0.003": 13.1009278601,
			"-0.002": 12.1969688209,
			"-0.001": 10.2897247264,
			"0.0": 7.8596652738,
			"0.001": 10.5469075241,
			"0.002": 13.0685300348,
			"0.003": 20.8047101123,
			"0.004": 10.2603807024,
			"0.005": 6.0299206122,
			"0.006": 4.14534283603,
			"0.007": 2.97935016758,
			"0.008": 3.49032580174,
			"0.009": 3.33910952868,
			"0.01": 2.56987260107,
			"0.011": 1.60243244797,
			"0.012": 1.39979857461,
			"0.013": 3.85723552688,
			"0.014": 5.17888173136,
			"0.015": 1.1787644726,
			"0.016": 0.00289356452601,
			"0.017": 0.0,
			"0.018": 0.0,
			"0.019": 0.0,
			"0.02": 0.0,
			"0.021": 0.0,
			"0.022": 0.0,
			"0.023": 0.0,
			"0.024": 0.0,
			"0.025": 0.0
		}
	}
}
