{
	 "smiles": "NC1=CC=C(C=C/C2=CC=C(N)C=C2)C=C1", 
	 "Tm": 394.15, 
	 "num_atms": 30, 
	 "gaussian": { 
		 "optdone": 1, 
		 "sigma_profile": "yes", 
		 "theory": "DFT", 
		 "functional": "B3LYP", 
		 "basiset": "6-31G**", 
		 "properties": { 
			 "R2extent": 5241.1219, 
			 "electric_dipole_moment_norm": 3.2162156442, 
			 "electric_quadrupole_moment_norm": 23.8382455074, 
			 "total_energy": -651.424786239, 
			 "HOMO_LUMO_gap": 0.14889, 
			 "cosmo_polarized_energy": -15.31, 
			 "cosmo_cavitation_energy": 33.7, 
			 "cosmo_dispersion_energy": -24.3, 
			 "cosmo_repulsion_energy": 1.9, 
			 "cosmo_total_nonelectrostatic_energy": 11.3, 
			 "SMD_solvation_energy": 5.39 
		},
		"coords": [
			{
				"x": -3.6824926394,
				"y": -2.5141075179,
				"z": 1.2486990679,
				"element": "N" 
			},
			{
				"x": -2.9739161599,
				"y": -1.6788247771,
				"z": 0.3830070315,
				"element": "C" 
			},
			{
				"x": -1.602208993,
				"y": -1.4343806628,
				"z": 0.5783877796,
				"element": "C" 
			},
			{
				"x": -0.8841572365,
				"y": -0.6453955153,
				"z": -0.3110267904,
				"element": "C" 
			},
			{
				"x": -1.495160902,
				"y": -0.0577497059,
				"z": -1.4357024114,
				"element": "C" 
			},
			{
				"x": -0.772469334,
				"y": 0.737693232,
				"z": -2.440556014,
				"element": "C" 
			},
			{
				"x": 0.3195004909,
				"y": 1.5300449593,
				"z": -2.3473274821,
				"element": "C" 
			},
			{
				"x": 1.0899010149,
				"y": 2.0052622286,
				"z": -1.1874139197,
				"element": "C" 
			},
			{
				"x": 2.4468230066,
				"y": 2.3386417027,
				"z": -1.3562732508,
				"element": "C" 
			},
			{
				"x": 3.2203585846,
				"y": 2.8342171689,
				"z": -0.3128834251,
				"element": "C" 
			},
			{
				"x": 2.6559398854,
				"y": 3.0408192265,
				"z": 0.9568142306,
				"element": "C" 
			},
			{
				"x": 3.4063783101,
				"y": 3.5946900714,
				"z": 1.9956885588,
				"element": "N" 
			},
			{
				"x": 1.2928791168,
				"y": 2.739726929,
				"z": 1.1326245522,
				"element": "C" 
			},
			{
				"x": 0.5321726302,
				"y": 2.2369408822,
				"z": 0.0849242496,
				"element": "C" 
			},
			{
				"x": -2.8606689973,
				"y": -0.3350966718,
				"z": -1.6340984018,
				"element": "C" 
			},
			{
				"x": -3.591660964,
				"y": -1.1159914353,
				"z": -0.7461455673,
				"element": "C" 
			},
			{
				"x": -4.68284509,
				"y": -2.3701031705,
				"z": 1.2618227252,
				"element": "H" 
			},
			{
				"x": -3.3005952663,
				"y": -2.5894358631,
				"z": 2.1814437768,
				"element": "H" 
			},
			{
				"x": -1.0964933389,
				"y": -1.8832430656,
				"z": 1.4304230909,
				"element": "H" 
			},
			{
				"x": 0.1752020954,
				"y": -0.4893789985,
				"z": -0.1387176992,
				"element": "H" 
			},
			{
				"x": -1.1920798545,
				"y": 0.6471576145,
				"z": -3.4428035006,
				"element": "H" 
			},
			{
				"x": 0.6960650998,
				"y": 1.9095640696,
				"z": -3.2975562225,
				"element": "H" 
			},
			{
				"x": 2.9072940553,
				"y": 2.1959601365,
				"z": -2.3310901289,
				"element": "H" 
			},
			{
				"x": 4.2675293128,
				"y": 3.0754224176,
				"z": -0.4804321826,
				"element": "H" 
			},
			{
				"x": 4.4055581306,
				"y": 3.4607568386,
				"z": 1.9227806905,
				"element": "H" 
			},
			{
				"x": 3.0663326151,
				"y": 3.3934469766,
				"z": 2.9259590596,
				"element": "H" 
			},
			{
				"x": 0.8275504409,
				"y": 2.9184569083,
				"z": 2.0994312643,
				"element": "H" 
			},
			{
				"x": -0.5193881974,
				"y": 2.0296484314,
				"z": 0.2507511742,
				"element": "H" 
			},
			{
				"x": -3.3621741104,
				"y": 0.0816917382,
				"z": -2.5044066169,
				"element": "H" 
			},
			{
				"x": -4.646973706,
				"y": -1.3038341479,
				"z": -0.9301236382,
				"element": "H" 
			}
		],
		 "valence_orbital": [ 
			{
				"type": "occ",
				"energy": -0.25469,
				"method": "rhf"
			},
			{
				"type": "occ",
				"energy": -0.2434,
				"method": "rhf"
			},
			{
				"type": "occ",
				"energy": -0.238,
				"method": "rhf"
			},
			{
				"type": "occ",
				"energy": -0.20523,
				"method": "rhf"
			},
			{
				"type": "occ",
				"energy": -0.17191,
				"method": "rhf"
			},
			{
				"type": "unocc",
				"energy": -0.02302,
				"method": "rhf"
			},
			{
				"type": "unocc",
				"energy": 0.00426,
				"method": "rhf"
			},
			{
				"type": "unocc",
				"energy": 0.01471,
				"method": "rhf"
			},
			{
				"type": "unocc",
				"energy": 0.0342,
				"method": "rhf"
			},
			{
				"type": "unocc",
				"energy": 0.07625,
				"method": "rhf"
			}
		],
		"cosmo_sigma_profile": { 
			"-0.025": 0.0,
			"-0.024": 0.0,
			"-0.023": 0.0,
			"-0.022": 0.0,
			"-0.021": 0.0,
			"-0.02": 0.0,
			"-0.019": 0.0,
			"-0.018": 0.0,
			"-0.017": 0.0,
			"-0.016": 0.0,
			"-0.015": 0.0,
			"-0.014": 0.0,
			"-0.013": 0.570157476482,
			"-0.012": 4.76844685159,
			"-0.011": 5.38349407264,
			"-0.01": 5.83355853199,
			"-0.009": 5.86817576352,
			"-0.008": 6.46512099424,
			"-0.007": 6.08403115357,
			"-0.006": 8.14732292311,
			"-0.005": 12.7965624345,
			"-0.004": 18.8836872637,
			"-0.003": 20.7192643991,
			"-0.002": 15.2571149099,
			"-0.001": 13.0352412661,
			"0.0": 14.2445006305,
			"0.001": 13.199950835,
			"0.002": 14.0732686965,
			"0.003": 15.1908278145,
			"0.004": 16.8399891121,
			"0.005": 21.9253459886,
			"0.006": 23.981996481,
			"0.007": 13.6605526412,
			"0.008": 1.87661018407,
			"0.009": 1.76502563774,
			"0.01": 1.04875615214,
			"0.011": 1.38058555554,
			"0.012": 1.55627156474,
			"0.013": 1.40389073795,
			"0.014": 1.28239346466,
			"0.015": 0.20442608317,
			"0.016": 0.0,
			"0.017": 0.0,
			"0.018": 0.0,
			"0.019": 0.0,
			"0.02": 0.0,
			"0.021": 0.0,
			"0.022": 0.0,
			"0.023": 0.0,
			"0.024": 0.0,
			"0.025": 0.0
		}
	}
}
