{
	 "smiles": "OC(=O)C1=CSC(=N1)C1=C(Cl)C=C(Cl)C=C1", 
	 "Tm": 478.15, 
	 "num_atms": 21, 
	 "gaussian": { 
		 "optdone": 1, 
		 "sigma_profile": "yes", 
		 "theory": "DFT", 
		 "functional": "B3LYP", 
		 "basiset": "6-31G**", 
		 "properties": { 
			 "R2extent": 6742.4824, 
			 "electric_dipole_moment_norm": 5.35610202013, 
			 "electric_quadrupole_moment_norm": 20.3323129083, 
			 "total_energy": -1907.85251023, 
			 "HOMO_LUMO_gap": 0.1741, 
			 "cosmo_polarized_energy": -13.27, 
			 "cosmo_cavitation_energy": 32.06, 
			 "cosmo_dispersion_energy": -23.86, 
			 "cosmo_repulsion_energy": 1.81, 
			 "cosmo_total_nonelectrostatic_energy": 10.01, 
			 "SMD_solvation_energy": 5.34 
		},
		"coords": [
			{
				"x": 2.4780470801,
				"y": 2.9408238448,
				"z": -0.0628553577,
				"element": "O" 
			},
			{
				"x": 2.7546572855,
				"y": 1.9994689023,
				"z": 0.8601374716,
				"element": "C" 
			},
			{
				"x": 3.8209038811,
				"y": 1.9284310346,
				"z": 1.425832981,
				"element": "O" 
			},
			{
				"x": 1.6256313622,
				"y": 1.0566023627,
				"z": 1.116692151,
				"element": "C" 
			},
			{
				"x": 1.6628792653,
				"y": 0.0132960688,
				"z": 2.0013996985,
				"element": "C" 
			},
			{
				"x": 0.1563382797,
				"y": -0.81834027,
				"z": 1.9829796163,
				"element": "S" 
			},
			{
				"x": -0.4427024827,
				"y": 0.328395847,
				"z": 0.7707871479,
				"element": "C" 
			},
			{
				"x": 0.4441961629,
				"y": 1.2231655076,
				"z": 0.4341817712,
				"element": "N" 
			},
			{
				"x": -1.8187200673,
				"y": 0.2272345125,
				"z": 0.2577241872,
				"element": "C" 
			},
			{
				"x": -2.1659206315,
				"y": 0.4336918193,
				"z": -1.0938216637,
				"element": "C" 
			},
			{
				"x": -0.9670640135,
				"y": 0.7804921288,
				"z": -2.3191074681,
				"element": "Cl" 
			},
			{
				"x": -3.4890399722,
				"y": 0.3288980799,
				"z": -1.5235880416,
				"element": "C" 
			},
			{
				"x": -4.4858179307,
				"y": 0.0101862525,
				"z": -0.6042339695,
				"element": "C" 
			},
			{
				"x": -6.1427265305,
				"y": -0.1165150996,
				"z": -1.1512481321,
				"element": "Cl" 
			},
			{
				"x": -4.1809005426,
				"y": -0.2095662389,
				"z": 0.7382940459,
				"element": "C" 
			},
			{
				"x": -2.8582035293,
				"y": -0.0971843783,
				"z": 1.149075197,
				"element": "C" 
			},
			{
				"x": 1.5657570459,
				"y": 2.7947733022,
				"z": -0.3762451589,
				"element": "H" 
			},
			{
				"x": 2.4898072423,
				"y": -0.2829046028,
				"z": 2.6302041493,
				"element": "H" 
			},
			{
				"x": -3.7316156271,
				"y": 0.4862925382,
				"z": -2.5671301522,
				"element": "H" 
			},
			{
				"x": -4.9635772159,
				"y": -0.4521897833,
				"z": 1.4473487888,
				"element": "H" 
			},
			{
				"x": -2.6199290619,
				"y": -0.2405518282,
				"z": 2.1982727382,
				"element": "H" 
			}
		],
		 "valence_orbital": [ 
			{
				"type": "occ",
				"energy": -0.30686,
				"method": "rhf"
			},
			{
				"type": "occ",
				"energy": -0.2939,
				"method": "rhf"
			},
			{
				"type": "occ",
				"energy": -0.27984,
				"method": "rhf"
			},
			{
				"type": "occ",
				"energy": -0.27482,
				"method": "rhf"
			},
			{
				"type": "occ",
				"energy": -0.25506,
				"method": "rhf"
			},
			{
				"type": "unocc",
				"energy": -0.08096,
				"method": "rhf"
			},
			{
				"type": "unocc",
				"energy": -0.04776,
				"method": "rhf"
			},
			{
				"type": "unocc",
				"energy": -0.0474,
				"method": "rhf"
			},
			{
				"type": "unocc",
				"energy": -0.01128,
				"method": "rhf"
			},
			{
				"type": "unocc",
				"energy": -0.00689,
				"method": "rhf"
			}
		],
		"cosmo_sigma_profile": { 
			"-0.025": 0.0,
			"-0.024": 0.0,
			"-0.023": 0.0,
			"-0.022": 0.0,
			"-0.021": 0.0,
			"-0.02": 0.0,
			"-0.019": 0.0,
			"-0.018": 0.0,
			"-0.017": 0.0,
			"-0.016": 0.0,
			"-0.015": 0.0,
			"-0.014": 0.228181520811,
			"-0.013": 0.375257073183,
			"-0.012": 0.147367280155,
			"-0.011": 1.55457837768,
			"-0.01": 2.8977966579,
			"-0.009": 3.48852113432,
			"-0.008": 8.32690928824,
			"-0.007": 7.54034402656,
			"-0.006": 8.81310499618,
			"-0.005": 10.0752916736,
			"-0.004": 11.6970367028,
			"-0.003": 16.1624766404,
			"-0.002": 20.2222483011,
			"-0.001": 27.2336038267,
			"0.0": 37.9925672233,
			"0.001": 25.5112293858,
			"0.002": 15.7946256468,
			"0.003": 18.2434027563,
			"0.004": 17.6230862506,
			"0.005": 4.05172475347,
			"0.006": 3.3294359729,
			"0.007": 2.06298085843,
			"0.008": 3.260732862,
			"0.009": 3.73103006892,
			"0.01": 4.99013703853,
			"0.011": 4.77835869082,
			"0.012": 4.3541222216,
			"0.013": 1.42087532589,
			"0.014": 0.00268450298751,
			"0.015": 0.0,
			"0.016": 0.0,
			"0.017": 0.0,
			"0.018": 0.0,
			"0.019": 0.0,
			"0.02": 0.0,
			"0.021": 0.0,
			"0.022": 0.0,
			"0.023": 0.0,
			"0.024": 0.0,
			"0.025": 0.0
		}
	}
}
