{
	 "smiles": "CCN1N=C(C)C(C(O)=O)=C1Cl", 
	 "Tm": 403.15, 
	 "num_atms": 21, 
	 "gaussian": { 
		 "optdone": 1, 
		 "sigma_profile": "yes", 
		 "theory": "DFT", 
		 "functional": "B3LYP", 
		 "basiset": "6-31G**", 
		 "properties": { 
			 "R2extent": 3587.8806, 
			 "electric_dipole_moment_norm": 5.67537712139, 
			 "electric_quadrupole_moment_norm": 22.1369682988, 
			 "total_energy": -992.309122275, 
			 "HOMO_LUMO_gap": 0.22779, 
			 "cosmo_polarized_energy": -13.5, 
			 "cosmo_cavitation_energy": 26.52, 
			 "cosmo_dispersion_energy": -19.63, 
			 "cosmo_repulsion_energy": 1.58, 
			 "cosmo_total_nonelectrostatic_energy": 8.47, 
			 "SMD_solvation_energy": 4.49 
		},
		"coords": [
			{
				"x": -0.2033416776,
				"y": 0.1920417379,
				"z": 2.407302362,
				"element": "C" 
			},
			{
				"x": -1.2874255675,
				"y": -0.4327325874,
				"z": 1.5385186974,
				"element": "C" 
			},
			{
				"x": -0.9363301109,
				"y": -0.4202856665,
				"z": 0.1114431071,
				"element": "N" 
			},
			{
				"x": 0.2393651658,
				"y": 0.1031727992,
				"z": -0.3279531694,
				"element": "N" 
			},
			{
				"x": 0.2394261522,
				"y": -0.0435473698,
				"z": -1.6498456998,
				"element": "C" 
			},
			{
				"x": 1.4018684666,
				"y": 0.432196989,
				"z": -2.4611002254,
				"element": "C" 
			},
			{
				"x": -0.9585246376,
				"y": -0.6767922807,
				"z": -2.1015217528,
				"element": "C" 
			},
			{
				"x": -1.2702321745,
				"y": -0.9852263771,
				"z": -3.5125896634,
				"element": "C" 
			},
			{
				"x": -2.452147335,
				"y": -1.5914980775,
				"z": -3.7893050175,
				"element": "O" 
			},
			{
				"x": -0.509811297,
				"y": -0.715251821,
				"z": -4.4166607725,
				"element": "O" 
			},
			{
				"x": -1.6668183503,
				"y": -0.8904703187,
				"z": -0.9208520741,
				"element": "C" 
			},
			{
				"x": -3.2202958407,
				"y": -1.6171632554,
				"z": -0.6552757792,
				"element": "Cl" 
			},
			{
				"x": -0.5287850627,
				"y": 0.1495075636,
				"z": 3.45079381,
				"element": "H" 
			},
			{
				"x": -0.0276427496,
				"y": 1.2343201933,
				"z": 2.1351255696,
				"element": "H" 
			},
			{
				"x": 0.7418903183,
				"y": -0.3450780695,
				"z": 2.3107369937,
				"element": "H" 
			},
			{
				"x": -1.4654322799,
				"y": -1.4728252284,
				"z": 1.8332757288,
				"element": "H" 
			},
			{
				"x": -2.2343106124,
				"y": 0.1053387554,
				"z": 1.6578663006,
				"element": "H" 
			},
			{
				"x": 1.8489495288,
				"y": -0.3909145791,
				"z": -3.0250203748,
				"element": "H" 
			},
			{
				"x": 1.086787529,
				"y": 1.1751449696,
				"z": -3.1987687638,
				"element": "H" 
			},
			{
				"x": 2.1498030975,
				"y": 0.8699576141,
				"z": -1.7963451849,
				"element": "H" 
			},
			{
				"x": -2.9678925625,
				"y": -1.753394991,
				"z": -2.9852240916,
				"element": "H" 
			}
		],
		 "valence_orbital": [ 
			{
				"type": "occ",
				"energy": -0.31031,
				"method": "rhf"
			},
			{
				"type": "occ",
				"energy": -0.30337,
				"method": "rhf"
			},
			{
				"type": "occ",
				"energy": -0.26958,
				"method": "rhf"
			},
			{
				"type": "occ",
				"energy": -0.2647,
				"method": "rhf"
			},
			{
				"type": "occ",
				"energy": -0.25969,
				"method": "rhf"
			},
			{
				"type": "unocc",
				"energy": -0.0319,
				"method": "rhf"
			},
			{
				"type": "unocc",
				"energy": 8e-05,
				"method": "rhf"
			},
			{
				"type": "unocc",
				"energy": 0.0115,
				"method": "rhf"
			},
			{
				"type": "unocc",
				"energy": 0.08108,
				"method": "rhf"
			},
			{
				"type": "unocc",
				"energy": 0.08888,
				"method": "rhf"
			}
		],
		"cosmo_sigma_profile": { 
			"-0.025": 0.0,
			"-0.024": 0.0,
			"-0.023": 0.0,
			"-0.022": 0.0,
			"-0.021": 0.0,
			"-0.02": 0.0,
			"-0.019": 0.0,
			"-0.018": 0.0,
			"-0.017": 0.0,
			"-0.016": 0.0,
			"-0.015": 0.0,
			"-0.014": 0.0,
			"-0.013": 0.237676471761,
			"-0.012": 0.609622631383,
			"-0.011": 0.920103517306,
			"-0.01": 2.54985877492,
			"-0.009": 1.6638690889,
			"-0.008": 2.04947677787,
			"-0.007": 3.67016369493,
			"-0.006": 8.8315148238,
			"-0.005": 12.2595692704,
			"-0.004": 20.9293785063,
			"-0.003": 20.8386739876,
			"-0.002": 19.2621336282,
			"-0.001": 23.3244464497,
			"0.0": 23.8275728001,
			"0.001": 14.0445550663,
			"0.002": 8.70748817668,
			"0.003": 4.59853080893,
			"0.004": 3.98907855012,
			"0.005": 4.55579412464,
			"0.006": 3.91508749581,
			"0.007": 3.83571374199,
			"0.008": 4.10601876927,
			"0.009": 4.52658196008,
			"0.01": 5.50001147443,
			"0.011": 5.50032152308,
			"0.012": 4.91583173915,
			"0.013": 2.72881895416,
			"0.014": 0.517293720111,
			"0.015": 0.0,
			"0.016": 0.0,
			"0.017": 0.0,
			"0.018": 0.0,
			"0.019": 0.0,
			"0.02": 0.0,
			"0.021": 0.0,
			"0.022": 0.0,
			"0.023": 0.0,
			"0.024": 0.0,
			"0.025": 0.0
		}
	}
}
