{
	 "smiles": "NC1=CN=C(C=C1)N1C=CC=N1", 
	 "Tm": 371.15, 
	 "num_atms": 20, 
	 "gaussian": { 
		 "optdone": 1, 
		 "sigma_profile": "yes", 
		 "theory": "DFT", 
		 "functional": "B3LYP", 
		 "basiset": "6-31G**", 
		 "properties": { 
			 "R2extent": 2412.0073, 
			 "electric_dipole_moment_norm": 3.36305008883, 
			 "electric_quadrupole_moment_norm": 18.0327927568, 
			 "total_energy": -528.656383551, 
			 "HOMO_LUMO_gap": 0.17586, 
			 "cosmo_polarized_energy": -12.44, 
			 "cosmo_cavitation_energy": 24.5, 
			 "cosmo_dispersion_energy": -18.49, 
			 "cosmo_repulsion_energy": 1.45, 
			 "cosmo_total_nonelectrostatic_energy": 7.46, 
			 "SMD_solvation_energy": 3.09 
		},
		"coords": [
			{
				"x": -0.3297332375,
				"y": 2.9647910885,
				"z": -3.4746034655,
				"element": "N" 
			},
			{
				"x": -0.1514782911,
				"y": 2.0487354203,
				"z": -2.4388437682,
				"element": "C" 
			},
			{
				"x": -1.0765714651,
				"y": 1.9457065018,
				"z": -1.3871055185,
				"element": "C" 
			},
			{
				"x": -0.9283931,
				"y": 1.1279360744,
				"z": -0.3437225816,
				"element": "N" 
			},
			{
				"x": 0.1591189229,
				"y": 0.3632131171,
				"z": -0.2944814383,
				"element": "C" 
			},
			{
				"x": 1.1522790513,
				"y": 0.3733799968,
				"z": -1.280489909,
				"element": "C" 
			},
			{
				"x": 0.9873906338,
				"y": 1.2284226736,
				"z": -2.3600607877,
				"element": "C" 
			},
			{
				"x": 0.2704339549,
				"y": -0.4899800524,
				"z": 0.8317369657,
				"element": "N" 
			},
			{
				"x": -0.6101547312,
				"y": -0.602582597,
				"z": 1.8706207054,
				"element": "C" 
			},
			{
				"x": -0.0889417084,
				"y": -1.5491344519,
				"z": 2.7259893232,
				"element": "C" 
			},
			{
				"x": 1.1207225343,
				"y": -1.9562745029,
				"z": 2.1136372121,
				"element": "C" 
			},
			{
				"x": 1.3390336209,
				"y": -1.3169473469,
				"z": 0.9688827998,
				"element": "N" 
			},
			{
				"x": -1.284284413,
				"y": 3.2611318582,
				"z": -3.6265228627,
				"element": "H" 
			},
			{
				"x": 0.1327394344,
				"y": 2.7305423769,
				"z": -4.3422905232,
				"element": "H" 
			},
			{
				"x": -1.9776555253,
				"y": 2.5586694663,
				"z": -1.3947279056,
				"element": "H" 
			},
			{
				"x": 2.0134682393,
				"y": -0.2749418583,
				"z": -1.1846481522,
				"element": "H" 
			},
			{
				"x": 1.7404872375,
				"y": 1.2671559138,
				"z": -3.1431111427,
				"element": "H" 
			},
			{
				"x": -1.5067094518,
				"y": -0.0049934858,
				"z": 1.8957892875,
				"element": "H" 
			},
			{
				"x": -0.5169382692,
				"y": -1.8953467884,
				"z": 3.65478459,
				"element": "H" 
			},
			{
				"x": 1.8391865632,
				"y": -2.6874834042,
				"z": 2.4602671714,
				"element": "H" 
			}
		],
		 "valence_orbital": [ 
			{
				"type": "occ",
				"energy": -0.28259,
				"method": "rhf"
			},
			{
				"type": "occ",
				"energy": -0.2669,
				"method": "rhf"
			},
			{
				"type": "occ",
				"energy": -0.26338,
				"method": "rhf"
			},
			{
				"type": "occ",
				"energy": -0.23978,
				"method": "rhf"
			},
			{
				"type": "occ",
				"energy": -0.2016,
				"method": "rhf"
			},
			{
				"type": "unocc",
				"energy": -0.02574,
				"method": "rhf"
			},
			{
				"type": "unocc",
				"energy": -0.01312,
				"method": "rhf"
			},
			{
				"type": "unocc",
				"energy": 0.05101,
				"method": "rhf"
			},
			{
				"type": "unocc",
				"energy": 0.07252,
				"method": "rhf"
			},
			{
				"type": "unocc",
				"energy": 0.08062,
				"method": "rhf"
			}
		],
		"cosmo_sigma_profile": { 
			"-0.025": 0.0,
			"-0.024": 0.0,
			"-0.023": 0.0,
			"-0.022": 0.0,
			"-0.021": 0.0,
			"-0.02": 0.0,
			"-0.019": 0.0,
			"-0.018": 0.0,
			"-0.017": 0.0,
			"-0.016": 0.0,
			"-0.015": 0.0,
			"-0.014": 0.0142008410056,
			"-0.013": 1.79310869413,
			"-0.012": 3.15835194381,
			"-0.011": 3.28628457818,
			"-0.01": 3.50624092781,
			"-0.009": 3.16043801959,
			"-0.008": 4.22628373209,
			"-0.007": 8.60045343831,
			"-0.006": 9.59567813059,
			"-0.005": 10.0044532954,
			"-0.004": 9.99061064003,
			"-0.003": 8.18431324626,
			"-0.002": 8.96302572566,
			"-0.001": 9.74006041553,
			"0.0": 8.23946814843,
			"0.001": 13.9456019901,
			"0.002": 21.7107209599,
			"0.003": 17.6555536099,
			"0.004": 12.7552867166,
			"0.005": 10.8303111983,
			"0.006": 5.87457146617,
			"0.007": 4.27389293743,
			"0.008": 3.9510353102,
			"0.009": 3.28119641249,
			"0.01": 3.08144663643,
			"0.011": 3.16703156256,
			"0.012": 2.21559481209,
			"0.013": 1.1682360778,
			"0.014": 0.307923048024,
			"0.015": 0.0,
			"0.016": 0.0,
			"0.017": 0.0,
			"0.018": 0.0,
			"0.019": 0.0,
			"0.02": 0.0,
			"0.021": 0.0,
			"0.022": 0.0,
			"0.023": 0.0,
			"0.024": 0.0,
			"0.025": 0.0
		}
	}
}
