{
	 "smiles": "NS(=O)(=O)C1=CC(Cl)=CC(Cl)=C1", 
	 "Tm": 444.15, 
	 "num_atms": 17, 
	 "gaussian": { 
		 "optdone": 1, 
		 "sigma_profile": "yes", 
		 "theory": "DFT", 
		 "functional": "B3LYP", 
		 "basiset": "6-31G**", 
		 "properties": { 
			 "R2extent": 4349.5171, 
			 "electric_dipole_moment_norm": 2.94554406519, 
			 "electric_quadrupole_moment_norm": 12.2559858282, 
			 "total_energy": -1755.35092289, 
			 "HOMO_LUMO_gap": 0.21079, 
			 "cosmo_polarized_energy": -13.59, 
			 "cosmo_cavitation_energy": 26.93, 
			 "cosmo_dispersion_energy": -20.56, 
			 "cosmo_repulsion_energy": 1.62, 
			 "cosmo_total_nonelectrostatic_energy": 7.98, 
			 "SMD_solvation_energy": 3.7 
		},
		"coords": [
			{
				"x": -0.5429714687,
				"y": -1.0521953823,
				"z": 1.8532393475,
				"element": "N" 
			},
			{
				"x": 0.2871289674,
				"y": 0.4040130276,
				"z": 2.0657538575,
				"element": "S" 
			},
			{
				"x": 1.7137267039,
				"y": 0.0846984589,
				"z": 2.1494805811,
				"element": "O" 
			},
			{
				"x": -0.4193298527,
				"y": 1.1618095845,
				"z": 3.1005405647,
				"element": "O" 
			},
			{
				"x": 0.0202924262,
				"y": 1.2555503387,
				"z": 0.5027226521,
				"element": "C" 
			},
			{
				"x": 0.937609991,
				"y": 1.0656061771,
				"z": -0.5294295971,
				"element": "C" 
			},
			{
				"x": 0.7083132457,
				"y": 1.7278796012,
				"z": -1.734237263,
				"element": "C" 
			},
			{
				"x": 1.8357458602,
				"y": 1.5183135697,
				"z": -3.0576563625,
				"element": "Cl" 
			},
			{
				"x": -0.3965236908,
				"y": 2.561408954,
				"z": -1.9121076354,
				"element": "C" 
			},
			{
				"x": -1.2827350831,
				"y": 2.7315652379,
				"z": -0.8477851935,
				"element": "C" 
			},
			{
				"x": -2.6648142558,
				"y": 3.7869187153,
				"z": -1.0540806665,
				"element": "Cl" 
			},
			{
				"x": -1.0902725897,
				"y": 2.0879280298,
				"z": 0.3734577186,
				"element": "C" 
			},
			{
				"x": 0.1070688357,
				"y": -1.8310740653,
				"z": 1.9162568736,
				"element": "H" 
			},
			{
				"x": -1.2896597754,
				"y": -1.1257856139,
				"z": 2.5389649077,
				"element": "H" 
			},
			{
				"x": 1.8083783642,
				"y": 0.4372834809,
				"z": -0.3887157438,
				"element": "H" 
			},
			{
				"x": -0.5586008528,
				"y": 3.0714176157,
				"z": -2.8535989918,
				"element": "H" 
			},
			{
				"x": -1.7685568253,
				"y": 2.2405622703,
				"z": 1.2037949508,
				"element": "H" 
			}
		],
		 "valence_orbital": [ 
			{
				"type": "occ",
				"energy": -0.32692,
				"method": "rhf"
			},
			{
				"type": "occ",
				"energy": -0.31973,
				"method": "rhf"
			},
			{
				"type": "occ",
				"energy": -0.30894,
				"method": "rhf"
			},
			{
				"type": "occ",
				"energy": -0.27993,
				"method": "rhf"
			},
			{
				"type": "occ",
				"energy": -0.26997,
				"method": "rhf"
			},
			{
				"type": "unocc",
				"energy": -0.05918,
				"method": "rhf"
			},
			{
				"type": "unocc",
				"energy": -0.04338,
				"method": "rhf"
			},
			{
				"type": "unocc",
				"energy": -0.01108,
				"method": "rhf"
			},
			{
				"type": "unocc",
				"energy": 0.03322,
				"method": "rhf"
			},
			{
				"type": "unocc",
				"energy": 0.04945,
				"method": "rhf"
			}
		],
		"cosmo_sigma_profile": { 
			"-0.025": 0.0,
			"-0.024": 0.0,
			"-0.023": 0.0,
			"-0.022": 0.0,
			"-0.021": 0.0,
			"-0.02": 0.0,
			"-0.019": 0.0,
			"-0.018": 0.0,
			"-0.017": 0.0,
			"-0.016": 0.0996623137519,
			"-0.015": 1.79664437972,
			"-0.014": 2.68622352207,
			"-0.013": 2.54771487821,
			"-0.012": 2.80993967082,
			"-0.011": 2.028799753,
			"-0.01": 1.5772604418,
			"-0.009": 3.4878047864,
			"-0.008": 5.36680469907,
			"-0.007": 5.33107013269,
			"-0.006": 7.77840377567,
			"-0.005": 6.2592635673,
			"-0.004": 7.79800523965,
			"-0.003": 10.5604821474,
			"-0.002": 12.6426869883,
			"-0.001": 25.8460574958,
			"0.0": 25.505238559,
			"0.001": 11.4138802747,
			"0.002": 14.9923615038,
			"0.003": 20.5424774149,
			"0.004": 14.0559776305,
			"0.005": 3.22276667208,
			"0.006": 3.89620370406,
			"0.007": 2.67742478122,
			"0.008": 3.86636498426,
			"0.009": 5.06013950882,
			"0.01": 8.74295526996,
			"0.011": 7.52078766777,
			"0.012": 0.638691804233,
			"0.013": 0.0,
			"0.014": 0.0,
			"0.015": 0.0,
			"0.016": 0.0,
			"0.017": 0.0,
			"0.018": 0.0,
			"0.019": 0.0,
			"0.02": 0.0,
			"0.021": 0.0,
			"0.022": 0.0,
			"0.023": 0.0,
			"0.024": 0.0,
			"0.025": 0.0
		}
	}
}
