{
	 "smiles": "NC1=C(F)C(=CC(F)=C1)C(O)=O", 
	 "Tm": 435.15, 
	 "num_atms": 17, 
	 "gaussian": { 
		 "optdone": 1, 
		 "sigma_profile": "yes", 
		 "theory": "DFT", 
		 "functional": "B3LYP", 
		 "basiset": "6-31G**", 
		 "properties": { 
			 "R2extent": 2489.6898, 
			 "electric_dipole_moment_norm": 6.34269804815, 
			 "electric_quadrupole_moment_norm": 15.827707243, 
			 "total_energy": -674.637072274, 
			 "HOMO_LUMO_gap": 0.17473, 
			 "cosmo_polarized_energy": -15.08, 
			 "cosmo_cavitation_energy": 22.59, 
			 "cosmo_dispersion_energy": -16.88, 
			 "cosmo_repulsion_energy": 1.3, 
			 "cosmo_total_nonelectrostatic_energy": 7.01, 
			 "SMD_solvation_energy": 5.91 
		},
		"coords": [
			{
				"x": -2.0091400687,
				"y": -1.1052110751,
				"z": -0.5618879525,
				"element": "N" 
			},
			{
				"x": -0.8870161237,
				"y": -0.3401880882,
				"z": -0.2905512441,
				"element": "C" 
			},
			{
				"x": -1.0094644341,
				"y": 1.0425393924,
				"z": -0.0867222816,
				"element": "C" 
			},
			{
				"x": -2.2981571926,
				"y": 1.5332545349,
				"z": -0.106791063,
				"element": "F" 
			},
			{
				"x": 0.0699861484,
				"y": 1.8933166397,
				"z": 0.1353834599,
				"element": "C" 
			},
			{
				"x": 1.3560076765,
				"y": 1.332699532,
				"z": 0.1568283433,
				"element": "C" 
			},
			{
				"x": 1.491388464,
				"y": -0.0314290304,
				"z": -0.0399883145,
				"element": "C" 
			},
			{
				"x": 2.7227807705,
				"y": -0.5769959679,
				"z": -0.0171687707,
				"element": "F" 
			},
			{
				"x": 0.4083067288,
				"y": -0.8754480147,
				"z": -0.2618113942,
				"element": "C" 
			},
			{
				"x": -0.0238869617,
				"y": 3.3835893609,
				"z": 0.3616455001,
				"element": "C" 
			},
			{
				"x": -1.2468077853,
				"y": 3.9504458755,
				"z": 0.3328550883,
				"element": "O" 
			},
			{
				"x": 0.9603925781,
				"y": 4.0561944053,
				"z": 0.5622547839,
				"element": "O" 
			},
			{
				"x": -2.8910402711,
				"y": -0.6979224241,
				"z": -0.2874866137,
				"element": "H" 
			},
			{
				"x": -1.9357607018,
				"y": -2.0902333308,
				"z": -0.3547373357,
				"element": "H" 
			},
			{
				"x": 2.2113083691,
				"y": 1.9734840862,
				"z": 0.3281015615,
				"element": "H" 
			},
			{
				"x": 0.576520649,
				"y": -1.9358981066,
				"z": -0.4166121706,
				"element": "H" 
			},
			{
				"x": -1.9298178454,
				"y": 3.2836022108,
				"z": 0.1619884036,
				"element": "H" 
			}
		],
		 "valence_orbital": [ 
			{
				"type": "occ",
				"energy": -0.33536,
				"method": "rhf"
			},
			{
				"type": "occ",
				"energy": -0.31094,
				"method": "rhf"
			},
			{
				"type": "occ",
				"energy": -0.27769,
				"method": "rhf"
			},
			{
				"type": "occ",
				"energy": -0.26771,
				"method": "rhf"
			},
			{
				"type": "occ",
				"energy": -0.23221,
				"method": "rhf"
			},
			{
				"type": "unocc",
				"energy": -0.05748,
				"method": "rhf"
			},
			{
				"type": "unocc",
				"energy": -0.00555,
				"method": "rhf"
			},
			{
				"type": "unocc",
				"energy": 0.04728,
				"method": "rhf"
			},
			{
				"type": "unocc",
				"energy": 0.05412,
				"method": "rhf"
			},
			{
				"type": "unocc",
				"energy": 0.07544,
				"method": "rhf"
			}
		],
		"cosmo_sigma_profile": { 
			"-0.025": 0.0,
			"-0.024": 0.0,
			"-0.023": 0.0,
			"-0.022": 0.0,
			"-0.021": 0.0,
			"-0.02": 0.0,
			"-0.019": 0.0,
			"-0.018": 0.0,
			"-0.017": 0.0,
			"-0.016": 0.0,
			"-0.015": 0.0129629762343,
			"-0.014": 1.22196671572,
			"-0.013": 2.32346006478,
			"-0.012": 3.76230219354,
			"-0.011": 3.18818890654,
			"-0.01": 4.56689709261,
			"-0.009": 4.40680183756,
			"-0.008": 6.08947089319,
			"-0.007": 5.48070415479,
			"-0.006": 4.48998950422,
			"-0.005": 6.2547795758,
			"-0.004": 6.66603611274,
			"-0.003": 7.58519266515,
			"-0.002": 8.37831078249,
			"-0.001": 11.2279388356,
			"0.0": 16.6767244809,
			"0.001": 21.1508760957,
			"0.002": 13.4917636183,
			"0.003": 7.4825799912,
			"0.004": 12.2980687567,
			"0.005": 4.94920104805,
			"0.006": 2.80096076357,
			"0.007": 2.36021071913,
			"0.008": 4.04340640987,
			"0.009": 3.91336596107,
			"0.01": 5.28103493605,
			"0.011": 6.153484155,
			"0.012": 4.14418724918,
			"0.013": 1.20287763037,
			"0.014": 0.0,
			"0.015": 0.0,
			"0.016": 0.0,
			"0.017": 0.0,
			"0.018": 0.0,
			"0.019": 0.0,
			"0.02": 0.0,
			"0.021": 0.0,
			"0.022": 0.0,
			"0.023": 0.0,
			"0.024": 0.0,
			"0.025": 0.0
		}
	}
}
