{
	 "smiles": "CC1=CC(Br)=C(C)C=C1", 
	 "Tm": 282.65, 
	 "num_atms": 18, 
	 "gaussian": { 
		 "optdone": 1, 
		 "sigma_profile": "yes", 
		 "theory": "DFT", 
		 "functional": "B3LYP", 
		 "basiset": "6-31G**", 
		 "properties": { 
			 "R2extent": 2594.1751, 
			 "electric_dipole_moment_norm": 1.80479991689, 
			 "electric_quadrupole_moment_norm": 6.34340119337, 
			 "total_energy": -2881.69566215, 
			 "HOMO_LUMO_gap": 0.22375, 
			 "cosmo_polarized_energy": -3.58, 
			 "cosmo_cavitation_energy": 23.29, 
			 "cosmo_dispersion_energy": -17.55, 
			 "cosmo_repulsion_energy": 1.43, 
			 "cosmo_total_nonelectrostatic_energy": 7.17, 
			 "SMD_solvation_energy": 3.04 
		},
		"coords": [
			{
				"x": -1.1354180134,
				"y": -0.2292377161,
				"z": -3.0060319496,
				"element": "C" 
			},
			{
				"x": -1.0852460632,
				"y": -0.2522676038,
				"z": -1.4963944596,
				"element": "C" 
			},
			{
				"x": -0.4369811253,
				"y": -1.2894756737,
				"z": -0.816826995,
				"element": "C" 
			},
			{
				"x": -0.4189391106,
				"y": -1.3187927376,
				"z": 0.5759233899,
				"element": "C" 
			},
			{
				"x": 0.4961136071,
				"y": -2.7784863967,
				"z": 1.4245396704,
				"element": "Br" 
			},
			{
				"x": -1.0326624778,
				"y": -0.3322316366,
				"z": 1.3589030948,
				"element": "C" 
			},
			{
				"x": -1.0147390977,
				"y": -0.3545914637,
				"z": 2.86516979,
				"element": "C" 
			},
			{
				"x": -1.673930618,
				"y": 0.7003431709,
				"z": 0.6592572495,
				"element": "C" 
			},
			{
				"x": -1.7020337575,
				"y": 0.7456981861,
				"z": -0.7325976302,
				"element": "C" 
			},
			{
				"x": -1.0732339664,
				"y": 0.7933984872,
				"z": -3.3909307654,
				"element": "H" 
			},
			{
				"x": -2.073635984,
				"y": -0.6596029331,
				"z": -3.3777980946,
				"element": "H" 
			},
			{
				"x": -0.3155808423,
				"y": -0.8061554144,
				"z": -3.4433046892,
				"element": "H" 
			},
			{
				"x": 0.0581834662,
				"y": -2.079081549,
				"z": -1.3722334252,
				"element": "H" 
			},
			{
				"x": -1.5525218855,
				"y": 0.5063229189,
				"z": 3.2703770513,
				"element": "H" 
			},
			{
				"x": -1.4800924595,
				"y": -1.2658251042,
				"z": 3.2561383438,
				"element": "H" 
			},
			{
				"x": 0.0095828203,
				"y": -0.333539106,
				"z": 3.252633179,
				"element": "H" 
			},
			{
				"x": -2.158915334,
				"y": 1.4886401085,
				"z": 1.2293222562,
				"element": "H" 
			},
			{
				"x": -2.2085491584,
				"y": 1.5680844633,
				"z": -1.2313460159,
				"element": "H" 
			}
		],
		 "valence_orbital": [ 
			{
				"type": "occ",
				"energy": -0.33966,
				"method": "rhf"
			},
			{
				"type": "occ",
				"energy": -0.30441,
				"method": "rhf"
			},
			{
				"type": "occ",
				"energy": -0.28113,
				"method": "rhf"
			},
			{
				"type": "occ",
				"energy": -0.24589,
				"method": "rhf"
			},
			{
				"type": "occ",
				"energy": -0.23301,
				"method": "rhf"
			},
			{
				"type": "unocc",
				"energy": -0.00926,
				"method": "rhf"
			},
			{
				"type": "unocc",
				"energy": -0.00369,
				"method": "rhf"
			},
			{
				"type": "unocc",
				"energy": 0.01355,
				"method": "rhf"
			},
			{
				"type": "unocc",
				"energy": 0.10424,
				"method": "rhf"
			},
			{
				"type": "unocc",
				"energy": 0.11238,
				"method": "rhf"
			}
		],
		"cosmo_sigma_profile": { 
			"-0.025": 0.0,
			"-0.024": 0.0,
			"-0.023": 0.0,
			"-0.022": 0.0,
			"-0.021": 0.0,
			"-0.02": 0.0,
			"-0.019": 0.0,
			"-0.018": 0.0,
			"-0.017": 0.0,
			"-0.016": 0.0,
			"-0.015": 0.0,
			"-0.014": 0.0,
			"-0.013": 0.0,
			"-0.012": 0.0,
			"-0.011": 0.0,
			"-0.01": 0.0,
			"-0.009": 0.0,
			"-0.008": 0.0,
			"-0.007": 0.0528848969451,
			"-0.006": 3.5253282359,
			"-0.005": 10.3734533773,
			"-0.004": 17.4249014419,
			"-0.003": 16.9144348719,
			"-0.002": 18.0963949883,
			"-0.001": 19.1357432211,
			"0.0": 23.1489533061,
			"0.001": 15.4096975349,
			"0.002": 11.8930018973,
			"0.003": 16.4512692627,
			"0.004": 18.5967118104,
			"0.005": 15.5493425076,
			"0.006": 1.16183591746,
			"0.007": 0.0,
			"0.008": 0.0,
			"0.009": 0.0,
			"0.01": 0.0,
			"0.011": 0.0,
			"0.012": 0.0,
			"0.013": 0.0,
			"0.014": 0.0,
			"0.015": 0.0,
			"0.016": 0.0,
			"0.017": 0.0,
			"0.018": 0.0,
			"0.019": 0.0,
			"0.02": 0.0,
			"0.021": 0.0,
			"0.022": 0.0,
			"0.023": 0.0,
			"0.024": 0.0,
			"0.025": 0.0
		}
	}
}
