{
	 "smiles": "CC(O)(C1=CC2=C(O1)C=CC=C2)C1=CC2=C(O1)C=CC=C2", 
	 "Tm": 364.65, 
	 "num_atms": 35, 
	 "gaussian": { 
		 "optdone": 1, 
		 "sigma_profile": "yes", 
		 "theory": "DFT", 
		 "functional": "B3LYP", 
		 "basiset": "6-31G**", 
		 "properties": { 
			 "R2extent": 7931.4599, 
			 "electric_dipole_moment_norm": 0.999936562988, 
			 "electric_quadrupole_moment_norm": 8.78802893714, 
			 "total_energy": -920.00490488, 
			 "HOMO_LUMO_gap": 0.19284, 
			 "cosmo_polarized_energy": -9.32, 
			 "cosmo_cavitation_energy": 39.14, 
			 "cosmo_dispersion_energy": -27.96, 
			 "cosmo_repulsion_energy": 2.12, 
			 "cosmo_total_nonelectrostatic_energy": 13.3, 
			 "SMD_solvation_energy": 6.83 
		},
		"coords": [
			{
				"x": -0.4212599238,
				"y": 1.1065334043,
				"z": 2.3500537658,
				"element": "C" 
			},
			{
				"x": -1.1464603201,
				"y": -0.0645555114,
				"z": 1.6516351408,
				"element": "C" 
			},
			{
				"x": -2.1166386993,
				"y": -0.6352538817,
				"z": 2.5338553968,
				"element": "O" 
			},
			{
				"x": -1.9294032571,
				"y": 0.4211452623,
				"z": 0.4617821758,
				"element": "C" 
			},
			{
				"x": -3.2383419663,
				"y": 0.2936018761,
				"z": 0.1305855054,
				"element": "C" 
			},
			{
				"x": -3.4094546957,
				"y": 0.9981446877,
				"z": -1.1177622157,
				"element": "C" 
			},
			{
				"x": -2.1370437424,
				"y": 1.5061634486,
				"z": -1.4410228748,
				"element": "C" 
			},
			{
				"x": -1.2288120475,
				"y": 1.1550716215,
				"z": -0.4733453657,
				"element": "O" 
			},
			{
				"x": -1.8669061036,
				"y": 2.2513927456,
				"z": -2.581497001,
				"element": "C" 
			},
			{
				"x": -2.9451844531,
				"y": 2.4928025259,
				"z": -3.4332330431,
				"element": "C" 
			},
			{
				"x": -4.2309026705,
				"y": 2.0006889959,
				"z": -3.1404944072,
				"element": "C" 
			},
			{
				"x": -4.4777836222,
				"y": 1.2546203742,
				"z": -1.9908111437,
				"element": "C" 
			},
			{
				"x": -0.1527278728,
				"y": -1.1286133224,
				"z": 1.2403483863,
				"element": "C" 
			},
			{
				"x": 0.3344928187,
				"y": -1.584278445,
				"z": 0.0594248822,
				"element": "C" 
			},
			{
				"x": 1.2761315826,
				"y": -2.6314807276,
				"z": 0.3801371399,
				"element": "C" 
			},
			{
				"x": 1.2753015902,
				"y": -2.7235903817,
				"z": 1.7840867085,
				"element": "C" 
			},
			{
				"x": 0.4066885244,
				"y": -1.8020077,
				"z": 2.313976492,
				"element": "O" 
			},
			{
				"x": 2.0507556551,
				"y": -3.6245205041,
				"z": 2.5019436757,
				"element": "C" 
			},
			{
				"x": 2.8689282941,
				"y": -4.4707998142,
				"z": 1.7528203375,
				"element": "C" 
			},
			{
				"x": 2.8954280542,
				"y": -4.4048787431,
				"z": 0.3474136249,
				"element": "C" 
			},
			{
				"x": 2.1071207003,
				"y": -3.4936186826,
				"z": -0.3509653473,
				"element": "C" 
			},
			{
				"x": -1.1647410415,
				"y": 1.817765095,
				"z": 2.718449102,
				"element": "H" 
			},
			{
				"x": 0.1615389769,
				"y": 0.7287388446,
				"z": 3.1949825478,
				"element": "H" 
			},
			{
				"x": 0.2538610662,
				"y": 1.61642835,
				"z": 1.6584144469,
				"element": "H" 
			},
			{
				"x": -1.6312531639,
				"y": -1.1819153016,
				"z": 3.1668342107,
				"element": "H" 
			},
			{
				"x": -3.979712635,
				"y": -0.2339944282,
				"z": 0.710107177,
				"element": "H" 
			},
			{
				"x": -0.8699423314,
				"y": 2.6238900099,
				"z": -2.7908196405,
				"element": "H" 
			},
			{
				"x": -2.7884789584,
				"y": 3.0717973075,
				"z": -4.3383125956,
				"element": "H" 
			},
			{
				"x": -5.0456648495,
				"y": 2.2088919597,
				"z": -3.8277328035,
				"element": "H" 
			},
			{
				"x": -5.4738015357,
				"y": 0.8794679092,
				"z": -1.7753186306,
				"element": "H" 
			},
			{
				"x": 0.0636002444,
				"y": -1.2176620292,
				"z": -0.9190525173,
				"element": "H" 
			},
			{
				"x": 2.0189195217,
				"y": -3.6619426138,
				"z": 3.5854445912,
				"element": "H" 
			},
			{
				"x": 3.4968688026,
				"y": -5.1932293651,
				"z": 2.2652897352,
				"element": "H" 
			},
			{
				"x": 3.5450083841,
				"y": -5.080318361,
				"z": -0.2013328092,
				"element": "H" 
			},
			{
				"x": 2.1344696742,
				"y": -3.4520846053,
				"z": -1.4356846471,
				"element": "H" 
			}
		],
		 "valence_orbital": [ 
			{
				"type": "occ",
				"energy": -0.28226,
				"method": "rhf"
			},
			{
				"type": "occ",
				"energy": -0.24034,
				"method": "rhf"
			},
			{
				"type": "occ",
				"energy": -0.23635,
				"method": "rhf"
			},
			{
				"type": "occ",
				"energy": -0.22243,
				"method": "rhf"
			},
			{
				"type": "occ",
				"energy": -0.21604,
				"method": "rhf"
			},
			{
				"type": "unocc",
				"energy": -0.0232,
				"method": "rhf"
			},
			{
				"type": "unocc",
				"energy": -0.01755,
				"method": "rhf"
			},
			{
				"type": "unocc",
				"energy": 0.00998,
				"method": "rhf"
			},
			{
				"type": "unocc",
				"energy": 0.01448,
				"method": "rhf"
			},
			{
				"type": "unocc",
				"energy": 0.04996,
				"method": "rhf"
			}
		],
		"cosmo_sigma_profile": { 
			"-0.025": 0.0,
			"-0.024": 0.0,
			"-0.023": 0.0,
			"-0.022": 0.0,
			"-0.021": 0.0,
			"-0.02": 0.0,
			"-0.019": 0.0,
			"-0.018": 0.0,
			"-0.017": 0.0,
			"-0.016": 0.0,
			"-0.015": 0.194634888496,
			"-0.014": 0.407844276323,
			"-0.013": 0.834129694075,
			"-0.012": 0.595458235394,
			"-0.011": 0.177058840305,
			"-0.01": 0.575360548625,
			"-0.009": 0.723165418109,
			"-0.008": 1.29364920208,
			"-0.007": 5.76975845746,
			"-0.006": 13.5583588635,
			"-0.005": 22.2148334783,
			"-0.004": 26.9513230469,
			"-0.003": 24.1162338485,
			"-0.002": 21.0026835756,
			"-0.001": 22.3464280094,
			"0.0": 22.8878489059,
			"0.001": 24.5990294993,
			"0.002": 26.3326971019,
			"0.003": 28.3298740404,
			"0.004": 30.3531784896,
			"0.005": 22.2150201459,
			"0.006": 9.0032988824,
			"0.007": 2.69311715627,
			"0.008": 1.68951933054,
			"0.009": 1.52987792648,
			"0.01": 1.30207128294,
			"0.011": 0.786246697439,
			"0.012": 0.950189627687,
			"0.013": 0.155949240076,
			"0.014": 0.0,
			"0.015": 0.0,
			"0.016": 0.0,
			"0.017": 0.0,
			"0.018": 0.0,
			"0.019": 0.0,
			"0.02": 0.0,
			"0.021": 0.0,
			"0.022": 0.0,
			"0.023": 0.0,
			"0.024": 0.0,
			"0.025": 0.0
		}
	}
}
