{
	 "smiles": "COC1=CC=CC2=C1OC(=C2)C(=O)C1CC(C)(C1)C1=CC=CC=C1", 
	 "Tm": 377.15, 
	 "num_atms": 44, 
	 "gaussian": { 
		 "optdone": 1, 
		 "sigma_profile": "yes", 
		 "theory": "DFT", 
		 "functional": "B3LYP", 
		 "basiset": "6-31G**", 
		 "properties": { 
			 "R2extent": 12592.9933, 
			 "electric_dipole_moment_norm": 2.25084405724, 
			 "electric_quadrupole_moment_norm": 3.32146050255, 
			 "total_energy": -1037.9155615, 
			 "HOMO_LUMO_gap": 0.14644, 
			 "cosmo_polarized_energy": -12.48, 
			 "cosmo_cavitation_energy": 46.77, 
			 "cosmo_dispersion_energy": -32.67, 
			 "cosmo_repulsion_energy": 2.45, 
			 "cosmo_total_nonelectrostatic_energy": 16.55, 
			 "SMD_solvation_energy": 8.92 
		},
		"coords": [
			{
				"x": -0.6697591072,
				"y": 0.3420718447,
				"z": -5.440273028,
				"element": "C" 
			},
			{
				"x": 0.4635723698,
				"y": -0.4336790829,
				"z": -5.8388850921,
				"element": "O" 
			},
			{
				"x": 1.4489327539,
				"y": -0.7078252526,
				"z": -4.9466471609,
				"element": "C" 
			},
			{
				"x": 2.549088461,
				"y": -1.4294190793,
				"z": -5.421645412,
				"element": "C" 
			},
			{
				"x": 3.6312775703,
				"y": -1.777984781,
				"z": -4.5960974852,
				"element": "C" 
			},
			{
				"x": 3.669227912,
				"y": -1.4219847529,
				"z": -3.2546016905,
				"element": "C" 
			},
			{
				"x": 2.5773064865,
				"y": -0.6968029811,
				"z": -2.7489108684,
				"element": "C" 
			},
			{
				"x": 1.4938543771,
				"y": -0.3535183641,
				"z": -3.5874644705,
				"element": "C" 
			},
			{
				"x": 0.550062595,
				"y": 0.344141277,
				"z": -2.8852129611,
				"element": "O" 
			},
			{
				"x": 1.0196059376,
				"y": 0.4558579095,
				"z": -1.5970245505,
				"element": "C" 
			},
			{
				"x": 2.2368911746,
				"y": -0.1547873783,
				"z": -1.4645820465,
				"element": "C" 
			},
			{
				"x": 0.1504292999,
				"y": 1.1729057764,
				"z": -0.6450109034,
				"element": "C" 
			},
			{
				"x": -0.9178214948,
				"y": 1.6453428643,
				"z": -1.0103089589,
				"element": "O" 
			},
			{
				"x": 0.6373773903,
				"y": 1.2423411223,
				"z": 0.7916051845,
				"element": "C" 
			},
			{
				"x": 0.2045042509,
				"y": 0.0128293679,
				"z": 1.6647196074,
				"element": "C" 
			},
			{
				"x": -0.7909619998,
				"y": 0.927022743,
				"z": 2.4549852605,
				"element": "C" 
			},
			{
				"x": -2.2555535847,
				"y": 0.6767273716,
				"z": 2.051234914,
				"element": "C" 
			},
			{
				"x": -0.1816861093,
				"y": 2.1704737369,
				"z": 1.7216675135,
				"element": "C" 
			},
			{
				"x": -0.6617063869,
				"y": 0.9012725734,
				"z": 3.9685928314,
				"element": "C" 
			},
			{
				"x": -0.8339242221,
				"y": 2.0687940653,
				"z": 4.7257453291,
				"element": "C" 
			},
			{
				"x": -0.7668937047,
				"y": 2.0392214606,
				"z": 6.1195252573,
				"element": "C" 
			},
			{
				"x": -0.527517496,
				"y": 0.8362882225,
				"z": 6.7858936642,
				"element": "C" 
			},
			{
				"x": -0.3609017898,
				"y": -0.3353376701,
				"z": 6.0458211277,
				"element": "C" 
			},
			{
				"x": -0.4293030763,
				"y": -0.3007804112,
				"z": 4.6521674605,
				"element": "C" 
			},
			{
				"x": -1.2876499178,
				"y": 0.4286384459,
				"z": -6.3352513994,
				"element": "H" 
			},
			{
				"x": -0.3749620934,
				"y": 1.3388002635,
				"z": -5.0991277401,
				"element": "H" 
			},
			{
				"x": -1.2378268967,
				"y": -0.1515985658,
				"z": -4.6468009105,
				"element": "H" 
			},
			{
				"x": 2.5391971927,
				"y": -1.7161204553,
				"z": -6.4680379585,
				"element": "H" 
			},
			{
				"x": 4.4539361774,
				"y": -2.3391070473,
				"z": -5.0290451079,
				"element": "H" 
			},
			{
				"x": 4.5063875292,
				"y": -1.6914286976,
				"z": -2.6195304736,
				"element": "H" 
			},
			{
				"x": 2.8242276703,
				"y": -0.2168816452,
				"z": -0.5598887831,
				"element": "H" 
			},
			{
				"x": 1.7166624216,
				"y": 1.4196950788,
				"z": 0.800512965,
				"element": "H" 
			},
			{
				"x": -0.2439129047,
				"y": -0.8256478511,
				"z": 1.1225604264,
				"element": "H" 
			},
			{
				"x": 1.0280010406,
				"y": -0.3661831774,
				"z": 2.2748454558,
				"element": "H" 
			},
			{
				"x": -2.909988149,
				"y": 1.4323025508,
				"z": 2.498974847,
				"element": "H" 
			},
			{
				"x": -2.3734050733,
				"y": 0.7255642064,
				"z": 0.9647849786,
				"element": "H" 
			},
			{
				"x": -2.5906324566,
				"y": -0.3064218005,
				"z": 2.4000607651,
				"element": "H" 
			},
			{
				"x": 0.4565349319,
				"y": 2.7849196347,
				"z": 2.3608130742,
				"element": "H" 
			},
			{
				"x": -0.9014541587,
				"y": 2.8062072295,
				"z": 1.2008816121,
				"element": "H" 
			},
			{
				"x": -1.0232291055,
				"y": 3.0124393829,
				"z": 4.2206703814,
				"element": "H" 
			},
			{
				"x": -0.89982062,
				"y": 2.9577762916,
				"z": 6.6846602749,
				"element": "H" 
			},
			{
				"x": -0.4711007169,
				"y": 0.8122321324,
				"z": 7.8703712897,
				"element": "H" 
			},
			{
				"x": -0.17588094,
				"y": -1.2784051637,
				"z": 6.5529948539,
				"element": "H" 
			},
			{
				"x": -0.3009855386,
				"y": -1.2221513945,
				"z": 4.0895579271,
				"element": "H" 
			}
		],
		 "valence_orbital": [ 
			{
				"type": "occ",
				"energy": -0.25487,
				"method": "rhf"
			},
			{
				"type": "occ",
				"energy": -0.24666,
				"method": "rhf"
			},
			{
				"type": "occ",
				"energy": -0.24139,
				"method": "rhf"
			},
			{
				"type": "occ",
				"energy": -0.236,
				"method": "rhf"
			},
			{
				"type": "occ",
				"energy": -0.2125,
				"method": "rhf"
			},
			{
				"type": "unocc",
				"energy": -0.06606,
				"method": "rhf"
			},
			{
				"type": "unocc",
				"energy": 0.0008,
				"method": "rhf"
			},
			{
				"type": "unocc",
				"energy": 0.00245,
				"method": "rhf"
			},
			{
				"type": "unocc",
				"energy": 0.00909,
				"method": "rhf"
			},
			{
				"type": "unocc",
				"energy": 0.01549,
				"method": "rhf"
			}
		],
		"cosmo_sigma_profile": { 
			"-0.025": 0.0,
			"-0.024": 0.0,
			"-0.023": 0.0,
			"-0.022": 0.0,
			"-0.021": 0.0,
			"-0.02": 0.0,
			"-0.019": 0.0,
			"-0.018": 0.0,
			"-0.017": 0.0,
			"-0.016": 0.0,
			"-0.015": 0.0,
			"-0.014": 0.0,
			"-0.013": 0.0,
			"-0.012": 0.0,
			"-0.011": 0.0,
			"-0.01": 0.0,
			"-0.009": 0.599827878345,
			"-0.008": 2.68530303965,
			"-0.007": 2.95416489039,
			"-0.006": 12.3042213026,
			"-0.005": 24.3184283695,
			"-0.004": 34.1223581778,
			"-0.003": 43.0858864048,
			"-0.002": 36.2521989792,
			"-0.001": 33.6060995267,
			"0.0": 34.0848564068,
			"0.001": 28.1112895881,
			"0.002": 23.9237568194,
			"0.003": 20.9325246023,
			"0.004": 19.6868596721,
			"0.005": 16.7632960497,
			"0.006": 11.9742848105,
			"0.007": 7.86260993241,
			"0.008": 3.28932664474,
			"0.009": 3.45864459471,
			"0.01": 3.13647186598,
			"0.011": 3.24133574031,
			"0.012": 3.90716316303,
			"0.013": 1.29950221376,
			"0.014": 0.0183953221867,
			"0.015": 0.0,
			"0.016": 0.0,
			"0.017": 0.0,
			"0.018": 0.0,
			"0.019": 0.0,
			"0.02": 0.0,
			"0.021": 0.0,
			"0.022": 0.0,
			"0.023": 0.0,
			"0.024": 0.0,
			"0.025": 0.0
		}
	}
}
