{
	 "smiles": "CCCNC1=CC(=O)OC2=CC=CC=C12", 
	 "Tm": 384.15, 
	 "num_atms": 28, 
	 "gaussian": { 
		 "optdone": 1, 
		 "sigma_profile": "yes", 
		 "theory": "DFT", 
		 "functional": "B3LYP", 
		 "basiset": "6-31G**", 
		 "properties": { 
			 "R2extent": 4015.3219, 
			 "electric_dipole_moment_norm": 6.69161859493, 
			 "electric_quadrupole_moment_norm": 20.3217717567, 
			 "total_energy": -670.330172562, 
			 "HOMO_LUMO_gap": 0.16851, 
			 "cosmo_polarized_energy": -17.02, 
			 "cosmo_cavitation_energy": 31.11, 
			 "cosmo_dispersion_energy": -22.62, 
			 "cosmo_repulsion_energy": 1.77, 
			 "cosmo_total_nonelectrostatic_energy": 10.27, 
			 "SMD_solvation_energy": 5.69 
		},
		"coords": [
			{
				"x": -1.6710722803,
				"y": -2.7596717432,
				"z": -1.1912667279,
				"element": "C" 
			},
			{
				"x": -1.8582936359,
				"y": -1.3890268095,
				"z": -1.8484083305,
				"element": "C" 
			},
			{
				"x": -0.5998355179,
				"y": -0.879240976,
				"z": -2.5729084881,
				"element": "C" 
			},
			{
				"x": 0.5540833315,
				"y": -0.6484223089,
				"z": -1.7122659868,
				"element": "N" 
			},
			{
				"x": 0.7146103467,
				"y": 0.4417230523,
				"z": -0.9046530206,
				"element": "C" 
			},
			{
				"x": -0.1514146973,
				"y": 1.5084362868,
				"z": -0.8960931233,
				"element": "C" 
			},
			{
				"x": 0.0289241417,
				"y": 2.6676897332,
				"z": -0.0628362659,
				"element": "C" 
			},
			{
				"x": -0.6877285004,
				"y": 3.6421484783,
				"z": -0.0089046417,
				"element": "O" 
			},
			{
				"x": 1.1477699069,
				"y": 2.6549202169,
				"z": 0.7917673228,
				"element": "O" 
			},
			{
				"x": 2.0310511736,
				"y": 1.624515426,
				"z": 0.8012137634,
				"element": "C" 
			},
			{
				"x": 3.1128578843,
				"y": 1.7429053689,
				"z": 1.681861303,
				"element": "C" 
			},
			{
				"x": 4.069528182,
				"y": 0.738765434,
				"z": 1.7385424008,
				"element": "C" 
			},
			{
				"x": 3.9585470565,
				"y": -0.3878205797,
				"z": 0.9126082721,
				"element": "C" 
			},
			{
				"x": 2.8822211193,
				"y": -0.5016484351,
				"z": 0.0429154962,
				"element": "C" 
			},
			{
				"x": 1.8881983352,
				"y": 0.4930678413,
				"z": -0.0260340466,
				"element": "C" 
			},
			{
				"x": -0.8891341517,
				"y": -2.7318942092,
				"z": -0.4246499752,
				"element": "H" 
			},
			{
				"x": -2.5924842369,
				"y": -3.091350373,
				"z": -0.7035837037,
				"element": "H" 
			},
			{
				"x": -1.3935635043,
				"y": -3.5219678947,
				"z": -1.9292955642,
				"element": "H" 
			},
			{
				"x": -2.1638972717,
				"y": -0.6541810547,
				"z": -1.0953100255,
				"element": "H" 
			},
			{
				"x": -2.6700404204,
				"y": -1.4376358785,
				"z": -2.5852704936,
				"element": "H" 
			},
			{
				"x": -0.2907384364,
				"y": -1.6084813461,
				"z": -3.3307949089,
				"element": "H" 
			},
			{
				"x": -0.8191628017,
				"y": 0.0502225639,
				"z": -3.108351856,
				"element": "H" 
			},
			{
				"x": 1.121419562,
				"y": -1.4537329333,
				"z": -1.5059700197,
				"element": "H" 
			},
			{
				"x": -1.0385630891,
				"y": 1.5340560976,
				"z": -1.5134256793,
				"element": "H" 
			},
			{
				"x": 3.1758817379,
				"y": 2.6312935915,
				"z": 2.300711859,
				"element": "H" 
			},
			{
				"x": 4.908546526,
				"y": 0.8332870545,
				"z": 2.4212656155,
				"element": "H" 
			},
			{
				"x": 4.7122654728,
				"y": -1.1678626066,
				"z": 0.9462122231,
				"element": "H" 
			},
			{
				"x": 2.8328237676,
				"y": -1.3732939967,
				"z": -0.6031753985,
				"element": "H" 
			}
		],
		 "valence_orbital": [ 
			{
				"type": "occ",
				"energy": -0.3228,
				"method": "rhf"
			},
			{
				"type": "occ",
				"energy": -0.26425,
				"method": "rhf"
			},
			{
				"type": "occ",
				"energy": -0.25507,
				"method": "rhf"
			},
			{
				"type": "occ",
				"energy": -0.23984,
				"method": "rhf"
			},
			{
				"type": "occ",
				"energy": -0.21652,
				"method": "rhf"
			},
			{
				"type": "unocc",
				"energy": -0.04801,
				"method": "rhf"
			},
			{
				"type": "unocc",
				"energy": -0.00787,
				"method": "rhf"
			},
			{
				"type": "unocc",
				"energy": 0.01793,
				"method": "rhf"
			},
			{
				"type": "unocc",
				"energy": 0.05374,
				"method": "rhf"
			},
			{
				"type": "unocc",
				"energy": 0.08301,
				"method": "rhf"
			}
		],
		"cosmo_sigma_profile": { 
			"-0.025": 0.0,
			"-0.024": 0.0,
			"-0.023": 0.0,
			"-0.022": 0.0,
			"-0.021": 0.0,
			"-0.02": 0.0,
			"-0.019": 0.0,
			"-0.018": 0.0,
			"-0.017": 0.0,
			"-0.016": 0.0,
			"-0.015": 0.731185570222,
			"-0.014": 0.756184645813,
			"-0.013": 1.26881291788,
			"-0.012": 0.956767775134,
			"-0.011": 0.875887746269,
			"-0.01": 1.76173445883,
			"-0.009": 1.72933814597,
			"-0.008": 1.59353021057,
			"-0.007": 5.73298252724,
			"-0.006": 11.7139129448,
			"-0.005": 15.0677877258,
			"-0.004": 14.4890554575,
			"-0.003": 21.8366547582,
			"-0.002": 23.4888308383,
			"-0.001": 20.5022888851,
			"0.0": 24.5077164598,
			"0.001": 23.5044226203,
			"0.002": 17.4807460922,
			"0.003": 15.5395511939,
			"0.004": 12.4356418109,
			"0.005": 2.82639509027,
			"0.006": 2.45177380746,
			"0.007": 1.55352488116,
			"0.008": 2.74229121813,
			"0.009": 1.85043814935,
			"0.01": 2.25494637367,
			"0.011": 2.48209989257,
			"0.012": 3.3616893183,
			"0.013": 6.49124605265,
			"0.014": 4.49902713476,
			"0.015": 0.539195753753,
			"0.016": 0.0,
			"0.017": 0.0,
			"0.018": 0.0,
			"0.019": 0.0,
			"0.02": 0.0,
			"0.021": 0.0,
			"0.022": 0.0,
			"0.023": 0.0,
			"0.024": 0.0,
			"0.025": 0.0
		}
	}
}
