{
	 "smiles": "OC(=O)C1=CC(=CC=C1)S(=O)(=O)NC1=CC=CC=C1", 
	 "Tm": 509.15, 
	 "num_atms": 30, 
	 "gaussian": { 
		 "optdone": 1, 
		 "sigma_profile": "yes", 
		 "theory": "DFT", 
		 "functional": "B3LYP", 
		 "basiset": "6-31G**", 
		 "properties": { 
			 "R2extent": 5520.4573, 
			 "electric_dipole_moment_norm": 3.08754642556, 
			 "electric_quadrupole_moment_norm": 29.4598217269, 
			 "total_energy": -1255.78380773, 
			 "HOMO_LUMO_gap": 0.1736, 
			 "cosmo_polarized_energy": -23.45, 
			 "cosmo_cavitation_energy": 36.59, 
			 "cosmo_dispersion_energy": -25.3, 
			 "cosmo_repulsion_energy": 1.92, 
			 "cosmo_total_nonelectrostatic_energy": 13.21, 
			 "SMD_solvation_energy": 6.54 
		},
		"coords": [
			{
				"x": 0.1958498386,
				"y": 2.0733110845,
				"z": 2.392300422,
				"element": "O" 
			},
			{
				"x": 1.3729051206,
				"y": 1.5348847416,
				"z": 1.9869390928,
				"element": "C" 
			},
			{
				"x": 2.3244217909,
				"y": 1.5198350599,
				"z": 2.7310020107,
				"element": "O" 
			},
			{
				"x": 1.4224219962,
				"y": 0.9711184014,
				"z": 0.5944121629,
				"element": "C" 
			},
			{
				"x": 0.2761111917,
				"y": 0.5830936491,
				"z": -0.1080306918,
				"element": "C" 
			},
			{
				"x": 0.4086636692,
				"y": 0.0549297839,
				"z": -1.3931444138,
				"element": "C" 
			},
			{
				"x": 1.6598238828,
				"y": -0.0836171983,
				"z": -1.9966149302,
				"element": "C" 
			},
			{
				"x": 2.8002694342,
				"y": 0.2972378342,
				"z": -1.2862844217,
				"element": "C" 
			},
			{
				"x": 2.6840653739,
				"y": 0.8074938874,
				"z": 0.0045168468,
				"element": "C" 
			},
			{
				"x": -1.0632056087,
				"y": -0.4814522806,
				"z": -2.2775153283,
				"element": "S" 
			},
			{
				"x": -0.7205978488,
				"y": -0.5794665234,
				"z": -3.695586226,
				"element": "O" 
			},
			{
				"x": -2.1752976669,
				"y": 0.3285609292,
				"z": -1.7828353502,
				"element": "O" 
			},
			{
				"x": -1.3573989868,
				"y": -2.0827864354,
				"z": -1.806722305,
				"element": "N" 
			},
			{
				"x": -1.6174373645,
				"y": -2.4573414393,
				"z": -0.4551690842,
				"element": "C" 
			},
			{
				"x": -2.7282445706,
				"y": -1.936480557,
				"z": 0.2227721237,
				"element": "C" 
			},
			{
				"x": -2.9805979583,
				"y": -2.3361822517,
				"z": 1.5347056466,
				"element": "C" 
			},
			{
				"x": -2.1579718064,
				"y": -3.2715245188,
				"z": 2.1667581195,
				"element": "C" 
			},
			{
				"x": -1.0651392047,
				"y": -3.8031079907,
				"z": 1.4803454576,
				"element": "C" 
			},
			{
				"x": -0.7847601911,
				"y": -3.3886320011,
				"z": 0.178759221,
				"element": "C" 
			},
			{
				"x": -0.4172471621,
				"y": 2.1623086671,
				"z": 1.649301762,
				"element": "H" 
			},
			{
				"x": -0.717070893,
				"y": 0.6629242594,
				"z": 0.3220678671,
				"element": "H" 
			},
			{
				"x": 1.7277439186,
				"y": -0.4675575947,
				"z": -3.0088753597,
				"element": "H" 
			},
			{
				"x": 3.7791233606,
				"y": 0.1976040101,
				"z": -1.7446987672,
				"element": "H" 
			},
			{
				"x": 3.5589613152,
				"y": 1.0960271087,
				"z": 0.5769055635,
				"element": "H" 
			},
			{
				"x": -0.735427054,
				"y": -2.7034098295,
				"z": -2.3156076976,
				"element": "H" 
			},
			{
				"x": -3.3780591195,
				"y": -1.2331968637,
				"z": -0.2838417986,
				"element": "H" 
			},
			{
				"x": -3.8397538704,
				"y": -1.9271820275,
				"z": 2.0582503841,
				"element": "H" 
			},
			{
				"x": -2.3696580517,
				"y": -3.5868873192,
				"z": 3.1837231646,
				"element": "H" 
			},
			{
				"x": -0.4192289245,
				"y": -4.5320534936,
				"z": 1.9605913198,
				"element": "H" 
			},
			{
				"x": 0.0785353894,
				"y": -3.787351092,
				"z": -0.3482247903,
				"element": "H" 
			}
		],
		 "valence_orbital": [ 
			{
				"type": "occ",
				"energy": -0.29387,
				"method": "rhf"
			},
			{
				"type": "occ",
				"energy": -0.28947,
				"method": "rhf"
			},
			{
				"type": "occ",
				"energy": -0.28236,
				"method": "rhf"
			},
			{
				"type": "occ",
				"energy": -0.2669,
				"method": "rhf"
			},
			{
				"type": "occ",
				"energy": -0.24444,
				"method": "rhf"
			},
			{
				"type": "unocc",
				"energy": -0.07084,
				"method": "rhf"
			},
			{
				"type": "unocc",
				"energy": -0.05688,
				"method": "rhf"
			},
			{
				"type": "unocc",
				"energy": -0.01939,
				"method": "rhf"
			},
			{
				"type": "unocc",
				"energy": -0.01806,
				"method": "rhf"
			},
			{
				"type": "unocc",
				"energy": 0.02484,
				"method": "rhf"
			}
		],
		"cosmo_sigma_profile": { 
			"-0.025": 0.0,
			"-0.024": 0.0,
			"-0.023": 0.0,
			"-0.022": 0.0,
			"-0.021": 0.0,
			"-0.02": 0.135640455009,
			"-0.019": 0.921444848225,
			"-0.018": 0.989186348869,
			"-0.017": 0.854591494108,
			"-0.016": 1.38861417591,
			"-0.015": 2.04077633726,
			"-0.014": 2.49467013384,
			"-0.013": 1.97375921014,
			"-0.012": 2.61129845427,
			"-0.011": 2.2321297792,
			"-0.01": 2.21944879212,
			"-0.009": 2.74693829315,
			"-0.008": 5.55600658128,
			"-0.007": 10.2756598284,
			"-0.006": 14.7256018547,
			"-0.005": 17.1727334709,
			"-0.004": 19.1062952368,
			"-0.003": 16.62089089,
			"-0.002": 15.7739024637,
			"-0.001": 16.8441689555,
			"0.0": 21.3362276187,
			"0.001": 22.7915954649,
			"0.002": 14.6529563475,
			"0.003": 14.1188922931,
			"0.004": 14.8779220654,
			"0.005": 13.8582470439,
			"0.006": 6.45065200648,
			"0.007": 5.97498355435,
			"0.008": 6.84208919247,
			"0.009": 8.44811932466,
			"0.01": 12.6032019209,
			"0.011": 11.3728947207,
			"0.012": 3.25164688261,
			"0.013": 0.635432883043,
			"0.014": 0.0,
			"0.015": 0.0,
			"0.016": 0.0,
			"0.017": 0.0,
			"0.018": 0.0,
			"0.019": 0.0,
			"0.02": 0.0,
			"0.021": 0.0,
			"0.022": 0.0,
			"0.023": 0.0,
			"0.024": 0.0,
			"0.025": 0.0
		}
	}
}
