{
	 "smiles": "COC1=CC=C(C=C1)C1=NN=C2SC(NN12)C=CC", 
	 "Tm": 354.15, 
	 "num_atms": 33, 
	 "gaussian": { 
		 "optdone": 1, 
		 "sigma_profile": "yes", 
		 "theory": "DFT", 
		 "functional": "B3LYP", 
		 "basiset": "6-31G**", 
		 "properties": { 
			 "R2extent": 8520.6742, 
			 "electric_dipole_moment_norm": 8.15079772476, 
			 "electric_quadrupole_moment_norm": 26.7939421823, 
			 "total_energy": -1196.14130065, 
			 "HOMO_LUMO_gap": 0.1756, 
			 "cosmo_polarized_energy": -20.33, 
			 "cosmo_cavitation_energy": 38.67, 
			 "cosmo_dispersion_energy": -28.66, 
			 "cosmo_repulsion_energy": 2.16, 
			 "cosmo_total_nonelectrostatic_energy": 12.16, 
			 "SMD_solvation_energy": 4.59 
		},
		"coords": [
			{
				"x": -4.6884602392,
				"y": -0.390913367,
				"z": 2.4042848987,
				"element": "C" 
			},
			{
				"x": -4.4215401696,
				"y": -1.2218181539,
				"z": 1.2854262403,
				"element": "O" 
			},
			{
				"x": -3.1814928098,
				"y": -1.1715119842,
				"z": 0.7230159131,
				"element": "C" 
			},
			{
				"x": -2.1343796709,
				"y": -0.3584208098,
				"z": 1.1710447396,
				"element": "C" 
			},
			{
				"x": -0.900980461,
				"y": -0.3910076776,
				"z": 0.516740414,
				"element": "C" 
			},
			{
				"x": -0.6914437709,
				"y": -1.2279449645,
				"z": -0.5863288689,
				"element": "C" 
			},
			{
				"x": -1.7557248334,
				"y": -2.0403362206,
				"z": -1.0282321152,
				"element": "C" 
			},
			{
				"x": -2.980351352,
				"y": -2.0128544844,
				"z": -0.3849030765,
				"element": "C" 
			},
			{
				"x": 0.5782044762,
				"y": -1.2889876927,
				"z": -1.3093817979,
				"element": "C" 
			},
			{
				"x": 0.7879863491,
				"y": -1.962558765,
				"z": -2.4291551222,
				"element": "N" 
			},
			{
				"x": 2.1028971589,
				"y": -1.7824209616,
				"z": -2.8420218878,
				"element": "N" 
			},
			{
				"x": 2.660558209,
				"y": -1.0170093236,
				"z": -1.9439268263,
				"element": "C" 
			},
			{
				"x": 4.2444823313,
				"y": -0.2941357887,
				"z": -1.6740595926,
				"element": "S" 
			},
			{
				"x": 3.3691066173,
				"y": 0.8606412985,
				"z": -0.433624836,
				"element": "C" 
			},
			{
				"x": 2.2281732861,
				"y": 0.1102169669,
				"z": 0.1127064214,
				"element": "N" 
			},
			{
				"x": 1.7619058594,
				"y": -0.6690762217,
				"z": -0.9658011164,
				"element": "N" 
			},
			{
				"x": 4.2378967547,
				"y": 1.4066228228,
				"z": 0.6589364559,
				"element": "C" 
			},
			{
				"x": 5.4281444692,
				"y": 0.9292776274,
				"z": 1.0341472997,
				"element": "C" 
			},
			{
				"x": 6.2646656222,
				"y": 1.4976849095,
				"z": 2.1406371709,
				"element": "C" 
			},
			{
				"x": -4.5794162736,
				"y": 0.6722285952,
				"z": 2.1541946543,
				"element": "H" 
			},
			{
				"x": -5.7236640019,
				"y": -0.5885896805,
				"z": 2.6863111822,
				"element": "H" 
			},
			{
				"x": -4.0321575529,
				"y": -0.6290648338,
				"z": 3.2512798015,
				"element": "H" 
			},
			{
				"x": -2.2641095128,
				"y": 0.3022239934,
				"z": 2.0199350906,
				"element": "H" 
			},
			{
				"x": -0.1001045249,
				"y": 0.2511408131,
				"z": 0.8672821251,
				"element": "H" 
			},
			{
				"x": -1.5962594106,
				"y": -2.6859468066,
				"z": -1.8848271268,
				"element": "H" 
			},
			{
				"x": -3.8043706608,
				"y": -2.6352270115,
				"z": -0.7179166538,
				"element": "H" 
			},
			{
				"x": 2.9595545246,
				"y": 1.6683510323,
				"z": -1.047375799,
				"element": "H" 
			},
			{
				"x": 2.5824687595,
				"y": -0.53613303,
				"z": 0.8237644987,
				"element": "H" 
			},
			{
				"x": 3.8123588578,
				"y": 2.2663406234,
				"z": 1.1760618305,
				"element": "H" 
			},
			{
				"x": 5.8422231566,
				"y": 0.0706479193,
				"z": 0.5064288889,
				"element": "H" 
			},
			{
				"x": 6.4713252705,
				"y": 0.7363563903,
				"z": 2.9026453211,
				"element": "H" 
			},
			{
				"x": 5.7771895216,
				"y": 2.3477197408,
				"z": 2.62626017,
				"element": "H" 
			},
			{
				"x": 7.23821402,
				"y": 1.8302050446,
				"z": 1.7602517027,
				"element": "H" 
			}
		],
		 "valence_orbital": [ 
			{
				"type": "occ",
				"energy": -0.27083,
				"method": "rhf"
			},
			{
				"type": "occ",
				"energy": -0.25507,
				"method": "rhf"
			},
			{
				"type": "occ",
				"energy": -0.247,
				"method": "rhf"
			},
			{
				"type": "occ",
				"energy": -0.24244,
				"method": "rhf"
			},
			{
				"type": "occ",
				"energy": -0.20284,
				"method": "rhf"
			},
			{
				"type": "unocc",
				"energy": -0.02724,
				"method": "rhf"
			},
			{
				"type": "unocc",
				"energy": -0.0201,
				"method": "rhf"
			},
			{
				"type": "unocc",
				"energy": -0.0041,
				"method": "rhf"
			},
			{
				"type": "unocc",
				"energy": -0.00051,
				"method": "rhf"
			},
			{
				"type": "unocc",
				"energy": 0.03577,
				"method": "rhf"
			}
		],
		"cosmo_sigma_profile": { 
			"-0.025": 0.0,
			"-0.024": 0.0,
			"-0.023": 0.0,
			"-0.022": 0.0,
			"-0.021": 0.0,
			"-0.02": 0.0,
			"-0.019": 0.0,
			"-0.018": 0.0,
			"-0.017": 0.0,
			"-0.016": 0.0,
			"-0.015": 0.118139064819,
			"-0.014": 1.05282082046,
			"-0.013": 1.17874098852,
			"-0.012": 1.14911480342,
			"-0.011": 1.07931776401,
			"-0.01": 1.27836775534,
			"-0.009": 1.71372644807,
			"-0.008": 3.49493959863,
			"-0.007": 6.52776290191,
			"-0.006": 15.3279475169,
			"-0.005": 23.5489177185,
			"-0.004": 27.2362525777,
			"-0.003": 27.3846981591,
			"-0.002": 24.9389748163,
			"-0.001": 23.2702836582,
			"0.0": 23.3187907144,
			"0.001": 19.258581727,
			"0.002": 20.85805941,
			"0.003": 20.7894369795,
			"0.004": 20.983609365,
			"0.005": 10.0689439443,
			"0.006": 6.88718248097,
			"0.007": 2.75894041599,
			"0.008": 2.77250459098,
			"0.009": 3.52072657558,
			"0.01": 3.7322110748,
			"0.011": 2.74396928772,
			"0.012": 2.6159769333,
			"0.013": 3.24423500484,
			"0.014": 3.20763797896,
			"0.015": 2.91768443231,
			"0.016": 1.50678350643,
			"0.017": 0.274944628184,
			"0.018": 0.0,
			"0.019": 0.0,
			"0.02": 0.0,
			"0.021": 0.0,
			"0.022": 0.0,
			"0.023": 0.0,
			"0.024": 0.0,
			"0.025": 0.0
		}
	}
}
