{
	 "smiles": "NC1=CC(=NN1C1=CC(=CC=C1)[N+]([O-])=O)C1=CC=CO1", 
	 "Tm": 459.15, 
	 "num_atms": 30, 
	 "gaussian": { 
		 "optdone": 1, 
		 "sigma_profile": "yes", 
		 "theory": "DFT", 
		 "functional": "B3LYP", 
		 "basiset": "6-31G**", 
		 "properties": { 
			 "R2extent": 7311.8773, 
			 "electric_dipole_moment_norm": 6.14849977474, 
			 "electric_quadrupole_moment_norm": 26.9592316897, 
			 "total_energy": -945.942613322, 
			 "HOMO_LUMO_gap": 0.11346, 
			 "cosmo_polarized_energy": -17.98, 
			 "cosmo_cavitation_energy": 36.34, 
			 "cosmo_dispersion_energy": -26.32, 
			 "cosmo_repulsion_energy": 2.0, 
			 "cosmo_total_nonelectrostatic_energy": 12.02, 
			 "SMD_solvation_energy": 8.71 
		},
		"coords": [
			{
				"x": -0.8981494965,
				"y": -3.2780818978,
				"z": -0.2145921076,
				"element": "N" 
			},
			{
				"x": -0.6187349539,
				"y": -1.9642775939,
				"z": -0.5923482955,
				"element": "C" 
			},
			{
				"x": -0.6101501634,
				"y": -1.3759721356,
				"z": -1.8392886184,
				"element": "C" 
			},
			{
				"x": -0.285947305,
				"y": -0.0139313703,
				"z": -1.5960394746,
				"element": "C" 
			},
			{
				"x": -0.1014643177,
				"y": 0.2328945426,
				"z": -0.3015917196,
				"element": "N" 
			},
			{
				"x": -0.3310662751,
				"y": -0.9698189473,
				"z": 0.3190674093,
				"element": "N" 
			},
			{
				"x": -0.1967930501,
				"y": -1.044721711,
				"z": 1.7239923784,
				"element": "C" 
			},
			{
				"x": 0.6900186301,
				"y": -0.1663303088,
				"z": 2.3582921843,
				"element": "C" 
			},
			{
				"x": 0.8047773647,
				"y": -0.2294489436,
				"z": 3.740946017,
				"element": "C" 
			},
			{
				"x": 0.0826620235,
				"y": -1.1312356303,
				"z": 4.5213889229,
				"element": "C" 
			},
			{
				"x": -0.7999999864,
				"y": -1.9906243388,
				"z": 3.8728008894,
				"element": "C" 
			},
			{
				"x": -0.9539217563,
				"y": -1.9484206259,
				"z": 2.4857376365,
				"element": "C" 
			},
			{
				"x": 1.741773697,
				"y": 0.6943830302,
				"z": 4.4096951428,
				"element": "N" 
			},
			{
				"x": 1.834762549,
				"y": 0.6192092706,
				"z": 5.6344121606,
				"element": "O" 
			},
			{
				"x": 2.3722928788,
				"y": 1.4793931012,
				"z": 3.704769624,
				"element": "O" 
			},
			{
				"x": -0.1462291137,
				"y": 1.0420137492,
				"z": -2.5773096743,
				"element": "C" 
			},
			{
				"x": 0.167059527,
				"y": 2.3720874049,
				"z": -2.4924343569,
				"element": "C" 
			},
			{
				"x": 0.1452660473,
				"y": 2.8782712967,
				"z": -3.8291790897,
				"element": "C" 
			},
			{
				"x": -0.178568208,
				"y": 1.8249130204,
				"z": -4.63099733,
				"element": "C" 
			},
			{
				"x": -0.360049084,
				"y": 0.6976203298,
				"z": -3.8867521521,
				"element": "O" 
			},
			{
				"x": -0.2471983508,
				"y": -3.6558252966,
				"z": 0.4663706947,
				"element": "H" 
			},
			{
				"x": -0.9499659815,
				"y": -3.8896134215,
				"z": -1.0199450539,
				"element": "H" 
			},
			{
				"x": -0.7892723872,
				"y": -1.852454555,
				"z": -2.7905258139,
				"element": "H" 
			},
			{
				"x": 1.260207258,
				"y": 0.5508371289,
				"z": 1.7850076424,
				"element": "H" 
			},
			{
				"x": 0.2149254606,
				"y": -1.138448649,
				"z": 5.5953229788,
				"element": "H" 
			},
			{
				"x": -1.3916128356,
				"y": -2.6921086266,
				"z": 4.4523663629,
				"element": "H" 
			},
			{
				"x": -1.6708328285,
				"y": -2.5964643487,
				"z": 1.9958767416,
				"element": "H" 
			},
			{
				"x": 0.3836154814,
				"y": 2.9108624848,
				"z": -1.5822227523,
				"element": "H" 
			},
			{
				"x": 0.3442898717,
				"y": 3.8911835359,
				"z": -4.1483919348,
				"element": "H" 
			},
			{
				"x": -0.3143946952,
				"y": 1.7119095054,
				"z": -5.6952284119,
				"element": "H" 
			}
		],
		 "valence_orbital": [ 
			{
				"type": "occ",
				"energy": -0.28398,
				"method": "rhf"
			},
			{
				"type": "occ",
				"energy": -0.27646,
				"method": "rhf"
			},
			{
				"type": "occ",
				"energy": -0.25795,
				"method": "rhf"
			},
			{
				"type": "occ",
				"energy": -0.22783,
				"method": "rhf"
			},
			{
				"type": "occ",
				"energy": -0.20226,
				"method": "rhf"
			},
			{
				"type": "unocc",
				"energy": -0.0888,
				"method": "rhf"
			},
			{
				"type": "unocc",
				"energy": -0.04142,
				"method": "rhf"
			},
			{
				"type": "unocc",
				"energy": -0.01103,
				"method": "rhf"
			},
			{
				"type": "unocc",
				"energy": 0.00045,
				"method": "rhf"
			},
			{
				"type": "unocc",
				"energy": 0.04019,
				"method": "rhf"
			}
		],
		"cosmo_sigma_profile": { 
			"-0.025": 0.0,
			"-0.024": 0.0,
			"-0.023": 0.0,
			"-0.022": 0.0,
			"-0.021": 0.0,
			"-0.02": 0.0,
			"-0.019": 0.0,
			"-0.018": 0.0,
			"-0.017": 0.0,
			"-0.016": 0.0,
			"-0.015": 0.0,
			"-0.014": 0.884297937692,
			"-0.013": 2.8378693428,
			"-0.012": 3.09302410328,
			"-0.011": 3.08607421499,
			"-0.01": 3.13341029673,
			"-0.009": 3.85883698456,
			"-0.008": 5.84499480301,
			"-0.007": 13.2842717711,
			"-0.006": 14.2472503544,
			"-0.005": 12.7790834682,
			"-0.004": 15.0980991781,
			"-0.003": 14.638906314,
			"-0.002": 15.8000785767,
			"-0.001": 19.2072068785,
			"0.0": 21.7035536276,
			"0.001": 19.9852675191,
			"0.002": 22.2150376151,
			"0.003": 20.4429561165,
			"0.004": 20.2893335197,
			"0.005": 16.2825992657,
			"0.006": 10.4409864619,
			"0.007": 12.1211764257,
			"0.008": 9.45070754754,
			"0.009": 6.40369166371,
			"0.01": 3.64654992985,
			"0.011": 1.07087120788,
			"0.012": 0.662521771764,
			"0.013": 0.403693499802,
			"0.014": 0.0,
			"0.015": 0.0,
			"0.016": 0.0,
			"0.017": 0.0,
			"0.018": 0.0,
			"0.019": 0.0,
			"0.02": 0.0,
			"0.021": 0.0,
			"0.022": 0.0,
			"0.023": 0.0,
			"0.024": 0.0,
			"0.025": 0.0
		}
	}
}
