{
	 "smiles": "CCCCCCCCOC(=O)CCCCCCC", 
	 "Tm": 255.05, 
	 "num_atms": 50, 
	 "gaussian": { 
		 "optdone": 1, 
		 "sigma_profile": "yes", 
		 "theory": "DFT", 
		 "functional": "B3LYP", 
		 "basiset": "6-31G**", 
		 "properties": { 
			 "R2extent": 11857.9628, 
			 "electric_dipole_moment_norm": 1.62093652251, 
			 "electric_quadrupole_moment_norm": 10.4591979802, 
			 "total_energy": -779.496515562, 
			 "HOMO_LUMO_gap": 0.28284, 
			 "cosmo_polarized_energy": -6.48, 
			 "cosmo_cavitation_energy": 49.92, 
			 "cosmo_dispersion_energy": -33.68, 
			 "cosmo_repulsion_energy": 2.75, 
			 "cosmo_total_nonelectrostatic_energy": 18.99, 
			 "SMD_solvation_energy": 7.79 
		},
		"coords": [
			{
				"x": 0.5561222808,
				"y": 4.7969141779,
				"z": 4.351130873,
				"element": "C" 
			},
			{
				"x": 1.7580767114,
				"y": 4.3363119642,
				"z": 5.1842392326,
				"element": "C" 
			},
			{
				"x": 2.889550721,
				"y": 3.6915108768,
				"z": 4.363619757,
				"element": "C" 
			},
			{
				"x": 2.5282496098,
				"y": 2.3905813608,
				"z": 3.6244456738,
				"element": "C" 
			},
			{
				"x": 2.152332371,
				"y": 1.2226031721,
				"z": 4.5487487703,
				"element": "C" 
			},
			{
				"x": 1.9744869007,
				"y": -0.1268577775,
				"z": 3.8278311633,
				"element": "C" 
			},
			{
				"x": 0.8412478371,
				"y": -0.1974645226,
				"z": 2.7883254404,
				"element": "C" 
			},
			{
				"x": -0.5472922944,
				"y": -0.0176089144,
				"z": 3.3963551463,
				"element": "C" 
			},
			{
				"x": -1.5749968459,
				"y": -0.0710137116,
				"z": 2.3784021117,
				"element": "O" 
			},
			{
				"x": -2.0493955715,
				"y": -1.296798408,
				"z": 2.0558627147,
				"element": "C" 
			},
			{
				"x": -1.6564057987,
				"y": -2.3280829396,
				"z": 2.5612072924,
				"element": "O" 
			},
			{
				"x": -3.1516965555,
				"y": -1.1894212037,
				"z": 1.0175847012,
				"element": "C" 
			},
			{
				"x": -3.499489254,
				"y": -2.5291293183,
				"z": 0.356994907,
				"element": "C" 
			},
			{
				"x": -2.4116193927,
				"y": -3.099812908,
				"z": -0.5685126201,
				"element": "C" 
			},
			{
				"x": -2.151317913,
				"y": -2.2800657054,
				"z": -1.8402117134,
				"element": "C" 
			},
			{
				"x": -1.1079071363,
				"y": -2.9188835519,
				"z": -2.7660825997,
				"element": "C" 
			},
			{
				"x": -0.837129922,
				"y": -2.1090316857,
				"z": -4.0404032703,
				"element": "C" 
			},
			{
				"x": 0.2040620272,
				"y": -2.7565409577,
				"z": -4.9590231621,
				"element": "C" 
			},
			{
				"x": 0.0520138075,
				"y": 3.9586590608,
				"z": 3.8583714733,
				"element": "H" 
			},
			{
				"x": -0.1871317238,
				"y": 5.301803609,
				"z": 4.9769402255,
				"element": "H" 
			},
			{
				"x": 0.8643039614,
				"y": 5.5003002515,
				"z": 3.5686519978,
				"element": "H" 
			},
			{
				"x": 1.4189012648,
				"y": 3.6415652341,
				"z": 5.9632787071,
				"element": "H" 
			},
			{
				"x": 2.172440682,
				"y": 5.2009679872,
				"z": 5.7182699144,
				"element": "H" 
			},
			{
				"x": 3.2486991379,
				"y": 4.4242057507,
				"z": 3.6278696569,
				"element": "H" 
			},
			{
				"x": 3.7387936097,
				"y": 3.4915439397,
				"z": 5.0314619651,
				"element": "H" 
			},
			{
				"x": 3.3905950219,
				"y": 2.0898850416,
				"z": 3.0133680898,
				"element": "H" 
			},
			{
				"x": 1.7149512248,
				"y": 2.585330079,
				"z": 2.914148121,
				"element": "H" 
			},
			{
				"x": 1.2424817807,
				"y": 1.4674346728,
				"z": 5.1115566321,
				"element": "H" 
			},
			{
				"x": 2.9417181811,
				"y": 1.1040039349,
				"z": 5.30364913,
				"element": "H" 
			},
			{
				"x": 2.9157187393,
				"y": -0.3824246659,
				"z": 3.3239131575,
				"element": "H" 
			},
			{
				"x": 1.8130570429,
				"y": -0.9119842038,
				"z": 4.5786182588,
				"element": "H" 
			},
			{
				"x": 0.9864656536,
				"y": 0.555485871,
				"z": 2.00490056,
				"element": "H" 
			},
			{
				"x": 0.8706845207,
				"y": -1.1767125928,
				"z": 2.2988296857,
				"element": "H" 
			},
			{
				"x": -0.6689083325,
				"y": 0.9679721292,
				"z": 3.8517092414,
				"element": "H" 
			},
			{
				"x": -0.7461813302,
				"y": -0.7896532728,
				"z": 4.1448866785,
				"element": "H" 
			},
			{
				"x": -4.0302502492,
				"y": -0.7839359823,
				"z": 1.5372852766,
				"element": "H" 
			},
			{
				"x": -2.8662724739,
				"y": -0.4246337024,
				"z": 0.2882068852,
				"element": "H" 
			},
			{
				"x": -4.4300541899,
				"y": -2.402208741,
				"z": -0.2110279323,
				"element": "H" 
			},
			{
				"x": -3.7075425068,
				"y": -3.2556641233,
				"z": 1.149335443,
				"element": "H" 
			},
			{
				"x": -2.7099252501,
				"y": -4.1154197439,
				"z": -0.8609878538,
				"element": "H" 
			},
			{
				"x": -1.480215461,
				"y": -3.2121639556,
				"z": 0.0000268694,
				"element": "H" 
			},
			{
				"x": -1.8167308959,
				"y": -1.2671332657,
				"z": -1.5767737554,
				"element": "H" 
			},
			{
				"x": -3.095129959,
				"y": -2.1532718308,
				"z": -2.3906418498,
				"element": "H" 
			},
			{
				"x": -0.1662513298,
				"y": -3.0516293725,
				"z": -2.2142427167,
				"element": "H" 
			},
			{
				"x": -1.439483138,
				"y": -3.9299583789,
				"z": -3.0432013198,
				"element": "H" 
			},
			{
				"x": -1.7785227272,
				"y": -1.9755635672,
				"z": -4.5909022264,
				"element": "H" 
			},
			{
				"x": -0.5034362271,
				"y": -1.099557934,
				"z": -3.7633430309,
				"element": "H" 
			},
			{
				"x": 1.1668164981,
				"y": -2.8712372153,
				"z": -4.4477935832,
				"element": "H" 
			},
			{
				"x": 0.3750868982,
				"y": -2.1556449437,
				"z": -5.8583456773,
				"element": "H" 
			},
			{
				"x": -0.1175700051,
				"y": -3.7534700172,
				"z": -5.2816324416,
				"element": "H" 
			}
		],
		 "valence_orbital": [ 
			{
				"type": "occ",
				"energy": -0.31139,
				"method": "rhf"
			},
			{
				"type": "occ",
				"energy": -0.30742,
				"method": "rhf"
			},
			{
				"type": "occ",
				"energy": -0.30232,
				"method": "rhf"
			},
			{
				"type": "occ",
				"energy": -0.2878,
				"method": "rhf"
			},
			{
				"type": "occ",
				"energy": -0.26579,
				"method": "rhf"
			},
			{
				"type": "unocc",
				"energy": 0.01705,
				"method": "rhf"
			},
			{
				"type": "unocc",
				"energy": 0.06582,
				"method": "rhf"
			},
			{
				"type": "unocc",
				"energy": 0.08845,
				"method": "rhf"
			},
			{
				"type": "unocc",
				"energy": 0.09745,
				"method": "rhf"
			},
			{
				"type": "unocc",
				"energy": 0.1,
				"method": "rhf"
			}
		],
		"cosmo_sigma_profile": { 
			"-0.025": 0.0,
			"-0.024": 0.0,
			"-0.023": 0.0,
			"-0.022": 0.0,
			"-0.021": 0.0,
			"-0.02": 0.0,
			"-0.019": 0.0,
			"-0.018": 0.0,
			"-0.017": 0.0,
			"-0.016": 0.0,
			"-0.015": 0.0,
			"-0.014": 0.0,
			"-0.013": 0.0,
			"-0.012": 0.0,
			"-0.011": 0.0,
			"-0.01": 0.0,
			"-0.009": 0.0,
			"-0.008": 0.0,
			"-0.007": 0.0,
			"-0.006": 1.67019429391,
			"-0.005": 4.49126522921,
			"-0.004": 10.8421668023,
			"-0.003": 24.9151197734,
			"-0.002": 61.7216400229,
			"-0.001": 80.0496090539,
			"0.0": 77.0710790382,
			"0.001": 61.9690217707,
			"0.002": 28.3703395282,
			"0.003": 4.81322290496,
			"0.004": 2.98322837518,
			"0.005": 3.78856535451,
			"0.006": 2.62891803383,
			"0.007": 3.15635177496,
			"0.008": 2.70546720493,
			"0.009": 2.61019604049,
			"0.01": 1.98165830673,
			"0.011": 2.29301412775,
			"0.012": 3.56832052487,
			"0.013": 1.46539405605,
			"0.014": 0.0,
			"0.015": 0.0,
			"0.016": 0.0,
			"0.017": 0.0,
			"0.018": 0.0,
			"0.019": 0.0,
			"0.02": 0.0,
			"0.021": 0.0,
			"0.022": 0.0,
			"0.023": 0.0,
			"0.024": 0.0,
			"0.025": 0.0
		}
	}
}
