{
	 "smiles": "NC1=C(I)C=CC(Br)=C1", 
	 "Tm": 323.15, 
	 "num_atms": 14, 
	 "gaussian": { 
		 "optdone": 1, 
		 "sigma_profile": "yes", 
		 "theory": "DFT", 
		 "functional": "B3LYP", 
		 "basiset": "6-31G**", 
		 "properties": { 
			 "R2extent": 2941.5158, 
			 "electric_dipole_moment_norm": 1.88481757473, 
			 "electric_quadrupole_moment_norm": 13.2157103286, 
			 "total_energy": -2869.19604436, 
			 "HOMO_LUMO_gap": 0.17566, 
			 "cosmo_polarized_energy": -7.66, 
			 "cosmo_cavitation_energy": 23.3, 
			 "cosmo_dispersion_energy": -19.34, 
			 "cosmo_repulsion_energy": 1.54, 
			 "cosmo_total_nonelectrostatic_energy": 5.5, 
			 "SMD_solvation_energy": 1.91 
		},
		"coords": [
			{
				"x": -0.2422285754,
				"y": 2.9523870775,
				"z": -0.9577822376,
				"element": "N" 
			},
			{
				"x": -0.1475297191,
				"y": 1.7555041836,
				"z": -0.2739080796,
				"element": "C" 
			},
			{
				"x": -0.0013134792,
				"y": 0.5100200151,
				"z": -0.9204826185,
				"element": "C" 
			},
			{
				"x": -0.0141267238,
				"y": 0.3965122406,
				"z": -3.0414059182,
				"element": "I" 
			},
			{
				"x": 0.1472893504,
				"y": -0.6701152431,
				"z": -0.1932940976,
				"element": "C" 
			},
			{
				"x": 0.1550979342,
				"y": -0.6551780683,
				"z": 1.2005401377,
				"element": "C" 
			},
			{
				"x": 0.0080738979,
				"y": 0.5727981701,
				"z": 1.8436967214,
				"element": "C" 
			},
			{
				"x": 0.0087674473,
				"y": 0.633278423,
				"z": 3.7542689668,
				"element": "Br" 
			},
			{
				"x": -0.141617454,
				"y": 1.7566336175,
				"z": 1.1371124214,
				"element": "C" 
			},
			{
				"x": -0.6360187323,
				"y": 3.7280579375,
				"z": -0.4462781413,
				"element": "H" 
			},
			{
				"x": -0.5374665863,
				"y": 2.9039539312,
				"z": -1.9228385941,
				"element": "H" 
			},
			{
				"x": 0.2564406369,
				"y": -1.6133275673,
				"z": -0.7169428266,
				"element": "H" 
			},
			{
				"x": 0.2705536428,
				"y": -1.5719910024,
				"z": 1.7649539619,
				"element": "H" 
			},
			{
				"x": -0.2487216393,
				"y": 2.6973662851,
				"z": 1.6666603042,
				"element": "H" 
			}
		],
		 "valence_orbital": [ 
			{
				"type": "occ",
				"energy": -0.28936,
				"method": "rhf"
			},
			{
				"type": "occ",
				"energy": -0.28112,
				"method": "rhf"
			},
			{
				"type": "occ",
				"energy": -0.27767,
				"method": "rhf"
			},
			{
				"type": "occ",
				"energy": -0.24364,
				"method": "rhf"
			},
			{
				"type": "occ",
				"energy": -0.21864,
				"method": "rhf"
			},
			{
				"type": "unocc",
				"energy": -0.04298,
				"method": "rhf"
			},
			{
				"type": "unocc",
				"energy": -0.02252,
				"method": "rhf"
			},
			{
				"type": "unocc",
				"energy": -0.00443,
				"method": "rhf"
			},
			{
				"type": "unocc",
				"energy": 0.00522,
				"method": "rhf"
			},
			{
				"type": "unocc",
				"energy": 0.03422,
				"method": "rhf"
			}
		],
		"cosmo_sigma_profile": { 
			"-0.025": 0.0,
			"-0.024": 0.0,
			"-0.023": 0.0,
			"-0.022": 0.0,
			"-0.021": 0.0,
			"-0.02": 0.0,
			"-0.019": 0.0,
			"-0.018": 0.0,
			"-0.017": 0.0,
			"-0.016": 0.0,
			"-0.015": 0.0,
			"-0.014": 0.514543599202,
			"-0.013": 1.62154092845,
			"-0.012": 1.91951855902,
			"-0.011": 2.2846060895,
			"-0.01": 2.29114134559,
			"-0.009": 2.82112675435,
			"-0.008": 3.22097193313,
			"-0.007": 5.51010795438,
			"-0.006": 7.7627745468,
			"-0.005": 8.64228111235,
			"-0.004": 8.10226121509,
			"-0.003": 9.22068089071,
			"-0.002": 9.33989886454,
			"-0.001": 9.28152582384,
			"0.0": 11.2507022122,
			"0.001": 14.671422542,
			"0.002": 23.0180042824,
			"0.003": 27.3480099402,
			"0.004": 29.7636745997,
			"0.005": 11.4812215199,
			"0.006": 1.08337919484,
			"0.007": 0.520842559863,
			"0.008": 0.465185854938,
			"0.009": 0.978224912167,
			"0.01": 0.494201389092,
			"0.011": 0.633229696698,
			"0.012": 0.498945573526,
			"0.013": 0.155709012556,
			"0.014": 0.0,
			"0.015": 0.0,
			"0.016": 0.0,
			"0.017": 0.0,
			"0.018": 0.0,
			"0.019": 0.0,
			"0.02": 0.0,
			"0.021": 0.0,
			"0.022": 0.0,
			"0.023": 0.0,
			"0.024": 0.0,
			"0.025": 0.0
		}
	}
}
