{
	 "smiles": "FC1=CC=C(C=C1)N1C(=O)CSC1=S", 
	 "Tm": 411.15, 
	 "num_atms": 20, 
	 "gaussian": { 
		 "optdone": 1, 
		 "sigma_profile": "yes", 
		 "theory": "DFT", 
		 "functional": "B3LYP", 
		 "basiset": "6-31G**", 
		 "properties": { 
			 "R2extent": 3742.9082, 
			 "electric_dipole_moment_norm": 2.26637404018, 
			 "electric_quadrupole_moment_norm": 14.4552855112, 
			 "total_energy": -1372.76493889, 
			 "HOMO_LUMO_gap": 0.16017, 
			 "cosmo_polarized_energy": -13.53, 
			 "cosmo_cavitation_energy": 28.93, 
			 "cosmo_dispersion_energy": -21.11, 
			 "cosmo_repulsion_energy": 1.57, 
			 "cosmo_total_nonelectrostatic_energy": 9.39, 
			 "SMD_solvation_energy": 5.06 
		},
		"coords": [
			{
				"x": 1.4488697489,
				"y": 2.0157858319,
				"z": -4.3740531158,
				"element": "F" 
			},
			{
				"x": 1.0979740109,
				"y": 1.513811745,
				"z": -3.175332098,
				"element": "C" 
			},
			{
				"x": -0.027745221,
				"y": 2.0233855879,
				"z": -2.5370655133,
				"element": "C" 
			},
			{
				"x": -0.3859104561,
				"y": 1.5017658386,
				"z": -1.2958144672,
				"element": "C" 
			},
			{
				"x": 0.381375782,
				"y": 0.4871678152,
				"z": -0.7232950579,
				"element": "C" 
			},
			{
				"x": 1.5054005962,
				"y": -0.016844269,
				"z": -1.3789530545,
				"element": "C" 
			},
			{
				"x": 1.8732243527,
				"y": 0.5018502143,
				"z": -2.6179588867,
				"element": "C" 
			},
			{
				"x": -0.011038498,
				"y": -0.0664124146,
				"z": 0.5476074882,
				"element": "N" 
			},
			{
				"x": -1.0878709801,
				"y": -0.9714840825,
				"z": 0.6082118354,
				"element": "C" 
			},
			{
				"x": -1.733045816,
				"y": -1.3245604084,
				"z": -0.3510234935,
				"element": "O" 
			},
			{
				"x": -1.32992353,
				"y": -1.4419592065,
				"z": 2.0357284475,
				"element": "C" 
			},
			{
				"x": -0.101688887,
				"y": -0.6038371736,
				"z": 3.0960213104,
				"element": "S" 
			},
			{
				"x": 0.6299603905,
				"y": 0.2650598321,
				"z": 1.7364710617,
				"element": "C" 
			},
			{
				"x": 1.8856230302,
				"y": 1.3064998569,
				"z": 1.9223547143,
				"element": "S" 
			},
			{
				"x": -0.6031504156,
				"y": 2.811159218,
				"z": -3.0098320987,
				"element": "H" 
			},
			{
				"x": -1.2578209908,
				"y": 1.8803857046,
				"z": -0.7735154032,
				"element": "H" 
			},
			{
				"x": 2.090666167,
				"y": -0.80553629,
				"z": -0.9189824219,
				"element": "H" 
			},
			{
				"x": 2.7424836426,
				"y": 0.1351594949,
				"z": -3.1519387739,
				"element": "H" 
			},
			{
				"x": -2.3504911103,
				"y": -1.1866300068,
				"z": 2.3315284148,
				"element": "H" 
			},
			{
				"x": -1.2173918162,
				"y": -2.5281672877,
				"z": 2.0792411123,
				"element": "H" 
			}
		],
		 "valence_orbital": [ 
			{
				"type": "occ",
				"energy": -0.28562,
				"method": "rhf"
			},
			{
				"type": "occ",
				"energy": -0.27608,
				"method": "rhf"
			},
			{
				"type": "occ",
				"energy": -0.26075,
				"method": "rhf"
			},
			{
				"type": "occ",
				"energy": -0.24999,
				"method": "rhf"
			},
			{
				"type": "occ",
				"energy": -0.23195,
				"method": "rhf"
			},
			{
				"type": "unocc",
				"energy": -0.07178,
				"method": "rhf"
			},
			{
				"type": "unocc",
				"energy": -0.02622,
				"method": "rhf"
			},
			{
				"type": "unocc",
				"energy": -0.02531,
				"method": "rhf"
			},
			{
				"type": "unocc",
				"energy": -0.00418,
				"method": "rhf"
			},
			{
				"type": "unocc",
				"energy": 0.00376,
				"method": "rhf"
			}
		],
		"cosmo_sigma_profile": { 
			"-0.025": 0.0,
			"-0.024": 0.0,
			"-0.023": 0.0,
			"-0.022": 0.0,
			"-0.021": 0.0,
			"-0.02": 0.0,
			"-0.019": 0.0,
			"-0.018": 0.0,
			"-0.017": 0.0,
			"-0.016": 0.0,
			"-0.015": 0.0,
			"-0.014": 0.0,
			"-0.013": 0.0,
			"-0.012": 0.0,
			"-0.011": 0.091767379401,
			"-0.01": 3.85094544956,
			"-0.009": 6.48454576109,
			"-0.008": 13.1090999019,
			"-0.007": 16.1955200708,
			"-0.006": 14.8428120814,
			"-0.005": 10.0180467761,
			"-0.004": 8.35727809733,
			"-0.003": 7.86638767574,
			"-0.002": 7.94177677471,
			"-0.001": 9.52886193691,
			"0.0": 15.9512280643,
			"0.001": 18.1740309355,
			"0.002": 19.0690001781,
			"0.003": 19.9503652995,
			"0.004": 19.9340955305,
			"0.005": 10.6249114511,
			"0.006": 9.15201749954,
			"0.007": 6.47641614104,
			"0.008": 7.20064215665,
			"0.009": 4.8296292625,
			"0.01": 4.55471952679,
			"0.011": 3.65209449182,
			"0.012": 0.14916805485,
			"0.013": 0.0,
			"0.014": 0.0,
			"0.015": 0.0,
			"0.016": 0.0,
			"0.017": 0.0,
			"0.018": 0.0,
			"0.019": 0.0,
			"0.02": 0.0,
			"0.021": 0.0,
			"0.022": 0.0,
			"0.023": 0.0,
			"0.024": 0.0,
			"0.025": 0.0
		}
	}
}
