{
	 "smiles": "CCN(CC)C(=O)C1=C(C=CC=C1)C(=O)N(CC)CC", 
	 "Tm": 309.15, 
	 "num_atms": 44, 
	 "gaussian": { 
		 "optdone": 1, 
		 "sigma_profile": "yes", 
		 "theory": "DFT", 
		 "functional": "B3LYP", 
		 "basiset": "6-31G**", 
		 "properties": { 
			 "R2extent": 6233.8017, 
			 "electric_dipole_moment_norm": 1.76364311583, 
			 "electric_quadrupole_moment_norm": 12.6568636542, 
			 "total_energy": -884.160153661, 
			 "HOMO_LUMO_gap": 0.20809, 
			 "cosmo_polarized_energy": -15.14, 
			 "cosmo_cavitation_energy": 44.51, 
			 "cosmo_dispersion_energy": -28.58, 
			 "cosmo_repulsion_energy": 2.22, 
			 "cosmo_total_nonelectrostatic_energy": 18.15, 
			 "SMD_solvation_energy": 7.79 
		},
		"coords": [
			{
				"x": -2.5010508773,
				"y": 1.1100667958,
				"z": 4.2717398011,
				"element": "C" 
			},
			{
				"x": -1.4559126714,
				"y": 1.5116524995,
				"z": 3.229200482,
				"element": "C" 
			},
			{
				"x": -1.9820117668,
				"y": 1.5633831825,
				"z": 1.8608465189,
				"element": "N" 
			},
			{
				"x": -2.798348311,
				"y": 2.724353666,
				"z": 1.4737221479,
				"element": "C" 
			},
			{
				"x": -4.2503693954,
				"y": 2.3620462064,
				"z": 1.1531043508,
				"element": "C" 
			},
			{
				"x": -1.5219735573,
				"y": 0.770632845,
				"z": 0.8501163422,
				"element": "C" 
			},
			{
				"x": -1.7720984719,
				"y": 1.0013271912,
				"z": -0.3357409883,
				"element": "O" 
			},
			{
				"x": -0.7336965913,
				"y": -0.4679644596,
				"z": 1.2152523459,
				"element": "C" 
			},
			{
				"x": 0.6363626063,
				"y": -0.5476844649,
				"z": 0.9119974092,
				"element": "C" 
			},
			{
				"x": 1.3295335713,
				"y": -1.7365499792,
				"z": 1.1660058725,
				"element": "C" 
			},
			{
				"x": 0.6682861391,
				"y": -2.8467752104,
				"z": 1.694041909,
				"element": "C" 
			},
			{
				"x": -0.6963397294,
				"y": -2.7737509736,
				"z": 1.9737873684,
				"element": "C" 
			},
			{
				"x": -1.3921740693,
				"y": -1.5872307358,
				"z": 1.7352597963,
				"element": "C" 
			},
			{
				"x": 1.3659602572,
				"y": 0.7098110715,
				"z": 0.4981100401,
				"element": "C" 
			},
			{
				"x": 1.4273326597,
				"y": 1.6422957596,
				"z": 1.3046123988,
				"element": "O" 
			},
			{
				"x": 1.9639009622,
				"y": 0.762410728,
				"z": -0.7277877288,
				"element": "N" 
			},
			{
				"x": 1.7200701033,
				"y": -0.2110462342,
				"z": -1.8006861908,
				"element": "C" 
			},
			{
				"x": 0.6218195003,
				"y": 0.1987675159,
				"z": -2.788765941,
				"element": "C" 
			},
			{
				"x": 2.7282402335,
				"y": 1.9804392912,
				"z": -1.0406268483,
				"element": "C" 
			},
			{
				"x": 1.8761335379,
				"y": 3.2122733949,
				"z": -1.3663952916,
				"element": "C" 
			},
			{
				"x": -2.0571467325,
				"y": 1.1197859626,
				"z": 5.2728578686,
				"element": "H" 
			},
			{
				"x": -2.8824567147,
				"y": 0.1029692578,
				"z": 4.0766526884,
				"element": "H" 
			},
			{
				"x": -3.3516528804,
				"y": 1.7995354835,
				"z": 4.2775616026,
				"element": "H" 
			},
			{
				"x": -0.6113693794,
				"y": 0.8229775889,
				"z": 3.2447004055,
				"element": "H" 
			},
			{
				"x": -1.0441722186,
				"y": 2.5001393341,
				"z": 3.468306352,
				"element": "H" 
			},
			{
				"x": -2.7557180922,
				"y": 3.4408045739,
				"z": 2.2994154993,
				"element": "H" 
			},
			{
				"x": -2.3349221097,
				"y": 3.18932469,
				"z": 0.5980419531,
				"element": "H" 
			},
			{
				"x": -4.810936282,
				"y": 3.2615018272,
				"z": 0.8764023455,
				"element": "H" 
			},
			{
				"x": -4.7465955743,
				"y": 1.9007631024,
				"z": 2.0128617907,
				"element": "H" 
			},
			{
				"x": -4.2859385795,
				"y": 1.6660111654,
				"z": 0.3119503729,
				"element": "H" 
			},
			{
				"x": 2.3950041524,
				"y": -1.7867412798,
				"z": 0.9587680625,
				"element": "H" 
			},
			{
				"x": 1.2188303683,
				"y": -3.7624972921,
				"z": 1.8886945625,
				"element": "H" 
			},
			{
				"x": -1.219146115,
				"y": -3.6360571058,
				"z": 2.3771043212,
				"element": "H" 
			},
			{
				"x": -2.456187382,
				"y": -1.5285268536,
				"z": 1.9462364815,
				"element": "H" 
			},
			{
				"x": 1.4511721532,
				"y": -1.162813931,
				"z": -1.341974239,
				"element": "H" 
			},
			{
				"x": 2.6707407946,
				"y": -0.3689229103,
				"z": -2.3247474193,
				"element": "H" 
			},
			{
				"x": 0.4590660683,
				"y": -0.6082783157,
				"z": -3.5119501579,
				"element": "H" 
			},
			{
				"x": 0.8956125684,
				"y": 1.096472213,
				"z": -3.3508578707,
				"element": "H" 
			},
			{
				"x": -0.3137264235,
				"y": 0.3900805909,
				"z": -2.2556333157,
				"element": "H" 
			},
			{
				"x": 3.3550134053,
				"y": 2.2024016208,
				"z": -0.1721865483,
				"element": "H" 
			},
			{
				"x": 3.3893617744,
				"y": 1.7356562871,
				"z": -1.87865583,
				"element": "H" 
			},
			{
				"x": 2.5293169369,
				"y": 4.0703117303,
				"z": -1.5603969694,
				"element": "H" 
			},
			{
				"x": 1.2493833486,
				"y": 3.0555201251,
				"z": -2.2479237259,
				"element": "H" 
			},
			{
				"x": 1.2330027838,
				"y": 3.4532240455,
				"z": -0.5182220244,
				"element": "H" 
			}
		],
		 "valence_orbital": [ 
			{
				"type": "occ",
				"energy": -0.26221,
				"method": "rhf"
			},
			{
				"type": "occ",
				"energy": -0.24411,
				"method": "rhf"
			},
			{
				"type": "occ",
				"energy": -0.23688,
				"method": "rhf"
			},
			{
				"type": "occ",
				"energy": -0.23132,
				"method": "rhf"
			},
			{
				"type": "occ",
				"energy": -0.22818,
				"method": "rhf"
			},
			{
				"type": "unocc",
				"energy": -0.02009,
				"method": "rhf"
			},
			{
				"type": "unocc",
				"energy": -0.01328,
				"method": "rhf"
			},
			{
				"type": "unocc",
				"energy": 0.03261,
				"method": "rhf"
			},
			{
				"type": "unocc",
				"energy": 0.03632,
				"method": "rhf"
			},
			{
				"type": "unocc",
				"energy": 0.08502,
				"method": "rhf"
			}
		],
		"cosmo_sigma_profile": { 
			"-0.025": 0.0,
			"-0.024": 0.0,
			"-0.023": 0.0,
			"-0.022": 0.0,
			"-0.021": 0.0,
			"-0.02": 0.0,
			"-0.019": 0.0,
			"-0.018": 0.0,
			"-0.017": 0.0,
			"-0.016": 0.0,
			"-0.015": 0.0,
			"-0.014": 0.0,
			"-0.013": 0.0,
			"-0.012": 0.0,
			"-0.011": 0.0,
			"-0.01": 0.0,
			"-0.009": 0.0,
			"-0.008": 0.0,
			"-0.007": 1.7794638499,
			"-0.006": 9.52239977335,
			"-0.005": 19.7774425573,
			"-0.004": 32.0934949651,
			"-0.003": 44.9163620561,
			"-0.002": 45.8654750443,
			"-0.001": 35.535020825,
			"0.0": 35.52429205,
			"0.001": 33.4484261635,
			"0.002": 17.945153499,
			"0.003": 13.3449767707,
			"0.004": 13.4070567248,
			"0.005": 8.42617931002,
			"0.006": 5.62478430683,
			"0.007": 4.72077560017,
			"0.008": 4.69922651216,
			"0.009": 3.88652584558,
			"0.01": 2.90792843104,
			"0.011": 4.34126394121,
			"0.012": 2.94604850358,
			"0.013": 4.67138652123,
			"0.014": 3.03752061462,
			"0.015": 0.00191285341999,
			"0.016": 0.0,
			"0.017": 0.0,
			"0.018": 0.0,
			"0.019": 0.0,
			"0.02": 0.0,
			"0.021": 0.0,
			"0.022": 0.0,
			"0.023": 0.0,
			"0.024": 0.0,
			"0.025": 0.0
		}
	}
}
