{
	 "smiles": "ClC1=CC=C(CC(=CCN2CCCC2)C2=CC=CC=C2)C=C1", 
	 "Tm": 321.65, 
	 "num_atms": 44, 
	 "gaussian": { 
		 "optdone": 1, 
		 "sigma_profile": "yes", 
		 "theory": "DFT", 
		 "functional": "B3LYP", 
		 "basiset": "6-31G**", 
		 "properties": { 
			 "R2extent": 10646.5891, 
			 "electric_dipole_moment_norm": 1.96262366235, 
			 "electric_quadrupole_moment_norm": 21.5350654327, 
			 "total_energy": -1290.30850099, 
			 "HOMO_LUMO_gap": 0.18192, 
			 "cosmo_polarized_energy": -8.86, 
			 "cosmo_cavitation_energy": 47.61, 
			 "cosmo_dispersion_energy": -31.34, 
			 "cosmo_repulsion_energy": 2.45, 
			 "cosmo_total_nonelectrostatic_energy": 18.72, 
			 "SMD_solvation_energy": 3.94 
		},
		"coords": [
			{
				"x": -2.9738599897,
				"y": 6.7732516196,
				"z": 0.4284201695,
				"element": "Cl" 
			},
			{
				"x": -2.2345543209,
				"y": 5.2468120939,
				"z": -0.0428580603,
				"element": "C" 
			},
			{
				"x": -0.9737116881,
				"y": 4.9132471997,
				"z": 0.4527825237,
				"element": "C" 
			},
			{
				"x": -0.3962425208,
				"y": 3.7028851722,
				"z": 0.0745666929,
				"element": "C" 
			},
			{
				"x": -1.0538470294,
				"y": 2.8213702074,
				"z": -0.7944596685,
				"element": "C" 
			},
			{
				"x": -0.3988562249,
				"y": 1.5100972902,
				"z": -1.2017522735,
				"element": "C" 
			},
			{
				"x": -0.1857151504,
				"y": 0.5494166358,
				"z": -0.0382815692,
				"element": "C" 
			},
			{
				"x": 1.0569526795,
				"y": 0.2442919012,
				"z": 0.3787550296,
				"element": "C" 
			},
			{
				"x": 1.4539627176,
				"y": -0.7232893483,
				"z": 1.4744131639,
				"element": "C" 
			},
			{
				"x": 2.307862043,
				"y": -1.8554556502,
				"z": 1.0857453187,
				"element": "N" 
			},
			{
				"x": 1.7416625985,
				"y": -2.7655617904,
				"z": 0.0828525601,
				"element": "C" 
			},
			{
				"x": 2.279663204,
				"y": -2.3142275829,
				"z": -1.2999900063,
				"element": "C" 
			},
			{
				"x": 3.6028413788,
				"y": -1.5720084951,
				"z": -0.9707551763,
				"element": "C" 
			},
			{
				"x": 3.6491555954,
				"y": -1.5286671688,
				"z": 0.5865086973,
				"element": "C" 
			},
			{
				"x": -1.4261161264,
				"y": 0.0074729622,
				"z": 0.5955715059,
				"element": "C" 
			},
			{
				"x": -2.3324931538,
				"y": -0.7601502616,
				"z": -0.1552626708,
				"element": "C" 
			},
			{
				"x": -3.4976421843,
				"y": -1.2623990413,
				"z": 0.4236357304,
				"element": "C" 
			},
			{
				"x": -3.7868261793,
				"y": -0.9962799506,
				"z": 1.7637610777,
				"element": "C" 
			},
			{
				"x": -2.9015274693,
				"y": -0.2263627267,
				"z": 2.5190542219,
				"element": "C" 
			},
			{
				"x": -1.7334366441,
				"y": 0.2716256973,
				"z": 1.9395619939,
				"element": "C" 
			},
			{
				"x": -2.3177912596,
				"y": 3.1831937499,
				"z": -1.2717420207,
				"element": "C" 
			},
			{
				"x": -2.9156752682,
				"y": 4.3901831577,
				"z": -0.9037546589,
				"element": "C" 
			},
			{
				"x": -0.4560567575,
				"y": 5.5913703935,
				"z": 1.1224515052,
				"element": "H" 
			},
			{
				"x": 0.5819739881,
				"y": 3.4363883528,
				"z": 0.4661239056,
				"element": "H" 
			},
			{
				"x": 0.5697625583,
				"y": 1.715921839,
				"z": -1.6724762278,
				"element": "H" 
			},
			{
				"x": -1.0229441452,
				"y": 1.0309945684,
				"z": -1.9660703074,
				"element": "H" 
			},
			{
				"x": 1.888476094,
				"y": 0.7140750894,
				"z": -0.1486472748,
				"element": "H" 
			},
			{
				"x": 1.9959709749,
				"y": -0.1759381622,
				"z": 2.2576516383,
				"element": "H" 
			},
			{
				"x": 0.5597995252,
				"y": -1.1354677476,
				"z": 1.9498649684,
				"element": "H" 
			},
			{
				"x": 2.0892149131,
				"y": -3.7852586884,
				"z": 0.3009286767,
				"element": "H" 
			},
			{
				"x": 0.649606403,
				"y": -2.7722376792,
				"z": 0.1409144626,
				"element": "H" 
			},
			{
				"x": 2.4304559592,
				"y": -3.1610801746,
				"z": -1.9768914472,
				"element": "H" 
			},
			{
				"x": 1.5686867142,
				"y": -1.6345825089,
				"z": -1.7782880506,
				"element": "H" 
			},
			{
				"x": 4.4780892828,
				"y": -2.0893596238,
				"z": -1.3761195467,
				"element": "H" 
			},
			{
				"x": 3.6027656636,
				"y": -0.5644451827,
				"z": -1.3985067426,
				"element": "H" 
			},
			{
				"x": 4.3537212248,
				"y": -2.2890422542,
				"z": 0.9507095564,
				"element": "H" 
			},
			{
				"x": 3.9853506129,
				"y": -0.5657068738,
				"z": 0.9833633936,
				"element": "H" 
			},
			{
				"x": -2.1138754214,
				"y": -0.9804435752,
				"z": -1.1969524744,
				"element": "H" 
			},
			{
				"x": -4.1793562112,
				"y": -1.8635114409,
				"z": -0.1716549193,
				"element": "H" 
			},
			{
				"x": -4.6961154531,
				"y": -1.3838656148,
				"z": 2.2139801665,
				"element": "H" 
			},
			{
				"x": -3.1211108036,
				"y": -0.0073686469,
				"z": 3.5602086201,
				"element": "H" 
			},
			{
				"x": -1.0555490672,
				"y": 0.884446241,
				"z": 2.5260930166,
				"element": "H" 
			},
			{
				"x": -2.8497525262,
				"y": 2.5137115198,
				"z": -1.9424324872,
				"element": "H" 
			},
			{
				"x": -3.8964185362,
				"y": 4.6610544984,
				"z": -1.279023013,
				"element": "H" 
			}
		],
		 "valence_orbital": [ 
			{
				"type": "occ",
				"energy": -0.25978,
				"method": "rhf"
			},
			{
				"type": "occ",
				"energy": -0.25216,
				"method": "rhf"
			},
			{
				"type": "occ",
				"energy": -0.24012,
				"method": "rhf"
			},
			{
				"type": "occ",
				"energy": -0.23245,
				"method": "rhf"
			},
			{
				"type": "occ",
				"energy": -0.20014,
				"method": "rhf"
			},
			{
				"type": "unocc",
				"energy": -0.01822,
				"method": "rhf"
			},
			{
				"type": "unocc",
				"energy": -0.0133,
				"method": "rhf"
			},
			{
				"type": "unocc",
				"energy": -0.00773,
				"method": "rhf"
			},
			{
				"type": "unocc",
				"energy": -0.00274,
				"method": "rhf"
			},
			{
				"type": "unocc",
				"energy": 0.02696,
				"method": "rhf"
			}
		],
		"cosmo_sigma_profile": { 
			"-0.025": 0.0,
			"-0.024": 0.0,
			"-0.023": 0.0,
			"-0.022": 0.0,
			"-0.021": 0.0,
			"-0.02": 0.0,
			"-0.019": 0.0,
			"-0.018": 0.0,
			"-0.017": 0.0,
			"-0.016": 0.0,
			"-0.015": 0.0,
			"-0.014": 0.0,
			"-0.013": 0.0,
			"-0.012": 0.0,
			"-0.011": 0.0,
			"-0.01": 0.0,
			"-0.009": 0.0,
			"-0.008": 0.0487709006626,
			"-0.007": 2.237901872,
			"-0.006": 9.75456657772,
			"-0.005": 21.3653450531,
			"-0.004": 28.9243085828,
			"-0.003": 33.2304042839,
			"-0.002": 38.9176316639,
			"-0.001": 45.3794423979,
			"0.0": 40.8774704964,
			"0.001": 36.9826992346,
			"0.002": 30.2497564077,
			"0.003": 25.1530269047,
			"0.004": 28.0570679819,
			"0.005": 22.142488886,
			"0.006": 7.41188375104,
			"0.007": 1.02687146599,
			"0.008": 1.13499263532,
			"0.009": 0.888729856128,
			"0.01": 0.531186891304,
			"0.011": 0.603566652665,
			"0.012": 0.572768992938,
			"0.013": 0.864621542672,
			"0.014": 0.165820322669,
			"0.015": 0.583446593191,
			"0.016": 0.448180047382,
			"0.017": 0.40400671597,
			"0.018": 0.00931908659774,
			"0.019": 0.0,
			"0.02": 0.0,
			"0.021": 0.0,
			"0.022": 0.0,
			"0.023": 0.0,
			"0.024": 0.0,
			"0.025": 0.0
		}
	}
}
