{
	 "smiles": "CC(C)(Br)C(O)=O", 
	 "Tm": 319.35, 
	 "num_atms": 14, 
	 "gaussian": { 
		 "optdone": 1, 
		 "sigma_profile": "yes", 
		 "theory": "DFT", 
		 "functional": "B3LYP", 
		 "basiset": "6-31G**", 
		 "properties": { 
			 "R2extent": 1216.6032, 
			 "electric_dipole_moment_norm": 2.68818902795, 
			 "electric_quadrupole_moment_norm": 9.03146056848, 
			 "total_energy": -2878.51595155, 
			 "HOMO_LUMO_gap": 0.24301, 
			 "cosmo_polarized_energy": -8.67, 
			 "cosmo_cavitation_energy": 19.3, 
			 "cosmo_dispersion_energy": -14.47, 
			 "cosmo_repulsion_energy": 1.21, 
			 "cosmo_total_nonelectrostatic_energy": 6.05, 
			 "SMD_solvation_energy": 3.74 
		},
		"coords": [
			{
				"x": 0.2772351961,
				"y": -0.9921203549,
				"z": -0.9833100363,
				"element": "C" 
			},
			{
				"x": 0.5773208944,
				"y": -0.0113339836,
				"z": 0.1506445066,
				"element": "C" 
			},
			{
				"x": 1.8316662759,
				"y": 0.8234484424,
				"z": -0.1094885676,
				"element": "C" 
			},
			{
				"x": -0.9941135069,
				"y": 1.2788492945,
				"z": 0.2655122856,
				"element": "Br" 
			},
			{
				"x": 0.7451297513,
				"y": -0.7931270991,
				"z": 1.476810421,
				"element": "C" 
			},
			{
				"x": -0.0890381351,
				"y": -0.5682847021,
				"z": 2.4965154663,
				"element": "O" 
			},
			{
				"x": 1.6437078732,
				"y": -1.5985324456,
				"z": 1.5498830607,
				"element": "O" 
			},
			{
				"x": 0.2034036581,
				"y": -0.4642267632,
				"z": -1.9367231414,
				"element": "H" 
			},
			{
				"x": -0.6545861319,
				"y": -1.535060507,
				"z": -0.8092741502,
				"element": "H" 
			},
			{
				"x": 1.096771705,
				"y": -1.714972723,
				"z": -1.0338499503,
				"element": "H" 
			},
			{
				"x": 1.7527806992,
				"y": 1.3454744093,
				"z": -1.0657203274,
				"element": "H" 
			},
			{
				"x": 2.6908895412,
				"y": 0.1469445854,
				"z": -0.1377223841,
				"element": "H" 
			},
			{
				"x": 1.9953772301,
				"y": 1.5600727781,
				"z": 0.6804215685,
				"element": "H" 
			},
			{
				"x": -0.7386450505,
				"y": 0.1122690687,
				"z": 2.2389012485,
				"element": "H" 
			}
		],
		 "valence_orbital": [ 
			{
				"type": "occ",
				"energy": -0.35861,
				"method": "rhf"
			},
			{
				"type": "occ",
				"energy": -0.32375,
				"method": "rhf"
			},
			{
				"type": "occ",
				"energy": -0.31449,
				"method": "rhf"
			},
			{
				"type": "occ",
				"energy": -0.29673,
				"method": "rhf"
			},
			{
				"type": "occ",
				"energy": -0.2767,
				"method": "rhf"
			},
			{
				"type": "unocc",
				"energy": -0.03369,
				"method": "rhf"
			},
			{
				"type": "unocc",
				"energy": -0.00259,
				"method": "rhf"
			},
			{
				"type": "unocc",
				"energy": 0.07875,
				"method": "rhf"
			},
			{
				"type": "unocc",
				"energy": 0.11141,
				"method": "rhf"
			},
			{
				"type": "unocc",
				"energy": 0.12414,
				"method": "rhf"
			}
		],
		"cosmo_sigma_profile": { 
			"-0.025": 0.0,
			"-0.024": 0.0,
			"-0.023": 0.0,
			"-0.022": 0.0,
			"-0.021": 0.0,
			"-0.02": 0.0,
			"-0.019": 0.0,
			"-0.018": 0.0,
			"-0.017": 0.0,
			"-0.016": 0.0,
			"-0.015": 0.0,
			"-0.014": 0.28594392531,
			"-0.013": 0.673153667571,
			"-0.012": 0.411111784648,
			"-0.011": 0.598137478715,
			"-0.01": 1.15412127874,
			"-0.009": 0.701816607747,
			"-0.008": 2.63320306757,
			"-0.007": 3.73455538416,
			"-0.006": 6.44768872354,
			"-0.005": 13.2507413137,
			"-0.004": 12.5353319313,
			"-0.003": 13.0835473042,
			"-0.002": 16.5135107459,
			"-0.001": 14.8983763821,
			"0.0": 8.25592520907,
			"0.001": 6.83559553711,
			"0.002": 7.12690572394,
			"0.003": 7.30037688757,
			"0.004": 8.9933143001,
			"0.005": 5.29875568205,
			"0.006": 2.30713942189,
			"0.007": 2.34363690409,
			"0.008": 3.36986533233,
			"0.009": 4.29534464941,
			"0.01": 3.7340524258,
			"0.011": 4.74495573246,
			"0.012": 2.8858445353,
			"0.013": 0.298284956733,
			"0.014": 0.0,
			"0.015": 0.0,
			"0.016": 0.0,
			"0.017": 0.0,
			"0.018": 0.0,
			"0.019": 0.0,
			"0.02": 0.0,
			"0.021": 0.0,
			"0.022": 0.0,
			"0.023": 0.0,
			"0.024": 0.0,
			"0.025": 0.0
		}
	}
}
