{
	 "smiles": "COC1=CC2=C(C(OC)=C1)C(=CC(S)=N2)C1=CC=CC=C1", 
	 "Tm": 504.15, 
	 "num_atms": 36, 
	 "gaussian": { 
		 "optdone": 1, 
		 "sigma_profile": "yes", 
		 "theory": "DFT", 
		 "functional": "B3LYP", 
		 "basiset": "6-31G**", 
		 "properties": { 
			 "R2extent": 7784.5737, 
			 "electric_dipole_moment_norm": 3.97265493342, 
			 "electric_quadrupole_moment_norm": 10.6537296446, 
			 "total_energy": -1260.21446445, 
			 "HOMO_LUMO_gap": 0.15852, 
			 "cosmo_polarized_energy": -11.72, 
			 "cosmo_cavitation_energy": 41.14, 
			 "cosmo_dispersion_energy": -29.24, 
			 "cosmo_repulsion_energy": 2.2, 
			 "cosmo_total_nonelectrostatic_energy": 14.1, 
			 "SMD_solvation_energy": 6.14 
		},
		"coords": [
			{
				"x": -3.8271279824,
				"y": 2.132994974,
				"z": 3.3835239319,
				"element": "C" 
			},
			{
				"x": -3.2315096495,
				"y": 0.868548525,
				"z": 3.6328582327,
				"element": "O" 
			},
			{
				"x": -2.2390494446,
				"y": 0.4369167161,
				"z": 2.8059699769,
				"element": "C" 
			},
			{
				"x": -1.6887095738,
				"y": -0.7999350266,
				"z": 3.0890717924,
				"element": "C" 
			},
			{
				"x": -0.648275244,
				"y": -1.3217650792,
				"z": 2.2936955486,
				"element": "C" 
			},
			{
				"x": -0.1214454929,
				"y": -0.5724905698,
				"z": 1.1798191701,
				"element": "C" 
			},
			{
				"x": -0.7513483254,
				"y": 0.676730237,
				"z": 0.9003820681,
				"element": "C" 
			},
			{
				"x": -0.3500577866,
				"y": 1.4573429345,
				"z": -0.161435598,
				"element": "O" 
			},
			{
				"x": -1.0573794359,
				"y": 1.2267328053,
				"z": -1.3803543609,
				"element": "C" 
			},
			{
				"x": -1.770730865,
				"y": 1.1720743514,
				"z": 1.6937947062,
				"element": "C" 
			},
			{
				"x": 0.9685363443,
				"y": -1.1602759933,
				"z": 0.4467197769,
				"element": "C" 
			},
			{
				"x": 1.3851353671,
				"y": -2.424554516,
				"z": 0.8140684029,
				"element": "C" 
			},
			{
				"x": 0.7685703724,
				"y": -3.0861562575,
				"z": 1.9077007228,
				"element": "C" 
			},
			{
				"x": 1.366638574,
				"y": -4.7201266049,
				"z": 2.3218416899,
				"element": "S" 
			},
			{
				"x": -0.1885936051,
				"y": -2.5663150325,
				"z": 2.6342176243,
				"element": "N" 
			},
			{
				"x": 1.7210129674,
				"y": -0.5036538011,
				"z": -0.6638812371,
				"element": "C" 
			},
			{
				"x": 2.4106496097,
				"y": 0.7036803095,
				"z": -0.4698392224,
				"element": "C" 
			},
			{
				"x": 3.1897910593,
				"y": 1.2452926862,
				"z": -1.4891581192,
				"element": "C" 
			},
			{
				"x": 3.2882834301,
				"y": 0.596991078,
				"z": -2.723954502,
				"element": "C" 
			},
			{
				"x": 2.6070125793,
				"y": -0.602207204,
				"z": -2.9290342771,
				"element": "C" 
			},
			{
				"x": 1.8355067356,
				"y": -1.1523978445,
				"z": -1.9028457243,
				"element": "C" 
			},
			{
				"x": -3.0932419761,
				"y": 2.9466989633,
				"z": 3.4410089473,
				"element": "H" 
			},
			{
				"x": -4.574942549,
				"y": 2.2702026733,
				"z": 4.1659350941,
				"element": "H" 
			},
			{
				"x": -4.3225330461,
				"y": 2.1636362006,
				"z": 2.4047028446,
				"element": "H" 
			},
			{
				"x": -2.0520509941,
				"y": -1.3869035798,
				"z": 3.9236795063,
				"element": "H" 
			},
			{
				"x": -0.6591331621,
				"y": 1.9377744656,
				"z": -2.1063934572,
				"element": "H" 
			},
			{
				"x": -0.8956018173,
				"y": 0.2074864885,
				"z": -1.7505950521,
				"element": "H" 
			},
			{
				"x": -2.1338092785,
				"y": 1.3973830118,
				"z": -1.2501963925,
				"element": "H" 
			},
			{
				"x": -2.1861735637,
				"y": 2.1364058945,
				"z": 1.4297144272,
				"element": "H" 
			},
			{
				"x": 2.2132567185,
				"y": -2.892935944,
				"z": 0.2933821815,
				"element": "H" 
			},
			{
				"x": 0.5301702366,
				"y": -4.8764171297,
				"z": 3.3653207084,
				"element": "H" 
			},
			{
				"x": 2.3361802545,
				"y": 1.2129301138,
				"z": 0.4850026087,
				"element": "H" 
			},
			{
				"x": 3.7232345643,
				"y": 2.1762759648,
				"z": -1.3196374797,
				"element": "H" 
			},
			{
				"x": 3.8939931985,
				"y": 1.02446,
				"z": -3.5178911333,
				"element": "H" 
			},
			{
				"x": 2.6761433861,
				"y": -1.1144423773,
				"z": -3.8845043438,
				"element": "H" 
			},
			{
				"x": 1.3088983942,
				"y": -2.089181433,
				"z": -2.0625890623,
				"element": "H" 
			}
		],
		 "valence_orbital": [ 
			{
				"type": "occ",
				"energy": -0.25684,
				"method": "rhf"
			},
			{
				"type": "occ",
				"energy": -0.25072,
				"method": "rhf"
			},
			{
				"type": "occ",
				"energy": -0.24024,
				"method": "rhf"
			},
			{
				"type": "occ",
				"energy": -0.2214,
				"method": "rhf"
			},
			{
				"type": "occ",
				"energy": -0.21167,
				"method": "rhf"
			},
			{
				"type": "unocc",
				"energy": -0.05315,
				"method": "rhf"
			},
			{
				"type": "unocc",
				"energy": -0.01153,
				"method": "rhf"
			},
			{
				"type": "unocc",
				"energy": -0.00383,
				"method": "rhf"
			},
			{
				"type": "unocc",
				"energy": -0.00095,
				"method": "rhf"
			},
			{
				"type": "unocc",
				"energy": 0.02274,
				"method": "rhf"
			}
		],
		"cosmo_sigma_profile": { 
			"-0.025": 0.0,
			"-0.024": 0.0,
			"-0.023": 0.0,
			"-0.022": 0.0,
			"-0.021": 0.0,
			"-0.02": 0.0,
			"-0.019": 0.0,
			"-0.018": 0.0,
			"-0.017": 0.0,
			"-0.016": 0.0,
			"-0.015": 0.0,
			"-0.014": 0.0,
			"-0.013": 0.0,
			"-0.012": 0.0,
			"-0.011": 0.400150825572,
			"-0.01": 1.57752721231,
			"-0.009": 0.893756831969,
			"-0.008": 1.60349196185,
			"-0.007": 3.70874707448,
			"-0.006": 16.220249859,
			"-0.005": 26.9120637246,
			"-0.004": 30.3927059453,
			"-0.003": 34.034091754,
			"-0.002": 24.6197725045,
			"-0.001": 20.0689982465,
			"0.0": 18.9359662619,
			"0.001": 24.8236565279,
			"0.002": 29.1505937762,
			"0.003": 25.489140153,
			"0.004": 22.4665676161,
			"0.005": 18.1833507717,
			"0.006": 9.0742447119,
			"0.007": 6.5821818549,
			"0.008": 5.74972265993,
			"0.009": 3.52262886524,
			"0.01": 3.3264151299,
			"0.011": 1.69994574479,
			"0.012": 1.16062446924,
			"0.013": 0.439225124131,
			"0.014": 0.0,
			"0.015": 0.0,
			"0.016": 0.0,
			"0.017": 0.0,
			"0.018": 0.0,
			"0.019": 0.0,
			"0.02": 0.0,
			"0.021": 0.0,
			"0.022": 0.0,
			"0.023": 0.0,
			"0.024": 0.0,
			"0.025": 0.0
		}
	}
}
