{
	 "smiles": "CC1=CC=C(C=C1)C(O)C1=CC=CC=C1O", 
	 "Tm": 378.15, 
	 "num_atms": 30, 
	 "gaussian": { 
		 "optdone": 1, 
		 "sigma_profile": "yes", 
		 "theory": "DFT", 
		 "functional": "B3LYP", 
		 "basiset": "6-31G**", 
		 "properties": { 
			 "R2extent": 4232.2938, 
			 "electric_dipole_moment_norm": 1.96795336073, 
			 "electric_quadrupole_moment_norm": 8.63479452853, 
			 "total_energy": -692.372767404, 
			 "HOMO_LUMO_gap": 0.20767, 
			 "cosmo_polarized_energy": -12.92, 
			 "cosmo_cavitation_energy": 33.19, 
			 "cosmo_dispersion_energy": -23.71, 
			 "cosmo_repulsion_energy": 1.86, 
			 "cosmo_total_nonelectrostatic_energy": 11.33, 
			 "SMD_solvation_energy": 5.88 
		},
		"coords": [
			{
				"x": -3.6325196664,
				"y": 3.5038084933,
				"z": 1.1306450814,
				"element": "C" 
			},
			{
				"x": -2.4990382783,
				"y": 2.5178702812,
				"z": 1.2910975395,
				"element": "C" 
			},
			{
				"x": -1.1641427863,
				"y": 2.9499629806,
				"z": 1.2921377219,
				"element": "C" 
			},
			{
				"x": -0.1139529159,
				"y": 2.043816331,
				"z": 1.4139315929,
				"element": "C" 
			},
			{
				"x": -0.3655420276,
				"y": 0.6707709418,
				"z": 1.5435610399,
				"element": "C" 
			},
			{
				"x": -1.6932754895,
				"y": 0.2347836179,
				"z": 1.5517167485,
				"element": "C" 
			},
			{
				"x": -2.7431300014,
				"y": 1.1463942507,
				"z": 1.4253914718,
				"element": "C" 
			},
			{
				"x": 0.7921530912,
				"y": -0.3151355173,
				"z": 1.6923502776,
				"element": "C" 
			},
			{
				"x": 1.7741265226,
				"y": 0.1798128494,
				"z": 2.603687413,
				"element": "O" 
			},
			{
				"x": 1.4933875983,
				"y": -0.5886380968,
				"z": 0.3702339331,
				"element": "C" 
			},
			{
				"x": 2.7073973849,
				"y": 0.0187795782,
				"z": 0.0419815079,
				"element": "C" 
			},
			{
				"x": 3.3348876525,
				"y": -0.2248741371,
				"z": -1.1820123352,
				"element": "C" 
			},
			{
				"x": 2.7457454355,
				"y": -1.0945452059,
				"z": -2.0982188912,
				"element": "C" 
			},
			{
				"x": 1.538290948,
				"y": -1.7203773227,
				"z": -1.7865393549,
				"element": "C" 
			},
			{
				"x": 0.9172459902,
				"y": -1.4700647446,
				"z": -0.5607095142,
				"element": "C" 
			},
			{
				"x": -0.2645657639,
				"y": -2.0729141354,
				"z": -0.2103431449,
				"element": "O" 
			},
			{
				"x": -3.7609000438,
				"y": 3.7943740711,
				"z": 0.0803022565,
				"element": "H" 
			},
			{
				"x": -4.5823069119,
				"y": 3.0809747511,
				"z": 1.470902134,
				"element": "H" 
			},
			{
				"x": -3.4489671464,
				"y": 4.4223952017,
				"z": 1.6976504885,
				"element": "H" 
			},
			{
				"x": -0.946662816,
				"y": 4.0115599462,
				"z": 1.1971946669,
				"element": "H" 
			},
			{
				"x": 0.9126745959,
				"y": 2.398142156,
				"z": 1.4186372367,
				"element": "H" 
			},
			{
				"x": -1.9055234616,
				"y": -0.8257321215,
				"z": 1.650758707,
				"element": "H" 
			},
			{
				"x": -3.7690636315,
				"y": 0.7856204332,
				"z": 1.4385230139,
				"element": "H" 
			},
			{
				"x": 0.3786105967,
				"y": -1.2662522102,
				"z": 2.0587281218,
				"element": "H" 
			},
			{
				"x": 1.298408969,
				"y": 0.5167257865,
				"z": 3.3738440912,
				"element": "H" 
			},
			{
				"x": 3.1636794215,
				"y": 0.6764518696,
				"z": 0.7728327101,
				"element": "H" 
			},
			{
				"x": 4.2791983362,
				"y": 0.2583230173,
				"z": -1.4133786687,
				"element": "H" 
			},
			{
				"x": 3.2220333426,
				"y": -1.2950170457,
				"z": -3.0536063019,
				"element": "H" 
			},
			{
				"x": 1.0754658183,
				"y": -2.4071540192,
				"z": -2.493024117,
				"element": "H" 
			},
			{
				"x": -0.546114763,
				"y": -2.6525620003,
				"z": -0.929575426,
				"element": "H" 
			}
		],
		 "valence_orbital": [ 
			{
				"type": "occ",
				"energy": -0.27517,
				"method": "rhf"
			},
			{
				"type": "occ",
				"energy": -0.24346,
				"method": "rhf"
			},
			{
				"type": "occ",
				"energy": -0.24048,
				"method": "rhf"
			},
			{
				"type": "occ",
				"energy": -0.22766,
				"method": "rhf"
			},
			{
				"type": "occ",
				"energy": -0.21402,
				"method": "rhf"
			},
			{
				"type": "unocc",
				"energy": -0.00635,
				"method": "rhf"
			},
			{
				"type": "unocc",
				"energy": 0.0041,
				"method": "rhf"
			},
			{
				"type": "unocc",
				"energy": 0.01455,
				"method": "rhf"
			},
			{
				"type": "unocc",
				"energy": 0.02044,
				"method": "rhf"
			},
			{
				"type": "unocc",
				"energy": 0.06953,
				"method": "rhf"
			}
		],
		"cosmo_sigma_profile": { 
			"-0.025": 0.0,
			"-0.024": 0.0,
			"-0.023": 0.0,
			"-0.022": 0.0,
			"-0.021": 0.0,
			"-0.02": 0.0,
			"-0.019": 0.0,
			"-0.018": 0.116630783976,
			"-0.017": 1.15369660537,
			"-0.016": 1.29372862845,
			"-0.015": 1.57989488824,
			"-0.014": 2.19449377673,
			"-0.013": 1.80817873744,
			"-0.012": 1.46127517502,
			"-0.011": 1.84678725052,
			"-0.01": 0.827325164533,
			"-0.009": 3.01272032911,
			"-0.008": 1.81553189907,
			"-0.007": 1.63318599773,
			"-0.006": 4.14637359631,
			"-0.005": 11.5420969368,
			"-0.004": 22.971974445,
			"-0.003": 24.4672863569,
			"-0.002": 20.9294841569,
			"-0.001": 19.3967286236,
			"0.0": 20.3304050018,
			"0.001": 16.6928392815,
			"0.002": 14.7634912991,
			"0.003": 14.3104006261,
			"0.004": 17.3076965808,
			"0.005": 19.8921131341,
			"0.006": 20.1538932309,
			"0.007": 7.05601722599,
			"0.008": 3.01084016426,
			"0.009": 2.47606681765,
			"0.01": 1.50559510595,
			"0.011": 0.565970915968,
			"0.012": 1.15614596425,
			"0.013": 0.839264915574,
			"0.014": 0.549875346319,
			"0.015": 0.0,
			"0.016": 0.0,
			"0.017": 0.0,
			"0.018": 0.0,
			"0.019": 0.0,
			"0.02": 0.0,
			"0.021": 0.0,
			"0.022": 0.0,
			"0.023": 0.0,
			"0.024": 0.0,
			"0.025": 0.0
		}
	}
}
