{
	 "smiles": "FC1=CC=C(C=C1)N1CCN(CC1)C(=O)CCCl", 
	 "Tm": 373.15, 
	 "num_atms": 34, 
	 "gaussian": { 
		 "optdone": 1, 
		 "sigma_profile": "yes", 
		 "theory": "DFT", 
		 "functional": "B3LYP", 
		 "basiset": "6-31G**", 
		 "properties": { 
			 "R2extent": 10022.2925, 
			 "electric_dipole_moment_norm": 1.59087402707, 
			 "electric_quadrupole_moment_norm": 27.993908773, 
			 "total_energy": -1249.78771948, 
			 "HOMO_LUMO_gap": 0.1852, 
			 "cosmo_polarized_energy": -14.67, 
			 "cosmo_cavitation_energy": 38.11, 
			 "cosmo_dispersion_energy": -27.8, 
			 "cosmo_repulsion_energy": 2.13, 
			 "cosmo_total_nonelectrostatic_energy": 12.43, 
			 "SMD_solvation_energy": 5.05 
		},
		"coords": [
			{
				"x": 0.7936771234,
				"y": -4.4187242342,
				"z": -4.9195502299,
				"element": "F" 
			},
			{
				"x": 0.7342746295,
				"y": -3.3821706888,
				"z": -4.0511677912,
				"element": "C" 
			},
			{
				"x": 0.4525474774,
				"y": -3.6258891535,
				"z": -2.7132775677,
				"element": "C" 
			},
			{
				"x": 0.3859823542,
				"y": -2.5584447828,
				"z": -1.8208826691,
				"element": "C" 
			},
			{
				"x": 0.6102124597,
				"y": -1.231639428,
				"z": -2.2497151746,
				"element": "C" 
			},
			{
				"x": 0.9031243611,
				"y": -1.0242647399,
				"z": -3.6148018531,
				"element": "C" 
			},
			{
				"x": 0.9574371022,
				"y": -2.0914720168,
				"z": -4.5101469137,
				"element": "C" 
			},
			{
				"x": 0.532658538,
				"y": -0.1713365455,
				"z": -1.3463632286,
				"element": "N" 
			},
			{
				"x": 0.5380215903,
				"y": 1.2069977436,
				"z": -1.8046533821,
				"element": "C" 
			},
			{
				"x": -0.1450408589,
				"y": 2.1250929553,
				"z": -0.7882540647,
				"element": "C" 
			},
			{
				"x": 0.4996953081,
				"y": 2.0169843133,
				"z": 0.5229829219,
				"element": "N" 
			},
			{
				"x": 1.3261158169,
				"y": 0.8315444724,
				"z": 0.7613502502,
				"element": "C" 
			},
			{
				"x": 0.7232013079,
				"y": -0.3989461642,
				"z": 0.0859516674,
				"element": "C" 
			},
			{
				"x": 0.2864939811,
				"y": 2.8918376089,
				"z": 1.5569869411,
				"element": "C" 
			},
			{
				"x": 0.8099891128,
				"y": 2.7442307947,
				"z": 2.6595054306,
				"element": "O" 
			},
			{
				"x": -0.6391245877,
				"y": 4.0761335113,
				"z": 1.2768584045,
				"element": "C" 
			},
			{
				"x": -0.8330411673,
				"y": 4.9004478752,
				"z": 2.5423750988,
				"element": "C" 
			},
			{
				"x": -1.9240904799,
				"y": 6.3177438646,
				"z": 2.2165223512,
				"element": "Cl" 
			},
			{
				"x": 0.2748677006,
				"y": -4.6426767795,
				"z": -2.379201239,
				"element": "H" 
			},
			{
				"x": 0.1316196398,
				"y": -2.7611602608,
				"z": -0.7870132599,
				"element": "H" 
			},
			{
				"x": 1.1160227074,
				"y": -0.029091198,
				"z": -3.9868947809,
				"element": "H" 
			},
			{
				"x": 1.1867905383,
				"y": -1.9272092965,
				"z": -5.5577506966,
				"element": "H" 
			},
			{
				"x": 1.5540036213,
				"y": 1.582327767,
				"z": -2.017405327,
				"element": "H" 
			},
			{
				"x": -0.0292651347,
				"y": 1.275805776,
				"z": -2.7377372306,
				"element": "H" 
			},
			{
				"x": -1.208999345,
				"y": 1.8553222268,
				"z": -0.7252803023,
				"element": "H" 
			},
			{
				"x": -0.0854881938,
				"y": 3.1535892661,
				"z": -1.158629882,
				"element": "H" 
			},
			{
				"x": 1.3883208545,
				"y": 0.6868579881,
				"z": 1.8406953199,
				"element": "H" 
			},
			{
				"x": 2.3469894085,
				"y": 0.9973371184,
				"z": 0.3917341751,
				"element": "H" 
			},
			{
				"x": 1.4106269211,
				"y": -1.2400224785,
				"z": 0.2346325884,
				"element": "H" 
			},
			{
				"x": -0.2239294539,
				"y": -0.6618779073,
				"z": 0.5829169247,
				"element": "H" 
			},
			{
				"x": -1.6082080076,
				"y": 3.7258392995,
				"z": 0.9031592976,
				"element": "H" 
			},
			{
				"x": -0.2144665216,
				"y": 4.705810706,
				"z": 0.4856868123,
				"element": "H" 
			},
			{
				"x": 0.1101443705,
				"y": 5.3002411383,
				"z": 2.910028488,
				"element": "H" 
			},
			{
				"x": -1.297363174,
				"y": 4.3174812489,
				"z": 3.3361389213,
				"element": "H" 
			}
		],
		 "valence_orbital": [ 
			{
				"type": "occ",
				"energy": -0.28363,
				"method": "rhf"
			},
			{
				"type": "occ",
				"energy": -0.26063,
				"method": "rhf"
			},
			{
				"type": "occ",
				"energy": -0.25903,
				"method": "rhf"
			},
			{
				"type": "occ",
				"energy": -0.25157,
				"method": "rhf"
			},
			{
				"type": "occ",
				"energy": -0.19667,
				"method": "rhf"
			},
			{
				"type": "unocc",
				"energy": -0.01147,
				"method": "rhf"
			},
			{
				"type": "unocc",
				"energy": 0.0133,
				"method": "rhf"
			},
			{
				"type": "unocc",
				"energy": 0.0169,
				"method": "rhf"
			},
			{
				"type": "unocc",
				"energy": 0.02688,
				"method": "rhf"
			},
			{
				"type": "unocc",
				"energy": 0.06014,
				"method": "rhf"
			}
		],
		"cosmo_sigma_profile": { 
			"-0.025": 0.0,
			"-0.024": 0.0,
			"-0.023": 0.0,
			"-0.022": 0.0,
			"-0.021": 0.0,
			"-0.02": 0.0,
			"-0.019": 0.0,
			"-0.018": 0.0,
			"-0.017": 0.0,
			"-0.016": 0.0,
			"-0.015": 0.0,
			"-0.014": 0.0,
			"-0.013": 0.0,
			"-0.012": 0.0,
			"-0.011": 0.0,
			"-0.01": 0.0,
			"-0.009": 0.0,
			"-0.008": 0.878482533767,
			"-0.007": 7.29035408885,
			"-0.006": 21.4322608639,
			"-0.005": 33.1574936704,
			"-0.004": 38.1624887883,
			"-0.003": 26.7069513744,
			"-0.002": 16.2376346879,
			"-0.001": 13.1816207408,
			"0.0": 13.5694690786,
			"0.001": 14.1479308611,
			"0.002": 15.373623491,
			"0.003": 17.9837440888,
			"0.004": 18.4154618768,
			"0.005": 28.8158560882,
			"0.006": 16.4667180222,
			"0.007": 6.66497906448,
			"0.008": 1.87521098915,
			"0.009": 1.30029354928,
			"0.01": 0.936991909694,
			"0.011": 1.43152668616,
			"0.012": 2.33953483222,
			"0.013": 3.30291144521,
			"0.014": 3.12299171085,
			"0.015": 0.0,
			"0.016": 0.0,
			"0.017": 0.0,
			"0.018": 0.0,
			"0.019": 0.0,
			"0.02": 0.0,
			"0.021": 0.0,
			"0.022": 0.0,
			"0.023": 0.0,
			"0.024": 0.0,
			"0.025": 0.0
		}
	}
}
