{
	 "smiles": "CC(Cl)C(=O)N1C(C)CC2=C1C=CC=C2", 
	 "Tm": 409.15, 
	 "num_atms": 29, 
	 "gaussian": { 
		 "optdone": 1, 
		 "sigma_profile": "yes", 
		 "theory": "DFT", 
		 "functional": "B3LYP", 
		 "basiset": "6-31G**", 
		 "properties": { 
			 "R2extent": 4831.3219, 
			 "electric_dipole_moment_norm": 4.80355685925, 
			 "electric_quadrupole_moment_norm": 17.5782870937, 
			 "total_energy": -1055.90450743, 
			 "HOMO_LUMO_gap": 0.19539, 
			 "cosmo_polarized_energy": -12.23, 
			 "cosmo_cavitation_energy": 32.24, 
			 "cosmo_dispersion_energy": -23.1, 
			 "cosmo_repulsion_energy": 1.82, 
			 "cosmo_total_nonelectrostatic_energy": 10.96, 
			 "SMD_solvation_energy": 5.22 
		},
		"coords": [
			{
				"x": 2.4627518537,
				"y": 0.5032796571,
				"z": -3.3644297445,
				"element": "C" 
			},
			{
				"x": 1.6488634885,
				"y": 1.716809526,
				"z": -2.9095190339,
				"element": "C" 
			},
			{
				"x": 2.352412206,
				"y": 3.2291015878,
				"z": -3.6174715051,
				"element": "Cl" 
			},
			{
				"x": 1.6175332073,
				"y": 1.8245198347,
				"z": -1.3741621662,
				"element": "C" 
			},
			{
				"x": 2.3382214755,
				"y": 2.6045084441,
				"z": -0.7700322765,
				"element": "O" 
			},
			{
				"x": 0.7925623997,
				"y": 0.9578549559,
				"z": -0.6785838359,
				"element": "N" 
			},
			{
				"x": 0.892484832,
				"y": 0.9891132135,
				"z": 0.8156641472,
				"element": "C" 
			},
			{
				"x": 0.0576305111,
				"y": 2.1363875697,
				"z": 1.3890352673,
				"element": "C" 
			},
			{
				"x": 0.3861600788,
				"y": -0.4069630469,
				"z": 1.2421944255,
				"element": "C" 
			},
			{
				"x": -0.4078401424,
				"y": -0.8716357801,
				"z": 0.0468151492,
				"element": "C" 
			},
			{
				"x": -0.1213632586,
				"y": -0.0590652887,
				"z": -1.0666873749,
				"element": "C" 
			},
			{
				"x": -0.7506561813,
				"y": -0.3121277497,
				"z": -2.2899794726,
				"element": "C" 
			},
			{
				"x": -1.6421293984,
				"y": -1.3875763231,
				"z": -2.3808982743,
				"element": "C" 
			},
			{
				"x": -1.9191773452,
				"y": -2.1966710975,
				"z": -1.2804296073,
				"element": "C" 
			},
			{
				"x": -1.2967702005,
				"y": -1.9324981263,
				"z": -0.0551892105,
				"element": "C" 
			},
			{
				"x": 2.0105894506,
				"y": -0.4197125009,
				"z": -2.9887793449,
				"element": "H" 
			},
			{
				"x": 3.4847489819,
				"y": 0.576281605,
				"z": -2.9842053434,
				"element": "H" 
			},
			{
				"x": 2.497850331,
				"y": 0.4556543598,
				"z": -4.4550421901,
				"element": "H" 
			},
			{
				"x": 0.6379337414,
				"y": 1.6854171886,
				"z": -3.3096294655,
				"element": "H" 
			},
			{
				"x": 1.9416482087,
				"y": 1.1458489662,
				"z": 1.0683303883,
				"element": "H" 
			},
			{
				"x": 0.4093144296,
				"y": 3.0930919951,
				"z": 0.9978164585,
				"element": "H" 
			},
			{
				"x": 0.1491384672,
				"y": 2.1554629975,
				"z": 2.480313225,
				"element": "H" 
			},
			{
				"x": -1.0009967596,
				"y": 2.0133994939,
				"z": 1.1360197226,
				"element": "H" 
			},
			{
				"x": 1.222730259,
				"y": -1.0893696034,
				"z": 1.4409356305,
				"element": "H" 
			},
			{
				"x": -0.2132664092,
				"y": -0.354643361,
				"z": 2.1563795514,
				"element": "H" 
			},
			{
				"x": -0.5867113638,
				"y": 0.2984318214,
				"z": -3.1669245607,
				"element": "H" 
			},
			{
				"x": -2.1300466032,
				"y": -1.5811384175,
				"z": -3.3316430477,
				"element": "H" 
			},
			{
				"x": -2.6176405473,
				"y": -3.0225466442,
				"z": -1.3716091073,
				"element": "H" 
			},
			{
				"x": -1.5072757126,
				"y": -2.550415277,
				"z": 0.8137115958,
				"element": "H" 
			}
		],
		 "valence_orbital": [ 
			{
				"type": "occ",
				"energy": -0.29186,
				"method": "rhf"
			},
			{
				"type": "occ",
				"energy": -0.28991,
				"method": "rhf"
			},
			{
				"type": "occ",
				"energy": -0.2602,
				"method": "rhf"
			},
			{
				"type": "occ",
				"energy": -0.25892,
				"method": "rhf"
			},
			{
				"type": "occ",
				"energy": -0.21967,
				"method": "rhf"
			},
			{
				"type": "unocc",
				"energy": -0.02428,
				"method": "rhf"
			},
			{
				"type": "unocc",
				"energy": -0.0141,
				"method": "rhf"
			},
			{
				"type": "unocc",
				"energy": 0.01936,
				"method": "rhf"
			},
			{
				"type": "unocc",
				"energy": 0.03729,
				"method": "rhf"
			},
			{
				"type": "unocc",
				"energy": 0.0786,
				"method": "rhf"
			}
		],
		"cosmo_sigma_profile": { 
			"-0.025": 0.0,
			"-0.024": 0.0,
			"-0.023": 0.0,
			"-0.022": 0.0,
			"-0.021": 0.0,
			"-0.02": 0.0,
			"-0.019": 0.0,
			"-0.018": 0.0,
			"-0.017": 0.0,
			"-0.016": 0.0,
			"-0.015": 0.0,
			"-0.014": 0.0,
			"-0.013": 0.0,
			"-0.012": 0.0,
			"-0.011": 0.502577718571,
			"-0.01": 1.49499862753,
			"-0.009": 2.36445334103,
			"-0.008": 1.73575791038,
			"-0.007": 2.1520059678,
			"-0.006": 6.23357691612,
			"-0.005": 17.0157885687,
			"-0.004": 27.8211742415,
			"-0.003": 28.4309948517,
			"-0.002": 29.4576427974,
			"-0.001": 24.2630964855,
			"0.0": 19.4025437396,
			"0.001": 15.8382278151,
			"0.002": 11.1319948567,
			"0.003": 11.0818236471,
			"0.004": 12.0982763448,
			"0.005": 14.8220173956,
			"0.006": 11.3912139204,
			"0.007": 2.94666867659,
			"0.008": 2.57176936992,
			"0.009": 1.92569651611,
			"0.01": 1.81527158035,
			"0.011": 1.34255487074,
			"0.012": 3.38257501499,
			"0.013": 3.84152782668,
			"0.014": 1.87389701695,
			"0.015": 0.207795872908,
			"0.016": 0.0,
			"0.017": 0.0,
			"0.018": 0.0,
			"0.019": 0.0,
			"0.02": 0.0,
			"0.021": 0.0,
			"0.022": 0.0,
			"0.023": 0.0,
			"0.024": 0.0,
			"0.025": 0.0
		}
	}
}
