{
	 "smiles": "NC1=C(C=C(F)C=C1)C(O)=O", 
	 "Tm": 456.15, 
	 "num_atms": 17, 
	 "gaussian": { 
		 "optdone": 1, 
		 "sigma_profile": "yes", 
		 "theory": "DFT", 
		 "functional": "B3LYP", 
		 "basiset": "6-31G**", 
		 "properties": { 
			 "R2extent": 2968.372, 
			 "electric_dipole_moment_norm": 1.72581244056, 
			 "electric_quadrupole_moment_norm": 11.7787628005, 
			 "total_energy": -575.420301279, 
			 "HOMO_LUMO_gap": 0.15552, 
			 "cosmo_polarized_energy": -10.15, 
			 "cosmo_cavitation_energy": 21.82, 
			 "cosmo_dispersion_energy": -16.48, 
			 "cosmo_repulsion_energy": 1.3, 
			 "cosmo_total_nonelectrostatic_energy": 6.63, 
			 "SMD_solvation_energy": 5.32 
		},
		"coords": [
			{
				"x": 1.139582808,
				"y": 1.0551443062,
				"z": 1.5550230901,
				"element": "N" 
			},
			{
				"x": 0.1818080612,
				"y": 0.1239158724,
				"z": 1.8452757071,
				"element": "C" 
			},
			{
				"x": -1.198157747,
				"y": 0.3384013412,
				"z": 1.5578619586,
				"element": "C" 
			},
			{
				"x": -2.152322018,
				"y": -0.6342230852,
				"z": 1.9236762362,
				"element": "C" 
			},
			{
				"x": -1.7514573319,
				"y": -1.7934014302,
				"z": 2.5494823639,
				"element": "C" 
			},
			{
				"x": -2.6704844932,
				"y": -2.7246237059,
				"z": 2.8965526872,
				"element": "F" 
			},
			{
				"x": -0.4042274251,
				"y": -2.0329816946,
				"z": 2.83227509,
				"element": "C" 
			},
			{
				"x": 0.5435174793,
				"y": -1.0862967561,
				"z": 2.4846504582,
				"element": "C" 
			},
			{
				"x": -1.6270642136,
				"y": 1.5584581761,
				"z": 0.8603528877,
				"element": "C" 
			},
			{
				"x": -2.9672339647,
				"y": 1.6373876547,
				"z": 0.6688430828,
				"element": "O" 
			},
			{
				"x": -0.8902421205,
				"y": 2.4542220971,
				"z": 0.4580995033,
				"element": "O" 
			},
			{
				"x": 0.8621524549,
				"y": 1.8386821089,
				"z": 0.9773252182,
				"element": "H" 
			},
			{
				"x": 2.1062470656,
				"y": 0.7750888512,
				"z": 1.5750370581,
				"element": "H" 
			},
			{
				"x": -3.200387033,
				"y": -0.4711142111,
				"z": 1.7069270986,
				"element": "H" 
			},
			{
				"x": -0.1183350743,
				"y": -2.9577646879,
				"z": 3.322710076,
				"element": "H" 
			},
			{
				"x": 1.5912580247,
				"y": -1.2650243619,
				"z": 2.7100784889,
				"element": "H" 
			},
			{
				"x": -3.1127544725,
				"y": 2.4750295252,
				"z": 0.1999289951,
				"element": "H" 
			}
		],
		 "valence_orbital": [ 
			{
				"type": "occ",
				"energy": -0.32124,
				"method": "rhf"
			},
			{
				"type": "occ",
				"energy": -0.30789,
				"method": "rhf"
			},
			{
				"type": "occ",
				"energy": -0.28098,
				"method": "rhf"
			},
			{
				"type": "occ",
				"energy": -0.26647,
				"method": "rhf"
			},
			{
				"type": "occ",
				"energy": -0.20437,
				"method": "rhf"
			},
			{
				"type": "unocc",
				"energy": -0.04885,
				"method": "rhf"
			},
			{
				"type": "unocc",
				"energy": 0.0114,
				"method": "rhf"
			},
			{
				"type": "unocc",
				"energy": 0.05885,
				"method": "rhf"
			},
			{
				"type": "unocc",
				"energy": 0.07636,
				"method": "rhf"
			},
			{
				"type": "unocc",
				"energy": 0.08916,
				"method": "rhf"
			}
		],
		"cosmo_sigma_profile": { 
			"-0.025": 0.0,
			"-0.024": 0.0,
			"-0.023": 0.0,
			"-0.022": 0.0,
			"-0.021": 0.0,
			"-0.02": 0.0,
			"-0.019": 0.0,
			"-0.018": 0.762835955246,
			"-0.017": 0.992266011628,
			"-0.016": 0.498382309965,
			"-0.015": 0.736544347625,
			"-0.014": 1.23969636546,
			"-0.013": 1.93166817168,
			"-0.012": 1.9092194272,
			"-0.011": 2.18239979211,
			"-0.01": 1.54912014217,
			"-0.009": 2.7131949672,
			"-0.008": 4.09516941269,
			"-0.007": 6.01384829753,
			"-0.006": 6.55814473045,
			"-0.005": 6.94581242229,
			"-0.004": 5.62842842933,
			"-0.003": 5.60364961439,
			"-0.002": 6.76753219537,
			"-0.001": 9.64623917052,
			"0.0": 10.5695824825,
			"0.001": 14.9986466292,
			"0.002": 18.6026328451,
			"0.003": 18.8717757715,
			"0.004": 14.5627969104,
			"0.005": 12.6327207031,
			"0.006": 3.62472844625,
			"0.007": 4.19356544833,
			"0.008": 2.02234245648,
			"0.009": 2.46232324746,
			"0.01": 2.41905931845,
			"0.011": 2.15456134601,
			"0.012": 1.60440382494,
			"0.013": 0.0792463514111,
			"0.014": 0.0,
			"0.015": 0.0,
			"0.016": 0.0,
			"0.017": 0.0,
			"0.018": 0.0,
			"0.019": 0.0,
			"0.02": 0.0,
			"0.021": 0.0,
			"0.022": 0.0,
			"0.023": 0.0,
			"0.024": 0.0,
			"0.025": 0.0
		}
	}
}
