{
	 "smiles": "CC(C)CCSCCC(C)C", 
	 "Tm": 198.55, 
	 "num_atms": 33, 
	 "gaussian": { 
		 "optdone": 1, 
		 "sigma_profile": "yes", 
		 "theory": "DFT", 
		 "functional": "B3LYP", 
		 "basiset": "6-31G**", 
		 "properties": { 
			 "R2extent": 3945.9803, 
			 "electric_dipole_moment_norm": 1.71740423023, 
			 "electric_quadrupole_moment_norm": 4.2856320164, 
			 "total_energy": -792.538008961, 
			 "HOMO_LUMO_gap": 0.25286, 
			 "cosmo_polarized_energy": -4.37, 
			 "cosmo_cavitation_energy": 33.97, 
			 "cosmo_dispersion_energy": -24.14, 
			 "cosmo_repulsion_energy": 1.93, 
			 "cosmo_total_nonelectrostatic_energy": 11.76, 
			 "SMD_solvation_energy": 5.07 
		},
		"coords": [
			{
				"x": -0.9952986276,
				"y": -0.922018195,
				"z": 3.644200325,
				"element": "C" 
			},
			{
				"x": -1.3581219855,
				"y": 0.4792531377,
				"z": 3.1295984058,
				"element": "C" 
			},
			{
				"x": -0.209291251,
				"y": 1.471371961,
				"z": 3.370755044,
				"element": "C" 
			},
			{
				"x": -1.8769832546,
				"y": 0.45838367,
				"z": 1.6710783939,
				"element": "C" 
			},
			{
				"x": -1.0309460103,
				"y": -0.2386023326,
				"z": 0.59308402,
				"element": "C" 
			},
			{
				"x": 0.4961635398,
				"y": 0.6843389608,
				"z": 0.12778989,
				"element": "S" 
			},
			{
				"x": 1.0072450195,
				"y": -0.2617648922,
				"z": -1.3643990154,
				"element": "C" 
			},
			{
				"x": 0.2023482327,
				"y": 0.0638378859,
				"z": -2.6291089183,
				"element": "C" 
			},
			{
				"x": 0.6172722286,
				"y": -0.7149774796,
				"z": -3.9009729729,
				"element": "C" 
			},
			{
				"x": 2.0635776451,
				"y": -0.4199520015,
				"z": -4.3290130032,
				"element": "C" 
			},
			{
				"x": 0.3722158893,
				"y": -2.227349113,
				"z": -3.7777767414,
				"element": "C" 
			},
			{
				"x": -0.78006752,
				"y": -0.8963324068,
				"z": 4.7177956421,
				"element": "H" 
			},
			{
				"x": -1.8124171298,
				"y": -1.6354656226,
				"z": 3.4857010188,
				"element": "H" 
			},
			{
				"x": -0.1027273425,
				"y": -1.3146397899,
				"z": 3.1443388702,
				"element": "H" 
			},
			{
				"x": -2.2121012454,
				"y": 0.8317673664,
				"z": 3.7266862421,
				"element": "H" 
			},
			{
				"x": 0.0136104803,
				"y": 1.545264111,
				"z": 4.4413182108,
				"element": "H" 
			},
			{
				"x": -0.4677211122,
				"y": 2.4745550753,
				"z": 3.0145151812,
				"element": "H" 
			},
			{
				"x": 0.7073622918,
				"y": 1.1616795617,
				"z": 2.8601426171,
				"element": "H" 
			},
			{
				"x": -2.8440194314,
				"y": -0.0635297229,
				"z": 1.6751939451,
				"element": "H" 
			},
			{
				"x": -2.0880715356,
				"y": 1.4857343212,
				"z": 1.3487341198,
				"element": "H" 
			},
			{
				"x": -1.6421753992,
				"y": -0.3377638453,
				"z": -0.3091379469,
				"element": "H" 
			},
			{
				"x": -0.747345459,
				"y": -1.2470851952,
				"z": 0.9116255081,
				"element": "H" 
			},
			{
				"x": 0.9677715641,
				"y": -1.3282111659,
				"z": -1.1194814632,
				"element": "H" 
			},
			{
				"x": 2.0623469358,
				"y": -0.0054639885,
				"z": -1.497804098,
				"element": "H" 
			},
			{
				"x": -0.861616318,
				"y": -0.1274079962,
				"z": -2.4399865825,
				"element": "H" 
			},
			{
				"x": 0.2893867915,
				"y": 1.1393627569,
				"z": -2.824460272,
				"element": "H" 
			},
			{
				"x": -0.0396262719,
				"y": -0.345066263,
				"z": -4.701470266,
				"element": "H" 
			},
			{
				"x": 2.284678374,
				"y": -0.8811868239,
				"z": -5.2976304472,
				"element": "H" 
			},
			{
				"x": 2.2406607483,
				"y": 0.6571595262,
				"z": -4.4241417794,
				"element": "H" 
			},
			{
				"x": 2.7888774968,
				"y": -0.8156429265,
				"z": -3.6090181766,
				"element": "H" 
			},
			{
				"x": 1.0334115369,
				"y": -2.6874273944,
				"z": -3.034730211,
				"element": "H" 
			},
			{
				"x": -0.6613957861,
				"y": -2.4425163797,
				"z": -3.4840421262,
				"element": "H" 
			},
			{
				"x": 0.5585969056,
				"y": -2.7310047998,
				"z": -4.7324834138,
				"element": "H" 
			}
		],
		 "valence_orbital": [ 
			{
				"type": "occ",
				"energy": -0.31908,
				"method": "rhf"
			},
			{
				"type": "occ",
				"energy": -0.31569,
				"method": "rhf"
			},
			{
				"type": "occ",
				"energy": -0.30601,
				"method": "rhf"
			},
			{
				"type": "occ",
				"energy": -0.28702,
				"method": "rhf"
			},
			{
				"type": "occ",
				"energy": -0.21099,
				"method": "rhf"
			},
			{
				"type": "unocc",
				"energy": 0.04187,
				"method": "rhf"
			},
			{
				"type": "unocc",
				"energy": 0.07164,
				"method": "rhf"
			},
			{
				"type": "unocc",
				"energy": 0.08147,
				"method": "rhf"
			},
			{
				"type": "unocc",
				"energy": 0.10352,
				"method": "rhf"
			},
			{
				"type": "unocc",
				"energy": 0.10999,
				"method": "rhf"
			}
		],
		"cosmo_sigma_profile": { 
			"-0.025": 0.0,
			"-0.024": 0.0,
			"-0.023": 0.0,
			"-0.022": 0.0,
			"-0.021": 0.0,
			"-0.02": 0.0,
			"-0.019": 0.0,
			"-0.018": 0.0,
			"-0.017": 0.0,
			"-0.016": 0.0,
			"-0.015": 0.0,
			"-0.014": 0.0,
			"-0.013": 0.0,
			"-0.012": 0.0,
			"-0.011": 0.0,
			"-0.01": 0.0,
			"-0.009": 0.0,
			"-0.008": 0.0,
			"-0.007": 0.0,
			"-0.006": 0.0,
			"-0.005": 1.26626326611,
			"-0.004": 8.53774242812,
			"-0.003": 22.3190085523,
			"-0.002": 49.7582039022,
			"-0.001": 50.1903574747,
			"0.0": 43.1942885913,
			"0.001": 37.2833361173,
			"0.002": 21.6274861959,
			"0.003": 5.73275773838,
			"0.004": 3.75721480614,
			"0.005": 3.42365061759,
			"0.006": 3.34553295286,
			"0.007": 3.30687603453,
			"0.008": 2.23826663618,
			"0.009": 2.39727346801,
			"0.01": 1.62572710749,
			"0.011": 1.51700833509,
			"0.012": 0.835885720922,
			"0.013": 0.058322482878,
			"0.014": 0.0,
			"0.015": 0.0,
			"0.016": 0.0,
			"0.017": 0.0,
			"0.018": 0.0,
			"0.019": 0.0,
			"0.02": 0.0,
			"0.021": 0.0,
			"0.022": 0.0,
			"0.023": 0.0,
			"0.024": 0.0,
			"0.025": 0.0
		}
	}
}
