{
	 "smiles": "CCN1C2=C(C=CC=C2)C2=C1C=CC=C2", 
	 "Tm": 341.65, 
	 "num_atms": 28, 
	 "gaussian": { 
		 "optdone": 1, 
		 "sigma_profile": "yes", 
		 "theory": "DFT", 
		 "functional": "B3LYP", 
		 "basiset": "6-31G**", 
		 "properties": { 
			 "R2extent": 3551.8894, 
			 "electric_dipole_moment_norm": 1.90025020195, 
			 "electric_quadrupole_moment_norm": 8.42333067141, 
			 "total_energy": -596.105816488, 
			 "HOMO_LUMO_gap": 0.17138, 
			 "cosmo_polarized_energy": -7.01, 
			 "cosmo_cavitation_energy": 30.65, 
			 "cosmo_dispersion_energy": -22.12, 
			 "cosmo_repulsion_energy": 1.69, 
			 "cosmo_total_nonelectrostatic_energy": 10.21, 
			 "SMD_solvation_energy": 4.52 
		},
		"coords": [
			{
				"x": 0.4343264845,
				"y": 0.6417311084,
				"z": 2.2776188833,
				"element": "C" 
			},
			{
				"x": 1.0058548023,
				"y": -0.5034363212,
				"z": 1.433551931,
				"element": "C" 
			},
			{
				"x": 0.7745250334,
				"y": -0.3447697072,
				"z": 0.0073749234,
				"element": "N" 
			},
			{
				"x": -0.3543983918,
				"y": -0.7738924655,
				"z": -0.6835092414,
				"element": "C" 
			},
			{
				"x": -0.245850186,
				"y": -0.3777311116,
				"z": -2.0440493756,
				"element": "C" 
			},
			{
				"x": -1.2641033351,
				"y": -0.7139959526,
				"z": -2.9434085767,
				"element": "C" 
			},
			{
				"x": -2.3677898513,
				"y": -1.4281369328,
				"z": -2.4840217996,
				"element": "C" 
			},
			{
				"x": -2.4625661061,
				"y": -1.8083582001,
				"z": -1.1341267505,
				"element": "C" 
			},
			{
				"x": -1.463568103,
				"y": -1.4871533438,
				"z": -0.2169220512,
				"element": "C" 
			},
			{
				"x": 1.0066706539,
				"y": 0.3383319366,
				"z": -2.1674978901,
				"element": "C" 
			},
			{
				"x": 1.6000972908,
				"y": 0.3435400996,
				"z": -0.8761437285,
				"element": "C" 
			},
			{
				"x": 2.8296724392,
				"y": 0.9673397396,
				"z": -0.64005974,
				"element": "C" 
			},
			{
				"x": 3.4651308915,
				"y": 1.5804008623,
				"z": -1.7183786499,
				"element": "C" 
			},
			{
				"x": 2.893761777,
				"y": 1.5796878936,
				"z": -3.0026352626,
				"element": "C" 
			},
			{
				"x": 1.667185794,
				"y": 0.9616957876,
				"z": -3.2323334872,
				"element": "C" 
			},
			{
				"x": 0.6371770141,
				"y": 0.4704300533,
				"z": 3.3400026947,
				"element": "H" 
			},
			{
				"x": -0.6482556141,
				"y": 0.7219514038,
				"z": 2.1427959289,
				"element": "H" 
			},
			{
				"x": 0.8829755651,
				"y": 1.5975002654,
				"z": 1.9915792363,
				"element": "H" 
			},
			{
				"x": 0.569984033,
				"y": -1.459768819,
				"z": 1.7405778688,
				"element": "H" 
			},
			{
				"x": 2.0856578275,
				"y": -0.593054308,
				"z": 1.5911052104,
				"element": "H" 
			},
			{
				"x": -1.1945081141,
				"y": -0.419794866,
				"z": -3.9870640907,
				"element": "H" 
			},
			{
				"x": -3.1645808528,
				"y": -1.6933693646,
				"z": -3.1722915636,
				"element": "H" 
			},
			{
				"x": -3.3335379681,
				"y": -2.3620756861,
				"z": -0.7952513478,
				"element": "H" 
			},
			{
				"x": -1.5537775161,
				"y": -1.7820698499,
				"z": 0.8238579354,
				"element": "H" 
			},
			{
				"x": 3.2801701968,
				"y": 0.9816755155,
				"z": 0.3474550646,
				"element": "H" 
			},
			{
				"x": 4.4211637065,
				"y": 2.071130296,
				"z": -1.5595769402,
				"element": "H" 
			},
			{
				"x": 3.4147369817,
				"y": 2.0676760485,
				"z": -3.8207982217,
				"element": "H" 
			},
			{
				"x": 1.2270455471,
				"y": 0.9644159181,
				"z": -4.2257509596,
				"element": "H" 
			}
		],
		 "valence_orbital": [ 
			{
				"type": "occ",
				"energy": -0.31072,
				"method": "rhf"
			},
			{
				"type": "occ",
				"energy": -0.27371,
				"method": "rhf"
			},
			{
				"type": "occ",
				"energy": -0.24705,
				"method": "rhf"
			},
			{
				"type": "occ",
				"energy": -0.20812,
				"method": "rhf"
			},
			{
				"type": "occ",
				"energy": -0.19502,
				"method": "rhf"
			},
			{
				"type": "unocc",
				"energy": -0.02364,
				"method": "rhf"
			},
			{
				"type": "unocc",
				"energy": 0.01034,
				"method": "rhf"
			},
			{
				"type": "unocc",
				"energy": 0.03284,
				"method": "rhf"
			},
			{
				"type": "unocc",
				"energy": 0.04704,
				"method": "rhf"
			},
			{
				"type": "unocc",
				"energy": 0.08063,
				"method": "rhf"
			}
		],
		"cosmo_sigma_profile": { 
			"-0.025": 0.0,
			"-0.024": 0.0,
			"-0.023": 0.0,
			"-0.022": 0.0,
			"-0.021": 0.0,
			"-0.02": 0.0,
			"-0.019": 0.0,
			"-0.018": 0.0,
			"-0.017": 0.0,
			"-0.016": 0.0,
			"-0.015": 0.0,
			"-0.014": 0.0,
			"-0.013": 0.0,
			"-0.012": 0.0,
			"-0.011": 0.0,
			"-0.01": 0.0,
			"-0.009": 0.0,
			"-0.008": 0.0,
			"-0.007": 1.57768792605,
			"-0.006": 8.52339360581,
			"-0.005": 19.6176483692,
			"-0.004": 22.6107640331,
			"-0.003": 29.5442645044,
			"-0.002": 23.4729653149,
			"-0.001": 18.3567647511,
			"0.0": 18.6503644915,
			"0.001": 13.5990801226,
			"0.002": 13.06806794,
			"0.003": 16.0541798169,
			"0.004": 15.3368910271,
			"0.005": 18.7304909907,
			"0.006": 17.9215813213,
			"0.007": 7.43912152526,
			"0.008": 0.0,
			"0.009": 0.0,
			"0.01": 0.0,
			"0.011": 0.0,
			"0.012": 0.0,
			"0.013": 0.0,
			"0.014": 0.0,
			"0.015": 0.0,
			"0.016": 0.0,
			"0.017": 0.0,
			"0.018": 0.0,
			"0.019": 0.0,
			"0.02": 0.0,
			"0.021": 0.0,
			"0.022": 0.0,
			"0.023": 0.0,
			"0.024": 0.0,
			"0.025": 0.0
		}
	}
}
