{
	 "smiles": "N#CC1=CC2=C(NC=C2)C=C1", 
	 "Tm": 379.15, 
	 "num_atms": 17, 
	 "gaussian": { 
		 "optdone": 1, 
		 "sigma_profile": "yes", 
		 "theory": "DFT", 
		 "functional": "B3LYP", 
		 "basiset": "6-31G**", 
		 "properties": { 
			 "R2extent": 2968.046, 
			 "electric_dipole_moment_norm": 7.24466133508, 
			 "electric_quadrupole_moment_norm": 23.5185000487, 
			 "total_energy": -456.064456686, 
			 "HOMO_LUMO_gap": 0.1891, 
			 "cosmo_polarized_energy": -14.34, 
			 "cosmo_cavitation_energy": 22.37, 
			 "cosmo_dispersion_energy": -16.27, 
			 "cosmo_repulsion_energy": 1.29, 
			 "cosmo_total_nonelectrostatic_energy": 7.39, 
			 "SMD_solvation_energy": 5.23 
		},
		"coords": [
			{
				"x": -3.7502716567,
				"y": 3.3394516291,
				"z": 1.9428796717,
				"element": "N" 
			},
			{
				"x": -2.7167896412,
				"y": 3.0866966974,
				"z": 1.4706838195,
				"element": "C" 
			},
			{
				"x": -1.4428441378,
				"y": 2.7801211643,
				"z": 0.8897357332,
				"element": "C" 
			},
			{
				"x": -1.1467914348,
				"y": 1.462311223,
				"z": 0.5250012603,
				"element": "C" 
			},
			{
				"x": 0.1028522419,
				"y": 1.181965767,
				"z": -0.0411066685,
				"element": "C" 
			},
			{
				"x": 1.0314024111,
				"y": 2.2483198293,
				"z": -0.2268714623,
				"element": "C" 
			},
			{
				"x": 2.1622096044,
				"y": 1.7063959031,
				"z": -0.7922598478,
				"element": "N" 
			},
			{
				"x": 1.9803439281,
				"y": 0.3446576124,
				"z": -0.9683004529,
				"element": "C" 
			},
			{
				"x": 0.737274523,
				"y": -0.0143476767,
				"z": -0.5227260334,
				"element": "C" 
			},
			{
				"x": 0.7401537432,
				"y": 3.5688725191,
				"z": 0.1364007959,
				"element": "C" 
			},
			{
				"x": -0.5013057886,
				"y": 3.8252296682,
				"z": 0.6947374174,
				"element": "C" 
			},
			{
				"x": -1.8798706423,
				"y": 0.6779725566,
				"z": 0.6822597719,
				"element": "H" 
			},
			{
				"x": 2.9933094127,
				"y": 2.2183889368,
				"z": -1.0400616979,
				"element": "H" 
			},
			{
				"x": 2.7641736585,
				"y": -0.2592966654,
				"z": -1.4022736088,
				"element": "H" 
			},
			{
				"x": 0.3203468137,
				"y": -1.0108560889,
				"z": -0.534715954,
				"element": "H" 
			},
			{
				"x": 1.458607781,
				"y": 4.3694896966,
				"z": -0.0118414299,
				"element": "H" 
			},
			{
				"x": -0.7684008161,
				"y": 4.8337272282,
				"z": 0.9905586856,
				"element": "H" 
			}
		],
		 "valence_orbital": [ 
			{
				"type": "occ",
				"energy": -0.32016,
				"method": "rhf"
			},
			{
				"type": "occ",
				"energy": -0.31709,
				"method": "rhf"
			},
			{
				"type": "occ",
				"energy": -0.29635,
				"method": "rhf"
			},
			{
				"type": "occ",
				"energy": -0.23699,
				"method": "rhf"
			},
			{
				"type": "occ",
				"energy": -0.22417,
				"method": "rhf"
			},
			{
				"type": "unocc",
				"energy": -0.03507,
				"method": "rhf"
			},
			{
				"type": "unocc",
				"energy": -0.01711,
				"method": "rhf"
			},
			{
				"type": "unocc",
				"energy": 0.04963,
				"method": "rhf"
			},
			{
				"type": "unocc",
				"energy": 0.0512,
				"method": "rhf"
			},
			{
				"type": "unocc",
				"energy": 0.06411,
				"method": "rhf"
			}
		],
		"cosmo_sigma_profile": { 
			"-0.025": 0.0,
			"-0.024": 0.0,
			"-0.023": 0.0,
			"-0.022": 0.0,
			"-0.021": 0.0,
			"-0.02": 0.0,
			"-0.019": 0.0,
			"-0.018": 0.0,
			"-0.017": 0.0659188257991,
			"-0.016": 1.64550849274,
			"-0.015": 1.32566801322,
			"-0.014": 1.19118970674,
			"-0.013": 1.7852872653,
			"-0.012": 1.37189681619,
			"-0.011": 1.00532818079,
			"-0.01": 1.43240780646,
			"-0.009": 2.65418232533,
			"-0.008": 4.04135371283,
			"-0.007": 9.09826242591,
			"-0.006": 9.35628591755,
			"-0.005": 10.2902085702,
			"-0.004": 8.34929959347,
			"-0.003": 8.59573287818,
			"-0.002": 8.34541602669,
			"-0.001": 8.67209529003,
			"0.0": 9.89308046956,
			"0.001": 11.5398036398,
			"0.002": 12.4980905156,
			"0.003": 19.6163522541,
			"0.004": 15.3333581191,
			"0.005": 6.85776631549,
			"0.006": 4.35072277262,
			"0.007": 2.85144810744,
			"0.008": 3.03175942274,
			"0.009": 3.44899565625,
			"0.01": 3.51799699986,
			"0.011": 3.23791635281,
			"0.012": 2.69496256559,
			"0.013": 2.39429689632,
			"0.014": 0.860749241262,
			"0.015": 0.0,
			"0.016": 0.0,
			"0.017": 0.0,
			"0.018": 0.0,
			"0.019": 0.0,
			"0.02": 0.0,
			"0.021": 0.0,
			"0.022": 0.0,
			"0.023": 0.0,
			"0.024": 0.0,
			"0.025": 0.0
		}
	}
}
