{
	 "smiles": "C[C@H]1CC11[C@@H](OC(C)=O)C(=O)C2=C([C@H](O)[C@@H](O)[C@H]3C(C)(C)CCC[C@]23C)C1=O", 
	 "Tm": 454.15, 
	 "num_atms": 58, 
	 "gaussian": { 
		 "optdone": 1, 
		 "sigma_profile": "yes", 
		 "theory": "DFT", 
		 "functional": "B3LYP", 
		 "basiset": "6-31G**", 
		 "properties": { 
			 "R2extent": 10689.6447, 
			 "electric_dipole_moment_norm": 1.90345823437, 
			 "electric_quadrupole_moment_norm": 14.672491526, 
			 "total_energy": -1307.73294726, 
			 "HOMO_LUMO_gap": 0.15271, 
			 "cosmo_polarized_energy": -17.52, 
			 "cosmo_cavitation_energy": 52.8, 
			 "cosmo_dispersion_energy": -34.81, 
			 "cosmo_repulsion_energy": 2.58, 
			 "cosmo_total_nonelectrostatic_energy": 20.58, 
			 "SMD_solvation_energy": 10.1 
		},
		"coords": [
			{
				"x": 0.0465561489,
				"y": -2.5939966749,
				"z": -5.3086738261,
				"element": "C" 
			},
			{
				"x": 1.0088283371,
				"y": -1.9223788439,
				"z": -4.3513891485,
				"element": "C" 
			},
			{
				"x": 1.2357437249,
				"y": -0.4466403988,
				"z": -4.3637504004,
				"element": "C" 
			},
			{
				"x": 0.544899188,
				"y": -1.1000164273,
				"z": -3.1550808933,
				"element": "C" 
			},
			{
				"x": -0.9108009254,
				"y": -0.8050460384,
				"z": -2.9049379685,
				"element": "C" 
			},
			{
				"x": -1.5562402186,
				"y": -1.9933718314,
				"z": -2.3598534062,
				"element": "O" 
			},
			{
				"x": -2.6615786826,
				"y": -2.4641699262,
				"z": -3.0067594984,
				"element": "C" 
			},
			{
				"x": -3.2426530522,
				"y": -3.6382522814,
				"z": -2.2581120419,
				"element": "C" 
			},
			{
				"x": -3.1000417308,
				"y": -1.995672208,
				"z": -4.0317906352,
				"element": "O" 
			},
			{
				"x": -1.1057298291,
				"y": 0.2709933185,
				"z": -1.8308108146,
				"element": "C" 
			},
			{
				"x": -1.9272335895,
				"y": 1.1547641494,
				"z": -2.0037420894,
				"element": "O" 
			},
			{
				"x": -0.2854521111,
				"y": 0.137545288,
				"z": -0.5803762857,
				"element": "C" 
			},
			{
				"x": 0.9047825542,
				"y": -0.5110558825,
				"z": -0.6686533942,
				"element": "C" 
			},
			{
				"x": 1.8802635468,
				"y": -0.6420796119,
				"z": 0.4880062223,
				"element": "C" 
			},
			{
				"x": 1.9686512595,
				"y": -2.0010602692,
				"z": 0.9083731561,
				"element": "O" 
			},
			{
				"x": 1.4942125621,
				"y": 0.2104005318,
				"z": 1.7024424941,
				"element": "C" 
			},
			{
				"x": 1.9447903741,
				"y": 1.5538916092,
				"z": 1.5202096436,
				"element": "O" 
			},
			{
				"x": -0.0223502167,
				"y": 0.1668630059,
				"z": 1.9216615533,
				"element": "C" 
			},
			{
				"x": -0.4983962331,
				"y": 0.6232973025,
				"z": 3.3526343613,
				"element": "C" 
			},
			{
				"x": -0.2207033037,
				"y": -0.5404300922,
				"z": 4.3332107055,
				"element": "C" 
			},
			{
				"x": 0.2140133049,
				"y": 1.876971132,
				"z": 3.9018593967,
				"element": "C" 
			},
			{
				"x": -2.0323251335,
				"y": 0.8841439085,
				"z": 3.3286020972,
				"element": "C" 
			},
			{
				"x": -2.7527568131,
				"y": -0.0133516637,
				"z": 2.3215484408,
				"element": "C" 
			},
			{
				"x": -2.3299276124,
				"y": 0.285020007,
				"z": 0.8681888372,
				"element": "C" 
			},
			{
				"x": -0.8309119415,
				"y": 0.74967149,
				"z": 0.714275716,
				"element": "C" 
			},
			{
				"x": -0.7711488693,
				"y": 2.298820173,
				"z": 0.5884508862,
				"element": "C" 
			},
			{
				"x": 1.3800314862,
				"y": -1.1784358398,
				"z": -1.9173088716,
				"element": "C" 
			},
			{
				"x": 2.4677680115,
				"y": -1.7568928529,
				"z": -1.9119232442,
				"element": "O" 
			},
			{
				"x": 0.533731752,
				"y": -2.7419255597,
				"z": -6.2785695791,
				"element": "H" 
			},
			{
				"x": -0.8629220126,
				"y": -2.01195596,
				"z": -5.4762645897,
				"element": "H" 
			},
			{
				"x": -0.2539781865,
				"y": -3.5788144557,
				"z": -4.9362964404,
				"element": "H" 
			},
			{
				"x": 1.8933403053,
				"y": -2.5059159531,
				"z": -4.1075004762,
				"element": "H" 
			},
			{
				"x": 2.2406096865,
				"y": -0.0678228257,
				"z": -4.205742732,
				"element": "H" 
			},
			{
				"x": 0.6050079716,
				"y": 0.1719854112,
				"z": -4.9971640586,
				"element": "H" 
			},
			{
				"x": -1.4492488077,
				"y": -0.4949521882,
				"z": -3.7994501637,
				"element": "H" 
			},
			{
				"x": -2.4635001174,
				"y": -4.3702800409,
				"z": -2.0304433105,
				"element": "H" 
			},
			{
				"x": -3.658216325,
				"y": -3.295529834,
				"z": -1.305222363,
				"element": "H" 
			},
			{
				"x": -4.0308377585,
				"y": -4.0938612976,
				"z": -2.8565557025,
				"element": "H" 
			},
			{
				"x": 2.8633006854,
				"y": -0.2983123389,
				"z": 0.1313412105,
				"element": "H" 
			},
			{
				"x": 2.3652106322,
				"y": -2.4755590005,
				"z": 0.1622151105,
				"element": "H" 
			},
			{
				"x": 1.9947815445,
				"y": -0.2462548802,
				"z": 2.567097571,
				"element": "H" 
			},
			{
				"x": 2.9103534951,
				"y": 1.5466311483,
				"z": 1.5393736233,
				"element": "H" 
			},
			{
				"x": -0.2314712893,
				"y": -0.911879562,
				"z": 1.8860290472,
				"element": "H" 
			},
			{
				"x": 0.8347117757,
				"y": -0.8322477397,
				"z": 4.3322791231,
				"element": "H" 
			},
			{
				"x": -0.8069464286,
				"y": -1.4311527375,
				"z": 4.0816696512,
				"element": "H" 
			},
			{
				"x": -0.4793536822,
				"y": -0.2469862808,
				"z": 5.3565660943,
				"element": "H" 
			},
			{
				"x": 0.1241480588,
				"y": 2.7361120575,
				"z": 3.2353033534,
				"element": "H" 
			},
			{
				"x": 1.2810849797,
				"y": 1.7019427977,
				"z": 4.0632242882,
				"element": "H" 
			},
			{
				"x": -0.2291876139,
				"y": 2.147038665,
				"z": 4.8680863734,
				"element": "H" 
			},
			{
				"x": -2.2346964642,
				"y": 1.9337535338,
				"z": 3.0848646628,
				"element": "H" 
			},
			{
				"x": -2.4347053476,
				"y": 0.7282495581,
				"z": 4.3372129566,
				"element": "H" 
			},
			{
				"x": -3.8387984039,
				"y": 0.1049099615,
				"z": 2.4106253086,
				"element": "H" 
			},
			{
				"x": -2.5462043062,
				"y": -1.0634991959,
				"z": 2.5640250983,
				"element": "H" 
			},
			{
				"x": -2.9718511349,
				"y": 1.0601639854,
				"z": 0.4413096927,
				"element": "H" 
			},
			{
				"x": -2.5029456356,
				"y": -0.6155810406,
				"z": 0.2672142584,
				"element": "H" 
			},
			{
				"x": 0.2568255681,
				"y": 2.6430339303,
				"z": 0.4818540155,
				"element": "H" 
			},
			{
				"x": -1.3549262824,
				"y": 2.6156130658,
				"z": -0.2763627962,
				"element": "H" 
			},
			{
				"x": -1.1977068939,
				"y": 2.7738657033,
				"z": 1.4736797806,
				"element": "H" 
			}
		],
		 "valence_orbital": [ 
			{
				"type": "occ",
				"energy": -0.28103,
				"method": "rhf"
			},
			{
				"type": "occ",
				"energy": -0.27564,
				"method": "rhf"
			},
			{
				"type": "occ",
				"energy": -0.2717,
				"method": "rhf"
			},
			{
				"type": "occ",
				"energy": -0.26435,
				"method": "rhf"
			},
			{
				"type": "occ",
				"energy": -0.24404,
				"method": "rhf"
			},
			{
				"type": "unocc",
				"energy": -0.09133,
				"method": "rhf"
			},
			{
				"type": "unocc",
				"energy": -0.02771,
				"method": "rhf"
			},
			{
				"type": "unocc",
				"energy": 0.00203,
				"method": "rhf"
			},
			{
				"type": "unocc",
				"energy": 0.05145,
				"method": "rhf"
			},
			{
				"type": "unocc",
				"energy": 0.06138,
				"method": "rhf"
			}
		],
		"cosmo_sigma_profile": { 
			"-0.025": 0.0,
			"-0.024": 0.0,
			"-0.023": 0.0,
			"-0.022": 0.0,
			"-0.021": 0.0,
			"-0.02": 0.0,
			"-0.019": 0.0,
			"-0.018": 0.0,
			"-0.017": 0.0,
			"-0.016": 0.435100570587,
			"-0.015": 1.44684560041,
			"-0.014": 0.292640045145,
			"-0.013": 1.05383274091,
			"-0.012": 1.62221391532,
			"-0.011": 1.67538976805,
			"-0.01": 1.18658716662,
			"-0.009": 1.6587697001,
			"-0.008": 3.31940703747,
			"-0.007": 6.22034462527,
			"-0.006": 12.3919102149,
			"-0.005": 15.0510524391,
			"-0.004": 26.5250310381,
			"-0.003": 37.9954822832,
			"-0.002": 52.1283669838,
			"-0.001": 46.5625344462,
			"0.0": 44.9443705454,
			"0.001": 42.05271188,
			"0.002": 26.8523450282,
			"0.003": 13.2934902732,
			"0.004": 10.9710146596,
			"0.005": 9.27217479798,
			"0.006": 7.92157427072,
			"0.007": 6.77977339366,
			"0.008": 7.57235970926,
			"0.009": 7.89628282532,
			"0.01": 8.40796115099,
			"0.011": 8.49192999311,
			"0.012": 4.12039689138,
			"0.013": 1.56381085063,
			"0.014": 0.202245380432,
			"0.015": 0.0,
			"0.016": 0.0,
			"0.017": 0.0,
			"0.018": 0.0,
			"0.019": 0.0,
			"0.02": 0.0,
			"0.021": 0.0,
			"0.022": 0.0,
			"0.023": 0.0,
			"0.024": 0.0,
			"0.025": 0.0
		}
	}
}
