{
	 "smiles": "CN(C)C(=O)CC1=CC=C(N)C=C1", 
	 "Tm": 371.15, 
	 "num_atms": 27, 
	 "gaussian": { 
		 "optdone": 1, 
		 "sigma_profile": "yes", 
		 "theory": "DFT", 
		 "functional": "B3LYP", 
		 "basiset": "6-31G**", 
		 "properties": { 
			 "R2extent": 3291.7228, 
			 "electric_dipole_moment_norm": 4.52866892917, 
			 "electric_quadrupole_moment_norm": 12.3783939221, 
			 "total_energy": -574.244643551, 
			 "HOMO_LUMO_gap": 0.19871, 
			 "cosmo_polarized_energy": -15.12, 
			 "cosmo_cavitation_energy": 29.74, 
			 "cosmo_dispersion_energy": -21.26, 
			 "cosmo_repulsion_energy": 1.7, 
			 "cosmo_total_nonelectrostatic_energy": 10.18, 
			 "SMD_solvation_energy": 5.47 
		},
		"coords": [
			{
				"x": 1.1643910856,
				"y": 1.6478130561,
				"z": -1.1432391103,
				"element": "C" 
			},
			{
				"x": 1.4479887724,
				"y": 1.1560479606,
				"z": 0.1947353483,
				"element": "N" 
			},
			{
				"x": 2.115298973,
				"y": 2.0915879893,
				"z": 1.0887083903,
				"element": "C" 
			},
			{
				"x": 1.1712715459,
				"y": -0.1120332851,
				"z": 0.6465507373,
				"element": "C" 
			},
			{
				"x": 1.4058627373,
				"y": -0.4568067676,
				"z": 1.8036384756,
				"element": "O" 
			},
			{
				"x": 0.5264826611,
				"y": -1.1061810109,
				"z": -0.3263670334,
				"element": "C" 
			},
			{
				"x": -0.9840695062,
				"y": -0.9563968988,
				"z": -0.4136381293,
				"element": "C" 
			},
			{
				"x": -1.6456588011,
				"y": -0.9143083628,
				"z": -1.6460572389,
				"element": "C" 
			},
			{
				"x": -3.0327995804,
				"y": -0.799258214,
				"z": -1.7254683714,
				"element": "C" 
			},
			{
				"x": -3.8093019527,
				"y": -0.7226978722,
				"z": -0.5587409477,
				"element": "C" 
			},
			{
				"x": -5.2040974706,
				"y": -0.6657372548,
				"z": -0.6252864492,
				"element": "N" 
			},
			{
				"x": -3.1490752867,
				"y": -0.7656441939,
				"z": 0.6825909471,
				"element": "C" 
			},
			{
				"x": -1.765107564,
				"y": -0.8811934065,
				"z": 0.7493688989,
				"element": "C" 
			},
			{
				"x": 0.3964969007,
				"y": 1.0489140282,
				"z": -1.6293948511,
				"element": "H" 
			},
			{
				"x": 2.0641666496,
				"y": 1.6637911486,
				"z": -1.7752849215,
				"element": "H" 
			},
			{
				"x": 0.7842475388,
				"y": 2.6737411333,
				"z": -1.0774703111,
				"element": "H" 
			},
			{
				"x": 1.4913987368,
				"y": 2.9788781425,
				"z": 1.2558155584,
				"element": "H" 
			},
			{
				"x": 2.2932104049,
				"y": 1.5889248524,
				"z": 2.0377776234,
				"element": "H" 
			},
			{
				"x": 3.0715890044,
				"y": 2.4196515847,
				"z": 0.6609239597,
				"element": "H" 
			},
			{
				"x": 0.9678135783,
				"y": -1.0426017138,
				"z": -1.3257421763,
				"element": "H" 
			},
			{
				"x": 0.7852858198,
				"y": -2.0888326755,
				"z": 0.0795305424,
				"element": "H" 
			},
			{
				"x": -1.0700510231,
				"y": -0.979804286,
				"z": -2.5672056835,
				"element": "H" 
			},
			{
				"x": -3.5196740764,
				"y": -0.7746422759,
				"z": -2.6975823237,
				"element": "H" 
			},
			{
				"x": -5.5766159499,
				"y": -0.2875391442,
				"z": -1.4854703335,
				"element": "H" 
			},
			{
				"x": -5.6541204199,
				"y": -0.2636487512,
				"z": 0.1856290562,
				"element": "H" 
			},
			{
				"x": -3.7316385259,
				"y": -0.7138248088,
				"z": 1.5995483875,
				"element": "H" 
			},
			{
				"x": -1.2739942519,
				"y": -0.9109989734,
				"z": 1.7181299557,
				"element": "H" 
			}
		],
		 "valence_orbital": [ 
			{
				"type": "occ",
				"energy": -0.29954,
				"method": "rhf"
			},
			{
				"type": "occ",
				"energy": -0.24466,
				"method": "rhf"
			},
			{
				"type": "occ",
				"energy": -0.23706,
				"method": "rhf"
			},
			{
				"type": "occ",
				"energy": -0.23116,
				"method": "rhf"
			},
			{
				"type": "occ",
				"energy": -0.197,
				"method": "rhf"
			},
			{
				"type": "unocc",
				"energy": 0.00171,
				"method": "rhf"
			},
			{
				"type": "unocc",
				"energy": 0.01558,
				"method": "rhf"
			},
			{
				"type": "unocc",
				"energy": 0.03749,
				"method": "rhf"
			},
			{
				"type": "unocc",
				"energy": 0.082,
				"method": "rhf"
			},
			{
				"type": "unocc",
				"energy": 0.09101,
				"method": "rhf"
			}
		],
		"cosmo_sigma_profile": { 
			"-0.025": 0.0,
			"-0.024": 0.0,
			"-0.023": 0.0,
			"-0.022": 0.0,
			"-0.021": 0.0,
			"-0.02": 0.0,
			"-0.019": 0.0,
			"-0.018": 0.0,
			"-0.017": 0.0,
			"-0.016": 0.0,
			"-0.015": 0.0,
			"-0.014": 0.0,
			"-0.013": 0.0395101046088,
			"-0.012": 2.43206529645,
			"-0.011": 2.37858808721,
			"-0.01": 2.88636586655,
			"-0.009": 3.57201345663,
			"-0.008": 2.98928919055,
			"-0.007": 2.74982072732,
			"-0.006": 6.55576003182,
			"-0.005": 16.2409150012,
			"-0.004": 24.9176696622,
			"-0.003": 24.0234567308,
			"-0.002": 25.5852766339,
			"-0.001": 17.5970678077,
			"0.0": 11.8779909051,
			"0.001": 11.6524368714,
			"0.002": 10.4687688969,
			"0.003": 9.85144275904,
			"0.004": 9.23859832652,
			"0.005": 8.56648991843,
			"0.006": 11.3418197895,
			"0.007": 7.84946748633,
			"0.008": 2.40995848859,
			"0.009": 2.56769287809,
			"0.01": 1.78234687606,
			"0.011": 1.76920293756,
			"0.012": 2.57199509387,
			"0.013": 2.46135026557,
			"0.014": 5.05635173951,
			"0.015": 2.4620451785,
			"0.016": 0.196513166943,
			"0.017": 0.0,
			"0.018": 0.0,
			"0.019": 0.0,
			"0.02": 0.0,
			"0.021": 0.0,
			"0.022": 0.0,
			"0.023": 0.0,
			"0.024": 0.0,
			"0.025": 0.0
		}
	}
}
