{
	 "smiles": "C(CN1CCOCC1)CC1=CC=C(COC2=CC=CC=C2)C=C1", 
	 "Tm": 325.65, 
	 "num_atms": 48, 
	 "gaussian": { 
		 "optdone": 1, 
		 "sigma_profile": "yes", 
		 "theory": "DFT", 
		 "functional": "B3LYP", 
		 "basiset": "6-31G**", 
		 "properties": { 
			 "R2extent": 14931.7432, 
			 "electric_dipole_moment_norm": 0.661921226431, 
			 "electric_quadrupole_moment_norm": 13.8636856059, 
			 "total_energy": -982.362125278, 
			 "HOMO_LUMO_gap": 0.20403, 
			 "cosmo_polarized_energy": -11.33, 
			 "cosmo_cavitation_energy": 49.15, 
			 "cosmo_dispersion_energy": -34.39, 
			 "cosmo_repulsion_energy": 2.62, 
			 "cosmo_total_nonelectrostatic_energy": 17.37, 
			 "SMD_solvation_energy": 6.6 
		},
		"coords": [
			{
				"x": 1.289667213,
				"y": -0.5162396254,
				"z": 3.8308629805,
				"element": "C" 
			},
			{
				"x": 2.1971243258,
				"y": 0.5435551025,
				"z": 3.191288595,
				"element": "C" 
			},
			{
				"x": 1.7701484719,
				"y": 1.9147802039,
				"z": 3.4732117605,
				"element": "N" 
			},
			{
				"x": 2.4109813188,
				"y": 2.933064834,
				"z": 2.6182380883,
				"element": "C" 
			},
			{
				"x": 3.543508078,
				"y": 3.6733729072,
				"z": 3.3285949483,
				"element": "C" 
			},
			{
				"x": 3.0792580969,
				"y": 4.3552325161,
				"z": 4.4943536896,
				"element": "O" 
			},
			{
				"x": 1.9229181647,
				"y": 3.7683024833,
				"z": 5.0866742056,
				"element": "C" 
			},
			{
				"x": 1.8757229208,
				"y": 2.2563121099,
				"z": 4.8993648168,
				"element": "C" 
			},
			{
				"x": -0.197158285,
				"y": -0.4121268949,
				"z": 3.4259270872,
				"element": "C" 
			},
			{
				"x": -0.4480704744,
				"y": -0.6422450109,
				"z": 1.9506055892,
				"element": "C" 
			},
			{
				"x": -0.5788317889,
				"y": 0.4308407048,
				"z": 1.0603946698,
				"element": "C" 
			},
			{
				"x": -0.7828388517,
				"y": 0.211862257,
				"z": -0.3032586824,
				"element": "C" 
			},
			{
				"x": -0.872652744,
				"y": -1.0861301797,
				"z": -0.813364496,
				"element": "C" 
			},
			{
				"x": -1.1555602182,
				"y": -1.314420554,
				"z": -2.2778906708,
				"element": "C" 
			},
			{
				"x": -0.344263478,
				"y": -2.3905965381,
				"z": -2.7453319056,
				"element": "O" 
			},
			{
				"x": -0.4967158686,
				"y": -2.8088363208,
				"z": -4.0376928095,
				"element": "C" 
			},
			{
				"x": -1.3628802548,
				"y": -2.2223780454,
				"z": -4.9685036418,
				"element": "C" 
			},
			{
				"x": -1.4293129749,
				"y": -2.7398119747,
				"z": -6.2668185254,
				"element": "C" 
			},
			{
				"x": -0.6460639055,
				"y": -3.8268984208,
				"z": -6.6464966376,
				"element": "C" 
			},
			{
				"x": 0.2187494312,
				"y": -4.4049072635,
				"z": -5.7099769765,
				"element": "C" 
			},
			{
				"x": 0.295802713,
				"y": -3.9036503473,
				"z": -4.4157470082,
				"element": "C" 
			},
			{
				"x": -0.7445603702,
				"y": -2.1647688139,
				"z": 0.0710340168,
				"element": "C" 
			},
			{
				"x": -0.5320406373,
				"y": -1.9425051164,
				"z": 1.4293152914,
				"element": "C" 
			},
			{
				"x": 1.6798930068,
				"y": -1.5023462126,
				"z": 3.549389451,
				"element": "H" 
			},
			{
				"x": 1.3615905258,
				"y": -0.4626608021,
				"z": 4.9241685703,
				"element": "H" 
			},
			{
				"x": 3.2380233065,
				"y": 0.3573464803,
				"z": 3.5250255893,
				"element": "H" 
			},
			{
				"x": 2.179584945,
				"y": 0.4072841168,
				"z": 2.104926319,
				"element": "H" 
			},
			{
				"x": 2.7944326355,
				"y": 2.4548658206,
				"z": 1.711455427,
				"element": "H" 
			},
			{
				"x": 1.6621144982,
				"y": 3.6693197546,
				"z": 2.2952271823,
				"element": "H" 
			},
			{
				"x": 4.3423920853,
				"y": 2.9647835892,
				"z": 3.6003006035,
				"element": "H" 
			},
			{
				"x": 3.9842187211,
				"y": 4.4304291465,
				"z": 2.6696522776,
				"element": "H" 
			},
			{
				"x": 1.9571207897,
				"y": 4.0139978104,
				"z": 6.1530100077,
				"element": "H" 
			},
			{
				"x": 1.0067716856,
				"y": 4.2166038269,
				"z": 4.6704372807,
				"element": "H" 
			},
			{
				"x": 1.0169084919,
				"y": 1.8515529015,
				"z": 5.4497586346,
				"element": "H" 
			},
			{
				"x": 2.7838474064,
				"y": 1.8198281312,
				"z": 5.3577020441,
				"element": "H" 
			},
			{
				"x": -0.7643763621,
				"y": -1.148238107,
				"z": 4.0086105383,
				"element": "H" 
			},
			{
				"x": -0.5690932204,
				"y": 0.5778543792,
				"z": 3.7079708481,
				"element": "H" 
			},
			{
				"x": -0.5077712745,
				"y": 1.4456312196,
				"z": 1.4423435391,
				"element": "H" 
			},
			{
				"x": -0.8730131423,
				"y": 1.0621348032,
				"z": -0.9756464132,
				"element": "H" 
			},
			{
				"x": -0.9484549382,
				"y": -0.4010740568,
				"z": -2.8529524651,
				"element": "H" 
			},
			{
				"x": -2.216461365,
				"y": -1.56645446,
				"z": -2.4312500369,
				"element": "H" 
			},
			{
				"x": -1.9800444756,
				"y": -1.3731519947,
				"z": -4.7006670103,
				"element": "H" 
			},
			{
				"x": -2.1043169772,
				"y": -2.2790208829,
				"z": -6.9828309487,
				"element": "H" 
			},
			{
				"x": -0.7047603514,
				"y": -4.2205104747,
				"z": -7.6564767229,
				"element": "H" 
			},
			{
				"x": 0.8371882956,
				"y": -5.2530263589,
				"z": -5.9904156391,
				"element": "H" 
			},
			{
				"x": 0.9604727217,
				"y": -4.3392300184,
				"z": -3.676676923,
				"element": "H" 
			},
			{
				"x": -0.8029792061,
				"y": -3.178002023,
				"z": -0.3141221839,
				"element": "H" 
			},
			{
				"x": -0.4373186848,
				"y": -2.793224602,
				"z": 2.1007756453,
				"element": "H" 
			}
		],
		 "valence_orbital": [ 
			{
				"type": "occ",
				"energy": -0.24735,
				"method": "rhf"
			},
			{
				"type": "occ",
				"energy": -0.24457,
				"method": "rhf"
			},
			{
				"type": "occ",
				"energy": -0.2357,
				"method": "rhf"
			},
			{
				"type": "occ",
				"energy": -0.21625,
				"method": "rhf"
			},
			{
				"type": "occ",
				"energy": -0.20832,
				"method": "rhf"
			},
			{
				"type": "unocc",
				"energy": -0.00429,
				"method": "rhf"
			},
			{
				"type": "unocc",
				"energy": -0.00029,
				"method": "rhf"
			},
			{
				"type": "unocc",
				"energy": 0.00348,
				"method": "rhf"
			},
			{
				"type": "unocc",
				"energy": 0.01648,
				"method": "rhf"
			},
			{
				"type": "unocc",
				"energy": 0.07704,
				"method": "rhf"
			}
		],
		"cosmo_sigma_profile": { 
			"-0.025": 0.0,
			"-0.024": 0.0,
			"-0.023": 0.0,
			"-0.022": 0.0,
			"-0.021": 0.0,
			"-0.02": 0.0,
			"-0.019": 0.0,
			"-0.018": 0.0,
			"-0.017": 0.0,
			"-0.016": 0.0,
			"-0.015": 0.0,
			"-0.014": 0.0,
			"-0.013": 0.0,
			"-0.012": 0.0,
			"-0.011": 0.0,
			"-0.01": 0.0,
			"-0.009": 0.0,
			"-0.008": 0.0,
			"-0.007": 0.382493370216,
			"-0.006": 9.93374562515,
			"-0.005": 23.6492954661,
			"-0.004": 34.4071346166,
			"-0.003": 48.9274650548,
			"-0.002": 53.1141359019,
			"-0.001": 44.0762686064,
			"0.0": 29.1094818246,
			"0.001": 23.352958436,
			"0.002": 18.3811863029,
			"0.003": 19.3201724166,
			"0.004": 19.5306797358,
			"0.005": 20.8556370557,
			"0.006": 20.4978710048,
			"0.007": 5.7238129196,
			"0.008": 3.34482647213,
			"0.009": 3.43566595431,
			"0.01": 1.59004195716,
			"0.011": 1.2327981132,
			"0.012": 1.53293412976,
			"0.013": 1.46082916837,
			"0.014": 1.77251612074,
			"0.015": 0.0703138041453,
			"0.016": 0.0,
			"0.017": 0.0,
			"0.018": 0.0,
			"0.019": 0.0,
			"0.02": 0.0,
			"0.021": 0.0,
			"0.022": 0.0,
			"0.023": 0.0,
			"0.024": 0.0,
			"0.025": 0.0
		}
	}
}
