{
	 "smiles": "CCC(NC1=NC(C)=CS1)C(O)=O", 
	 "Tm": 447.15, 
	 "num_atms": 25, 
	 "gaussian": { 
		 "optdone": 1, 
		 "sigma_profile": "yes", 
		 "theory": "DFT", 
		 "functional": "B3LYP", 
		 "basiset": "6-31G**", 
		 "properties": { 
			 "R2extent": 3584.279, 
			 "electric_dipole_moment_norm": 4.70954920242, 
			 "electric_quadrupole_moment_norm": 11.3885126456, 
			 "total_energy": -970.237054204, 
			 "HOMO_LUMO_gap": 0.20476, 
			 "cosmo_polarized_energy": -15.33, 
			 "cosmo_cavitation_energy": 30.25, 
			 "cosmo_dispersion_energy": -21.92, 
			 "cosmo_repulsion_energy": 1.74, 
			 "cosmo_total_nonelectrostatic_energy": 10.06, 
			 "SMD_solvation_energy": 5.22 
		},
		"coords": [
			{
				"x": 1.6608791398,
				"y": -2.5672365247,
				"z": 1.7794618295,
				"element": "C" 
			},
			{
				"x": 2.0267257356,
				"y": -1.1647371723,
				"z": 1.2805696278,
				"element": "C" 
			},
			{
				"x": 1.5259873289,
				"y": -0.8516811652,
				"z": -0.1412823913,
				"element": "C" 
			},
			{
				"x": 1.5211971892,
				"y": 0.5930588106,
				"z": -0.4529580433,
				"element": "N" 
			},
			{
				"x": 0.4031017741,
				"y": 1.3412322185,
				"z": -0.0934474848,
				"element": "C" 
			},
			{
				"x": -0.7661919825,
				"y": 0.8359423996,
				"z": 0.1569379579,
				"element": "N" 
			},
			{
				"x": -1.700381211,
				"y": 1.8316791075,
				"z": 0.4082634204,
				"element": "C" 
			},
			{
				"x": -3.1117758942,
				"y": 1.433169686,
				"z": 0.7197380515,
				"element": "C" 
			},
			{
				"x": -1.2230592388,
				"y": 3.1061460908,
				"z": 0.3510853966,
				"element": "C" 
			},
			{
				"x": 0.481029866,
				"y": 3.1055198201,
				"z": -0.044711564,
				"element": "S" 
			},
			{
				"x": 2.3063716504,
				"y": -1.5927400938,
				"z": -1.2454313021,
				"element": "C" 
			},
			{
				"x": 2.3116197801,
				"y": -0.9702331426,
				"z": -2.4403148938,
				"element": "O" 
			},
			{
				"x": 2.8477045511,
				"y": -2.6600319531,
				"z": -1.0828893992,
				"element": "O" 
			},
			{
				"x": 2.0118971275,
				"y": -2.7084166388,
				"z": 2.8065593055,
				"element": "H" 
			},
			{
				"x": 0.5741553973,
				"y": -2.709083612,
				"z": 1.777472893,
				"element": "H" 
			},
			{
				"x": 2.1115290711,
				"y": -3.3339417513,
				"z": 1.14801517,
				"element": "H" 
			},
			{
				"x": 1.5829388887,
				"y": -0.4161634187,
				"z": 1.9471940667,
				"element": "H" 
			},
			{
				"x": 3.1149748029,
				"y": -1.0269085622,
				"z": 1.3170426779,
				"element": "H" 
			},
			{
				"x": 0.4804588462,
				"y": -1.169351,
				"z": -0.2279448782,
				"element": "H" 
			},
			{
				"x": 2.3981211652,
				"y": 1.0514172156,
				"z": -0.2265668365,
				"element": "H" 
			},
			{
				"x": -3.1448797417,
				"y": 0.7907024542,
				"z": 1.6062992609,
				"element": "H" 
			},
			{
				"x": -3.5433683813,
				"y": 0.8621605753,
				"z": -0.1094294952,
				"element": "H" 
			},
			{
				"x": -3.73928617,
				"y": 2.3087696105,
				"z": 0.9018023029,
				"element": "H" 
			},
			{
				"x": -1.7495248267,
				"y": 4.0345540794,
				"z": 0.5171567024,
				"element": "H" 
			},
			{
				"x": 1.8720751319,
				"y": -0.1075270334,
				"z": -2.3093223745,
				"element": "H" 
			}
		],
		 "valence_orbital": [ 
			{
				"type": "occ",
				"energy": -0.3116,
				"method": "rhf"
			},
			{
				"type": "occ",
				"energy": -0.28605,
				"method": "rhf"
			},
			{
				"type": "occ",
				"energy": -0.28502,
				"method": "rhf"
			},
			{
				"type": "occ",
				"energy": -0.2666,
				"method": "rhf"
			},
			{
				"type": "occ",
				"energy": -0.22313,
				"method": "rhf"
			},
			{
				"type": "unocc",
				"energy": -0.01837,
				"method": "rhf"
			},
			{
				"type": "unocc",
				"energy": -0.00259,
				"method": "rhf"
			},
			{
				"type": "unocc",
				"energy": 0.00751,
				"method": "rhf"
			},
			{
				"type": "unocc",
				"energy": 0.04677,
				"method": "rhf"
			},
			{
				"type": "unocc",
				"energy": 0.07482,
				"method": "rhf"
			}
		],
		"cosmo_sigma_profile": { 
			"-0.025": 0.0,
			"-0.024": 0.0,
			"-0.023": 0.0,
			"-0.022": 0.0,
			"-0.021": 0.0,
			"-0.02": 0.0,
			"-0.019": 0.0,
			"-0.018": 0.0,
			"-0.017": 0.0,
			"-0.016": 0.0691587933261,
			"-0.015": 1.21185831494,
			"-0.014": 2.34027844049,
			"-0.013": 1.95957377848,
			"-0.012": 1.82728016138,
			"-0.011": 2.85438592356,
			"-0.01": 2.17642223596,
			"-0.009": 3.24247622612,
			"-0.008": 5.1579835846,
			"-0.007": 6.14036605016,
			"-0.006": 5.41439744996,
			"-0.005": 8.58971254962,
			"-0.004": 14.9040274451,
			"-0.003": 17.6878831192,
			"-0.002": 18.1385240757,
			"-0.001": 23.2867858523,
			"0.0": 22.9104607766,
			"0.001": 18.4311832073,
			"0.002": 15.1931081581,
			"0.003": 12.6851194526,
			"0.004": 13.095072507,
			"0.005": 7.98003215882,
			"0.006": 4.78996383153,
			"0.007": 3.72929724324,
			"0.008": 4.81048808993,
			"0.009": 4.57240826971,
			"0.01": 6.07794980793,
			"0.011": 5.78291453716,
			"0.012": 4.2111169809,
			"0.013": 1.62286966986,
			"0.014": 0.0605662462472,
			"0.015": 0.0,
			"0.016": 0.0,
			"0.017": 0.0,
			"0.018": 0.0,
			"0.019": 0.0,
			"0.02": 0.0,
			"0.021": 0.0,
			"0.022": 0.0,
			"0.023": 0.0,
			"0.024": 0.0,
			"0.025": 0.0
		}
	}
}
