{
	 "smiles": "NC1=CC(=NO1)C1=CN=CC=C1", 
	 "Tm": 448.15, 
	 "num_atms": 19, 
	 "gaussian": { 
		 "optdone": 1, 
		 "sigma_profile": "yes", 
		 "theory": "DFT", 
		 "functional": "B3LYP", 
		 "basiset": "6-31G**", 
		 "properties": { 
			 "R2extent": 2647.1145, 
			 "electric_dipole_moment_norm": 5.67573228227, 
			 "electric_quadrupole_moment_norm": 15.4601694208, 
			 "total_energy": -548.492244379, 
			 "HOMO_LUMO_gap": 0.18403, 
			 "cosmo_polarized_energy": -16.67, 
			 "cosmo_cavitation_energy": 24.03, 
			 "cosmo_dispersion_energy": -18.1, 
			 "cosmo_repulsion_energy": 1.43, 
			 "cosmo_total_nonelectrostatic_energy": 7.37, 
			 "SMD_solvation_energy": 2.89 
		},
		"coords": [
			{
				"x": -1.3721252414,
				"y": 2.3004459086,
				"z": 3.1985236926,
				"element": "N" 
			},
			{
				"x": -1.2511674613,
				"y": 1.5896523302,
				"z": 2.0306261644,
				"element": "C" 
			},
			{
				"x": -0.7911943494,
				"y": 0.3342759121,
				"z": 1.7316737182,
				"element": "C" 
			},
			{
				"x": -1.0223576518,
				"y": 0.2243344224,
				"z": 0.328486183,
				"element": "C" 
			},
			{
				"x": -1.5756034233,
				"y": 1.3130866457,
				"z": -0.1744868162,
				"element": "N" 
			},
			{
				"x": -1.7177372415,
				"y": 2.1911636005,
				"z": 0.9224813659,
				"element": "O" 
			},
			{
				"x": -0.7147787243,
				"y": -0.9143863642,
				"z": -0.5536158781,
				"element": "C" 
			},
			{
				"x": -0.718774733,
				"y": -0.7654480301,
				"z": -1.9524523554,
				"element": "C" 
			},
			{
				"x": -0.4530529869,
				"y": -1.7543621409,
				"z": -2.8085793203,
				"element": "N" 
			},
			{
				"x": -0.1615358644,
				"y": -2.9574281903,
				"z": -2.2946365339,
				"element": "C" 
			},
			{
				"x": -0.1235977266,
				"y": -3.2188035716,
				"z": -0.9251383074,
				"element": "C" 
			},
			{
				"x": -0.4069512517,
				"y": -2.1802238755,
				"z": -0.041760859,
				"element": "C" 
			},
			{
				"x": -1.4676520511,
				"y": 3.29961851,
				"z": 3.0757674266,
				"element": "H" 
			},
			{
				"x": -0.7279036538,
				"y": 2.0423827499,
				"z": 3.9315912502,
				"element": "H" 
			},
			{
				"x": -0.3467175938,
				"y": -0.3834259065,
				"z": 2.4020434418,
				"element": "H" 
			},
			{
				"x": -0.9464752057,
				"y": 0.2065107248,
				"z": -2.3826366625,
				"element": "H" 
			},
			{
				"x": 0.0512828215,
				"y": -3.7474130304,
				"z": -3.0127611423,
				"element": "H" 
			},
			{
				"x": 0.1169858631,
				"y": -4.2127507596,
				"z": -0.5611259264,
				"element": "H" 
			},
			{
				"x": -0.4003435247,
				"y": -2.354028935,
				"z": 1.0302005586,
				"element": "H" 
			}
		],
		 "valence_orbital": [ 
			{
				"type": "occ",
				"energy": -0.30173,
				"method": "rhf"
			},
			{
				"type": "occ",
				"energy": -0.28158,
				"method": "rhf"
			},
			{
				"type": "occ",
				"energy": -0.25084,
				"method": "rhf"
			},
			{
				"type": "occ",
				"energy": -0.24733,
				"method": "rhf"
			},
			{
				"type": "occ",
				"energy": -0.22301,
				"method": "rhf"
			},
			{
				"type": "unocc",
				"energy": -0.03898,
				"method": "rhf"
			},
			{
				"type": "unocc",
				"energy": -0.0211,
				"method": "rhf"
			},
			{
				"type": "unocc",
				"energy": 0.02576,
				"method": "rhf"
			},
			{
				"type": "unocc",
				"energy": 0.05574,
				"method": "rhf"
			},
			{
				"type": "unocc",
				"energy": 0.083,
				"method": "rhf"
			}
		],
		"cosmo_sigma_profile": { 
			"-0.025": 0.0,
			"-0.024": 0.0,
			"-0.023": 0.0,
			"-0.022": 0.0,
			"-0.021": 0.0,
			"-0.02": 0.0,
			"-0.019": 0.0,
			"-0.018": 0.0,
			"-0.017": 0.0,
			"-0.016": 0.0,
			"-0.015": 0.74283785448,
			"-0.014": 3.3106018161,
			"-0.013": 1.8488387757,
			"-0.012": 3.13709007061,
			"-0.011": 3.42079697376,
			"-0.01": 1.71620086811,
			"-0.009": 2.71419347442,
			"-0.008": 5.87582147596,
			"-0.007": 8.6607484575,
			"-0.006": 9.45689904613,
			"-0.005": 9.96361712813,
			"-0.004": 7.67874308746,
			"-0.003": 8.03784119992,
			"-0.002": 6.88753570052,
			"-0.001": 9.1906194223,
			"0.0": 11.5574364374,
			"0.001": 19.4402844719,
			"0.002": 19.8814866907,
			"0.003": 11.4353612461,
			"0.004": 7.66475152372,
			"0.005": 5.34583545302,
			"0.006": 4.12386364375,
			"0.007": 4.97871383186,
			"0.008": 6.85181832547,
			"0.009": 4.1019778125,
			"0.01": 3.68968943162,
			"0.011": 3.08410516977,
			"0.012": 2.47373227071,
			"0.013": 2.24718635254,
			"0.014": 1.694666627,
			"0.015": 1.08938547204,
			"0.016": 0.768678233286,
			"0.017": 0.117223291477,
			"0.018": 0.0,
			"0.019": 0.0,
			"0.02": 0.0,
			"0.021": 0.0,
			"0.022": 0.0,
			"0.023": 0.0,
			"0.024": 0.0,
			"0.025": 0.0
		}
	}
}
