{
	 "smiles": "CC(=O)NC1=CC=CC(F)=C1", 
	 "Tm": 358.65, 
	 "num_atms": 19, 
	 "gaussian": { 
		 "optdone": 1, 
		 "sigma_profile": "yes", 
		 "theory": "DFT", 
		 "functional": "B3LYP", 
		 "basiset": "6-31G**", 
		 "properties": { 
			 "R2extent": 2474.1698, 
			 "electric_dipole_moment_norm": 2.68030492295, 
			 "electric_quadrupole_moment_norm": 8.66807942799, 
			 "total_energy": -539.496569158, 
			 "HOMO_LUMO_gap": 0.20471, 
			 "cosmo_polarized_energy": -10.85, 
			 "cosmo_cavitation_energy": 23.6, 
			 "cosmo_dispersion_energy": -17.3, 
			 "cosmo_repulsion_energy": 1.36, 
			 "cosmo_total_nonelectrostatic_energy": 7.66, 
			 "SMD_solvation_energy": 5.46 
		},
		"coords": [
			{
				"x": 1.1711705513,
				"y": -1.9487117707,
				"z": -0.3993085779,
				"element": "C" 
			},
			{
				"x": 1.0216440298,
				"y": -1.3726720087,
				"z": 0.9919499374,
				"element": "C" 
			},
			{
				"x": 1.2610062649,
				"y": -2.0353038026,
				"z": 1.991064346,
				"element": "O" 
			},
			{
				"x": 0.6027134617,
				"y": -0.0582352906,
				"z": 1.1633196926,
				"element": "N" 
			},
			{
				"x": 0.2377290952,
				"y": 1.0073268025,
				"z": 0.3234607072,
				"element": "C" 
			},
			{
				"x": 0.2117576017,
				"y": 0.970688989,
				"z": -1.0816509594,
				"element": "C" 
			},
			{
				"x": -0.1718048122,
				"y": 2.1038675571,
				"z": -1.8012074014,
				"element": "C" 
			},
			{
				"x": -0.536047646,
				"y": 3.2900371276,
				"z": -1.1679891558,
				"element": "C" 
			},
			{
				"x": -0.5035015423,
				"y": 3.3048811518,
				"z": 0.2218859323,
				"element": "C" 
			},
			{
				"x": -0.8487075646,
				"y": 4.4333588043,
				"z": 0.8744036925,
				"element": "F" 
			},
			{
				"x": -0.1288564035,
				"y": 2.2019933842,
				"z": 0.9718399787,
				"element": "C" 
			},
			{
				"x": 1.5066868609,
				"y": -2.9792130104,
				"z": -0.2868450005,
				"element": "H" 
			},
			{
				"x": 0.2208958155,
				"y": -1.9362619761,
				"z": -0.9418797062,
				"element": "H" 
			},
			{
				"x": 1.9080967158,
				"y": -1.3916722856,
				"z": -0.9859954571,
				"element": "H" 
			},
			{
				"x": 0.5614300283,
				"y": 0.1505026693,
				"z": 2.1539880824,
				"element": "H" 
			},
			{
				"x": 0.4834498378,
				"y": 0.0796618614,
				"z": -1.6256820917,
				"element": "H" 
			},
			{
				"x": -0.1847635439,
				"y": 2.0534218091,
				"z": -2.8858568562,
				"element": "H" 
			},
			{
				"x": -0.835271345,
				"y": 4.175067565,
				"z": -1.7169181566,
				"element": "H" 
			},
			{
				"x": -0.1242274055,
				"y": 2.2781624234,
				"z": 2.0545209938,
				"element": "H" 
			}
		],
		 "valence_orbital": [ 
			{
				"type": "occ",
				"energy": -0.36281,
				"method": "rhf"
			},
			{
				"type": "occ",
				"energy": -0.31205,
				"method": "rhf"
			},
			{
				"type": "occ",
				"energy": -0.26184,
				"method": "rhf"
			},
			{
				"type": "occ",
				"energy": -0.25767,
				"method": "rhf"
			},
			{
				"type": "occ",
				"energy": -0.22773,
				"method": "rhf"
			},
			{
				"type": "unocc",
				"energy": -0.02302,
				"method": "rhf"
			},
			{
				"type": "unocc",
				"energy": -0.01039,
				"method": "rhf"
			},
			{
				"type": "unocc",
				"energy": 0.0342,
				"method": "rhf"
			},
			{
				"type": "unocc",
				"energy": 0.07094,
				"method": "rhf"
			},
			{
				"type": "unocc",
				"energy": 0.09218,
				"method": "rhf"
			}
		],
		"cosmo_sigma_profile": { 
			"-0.025": 0.0,
			"-0.024": 0.0,
			"-0.023": 0.0,
			"-0.022": 0.0,
			"-0.021": 0.0,
			"-0.02": 0.0,
			"-0.019": 0.0,
			"-0.018": 0.0,
			"-0.017": 0.0,
			"-0.016": 0.0,
			"-0.015": 0.175298351911,
			"-0.014": 0.818896516083,
			"-0.013": 1.33686099638,
			"-0.012": 1.30914774854,
			"-0.011": 0.967973948277,
			"-0.01": 1.27793126148,
			"-0.009": 1.23277250541,
			"-0.008": 1.43645255142,
			"-0.007": 7.27130417533,
			"-0.006": 13.8253565027,
			"-0.005": 13.1760564892,
			"-0.004": 12.5902330822,
			"-0.003": 10.3265799033,
			"-0.002": 12.4643502615,
			"-0.001": 10.5710652799,
			"0.0": 11.4160301685,
			"0.001": 14.6755762537,
			"0.002": 14.1193890337,
			"0.003": 14.7180826531,
			"0.004": 18.6423189038,
			"0.005": 7.36918256664,
			"0.006": 1.33695769192,
			"0.007": 1.49148313985,
			"0.008": 0.795045592154,
			"0.009": 1.61645649121,
			"0.01": 1.25816341087,
			"0.011": 2.00166085689,
			"0.012": 2.55595161858,
			"0.013": 5.62768913529,
			"0.014": 2.10028769472,
			"0.015": 0.0611816544943,
			"0.016": 0.0,
			"0.017": 0.0,
			"0.018": 0.0,
			"0.019": 0.0,
			"0.02": 0.0,
			"0.021": 0.0,
			"0.022": 0.0,
			"0.023": 0.0,
			"0.024": 0.0,
			"0.025": 0.0
		}
	}
}
