{
	 "smiles": "CC(C)(C)N=C=S", 
	 "Tm": 283.35, 
	 "num_atms": 16, 
	 "gaussian": { 
		 "optdone": 1, 
		 "sigma_profile": "yes", 
		 "theory": "DFT", 
		 "functional": "B3LYP", 
		 "basiset": "6-31G**", 
		 "properties": { 
			 "R2extent": 1805.5353, 
			 "electric_dipole_moment_norm": 4.07246877091, 
			 "electric_quadrupole_moment_norm": 10.838307557, 
			 "total_energy": -648.904272212, 
			 "HOMO_LUMO_gap": 0.2309, 
			 "cosmo_polarized_energy": -5.17, 
			 "cosmo_cavitation_energy": 21.55, 
			 "cosmo_dispersion_energy": -15.46, 
			 "cosmo_repulsion_energy": 1.28, 
			 "cosmo_total_nonelectrostatic_energy": 7.37, 
			 "SMD_solvation_energy": 3.85 
		},
		"coords": [
			{
				"x": -0.8340542688,
				"y": 0.3846208963,
				"z": -0.2575980457,
				"element": "C" 
			},
			{
				"x": 0.616909095,
				"y": -0.0924216457,
				"z": -0.0601984431,
				"element": "C" 
			},
			{
				"x": 1.1668380208,
				"y": -0.7256754948,
				"z": -1.3518454673,
				"element": "C" 
			},
			{
				"x": 0.7066398129,
				"y": -1.0849259593,
				"z": 1.1111050974,
				"element": "C" 
			},
			{
				"x": 1.4377503217,
				"y": 1.0622268262,
				"z": 0.2696565869,
				"element": "N" 
			},
			{
				"x": 1.8915967857,
				"y": 2.1322390126,
				"z": 0.0033564703,
				"element": "C" 
			},
			{
				"x": 2.5533617367,
				"y": 3.5625117531,
				"z": -0.2499194571,
				"element": "S" 
			},
			{
				"x": -0.8984654792,
				"y": 1.101272878,
				"z": -1.081348133,
				"element": "H" 
			},
			{
				"x": -1.2105353737,
				"y": 0.8646905309,
				"z": 0.6498663216,
				"element": "H" 
			},
			{
				"x": -1.4775824966,
				"y": -0.4696086823,
				"z": -0.4901378003,
				"element": "H" 
			},
			{
				"x": 0.5761102454,
				"y": -1.6092328131,
				"z": -1.6131568486,
				"element": "H" 
			},
			{
				"x": 2.208141748,
				"y": -1.0321899036,
				"z": -1.2197781633,
				"element": "H" 
			},
			{
				"x": 1.116697113,
				"y": -0.0170667339,
				"z": -2.1835129024,
				"element": "H" 
			},
			{
				"x": 0.0992732715,
				"y": -1.9694858707,
				"z": 0.8979858787,
				"element": "H" 
			},
			{
				"x": 1.7405721167,
				"y": -1.4036338706,
				"z": 1.2700310346,
				"element": "H" 
			},
			{
				"x": 0.3417473509,
				"y": -0.6274209233,
				"z": 2.0348938714,
				"element": "H" 
			}
		],
		 "valence_orbital": [ 
			{
				"type": "occ",
				"energy": -0.38317,
				"method": "rhf"
			},
			{
				"type": "occ",
				"energy": -0.35022,
				"method": "rhf"
			},
			{
				"type": "occ",
				"energy": -0.3496,
				"method": "rhf"
			},
			{
				"type": "occ",
				"energy": -0.24517,
				"method": "rhf"
			},
			{
				"type": "occ",
				"energy": -0.23949,
				"method": "rhf"
			},
			{
				"type": "unocc",
				"energy": -0.00859,
				"method": "rhf"
			},
			{
				"type": "unocc",
				"energy": 0.01471,
				"method": "rhf"
			},
			{
				"type": "unocc",
				"energy": 0.06938,
				"method": "rhf"
			},
			{
				"type": "unocc",
				"energy": 0.09266,
				"method": "rhf"
			},
			{
				"type": "unocc",
				"energy": 0.11739,
				"method": "rhf"
			}
		],
		"cosmo_sigma_profile": { 
			"-0.025": 0.0,
			"-0.024": 0.0,
			"-0.023": 0.0,
			"-0.022": 0.0,
			"-0.021": 0.0,
			"-0.02": 0.0,
			"-0.019": 0.0,
			"-0.018": 0.0,
			"-0.017": 0.0,
			"-0.016": 0.0,
			"-0.015": 0.0,
			"-0.014": 0.0,
			"-0.013": 0.0,
			"-0.012": 0.0,
			"-0.011": 0.0,
			"-0.01": 0.0,
			"-0.009": 0.0,
			"-0.008": 0.0,
			"-0.007": 0.0,
			"-0.006": 0.031322276064,
			"-0.005": 6.45586486214,
			"-0.004": 22.8036050911,
			"-0.003": 18.9492230072,
			"-0.002": 17.5611443358,
			"-0.001": 23.036349671,
			"0.0": 23.2983656326,
			"0.001": 10.8098688464,
			"0.002": 9.3822561849,
			"0.003": 8.04384548856,
			"0.004": 5.76038279035,
			"0.005": 6.90464642142,
			"0.006": 10.4035104601,
			"0.007": 9.02248803908,
			"0.008": 0.160414334299,
			"0.009": 0.0,
			"0.01": 0.0,
			"0.011": 0.0,
			"0.012": 0.0,
			"0.013": 0.0,
			"0.014": 0.0,
			"0.015": 0.0,
			"0.016": 0.0,
			"0.017": 0.0,
			"0.018": 0.0,
			"0.019": 0.0,
			"0.02": 0.0,
			"0.021": 0.0,
			"0.022": 0.0,
			"0.023": 0.0,
			"0.024": 0.0,
			"0.025": 0.0
		}
	}
}
