{
	 "smiles": "CC(C)OC(=O)CC(C)=O", 
	 "Tm": 246.05, 
	 "num_atms": 22, 
	 "gaussian": { 
		 "optdone": 1, 
		 "sigma_profile": "yes", 
		 "theory": "DFT", 
		 "functional": "B3LYP", 
		 "basiset": "6-31G**", 
		 "properties": { 
			 "R2extent": 1993.4365, 
			 "electric_dipole_moment_norm": 3.65835406296, 
			 "electric_quadrupole_moment_norm": 11.7497889058, 
			 "total_energy": -499.6655839, 
			 "HOMO_LUMO_gap": 0.22642, 
			 "cosmo_polarized_energy": -10.62, 
			 "cosmo_cavitation_energy": 25.45, 
			 "cosmo_dispersion_energy": -17.64, 
			 "cosmo_repulsion_energy": 1.48, 
			 "cosmo_total_nonelectrostatic_energy": 9.3, 
			 "SMD_solvation_energy": 6.32 
		},
		"coords": [
			{
				"x": -3.2008207988,
				"y": -1.3033741695,
				"z": 0.3828435803,
				"element": "C" 
			},
			{
				"x": -2.3441896911,
				"y": -0.1574438339,
				"z": 0.9139964508,
				"element": "C" 
			},
			{
				"x": -2.9178706824,
				"y": 1.2318397131,
				"z": 0.648441576,
				"element": "C" 
			},
			{
				"x": -0.9566879792,
				"y": -0.2631482961,
				"z": 0.4462294851,
				"element": "O" 
			},
			{
				"x": -0.6731986454,
				"y": -0.1714986084,
				"z": -0.8694215505,
				"element": "C" 
			},
			{
				"x": -1.4790971097,
				"y": 0.0205032389,
				"z": -1.7517408504,
				"element": "O" 
			},
			{
				"x": 0.8276520587,
				"y": -0.3236633893,
				"z": -1.1017493201,
				"element": "C" 
			},
			{
				"x": 1.4149634046,
				"y": -1.5395038222,
				"z": -0.3669277441,
				"element": "C" 
			},
			{
				"x": 2.0535081624,
				"y": -1.2868588568,
				"z": 0.9820578868,
				"element": "C" 
			},
			{
				"x": 1.3564364677,
				"y": -2.6428249271,
				"z": -0.8699774867,
				"element": "O" 
			},
			{
				"x": -2.7156265886,
				"y": -2.2650233366,
				"z": 0.5739163328,
				"element": "H" 
			},
			{
				"x": -3.3765632696,
				"y": -1.2025873756,
				"z": -0.6890480487,
				"element": "H" 
			},
			{
				"x": -4.1659915993,
				"y": -1.3012905374,
				"z": 0.9000263225,
				"element": "H" 
			},
			{
				"x": -2.211237234,
				"y": -0.2853736467,
				"z": 1.9928433762,
				"element": "H" 
			},
			{
				"x": -3.8752800858,
				"y": 1.3326424567,
				"z": 1.1701338857,
				"element": "H" 
			},
			{
				"x": -3.080404284,
				"y": 1.3946147092,
				"z": -0.4179345241,
				"element": "H" 
			},
			{
				"x": -2.243531864,
				"y": 2.0054141691,
				"z": 1.0282233719,
				"element": "H" 
			},
			{
				"x": 1.3122470806,
				"y": 0.6016322403,
				"z": -0.7695303042,
				"element": "H" 
			},
			{
				"x": 0.9762918165,
				"y": -0.4464951389,
				"z": -2.1749780658,
				"element": "H" 
			},
			{
				"x": 1.3523257691,
				"y": -0.75458673,
				"z": 1.6322118551,
				"element": "H" 
			},
			{
				"x": 2.9357853279,
				"y": -0.6459828471,
				"z": 0.8610528774,
				"element": "H" 
			},
			{
				"x": 2.3508897446,
				"y": -2.2327910118,
				"z": 1.436530894,
				"element": "H" 
			}
		],
		 "valence_orbital": [ 
			{
				"type": "occ",
				"energy": -0.35363,
				"method": "rhf"
			},
			{
				"type": "occ",
				"energy": -0.33837,
				"method": "rhf"
			},
			{
				"type": "occ",
				"energy": -0.30504,
				"method": "rhf"
			},
			{
				"type": "occ",
				"energy": -0.27544,
				"method": "rhf"
			},
			{
				"type": "occ",
				"energy": -0.24815,
				"method": "rhf"
			},
			{
				"type": "unocc",
				"energy": -0.02173,
				"method": "rhf"
			},
			{
				"type": "unocc",
				"energy": 0.00731,
				"method": "rhf"
			},
			{
				"type": "unocc",
				"energy": 0.08306,
				"method": "rhf"
			},
			{
				"type": "unocc",
				"energy": 0.10105,
				"method": "rhf"
			},
			{
				"type": "unocc",
				"energy": 0.11198,
				"method": "rhf"
			}
		],
		"cosmo_sigma_profile": { 
			"-0.025": 0.0,
			"-0.024": 0.0,
			"-0.023": 0.0,
			"-0.022": 0.0,
			"-0.021": 0.0,
			"-0.02": 0.0,
			"-0.019": 0.0,
			"-0.018": 0.0,
			"-0.017": 0.0,
			"-0.016": 0.0,
			"-0.015": 0.0,
			"-0.014": 0.0,
			"-0.013": 0.0,
			"-0.012": 0.0,
			"-0.011": 0.0,
			"-0.01": 0.0,
			"-0.009": 0.00379368144865,
			"-0.008": 2.55182386849,
			"-0.007": 5.90073135556,
			"-0.006": 7.56328178001,
			"-0.005": 11.551626105,
			"-0.004": 22.139146539,
			"-0.003": 18.5885419414,
			"-0.002": 22.6563246931,
			"-0.001": 22.5307719668,
			"0.0": 22.3518012687,
			"0.001": 12.485656477,
			"0.002": 6.68794059196,
			"0.003": 6.20816009344,
			"0.004": 3.89679201701,
			"0.005": 4.08677356472,
			"0.006": 2.23227155175,
			"0.007": 2.54822872336,
			"0.008": 3.21738074683,
			"0.009": 3.28711445889,
			"0.01": 4.01366298868,
			"0.011": 7.11198773599,
			"0.012": 5.91931389556,
			"0.013": 1.62106077333,
			"0.014": 0.0,
			"0.015": 0.0,
			"0.016": 0.0,
			"0.017": 0.0,
			"0.018": 0.0,
			"0.019": 0.0,
			"0.02": 0.0,
			"0.021": 0.0,
			"0.022": 0.0,
			"0.023": 0.0,
			"0.024": 0.0,
			"0.025": 0.0
		}
	}
}
