{
	 "smiles": "ClC1=C2C3=C(CCC3)SC2=NC(CN2CCOCC2)=N1", 
	 "Tm": 378.15, 
	 "num_atms": 36, 
	 "gaussian": { 
		 "optdone": 1, 
		 "sigma_profile": "yes", 
		 "theory": "DFT", 
		 "functional": "B3LYP", 
		 "basiset": "6-31G**", 
		 "properties": { 
			 "R2extent": 8353.1302, 
			 "electric_dipole_moment_norm": 3.63005156162, 
			 "electric_quadrupole_moment_norm": 18.2805386885, 
			 "total_energy": -1640.97447657, 
			 "HOMO_LUMO_gap": 0.15545, 
			 "cosmo_polarized_energy": -9.7, 
			 "cosmo_cavitation_energy": 40.58, 
			 "cosmo_dispersion_energy": -29.97, 
			 "cosmo_repulsion_energy": 2.28, 
			 "cosmo_total_nonelectrostatic_energy": 12.89, 
			 "SMD_solvation_energy": 0.25 
		},
		"coords": [
			{
				"x": -2.4047396464,
				"y": -2.1583747139,
				"z": -2.0952171015,
				"element": "Cl" 
			},
			{
				"x": -0.9073150692,
				"y": -1.5073968258,
				"z": -1.4352745187,
				"element": "C" 
			},
			{
				"x": -0.0929705396,
				"y": -2.3167982062,
				"z": -0.6288191745,
				"element": "C" 
			},
			{
				"x": -0.1463380853,
				"y": -3.6693631706,
				"z": -0.1547703816,
				"element": "C" 
			},
			{
				"x": 0.9238591544,
				"y": -3.986032178,
				"z": 0.6253431745,
				"element": "C" 
			},
			{
				"x": 0.8654386627,
				"y": -5.375798791,
				"z": 1.1916406354,
				"element": "C" 
			},
			{
				"x": -0.2810752194,
				"y": -6.0064340309,
				"z": 0.3425785128,
				"element": "C" 
			},
			{
				"x": -1.1123438623,
				"y": -4.8257907161,
				"z": -0.246473225,
				"element": "C" 
			},
			{
				"x": 2.0716787009,
				"y": -2.6839648416,
				"z": 0.8442054669,
				"element": "S" 
			},
			{
				"x": 1.0727543362,
				"y": -1.6408872317,
				"z": -0.1702166615,
				"element": "C" 
			},
			{
				"x": 1.3970127548,
				"y": -0.3863478892,
				"z": -0.4619483642,
				"element": "N" 
			},
			{
				"x": 0.5292765824,
				"y": 0.263336457,
				"z": -1.247478289,
				"element": "C" 
			},
			{
				"x": 0.8209895012,
				"y": 1.7176788853,
				"z": -1.5763463652,
				"element": "C" 
			},
			{
				"x": 0.2283841488,
				"y": 2.7038449131,
				"z": -0.6716265252,
				"element": "N" 
			},
			{
				"x": -1.2338396482,
				"y": 2.7741708905,
				"z": -0.6991275681,
				"element": "C" 
			},
			{
				"x": -1.6861290666,
				"y": 3.9956033591,
				"z": 0.1002379648,
				"element": "C" 
			},
			{
				"x": -1.2060717743,
				"y": 3.9433254146,
				"z": 1.4378095708,
				"element": "O" 
			},
			{
				"x": 0.2137703011,
				"y": 3.8789543509,
				"z": 1.4618414878,
				"element": "C" 
			},
			{
				"x": 0.7265978618,
				"y": 2.6550366264,
				"z": 0.7035496189,
				"element": "C" 
			},
			{
				"x": -0.6164823126,
				"y": -0.2621630747,
				"z": -1.740156183,
				"element": "N" 
			},
			{
				"x": 1.8066421885,
				"y": -5.9278304589,
				"z": 1.0973791501,
				"element": "H" 
			},
			{
				"x": 0.6178501726,
				"y": -5.3487556109,
				"z": 2.2616683009,
				"element": "H" 
			},
			{
				"x": -0.8945092248,
				"y": -6.6964873103,
				"z": 0.9274263051,
				"element": "H" 
			},
			{
				"x": 0.1603660732,
				"y": -6.5786617403,
				"z": -0.4791320319,
				"element": "H" 
			},
			{
				"x": -2.0138140855,
				"y": -4.6251746676,
				"z": 0.3469698223,
				"element": "H" 
			},
			{
				"x": -1.4490009114,
				"y": -5.0277412998,
				"z": -1.2672693035,
				"element": "H" 
			},
			{
				"x": 1.9067424409,
				"y": 1.8554968222,
				"z": -1.5621823574,
				"element": "H" 
			},
			{
				"x": 0.450905184,
				"y": 1.9218303587,
				"z": -2.5861208928,
				"element": "H" 
			},
			{
				"x": -1.5679048431,
				"y": 2.8635282191,
				"z": -1.7391258674,
				"element": "H" 
			},
			{
				"x": -1.7114879844,
				"y": 1.8731640548,
				"z": -0.275972865,
				"element": "H" 
			},
			{
				"x": -1.3262771646,
				"y": 4.911767099,
				"z": -0.396162929,
				"element": "H" 
			},
			{
				"x": -2.7778843401,
				"y": 4.0335812882,
				"z": 0.1615501257,
				"element": "H" 
			},
			{
				"x": 0.6428116603,
				"y": 4.791120324,
				"z": 1.0155205774,
				"element": "H" 
			},
			{
				"x": 0.5067933744,
				"y": 3.8308452895,
				"z": 2.5149880342,
				"element": "H" 
			},
			{
				"x": 1.8226211549,
				"y": 2.6584697554,
				"z": 0.6873276147,
				"element": "H" 
			},
			{
				"x": 0.4069895246,
				"y": 1.7434486494,
				"z": 1.2396842419,
				"element": "H" 
			}
		],
		 "valence_orbital": [ 
			{
				"type": "occ",
				"energy": -0.27279,
				"method": "rhf"
			},
			{
				"type": "occ",
				"energy": -0.26751,
				"method": "rhf"
			},
			{
				"type": "occ",
				"energy": -0.24933,
				"method": "rhf"
			},
			{
				"type": "occ",
				"energy": -0.23162,
				"method": "rhf"
			},
			{
				"type": "occ",
				"energy": -0.20968,
				"method": "rhf"
			},
			{
				"type": "unocc",
				"energy": -0.05423,
				"method": "rhf"
			},
			{
				"type": "unocc",
				"energy": -0.04089,
				"method": "rhf"
			},
			{
				"type": "unocc",
				"energy": 0.00246,
				"method": "rhf"
			},
			{
				"type": "unocc",
				"energy": 0.02431,
				"method": "rhf"
			},
			{
				"type": "unocc",
				"energy": 0.0372,
				"method": "rhf"
			}
		],
		"cosmo_sigma_profile": { 
			"-0.025": 0.0,
			"-0.024": 0.0,
			"-0.023": 0.0,
			"-0.022": 0.0,
			"-0.021": 0.0,
			"-0.02": 0.0,
			"-0.019": 0.0,
			"-0.018": 0.0,
			"-0.017": 0.0,
			"-0.016": 0.0,
			"-0.015": 0.0,
			"-0.014": 0.0,
			"-0.013": 0.0,
			"-0.012": 0.0,
			"-0.011": 0.0,
			"-0.01": 0.0,
			"-0.009": 0.0,
			"-0.008": 0.0,
			"-0.007": 0.0,
			"-0.006": 0.215004458617,
			"-0.005": 14.7384815639,
			"-0.004": 30.8928503096,
			"-0.003": 45.6581343497,
			"-0.002": 51.4645153832,
			"-0.001": 39.1308834113,
			"0.0": 30.6475417715,
			"0.001": 25.9743720377,
			"0.002": 19.1734155948,
			"0.003": 16.9562696635,
			"0.004": 12.386454278,
			"0.005": 6.34726261095,
			"0.006": 5.27798824452,
			"0.007": 4.95869897302,
			"0.008": 4.08059273691,
			"0.009": 3.23745975525,
			"0.01": 3.17713849119,
			"0.011": 2.79943172967,
			"0.012": 3.69511910657,
			"0.013": 2.56186263118,
			"0.014": 1.00192171688,
			"0.015": 0.0,
			"0.016": 0.0,
			"0.017": 0.0,
			"0.018": 0.0,
			"0.019": 0.0,
			"0.02": 0.0,
			"0.021": 0.0,
			"0.022": 0.0,
			"0.023": 0.0,
			"0.024": 0.0,
			"0.025": 0.0
		}
	}
}
