{
	 "smiles": "CC(=O)N(C1=NC(CCl)=CS1)C1=CC=CC=C1", 
	 "Tm": 387.15, 
	 "num_atms": 28, 
	 "gaussian": { 
		 "optdone": 1, 
		 "sigma_profile": "yes", 
		 "theory": "DFT", 
		 "functional": "B3LYP", 
		 "basiset": "6-31G**", 
		 "properties": { 
			 "R2extent": 5790.4044, 
			 "electric_dipole_moment_norm": 3.35727157972, 
			 "electric_quadrupole_moment_norm": 23.9759363292, 
			 "total_energy": -1507.00988377, 
			 "HOMO_LUMO_gap": 0.17744, 
			 "cosmo_polarized_energy": -16.1, 
			 "cosmo_cavitation_energy": 36.17, 
			 "cosmo_dispersion_energy": -25.16, 
			 "cosmo_repulsion_energy": 1.96, 
			 "cosmo_total_nonelectrostatic_energy": 12.98, 
			 "SMD_solvation_energy": 4.7 
		},
		"coords": [
			{
				"x": -2.1982702566,
				"y": 0.7442402552,
				"z": 3.5412597564,
				"element": "C" 
			},
			{
				"x": -1.0716969901,
				"y": 1.3753643243,
				"z": 2.7418636548,
				"element": "C" 
			},
			{
				"x": -0.5678224833,
				"y": 2.4362333558,
				"z": 3.0571615149,
				"element": "O" 
			},
			{
				"x": -0.6225014712,
				"y": 0.6665512643,
				"z": 1.6105770252,
				"element": "N" 
			},
			{
				"x": -1.1840306661,
				"y": -0.557474385,
				"z": 1.2079959782,
				"element": "C" 
			},
			{
				"x": -0.6008507644,
				"y": -1.71203505,
				"z": 1.3347156784,
				"element": "N" 
			},
			{
				"x": -1.3674752648,
				"y": -2.7256752081,
				"z": 0.8043432114,
				"element": "C" 
			},
			{
				"x": -0.8664922157,
				"y": -4.1294146777,
				"z": 0.8650337835,
				"element": "C" 
			},
			{
				"x": 0.2885888118,
				"y": -4.5156846017,
				"z": -0.5022156782,
				"element": "Cl" 
			},
			{
				"x": -2.566788742,
				"y": -2.3392435674,
				"z": 0.2646574462,
				"element": "C" 
			},
			{
				"x": -2.7528064773,
				"y": -0.6273576892,
				"z": 0.3875255284,
				"element": "S" 
			},
			{
				"x": 0.5332739627,
				"y": 1.12859044,
				"z": 0.8754396617,
				"element": "C" 
			},
			{
				"x": 0.4450049966,
				"y": 1.2876312945,
				"z": -0.5093664383,
				"element": "C" 
			},
			{
				"x": 1.5634633252,
				"y": 1.7016390841,
				"z": -1.2334680377,
				"element": "C" 
			},
			{
				"x": 2.763978912,
				"y": 1.970935988,
				"z": -0.5759651343,
				"element": "C" 
			},
			{
				"x": 2.8433831948,
				"y": 1.8176244926,
				"z": 0.8101637312,
				"element": "C" 
			},
			{
				"x": 1.7350769391,
				"y": 1.3903482887,
				"z": 1.5389191586,
				"element": "C" 
			},
			{
				"x": -2.0338758675,
				"y": -0.3222269035,
				"z": 3.7166939111,
				"element": "H" 
			},
			{
				"x": -3.1563945185,
				"y": 0.8546701072,
				"z": 3.024240231,
				"element": "H" 
			},
			{
				"x": -2.2539585042,
				"y": 1.2730572679,
				"z": 4.4926198958,
				"element": "H" 
			},
			{
				"x": -0.3041693462,
				"y": -4.2992725328,
				"z": 1.7824929795,
				"element": "H" 
			},
			{
				"x": -1.6789510368,
				"y": -4.8507791215,
				"z": 0.7841834746,
				"element": "H" 
			},
			{
				"x": -3.3283351619,
				"y": -2.9614658489,
				"z": -0.1848148677,
				"element": "H" 
			},
			{
				"x": -0.4928326749,
				"y": 1.0875321351,
				"z": -1.017948052,
				"element": "H" 
			},
			{
				"x": 1.4908690173,
				"y": 1.8189877952,
				"z": -2.3106126726,
				"element": "H" 
			},
			{
				"x": 3.6331211739,
				"y": 2.2975753159,
				"z": -1.1390963561,
				"element": "H" 
			},
			{
				"x": 3.7750651311,
				"y": 2.0240242064,
				"z": 1.3285314521,
				"element": "H" 
			},
			{
				"x": 1.7941269767,
				"y": 1.2691239708,
				"z": 2.6136691641,
				"element": "H" 
			}
		],
		 "valence_orbital": [ 
			{
				"type": "occ",
				"energy": -0.2897,
				"method": "rhf"
			},
			{
				"type": "occ",
				"energy": -0.2731,
				"method": "rhf"
			},
			{
				"type": "occ",
				"energy": -0.25968,
				"method": "rhf"
			},
			{
				"type": "occ",
				"energy": -0.25028,
				"method": "rhf"
			},
			{
				"type": "occ",
				"energy": -0.23179,
				"method": "rhf"
			},
			{
				"type": "unocc",
				"energy": -0.05435,
				"method": "rhf"
			},
			{
				"type": "unocc",
				"energy": -0.01639,
				"method": "rhf"
			},
			{
				"type": "unocc",
				"energy": -0.01286,
				"method": "rhf"
			},
			{
				"type": "unocc",
				"energy": -0.00394,
				"method": "rhf"
			},
			{
				"type": "unocc",
				"energy": 0.00083,
				"method": "rhf"
			}
		],
		"cosmo_sigma_profile": { 
			"-0.025": 0.0,
			"-0.024": 0.0,
			"-0.023": 0.0,
			"-0.022": 0.0,
			"-0.021": 0.0,
			"-0.02": 0.0,
			"-0.019": 0.0,
			"-0.018": 0.0,
			"-0.017": 0.0,
			"-0.016": 0.0,
			"-0.015": 0.0,
			"-0.014": 0.0,
			"-0.013": 0.0,
			"-0.012": 0.0,
			"-0.011": 0.0555303548234,
			"-0.01": 2.07467796722,
			"-0.009": 4.19226791772,
			"-0.008": 6.07284613489,
			"-0.007": 7.81622719047,
			"-0.006": 17.3806519803,
			"-0.005": 23.5969965252,
			"-0.004": 26.2261690915,
			"-0.003": 20.7157864585,
			"-0.002": 23.5504307319,
			"-0.001": 17.6393282614,
			"0.0": 20.83717395,
			"0.001": 18.2333731945,
			"0.002": 14.2509342671,
			"0.003": 12.8197921885,
			"0.004": 15.4961482619,
			"0.005": 19.2436616265,
			"0.006": 15.6742929729,
			"0.007": 6.80903011127,
			"0.008": 2.61495331298,
			"0.009": 2.51842539362,
			"0.01": 3.52264805223,
			"0.011": 3.20028647187,
			"0.012": 5.05204058379,
			"0.013": 3.87464668518,
			"0.014": 0.341595622514,
			"0.015": 0.0,
			"0.016": 0.0,
			"0.017": 0.0,
			"0.018": 0.0,
			"0.019": 0.0,
			"0.02": 0.0,
			"0.021": 0.0,
			"0.022": 0.0,
			"0.023": 0.0,
			"0.024": 0.0,
			"0.025": 0.0
		}
	}
}
