{
	 "smiles": "CCCCCCCCCCCCCCCCCCCCCCCCCC(=O)OC", 
	 "Tm": 336.95, 
	 "num_atms": 83, 
	 "gaussian": { 
		 "optdone": 1, 
		 "sigma_profile": "yes", 
		 "theory": "DFT", 
		 "functional": "B3LYP", 
		 "basiset": "6-31G**", 
		 "properties": { 
			 "R2extent": 30301.3873, 
			 "electric_dipole_moment_norm": 1.82994409751, 
			 "electric_quadrupole_moment_norm": 15.0723954228, 
			 "total_energy": -1211.95246817, 
			 "HOMO_LUMO_gap": 0.27807, 
			 "cosmo_polarized_energy": -7.39, 
			 "cosmo_cavitation_energy": 79.51, 
			 "cosmo_dispersion_energy": -51.39, 
			 "cosmo_repulsion_energy": 4.17, 
			 "cosmo_total_nonelectrostatic_energy": 32.3, 
			 "SMD_solvation_energy": 11.27 
		},
		"coords": [
			{
				"x": 5.2718829878,
				"y": -0.3948106908,
				"z": -7.3339188625,
				"element": "C" 
			},
			{
				"x": 5.7633357464,
				"y": -1.1062187511,
				"z": -6.0676470015,
				"element": "C" 
			},
			{
				"x": 4.9804446084,
				"y": -2.3823533173,
				"z": -5.711622625,
				"element": "C" 
			},
			{
				"x": 3.4848052155,
				"y": -2.1855884307,
				"z": -5.3999361463,
				"element": "C" 
			},
			{
				"x": 3.1620829081,
				"y": -1.2670168471,
				"z": -4.2081336008,
				"element": "C" 
			},
			{
				"x": 3.6822377078,
				"y": -1.7665191677,
				"z": -2.8529636137,
				"element": "C" 
			},
			{
				"x": 3.2575775796,
				"y": -0.8779439268,
				"z": -1.6763597685,
				"element": "C" 
			},
			{
				"x": 3.7735784302,
				"y": -1.3686773589,
				"z": -0.3176889115,
				"element": "C" 
			},
			{
				"x": 3.3442837405,
				"y": -0.4826889749,
				"z": 0.8591503594,
				"element": "C" 
			},
			{
				"x": 3.8649807954,
				"y": -0.9813442888,
				"z": 2.214813878,
				"element": "C" 
			},
			{
				"x": 3.5148107937,
				"y": -0.0823615953,
				"z": 3.4127481441,
				"element": "C" 
			},
			{
				"x": 2.0179091861,
				"y": -0.0309434477,
				"z": 3.7566389276,
				"element": "C" 
			},
			{
				"x": 1.6941763535,
				"y": 0.8111144515,
				"z": 5.0062874109,
				"element": "C" 
			},
			{
				"x": 1.834900882,
				"y": 2.3435003548,
				"z": 4.846927769,
				"element": "C" 
			},
			{
				"x": 0.5426243643,
				"y": 3.0941551078,
				"z": 4.4773212561,
				"element": "C" 
			},
			{
				"x": -0.0642550013,
				"y": 2.7570811584,
				"z": 3.108096313,
				"element": "C" 
			},
			{
				"x": -1.2853877853,
				"y": 3.6251643564,
				"z": 2.7696451721,
				"element": "C" 
			},
			{
				"x": -1.8901934144,
				"y": 3.3747473587,
				"z": 1.3782935098,
				"element": "C" 
			},
			{
				"x": -2.5265509912,
				"y": 1.9898804064,
				"z": 1.1893170776,
				"element": "C" 
			},
			{
				"x": -3.1812806264,
				"y": 1.8170316929,
				"z": -0.1886606426,
				"element": "C" 
			},
			{
				"x": -3.7515956442,
				"y": 0.4132061906,
				"z": -0.4588149283,
				"element": "C" 
			},
			{
				"x": -4.9088222476,
				"y": -0.0396500475,
				"z": 0.451471589,
				"element": "C" 
			},
			{
				"x": -6.192374488,
				"y": 0.7891811015,
				"z": 0.2908977512,
				"element": "C" 
			},
			{
				"x": -7.3482783156,
				"y": 0.4082386385,
				"z": 1.231884337,
				"element": "C" 
			},
			{
				"x": -7.9528166218,
				"y": -0.9932854366,
				"z": 1.0086292529,
				"element": "C" 
			},
			{
				"x": -7.1221933031,
				"y": -2.162808909,
				"z": 1.5000146918,
				"element": "C" 
			},
			{
				"x": -6.8414120439,
				"y": -3.1495342329,
				"z": 0.8529031622,
				"element": "O" 
			},
			{
				"x": -6.7492188915,
				"y": -1.9960460982,
				"z": 2.7916975392,
				"element": "O" 
			},
			{
				"x": -5.9791303582,
				"y": -3.0713432006,
				"z": 3.3513969074,
				"element": "C" 
			},
			{
				"x": 5.2891781947,
				"y": -1.0699412164,
				"z": -8.1976966861,
				"element": "H" 
			},
			{
				"x": 4.2465429836,
				"y": -0.0264237624,
				"z": -7.2245970354,
				"element": "H" 
			},
			{
				"x": 5.9047125476,
				"y": 0.466232508,
				"z": -7.5734337703,
				"element": "H" 
			},
			{
				"x": 5.7381464098,
				"y": -0.4053526945,
				"z": -5.2230830315,
				"element": "H" 
			},
			{
				"x": 6.8193020284,
				"y": -1.3760627589,
				"z": -6.1978146997,
				"element": "H" 
			},
			{
				"x": 5.469432427,
				"y": -2.8686489474,
				"z": -4.857967971,
				"element": "H" 
			},
			{
				"x": 5.0665943273,
				"y": -3.0909448188,
				"z": -6.5470462475,
				"element": "H" 
			},
			{
				"x": 2.9769566642,
				"y": -1.7954720068,
				"z": -6.2911126202,
				"element": "H" 
			},
			{
				"x": 3.0396690229,
				"y": -3.1726211532,
				"z": -5.2135566198,
				"element": "H" 
			},
			{
				"x": 3.5539663214,
				"y": -0.2579489591,
				"z": -4.3957923334,
				"element": "H" 
			},
			{
				"x": 2.0710467614,
				"y": -1.1538685498,
				"z": -4.1463187538,
				"element": "H" 
			},
			{
				"x": 3.3207818016,
				"y": -2.7911828286,
				"z": -2.6826249685,
				"element": "H" 
			},
			{
				"x": 4.7783021746,
				"y": -1.8321149467,
				"z": -2.8728240164,
				"element": "H" 
			},
			{
				"x": 2.1602015671,
				"y": -0.8159344775,
				"z": -1.6469270259,
				"element": "H" 
			},
			{
				"x": 3.6127612862,
				"y": 0.1481184744,
				"z": -1.8500233577,
				"element": "H" 
			},
			{
				"x": 4.8711627139,
				"y": -1.4280121484,
				"z": -0.3457338638,
				"element": "H" 
			},
			{
				"x": 3.4206053675,
				"y": -2.3956754145,
				"z": -0.1454988107,
				"element": "H" 
			},
			{
				"x": 3.7027989985,
				"y": 0.5433463008,
				"z": 0.6906464495,
				"element": "H" 
			},
			{
				"x": 2.2481758057,
				"y": -0.4213188623,
				"z": 0.8773046425,
				"element": "H" 
			},
			{
				"x": 3.4819964468,
				"y": -1.9956085472,
				"z": 2.3991524275,
				"element": "H" 
			},
			{
				"x": 4.9577050462,
				"y": -1.0785544589,
				"z": 2.1558074144,
				"element": "H" 
			},
			{
				"x": 4.0613967437,
				"y": -0.4426445854,
				"z": 4.2953031313,
				"element": "H" 
			},
			{
				"x": 3.8910535875,
				"y": 0.9315881749,
				"z": 3.2191274128,
				"element": "H" 
			},
			{
				"x": 1.45046398,
				"y": 0.3454139616,
				"z": 2.8981157712,
				"element": "H" 
			},
			{
				"x": 1.6672096256,
				"y": -1.0588889758,
				"z": 3.925200942,
				"element": "H" 
			},
			{
				"x": 0.6727554707,
				"y": 0.583181145,
				"z": 5.3403277738,
				"element": "H" 
			},
			{
				"x": 2.3516934307,
				"y": 0.472647618,
				"z": 5.8182676223,
				"element": "H" 
			},
			{
				"x": 2.6112949691,
				"y": 2.5729808637,
				"z": 4.1047810415,
				"element": "H" 
			},
			{
				"x": 2.1994969262,
				"y": 2.7644244333,
				"z": 5.7921863339,
				"element": "H" 
			},
			{
				"x": 0.7487790432,
				"y": 4.173207278,
				"z": 4.5116363578,
				"element": "H" 
			},
			{
				"x": -0.2105399456,
				"y": 2.908526828,
				"z": 5.2570250958,
				"element": "H" 
			},
			{
				"x": -0.3478656328,
				"y": 1.698364476,
				"z": 3.0819685819,
				"element": "H" 
			},
			{
				"x": 0.6994942663,
				"y": 2.8900777212,
				"z": 2.327728434,
				"element": "H" 
			},
			{
				"x": -2.060978931,
				"y": 3.4733247535,
				"z": 3.5344424243,
				"element": "H" 
			},
			{
				"x": -0.9950175851,
				"y": 4.6822907493,
				"z": 2.8419272684,
				"element": "H" 
			},
			{
				"x": -1.113865166,
				"y": 3.5238443804,
				"z": 0.6139129076,
				"element": "H" 
			},
			{
				"x": -2.6537575229,
				"y": 4.1405769684,
				"z": 1.1842484892,
				"element": "H" 
			},
			{
				"x": -3.2707203399,
				"y": 1.8309436074,
				"z": 1.9818003406,
				"element": "H" 
			},
			{
				"x": -1.7683503095,
				"y": 1.2065187121,
				"z": 1.3228584913,
				"element": "H" 
			},
			{
				"x": -3.9664262862,
				"y": 2.5748698972,
				"z": -0.31412446,
				"element": "H" 
			},
			{
				"x": -2.4335046821,
				"y": 2.0373914528,
				"z": -0.9627645459,
				"element": "H" 
			},
			{
				"x": -2.9356651939,
				"y": -0.317310976,
				"z": -0.3734675361,
				"element": "H" 
			},
			{
				"x": -4.0888971244,
				"y": 0.3651700035,
				"z": -1.5033234232,
				"element": "H" 
			},
			{
				"x": -5.1219679129,
				"y": -1.089820477,
				"z": 0.220935774,
				"element": "H" 
			},
			{
				"x": -4.5912565445,
				"y": -0.0169446829,
				"z": 1.5024365896,
				"element": "H" 
			},
			{
				"x": -5.9653264753,
				"y": 1.8493212565,
				"z": 0.4596832255,
				"element": "H" 
			},
			{
				"x": -6.5376208935,
				"y": 0.7175082632,
				"z": -0.7507990158,
				"element": "H" 
			},
			{
				"x": -8.1550097544,
				"y": 1.1387541955,
				"z": 1.0970056497,
				"element": "H" 
			},
			{
				"x": -7.0261892681,
				"y": 0.4934891916,
				"z": 2.2758929927,
				"element": "H" 
			},
			{
				"x": -8.1578402551,
				"y": -1.1723120215,
				"z": -0.0504815075,
				"element": "H" 
			},
			{
				"x": -8.9108107045,
				"y": -1.0502001881,
				"z": 1.541603195,
				"element": "H" 
			},
			{
				"x": -5.0463716167,
				"y": -3.2066220217,
				"z": 2.7978934109,
				"element": "H" 
			},
			{
				"x": -6.5431443913,
				"y": -4.0069773018,
				"z": 3.3204466862,
				"element": "H" 
			},
			{
				"x": -5.77337197,
				"y": -2.7822715285,
				"z": 4.3821564755,
				"element": "H" 
			}
		],
		 "valence_orbital": [ 
			{
				"type": "occ",
				"energy": -0.29837,
				"method": "rhf"
			},
			{
				"type": "occ",
				"energy": -0.29509,
				"method": "rhf"
			},
			{
				"type": "occ",
				"energy": -0.29294,
				"method": "rhf"
			},
			{
				"type": "occ",
				"energy": -0.28939,
				"method": "rhf"
			},
			{
				"type": "occ",
				"energy": -0.26344,
				"method": "rhf"
			},
			{
				"type": "unocc",
				"energy": 0.01463,
				"method": "rhf"
			},
			{
				"type": "unocc",
				"energy": 0.07868,
				"method": "rhf"
			},
			{
				"type": "unocc",
				"energy": 0.07957,
				"method": "rhf"
			},
			{
				"type": "unocc",
				"energy": 0.08647,
				"method": "rhf"
			},
			{
				"type": "unocc",
				"energy": 0.096,
				"method": "rhf"
			}
		],
		"cosmo_sigma_profile": { 
			"-0.025": 0.0,
			"-0.024": 0.0,
			"-0.023": 0.0,
			"-0.022": 0.0,
			"-0.021": 0.0,
			"-0.02": 0.0,
			"-0.019": 0.0,
			"-0.018": 0.0,
			"-0.017": 0.0,
			"-0.016": 0.0,
			"-0.015": 0.0,
			"-0.014": 0.0,
			"-0.013": 0.0,
			"-0.012": 0.0,
			"-0.011": 0.0,
			"-0.01": 0.0,
			"-0.009": 0.0,
			"-0.008": 0.0,
			"-0.007": 0.283204426152,
			"-0.006": 5.12932748072,
			"-0.005": 8.84931123536,
			"-0.004": 11.5802024769,
			"-0.003": 19.8360305893,
			"-0.002": 67.5253380673,
			"-0.001": 141.458696292,
			"0.0": 151.694035224,
			"0.001": 116.919371058,
			"0.002": 52.624275459,
			"0.003": 5.29259539118,
			"0.004": 2.84318914836,
			"0.005": 2.97573537348,
			"0.006": 3.62463618697,
			"0.007": 2.25160704273,
			"0.008": 1.76114885855,
			"0.009": 1.72812861312,
			"0.01": 1.87940784323,
			"0.011": 2.26217462332,
			"0.012": 4.40199342851,
			"0.013": 2.42451318877,
			"0.014": 0.232938573142,
			"0.015": 0.0,
			"0.016": 0.0,
			"0.017": 0.0,
			"0.018": 0.0,
			"0.019": 0.0,
			"0.02": 0.0,
			"0.021": 0.0,
			"0.022": 0.0,
			"0.023": 0.0,
			"0.024": 0.0,
			"0.025": 0.0
		}
	}
}
