{
	 "smiles": "CCS(=O)(=O)C1=C(C=C(Cl)C=C1)C(O)=O", 
	 "Tm": 378.15, 
	 "num_atms": 24, 
	 "gaussian": { 
		 "optdone": 1, 
		 "sigma_profile": "yes", 
		 "theory": "DFT", 
		 "functional": "B3LYP", 
		 "basiset": "6-31G**", 
		 "properties": { 
			 "R2extent": 4575.2823, 
			 "electric_dipole_moment_norm": 3.92374313762, 
			 "electric_quadrupole_moment_norm": 12.7748723367, 
			 "total_energy": -1507.6076592, 
			 "HOMO_LUMO_gap": 0.20014, 
			 "cosmo_polarized_energy": -17.04, 
			 "cosmo_cavitation_energy": 31.12, 
			 "cosmo_dispersion_energy": -22.85, 
			 "cosmo_repulsion_energy": 1.76, 
			 "cosmo_total_nonelectrostatic_energy": 10.02, 
			 "SMD_solvation_energy": 5.53 
		},
		"coords": [
			{
				"x": -1.0874327794,
				"y": 0.461724828,
				"z": -3.8538838771,
				"element": "C" 
			},
			{
				"x": -1.4871395489,
				"y": -0.6701364049,
				"z": -2.9138298074,
				"element": "C" 
			},
			{
				"x": -1.445970381,
				"y": -0.1944170253,
				"z": -1.1596167059,
				"element": "S" 
			},
			{
				"x": -2.1214691234,
				"y": 1.1110389742,
				"z": -1.039767695,
				"element": "O" 
			},
			{
				"x": -1.8863378523,
				"y": -1.3367478753,
				"z": -0.3459586332,
				"element": "O" 
			},
			{
				"x": 0.3071262806,
				"y": 0.1226849273,
				"z": -0.754172731,
				"element": "C" 
			},
			{
				"x": 1.2411694861,
				"y": -0.8898203477,
				"z": -0.46077366,
				"element": "C" 
			},
			{
				"x": 2.5080846316,
				"y": -0.5305824217,
				"z": 0.0131151212,
				"element": "C" 
			},
			{
				"x": 2.8426260699,
				"y": 0.8150531655,
				"z": 0.1609322161,
				"element": "C" 
			},
			{
				"x": 4.4406320206,
				"y": 1.2394968109,
				"z": 0.7350799539,
				"element": "Cl" 
			},
			{
				"x": 1.9248597521,
				"y": 1.8202118041,
				"z": -0.1320341766,
				"element": "C" 
			},
			{
				"x": 0.6517275489,
				"y": 1.4622049263,
				"z": -0.5753215664,
				"element": "C" 
			},
			{
				"x": 0.9815595847,
				"y": -2.3476320126,
				"z": -0.6973560825,
				"element": "C" 
			},
			{
				"x": 1.5147478355,
				"y": -3.1168238899,
				"z": 0.2729671746,
				"element": "O" 
			},
			{
				"x": 0.4229920108,
				"y": -2.8107020203,
				"z": -1.6687648399,
				"element": "O" 
			},
			{
				"x": -1.7257989119,
				"y": 1.3361294435,
				"z": -3.7096258981,
				"element": "H" 
			},
			{
				"x": -1.1892343759,
				"y": 0.1230752136,
				"z": -4.8892924623,
				"element": "H" 
			},
			{
				"x": -0.0457641094,
				"y": 0.7607673635,
				"z": -3.7032589054,
				"element": "H" 
			},
			{
				"x": -2.5309461398,
				"y": -0.9712404762,
				"z": -3.0520166968,
				"element": "H" 
			},
			{
				"x": -0.8521567059,
				"y": -1.5531887899,
				"z": -2.9932665671,
				"element": "H" 
			},
			{
				"x": 3.2284556803,
				"y": -1.3008167806,
				"z": 0.2592492755,
				"element": "H" 
			},
			{
				"x": 2.1930528777,
				"y": 2.8624058678,
				"z": -0.0007321401,
				"element": "H" 
			},
			{
				"x": -0.0998335696,
				"y": 2.2209734401,
				"z": -0.7621479085,
				"element": "H" 
			},
			{
				"x": 1.3351497187,
				"y": -4.0385587201,
				"z": 0.0201766122,
				"element": "H" 
			}
		],
		 "valence_orbital": [ 
			{
				"type": "occ",
				"energy": -0.30489,
				"method": "rhf"
			},
			{
				"type": "occ",
				"energy": -0.29519,
				"method": "rhf"
			},
			{
				"type": "occ",
				"energy": -0.28969,
				"method": "rhf"
			},
			{
				"type": "occ",
				"energy": -0.28777,
				"method": "rhf"
			},
			{
				"type": "occ",
				"energy": -0.27466,
				"method": "rhf"
			},
			{
				"type": "unocc",
				"energy": -0.07452,
				"method": "rhf"
			},
			{
				"type": "unocc",
				"energy": -0.04779,
				"method": "rhf"
			},
			{
				"type": "unocc",
				"energy": 0.00508,
				"method": "rhf"
			},
			{
				"type": "unocc",
				"energy": 0.0187,
				"method": "rhf"
			},
			{
				"type": "unocc",
				"energy": 0.05584,
				"method": "rhf"
			}
		],
		"cosmo_sigma_profile": { 
			"-0.025": 0.0,
			"-0.024": 0.0,
			"-0.023": 0.0,
			"-0.022": 0.0,
			"-0.021": 0.0,
			"-0.02": 0.0999315334796,
			"-0.019": 0.764759188459,
			"-0.018": 1.08228403106,
			"-0.017": 0.490166091636,
			"-0.016": 0.908977107387,
			"-0.015": 0.889066737258,
			"-0.014": 0.514182163492,
			"-0.013": 0.724910625586,
			"-0.012": 0.936947124202,
			"-0.011": 0.642400256221,
			"-0.01": 0.585754899256,
			"-0.009": 2.78495194182,
			"-0.008": 6.78416290095,
			"-0.007": 8.11019668239,
			"-0.006": 7.54897351029,
			"-0.005": 12.4049115509,
			"-0.004": 17.6934375959,
			"-0.003": 20.1479202914,
			"-0.002": 19.3600694189,
			"-0.001": 29.1906810001,
			"0.0": 22.9166832483,
			"0.001": 11.4918224097,
			"0.002": 11.1778437191,
			"0.003": 14.7689423247,
			"0.004": 10.1044521556,
			"0.005": 3.42591639961,
			"0.006": 4.84258215109,
			"0.007": 5.87277331985,
			"0.008": 5.29792626639,
			"0.009": 5.96592146579,
			"0.01": 8.11172890376,
			"0.011": 8.8004042833,
			"0.012": 6.07822319215,
			"0.013": 0.133428559017,
			"0.014": 0.0,
			"0.015": 0.0,
			"0.016": 0.0,
			"0.017": 0.0,
			"0.018": 0.0,
			"0.019": 0.0,
			"0.02": 0.0,
			"0.021": 0.0,
			"0.022": 0.0,
			"0.023": 0.0,
			"0.024": 0.0,
			"0.025": 0.0
		}
	}
}
