{
	 "smiles": "CC1=CC(C)=C(C=C1)S(=O)(=O)N1CCC(CC1)C(O)=O", 
	 "Tm": 474.15, 
	 "num_atms": 39, 
	 "gaussian": { 
		 "optdone": 1, 
		 "sigma_profile": "yes", 
		 "theory": "DFT", 
		 "functional": "B3LYP", 
		 "basiset": "6-31G**", 
		 "properties": { 
			 "R2extent": 7981.3406, 
			 "electric_dipole_moment_norm": 4.37286774097, 
			 "electric_quadrupole_moment_norm": 8.58544036902, 
			 "total_energy": -1298.73025737, 
			 "HOMO_LUMO_gap": 0.22118, 
			 "cosmo_polarized_energy": -18.87, 
			 "cosmo_cavitation_energy": 41.61, 
			 "cosmo_dispersion_energy": -29.46, 
			 "cosmo_repulsion_energy": 2.21, 
			 "cosmo_total_nonelectrostatic_energy": 14.36, 
			 "SMD_solvation_energy": 7.19 
		},
		"coords": [
			{
				"x": -3.3651382858,
				"y": 0.6785100423,
				"z": 4.3198276067,
				"element": "C" 
			},
			{
				"x": -2.6929408539,
				"y": 0.374200965,
				"z": 3.0025847854,
				"element": "C" 
			},
			{
				"x": -3.2536475175,
				"y": -0.5586900357,
				"z": 2.1179483527,
				"element": "C" 
			},
			{
				"x": -2.6867819174,
				"y": -0.8682392478,
				"z": 0.8791323385,
				"element": "C" 
			},
			{
				"x": -3.3435791391,
				"y": -1.8881060877,
				"z": -0.0202161586,
				"element": "C" 
			},
			{
				"x": -1.4949757649,
				"y": -0.1948015665,
				"z": 0.5325536846,
				"element": "C" 
			},
			{
				"x": -0.9133875781,
				"y": 0.7310411711,
				"z": 1.3964526635,
				"element": "C" 
			},
			{
				"x": -1.5105715429,
				"y": 1.0143991555,
				"z": 2.6249190171,
				"element": "C" 
			},
			{
				"x": -0.7121528371,
				"y": -0.5650319439,
				"z": -1.0491200606,
				"element": "S" 
			},
			{
				"x": -1.6616789565,
				"y": -0.2000223982,
				"z": -2.1102530428,
				"element": "O" 
			},
			{
				"x": -0.1814898214,
				"y": -1.9346933544,
				"z": -0.9784261767,
				"element": "O" 
			},
			{
				"x": 0.5855834674,
				"y": 0.497390636,
				"z": -1.134771993,
				"element": "N" 
			},
			{
				"x": 1.9635672199,
				"y": -0.0300182555,
				"z": -1.0350062338,
				"element": "C" 
			},
			{
				"x": 2.7475100073,
				"y": 0.2530775744,
				"z": -2.3181314295,
				"element": "C" 
			},
			{
				"x": 2.8240399743,
				"y": 1.7763502365,
				"z": -2.6396101885,
				"element": "C" 
			},
			{
				"x": 1.6697171231,
				"y": 2.5437638529,
				"z": -1.9400035031,
				"element": "C" 
			},
			{
				"x": 0.3775396931,
				"y": 1.7266029111,
				"z": -1.9337337416,
				"element": "C" 
			},
			{
				"x": 4.1605450982,
				"y": 2.3850886937,
				"z": -2.2612682319,
				"element": "C" 
			},
			{
				"x": 4.4772603045,
				"y": 2.1533336145,
				"z": -0.9584929308,
				"element": "O" 
			},
			{
				"x": 4.8847833977,
				"y": 3.0174911969,
				"z": -2.9967903947,
				"element": "O" 
			},
			{
				"x": -3.6286435832,
				"y": -0.2401674289,
				"z": 4.8545268332,
				"element": "H" 
			},
			{
				"x": -4.2948106834,
				"y": 1.2399840464,
				"z": 4.1677976808,
				"element": "H" 
			},
			{
				"x": -2.7199874613,
				"y": 1.2754570076,
				"z": 4.9699682893,
				"element": "H" 
			},
			{
				"x": -4.1703787379,
				"y": -1.0695690902,
				"z": 2.4043449893,
				"element": "H" 
			},
			{
				"x": -3.6413616129,
				"y": -1.4377489258,
				"z": -0.9714899367,
				"element": "H" 
			},
			{
				"x": -4.2284613365,
				"y": -2.3103563081,
				"z": 0.4617945197,
				"element": "H" 
			},
			{
				"x": -2.6533064365,
				"y": -2.7033881297,
				"z": -0.25759143,
				"element": "H" 
			},
			{
				"x": 0.0073450983,
				"y": 1.2232975322,
				"z": 1.1054731961,
				"element": "H" 
			},
			{
				"x": -1.0483050812,
				"y": 1.737334693,
				"z": 3.2915020742,
				"element": "H" 
			},
			{
				"x": 2.4695410257,
				"y": 0.4273608165,
				"z": -0.1764091817,
				"element": "H" 
			},
			{
				"x": 1.9004666037,
				"y": -1.103476038,
				"z": -0.8559632787,
				"element": "H" 
			},
			{
				"x": 3.7495875843,
				"y": -0.1782328801,
				"z": -2.2306673523,
				"element": "H" 
			},
			{
				"x": 2.2538055393,
				"y": -0.2595622125,
				"z": -3.1500296772,
				"element": "H" 
			},
			{
				"x": 2.7415532796,
				"y": 1.9207334345,
				"z": -3.7198090729,
				"element": "H" 
			},
			{
				"x": 1.9517769365,
				"y": 2.7820756368,
				"z": -0.9090690146,
				"element": "H" 
			},
			{
				"x": 1.4902130669,
				"y": 3.494258785,
				"z": -2.4518501317,
				"element": "H" 
			},
			{
				"x": -0.433110458,
				"y": 2.3104549834,
				"z": -1.4871080753,
				"element": "H" 
			},
			{
				"x": 0.0721337874,
				"y": 1.4829011477,
				"z": -2.9584312345,
				"element": "H" 
			},
			{
				"x": 5.3383403981,
				"y": 2.5791957702,
				"z": -0.8101835598,
				"element": "H" 
			}
		],
		 "valence_orbital": [ 
			{
				"type": "occ",
				"energy": -0.29346,
				"method": "rhf"
			},
			{
				"type": "occ",
				"energy": -0.27686,
				"method": "rhf"
			},
			{
				"type": "occ",
				"energy": -0.25588,
				"method": "rhf"
			},
			{
				"type": "occ",
				"energy": -0.24834,
				"method": "rhf"
			},
			{
				"type": "occ",
				"energy": -0.24636,
				"method": "rhf"
			},
			{
				"type": "unocc",
				"energy": -0.02518,
				"method": "rhf"
			},
			{
				"type": "unocc",
				"energy": -0.01052,
				"method": "rhf"
			},
			{
				"type": "unocc",
				"energy": 0.00048,
				"method": "rhf"
			},
			{
				"type": "unocc",
				"energy": 0.05503,
				"method": "rhf"
			},
			{
				"type": "unocc",
				"energy": 0.06388,
				"method": "rhf"
			}
		],
		"cosmo_sigma_profile": { 
			"-0.025": 0.0,
			"-0.024": 0.0,
			"-0.023": 0.0,
			"-0.022": 0.0,
			"-0.021": 0.0,
			"-0.02": 0.0,
			"-0.019": 0.0,
			"-0.018": 0.771405242747,
			"-0.017": 0.950277174056,
			"-0.016": 0.391595302826,
			"-0.015": 1.30690195698,
			"-0.014": 0.596880927691,
			"-0.013": 0.471450579796,
			"-0.012": 0.806652776814,
			"-0.011": 0.823289962843,
			"-0.01": 0.573964332065,
			"-0.009": 0.667248555481,
			"-0.008": 0.508460228763,
			"-0.007": 1.10913940067,
			"-0.006": 6.89622044797,
			"-0.005": 28.0197705834,
			"-0.004": 41.7387945191,
			"-0.003": 41.1096988849,
			"-0.002": 32.1409119346,
			"-0.001": 26.9154379627,
			"0.0": 23.4302341492,
			"0.001": 15.3446283686,
			"0.002": 12.0974194085,
			"0.003": 15.4167806235,
			"0.004": 16.4108143227,
			"0.005": 7.65573917864,
			"0.006": 5.9700457725,
			"0.007": 4.99054497408,
			"0.008": 4.53386120269,
			"0.009": 5.14954534552,
			"0.01": 8.48584756062,
			"0.011": 11.6101725537,
			"0.012": 8.74285721177,
			"0.013": 1.08913427464,
			"0.014": 0.0,
			"0.015": 0.0,
			"0.016": 0.0,
			"0.017": 0.0,
			"0.018": 0.0,
			"0.019": 0.0,
			"0.02": 0.0,
			"0.021": 0.0,
			"0.022": 0.0,
			"0.023": 0.0,
			"0.024": 0.0,
			"0.025": 0.0
		}
	}
}
