{
	 "smiles": "CSC1=NC=C(C#N)C(N)=N1", 
	 "Tm": 514.65, 
	 "num_atms": 17, 
	 "gaussian": { 
		 "optdone": 1, 
		 "sigma_profile": "yes", 
		 "theory": "DFT", 
		 "functional": "B3LYP", 
		 "basiset": "6-31G**", 
		 "properties": { 
			 "R2extent": 2462.8949, 
			 "electric_dipole_moment_norm": 4.2905695869, 
			 "electric_quadrupole_moment_norm": 18.7311974975, 
			 "total_energy": -849.445960473, 
			 "HOMO_LUMO_gap": 0.17689, 
			 "cosmo_polarized_energy": -14.52, 
			 "cosmo_cavitation_energy": 24.36, 
			 "cosmo_dispersion_energy": -18.01, 
			 "cosmo_repulsion_energy": 1.42, 
			 "cosmo_total_nonelectrostatic_energy": 7.77, 
			 "SMD_solvation_energy": 3.24 
		},
		"coords": [
			{
				"x": -1.0020144032,
				"y": -1.6576476703,
				"z": 2.3516121914,
				"element": "C" 
			},
			{
				"x": -0.6614847287,
				"y": 0.0843174094,
				"z": 1.9341925852,
				"element": "S" 
			},
			{
				"x": -0.0498655573,
				"y": -0.0519716443,
				"z": 0.2842547855,
				"element": "C" 
			},
			{
				"x": 0.2799751257,
				"y": 1.1366863445,
				"z": -0.2574822198,
				"element": "N" 
			},
			{
				"x": 0.7454687362,
				"y": 1.085178781,
				"z": -1.500681776,
				"element": "C" 
			},
			{
				"x": 0.8926202535,
				"y": -0.1076563416,
				"z": -2.2195528729,
				"element": "C" 
			},
			{
				"x": 1.3907371417,
				"y": -0.1567359184,
				"z": -3.5493572126,
				"element": "C" 
			},
			{
				"x": 1.7921902239,
				"y": -0.2608054633,
				"z": -4.6388370618,
				"element": "N" 
			},
			{
				"x": 0.510761946,
				"y": -1.3015430039,
				"z": -1.5403382441,
				"element": "C" 
			},
			{
				"x": 0.6049969033,
				"y": -2.5145914123,
				"z": -2.1241163257,
				"element": "N" 
			},
			{
				"x": 0.0394528622,
				"y": -1.2545165221,
				"z": -0.2829653853,
				"element": "N" 
			},
			{
				"x": -1.7478077012,
				"y": -2.0791866299,
				"z": 1.6769866024,
				"element": "H" 
			},
			{
				"x": -1.388687566,
				"y": -1.646567947,
				"z": 3.3729368388,
				"element": "H" 
			},
			{
				"x": -0.089243148,
				"y": -2.2525135991,
				"z": 2.3068125677,
				"element": "H" 
			},
			{
				"x": 1.0202249811,
				"y": 2.0304178736,
				"z": -1.9643175933,
				"element": "H" 
			},
			{
				"x": 0.3223568823,
				"y": -3.325256821,
				"z": -1.5974555434,
				"element": "H" 
			},
			{
				"x": 0.9521180486,
				"y": -2.6178074354,
				"z": -3.064291336,
				"element": "H" 
			}
		],
		 "valence_orbital": [ 
			{
				"type": "occ",
				"energy": -0.31948,
				"method": "rhf"
			},
			{
				"type": "occ",
				"energy": -0.31272,
				"method": "rhf"
			},
			{
				"type": "occ",
				"energy": -0.27003,
				"method": "rhf"
			},
			{
				"type": "occ",
				"energy": -0.26662,
				"method": "rhf"
			},
			{
				"type": "occ",
				"energy": -0.23545,
				"method": "rhf"
			},
			{
				"type": "unocc",
				"energy": -0.05856,
				"method": "rhf"
			},
			{
				"type": "unocc",
				"energy": -0.0311,
				"method": "rhf"
			},
			{
				"type": "unocc",
				"energy": 0.01758,
				"method": "rhf"
			},
			{
				"type": "unocc",
				"energy": 0.0314,
				"method": "rhf"
			},
			{
				"type": "unocc",
				"energy": 0.05661,
				"method": "rhf"
			}
		],
		"cosmo_sigma_profile": { 
			"-0.025": 0.0,
			"-0.024": 0.0,
			"-0.023": 0.0,
			"-0.022": 0.0,
			"-0.021": 0.0,
			"-0.02": 0.0,
			"-0.019": 0.0,
			"-0.018": 0.0,
			"-0.017": 0.0,
			"-0.016": 0.117369455253,
			"-0.015": 1.5010164888,
			"-0.014": 1.91184199902,
			"-0.013": 2.11583276603,
			"-0.012": 1.88842005533,
			"-0.011": 2.71823388249,
			"-0.01": 1.63304704231,
			"-0.009": 3.82978651285,
			"-0.008": 4.28738188992,
			"-0.007": 6.09280686868,
			"-0.006": 7.67387130684,
			"-0.005": 8.09250935528,
			"-0.004": 10.8788984431,
			"-0.003": 13.3090940953,
			"-0.002": 20.4386545529,
			"-0.001": 14.3589434343,
			"0.0": 10.0762944958,
			"0.001": 10.9680898089,
			"0.002": 9.35796709733,
			"0.003": 8.6552089884,
			"0.004": 9.3695449201,
			"0.005": 9.33163506576,
			"0.006": 8.95307250884,
			"0.007": 7.7186305131,
			"0.008": 4.87644138026,
			"0.009": 4.03891221604,
			"0.01": 4.08513323616,
			"0.011": 3.51792116432,
			"0.012": 3.53895063064,
			"0.013": 2.06537193381,
			"0.014": 0.647278380376,
			"0.015": 0.10148087091,
			"0.016": 0.0,
			"0.017": 0.0,
			"0.018": 0.0,
			"0.019": 0.0,
			"0.02": 0.0,
			"0.021": 0.0,
			"0.022": 0.0,
			"0.023": 0.0,
			"0.024": 0.0,
			"0.025": 0.0
		}
	}
}
