{
	 "smiles": "COC1=CC=C(C=C1)N=NC1=C2N=C(C)C=C(C)N2N=C1N", 
	 "Tm": 475.15, 
	 "num_atms": 38, 
	 "gaussian": { 
		 "optdone": 1, 
		 "sigma_profile": "yes", 
		 "theory": "DFT", 
		 "functional": "B3LYP", 
		 "basiset": "6-31G**", 
		 "properties": { 
			 "R2extent": 7245.4828, 
			 "electric_dipole_moment_norm": 5.430789322, 
			 "electric_quadrupole_moment_norm": 13.0127551825, 
			 "total_energy": -984.896971206, 
			 "HOMO_LUMO_gap": 0.12523, 
			 "cosmo_polarized_energy": -20.07, 
			 "cosmo_cavitation_energy": 42.31, 
			 "cosmo_dispersion_energy": -28.94, 
			 "cosmo_repulsion_energy": 2.24, 
			 "cosmo_total_nonelectrostatic_energy": 15.61, 
			 "SMD_solvation_energy": 4.65 
		},
		"coords": [
			{
				"x": 4.0964341517,
				"y": 2.3332561474,
				"z": -1.2620096805,
				"element": "C" 
			},
			{
				"x": 3.3733332277,
				"y": 2.9486436134,
				"z": -0.2101220884,
				"element": "O" 
			},
			{
				"x": 2.0147559738,
				"y": 2.7968676984,
				"z": -0.1853384778,
				"element": "C" 
			},
			{
				"x": 1.3476079667,
				"y": 3.4534353646,
				"z": 0.8615866134,
				"element": "C" 
			},
			{
				"x": -0.0330064355,
				"y": 3.3811373944,
				"z": 0.9604244078,
				"element": "C" 
			},
			{
				"x": -0.7767658543,
				"y": 2.6043618512,
				"z": 0.0567670976,
				"element": "C" 
			},
			{
				"x": -0.1079106347,
				"y": 1.9640792569,
				"z": -0.9928327674,
				"element": "C" 
			},
			{
				"x": 1.2773984225,
				"y": 2.0655462672,
				"z": -1.1247327052,
				"element": "C" 
			},
			{
				"x": -2.1941783403,
				"y": 2.6886966025,
				"z": 0.1334495454,
				"element": "N" 
			},
			{
				"x": -2.9649345719,
				"y": 1.699810846,
				"z": -0.0028984498,
				"element": "N" 
			},
			{
				"x": -2.6224635178,
				"y": 0.3480029409,
				"z": -0.0156974308,
				"element": "C" 
			},
			{
				"x": -1.6275124084,
				"y": -0.4781942596,
				"z": 0.555399599,
				"element": "C" 
			},
			{
				"x": -0.4926926362,
				"y": -0.2327079634,
				"z": 1.2242912239,
				"element": "N" 
			},
			{
				"x": 0.2059449121,
				"y": -1.2724071885,
				"z": 1.668537643,
				"element": "C" 
			},
			{
				"x": 1.4729221919,
				"y": -0.9742650725,
				"z": 2.4265592887,
				"element": "C" 
			},
			{
				"x": -0.2140214662,
				"y": -2.6110782891,
				"z": 1.460615952,
				"element": "C" 
			},
			{
				"x": -1.3948448039,
				"y": -2.8697211553,
				"z": 0.79248781,
				"element": "C" 
			},
			{
				"x": -1.9696791924,
				"y": -4.2227260466,
				"z": 0.5230535785,
				"element": "C" 
			},
			{
				"x": -2.0891543309,
				"y": -1.7895358035,
				"z": 0.352141607,
				"element": "N" 
			},
			{
				"x": -3.2917847801,
				"y": -1.8568653106,
				"z": -0.2955662748,
				"element": "N" 
			},
			{
				"x": -3.6116847149,
				"y": -0.5728461935,
				"z": -0.4880381256,
				"element": "C" 
			},
			{
				"x": -4.7566703555,
				"y": -0.1961658643,
				"z": -1.1286768215,
				"element": "N" 
			},
			{
				"x": 3.7904378979,
				"y": 2.716306718,
				"z": -2.244441336,
				"element": "H" 
			},
			{
				"x": 3.9776889311,
				"y": 1.2415668404,
				"z": -1.2534743667,
				"element": "H" 
			},
			{
				"x": 5.1459956601,
				"y": 2.5801379191,
				"z": -1.0930877452,
				"element": "H" 
			},
			{
				"x": 1.9346679011,
				"y": 4.0330880933,
				"z": 1.5666703652,
				"element": "H" 
			},
			{
				"x": -0.5604251218,
				"y": 3.9152276949,
				"z": 1.7445605856,
				"element": "H" 
			},
			{
				"x": -0.6738300049,
				"y": 1.3997046473,
				"z": -1.726830991,
				"element": "H" 
			},
			{
				"x": 1.7662692962,
				"y": 1.5746307335,
				"z": -1.9581817696,
				"element": "H" 
			},
			{
				"x": 2.3017061085,
				"y": -1.6003060136,
				"z": 2.0791430016,
				"element": "H" 
			},
			{
				"x": 1.3409941688,
				"y": -1.1759846166,
				"z": 3.4967687342,
				"element": "H" 
			},
			{
				"x": 1.735095275,
				"y": 0.077281314,
				"z": 2.3024912216,
				"element": "H" 
			},
			{
				"x": 0.3770423872,
				"y": -3.440582397,
				"z": 1.8311228506,
				"element": "H" 
			},
			{
				"x": -1.312951545,
				"y": -5.0004309504,
				"z": 0.9163249286,
				"element": "H" 
			},
			{
				"x": -2.1109591531,
				"y": -4.3712560488,
				"z": -0.5521868116,
				"element": "H" 
			},
			{
				"x": -2.959603886,
				"y": -4.3146807649,
				"z": 0.9813449353,
				"element": "H" 
			},
			{
				"x": -5.0066608213,
				"y": 0.7712232181,
				"z": -0.9635653976,
				"element": "H" 
			},
			{
				"x": -5.5141598969,
				"y": -0.8633512234,
				"z": -1.1160597496,
				"element": "H" 
			}
		],
		 "valence_orbital": [ 
			{
				"type": "occ",
				"energy": -0.24329,
				"method": "rhf"
			},
			{
				"type": "occ",
				"energy": -0.22704,
				"method": "rhf"
			},
			{
				"type": "occ",
				"energy": -0.2215,
				"method": "rhf"
			},
			{
				"type": "occ",
				"energy": -0.21615,
				"method": "rhf"
			},
			{
				"type": "occ",
				"energy": -0.18005,
				"method": "rhf"
			},
			{
				"type": "unocc",
				"energy": -0.05482,
				"method": "rhf"
			},
			{
				"type": "unocc",
				"energy": -0.03746,
				"method": "rhf"
			},
			{
				"type": "unocc",
				"energy": 0.00362,
				"method": "rhf"
			},
			{
				"type": "unocc",
				"energy": 0.00831,
				"method": "rhf"
			},
			{
				"type": "unocc",
				"energy": 0.03934,
				"method": "rhf"
			}
		],
		"cosmo_sigma_profile": { 
			"-0.025": 0.0,
			"-0.024": 0.0,
			"-0.023": 0.0,
			"-0.022": 0.0,
			"-0.021": 0.0,
			"-0.02": 0.0,
			"-0.019": 0.0,
			"-0.018": 0.0,
			"-0.017": 0.0,
			"-0.016": 0.0,
			"-0.015": 0.0,
			"-0.014": 0.343317329157,
			"-0.013": 1.07852365324,
			"-0.012": 1.71549082056,
			"-0.011": 2.01482287312,
			"-0.01": 1.73456252032,
			"-0.009": 2.22210570145,
			"-0.008": 2.84861002047,
			"-0.007": 5.88569663647,
			"-0.006": 16.7562507292,
			"-0.005": 29.8492948066,
			"-0.004": 27.5669560574,
			"-0.003": 32.6103756835,
			"-0.002": 30.014428967,
			"-0.001": 26.7678465353,
			"0.0": 22.2680411511,
			"0.001": 19.180661903,
			"0.002": 18.1731812009,
			"0.003": 15.5616224375,
			"0.004": 14.5450844475,
			"0.005": 13.6841675121,
			"0.006": 9.03618379266,
			"0.007": 7.96750255192,
			"0.008": 6.90545093909,
			"0.009": 7.29180615765,
			"0.01": 5.89079454115,
			"0.011": 4.77692638344,
			"0.012": 4.06901318864,
			"0.013": 2.74404079323,
			"0.014": 1.81082119939,
			"0.015": 1.00509627336,
			"0.016": 0.556611958451,
			"0.017": 0.0,
			"0.018": 0.0,
			"0.019": 0.0,
			"0.02": 0.0,
			"0.021": 0.0,
			"0.022": 0.0,
			"0.023": 0.0,
			"0.024": 0.0,
			"0.025": 0.0
		}
	}
}
