{
	 "smiles": "C1CCC2=C(C1)C=CC1=C2CCCC1", 
	 "Tm": 289.85, 
	 "num_atms": 32, 
	 "gaussian": { 
		 "optdone": 1, 
		 "sigma_profile": "yes", 
		 "theory": "DFT", 
		 "functional": "B3LYP", 
		 "basiset": "6-31G**", 
		 "properties": { 
			 "R2extent": 3184.3216, 
			 "electric_dipole_moment_norm": 0.559366838488, 
			 "electric_quadrupole_moment_norm": 3.35667801107, 
			 "total_energy": -544.371876059, 
			 "HOMO_LUMO_gap": 0.22605, 
			 "cosmo_polarized_energy": -2.99, 
			 "cosmo_cavitation_energy": 30.75, 
			 "cosmo_dispersion_energy": -23.21, 
			 "cosmo_repulsion_energy": 1.82, 
			 "cosmo_total_nonelectrostatic_energy": 9.36, 
			 "SMD_solvation_energy": 3.42 
		},
		"coords": [
			{
				"x": 1.8388736589,
				"y": -2.4840681898,
				"z": -2.5716957716,
				"element": "C" 
			},
			{
				"x": 0.572837428,
				"y": -2.9435853803,
				"z": -1.8460559125,
				"element": "C" 
			},
			{
				"x": -0.2043406032,
				"y": -1.7430247436,
				"z": -1.2886769815,
				"element": "C" 
			},
			{
				"x": 0.664749846,
				"y": -0.7044291194,
				"z": -0.5897896883,
				"element": "C" 
			},
			{
				"x": 2.0661337594,
				"y": -0.7212056144,
				"z": -0.7452530096,
				"element": "C" 
			},
			{
				"x": 2.7687363614,
				"y": -1.7814693302,
				"z": -1.5786051477,
				"element": "C" 
			},
			{
				"x": 2.8412127846,
				"y": 0.2536718855,
				"z": -0.1050765969,
				"element": "C" 
			},
			{
				"x": 2.2553606348,
				"y": 1.2394270972,
				"z": 0.6813532084,
				"element": "C" 
			},
			{
				"x": 0.8680592014,
				"y": 1.2787478358,
				"z": 0.8297086426,
				"element": "C" 
			},
			{
				"x": 0.0726949709,
				"y": 0.309784814,
				"z": 0.1923908653,
				"element": "C" 
			},
			{
				"x": -1.4201390517,
				"y": 0.4602753904,
				"z": 0.4020842951,
				"element": "C" 
			},
			{
				"x": -1.7752228266,
				"y": 0.6457562728,
				"z": 1.8970697023,
				"element": "C" 
			},
			{
				"x": -0.8555874102,
				"y": 1.6697233984,
				"z": 2.619728367,
				"element": "C" 
			},
			{
				"x": 0.1626155268,
				"y": 2.3234544837,
				"z": 1.6606412254,
				"element": "C" 
			},
			{
				"x": 1.5673204336,
				"y": -1.7939033387,
				"z": -3.3821485835,
				"element": "H" 
			},
			{
				"x": 2.3547844027,
				"y": -3.3322808607,
				"z": -3.0361396327,
				"element": "H" 
			},
			{
				"x": -0.0767371341,
				"y": -3.5233111679,
				"z": -2.5119003925,
				"element": "H" 
			},
			{
				"x": 0.8572167201,
				"y": -3.6136239116,
				"z": -1.0231117847,
				"element": "H" 
			},
			{
				"x": -0.9784451671,
				"y": -2.1055353966,
				"z": -0.6026092963,
				"element": "H" 
			},
			{
				"x": -0.7467370166,
				"y": -1.2559787422,
				"z": -2.1129179305,
				"element": "H" 
			},
			{
				"x": 3.6187721676,
				"y": -1.3264699703,
				"z": -2.1012569271,
				"element": "H" 
			},
			{
				"x": 3.201309889,
				"y": -2.5375680657,
				"z": -0.9059617516,
				"element": "H" 
			},
			{
				"x": 3.9218975196,
				"y": 0.2337408569,
				"z": -0.2294578345,
				"element": "H" 
			},
			{
				"x": 2.8737459529,
				"y": 1.986601783,
				"z": 1.1734987199,
				"element": "H" 
			},
			{
				"x": -1.9823152078,
				"y": -0.3830928359,
				"z": -0.0041238008,
				"element": "H" 
			},
			{
				"x": -1.7652098896,
				"y": 1.3452554852,
				"z": -0.153532558,
				"element": "H" 
			},
			{
				"x": -2.8249673724,
				"y": 0.950133466,
				"z": 1.9743246849,
				"element": "H" 
			},
			{
				"x": -1.6999272617,
				"y": -0.3274420792,
				"z": 2.3941151343,
				"element": "H" 
			},
			{
				"x": -1.453092362,
				"y": 2.4496723328,
				"z": 3.1044519345,
				"element": "H" 
			},
			{
				"x": -0.2997271448,
				"y": 1.1647869472,
				"z": 3.4170561387,
				"element": "H" 
			},
			{
				"x": -0.3703716987,
				"y": 3.0229596103,
				"z": 0.9990949393,
				"element": "H" 
			},
			{
				"x": 0.8860988887,
				"y": 2.9233970874,
				"z": 2.2230957425,
				"element": "H" 
			}
		],
		 "valence_orbital": [ 
			{
				"type": "occ",
				"energy": -0.31328,
				"method": "rhf"
			},
			{
				"type": "occ",
				"energy": -0.29412,
				"method": "rhf"
			},
			{
				"type": "occ",
				"energy": -0.29235,
				"method": "rhf"
			},
			{
				"type": "occ",
				"energy": -0.22359,
				"method": "rhf"
			},
			{
				"type": "occ",
				"energy": -0.21717,
				"method": "rhf"
			},
			{
				"type": "unocc",
				"energy": 0.00888,
				"method": "rhf"
			},
			{
				"type": "unocc",
				"energy": 0.01528,
				"method": "rhf"
			},
			{
				"type": "unocc",
				"energy": 0.08641,
				"method": "rhf"
			},
			{
				"type": "unocc",
				"energy": 0.10152,
				"method": "rhf"
			},
			{
				"type": "unocc",
				"energy": 0.1164,
				"method": "rhf"
			}
		],
		"cosmo_sigma_profile": { 
			"-0.025": 0.0,
			"-0.024": 0.0,
			"-0.023": 0.0,
			"-0.022": 0.0,
			"-0.021": 0.0,
			"-0.02": 0.0,
			"-0.019": 0.0,
			"-0.018": 0.0,
			"-0.017": 0.0,
			"-0.016": 0.0,
			"-0.015": 0.0,
			"-0.014": 0.0,
			"-0.013": 0.0,
			"-0.012": 0.0,
			"-0.011": 0.0,
			"-0.01": 0.0,
			"-0.009": 0.0,
			"-0.008": 0.0,
			"-0.007": 0.0,
			"-0.006": 0.0,
			"-0.005": 0.609829200504,
			"-0.004": 5.84522721229,
			"-0.003": 23.4118741489,
			"-0.002": 41.8882503951,
			"-0.001": 47.503883422,
			"0.0": 44.8544093856,
			"0.001": 30.2447263219,
			"0.002": 11.4866337459,
			"0.003": 5.99249961208,
			"0.004": 6.06630282879,
			"0.005": 5.91390085616,
			"0.006": 5.67072889941,
			"0.007": 5.76393175291,
			"0.008": 3.4561176348,
			"0.009": 0.0161604026643,
			"0.01": 0.0,
			"0.011": 0.0,
			"0.012": 0.0,
			"0.013": 0.0,
			"0.014": 0.0,
			"0.015": 0.0,
			"0.016": 0.0,
			"0.017": 0.0,
			"0.018": 0.0,
			"0.019": 0.0,
			"0.02": 0.0,
			"0.021": 0.0,
			"0.022": 0.0,
			"0.023": 0.0,
			"0.024": 0.0,
			"0.025": 0.0
		}
	}
}
