{
	 "smiles": "OC(=O)C1=CC=CC=C1C=O", 
	 "Tm": 371.15, 
	 "num_atms": 17, 
	 "gaussian": { 
		 "optdone": 1, 
		 "sigma_profile": "yes", 
		 "theory": "DFT", 
		 "functional": "B3LYP", 
		 "basiset": "6-31G**", 
		 "properties": { 
			 "R2extent": 2043.4692, 
			 "electric_dipole_moment_norm": 6.69380190774, 
			 "electric_quadrupole_moment_norm": 14.8640834924, 
			 "total_energy": -534.141284634, 
			 "HOMO_LUMO_gap": 0.16256, 
			 "cosmo_polarized_energy": -14.47, 
			 "cosmo_cavitation_energy": 21.46, 
			 "cosmo_dispersion_energy": -16.24, 
			 "cosmo_repulsion_energy": 1.27, 
			 "cosmo_total_nonelectrostatic_energy": 6.48, 
			 "SMD_solvation_energy": 5.83 
		},
		"coords": [
			{
				"x": -0.5818260105,
				"y": 3.0457586402,
				"z": 1.2427704335,
				"element": "O" 
			},
			{
				"x": 0.4724033849,
				"y": 2.5930255362,
				"z": 0.5795961872,
				"element": "C" 
			},
			{
				"x": 1.5512025521,
				"y": 3.1452705104,
				"z": 0.6718793654,
				"element": "O" 
			},
			{
				"x": 0.3439193574,
				"y": 1.3561962857,
				"z": -0.3206009144,
				"element": "C" 
			},
			{
				"x": 1.5464939012,
				"y": 1.0115615834,
				"z": -0.9477218308,
				"element": "C" 
			},
			{
				"x": 1.6535515828,
				"y": -0.0796207134,
				"z": -1.8095627998,
				"element": "C" 
			},
			{
				"x": 0.5391569622,
				"y": -0.8732749782,
				"z": -2.0739912265,
				"element": "C" 
			},
			{
				"x": -0.6682379967,
				"y": -0.5547858998,
				"z": -1.464544669,
				"element": "C" 
			},
			{
				"x": -0.7981243284,
				"y": 0.5435081216,
				"z": -0.5907401914,
				"element": "C" 
			},
			{
				"x": -2.1657125469,
				"y": 0.6933861272,
				"z": -0.0606653267,
				"element": "C" 
			},
			{
				"x": -2.5935831465,
				"y": 1.5431221103,
				"z": 0.7132839049,
				"element": "O" 
			},
			{
				"x": -1.4066700703,
				"y": 2.5122591266,
				"z": 1.0875979857,
				"element": "H" 
			},
			{
				"x": 2.4047167768,
				"y": 1.637341197,
				"z": -0.7328205446,
				"element": "H" 
			},
			{
				"x": 2.6097544601,
				"y": -0.305722889,
				"z": -2.2720522789,
				"element": "H" 
			},
			{
				"x": 0.6077654452,
				"y": -1.7254816321,
				"z": -2.7425871268,
				"element": "H" 
			},
			{
				"x": -1.5443812876,
				"y": -1.1666730244,
				"z": -1.6625704076,
				"element": "H" 
			},
			{
				"x": -2.8683290357,
				"y": -0.0763701016,
				"z": -0.4297705603,
				"element": "H" 
			}
		],
		 "valence_orbital": [ 
			{
				"type": "occ",
				"energy": -0.30256,
				"method": "rhf"
			},
			{
				"type": "occ",
				"energy": -0.29584,
				"method": "rhf"
			},
			{
				"type": "occ",
				"energy": -0.2921,
				"method": "rhf"
			},
			{
				"type": "occ",
				"energy": -0.2804,
				"method": "rhf"
			},
			{
				"type": "occ",
				"energy": -0.26555,
				"method": "rhf"
			},
			{
				"type": "unocc",
				"energy": -0.10299,
				"method": "rhf"
			},
			{
				"type": "unocc",
				"energy": -0.04911,
				"method": "rhf"
			},
			{
				"type": "unocc",
				"energy": 0.00693,
				"method": "rhf"
			},
			{
				"type": "unocc",
				"energy": 0.04903,
				"method": "rhf"
			},
			{
				"type": "unocc",
				"energy": 0.07116,
				"method": "rhf"
			}
		],
		"cosmo_sigma_profile": { 
			"-0.025": 0.0,
			"-0.024": 0.0,
			"-0.023": 0.0,
			"-0.022": 0.0,
			"-0.021": 0.0,
			"-0.02": 0.0,
			"-0.019": 0.0,
			"-0.018": 0.0,
			"-0.017": 0.0,
			"-0.016": 0.0,
			"-0.015": 0.0,
			"-0.014": 0.0,
			"-0.013": 0.0,
			"-0.012": 0.0,
			"-0.011": 0.0940230606739,
			"-0.01": 2.06166014295,
			"-0.009": 4.10706261456,
			"-0.008": 6.67616200681,
			"-0.007": 10.2766551012,
			"-0.006": 12.2762486671,
			"-0.005": 11.5674861076,
			"-0.004": 10.1906667074,
			"-0.003": 10.3418081351,
			"-0.002": 10.5435516449,
			"-0.001": 9.87127498305,
			"0.0": 13.4199010003,
			"0.001": 17.3167686385,
			"0.002": 9.33390247075,
			"0.003": 3.91958110916,
			"0.004": 3.12749044972,
			"0.005": 4.06174118896,
			"0.006": 3.50665487837,
			"0.007": 3.56400606147,
			"0.008": 3.62534797321,
			"0.009": 3.80197995274,
			"0.01": 4.79088012803,
			"0.011": 5.27507570727,
			"0.012": 5.64661059407,
			"0.013": 2.79463328711,
			"0.014": 1.19760778566,
			"0.015": 0.00351913635481,
			"0.016": 0.0,
			"0.017": 0.0,
			"0.018": 0.0,
			"0.019": 0.0,
			"0.02": 0.0,
			"0.021": 0.0,
			"0.022": 0.0,
			"0.023": 0.0,
			"0.024": 0.0,
			"0.025": 0.0
		}
	}
}
