{
	 "smiles": "OCC(NS(=O)(=O)C1=CC=C(Br)C=C1)C(O)=O", 
	 "Tm": 513.15, 
	 "num_atms": 27, 
	 "gaussian": { 
		 "optdone": 1, 
		 "sigma_profile": "yes", 
		 "theory": "DFT", 
		 "functional": "B3LYP", 
		 "basiset": "6-31G**", 
		 "properties": { 
			 "R2extent": 7996.9274, 
			 "electric_dipole_moment_norm": 5.42564283933, 
			 "electric_quadrupole_moment_norm": 21.8334895047, 
			 "total_energy": -3749.36982462, 
			 "HOMO_LUMO_gap": 0.19579, 
			 "cosmo_polarized_energy": -25.03, 
			 "cosmo_cavitation_energy": 34.63, 
			 "cosmo_dispersion_energy": -25.35, 
			 "cosmo_repulsion_energy": 1.93, 
			 "cosmo_total_nonelectrostatic_energy": 11.21, 
			 "SMD_solvation_energy": 4.85 
		},
		"coords": [
			{
				"x": 0.4222974802,
				"y": 2.7006336985,
				"z": 1.4002270578,
				"element": "O" 
			},
			{
				"x": -0.0220339326,
				"y": 1.6772020737,
				"z": 0.5435286796,
				"element": "C" 
			},
			{
				"x": -1.4640105098,
				"y": 1.9592579649,
				"z": 0.0644793595,
				"element": "C" 
			},
			{
				"x": -2.2146087361,
				"y": 0.8506781673,
				"z": -0.5518465975,
				"element": "N" 
			},
			{
				"x": -1.6135056774,
				"y": -0.1191407957,
				"z": -1.8106401495,
				"element": "S" 
			},
			{
				"x": -2.7939410773,
				"y": -0.8228932081,
				"z": -2.3085080171,
				"element": "O" 
			},
			{
				"x": -0.8086165729,
				"y": 0.7811118162,
				"z": -2.635036299,
				"element": "O" 
			},
			{
				"x": -0.5230781654,
				"y": -1.3612991422,
				"z": -1.1082572941,
				"element": "C" 
			},
			{
				"x": -1.0766021753,
				"y": -2.461865004,
				"z": -0.4473877544,
				"element": "C" 
			},
			{
				"x": -0.2342220865,
				"y": -3.4349128704,
				"z": 0.0845359805,
				"element": "C" 
			},
			{
				"x": 1.1478188651,
				"y": -3.2986124306,
				"z": -0.0668786499,
				"element": "C" 
			},
			{
				"x": 2.2984525467,
				"y": -4.6298911229,
				"z": 0.6587649316,
				"element": "Br" 
			},
			{
				"x": 1.7007244077,
				"y": -2.2135857819,
				"z": -0.7479756343,
				"element": "C" 
			},
			{
				"x": 0.8570114278,
				"y": -1.236313473,
				"z": -1.2744738135,
				"element": "C" 
			},
			{
				"x": -1.5115696224,
				"y": 3.2204070918,
				"z": -0.8228294961,
				"element": "C" 
			},
			{
				"x": -2.5342925674,
				"y": 3.3041428458,
				"z": -1.6754459701,
				"element": "O" 
			},
			{
				"x": -0.7050437232,
				"y": 4.1185635254,
				"z": -0.6967785133,
				"element": "O" 
			},
			{
				"x": 0.3916069834,
				"y": 3.5132413909,
				"z": 0.8661078835,
				"element": "H" 
			},
			{
				"x": 0.6347416143,
				"y": 1.5512909941,
				"z": -0.3281980601,
				"element": "H" 
			},
			{
				"x": -0.0130615165,
				"y": 0.7435193523,
				"z": 1.1148448599,
				"element": "H" 
			},
			{
				"x": -2.0330647778,
				"y": 2.2221334001,
				"z": 0.9653925268,
				"element": "H" 
			},
			{
				"x": -2.8032035466,
				"y": 0.3143070286,
				"z": 0.0772222371,
				"element": "H" 
			},
			{
				"x": -2.1532698737,
				"y": -2.5728369942,
				"z": -0.3707407437,
				"element": "H" 
			},
			{
				"x": -0.6439639458,
				"y": -4.2951549471,
				"z": 0.6007829489,
				"element": "H" 
			},
			{
				"x": 2.7746591399,
				"y": -2.1352039932,
				"z": -0.8700171001,
				"element": "H" 
			},
			{
				"x": 1.2613857237,
				"y": -0.3929742104,
				"z": -1.8229586275,
				"element": "H" 
			},
			{
				"x": -3.0000096821,
				"y": 2.4475946243,
				"z": -1.6694137452,
				"element": "H" 
			}
		],
		 "valence_orbital": [ 
			{
				"type": "occ",
				"energy": -0.31105,
				"method": "rhf"
			},
			{
				"type": "occ",
				"energy": -0.29912,
				"method": "rhf"
			},
			{
				"type": "occ",
				"energy": -0.286,
				"method": "rhf"
			},
			{
				"type": "occ",
				"energy": -0.27842,
				"method": "rhf"
			},
			{
				"type": "occ",
				"energy": -0.26398,
				"method": "rhf"
			},
			{
				"type": "unocc",
				"energy": -0.06819,
				"method": "rhf"
			},
			{
				"type": "unocc",
				"energy": -0.04942,
				"method": "rhf"
			},
			{
				"type": "unocc",
				"energy": -0.01792,
				"method": "rhf"
			},
			{
				"type": "unocc",
				"energy": -0.00992,
				"method": "rhf"
			},
			{
				"type": "unocc",
				"energy": 0.03264,
				"method": "rhf"
			}
		],
		"cosmo_sigma_profile": { 
			"-0.025": 0.0,
			"-0.024": 0.0,
			"-0.023": 0.0,
			"-0.022": 0.0,
			"-0.021": 0.0,
			"-0.02": 0.0,
			"-0.019": 0.0,
			"-0.018": 0.0,
			"-0.017": 0.266556193768,
			"-0.016": 1.46811759825,
			"-0.015": 2.1216733005,
			"-0.014": 2.57821215543,
			"-0.013": 2.4121291928,
			"-0.012": 2.49159440522,
			"-0.011": 3.23493458494,
			"-0.01": 5.40883996001,
			"-0.009": 5.71857155203,
			"-0.008": 10.4276204034,
			"-0.007": 11.1954257704,
			"-0.006": 11.6642125337,
			"-0.005": 10.9802519504,
			"-0.004": 12.7272227521,
			"-0.003": 14.4638720128,
			"-0.002": 14.843649902,
			"-0.001": 17.5865913744,
			"0.0": 20.7481619556,
			"0.001": 22.0881644358,
			"0.002": 11.4514708727,
			"0.003": 15.1987070722,
			"0.004": 14.2303134014,
			"0.005": 6.39412911718,
			"0.006": 6.98746800773,
			"0.007": 7.24160882017,
			"0.008": 7.79177665068,
			"0.009": 10.0066330587,
			"0.01": 12.7261806058,
			"0.011": 7.78694727065,
			"0.012": 2.45666021645,
			"0.013": 2.18113226265,
			"0.014": 2.01390963124,
			"0.015": 0.0566195677993,
			"0.016": 0.0,
			"0.017": 0.0,
			"0.018": 0.0,
			"0.019": 0.0,
			"0.02": 0.0,
			"0.021": 0.0,
			"0.022": 0.0,
			"0.023": 0.0,
			"0.024": 0.0,
			"0.025": 0.0
		}
	}
}
