{
	 "smiles": "FC1=C(C=C2C=CC(Cl)=NC2=C1)S(Cl)(=O)=O", 
	 "Tm": 402.15, 
	 "num_atms": 20, 
	 "gaussian": { 
		 "optdone": 1, 
		 "sigma_profile": "yes", 
		 "theory": "DFT", 
		 "functional": "B3LYP", 
		 "basiset": "6-31G**", 
		 "properties": { 
			 "R2extent": 7395.8306, 
			 "electric_dipole_moment_norm": 4.34936590091, 
			 "electric_quadrupole_moment_norm": 25.9801312245, 
			 "total_energy": -1968.90420257, 
			 "HOMO_LUMO_gap": 0.17167, 
			 "cosmo_polarized_energy": -11.96, 
			 "cosmo_cavitation_energy": 30.93, 
			 "cosmo_dispersion_energy": -23.38, 
			 "cosmo_repulsion_energy": 1.74, 
			 "cosmo_total_nonelectrostatic_energy": 9.29, 
			 "SMD_solvation_energy": 2.47 
		},
		"coords": [
			{
				"x": 3.1898398355,
				"y": 0.26271091,
				"z": 1.8243328341,
				"element": "F" 
			},
			{
				"x": 1.8674906146,
				"y": 0.2962701519,
				"z": 1.6393052833,
				"element": "C" 
			},
			{
				"x": 1.0208157065,
				"y": -0.239844382,
				"z": 2.6428588732,
				"element": "C" 
			},
			{
				"x": -0.3482993418,
				"y": -0.2402317524,
				"z": 2.478312942,
				"element": "C" 
			},
			{
				"x": -0.915030532,
				"y": 0.3036891318,
				"z": 1.3028941884,
				"element": "C" 
			},
			{
				"x": -2.3153489685,
				"y": 0.3421319716,
				"z": 1.0646104581,
				"element": "C" 
			},
			{
				"x": -2.7897183063,
				"y": 0.8854609043,
				"z": -0.1017452687,
				"element": "C" 
			},
			{
				"x": -1.8339277102,
				"y": 1.3909800944,
				"z": -1.025199844,
				"element": "C" 
			},
			{
				"x": -2.4458500064,
				"y": 2.0860440695,
				"z": -2.5181220606,
				"element": "Cl" 
			},
			{
				"x": -0.5423396334,
				"y": 1.3832318073,
				"z": -0.8601758125,
				"element": "N" 
			},
			{
				"x": -0.0549892212,
				"y": 0.8456958367,
				"z": 0.2954839776,
				"element": "C" 
			},
			{
				"x": 1.3492394687,
				"y": 0.8283511453,
				"z": 0.4868104081,
				"element": "C" 
			},
			{
				"x": 1.686507405,
				"y": -0.8722574992,
				"z": 4.1769544962,
				"element": "S" 
			},
			{
				"x": 2.686537277,
				"y": -2.6133667108,
				"z": 3.5009864998,
				"element": "Cl" 
			},
			{
				"x": 2.7049382029,
				"y": 0.0306531985,
				"z": 4.6895849232,
				"element": "O" 
			},
			{
				"x": 0.5718648779,
				"y": -1.3277652947,
				"z": 4.9987166972,
				"element": "O" 
			},
			{
				"x": -0.979891384,
				"y": -0.6578702238,
				"z": 3.2550841106,
				"element": "H" 
			},
			{
				"x": -2.9980583405,
				"y": -0.0595625293,
				"z": 1.8079318158,
				"element": "H" 
			},
			{
				"x": -3.8473289365,
				"y": 0.9366560074,
				"z": -0.3283868693,
				"element": "H" 
			},
			{
				"x": 2.0007489925,
				"y": 1.2341231633,
				"z": -0.2777376525,
				"element": "H" 
			}
		],
		 "valence_orbital": [ 
			{
				"type": "occ",
				"energy": -0.33462,
				"method": "rhf"
			},
			{
				"type": "occ",
				"energy": -0.32137,
				"method": "rhf"
			},
			{
				"type": "occ",
				"energy": -0.30281,
				"method": "rhf"
			},
			{
				"type": "occ",
				"energy": -0.28389,
				"method": "rhf"
			},
			{
				"type": "occ",
				"energy": -0.27603,
				"method": "rhf"
			},
			{
				"type": "unocc",
				"energy": -0.10436,
				"method": "rhf"
			},
			{
				"type": "unocc",
				"energy": -0.08542,
				"method": "rhf"
			},
			{
				"type": "unocc",
				"energy": -0.06123,
				"method": "rhf"
			},
			{
				"type": "unocc",
				"energy": -0.02574,
				"method": "rhf"
			},
			{
				"type": "unocc",
				"energy": 0.0113,
				"method": "rhf"
			}
		],
		"cosmo_sigma_profile": { 
			"-0.025": 0.0,
			"-0.024": 0.0,
			"-0.023": 0.0,
			"-0.022": 0.0,
			"-0.021": 0.0,
			"-0.02": 0.0,
			"-0.019": 0.0,
			"-0.018": 0.0,
			"-0.017": 0.0,
			"-0.016": 0.0,
			"-0.015": 0.0,
			"-0.014": 0.0,
			"-0.013": 0.0,
			"-0.012": 0.115180768044,
			"-0.011": 1.37450918375,
			"-0.01": 2.39406767508,
			"-0.009": 6.32637744845,
			"-0.008": 5.96370731908,
			"-0.007": 7.40962594622,
			"-0.006": 6.49266799498,
			"-0.005": 7.64472479979,
			"-0.004": 11.5921209822,
			"-0.003": 21.6363023362,
			"-0.002": 29.534487075,
			"-0.001": 21.0985036194,
			"0.0": 18.9836630858,
			"0.001": 15.0693559642,
			"0.002": 24.6142923837,
			"0.003": 25.627592601,
			"0.004": 11.8261511443,
			"0.005": 6.17481116224,
			"0.006": 6.57475483805,
			"0.007": 9.18813858182,
			"0.008": 10.7298999415,
			"0.009": 2.32769763913,
			"0.01": 1.47332585094,
			"0.011": 0.465836770473,
			"0.012": 0.597233217627,
			"0.013": 0.429154807076,
			"0.014": 0.0,
			"0.015": 0.0,
			"0.016": 0.0,
			"0.017": 0.0,
			"0.018": 0.0,
			"0.019": 0.0,
			"0.02": 0.0,
			"0.021": 0.0,
			"0.022": 0.0,
			"0.023": 0.0,
			"0.024": 0.0,
			"0.025": 0.0
		}
	}
}
