{
	 "smiles": "CC1=NC2=NC(N)=NN2C(C)=C1CCC(O)=O", 
	 "Tm": 290.15, 
	 "num_atms": 30, 
	 "gaussian": { 
		 "optdone": 1, 
		 "sigma_profile": "yes", 
		 "theory": "DFT", 
		 "functional": "B3LYP", 
		 "basiset": "6-31G**", 
		 "properties": { 
			 "R2extent": 4489.8951, 
			 "electric_dipole_moment_norm": 4.90278620378, 
			 "electric_quadrupole_moment_norm": 11.276932101, 
			 "total_energy": -813.132449474, 
			 "HOMO_LUMO_gap": 0.17596, 
			 "cosmo_polarized_energy": -22.92, 
			 "cosmo_cavitation_energy": 33.28, 
			 "cosmo_dispersion_energy": -24.21, 
			 "cosmo_repulsion_energy": 1.89, 
			 "cosmo_total_nonelectrostatic_energy": 10.96, 
			 "SMD_solvation_energy": 2.33 
		},
		"coords": [
			{
				"x": 2.5775738692,
				"y": 0.8257508235,
				"z": 0.7515383138,
				"element": "C" 
			},
			{
				"x": 1.1320068499,
				"y": 0.3918063031,
				"z": 0.7458302035,
				"element": "C" 
			},
			{
				"x": 0.8641198042,
				"y": -0.6937787896,
				"z": 1.4676616419,
				"element": "N" 
			},
			{
				"x": -0.4053916437,
				"y": -1.1059212213,
				"z": 1.5261346673,
				"element": "C" 
			},
			{
				"x": -0.936101318,
				"y": -2.1494275116,
				"z": 2.1654910474,
				"element": "N" 
			},
			{
				"x": -2.2550227614,
				"y": -2.0397238797,
				"z": 1.8761431412,
				"element": "C" 
			},
			{
				"x": -3.179576236,
				"y": -2.9107435832,
				"z": 2.3906716138,
				"element": "N" 
			},
			{
				"x": -2.6273959698,
				"y": -1.0109580721,
				"z": 1.0923760357,
				"element": "N" 
			},
			{
				"x": -1.4237535753,
				"y": -0.4087952556,
				"z": 0.8709950463,
				"element": "N" 
			},
			{
				"x": -1.1938880266,
				"y": 0.7083946182,
				"z": 0.1342116308,
				"element": "C" 
			},
			{
				"x": -2.4082927134,
				"y": 1.3561173525,
				"z": -0.4594787937,
				"element": "C" 
			},
			{
				"x": 0.1294406654,
				"y": 1.1288387896,
				"z": 0.0303372501,
				"element": "C" 
			},
			{
				"x": 0.4772490255,
				"y": 2.3513832351,
				"z": -0.802946195,
				"element": "C" 
			},
			{
				"x": 0.314467355,
				"y": 2.1675033745,
				"z": -2.3248575312,
				"element": "C" 
			},
			{
				"x": 1.3611140886,
				"y": 1.2713046755,
				"z": -2.9541154682,
				"element": "C" 
			},
			{
				"x": 0.9078006721,
				"y": 0.7050189932,
				"z": -4.0956084692,
				"element": "O" 
			},
			{
				"x": 2.4880279999,
				"y": 1.0922768509,
				"z": -2.5439116702,
				"element": "O" 
			},
			{
				"x": 2.981148432,
				"y": 0.8908533741,
				"z": -0.2623696617,
				"element": "H" 
			},
			{
				"x": 2.6919211235,
				"y": 1.812296419,
				"z": 1.2177294963,
				"element": "H" 
			},
			{
				"x": 3.1531196645,
				"y": 0.10335736,
				"z": 1.3308695098,
				"element": "H" 
			},
			{
				"x": -4.0565303895,
				"y": -2.9598729111,
				"z": 1.893919685,
				"element": "H" 
			},
			{
				"x": -2.7984126594,
				"y": -3.7967821198,
				"z": 2.6870327744,
				"element": "H" 
			},
			{
				"x": -2.8126186462,
				"y": 0.7453272903,
				"z": -1.2749095117,
				"element": "H" 
			},
			{
				"x": -3.1953906043,
				"y": 1.4175445609,
				"z": 0.2972515215,
				"element": "H" 
			},
			{
				"x": -2.1922140435,
				"y": 2.3539428491,
				"z": -0.8397487068,
				"element": "H" 
			},
			{
				"x": -0.1503073243,
				"y": 3.1978633263,
				"z": -0.5002874558,
				"element": "H" 
			},
			{
				"x": 1.5068852435,
				"y": 2.6516446195,
				"z": -0.6055308745,
				"element": "H" 
			},
			{
				"x": -0.6746038983,
				"y": 1.7881268647,
				"z": -2.591925589,
				"element": "H" 
			},
			{
				"x": 0.4120472828,
				"y": 3.142635184,
				"z": -2.8218569483,
				"element": "H" 
			},
			{
				"x": 1.6472777337,
				"y": 0.1857164799,
				"z": -4.4552467034,
				"element": "H" 
			}
		],
		 "valence_orbital": [ 
			{
				"type": "occ",
				"energy": -0.28763,
				"method": "rhf"
			},
			{
				"type": "occ",
				"energy": -0.26882,
				"method": "rhf"
			},
			{
				"type": "occ",
				"energy": -0.25714,
				"method": "rhf"
			},
			{
				"type": "occ",
				"energy": -0.23298,
				"method": "rhf"
			},
			{
				"type": "occ",
				"energy": -0.21391,
				"method": "rhf"
			},
			{
				"type": "unocc",
				"energy": -0.03795,
				"method": "rhf"
			},
			{
				"type": "unocc",
				"energy": -0.00487,
				"method": "rhf"
			},
			{
				"type": "unocc",
				"energy": -0.00229,
				"method": "rhf"
			},
			{
				"type": "unocc",
				"energy": 0.06989,
				"method": "rhf"
			},
			{
				"type": "unocc",
				"energy": 0.07483,
				"method": "rhf"
			}
		],
		"cosmo_sigma_profile": { 
			"-0.025": 0.0,
			"-0.024": 0.0,
			"-0.023": 0.0,
			"-0.022": 0.0,
			"-0.021": 0.0,
			"-0.02": 0.0,
			"-0.019": 0.0298170951211,
			"-0.018": 0.731264851722,
			"-0.017": 0.815514144326,
			"-0.016": 0.984968316969,
			"-0.015": 1.05169719692,
			"-0.014": 1.17687104242,
			"-0.013": 3.10469575014,
			"-0.012": 2.42841534588,
			"-0.011": 2.70814236655,
			"-0.01": 3.20346104383,
			"-0.009": 2.91307892744,
			"-0.008": 2.56114904317,
			"-0.007": 7.25360528311,
			"-0.006": 13.0812171604,
			"-0.005": 19.0590215364,
			"-0.004": 19.6814446362,
			"-0.003": 21.8866038503,
			"-0.002": 23.8643912764,
			"-0.001": 18.0095027847,
			"0.0": 17.1303100979,
			"0.001": 11.3919290312,
			"0.002": 9.57487642359,
			"0.003": 8.61518024203,
			"0.004": 7.76480873444,
			"0.005": 7.33264755435,
			"0.006": 7.64857090163,
			"0.007": 6.80476867669,
			"0.008": 6.62887170517,
			"0.009": 7.87808943189,
			"0.01": 6.30780769947,
			"0.011": 6.04084057758,
			"0.012": 5.60311891708,
			"0.013": 3.31744039026,
			"0.014": 2.75621558409,
			"0.015": 2.21332670836,
			"0.016": 1.21087428839,
			"0.017": 0.621106908794,
			"0.018": 0.0,
			"0.019": 0.0,
			"0.02": 0.0,
			"0.021": 0.0,
			"0.022": 0.0,
			"0.023": 0.0,
			"0.024": 0.0,
			"0.025": 0.0
		}
	}
}
