{
	 "smiles": "OC(=O)C1=CC=CC=C1C1=CC=CS1", 
	 "Tm": 366.65, 
	 "num_atms": 22, 
	 "gaussian": { 
		 "optdone": 1, 
		 "sigma_profile": "yes", 
		 "theory": "DFT", 
		 "functional": "B3LYP", 
		 "basiset": "6-31G**", 
		 "properties": { 
			 "R2extent": 3343.5166, 
			 "electric_dipole_moment_norm": 4.88944005588, 
			 "electric_quadrupole_moment_norm": 15.4384497674, 
			 "total_energy": -972.622886306, 
			 "HOMO_LUMO_gap": 0.181, 
			 "cosmo_polarized_energy": -12.09, 
			 "cosmo_cavitation_energy": 27.72, 
			 "cosmo_dispersion_energy": -20.68, 
			 "cosmo_repulsion_energy": 1.56, 
			 "cosmo_total_nonelectrostatic_energy": 8.6, 
			 "SMD_solvation_energy": 5.56 
		},
		"coords": [
			{
				"x": 0.323036556,
				"y": -1.8039024454,
				"z": 1.1463243753,
				"element": "O" 
			},
			{
				"x": 1.0187319449,
				"y": -1.5225903438,
				"z": 0.0255992175,
				"element": "C" 
			},
			{
				"x": 1.3888925035,
				"y": -2.4268901206,
				"z": -0.6903049198,
				"element": "O" 
			},
			{
				"x": 1.3735626229,
				"y": -0.0803743845,
				"z": -0.27263651,
				"element": "C" 
			},
			{
				"x": 2.4278796473,
				"y": 0.0679935014,
				"z": -1.187375039,
				"element": "C" 
			},
			{
				"x": 2.9394668256,
				"y": 1.3183188963,
				"z": -1.5152593573,
				"element": "C" 
			},
			{
				"x": 2.3892733123,
				"y": 2.4591349208,
				"z": -0.9300175211,
				"element": "C" 
			},
			{
				"x": 1.3246129004,
				"y": 2.3352443391,
				"z": -0.0426625689,
				"element": "C" 
			},
			{
				"x": 0.7889992695,
				"y": 1.0792864644,
				"z": 0.2982425823,
				"element": "C" 
			},
			{
				"x": -0.3795565416,
				"y": 1.0587047921,
				"z": 1.208915428,
				"element": "C" 
			},
			{
				"x": -1.6256088062,
				"y": 0.4983267075,
				"z": 1.0174193167,
				"element": "C" 
			},
			{
				"x": -2.5425123713,
				"y": 0.7682143037,
				"z": 2.074841651,
				"element": "C" 
			},
			{
				"x": -1.9962804253,
				"y": 1.5394388291,
				"z": 3.0643077834,
				"element": "C" 
			},
			{
				"x": -0.3484326037,
				"y": 1.9454280437,
				"z": 2.7241101767,
				"element": "S" 
			},
			{
				"x": 0.035096996,
				"y": -0.9877039946,
				"z": 1.5886975359,
				"element": "H" 
			},
			{
				"x": 2.8409078089,
				"y": -0.8362005683,
				"z": -1.619662363,
				"element": "H" 
			},
			{
				"x": 3.7628168352,
				"y": 1.4014356469,
				"z": -2.2180095128,
				"element": "H" 
			},
			{
				"x": 2.7760250957,
				"y": 3.4446183225,
				"z": -1.1722997666,
				"element": "H" 
			},
			{
				"x": 0.8708352841,
				"y": 3.2255570506,
				"z": 0.3811960777,
				"element": "H" 
			},
			{
				"x": -1.8773431629,
				"y": -0.0759586527,
				"z": 0.1330550455,
				"element": "H" 
			},
			{
				"x": -3.5638537359,
				"y": 0.4062894852,
				"z": 2.0927246411,
				"element": "H" 
			},
			{
				"x": -2.4593499554,
				"y": 1.8819292065,
				"z": 3.9794937275,
				"element": "H" 
			}
		],
		 "valence_orbital": [ 
			{
				"type": "occ",
				"energy": -0.2835,
				"method": "rhf"
			},
			{
				"type": "occ",
				"energy": -0.27202,
				"method": "rhf"
			},
			{
				"type": "occ",
				"energy": -0.27142,
				"method": "rhf"
			},
			{
				"type": "occ",
				"energy": -0.26194,
				"method": "rhf"
			},
			{
				"type": "occ",
				"energy": -0.24121,
				"method": "rhf"
			},
			{
				"type": "unocc",
				"energy": -0.06021,
				"method": "rhf"
			},
			{
				"type": "unocc",
				"energy": -0.03617,
				"method": "rhf"
			},
			{
				"type": "unocc",
				"energy": -0.01426,
				"method": "rhf"
			},
			{
				"type": "unocc",
				"energy": 0.01723,
				"method": "rhf"
			},
			{
				"type": "unocc",
				"energy": 0.04715,
				"method": "rhf"
			}
		],
		"cosmo_sigma_profile": { 
			"-0.025": 0.0,
			"-0.024": 0.0,
			"-0.023": 0.0,
			"-0.022": 0.0,
			"-0.021": 0.0,
			"-0.02": 0.0,
			"-0.019": 0.0,
			"-0.018": 0.0,
			"-0.017": 0.0,
			"-0.016": 0.0,
			"-0.015": 0.0,
			"-0.014": 0.0,
			"-0.013": 0.0,
			"-0.012": 0.0,
			"-0.011": 0.188619814943,
			"-0.01": 1.59706279992,
			"-0.009": 2.62023746266,
			"-0.008": 4.40857543626,
			"-0.007": 9.90921965714,
			"-0.006": 14.4008186897,
			"-0.005": 16.8235676886,
			"-0.004": 15.0833191019,
			"-0.003": 13.0599445044,
			"-0.002": 13.0251856489,
			"-0.001": 15.7773910344,
			"0.0": 15.7121361567,
			"0.001": 17.8578911841,
			"0.002": 21.4487925356,
			"0.003": 23.8787646136,
			"0.004": 10.0307403148,
			"0.005": 2.6204286813,
			"0.006": 2.2084208135,
			"0.007": 2.40467563186,
			"0.008": 3.08361146471,
			"0.009": 2.45335507543,
			"0.01": 4.33535488284,
			"0.011": 5.35072767841,
			"0.012": 5.00139215286,
			"0.013": 2.02345606103,
			"0.014": 0.240359810405,
			"0.015": 0.0,
			"0.016": 0.0,
			"0.017": 0.0,
			"0.018": 0.0,
			"0.019": 0.0,
			"0.02": 0.0,
			"0.021": 0.0,
			"0.022": 0.0,
			"0.023": 0.0,
			"0.024": 0.0,
			"0.025": 0.0
		}
	}
}
