{
	 "smiles": "CN(C)C(=O)CSC1=C(C=CC=C1)C(O)=O", 
	 "Tm": 290.15, 
	 "num_atms": 29, 
	 "gaussian": { 
		 "optdone": 1, 
		 "sigma_profile": "yes", 
		 "theory": "DFT", 
		 "functional": "B3LYP", 
		 "basiset": "6-31G**", 
		 "properties": { 
			 "R2extent": 5034.1797, 
			 "electric_dipole_moment_norm": 1.91117908632, 
			 "electric_quadrupole_moment_norm": 16.4475188378, 
			 "total_energy": -1105.63204879, 
			 "HOMO_LUMO_gap": 0.16442, 
			 "cosmo_polarized_energy": -17.45, 
			 "cosmo_cavitation_energy": 34.1, 
			 "cosmo_dispersion_energy": -23.94, 
			 "cosmo_repulsion_energy": 1.84, 
			 "cosmo_total_nonelectrostatic_energy": 11.99, 
			 "SMD_solvation_energy": 7.11 
		},
		"coords": [
			{
				"x": -1.5463292607,
				"y": 2.8834910259,
				"z": 2.1818400573,
				"element": "C" 
			},
			{
				"x": -0.3343782442,
				"y": 2.201769025,
				"z": 2.6080869225,
				"element": "N" 
			},
			{
				"x": -0.2948307915,
				"y": 1.7804290924,
				"z": 4.0015140616,
				"element": "C" 
			},
			{
				"x": 0.7943112845,
				"y": 2.0425020906,
				"z": 1.8388520441,
				"element": "C" 
			},
			{
				"x": 1.8033746549,
				"y": 1.4842089248,
				"z": 2.2619407563,
				"element": "O" 
			},
			{
				"x": 0.7813670095,
				"y": 2.5698860645,
				"z": 0.407308543,
				"element": "C" 
			},
			{
				"x": -0.0588093671,
				"y": 1.4426499648,
				"z": -0.7898242463,
				"element": "S" 
			},
			{
				"x": 0.898154597,
				"y": -0.0734489558,
				"z": -0.6573228117,
				"element": "C" 
			},
			{
				"x": 2.1754136355,
				"y": -0.2859346669,
				"z": -1.2342446183,
				"element": "C" 
			},
			{
				"x": 2.7610873793,
				"y": -1.5594928017,
				"z": -1.1442974607,
				"element": "C" 
			},
			{
				"x": 2.1129911662,
				"y": -2.6124436937,
				"z": -0.505343104,
				"element": "C" 
			},
			{
				"x": 0.8504651846,
				"y": -2.4080309529,
				"z": 0.0470025652,
				"element": "C" 
			},
			{
				"x": 0.2541551778,
				"y": -1.1500826707,
				"z": -0.0334434468,
				"element": "C" 
			},
			{
				"x": 2.9385578784,
				"y": 0.7863495044,
				"z": -1.9356899878,
				"element": "C" 
			},
			{
				"x": 3.8920366681,
				"y": 0.2804421839,
				"z": -2.7624559386,
				"element": "O" 
			},
			{
				"x": 2.7831870858,
				"y": 1.9859218836,
				"z": -1.8228585029,
				"element": "O" 
			},
			{
				"x": -1.5620682924,
				"y": 3.9373503851,
				"z": 2.4959950597,
				"element": "H" 
			},
			{
				"x": -1.6724252323,
				"y": 2.8284429466,
				"z": 1.1016538388,
				"element": "H" 
			},
			{
				"x": -2.4119549325,
				"y": 2.387540619,
				"z": 2.6338664613,
				"element": "H" 
			},
			{
				"x": -0.4108329028,
				"y": 2.6414711058,
				"z": 4.6730855796,
				"element": "H" 
			},
			{
				"x": -1.1045274119,
				"y": 1.0704523952,
				"z": 4.2107751696,
				"element": "H" 
			},
			{
				"x": 0.6663666681,
				"y": 1.3043707213,
				"z": 4.1871313471,
				"element": "H" 
			},
			{
				"x": 1.8132513155,
				"y": 2.6895388937,
				"z": 0.0845888272,
				"element": "H" 
			},
			{
				"x": 0.2584184734,
				"y": 3.5232096084,
				"z": 0.2956957163,
				"element": "H" 
			},
			{
				"x": 3.7390378016,
				"y": -1.7123363789,
				"z": -1.5843744435,
				"element": "H" 
			},
			{
				"x": 2.5916817545,
				"y": -3.5849412812,
				"z": -0.4440128171,
				"element": "H" 
			},
			{
				"x": 0.329598444,
				"y": -3.2201922641,
				"z": 0.5457858791,
				"element": "H" 
			},
			{
				"x": -0.7272594319,
				"y": -0.9850722329,
				"z": 0.3973548689,
				"element": "H" 
			},
			{
				"x": 4.3453596888,
				"y": 1.0548494635,
				"z": -3.13421032,
				"element": "H" 
			}
		],
		 "valence_orbital": [ 
			{
				"type": "occ",
				"energy": -0.26427,
				"method": "rhf"
			},
			{
				"type": "occ",
				"energy": -0.26229,
				"method": "rhf"
			},
			{
				"type": "occ",
				"energy": -0.24612,
				"method": "rhf"
			},
			{
				"type": "occ",
				"energy": -0.23441,
				"method": "rhf"
			},
			{
				"type": "occ",
				"energy": -0.2181,
				"method": "rhf"
			},
			{
				"type": "unocc",
				"energy": -0.05368,
				"method": "rhf"
			},
			{
				"type": "unocc",
				"energy": -0.02029,
				"method": "rhf"
			},
			{
				"type": "unocc",
				"energy": 0.01649,
				"method": "rhf"
			},
			{
				"type": "unocc",
				"energy": 0.04602,
				"method": "rhf"
			},
			{
				"type": "unocc",
				"energy": 0.0503,
				"method": "rhf"
			}
		],
		"cosmo_sigma_profile": { 
			"-0.025": 0.0,
			"-0.024": 0.0,
			"-0.023": 0.0,
			"-0.022": 0.0,
			"-0.021": 0.0,
			"-0.02": 0.0,
			"-0.019": 0.00688347129972,
			"-0.018": 0.718610108054,
			"-0.017": 0.9235999414,
			"-0.016": 0.888552758883,
			"-0.015": 0.606106220614,
			"-0.014": 1.01286750853,
			"-0.013": 0.655606805466,
			"-0.012": 0.641187791835,
			"-0.011": 0.40572606658,
			"-0.01": 0.804626916795,
			"-0.009": 0.965259105618,
			"-0.008": 2.52306177925,
			"-0.007": 7.82353065999,
			"-0.006": 13.1454755624,
			"-0.005": 19.6339179861,
			"-0.004": 22.5744244464,
			"-0.003": 24.1193599269,
			"-0.002": 25.1598730514,
			"-0.001": 19.1742491125,
			"0.0": 17.7597217971,
			"0.001": 15.7867854828,
			"0.002": 19.220161643,
			"0.003": 17.6536548172,
			"0.004": 9.85763139699,
			"0.005": 8.50506929658,
			"0.006": 6.70482534395,
			"0.007": 6.01412519491,
			"0.008": 5.5560135974,
			"0.009": 3.70631133595,
			"0.01": 3.77038196611,
			"0.011": 4.75060534893,
			"0.012": 3.99559197436,
			"0.013": 2.82404575092,
			"0.014": 3.99768772773,
			"0.015": 0.644694051021,
			"0.016": 0.0,
			"0.017": 0.0,
			"0.018": 0.0,
			"0.019": 0.0,
			"0.02": 0.0,
			"0.021": 0.0,
			"0.022": 0.0,
			"0.023": 0.0,
			"0.024": 0.0,
			"0.025": 0.0
		}
	}
}
