{
	 "smiles": "CC(C)NC1=CC=C(Cl)C=C1[N+]([O-])=O", 
	 "Tm": 346.15, 
	 "num_atms": 25, 
	 "gaussian": { 
		 "optdone": 1, 
		 "sigma_profile": "yes", 
		 "theory": "DFT", 
		 "functional": "B3LYP", 
		 "basiset": "6-31G**", 
		 "properties": { 
			 "R2extent": 4239.8652, 
			 "electric_dipole_moment_norm": 4.71159728012, 
			 "electric_quadrupole_moment_norm": 8.37826314877, 
			 "total_energy": -1069.62054042, 
			 "HOMO_LUMO_gap": 0.14591, 
			 "cosmo_polarized_energy": -11.97, 
			 "cosmo_cavitation_energy": 30.13, 
			 "cosmo_dispersion_energy": -21.31, 
			 "cosmo_repulsion_energy": 1.68, 
			 "cosmo_total_nonelectrostatic_energy": 10.5, 
			 "SMD_solvation_energy": 6.3 
		},
		"coords": [
			{
				"x": 1.6884177034,
				"y": 0.8628468496,
				"z": -1.0544305053,
				"element": "C" 
			},
			{
				"x": 1.1491708989,
				"y": -0.5769101382,
				"z": -1.0673062207,
				"element": "C" 
			},
			{
				"x": -0.122463072,
				"y": -0.6902018379,
				"z": -1.9087734346,
				"element": "C" 
			},
			{
				"x": 1.0065461991,
				"y": -1.1468372483,
				"z": 0.3067261529,
				"element": "N" 
			},
			{
				"x": 0.1908231606,
				"y": -0.525328808,
				"z": 1.2715900001,
				"element": "C" 
			},
			{
				"x": 0.7682013251,
				"y": 0.2256780968,
				"z": 2.3148102055,
				"element": "C" 
			},
			{
				"x": 0.0133833584,
				"y": 0.8480216074,
				"z": 3.3028749362,
				"element": "C" 
			},
			{
				"x": -1.3787110095,
				"y": 0.7684273178,
				"z": 3.2509959441,
				"element": "C" 
			},
			{
				"x": -2.3500152934,
				"y": 1.5822239295,
				"z": 4.4621283665,
				"element": "Cl" 
			},
			{
				"x": -1.999275626,
				"y": 0.0367536718,
				"z": 2.2469373854,
				"element": "C" 
			},
			{
				"x": -1.2171560925,
				"y": -0.6287125408,
				"z": 1.3019532984,
				"element": "C" 
			},
			{
				"x": -1.9681595392,
				"y": -1.5182539378,
				"z": 0.3963622026,
				"element": "N" 
			},
			{
				"x": -1.503260251,
				"y": -2.6296106891,
				"z": 0.169560214,
				"element": "O" 
			},
			{
				"x": -3.0435798861,
				"y": -1.0981486088,
				"z": -0.0345186221,
				"element": "O" 
			},
			{
				"x": 2.6290242636,
				"y": 0.9330566495,
				"z": -0.4962891878,
				"element": "H" 
			},
			{
				"x": 1.8801040875,
				"y": 1.2110498574,
				"z": -2.074730562,
				"element": "H" 
			},
			{
				"x": 0.9697182413,
				"y": 1.5496834119,
				"z": -0.594697721,
				"element": "H" 
			},
			{
				"x": 1.9052952295,
				"y": -1.2221278111,
				"z": -1.5307614248,
				"element": "H" 
			},
			{
				"x": -0.4828650748,
				"y": -1.7194513696,
				"z": -1.9447681769,
				"element": "H" 
			},
			{
				"x": -0.9250167079,
				"y": -0.0501421077,
				"z": -1.5282061145,
				"element": "H" 
			},
			{
				"x": 0.092195409,
				"y": -0.3598372105,
				"z": -2.9297902329,
				"element": "H" 
			},
			{
				"x": 1.9392922015,
				"y": -1.2487227131,
				"z": 0.6936306815,
				"element": "H" 
			},
			{
				"x": 1.8494866067,
				"y": 0.331366303,
				"z": 2.3327344025,
				"element": "H" 
			},
			{
				"x": 0.4980709342,
				"y": 1.4131478115,
				"z": 4.0913135849,
				"element": "H" 
			},
			{
				"x": -3.0769270663,
				"y": -0.0537704853,
				"z": 2.1978548281,
				"element": "H" 
			}
		],
		 "valence_orbital": [ 
			{
				"type": "occ",
				"energy": -0.30672,
				"method": "rhf"
			},
			{
				"type": "occ",
				"energy": -0.30312,
				"method": "rhf"
			},
			{
				"type": "occ",
				"energy": -0.28185,
				"method": "rhf"
			},
			{
				"type": "occ",
				"energy": -0.27516,
				"method": "rhf"
			},
			{
				"type": "occ",
				"energy": -0.22944,
				"method": "rhf"
			},
			{
				"type": "unocc",
				"energy": -0.08353,
				"method": "rhf"
			},
			{
				"type": "unocc",
				"energy": -0.03195,
				"method": "rhf"
			},
			{
				"type": "unocc",
				"energy": -0.01784,
				"method": "rhf"
			},
			{
				"type": "unocc",
				"energy": 0.01804,
				"method": "rhf"
			},
			{
				"type": "unocc",
				"energy": 0.06213,
				"method": "rhf"
			}
		],
		"cosmo_sigma_profile": { 
			"-0.025": 0.0,
			"-0.024": 0.0,
			"-0.023": 0.0,
			"-0.022": 0.0,
			"-0.021": 0.0,
			"-0.02": 0.0,
			"-0.019": 0.0,
			"-0.018": 0.0,
			"-0.017": 0.0,
			"-0.016": 0.0,
			"-0.015": 0.0,
			"-0.014": 0.0,
			"-0.013": 0.199551297689,
			"-0.012": 1.25188956466,
			"-0.011": 1.74388361652,
			"-0.01": 1.71975383115,
			"-0.009": 2.48086580008,
			"-0.008": 6.19418666959,
			"-0.007": 7.4728752309,
			"-0.006": 7.1451058397,
			"-0.005": 6.9733035723,
			"-0.004": 13.1612811085,
			"-0.003": 20.3475767354,
			"-0.002": 19.1263165355,
			"-0.001": 21.607159373,
			"0.0": 29.5966676998,
			"0.001": 29.1764934693,
			"0.002": 13.1639906229,
			"0.003": 9.27023358491,
			"0.004": 13.4452805052,
			"0.005": 4.48662735709,
			"0.006": 4.60984331805,
			"0.007": 7.27145583049,
			"0.008": 8.43803659486,
			"0.009": 5.02799129288,
			"0.01": 2.97960964882,
			"0.011": 0.521182092541,
			"0.012": 1.24449318486,
			"0.013": 0.364521892029,
			"0.014": 0.958317025293,
			"0.015": 0.53026899375,
			"0.016": 0.0682694322418,
			"0.017": 0.0,
			"0.018": 0.0,
			"0.019": 0.0,
			"0.02": 0.0,
			"0.021": 0.0,
			"0.022": 0.0,
			"0.023": 0.0,
			"0.024": 0.0,
			"0.025": 0.0
		}
	}
}
