{
	 "smiles": "CCSC1=NC=CC=C1C(O)=O", 
	 "Tm": 459.15, 
	 "num_atms": 21, 
	 "gaussian": { 
		 "optdone": 1, 
		 "sigma_profile": "yes", 
		 "theory": "DFT", 
		 "functional": "B3LYP", 
		 "basiset": "6-31G**", 
		 "properties": { 
			 "R2extent": 2519.4718, 
			 "electric_dipole_moment_norm": 2.70552785977, 
			 "electric_quadrupole_moment_norm": 7.26547996625, 
			 "total_energy": -913.679401433, 
			 "HOMO_LUMO_gap": 0.1614, 
			 "cosmo_polarized_energy": -11.44, 
			 "cosmo_cavitation_energy": 26.33, 
			 "cosmo_dispersion_energy": -19.98, 
			 "cosmo_repulsion_energy": 1.56, 
			 "cosmo_total_nonelectrostatic_energy": 7.91, 
			 "SMD_solvation_energy": 5.24 
		},
		"coords": [
			{
				"x": 3.4013975945,
				"y": 1.530921092,
				"z": 1.4222146352,
				"element": "C" 
			},
			{
				"x": 2.6674610128,
				"y": 0.3219920705,
				"z": 1.9982480781,
				"element": "C" 
			},
			{
				"x": 1.9300892452,
				"y": -0.7924187477,
				"z": 0.7339244578,
				"element": "S" 
			},
			{
				"x": 0.4242135602,
				"y": 0.0689160489,
				"z": 0.3438919731,
				"element": "C" 
			},
			{
				"x": 0.1752048787,
				"y": 1.2030605104,
				"z": 1.013115083,
				"element": "N" 
			},
			{
				"x": -0.9480420783,
				"y": 1.8790770578,
				"z": 0.7619121445,
				"element": "C" 
			},
			{
				"x": -1.9007170623,
				"y": 1.4784508872,
				"z": -0.1730199879,
				"element": "C" 
			},
			{
				"x": -1.6540871026,
				"y": 0.3042340698,
				"z": -0.8742286532,
				"element": "C" 
			},
			{
				"x": -0.4860617756,
				"y": -0.4289690081,
				"z": -0.6319102853,
				"element": "C" 
			},
			{
				"x": -0.2266727882,
				"y": -1.681738003,
				"z": -1.3735763397,
				"element": "C" 
			},
			{
				"x": -1.2017661818,
				"y": -1.9791982721,
				"z": -2.2729407466,
				"element": "O" 
			},
			{
				"x": 0.7432110784,
				"y": -2.400301316,
				"z": -1.2252145226,
				"element": "O" 
			},
			{
				"x": 4.1860121826,
				"y": 1.2249137766,
				"z": 0.7239730675,
				"element": "H" 
			},
			{
				"x": 2.7049561155,
				"y": 2.1885468908,
				"z": 0.8975163612,
				"element": "H" 
			},
			{
				"x": 3.8690921483,
				"y": 2.1052538874,
				"z": 2.2306651324,
				"element": "H" 
			},
			{
				"x": 1.877290109,
				"y": 0.6280096025,
				"z": 2.6854042904,
				"element": "H" 
			},
			{
				"x": 3.356019568,
				"y": -0.3389270182,
				"z": 2.5348447021,
				"element": "H" 
			},
			{
				"x": -1.0894526098,
				"y": 2.7901398714,
				"z": 1.3413528392,
				"element": "H" 
			},
			{
				"x": -2.7971456326,
				"y": 2.0644593402,
				"z": -0.3428259795,
				"element": "H" 
			},
			{
				"x": -2.3565571624,
				"y": -0.0621637726,
				"z": -1.6138402533,
				"element": "H" 
			},
			{
				"x": -0.9246450996,
				"y": -2.8114589677,
				"z": -2.6894059962,
				"element": "H" 
			}
		],
		 "valence_orbital": [ 
			{
				"type": "occ",
				"energy": -0.30481,
				"method": "rhf"
			},
			{
				"type": "occ",
				"energy": -0.28931,
				"method": "rhf"
			},
			{
				"type": "occ",
				"energy": -0.27204,
				"method": "rhf"
			},
			{
				"type": "occ",
				"energy": -0.26624,
				"method": "rhf"
			},
			{
				"type": "occ",
				"energy": -0.22135,
				"method": "rhf"
			},
			{
				"type": "unocc",
				"energy": -0.05995,
				"method": "rhf"
			},
			{
				"type": "unocc",
				"energy": -0.02676,
				"method": "rhf"
			},
			{
				"type": "unocc",
				"energy": 0.04504,
				"method": "rhf"
			},
			{
				"type": "unocc",
				"energy": 0.05469,
				"method": "rhf"
			},
			{
				"type": "unocc",
				"energy": 0.07536,
				"method": "rhf"
			}
		],
		"cosmo_sigma_profile": { 
			"-0.025": 0.0,
			"-0.024": 0.0,
			"-0.023": 0.0,
			"-0.022": 0.0,
			"-0.021": 0.0,
			"-0.02": 0.0,
			"-0.019": 0.154696748443,
			"-0.018": 0.761554633068,
			"-0.017": 0.923436165866,
			"-0.016": 0.714135388826,
			"-0.015": 1.22826516574,
			"-0.014": 0.526045793996,
			"-0.013": 0.355148555496,
			"-0.012": 0.755048907328,
			"-0.011": 0.947147718317,
			"-0.01": 0.591004260596,
			"-0.009": 0.42577203555,
			"-0.008": 1.69321418495,
			"-0.007": 7.1992872598,
			"-0.006": 8.59992290544,
			"-0.005": 8.61586808278,
			"-0.004": 9.93192544201,
			"-0.003": 15.2926104346,
			"-0.002": 19.4225092976,
			"-0.001": 19.7700406537,
			"0.0": 23.2272464203,
			"0.001": 24.3285010089,
			"0.002": 12.9953334188,
			"0.003": 8.29642877652,
			"0.004": 6.48987336277,
			"0.005": 5.94386001143,
			"0.006": 7.07466260293,
			"0.007": 5.26444078803,
			"0.008": 3.78896228959,
			"0.009": 4.71229907945,
			"0.01": 3.02106051472,
			"0.011": 4.52535226361,
			"0.012": 3.71096183594,
			"0.013": 0.0,
			"0.014": 0.0,
			"0.015": 0.0,
			"0.016": 0.0,
			"0.017": 0.0,
			"0.018": 0.0,
			"0.019": 0.0,
			"0.02": 0.0,
			"0.021": 0.0,
			"0.022": 0.0,
			"0.023": 0.0,
			"0.024": 0.0,
			"0.025": 0.0
		}
	}
}
