{
	 "smiles": "CC(O)C1=CC=C(O)C=C1", 
	 "Tm": 405.15, 
	 "num_atms": 20, 
	 "gaussian": { 
		 "optdone": 1, 
		 "sigma_profile": "yes", 
		 "theory": "DFT", 
		 "functional": "B3LYP", 
		 "basiset": "6-31G**", 
		 "properties": { 
			 "R2extent": 2111.1559, 
			 "electric_dipole_moment_norm": 1.2812292652, 
			 "electric_quadrupole_moment_norm": 9.99587928699, 
			 "total_energy": -461.320074057, 
			 "HOMO_LUMO_gap": 0.21321, 
			 "cosmo_polarized_energy": -11.29, 
			 "cosmo_cavitation_energy": 23.43, 
			 "cosmo_dispersion_energy": -17.14, 
			 "cosmo_repulsion_energy": 1.41, 
			 "cosmo_total_nonelectrostatic_energy": 7.69, 
			 "SMD_solvation_energy": 4.45 
		},
		"coords": [
			{
				"x": -1.7011026304,
				"y": 0.6783411712,
				"z": -0.4135343858,
				"element": "C" 
			},
			{
				"x": -1.1395213958,
				"y": -0.6270062,
				"z": 0.1519339084,
				"element": "C" 
			},
			{
				"x": -1.3976901911,
				"y": -0.5906710806,
				"z": 1.5563881065,
				"element": "O" 
			},
			{
				"x": 0.3405582456,
				"y": -0.8037655683,
				"z": -0.1512636724,
				"element": "C" 
			},
			{
				"x": 0.7681777789,
				"y": -1.5279258158,
				"z": -1.2719311054,
				"element": "C" 
			},
			{
				"x": 2.1199068593,
				"y": -1.662944858,
				"z": -1.5762433117,
				"element": "C" 
			},
			{
				"x": 3.0787186766,
				"y": -1.0718988142,
				"z": -0.7459557414,
				"element": "C" 
			},
			{
				"x": 4.3934226835,
				"y": -1.2376663327,
				"z": -1.0824087195,
				"element": "O" 
			},
			{
				"x": 2.6703112334,
				"y": -0.352517625,
				"z": 0.3823311818,
				"element": "C" 
			},
			{
				"x": 1.3122738881,
				"y": -0.2217979098,
				"z": 0.6707396432,
				"element": "C" 
			},
			{
				"x": -1.5872227996,
				"y": 0.7080113118,
				"z": -1.5008692607,
				"element": "H" 
			},
			{
				"x": -2.7627261823,
				"y": 0.7689758048,
				"z": -0.1649489422,
				"element": "H" 
			},
			{
				"x": -1.1688064544,
				"y": 1.5328989943,
				"z": 0.0149426208,
				"element": "H" 
			},
			{
				"x": -1.6862294445,
				"y": -1.4666808187,
				"z": -0.3097267725,
				"element": "H" 
			},
			{
				"x": -1.0026568157,
				"y": -1.3832163272,
				"z": 1.9438523477,
				"element": "H" 
			},
			{
				"x": 0.0307554704,
				"y": -1.998347077,
				"z": -1.9188633104,
				"element": "H" 
			},
			{
				"x": 2.451434505,
				"y": -2.2262947971,
				"z": -2.4423573456,
				"element": "H" 
			},
			{
				"x": 4.9447737853,
				"y": -0.7824168554,
				"z": -0.432982744,
				"element": "H" 
			},
			{
				"x": 3.4132567043,
				"y": 0.1031218856,
				"z": 1.0345489388,
				"element": "H" 
			},
			{
				"x": 0.9955660834,
				"y": 0.3301009121,
				"z": 1.5506485644,
				"element": "H" 
			}
		],
		 "valence_orbital": [ 
			{
				"type": "occ",
				"energy": -0.32971,
				"method": "rhf"
			},
			{
				"type": "occ",
				"energy": -0.31799,
				"method": "rhf"
			},
			{
				"type": "occ",
				"energy": -0.26967,
				"method": "rhf"
			},
			{
				"type": "occ",
				"energy": -0.25194,
				"method": "rhf"
			},
			{
				"type": "occ",
				"energy": -0.2167,
				"method": "rhf"
			},
			{
				"type": "unocc",
				"energy": -0.00349,
				"method": "rhf"
			},
			{
				"type": "unocc",
				"energy": 0.01031,
				"method": "rhf"
			},
			{
				"type": "unocc",
				"energy": 0.07002,
				"method": "rhf"
			},
			{
				"type": "unocc",
				"energy": 0.08872,
				"method": "rhf"
			},
			{
				"type": "unocc",
				"energy": 0.10366,
				"method": "rhf"
			}
		],
		"cosmo_sigma_profile": { 
			"-0.025": 0.0,
			"-0.024": 0.0,
			"-0.023": 0.0,
			"-0.022": 0.0,
			"-0.021": 0.0,
			"-0.02": 0.0,
			"-0.019": 0.0,
			"-0.018": 0.319996784544,
			"-0.017": 1.01212056765,
			"-0.016": 1.23879125201,
			"-0.015": 1.7816728602,
			"-0.014": 1.48905037788,
			"-0.013": 1.93549441537,
			"-0.012": 1.17440884074,
			"-0.011": 1.29850074871,
			"-0.01": 2.26580482183,
			"-0.009": 2.19091447728,
			"-0.008": 1.57851570683,
			"-0.007": 2.03988820883,
			"-0.006": 4.70813526567,
			"-0.005": 8.72700613719,
			"-0.004": 12.1386889424,
			"-0.003": 14.842437508,
			"-0.002": 13.6110884129,
			"-0.001": 15.1344106736,
			"0.0": 13.3628929466,
			"0.001": 13.2828655755,
			"0.002": 8.91845785953,
			"0.003": 9.57965250302,
			"0.004": 11.5658957092,
			"0.005": 10.9107127717,
			"0.006": 9.73336639129,
			"0.007": 2.79055438036,
			"0.008": 2.13127228841,
			"0.009": 2.39187349679,
			"0.01": 3.32419398739,
			"0.011": 2.77896001024,
			"0.012": 2.40615774388,
			"0.013": 1.21481241192,
			"0.014": 2.06612315321,
			"0.015": 0.240631585325,
			"0.016": 0.0,
			"0.017": 0.0,
			"0.018": 0.0,
			"0.019": 0.0,
			"0.02": 0.0,
			"0.021": 0.0,
			"0.022": 0.0,
			"0.023": 0.0,
			"0.024": 0.0,
			"0.025": 0.0
		}
	}
}
