{
	 "smiles": "CC(Cl)C(=O)NC1=C(C)C=CC=C1", 
	 "Tm": 386.15, 
	 "num_atms": 25, 
	 "gaussian": { 
		 "optdone": 1, 
		 "sigma_profile": "yes", 
		 "theory": "DFT", 
		 "functional": "B3LYP", 
		 "basiset": "6-31G**", 
		 "properties": { 
			 "R2extent": 3339.9896, 
			 "electric_dipole_moment_norm": 4.21241765379, 
			 "electric_quadrupole_moment_norm": 7.83050131984, 
			 "total_energy": -978.490140535, 
			 "HOMO_LUMO_gap": 0.20533, 
			 "cosmo_polarized_energy": -11.45, 
			 "cosmo_cavitation_energy": 29.75, 
			 "cosmo_dispersion_energy": -21.09, 
			 "cosmo_repulsion_energy": 1.69, 
			 "cosmo_total_nonelectrostatic_energy": 10.34, 
			 "SMD_solvation_energy": 5.55 
		},
		"coords": [
			{
				"x": -0.4696681649,
				"y": 3.5290955941,
				"z": -1.7416334283,
				"element": "C" 
			},
			{
				"x": -0.6230854037,
				"y": 2.1523221155,
				"z": -1.1158118701,
				"element": "C" 
			},
			{
				"x": -2.4049633771,
				"y": 1.7652932779,
				"z": -0.9002383848,
				"element": "Cl" 
			},
			{
				"x": 0.0411094935,
				"y": 2.1041561084,
				"z": 0.267138626,
				"element": "C" 
			},
			{
				"x": -0.022487836,
				"y": 3.0544861467,
				"z": 1.0320670593,
				"element": "O" 
			},
			{
				"x": 0.7683051227,
				"y": 0.9829066,
				"z": 0.6024301017,
				"element": "N" 
			},
			{
				"x": 0.9992956466,
				"y": -0.2418938493,
				"z": -0.0827131267,
				"element": "C" 
			},
			{
				"x": 2.3228101551,
				"y": -0.7270565949,
				"z": -0.1628136523,
				"element": "C" 
			},
			{
				"x": 3.4737632771,
				"y": 0.0492268452,
				"z": 0.4300356467,
				"element": "C" 
			},
			{
				"x": 2.5380833996,
				"y": -1.9490105936,
				"z": -0.8085197883,
				"element": "C" 
			},
			{
				"x": 1.487617054,
				"y": -2.6734450732,
				"z": -1.3734188437,
				"element": "C" 
			},
			{
				"x": 0.1855330114,
				"y": -2.1844618738,
				"z": -1.2811048388,
				"element": "C" 
			},
			{
				"x": -0.0612579305,
				"y": -0.9807747931,
				"z": -0.6214021293,
				"element": "C" 
			},
			{
				"x": -1.0090228005,
				"y": 3.5821260521,
				"z": -2.6897022885,
				"element": "H" 
			},
			{
				"x": 0.592049676,
				"y": 3.7235547203,
				"z": -1.9318190505,
				"element": "H" 
			},
			{
				"x": -0.8416390786,
				"y": 4.2939872938,
				"z": -1.0587004202,
				"element": "H" 
			},
			{
				"x": -0.2459156786,
				"y": 1.3666057857,
				"z": -1.7696839182,
				"element": "H" 
			},
			{
				"x": 1.2529481256,
				"y": 1.1159558496,
				"z": 1.4827344402,
				"element": "H" 
			},
			{
				"x": 3.4324295771,
				"y": 0.0742974283,
				"z": 1.5274317169,
				"element": "H" 
			},
			{
				"x": 4.4295602334,
				"y": -0.4033449649,
				"z": 0.1553219267,
				"element": "H" 
			},
			{
				"x": 3.4772717712,
				"y": 1.0897874341,
				"z": 0.0878236738,
				"element": "H" 
			},
			{
				"x": 3.5533125961,
				"y": -2.3312046826,
				"z": -0.8772844597,
				"element": "H" 
			},
			{
				"x": 1.6867127068,
				"y": -3.6147392569,
				"z": -1.8767615299,
				"element": "H" 
			},
			{
				"x": -0.6442282977,
				"y": -2.7439534858,
				"z": -1.7023523936,
				"element": "H" 
			},
			{
				"x": -1.0765332787,
				"y": -0.6164160835,
				"z": -0.5090230686,
				"element": "H" 
			}
		],
		 "valence_orbital": [ 
			{
				"type": "occ",
				"energy": -0.30257,
				"method": "rhf"
			},
			{
				"type": "occ",
				"energy": -0.29415,
				"method": "rhf"
			},
			{
				"type": "occ",
				"energy": -0.26177,
				"method": "rhf"
			},
			{
				"type": "occ",
				"energy": -0.25656,
				"method": "rhf"
			},
			{
				"type": "occ",
				"energy": -0.23519,
				"method": "rhf"
			},
			{
				"type": "unocc",
				"energy": -0.02986,
				"method": "rhf"
			},
			{
				"type": "unocc",
				"energy": -0.01191,
				"method": "rhf"
			},
			{
				"type": "unocc",
				"energy": -0.00499,
				"method": "rhf"
			},
			{
				"type": "unocc",
				"energy": 0.05889,
				"method": "rhf"
			},
			{
				"type": "unocc",
				"energy": 0.07734,
				"method": "rhf"
			}
		],
		"cosmo_sigma_profile": { 
			"-0.025": 0.0,
			"-0.024": 0.0,
			"-0.023": 0.0,
			"-0.022": 0.0,
			"-0.021": 0.0,
			"-0.02": 0.0,
			"-0.019": 0.0,
			"-0.018": 0.0,
			"-0.017": 0.0,
			"-0.016": 0.0,
			"-0.015": 0.0,
			"-0.014": 0.316541377714,
			"-0.013": 0.866943215403,
			"-0.012": 0.967175132353,
			"-0.011": 1.29316430108,
			"-0.01": 1.1610471747,
			"-0.009": 1.53139880754,
			"-0.008": 1.27392621409,
			"-0.007": 3.48524095939,
			"-0.006": 9.58847399073,
			"-0.005": 17.2946278878,
			"-0.004": 19.5368591101,
			"-0.003": 22.1745740289,
			"-0.002": 20.1010448689,
			"-0.001": 22.9670022788,
			"0.0": 18.6074339097,
			"0.001": 14.3709443609,
			"0.002": 13.4831342734,
			"0.003": 13.3904585942,
			"0.004": 13.8070895562,
			"0.005": 15.7898447444,
			"0.006": 8.51892192383,
			"0.007": 1.70317266126,
			"0.008": 1.67779389774,
			"0.009": 1.69362190515,
			"0.01": 1.51890982591,
			"0.011": 1.7979894337,
			"0.012": 3.73363212258,
			"0.013": 4.53606321202,
			"0.014": 0.433925922538,
			"0.015": 0.0,
			"0.016": 0.0,
			"0.017": 0.0,
			"0.018": 0.0,
			"0.019": 0.0,
			"0.02": 0.0,
			"0.021": 0.0,
			"0.022": 0.0,
			"0.023": 0.0,
			"0.024": 0.0,
			"0.025": 0.0
		}
	}
}
