{
	 "smiles": "OCC1=CC=C(C=C1)N1C=CC=N1", 
	 "Tm": 351.15, 
	 "num_atms": 23, 
	 "gaussian": { 
		 "optdone": 1, 
		 "sigma_profile": "yes", 
		 "theory": "DFT", 
		 "functional": "B3LYP", 
		 "basiset": "6-31G**", 
		 "properties": { 
			 "R2extent": 3676.7303, 
			 "electric_dipole_moment_norm": 3.06025976185, 
			 "electric_quadrupole_moment_norm": 13.5324794373, 
			 "total_energy": -571.780338386, 
			 "HOMO_LUMO_gap": 0.1975, 
			 "cosmo_polarized_energy": -12.56, 
			 "cosmo_cavitation_energy": 27.02, 
			 "cosmo_dispersion_energy": -20.19, 
			 "cosmo_repulsion_energy": 1.58, 
			 "cosmo_total_nonelectrostatic_energy": 8.41, 
			 "SMD_solvation_energy": 4.55 
		},
		"coords": [
			{
				"x": 3.1190131975,
				"y": 2.0417014256,
				"z": 0.4118322256,
				"element": "O" 
			},
			{
				"x": 2.4031853654,
				"y": 1.7786133637,
				"z": -0.7864605311,
				"element": "C" 
			},
			{
				"x": 1.5245146248,
				"y": 0.5627265593,
				"z": -0.5974843725,
				"element": "C" 
			},
			{
				"x": 1.0967124664,
				"y": -0.1771863198,
				"z": -1.7045918795,
				"element": "C" 
			},
			{
				"x": 0.2419074105,
				"y": -1.2670617658,
				"z": -1.5559115796,
				"element": "C" 
			},
			{
				"x": -0.1772102819,
				"y": -1.6488963214,
				"z": -0.2768647438,
				"element": "C" 
			},
			{
				"x": 0.2464060314,
				"y": -0.9216842127,
				"z": 0.8402483305,
				"element": "C" 
			},
			{
				"x": 1.0842116913,
				"y": 0.1778278614,
				"z": 0.6737354519,
				"element": "C" 
			},
			{
				"x": -1.0268107633,
				"y": -2.7731165922,
				"z": -0.1012588139,
				"element": "N" 
			},
			{
				"x": -1.2109414715,
				"y": -3.8323129286,
				"z": -0.947009363,
				"element": "C" 
			},
			{
				"x": -2.1186270962,
				"y": -4.6758623957,
				"z": -0.343843616,
				"element": "C" 
			},
			{
				"x": -2.4289764342,
				"y": -4.0406783857,
				"z": 0.8807693836,
				"element": "C" 
			},
			{
				"x": -1.7709257255,
				"y": -2.8953898622,
				"z": 1.0285527766,
				"element": "N" 
			},
			{
				"x": 3.532320858,
				"y": 2.9091536059,
				"z": 0.3281733686,
				"element": "H" 
			},
			{
				"x": 3.0866310239,
				"y": 1.6053013427,
				"z": -1.6336971118,
				"element": "H" 
			},
			{
				"x": 1.7715088044,
				"y": 2.6410368657,
				"z": -1.0607366434,
				"element": "H" 
			},
			{
				"x": 1.4243925979,
				"y": 0.103823554,
				"z": -2.7028146779,
				"element": "H" 
			},
			{
				"x": -0.1031120924,
				"y": -1.8041083754,
				"z": -2.4329240925,
				"element": "H" 
			},
			{
				"x": -0.0908607733,
				"y": -1.2278764861,
				"z": 1.8228225685,
				"element": "H" 
			},
			{
				"x": 1.4211923265,
				"y": 0.7386736006,
				"z": 1.5381275396,
				"element": "H" 
			},
			{
				"x": -0.6726863679,
				"y": -3.9168236453,
				"z": -1.8780051188,
				"element": "H" 
			},
			{
				"x": -2.4926510517,
				"y": -5.6136262138,
				"z": -0.7263731446,
				"element": "H" 
			},
			{
				"x": -3.1061943402,
				"y": -4.3692346743,
				"z": 1.6580140436,
				"element": "H" 
			}
		],
		 "valence_orbital": [ 
			{
				"type": "occ",
				"energy": -0.28439,
				"method": "rhf"
			},
			{
				"type": "occ",
				"energy": -0.27093,
				"method": "rhf"
			},
			{
				"type": "occ",
				"energy": -0.25336,
				"method": "rhf"
			},
			{
				"type": "occ",
				"energy": -0.24516,
				"method": "rhf"
			},
			{
				"type": "occ",
				"energy": -0.21707,
				"method": "rhf"
			},
			{
				"type": "unocc",
				"energy": -0.01957,
				"method": "rhf"
			},
			{
				"type": "unocc",
				"energy": -0.00429,
				"method": "rhf"
			},
			{
				"type": "unocc",
				"energy": 0.04032,
				"method": "rhf"
			},
			{
				"type": "unocc",
				"energy": 0.07311,
				"method": "rhf"
			},
			{
				"type": "unocc",
				"energy": 0.07327,
				"method": "rhf"
			}
		],
		"cosmo_sigma_profile": { 
			"-0.025": 0.0,
			"-0.024": 0.0,
			"-0.023": 0.0,
			"-0.022": 0.0,
			"-0.021": 0.0,
			"-0.02": 0.0,
			"-0.019": 0.0,
			"-0.018": 0.0,
			"-0.017": 0.0208957177852,
			"-0.016": 0.732374728949,
			"-0.015": 1.26796672522,
			"-0.014": 0.963849322757,
			"-0.013": 0.932861282273,
			"-0.012": 1.03081553318,
			"-0.011": 0.485825845457,
			"-0.01": 1.28556552638,
			"-0.009": 3.31182654457,
			"-0.008": 3.55825040159,
			"-0.007": 6.83923154763,
			"-0.006": 9.81193564233,
			"-0.005": 15.2913066776,
			"-0.004": 18.1592275442,
			"-0.003": 16.0588059585,
			"-0.002": 11.859363354,
			"-0.001": 9.59979172444,
			"0.0": 10.1978601985,
			"0.001": 12.9808231193,
			"0.002": 14.4195008133,
			"0.003": 15.3774166616,
			"0.004": 19.2991313252,
			"0.005": 17.0307443692,
			"0.006": 4.43974132978,
			"0.007": 4.25444227117,
			"0.008": 2.72161803894,
			"0.009": 3.42988354899,
			"0.01": 3.12227228291,
			"0.011": 2.32860612508,
			"0.012": 1.50240269337,
			"0.013": 2.41329588592,
			"0.014": 1.17175063897,
			"0.015": 0.0221398328491,
			"0.016": 0.0,
			"0.017": 0.0,
			"0.018": 0.0,
			"0.019": 0.0,
			"0.02": 0.0,
			"0.021": 0.0,
			"0.022": 0.0,
			"0.023": 0.0,
			"0.024": 0.0,
			"0.025": 0.0
		}
	}
}
