{
	 "smiles": "CC1=C2N=C(CCl)NC(=O)C2=CC=C1", 
	 "Tm": 464.15, 
	 "num_atms": 23, 
	 "gaussian": { 
		 "optdone": 1, 
		 "sigma_profile": "yes", 
		 "theory": "DFT", 
		 "functional": "B3LYP", 
		 "basiset": "6-31G**", 
		 "properties": { 
			 "R2extent": 4629.2159, 
			 "electric_dipole_moment_norm": 2.91839144393, 
			 "electric_quadrupole_moment_norm": 14.2626209134, 
			 "total_energy": -1031.45115133, 
			 "HOMO_LUMO_gap": 0.18022, 
			 "cosmo_polarized_energy": -12.14, 
			 "cosmo_cavitation_energy": 28.79, 
			 "cosmo_dispersion_energy": -21.35, 
			 "cosmo_repulsion_energy": 1.69, 
			 "cosmo_total_nonelectrostatic_energy": 9.13, 
			 "SMD_solvation_energy": 4.04 
		},
		"coords": [
			{
				"x": 1.7497337084,
				"y": 1.7990122926,
				"z": 0.1575770441,
				"element": "C" 
			},
			{
				"x": 0.2729158104,
				"y": 1.5949940434,
				"z": 0.3781022899,
				"element": "C" 
			},
			{
				"x": -0.491351412,
				"y": 0.8414025745,
				"z": -0.5491337379,
				"element": "C" 
			},
			{
				"x": 0.1606604314,
				"y": 0.3063778547,
				"z": -1.6571529235,
				"element": "N" 
			},
			{
				"x": -0.5437697471,
				"y": -0.3853478898,
				"z": -2.4915982644,
				"element": "C" 
			},
			{
				"x": 0.1713277204,
				"y": -1.0490391662,
				"z": -3.6396384963,
				"element": "C" 
			},
			{
				"x": -0.7078780666,
				"y": -0.8783583719,
				"z": -5.2212822277,
				"element": "Cl" 
			},
			{
				"x": -1.889207873,
				"y": -0.6132984058,
				"z": -2.3569366748,
				"element": "N" 
			},
			{
				"x": -2.6668133366,
				"y": -0.1150309679,
				"z": -1.2989728897,
				"element": "C" 
			},
			{
				"x": -3.8668996248,
				"y": -0.3394678309,
				"z": -1.2492309609,
				"element": "O" 
			},
			{
				"x": -1.8780973191,
				"y": 0.6586244496,
				"z": -0.3310659285,
				"element": "C" 
			},
			{
				"x": -2.5085705452,
				"y": 1.2147368645,
				"z": 0.7913117193,
				"element": "C" 
			},
			{
				"x": -1.7588580939,
				"y": 1.9487071615,
				"z": 1.6957831414,
				"element": "C" 
			},
			{
				"x": -0.38222665,
				"y": 2.1318394949,
				"z": 1.4829374578,
				"element": "C" 
			},
			{
				"x": 2.1843202606,
				"y": 2.398030798,
				"z": 0.9621087535,
				"element": "H" 
			},
			{
				"x": 1.9411703543,
				"y": 2.3042372528,
				"z": -0.7944270764,
				"element": "H" 
			},
			{
				"x": 2.2793294615,
				"y": 0.8420992978,
				"z": 0.1116149257,
				"element": "H" 
			},
			{
				"x": 0.2743277416,
				"y": -2.1233639312,
				"z": -3.4689049999,
				"element": "H" 
			},
			{
				"x": 1.1535475896,
				"y": -0.5943147092,
				"z": -3.7452634772,
				"element": "H" 
			},
			{
				"x": -2.3966846454,
				"y": -1.1103048727,
				"z": -3.0806980047,
				"element": "H" 
			},
			{
				"x": -3.5734199703,
				"y": 1.0533754702,
				"z": 0.9199429044,
				"element": "H" 
			},
			{
				"x": -2.2307033619,
				"y": 2.3853994649,
				"z": 2.5707763514,
				"element": "H" 
			},
			{
				"x": 0.1928475679,
				"y": 2.7107891265,
				"z": 2.2011510743,
				"element": "H" 
			}
		],
		 "valence_orbital": [ 
			{
				"type": "occ",
				"energy": -0.29924,
				"method": "rhf"
			},
			{
				"type": "occ",
				"energy": -0.28486,
				"method": "rhf"
			},
			{
				"type": "occ",
				"energy": -0.26703,
				"method": "rhf"
			},
			{
				"type": "occ",
				"energy": -0.25743,
				"method": "rhf"
			},
			{
				"type": "occ",
				"energy": -0.2332,
				"method": "rhf"
			},
			{
				"type": "unocc",
				"energy": -0.05298,
				"method": "rhf"
			},
			{
				"type": "unocc",
				"energy": -0.04223,
				"method": "rhf"
			},
			{
				"type": "unocc",
				"energy": 0.00783,
				"method": "rhf"
			},
			{
				"type": "unocc",
				"energy": 0.02807,
				"method": "rhf"
			},
			{
				"type": "unocc",
				"energy": 0.06901,
				"method": "rhf"
			}
		],
		"cosmo_sigma_profile": { 
			"-0.025": 0.0,
			"-0.024": 0.0,
			"-0.023": 0.0,
			"-0.022": 0.0,
			"-0.021": 0.0,
			"-0.02": 0.0,
			"-0.019": 0.0,
			"-0.018": 0.0,
			"-0.017": 0.0,
			"-0.016": 0.0,
			"-0.015": 0.0920366123165,
			"-0.014": 0.715224574822,
			"-0.013": 0.959169268273,
			"-0.012": 1.34227544982,
			"-0.011": 0.833730364659,
			"-0.01": 2.57552818339,
			"-0.009": 5.05605017359,
			"-0.008": 4.20817187861,
			"-0.007": 4.66675118683,
			"-0.006": 9.30849788194,
			"-0.005": 12.9332813205,
			"-0.004": 16.1989984973,
			"-0.003": 14.5222547795,
			"-0.002": 16.4435286831,
			"-0.001": 17.5258642292,
			"0.0": 19.7420406939,
			"0.001": 19.0115340482,
			"0.002": 17.6335704537,
			"0.003": 17.8290393152,
			"0.004": 14.8732866199,
			"0.005": 9.6980263849,
			"0.006": 4.91309030445,
			"0.007": 2.84633567949,
			"0.008": 1.94502754206,
			"0.009": 2.83116218534,
			"0.01": 2.10697550505,
			"0.011": 2.46492897922,
			"0.012": 4.18270637407,
			"0.013": 4.55943432176,
			"0.014": 0.192042067735,
			"0.015": 0.0,
			"0.016": 0.0,
			"0.017": 0.0,
			"0.018": 0.0,
			"0.019": 0.0,
			"0.02": 0.0,
			"0.021": 0.0,
			"0.022": 0.0,
			"0.023": 0.0,
			"0.024": 0.0,
			"0.025": 0.0
		}
	}
}
