{
	 "smiles": "ClC1=CC=CC=C1C=C(C#N)C#N", 
	 "Tm": 368.35, 
	 "num_atms": 18, 
	 "gaussian": { 
		 "optdone": 1, 
		 "sigma_profile": "yes", 
		 "theory": "DFT", 
		 "functional": "B3LYP", 
		 "basiset": "6-31G**", 
		 "properties": { 
			 "R2extent": 3483.9139, 
			 "electric_dipole_moment_norm": 6.42928650707, 
			 "electric_quadrupole_moment_norm": 14.1870597863, 
			 "total_energy": -953.71187602, 
			 "HOMO_LUMO_gap": 0.1502, 
			 "cosmo_polarized_energy": -11.57, 
			 "cosmo_cavitation_energy": 26.87, 
			 "cosmo_dispersion_energy": -18.53, 
			 "cosmo_repulsion_energy": 1.46, 
			 "cosmo_total_nonelectrostatic_energy": 9.8, 
			 "SMD_solvation_energy": 7.08 
		},
		"coords": [
			{
				"x": -1.2874196692,
				"y": 1.6502975465,
				"z": -2.0001670949,
				"element": "Cl" 
			},
			{
				"x": -0.1438670987,
				"y": 0.6994242028,
				"z": -1.0637013292,
				"element": "C" 
			},
			{
				"x": 0.8229082285,
				"y": -0.0037524462,
				"z": -1.7769742561,
				"element": "C" 
			},
			{
				"x": 1.7577088004,
				"y": -0.7803558051,
				"z": -1.0945456595,
				"element": "C" 
			},
			{
				"x": 1.7230042683,
				"y": -0.8508772426,
				"z": 0.2998465798,
				"element": "C" 
			},
			{
				"x": 0.7561000195,
				"y": -0.1497890396,
				"z": 1.007489447,
				"element": "C" 
			},
			{
				"x": -0.2116410323,
				"y": 0.6469945555,
				"z": 0.352995812,
				"element": "C" 
			},
			{
				"x": -1.2329536602,
				"y": 1.4067068445,
				"z": 1.0543887984,
				"element": "C" 
			},
			{
				"x": -1.5803090356,
				"y": 1.4349590548,
				"z": 2.3756702058,
				"element": "C" 
			},
			{
				"x": -0.9868408354,
				"y": 0.657119982,
				"z": 3.4220716621,
				"element": "C" 
			},
			{
				"x": -0.5224804884,
				"y": 0.0367088622,
				"z": 4.2903596012,
				"element": "N" 
			},
			{
				"x": -2.6422314424,
				"y": 2.3050610954,
				"z": 2.7959040824,
				"element": "C" 
			},
			{
				"x": -3.5021798594,
				"y": 3.0103857628,
				"z": 3.1368420837,
				"element": "N" 
			},
			{
				"x": 0.8374781565,
				"y": 0.0605486679,
				"z": -2.8588824078,
				"element": "H" 
			},
			{
				"x": 2.510439625,
				"y": -1.3263766191,
				"z": -1.6547689338,
				"element": "H" 
			},
			{
				"x": 2.4504603174,
				"y": -1.450443596,
				"z": 0.8370292073,
				"element": "H" 
			},
			{
				"x": 0.7505960042,
				"y": -0.2118628411,
				"z": 2.0876259932,
				"element": "H" 
			},
			{
				"x": -1.8274722983,
				"y": 2.0608510152,
				"z": 0.4259162083,
				"element": "H" 
			}
		],
		 "valence_orbital": [ 
			{
				"type": "occ",
				"energy": -0.34612,
				"method": "rhf"
			},
			{
				"type": "occ",
				"energy": -0.33999,
				"method": "rhf"
			},
			{
				"type": "occ",
				"energy": -0.33035,
				"method": "rhf"
			},
			{
				"type": "occ",
				"energy": -0.2811,
				"method": "rhf"
			},
			{
				"type": "occ",
				"energy": -0.26489,
				"method": "rhf"
			},
			{
				"type": "unocc",
				"energy": -0.11469,
				"method": "rhf"
			},
			{
				"type": "unocc",
				"energy": -0.04131,
				"method": "rhf"
			},
			{
				"type": "unocc",
				"energy": -0.01478,
				"method": "rhf"
			},
			{
				"type": "unocc",
				"energy": -0.01129,
				"method": "rhf"
			},
			{
				"type": "unocc",
				"energy": 0.00358,
				"method": "rhf"
			}
		],
		"cosmo_sigma_profile": { 
			"-0.025": 0.0,
			"-0.024": 0.0,
			"-0.023": 0.0,
			"-0.022": 0.0,
			"-0.021": 0.0,
			"-0.02": 0.0,
			"-0.019": 0.0,
			"-0.018": 0.0,
			"-0.017": 0.0,
			"-0.016": 0.0,
			"-0.015": 0.0,
			"-0.014": 0.0,
			"-0.013": 0.0,
			"-0.012": 0.0,
			"-0.011": 0.0,
			"-0.01": 0.13548642262,
			"-0.009": 1.72393430729,
			"-0.008": 5.28815098039,
			"-0.007": 10.4766833253,
			"-0.006": 10.8389267095,
			"-0.005": 13.1922327073,
			"-0.004": 17.2643025703,
			"-0.003": 19.4298732039,
			"-0.002": 16.4681411137,
			"-0.001": 16.149291133,
			"0.0": 19.9109065682,
			"0.001": 18.7609622022,
			"0.002": 15.6176800732,
			"0.003": 10.4926730878,
			"0.004": 7.0519695651,
			"0.005": 4.31365198518,
			"0.006": 5.08931939322,
			"0.007": 6.01673763228,
			"0.008": 5.61502688363,
			"0.009": 5.96073207373,
			"0.01": 5.08186381855,
			"0.011": 4.59563902916,
			"0.012": 2.52570201311,
			"0.013": 0.108164398231,
			"0.014": 0.0,
			"0.015": 0.0,
			"0.016": 0.0,
			"0.017": 0.0,
			"0.018": 0.0,
			"0.019": 0.0,
			"0.02": 0.0,
			"0.021": 0.0,
			"0.022": 0.0,
			"0.023": 0.0,
			"0.024": 0.0,
			"0.025": 0.0
		}
	}
}
