{
	 "smiles": "FC(F)(F)C(C(=O)NC1=CC=C(Br)C=C1Br)(C(F)(F)F)C(F)(F)F", 
	 "Tm": 502.15, 
	 "num_atms": 28, 
	 "gaussian": { 
		 "optdone": 1, 
		 "sigma_profile": "yes", 
		 "theory": "DFT", 
		 "functional": "B3LYP", 
		 "basiset": "6-31G**", 
		 "properties": { 
			 "R2extent": 13886.5283, 
			 "electric_dipole_moment_norm": 1.69014729831, 
			 "electric_quadrupole_moment_norm": 3.0208086467, 
			 "total_energy": -6592.9374655, 
			 "HOMO_LUMO_gap": 0.18856, 
			 "cosmo_polarized_energy": -5.91, 
			 "cosmo_cavitation_energy": 39.95, 
			 "cosmo_dispersion_energy": -27.89, 
			 "cosmo_repulsion_energy": 1.93, 
			 "cosmo_total_nonelectrostatic_energy": 13.99, 
			 "SMD_solvation_energy": 7.7 
		},
		"coords": [
			{
				"x": -1.6519321517,
				"y": 1.2359528023,
				"z": 0.451960423,
				"element": "F" 
			},
			{
				"x": -1.7438910372,
				"y": 0.1661510587,
				"z": 1.2734748544,
				"element": "C" 
			},
			{
				"x": -2.3800095789,
				"y": -0.8018063019,
				"z": 0.5987433162,
				"element": "F" 
			},
			{
				"x": -2.5036200536,
				"y": 0.5322196132,
				"z": 2.311912537,
				"element": "F" 
			},
			{
				"x": -0.3364700685,
				"y": -0.3283534868,
				"z": 1.7188865448,
				"element": "C" 
			},
			{
				"x": 0.4656381545,
				"y": -0.8795861648,
				"z": 0.4724796718,
				"element": "C" 
			},
			{
				"x": 0.8246672218,
				"y": -2.0410385718,
				"z": 0.4460717343,
				"element": "O" 
			},
			{
				"x": 0.6953339837,
				"y": 0.0408362065,
				"z": -0.5103940668,
				"element": "N" 
			},
			{
				"x": 1.3772902611,
				"y": -0.1590786942,
				"z": -1.7266935535,
				"element": "C" 
			},
			{
				"x": 1.9381752087,
				"y": -1.39018425,
				"z": -2.1053494789,
				"element": "C" 
			},
			{
				"x": 2.6014154622,
				"y": -1.528796052,
				"z": -3.3214733859,
				"element": "C" 
			},
			{
				"x": 2.7157506539,
				"y": -0.4393628108,
				"z": -4.1804663446,
				"element": "C" 
			},
			{
				"x": 3.6225085462,
				"y": -0.6257108783,
				"z": -5.8462276624,
				"element": "Br" 
			},
			{
				"x": 2.1710278282,
				"y": 0.7946679186,
				"z": -3.8345953403,
				"element": "C" 
			},
			{
				"x": 1.5101495359,
				"y": 0.9241884972,
				"z": -2.6178478097,
				"element": "C" 
			},
			{
				"x": 0.7765932326,
				"y": 2.6385678805,
				"z": -2.1828679657,
				"element": "Br" 
			},
			{
				"x": 0.4616340383,
				"y": 0.8203815542,
				"z": 2.4023668828,
				"element": "C" 
			},
			{
				"x": 0.5680116602,
				"y": 1.8958944468,
				"z": 1.5900648962,
				"element": "F" 
			},
			{
				"x": 1.7057504815,
				"y": 0.410718801,
				"z": 2.6873370938,
				"element": "F" 
			},
			{
				"x": -0.1194884252,
				"y": 1.2374355851,
				"z": 3.5328056818,
				"element": "F" 
			},
			{
				"x": -0.509178963,
				"y": -1.5079709003,
				"z": 2.739442135,
				"element": "C" 
			},
			{
				"x": 0.6781024031,
				"y": -1.9594409177,
				"z": 3.1556999674,
				"element": "F" 
			},
			{
				"x": -1.1888862977,
				"y": -1.1006662328,
				"z": 3.8273252737,
				"element": "F" 
			},
			{
				"x": -1.1953723976,
				"y": -2.5171036703,
				"z": 2.1939859391,
				"element": "F" 
			},
			{
				"x": 0.3446100631,
				"y": 0.9806918699,
				"z": -0.371272513,
				"element": "H" 
			},
			{
				"x": 1.8469054704,
				"y": -2.2326557213,
				"z": -1.4356732365,
				"element": "H" 
			},
			{
				"x": 3.0270019039,
				"y": -2.4870791526,
				"z": -3.5949592391,
				"element": "H" 
			},
			{
				"x": 2.2569828641,
				"y": 1.6450275715,
				"z": -4.4984363548,
				"element": "H" 
			}
		],
		 "valence_orbital": [ 
			{
				"type": "occ",
				"energy": -0.30519,
				"method": "rhf"
			},
			{
				"type": "occ",
				"energy": -0.30205,
				"method": "rhf"
			},
			{
				"type": "occ",
				"energy": -0.29736,
				"method": "rhf"
			},
			{
				"type": "occ",
				"energy": -0.27303,
				"method": "rhf"
			},
			{
				"type": "occ",
				"energy": -0.24438,
				"method": "rhf"
			},
			{
				"type": "unocc",
				"energy": -0.05582,
				"method": "rhf"
			},
			{
				"type": "unocc",
				"energy": -0.03779,
				"method": "rhf"
			},
			{
				"type": "unocc",
				"energy": -0.03188,
				"method": "rhf"
			},
			{
				"type": "unocc",
				"energy": 0.00034,
				"method": "rhf"
			},
			{
				"type": "unocc",
				"energy": 0.01026,
				"method": "rhf"
			}
		],
		"cosmo_sigma_profile": { 
			"-0.025": 0.0,
			"-0.024": 0.0,
			"-0.023": 0.0,
			"-0.022": 0.0,
			"-0.021": 0.0,
			"-0.02": 0.0,
			"-0.019": 0.0,
			"-0.018": 0.0,
			"-0.017": 0.0,
			"-0.016": 0.0,
			"-0.015": 0.0,
			"-0.014": 0.0,
			"-0.013": 0.0,
			"-0.012": 0.0,
			"-0.011": 0.0,
			"-0.01": 0.0,
			"-0.009": 0.421148429558,
			"-0.008": 2.85135064847,
			"-0.007": 3.49659370115,
			"-0.006": 6.49632464407,
			"-0.005": 11.7125337699,
			"-0.004": 15.2978361059,
			"-0.003": 19.9968236621,
			"-0.002": 21.3370747211,
			"-0.001": 32.3619383409,
			"0.0": 52.6985976507,
			"0.001": 86.6578921491,
			"0.002": 32.9996626645,
			"0.003": 16.4376453595,
			"0.004": 13.5198850736,
			"0.005": 3.12918688329,
			"0.006": 1.71872097346,
			"0.007": 2.71650392317,
			"0.008": 2.09059131166,
			"0.009": 2.53509602729,
			"0.01": 0.863723184409,
			"0.011": 0.0,
			"0.012": 0.0,
			"0.013": 0.0,
			"0.014": 0.0,
			"0.015": 0.0,
			"0.016": 0.0,
			"0.017": 0.0,
			"0.018": 0.0,
			"0.019": 0.0,
			"0.02": 0.0,
			"0.021": 0.0,
			"0.022": 0.0,
			"0.023": 0.0,
			"0.024": 0.0,
			"0.025": 0.0
		}
	}
}
