{
	 "smiles": "CC(=O)OC1(CCC2C3C=C(Cl)C4=CC(=O)CCC4(C)C3CCC12C)C(C)=O", 
	 "Tm": 486.15, 
	 "num_atms": 57, 
	 "gaussian": { 
		 "optdone": 1, 
		 "sigma_profile": "yes", 
		 "theory": "DFT", 
		 "functional": "B3LYP", 
		 "basiset": "6-31G**", 
		 "properties": { 
			 "R2extent": 11806.6662, 
			 "electric_dipole_moment_norm": 3.02298001482, 
			 "electric_quadrupole_moment_norm": 54.2209218476, 
			 "total_energy": -1655.00117898, 
			 "HOMO_LUMO_gap": 0.16363, 
			 "cosmo_polarized_energy": -20.72, 
			 "cosmo_cavitation_energy": 53.15, 
			 "cosmo_dispersion_energy": -34.76, 
			 "cosmo_repulsion_energy": 2.54, 
			 "cosmo_total_nonelectrostatic_energy": 20.93, 
			 "SMD_solvation_energy": 9.68 
		},
		"coords": [
			{
				"x": 2.4857441913,
				"y": 2.4787717407,
				"z": -2.5663167605,
				"element": "C" 
			},
			{
				"x": 3.3331037951,
				"y": 1.5671072844,
				"z": -1.7105027057,
				"element": "C" 
			},
			{
				"x": 4.5271792939,
				"y": 1.6840092013,
				"z": -1.5390991516,
				"element": "O" 
			},
			{
				"x": 2.5807161705,
				"y": 0.58067103,
				"z": -1.1623547145,
				"element": "O" 
			},
			{
				"x": 3.2041867485,
				"y": -0.340353364,
				"z": -0.21129771,
				"element": "C" 
			},
			{
				"x": 3.5652912245,
				"y": 0.4043494313,
				"z": 1.0808751142,
				"element": "C" 
			},
			{
				"x": 2.2160446616,
				"y": 0.6534343727,
				"z": 1.7595867466,
				"element": "C" 
			},
			{
				"x": 1.3661695648,
				"y": -0.6078602021,
				"z": 1.4613649471,
				"element": "C" 
			},
			{
				"x": -0.1299968081,
				"y": -0.275335771,
				"z": 1.2615320211,
				"element": "C" 
			},
			{
				"x": -1.0738814286,
				"y": -1.4397115813,
				"z": 1.4745338962,
				"element": "C" 
			},
			{
				"x": -2.3684031798,
				"y": -1.27576893,
				"z": 1.1613709438,
				"element": "C" 
			},
			{
				"x": -3.5389348393,
				"y": -2.5594712624,
				"z": 1.4607838114,
				"element": "Cl" 
			},
			{
				"x": -2.8515593704,
				"y": 0.0374646431,
				"z": 0.7097033426,
				"element": "C" 
			},
			{
				"x": -4.0308847882,
				"y": 0.5470149674,
				"z": 1.1354477187,
				"element": "C" 
			},
			{
				"x": -4.419479328,
				"y": 1.9567254135,
				"z": 0.9500847562,
				"element": "C" 
			},
			{
				"x": -5.5250906194,
				"y": 2.3619831689,
				"z": 1.282752277,
				"element": "O" 
			},
			{
				"x": -3.3697746623,
				"y": 2.9118251011,
				"z": 0.3820532072,
				"element": "C" 
			},
			{
				"x": -1.9496312206,
				"y": 2.3291486025,
				"z": 0.3248840378,
				"element": "C" 
			},
			{
				"x": -1.9101251918,
				"y": 0.8648354385,
				"z": -0.1887143128,
				"element": "C" 
			},
			{
				"x": -2.4686052432,
				"y": 0.8308347166,
				"z": -1.6359843353,
				"element": "C" 
			},
			{
				"x": -0.4322914067,
				"y": 0.3295938869,
				"z": -0.1299602397,
				"element": "C" 
			},
			{
				"x": -0.0503394005,
				"y": -0.6852245504,
				"z": -1.2418057897,
				"element": "C" 
			},
			{
				"x": 1.0279169653,
				"y": -1.7185936873,
				"z": -0.8441181816,
				"element": "C" 
			},
			{
				"x": 2.0588184308,
				"y": -1.3397518613,
				"z": 0.2448607122,
				"element": "C" 
			},
			{
				"x": 2.6951014644,
				"y": -2.6563103205,
				"z": 0.749706633,
				"element": "C" 
			},
			{
				"x": 4.4154298171,
				"y": -1.0519884222,
				"z": -0.8558177262,
				"element": "C" 
			},
			{
				"x": 4.4142899637,
				"y": -1.3306752457,
				"z": -2.3489303744,
				"element": "C" 
			},
			{
				"x": 5.331375851,
				"y": -1.4280248069,
				"z": -0.1508464908,
				"element": "O" 
			},
			{
				"x": 1.9675827377,
				"y": 1.9013051728,
				"z": -3.3374563889,
				"element": "H" 
			},
			{
				"x": 3.122419954,
				"y": 3.2315137706,
				"z": -3.0300118468,
				"element": "H" 
			},
			{
				"x": 1.7218684442,
				"y": 2.967359889,
				"z": -1.9537935887,
				"element": "H" 
			},
			{
				"x": 4.2009260559,
				"y": -0.2569921286,
				"z": 1.674861369,
				"element": "H" 
			},
			{
				"x": 4.1442128037,
				"y": 1.3071270337,
				"z": 0.8814062233,
				"element": "H" 
			},
			{
				"x": 1.7408687992,
				"y": 1.543164553,
				"z": 1.3307960103,
				"element": "H" 
			},
			{
				"x": 2.314199827,
				"y": 0.8360545953,
				"z": 2.8341068841,
				"element": "H" 
			},
			{
				"x": 1.4319967459,
				"y": -1.2744274335,
				"z": 2.3296734011,
				"element": "H" 
			},
			{
				"x": -0.37280367,
				"y": 0.4799079291,
				"z": 2.0251476177,
				"element": "H" 
			},
			{
				"x": -0.719178238,
				"y": -2.3699325027,
				"z": 1.9087589047,
				"element": "H" 
			},
			{
				"x": -4.7232245534,
				"y": -0.0537512523,
				"z": 1.7173844055,
				"element": "H" 
			},
			{
				"x": -3.7122813387,
				"y": 3.2090882958,
				"z": -0.6166983188,
				"element": "H" 
			},
			{
				"x": -3.4027912733,
				"y": 3.8237366109,
				"z": 0.9868287606,
				"element": "H" 
			},
			{
				"x": -1.5028599155,
				"y": 2.3646126661,
				"z": 1.3260014471,
				"element": "H" 
			},
			{
				"x": -1.318935082,
				"y": 2.9523696981,
				"z": -0.3210437561,
				"element": "H" 
			},
			{
				"x": -1.7982923731,
				"y": 1.3663915299,
				"z": -2.3174146388,
				"element": "H" 
			},
			{
				"x": -2.5873185975,
				"y": -0.1878748282,
				"z": -2.0088309046,
				"element": "H" 
			},
			{
				"x": -3.4520519834,
				"y": 1.3010814629,
				"z": -1.6898396498,
				"element": "H" 
			},
			{
				"x": 0.2181585474,
				"y": 1.201363338,
				"z": -0.2578370907,
				"element": "H" 
			},
			{
				"x": 0.2722642104,
				"y": -0.1277431975,
				"z": -2.123956695,
				"element": "H" 
			},
			{
				"x": -0.9265998193,
				"y": -1.2627483105,
				"z": -1.5454651847,
				"element": "H" 
			},
			{
				"x": 1.5458029229,
				"y": -2.0666685626,
				"z": -1.7445132322,
				"element": "H" 
			},
			{
				"x": 0.5078415363,
				"y": -2.602867668,
				"z": -0.4565456434,
				"element": "H" 
			},
			{
				"x": 3.4944733914,
				"y": -2.4827118496,
				"z": 1.4739892286,
				"element": "H" 
			},
			{
				"x": 3.1178663777,
				"y": -3.2476979524,
				"z": -0.068798212,
				"element": "H" 
			},
			{
				"x": 1.925546258,
				"y": -3.2663634362,
				"z": 1.2327086463,
				"element": "H" 
			},
			{
				"x": 4.9429584068,
				"y": -2.2689255908,
				"z": -2.5283077755,
				"element": "H" 
			},
			{
				"x": 4.9682770646,
				"y": -0.5293144893,
				"z": -2.8481593683,
				"element": "H" 
			},
			{
				"x": 3.4115021057,
				"y": -1.368656337,
				"z": -2.7794822766,
				"element": "H" 
			}
		],
		 "valence_orbital": [ 
			{
				"type": "occ",
				"energy": -0.2863,
				"method": "rhf"
			},
			{
				"type": "occ",
				"energy": -0.28367,
				"method": "rhf"
			},
			{
				"type": "occ",
				"energy": -0.25018,
				"method": "rhf"
			},
			{
				"type": "occ",
				"energy": -0.24345,
				"method": "rhf"
			},
			{
				"type": "occ",
				"energy": -0.23769,
				"method": "rhf"
			},
			{
				"type": "unocc",
				"energy": -0.07406,
				"method": "rhf"
			},
			{
				"type": "unocc",
				"energy": -0.02543,
				"method": "rhf"
			},
			{
				"type": "unocc",
				"energy": -0.00999,
				"method": "rhf"
			},
			{
				"type": "unocc",
				"energy": 0.00434,
				"method": "rhf"
			},
			{
				"type": "unocc",
				"energy": 0.02345,
				"method": "rhf"
			}
		],
		"cosmo_sigma_profile": { 
			"-0.025": 0.0,
			"-0.024": 0.0,
			"-0.023": 0.0,
			"-0.022": 0.0,
			"-0.021": 0.0,
			"-0.02": 0.0,
			"-0.019": 0.0,
			"-0.018": 0.0,
			"-0.017": 0.0,
			"-0.016": 0.0,
			"-0.015": 0.0,
			"-0.014": 0.0,
			"-0.013": 0.0,
			"-0.012": 0.0,
			"-0.011": 0.0,
			"-0.01": 0.0,
			"-0.009": 0.0,
			"-0.008": 0.0,
			"-0.007": 1.18679100424,
			"-0.006": 11.506296847,
			"-0.005": 24.4140280792,
			"-0.004": 40.9937336174,
			"-0.003": 62.4526409881,
			"-0.002": 58.9100959085,
			"-0.001": 45.3707947587,
			"0.0": 41.3837080645,
			"0.001": 25.7664734855,
			"0.002": 16.8298317922,
			"0.003": 13.4667096074,
			"0.004": 11.1243908895,
			"0.005": 11.9910258033,
			"0.006": 4.72481645296,
			"0.007": 4.70108635122,
			"0.008": 5.922245781,
			"0.009": 4.86004776046,
			"0.01": 5.3731335964,
			"0.011": 7.64823716603,
			"0.012": 9.10858282419,
			"0.013": 5.88277196942,
			"0.014": 2.15482968514,
			"0.015": 0.0982922338419,
			"0.016": 0.0,
			"0.017": 0.0,
			"0.018": 0.0,
			"0.019": 0.0,
			"0.02": 0.0,
			"0.021": 0.0,
			"0.022": 0.0,
			"0.023": 0.0,
			"0.024": 0.0,
			"0.025": 0.0
		}
	}
}
