{
	 "smiles": "COC(=O)C1=CC2=C(C=CC=C2)N1C(=O)OC(C)(C)C", 
	 "Tm": 339.65, 
	 "num_atms": 37, 
	 "gaussian": { 
		 "optdone": 1, 
		 "sigma_profile": "yes", 
		 "theory": "DFT", 
		 "functional": "B3LYP", 
		 "basiset": "6-31G**", 
		 "properties": { 
			 "R2extent": 6084.8118, 
			 "electric_dipole_moment_norm": 1.97908286082, 
			 "electric_quadrupole_moment_norm": 20.239763049, 
			 "total_energy": -937.52622708, 
			 "HOMO_LUMO_gap": 0.17156, 
			 "cosmo_polarized_energy": -11.2, 
			 "cosmo_cavitation_energy": 40.36, 
			 "cosmo_dispersion_energy": -27.07, 
			 "cosmo_repulsion_energy": 2.04, 
			 "cosmo_total_nonelectrostatic_energy": 15.33, 
			 "SMD_solvation_energy": 8.81 
		},
		"coords": [
			{
				"x": 4.2167946716,
				"y": -0.0054674865,
				"z": 1.791161605,
				"element": "C" 
			},
			{
				"x": 3.0994517564,
				"y": -0.0497790393,
				"z": 0.8896205182,
				"element": "O" 
			},
			{
				"x": 2.9564742628,
				"y": 1.0475242036,
				"z": 0.1124119059,
				"element": "C" 
			},
			{
				"x": 3.709429718,
				"y": 2.0002753811,
				"z": 0.1499613189,
				"element": "O" 
			},
			{
				"x": 1.8680523045,
				"y": 0.9175885119,
				"z": -0.8789805814,
				"element": "C" 
			},
			{
				"x": 1.9687181096,
				"y": 1.3954095145,
				"z": -2.1564485846,
				"element": "C" 
			},
			{
				"x": 0.8741421941,
				"y": 0.8684037659,
				"z": -2.9176201399,
				"element": "C" 
			},
			{
				"x": 0.1116046276,
				"y": 0.0530974635,
				"z": -2.0436040813,
				"element": "C" 
			},
			{
				"x": -1.0475384181,
				"y": -0.602792775,
				"z": -2.4691581136,
				"element": "C" 
			},
			{
				"x": -1.4176016844,
				"y": -0.4384047629,
				"z": -3.8011139214,
				"element": "C" 
			},
			{
				"x": -0.6659668254,
				"y": 0.3560579331,
				"z": -4.6886839478,
				"element": "C" 
			},
			{
				"x": 0.47860106,
				"y": 1.0124188333,
				"z": -4.2576830532,
				"element": "C" 
			},
			{
				"x": 0.7257008822,
				"y": 0.0939221618,
				"z": -0.776708381,
				"element": "N" 
			},
			{
				"x": 0.0430067463,
				"y": -0.2879590027,
				"z": 0.3978268713,
				"element": "C" 
			},
			{
				"x": -0.7920526389,
				"y": -1.1693705226,
				"z": 0.4028753368,
				"element": "O" 
			},
			{
				"x": 0.4128168505,
				"y": 0.477810752,
				"z": 1.426046187,
				"element": "O" 
			},
			{
				"x": -0.0961330234,
				"y": 0.2170325191,
				"z": 2.793269945,
				"element": "C" 
			},
			{
				"x": -1.6084534235,
				"y": 0.455797725,
				"z": 2.8282637294,
				"element": "C" 
			},
			{
				"x": 0.2854487377,
				"y": -1.1993843629,
				"z": 3.2317513903,
				"element": "C" 
			},
			{
				"x": 0.6417259723,
				"y": 1.268907245,
				"z": 3.6234313952,
				"element": "C" 
			},
			{
				"x": 4.1991672304,
				"y": -0.9543307523,
				"z": 2.3272958515,
				"element": "H" 
			},
			{
				"x": 4.1213563083,
				"y": 0.8322889848,
				"z": 2.4868668706,
				"element": "H" 
			},
			{
				"x": 5.152844389,
				"y": 0.1047210376,
				"z": 1.238092599,
				"element": "H" 
			},
			{
				"x": 2.7854393961,
				"y": 2.0066086322,
				"z": -2.5130441266,
				"element": "H" 
			},
			{
				"x": -1.6157980935,
				"y": -1.2232699845,
				"z": -1.7898086516,
				"element": "H" 
			},
			{
				"x": -2.306439293,
				"y": -0.945332496,
				"z": -4.165268213,
				"element": "H" 
			},
			{
				"x": -0.9879938743,
				"y": 0.4530096422,
				"z": -5.7211876984,
				"element": "H" 
			},
			{
				"x": 1.0589700399,
				"y": 1.629403913,
				"z": -4.9373817556,
				"element": "H" 
			},
			{
				"x": -1.9647096717,
				"y": 0.3744464565,
				"z": 3.8601773614,
				"element": "H" 
			},
			{
				"x": -1.8439928852,
				"y": 1.4611898984,
				"z": 2.4660551486,
				"element": "H" 
			},
			{
				"x": -2.1370297831,
				"y": -0.2751901392,
				"z": 2.2161137361,
				"element": "H" 
			},
			{
				"x": 0.0294336581,
				"y": -1.3324146708,
				"z": 4.2876570129,
				"element": "H" 
			},
			{
				"x": 1.362203602,
				"y": -1.3543836264,
				"z": 3.1178512539,
				"element": "H" 
			},
			{
				"x": -0.2433021721,
				"y": -1.9525667186,
				"z": 2.6469255669,
				"element": "H" 
			},
			{
				"x": 0.4187473862,
				"y": 2.2753697636,
				"z": 3.2587244076,
				"element": "H" 
			},
			{
				"x": 0.3306999799,
				"y": 1.2018004767,
				"z": 4.6700104422,
				"element": "H" 
			},
			{
				"x": 1.7230819029,
				"y": 1.1155615251,
				"z": 3.5728007959,
				"element": "H" 
			}
		],
		 "valence_orbital": [ 
			{
				"type": "occ",
				"energy": -0.28791,
				"method": "rhf"
			},
			{
				"type": "occ",
				"energy": -0.2825,
				"method": "rhf"
			},
			{
				"type": "occ",
				"energy": -0.27679,
				"method": "rhf"
			},
			{
				"type": "occ",
				"energy": -0.23417,
				"method": "rhf"
			},
			{
				"type": "occ",
				"energy": -0.22093,
				"method": "rhf"
			},
			{
				"type": "unocc",
				"energy": -0.04937,
				"method": "rhf"
			},
			{
				"type": "unocc",
				"energy": -0.00327,
				"method": "rhf"
			},
			{
				"type": "unocc",
				"energy": 0.02291,
				"method": "rhf"
			},
			{
				"type": "unocc",
				"energy": 0.03448,
				"method": "rhf"
			},
			{
				"type": "unocc",
				"energy": 0.06628,
				"method": "rhf"
			}
		],
		"cosmo_sigma_profile": { 
			"-0.025": 0.0,
			"-0.024": 0.0,
			"-0.023": 0.0,
			"-0.022": 0.0,
			"-0.021": 0.0,
			"-0.02": 0.0,
			"-0.019": 0.0,
			"-0.018": 0.0,
			"-0.017": 0.0,
			"-0.016": 0.0,
			"-0.015": 0.0,
			"-0.014": 0.0,
			"-0.013": 0.0,
			"-0.012": 0.0,
			"-0.011": 0.0,
			"-0.01": 0.0,
			"-0.009": 0.00516238002588,
			"-0.008": 1.03818762926,
			"-0.007": 2.27987580506,
			"-0.006": 11.1981688701,
			"-0.005": 21.918861927,
			"-0.004": 31.4279590603,
			"-0.003": 31.573577065,
			"-0.002": 29.1824445084,
			"-0.001": 29.5309165852,
			"0.0": 37.7516304088,
			"0.001": 26.0888478504,
			"0.002": 21.2947437186,
			"0.003": 20.7785912982,
			"0.004": 15.6690629151,
			"0.005": 12.8005316954,
			"0.006": 4.39229258946,
			"0.007": 3.66650184269,
			"0.008": 3.06810077663,
			"0.009": 3.33352008369,
			"0.01": 3.39687941447,
			"0.011": 5.21779107322,
			"0.012": 3.84699057016,
			"0.013": 0.337400232866,
			"0.014": 0.0,
			"0.015": 0.0,
			"0.016": 0.0,
			"0.017": 0.0,
			"0.018": 0.0,
			"0.019": 0.0,
			"0.02": 0.0,
			"0.021": 0.0,
			"0.022": 0.0,
			"0.023": 0.0,
			"0.024": 0.0,
			"0.025": 0.0
		}
	}
}
