{
	 "smiles": "ClC1=C2C=CC(=CC2=C(Cl)C=C1)S(Cl)(=O)=O", 
	 "Tm": 401.15, 
	 "num_atms": 21, 
	 "gaussian": { 
		 "optdone": 1, 
		 "sigma_profile": "yes", 
		 "theory": "DFT", 
		 "functional": "B3LYP", 
		 "basiset": "6-31G**", 
		 "properties": { 
			 "R2extent": 6822.8048, 
			 "electric_dipole_moment_norm": 5.39464693006, 
			 "electric_quadrupole_moment_norm": 14.7331498027, 
			 "total_energy": -2313.22826995, 
			 "HOMO_LUMO_gap": 0.15041, 
			 "cosmo_polarized_energy": -9.0, 
			 "cosmo_cavitation_energy": 32.56, 
			 "cosmo_dispersion_energy": -24.53, 
			 "cosmo_repulsion_energy": 1.85, 
			 "cosmo_total_nonelectrostatic_energy": 9.88, 
			 "SMD_solvation_energy": 3.43 
		},
		"coords": [
			{
				"x": -1.2195773096,
				"y": -0.2524503707,
				"z": 3.1794827347,
				"element": "Cl" 
			},
			{
				"x": 0.1138034769,
				"y": 0.5290542342,
				"z": 2.3497011861,
				"element": "C" 
			},
			{
				"x": 0.2344698103,
				"y": 0.4248213936,
				"z": 0.9334969593,
				"element": "C" 
			},
			{
				"x": -0.6885300281,
				"y": -0.3010400486,
				"z": 0.1310830778,
				"element": "C" 
			},
			{
				"x": -0.5429859749,
				"y": -0.3817347856,
				"z": -1.2321628794,
				"element": "C" 
			},
			{
				"x": 0.5510476979,
				"y": 0.2788577375,
				"z": -1.8336154534,
				"element": "C" 
			},
			{
				"x": 1.4775616792,
				"y": 0.9932088107,
				"z": -1.1124359443,
				"element": "C" 
			},
			{
				"x": 1.3454620563,
				"y": 1.0843431157,
				"z": 0.2966301533,
				"element": "C" 
			},
			{
				"x": 2.270731491,
				"y": 1.8050359435,
				"z": 1.109049387,
				"element": "C" 
			},
			{
				"x": 3.6367125389,
				"y": 2.6188405736,
				"z": 0.3740562216,
				"element": "Cl" 
			},
			{
				"x": 2.115027851,
				"y": 1.8798119986,
				"z": 2.4731831587,
				"element": "C" 
			},
			{
				"x": 1.0265742211,
				"y": 1.2358369528,
				"z": 3.0980464862,
				"element": "C" 
			},
			{
				"x": 0.7574156569,
				"y": 0.162057651,
				"z": -3.6063344068,
				"element": "S" 
			},
			{
				"x": -0.5495496762,
				"y": 1.7103143751,
				"z": -4.2724268822,
				"element": "Cl" 
			},
			{
				"x": 0.1718732563,
				"y": -1.088909961,
				"z": -4.0710171301,
				"element": "O" 
			},
			{
				"x": 2.1057385124,
				"y": 0.5773135928,
				"z": -3.969553205,
				"element": "O" 
			},
			{
				"x": -1.5177865083,
				"y": -0.8024870051,
				"z": 0.6148387025,
				"element": "H" 
			},
			{
				"x": -1.2402876672,
				"y": -0.946257466,
				"z": -1.840136482,
				"element": "H" 
			},
			{
				"x": 2.3062947865,
				"y": 1.4786202684,
				"z": -1.6126365338,
				"element": "H" 
			},
			{
				"x": 2.8289816365,
				"y": 2.4339514367,
				"z": 3.0714583751,
				"element": "H" 
			},
			{
				"x": 0.910622493,
				"y": 1.299111553,
				"z": 4.1739924746,
				"element": "H" 
			}
		],
		 "valence_orbital": [ 
			{
				"type": "occ",
				"energy": -0.33135,
				"method": "rhf"
			},
			{
				"type": "occ",
				"energy": -0.31695,
				"method": "rhf"
			},
			{
				"type": "occ",
				"energy": -0.30803,
				"method": "rhf"
			},
			{
				"type": "occ",
				"energy": -0.29265,
				"method": "rhf"
			},
			{
				"type": "occ",
				"energy": -0.25129,
				"method": "rhf"
			},
			{
				"type": "unocc",
				"energy": -0.10088,
				"method": "rhf"
			},
			{
				"type": "unocc",
				"energy": -0.07941,
				"method": "rhf"
			},
			{
				"type": "unocc",
				"energy": -0.05696,
				"method": "rhf"
			},
			{
				"type": "unocc",
				"energy": -0.01168,
				"method": "rhf"
			},
			{
				"type": "unocc",
				"energy": 0.00134,
				"method": "rhf"
			}
		],
		"cosmo_sigma_profile": { 
			"-0.025": 0.0,
			"-0.024": 0.0,
			"-0.023": 0.0,
			"-0.022": 0.0,
			"-0.021": 0.0,
			"-0.02": 0.0,
			"-0.019": 0.0,
			"-0.018": 0.0,
			"-0.017": 0.0,
			"-0.016": 0.0,
			"-0.015": 0.0,
			"-0.014": 0.0,
			"-0.013": 0.0,
			"-0.012": 0.0,
			"-0.011": 0.0,
			"-0.01": 0.00867776419457,
			"-0.009": 2.7150520017,
			"-0.008": 7.71507434824,
			"-0.007": 7.48036502327,
			"-0.006": 7.52218096663,
			"-0.005": 9.19877499109,
			"-0.004": 10.7139366426,
			"-0.003": 14.5748187532,
			"-0.002": 23.215099095,
			"-0.001": 38.8349243905,
			"0.0": 34.7026336727,
			"0.001": 24.5802042291,
			"0.002": 19.8066565597,
			"0.003": 27.8161952773,
			"0.004": 15.9665697286,
			"0.005": 2.72422815678,
			"0.006": 3.19579542395,
			"0.007": 7.03772709911,
			"0.008": 9.55478569016,
			"0.009": 3.09693195121,
			"0.01": 0.0,
			"0.011": 0.0,
			"0.012": 0.0,
			"0.013": 0.0,
			"0.014": 0.0,
			"0.015": 0.0,
			"0.016": 0.0,
			"0.017": 0.0,
			"0.018": 0.0,
			"0.019": 0.0,
			"0.02": 0.0,
			"0.021": 0.0,
			"0.022": 0.0,
			"0.023": 0.0,
			"0.024": 0.0,
			"0.025": 0.0
		}
	}
}
