{
	 "smiles": "CCC1NC(=O)C2=CC(=C(Cl)C=C2N1)S(N)(=O)=O", 
	 "Tm": 524.15, 
	 "num_atms": 30, 
	 "gaussian": { 
		 "optdone": 1, 
		 "sigma_profile": "yes", 
		 "theory": "DFT", 
		 "functional": "B3LYP", 
		 "basiset": "6-31G**", 
		 "properties": { 
			 "R2extent": 7136.8585, 
			 "electric_dipole_moment_norm": 10.9492161715, 
			 "electric_quadrupole_moment_norm": 16.955049419, 
			 "total_energy": -1636.55582667, 
			 "HOMO_LUMO_gap": 0.17575, 
			 "cosmo_polarized_energy": -30.95, 
			 "cosmo_cavitation_energy": 36.23, 
			 "cosmo_dispersion_energy": -27.21, 
			 "cosmo_repulsion_energy": 2.05, 
			 "cosmo_total_nonelectrostatic_energy": 11.07, 
			 "SMD_solvation_energy": 4.19 
		},
		"coords": [
			{
				"x": -1.8705260099,
				"y": 4.8724397082,
				"z": 0.8392788639,
				"element": "C" 
			},
			{
				"x": -1.1813818134,
				"y": 4.0884309785,
				"z": -0.282241673,
				"element": "C" 
			},
			{
				"x": -1.0411977838,
				"y": 2.5901237275,
				"z": 0.0028796023,
				"element": "C" 
			},
			{
				"x": -0.1502320447,
				"y": 2.3453262221,
				"z": 1.1288889668,
				"element": "N" 
			},
			{
				"x": 0.3701839576,
				"y": 1.0985099209,
				"z": 1.4169942015,
				"element": "C" 
			},
			{
				"x": 0.8179123886,
				"y": 0.8189232502,
				"z": 2.5207106088,
				"element": "O" 
			},
			{
				"x": 0.3953110672,
				"y": 0.1690736743,
				"z": 0.2554262336,
				"element": "C" 
			},
			{
				"x": 0.8944652713,
				"y": -1.1213043203,
				"z": 0.4092780177,
				"element": "C" 
			},
			{
				"x": 0.9925376833,
				"y": -1.9959581132,
				"z": -0.6728937411,
				"element": "C" 
			},
			{
				"x": 0.5874764386,
				"y": -1.5340534017,
				"z": -1.9391071284,
				"element": "C" 
			},
			{
				"x": 0.650939625,
				"y": -2.5641975945,
				"z": -3.3599176565,
				"element": "Cl" 
			},
			{
				"x": 0.0862848992,
				"y": -0.2516824303,
				"z": -2.1166900791,
				"element": "C" 
			},
			{
				"x": -0.0159775782,
				"y": 0.619694762,
				"z": -1.0180350034,
				"element": "C" 
			},
			{
				"x": -0.4717737772,
				"y": 1.9133292272,
				"z": -1.1599019534,
				"element": "N" 
			},
			{
				"x": 1.7185707271,
				"y": -3.6207060739,
				"z": -0.3598307872,
				"element": "S" 
			},
			{
				"x": 0.5699612396,
				"y": -4.7641783243,
				"z": -0.785367327,
				"element": "N" 
			},
			{
				"x": 1.8602759542,
				"y": -3.7244358601,
				"z": 1.0906863594,
				"element": "O" 
			},
			{
				"x": 2.8426862343,
				"y": -3.80432238,
				"z": -1.2712854524,
				"element": "O" 
			},
			{
				"x": -2.8544289353,
				"y": 4.4534329034,
				"z": 1.0766012686,
				"element": "H" 
			},
			{
				"x": -1.2785412475,
				"y": 4.8859293317,
				"z": 1.7607696572,
				"element": "H" 
			},
			{
				"x": -2.0155605158,
				"y": 5.9144313862,
				"z": 0.5414888256,
				"element": "H" 
			},
			{
				"x": -1.7674046705,
				"y": 4.1952156125,
				"z": -1.204657857,
				"element": "H" 
			},
			{
				"x": -0.1828953985,
				"y": 4.4899656682,
				"z": -0.4854616487,
				"element": "H" 
			},
			{
				"x": -2.0474510391,
				"y": 2.1776983828,
				"z": 0.2203391289,
				"element": "H" 
			},
			{
				"x": -0.2555016817,
				"y": 2.9367411643,
				"z": 1.9427964108,
				"element": "H" 
			},
			{
				"x": 1.2220234081,
				"y": -1.4403539761,
				"z": 1.392747474,
				"element": "H" 
			},
			{
				"x": -0.2250519799,
				"y": 0.0693480261,
				"z": -3.1051545886,
				"element": "H" 
			},
			{
				"x": -0.9288943499,
				"y": 2.1292062047,
				"z": -2.0356233753,
				"element": "H" 
			},
			{
				"x": -0.2515036992,
				"y": -4.732780025,
				"z": -0.1901647263,
				"element": "H" 
			},
			{
				"x": 0.3560936306,
				"y": -4.7615476514,
				"z": -1.7777526215,
				"element": "H" 
			}
		],
		 "valence_orbital": [ 
			{
				"type": "occ",
				"energy": -0.29663,
				"method": "rhf"
			},
			{
				"type": "occ",
				"energy": -0.27581,
				"method": "rhf"
			},
			{
				"type": "occ",
				"energy": -0.2711,
				"method": "rhf"
			},
			{
				"type": "occ",
				"energy": -0.26082,
				"method": "rhf"
			},
			{
				"type": "occ",
				"energy": -0.23594,
				"method": "rhf"
			},
			{
				"type": "unocc",
				"energy": -0.06019,
				"method": "rhf"
			},
			{
				"type": "unocc",
				"energy": -0.03337,
				"method": "rhf"
			},
			{
				"type": "unocc",
				"energy": 0.00253,
				"method": "rhf"
			},
			{
				"type": "unocc",
				"energy": 0.02933,
				"method": "rhf"
			},
			{
				"type": "unocc",
				"energy": 0.05139,
				"method": "rhf"
			}
		],
		"cosmo_sigma_profile": { 
			"-0.025": 0.0,
			"-0.024": 0.0,
			"-0.023": 0.0,
			"-0.022": 0.0,
			"-0.021": 0.0,
			"-0.02": 0.0,
			"-0.019": 0.0,
			"-0.018": 0.0,
			"-0.017": 0.0,
			"-0.016": 0.349745789428,
			"-0.015": 1.98450429264,
			"-0.014": 3.2653005508,
			"-0.013": 4.66382162448,
			"-0.012": 5.09870442721,
			"-0.011": 5.36468092804,
			"-0.01": 4.78762757481,
			"-0.009": 6.30446594399,
			"-0.008": 4.72836818795,
			"-0.007": 6.29869964644,
			"-0.006": 7.16342792094,
			"-0.005": 13.5504078826,
			"-0.004": 15.7093461899,
			"-0.003": 18.4469336228,
			"-0.002": 20.6559629548,
			"-0.001": 23.7932997037,
			"0.0": 27.8134558719,
			"0.001": 21.3336021663,
			"0.002": 11.0529651107,
			"0.003": 10.7292161759,
			"0.004": 7.57639514993,
			"0.005": 6.19027558509,
			"0.006": 7.54484315887,
			"0.007": 6.55577074001,
			"0.008": 6.38276011305,
			"0.009": 6.33307438944,
			"0.01": 10.5535347215,
			"0.011": 12.7449725187,
			"0.012": 4.76745978219,
			"0.013": 5.67208876839,
			"0.014": 1.77413056792,
			"0.015": 0.00914570452242,
			"0.016": 0.0,
			"0.017": 0.0,
			"0.018": 0.0,
			"0.019": 0.0,
			"0.02": 0.0,
			"0.021": 0.0,
			"0.022": 0.0,
			"0.023": 0.0,
			"0.024": 0.0,
			"0.025": 0.0
		}
	}
}
