{
	 "smiles": "ClC1=CC=C(C=NCCN=CC2=CC=C(Cl)C=C2)C=C1", 
	 "Tm": 398.5, 
	 "num_atms": 34, 
	 "gaussian": { 
		 "optdone": 1, 
		 "sigma_profile": "yes", 
		 "theory": "DFT", 
		 "functional": "B3LYP", 
		 "basiset": "6-31G**", 
		 "properties": { 
			 "R2extent": 19264.5801, 
			 "electric_dipole_moment_norm": 1.8193285712, 
			 "electric_quadrupole_moment_norm": 22.5653672153, 
			 "total_energy": -1648.01001415, 
			 "HOMO_LUMO_gap": 0.18102, 
			 "cosmo_polarized_energy": -10.66, 
			 "cosmo_cavitation_energy": 43.78, 
			 "cosmo_dispersion_energy": -31.69, 
			 "cosmo_repulsion_energy": 2.46, 
			 "cosmo_total_nonelectrostatic_energy": 14.55, 
			 "SMD_solvation_energy": 2.59 
		},
		"coords": [
			{
				"x": 5.687715344,
				"y": 4.7348555701,
				"z": -3.9515278953,
				"element": "Cl" 
			},
			{
				"x": 4.2577442406,
				"y": 3.8819317496,
				"z": -3.3926347296,
				"element": "C" 
			},
			{
				"x": 3.4534013588,
				"y": 3.216263667,
				"z": -4.3162078538,
				"element": "C" 
			},
			{
				"x": 2.3210798248,
				"y": 2.5428984652,
				"z": -3.860262808,
				"element": "C" 
			},
			{
				"x": 1.9883428181,
				"y": 2.5290694362,
				"z": -2.4987830405,
				"element": "C" 
			},
			{
				"x": 0.7864837498,
				"y": 1.8071808809,
				"z": -2.0478103546,
				"element": "C" 
			},
			{
				"x": 0.4315787059,
				"y": 1.7547780556,
				"z": -0.8250120548,
				"element": "N" 
			},
			{
				"x": -0.7686549858,
				"y": 1.0147532789,
				"z": -0.487776459,
				"element": "C" 
			},
			{
				"x": -0.4450793599,
				"y": -0.0653065578,
				"z": 0.5592528351,
				"element": "C" 
			},
			{
				"x": -1.6701596012,
				"y": -0.6723597766,
				"z": 1.0415768563,
				"element": "N" 
			},
			{
				"x": -1.7977729594,
				"y": -1.9365850124,
				"z": 0.9447000941,
				"element": "C" 
			},
			{
				"x": -3.0002523147,
				"y": -2.6537763998,
				"z": 1.4014668014,
				"element": "C" 
			},
			{
				"x": -3.0737034219,
				"y": -4.0465545497,
				"z": 1.262533443,
				"element": "C" 
			},
			{
				"x": -4.1996386499,
				"y": -4.7521444908,
				"z": 1.6842537685,
				"element": "C" 
			},
			{
				"x": -5.2611338832,
				"y": -4.0486773402,
				"z": 2.2512037639,
				"element": "C" 
			},
			{
				"x": -6.6866321573,
				"y": -4.9234508403,
				"z": 2.7872914125,
				"element": "Cl" 
			},
			{
				"x": -5.2132253132,
				"y": -2.6592387665,
				"z": 2.4019823386,
				"element": "C" 
			},
			{
				"x": -4.084078362,
				"y": -1.9696375903,
				"z": 1.9770487709,
				"element": "C" 
			},
			{
				"x": 2.8160131174,
				"y": 3.2088667068,
				"z": -1.5894699341,
				"element": "C" 
			},
			{
				"x": 3.9480989205,
				"y": 3.8843945961,
				"z": -2.0289344691,
				"element": "C" 
			},
			{
				"x": 3.7101917162,
				"y": 3.2265604867,
				"z": -5.369520475,
				"element": "H" 
			},
			{
				"x": 1.6876731766,
				"y": 2.0211974097,
				"z": -4.5734528157,
				"element": "H" 
			},
			{
				"x": 0.2051322927,
				"y": 1.3120101294,
				"z": -2.8441831878,
				"element": "H" 
			},
			{
				"x": -1.4930819687,
				"y": 1.706490517,
				"z": -0.04016893,
				"element": "H" 
			},
			{
				"x": -1.2494915633,
				"y": 0.5507810182,
				"z": -1.3660107275,
				"element": "H" 
			},
			{
				"x": 0.0576624934,
				"y": 0.426680014,
				"z": 1.4011819515,
				"element": "H" 
			},
			{
				"x": 0.260125921,
				"y": -0.7990344545,
				"z": 0.1325310064,
				"element": "H" 
			},
			{
				"x": -1.0048349887,
				"y": -2.5699801343,
				"z": 0.5117610813,
				"element": "H" 
			},
			{
				"x": -2.2408109701,
				"y": -4.5869380519,
				"z": 0.819487584,
				"element": "H" 
			},
			{
				"x": -4.2557601677,
				"y": -5.8295287682,
				"z": 1.5765399628,
				"element": "H" 
			},
			{
				"x": -6.0514440679,
				"y": -2.1342495017,
				"z": 2.846728373,
				"element": "H" 
			},
			{
				"x": -4.0196804951,
				"y": -0.8918856695,
				"z": 2.0826366742,
				"element": "H" 
			},
			{
				"x": 2.5515516954,
				"y": 3.1950156369,
				"z": -0.5374667457,
				"element": "H" 
			},
			{
				"x": 4.5889398548,
				"y": 4.4102202862,
				"z": -1.3297542371,
				"element": "H" 
			}
		],
		 "valence_orbital": [ 
			{
				"type": "occ",
				"energy": -0.2697,
				"method": "rhf"
			},
			{
				"type": "occ",
				"energy": -0.26145,
				"method": "rhf"
			},
			{
				"type": "occ",
				"energy": -0.26135,
				"method": "rhf"
			},
			{
				"type": "occ",
				"energy": -0.24452,
				"method": "rhf"
			},
			{
				"type": "occ",
				"energy": -0.23837,
				"method": "rhf"
			},
			{
				"type": "unocc",
				"energy": -0.05735,
				"method": "rhf"
			},
			{
				"type": "unocc",
				"energy": -0.05195,
				"method": "rhf"
			},
			{
				"type": "unocc",
				"energy": -0.0183,
				"method": "rhf"
			},
			{
				"type": "unocc",
				"energy": -0.01823,
				"method": "rhf"
			},
			{
				"type": "unocc",
				"energy": 0.02651,
				"method": "rhf"
			}
		],
		"cosmo_sigma_profile": { 
			"-0.025": 0.0,
			"-0.024": 0.0,
			"-0.023": 0.0,
			"-0.022": 0.0,
			"-0.021": 0.0,
			"-0.02": 0.0,
			"-0.019": 0.0,
			"-0.018": 0.0,
			"-0.017": 0.0,
			"-0.016": 0.0,
			"-0.015": 0.0,
			"-0.014": 0.0,
			"-0.013": 0.0,
			"-0.012": 0.0,
			"-0.011": 0.0,
			"-0.01": 0.0,
			"-0.009": 0.0,
			"-0.008": 2.16971623373,
			"-0.007": 14.4467098012,
			"-0.006": 17.6094588033,
			"-0.005": 21.8051993609,
			"-0.004": 21.7998004842,
			"-0.003": 23.892783198,
			"-0.002": 24.9097151614,
			"-0.001": 26.5786670094,
			"0.0": 26.8497273135,
			"0.001": 33.3280909497,
			"0.002": 39.2781781172,
			"0.003": 45.0105647755,
			"0.004": 27.0694579108,
			"0.005": 13.1054980531,
			"0.006": 3.46807545042,
			"0.007": 3.34349855162,
			"0.008": 3.09501258896,
			"0.009": 1.55290007715,
			"0.01": 1.67051938788,
			"0.011": 1.98073734184,
			"0.012": 1.35451260666,
			"0.013": 0.635779121556,
			"0.014": 0.0,
			"0.015": 0.0,
			"0.016": 0.0,
			"0.017": 0.0,
			"0.018": 0.0,
			"0.019": 0.0,
			"0.02": 0.0,
			"0.021": 0.0,
			"0.022": 0.0,
			"0.023": 0.0,
			"0.024": 0.0,
			"0.025": 0.0
		}
	}
}
