{
	 "smiles": "NC1=C(N)C(Br)=CC(=C1)C(F)(F)F", 
	 "Tm": 334.15, 
	 "num_atms": 19, 
	 "gaussian": { 
		 "optdone": 1, 
		 "sigma_profile": "yes", 
		 "theory": "DFT", 
		 "functional": "B3LYP", 
		 "basiset": "6-31G**", 
		 "properties": { 
			 "R2extent": 4370.6594, 
			 "electric_dipole_moment_norm": 4.04318214529, 
			 "electric_quadrupole_moment_norm": 7.20481467284, 
			 "total_energy": -3250.80646057, 
			 "HOMO_LUMO_gap": 0.19656, 
			 "cosmo_polarized_energy": -10.01, 
			 "cosmo_cavitation_energy": 26.57, 
			 "cosmo_dispersion_energy": -19.74, 
			 "cosmo_repulsion_energy": 1.51, 
			 "cosmo_total_nonelectrostatic_energy": 8.34, 
			 "SMD_solvation_energy": 4.51 
		},
		"coords": [
			{
				"x": -1.538219735,
				"y": 1.8832470533,
				"z": 0.3106749361,
				"element": "N" 
			},
			{
				"x": -0.5822984475,
				"y": 0.9640735211,
				"z": -0.1538682202,
				"element": "C" 
			},
			{
				"x": 0.7151495623,
				"y": 1.4709914724,
				"z": -0.4369577751,
				"element": "C" 
			},
			{
				"x": 0.9279652273,
				"y": 2.8375354875,
				"z": -0.2834574782,
				"element": "N" 
			},
			{
				"x": 1.6821052092,
				"y": 0.569182609,
				"z": -0.895990636,
				"element": "C" 
			},
			{
				"x": 3.4379564743,
				"y": 1.219300182,
				"z": -1.3074135626,
				"element": "Br" 
			},
			{
				"x": 1.4200199744,
				"y": -0.7899158165,
				"z": -1.0539499775,
				"element": "C" 
			},
			{
				"x": 0.1529185094,
				"y": -1.2707159212,
				"z": -0.7372917153,
				"element": "C" 
			},
			{
				"x": -0.8458943565,
				"y": -0.3943669836,
				"z": -0.2972853758,
				"element": "C" 
			},
			{
				"x": -0.142807554,
				"y": -2.7394186083,
				"z": -0.8262110172,
				"element": "C" 
			},
			{
				"x": 0.7068380257,
				"y": -3.3814338524,
				"z": -1.6575600106,
				"element": "F" 
			},
			{
				"x": -1.4009566645,
				"y": -2.9715599697,
				"z": -1.2715977093,
				"element": "F" 
			},
			{
				"x": -0.0469530493,
				"y": -3.3489656046,
				"z": 0.3804799934,
				"element": "F" 
			},
			{
				"x": -1.5617167229,
				"y": 2.734678219,
				"z": -0.243038158,
				"element": "H" 
			},
			{
				"x": -2.4673663255,
				"y": 1.4893970355,
				"z": 0.3922332578,
				"element": "H" 
			},
			{
				"x": 1.9003004557,
				"y": 3.1117737656,
				"z": -0.3506426382,
				"element": "H" 
			},
			{
				"x": 0.474981873,
				"y": 3.2169430245,
				"z": 0.5412602865,
				"element": "H" 
			},
			{
				"x": 2.193072903,
				"y": -1.4570863349,
				"z": -1.4117690082,
				"element": "H" 
			},
			{
				"x": -1.8411953592,
				"y": -0.773359279,
				"z": -0.0866151916,
				"element": "H" 
			}
		],
		 "valence_orbital": [ 
			{
				"type": "occ",
				"energy": -0.32689,
				"method": "rhf"
			},
			{
				"type": "occ",
				"energy": -0.30032,
				"method": "rhf"
			},
			{
				"type": "occ",
				"energy": -0.29831,
				"method": "rhf"
			},
			{
				"type": "occ",
				"energy": -0.23694,
				"method": "rhf"
			},
			{
				"type": "occ",
				"energy": -0.2123,
				"method": "rhf"
			},
			{
				"type": "unocc",
				"energy": -0.01574,
				"method": "rhf"
			},
			{
				"type": "unocc",
				"energy": -0.00683,
				"method": "rhf"
			},
			{
				"type": "unocc",
				"energy": 0.00153,
				"method": "rhf"
			},
			{
				"type": "unocc",
				"energy": 0.06344,
				"method": "rhf"
			},
			{
				"type": "unocc",
				"energy": 0.09759,
				"method": "rhf"
			}
		],
		"cosmo_sigma_profile": { 
			"-0.025": 0.0,
			"-0.024": 0.0,
			"-0.023": 0.0,
			"-0.022": 0.0,
			"-0.021": 0.0,
			"-0.02": 0.0,
			"-0.019": 0.0,
			"-0.018": 0.0,
			"-0.017": 0.0,
			"-0.016": 0.0,
			"-0.015": 0.0,
			"-0.014": 0.0,
			"-0.013": 0.751454406997,
			"-0.012": 3.38365364022,
			"-0.011": 4.50137599942,
			"-0.01": 4.90479438958,
			"-0.009": 5.56368019793,
			"-0.008": 3.92659991957,
			"-0.007": 5.76187692156,
			"-0.006": 6.08188771001,
			"-0.005": 5.33895455913,
			"-0.004": 7.03811315794,
			"-0.003": 8.05226507571,
			"-0.002": 8.70280253838,
			"-0.001": 9.23637328563,
			"0.0": 13.700367631,
			"0.001": 15.9605800899,
			"0.002": 28.4419142385,
			"0.003": 49.3214677013,
			"0.004": 21.0466395495,
			"0.005": 4.64159614962,
			"0.006": 1.50592975464,
			"0.007": 1.22189922703,
			"0.008": 0.936059740924,
			"0.009": 1.02922863193,
			"0.01": 1.28206533921,
			"0.011": 1.17607017685,
			"0.012": 0.978182072697,
			"0.013": 0.61670585704,
			"0.014": 0.0489970858257,
			"0.015": 0.0,
			"0.016": 0.0,
			"0.017": 0.0,
			"0.018": 0.0,
			"0.019": 0.0,
			"0.02": 0.0,
			"0.021": 0.0,
			"0.022": 0.0,
			"0.023": 0.0,
			"0.024": 0.0,
			"0.025": 0.0
		}
	}
}
