{
	 "smiles": "CC12CCC3C(CCC4=CC(=O)CCC34C)C1CCC2O", 
	 "Tm": 426.15, 
	 "num_atms": 49, 
	 "gaussian": { 
		 "optdone": 1, 
		 "sigma_profile": "yes", 
		 "theory": "DFT", 
		 "functional": "B3LYP", 
		 "basiset": "6-31G**", 
		 "properties": { 
			 "R2extent": 6875.8742, 
			 "electric_dipole_moment_norm": 3.60700011228, 
			 "electric_quadrupole_moment_norm": 33.9975364105, 
			 "total_energy": -891.335488874, 
			 "HOMO_LUMO_gap": 0.18748, 
			 "cosmo_polarized_energy": -13.63, 
			 "cosmo_cavitation_energy": 41.29, 
			 "cosmo_dispersion_energy": -29.92, 
			 "cosmo_repulsion_energy": 2.2, 
			 "cosmo_total_nonelectrostatic_energy": 13.57, 
			 "SMD_solvation_energy": 6.06 
		},
		"coords": [
			{
				"x": 2.9468865591,
				"y": 0.5221629909,
				"z": -1.7320462328,
				"element": "C" 
			},
			{
				"x": 1.7550257739,
				"y": 0.7520633303,
				"z": -0.7747044747,
				"element": "C" 
			},
			{
				"x": 0.508014856,
				"y": 1.1301142396,
				"z": -1.5982032209,
				"element": "C" 
			},
			{
				"x": -0.1737856197,
				"y": -0.12346233,
				"z": -2.1697930269,
				"element": "C" 
			},
			{
				"x": -0.6984635864,
				"y": -1.1111623022,
				"z": -1.0865736817,
				"element": "C" 
			},
			{
				"x": 0.0336505022,
				"y": -0.9474785997,
				"z": 0.2940445661,
				"element": "C" 
			},
			{
				"x": -0.7903742845,
				"y": -0.0982999608,
				"z": 1.284581706,
				"element": "C" 
			},
			{
				"x": -2.1528868966,
				"y": -0.7844563526,
				"z": 1.5827636394,
				"element": "C" 
			},
			{
				"x": -2.5718105415,
				"y": -1.6845115929,
				"z": 0.4426166066,
				"element": "C" 
			},
			{
				"x": -3.0862139898,
				"y": -2.911392349,
				"z": 0.6641936324,
				"element": "C" 
			},
			{
				"x": -3.3466536957,
				"y": -3.8976564554,
				"z": -0.4000955973,
				"element": "C" 
			},
			{
				"x": -3.8907525023,
				"y": -4.9696590638,
				"z": -0.1718511195,
				"element": "O" 
			},
			{
				"x": -2.8119773276,
				"y": -3.5343707992,
				"z": -1.7782102942,
				"element": "C" 
			},
			{
				"x": -2.9111028178,
				"y": -2.0290997605,
				"z": -2.0437071906,
				"element": "C" 
			},
			{
				"x": -2.27655077,
				"y": -1.1370497767,
				"z": -0.9453614859,
				"element": "C" 
			},
			{
				"x": -2.93892771,
				"y": 0.2612676857,
				"z": -1.0840597028,
				"element": "C" 
			},
			{
				"x": 1.5192649694,
				"y": -0.5513703404,
				"z": 0.0708571335,
				"element": "C" 
			},
			{
				"x": 2.3604987091,
				"y": -0.3687949574,
				"z": 1.3742028158,
				"element": "C" 
			},
			{
				"x": 3.0300898956,
				"y": 1.0276068902,
				"z": 1.2816587155,
				"element": "C" 
			},
			{
				"x": 2.1843494824,
				"y": 1.8241269842,
				"z": 0.2730655226,
				"element": "C" 
			},
			{
				"x": 1.0934894142,
				"y": 2.4989430503,
				"z": 0.9029042866,
				"element": "O" 
			},
			{
				"x": 2.6967415086,
				"y": -0.218855126,
				"z": -2.4983425052,
				"element": "H" 
			},
			{
				"x": 3.8351372886,
				"y": 0.1535928243,
				"z": -1.2091092749,
				"element": "H" 
			},
			{
				"x": 3.2212135852,
				"y": 1.4506857491,
				"z": -2.2454737911,
				"element": "H" 
			},
			{
				"x": -0.1859056249,
				"y": 1.701230154,
				"z": -0.9767447478,
				"element": "H" 
			},
			{
				"x": 0.7966417679,
				"y": 1.7974315941,
				"z": -2.4202789512,
				"element": "H" 
			},
			{
				"x": 0.5485289689,
				"y": -0.6531226013,
				"z": -2.8022721868,
				"element": "H" 
			},
			{
				"x": -0.9810530312,
				"y": 0.1696149699,
				"z": -2.8474104437,
				"element": "H" 
			},
			{
				"x": -0.4318114323,
				"y": -2.1180582264,
				"z": -1.428964119,
				"element": "H" 
			},
			{
				"x": 0.0668436186,
				"y": -1.9493685687,
				"z": 0.7455022182,
				"element": "H" 
			},
			{
				"x": -0.9497094295,
				"y": 0.9090733255,
				"z": 0.8954622532,
				"element": "H" 
			},
			{
				"x": -0.2532059033,
				"y": 0.0137942792,
				"z": 2.2334685737,
				"element": "H" 
			},
			{
				"x": -2.0918157916,
				"y": -1.3781684459,
				"z": 2.5003671753,
				"element": "H" 
			},
			{
				"x": -2.9185547171,
				"y": -0.0178315484,
				"z": 1.7594984414,
				"element": "H" 
			},
			{
				"x": -3.2849001936,
				"y": -3.256528608,
				"z": 1.6769558343,
				"element": "H" 
			},
			{
				"x": -3.356037183,
				"y": -4.1148893827,
				"z": -2.528532851,
				"element": "H" 
			},
			{
				"x": -1.7665754259,
				"y": -3.872101126,
				"z": -1.8164375588,
				"element": "H" 
			},
			{
				"x": -3.9739638944,
				"y": -1.7677030607,
				"z": -2.1233507529,
				"element": "H" 
			},
			{
				"x": -2.4634075737,
				"y": -1.7810360418,
				"z": -3.0137071362,
				"element": "H" 
			},
			{
				"x": -2.9052865723,
				"y": 0.6020766222,
				"z": -2.1224890722,
				"element": "H" 
			},
			{
				"x": -2.4734539455,
				"y": 1.0335543673,
				"z": -0.4704931422,
				"element": "H" 
			},
			{
				"x": -3.9949368063,
				"y": 0.1972669399,
				"z": -0.8014937219,
				"element": "H" 
			},
			{
				"x": 1.9402317726,
				"y": -1.3898717147,
				"z": -0.4983668608,
				"element": "H" 
			},
			{
				"x": 3.1083546319,
				"y": -1.1598300108,
				"z": 1.4806117254,
				"element": "H" 
			},
			{
				"x": 1.7290896679,
				"y": -0.4397171187,
				"z": 2.2657356392,
				"element": "H" 
			},
			{
				"x": 3.0869354995,
				"y": 1.5484926131,
				"z": 2.2429219374,
				"element": "H" 
			},
			{
				"x": 4.0566928097,
				"y": 0.9360762175,
				"z": 0.9139390549,
				"element": "H" 
			},
			{
				"x": 2.7581091305,
				"y": 2.6244639446,
				"z": -0.2065350926,
				"element": "H" 
			},
			{
				"x": 0.7419268545,
				"y": 1.9316074488,
				"z": 1.5997567576,
				"element": "H" 
			}
		],
		 "valence_orbital": [ 
			{
				"type": "occ",
				"energy": -0.29374,
				"method": "rhf"
			},
			{
				"type": "occ",
				"energy": -0.28698,
				"method": "rhf"
			},
			{
				"type": "occ",
				"energy": -0.2605,
				"method": "rhf"
			},
			{
				"type": "occ",
				"energy": -0.25178,
				"method": "rhf"
			},
			{
				"type": "occ",
				"energy": -0.22895,
				"method": "rhf"
			},
			{
				"type": "unocc",
				"energy": -0.04147,
				"method": "rhf"
			},
			{
				"type": "unocc",
				"energy": 0.0504,
				"method": "rhf"
			},
			{
				"type": "unocc",
				"energy": 0.05882,
				"method": "rhf"
			},
			{
				"type": "unocc",
				"energy": 0.07273,
				"method": "rhf"
			},
			{
				"type": "unocc",
				"energy": 0.08031,
				"method": "rhf"
			}
		],
		"cosmo_sigma_profile": { 
			"-0.025": 0.0,
			"-0.024": 0.0,
			"-0.023": 0.0,
			"-0.022": 0.0,
			"-0.021": 0.0,
			"-0.02": 0.0,
			"-0.019": 0.0,
			"-0.018": 0.0,
			"-0.017": 0.0,
			"-0.016": 0.0,
			"-0.015": 0.0,
			"-0.014": 0.0,
			"-0.013": 0.0160314636417,
			"-0.012": 0.833872369554,
			"-0.011": 1.1841209332,
			"-0.01": 0.588010871671,
			"-0.009": 0.999239435621,
			"-0.008": 1.36764909167,
			"-0.007": 1.11964671018,
			"-0.006": 1.21347343143,
			"-0.005": 6.82332506388,
			"-0.004": 20.7745704558,
			"-0.003": 41.9508857124,
			"-0.002": 57.9678958436,
			"-0.001": 53.1356462473,
			"0.0": 39.1601056901,
			"0.001": 30.3451606008,
			"0.002": 12.8980656485,
			"0.003": 6.48487197303,
			"0.004": 3.75326063131,
			"0.005": 2.88338971094,
			"0.006": 2.8397312351,
			"0.007": 3.14850686286,
			"0.008": 2.41975441344,
			"0.009": 3.05189454701,
			"0.01": 2.73981155249,
			"0.011": 2.34547002575,
			"0.012": 4.37229736416,
			"0.013": 6.5683610716,
			"0.014": 4.91549739071,
			"0.015": 1.70124459722,
			"0.016": 0.0,
			"0.017": 0.0,
			"0.018": 0.0,
			"0.019": 0.0,
			"0.02": 0.0,
			"0.021": 0.0,
			"0.022": 0.0,
			"0.023": 0.0,
			"0.024": 0.0,
			"0.025": 0.0
		}
	}
}
