{
	 "smiles": "NC(=NO)C1=CC(=NC=C1)N1CCCCC1", 
	 "Tm": 453.15, 
	 "num_atms": 32, 
	 "gaussian": { 
		 "optdone": 1, 
		 "sigma_profile": "yes", 
		 "theory": "DFT", 
		 "functional": "B3LYP", 
		 "basiset": "6-31G**", 
		 "properties": { 
			 "R2extent": 5820.0496, 
			 "electric_dipole_moment_norm": 2.2664514665, 
			 "electric_quadrupole_moment_norm": 15.1090866441, 
			 "total_energy": -722.987927441, 
			 "HOMO_LUMO_gap": 0.159, 
			 "cosmo_polarized_energy": -13.6, 
			 "cosmo_cavitation_energy": 33.6, 
			 "cosmo_dispersion_energy": -24.77, 
			 "cosmo_repulsion_energy": 1.97, 
			 "cosmo_total_nonelectrostatic_energy": 10.8, 
			 "SMD_solvation_energy": 3.76 
		},
		"coords": [
			{
				"x": -2.4770994971,
				"y": -3.6776074839,
				"z": -2.7468906313,
				"element": "N" 
			},
			{
				"x": -2.4718827887,
				"y": -2.3004635971,
				"z": -2.4945863303,
				"element": "C" 
			},
			{
				"x": -2.5870716124,
				"y": -1.5442062878,
				"z": -3.5347604652,
				"element": "N" 
			},
			{
				"x": -2.7604315721,
				"y": -0.1751468318,
				"z": -3.2222831399,
				"element": "O" 
			},
			{
				"x": -2.3869643141,
				"y": -1.9217559053,
				"z": -1.0572009652,
				"element": "C" 
			},
			{
				"x": -1.7537497061,
				"y": -0.7533979416,
				"z": -0.6445333983,
				"element": "C" 
			},
			{
				"x": -1.6542223437,
				"y": -0.4741257804,
				"z": 0.7420162332,
				"element": "C" 
			},
			{
				"x": -2.161361602,
				"y": -1.3138117263,
				"z": 1.6686917398,
				"element": "N" 
			},
			{
				"x": -2.7744491528,
				"y": -2.4248121837,
				"z": 1.2485158512,
				"element": "C" 
			},
			{
				"x": -2.9129830509,
				"y": -2.7924981645,
				"z": -0.0823149515,
				"element": "C" 
			},
			{
				"x": -1.0603514331,
				"y": 0.667662518,
				"z": 1.2378236692,
				"element": "N" 
			},
			{
				"x": -0.98997622,
				"y": 0.8466210025,
				"z": 2.6959374428,
				"element": "C" 
			},
			{
				"x": -0.4648677567,
				"y": 2.2460878858,
				"z": 3.0507836283,
				"element": "C" 
			},
			{
				"x": -1.0934176556,
				"y": 3.3044979455,
				"z": 2.1365382547,
				"element": "C" 
			},
			{
				"x": -0.7037400045,
				"y": 3.0484197528,
				"z": 0.6594127444,
				"element": "C" 
			},
			{
				"x": -0.2570501688,
				"y": 1.5884917142,
				"z": 0.4428807704,
				"element": "C" 
			},
			{
				"x": -1.7749871646,
				"y": -4.1939607876,
				"z": -2.2302123494,
				"element": "H" 
			},
			{
				"x": -2.4488142564,
				"y": -3.8781875375,
				"z": -3.7401107927,
				"element": "H" 
			},
			{
				"x": -2.8853226249,
				"y": 0.2018160327,
				"z": -4.1023092478,
				"element": "H" 
			},
			{
				"x": -1.3723986461,
				"y": -0.0757980965,
				"z": -1.3921167023,
				"element": "H" 
			},
			{
				"x": -3.1760556661,
				"y": -3.0639188481,
				"z": 2.0343828079,
				"element": "H" 
			},
			{
				"x": -3.4262943401,
				"y": -3.7030058794,
				"z": -0.3655769758,
				"element": "H" 
			},
			{
				"x": -1.9961361539,
				"y": 0.7095817463,
				"z": 3.103694545,
				"element": "H" 
			},
			{
				"x": -0.3674469827,
				"y": 0.0640686422,
				"z": 3.1533042668,
				"element": "H" 
			},
			{
				"x": -0.697887032,
				"y": 2.4461060721,
				"z": 4.1021021136,
				"element": "H" 
			},
			{
				"x": 0.6287111653,
				"y": 2.2831648297,
				"z": 2.9666876421,
				"element": "H" 
			},
			{
				"x": -0.7953054204,
				"y": 4.3121140416,
				"z": 2.444960196,
				"element": "H" 
			},
			{
				"x": -2.1835060939,
				"y": 3.2548495169,
				"z": 2.2449061409,
				"element": "H" 
			},
			{
				"x": 0.1180874611,
				"y": 3.7072645758,
				"z": 0.3539250928,
				"element": "H" 
			},
			{
				"x": -1.5517916133,
				"y": 3.2748310819,
				"z": 0.0046157977,
				"element": "H" 
			},
			{
				"x": 0.8043715402,
				"y": 1.4791521543,
				"z": 0.7150138515,
				"element": "H" 
			},
			{
				"x": -0.3257052936,
				"y": 1.3304675392,
				"z": -0.6119968386,
				"element": "H" 
			}
		],
		 "valence_orbital": [ 
			{
				"type": "occ",
				"energy": -0.26863,
				"method": "rhf"
			},
			{
				"type": "occ",
				"energy": -0.26735,
				"method": "rhf"
			},
			{
				"type": "occ",
				"energy": -0.24131,
				"method": "rhf"
			},
			{
				"type": "occ",
				"energy": -0.2098,
				"method": "rhf"
			},
			{
				"type": "occ",
				"energy": -0.18948,
				"method": "rhf"
			},
			{
				"type": "unocc",
				"energy": -0.03048,
				"method": "rhf"
			},
			{
				"type": "unocc",
				"energy": 0.01427,
				"method": "rhf"
			},
			{
				"type": "unocc",
				"energy": 0.0609,
				"method": "rhf"
			},
			{
				"type": "unocc",
				"energy": 0.0785,
				"method": "rhf"
			},
			{
				"type": "unocc",
				"energy": 0.08257,
				"method": "rhf"
			}
		],
		"cosmo_sigma_profile": { 
			"-0.025": 0.0,
			"-0.024": 0.0,
			"-0.023": 0.0,
			"-0.022": 0.0,
			"-0.021": 0.0,
			"-0.02": 0.0,
			"-0.019": 0.0,
			"-0.018": 0.0,
			"-0.017": 0.376512852562,
			"-0.016": 0.92719409761,
			"-0.015": 1.14212458951,
			"-0.014": 0.328116205294,
			"-0.013": 1.42301321674,
			"-0.012": 3.02477705933,
			"-0.011": 2.99868923975,
			"-0.01": 2.04872461044,
			"-0.009": 3.62641385929,
			"-0.008": 3.00672467301,
			"-0.007": 2.91808543174,
			"-0.006": 5.1128168107,
			"-0.005": 7.13399668696,
			"-0.004": 12.0641893987,
			"-0.003": 25.2664774238,
			"-0.002": 34.2133959609,
			"-0.001": 29.5689562513,
			"0.0": 23.0582111755,
			"0.001": 18.341857269,
			"0.002": 10.7470662326,
			"0.003": 15.9642653125,
			"0.004": 14.4536617653,
			"0.005": 8.23388649698,
			"0.006": 7.01267913615,
			"0.007": 6.61082768595,
			"0.008": 5.50713115107,
			"0.009": 4.83097654411,
			"0.01": 4.36142469409,
			"0.011": 3.33954830941,
			"0.012": 2.85932518612,
			"0.013": 1.80016662254,
			"0.014": 1.00076845875,
			"0.015": 0.120560662212,
			"0.016": 0.0,
			"0.017": 0.0,
			"0.018": 0.0,
			"0.019": 0.0,
			"0.02": 0.0,
			"0.021": 0.0,
			"0.022": 0.0,
			"0.023": 0.0,
			"0.024": 0.0,
			"0.025": 0.0
		}
	}
}
