{
	 "smiles": "OC1=CC=CC=C1C=N[C@H]1CCCC[C@@H]1N=CC1=CC=CC=C1O", 
	 "Tm": 391.15, 
	 "num_atms": 46, 
	 "gaussian": { 
		 "optdone": 1, 
		 "sigma_profile": "yes", 
		 "theory": "DFT", 
		 "functional": "B3LYP", 
		 "basiset": "6-31G**", 
		 "properties": { 
			 "R2extent": 10797.3725, 
			 "electric_dipole_moment_norm": 1.31434306785, 
			 "electric_quadrupole_moment_norm": 21.7282495712, 
			 "total_energy": -1035.3186893, 
			 "HOMO_LUMO_gap": 0.16839, 
			 "cosmo_polarized_energy": -15.82, 
			 "cosmo_cavitation_energy": 47.54, 
			 "cosmo_dispersion_energy": -32.86, 
			 "cosmo_repulsion_energy": 2.51, 
			 "cosmo_total_nonelectrostatic_energy": 17.19, 
			 "SMD_solvation_energy": 5.66 
		},
		"coords": [
			{
				"x": -0.4536286336,
				"y": 3.1027616986,
				"z": 3.7612404626,
				"element": "O" 
			},
			{
				"x": 0.2280617675,
				"y": 1.9265449182,
				"z": 3.6270110292,
				"element": "C" 
			},
			{
				"x": 1.4525441123,
				"y": 1.7025184989,
				"z": 4.2617447935,
				"element": "C" 
			},
			{
				"x": 2.1123218706,
				"y": 0.485913555,
				"z": 4.0951820755,
				"element": "C" 
			},
			{
				"x": 1.5501484462,
				"y": -0.5132595979,
				"z": 3.3000372112,
				"element": "C" 
			},
			{
				"x": 0.3301001646,
				"y": -0.2817267057,
				"z": 2.6661726568,
				"element": "C" 
			},
			{
				"x": -0.3509651157,
				"y": 0.9375836236,
				"z": 2.8028407268,
				"element": "C" 
			},
			{
				"x": -1.6864656397,
				"y": 1.2089599867,
				"z": 2.205945726,
				"element": "C" 
			},
			{
				"x": -2.156248349,
				"y": 0.9491319245,
				"z": 1.0466816466,
				"element": "N" 
			},
			{
				"x": -1.3530255996,
				"y": 0.3511911495,
				"z": -0.0161845902,
				"element": "C" 
			},
			{
				"x": -1.8663305691,
				"y": -1.0699687696,
				"z": -0.3112110369,
				"element": "C" 
			},
			{
				"x": -3.360347561,
				"y": -1.0884504933,
				"z": -0.701279071,
				"element": "C" 
			},
			{
				"x": -3.7588291426,
				"y": 0.1610164983,
				"z": -1.5209103221,
				"element": "C" 
			},
			{
				"x": -2.5515059209,
				"y": 0.7289669851,
				"z": -2.280152191,
				"element": "C" 
			},
			{
				"x": -1.4917374702,
				"y": 1.2582189376,
				"z": -1.2921633005,
				"element": "C" 
			},
			{
				"x": -0.1533739769,
				"y": 1.4960325732,
				"z": -1.8357871159,
				"element": "N" 
			},
			{
				"x": 0.1045774911,
				"y": 1.4610312776,
				"z": -3.0949617258,
				"element": "C" 
			},
			{
				"x": 1.4393421033,
				"y": 1.7313289642,
				"z": -3.6154640818,
				"element": "C" 
			},
			{
				"x": 1.6801079358,
				"y": 1.6728120679,
				"z": -5.0003026534,
				"element": "C" 
			},
			{
				"x": 2.9392160829,
				"y": 1.9270408753,
				"z": -5.5259872532,
				"element": "C" 
			},
			{
				"x": 3.9891914989,
				"y": 2.2493482629,
				"z": -4.6529747865,
				"element": "C" 
			},
			{
				"x": 3.7839495762,
				"y": 2.3165363427,
				"z": -3.2803576536,
				"element": "C" 
			},
			{
				"x": 2.5126720025,
				"y": 2.0596585634,
				"z": -2.7414921885,
				"element": "C" 
			},
			{
				"x": 2.3428643618,
				"y": 2.1320868337,
				"z": -1.4144008248,
				"element": "O" 
			},
			{
				"x": 0.0308492648,
				"y": 3.6842395386,
				"z": 4.361407668,
				"element": "H" 
			},
			{
				"x": 1.8873954063,
				"y": 2.4832627309,
				"z": 4.882647162,
				"element": "H" 
			},
			{
				"x": 3.0637009694,
				"y": 0.3211633142,
				"z": 4.5922922696,
				"element": "H" 
			},
			{
				"x": 2.0532498275,
				"y": -1.4671272437,
				"z": 3.1790701276,
				"element": "H" 
			},
			{
				"x": -0.1221611102,
				"y": -1.0714602539,
				"z": 2.0764357507,
				"element": "H" 
			},
			{
				"x": -2.3698746782,
				"y": 1.7332131708,
				"z": 2.8807464673,
				"element": "H" 
			},
			{
				"x": -0.2847356203,
				"y": 0.3106103779,
				"z": 0.2290354499,
				"element": "H" 
			},
			{
				"x": -1.2550976678,
				"y": -1.4770535329,
				"z": -1.126417054,
				"element": "H" 
			},
			{
				"x": -1.6954450979,
				"y": -1.7201475549,
				"z": 0.5542040894,
				"element": "H" 
			},
			{
				"x": -3.9777068848,
				"y": -1.1415828438,
				"z": 0.2002724616,
				"element": "H" 
			},
			{
				"x": -3.5621448813,
				"y": -2.0002662421,
				"z": -1.2762486627,
				"element": "H" 
			},
			{
				"x": -4.5645046288,
				"y": -0.0821142717,
				"z": -2.2222214737,
				"element": "H" 
			},
			{
				"x": -4.1421401661,
				"y": 0.9306489487,
				"z": -0.84334645,
				"element": "H" 
			},
			{
				"x": -2.8632560195,
				"y": 1.531167983,
				"z": -2.959115586,
				"element": "H" 
			},
			{
				"x": -2.1194009677,
				"y": -0.0620801417,
				"z": -2.9081038523,
				"element": "H" 
			},
			{
				"x": -1.8363856953,
				"y": 2.2317037896,
				"z": -0.9183756946,
				"element": "H" 
			},
			{
				"x": -0.6617511341,
				"y": 1.2319778897,
				"z": -3.844645696,
				"element": "H" 
			},
			{
				"x": 0.8527241158,
				"y": 1.4219232864,
				"z": -5.6607934182,
				"element": "H" 
			},
			{
				"x": 3.1093918698,
				"y": 1.8777986692,
				"z": -6.5965931793,
				"element": "H" 
			},
			{
				"x": 4.9795563563,
				"y": 2.4507567736,
				"z": -5.0523949075,
				"element": "H" 
			},
			{
				"x": 4.5891044182,
				"y": 2.5657310577,
				"z": -2.5969711348,
				"element": "H" 
			},
			{
				"x": 1.3789928885,
				"y": 1.9211565841,
				"z": -1.2374118704,
				"element": "H" 
			}
		],
		 "valence_orbital": [ 
			{
				"type": "occ",
				"energy": -0.24958,
				"method": "rhf"
			},
			{
				"type": "occ",
				"energy": -0.23937,
				"method": "rhf"
			},
			{
				"type": "occ",
				"energy": -0.23413,
				"method": "rhf"
			},
			{
				"type": "occ",
				"energy": -0.22662,
				"method": "rhf"
			},
			{
				"type": "occ",
				"energy": -0.2081,
				"method": "rhf"
			},
			{
				"type": "unocc",
				"energy": -0.03971,
				"method": "rhf"
			},
			{
				"type": "unocc",
				"energy": -0.03381,
				"method": "rhf"
			},
			{
				"type": "unocc",
				"energy": 0.00254,
				"method": "rhf"
			},
			{
				"type": "unocc",
				"energy": 0.01654,
				"method": "rhf"
			},
			{
				"type": "unocc",
				"energy": 0.0358,
				"method": "rhf"
			}
		],
		"cosmo_sigma_profile": { 
			"-0.025": 0.0,
			"-0.024": 0.0,
			"-0.023": 0.0,
			"-0.022": 0.0,
			"-0.021": 0.0,
			"-0.02": 0.0,
			"-0.019": 0.0398184947718,
			"-0.018": 0.854257784127,
			"-0.017": 1.10333167415,
			"-0.016": 1.33419750397,
			"-0.015": 0.747074548942,
			"-0.014": 1.10390979307,
			"-0.013": 0.185533990163,
			"-0.012": 0.863559725378,
			"-0.011": 1.49286825688,
			"-0.01": 1.8746269374,
			"-0.009": 0.910680634402,
			"-0.008": 0.780692967201,
			"-0.007": 4.43563805813,
			"-0.006": 13.0845643012,
			"-0.005": 19.4820336135,
			"-0.004": 26.2682447299,
			"-0.003": 31.1413768388,
			"-0.002": 31.3502399388,
			"-0.001": 37.2426932615,
			"0.0": 36.7092503487,
			"0.001": 33.0530063095,
			"0.002": 28.0056164297,
			"0.003": 25.7728918789,
			"0.004": 23.9981776216,
			"0.005": 21.3288960233,
			"0.006": 8.8924243494,
			"0.007": 5.45665786438,
			"0.008": 3.2312741099,
			"0.009": 4.54313047384,
			"0.01": 3.89238541338,
			"0.011": 2.47286043723,
			"0.012": 2.63371498234,
			"0.013": 1.46057049173,
			"0.014": 0.279430609777,
			"0.015": 0.0,
			"0.016": 0.0,
			"0.017": 0.0,
			"0.018": 0.0,
			"0.019": 0.0,
			"0.02": 0.0,
			"0.021": 0.0,
			"0.022": 0.0,
			"0.023": 0.0,
			"0.024": 0.0,
			"0.025": 0.0
		}
	}
}
