{
	 "smiles": "FC1=CC=C(NN=C(/C#N)C2=NC3=C(C=CC=C3)C(=O)N2)C=C1", 
	 "Tm": 488.15, 
	 "num_atms": 33, 
	 "gaussian": { 
		 "optdone": 1, 
		 "sigma_profile": "yes", 
		 "theory": "DFT", 
		 "functional": "B3LYP", 
		 "basiset": "6-31G**", 
		 "properties": { 
			 "R2extent": 11470.9373, 
			 "electric_dipole_moment_norm": 1.64808550749, 
			 "electric_quadrupole_moment_norm": 21.5005658521, 
			 "total_energy": -1064.52831043, 
			 "HOMO_LUMO_gap": 0.12489, 
			 "cosmo_polarized_energy": -19.79, 
			 "cosmo_cavitation_energy": 41.11, 
			 "cosmo_dispersion_energy": -29.02, 
			 "cosmo_repulsion_energy": 2.15, 
			 "cosmo_total_nonelectrostatic_energy": 14.23, 
			 "SMD_solvation_energy": 7.34 
		},
		"coords": [
			{
				"x": 1.1475994103,
				"y": 7.3718642648,
				"z": 2.8051069735,
				"element": "F" 
			},
			{
				"x": 1.3013409181,
				"y": 6.0732967312,
				"z": 2.4803665047,
				"element": "C" 
			},
			{
				"x": 0.4411446916,
				"y": 5.5006567684,
				"z": 1.5483759687,
				"element": "C" 
			},
			{
				"x": 0.5954808035,
				"y": 4.1595585554,
				"z": 1.2092241678,
				"element": "C" 
			},
			{
				"x": 1.6123088242,
				"y": 3.4045776095,
				"z": 1.8087748928,
				"element": "C" 
			},
			{
				"x": 1.8112546497,
				"y": 2.0472663201,
				"z": 1.5018075427,
				"element": "N" 
			},
			{
				"x": 1.0611328173,
				"y": 1.400305965,
				"z": 0.6371204362,
				"element": "N" 
			},
			{
				"x": 1.2851351906,
				"y": 0.1347085271,
				"z": 0.3837166376,
				"element": "C" 
			},
			{
				"x": 2.3457394129,
				"y": -0.5754686681,
				"z": 1.0366327387,
				"element": "C" 
			},
			{
				"x": 3.2442737004,
				"y": -0.9765256937,
				"z": 1.6601083941,
				"element": "N" 
			},
			{
				"x": 0.4364302434,
				"y": -0.5677288779,
				"z": -0.5844472879,
				"element": "C" 
			},
			{
				"x": 0.6695280585,
				"y": -1.8221620226,
				"z": -0.8261506962,
				"element": "N" 
			},
			{
				"x": -0.1537115945,
				"y": -2.4513704959,
				"z": -1.7471536001,
				"element": "C" 
			},
			{
				"x": -1.2115024821,
				"y": -1.7795587109,
				"z": -2.4112910851,
				"element": "C" 
			},
			{
				"x": -2.0165993514,
				"y": -2.4604435298,
				"z": -3.3351199941,
				"element": "C" 
			},
			{
				"x": -1.7800413249,
				"y": -3.801041222,
				"z": -3.6043227919,
				"element": "C" 
			},
			{
				"x": -0.7328757073,
				"y": -4.4737062276,
				"z": -2.9494609279,
				"element": "C" 
			},
			{
				"x": 0.0713481044,
				"y": -3.8126664987,
				"z": -2.0332968774,
				"element": "C" 
			},
			{
				"x": -1.4585358045,
				"y": -0.3598157312,
				"z": -2.1232469182,
				"element": "C" 
			},
			{
				"x": -2.3284534253,
				"y": 0.3433062249,
				"z": -2.6163184892,
				"element": "O" 
			},
			{
				"x": -0.5639829343,
				"y": 0.1617083275,
				"z": -1.1794993361,
				"element": "N" 
			},
			{
				"x": 2.4699424812,
				"y": 3.997423496,
				"z": 2.7456198978,
				"element": "C" 
			},
			{
				"x": 2.3154499872,
				"y": 5.3388358252,
				"z": 3.0847491951,
				"element": "C" 
			},
			{
				"x": -0.338241715,
				"y": 6.1052397514,
				"z": 1.0978898704,
				"element": "H" 
			},
			{
				"x": -0.064312186,
				"y": 3.6971058319,
				"z": 0.4860791961,
				"element": "H" 
			},
			{
				"x": 2.5690293692,
				"y": 1.5522065155,
				"z": 1.972604878,
				"element": "H" 
			},
			{
				"x": -2.8157769577,
				"y": -1.9115175423,
				"z": -3.8222887297,
				"element": "H" 
			},
			{
				"x": -2.4015438702,
				"y": -4.3314412273,
				"z": -4.319173231,
				"element": "H" 
			},
			{
				"x": -0.5514708193,
				"y": -5.523136055,
				"z": -3.163367079,
				"element": "H" 
			},
			{
				"x": 0.8833592378,
				"y": -4.3156930047,
				"z": -1.5190013014,
				"element": "H" 
			},
			{
				"x": -0.674955298,
				"y": 1.1378420519,
				"z": -0.9313621852,
				"element": "H" 
			},
			{
				"x": 3.2584002111,
				"y": 3.4112934044,
				"z": 3.2101895456,
				"element": "H" 
			},
			{
				"x": 2.968605359,
				"y": 5.8153793377,
				"z": 3.8070336906,
				"element": "H" 
			}
		],
		 "valence_orbital": [ 
			{
				"type": "occ",
				"energy": -0.28407,
				"method": "rhf"
			},
			{
				"type": "occ",
				"energy": -0.26718,
				"method": "rhf"
			},
			{
				"type": "occ",
				"energy": -0.26415,
				"method": "rhf"
			},
			{
				"type": "occ",
				"energy": -0.24631,
				"method": "rhf"
			},
			{
				"type": "occ",
				"energy": -0.22103,
				"method": "rhf"
			},
			{
				"type": "unocc",
				"energy": -0.09614,
				"method": "rhf"
			},
			{
				"type": "unocc",
				"energy": -0.04389,
				"method": "rhf"
			},
			{
				"type": "unocc",
				"energy": -0.03385,
				"method": "rhf"
			},
			{
				"type": "unocc",
				"energy": -0.02508,
				"method": "rhf"
			},
			{
				"type": "unocc",
				"energy": -0.00162,
				"method": "rhf"
			}
		],
		"cosmo_sigma_profile": { 
			"-0.025": 0.0,
			"-0.024": 0.0,
			"-0.023": 0.0,
			"-0.022": 0.0,
			"-0.021": 0.0,
			"-0.02": 0.0,
			"-0.019": 0.0,
			"-0.018": 0.0,
			"-0.017": 0.0,
			"-0.016": 0.127164817515,
			"-0.015": 1.16220767331,
			"-0.014": 0.943337678397,
			"-0.013": 2.1158737475,
			"-0.012": 1.91400494482,
			"-0.011": 1.65839445237,
			"-0.01": 3.00052298124,
			"-0.009": 2.83181429856,
			"-0.008": 6.31462224389,
			"-0.007": 12.7753675099,
			"-0.006": 16.5471785774,
			"-0.005": 19.8014727975,
			"-0.004": 20.5146636887,
			"-0.003": 22.6190981679,
			"-0.002": 20.3221397442,
			"-0.001": 20.8619514937,
			"0.0": 24.4119554506,
			"0.001": 25.8678851248,
			"0.002": 30.0290482242,
			"0.003": 28.0914455915,
			"0.004": 20.0014292589,
			"0.005": 7.17776794666,
			"0.006": 6.14437776036,
			"0.007": 5.17774877671,
			"0.008": 6.20352658504,
			"0.009": 5.27173393898,
			"0.01": 5.30541681318,
			"0.011": 4.94677260831,
			"0.012": 6.64182160525,
			"0.013": 4.35792882947,
			"0.014": 0.203929316314,
			"0.015": 0.0,
			"0.016": 0.0,
			"0.017": 0.0,
			"0.018": 0.0,
			"0.019": 0.0,
			"0.02": 0.0,
			"0.021": 0.0,
			"0.022": 0.0,
			"0.023": 0.0,
			"0.024": 0.0,
			"0.025": 0.0
		}
	}
}
