{
	 "smiles": "NN1C(S)=NN=C1COC1=CC=CC=C1", 
	 "Tm": 438.15, 
	 "num_atms": 25, 
	 "gaussian": { 
		 "optdone": 1, 
		 "sigma_profile": "yes", 
		 "theory": "DFT", 
		 "functional": "B3LYP", 
		 "basiset": "6-31G**", 
		 "properties": { 
			 "R2extent": 5305.304, 
			 "electric_dipole_moment_norm": 6.71910831956, 
			 "electric_quadrupole_moment_norm": 21.4419548115, 
			 "total_energy": -1041.32488807, 
			 "HOMO_LUMO_gap": 0.21673, 
			 "cosmo_polarized_energy": -21.55, 
			 "cosmo_cavitation_energy": 31.49, 
			 "cosmo_dispersion_energy": -23.39, 
			 "cosmo_repulsion_energy": 1.78, 
			 "cosmo_total_nonelectrostatic_energy": 9.88, 
			 "SMD_solvation_energy": 3.3 
		},
		"coords": [
			{
				"x": -1.3852033185,
				"y": -0.0074557622,
				"z": -1.745673779,
				"element": "N" 
			},
			{
				"x": -2.1181554311,
				"y": -0.2889047438,
				"z": -0.5859999388,
				"element": "N" 
			},
			{
				"x": -3.4824767108,
				"y": -0.4552577608,
				"z": -0.5244952015,
				"element": "C" 
			},
			{
				"x": -4.5457136764,
				"y": -0.4177924416,
				"z": -1.925175597,
				"element": "S" 
			},
			{
				"x": -3.8616698462,
				"y": -0.653103662,
				"z": 0.7157256556,
				"element": "N" 
			},
			{
				"x": -2.725002755,
				"y": -0.5890586888,
				"z": 1.5082067784,
				"element": "N" 
			},
			{
				"x": -1.699251388,
				"y": -0.3734762471,
				"z": 0.7263054726,
				"element": "C" 
			},
			{
				"x": -0.2798902881,
				"y": -0.239678034,
				"z": 1.1526370894,
				"element": "C" 
			},
			{
				"x": 0.2255371718,
				"y": 0.9924648081,
				"z": 0.6274559343,
				"element": "O" 
			},
			{
				"x": 1.5298139383,
				"y": 1.3296739909,
				"z": 0.9040086396,
				"element": "C" 
			},
			{
				"x": 1.9748246484,
				"y": 2.5316506322,
				"z": 0.3372694609,
				"element": "C" 
			},
			{
				"x": 3.2800287816,
				"y": 2.9589126585,
				"z": 0.5564236939,
				"element": "C" 
			},
			{
				"x": 4.1543887431,
				"y": 2.1974773308,
				"z": 1.3394425365,
				"element": "C" 
			},
			{
				"x": 3.703241245,
				"y": 1.00596772,
				"z": 1.9018713424,
				"element": "C" 
			},
			{
				"x": 2.3931007659,
				"y": 0.5618843191,
				"z": 1.6917524822,
				"element": "C" 
			},
			{
				"x": -0.7993200243,
				"y": -0.8095775071,
				"z": -1.9714934321,
				"element": "H" 
			},
			{
				"x": -0.7795176806,
				"y": 0.7850068285,
				"z": -1.5414820109,
				"element": "H" 
			},
			{
				"x": -3.5506096043,
				"y": -0.0581573071,
				"z": -2.7651477315,
				"element": "H" 
			},
			{
				"x": -0.2573363703,
				"y": -0.2533916089,
				"z": 2.2474461246,
				"element": "H" 
			},
			{
				"x": 0.3322650392,
				"y": -1.0759817027,
				"z": 0.7814325348,
				"element": "H" 
			},
			{
				"x": 1.282141865,
				"y": 3.1148117524,
				"z": -0.2613347685,
				"element": "H" 
			},
			{
				"x": 3.6158335259,
				"y": 3.8927557295,
				"z": 0.1149340936,
				"element": "H" 
			},
			{
				"x": 5.1723766214,
				"y": 2.5333374558,
				"z": 1.5093648002,
				"element": "H" 
			},
			{
				"x": 4.3695600034,
				"y": 0.4065410978,
				"z": 2.5154976403,
				"element": "H" 
			},
			{
				"x": 2.0654347446,
				"y": -0.3653488575,
				"z": 2.1465281799,
				"element": "H" 
			}
		],
		 "valence_orbital": [ 
			{
				"type": "occ",
				"energy": -0.29493,
				"method": "rhf"
			},
			{
				"type": "occ",
				"energy": -0.26384,
				"method": "rhf"
			},
			{
				"type": "occ",
				"energy": -0.25399,
				"method": "rhf"
			},
			{
				"type": "occ",
				"energy": -0.2366,
				"method": "rhf"
			},
			{
				"type": "occ",
				"energy": -0.23178,
				"method": "rhf"
			},
			{
				"type": "unocc",
				"energy": -0.01505,
				"method": "rhf"
			},
			{
				"type": "unocc",
				"energy": -0.00203,
				"method": "rhf"
			},
			{
				"type": "unocc",
				"energy": 0.00141,
				"method": "rhf"
			},
			{
				"type": "unocc",
				"energy": 0.01838,
				"method": "rhf"
			},
			{
				"type": "unocc",
				"energy": 0.03842,
				"method": "rhf"
			}
		],
		"cosmo_sigma_profile": { 
			"-0.025": 0.0,
			"-0.024": 0.0,
			"-0.023": 0.0,
			"-0.022": 0.0,
			"-0.021": 0.0,
			"-0.02": 0.0,
			"-0.019": 0.0,
			"-0.018": 0.0,
			"-0.017": 0.0,
			"-0.016": 0.0,
			"-0.015": 0.0972296088591,
			"-0.014": 1.75750807342,
			"-0.013": 2.40308953819,
			"-0.012": 2.3373482055,
			"-0.011": 3.20816524659,
			"-0.01": 3.77321211217,
			"-0.009": 3.72171139513,
			"-0.008": 6.73030356683,
			"-0.007": 10.8274580005,
			"-0.006": 11.4681757995,
			"-0.005": 16.8127443975,
			"-0.004": 16.2816419528,
			"-0.003": 17.4041276643,
			"-0.002": 13.0147975039,
			"-0.001": 13.1179333834,
			"0.0": 12.1406964038,
			"0.001": 14.602115171,
			"0.002": 16.3342778578,
			"0.003": 15.9130643516,
			"0.004": 16.549352805,
			"0.005": 15.9556108064,
			"0.006": 11.2870179111,
			"0.007": 5.52717078607,
			"0.008": 2.81171526689,
			"0.009": 1.62251134044,
			"0.01": 2.41373355172,
			"0.011": 2.21239977176,
			"0.012": 2.18768915546,
			"0.013": 3.88630349899,
			"0.014": 3.35486893362,
			"0.015": 2.51840625154,
			"0.016": 1.88018775112,
			"0.017": 0.270266392221,
			"0.018": 0.0,
			"0.019": 0.0,
			"0.02": 0.0,
			"0.021": 0.0,
			"0.022": 0.0,
			"0.023": 0.0,
			"0.024": 0.0,
			"0.025": 0.0
		}
	}
}
