{
	 "smiles": "CC1(NC(=O)NC1=O)C1=CC=C(I)C=C1", 
	 "Tm": 539.15, 
	 "num_atms": 24, 
	 "gaussian": { 
		 "optdone": 1, 
		 "sigma_profile": "yes", 
		 "theory": "DFT", 
		 "functional": "B3LYP", 
		 "basiset": "6-31G**", 
		 "properties": { 
			 "R2extent": 3742.28, 
			 "electric_dipole_moment_norm": 2.2405467123, 
			 "electric_quadrupole_moment_norm": 9.94707685303, 
			 "total_energy": -657.867700745, 
			 "HOMO_LUMO_gap": 0.20098, 
			 "cosmo_polarized_energy": -16.87, 
			 "cosmo_cavitation_energy": 31.48, 
			 "cosmo_dispersion_energy": -23.93, 
			 "cosmo_repulsion_energy": 1.85, 
			 "cosmo_total_nonelectrostatic_energy": 9.41, 
			 "SMD_solvation_energy": 6.16 
		},
		"coords": [
			{
				"x": 0.5457606765,
				"y": -0.3168216405,
				"z": 1.7614506482,
				"element": "C" 
			},
			{
				"x": 0.1948999134,
				"y": -0.3259641895,
				"z": 0.2587238942,
				"element": "C" 
			},
			{
				"x": 0.9483584875,
				"y": 0.6903430815,
				"z": -0.4736351193,
				"element": "N" 
			},
			{
				"x": 1.892522326,
				"y": 0.1715836219,
				"z": -1.3294157255,
				"element": "C" 
			},
			{
				"x": 2.7297789268,
				"y": 0.7619581262,
				"z": -1.9766178696,
				"element": "O" 
			},
			{
				"x": 1.6920293991,
				"y": -1.2242785145,
				"z": -1.3056267943,
				"element": "N" 
			},
			{
				"x": 0.7514304456,
				"y": -1.6271786177,
				"z": -0.3859788337,
				"element": "C" 
			},
			{
				"x": 0.4322264001,
				"y": -2.7640700862,
				"z": -0.1109026292,
				"element": "O" 
			},
			{
				"x": -1.3189414432,
				"y": -0.2249792273,
				"z": 0.0371778625,
				"element": "C" 
			},
			{
				"x": -2.1684748386,
				"y": -1.2139088093,
				"z": 0.554159188,
				"element": "C" 
			},
			{
				"x": -3.5499658084,
				"y": -1.129775707,
				"z": 0.3876268131,
				"element": "C" 
			},
			{
				"x": -4.0934992869,
				"y": -0.0424640212,
				"z": -0.2995502712,
				"element": "C" 
			},
			{
				"x": -6.1951080771,
				"y": 0.1008037404,
				"z": -0.544530883,
				"element": "I" 
			},
			{
				"x": -3.2666950708,
				"y": 0.9461883607,
				"z": -0.830526764,
				"element": "C" 
			},
			{
				"x": -1.883698852,
				"y": 0.8452614102,
				"z": -0.6625875881,
				"element": "C" 
			},
			{
				"x": 0.1851271853,
				"y": 0.6067474073,
				"z": 2.2244238979,
				"element": "H" 
			},
			{
				"x": 1.6286514694,
				"y": -0.3850418247,
				"z": 1.9022012083,
				"element": "H" 
			},
			{
				"x": 0.0763158294,
				"y": -1.1623930712,
				"z": 2.2676179702,
				"element": "H" 
			},
			{
				"x": 1.0678292099,
				"y": 1.634965806,
				"z": -0.1392055427,
				"element": "H" 
			},
			{
				"x": 2.2436621473,
				"y": -1.8570745944,
				"z": -1.8675585087,
				"element": "H" 
			},
			{
				"x": -1.7488905194,
				"y": -2.0754995988,
				"z": 1.061540549,
				"element": "H" 
			},
			{
				"x": -4.1908973828,
				"y": -1.9072596027,
				"z": 0.7877228413,
				"element": "H" 
			},
			{
				"x": -3.6855314148,
				"y": 1.7858710686,
				"z": -1.3736375109,
				"element": "H" 
			},
			{
				"x": -1.2433897225,
				"y": 1.6061868823,
				"z": -1.0951708326,
				"element": "H" 
			}
		],
		 "valence_orbital": [ 
			{
				"type": "occ",
				"energy": -0.28122,
				"method": "rhf"
			},
			{
				"type": "occ",
				"energy": -0.27285,
				"method": "rhf"
			},
			{
				"type": "occ",
				"energy": -0.2709,
				"method": "rhf"
			},
			{
				"type": "occ",
				"energy": -0.26861,
				"method": "rhf"
			},
			{
				"type": "occ",
				"energy": -0.24247,
				"method": "rhf"
			},
			{
				"type": "unocc",
				"energy": -0.04149,
				"method": "rhf"
			},
			{
				"type": "unocc",
				"energy": -0.03408,
				"method": "rhf"
			},
			{
				"type": "unocc",
				"energy": -0.02157,
				"method": "rhf"
			},
			{
				"type": "unocc",
				"energy": -0.01044,
				"method": "rhf"
			},
			{
				"type": "unocc",
				"energy": 0.04141,
				"method": "rhf"
			}
		],
		"cosmo_sigma_profile": { 
			"-0.025": 0.0,
			"-0.024": 0.0,
			"-0.023": 0.0,
			"-0.022": 0.0,
			"-0.021": 0.0,
			"-0.02": 0.0,
			"-0.019": 0.0,
			"-0.018": 0.0,
			"-0.017": 0.490763630519,
			"-0.016": 1.50151770817,
			"-0.015": 2.28327929051,
			"-0.014": 2.45042542402,
			"-0.013": 1.61844227779,
			"-0.012": 1.44759617766,
			"-0.011": 2.05677550484,
			"-0.01": 2.15497058646,
			"-0.009": 2.52178763906,
			"-0.008": 2.35901102541,
			"-0.007": 6.56878793694,
			"-0.006": 12.713315807,
			"-0.005": 17.6909321242,
			"-0.004": 15.9911575005,
			"-0.003": 16.5848784784,
			"-0.002": 16.926999731,
			"-0.001": 18.3704911242,
			"0.0": 12.9942490025,
			"0.001": 15.5985461917,
			"0.002": 18.3333196244,
			"0.003": 20.1397418297,
			"0.004": 23.0263081486,
			"0.005": 8.69248049986,
			"0.006": 2.14504320499,
			"0.007": 2.83304141913,
			"0.008": 2.3048308894,
			"0.009": 3.06132192262,
			"0.01": 3.72995436783,
			"0.011": 5.59564391866,
			"0.012": 7.9688486551,
			"0.013": 5.53159408172,
			"0.014": 0.403556234222,
			"0.015": 0.0,
			"0.016": 0.0,
			"0.017": 0.0,
			"0.018": 0.0,
			"0.019": 0.0,
			"0.02": 0.0,
			"0.021": 0.0,
			"0.022": 0.0,
			"0.023": 0.0,
			"0.024": 0.0,
			"0.025": 0.0
		}
	}
}
