{
	 "smiles": "COC1=CC2=C(C=CC(=O)O2)C(OC)=C1", 
	 "Tm": 421.15, 
	 "num_atms": 25, 
	 "gaussian": { 
		 "optdone": 1, 
		 "sigma_profile": "yes", 
		 "theory": "DFT", 
		 "functional": "B3LYP", 
		 "basiset": "6-31G**", 
		 "properties": { 
			 "R2extent": 3543.051, 
			 "electric_dipole_moment_norm": 6.04871980918, 
			 "electric_quadrupole_moment_norm": 19.2985192497, 
			 "total_energy": -726.074133307, 
			 "HOMO_LUMO_gap": 0.16299, 
			 "cosmo_polarized_energy": -13.24, 
			 "cosmo_cavitation_energy": 29.38, 
			 "cosmo_dispersion_energy": -21.87, 
			 "cosmo_repulsion_energy": 1.69, 
			 "cosmo_total_nonelectrostatic_energy": 9.2, 
			 "SMD_solvation_energy": 7.79 
		},
		"coords": [
			{
				"x": 0.1981161899,
				"y": -4.2139800053,
				"z": -0.242764236,
				"element": "C" 
			},
			{
				"x": -0.8068637359,
				"y": -3.245949481,
				"z": -0.5200280682,
				"element": "O" 
			},
			{
				"x": -0.4723419086,
				"y": -1.9317731929,
				"z": -0.45721956,
				"element": "C" 
			},
			{
				"x": 0.8000597472,
				"y": -1.4624732466,
				"z": -0.1365164486,
				"element": "C" 
			},
			{
				"x": 1.0014960264,
				"y": -0.0791138535,
				"z": -0.1093165098,
				"element": "C" 
			},
			{
				"x": -0.0214667286,
				"y": 0.8411591469,
				"z": -0.3905496852,
				"element": "C" 
			},
			{
				"x": 0.2959629936,
				"y": 2.2384479456,
				"z": -0.3332097383,
				"element": "C" 
			},
			{
				"x": 1.5480751769,
				"y": 2.6517049631,
				"z": -0.0164420399,
				"element": "C" 
			},
			{
				"x": 2.6116662661,
				"y": 1.7051368204,
				"z": 0.2754046005,
				"element": "C" 
			},
			{
				"x": 3.7558146216,
				"y": 1.9623491216,
				"z": 0.5675858307,
				"element": "O" 
			},
			{
				"x": 2.2543716878,
				"y": 0.3467653946,
				"z": 0.2072677301,
				"element": "O" 
			},
			{
				"x": -1.3066701222,
				"y": 0.3247153915,
				"z": -0.7137147154,
				"element": "C" 
			},
			{
				"x": -2.2548201957,
				"y": 1.2627232119,
				"z": -0.9757403693,
				"element": "O" 
			},
			{
				"x": -3.5664493353,
				"y": 0.8251799906,
				"z": -1.3067163043,
				"element": "C" 
			},
			{
				"x": -1.5300940235,
				"y": -1.0428887202,
				"z": -0.7468835803,
				"element": "C" 
			},
			{
				"x": 1.0309283252,
				"y": -4.1413616897,
				"z": -0.9524994006,
				"element": "H" 
			},
			{
				"x": -0.2852219249,
				"y": -5.185735984,
				"z": -0.3503220135,
				"element": "H" 
			},
			{
				"x": 0.5832309301,
				"y": -4.1103190916,
				"z": 0.7787634157,
				"element": "H" 
			},
			{
				"x": 1.6324525912,
				"y": -2.1139536863,
				"z": 0.0906748222,
				"element": "H" 
			},
			{
				"x": -0.4882572425,
				"y": 2.9564595159,
				"z": -0.5488407418,
				"element": "H" 
			},
			{
				"x": 1.8208853526,
				"y": 3.6985696288,
				"z": 0.0357537449,
				"element": "H" 
			},
			{
				"x": -3.5666122409,
				"y": 0.2176922458,
				"z": -2.2197350019,
				"element": "H" 
			},
			{
				"x": -4.150989385,
				"y": 1.7306266111,
				"z": -1.4740223854,
				"element": "H" 
			},
			{
				"x": -4.0139313442,
				"y": 0.2488530012,
				"z": -0.4880289484,
				"element": "H" 
			},
			{
				"x": -2.4942417212,
				"y": -1.4693340378,
				"z": -0.9886003971,
				"element": "H" 
			}
		],
		 "valence_orbital": [ 
			{
				"type": "occ",
				"energy": -0.31724,
				"method": "rhf"
			},
			{
				"type": "occ",
				"energy": -0.28052,
				"method": "rhf"
			},
			{
				"type": "occ",
				"energy": -0.26386,
				"method": "rhf"
			},
			{
				"type": "occ",
				"energy": -0.23424,
				"method": "rhf"
			},
			{
				"type": "occ",
				"energy": -0.21596,
				"method": "rhf"
			},
			{
				"type": "unocc",
				"energy": -0.05297,
				"method": "rhf"
			},
			{
				"type": "unocc",
				"energy": -0.00238,
				"method": "rhf"
			},
			{
				"type": "unocc",
				"energy": 0.01858,
				"method": "rhf"
			},
			{
				"type": "unocc",
				"energy": 0.08494,
				"method": "rhf"
			},
			{
				"type": "unocc",
				"energy": 0.09367,
				"method": "rhf"
			}
		],
		"cosmo_sigma_profile": { 
			"-0.025": 0.0,
			"-0.024": 0.0,
			"-0.023": 0.0,
			"-0.022": 0.0,
			"-0.021": 0.0,
			"-0.02": 0.0,
			"-0.019": 0.0,
			"-0.018": 0.0,
			"-0.017": 0.0,
			"-0.016": 0.0,
			"-0.015": 0.0,
			"-0.014": 0.0,
			"-0.013": 0.0,
			"-0.012": 0.0,
			"-0.011": 0.0,
			"-0.01": 0.0,
			"-0.009": 0.0,
			"-0.008": 1.17365028237,
			"-0.007": 8.16386179868,
			"-0.006": 19.779489738,
			"-0.005": 21.3012239603,
			"-0.004": 22.0785196378,
			"-0.003": 20.2832870226,
			"-0.002": 12.9760034657,
			"-0.001": 11.4934034315,
			"0.0": 15.0856205842,
			"0.001": 23.6057272148,
			"0.002": 19.7556379413,
			"0.003": 13.6600599312,
			"0.004": 6.99886218207,
			"0.005": 5.78252276055,
			"0.006": 4.56256976462,
			"0.007": 3.66454187702,
			"0.008": 3.9903337953,
			"0.009": 3.93776402164,
			"0.01": 2.75942468417,
			"0.011": 3.45384328679,
			"0.012": 6.22218775425,
			"0.013": 3.79338123492,
			"0.014": 0.403437731124,
			"0.015": 0.0,
			"0.016": 0.0,
			"0.017": 0.0,
			"0.018": 0.0,
			"0.019": 0.0,
			"0.02": 0.0,
			"0.021": 0.0,
			"0.022": 0.0,
			"0.023": 0.0,
			"0.024": 0.0,
			"0.025": 0.0
		}
	}
}
