{
	 "smiles": "CN(C)C1=CC(F)=C(C=C1)C(O)=O", 
	 "Tm": 473.15, 
	 "num_atms": 23, 
	 "gaussian": { 
		 "optdone": 1, 
		 "sigma_profile": "yes", 
		 "theory": "DFT", 
		 "functional": "B3LYP", 
		 "basiset": "6-31G**", 
		 "properties": { 
			 "R2extent": 3529.0021, 
			 "electric_dipole_moment_norm": 8.11013599393, 
			 "electric_quadrupole_moment_norm": 19.5181342907, 
			 "total_energy": -654.027822541, 
			 "HOMO_LUMO_gap": 0.18011, 
			 "cosmo_polarized_energy": -14.55, 
			 "cosmo_cavitation_energy": 26.73, 
			 "cosmo_dispersion_energy": -19.87, 
			 "cosmo_repulsion_energy": 1.52, 
			 "cosmo_total_nonelectrostatic_energy": 8.38, 
			 "SMD_solvation_energy": 6.01 
		},
		"coords": [
			{
				"x": -0.9545020713,
				"y": -0.9197916458,
				"z": -2.3639060312,
				"element": "C" 
			},
			{
				"x": 0.0186151051,
				"y": -1.1993063947,
				"z": -1.3188655107,
				"element": "N" 
			},
			{
				"x": 1.1390496497,
				"y": -2.0844612937,
				"z": -1.5934351864,
				"element": "C" 
			},
			{
				"x": -0.1185434763,
				"y": -0.6260042688,
				"z": -0.0772745864,
				"element": "C" 
			},
			{
				"x": 0.81777968,
				"y": -0.8832763274,
				"z": 0.9521285098,
				"element": "C" 
			},
			{
				"x": 0.6497583115,
				"y": -0.2909649731,
				"z": 2.188298965,
				"element": "C" 
			},
			{
				"x": 1.5976044675,
				"y": -0.5889621375,
				"z": 3.1332086623,
				"element": "F" 
			},
			{
				"x": -0.4014798681,
				"y": 0.5686404595,
				"z": 2.5170732196,
				"element": "C" 
			},
			{
				"x": -1.3209712612,
				"y": 0.8117401507,
				"z": 1.4806394511,
				"element": "C" 
			},
			{
				"x": -1.1992935315,
				"y": 0.2444256627,
				"z": 0.2255328008,
				"element": "C" 
			},
			{
				"x": -0.6350652175,
				"y": 1.2373814405,
				"z": 3.8330599188,
				"element": "C" 
			},
			{
				"x": 0.251632244,
				"y": 1.0003480647,
				"z": 4.827502526,
				"element": "O" 
			},
			{
				"x": -1.5806365399,
				"y": 1.9712120506,
				"z": 4.0248145104,
				"element": "O" 
			},
			{
				"x": -0.9926065009,
				"y": 0.1492390332,
				"z": -2.6108126371,
				"element": "H" 
			},
			{
				"x": -0.6750312115,
				"y": -1.4629629738,
				"z": -3.2668304464,
				"element": "H" 
			},
			{
				"x": -1.9646950432,
				"y": -1.2393224614,
				"z": -2.0765907255,
				"element": "H" 
			},
			{
				"x": 2.1029147024,
				"y": -1.5725008381,
				"z": -1.4708266578,
				"element": "H" 
			},
			{
				"x": 1.0751302209,
				"y": -2.4363565316,
				"z": -2.623176728,
				"element": "H" 
			},
			{
				"x": 1.1346609307,
				"y": -2.9637242614,
				"z": -0.9354298269,
				"element": "H" 
			},
			{
				"x": 1.671229066,
				"y": -1.5323088242,
				"z": 0.8119220465,
				"element": "H" 
			},
			{
				"x": -2.1480822188,
				"y": 1.476034359,
				"z": 1.7075195455,
				"element": "H" 
			},
			{
				"x": -1.9429881377,
				"y": 0.4743847508,
				"z": -0.526273249,
				"element": "H" 
			},
			{
				"x": 0.9461207001,
				"y": 0.3974369598,
				"z": 4.5200214295,
				"element": "H" 
			}
		],
		 "valence_orbital": [ 
			{
				"type": "occ",
				"energy": -0.308,
				"method": "rhf"
			},
			{
				"type": "occ",
				"energy": -0.29018,
				"method": "rhf"
			},
			{
				"type": "occ",
				"energy": -0.26133,
				"method": "rhf"
			},
			{
				"type": "occ",
				"energy": -0.25933,
				"method": "rhf"
			},
			{
				"type": "occ",
				"energy": -0.2132,
				"method": "rhf"
			},
			{
				"type": "unocc",
				"energy": -0.03309,
				"method": "rhf"
			},
			{
				"type": "unocc",
				"energy": -0.00993,
				"method": "rhf"
			},
			{
				"type": "unocc",
				"energy": 0.0672,
				"method": "rhf"
			},
			{
				"type": "unocc",
				"energy": 0.06806,
				"method": "rhf"
			},
			{
				"type": "unocc",
				"energy": 0.08758,
				"method": "rhf"
			}
		],
		"cosmo_sigma_profile": { 
			"-0.025": 0.0,
			"-0.024": 0.0,
			"-0.023": 0.0,
			"-0.022": 0.0,
			"-0.021": 0.0,
			"-0.02": 0.0,
			"-0.019": 0.0,
			"-0.018": 0.0,
			"-0.017": 0.0,
			"-0.016": 0.0,
			"-0.015": 0.0,
			"-0.014": 0.0,
			"-0.013": 0.0237313657436,
			"-0.012": 0.702969274589,
			"-0.011": 0.63588972927,
			"-0.01": 0.585928001862,
			"-0.009": 1.37161401416,
			"-0.008": 2.85310632919,
			"-0.007": 6.31103683693,
			"-0.006": 9.69440303756,
			"-0.005": 19.1015583063,
			"-0.004": 19.4575356991,
			"-0.003": 18.8041381463,
			"-0.002": 21.0218845202,
			"-0.001": 12.9957134365,
			"0.0": 12.7152906931,
			"0.001": 14.2451974512,
			"0.002": 16.1908407355,
			"0.003": 16.768694921,
			"0.004": 7.32869016103,
			"0.005": 2.90454623242,
			"0.006": 2.57695492013,
			"0.007": 2.31095836349,
			"0.008": 2.641344412,
			"0.009": 2.21849349805,
			"0.01": 3.72387446618,
			"0.011": 4.88922072193,
			"0.012": 5.73210683776,
			"0.013": 3.84732088562,
			"0.014": 1.20538575395,
			"0.015": 0.0,
			"0.016": 0.0,
			"0.017": 0.0,
			"0.018": 0.0,
			"0.019": 0.0,
			"0.02": 0.0,
			"0.021": 0.0,
			"0.022": 0.0,
			"0.023": 0.0,
			"0.024": 0.0,
			"0.025": 0.0
		}
	}
}
