{
	 "smiles": "CC(=O)C(=N/NC1=CC(=CC=C1)[N+]([O-])=O)C(=O)C(F)(F)F", 
	 "Tm": 479.15, 
	 "num_atms": 29, 
	 "gaussian": { 
		 "optdone": 1, 
		 "sigma_profile": "yes", 
		 "theory": "DFT", 
		 "functional": "B3LYP", 
		 "basiset": "6-31G**", 
		 "properties": { 
			 "R2extent": 8314.2104, 
			 "electric_dipole_moment_norm": 1.31279699116, 
			 "electric_quadrupole_moment_norm": 28.004230777, 
			 "total_energy": -1188.52603935, 
			 "HOMO_LUMO_gap": 0.14153, 
			 "cosmo_polarized_energy": -13.93, 
			 "cosmo_cavitation_energy": 37.49, 
			 "cosmo_dispersion_energy": -25.83, 
			 "cosmo_repulsion_energy": 1.9, 
			 "cosmo_total_nonelectrostatic_energy": 13.57, 
			 "SMD_solvation_energy": 10.71 
		},
		"coords": [
			{
				"x": -2.9796915912,
				"y": 2.495773566,
				"z": -0.8461357537,
				"element": "C" 
			},
			{
				"x": -1.8494933527,
				"y": 1.5024251616,
				"z": -0.7753044362,
				"element": "C" 
			},
			{
				"x": -1.3660033421,
				"y": 1.0433483595,
				"z": -1.819887625,
				"element": "O" 
			},
			{
				"x": -1.2925403101,
				"y": 1.0530335195,
				"z": 0.5275280394,
				"element": "C" 
			},
			{
				"x": -0.3001742561,
				"y": 0.1813420672,
				"z": 0.6326113738,
				"element": "N" 
			},
			{
				"x": 0.263624179,
				"y": -0.3490695662,
				"z": -0.4082624468,
				"element": "N" 
			},
			{
				"x": 1.3142273945,
				"y": -1.271810978,
				"z": -0.2537565943,
				"element": "C" 
			},
			{
				"x": 1.8832395728,
				"y": -1.8124065057,
				"z": -1.4088926629,
				"element": "C" 
			},
			{
				"x": 2.9222618186,
				"y": -2.7256072837,
				"z": -1.2624301374,
				"element": "C" 
			},
			{
				"x": 3.4098384566,
				"y": -3.1155269009,
				"z": -0.0184129214,
				"element": "C" 
			},
			{
				"x": 2.8237904287,
				"y": -2.5602549927,
				"z": 1.1209321447,
				"element": "C" 
			},
			{
				"x": 1.781767639,
				"y": -1.6430749698,
				"z": 1.0169319514,
				"element": "C" 
			},
			{
				"x": 3.5254384382,
				"y": -3.2987452871,
				"z": -2.4803016342,
				"element": "N" 
			},
			{
				"x": 4.4420617418,
				"y": -4.1042873348,
				"z": -2.3341389046,
				"element": "O" 
			},
			{
				"x": 3.0726180665,
				"y": -2.9340319645,
				"z": -3.5641160085,
				"element": "O" 
			},
			{
				"x": -1.79652916,
				"y": 1.5382568054,
				"z": 1.8243415912,
				"element": "C" 
			},
			{
				"x": -2.702238227,
				"y": 2.3399928027,
				"z": 1.9604401382,
				"element": "O" 
			},
			{
				"x": -1.1201316562,
				"y": 0.9844158811,
				"z": 3.1215691671,
				"element": "C" 
			},
			{
				"x": -1.6993250769,
				"y": 1.5289401577,
				"z": 4.1950110609,
				"element": "F" 
			},
			{
				"x": 0.1947090168,
				"y": 1.2843384594,
				"z": 3.1622199424,
				"element": "F" 
			},
			{
				"x": -1.2487699243,
				"y": -0.355366322,
				"z": 3.2152373751,
				"element": "F" 
			},
			{
				"x": -3.8589898853,
				"y": 2.125451941,
				"z": -0.3117053292,
				"element": "H" 
			},
			{
				"x": -3.2134546321,
				"y": 2.6679548347,
				"z": -1.8976071196,
				"element": "H" 
			},
			{
				"x": -2.7068177521,
				"y": 3.4333791511,
				"z": -0.3538119269,
				"element": "H" 
			},
			{
				"x": -0.0938134476,
				"y": -0.0630559422,
				"z": -1.3327675537,
				"element": "H" 
			},
			{
				"x": 1.541467952,
				"y": -1.5431394188,
				"z": -2.4013190004,
				"element": "H" 
			},
			{
				"x": 4.2206023294,
				"y": -3.8300680248,
				"z": 0.0389725252,
				"element": "H" 
			},
			{
				"x": 3.1849170798,
				"y": -2.8470259394,
				"z": 2.1031321447,
				"element": "H" 
			},
			{
				"x": 1.3218085001,
				"y": -1.2079812764,
				"z": 1.8961226008,
				"element": "H" 
			}
		],
		 "valence_orbital": [ 
			{
				"type": "occ",
				"energy": -0.30356,
				"method": "rhf"
			},
			{
				"type": "occ",
				"energy": -0.29875,
				"method": "rhf"
			},
			{
				"type": "occ",
				"energy": -0.29252,
				"method": "rhf"
			},
			{
				"type": "occ",
				"energy": -0.27092,
				"method": "rhf"
			},
			{
				"type": "occ",
				"energy": -0.25488,
				"method": "rhf"
			},
			{
				"type": "unocc",
				"energy": -0.11335,
				"method": "rhf"
			},
			{
				"type": "unocc",
				"energy": -0.09892,
				"method": "rhf"
			},
			{
				"type": "unocc",
				"energy": -0.05883,
				"method": "rhf"
			},
			{
				"type": "unocc",
				"energy": -0.03337,
				"method": "rhf"
			},
			{
				"type": "unocc",
				"energy": -0.00468,
				"method": "rhf"
			}
		],
		"cosmo_sigma_profile": { 
			"-0.025": 0.0,
			"-0.024": 0.0,
			"-0.023": 0.0,
			"-0.022": 0.0,
			"-0.021": 0.0,
			"-0.02": 0.0,
			"-0.019": 0.0,
			"-0.018": 0.0,
			"-0.017": 0.0,
			"-0.016": 0.0,
			"-0.015": 0.0729817612061,
			"-0.014": 0.537761134212,
			"-0.013": 1.00931369308,
			"-0.012": 0.842763031794,
			"-0.011": 1.36037676748,
			"-0.01": 1.60627511336,
			"-0.009": 0.916907839927,
			"-0.008": 3.94819792161,
			"-0.007": 7.79415677953,
			"-0.006": 15.3632836631,
			"-0.005": 20.5974575818,
			"-0.004": 18.8929739906,
			"-0.003": 20.0733217023,
			"-0.002": 24.8740604935,
			"-0.001": 29.4284275505,
			"0.0": 26.5414798497,
			"0.001": 21.2476735237,
			"0.002": 29.9781277736,
			"0.003": 18.2335245296,
			"0.004": 5.43443932566,
			"0.005": 7.00463193691,
			"0.006": 7.69688100381,
			"0.007": 11.870581639,
			"0.008": 9.69091824384,
			"0.009": 7.56345844398,
			"0.01": 5.75030538328,
			"0.011": 2.72433500834,
			"0.012": 0.768106251964,
			"0.013": 0.00489103150115,
			"0.014": 0.0,
			"0.015": 0.0,
			"0.016": 0.0,
			"0.017": 0.0,
			"0.018": 0.0,
			"0.019": 0.0,
			"0.02": 0.0,
			"0.021": 0.0,
			"0.022": 0.0,
			"0.023": 0.0,
			"0.024": 0.0,
			"0.025": 0.0
		}
	}
}
