{
	 "smiles": "OCN1C(=O)C2=C(CCCC2)C1=O", 
	 "Tm": 355.15, 
	 "num_atms": 24, 
	 "gaussian": { 
		 "optdone": 1, 
		 "sigma_profile": "yes", 
		 "theory": "DFT", 
		 "functional": "B3LYP", 
		 "basiset": "6-31G**", 
		 "properties": { 
			 "R2extent": 3140.618, 
			 "electric_dipole_moment_norm": 3.682860835, 
			 "electric_quadrupole_moment_norm": 8.4104392745, 
			 "total_energy": -630.030794605, 
			 "HOMO_LUMO_gap": 0.17795, 
			 "cosmo_polarized_energy": -11.06, 
			 "cosmo_cavitation_energy": 26.89, 
			 "cosmo_dispersion_energy": -19.88, 
			 "cosmo_repulsion_energy": 1.59, 
			 "cosmo_total_nonelectrostatic_energy": 8.6, 
			 "SMD_solvation_energy": 5.07 
		},
		"coords": [
			{
				"x": 3.3329771095,
				"y": -0.1073172727,
				"z": -3.5459036972,
				"element": "O" 
			},
			{
				"x": 3.2995596555,
				"y": 0.9005812532,
				"z": -2.5737293899,
				"element": "C" 
			},
			{
				"x": 2.1262929462,
				"y": 0.8079483062,
				"z": -1.7108587752,
				"element": "N" 
			},
			{
				"x": 2.1202499907,
				"y": 0.5018959126,
				"z": -0.3397617739,
				"element": "C" 
			},
			{
				"x": 3.1024005359,
				"y": 0.3628160948,
				"z": 0.3600714868,
				"element": "O" 
			},
			{
				"x": 0.6737617469,
				"y": 0.3943162833,
				"z": 0.0489112809,
				"element": "C" 
			},
			{
				"x": -0.0844310955,
				"y": 0.5927477035,
				"z": -1.0433993439,
				"element": "C" 
			},
			{
				"x": -1.5787158348,
				"y": 0.5611755738,
				"z": -1.0694907978,
				"element": "C" 
			},
			{
				"x": -2.1272893669,
				"y": 0.622191926,
				"z": 0.3713367723,
				"element": "C" 
			},
			{
				"x": -1.3411600646,
				"y": -0.2930875136,
				"z": 1.3300016125,
				"element": "C" 
			},
			{
				"x": 0.147974232,
				"y": 0.1009948811,
				"z": 1.4166418833,
				"element": "C" 
			},
			{
				"x": 0.8233487153,
				"y": 0.8323184238,
				"z": -2.2102491425,
				"element": "C" 
			},
			{
				"x": 0.5348141443,
				"y": 1.0030931712,
				"z": -3.3837327651,
				"element": "O" 
			},
			{
				"x": 2.5954869911,
				"y": 0.0674062212,
				"z": -4.1495014597,
				"element": "H" 
			},
			{
				"x": 4.1700652746,
				"y": 0.7820387338,
				"z": -1.926321583,
				"element": "H" 
			},
			{
				"x": 3.3103773463,
				"y": 1.9013735372,
				"z": -3.024641134,
				"element": "H" 
			},
			{
				"x": -1.9650462017,
				"y": 1.386875721,
				"z": -1.6783886765,
				"element": "H" 
			},
			{
				"x": -1.9119568113,
				"y": -0.3574635197,
				"z": -1.5731058628,
				"element": "H" 
			},
			{
				"x": -3.18787143,
				"y": 0.350242447,
				"z": 0.3759011018,
				"element": "H" 
			},
			{
				"x": -2.066517973,
				"y": 1.6570367523,
				"z": 0.7327103894,
				"element": "H" 
			},
			{
				"x": -1.7904292149,
				"y": -0.2672161607,
				"z": 2.328144428,
				"element": "H" 
			},
			{
				"x": -1.4156810163,
				"y": -1.3302585346,
				"z": 0.9782257298,
				"element": "H" 
			},
			{
				"x": 0.2777218776,
				"y": 0.9885652461,
				"z": 2.0524583455,
				"element": "H" 
			},
			{
				"x": 0.7445684432,
				"y": -0.6883751867,
				"z": 1.8882813713,
				"element": "H" 
			}
		],
		 "valence_orbital": [ 
			{
				"type": "occ",
				"energy": -0.30115,
				"method": "rhf"
			},
			{
				"type": "occ",
				"energy": -0.29142,
				"method": "rhf"
			},
			{
				"type": "occ",
				"energy": -0.28357,
				"method": "rhf"
			},
			{
				"type": "occ",
				"energy": -0.26901,
				"method": "rhf"
			},
			{
				"type": "occ",
				"energy": -0.26589,
				"method": "rhf"
			},
			{
				"type": "unocc",
				"energy": -0.08794,
				"method": "rhf"
			},
			{
				"type": "unocc",
				"energy": 0.04344,
				"method": "rhf"
			},
			{
				"type": "unocc",
				"energy": 0.06433,
				"method": "rhf"
			},
			{
				"type": "unocc",
				"energy": 0.08167,
				"method": "rhf"
			},
			{
				"type": "unocc",
				"energy": 0.10137,
				"method": "rhf"
			}
		],
		"cosmo_sigma_profile": { 
			"-0.025": 0.0,
			"-0.024": 0.0,
			"-0.023": 0.0,
			"-0.022": 0.0,
			"-0.021": 0.0,
			"-0.02": 0.0,
			"-0.019": 0.0,
			"-0.018": 0.0,
			"-0.017": 0.0,
			"-0.016": 0.0,
			"-0.015": 0.0,
			"-0.014": 0.0,
			"-0.013": 0.438716468911,
			"-0.012": 0.665361880435,
			"-0.011": 0.685939750897,
			"-0.01": 0.737680917741,
			"-0.009": 0.276481952895,
			"-0.008": 0.776027908951,
			"-0.007": 2.04678036815,
			"-0.006": 5.65219527012,
			"-0.005": 13.3211763604,
			"-0.004": 23.2234265197,
			"-0.003": 35.5310020972,
			"-0.002": 30.7709761118,
			"-0.001": 22.1864101008,
			"0.0": 12.9599507547,
			"0.001": 6.92673276273,
			"0.002": 4.18912041973,
			"0.003": 4.05639947769,
			"0.004": 4.48542141547,
			"0.005": 3.92813920538,
			"0.006": 3.36478348163,
			"0.007": 3.96254696922,
			"0.008": 5.06482510148,
			"0.009": 4.03270913631,
			"0.01": 7.01747629008,
			"0.011": 9.12351624397,
			"0.012": 3.92113921743,
			"0.013": 2.09326309133,
			"0.014": 0.0370408758524,
			"0.015": 0.0,
			"0.016": 0.0,
			"0.017": 0.0,
			"0.018": 0.0,
			"0.019": 0.0,
			"0.02": 0.0,
			"0.021": 0.0,
			"0.022": 0.0,
			"0.023": 0.0,
			"0.024": 0.0,
			"0.025": 0.0
		}
	}
}
