{
	 "smiles": "NC(=O)C1=C2C=CNC2=CC=C1", 
	 "Tm": 412.15, 
	 "num_atms": 20, 
	 "gaussian": { 
		 "optdone": 1, 
		 "sigma_profile": "yes", 
		 "theory": "DFT", 
		 "functional": "B3LYP", 
		 "basiset": "6-31G**", 
		 "properties": { 
			 "R2extent": 2315.223, 
			 "electric_dipole_moment_norm": 3.76197049829, 
			 "electric_quadrupole_moment_norm": 14.5603026418, 
			 "total_energy": -532.527432276, 
			 "HOMO_LUMO_gap": 0.17164, 
			 "cosmo_polarized_energy": -17.51, 
			 "cosmo_cavitation_energy": 23.9, 
			 "cosmo_dispersion_energy": -18.12, 
			 "cosmo_repulsion_energy": 1.43, 
			 "cosmo_total_nonelectrostatic_energy": 7.21, 
			 "SMD_solvation_energy": 4.78 
		},
		"coords": [
			{
				"x": -1.723868645,
				"y": -1.8233804239,
				"z": 3.1698690522,
				"element": "N" 
			},
			{
				"x": -0.8454141902,
				"y": -1.7350230751,
				"z": 2.1100807385,
				"element": "C" 
			},
			{
				"x": -0.3566801209,
				"y": -2.7417991422,
				"z": 1.6073614371,
				"element": "O" 
			},
			{
				"x": -0.5557518778,
				"y": -0.3541286111,
				"z": 1.6094798339,
				"element": "C" 
			},
			{
				"x": 0.609556795,
				"y": -0.1241631881,
				"z": 0.8400141207,
				"element": "C" 
			},
			{
				"x": 1.6837925959,
				"y": -0.9531654511,
				"z": 0.3734606331,
				"element": "C" 
			},
			{
				"x": 2.5429559728,
				"y": -0.1408315618,
				"z": -0.3186675542,
				"element": "C" 
			},
			{
				"x": 2.0672250762,
				"y": 1.1580732035,
				"z": -0.3125987241,
				"element": "N" 
			},
			{
				"x": 0.8808002862,
				"y": 1.2008107912,
				"z": 0.3886852099,
				"element": "C" 
			},
			{
				"x": 0.0329078004,
				"y": 2.2781101472,
				"z": 0.6563841336,
				"element": "C" 
			},
			{
				"x": -1.1176729092,
				"y": 2.0213843518,
				"z": 1.3943159957,
				"element": "C" 
			},
			{
				"x": -1.4043000195,
				"y": 0.7272717546,
				"z": 1.8632035537,
				"element": "C" 
			},
			{
				"x": -1.8358599317,
				"y": -1.0408659461,
				"z": 3.7954406299,
				"element": "H" 
			},
			{
				"x": -1.8058379364,
				"y": -2.7448366103,
				"z": 3.5751646292,
				"element": "H" 
			},
			{
				"x": 1.7746335535,
				"y": -2.0156563078,
				"z": 0.5280437852,
				"element": "H" 
			},
			{
				"x": 3.4650681921,
				"y": -0.3816321091,
				"z": -0.8284523833,
				"element": "H" 
			},
			{
				"x": 2.510569479,
				"y": 1.9444805006,
				"z": -0.757634943,
				"element": "H" 
			},
			{
				"x": 0.2572257984,
				"y": 3.2782536624,
				"z": 0.2959026324,
				"element": "H" 
			},
			{
				"x": -1.8100542753,
				"y": 2.8301371734,
				"z": 1.6072198748,
				"element": "H" 
			},
			{
				"x": -2.3318956434,
				"y": 0.5648608419,
				"z": 2.4034273447,
				"element": "H" 
			}
		],
		 "valence_orbital": [ 
			{
				"type": "occ",
				"energy": -0.27577,
				"method": "rhf"
			},
			{
				"type": "occ",
				"energy": -0.26259,
				"method": "rhf"
			},
			{
				"type": "occ",
				"energy": -0.23865,
				"method": "rhf"
			},
			{
				"type": "occ",
				"energy": -0.22478,
				"method": "rhf"
			},
			{
				"type": "occ",
				"energy": -0.20535,
				"method": "rhf"
			},
			{
				"type": "unocc",
				"energy": -0.03371,
				"method": "rhf"
			},
			{
				"type": "unocc",
				"energy": 0.01644,
				"method": "rhf"
			},
			{
				"type": "unocc",
				"energy": 0.06307,
				"method": "rhf"
			},
			{
				"type": "unocc",
				"energy": 0.0769,
				"method": "rhf"
			},
			{
				"type": "unocc",
				"energy": 0.07796,
				"method": "rhf"
			}
		],
		"cosmo_sigma_profile": { 
			"-0.025": 0.0,
			"-0.024": 0.0,
			"-0.023": 0.0,
			"-0.022": 0.0,
			"-0.021": 0.0,
			"-0.02": 0.0,
			"-0.019": 0.0,
			"-0.018": 0.0,
			"-0.017": 0.0,
			"-0.016": 0.878264474328,
			"-0.015": 1.63806764721,
			"-0.014": 1.5716574742,
			"-0.013": 2.89967401914,
			"-0.012": 4.2059984175,
			"-0.011": 3.24304792335,
			"-0.01": 3.77615107877,
			"-0.009": 3.39452824016,
			"-0.008": 6.66509586719,
			"-0.007": 6.36464392175,
			"-0.006": 7.2717453301,
			"-0.005": 8.4602062609,
			"-0.004": 9.3478688725,
			"-0.003": 9.270433552,
			"-0.002": 7.47637678652,
			"-0.001": 8.45250792325,
			"0.0": 8.60361955931,
			"0.001": 8.60193736058,
			"0.002": 10.6682802787,
			"0.003": 9.66968813366,
			"0.004": 17.0120995605,
			"0.005": 18.3026124592,
			"0.006": 9.96085500105,
			"0.007": 5.11735432436,
			"0.008": 2.86148086829,
			"0.009": 2.22646308554,
			"0.01": 1.08511348051,
			"0.011": 2.29317461461,
			"0.012": 2.28640766598,
			"0.013": 2.8911288253,
			"0.014": 3.92852303849,
			"0.015": 0.702565501128,
			"0.016": 0.0,
			"0.017": 0.0,
			"0.018": 0.0,
			"0.019": 0.0,
			"0.02": 0.0,
			"0.021": 0.0,
			"0.022": 0.0,
			"0.023": 0.0,
			"0.024": 0.0,
			"0.025": 0.0
		}
	}
}
