{
	 "smiles": "FC1=CC(C=O)=C2OCOCC2=C1", 
	 "Tm": 387.15, 
	 "num_atms": 20, 
	 "gaussian": { 
		 "optdone": 1, 
		 "sigma_profile": "yes", 
		 "theory": "DFT", 
		 "functional": "B3LYP", 
		 "basiset": "6-31G**", 
		 "properties": { 
			 "R2extent": 2548.9455, 
			 "electric_dipole_moment_norm": 3.28808338702, 
			 "electric_quadrupole_moment_norm": 10.5257339089, 
			 "total_energy": -672.644481693, 
			 "HOMO_LUMO_gap": 0.16712, 
			 "cosmo_polarized_energy": -12.88, 
			 "cosmo_cavitation_energy": 24.66, 
			 "cosmo_dispersion_energy": -18.34, 
			 "cosmo_repulsion_energy": 1.41, 
			 "cosmo_total_nonelectrostatic_energy": 7.73, 
			 "SMD_solvation_energy": 6.17 
		},
		"coords": [
			{
				"x": -2.285782942,
				"y": 1.5310349206,
				"z": 1.9398985277,
				"element": "F" 
			},
			{
				"x": -1.5765477564,
				"y": 0.867717841,
				"z": 1.0022846469,
				"element": "C" 
			},
			{
				"x": -0.1967432863,
				"y": 0.978390105,
				"z": 0.9832658428,
				"element": "C" 
			},
			{
				"x": 0.5498957723,
				"y": 0.2967423437,
				"z": 0.0109017996,
				"element": "C" 
			},
			{
				"x": 2.0217957625,
				"y": 0.4729936124,
				"z": 0.0488656497,
				"element": "C" 
			},
			{
				"x": 2.8365389618,
				"y": -0.0253626903,
				"z": -0.6995374591,
				"element": "O" 
			},
			{
				"x": -0.1280919043,
				"y": -0.4987896657,
				"z": -0.94228761,
				"element": "C" 
			},
			{
				"x": 0.5963915187,
				"y": -1.1507766919,
				"z": -1.8880512627,
				"element": "O" 
			},
			{
				"x": -0.1736524432,
				"y": -1.6747557218,
				"z": -2.9683764773,
				"element": "C" 
			},
			{
				"x": -1.289824275,
				"y": -2.3870366839,
				"z": -2.5324596187,
				"element": "O" 
			},
			{
				"x": -2.2226484748,
				"y": -1.5225916025,
				"z": -1.890413024,
				"element": "C" 
			},
			{
				"x": -1.5292700146,
				"y": -0.6169379423,
				"z": -0.8945524667,
				"element": "C" 
			},
			{
				"x": -2.2490662085,
				"y": 0.0755434625,
				"z": 0.0799797155,
				"element": "C" 
			},
			{
				"x": 0.3047873109,
				"y": 1.5966404029,
				"z": 1.7217583756,
				"element": "H" 
			},
			{
				"x": 2.3473308355,
				"y": 1.1474330058,
				"z": 0.8748381922,
				"element": "H" 
			},
			{
				"x": 0.482956226,
				"y": -2.3659709585,
				"z": -3.4957760953,
				"element": "H" 
			},
			{
				"x": -0.4676167238,
				"y": -0.8367339847,
				"z": -3.6221121314,
				"element": "H" 
			},
			{
				"x": -2.9434431956,
				"y": -2.1731532731,
				"z": -1.3868529643,
				"element": "H" 
			},
			{
				"x": -2.7719841553,
				"y": -0.9310348147,
				"z": -2.6416818039,
				"element": "H" 
			},
			{
				"x": -3.3307250079,
				"y": -0.0056516646,
				"z": 0.1379081635,
				"element": "H" 
			}
		],
		 "valence_orbital": [ 
			{
				"type": "occ",
				"energy": -0.32703,
				"method": "rhf"
			},
			{
				"type": "occ",
				"energy": -0.29521,
				"method": "rhf"
			},
			{
				"type": "occ",
				"energy": -0.27275,
				"method": "rhf"
			},
			{
				"type": "occ",
				"energy": -0.24887,
				"method": "rhf"
			},
			{
				"type": "occ",
				"energy": -0.23443,
				"method": "rhf"
			},
			{
				"type": "unocc",
				"energy": -0.06731,
				"method": "rhf"
			},
			{
				"type": "unocc",
				"energy": -0.0128,
				"method": "rhf"
			},
			{
				"type": "unocc",
				"energy": 0.03497,
				"method": "rhf"
			},
			{
				"type": "unocc",
				"energy": 0.08373,
				"method": "rhf"
			},
			{
				"type": "unocc",
				"energy": 0.08688,
				"method": "rhf"
			}
		],
		"cosmo_sigma_profile": { 
			"-0.025": 0.0,
			"-0.024": 0.0,
			"-0.023": 0.0,
			"-0.022": 0.0,
			"-0.021": 0.0,
			"-0.02": 0.0,
			"-0.019": 0.0,
			"-0.018": 0.0,
			"-0.017": 0.0,
			"-0.016": 0.0,
			"-0.015": 0.0,
			"-0.014": 0.0,
			"-0.013": 0.0,
			"-0.012": 0.0,
			"-0.011": 0.0,
			"-0.01": 0.0,
			"-0.009": 1.4653897283,
			"-0.008": 8.81021733512,
			"-0.007": 14.3290553214,
			"-0.006": 17.4271166282,
			"-0.005": 13.512983323,
			"-0.004": 10.4680129577,
			"-0.003": 9.67867863536,
			"-0.002": 8.25573243038,
			"-0.001": 11.0823680418,
			"0.0": 17.4571247714,
			"0.001": 19.0406982322,
			"0.002": 7.98003589716,
			"0.003": 7.45161693423,
			"0.004": 12.503841166,
			"0.005": 6.60723835437,
			"0.006": 2.98828797497,
			"0.007": 2.70978157448,
			"0.008": 4.08502124148,
			"0.009": 2.88454544212,
			"0.01": 4.11058518224,
			"0.011": 5.60729693727,
			"0.012": 4.435197642,
			"0.013": 2.58833694938,
			"0.014": 1.19930868981,
			"0.015": 0.790639187286,
			"0.016": 0.00975354731801,
			"0.017": 0.0,
			"0.018": 0.0,
			"0.019": 0.0,
			"0.02": 0.0,
			"0.021": 0.0,
			"0.022": 0.0,
			"0.023": 0.0,
			"0.024": 0.0,
			"0.025": 0.0
		}
	}
}
