{
	 "smiles": "COC1=CC(CO)=CC(OC)=C1O", 
	 "Tm": 403.65, 
	 "num_atms": 25, 
	 "gaussian": { 
		 "optdone": 1, 
		 "sigma_profile": "yes", 
		 "theory": "DFT", 
		 "functional": "B3LYP", 
		 "basiset": "6-31G**", 
		 "properties": { 
			 "R2extent": 3085.2179, 
			 "electric_dipole_moment_norm": 2.22344163404, 
			 "electric_quadrupole_moment_norm": 10.3408613993, 
			 "total_energy": -651.040644473, 
			 "HOMO_LUMO_gap": 0.21253, 
			 "cosmo_polarized_energy": -11.98, 
			 "cosmo_cavitation_energy": 28.36, 
			 "cosmo_dispersion_energy": -20.88, 
			 "cosmo_repulsion_energy": 1.69, 
			 "cosmo_total_nonelectrostatic_energy": 9.17, 
			 "SMD_solvation_energy": 6.75 
		},
		"coords": [
			{
				"x": -1.0407122444,
				"y": -0.9913995095,
				"z": -2.3747272135,
				"element": "C" 
			},
			{
				"x": -1.6246194895,
				"y": -0.3698782967,
				"z": -1.2395642179,
				"element": "O" 
			},
			{
				"x": -0.7849251882,
				"y": 0.1371243592,
				"z": -0.2741417774,
				"element": "C" 
			},
			{
				"x": 0.6049044096,
				"y": 0.1009614763,
				"z": -0.3036171047,
				"element": "C" 
			},
			{
				"x": 1.3325743204,
				"y": 0.6469042486,
				"z": 0.765766437,
				"element": "C" 
			},
			{
				"x": 2.8477480295,
				"y": 0.638996605,
				"z": 0.7203196585,
				"element": "C" 
			},
			{
				"x": 3.3908499754,
				"y": -0.5210408282,
				"z": 0.0992222179,
				"element": "O" 
			},
			{
				"x": 0.6514455985,
				"y": 1.2221895375,
				"z": 1.8367432152,
				"element": "C" 
			},
			{
				"x": -0.7481452654,
				"y": 1.2654435459,
				"z": 1.868510497,
				"element": "C" 
			},
			{
				"x": -1.3541435705,
				"y": 1.7880243735,
				"z": 2.9831042939,
				"element": "O" 
			},
			{
				"x": -2.2532268492,
				"y": 2.8799577155,
				"z": 2.7709018446,
				"element": "C" 
			},
			{
				"x": -1.4777451477,
				"y": 0.7089887643,
				"z": 0.8111035181,
				"element": "C" 
			},
			{
				"x": -2.8430712009,
				"y": 0.6973835845,
				"z": 0.831766843,
				"element": "O" 
			},
			{
				"x": -0.4130826859,
				"y": -0.2882773329,
				"z": -2.9357452453,
				"element": "H" 
			},
			{
				"x": -0.4370852648,
				"y": -1.860977609,
				"z": -2.0872194178,
				"element": "H" 
			},
			{
				"x": -1.8700801634,
				"y": -1.3182378408,
				"z": -3.0037499752,
				"element": "H" 
			},
			{
				"x": 1.1430584863,
				"y": -0.3509297113,
				"z": -1.1280735677,
				"element": "H" 
			},
			{
				"x": 3.2462804929,
				"y": 0.7774731789,
				"z": 1.7374455189,
				"element": "H" 
			},
			{
				"x": 3.2175448781,
				"y": 1.4779221889,
				"z": 0.1181031527,
				"element": "H" 
			},
			{
				"x": 3.0479966261,
				"y": -1.2869925627,
				"z": 0.5792810764,
				"element": "H" 
			},
			{
				"x": 1.1868789068,
				"y": 1.6463289715,
				"z": 2.6810309367,
				"element": "H" 
			},
			{
				"x": -3.1283747318,
				"y": 2.5778392175,
				"z": 2.1898655536,
				"element": "H" 
			},
			{
				"x": -1.745815711,
				"y": 3.7100735915,
				"z": 2.2620806356,
				"element": "H" 
			},
			{
				"x": -2.5663618706,
				"y": 3.2075079318,
				"z": 3.7644746993,
				"element": "H" 
			},
			{
				"x": -3.1258923402,
				"y": 0.2646144008,
				"z": 0.0110184213,
				"element": "H" 
			}
		],
		 "valence_orbital": [ 
			{
				"type": "occ",
				"energy": -0.30894,
				"method": "rhf"
			},
			{
				"type": "occ",
				"energy": -0.27339,
				"method": "rhf"
			},
			{
				"type": "occ",
				"energy": -0.27092,
				"method": "rhf"
			},
			{
				"type": "occ",
				"energy": -0.22128,
				"method": "rhf"
			},
			{
				"type": "occ",
				"energy": -0.2033,
				"method": "rhf"
			},
			{
				"type": "unocc",
				"energy": 0.00923,
				"method": "rhf"
			},
			{
				"type": "unocc",
				"energy": 0.01412,
				"method": "rhf"
			},
			{
				"type": "unocc",
				"energy": 0.0717,
				"method": "rhf"
			},
			{
				"type": "unocc",
				"energy": 0.08895,
				"method": "rhf"
			},
			{
				"type": "unocc",
				"energy": 0.10009,
				"method": "rhf"
			}
		],
		"cosmo_sigma_profile": { 
			"-0.025": 0.0,
			"-0.024": 0.0,
			"-0.023": 0.0,
			"-0.022": 0.0,
			"-0.021": 0.0,
			"-0.02": 0.0,
			"-0.019": 0.0,
			"-0.018": 0.0,
			"-0.017": 0.0,
			"-0.016": 0.0629132109909,
			"-0.015": 0.665199905103,
			"-0.014": 1.45591188213,
			"-0.013": 1.53385108771,
			"-0.012": 1.30977108983,
			"-0.011": 0.5214914988,
			"-0.01": 1.61263073475,
			"-0.009": 1.99336200534,
			"-0.008": 1.45158292906,
			"-0.007": 1.63054560573,
			"-0.006": 7.31683742428,
			"-0.005": 19.0670483581,
			"-0.004": 22.5127011466,
			"-0.003": 23.8833616601,
			"-0.002": 19.5307165556,
			"-0.001": 12.8853185819,
			"0.0": 11.041099486,
			"0.001": 11.0149687799,
			"0.002": 14.2714240704,
			"0.003": 12.4158846631,
			"0.004": 13.8004556709,
			"0.005": 11.7097254373,
			"0.006": 6.19500925199,
			"0.007": 4.36379772233,
			"0.008": 3.66589966486,
			"0.009": 4.14343037232,
			"0.01": 3.88538736887,
			"0.011": 3.03672958971,
			"0.012": 2.67860078315,
			"0.013": 1.52121026697,
			"0.014": 2.12477265672,
			"0.015": 0.176165331499,
			"0.016": 0.0,
			"0.017": 0.0,
			"0.018": 0.0,
			"0.019": 0.0,
			"0.02": 0.0,
			"0.021": 0.0,
			"0.022": 0.0,
			"0.023": 0.0,
			"0.024": 0.0,
			"0.025": 0.0
		}
	}
}
