{
	 "smiles": "CC(C)COC1=CC(=CC=C1)C(O)=O", 
	 "Tm": 360.15, 
	 "num_atms": 28, 
	 "gaussian": { 
		 "optdone": 1, 
		 "sigma_profile": "yes", 
		 "theory": "DFT", 
		 "functional": "B3LYP", 
		 "basiset": "6-31G**", 
		 "properties": { 
			 "R2extent": 3703.8193, 
			 "electric_dipole_moment_norm": 2.64613600557, 
			 "electric_quadrupole_moment_norm": 8.55944699031, 
			 "total_energy": -653.302622354, 
			 "HOMO_LUMO_gap": 0.17881, 
			 "cosmo_polarized_energy": -10.13, 
			 "cosmo_cavitation_energy": 31.42, 
			 "cosmo_dispersion_energy": -22.09, 
			 "cosmo_repulsion_energy": 1.76, 
			 "cosmo_total_nonelectrostatic_energy": 11.08, 
			 "SMD_solvation_energy": 6.89 
		},
		"coords": [
			{
				"x": 0.8807015561,
				"y": 3.0691114617,
				"z": 2.0791891748,
				"element": "C" 
			},
			{
				"x": 0.19581365,
				"y": 1.7197426947,
				"z": 2.332408321,
				"element": "C" 
			},
			{
				"x": 0.2373422697,
				"y": 1.3306182327,
				"z": 3.8171845822,
				"element": "C" 
			},
			{
				"x": -1.2615379948,
				"y": 1.7401949392,
				"z": 1.8499314714,
				"element": "C" 
			},
			{
				"x": -1.3972873459,
				"y": 2.0535946529,
				"z": 0.4605029695,
				"element": "O" 
			},
			{
				"x": -1.2387139082,
				"y": 1.0778256989,
				"z": -0.4803162829,
				"element": "C" 
			},
			{
				"x": -0.9553618906,
				"y": -0.2644052988,
				"z": -0.2108671202,
				"element": "C" 
			},
			{
				"x": -0.8368509594,
				"y": -1.1725722966,
				"z": -1.2753678904,
				"element": "C" 
			},
			{
				"x": -0.9942356827,
				"y": -0.7522869582,
				"z": -2.5990050715,
				"element": "C" 
			},
			{
				"x": -1.2730034381,
				"y": 0.5902538525,
				"z": -2.8569055111,
				"element": "C" 
			},
			{
				"x": -1.394847817,
				"y": 1.4996046339,
				"z": -1.8114320425,
				"element": "C" 
			},
			{
				"x": -0.5363499392,
				"y": -2.608974959,
				"z": -1.0343935422,
				"element": "C" 
			},
			{
				"x": -0.3970873373,
				"y": -2.9144068625,
				"z": 0.2827821276,
				"element": "O" 
			},
			{
				"x": -0.4200830579,
				"y": -3.4527113009,
				"z": -1.9013746153,
				"element": "O" 
			},
			{
				"x": 0.4028104136,
				"y": 3.8648132654,
				"z": 2.664143836,
				"element": "H" 
			},
			{
				"x": 0.8236391595,
				"y": 3.3485837164,
				"z": 1.0238487135,
				"element": "H" 
			},
			{
				"x": 1.9363238818,
				"y": 3.0316346378,
				"z": 2.367152027,
				"element": "H" 
			},
			{
				"x": 0.7313308664,
				"y": 0.9503917618,
				"z": 1.7604247633,
				"element": "H" 
			},
			{
				"x": -0.3037452929,
				"y": 2.0608195609,
				"z": 4.4313972207,
				"element": "H" 
			},
			{
				"x": 1.2689519716,
				"y": 1.2950911547,
				"z": 4.180858245,
				"element": "H" 
			},
			{
				"x": -0.2121739756,
				"y": 0.3468926804,
				"z": 3.992856094,
				"element": "H" 
			},
			{
				"x": -1.8086587884,
				"y": 2.5380528907,
				"z": 2.3640726185,
				"element": "H" 
			},
			{
				"x": -1.7689345133,
				"y": 0.7938307473,
				"z": 2.0769787913,
				"element": "H" 
			},
			{
				"x": -0.8203087802,
				"y": -0.6244204961,
				"z": 0.7995987399,
				"element": "H" 
			},
			{
				"x": -0.8944169449,
				"y": -1.4786702493,
				"z": -3.3971322031,
				"element": "H" 
			},
			{
				"x": -1.3981334406,
				"y": 0.9322154225,
				"z": -3.8799757841,
				"element": "H" 
			},
			{
				"x": -1.6152103595,
				"y": 2.5462516114,
				"z": -1.9951582064,
				"element": "H" 
			},
			{
				"x": -0.2065723022,
				"y": -3.8662751944,
				"z": 0.3092985741,
				"element": "H" 
			}
		],
		 "valence_orbital": [ 
			{
				"type": "occ",
				"energy": -0.32025,
				"method": "rhf"
			},
			{
				"type": "occ",
				"energy": -0.31014,
				"method": "rhf"
			},
			{
				"type": "occ",
				"energy": -0.27412,
				"method": "rhf"
			},
			{
				"type": "occ",
				"energy": -0.26034,
				"method": "rhf"
			},
			{
				"type": "occ",
				"energy": -0.22476,
				"method": "rhf"
			},
			{
				"type": "unocc",
				"energy": -0.04595,
				"method": "rhf"
			},
			{
				"type": "unocc",
				"energy": 0.00347,
				"method": "rhf"
			},
			{
				"type": "unocc",
				"energy": 0.06291,
				"method": "rhf"
			},
			{
				"type": "unocc",
				"energy": 0.07323,
				"method": "rhf"
			},
			{
				"type": "unocc",
				"energy": 0.0832,
				"method": "rhf"
			}
		],
		"cosmo_sigma_profile": { 
			"-0.025": 0.0,
			"-0.024": 0.0,
			"-0.023": 0.0,
			"-0.022": 0.0,
			"-0.021": 0.0,
			"-0.02": 0.0,
			"-0.019": 0.0,
			"-0.018": 0.631336208442,
			"-0.017": 1.09859416732,
			"-0.016": 0.627677650614,
			"-0.015": 0.750001137076,
			"-0.014": 1.00429946594,
			"-0.013": 0.634721515709,
			"-0.012": 0.679304146221,
			"-0.011": 0.492707904155,
			"-0.01": 0.535551046982,
			"-0.009": 0.618697093917,
			"-0.008": 0.798303774033,
			"-0.007": 2.98249630151,
			"-0.006": 6.99416961987,
			"-0.005": 10.523544408,
			"-0.004": 15.5030780259,
			"-0.003": 22.4876106759,
			"-0.002": 26.306176438,
			"-0.001": 23.3975456067,
			"0.0": 23.9458838241,
			"0.001": 27.6240529682,
			"0.002": 19.3261617226,
			"0.003": 16.2666003257,
			"0.004": 12.2841838067,
			"0.005": 7.2387831311,
			"0.006": 4.36077649684,
			"0.007": 2.98704041718,
			"0.008": 3.47634009342,
			"0.009": 3.03478330328,
			"0.01": 2.78505638147,
			"0.011": 3.52613089211,
			"0.012": 4.4345399578,
			"0.013": 0.0908393572239,
			"0.014": 0.0,
			"0.015": 0.0,
			"0.016": 0.0,
			"0.017": 0.0,
			"0.018": 0.0,
			"0.019": 0.0,
			"0.02": 0.0,
			"0.021": 0.0,
			"0.022": 0.0,
			"0.023": 0.0,
			"0.024": 0.0,
			"0.025": 0.0
		}
	}
}
