{
	 "smiles": "NC1=CC(=CC=C1)S(=O)(=O)C1CCCC1", 
	 "Tm": 391.15, 
	 "num_atms": 30, 
	 "gaussian": { 
		 "optdone": 1, 
		 "sigma_profile": "yes", 
		 "theory": "DFT", 
		 "functional": "B3LYP", 
		 "basiset": "6-31G**", 
		 "properties": { 
			 "R2extent": 5146.2336, 
			 "electric_dipole_moment_norm": 6.17232499468, 
			 "electric_quadrupole_moment_norm": 23.108760547, 
			 "total_energy": -1031.54553009, 
			 "HOMO_LUMO_gap": 0.18814, 
			 "cosmo_polarized_energy": -18.23, 
			 "cosmo_cavitation_energy": 32.66, 
			 "cosmo_dispersion_energy": -24.0, 
			 "cosmo_repulsion_energy": 1.84, 
			 "cosmo_total_nonelectrostatic_energy": 10.5, 
			 "SMD_solvation_energy": 4.15 
		},
		"coords": [
			{
				"x": -3.1910243455,
				"y": -1.6330620541,
				"z": 3.4687946469,
				"element": "N" 
			},
			{
				"x": -2.0987048556,
				"y": -2.2354853457,
				"z": 2.8565349106,
				"element": "C" 
			},
			{
				"x": -0.9730198773,
				"y": -1.474687278,
				"z": 2.4921719609,
				"element": "C" 
			},
			{
				"x": 0.1351136339,
				"y": -2.1106359539,
				"z": 1.9403880888,
				"element": "C" 
			},
			{
				"x": 0.1815803419,
				"y": -3.4913711775,
				"z": 1.7376412129,
				"element": "C" 
			},
			{
				"x": -0.9421404212,
				"y": -4.2386981236,
				"z": 2.0935600069,
				"element": "C" 
			},
			{
				"x": -2.0674280211,
				"y": -3.6257531276,
				"z": 2.6398194873,
				"element": "C" 
			},
			{
				"x": 1.5606985729,
				"y": -1.1041901082,
				"z": 1.4805461538,
				"element": "S" 
			},
			{
				"x": 2.7772969754,
				"y": -1.8912286626,
				"z": 1.7553064446,
				"element": "O" 
			},
			{
				"x": 1.3786269688,
				"y": 0.2311838679,
				"z": 2.086010341,
				"element": "O" 
			},
			{
				"x": 1.4186220783,
				"y": -0.9548070867,
				"z": -0.3484414673,
				"element": "C" 
			},
			{
				"x": 0.2708595014,
				"y": -0.0254693887,
				"z": -0.7820008016,
				"element": "C" 
			},
			{
				"x": 0.8798376116,
				"y": 1.4011576993,
				"z": -0.8631829605,
				"element": "C" 
			},
			{
				"x": 2.4236339295,
				"y": 1.2263800816,
				"z": -0.7964344035,
				"element": "C" 
			},
			{
				"x": 2.6837532025,
				"y": -0.2894311384,
				"z": -0.9204598067,
				"element": "C" 
			},
			{
				"x": -4.0680056267,
				"y": -2.1295653026,
				"z": 3.4067755638,
				"element": "H" 
			},
			{
				"x": -3.2903244367,
				"y": -0.6385970949,
				"z": 3.3250920219,
				"element": "H" 
			},
			{
				"x": -0.9427568896,
				"y": -0.4027872123,
				"z": 2.6612668723,
				"element": "H" 
			},
			{
				"x": 1.0748006058,
				"y": -3.9622559624,
				"z": 1.343397229,
				"element": "H" 
			},
			{
				"x": -0.940410196,
				"y": -5.3155167379,
				"z": 1.9514266104,
				"element": "H" 
			},
			{
				"x": -2.9294766929,
				"y": -4.2267015685,
				"z": 2.9183742021,
				"element": "H" 
			},
			{
				"x": 1.2930368083,
				"y": -1.9892383195,
				"z": -0.6810699282,
				"element": "H" 
			},
			{
				"x": -0.0641764161,
				"y": -0.3583877089,
				"z": -1.7709468004,
				"element": "H" 
			},
			{
				"x": -0.5986109201,
				"y": -0.0848235003,
				"z": -0.1215950829,
				"element": "H" 
			},
			{
				"x": 0.5664954994,
				"y": 1.8971689448,
				"z": -1.7870371909,
				"element": "H" 
			},
			{
				"x": 0.5323975779,
				"y": 2.0159017786,
				"z": -0.030126824,
				"element": "H" 
			},
			{
				"x": 2.9425413541,
				"y": 1.7887228295,
				"z": -1.5783978443,
				"element": "H" 
			},
			{
				"x": 2.7943879365,
				"y": 1.5850330852,
				"z": 0.1667528879,
				"element": "H" 
			},
			{
				"x": 2.757777067,
				"y": -0.5863616218,
				"z": -1.9737130909,
				"element": "H" 
			},
			{
				"x": 3.5968190335,
				"y": -0.6246938127,
				"z": -0.4219524398,
				"element": "H" 
			}
		],
		 "valence_orbital": [ 
			{
				"type": "occ",
				"energy": -0.29732,
				"method": "rhf"
			},
			{
				"type": "occ",
				"energy": -0.28458,
				"method": "rhf"
			},
			{
				"type": "occ",
				"energy": -0.27038,
				"method": "rhf"
			},
			{
				"type": "occ",
				"energy": -0.2641,
				"method": "rhf"
			},
			{
				"type": "occ",
				"energy": -0.21792,
				"method": "rhf"
			},
			{
				"type": "unocc",
				"energy": -0.02978,
				"method": "rhf"
			},
			{
				"type": "unocc",
				"energy": -0.00354,
				"method": "rhf"
			},
			{
				"type": "unocc",
				"energy": 0.06264,
				"method": "rhf"
			},
			{
				"type": "unocc",
				"energy": 0.06452,
				"method": "rhf"
			},
			{
				"type": "unocc",
				"energy": 0.07386,
				"method": "rhf"
			}
		],
		"cosmo_sigma_profile": { 
			"-0.025": 0.0,
			"-0.024": 0.0,
			"-0.023": 0.0,
			"-0.022": 0.0,
			"-0.021": 0.0,
			"-0.02": 0.0,
			"-0.019": 0.0,
			"-0.018": 0.0,
			"-0.017": 0.0,
			"-0.016": 0.0,
			"-0.015": 0.0,
			"-0.014": 0.04277579409,
			"-0.013": 1.8109430079,
			"-0.012": 2.8278668429,
			"-0.011": 3.43214549023,
			"-0.01": 2.65602571578,
			"-0.009": 3.78654060262,
			"-0.008": 3.02605710783,
			"-0.007": 6.95404303155,
			"-0.006": 9.20113505505,
			"-0.005": 13.5281093177,
			"-0.004": 17.634276112,
			"-0.003": 20.1004877152,
			"-0.002": 24.0069896392,
			"-0.001": 25.5654592667,
			"0.0": 21.3014005374,
			"0.001": 16.0866816909,
			"0.002": 11.0954903777,
			"0.003": 11.5931428243,
			"0.004": 14.7384922873,
			"0.005": 7.55424026345,
			"0.006": 4.1857354244,
			"0.007": 4.8708193129,
			"0.008": 3.31404766445,
			"0.009": 3.65473092903,
			"0.01": 4.96252124969,
			"0.011": 7.46720301832,
			"0.012": 7.86813459688,
			"0.013": 3.21943498808,
			"0.014": 0.0338192705669,
			"0.015": 0.0,
			"0.016": 0.0,
			"0.017": 0.0,
			"0.018": 0.0,
			"0.019": 0.0,
			"0.02": 0.0,
			"0.021": 0.0,
			"0.022": 0.0,
			"0.023": 0.0,
			"0.024": 0.0,
			"0.025": 0.0
		}
	}
}
