{
	 "smiles": "CC1=CC2=C(OC(=C2)C2=NN=C(S)N2N)C=C1", 
	 "Tm": 502.15, 
	 "num_atms": 27, 
	 "gaussian": { 
		 "optdone": 1, 
		 "sigma_profile": "yes", 
		 "theory": "DFT", 
		 "functional": "B3LYP", 
		 "basiset": "6-31G**", 
		 "properties": { 
			 "R2extent": 9072.3387, 
			 "electric_dipole_moment_norm": 5.19754924844, 
			 "electric_quadrupole_moment_norm": 29.0531162224, 
			 "total_energy": -1117.54740154, 
			 "HOMO_LUMO_gap": 0.16327, 
			 "cosmo_polarized_energy": -21.59, 
			 "cosmo_cavitation_energy": 33.8, 
			 "cosmo_dispersion_energy": -25.44, 
			 "cosmo_repulsion_energy": 1.91, 
			 "cosmo_total_nonelectrostatic_energy": 10.27, 
			 "SMD_solvation_energy": 4.14 
		},
		"coords": [
			{
				"x": -3.557756514,
				"y": -0.1239485106,
				"z": -0.7326739882,
				"element": "C" 
			},
			{
				"x": -2.0881653161,
				"y": -0.4750384098,
				"z": -0.6732153365,
				"element": "C" 
			},
			{
				"x": -1.12118947,
				"y": 0.5166971646,
				"z": -0.5178778222,
				"element": "C" 
			},
			{
				"x": 0.2359726751,
				"y": 0.1539377252,
				"z": -0.4686287239,
				"element": "C" 
			},
			{
				"x": 0.5825321345,
				"y": -1.2044569686,
				"z": -0.577624928,
				"element": "C" 
			},
			{
				"x": 1.9374554787,
				"y": -1.3612987441,
				"z": -0.5084987872,
				"element": "O" 
			},
			{
				"x": 2.4627613743,
				"y": -0.0980907938,
				"z": -0.3545036614,
				"element": "C" 
			},
			{
				"x": 1.4818059424,
				"y": 0.8554897785,
				"z": -0.3237629488,
				"element": "C" 
			},
			{
				"x": 3.9049745599,
				"y": -0.0424743528,
				"z": -0.2597013405,
				"element": "C" 
			},
			{
				"x": 4.7190954462,
				"y": -1.0777217859,
				"z": -0.3087731834,
				"element": "N" 
			},
			{
				"x": 6.0168125215,
				"y": -0.6152235129,
				"z": -0.1837891187,
				"element": "N" 
			},
			{
				"x": 5.9520821111,
				"y": 0.6865443438,
				"z": -0.0627951801,
				"element": "C" 
			},
			{
				"x": 7.2838006789,
				"y": 1.8277767099,
				"z": 0.1292180119,
				"element": "S" 
			},
			{
				"x": 4.6475126643,
				"y": 1.1172990415,
				"z": -0.1022762301,
				"element": "N" 
			},
			{
				"x": 4.1609605863,
				"y": 2.4236828663,
				"z": -0.007147179,
				"element": "N" 
			},
			{
				"x": -0.354065039,
				"y": -2.2199352565,
				"z": -0.7330917063,
				"element": "C" 
			},
			{
				"x": -1.6892243141,
				"y": -1.8298993793,
				"z": -0.7783896453,
				"element": "C" 
			},
			{
				"x": -4.0035418616,
				"y": -0.4274018083,
				"z": -1.6872551245,
				"element": "H" 
			},
			{
				"x": -4.1224792089,
				"y": -0.6288144048,
				"z": 0.0597194018,
				"element": "H" 
			},
			{
				"x": -3.7156505793,
				"y": 0.9521384109,
				"z": -0.6196801185,
				"element": "H" 
			},
			{
				"x": -1.4161993632,
				"y": 1.5593587145,
				"z": -0.4358062018,
				"element": "H" 
			},
			{
				"x": 1.6434166598,
				"y": 1.9157270681,
				"z": -0.211914973,
				"element": "H" 
			},
			{
				"x": 8.2151111278,
				"y": 0.8567918558,
				"z": 0.0917193989,
				"element": "H" 
			},
			{
				"x": 4.5444495553,
				"y": 2.9834936838,
				"z": -0.7655824961,
				"element": "H" 
			},
			{
				"x": 4.4416682636,
				"y": 2.8250830615,
				"z": 0.8848997199,
				"element": "H" 
			},
			{
				"x": -0.0529925206,
				"y": -3.2586057028,
				"z": -0.8138259683,
				"element": "H" 
			},
			{
				"x": -2.4552475929,
				"y": -2.5916107943,
				"z": -0.8987418709,
				"element": "H" 
			}
		],
		 "valence_orbital": [ 
			{
				"type": "occ",
				"energy": -0.29256,
				"method": "rhf"
			},
			{
				"type": "occ",
				"energy": -0.25516,
				"method": "rhf"
			},
			{
				"type": "occ",
				"energy": -0.25452,
				"method": "rhf"
			},
			{
				"type": "occ",
				"energy": -0.22922,
				"method": "rhf"
			},
			{
				"type": "occ",
				"energy": -0.20678,
				"method": "rhf"
			},
			{
				"type": "unocc",
				"energy": -0.04351,
				"method": "rhf"
			},
			{
				"type": "unocc",
				"energy": -0.00786,
				"method": "rhf"
			},
			{
				"type": "unocc",
				"energy": 0.01291,
				"method": "rhf"
			},
			{
				"type": "unocc",
				"energy": 0.01798,
				"method": "rhf"
			},
			{
				"type": "unocc",
				"energy": 0.03323,
				"method": "rhf"
			}
		],
		"cosmo_sigma_profile": { 
			"-0.025": 0.0,
			"-0.024": 0.0,
			"-0.023": 0.0,
			"-0.022": 0.0,
			"-0.021": 0.0,
			"-0.02": 0.0,
			"-0.019": 0.0,
			"-0.018": 0.0,
			"-0.017": 0.0,
			"-0.016": 0.0,
			"-0.015": 0.085443085705,
			"-0.014": 2.58417451288,
			"-0.013": 4.6808714576,
			"-0.012": 4.84192718754,
			"-0.011": 4.10556788801,
			"-0.01": 4.09201735908,
			"-0.009": 4.19631474501,
			"-0.008": 3.19158096685,
			"-0.007": 4.38241237108,
			"-0.006": 7.16800400934,
			"-0.005": 11.8345462481,
			"-0.004": 17.0515743629,
			"-0.003": 17.8220676217,
			"-0.002": 19.6416005122,
			"-0.001": 17.494690632,
			"0.0": 23.505749751,
			"0.001": 23.4165365545,
			"0.002": 20.7152363765,
			"0.003": 19.1446404303,
			"0.004": 16.1553995989,
			"0.005": 13.5973058066,
			"0.006": 5.07189088425,
			"0.007": 2.6655972559,
			"0.008": 2.09806060349,
			"0.009": 3.29005614522,
			"0.01": 2.18903883198,
			"0.011": 2.7964755525,
			"0.012": 3.37492311954,
			"0.013": 4.12659719394,
			"0.014": 3.42538353227,
			"0.015": 2.60210348946,
			"0.016": 1.74249306612,
			"0.017": 0.184704272519,
			"0.018": 0.0,
			"0.019": 0.0,
			"0.02": 0.0,
			"0.021": 0.0,
			"0.022": 0.0,
			"0.023": 0.0,
			"0.024": 0.0,
			"0.025": 0.0
		}
	}
}
