{
	 "smiles": "CC1=NC2=C(CCCC2)C(N)=C1", 
	 "Tm": 395.15, 
	 "num_atms": 26, 
	 "gaussian": { 
		 "optdone": 1, 
		 "sigma_profile": "yes", 
		 "theory": "DFT", 
		 "functional": "B3LYP", 
		 "basiset": "6-31G**", 
		 "properties": { 
			 "R2extent": 2258.7257, 
			 "electric_dipole_moment_norm": 3.26261713659, 
			 "electric_quadrupole_moment_norm": 7.55309282546, 
			 "total_energy": -499.036888748, 
			 "HOMO_LUMO_gap": 0.22245, 
			 "cosmo_polarized_energy": -10.82, 
			 "cosmo_cavitation_energy": 27.05, 
			 "cosmo_dispersion_energy": -20.55, 
			 "cosmo_repulsion_energy": 1.65, 
			 "cosmo_total_nonelectrostatic_energy": 8.16, 
			 "SMD_solvation_energy": 2.41 
		},
		"coords": [
			{
				"x": -0.7296394362,
				"y": 1.0026710767,
				"z": -3.5417412364,
				"element": "C" 
			},
			{
				"x": -0.3007152655,
				"y": 0.4541459044,
				"z": -2.2007432331,
				"element": "C" 
			},
			{
				"x": 0.2865497227,
				"y": 1.3131053343,
				"z": -1.3570674064,
				"element": "N" 
			},
			{
				"x": 0.6843202561,
				"y": 0.8554898519,
				"z": -0.1549300778,
				"element": "C" 
			},
			{
				"x": 0.5275965268,
				"y": -0.4695569042,
				"z": 0.2688259934,
				"element": "C" 
			},
			{
				"x": 0.9847335245,
				"y": -0.9441853611,
				"z": 1.6351316628,
				"element": "C" 
			},
			{
				"x": 1.8950814558,
				"y": 0.0580146502,
				"z": 2.3606734488,
				"element": "C" 
			},
			{
				"x": 1.3588866223,
				"y": 1.4853968698,
				"z": 2.2178718074,
				"element": "C" 
			},
			{
				"x": 1.3385742502,
				"y": 1.890793185,
				"z": 0.7406689897,
				"element": "C" 
			},
			{
				"x": -0.1157624845,
				"y": -1.3630605976,
				"z": -0.6211397593,
				"element": "C" 
			},
			{
				"x": -0.3891957072,
				"y": -2.6698337622,
				"z": -0.2448663493,
				"element": "N" 
			},
			{
				"x": -0.521856916,
				"y": -0.8839112387,
				"z": -1.8722283001,
				"element": "C" 
			},
			{
				"x": -0.2642432236,
				"y": 0.4515733798,
				"z": -4.3671716763,
				"element": "H" 
			},
			{
				"x": -1.8153750441,
				"y": 0.9277150986,
				"z": -3.6745777695,
				"element": "H" 
			},
			{
				"x": -0.4414453621,
				"y": 2.0526413343,
				"z": -3.6137143061,
				"element": "H" 
			},
			{
				"x": 1.5190655511,
				"y": -1.902523868,
				"z": 1.5441870707,
				"element": "H" 
			},
			{
				"x": 0.1017194811,
				"y": -1.15700703,
				"z": 2.2570604369,
				"element": "H" 
			},
			{
				"x": 1.9883480211,
				"y": -0.2264579741,
				"z": 3.4148967319,
				"element": "H" 
			},
			{
				"x": 2.9047624806,
				"y": 0.0122734854,
				"z": 1.9310122555,
				"element": "H" 
			},
			{
				"x": 0.3427082446,
				"y": 1.5371939326,
				"z": 2.6321291251,
				"element": "H" 
			},
			{
				"x": 1.9707156211,
				"y": 2.1883296197,
				"z": 2.7945632198,
				"element": "H" 
			},
			{
				"x": 0.8201387864,
				"y": 2.8428560516,
				"z": 0.5894966916,
				"element": "H" 
			},
			{
				"x": 2.368518174,
				"y": 2.0517084703,
				"z": 0.3898454129,
				"element": "H" 
			},
			{
				"x": -0.5859447235,
				"y": -3.3140134735,
				"z": -0.9971005967,
				"element": "H" 
			},
			{
				"x": 0.1889236909,
				"y": -3.0681827909,
				"z": 0.4797456004,
				"element": "H" 
			},
			{
				"x": -1.0146642467,
				"y": -1.5495752444,
				"z": -2.5772277361,
				"element": "H" 
			}
		],
		 "valence_orbital": [ 
			{
				"type": "occ",
				"energy": -0.30933,
				"method": "rhf"
			},
			{
				"type": "occ",
				"energy": -0.30858,
				"method": "rhf"
			},
			{
				"type": "occ",
				"energy": -0.23105,
				"method": "rhf"
			},
			{
				"type": "occ",
				"energy": -0.22519,
				"method": "rhf"
			},
			{
				"type": "occ",
				"energy": -0.2134,
				"method": "rhf"
			},
			{
				"type": "unocc",
				"energy": 0.00905,
				"method": "rhf"
			},
			{
				"type": "unocc",
				"energy": 0.01304,
				"method": "rhf"
			},
			{
				"type": "unocc",
				"energy": 0.07175,
				"method": "rhf"
			},
			{
				"type": "unocc",
				"energy": 0.10012,
				"method": "rhf"
			},
			{
				"type": "unocc",
				"energy": 0.11366,
				"method": "rhf"
			}
		],
		"cosmo_sigma_profile": { 
			"-0.025": 0.0,
			"-0.024": 0.0,
			"-0.023": 0.0,
			"-0.022": 0.0,
			"-0.021": 0.0,
			"-0.02": 0.0,
			"-0.019": 0.0,
			"-0.018": 0.0,
			"-0.017": 0.0,
			"-0.016": 0.0,
			"-0.015": 0.0,
			"-0.014": 0.0,
			"-0.013": 0.581669649095,
			"-0.012": 2.37953719789,
			"-0.011": 2.64867564852,
			"-0.01": 3.01871218641,
			"-0.009": 3.51429431385,
			"-0.008": 2.23798273241,
			"-0.007": 2.22095006181,
			"-0.006": 3.03279573683,
			"-0.005": 4.19671119464,
			"-0.004": 6.94606434394,
			"-0.003": 17.5596881909,
			"-0.002": 29.6769071861,
			"-0.001": 29.2060087776,
			"0.0": 27.513988568,
			"0.001": 19.9596089336,
			"0.002": 7.50061754137,
			"0.003": 6.1116171128,
			"0.004": 8.05265845406,
			"0.005": 11.6297984898,
			"0.006": 4.92883176622,
			"0.007": 3.06849337981,
			"0.008": 3.01650597354,
			"0.009": 2.03989058367,
			"0.01": 1.69885713945,
			"0.011": 1.98357312601,
			"0.012": 1.52049658102,
			"0.013": 1.37637242149,
			"0.014": 1.10138631519,
			"0.015": 0.783547925,
			"0.016": 0.801614456537,
			"0.017": 0.687526478204,
			"0.018": 0.204156660129,
			"0.019": 0.0,
			"0.02": 0.0,
			"0.021": 0.0,
			"0.022": 0.0,
			"0.023": 0.0,
			"0.024": 0.0,
			"0.025": 0.0
		}
	}
}
