{
	 "smiles": "NC1(CCCC1)C(=O)NCC1CC1", 
	 "Tm": 338.15, 
	 "num_atms": 31, 
	 "gaussian": { 
		 "optdone": 1, 
		 "sigma_profile": "yes", 
		 "theory": "DFT", 
		 "functional": "B3LYP", 
		 "basiset": "6-31G**", 
		 "properties": { 
			 "R2extent": 3563.5581, 
			 "electric_dipole_moment_norm": 3.1857682998, 
			 "electric_quadrupole_moment_norm": 7.75952028092, 
			 "total_energy": -576.630463671, 
			 "HOMO_LUMO_gap": 0.26435, 
			 "cosmo_polarized_energy": -12.4, 
			 "cosmo_cavitation_energy": 31.85, 
			 "cosmo_dispersion_energy": -22.62, 
			 "cosmo_repulsion_energy": 1.84, 
			 "cosmo_total_nonelectrostatic_energy": 11.06, 
			 "SMD_solvation_energy": 3.95 
		},
		"coords": [
			{
				"x": 2.6071539434,
				"y": -0.5276831409,
				"z": -2.4153248457,
				"element": "N" 
			},
			{
				"x": 1.6941521414,
				"y": -0.4801390973,
				"z": -1.271187454,
				"element": "C" 
			},
			{
				"x": 2.4747352748,
				"y": 0.0723712981,
				"z": -0.0544139754,
				"element": "C" 
			},
			{
				"x": 3.4006231546,
				"y": -1.0886255277,
				"z": 0.3739917634,
				"element": "C" 
			},
			{
				"x": 2.7005121122,
				"y": -2.3914884936,
				"z": -0.1131145239,
				"element": "C" 
			},
			{
				"x": 1.4059313213,
				"y": -1.9359271169,
				"z": -0.8252070217,
				"element": "C" 
			},
			{
				"x": 0.4069316942,
				"y": 0.3131668978,
				"z": -1.6225724384,
				"element": "C" 
			},
			{
				"x": 0.2213101801,
				"y": 0.740465329,
				"z": -2.7593305585,
				"element": "O" 
			},
			{
				"x": -0.5005060668,
				"y": 0.4964223143,
				"z": -0.6166830121,
				"element": "N" 
			},
			{
				"x": -1.7864088282,
				"y": 1.1548970447,
				"z": -0.8127709691,
				"element": "C" 
			},
			{
				"x": -2.9440953614,
				"y": 0.2964300327,
				"z": -0.3497892546,
				"element": "C" 
			},
			{
				"x": -3.3296055506,
				"y": 0.2666652538,
				"z": 1.1136396844,
				"element": "C" 
			},
			{
				"x": -4.224501795,
				"y": 0.9476039205,
				"z": 0.1065383661,
				"element": "C" 
			},
			{
				"x": 2.0771760378,
				"y": -0.8540297372,
				"z": -3.2221708781,
				"element": "H" 
			},
			{
				"x": 2.8562936939,
				"y": 0.428988301,
				"z": -2.6626329028,
				"element": "H" 
			},
			{
				"x": 1.7816615775,
				"y": 0.3287854555,
				"z": 0.7551650557,
				"element": "H" 
			},
			{
				"x": 3.0198121871,
				"y": 0.9891435611,
				"z": -0.3038523004,
				"element": "H" 
			},
			{
				"x": 4.3758186534,
				"y": -0.9852422301,
				"z": -0.1068787228,
				"element": "H" 
			},
			{
				"x": 3.5694456395,
				"y": -1.0852304932,
				"z": 1.4555797415,
				"element": "H" 
			},
			{
				"x": 3.3463421286,
				"y": -2.9246496203,
				"z": -0.8140925166,
				"element": "H" 
			},
			{
				"x": 2.4795377647,
				"y": -3.0771747324,
				"z": 0.7111268374,
				"element": "H" 
			},
			{
				"x": 0.5557481075,
				"y": -1.9529802764,
				"z": -0.1332571894,
				"element": "H" 
			},
			{
				"x": 1.1364270567,
				"y": -2.5709745086,
				"z": -1.6755393805,
				"element": "H" 
			},
			{
				"x": -0.3156119208,
				"y": 0.0991095887,
				"z": 0.2917706257,
				"element": "H" 
			},
			{
				"x": -1.8046170264,
				"y": 2.1152111888,
				"z": -0.2767559144,
				"element": "H" 
			},
			{
				"x": -1.8543321373,
				"y": 1.3748455319,
				"z": -1.8809035727,
				"element": "H" 
			},
			{
				"x": -3.0444757631,
				"y": -0.6420155978,
				"z": -0.8913215399,
				"element": "H" 
			},
			{
				"x": -2.775141378,
				"y": 0.9001977629,
				"z": 1.8019471812,
				"element": "H" 
			},
			{
				"x": -3.6578087041,
				"y": -0.6744057799,
				"z": 1.5442986074,
				"element": "H" 
			},
			{
				"x": -4.2662912483,
				"y": 2.0333876907,
				"z": 0.1185561127,
				"element": "H" 
			},
			{
				"x": -5.1643168886,
				"y": 0.4721751809,
				"z": -0.1558150045,
				"element": "H" 
			}
		],
		 "valence_orbital": [ 
			{
				"type": "occ",
				"energy": -0.30169,
				"method": "rhf"
			},
			{
				"type": "occ",
				"energy": -0.29412,
				"method": "rhf"
			},
			{
				"type": "occ",
				"energy": -0.24677,
				"method": "rhf"
			},
			{
				"type": "occ",
				"energy": -0.24528,
				"method": "rhf"
			},
			{
				"type": "occ",
				"energy": -0.23331,
				"method": "rhf"
			},
			{
				"type": "unocc",
				"energy": 0.03104,
				"method": "rhf"
			},
			{
				"type": "unocc",
				"energy": 0.06179,
				"method": "rhf"
			},
			{
				"type": "unocc",
				"energy": 0.09574,
				"method": "rhf"
			},
			{
				"type": "unocc",
				"energy": 0.09617,
				"method": "rhf"
			},
			{
				"type": "unocc",
				"energy": 0.1006,
				"method": "rhf"
			}
		],
		"cosmo_sigma_profile": { 
			"-0.025": 0.0,
			"-0.024": 0.0,
			"-0.023": 0.0,
			"-0.022": 0.0,
			"-0.021": 0.0,
			"-0.02": 0.0,
			"-0.019": 0.0,
			"-0.018": 0.0,
			"-0.017": 0.0,
			"-0.016": 0.0,
			"-0.015": 0.0,
			"-0.014": 0.0,
			"-0.013": 0.076525709477,
			"-0.012": 0.777177747698,
			"-0.011": 1.3901850996,
			"-0.01": 1.36753466009,
			"-0.009": 1.51502388658,
			"-0.008": 3.18575097078,
			"-0.007": 3.77702281442,
			"-0.006": 4.7227751755,
			"-0.005": 10.1473635007,
			"-0.004": 22.1395446227,
			"-0.003": 22.2147381786,
			"-0.002": 28.5645329243,
			"-0.001": 30.5452236664,
			"0.0": 29.245704953,
			"0.001": 25.827296534,
			"0.002": 14.8306656945,
			"0.003": 7.39013810057,
			"0.004": 6.42506772061,
			"0.005": 5.43410203398,
			"0.006": 2.92366526217,
			"0.007": 2.63352828437,
			"0.008": 2.0927618937,
			"0.009": 1.67736792401,
			"0.01": 2.07148355474,
			"0.011": 2.08667215013,
			"0.012": 2.98713103971,
			"0.013": 2.33265957199,
			"0.014": 5.35609056202,
			"0.015": 1.78306376552,
			"0.016": 0.35438633089,
			"0.017": 0.471078011908,
			"0.018": 0.223764753341,
			"0.019": 0.0,
			"0.02": 0.0,
			"0.021": 0.0,
			"0.022": 0.0,
			"0.023": 0.0,
			"0.024": 0.0,
			"0.025": 0.0
		}
	}
}
