{
	 "smiles": "NC1=CC(=NO1)C1=C(F)C=CC=C1F", 
	 "Tm": 388.15, 
	 "num_atms": 20, 
	 "gaussian": { 
		 "optdone": 1, 
		 "sigma_profile": "yes", 
		 "theory": "DFT", 
		 "functional": "B3LYP", 
		 "basiset": "6-31G**", 
		 "properties": { 
			 "R2extent": 3172.1063, 
			 "electric_dipole_moment_norm": 3.33857090534, 
			 "electric_quadrupole_moment_norm": 19.6058455472, 
			 "total_energy": -730.915670436, 
			 "HOMO_LUMO_gap": 0.18068, 
			 "cosmo_polarized_energy": -14.59, 
			 "cosmo_cavitation_energy": 25.84, 
			 "cosmo_dispersion_energy": -19.22, 
			 "cosmo_repulsion_energy": 1.47, 
			 "cosmo_total_nonelectrostatic_energy": 8.09, 
			 "SMD_solvation_energy": 5.46 
		},
		"coords": [
			{
				"x": -1.2288746425,
				"y": 2.4409900146,
				"z": 3.1287400116,
				"element": "N" 
			},
			{
				"x": -0.8985821656,
				"y": 1.5468430213,
				"z": 2.1384021609,
				"element": "C" 
			},
			{
				"x": -1.6117321419,
				"y": 0.619352695,
				"z": 1.429204386,
				"element": "C" 
			},
			{
				"x": -0.6536585795,
				"y": 0.1061158018,
				"z": 0.5027144878,
				"element": "C" 
			},
			{
				"x": 0.5348619458,
				"y": 0.6694216329,
				"z": 0.6458768517,
				"element": "N" 
			},
			{
				"x": 0.371675283,
				"y": 1.5920904625,
				"z": 1.7005974489,
				"element": "O" 
			},
			{
				"x": -0.8665046789,
				"y": -0.9236471337,
				"z": -0.5319037954,
				"element": "C" 
			},
			{
				"x": -0.0753916409,
				"y": -1.0246455139,
				"z": -1.6913596345,
				"element": "C" 
			},
			{
				"x": 0.9202836187,
				"y": -0.149302981,
				"z": -1.885948348,
				"element": "F" 
			},
			{
				"x": -0.2814906302,
				"y": -1.99096607,
				"z": -2.6693340366,
				"element": "C" 
			},
			{
				"x": -1.3161644903,
				"y": -2.9108848089,
				"z": -2.5111971562,
				"element": "C" 
			},
			{
				"x": -2.134382148,
				"y": -2.8565730947,
				"z": -1.3840199659,
				"element": "C" 
			},
			{
				"x": -1.8946374859,
				"y": -1.875013329,
				"z": -0.4322358988,
				"element": "C" 
			},
			{
				"x": -2.7028287192,
				"y": -1.8493291661,
				"z": 0.6510234473,
				"element": "F" 
			},
			{
				"x": -0.4413293194,
				"y": 2.7762774355,
				"z": 3.6675316774,
				"element": "H" 
			},
			{
				"x": -2.0194193287,
				"y": 2.175357667,
				"z": 3.697971067,
				"element": "H" 
			},
			{
				"x": -2.6469761572,
				"y": 0.3477315767,
				"z": 1.5368564467,
				"element": "H" 
			},
			{
				"x": 0.3702143013,
				"y": -2.0007991399,
				"z": -3.5353634887,
				"element": "H" 
			},
			{
				"x": -1.4856046031,
				"y": -3.6707751375,
				"z": -3.2671403546,
				"element": "H" 
			},
			{
				"x": -2.9475584174,
				"y": -3.5552439327,
				"z": -1.2252153065,
				"element": "H" 
			}
		],
		 "valence_orbital": [ 
			{
				"type": "occ",
				"energy": -0.30942,
				"method": "rhf"
			},
			{
				"type": "occ",
				"energy": -0.29191,
				"method": "rhf"
			},
			{
				"type": "occ",
				"energy": -0.24957,
				"method": "rhf"
			},
			{
				"type": "occ",
				"energy": -0.24513,
				"method": "rhf"
			},
			{
				"type": "occ",
				"energy": -0.21682,
				"method": "rhf"
			},
			{
				"type": "unocc",
				"energy": -0.03614,
				"method": "rhf"
			},
			{
				"type": "unocc",
				"energy": -0.00331,
				"method": "rhf"
			},
			{
				"type": "unocc",
				"energy": 0.02702,
				"method": "rhf"
			},
			{
				"type": "unocc",
				"energy": 0.0635,
				"method": "rhf"
			},
			{
				"type": "unocc",
				"energy": 0.07661,
				"method": "rhf"
			}
		],
		"cosmo_sigma_profile": { 
			"-0.025": 0.0,
			"-0.024": 0.0,
			"-0.023": 0.0,
			"-0.022": 0.0,
			"-0.021": 0.0,
			"-0.02": 0.0,
			"-0.019": 0.0,
			"-0.018": 0.0,
			"-0.017": 0.0,
			"-0.016": 0.0,
			"-0.015": 0.904586209525,
			"-0.014": 2.99351657487,
			"-0.013": 2.55057362494,
			"-0.012": 1.92804133197,
			"-0.011": 2.98809448597,
			"-0.01": 2.61122274327,
			"-0.009": 2.27857343379,
			"-0.008": 4.2280351369,
			"-0.007": 8.8412755076,
			"-0.006": 9.09833493138,
			"-0.005": 8.38955461522,
			"-0.004": 7.2015970437,
			"-0.003": 6.83364456859,
			"-0.002": 8.03951658788,
			"-0.001": 12.3968068484,
			"0.0": 21.0289951806,
			"0.001": 18.747348628,
			"0.002": 17.9718040737,
			"0.003": 20.0687181792,
			"0.004": 16.5551208182,
			"0.005": 4.11942541171,
			"0.006": 4.79176838102,
			"0.007": 3.65940640686,
			"0.008": 5.66735700047,
			"0.009": 3.64322307352,
			"0.01": 2.89655127988,
			"0.011": 2.57610995639,
			"0.012": 1.83461222306,
			"0.013": 1.52842505881,
			"0.014": 1.34790733195,
			"0.015": 0.498417350595,
			"0.016": 0.0,
			"0.017": 0.0,
			"0.018": 0.0,
			"0.019": 0.0,
			"0.02": 0.0,
			"0.021": 0.0,
			"0.022": 0.0,
			"0.023": 0.0,
			"0.024": 0.0,
			"0.025": 0.0
		}
	}
}
