{
	 "smiles": "ON=C1CCCCC1", 
	 "Tm": 362.65, 
	 "num_atms": 19, 
	 "gaussian": { 
		 "optdone": 1, 
		 "sigma_profile": "yes", 
		 "theory": "DFT", 
		 "functional": "B3LYP", 
		 "basiset": "6-31G**", 
		 "properties": { 
			 "R2extent": 1953.9951, 
			 "electric_dipole_moment_norm": 0.894742761915, 
			 "electric_quadrupole_moment_norm": 3.41932958487, 
			 "total_energy": -365.194455884, 
			 "HOMO_LUMO_gap": 0.25239, 
			 "cosmo_polarized_energy": -6.68, 
			 "cosmo_cavitation_energy": 20.61, 
			 "cosmo_dispersion_energy": -15.74, 
			 "cosmo_repulsion_energy": 1.34, 
			 "cosmo_total_nonelectrostatic_energy": 6.2, 
			 "SMD_solvation_energy": 2.85 
		},
		"coords": [
			{
				"x": -1.4276274691,
				"y": -1.6906349487,
				"z": 3.6880819608,
				"element": "O" 
			},
			{
				"x": -0.4146640254,
				"y": -1.743582277,
				"z": 2.6994460757,
				"element": "N" 
			},
			{
				"x": -0.9182792784,
				"y": -1.6895949187,
				"z": 1.5225474607,
				"element": "C" 
			},
			{
				"x": -2.3927777685,
				"y": -1.554571002,
				"z": 1.2133494689,
				"element": "C" 
			},
			{
				"x": -2.6327223297,
				"y": -1.2654809854,
				"z": -0.2779304367,
				"element": "C" 
			},
			{
				"x": -1.6782468571,
				"y": -0.1645402142,
				"z": -0.7652615781,
				"element": "C" 
			},
			{
				"x": -0.1866106752,
				"y": -0.5782192496,
				"z": -0.6329935989,
				"element": "C" 
			},
			{
				"x": 0.0287766319,
				"y": -1.7538399762,
				"z": 0.3533101505,
				"element": "C" 
			},
			{
				"x": -0.9087950151,
				"y": -1.7128587336,
				"z": 4.5023661195,
				"element": "H" 
			},
			{
				"x": -2.7985557786,
				"y": -0.7448033308,
				"z": 1.8327592194,
				"element": "H" 
			},
			{
				"x": -2.9184696248,
				"y": -2.4613102256,
				"z": 1.5403424066,
				"element": "H" 
			},
			{
				"x": -2.4840770535,
				"y": -2.1778062054,
				"z": -0.8703515248,
				"element": "H" 
			},
			{
				"x": -3.6748336359,
				"y": -0.9653058048,
				"z": -0.4330352618,
				"element": "H" 
			},
			{
				"x": -1.8636951127,
				"y": 0.7353991278,
				"z": -0.1647246114,
				"element": "H" 
			},
			{
				"x": -1.9041306714,
				"y": 0.1082168903,
				"z": -1.8017433284,
				"element": "H" 
			},
			{
				"x": 0.2140924578,
				"y": -0.8700205727,
				"z": -1.6101132001,
				"element": "H" 
			},
			{
				"x": 0.4032079579,
				"y": 0.2833190464,
				"z": -0.3027312581,
				"element": "H" 
			},
			{
				"x": 1.0591731054,
				"y": -1.7883030147,
				"z": 0.7158338188,
				"element": "H" 
			},
			{
				"x": -0.1550648575,
				"y": -2.6993636052,
				"z": -0.1765518827,
				"element": "H" 
			}
		],
		 "valence_orbital": [ 
			{
				"type": "occ",
				"energy": -0.32528,
				"method": "rhf"
			},
			{
				"type": "occ",
				"energy": -0.31926,
				"method": "rhf"
			},
			{
				"type": "occ",
				"energy": -0.31276,
				"method": "rhf"
			},
			{
				"type": "occ",
				"energy": -0.25834,
				"method": "rhf"
			},
			{
				"type": "occ",
				"energy": -0.23517,
				"method": "rhf"
			},
			{
				"type": "unocc",
				"energy": 0.01722,
				"method": "rhf"
			},
			{
				"type": "unocc",
				"energy": 0.08419,
				"method": "rhf"
			},
			{
				"type": "unocc",
				"energy": 0.08647,
				"method": "rhf"
			},
			{
				"type": "unocc",
				"energy": 0.11622,
				"method": "rhf"
			},
			{
				"type": "unocc",
				"energy": 0.13431,
				"method": "rhf"
			}
		],
		"cosmo_sigma_profile": { 
			"-0.025": 0.0,
			"-0.024": 0.0,
			"-0.023": 0.0,
			"-0.022": 0.0,
			"-0.021": 0.0,
			"-0.02": 0.0,
			"-0.019": 0.0,
			"-0.018": 0.0,
			"-0.017": 0.277510656583,
			"-0.016": 0.761453711608,
			"-0.015": 0.947708754723,
			"-0.014": 1.17130259913,
			"-0.013": 0.87195595301,
			"-0.012": 0.177327875944,
			"-0.011": 0.38826260208,
			"-0.01": 0.614764629067,
			"-0.009": 0.773603910794,
			"-0.008": 0.879316413239,
			"-0.007": 0.771648491118,
			"-0.006": 0.431627950361,
			"-0.005": 1.21177983664,
			"-0.004": 7.31574562251,
			"-0.003": 19.0311757287,
			"-0.002": 28.2415416097,
			"-0.001": 26.9087287602,
			"0.0": 19.6276750344,
			"0.001": 12.0703256595,
			"0.002": 3.74112451881,
			"0.003": 3.55777157739,
			"0.004": 2.85581183053,
			"0.005": 2.55618901521,
			"0.006": 3.41447149014,
			"0.007": 4.46774547315,
			"0.008": 3.86341287962,
			"0.009": 3.14570086868,
			"0.01": 3.8204960348,
			"0.011": 2.26088320342,
			"0.012": 1.00086142247,
			"0.013": 0.905064431956,
			"0.014": 1.04047225737,
			"0.015": 0.168865194075,
			"0.016": 0.0,
			"0.017": 0.0,
			"0.018": 0.0,
			"0.019": 0.0,
			"0.02": 0.0,
			"0.021": 0.0,
			"0.022": 0.0,
			"0.023": 0.0,
			"0.024": 0.0,
			"0.025": 0.0
		}
	}
}
