{
	 "smiles": "CN(C)C1=CC=C(NCC2=NC3=C(C=CC=C3)C=C2)C=C1", 
	 "Tm": 378.15, 
	 "num_atms": 40, 
	 "gaussian": { 
		 "optdone": 1, 
		 "sigma_profile": "yes", 
		 "theory": "DFT", 
		 "functional": "B3LYP", 
		 "basiset": "6-31G**", 
		 "properties": { 
			 "R2extent": 12173.5452, 
			 "electric_dipole_moment_norm": 1.81289129569, 
			 "electric_quadrupole_moment_norm": 16.1510573363, 
			 "total_energy": -861.620634563, 
			 "HOMO_LUMO_gap": 0.11738, 
			 "cosmo_polarized_energy": -12.17, 
			 "cosmo_cavitation_energy": 42.85, 
			 "cosmo_dispersion_energy": -31.27, 
			 "cosmo_repulsion_energy": 2.35, 
			 "cosmo_total_nonelectrostatic_energy": 13.93, 
			 "SMD_solvation_energy": 3.68 
		},
		"coords": [
			{
				"x": 0.0157733285,
				"y": 3.6352842898,
				"z": 5.0738376444,
				"element": "C" 
			},
			{
				"x": 0.1393979594,
				"y": 2.1813629492,
				"z": 5.017649073,
				"element": "N" 
			},
			{
				"x": -0.5528338135,
				"y": 1.5293933601,
				"z": 6.114503728,
				"element": "C" 
			},
			{
				"x": 0.0250710058,
				"y": 1.5832190826,
				"z": 3.7354935409,
				"element": "C" 
			},
			{
				"x": 0.837209652,
				"y": 2.0233678262,
				"z": 2.6762118733,
				"element": "C" 
			},
			{
				"x": 0.7821899984,
				"y": 1.4386987076,
				"z": 1.4140979139,
				"element": "C" 
			},
			{
				"x": -0.0921245726,
				"y": 0.3701526694,
				"z": 1.1506867236,
				"element": "C" 
			},
			{
				"x": -0.2208550523,
				"y": -0.2237432356,
				"z": -0.1166986346,
				"element": "N" 
			},
			{
				"x": 0.7884966556,
				"y": -0.0097328797,
				"z": -1.1440171562,
				"element": "C" 
			},
			{
				"x": 0.3941478275,
				"y": -0.6758520913,
				"z": -2.4477849444,
				"element": "C" 
			},
			{
				"x": 1.3410294835,
				"y": -1.3359174815,
				"z": -3.0876795386,
				"element": "N" 
			},
			{
				"x": 1.0337452561,
				"y": -1.9189196176,
				"z": -4.2846810328,
				"element": "C" 
			},
			{
				"x": -0.2730902892,
				"y": -1.8472347753,
				"z": -4.862765237,
				"element": "C" 
			},
			{
				"x": -0.5173613329,
				"y": -2.4820540727,
				"z": -6.1081957684,
				"element": "C" 
			},
			{
				"x": 0.4920846834,
				"y": -3.1602892435,
				"z": -6.7550730824,
				"element": "C" 
			},
			{
				"x": 1.786445606,
				"y": -3.2323127045,
				"z": -6.1826675663,
				"element": "C" 
			},
			{
				"x": 2.053006317,
				"y": -2.6265642978,
				"z": -4.9746076304,
				"element": "C" 
			},
			{
				"x": -1.2629109187,
				"y": -1.1322094183,
				"z": -4.1390627233,
				"element": "C" 
			},
			{
				"x": -0.9369280462,
				"y": -0.5486676259,
				"z": -2.9402260845,
				"element": "C" 
			},
			{
				"x": -0.8921737047,
				"y": -0.0847993055,
				"z": 2.2098226045,
				"element": "C" 
			},
			{
				"x": -0.8421484287,
				"y": 0.5088374042,
				"z": 3.4685919365,
				"element": "C" 
			},
			{
				"x": -1.0282297425,
				"y": 3.9792146174,
				"z": 4.9615373677,
				"element": "H" 
			},
			{
				"x": 0.3904121823,
				"y": 3.9946252816,
				"z": 6.0380806861,
				"element": "H" 
			},
			{
				"x": 0.6094604322,
				"y": 4.1060550843,
				"z": 4.2897670781,
				"element": "H" 
			},
			{
				"x": -1.6543738435,
				"y": 1.6130717874,
				"z": 6.0613184215,
				"element": "H" 
			},
			{
				"x": -0.231644441,
				"y": 1.9858654098,
				"z": 7.0559520757,
				"element": "H" 
			},
			{
				"x": -0.2912369603,
				"y": 0.4682651607,
				"z": 6.1479429693,
				"element": "H" 
			},
			{
				"x": 1.5541974654,
				"y": 2.8204083514,
				"z": 2.8469404527,
				"element": "H" 
			},
			{
				"x": 1.4460503186,
				"y": 1.8102251459,
				"z": 0.641275256,
				"element": "H" 
			},
			{
				"x": -0.5129675729,
				"y": -1.1918639444,
				"z": -0.0604091694,
				"element": "H" 
			},
			{
				"x": 0.8691330497,
				"y": 1.0715236472,
				"z": -1.3216336058,
				"element": "H" 
			},
			{
				"x": 1.7918187272,
				"y": -0.3661600404,
				"z": -0.8673872081,
				"element": "H" 
			},
			{
				"x": -1.5123710731,
				"y": -2.4236054237,
				"z": -6.5424868026,
				"element": "H" 
			},
			{
				"x": 0.2994003496,
				"y": -3.6436133667,
				"z": -7.7084059092,
				"element": "H" 
			},
			{
				"x": 2.571996194,
				"y": -3.770894457,
				"z": -6.7049151763,
				"element": "H" 
			},
			{
				"x": 3.035825744,
				"y": -2.6681325579,
				"z": -4.5163930537,
				"element": "H" 
			},
			{
				"x": -2.2687452413,
				"y": -1.0526565147,
				"z": -4.5447336467,
				"element": "H" 
			},
			{
				"x": -1.665265083,
				"y": 0.0017223452,
				"z": -2.3545590925,
				"element": "H" 
			},
			{
				"x": -1.5817064543,
				"y": -0.9089683641,
				"z": 2.0393535158,
				"element": "H" 
			},
			{
				"x": -1.4972256656,
				"y": 0.1265982984,
				"z": 4.2430202023,
				"element": "H" 
			}
		],
		 "valence_orbital": [ 
			{
				"type": "occ",
				"energy": -0.24777,
				"method": "rhf"
			},
			{
				"type": "occ",
				"energy": -0.23828,
				"method": "rhf"
			},
			{
				"type": "occ",
				"energy": -0.23162,
				"method": "rhf"
			},
			{
				"type": "occ",
				"energy": -0.23046,
				"method": "rhf"
			},
			{
				"type": "occ",
				"energy": -0.16869,
				"method": "rhf"
			},
			{
				"type": "unocc",
				"energy": -0.05131,
				"method": "rhf"
			},
			{
				"type": "unocc",
				"energy": -0.01668,
				"method": "rhf"
			},
			{
				"type": "unocc",
				"energy": 0.00892,
				"method": "rhf"
			},
			{
				"type": "unocc",
				"energy": 0.02109,
				"method": "rhf"
			},
			{
				"type": "unocc",
				"energy": 0.03162,
				"method": "rhf"
			}
		],
		"cosmo_sigma_profile": { 
			"-0.025": 0.0,
			"-0.024": 0.0,
			"-0.023": 0.0,
			"-0.022": 0.0,
			"-0.021": 0.0,
			"-0.02": 0.0,
			"-0.019": 0.0,
			"-0.018": 0.0,
			"-0.017": 0.0,
			"-0.016": 0.0,
			"-0.015": 0.0,
			"-0.014": 0.0,
			"-0.013": 0.0300348102085,
			"-0.012": 0.668662446576,
			"-0.011": 1.09897864433,
			"-0.01": 1.07004240865,
			"-0.009": 0.983020284061,
			"-0.008": 1.91747988118,
			"-0.007": 5.02716202783,
			"-0.006": 15.6817422693,
			"-0.005": 22.3721878247,
			"-0.004": 28.7338923989,
			"-0.003": 31.1594950462,
			"-0.002": 32.5831924861,
			"-0.001": 33.2399309781,
			"0.0": 25.1621756148,
			"0.001": 20.3696279924,
			"0.002": 23.4371636643,
			"0.003": 24.9640418652,
			"0.004": 19.4445326981,
			"0.005": 12.8321308542,
			"0.006": 10.9751279105,
			"0.007": 12.4669231404,
			"0.008": 5.53802053291,
			"0.009": 2.32897280732,
			"0.01": 2.69476281613,
			"0.011": 1.98918426243,
			"0.012": 0.933574560138,
			"0.013": 0.94936927035,
			"0.014": 1.03882974447,
			"0.015": 0.649133962526,
			"0.016": 0.0675288755998,
			"0.017": 0.0,
			"0.018": 0.0,
			"0.019": 0.0,
			"0.02": 0.0,
			"0.021": 0.0,
			"0.022": 0.0,
			"0.023": 0.0,
			"0.024": 0.0,
			"0.025": 0.0
		}
	}
}
