{
	 "smiles": "CN(C1=CC=CC=C1)S(=O)(=O)C1=C(C=CC=C1)C(O)=O", 
	 "Tm": 410.15, 
	 "num_atms": 33, 
	 "gaussian": { 
		 "optdone": 1, 
		 "sigma_profile": "yes", 
		 "theory": "DFT", 
		 "functional": "B3LYP", 
		 "basiset": "6-31G**", 
		 "properties": { 
			 "R2extent": 5404.1095, 
			 "electric_dipole_moment_norm": 5.39589976649, 
			 "electric_quadrupole_moment_norm": 22.8837248812, 
			 "total_energy": -1295.08251578, 
			 "HOMO_LUMO_gap": 0.20075, 
			 "cosmo_polarized_energy": -18.91, 
			 "cosmo_cavitation_energy": 38.1, 
			 "cosmo_dispersion_energy": -25.96, 
			 "cosmo_repulsion_energy": 1.95, 
			 "cosmo_total_nonelectrostatic_energy": 14.09, 
			 "SMD_solvation_energy": 6.85 
		},
		"coords": [
			{
				"x": -2.1214313927,
				"y": 1.5243090988,
				"z": -2.0968632627,
				"element": "C" 
			},
			{
				"x": -1.3608689155,
				"y": 0.8953860612,
				"z": -0.9990870939,
				"element": "N" 
			},
			{
				"x": -1.5272712489,
				"y": -0.5325688175,
				"z": -0.8672104606,
				"element": "C" 
			},
			{
				"x": -0.4529586178,
				"y": -1.3592866494,
				"z": -1.205209193,
				"element": "C" 
			},
			{
				"x": -0.5904701969,
				"y": -2.7461637468,
				"z": -1.1324816875,
				"element": "C" 
			},
			{
				"x": -1.800944099,
				"y": -3.3071937892,
				"z": -0.7229216204,
				"element": "C" 
			},
			{
				"x": -2.8751888261,
				"y": -2.4794611828,
				"z": -0.3848361819,
				"element": "C" 
			},
			{
				"x": -2.7424225306,
				"y": -1.0934566382,
				"z": -0.4556945854,
				"element": "C" 
			},
			{
				"x": -1.2439755321,
				"y": 1.8076943814,
				"z": 0.4375188178,
				"element": "S" 
			},
			{
				"x": -1.3084200234,
				"y": 3.2088136615,
				"z": 0.0078886207,
				"element": "O" 
			},
			{
				"x": -2.1478449454,
				"y": 1.3196472053,
				"z": 1.4844795605,
				"element": "O" 
			},
			{
				"x": 0.4554559864,
				"y": 1.4937972333,
				"z": 0.9720946914,
				"element": "C" 
			},
			{
				"x": 0.7798205971,
				"y": 0.7303552258,
				"z": 2.104233943,
				"element": "C" 
			},
			{
				"x": 2.1157962475,
				"y": 0.7057500672,
				"z": 2.5302103296,
				"element": "C" 
			},
			{
				"x": 3.1071086296,
				"y": 1.3834357325,
				"z": 1.8259719829,
				"element": "C" 
			},
			{
				"x": 2.7735300373,
				"y": 2.1258615513,
				"z": 0.6917058839,
				"element": "C" 
			},
			{
				"x": 1.4462745142,
				"y": 2.1955140025,
				"z": 0.2777274273,
				"element": "C" 
			},
			{
				"x": -0.1827311581,
				"y": -0.0721965591,
				"z": 2.9383230925,
				"element": "C" 
			},
			{
				"x": -0.7478167321,
				"y": -1.0749089073,
				"z": 2.2411087378,
				"element": "O" 
			},
			{
				"x": -0.337580935,
				"y": 0.0941429788,
				"z": 4.1268044591,
				"element": "O" 
			},
			{
				"x": -1.8471378418,
				"y": 2.5758203533,
				"z": -2.1686865472,
				"element": "H" 
			},
			{
				"x": -3.2076991735,
				"y": 1.4447738396,
				"z": -1.9635685242,
				"element": "H" 
			},
			{
				"x": -1.8413861288,
				"y": 1.0116048732,
				"z": -3.020245555,
				"element": "H" 
			},
			{
				"x": 0.4794416154,
				"y": -0.9043968144,
				"z": -1.5238673612,
				"element": "H" 
			},
			{
				"x": 0.2463552209,
				"y": -3.3863080496,
				"z": -1.3960348477,
				"element": "H" 
			},
			{
				"x": -1.9089980977,
				"y": -4.3866929589,
				"z": -0.6683189022,
				"element": "H" 
			},
			{
				"x": -3.8178640532,
				"y": -2.9144058395,
				"z": -0.065030517,
				"element": "H" 
			},
			{
				"x": -3.5649834556,
				"y": -0.4436879489,
				"z": -0.1763876185,
				"element": "H" 
			},
			{
				"x": 2.3635715309,
				"y": 0.1427104098,
				"z": 3.4240361517,
				"element": "H" 
			},
			{
				"x": 4.1362937947,
				"y": 1.3412414399,
				"z": 2.1691786889,
				"element": "H" 
			},
			{
				"x": 3.5385178375,
				"y": 2.6680895775,
				"z": 0.1446993041,
				"element": "H" 
			},
			{
				"x": 1.1630689962,
				"y": 2.8128756091,
				"z": -0.567239674,
				"element": "H" 
			},
			{
				"x": -1.3787411034,
				"y": -1.5100954003,
				"z": 2.8388019412,
				"element": "H" 
			}
		],
		 "valence_orbital": [ 
			{
				"type": "occ",
				"energy": -0.28404,
				"method": "rhf"
			},
			{
				"type": "occ",
				"energy": -0.26525,
				"method": "rhf"
			},
			{
				"type": "occ",
				"energy": -0.25961,
				"method": "rhf"
			},
			{
				"type": "occ",
				"energy": -0.25592,
				"method": "rhf"
			},
			{
				"type": "occ",
				"energy": -0.25115,
				"method": "rhf"
			},
			{
				"type": "unocc",
				"energy": -0.0504,
				"method": "rhf"
			},
			{
				"type": "unocc",
				"energy": -0.03204,
				"method": "rhf"
			},
			{
				"type": "unocc",
				"energy": -0.01898,
				"method": "rhf"
			},
			{
				"type": "unocc",
				"energy": -0.00968,
				"method": "rhf"
			},
			{
				"type": "unocc",
				"energy": 0.02163,
				"method": "rhf"
			}
		],
		"cosmo_sigma_profile": { 
			"-0.025": 0.0,
			"-0.024": 0.0,
			"-0.023": 0.0,
			"-0.022": 0.0,
			"-0.021": 0.0,
			"-0.02": 0.0,
			"-0.019": 0.100158735147,
			"-0.018": 0.757601362258,
			"-0.017": 0.921859758158,
			"-0.016": 0.76123014823,
			"-0.015": 0.370912308758,
			"-0.014": 0.550040270333,
			"-0.013": 0.725432501199,
			"-0.012": 0.65181857446,
			"-0.011": 0.744255754497,
			"-0.01": 0.539129200656,
			"-0.009": 0.520515951879,
			"-0.008": 3.56370504544,
			"-0.007": 10.787262908,
			"-0.006": 21.5063105182,
			"-0.005": 22.4827486344,
			"-0.004": 23.5306136693,
			"-0.003": 22.5914852765,
			"-0.002": 21.5780140873,
			"-0.001": 18.2402847543,
			"0.0": 21.1285642009,
			"0.001": 23.2660705815,
			"0.002": 22.9632743744,
			"0.003": 13.9104437647,
			"0.004": 11.6040303371,
			"0.005": 9.48350968061,
			"0.006": 6.95178081119,
			"0.007": 6.31780589436,
			"0.008": 7.73940697416,
			"0.009": 6.67303765773,
			"0.01": 8.61872017463,
			"0.011": 11.2789866737,
			"0.012": 3.3024271321,
			"0.013": 0.0419378268998,
			"0.014": 0.0,
			"0.015": 0.0,
			"0.016": 0.0,
			"0.017": 0.0,
			"0.018": 0.0,
			"0.019": 0.0,
			"0.02": 0.0,
			"0.021": 0.0,
			"0.022": 0.0,
			"0.023": 0.0,
			"0.024": 0.0,
			"0.025": 0.0
		}
	}
}
