{
	 "smiles": "OC(=O)C1CCCN1C(=O)C1=CC=C(S1)[N+]([O-])=O", 
	 "Tm": 435.15, 
	 "num_atms": 28, 
	 "gaussian": { 
		 "optdone": 1, 
		 "sigma_profile": "yes", 
		 "theory": "DFT", 
		 "functional": "B3LYP", 
		 "basiset": "6-31G**", 
		 "properties": { 
			 "R2extent": 5937.412, 
			 "electric_dipole_moment_norm": 8.0817168603, 
			 "electric_quadrupole_moment_norm": 15.5375480865, 
			 "total_energy": -1270.80277841, 
			 "HOMO_LUMO_gap": 0.15688, 
			 "cosmo_polarized_energy": -19.52, 
			 "cosmo_cavitation_energy": 33.98, 
			 "cosmo_dispersion_energy": -24.9, 
			 "cosmo_repulsion_energy": 1.88, 
			 "cosmo_total_nonelectrostatic_energy": 10.96, 
			 "SMD_solvation_energy": 9.01 
		},
		"coords": [
			{
				"x": 2.704175416,
				"y": 2.1263422035,
				"z": 0.5090520006,
				"element": "O" 
			},
			{
				"x": 2.5504483728,
				"y": 0.7869715049,
				"z": 0.4862706079,
				"element": "C" 
			},
			{
				"x": 2.7821048599,
				"y": 0.077357686,
				"z": 1.4420643358,
				"element": "O" 
			},
			{
				"x": 2.0908491627,
				"y": 0.2581446538,
				"z": -0.8747837315,
				"element": "C" 
			},
			{
				"x": 3.2425454639,
				"y": 0.3148514143,
				"z": -1.9101774734,
				"element": "C" 
			},
			{
				"x": 3.084844753,
				"y": 1.7015775982,
				"z": -2.5544617162,
				"element": "C" 
			},
			{
				"x": 1.5658883285,
				"y": 1.9213806126,
				"z": -2.5915649489,
				"element": "C" 
			},
			{
				"x": 1.0474031134,
				"y": 1.065669205,
				"z": -1.5026553952,
				"element": "N" 
			},
			{
				"x": -0.3113925476,
				"y": 0.9552091824,
				"z": -1.3804972223,
				"element": "C" 
			},
			{
				"x": -1.0554539978,
				"y": 1.5953701554,
				"z": -2.1271768024,
				"element": "O" 
			},
			{
				"x": -0.9332624536,
				"y": 0.0496599013,
				"z": -0.3679918922,
				"element": "C" 
			},
			{
				"x": -0.4807248931,
				"y": -0.6407169429,
				"z": 0.744547455,
				"element": "C" 
			},
			{
				"x": -1.5101197847,
				"y": -1.355392037,
				"z": 1.4041980097,
				"element": "C" 
			},
			{
				"x": -2.7163974644,
				"y": -1.1833199814,
				"z": 0.7730242104,
				"element": "C" 
			},
			{
				"x": -2.6497005021,
				"y": -0.1517822705,
				"z": -0.6124848599,
				"element": "S" 
			},
			{
				"x": -3.9663225218,
				"y": -1.7712010058,
				"z": 1.1792227609,
				"element": "N" 
			},
			{
				"x": -4.9593287554,
				"y": -1.5061332811,
				"z": 0.4965840175,
				"element": "O" 
			},
			{
				"x": -3.9540581232,
				"y": -2.4947549705,
				"z": 2.1756308609,
				"element": "O" 
			},
			{
				"x": 3.0122320362,
				"y": 2.3556772149,
				"z": 1.4028105884,
				"element": "H" 
			},
			{
				"x": 1.757609628,
				"y": -0.7674143253,
				"z": -0.7084043426,
				"element": "H" 
			},
			{
				"x": 4.2226450506,
				"y": 0.1473525841,
				"z": -1.4560075677,
				"element": "H" 
			},
			{
				"x": 3.0758272527,
				"y": -0.4770445014,
				"z": -2.6474366081,
				"element": "H" 
			},
			{
				"x": 3.5283629958,
				"y": 1.7484602491,
				"z": -3.5520635789,
				"element": "H" 
			},
			{
				"x": 3.5644181707,
				"y": 2.4628240892,
				"z": -1.9343273545,
				"element": "H" 
			},
			{
				"x": 1.2745691575,
				"y": 2.9615943957,
				"z": -2.4263223787,
				"element": "H" 
			},
			{
				"x": 1.1143050571,
				"y": 1.6040650284,
				"z": -3.5377951123,
				"element": "H" 
			},
			{
				"x": 0.5368152148,
				"y": -0.6349382236,
				"z": 1.1110145486,
				"element": "H" 
			},
			{
				"x": -1.3872829898,
				"y": -1.960810139,
				"z": 2.2925315892,
				"element": "H" 
			}
		],
		 "valence_orbital": [ 
			{
				"type": "occ",
				"energy": -0.29361,
				"method": "rhf"
			},
			{
				"type": "occ",
				"energy": -0.28101,
				"method": "rhf"
			},
			{
				"type": "occ",
				"energy": -0.27526,
				"method": "rhf"
			},
			{
				"type": "occ",
				"energy": -0.26678,
				"method": "rhf"
			},
			{
				"type": "occ",
				"energy": -0.26035,
				"method": "rhf"
			},
			{
				"type": "unocc",
				"energy": -0.10347,
				"method": "rhf"
			},
			{
				"type": "unocc",
				"energy": -0.03786,
				"method": "rhf"
			},
			{
				"type": "unocc",
				"energy": -0.02617,
				"method": "rhf"
			},
			{
				"type": "unocc",
				"energy": 0.0182,
				"method": "rhf"
			},
			{
				"type": "unocc",
				"energy": 0.03257,
				"method": "rhf"
			}
		],
		"cosmo_sigma_profile": { 
			"-0.025": 0.0,
			"-0.024": 0.0,
			"-0.023": 0.0,
			"-0.022": 0.0,
			"-0.021": 0.0,
			"-0.02": 0.0,
			"-0.019": 0.480964341851,
			"-0.018": 1.23814653403,
			"-0.017": 0.653051046361,
			"-0.016": 0.724872616273,
			"-0.015": 0.97755156689,
			"-0.014": 1.32387918873,
			"-0.013": 0.198058544864,
			"-0.012": 0.115817395904,
			"-0.011": 1.02715425174,
			"-0.01": 0.995098381664,
			"-0.009": 2.17453765128,
			"-0.008": 3.77288538735,
			"-0.007": 7.76184276456,
			"-0.006": 11.3635663187,
			"-0.005": 20.0244558141,
			"-0.004": 23.2617190392,
			"-0.003": 24.7456460326,
			"-0.002": 26.5055429934,
			"-0.001": 22.1831805104,
			"0.0": 17.0093527811,
			"0.001": 15.5272039552,
			"0.002": 10.3056186508,
			"0.003": 7.39814934442,
			"0.004": 6.94991172041,
			"0.005": 7.04613056351,
			"0.006": 8.49877101281,
			"0.007": 14.1206107042,
			"0.008": 9.61312675887,
			"0.009": 7.14509530394,
			"0.01": 5.7100135578,
			"0.011": 6.2760016314,
			"0.012": 3.9576454586,
			"0.013": 3.13766995961,
			"0.014": 0.103364281601,
			"0.015": 0.0,
			"0.016": 0.0,
			"0.017": 0.0,
			"0.018": 0.0,
			"0.019": 0.0,
			"0.02": 0.0,
			"0.021": 0.0,
			"0.022": 0.0,
			"0.023": 0.0,
			"0.024": 0.0,
			"0.025": 0.0
		}
	}
}
