{
	 "smiles": "COC1=C(O)C=CC(C=CC(C)=O)=C1", 
	 "Tm": 402.15, 
	 "num_atms": 26, 
	 "gaussian": { 
		 "optdone": 1, 
		 "sigma_profile": "yes", 
		 "theory": "DFT", 
		 "functional": "B3LYP", 
		 "basiset": "6-31G**", 
		 "properties": { 
			 "R2extent": 4531.9336, 
			 "electric_dipole_moment_norm": 5.27564333612, 
			 "electric_quadrupole_moment_norm": 11.258067729, 
			 "total_energy": -652.0511909, 
			 "HOMO_LUMO_gap": 0.14739, 
			 "cosmo_polarized_energy": -13.8, 
			 "cosmo_cavitation_energy": 30.67, 
			 "cosmo_dispersion_energy": -22.12, 
			 "cosmo_repulsion_energy": 1.75, 
			 "cosmo_total_nonelectrostatic_energy": 10.3, 
			 "SMD_solvation_energy": 7.18 
		},
		"coords": [
			{
				"x": -1.1041343165,
				"y": -1.7782518377,
				"z": 3.6966022017,
				"element": "C" 
			},
			{
				"x": -2.0345329395,
				"y": -0.760379266,
				"z": 3.3564583021,
				"element": "O" 
			},
			{
				"x": -1.7166038584,
				"y": 0.0956208443,
				"z": 2.3307033252,
				"element": "C" 
			},
			{
				"x": -2.7190604812,
				"y": 1.0643498972,
				"z": 2.0826493745,
				"element": "C" 
			},
			{
				"x": -3.8500890252,
				"y": 1.0754170581,
				"z": 2.8298987722,
				"element": "O" 
			},
			{
				"x": -2.532992031,
				"y": 1.9994414634,
				"z": 1.0701719176,
				"element": "C" 
			},
			{
				"x": -1.3643512599,
				"y": 1.9747795546,
				"z": 0.3106142028,
				"element": "C" 
			},
			{
				"x": -0.3595485349,
				"y": 1.0214863303,
				"z": 0.5425026161,
				"element": "C" 
			},
			{
				"x": 0.8380624673,
				"y": 1.0481124531,
				"z": -0.2850403419,
				"element": "C" 
			},
			{
				"x": 1.9164199936,
				"y": 0.236942949,
				"z": -0.2373145426,
				"element": "C" 
			},
			{
				"x": 3.0468109208,
				"y": 0.4283513943,
				"z": -1.1762069315,
				"element": "C" 
			},
			{
				"x": 4.2107791214,
				"y": -0.5401447212,
				"z": -1.0363625986,
				"element": "C" 
			},
			{
				"x": 3.0569135988,
				"y": 1.3133322805,
				"z": -2.0231905273,
				"element": "O" 
			},
			{
				"x": -0.5571658099,
				"y": 0.0734951086,
				"z": 1.5748914825,
				"element": "C" 
			},
			{
				"x": -0.9305791071,
				"y": -2.4566945362,
				"z": 2.8522588794,
				"element": "H" 
			},
			{
				"x": -0.1472327267,
				"y": -1.3504419331,
				"z": 4.0200879362,
				"element": "H" 
			},
			{
				"x": -1.5494546211,
				"y": -2.3345953133,
				"z": 4.522363248,
				"element": "H" 
			},
			{
				"x": -3.7775716709,
				"y": 0.3498580904,
				"z": 3.4700333593,
				"element": "H" 
			},
			{
				"x": -3.3098626569,
				"y": 2.7352038285,
				"z": 0.8920750597,
				"element": "H" 
			},
			{
				"x": -1.2250184333,
				"y": 2.7076771344,
				"z": -0.4785487635,
				"element": "H" 
			},
			{
				"x": 0.8726189838,
				"y": 1.8263682053,
				"z": -1.0469541146,
				"element": "H" 
			},
			{
				"x": 1.9956240703,
				"y": -0.5758116491,
				"z": 0.4811856008,
				"element": "H" 
			},
			{
				"x": 4.6398771362,
				"y": -0.4813011738,
				"z": -0.028819686,
				"element": "H" 
			},
			{
				"x": 3.8698302746,
				"y": -1.5727528599,
				"z": -1.1785505615,
				"element": "H" 
			},
			{
				"x": 4.9778625491,
				"y": -0.3036890495,
				"z": -1.7746159382,
				"element": "H" 
			},
			{
				"x": 0.2043983566,
				"y": -0.6712742522,
				"z": 1.7716077277,
				"element": "H" 
			}
		],
		 "valence_orbital": [ 
			{
				"type": "occ",
				"energy": -0.33961,
				"method": "rhf"
			},
			{
				"type": "occ",
				"energy": -0.27749,
				"method": "rhf"
			},
			{
				"type": "occ",
				"energy": -0.24587,
				"method": "rhf"
			},
			{
				"type": "occ",
				"energy": -0.23518,
				"method": "rhf"
			},
			{
				"type": "occ",
				"energy": -0.20841,
				"method": "rhf"
			},
			{
				"type": "unocc",
				"energy": -0.06102,
				"method": "rhf"
			},
			{
				"type": "unocc",
				"energy": -0.00124,
				"method": "rhf"
			},
			{
				"type": "unocc",
				"energy": 0.02348,
				"method": "rhf"
			},
			{
				"type": "unocc",
				"energy": 0.06826,
				"method": "rhf"
			},
			{
				"type": "unocc",
				"energy": 0.08159,
				"method": "rhf"
			}
		],
		"cosmo_sigma_profile": { 
			"-0.025": 0.0,
			"-0.024": 0.0,
			"-0.023": 0.0,
			"-0.022": 0.0,
			"-0.021": 0.0,
			"-0.02": 0.0,
			"-0.019": 0.0,
			"-0.018": 0.0,
			"-0.017": 0.0,
			"-0.016": 0.0,
			"-0.015": 0.314830526499,
			"-0.014": 0.725312550687,
			"-0.013": 0.366449978468,
			"-0.012": 0.582713142842,
			"-0.011": 0.548782613905,
			"-0.01": 0.586296504391,
			"-0.009": 0.792835714883,
			"-0.008": 1.8428764736,
			"-0.007": 5.64789808592,
			"-0.006": 17.1292216618,
			"-0.005": 21.2903966615,
			"-0.004": 23.3340413955,
			"-0.003": 19.7365463319,
			"-0.002": 14.6681338121,
			"-0.001": 16.56737358,
			"0.0": 14.2172444784,
			"0.001": 15.1758721775,
			"0.002": 15.4640501139,
			"0.003": 19.452884784,
			"0.004": 19.7586716113,
			"0.005": 6.69193257189,
			"0.006": 3.09033007738,
			"0.007": 3.51099732019,
			"0.008": 2.06026568763,
			"0.009": 3.5095357787,
			"0.01": 4.10825718475,
			"0.011": 3.26480558506,
			"0.012": 3.4975071127,
			"0.013": 4.23861351686,
			"0.014": 1.55081236858,
			"0.015": 0.0832096291714,
			"0.016": 0.0,
			"0.017": 0.0,
			"0.018": 0.0,
			"0.019": 0.0,
			"0.02": 0.0,
			"0.021": 0.0,
			"0.022": 0.0,
			"0.023": 0.0,
			"0.024": 0.0,
			"0.025": 0.0
		}
	}
}
