{
	 "smiles": "CC(=O)CCC1=C(C2=CC=C(C)O2)C2=C(O1)C(I)=CC(I)=C2", 
	 "Tm": 465.15, 
	 "num_atms": 36, 
	 "gaussian": { 
		 "optdone": 1, 
		 "sigma_profile": "no", 
		 "theory": "DFT", 
		 "functional": "B3LYP", 
		 "basiset": "6-31G**", 
		 "properties": { 
			 "R2extent": 7699.3357, 
			 "electric_dipole_moment_norm": 4.85071565545, 
			 "electric_quadrupole_moment_norm": 20.0966264806, 
			 "total_energy": -904.675837196, 
			 "HOMO_LUMO_gap": 0.15136, 
			 "cosmo_polarized_energy": -225224.53, 
			 "cosmo_cavitation_energy": 47.17, 
			 "cosmo_dispersion_energy": -34.05, 
			 "cosmo_repulsion_energy": 2.58, 
			 "cosmo_total_nonelectrostatic_energy": 15.7, 
			 "SMD_solvation_energy": 7.15 
		},
		"coords": [
			{
				"x": -1.6030516621,
				"y": -3.6180873109,
				"z": -2.4900330132,
				"element": "C" 
			},
			{
				"x": -2.4336297784,
				"y": -2.3839082479,
				"z": -2.1857434978,
				"element": "C" 
			},
			{
				"x": -2.8927784305,
				"y": -1.6881969495,
				"z": -3.0706265581,
				"element": "O" 
			},
			{
				"x": -2.7001925954,
				"y": -2.0482444611,
				"z": -0.7169907519,
				"element": "C" 
			},
			{
				"x": -1.443594821,
				"y": -1.9526672469,
				"z": 0.1861057967,
				"element": "C" 
			},
			{
				"x": -0.5016599721,
				"y": -0.8577104248,
				"z": -0.1775332251,
				"element": "C" 
			},
			{
				"x": -0.3105970423,
				"y": 0.4123353373,
				"z": 0.3020872931,
				"element": "C" 
			},
			{
				"x": -1.0564665084,
				"y": 1.0790445876,
				"z": 1.3495983842,
				"element": "C" 
			},
			{
				"x": -2.3079421407,
				"y": 0.9235035762,
				"z": 1.8868804133,
				"element": "C" 
			},
			{
				"x": -2.4396096808,
				"y": 1.9113288573,
				"z": 2.912836109,
				"element": "C" 
			},
			{
				"x": -1.2716952653,
				"y": 2.616537986,
				"z": 2.9360859729,
				"element": "C" 
			},
			{
				"x": -0.7746093808,
				"y": 3.7618997248,
				"z": 3.7447330436,
				"element": "C" 
			},
			{
				"x": -0.4192293972,
				"y": 2.1177888622,
				"z": 1.9874524704,
				"element": "O" 
			},
			{
				"x": 0.7969903512,
				"y": 0.9634928212,
				"z": -0.4626910629,
				"element": "C" 
			},
			{
				"x": 1.1667020888,
				"y": -0.046574437,
				"z": -1.3678631043,
				"element": "C" 
			},
			{
				"x": 0.3827081315,
				"y": -1.1469035789,
				"z": -1.1986899202,
				"element": "O" 
			},
			{
				"x": 2.1998038265,
				"y": 0.1078878409,
				"z": -2.2845557146,
				"element": "C" 
			},
			{
				"x": 2.7113453781,
				"y": -1.440784936,
				"z": -3.6178671942,
				"element": "I" 
			},
			{
				"x": 2.8847762473,
				"y": 1.3233652211,
				"z": -2.2922261221,
				"element": "C" 
			},
			{
				"x": 2.5158686085,
				"y": 2.3364031675,
				"z": -1.3883484174,
				"element": "C" 
			},
			{
				"x": 3.5896739183,
				"y": 4.1674037297,
				"z": -1.4387136298,
				"element": "I" 
			},
			{
				"x": 1.482865544,
				"y": 2.1855126007,
				"z": -0.4680995044,
				"element": "C" 
			},
			{
				"x": -1.8493356617,
				"y": -4.4524504507,
				"z": -1.8244192017,
				"element": "H" 
			},
			{
				"x": -1.7578700381,
				"y": -3.9084097121,
				"z": -3.5302411262,
				"element": "H" 
			},
			{
				"x": -0.5423080479,
				"y": -3.3819116269,
				"z": -2.3481973808,
				"element": "H" 
			},
			{
				"x": -3.2613685198,
				"y": -1.1102904087,
				"z": -0.6986369444,
				"element": "H" 
			},
			{
				"x": -3.3477498088,
				"y": -2.8375413789,
				"z": -0.3099408359,
				"element": "H" 
			},
			{
				"x": -1.7658264329,
				"y": -1.7899544408,
				"z": 1.2193640705,
				"element": "H" 
			},
			{
				"x": -0.8980501912,
				"y": -2.903101017,
				"z": 0.1674298392,
				"element": "H" 
			},
			{
				"x": -3.0600725217,
				"y": 0.2171563165,
				"z": 1.568223322,
				"element": "H" 
			},
			{
				"x": -3.2988611651,
				"y": 2.0828583513,
				"z": 3.5453048165,
				"element": "H" 
			},
			{
				"x": 0.1349191045,
				"y": 3.4987393688,
				"z": 4.2968850088,
				"element": "H" 
			},
			{
				"x": -0.5371531029,
				"y": 4.6258575462,
				"z": 3.1131044996,
				"element": "H" 
			},
			{
				"x": -1.5373229845,
				"y": 4.0651470308,
				"z": 4.4653975451,
				"element": "H" 
			},
			{
				"x": 3.6958656557,
				"y": 1.4823168475,
				"z": -2.991077442,
				"element": "H" 
			},
			{
				"x": 1.2162562953,
				"y": 2.9723568542,
				"z": 0.2244060623,
				"element": "H" 
			}
		],
		 "valence_orbital": [ 
			{
				"type": "occ",
				"energy": -0.26917,
				"method": "rhf"
			},
			{
				"type": "occ",
				"energy": -0.248,
				"method": "rhf"
			},
			{
				"type": "occ",
				"energy": -0.24456,
				"method": "rhf"
			},
			{
				"type": "occ",
				"energy": -0.23601,
				"method": "rhf"
			},
			{
				"type": "occ",
				"energy": -0.20686,
				"method": "rhf"
			},
			{
				"type": "unocc",
				"energy": -0.0555,
				"method": "rhf"
			},
			{
				"type": "unocc",
				"energy": -0.0458,
				"method": "rhf"
			},
			{
				"type": "unocc",
				"energy": -0.02767,
				"method": "rhf"
			},
			{
				"type": "unocc",
				"energy": -0.01806,
				"method": "rhf"
			},
			{
				"type": "unocc",
				"energy": -0.01328,
				"method": "rhf"
			}
		],
		"cosmo_sigma_profile": { 
			"0.0": 0.0,
			"0.0": 0.0,
			"0.0": 0.0,
			"0.0": 0.0,
			"0.0": 0.0,
			"0.0": 0.0,
			"0.0": 0.0,
			"0.0": 0.0,
			"0.0": 0.0,
			"0.0": 0.0,
			"0.0": 0.0,
			"0.0": 0.0,
			"0.0": 0.0,
			"0.0": 0.0,
			"0.0": 0.0,
			"0.0": 0.0,
			"0.0": 0.0,
			"0.0": 0.0,
			"0.0": 0.0,
			"0.0": 0.0,
			"0.0": 0.0,
			"0.0": 0.0,
			"0.0": 0.0,
			"0.0": 0.0,
			"0.0": 0.0,
			"0.0": 0.0,
			"0.0": 0.0,
			"0.0": 0.0,
			"0.0": 0.0,
			"0.0": 0.0,
			"0.0": 0.0,
			"0.0": 0.0,
			"0.0": 0.0,
			"0.0": 0.0,
			"0.0": 0.0,
			"0.0": 0.0,
			"0.0": 0.0,
			"0.0": 0.0,
			"0.0": 0.0,
			"0.0": 0.0,
			"0.0": 0.0,
			"0.0": 0.0,
			"0.0": 0.0,
			"0.0": 0.0,
			"0.0": 0.0,
			"0.0": 0.0,
			"0.0": 0.0,
			"0.0": 0.0,
			"0.0": 0.0,
			"0.0": 0.0,
			"0.0": 0.0
		}
	}
}
