{
	 "smiles": "CSC1=CC=C(NC(=O)C(C)Cl)C=C1", 
	 "Tm": 403.15, 
	 "num_atms": 26, 
	 "gaussian": { 
		 "optdone": 1, 
		 "sigma_profile": "yes", 
		 "theory": "DFT", 
		 "functional": "B3LYP", 
		 "basiset": "6-31G**", 
		 "properties": { 
			 "R2extent": 5913.7981, 
			 "electric_dipole_moment_norm": 1.93451661663, 
			 "electric_quadrupole_moment_norm": 9.39736278538, 
			 "total_energy": -1376.67916539, 
			 "HOMO_LUMO_gap": 0.19104, 
			 "cosmo_polarized_energy": -11.18, 
			 "cosmo_cavitation_energy": 33.19, 
			 "cosmo_dispersion_energy": -24.38, 
			 "cosmo_repulsion_energy": 1.89, 
			 "cosmo_total_nonelectrostatic_energy": 10.71, 
			 "SMD_solvation_energy": 5.81 
		},
		"coords": [
			{
				"x": -1.3738266315,
				"y": -0.9195935611,
				"z": -4.504197299,
				"element": "C" 
			},
			{
				"x": 0.0693250517,
				"y": 0.1119081837,
				"z": -4.0331859435,
				"element": "S" 
			},
			{
				"x": 0.0391440677,
				"y": -0.0630035138,
				"z": -2.2475370929,
				"element": "C" 
			},
			{
				"x": 0.8566593253,
				"y": -1.0080546517,
				"z": -1.6135552576,
				"element": "C" 
			},
			{
				"x": 0.8564394685,
				"y": -1.1238751725,
				"z": -0.2275438764,
				"element": "C" 
			},
			{
				"x": 0.0371736653,
				"y": -0.2961772026,
				"z": 0.5559238391,
				"element": "C" 
			},
			{
				"x": 0.0943756606,
				"y": -0.4738859156,
				"z": 1.9548297452,
				"element": "N" 
			},
			{
				"x": -0.6079030875,
				"y": 0.1797181117,
				"z": 2.9215754356,
				"element": "C" 
			},
			{
				"x": -1.4321498177,
				"y": 1.0662030275,
				"z": 2.7354756778,
				"element": "O" 
			},
			{
				"x": -0.3339622668,
				"y": -0.2088874407,
				"z": 4.3881800853,
				"element": "C" 
			},
			{
				"x": 0.2270171497,
				"y": 0.9756208555,
				"z": 5.1697789007,
				"element": "C" 
			},
			{
				"x": 0.7600487788,
				"y": -1.6715162216,
				"z": 4.6008042536,
				"element": "Cl" 
			},
			{
				"x": -0.781501041,
				"y": 0.6577680678,
				"z": -0.0679571099,
				"element": "C" 
			},
			{
				"x": -0.7667367293,
				"y": 0.7665639856,
				"z": -1.4574262639,
				"element": "C" 
			},
			{
				"x": -2.2942758629,
				"y": -0.5290508781,
				"z": -4.0650398653,
				"element": "H" 
			},
			{
				"x": -1.4479481139,
				"y": -0.8701763996,
				"z": -5.5933038539,
				"element": "H" 
			},
			{
				"x": -1.2281408502,
				"y": -1.9586031346,
				"z": -4.2010559159,
				"element": "H" 
			},
			{
				"x": 1.495972956,
				"y": -1.650925099,
				"z": -2.2100413586,
				"element": "H" 
			},
			{
				"x": 1.496482035,
				"y": -1.860827506,
				"z": 0.2521675124,
				"element": "H" 
			},
			{
				"x": 0.725886798,
				"y": -1.1931137071,
				"z": 2.2838523191,
				"element": "H" 
			},
			{
				"x": -1.2921269367,
				"y": -0.523791258,
				"z": 4.8048501689,
				"element": "H" 
			},
			{
				"x": 0.3036925761,
				"y": 0.7342577033,
				"z": 6.2318569842,
				"element": "H" 
			},
			{
				"x": -0.4509782565,
				"y": 1.8228298817,
				"z": 5.0396827856,
				"element": "H" 
			},
			{
				"x": 1.2169398325,
				"y": 1.2549961967,
				"z": 4.7990882151,
				"element": "H" 
			},
			{
				"x": -1.4081327265,
				"y": 1.2996606784,
				"z": 0.5347449339,
				"element": "H" 
			},
			{
				"x": -1.3903750447,
				"y": 1.5148549702,
				"z": -1.9368670195,
				"element": "H" 
			}
		],
		 "valence_orbital": [ 
			{
				"type": "occ",
				"energy": -0.30441,
				"method": "rhf"
			},
			{
				"type": "occ",
				"energy": -0.26788,
				"method": "rhf"
			},
			{
				"type": "occ",
				"energy": -0.26111,
				"method": "rhf"
			},
			{
				"type": "occ",
				"energy": -0.23238,
				"method": "rhf"
			},
			{
				"type": "occ",
				"energy": -0.22383,
				"method": "rhf"
			},
			{
				"type": "unocc",
				"energy": -0.03279,
				"method": "rhf"
			},
			{
				"type": "unocc",
				"energy": -0.01109,
				"method": "rhf"
			},
			{
				"type": "unocc",
				"energy": 0.00267,
				"method": "rhf"
			},
			{
				"type": "unocc",
				"energy": 0.02346,
				"method": "rhf"
			},
			{
				"type": "unocc",
				"energy": 0.05375,
				"method": "rhf"
			}
		],
		"cosmo_sigma_profile": { 
			"-0.025": 0.0,
			"-0.024": 0.0,
			"-0.023": 0.0,
			"-0.022": 0.0,
			"-0.021": 0.0,
			"-0.02": 0.0,
			"-0.019": 0.0,
			"-0.018": 0.0,
			"-0.017": 0.0,
			"-0.016": 0.0,
			"-0.015": 0.0,
			"-0.014": 0.139076335306,
			"-0.013": 0.654483860378,
			"-0.012": 1.29778697645,
			"-0.011": 1.18009140599,
			"-0.01": 0.594097443131,
			"-0.009": 2.22495212492,
			"-0.008": 3.62240469246,
			"-0.007": 5.1608329061,
			"-0.006": 10.8161095219,
			"-0.005": 19.8868455746,
			"-0.004": 19.6588678817,
			"-0.003": 20.9130310246,
			"-0.002": 22.8192853119,
			"-0.001": 23.6831905542,
			"0.0": 18.0196532966,
			"0.001": 17.6230601932,
			"0.002": 18.511155565,
			"0.003": 19.2450957884,
			"0.004": 20.8263104905,
			"0.005": 12.4942849673,
			"0.006": 7.57121626689,
			"0.007": 3.55229442971,
			"0.008": 4.79215963789,
			"0.009": 3.0914975468,
			"0.01": 3.23456274208,
			"0.011": 2.68199067667,
			"0.012": 2.74463966739,
			"0.013": 0.893012459938,
			"0.014": 0.0,
			"0.015": 0.0,
			"0.016": 0.0,
			"0.017": 0.0,
			"0.018": 0.0,
			"0.019": 0.0,
			"0.02": 0.0,
			"0.021": 0.0,
			"0.022": 0.0,
			"0.023": 0.0,
			"0.024": 0.0,
			"0.025": 0.0
		}
	}
}
