{
	 "smiles": "NC(=O)CNC(=O)C1=CC=C(O)C=C1", 
	 "Tm": 538.15, 
	 "num_atms": 24, 
	 "gaussian": { 
		 "optdone": 1, 
		 "sigma_profile": "yes", 
		 "theory": "DFT", 
		 "functional": "B3LYP", 
		 "basiset": "6-31G**", 
		 "properties": { 
			 "R2extent": 3464.9595, 
			 "electric_dipole_moment_norm": 2.57095514158, 
			 "electric_quadrupole_moment_norm": 23.0569516975, 
			 "total_energy": -684.184227543, 
			 "HOMO_LUMO_gap": 0.19986, 
			 "cosmo_polarized_energy": -23.74, 
			 "cosmo_cavitation_energy": 28.64, 
			 "cosmo_dispersion_energy": -20.68, 
			 "cosmo_repulsion_energy": 1.66, 
			 "cosmo_total_nonelectrostatic_energy": 9.62, 
			 "SMD_solvation_energy": 6.97 
		},
		"coords": [
			{
				"x": -3.2776546226,
				"y": 0.9035433734,
				"z": -1.2447277056,
				"element": "N" 
			},
			{
				"x": -2.5486909283,
				"y": 0.3516421036,
				"z": -2.2546598589,
				"element": "C" 
			},
			{
				"x": -2.4464527497,
				"y": 0.8353967639,
				"z": -3.3713433803,
				"element": "O" 
			},
			{
				"x": -1.803263624,
				"y": -0.9423959846,
				"z": -1.8934369979,
				"element": "C" 
			},
			{
				"x": -2.1575782562,
				"y": -1.5379835554,
				"z": -0.607639018,
				"element": "N" 
			},
			{
				"x": -1.2800834379,
				"y": -1.887243506,
				"z": 0.4182933818,
				"element": "C" 
			},
			{
				"x": -1.5453310514,
				"y": -2.8445046899,
				"z": 1.136709467,
				"element": "O" 
			},
			{
				"x": -0.0590323633,
				"y": -1.0559695634,
				"z": 0.645328394,
				"element": "C" 
			},
			{
				"x": 0.0179653965,
				"y": 0.3187798964,
				"z": 0.3793996794,
				"element": "C" 
			},
			{
				"x": 1.1717830791,
				"y": 1.0385376977,
				"z": 0.6819826231,
				"element": "C" 
			},
			{
				"x": 2.2720777278,
				"y": 0.3876739472,
				"z": 1.2521457369,
				"element": "C" 
			},
			{
				"x": 3.4304639189,
				"y": 1.0323183795,
				"z": 1.5596386064,
				"element": "O" 
			},
			{
				"x": 2.202772246,
				"y": -0.9834966643,
				"z": 1.537436175,
				"element": "C" 
			},
			{
				"x": 1.0438953171,
				"y": -1.687187263,
				"z": 1.2467842122,
				"element": "C" 
			},
			{
				"x": -3.4006866035,
				"y": 0.4030028784,
				"z": -0.3776671842,
				"element": "H" 
			},
			{
				"x": -3.832477396,
				"y": 1.7214222449,
				"z": -1.445039609,
				"element": "H" 
			},
			{
				"x": -0.7349078125,
				"y": -0.7172229167,
				"z": -1.9175704948,
				"element": "H" 
			},
			{
				"x": -1.9901619577,
				"y": -1.6470690821,
				"z": -2.7109126621,
				"element": "H" 
			},
			{
				"x": -2.9083259293,
				"y": -2.2189036518,
				"z": -0.6436579231,
				"element": "H" 
			},
			{
				"x": -0.8329235162,
				"y": 0.8476320507,
				"z": -0.0373972803,
				"element": "H" 
			},
			{
				"x": 1.2143742996,
				"y": 2.1067766933,
				"z": 0.4809562115,
				"element": "H" 
			},
			{
				"x": 3.35437117,
				"y": 1.9645158995,
				"z": 1.3167544398,
				"element": "H" 
			},
			{
				"x": 3.0613416752,
				"y": -1.4682754213,
				"z": 1.9897934672,
				"element": "H" 
			},
			{
				"x": 0.9667254184,
				"y": -2.7427896299,
				"z": 1.4841297198,
				"element": "H" 
			}
		],
		 "valence_orbital": [ 
			{
				"type": "occ",
				"energy": -0.27503,
				"method": "rhf"
			},
			{
				"type": "occ",
				"energy": -0.26815,
				"method": "rhf"
			},
			{
				"type": "occ",
				"energy": -0.26306,
				"method": "rhf"
			},
			{
				"type": "occ",
				"energy": -0.24125,
				"method": "rhf"
			},
			{
				"type": "occ",
				"energy": -0.23402,
				"method": "rhf"
			},
			{
				"type": "unocc",
				"energy": -0.03416,
				"method": "rhf"
			},
			{
				"type": "unocc",
				"energy": -0.01538,
				"method": "rhf"
			},
			{
				"type": "unocc",
				"energy": 0.02327,
				"method": "rhf"
			},
			{
				"type": "unocc",
				"energy": 0.05205,
				"method": "rhf"
			},
			{
				"type": "unocc",
				"energy": 0.06023,
				"method": "rhf"
			}
		],
		"cosmo_sigma_profile": { 
			"-0.025": 0.0,
			"-0.024": 0.0,
			"-0.023": 0.0,
			"-0.022": 0.0,
			"-0.021": 0.0,
			"-0.02": 0.0,
			"-0.019": 0.138478072278,
			"-0.018": 0.910978469565,
			"-0.017": 1.14826322393,
			"-0.016": 1.0556436722,
			"-0.015": 1.19821147283,
			"-0.014": 2.37463270865,
			"-0.013": 3.36052810143,
			"-0.012": 3.90139615939,
			"-0.011": 4.6603659552,
			"-0.01": 4.52101336322,
			"-0.009": 3.84231481866,
			"-0.008": 5.34570064395,
			"-0.007": 8.63494938927,
			"-0.006": 10.7482548249,
			"-0.005": 12.9020706807,
			"-0.004": 14.6019656524,
			"-0.003": 11.0548983129,
			"-0.002": 11.6227075501,
			"-0.001": 11.2043158215,
			"0.0": 7.8643480377,
			"0.001": 10.7429051261,
			"0.002": 13.82789952,
			"0.003": 14.8634841016,
			"0.004": 13.5310010416,
			"0.005": 5.53122660403,
			"0.006": 3.74175284314,
			"0.007": 3.99915051606,
			"0.008": 4.19405539978,
			"0.009": 3.6237494486,
			"0.01": 4.45067399721,
			"0.011": 4.80429256306,
			"0.012": 3.57602821468,
			"0.013": 9.46290975785,
			"0.014": 8.32534339789,
			"0.015": 1.48928166265,
			"0.016": 0.0,
			"0.017": 0.0,
			"0.018": 0.0,
			"0.019": 0.0,
			"0.02": 0.0,
			"0.021": 0.0,
			"0.022": 0.0,
			"0.023": 0.0,
			"0.024": 0.0,
			"0.025": 0.0
		}
	}
}
