{
	 "smiles": "CC1(C)C2CCC1(C)C(C=C2O)=NNC1=CC=CC=C1", 
	 "Tm": 461.15, 
	 "num_atms": 42, 
	 "gaussian": { 
		 "optdone": 1, 
		 "sigma_profile": "yes", 
		 "theory": "DFT", 
		 "functional": "B3LYP", 
		 "basiset": "6-31G**", 
		 "properties": { 
			 "R2extent": 7642.2147, 
			 "electric_dipole_moment_norm": 4.75994521082, 
			 "electric_quadrupole_moment_norm": 8.03552802497, 
			 "total_energy": -845.758724753, 
			 "HOMO_LUMO_gap": 0.1528, 
			 "cosmo_polarized_energy": -15.07, 
			 "cosmo_cavitation_energy": 41.07, 
			 "cosmo_dispersion_energy": -29.01, 
			 "cosmo_repulsion_energy": 2.19, 
			 "cosmo_total_nonelectrostatic_energy": 14.25, 
			 "SMD_solvation_energy": 6.43 
		},
		"coords": [
			{
				"x": -1.101773212,
				"y": -1.4035670842,
				"z": -2.9938387022,
				"element": "C" 
			},
			{
				"x": -0.7353619852,
				"y": -1.0306505072,
				"z": -1.5410142904,
				"element": "C" 
			},
			{
				"x": -1.836804544,
				"y": -0.089684226,
				"z": -1.0240952807,
				"element": "C" 
			},
			{
				"x": -0.5540613036,
				"y": -2.3237813971,
				"z": -0.6912058521,
				"element": "C" 
			},
			{
				"x": 0.7353448647,
				"y": -2.963377459,
				"z": -1.2823172761,
				"element": "C" 
			},
			{
				"x": 1.6093874707,
				"y": -1.7375133808,
				"z": -1.6690172095,
				"element": "C" 
			},
			{
				"x": 0.7316748996,
				"y": -0.457046053,
				"z": -1.4222479585,
				"element": "C" 
			},
			{
				"x": 1.0625739489,
				"y": 0.6568384635,
				"z": -2.4179386354,
				"element": "C" 
			},
			{
				"x": 0.9414084841,
				"y": 0.0030132143,
				"z": 0.0294528668,
				"element": "C" 
			},
			{
				"x": 0.471931935,
				"y": -0.8988888941,
				"z": 1.0769295065,
				"element": "C" 
			},
			{
				"x": -0.2641270918,
				"y": -1.9821448217,
				"z": 0.7498366029,
				"element": "C" 
			},
			{
				"x": -0.6668004858,
				"y": -2.851220624,
				"z": 1.7170743317,
				"element": "O" 
			},
			{
				"x": 1.5345918861,
				"y": 1.1393835083,
				"z": 0.216059451,
				"element": "N" 
			},
			{
				"x": 1.7509679364,
				"y": 1.5809506513,
				"z": 1.485303355,
				"element": "N" 
			},
			{
				"x": 2.2970602436,
				"y": 2.8459055383,
				"z": 1.7024663944,
				"element": "C" 
			},
			{
				"x": 2.3043937594,
				"y": 3.3654825,
				"z": 3.0088604149,
				"element": "C" 
			},
			{
				"x": 2.8706681751,
				"y": 4.6110453411,
				"z": 3.2665314347,
				"element": "C" 
			},
			{
				"x": 3.4377127639,
				"y": 5.3624874234,
				"z": 2.2344737964,
				"element": "C" 
			},
			{
				"x": 3.4282295472,
				"y": 4.8432941742,
				"z": 0.9373689406,
				"element": "C" 
			},
			{
				"x": 2.867477476,
				"y": 3.5980647534,
				"z": 0.662123625,
				"element": "C" 
			},
			{
				"x": -1.3003542876,
				"y": -0.504725388,
				"z": -3.5843874251,
				"element": "H" 
			},
			{
				"x": -0.323384641,
				"y": -1.9695687672,
				"z": -3.5107796904,
				"element": "H" 
			},
			{
				"x": -2.0164728382,
				"y": -2.007973363,
				"z": -3.005962586,
				"element": "H" 
			},
			{
				"x": -2.8216599024,
				"y": -0.557130272,
				"z": -1.1413810925,
				"element": "H" 
			},
			{
				"x": -1.8479215037,
				"y": 0.837840215,
				"z": -1.6056587139,
				"element": "H" 
			},
			{
				"x": -1.7125958982,
				"y": 0.174916473,
				"z": 0.0265224677,
				"element": "H" 
			},
			{
				"x": -1.4284667138,
				"y": -2.9872568805,
				"z": -0.7573627545,
				"element": "H" 
			},
			{
				"x": 1.2259244431,
				"y": -3.6211908219,
				"z": -0.5592367471,
				"element": "H" 
			},
			{
				"x": 0.4905112142,
				"y": -3.5747103356,
				"z": -2.1564017261,
				"element": "H" 
			},
			{
				"x": 1.9030700118,
				"y": -1.7893903043,
				"z": -2.7220377664,
				"element": "H" 
			},
			{
				"x": 2.5331252612,
				"y": -1.6881797944,
				"z": -1.0872060867,
				"element": "H" 
			},
			{
				"x": 0.4353585435,
				"y": 1.5387014574,
				"z": -2.2611720157,
				"element": "H" 
			},
			{
				"x": 2.0993172694,
				"y": 0.978713698,
				"z": -2.2969978135,
				"element": "H" 
			},
			{
				"x": 0.9301150438,
				"y": 0.3084979297,
				"z": -3.4461790721,
				"element": "H" 
			},
			{
				"x": 0.7233178795,
				"y": -0.74202142,
				"z": 2.1207322456,
				"element": "H" 
			},
			{
				"x": -1.2049661157,
				"y": -3.5459097256,
				"z": 1.3160203566,
				"element": "H" 
			},
			{
				"x": 1.1993190455,
				"y": 1.1940061084,
				"z": 2.2426115557,
				"element": "H" 
			},
			{
				"x": 1.8662561532,
				"y": 2.7875439925,
				"z": 3.8199842481,
				"element": "H" 
			},
			{
				"x": 2.8654339936,
				"y": 4.9960104476,
				"z": 4.2827703254,
				"element": "H" 
			},
			{
				"x": 3.8783581454,
				"y": 6.3336127159,
				"z": 2.4375637007,
				"element": "H" 
			},
			{
				"x": 3.8640907142,
				"y": 5.4155982791,
				"z": 0.1224799445,
				"element": "H" 
			},
			{
				"x": 2.8569294139,
				"y": 3.1949246352,
				"z": -0.3426268691,
				"element": "H" 
			}
		],
		 "valence_orbital": [ 
			{
				"type": "occ",
				"energy": -0.2766,
				"method": "rhf"
			},
			{
				"type": "occ",
				"energy": -0.25967,
				"method": "rhf"
			},
			{
				"type": "occ",
				"energy": -0.2344,
				"method": "rhf"
			},
			{
				"type": "occ",
				"energy": -0.22856,
				"method": "rhf"
			},
			{
				"type": "occ",
				"energy": -0.17141,
				"method": "rhf"
			},
			{
				"type": "unocc",
				"energy": -0.01861,
				"method": "rhf"
			},
			{
				"type": "unocc",
				"energy": 0.01628,
				"method": "rhf"
			},
			{
				"type": "unocc",
				"energy": 0.03209,
				"method": "rhf"
			},
			{
				"type": "unocc",
				"energy": 0.05519,
				"method": "rhf"
			},
			{
				"type": "unocc",
				"energy": 0.07317,
				"method": "rhf"
			}
		],
		"cosmo_sigma_profile": { 
			"-0.025": 0.0,
			"-0.024": 0.0,
			"-0.023": 0.0,
			"-0.022": 0.0,
			"-0.021": 0.0,
			"-0.02": 0.0,
			"-0.019": 0.0,
			"-0.018": 0.497802344106,
			"-0.017": 1.01983980139,
			"-0.016": 1.32746604475,
			"-0.015": 0.430782549388,
			"-0.014": 0.916657824557,
			"-0.013": 1.73995845665,
			"-0.012": 2.40028185492,
			"-0.011": 2.56108172681,
			"-0.01": 2.55258980187,
			"-0.009": 1.99073521395,
			"-0.008": 3.03401430106,
			"-0.007": 2.86852835586,
			"-0.006": 4.0280778655,
			"-0.005": 8.47456557581,
			"-0.004": 16.1571016192,
			"-0.003": 30.2585415578,
			"-0.002": 38.298394637,
			"-0.001": 33.1965222593,
			"0.0": 30.5758406434,
			"0.001": 33.3594743663,
			"0.002": 20.1241961243,
			"0.003": 11.661166947,
			"0.004": 14.1355629003,
			"0.005": 16.3407363522,
			"0.006": 14.5485152315,
			"0.007": 13.987107136,
			"0.008": 6.98974448447,
			"0.009": 3.45148059192,
			"0.01": 2.50325964775,
			"0.011": 1.59889646587,
			"0.012": 0.148601262186,
			"0.013": 0.0,
			"0.014": 0.0,
			"0.015": 0.0,
			"0.016": 0.0,
			"0.017": 0.0,
			"0.018": 0.0,
			"0.019": 0.0,
			"0.02": 0.0,
			"0.021": 0.0,
			"0.022": 0.0,
			"0.023": 0.0,
			"0.024": 0.0,
			"0.025": 0.0
		}
	}
}
