{
	 "smiles": "COC12CCC3(CC1C(C)(O)C(C)(C)C)C1CC4=CC=C(O)C5=C4C3(CCN1CC1CC1)C2O5", 
	 "Tm": 482.15, 
	 "num_atms": 75, 
	 "gaussian": { 
		 "optdone": 1, 
		 "sigma_profile": "yes", 
		 "theory": "DFT", 
		 "functional": "B3LYP", 
		 "basiset": "6-31G**", 
		 "properties": { 
			 "R2extent": 14426.9151, 
			 "electric_dipole_moment_norm": 2.33450596915, 
			 "electric_quadrupole_moment_norm": 17.9818119982, 
			 "total_energy": -1485.36196032, 
			 "HOMO_LUMO_gap": 0.20605, 
			 "cosmo_polarized_energy": -15.64, 
			 "cosmo_cavitation_energy": 60.98, 
			 "cosmo_dispersion_energy": -41.2, 
			 "cosmo_repulsion_energy": 2.96, 
			 "cosmo_total_nonelectrostatic_energy": 22.74, 
			 "SMD_solvation_energy": 8.71 
		},
		"coords": [
			{
				"x": 0.3789433357,
				"y": 4.0967627184,
				"z": -1.6829202494,
				"element": "C" 
			},
			{
				"x": -0.2159618007,
				"y": 3.5131933084,
				"z": -0.5332621053,
				"element": "O" 
			},
			{
				"x": -0.0470917516,
				"y": 2.116091998,
				"z": -0.2785144702,
				"element": "C" 
			},
			{
				"x": -1.3743642803,
				"y": 1.6389538884,
				"z": 0.3407041288,
				"element": "C" 
			},
			{
				"x": -1.3197322926,
				"y": 0.1366218429,
				"z": 0.7281153127,
				"element": "C" 
			},
			{
				"x": 0.0409806639,
				"y": -0.4717501555,
				"z": 0.3060924795,
				"element": "C" 
			},
			{
				"x": 1.1020769702,
				"y": 0.2858529419,
				"z": 1.1285542686,
				"element": "C" 
			},
			{
				"x": 1.1997911853,
				"y": 1.7792941706,
				"z": 0.6431845396,
				"element": "C" 
			},
			{
				"x": 1.7579505129,
				"y": 2.775473945,
				"z": 1.7632543468,
				"element": "C" 
			},
			{
				"x": 2.4320753784,
				"y": 3.9703356835,
				"z": 1.0597053674,
				"element": "C" 
			},
			{
				"x": 2.7978869876,
				"y": 2.0219740038,
				"z": 2.4250208046,
				"element": "O" 
			},
			{
				"x": 0.847427219,
				"y": 3.2861511,
				"z": 2.962114128,
				"element": "C" 
			},
			{
				"x": 0.0773017176,
				"y": 2.1433907725,
				"z": 3.6575274396,
				"element": "C" 
			},
			{
				"x": -0.1505881215,
				"y": 4.3809169674,
				"z": 2.5237538804,
				"element": "C" 
			},
			{
				"x": 1.7490511022,
				"y": 3.9128329209,
				"z": 4.059418418,
				"element": "C" 
			},
			{
				"x": 0.0639354795,
				"y": -2.0241527616,
				"z": 0.4547542058,
				"element": "C" 
			},
			{
				"x": -1.0666758007,
				"y": -2.7351879762,
				"z": -0.3956532109,
				"element": "C" 
			},
			{
				"x": -1.5321862511,
				"y": -1.9714609411,
				"z": -1.6288370555,
				"element": "C" 
			},
			{
				"x": -2.7044953459,
				"y": -2.237673707,
				"z": -2.3581639535,
				"element": "C" 
			},
			{
				"x": -3.2107909854,
				"y": -1.3053326192,
				"z": -3.2731596397,
				"element": "C" 
			},
			{
				"x": -2.6201782153,
				"y": -0.0426169639,
				"z": -3.4425800786,
				"element": "C" 
			},
			{
				"x": -3.2122782967,
				"y": 0.8924434637,
				"z": -4.2459443423,
				"element": "O" 
			},
			{
				"x": -1.455780541,
				"y": 0.2036864342,
				"z": -2.7189576744,
				"element": "C" 
			},
			{
				"x": -0.8937432052,
				"y": -0.7763047807,
				"z": -1.9262128187,
				"element": "C" 
			},
			{
				"x": 0.2904592694,
				"y": -0.2170667179,
				"z": -1.2021403118,
				"element": "C" 
			},
			{
				"x": 1.628342375,
				"y": -0.8456727735,
				"z": -1.6621982776,
				"element": "C" 
			},
			{
				"x": 1.753948352,
				"y": -2.3210826663,
				"z": -1.2749573483,
				"element": "C" 
			},
			{
				"x": 1.4216232973,
				"y": -2.5106343294,
				"z": 0.1363845236,
				"element": "N" 
			},
			{
				"x": 1.7373088201,
				"y": -3.8563565421,
				"z": 0.6128166772,
				"element": "C" 
			},
			{
				"x": 1.7301632349,
				"y": -3.9842213453,
				"z": 2.1233523782,
				"element": "C" 
			},
			{
				"x": 0.5284444896,
				"y": -4.5236212018,
				"z": 2.8682693888,
				"element": "C" 
			},
			{
				"x": 1.7770037413,
				"y": -5.3592467487,
				"z": 2.7440733652,
				"element": "C" 
			},
			{
				"x": 0.2117287123,
				"y": 1.2908260203,
				"z": -1.5680600018,
				"element": "C" 
			},
			{
				"x": -0.8354465612,
				"y": 1.4307002195,
				"z": -2.5893514381,
				"element": "O" 
			},
			{
				"x": 0.145901063,
				"y": 5.1633890052,
				"z": -1.6270390689,
				"element": "H" 
			},
			{
				"x": 1.4720500638,
				"y": 3.9889541567,
				"z": -1.7039901676,
				"element": "H" 
			},
			{
				"x": -0.0381796501,
				"y": 3.6933519938,
				"z": -2.6121127431,
				"element": "H" 
			},
			{
				"x": -2.1582783933,
				"y": 1.8281174189,
				"z": -0.3973684764,
				"element": "H" 
			},
			{
				"x": -1.6088011828,
				"y": 2.2652100287,
				"z": 1.2022652063,
				"element": "H" 
			},
			{
				"x": -1.4215749025,
				"y": 0.0099159136,
				"z": 1.811811718,
				"element": "H" 
			},
			{
				"x": -2.1604247774,
				"y": -0.3905323825,
				"z": 0.2755260895,
				"element": "H" 
			},
			{
				"x": 0.8407041847,
				"y": 0.2343439448,
				"z": 2.1846218782,
				"element": "H" 
			},
			{
				"x": 2.0722629975,
				"y": -0.2031890501,
				"z": 1.0389532965,
				"element": "H" 
			},
			{
				"x": 2.0465023645,
				"y": 1.7922819092,
				"z": -0.0611467961,
				"element": "H" 
			},
			{
				"x": 3.1435432315,
				"y": 3.6076248374,
				"z": 0.3073504796,
				"element": "H" 
			},
			{
				"x": 1.7081605525,
				"y": 4.6077964642,
				"z": 0.5544194078,
				"element": "H" 
			},
			{
				"x": 2.9967108757,
				"y": 4.5725920916,
				"z": 1.7734837894,
				"element": "H" 
			},
			{
				"x": 3.4476744929,
				"y": 1.7680943433,
				"z": 1.7562417575,
				"element": "H" 
			},
			{
				"x": 0.7590216029,
				"y": 1.3625745925,
				"z": 4.0046885277,
				"element": "H" 
			},
			{
				"x": -0.4424908483,
				"y": 2.5425722161,
				"z": 4.5356042409,
				"element": "H" 
			},
			{
				"x": -0.6799329437,
				"y": 1.6875271611,
				"z": 3.0181125534,
				"element": "H" 
			},
			{
				"x": -0.8208558097,
				"y": 4.611328821,
				"z": 3.3593965226,
				"element": "H" 
			},
			{
				"x": 0.3663041398,
				"y": 5.3096145805,
				"z": 2.2627054364,
				"element": "H" 
			},
			{
				"x": -0.7556698492,
				"y": 4.0990924129,
				"z": 1.6631386503,
				"element": "H" 
			},
			{
				"x": 1.1138963992,
				"y": 4.2665694783,
				"z": 4.8791354598,
				"element": "H" 
			},
			{
				"x": 2.4586412503,
				"y": 3.187198472,
				"z": 4.4589815834,
				"element": "H" 
			},
			{
				"x": 2.3129569141,
				"y": 4.7766229644,
				"z": 3.6969458136,
				"element": "H" 
			},
			{
				"x": -0.1143527985,
				"y": -2.2723276326,
				"z": 1.5044267936,
				"element": "H" 
			},
			{
				"x": -0.7193671812,
				"y": -3.7436527095,
				"z": -0.6542165832,
				"element": "H" 
			},
			{
				"x": -1.9419448228,
				"y": -2.8908551193,
				"z": 0.2471323381,
				"element": "H" 
			},
			{
				"x": -3.2580704551,
				"y": -3.1576472146,
				"z": -2.1877163222,
				"element": "H" 
			},
			{
				"x": -4.1224251787,
				"y": -1.5144143805,
				"z": -3.8243559647,
				"element": "H" 
			},
			{
				"x": -2.6975040613,
				"y": 1.7088553838,
				"z": -4.1810511721,
				"element": "H" 
			},
			{
				"x": 2.4585507222,
				"y": -0.2863008976,
				"z": -1.2158884683,
				"element": "H" 
			},
			{
				"x": 1.7181849808,
				"y": -0.7416710377,
				"z": -2.750109594,
				"element": "H" 
			},
			{
				"x": 2.7868266002,
				"y": -2.6522480889,
				"z": -1.43440994,
				"element": "H" 
			},
			{
				"x": 1.1236490742,
				"y": -2.9360627688,
				"z": -1.9442585101,
				"element": "H" 
			},
			{
				"x": 2.7464023139,
				"y": -4.0872079253,
				"z": 0.2468402151,
				"element": "H" 
			},
			{
				"x": 1.0762764173,
				"y": -4.6368763098,
				"z": 0.1829937728,
				"element": "H" 
			},
			{
				"x": 2.3012846424,
				"y": -3.207707394,
				"z": 2.6278035718,
				"element": "H" 
			},
			{
				"x": -0.3380104058,
				"y": -4.8247413068,
				"z": 2.2850730225,
				"element": "H" 
			},
			{
				"x": 0.285217897,
				"y": -4.0962473271,
				"z": 3.836600072,
				"element": "H" 
			},
			{
				"x": 1.7468948521,
				"y": -6.2176050055,
				"z": 2.0777881111,
				"element": "H" 
			},
			{
				"x": 2.3939400046,
				"y": -5.5051768279,
				"z": 3.6253803916,
				"element": "H" 
			},
			{
				"x": 1.1336962284,
				"y": 1.6332150191,
				"z": -2.0465395702,
				"element": "H" 
			}
		],
		 "valence_orbital": [ 
			{
				"type": "occ",
				"energy": -0.25993,
				"method": "rhf"
			},
			{
				"type": "occ",
				"energy": -0.24704,
				"method": "rhf"
			},
			{
				"type": "occ",
				"energy": -0.22007,
				"method": "rhf"
			},
			{
				"type": "occ",
				"energy": -0.20836,
				"method": "rhf"
			},
			{
				"type": "occ",
				"energy": -0.1993,
				"method": "rhf"
			},
			{
				"type": "unocc",
				"energy": 0.00675,
				"method": "rhf"
			},
			{
				"type": "unocc",
				"energy": 0.01637,
				"method": "rhf"
			},
			{
				"type": "unocc",
				"energy": 0.05377,
				"method": "rhf"
			},
			{
				"type": "unocc",
				"energy": 0.06664,
				"method": "rhf"
			},
			{
				"type": "unocc",
				"energy": 0.07837,
				"method": "rhf"
			}
		],
		"cosmo_sigma_profile": { 
			"-0.025": 0.0,
			"-0.024": 0.0,
			"-0.023": 0.0,
			"-0.022": 0.0,
			"-0.021": 0.0,
			"-0.02": 0.0,
			"-0.019": 0.0,
			"-0.018": 0.0,
			"-0.017": 0.0,
			"-0.016": 0.264559019561,
			"-0.015": 0.820050854998,
			"-0.014": 0.808096732585,
			"-0.013": 2.15924340165,
			"-0.012": 1.40952427749,
			"-0.011": 1.11920871471,
			"-0.01": 1.75883250977,
			"-0.009": 2.1453838043,
			"-0.008": 1.88587473476,
			"-0.007": 2.01792110258,
			"-0.006": 5.44360559607,
			"-0.005": 12.0439694226,
			"-0.004": 24.6548963623,
			"-0.003": 48.8093635878,
			"-0.002": 69.2787778356,
			"-0.001": 65.7739326163,
			"0.0": 52.5473070961,
			"0.001": 42.785129011,
			"0.002": 36.2953936367,
			"0.003": 20.9479931181,
			"0.004": 17.9009241056,
			"0.005": 15.4558746831,
			"0.006": 12.1382595682,
			"0.007": 7.61691176165,
			"0.008": 6.23022413327,
			"0.009": 5.33751035115,
			"0.01": 5.4090597602,
			"0.011": 4.87800453447,
			"0.012": 2.33186276256,
			"0.013": 0.649503532952,
			"0.014": 0.0609368358195,
			"0.015": 0.0,
			"0.016": 0.0,
			"0.017": 0.0,
			"0.018": 0.0,
			"0.019": 0.0,
			"0.02": 0.0,
			"0.021": 0.0,
			"0.022": 0.0,
			"0.023": 0.0,
			"0.024": 0.0,
			"0.025": 0.0
		}
	}
}
