{
	 "smiles": "O1C2=CC=CC=C2SC2=CC=CC=C12", 
	 "Tm": 331.35, 
	 "num_atms": 22, 
	 "gaussian": { 
		 "optdone": 1, 
		 "sigma_profile": "yes", 
		 "theory": "DFT", 
		 "functional": "B3LYP", 
		 "basiset": "6-31G**", 
		 "properties": { 
			 "R2extent": 3700.2422, 
			 "electric_dipole_moment_norm": 0.3906097029, 
			 "electric_quadrupole_moment_norm": 10.337914561, 
			 "total_energy": -935.49836076, 
			 "HOMO_LUMO_gap": 0.16963, 
			 "cosmo_polarized_energy": -5.73, 
			 "cosmo_cavitation_energy": 27.19, 
			 "cosmo_dispersion_energy": -21.21, 
			 "cosmo_repulsion_energy": 1.57, 
			 "cosmo_total_nonelectrostatic_energy": 7.55, 
			 "SMD_solvation_energy": 4.34 
		},
		"coords": [
			{
				"x": -0.5286814418,
				"y": 0.7605416321,
				"z": 0.2712153604,
				"element": "O" 
			},
			{
				"x": 0.6628528992,
				"y": 0.0966455102,
				"z": 0.0819911262,
				"element": "C" 
			},
			{
				"x": 1.0784755221,
				"y": -0.6832879128,
				"z": 1.1622574976,
				"element": "C" 
			},
			{
				"x": 2.2683738017,
				"y": -1.4047100286,
				"z": 1.0952852701,
				"element": "C" 
			},
			{
				"x": 3.0504243079,
				"y": -1.3476707984,
				"z": -0.0592219551,
				"element": "C" 
			},
			{
				"x": 2.6336576207,
				"y": -0.5682225697,
				"z": -1.1369826232,
				"element": "C" 
			},
			{
				"x": 1.4400604403,
				"y": 0.1605226555,
				"z": -1.0803430791,
				"element": "C" 
			},
			{
				"x": 0.982912553,
				"y": 1.1301937223,
				"z": -2.5022739252,
				"element": "S" 
			},
			{
				"x": -0.5536065483,
				"y": 1.8359523557,
				"z": -1.9436096682,
				"element": "C" 
			},
			{
				"x": -1.241479136,
				"y": 2.6883915323,
				"z": -2.8149026517,
				"element": "C" 
			},
			{
				"x": -2.449486093,
				"y": 3.2744429644,
				"z": -2.4406615154,
				"element": "C" 
			},
			{
				"x": -2.9841683765,
				"y": 3.0095770712,
				"z": -1.1790306991,
				"element": "C" 
			},
			{
				"x": -2.3077407722,
				"y": 2.1625385025,
				"z": -0.3039601602,
				"element": "C" 
			},
			{
				"x": -1.0982342094,
				"y": 1.5766421492,
				"z": -0.6805801941,
				"element": "C" 
			},
			{
				"x": 0.4489227927,
				"y": -0.7072261824,
				"z": 2.0456542185,
				"element": "H" 
			},
			{
				"x": 2.579309157,
				"y": -2.0071026152,
				"z": 1.9429640255,
				"element": "H" 
			},
			{
				"x": 3.9796666248,
				"y": -1.9044715891,
				"z": -0.1253997593,
				"element": "H" 
			},
			{
				"x": 3.2380018822,
				"y": -0.5196800082,
				"z": -2.0386122235,
				"element": "H" 
			},
			{
				"x": -0.8199868763,
				"y": 2.890630498,
				"z": -3.7957017633,
				"element": "H" 
			},
			{
				"x": -2.9655181605,
				"y": 3.9322910871,
				"z": -3.1326488232,
				"element": "H" 
			},
			{
				"x": -3.9238639074,
				"y": 3.4582969767,
				"z": -0.8728650438,
				"element": "H" 
			},
			{
				"x": -2.6975920803,
				"y": 1.937205047,
				"z": 0.683226586,
				"element": "H" 
			}
		],
		 "valence_orbital": [ 
			{
				"type": "occ",
				"energy": -0.31302,
				"method": "rhf"
			},
			{
				"type": "occ",
				"energy": -0.26548,
				"method": "rhf"
			},
			{
				"type": "occ",
				"energy": -0.26391,
				"method": "rhf"
			},
			{
				"type": "occ",
				"energy": -0.23347,
				"method": "rhf"
			},
			{
				"type": "occ",
				"energy": -0.19123,
				"method": "rhf"
			},
			{
				"type": "unocc",
				"energy": -0.0216,
				"method": "rhf"
			},
			{
				"type": "unocc",
				"energy": -0.01022,
				"method": "rhf"
			},
			{
				"type": "unocc",
				"energy": -0.00707,
				"method": "rhf"
			},
			{
				"type": "unocc",
				"energy": 0.02031,
				"method": "rhf"
			},
			{
				"type": "unocc",
				"energy": 0.02394,
				"method": "rhf"
			}
		],
		"cosmo_sigma_profile": { 
			"-0.025": 0.0,
			"-0.024": 0.0,
			"-0.023": 0.0,
			"-0.022": 0.0,
			"-0.021": 0.0,
			"-0.02": 0.0,
			"-0.019": 0.0,
			"-0.018": 0.0,
			"-0.017": 0.0,
			"-0.016": 0.0,
			"-0.015": 0.0,
			"-0.014": 0.0,
			"-0.013": 0.0,
			"-0.012": 0.0,
			"-0.011": 0.0,
			"-0.01": 0.0,
			"-0.009": 0.0,
			"-0.008": 0.195179221305,
			"-0.007": 5.84794903457,
			"-0.006": 16.1730860187,
			"-0.005": 17.1884345696,
			"-0.004": 16.9109879035,
			"-0.003": 12.7873079387,
			"-0.002": 13.4250220286,
			"-0.001": 11.4243016679,
			"0.0": 13.8861000517,
			"0.001": 17.0978269648,
			"0.002": 21.8249044125,
			"0.003": 26.6754302715,
			"0.004": 24.5448293269,
			"0.005": 15.5993117998,
			"0.006": 4.56747793714,
			"0.007": 3.11330142279,
			"0.008": 0.208938517039,
			"0.009": 0.0,
			"0.01": 0.0,
			"0.011": 0.0,
			"0.012": 0.0,
			"0.013": 0.0,
			"0.014": 0.0,
			"0.015": 0.0,
			"0.016": 0.0,
			"0.017": 0.0,
			"0.018": 0.0,
			"0.019": 0.0,
			"0.02": 0.0,
			"0.021": 0.0,
			"0.022": 0.0,
			"0.023": 0.0,
			"0.024": 0.0,
			"0.025": 0.0
		}
	}
}
