{
	 "smiles": "CN(C)S(=O)(=O)C1=CC=C(C=C1)C(C)=O", 
	 "Tm": 373.15, 
	 "num_atms": 28, 
	 "gaussian": { 
		 "optdone": 1, 
		 "sigma_profile": "yes", 
		 "theory": "DFT", 
		 "functional": "B3LYP", 
		 "basiset": "6-31G**", 
		 "properties": { 
			 "R2extent": 5290.2814, 
			 "electric_dipole_moment_norm": 3.70299406427, 
			 "electric_quadrupole_moment_norm": 27.4734993397, 
			 "total_energy": -1067.43640908, 
			 "HOMO_LUMO_gap": 0.17641, 
			 "cosmo_polarized_energy": -16.01, 
			 "cosmo_cavitation_energy": 32.89, 
			 "cosmo_dispersion_energy": -23.63, 
			 "cosmo_repulsion_energy": 1.79, 
			 "cosmo_total_nonelectrostatic_energy": 11.06, 
			 "SMD_solvation_energy": 5.34 
		},
		"coords": [
			{
				"x": 3.6578779233,
				"y": -1.2587803865,
				"z": -1.3745121426,
				"element": "C" 
			},
			{
				"x": 2.2103045875,
				"y": -1.0487741506,
				"z": -1.5301763698,
				"element": "N" 
			},
			{
				"x": 1.8339863989,
				"y": -0.4333346731,
				"z": -2.808539678,
				"element": "C" 
			},
			{
				"x": 1.2568806729,
				"y": -2.3947611915,
				"z": -1.1103409019,
				"element": "S" 
			},
			{
				"x": 0.9278789454,
				"y": -3.20882921,
				"z": -2.28981441,
				"element": "O" 
			},
			{
				"x": 1.898881519,
				"y": -3.0039792632,
				"z": 0.0582116189,
				"element": "O" 
			},
			{
				"x": -0.2596199119,
				"y": -1.5861021139,
				"z": -0.5779345853,
				"element": "C" 
			},
			{
				"x": -1.4401359494,
				"y": -1.8352033204,
				"z": -1.2753544658,
				"element": "C" 
			},
			{
				"x": -2.6256458761,
				"y": -1.2468313018,
				"z": -0.8312901105,
				"element": "C" 
			},
			{
				"x": -2.6281258308,
				"y": -0.4194829492,
				"z": 0.2994488091,
				"element": "C" 
			},
			{
				"x": -1.4253745553,
				"y": -0.1890561429,
				"z": 0.989318947,
				"element": "C" 
			},
			{
				"x": -0.2403761841,
				"y": -0.771421147,
				"z": 0.5595108205,
				"element": "C" 
			},
			{
				"x": -3.875440917,
				"y": 0.2426303806,
				"z": 0.8198062647,
				"element": "C" 
			},
			{
				"x": -5.1917611965,
				"y": -0.0071692151,
				"z": 0.1067412072,
				"element": "C" 
			},
			{
				"x": -3.8218945914,
				"y": 0.9673449585,
				"z": 1.8004298613,
				"element": "O" 
			},
			{
				"x": 3.8545297515,
				"y": -1.7300932893,
				"z": -0.4124100811,
				"element": "H" 
			},
			{
				"x": 4.0849844408,
				"y": -1.8790432606,
				"z": -2.175301009,
				"element": "H" 
			},
			{
				"x": 4.1384572462,
				"y": -0.2764722351,
				"z": -1.3962114986,
				"element": "H" 
			},
			{
				"x": 2.100279291,
				"y": -1.0550619999,
				"z": -3.6733215793,
				"element": "H" 
			},
			{
				"x": 2.3494856224,
				"y": 0.5281705746,
				"z": -2.8825859187,
				"element": "H" 
			},
			{
				"x": 0.7587198369,
				"y": -0.241596857,
				"z": -2.8293328953,
				"element": "H" 
			},
			{
				"x": -1.4207051153,
				"y": -2.483795538,
				"z": -2.144065881,
				"element": "H" 
			},
			{
				"x": -3.5446285135,
				"y": -1.4409497731,
				"z": -1.3740442437,
				"element": "H" 
			},
			{
				"x": -1.4517762764,
				"y": 0.4511319913,
				"z": 1.8644140123,
				"element": "H" 
			},
			{
				"x": 0.6896613083,
				"y": -0.6028831592,
				"z": 1.091121669,
				"element": "H" 
			},
			{
				"x": -5.1416965438,
				"y": 0.3197231143,
				"z": -0.9378260244,
				"element": "H" 
			},
			{
				"x": -5.9773843961,
				"y": 0.5463568466,
				"z": 0.6213174487,
				"element": "H" 
			},
			{
				"x": -5.4406616867,
				"y": -1.0741366883,
				"z": 0.1037411362,
				"element": "H" 
			}
		],
		 "valence_orbital": [ 
			{
				"type": "occ",
				"energy": -0.30233,
				"method": "rhf"
			},
			{
				"type": "occ",
				"energy": -0.28386,
				"method": "rhf"
			},
			{
				"type": "occ",
				"energy": -0.2787,
				"method": "rhf"
			},
			{
				"type": "occ",
				"energy": -0.26157,
				"method": "rhf"
			},
			{
				"type": "occ",
				"energy": -0.25505,
				"method": "rhf"
			},
			{
				"type": "unocc",
				"energy": -0.07864,
				"method": "rhf"
			},
			{
				"type": "unocc",
				"energy": -0.02835,
				"method": "rhf"
			},
			{
				"type": "unocc",
				"energy": 0.00845,
				"method": "rhf"
			},
			{
				"type": "unocc",
				"energy": 0.05716,
				"method": "rhf"
			},
			{
				"type": "unocc",
				"energy": 0.07375,
				"method": "rhf"
			}
		],
		"cosmo_sigma_profile": { 
			"-0.025": 0.0,
			"-0.024": 0.0,
			"-0.023": 0.0,
			"-0.022": 0.0,
			"-0.021": 0.0,
			"-0.02": 0.0,
			"-0.019": 0.0,
			"-0.018": 0.0,
			"-0.017": 0.0,
			"-0.016": 0.0,
			"-0.015": 0.0,
			"-0.014": 0.0,
			"-0.013": 0.0,
			"-0.012": 0.0,
			"-0.011": 0.0,
			"-0.01": 0.0,
			"-0.009": 0.0101533036249,
			"-0.008": 2.3406192322,
			"-0.007": 10.3354187361,
			"-0.006": 19.0820514732,
			"-0.005": 20.5345043285,
			"-0.004": 24.9067805984,
			"-0.003": 25.6458027092,
			"-0.002": 28.7623577652,
			"-0.001": 17.6705770465,
			"0.0": 14.2991570263,
			"0.001": 20.4411796544,
			"0.002": 12.2401962135,
			"0.003": 6.8393017618,
			"0.004": 5.15691071528,
			"0.005": 5.56296402026,
			"0.006": 4.49158180105,
			"0.007": 5.01246113774,
			"0.008": 5.27269746393,
			"0.009": 4.82914724205,
			"0.01": 10.171538153,
			"0.011": 11.6955053351,
			"0.012": 5.1074602063,
			"0.013": 0.626795714502,
			"0.014": 0.0,
			"0.015": 0.0,
			"0.016": 0.0,
			"0.017": 0.0,
			"0.018": 0.0,
			"0.019": 0.0,
			"0.02": 0.0,
			"0.021": 0.0,
			"0.022": 0.0,
			"0.023": 0.0,
			"0.024": 0.0,
			"0.025": 0.0
		}
	}
}
