{
	 "smiles": "ClC1=CC=C2SC=C(CBr)C2=C1", 
	 "Tm": 403.15, 
	 "num_atms": 18, 
	 "gaussian": { 
		 "optdone": 1, 
		 "sigma_profile": "yes", 
		 "theory": "DFT", 
		 "functional": "B3LYP", 
		 "basiset": "6-31G**", 
		 "properties": { 
			 "R2extent": 4756.8426, 
			 "electric_dipole_moment_norm": 2.92203787792, 
			 "electric_quadrupole_moment_norm": 8.35092149406, 
			 "total_energy": -3776.36486198, 
			 "HOMO_LUMO_gap": 0.18198, 
			 "cosmo_polarized_energy": -7.98, 
			 "cosmo_cavitation_energy": 27.76, 
			 "cosmo_dispersion_energy": -21.19, 
			 "cosmo_repulsion_energy": 1.64, 
			 "cosmo_total_nonelectrostatic_energy": 8.21, 
			 "SMD_solvation_energy": 2.81 
		},
		"coords": [
			{
				"x": -0.817885468,
				"y": -4.1390303361,
				"z": 0.4504871066,
				"element": "Cl" 
			},
			{
				"x": -0.2376220162,
				"y": -2.5512331461,
				"z": -0.0334222075,
				"element": "C" 
			},
			{
				"x": -0.3209451446,
				"y": -2.1879117664,
				"z": -1.3883267861,
				"element": "C" 
			},
			{
				"x": 0.1245593304,
				"y": -0.9365284928,
				"z": -1.7958388697,
				"element": "C" 
			},
			{
				"x": 0.6531336358,
				"y": -0.0662016173,
				"z": -0.8379870052,
				"element": "C" 
			},
			{
				"x": 1.2761405676,
				"y": 1.554856836,
				"z": -1.1040206256,
				"element": "S" 
			},
			{
				"x": 1.6496155459,
				"y": 1.7150131599,
				"z": 0.5902018572,
				"element": "C" 
			},
			{
				"x": 1.3333106135,
				"y": 0.6162477725,
				"z": 1.3343761488,
				"element": "C" 
			},
			{
				"x": 1.6057238738,
				"y": 0.5061699629,
				"z": 2.7891538106,
				"element": "C" 
			},
			{
				"x": -0.0650197901,
				"y": 0.5964148687,
				"z": 3.9030353294,
				"element": "Br" 
			},
			{
				"x": 0.7439170308,
				"y": -0.4326351135,
				"z": 0.5253409706,
				"element": "C" 
			},
			{
				"x": 0.2816431952,
				"y": -1.6981055608,
				"z": 0.9283582102,
				"element": "C" 
			},
			{
				"x": -0.736037038,
				"y": -2.8855654475,
				"z": -2.1066281298,
				"element": "H" 
			},
			{
				"x": 0.059514846,
				"y": -0.6477733386,
				"z": -2.8400339913,
				"element": "H" 
			},
			{
				"x": 2.0956000509,
				"y": 2.634063043,
				"z": 0.9478825807,
				"element": "H" 
			},
			{
				"x": 2.2271253536,
				"y": 1.3197690531,
				"z": 3.1567361852,
				"element": "H" 
			},
			{
				"x": 2.047733278,
				"y": -0.4506663138,
				"z": 3.0645481045,
				"element": "H" 
			},
			{
				"x": 0.3107921353,
				"y": -1.9969835631,
				"z": 1.9698373116,
				"element": "H" 
			}
		],
		 "valence_orbital": [ 
			{
				"type": "occ",
				"energy": -0.29603,
				"method": "rhf"
			},
			{
				"type": "occ",
				"energy": -0.27585,
				"method": "rhf"
			},
			{
				"type": "occ",
				"energy": -0.27376,
				"method": "rhf"
			},
			{
				"type": "occ",
				"energy": -0.24551,
				"method": "rhf"
			},
			{
				"type": "occ",
				"energy": -0.23199,
				"method": "rhf"
			},
			{
				"type": "unocc",
				"energy": -0.05001,
				"method": "rhf"
			},
			{
				"type": "unocc",
				"energy": -0.02067,
				"method": "rhf"
			},
			{
				"type": "unocc",
				"energy": -0.01875,
				"method": "rhf"
			},
			{
				"type": "unocc",
				"energy": 0.00609,
				"method": "rhf"
			},
			{
				"type": "unocc",
				"energy": 0.03103,
				"method": "rhf"
			}
		],
		"cosmo_sigma_profile": { 
			"-0.025": 0.0,
			"-0.024": 0.0,
			"-0.023": 0.0,
			"-0.022": 0.0,
			"-0.021": 0.0,
			"-0.02": 0.0,
			"-0.019": 0.0,
			"-0.018": 0.0,
			"-0.017": 0.0,
			"-0.016": 0.0,
			"-0.015": 0.0,
			"-0.014": 0.0,
			"-0.013": 0.0,
			"-0.012": 0.0,
			"-0.011": 0.0,
			"-0.01": 0.727299946627,
			"-0.009": 3.67967654371,
			"-0.008": 9.41808905057,
			"-0.007": 11.5027699232,
			"-0.006": 10.3151815655,
			"-0.005": 10.4103754937,
			"-0.004": 9.99708381249,
			"-0.003": 7.52941786969,
			"-0.002": 11.4103439251,
			"-0.001": 11.9046147332,
			"0.0": 14.5905018745,
			"0.001": 22.2291371548,
			"0.002": 29.4108058247,
			"0.003": 30.5006555095,
			"0.004": 20.4666042361,
			"0.005": 14.4604017121,
			"0.006": 10.2302904921,
			"0.007": 2.20409260141,
			"0.008": 0.0,
			"0.009": 0.0,
			"0.01": 0.0,
			"0.011": 0.0,
			"0.012": 0.0,
			"0.013": 0.0,
			"0.014": 0.0,
			"0.015": 0.0,
			"0.016": 0.0,
			"0.017": 0.0,
			"0.018": 0.0,
			"0.019": 0.0,
			"0.02": 0.0,
			"0.021": 0.0,
			"0.022": 0.0,
			"0.023": 0.0,
			"0.024": 0.0,
			"0.025": 0.0
		}
	}
}
