{
	 "smiles": "O=C(OCCC1=CC=C(CCOC(=O)C2=CC=CC=C2)C=C1)C1=CC=CC=C1", 
	 "Tm": 410.15, 
	 "num_atms": 50, 
	 "gaussian": { 
		 "optdone": 1, 
		 "sigma_profile": "yes", 
		 "theory": "DFT", 
		 "functional": "B3LYP", 
		 "basiset": "6-31G**", 
		 "properties": { 
			 "R2extent": 10929.0512, 
			 "electric_dipole_moment_norm": 3.75296225667, 
			 "electric_quadrupole_moment_norm": 13.8150272812, 
			 "total_energy": -1228.75444925, 
			 "HOMO_LUMO_gap": 0.18771, 
			 "cosmo_polarized_energy": -15.21, 
			 "cosmo_cavitation_energy": 54.94, 
			 "cosmo_dispersion_energy": -34.03, 
			 "cosmo_repulsion_energy": 2.56, 
			 "cosmo_total_nonelectrostatic_energy": 23.47, 
			 "SMD_solvation_energy": 10.07 
		},
		"coords": [
			{
				"x": 2.9183337457,
				"y": 0.5097896289,
				"z": 3.6995854365,
				"element": "O" 
			},
			{
				"x": 2.427371892,
				"y": 0.4422924907,
				"z": 2.5880839426,
				"element": "C" 
			},
			{
				"x": 1.1065993693,
				"y": 0.6171460709,
				"z": 2.3401355946,
				"element": "O" 
			},
			{
				"x": 0.2317968361,
				"y": 0.779323082,
				"z": 3.4707748975,
				"element": "C" 
			},
			{
				"x": -0.3355250202,
				"y": -0.5748990983,
				"z": 3.9210559782,
				"element": "C" 
			},
			{
				"x": -0.97880855,
				"y": -1.3423846755,
				"z": 2.7860921215,
				"element": "C" 
			},
			{
				"x": -2.2297187245,
				"y": -0.9720111014,
				"z": 2.2774099921,
				"element": "C" 
			},
			{
				"x": -2.7725686214,
				"y": -1.6178175552,
				"z": 1.1665696647,
				"element": "C" 
			},
			{
				"x": -2.0865675738,
				"y": -2.6615865768,
				"z": 0.5340628033,
				"element": "C" 
			},
			{
				"x": -2.6356447477,
				"y": -3.3144428254,
				"z": -0.7160916911,
				"element": "C" 
			},
			{
				"x": -1.9427191095,
				"y": -2.8414938713,
				"z": -1.9990134503,
				"element": "C" 
			},
			{
				"x": -2.1974316705,
				"y": -1.4360889102,
				"z": -2.2048115938,
				"element": "O" 
			},
			{
				"x": -1.1428396376,
				"y": -0.5863244595,
				"z": -2.1830462711,
				"element": "C" 
			},
			{
				"x": 0.0127567553,
				"y": -0.9428915697,
				"z": -2.0414983079,
				"element": "O" 
			},
			{
				"x": -1.5628139126,
				"y": 0.8324269178,
				"z": -2.3648248251,
				"element": "C" 
			},
			{
				"x": -0.5675393487,
				"y": 1.8194355119,
				"z": -2.3423213906,
				"element": "C" 
			},
			{
				"x": -0.9087532926,
				"y": 3.1591822728,
				"z": -2.5099968861,
				"element": "C" 
			},
			{
				"x": -2.2446173256,
				"y": 3.5209404775,
				"z": -2.7036392446,
				"element": "C" 
			},
			{
				"x": -3.2392473453,
				"y": 2.5400562785,
				"z": -2.7276810665,
				"element": "C" 
			},
			{
				"x": -2.9026177414,
				"y": 1.1981895731,
				"z": -2.5581200399,
				"element": "C" 
			},
			{
				"x": -0.8499554603,
				"y": -3.0529671151,
				"z": 1.0623756915,
				"element": "C" 
			},
			{
				"x": -0.3046616244,
				"y": -2.4024891113,
				"z": 2.1672252571,
				"element": "C" 
			},
			{
				"x": 3.1908742321,
				"y": 0.1635258843,
				"z": 1.339478475,
				"element": "C" 
			},
			{
				"x": 4.5911380462,
				"y": 0.1669732011,
				"z": 1.4082672939,
				"element": "C" 
			},
			{
				"x": 5.3448531102,
				"y": -0.0997676129,
				"z": 0.2678862256,
				"element": "C" 
			},
			{
				"x": 4.7044684093,
				"y": -0.3837785465,
				"z": -0.942460475,
				"element": "C" 
			},
			{
				"x": 3.3090942456,
				"y": -0.400686219,
				"z": -1.0113396972,
				"element": "C" 
			},
			{
				"x": 2.5503361319,
				"y": -0.1234908114,
				"z": 0.1250527731,
				"element": "C" 
			},
			{
				"x": 0.7752396245,
				"y": 1.2633142726,
				"z": 4.2854585315,
				"element": "H" 
			},
			{
				"x": -0.565949037,
				"y": 1.4362431274,
				"z": 3.1147849386,
				"element": "H" 
			},
			{
				"x": 0.4753847867,
				"y": -1.1621846291,
				"z": 4.3640090193,
				"element": "H" 
			},
			{
				"x": -1.0618234278,
				"y": -0.3773599767,
				"z": 4.7200987604,
				"element": "H" 
			},
			{
				"x": -2.7830520319,
				"y": -0.1609561645,
				"z": 2.7460135295,
				"element": "H" 
			},
			{
				"x": -3.7394699289,
				"y": -1.3033864798,
				"z": 0.7818143349,
				"element": "H" 
			},
			{
				"x": -3.7107686898,
				"y": -3.1224399819,
				"z": -0.8027090602,
				"element": "H" 
			},
			{
				"x": -2.5100605605,
				"y": -4.4039282162,
				"z": -0.6666780989,
				"element": "H" 
			},
			{
				"x": -2.3545288903,
				"y": -3.3584340386,
				"z": -2.8716382554,
				"element": "H" 
			},
			{
				"x": -0.8640995004,
				"y": -3.0021477615,
				"z": -1.9570646691,
				"element": "H" 
			},
			{
				"x": 0.4628593604,
				"y": 1.517762958,
				"z": -2.1892009377,
				"element": "H" 
			},
			{
				"x": -0.1352950838,
				"y": 3.9211523965,
				"z": -2.4894905547,
				"element": "H" 
			},
			{
				"x": -2.5103379763,
				"y": 4.5660709275,
				"z": -2.835417365,
				"element": "H" 
			},
			{
				"x": -4.2773239072,
				"y": 2.8214706589,
				"z": -2.8786483812,
				"element": "H" 
			},
			{
				"x": -3.6678199746,
				"y": 0.4310241877,
				"z": -2.5751638659,
				"element": "H" 
			},
			{
				"x": -0.2993265719,
				"y": -3.8676306803,
				"z": 0.5975257681,
				"element": "H" 
			},
			{
				"x": 0.6635989743,
				"y": -2.7153627532,
				"z": 2.5492686493,
				"element": "H" 
			},
			{
				"x": 5.0647132384,
				"y": 0.3803263868,
				"z": 2.360838748,
				"element": "H" 
			},
			{
				"x": 6.4297428283,
				"y": -0.0906735433,
				"z": 0.3212451434,
				"element": "H" 
			},
			{
				"x": 5.294525198,
				"y": -0.5972899107,
				"z": -1.8297100056,
				"element": "H" 
			},
			{
				"x": 2.798871241,
				"y": -0.635784518,
				"z": -1.9401330499,
				"element": "H" 
			},
			{
				"x": 1.4689272611,
				"y": -0.1491475915,
				"z": 0.0699856124,
				"element": "H" 
			}
		],
		 "valence_orbital": [ 
			{
				"type": "occ",
				"energy": -0.25872,
				"method": "rhf"
			},
			{
				"type": "occ",
				"energy": -0.2485,
				"method": "rhf"
			},
			{
				"type": "occ",
				"energy": -0.24689,
				"method": "rhf"
			},
			{
				"type": "occ",
				"energy": -0.24561,
				"method": "rhf"
			},
			{
				"type": "occ",
				"energy": -0.23421,
				"method": "rhf"
			},
			{
				"type": "unocc",
				"energy": -0.0465,
				"method": "rhf"
			},
			{
				"type": "unocc",
				"energy": -0.03454,
				"method": "rhf"
			},
			{
				"type": "unocc",
				"energy": -0.00831,
				"method": "rhf"
			},
			{
				"type": "unocc",
				"energy": -0.00374,
				"method": "rhf"
			},
			{
				"type": "unocc",
				"energy": 0.00113,
				"method": "rhf"
			}
		],
		"cosmo_sigma_profile": { 
			"-0.025": 0.0,
			"-0.024": 0.0,
			"-0.023": 0.0,
			"-0.022": 0.0,
			"-0.021": 0.0,
			"-0.02": 0.0,
			"-0.019": 0.0,
			"-0.018": 0.0,
			"-0.017": 0.0,
			"-0.016": 0.0,
			"-0.015": 0.0,
			"-0.014": 0.0,
			"-0.013": 0.0,
			"-0.012": 0.0,
			"-0.011": 0.0,
			"-0.01": 0.0,
			"-0.009": 0.0,
			"-0.008": 0.0,
			"-0.007": 2.12829185486,
			"-0.006": 17.7095129074,
			"-0.005": 45.7917593787,
			"-0.004": 45.7217546629,
			"-0.003": 36.9408953926,
			"-0.002": 32.841242663,
			"-0.001": 29.5506084441,
			"0.0": 30.0720826101,
			"0.001": 33.8307833456,
			"0.002": 34.4225201942,
			"0.003": 37.9050738746,
			"0.004": 40.0052747005,
			"0.005": 18.0501351194,
			"0.006": 12.7388599741,
			"0.007": 4.05789822093,
			"0.008": 3.60720236612,
			"0.009": 2.87616880137,
			"0.01": 2.86655185064,
			"0.011": 2.68035032508,
			"0.012": 4.10313581964,
			"0.013": 0.227272627017,
			"0.014": 0.0,
			"0.015": 0.0,
			"0.016": 0.0,
			"0.017": 0.0,
			"0.018": 0.0,
			"0.019": 0.0,
			"0.02": 0.0,
			"0.021": 0.0,
			"0.022": 0.0,
			"0.023": 0.0,
			"0.024": 0.0,
			"0.025": 0.0
		}
	}
}
