{
	 "smiles": "N1C=NN=N1", 
	 "Tm": 430.15, 
	 "num_atms": 7, 
	 "gaussian": { 
		 "optdone": 1, 
		 "sigma_profile": "yes", 
		 "theory": "DFT", 
		 "functional": "B3LYP", 
		 "basiset": "6-31G**", 
		 "properties": { 
			 "R2extent": 378.1925, 
			 "electric_dipole_moment_norm": 5.32049923315, 
			 "electric_quadrupole_moment_norm": 6.11483532158, 
			 "total_energy": -258.24924594, 
			 "HOMO_LUMO_gap": 0.26839, 
			 "cosmo_polarized_energy": -17.39, 
			 "cosmo_cavitation_energy": 11.52, 
			 "cosmo_dispersion_energy": -8.89, 
			 "cosmo_repulsion_energy": 0.8, 
			 "cosmo_total_nonelectrostatic_energy": 3.43, 
			 "SMD_solvation_energy": 1.1 
		},
		"coords": [
			{
				"x": -1.3941257802,
				"y": -0.4321334435,
				"z": 0.5136877059,
				"element": "N" 
			},
			{
				"x": -0.7624234724,
				"y": -0.2614795337,
				"z": -0.6650224868,
				"element": "C" 
			},
			{
				"x": -0.245364509,
				"y": 0.948276759,
				"z": -0.6872365783,
				"element": "N" 
			},
			{
				"x": -0.5767642394,
				"y": 1.5146515891,
				"z": 0.5095113432,
				"element": "N" 
			},
			{
				"x": -1.264467891,
				"y": 0.7013567309,
				"z": 1.2406472023,
				"element": "N" 
			},
			{
				"x": -1.9014016455,
				"y": -1.2228240866,
				"z": 0.8842236894,
				"element": "H" 
			},
			{
				"x": -0.7023524624,
				"y": -1.0039480152,
				"z": -1.4459108758,
				"element": "H" 
			}
		],
		 "valence_orbital": [ 
			{
				"type": "occ",
				"energy": -0.381,
				"method": "rhf"
			},
			{
				"type": "occ",
				"energy": -0.33358,
				"method": "rhf"
			},
			{
				"type": "occ",
				"energy": -0.3119,
				"method": "rhf"
			},
			{
				"type": "occ",
				"energy": -0.30542,
				"method": "rhf"
			},
			{
				"type": "occ",
				"energy": -0.29184,
				"method": "rhf"
			},
			{
				"type": "unocc",
				"energy": -0.02345,
				"method": "rhf"
			},
			{
				"type": "unocc",
				"energy": 0.01455,
				"method": "rhf"
			},
			{
				"type": "unocc",
				"energy": 0.05397,
				"method": "rhf"
			},
			{
				"type": "unocc",
				"energy": 0.10541,
				"method": "rhf"
			},
			{
				"type": "unocc",
				"energy": 0.17944,
				"method": "rhf"
			}
		],
		"cosmo_sigma_profile": { 
			"-0.025": 0.0,
			"-0.024": 0.0,
			"-0.023": 0.0,
			"-0.022": 0.0,
			"-0.021": 0.0,
			"-0.02": 0.401618032556,
			"-0.019": 2.18848474287,
			"-0.018": 1.77440370205,
			"-0.017": 1.27179532176,
			"-0.016": 1.18352846943,
			"-0.015": 1.01966560939,
			"-0.014": 1.23315113706,
			"-0.013": 1.54553906791,
			"-0.012": 3.78725162856,
			"-0.011": 2.81357081739,
			"-0.01": 2.68667647769,
			"-0.009": 1.33057838973,
			"-0.008": 2.26961739849,
			"-0.007": 1.70341488376,
			"-0.006": 1.58765171386,
			"-0.005": 2.55552541261,
			"-0.004": 3.67462467879,
			"-0.003": 4.96866659703,
			"-0.002": 3.57331494079,
			"-0.001": 2.16490373981,
			"0.0": 2.22123612958,
			"0.001": 2.5363356784,
			"0.002": 2.34852214414,
			"0.003": 1.61603409399,
			"0.004": 3.14082658652,
			"0.005": 2.95700228014,
			"0.006": 2.68699022806,
			"0.007": 3.26663726717,
			"0.008": 5.76931092835,
			"0.009": 4.76580583113,
			"0.01": 5.11408752686,
			"0.011": 4.24969826405,
			"0.012": 3.68446881361,
			"0.013": 2.34279298611,
			"0.014": 2.07855448235,
			"0.015": 0.672545628361,
			"0.016": 0.00585732066065,
			"0.017": 0.0,
			"0.018": 0.0,
			"0.019": 0.0,
			"0.02": 0.0,
			"0.021": 0.0,
			"0.022": 0.0,
			"0.023": 0.0,
			"0.024": 0.0,
			"0.025": 0.0
		}
	}
}
