{
	 "smiles": "CN1C(Cl)=NN=C1C1=C(Cl)C=C(Cl)C=C1", 
	 "Tm": 435.15, 
	 "num_atms": 21, 
	 "gaussian": { 
		 "optdone": 1, 
		 "sigma_profile": "yes", 
		 "theory": "DFT", 
		 "functional": "B3LYP", 
		 "basiset": "6-31G**", 
		 "properties": { 
			 "R2extent": 5775.8791, 
			 "electric_dipole_moment_norm": 4.9039011603, 
			 "electric_quadrupole_moment_norm": 20.0153014604, 
			 "total_energy": -1891.37542937, 
			 "HOMO_LUMO_gap": 0.19748, 
			 "cosmo_polarized_energy": -14.12, 
			 "cosmo_cavitation_energy": 31.15, 
			 "cosmo_dispersion_energy": -22.66, 
			 "cosmo_repulsion_energy": 1.77, 
			 "cosmo_total_nonelectrostatic_energy": 10.25, 
			 "SMD_solvation_energy": 2.5 
		},
		"coords": [
			{
				"x": 0.1214356174,
				"y": 2.4029016126,
				"z": -0.2014722157,
				"element": "C" 
			},
			{
				"x": -0.0951852598,
				"y": 1.7126340264,
				"z": 1.0638967615,
				"element": "N" 
			},
			{
				"x": 0.2033607574,
				"y": 2.1692552522,
				"z": 2.3202130499,
				"element": "C" 
			},
			{
				"x": 0.8090687531,
				"y": 3.7566625639,
				"z": 2.5967867382,
				"element": "Cl" 
			},
			{
				"x": -0.0200162918,
				"y": 1.2713530443,
				"z": 3.241753278,
				"element": "N" 
			},
			{
				"x": -0.4913868506,
				"y": 0.1555165327,
				"z": 2.586341544,
				"element": "N" 
			},
			{
				"x": -0.5423777654,
				"y": 0.4281310812,
				"z": 1.2972011587,
				"element": "C" 
			},
			{
				"x": -0.9408886763,
				"y": -0.5518072393,
				"z": 0.2711414348,
				"element": "C" 
			},
			{
				"x": -1.9847973144,
				"y": -0.3600447091,
				"z": -0.6503692839,
				"element": "C" 
			},
			{
				"x": -2.9472315682,
				"y": 1.1090134548,
				"z": -0.6284042338,
				"element": "Cl" 
			},
			{
				"x": -2.3305568934,
				"y": -1.3399434905,
				"z": -1.5802663501,
				"element": "C" 
			},
			{
				"x": -1.6330732184,
				"y": -2.5461657015,
				"z": -1.5766427573,
				"element": "C" 
			},
			{
				"x": -2.0615830484,
				"y": -3.7793520811,
				"z": -2.7440320785,
				"element": "Cl" 
			},
			{
				"x": -0.6127006848,
				"y": -2.7886187776,
				"z": -0.6571556699,
				"element": "C" 
			},
			{
				"x": -0.2795130931,
				"y": -1.7916072726,
				"z": 0.2532590298,
				"element": "C" 
			},
			{
				"x": 1.0921338642,
				"y": 2.9015437626,
				"z": -0.1808085952,
				"element": "H" 
			},
			{
				"x": 0.112666911,
				"y": 1.667786295,
				"z": -1.0058636729,
				"element": "H" 
			},
			{
				"x": -0.6634030953,
				"y": 3.1405182194,
				"z": -0.3825372023,
				"element": "H" 
			},
			{
				"x": -3.1401744098,
				"y": -1.1697611997,
				"z": -2.2788929588,
				"element": "H" 
			},
			{
				"x": -0.0893793729,
				"y": -3.7376020485,
				"z": -0.6578183455,
				"element": "H" 
			},
			{
				"x": 0.5070016393,
				"y": -1.9612133253,
				"z": 0.9804703688,
				"element": "H" 
			}
		],
		 "valence_orbital": [ 
			{
				"type": "occ",
				"energy": -0.30423,
				"method": "rhf"
			},
			{
				"type": "occ",
				"energy": -0.28336,
				"method": "rhf"
			},
			{
				"type": "occ",
				"energy": -0.27712,
				"method": "rhf"
			},
			{
				"type": "occ",
				"energy": -0.26589,
				"method": "rhf"
			},
			{
				"type": "occ",
				"energy": -0.25091,
				"method": "rhf"
			},
			{
				"type": "unocc",
				"energy": -0.05343,
				"method": "rhf"
			},
			{
				"type": "unocc",
				"energy": -0.04076,
				"method": "rhf"
			},
			{
				"type": "unocc",
				"energy": -0.00823,
				"method": "rhf"
			},
			{
				"type": "unocc",
				"energy": 0.00702,
				"method": "rhf"
			},
			{
				"type": "unocc",
				"energy": 0.02193,
				"method": "rhf"
			}
		],
		"cosmo_sigma_profile": { 
			"-0.025": 0.0,
			"-0.024": 0.0,
			"-0.023": 0.0,
			"-0.022": 0.0,
			"-0.021": 0.0,
			"-0.02": 0.0,
			"-0.019": 0.0,
			"-0.018": 0.0,
			"-0.017": 0.0,
			"-0.016": 0.0,
			"-0.015": 0.0,
			"-0.014": 0.0,
			"-0.013": 0.0,
			"-0.012": 0.0,
			"-0.011": 0.0,
			"-0.01": 0.00182845765987,
			"-0.009": 1.16286753908,
			"-0.008": 6.29744214996,
			"-0.007": 11.5494713842,
			"-0.006": 13.7753410077,
			"-0.005": 15.3501257962,
			"-0.004": 17.8165797821,
			"-0.003": 14.5114057548,
			"-0.002": 16.9296582182,
			"-0.001": 21.4157067771,
			"0.0": 30.2995773898,
			"0.001": 25.8911475072,
			"0.002": 21.4028095056,
			"0.003": 20.4060367411,
			"0.004": 13.3795139719,
			"0.005": 2.43213274886,
			"0.006": 2.21008403686,
			"0.007": 1.81656492106,
			"0.008": 2.43308224464,
			"0.009": 1.74784977116,
			"0.01": 2.15516401684,
			"0.011": 2.66481401105,
			"0.012": 3.88385459469,
			"0.013": 2.87791289204,
			"0.014": 2.41414086457,
			"0.015": 2.20099067596,
			"0.016": 0.61707532272,
			"0.017": 0.0,
			"0.018": 0.0,
			"0.019": 0.0,
			"0.02": 0.0,
			"0.021": 0.0,
			"0.022": 0.0,
			"0.023": 0.0,
			"0.024": 0.0,
			"0.025": 0.0
		}
	}
}
