{
	 "smiles": "COCCC1=CC=C(OCCCC(O)=O)C=C1", 
	 "Tm": 321.15, 
	 "num_atms": 35, 
	 "gaussian": { 
		 "optdone": 1, 
		 "sigma_profile": "yes", 
		 "theory": "DFT", 
		 "functional": "B3LYP", 
		 "basiset": "6-31G**", 
		 "properties": { 
			 "R2extent": 9420.4483, 
			 "electric_dipole_moment_norm": 3.98708332745, 
			 "electric_quadrupole_moment_norm": 29.7492681786, 
			 "total_energy": -807.121518997, 
			 "HOMO_LUMO_gap": 0.21383, 
			 "cosmo_polarized_energy": -19.22, 
			 "cosmo_cavitation_energy": 39.23, 
			 "cosmo_dispersion_energy": -27.83, 
			 "cosmo_repulsion_energy": 2.22, 
			 "cosmo_total_nonelectrostatic_energy": 13.62, 
			 "SMD_solvation_energy": 8.1 
		},
		"coords": [
			{
				"x": -2.1032446054,
				"y": -6.00833823,
				"z": 2.8961749015,
				"element": "C" 
			},
			{
				"x": -2.5388619722,
				"y": -5.3996542933,
				"z": 1.7007202531,
				"element": "O" 
			},
			{
				"x": -1.779249679,
				"y": -4.2568810629,
				"z": 1.3575599065,
				"element": "C" 
			},
			{
				"x": -2.3355475805,
				"y": -3.680861232,
				"z": 0.0528800413,
				"element": "C" 
			},
			{
				"x": -1.5868407688,
				"y": -2.4452804495,
				"z": -0.3952623679,
				"element": "C" 
			},
			{
				"x": -1.9501843104,
				"y": -1.1695274078,
				"z": 0.0666580133,
				"element": "C" 
			},
			{
				"x": -1.2459636659,
				"y": -0.0334032972,
				"z": -0.3122473988,
				"element": "C" 
			},
			{
				"x": -0.1450195371,
				"y": -0.1431675399,
				"z": -1.1736508843,
				"element": "C" 
			},
			{
				"x": 0.4821152868,
				"y": 1.0304611488,
				"z": -1.4919897575,
				"element": "O" 
			},
			{
				"x": 1.6081195541,
				"y": 0.9924439225,
				"z": -2.3661038644,
				"element": "C" 
			},
			{
				"x": 2.1108724546,
				"y": 2.4177043893,
				"z": -2.5438900421,
				"element": "C" 
			},
			{
				"x": 2.5496003798,
				"y": 3.0612182063,
				"z": -1.227615401,
				"element": "C" 
			},
			{
				"x": 3.0922951589,
				"y": 4.4710286332,
				"z": -1.4164851404,
				"element": "C" 
			},
			{
				"x": 3.4196291836,
				"y": 5.125905457,
				"z": -0.2683437273,
				"element": "O" 
			},
			{
				"x": 3.249963175,
				"y": 5.0093667391,
				"z": -2.4832374723,
				"element": "O" 
			},
			{
				"x": 0.2342532126,
				"y": -1.4030717075,
				"z": -1.6487399626,
				"element": "C" 
			},
			{
				"x": -0.4882311865,
				"y": -2.5334451854,
				"z": -1.2545329107,
				"element": "C" 
			},
			{
				"x": -2.7457324011,
				"y": -6.8741757743,
				"z": 3.0750266041,
				"element": "H" 
			},
			{
				"x": -1.0581633406,
				"y": -6.3508685199,
				"z": 2.8259638424,
				"element": "H" 
			},
			{
				"x": -2.1811268695,
				"y": -5.3251884312,
				"z": 3.7573864944,
				"element": "H" 
			},
			{
				"x": -0.714451762,
				"y": -4.5193992044,
				"z": 1.2319505333,
				"element": "H" 
			},
			{
				"x": -1.830552548,
				"y": -3.4996144748,
				"z": 2.1591153214,
				"element": "H" 
			},
			{
				"x": -2.2845784436,
				"y": -4.4607873407,
				"z": -0.7147716781,
				"element": "H" 
			},
			{
				"x": -3.3966500523,
				"y": -3.4536570998,
				"z": 0.2050992609,
				"element": "H" 
			},
			{
				"x": -2.8058156274,
				"y": -1.065202565,
				"z": 0.7297706001,
				"element": "H" 
			},
			{
				"x": -1.5337607284,
				"y": 0.9521992884,
				"z": 0.0395634463,
				"element": "H" 
			},
			{
				"x": 2.3934892124,
				"y": 0.3507716172,
				"z": -1.9382586844,
				"element": "H" 
			},
			{
				"x": 1.3188467306,
				"y": 0.567274646,
				"z": -3.3370426963,
				"element": "H" 
			},
			{
				"x": 1.3255408938,
				"y": 3.026608279,
				"z": -3.0021907256,
				"element": "H" 
			},
			{
				"x": 2.9492929352,
				"y": 2.4116587999,
				"z": -3.2477629836,
				"element": "H" 
			},
			{
				"x": 1.7082596859,
				"y": 3.0875301985,
				"z": -0.524280038,
				"element": "H" 
			},
			{
				"x": 3.3325527941,
				"y": 2.4580335316,
				"z": -0.7444814164,
				"element": "H" 
			},
			{
				"x": 3.224367275,
				"y": 4.5706842842,
				"z": 0.4999618343,
				"element": "H" 
			},
			{
				"x": 1.074812361,
				"y": -1.5177618225,
				"z": -2.3228252968,
				"element": "H" 
			},
			{
				"x": -0.1861352144,
				"y": -3.5061035028,
				"z": -1.6359186042,
				"element": "H" 
			}
		],
		 "valence_orbital": [ 
			{
				"type": "occ",
				"energy": -0.31108,
				"method": "rhf"
			},
			{
				"type": "occ",
				"energy": -0.27312,
				"method": "rhf"
			},
			{
				"type": "occ",
				"energy": -0.25617,
				"method": "rhf"
			},
			{
				"type": "occ",
				"energy": -0.25097,
				"method": "rhf"
			},
			{
				"type": "occ",
				"energy": -0.21869,
				"method": "rhf"
			},
			{
				"type": "unocc",
				"energy": -0.00486,
				"method": "rhf"
			},
			{
				"type": "unocc",
				"energy": 0.008,
				"method": "rhf"
			},
			{
				"type": "unocc",
				"energy": 0.01044,
				"method": "rhf"
			},
			{
				"type": "unocc",
				"energy": 0.05421,
				"method": "rhf"
			},
			{
				"type": "unocc",
				"energy": 0.08647,
				"method": "rhf"
			}
		],
		"cosmo_sigma_profile": { 
			"-0.025": 0.0,
			"-0.024": 0.0,
			"-0.023": 0.0,
			"-0.022": 0.0,
			"-0.021": 0.0,
			"-0.02": 0.0,
			"-0.019": 0.300255599692,
			"-0.018": 1.24338841716,
			"-0.017": 0.982912928503,
			"-0.016": 1.00134646509,
			"-0.015": 1.27434512151,
			"-0.014": 1.55560770236,
			"-0.013": 0.765603306057,
			"-0.012": 0.786961294934,
			"-0.011": 1.12256101095,
			"-0.01": 1.50305347535,
			"-0.009": 1.44194619402,
			"-0.008": 1.40785391669,
			"-0.007": 3.41940571874,
			"-0.006": 8.46047147725,
			"-0.005": 21.623903253,
			"-0.004": 31.8206555332,
			"-0.003": 37.5387935571,
			"-0.002": 32.0468423451,
			"-0.001": 24.0382444566,
			"0.0": 15.6994387782,
			"0.001": 13.9470151835,
			"0.002": 10.2560069294,
			"0.003": 13.0705120238,
			"0.004": 14.7980610948,
			"0.005": 14.6525439382,
			"0.006": 13.9902759117,
			"0.007": 4.71502174486,
			"0.008": 4.66293320605,
			"0.009": 5.41104250609,
			"0.01": 6.02599144794,
			"0.011": 6.37848651384,
			"0.012": 7.26922442258,
			"0.013": 3.87663180842,
			"0.014": 0.391727675215,
			"0.015": 0.0,
			"0.016": 0.0,
			"0.017": 0.0,
			"0.018": 0.0,
			"0.019": 0.0,
			"0.02": 0.0,
			"0.021": 0.0,
			"0.022": 0.0,
			"0.023": 0.0,
			"0.024": 0.0,
			"0.025": 0.0
		}
	}
}
