{
	 "smiles": "CN(C)CCCOC1=C(CO)C=CC=C1", 
	 "Tm": 329.15, 
	 "num_atms": 34, 
	 "gaussian": { 
		 "optdone": 1, 
		 "sigma_profile": "yes", 
		 "theory": "DFT", 
		 "functional": "B3LYP", 
		 "basiset": "6-31G**", 
		 "properties": { 
			 "R2extent": 4831.0978, 
			 "electric_dipole_moment_norm": 1.11323103622, 
			 "electric_quadrupole_moment_norm": 11.2064197619, 
			 "total_energy": -673.891587984, 
			 "HOMO_LUMO_gap": 0.19355, 
			 "cosmo_polarized_energy": -10.74, 
			 "cosmo_cavitation_energy": 35.56, 
			 "cosmo_dispersion_energy": -24.4, 
			 "cosmo_repulsion_energy": 1.92, 
			 "cosmo_total_nonelectrostatic_energy": 13.08, 
			 "SMD_solvation_energy": 3.85 
		},
		"coords": [
			{
				"x": -0.9433531321,
				"y": 2.5968629178,
				"z": 0.8255912671,
				"element": "C" 
			},
			{
				"x": -2.1788917411,
				"y": 2.4636423577,
				"z": 0.0704474929,
				"element": "N" 
			},
			{
				"x": -3.3467415876,
				"y": 2.3716828949,
				"z": 0.9276044861,
				"element": "C" 
			},
			{
				"x": -2.1605051801,
				"y": 1.5002061454,
				"z": -1.0287021539,
				"element": "C" 
			},
			{
				"x": -2.0644153078,
				"y": -0.0118571529,
				"z": -0.7010842201,
				"element": "C" 
			},
			{
				"x": -0.6503454372,
				"y": -0.5197820435,
				"z": -0.4532656877,
				"element": "C" 
			},
			{
				"x": -0.7327425592,
				"y": -1.9412784791,
				"z": -0.2250878072,
				"element": "O" 
			},
			{
				"x": 0.4565025291,
				"y": -2.5405263607,
				"z": 0.1309027549,
				"element": "C" 
			},
			{
				"x": 0.8088344461,
				"y": -2.6582410345,
				"z": 1.4877536399,
				"element": "C" 
			},
			{
				"x": -0.0791220702,
				"y": -2.0919026523,
				"z": 2.5642803596,
				"element": "C" 
			},
			{
				"x": 0.2150580202,
				"y": -0.6964398416,
				"z": 2.7336359698,
				"element": "O" 
			},
			{
				"x": 2.0015822113,
				"y": -3.3157621326,
				"z": 1.808884039,
				"element": "C" 
			},
			{
				"x": 2.8271045115,
				"y": -3.8476431245,
				"z": 0.8178812725,
				"element": "C" 
			},
			{
				"x": 2.4588404017,
				"y": -3.7299010943,
				"z": -0.5234465181,
				"element": "C" 
			},
			{
				"x": 1.2744055699,
				"y": -3.077519301,
				"z": -0.8660859415,
				"element": "C" 
			},
			{
				"x": -0.7346635623,
				"y": 1.7611423259,
				"z": 1.5180275753,
				"element": "H" 
			},
			{
				"x": -0.9813565015,
				"y": 3.5160669476,
				"z": 1.4227240232,
				"element": "H" 
			},
			{
				"x": -0.0956259127,
				"y": 2.681894094,
				"z": 0.1378095631,
				"element": "H" 
			},
			{
				"x": -4.2563556329,
				"y": 2.3574724549,
				"z": 0.3175050873,
				"element": "H" 
			},
			{
				"x": -3.3919375731,
				"y": 3.2528711326,
				"z": 1.5779057497,
				"element": "H" 
			},
			{
				"x": -3.3663995937,
				"y": 1.4793742843,
				"z": 1.5832070427,
				"element": "H" 
			},
			{
				"x": -1.3357924,
				"y": 1.7776327758,
				"z": -1.6995026649,
				"element": "H" 
			},
			{
				"x": -3.0839896047,
				"y": 1.6608846118,
				"z": -1.5985850598,
				"element": "H" 
			},
			{
				"x": -2.6894605737,
				"y": -0.2543466942,
				"z": 0.1663286976,
				"element": "H" 
			},
			{
				"x": -2.4792107357,
				"y": -0.5792963174,
				"z": -1.5435223746,
				"element": "H" 
			},
			{
				"x": -0.0149937412,
				"y": -0.3284702949,
				"z": -1.331867645,
				"element": "H" 
			},
			{
				"x": -0.1853873801,
				"y": -0.0488359717,
				"z": 0.4169380083,
				"element": "H" 
			},
			{
				"x": -1.1294099168,
				"y": -2.2337205958,
				"z": 2.2787477966,
				"element": "H" 
			},
			{
				"x": 0.0999645376,
				"y": -2.636510985,
				"z": 3.5029517139,
				"element": "H" 
			},
			{
				"x": -0.4207947905,
				"y": -0.3419772418,
				"z": 3.3691011201,
				"element": "H" 
			},
			{
				"x": 2.2810407592,
				"y": -3.4126703752,
				"z": 2.8551555232,
				"element": "H" 
			},
			{
				"x": 3.7469524762,
				"y": -4.3560357059,
				"z": 1.0909737681,
				"element": "H" 
			},
			{
				"x": 3.0894609858,
				"y": -4.148616974,
				"z": -1.3027098774,
				"element": "H" 
			},
			{
				"x": 0.9606484858,
				"y": -2.98569857,
				"z": -1.9013970007,
				"element": "H" 
			}
		],
		 "valence_orbital": [ 
			{
				"type": "occ",
				"energy": -0.27336,
				"method": "rhf"
			},
			{
				"type": "occ",
				"energy": -0.25884,
				"method": "rhf"
			},
			{
				"type": "occ",
				"energy": -0.24706,
				"method": "rhf"
			},
			{
				"type": "occ",
				"energy": -0.23387,
				"method": "rhf"
			},
			{
				"type": "occ",
				"energy": -0.19975,
				"method": "rhf"
			},
			{
				"type": "unocc",
				"energy": -0.0062,
				"method": "rhf"
			},
			{
				"type": "unocc",
				"energy": 0.00557,
				"method": "rhf"
			},
			{
				"type": "unocc",
				"energy": 0.06463,
				"method": "rhf"
			},
			{
				"type": "unocc",
				"energy": 0.08547,
				"method": "rhf"
			},
			{
				"type": "unocc",
				"energy": 0.09939,
				"method": "rhf"
			}
		],
		"cosmo_sigma_profile": { 
			"-0.025": 0.0,
			"-0.024": 0.0,
			"-0.023": 0.0,
			"-0.022": 0.0,
			"-0.021": 0.0,
			"-0.02": 0.0,
			"-0.019": 0.0,
			"-0.018": 0.0,
			"-0.017": 0.0,
			"-0.016": 0.0742600866723,
			"-0.015": 0.931993073799,
			"-0.014": 1.19499475794,
			"-0.013": 0.6201015355,
			"-0.012": 0.737431698622,
			"-0.011": 1.23929972232,
			"-0.01": 0.950942123424,
			"-0.009": 0.337848030935,
			"-0.008": 0.830399270406,
			"-0.007": 1.15746940578,
			"-0.006": 5.53979978374,
			"-0.005": 9.82547454079,
			"-0.004": 20.9451472759,
			"-0.003": 38.3197274541,
			"-0.002": 33.6684598484,
			"-0.001": 31.8858168467,
			"0.0": 31.2105914413,
			"0.001": 16.6024815582,
			"0.002": 13.0157127343,
			"0.003": 12.5493273783,
			"0.004": 12.6221763752,
			"0.005": 13.077587105,
			"0.006": 8.15387245979,
			"0.007": 3.457922653,
			"0.008": 3.43039660832,
			"0.009": 3.34204364205,
			"0.01": 2.08897477221,
			"0.011": 2.40447702253,
			"0.012": 2.83698579695,
			"0.013": 1.99647532634,
			"0.014": 1.35908108035,
			"0.015": 0.768743832326,
			"0.016": 0.309292033318,
			"0.017": 0.0534139544533,
			"0.018": 0.0,
			"0.019": 0.0,
			"0.02": 0.0,
			"0.021": 0.0,
			"0.022": 0.0,
			"0.023": 0.0,
			"0.024": 0.0,
			"0.025": 0.0
		}
	}
}
