{
	 "smiles": "CC1CCCN(C1)S(=O)(=O)C1=CC=C(CN)C=C1", 
	 "Tm": 366.15, 
	 "num_atms": 38, 
	 "gaussian": { 
		 "optdone": 1, 
		 "sigma_profile": "yes", 
		 "theory": "DFT", 
		 "functional": "B3LYP", 
		 "basiset": "6-31G**", 
		 "properties": { 
			 "R2extent": 6099.1213, 
			 "electric_dipole_moment_norm": 5.05259297193, 
			 "electric_quadrupole_moment_norm": 18.0039198487, 
			 "total_energy": -1165.51941536, 
			 "HOMO_LUMO_gap": 0.20315, 
			 "cosmo_polarized_energy": -17.58, 
			 "cosmo_cavitation_energy": 39.98, 
			 "cosmo_dispersion_energy": -28.3, 
			 "cosmo_repulsion_energy": 2.18, 
			 "cosmo_total_nonelectrostatic_energy": 13.87, 
			 "SMD_solvation_energy": 2.78 
		},
		"coords": [
			{
				"x": -2.1185347601,
				"y": -2.046552848,
				"z": 3.4231823465,
				"element": "C" 
			},
			{
				"x": -2.6684730594,
				"y": -1.3608906801,
				"z": 2.1680674088,
				"element": "C" 
			},
			{
				"x": -3.1714832926,
				"y": 0.0630951442,
				"z": 2.4569403867,
				"element": "C" 
			},
			{
				"x": -3.6513664224,
				"y": 0.7549557175,
				"z": 1.1746806794,
				"element": "C" 
			},
			{
				"x": -2.5662705485,
				"y": 0.7378843391,
				"z": 0.0934966061,
				"element": "C" 
			},
			{
				"x": -2.1313068131,
				"y": -0.6504246632,
				"z": -0.1356652381,
				"element": "N" 
			},
			{
				"x": -1.6030899077,
				"y": -1.3286612019,
				"z": 1.0596589231,
				"element": "C" 
			},
			{
				"x": -1.353162849,
				"y": -0.9724138082,
				"z": -1.5997870778,
				"element": "S" 
			},
			{
				"x": -1.1272336659,
				"y": -2.4193942594,
				"z": -1.6343736794,
				"element": "O" 
			},
			{
				"x": -2.1250471603,
				"y": -0.2797415101,
				"z": -2.6343831006,
				"element": "O" 
			},
			{
				"x": 0.2598547381,
				"y": -0.181484976,
				"z": -1.5177863452,
				"element": "C" 
			},
			{
				"x": 1.350380162,
				"y": -0.888401541,
				"z": -1.0033175089,
				"element": "C" 
			},
			{
				"x": 2.5896981115,
				"y": -0.2567720863,
				"z": -0.9148694537,
				"element": "C" 
			},
			{
				"x": 2.7581571521,
				"y": 1.0718999055,
				"z": -1.3312927075,
				"element": "C" 
			},
			{
				"x": 4.0981599557,
				"y": 1.7710705663,
				"z": -1.1739686677,
				"element": "C" 
			},
			{
				"x": 4.2963593353,
				"y": 2.4645253355,
				"z": 0.1083089894,
				"element": "N" 
			},
			{
				"x": 1.6513231581,
				"y": 1.7539801864,
				"z": -1.857409924,
				"element": "C" 
			},
			{
				"x": 0.4043664955,
				"y": 1.1387110185,
				"z": -1.9535322544,
				"element": "C" 
			},
			{
				"x": -1.2616801866,
				"y": -1.4974673412,
				"z": 3.831805574,
				"element": "H" 
			},
			{
				"x": -1.7901782615,
				"y": -3.0695211287,
				"z": 3.2099432435,
				"element": "H" 
			},
			{
				"x": -2.8825473123,
				"y": -2.0974102114,
				"z": 4.2057579466,
				"element": "H" 
			},
			{
				"x": -3.5122501073,
				"y": -1.9498425259,
				"z": 1.783379853,
				"element": "H" 
			},
			{
				"x": -2.3538466745,
				"y": 0.6474392244,
				"z": 2.9052492332,
				"element": "H" 
			},
			{
				"x": -3.9776223294,
				"y": 0.0334720628,
				"z": 3.1995328621,
				"element": "H" 
			},
			{
				"x": -4.5407260533,
				"y": 0.2446012995,
				"z": 0.7866991735,
				"element": "H" 
			},
			{
				"x": -3.9335775114,
				"y": 1.7946722847,
				"z": 1.3768620511,
				"element": "H" 
			},
			{
				"x": -2.9533660592,
				"y": 1.1300801176,
				"z": -0.8478055862,
				"element": "H" 
			},
			{
				"x": -1.7144371045,
				"y": 1.3655751663,
				"z": 0.4090415193,
				"element": "H" 
			},
			{
				"x": -0.7004964009,
				"y": -0.8133629142,
				"z": 1.4351334278,
				"element": "H" 
			},
			{
				"x": -1.3241323887,
				"y": -2.3444862053,
				"z": 0.7746902507,
				"element": "H" 
			},
			{
				"x": 1.2294061077,
				"y": -1.926119932,
				"z": -0.7122809825,
				"element": "H" 
			},
			{
				"x": 3.4440542037,
				"y": -0.8095649602,
				"z": -0.530966056,
				"element": "H" 
			},
			{
				"x": 4.2241577078,
				"y": 2.5088980047,
				"z": -1.9740658018,
				"element": "H" 
			},
			{
				"x": 4.9086369392,
				"y": 1.0425082532,
				"z": -1.2868597061,
				"element": "H" 
			},
			{
				"x": 4.1919377514,
				"y": 1.8007456099,
				"z": 0.8732010854,
				"element": "H" 
			},
			{
				"x": 3.5598302134,
				"y": 3.1553084921,
				"z": 0.2383663925,
				"element": "H" 
			},
			{
				"x": 1.770979574,
				"y": 2.7753756503,
				"z": -2.2114122119,
				"element": "H" 
			},
			{
				"x": -0.4423727367,
				"y": 1.6559144145,
				"z": -2.391421651,
				"element": "H" 
			}
		],
		 "valence_orbital": [ 
			{
				"type": "occ",
				"energy": -0.29565,
				"method": "rhf"
			},
			{
				"type": "occ",
				"energy": -0.27797,
				"method": "rhf"
			},
			{
				"type": "occ",
				"energy": -0.27146,
				"method": "rhf"
			},
			{
				"type": "occ",
				"energy": -0.25257,
				"method": "rhf"
			},
			{
				"type": "occ",
				"energy": -0.24173,
				"method": "rhf"
			},
			{
				"type": "unocc",
				"energy": -0.03858,
				"method": "rhf"
			},
			{
				"type": "unocc",
				"energy": -0.02391,
				"method": "rhf"
			},
			{
				"type": "unocc",
				"energy": 0.05878,
				"method": "rhf"
			},
			{
				"type": "unocc",
				"energy": 0.07681,
				"method": "rhf"
			},
			{
				"type": "unocc",
				"energy": 0.08456,
				"method": "rhf"
			}
		],
		"cosmo_sigma_profile": { 
			"-0.025": 0.0,
			"-0.024": 0.0,
			"-0.023": 0.0,
			"-0.022": 0.0,
			"-0.021": 0.0,
			"-0.02": 0.0,
			"-0.019": 0.0,
			"-0.018": 0.0,
			"-0.017": 0.0,
			"-0.016": 0.0,
			"-0.015": 0.0,
			"-0.014": 0.0,
			"-0.013": 0.0,
			"-0.012": 0.0,
			"-0.011": 0.0,
			"-0.01": 0.509569980647,
			"-0.009": 2.90538987084,
			"-0.008": 2.76845069687,
			"-0.007": 6.29245136658,
			"-0.006": 14.2356076443,
			"-0.005": 14.8405217771,
			"-0.004": 23.1005053498,
			"-0.003": 42.8376924195,
			"-0.002": 41.7038614062,
			"-0.001": 33.8228939127,
			"0.0": 24.7649494219,
			"0.001": 18.8015458821,
			"0.002": 13.5097400909,
			"0.003": 14.6105843508,
			"0.004": 7.09726989421,
			"0.005": 4.37969567409,
			"0.006": 4.7196351041,
			"0.007": 5.6701292701,
			"0.008": 5.27045911087,
			"0.009": 4.42317182406,
			"0.01": 6.22753666901,
			"0.011": 8.84110254718,
			"0.012": 5.5922724347,
			"0.013": 1.41060677127,
			"0.014": 0.518239200827,
			"0.015": 0.591558229893,
			"0.016": 0.453883196066,
			"0.017": 0.715609480148,
			"0.018": 0.74955354448,
			"0.019": 0.564377156573,
			"0.02": 0.108378281386,
			"0.021": 0.0,
			"0.022": 0.0,
			"0.023": 0.0,
			"0.024": 0.0,
			"0.025": 0.0
		}
	}
}
