{
	 "smiles": "COC1=CC=C(OC2=NC=C(N)C=C2)C=C1", 
	 "Tm": 369.15, 
	 "num_atms": 28, 
	 "gaussian": { 
		 "optdone": 1, 
		 "sigma_profile": "yes", 
		 "theory": "DFT", 
		 "functional": "B3LYP", 
		 "basiset": "6-31G**", 
		 "properties": { 
			 "R2extent": 6219.5127, 
			 "electric_dipole_moment_norm": 3.45902142954, 
			 "electric_quadrupole_moment_norm": 28.6037528137, 
			 "total_energy": -724.433959747, 
			 "HOMO_LUMO_gap": 0.17597, 
			 "cosmo_polarized_energy": -16.62, 
			 "cosmo_cavitation_energy": 32.63, 
			 "cosmo_dispersion_energy": -23.86, 
			 "cosmo_repulsion_energy": 1.86, 
			 "cosmo_total_nonelectrostatic_energy": 10.63, 
			 "SMD_solvation_energy": 4.98 
		},
		"coords": [
			{
				"x": 2.2084470493,
				"y": 0.5734983459,
				"z": -4.8840793772,
				"element": "C" 
			},
			{
				"x": 1.1631644566,
				"y": 1.3624690465,
				"z": -4.341434965,
				"element": "O" 
			},
			{
				"x": 1.1065724216,
				"y": 1.510877909,
				"z": -2.9838522515,
				"element": "C" 
			},
			{
				"x": 2.0028278395,
				"y": 0.9307499715,
				"z": -2.0796518244,
				"element": "C" 
			},
			{
				"x": 1.8427411118,
				"y": 1.1482301969,
				"z": -0.7070328591,
				"element": "C" 
			},
			{
				"x": 0.8040426963,
				"y": 1.9453656763,
				"z": -0.2377762106,
				"element": "C" 
			},
			{
				"x": 0.7356156291,
				"y": 2.2105444599,
				"z": 1.1198783688,
				"element": "O" 
			},
			{
				"x": -0.380389918,
				"y": 1.8347526525,
				"z": 1.8354572729,
				"element": "C" 
			},
			{
				"x": -0.508826439,
				"y": 2.4676965751,
				"z": 2.993428317,
				"element": "N" 
			},
			{
				"x": -1.5365744937,
				"y": 2.1433196107,
				"z": 3.7808036163,
				"element": "C" 
			},
			{
				"x": -2.4999018744,
				"y": 1.1745819611,
				"z": 3.46043601,
				"element": "C" 
			},
			{
				"x": -3.5254396081,
				"y": 0.8395671475,
				"z": 4.3524814769,
				"element": "N" 
			},
			{
				"x": -2.3392231246,
				"y": 0.5166648856,
				"z": 2.2311890991,
				"element": "C" 
			},
			{
				"x": -1.2703892815,
				"y": 0.8416214688,
				"z": 1.4047627848,
				"element": "C" 
			},
			{
				"x": -0.0887108098,
				"y": 2.5360227798,
				"z": -1.1411716869,
				"element": "C" 
			},
			{
				"x": 0.0598656956,
				"y": 2.3143301181,
				"z": -2.5039168084,
				"element": "C" 
			},
			{
				"x": 2.1576607808,
				"y": -0.4657434625,
				"z": -4.5331443995,
				"element": "H" 
			},
			{
				"x": 2.0710850523,
				"y": 0.5923547257,
				"z": -5.9664227502,
				"element": "H" 
			},
			{
				"x": 3.1966675296,
				"y": 0.9846241785,
				"z": -4.6393556765,
				"element": "H" 
			},
			{
				"x": 2.8222172043,
				"y": 0.3110092543,
				"z": -2.4235968217,
				"element": "H" 
			},
			{
				"x": 2.531437904,
				"y": 0.7078067263,
				"z": 0.0064861332,
				"element": "H" 
			},
			{
				"x": -1.6056652944,
				"y": 2.68267366,
				"z": 4.7260547212,
				"element": "H" 
			},
			{
				"x": -3.7430043272,
				"y": 1.5614480547,
				"z": 5.027015244,
				"element": "H" 
			},
			{
				"x": -4.3663232674,
				"y": 0.4872020939,
				"z": 3.9146974613,
				"element": "H" 
			},
			{
				"x": -3.0434913922,
				"y": -0.2548484627,
				"z": 1.9293109576,
				"element": "H" 
			},
			{
				"x": -1.1287641848,
				"y": 0.3378187228,
				"z": 0.4562599905,
				"element": "H" 
			},
			{
				"x": -0.8871782848,
				"y": 3.170325065,
				"z": -0.7698146531,
				"element": "H" 
			},
			{
				"x": -0.618063071,
				"y": 2.7639366389,
				"z": -3.2220111696,
				"element": "H" 
			}
		],
		 "valence_orbital": [ 
			{
				"type": "occ",
				"energy": -0.2726,
				"method": "rhf"
			},
			{
				"type": "occ",
				"energy": -0.25432,
				"method": "rhf"
			},
			{
				"type": "occ",
				"energy": -0.25375,
				"method": "rhf"
			},
			{
				"type": "occ",
				"energy": -0.21554,
				"method": "rhf"
			},
			{
				"type": "occ",
				"energy": -0.19472,
				"method": "rhf"
			},
			{
				"type": "unocc",
				"energy": -0.01875,
				"method": "rhf"
			},
			{
				"type": "unocc",
				"energy": -0.00141,
				"method": "rhf"
			},
			{
				"type": "unocc",
				"energy": 0.01099,
				"method": "rhf"
			},
			{
				"type": "unocc",
				"energy": 0.02431,
				"method": "rhf"
			},
			{
				"type": "unocc",
				"energy": 0.07714,
				"method": "rhf"
			}
		],
		"cosmo_sigma_profile": { 
			"-0.025": 0.0,
			"-0.024": 0.0,
			"-0.023": 0.0,
			"-0.022": 0.0,
			"-0.021": 0.0,
			"-0.02": 0.0,
			"-0.019": 0.0,
			"-0.018": 0.0,
			"-0.017": 0.0,
			"-0.016": 0.0,
			"-0.015": 0.0,
			"-0.014": 0.0,
			"-0.013": 0.620933987795,
			"-0.012": 3.33503668123,
			"-0.011": 2.77773805531,
			"-0.01": 3.15841916379,
			"-0.009": 3.28518997093,
			"-0.008": 4.15827445128,
			"-0.007": 6.24226850647,
			"-0.006": 16.1742169378,
			"-0.005": 22.3580680671,
			"-0.004": 20.0698284313,
			"-0.003": 18.6695339919,
			"-0.002": 13.2454288393,
			"-0.001": 12.6405406401,
			"0.0": 13.2208482397,
			"0.001": 13.7111685196,
			"0.002": 17.3789802955,
			"0.003": 23.2592068619,
			"0.004": 20.9920592305,
			"0.005": 9.61046480659,
			"0.006": 4.99212383091,
			"0.007": 4.78447852007,
			"0.008": 4.29408725913,
			"0.009": 3.92618411204,
			"0.01": 4.04499986745,
			"0.011": 3.54474666256,
			"0.012": 2.49312889899,
			"0.013": 2.23968038795,
			"0.014": 1.91842768283,
			"0.015": 1.73276829011,
			"0.016": 0.933316325125,
			"0.017": 0.394036947671,
			"0.018": 0.0,
			"0.019": 0.0,
			"0.02": 0.0,
			"0.021": 0.0,
			"0.022": 0.0,
			"0.023": 0.0,
			"0.024": 0.0,
			"0.025": 0.0
		}
	}
}
