{
	 "smiles": "BrC1=CC(Br)=C(OC2=C(Br)C=C(Br)C(Br)=C2)C(Br)=C1", 
	 "Tm": 405.15, 
	 "num_atms": 23, 
	 "gaussian": { 
		 "optdone": 1, 
		 "sigma_profile": "yes", 
		 "theory": "DFT", 
		 "functional": "B3LYP", 
		 "basiset": "6-31G**", 
		 "properties": { 
			 "R2extent": 18170.705, 
			 "electric_dipole_moment_norm": 0.993104480908, 
			 "electric_quadrupole_moment_norm": 2.61182415947, 
			 "total_energy": -15963.2991829, 
			 "HOMO_LUMO_gap": 0.19404, 
			 "cosmo_polarized_energy": -6.04, 
			 "cosmo_cavitation_energy": 41.96, 
			 "cosmo_dispersion_energy": -30.78, 
			 "cosmo_repulsion_energy": 2.4, 
			 "cosmo_total_nonelectrostatic_energy": 13.58, 
			 "SMD_solvation_energy": 0.8 
		},
		"coords": [
			{
				"x": -3.3039850539,
				"y": -3.8322964566,
				"z": 1.8550486677,
				"element": "Br" 
			},
			{
				"x": -1.9218307163,
				"y": -2.7134803292,
				"z": 1.172445372,
				"element": "C" 
			},
			{
				"x": -1.7402980179,
				"y": -1.4444005729,
				"z": 1.7118296394,
				"element": "C" 
			},
			{
				"x": -0.7237338938,
				"y": -0.6304952095,
				"z": 1.2125328312,
				"element": "C" 
			},
			{
				"x": -0.4588861372,
				"y": 1.0610959063,
				"z": 2.0422351393,
				"element": "Br" 
			},
			{
				"x": 0.0949083085,
				"y": -1.0580402182,
				"z": 0.157115509,
				"element": "C" 
			},
			{
				"x": 1.162979698,
				"y": -0.3456507665,
				"z": -0.3262625227,
				"element": "O" 
			},
			{
				"x": 1.1001542706,
				"y": 0.9437476472,
				"z": -0.8079130428,
				"element": "C" 
			},
			{
				"x": 0.1508099154,
				"y": 1.4392974797,
				"z": -1.7109215117,
				"element": "C" 
			},
			{
				"x": -1.2822219205,
				"y": 0.3845793097,
				"z": -2.3799973104,
				"element": "Br" 
			},
			{
				"x": 0.2597663792,
				"y": 2.7505753394,
				"z": -2.1732866707,
				"element": "C" 
			},
			{
				"x": 1.3128841764,
				"y": 3.5709005896,
				"z": -1.7741513319,
				"element": "C" 
			},
			{
				"x": 1.3833777174,
				"y": 5.3381000413,
				"z": -2.4622446619,
				"element": "Br" 
			},
			{
				"x": 2.2792357639,
				"y": 3.0664153547,
				"z": -0.8951354591,
				"element": "C" 
			},
			{
				"x": 3.7559972932,
				"y": 4.1028860755,
				"z": -0.308056477,
				"element": "Br" 
			},
			{
				"x": 2.1603492236,
				"y": 1.7649565529,
				"z": -0.4195664339,
				"element": "C" 
			},
			{
				"x": -0.1029440201,
				"y": -2.3537436499,
				"z": -0.3479489682,
				"element": "C" 
			},
			{
				"x": 1.0066437427,
				"y": -2.9937191561,
				"z": -1.7488360486,
				"element": "Br" 
			},
			{
				"x": -1.1012572524,
				"y": -3.1845341869,
				"z": 0.1505066673,
				"element": "C" 
			},
			{
				"x": -2.3660123047,
				"y": -1.0902961078,
				"z": 2.5205314793,
				"element": "H" 
			},
			{
				"x": -0.4798799067,
				"y": 3.1310248593,
				"z": -2.8660098722,
				"element": "H" 
			},
			{
				"x": 2.8904252789,
				"y": 1.3631678847,
				"z": 0.2718634118,
				"element": "H" 
			},
			{
				"x": -1.2370825444,
				"y": -4.1764903867,
				"z": -0.2597784062,
				"element": "H" 
			}
		],
		 "valence_orbital": [ 
			{
				"type": "occ",
				"energy": -0.28738,
				"method": "rhf"
			},
			{
				"type": "occ",
				"energy": -0.26432,
				"method": "rhf"
			},
			{
				"type": "occ",
				"energy": -0.26283,
				"method": "rhf"
			},
			{
				"type": "occ",
				"energy": -0.25238,
				"method": "rhf"
			},
			{
				"type": "occ",
				"energy": -0.24405,
				"method": "rhf"
			},
			{
				"type": "unocc",
				"energy": -0.05001,
				"method": "rhf"
			},
			{
				"type": "unocc",
				"energy": -0.04618,
				"method": "rhf"
			},
			{
				"type": "unocc",
				"energy": -0.04255,
				"method": "rhf"
			},
			{
				"type": "unocc",
				"energy": -0.04122,
				"method": "rhf"
			},
			{
				"type": "unocc",
				"energy": -0.03477,
				"method": "rhf"
			}
		],
		"cosmo_sigma_profile": { 
			"-0.025": 0.0,
			"-0.024": 0.0,
			"-0.023": 0.0,
			"-0.022": 0.0,
			"-0.021": 0.0,
			"-0.02": 0.0,
			"-0.019": 0.0,
			"-0.018": 0.0,
			"-0.017": 0.0,
			"-0.016": 0.0,
			"-0.015": 0.0,
			"-0.014": 0.0,
			"-0.013": 0.0,
			"-0.012": 0.0,
			"-0.011": 0.0,
			"-0.01": 0.00211716162681,
			"-0.009": 2.53881437574,
			"-0.008": 5.92699011746,
			"-0.007": 4.98767580451,
			"-0.006": 8.45493768562,
			"-0.005": 15.0824535533,
			"-0.004": 16.4526143316,
			"-0.003": 15.5740973454,
			"-0.002": 20.788991154,
			"-0.001": 40.6343155228,
			"0.0": 58.8628878599,
			"0.001": 43.5288610257,
			"0.002": 36.8895104606,
			"0.003": 50.6573625369,
			"0.004": 31.0952834132,
			"0.005": 4.23255465215,
			"0.006": 1.82460503939,
			"0.007": 0.44583484207,
			"0.008": 0.0,
			"0.009": 0.0,
			"0.01": 0.0,
			"0.011": 0.0,
			"0.012": 0.0,
			"0.013": 0.0,
			"0.014": 0.0,
			"0.015": 0.0,
			"0.016": 0.0,
			"0.017": 0.0,
			"0.018": 0.0,
			"0.019": 0.0,
			"0.02": 0.0,
			"0.021": 0.0,
			"0.022": 0.0,
			"0.023": 0.0,
			"0.024": 0.0,
			"0.025": 0.0
		}
	}
}
