{
	 "smiles": "FC(F)(F)C1=CC(=CC(=C1)C#N)C(F)(F)F", 
	 "Tm": 291.15, 
	 "num_atms": 19, 
	 "gaussian": { 
		 "optdone": 1, 
		 "sigma_profile": "yes", 
		 "theory": "DFT", 
		 "functional": "B3LYP", 
		 "basiset": "6-31G**", 
		 "properties": { 
			 "R2extent": 4256.6089, 
			 "electric_dipole_moment_norm": 1.94267832643, 
			 "electric_quadrupole_moment_norm": 10.2322626603, 
			 "total_energy": -998.551197437, 
			 "HOMO_LUMO_gap": 0.213, 
			 "cosmo_polarized_energy": -8.68, 
			 "cosmo_cavitation_energy": 28.45, 
			 "cosmo_dispersion_energy": -18.87, 
			 "cosmo_repulsion_energy": 1.35, 
			 "cosmo_total_nonelectrostatic_energy": 10.93, 
			 "SMD_solvation_energy": 8.65 
		},
		"coords": [
			{
				"x": -1.885443062,
				"y": 2.9800537894,
				"z": 1.4842475793,
				"element": "F" 
			},
			{
				"x": -1.169745977,
				"y": 1.8729370324,
				"z": 1.7745208626,
				"element": "C" 
			},
			{
				"x": -1.8340573465,
				"y": 1.2066347107,
				"z": 2.7400823584,
				"element": "F" 
			},
			{
				"x": 0.0087486369,
				"y": 2.2818329618,
				"z": 2.2871234998,
				"element": "F" 
			},
			{
				"x": -0.9692296115,
				"y": 1.0178171346,
				"z": 0.5465212703,
				"element": "C" 
			},
			{
				"x": 0.1011880971,
				"y": 1.2817212547,
				"z": -0.3094109563,
				"element": "C" 
			},
			{
				"x": 0.2614532569,
				"y": 0.5236937468,
				"z": -1.4702455559,
				"element": "C" 
			},
			{
				"x": -0.6362750798,
				"y": -0.4959989091,
				"z": -1.7793082343,
				"element": "C" 
			},
			{
				"x": -1.7088447645,
				"y": -0.7585809276,
				"z": -0.9139869718,
				"element": "C" 
			},
			{
				"x": -1.8763814018,
				"y": 0.0019935312,
				"z": 0.2529644148,
				"element": "C" 
			},
			{
				"x": -2.631852571,
				"y": -1.8141225087,
				"z": -1.2185554843,
				"element": "C" 
			},
			{
				"x": -3.3801260728,
				"y": -2.6688582843,
				"z": -1.4657179547,
				"element": "N" 
			},
			{
				"x": 1.3896686005,
				"y": 0.8448109435,
				"z": -2.4207505852,
				"element": "C" 
			},
			{
				"x": 1.7600126775,
				"y": -0.2373333778,
				"z": -3.1345104267,
				"element": "F" 
			},
			{
				"x": 2.4747806809,
				"y": 1.2989987015,
				"z": -1.7612017999,
				"element": "F" 
			},
			{
				"x": 1.0264325985,
				"y": 1.8019388158,
				"z": -3.300605533,
				"element": "F" 
			},
			{
				"x": 0.8141710104,
				"y": 2.0605739806,
				"z": -0.0652982354,
				"element": "H" 
			},
			{
				"x": -0.5033513787,
				"y": -1.0910394667,
				"z": -2.6751330717,
				"element": "H" 
			},
			{
				"x": -2.700048293,
				"y": -0.2088731287,
				"z": 0.9247648242,
				"element": "H" 
			}
		],
		 "valence_orbital": [ 
			{
				"type": "occ",
				"energy": -0.37735,
				"method": "rhf"
			},
			{
				"type": "occ",
				"energy": -0.37263,
				"method": "rhf"
			},
			{
				"type": "occ",
				"energy": -0.3522,
				"method": "rhf"
			},
			{
				"type": "occ",
				"energy": -0.31156,
				"method": "rhf"
			},
			{
				"type": "occ",
				"energy": -0.29754,
				"method": "rhf"
			},
			{
				"type": "unocc",
				"energy": -0.08454,
				"method": "rhf"
			},
			{
				"type": "unocc",
				"energy": -0.07017,
				"method": "rhf"
			},
			{
				"type": "unocc",
				"energy": 0.01433,
				"method": "rhf"
			},
			{
				"type": "unocc",
				"energy": 0.03203,
				"method": "rhf"
			},
			{
				"type": "unocc",
				"energy": 0.07143,
				"method": "rhf"
			}
		],
		"cosmo_sigma_profile": { 
			"-0.025": 0.0,
			"-0.024": 0.0,
			"-0.023": 0.0,
			"-0.022": 0.0,
			"-0.021": 0.0,
			"-0.02": 0.0,
			"-0.019": 0.0,
			"-0.018": 0.0,
			"-0.017": 0.0,
			"-0.016": 0.0,
			"-0.015": 0.0,
			"-0.014": 0.0,
			"-0.013": 0.0,
			"-0.012": 0.0,
			"-0.011": 0.0,
			"-0.01": 2.09178585744,
			"-0.009": 4.7354880898,
			"-0.008": 4.53838967724,
			"-0.007": 6.78876422592,
			"-0.006": 7.91438808801,
			"-0.005": 6.1555396432,
			"-0.004": 10.8408075188,
			"-0.003": 16.3578951937,
			"-0.002": 25.9026641086,
			"-0.001": 16.4085750748,
			"0.0": 12.9019643356,
			"0.001": 17.9654883715,
			"0.002": 53.4153188105,
			"0.003": 20.7251243558,
			"0.004": 2.55315598802,
			"0.005": 2.04691387208,
			"0.006": 2.89343510881,
			"0.007": 3.09628549286,
			"0.008": 3.3092015508,
			"0.009": 3.15615953369,
			"0.01": 2.89128410073,
			"0.011": 2.32867870078,
			"0.012": 1.88419869359,
			"0.013": 0.235385762768,
			"0.014": 0.0,
			"0.015": 0.0,
			"0.016": 0.0,
			"0.017": 0.0,
			"0.018": 0.0,
			"0.019": 0.0,
			"0.02": 0.0,
			"0.021": 0.0,
			"0.022": 0.0,
			"0.023": 0.0,
			"0.024": 0.0,
			"0.025": 0.0
		}
	}
}
