{
	 "smiles": "ClCC1=NC2=C(OC3=C2C=CC=C3)C(=O)N1", 
	 "Tm": 372.15, 
	 "num_atms": 23, 
	 "gaussian": { 
		 "optdone": 1, 
		 "sigma_profile": "yes", 
		 "theory": "DFT", 
		 "functional": "B3LYP", 
		 "basiset": "6-31G**", 
		 "properties": { 
			 "R2extent": 5077.7633, 
			 "electric_dipole_moment_norm": 3.60166455129, 
			 "electric_quadrupole_moment_norm": 14.7775072536, 
			 "total_energy": -1143.54791731, 
			 "HOMO_LUMO_gap": 0.16921, 
			 "cosmo_polarized_energy": -14.35, 
			 "cosmo_cavitation_energy": 29.98, 
			 "cosmo_dispersion_energy": -22.59, 
			 "cosmo_repulsion_energy": 1.75, 
			 "cosmo_total_nonelectrostatic_energy": 9.14, 
			 "SMD_solvation_energy": 4.02 
		},
		"coords": [
			{
				"x": -3.9060262062,
				"y": -3.8788898128,
				"z": 0.5864456533,
				"element": "Cl" 
			},
			{
				"x": -3.6399015604,
				"y": -2.1293383298,
				"z": 0.1800680311,
				"element": "C" 
			},
			{
				"x": -2.1959797513,
				"y": -1.7105175503,
				"z": 0.2756960562,
				"element": "C" 
			},
			{
				"x": -1.7268816629,
				"y": -0.932606761,
				"z": -0.6579281693,
				"element": "N" 
			},
			{
				"x": -0.4336414012,
				"y": -0.5185324878,
				"z": -0.4572005475,
				"element": "C" 
			},
			{
				"x": 0.3434200265,
				"y": -0.8842156039,
				"z": 0.6265899861,
				"element": "C" 
			},
			{
				"x": 1.594613868,
				"y": -0.3415459385,
				"z": 0.5790303225,
				"element": "O" 
			},
			{
				"x": 1.6265319866,
				"y": 0.4025629321,
				"z": -0.5765467086,
				"element": "C" 
			},
			{
				"x": 0.4005993545,
				"y": 0.3360036903,
				"z": -1.2678873509,
				"element": "C" 
			},
			{
				"x": 0.2473230543,
				"y": 1.0346029537,
				"z": -2.4735025264,
				"element": "C" 
			},
			{
				"x": 1.3273199265,
				"y": 1.7742893092,
				"z": -2.9419686739,
				"element": "C" 
			},
			{
				"x": 2.542891667,
				"y": 1.8239753411,
				"z": -2.2298509383,
				"element": "C" 
			},
			{
				"x": 2.7164405936,
				"y": 1.1371395547,
				"z": -1.0298822918,
				"element": "C" 
			},
			{
				"x": -0.1320916041,
				"y": -1.7552663203,
				"z": 1.670319259,
				"element": "C" 
			},
			{
				"x": 0.4317829727,
				"y": -2.1744976358,
				"z": 2.6663921044,
				"element": "O" 
			},
			{
				"x": -1.4800500709,
				"y": -2.1079893372,
				"z": 1.3732352864,
				"element": "N" 
			},
			{
				"x": -3.9814767332,
				"y": -1.9601368989,
				"z": -0.8386610141,
				"element": "H" 
			},
			{
				"x": -4.2598085545,
				"y": -1.5609447559,
				"z": 0.8774912183,
				"element": "H" 
			},
			{
				"x": -0.6901013561,
				"y": 0.9928784835,
				"z": -3.0181633479,
				"element": "H" 
			},
			{
				"x": 1.2374038099,
				"y": 2.3251235453,
				"z": -3.8731285773,
				"element": "H" 
			},
			{
				"x": 3.3654897335,
				"y": 2.411799433,
				"z": -2.6257079937,
				"element": "H" 
			},
			{
				"x": 3.6463232846,
				"y": 1.1669883821,
				"z": -0.4732657777,
				"element": "H" 
			},
			{
				"x": -1.896081377,
				"y": -2.7644821931,
				"z": 2.0260260001,
				"element": "H" 
			}
		],
		 "valence_orbital": [ 
			{
				"type": "occ",
				"energy": -0.29688,
				"method": "rhf"
			},
			{
				"type": "occ",
				"energy": -0.27337,
				"method": "rhf"
			},
			{
				"type": "occ",
				"energy": -0.27315,
				"method": "rhf"
			},
			{
				"type": "occ",
				"energy": -0.2534,
				"method": "rhf"
			},
			{
				"type": "occ",
				"energy": -0.23138,
				"method": "rhf"
			},
			{
				"type": "unocc",
				"energy": -0.06217,
				"method": "rhf"
			},
			{
				"type": "unocc",
				"energy": -0.03725,
				"method": "rhf"
			},
			{
				"type": "unocc",
				"energy": -0.00498,
				"method": "rhf"
			},
			{
				"type": "unocc",
				"energy": 0.01495,
				"method": "rhf"
			},
			{
				"type": "unocc",
				"energy": 0.02186,
				"method": "rhf"
			}
		],
		"cosmo_sigma_profile": { 
			"-0.025": 0.0,
			"-0.024": 0.0,
			"-0.023": 0.0,
			"-0.022": 0.0,
			"-0.021": 0.0,
			"-0.02": 0.0,
			"-0.019": 0.0,
			"-0.018": 0.0,
			"-0.017": 0.0,
			"-0.016": 0.0,
			"-0.015": 0.359268007207,
			"-0.014": 0.979692385438,
			"-0.013": 0.863424303439,
			"-0.012": 1.39589673936,
			"-0.011": 0.862597492299,
			"-0.01": 2.90508950757,
			"-0.009": 5.24856875841,
			"-0.008": 5.35873172944,
			"-0.007": 8.85060545048,
			"-0.006": 12.3527033681,
			"-0.005": 13.8382577566,
			"-0.004": 14.5748722805,
			"-0.003": 14.1047606242,
			"-0.002": 17.883517878,
			"-0.001": 14.7645065089,
			"0.0": 16.7997807158,
			"0.001": 18.7203627343,
			"0.002": 18.5017554408,
			"0.003": 17.3519889853,
			"0.004": 16.1179729948,
			"0.005": 10.8943896421,
			"0.006": 4.92368227713,
			"0.007": 3.58210678953,
			"0.008": 4.24689680433,
			"0.009": 2.18469147991,
			"0.01": 2.72046358539,
			"0.011": 2.84966193191,
			"0.012": 6.02231052215,
			"0.013": 4.53943647952,
			"0.014": 0.281308107915,
			"0.015": 0.0,
			"0.016": 0.0,
			"0.017": 0.0,
			"0.018": 0.0,
			"0.019": 0.0,
			"0.02": 0.0,
			"0.021": 0.0,
			"0.022": 0.0,
			"0.023": 0.0,
			"0.024": 0.0,
			"0.025": 0.0
		}
	}
}
