{
	 "smiles": "COC(=O)C=C", 
	 "Tm": 197.35, 
	 "num_atms": 12, 
	 "gaussian": { 
		 "optdone": 1, 
		 "sigma_profile": "yes", 
		 "theory": "DFT", 
		 "functional": "B3LYP", 
		 "basiset": "6-31G**", 
		 "properties": { 
			 "R2extent": 754.325, 
			 "electric_dipole_moment_norm": 2.09811629325, 
			 "electric_quadrupole_moment_norm": 8.6241420582, 
			 "total_energy": -306.469656675, 
			 "HOMO_LUMO_gap": 0.22591, 
			 "cosmo_polarized_energy": -6.45, 
			 "cosmo_cavitation_energy": 16.43, 
			 "cosmo_dispersion_energy": -11.88, 
			 "cosmo_repulsion_energy": 1.04, 
			 "cosmo_total_nonelectrostatic_energy": 5.59, 
			 "SMD_solvation_energy": 5.52 
		},
		"coords": [
			{
				"x": 2.5910253994,
				"y": 1.0918074851,
				"z": -1.1155241833,
				"element": "C" 
			},
			{
				"x": 1.402500726,
				"y": 0.3501640982,
				"z": -0.8033580277,
				"element": "O" 
			},
			{
				"x": 0.5559814948,
				"y": 0.9603691154,
				"z": 0.0589742233,
				"element": "C" 
			},
			{
				"x": 0.7682317846,
				"y": 2.0548559828,
				"z": 0.5434851287,
				"element": "O" 
			},
			{
				"x": -0.6569174371,
				"y": 0.1567414804,
				"z": 0.3507074476,
				"element": "C" 
			},
			{
				"x": -0.9135184312,
				"y": -1.0465639061,
				"z": -0.1677556269,
				"element": "C" 
			},
			{
				"x": 2.3383490111,
				"y": 2.05018381,
				"z": -1.5766797577,
				"element": "H" 
			},
			{
				"x": 3.1533866112,
				"y": 0.4689267871,
				"z": -1.8109610453,
				"element": "H" 
			},
			{
				"x": 3.1758608485,
				"y": 1.2825041087,
				"z": -0.2118633343,
				"element": "H" 
			},
			{
				"x": -1.3393083113,
				"y": 0.6424246176,
				"z": 1.0415171151,
				"element": "H" 
			},
			{
				"x": -0.2241133305,
				"y": -1.5222228341,
				"z": -0.8571673877,
				"element": "H" 
			},
			{
				"x": -1.8210783655,
				"y": -1.5860907451,
				"z": 0.0853254481,
				"element": "H" 
			}
		],
		 "valence_orbital": [ 
			{
				"type": "occ",
				"energy": -0.37952,
				"method": "rhf"
			},
			{
				"type": "occ",
				"energy": -0.35686,
				"method": "rhf"
			},
			{
				"type": "occ",
				"energy": -0.29991,
				"method": "rhf"
			},
			{
				"type": "occ",
				"energy": -0.28466,
				"method": "rhf"
			},
			{
				"type": "occ",
				"energy": -0.2715,
				"method": "rhf"
			},
			{
				"type": "unocc",
				"energy": -0.04559,
				"method": "rhf"
			},
			{
				"type": "unocc",
				"energy": 0.08572,
				"method": "rhf"
			},
			{
				"type": "unocc",
				"energy": 0.10597,
				"method": "rhf"
			},
			{
				"type": "unocc",
				"energy": 0.11509,
				"method": "rhf"
			},
			{
				"type": "unocc",
				"energy": 0.1353,
				"method": "rhf"
			}
		],
		"cosmo_sigma_profile": { 
			"-0.025": 0.0,
			"-0.024": 0.0,
			"-0.023": 0.0,
			"-0.022": 0.0,
			"-0.021": 0.0,
			"-0.02": 0.0,
			"-0.019": 0.0,
			"-0.018": 0.0,
			"-0.017": 0.0,
			"-0.016": 0.0,
			"-0.015": 0.0,
			"-0.014": 0.0,
			"-0.013": 0.0,
			"-0.012": 0.0,
			"-0.011": 0.0,
			"-0.01": 0.0,
			"-0.009": 0.0,
			"-0.008": 0.174838178741,
			"-0.007": 3.52677718596,
			"-0.006": 9.02631308454,
			"-0.005": 11.8181845645,
			"-0.004": 12.5150009477,
			"-0.003": 14.5440088257,
			"-0.002": 10.8719019089,
			"-0.001": 9.23858505857,
			"0.0": 9.58965326357,
			"0.001": 7.55618313698,
			"0.002": 7.94444538679,
			"0.003": 7.15196932619,
			"0.004": 4.68874226259,
			"0.005": 3.1934336312,
			"0.006": 2.73257553363,
			"0.007": 1.49312691439,
			"0.008": 1.87398325859,
			"0.009": 2.00626064437,
			"0.01": 1.53411980435,
			"0.011": 2.3278087713,
			"0.012": 5.26731032202,
			"0.013": 1.58330723187,
			"0.014": 0.0137717016113,
			"0.015": 0.0,
			"0.016": 0.0,
			"0.017": 0.0,
			"0.018": 0.0,
			"0.019": 0.0,
			"0.02": 0.0,
			"0.021": 0.0,
			"0.022": 0.0,
			"0.023": 0.0,
			"0.024": 0.0,
			"0.025": 0.0
		}
	}
}
