{
	 "smiles": "[O-][N+](=O)C1=CC=C(OCC(F)(F)F)C=C1", 
	 "Tm": 347.15, 
	 "num_atms": 21, 
	 "gaussian": { 
		 "optdone": 1, 
		 "sigma_profile": "yes", 
		 "theory": "DFT", 
		 "functional": "B3LYP", 
		 "basiset": "6-31G**", 
		 "properties": { 
			 "R2extent": 4677.0315, 
			 "electric_dipole_moment_norm": 4.83931550222, 
			 "electric_quadrupole_moment_norm": 24.1277134862, 
			 "total_energy": -888.303634371, 
			 "HOMO_LUMO_gap": 0.17406, 
			 "cosmo_polarized_energy": -11.24, 
			 "cosmo_cavitation_energy": 27.8, 
			 "cosmo_dispersion_energy": -19.92, 
			 "cosmo_repulsion_energy": 1.5, 
			 "cosmo_total_nonelectrostatic_energy": 9.38, 
			 "SMD_solvation_energy": 8.49 
		},
		"coords": [
			{
				"x": -4.8701565438,
				"y": -0.2000468471,
				"z": 0.1978520071,
				"element": "O" 
			},
			{
				"x": -3.8963528029,
				"y": 0.5250628261,
				"z": 0.405611331,
				"element": "N" 
			},
			{
				"x": -3.9000349278,
				"y": 1.5055616961,
				"z": 1.1513200809,
				"element": "O" 
			},
			{
				"x": -2.6465805205,
				"y": 0.1984282305,
				"z": -0.2843755707,
				"element": "C" 
			},
			{
				"x": -2.6072965696,
				"y": -0.9039056924,
				"z": -1.141602435,
				"element": "C" 
			},
			{
				"x": -1.4235446902,
				"y": -1.2030554289,
				"z": -1.7968618483,
				"element": "C" 
			},
			{
				"x": -0.2835388965,
				"y": -0.4085089287,
				"z": -1.5927149664,
				"element": "C" 
			},
			{
				"x": 0.817502617,
				"y": -0.7987194929,
				"z": -2.3039762696,
				"element": "O" 
			},
			{
				"x": 1.9346461643,
				"y": 0.0562191906,
				"z": -2.4421153569,
				"element": "C" 
			},
			{
				"x": 3.0160344008,
				"y": -0.233490083,
				"z": -1.4080063617,
				"element": "C" 
			},
			{
				"x": 4.0869957306,
				"y": 0.5463103693,
				"z": -1.6665767929,
				"element": "F" 
			},
			{
				"x": 2.6056130065,
				"y": 0.0309984039,
				"z": -0.1497087955,
				"element": "F" 
			},
			{
				"x": 3.4070252414,
				"y": -1.5159302034,
				"z": -1.4498607484,
				"element": "F" 
			},
			{
				"x": -0.330122119,
				"y": 0.6850322158,
				"z": -0.7171053,
				"element": "C" 
			},
			{
				"x": -1.522351266,
				"y": 0.9896559567,
				"z": -0.065650093,
				"element": "C" 
			},
			{
				"x": -3.5005016587,
				"y": -1.4987226904,
				"z": -1.2850870061,
				"element": "H" 
			},
			{
				"x": -1.3546608809,
				"y": -2.0440446847,
				"z": -2.477813407,
				"element": "H" 
			},
			{
				"x": 2.3647651845,
				"y": -0.1483623418,
				"z": -3.4257009259,
				"element": "H" 
			},
			{
				"x": 1.6642911382,
				"y": 1.1152168878,
				"z": -2.3898181467,
				"element": "H" 
			},
			{
				"x": 0.5522852404,
				"y": 1.274406202,
				"z": -0.507101962,
				"element": "H" 
			},
			{
				"x": -1.5880178479,
				"y": 1.8262944144,
				"z": 0.6185925673,
				"element": "H" 
			}
		],
		 "valence_orbital": [ 
			{
				"type": "occ",
				"energy": -0.3074,
				"method": "rhf"
			},
			{
				"type": "occ",
				"energy": -0.30547,
				"method": "rhf"
			},
			{
				"type": "occ",
				"energy": -0.28831,
				"method": "rhf"
			},
			{
				"type": "occ",
				"energy": -0.28493,
				"method": "rhf"
			},
			{
				"type": "occ",
				"energy": -0.2599,
				"method": "rhf"
			},
			{
				"type": "unocc",
				"energy": -0.08584,
				"method": "rhf"
			},
			{
				"type": "unocc",
				"energy": -0.03389,
				"method": "rhf"
			},
			{
				"type": "unocc",
				"energy": 0.00535,
				"method": "rhf"
			},
			{
				"type": "unocc",
				"energy": 0.06367,
				"method": "rhf"
			},
			{
				"type": "unocc",
				"energy": 0.07455,
				"method": "rhf"
			}
		],
		"cosmo_sigma_profile": { 
			"-0.025": 0.0,
			"-0.024": 0.0,
			"-0.023": 0.0,
			"-0.022": 0.0,
			"-0.021": 0.0,
			"-0.02": 0.0,
			"-0.019": 0.0,
			"-0.018": 0.0,
			"-0.017": 0.0,
			"-0.016": 0.0,
			"-0.015": 0.0,
			"-0.014": 0.0,
			"-0.013": 0.0,
			"-0.012": 0.168258202827,
			"-0.011": 1.07647043185,
			"-0.01": 2.86588103366,
			"-0.009": 5.07261748417,
			"-0.008": 7.00789640694,
			"-0.007": 10.4416048998,
			"-0.006": 10.1225623564,
			"-0.005": 9.4153687891,
			"-0.004": 8.67121770293,
			"-0.003": 9.23744379623,
			"-0.002": 9.80070618625,
			"-0.001": 15.5418548905,
			"0.0": 19.5711735228,
			"0.001": 23.925817895,
			"0.002": 35.2160572615,
			"0.003": 16.9779174927,
			"0.004": 3.81455914003,
			"0.005": 4.64691414467,
			"0.006": 4.10290257309,
			"0.007": 7.2843808206,
			"0.008": 9.22465760937,
			"0.009": 5.01949291902,
			"0.01": 3.45482670053,
			"0.011": 0.696108478072,
			"0.012": 0.0,
			"0.013": 0.0,
			"0.014": 0.0,
			"0.015": 0.0,
			"0.016": 0.0,
			"0.017": 0.0,
			"0.018": 0.0,
			"0.019": 0.0,
			"0.02": 0.0,
			"0.021": 0.0,
			"0.022": 0.0,
			"0.023": 0.0,
			"0.024": 0.0,
			"0.025": 0.0
		}
	}
}
