{
	 "smiles": "OC1=C2N=CC=CC2=C(CN2CCCC2)C=C1", 
	 "Tm": 386.15, 
	 "num_atms": 33, 
	 "gaussian": { 
		 "optdone": 1, 
		 "sigma_profile": "yes", 
		 "theory": "DFT", 
		 "functional": "B3LYP", 
		 "basiset": "6-31G**", 
		 "properties": { 
			 "R2extent": 4951.8876, 
			 "electric_dipole_moment_norm": 2.99765549889, 
			 "electric_quadrupole_moment_norm": 12.9192762208, 
			 "total_energy": -727.866035574, 
			 "HOMO_LUMO_gap": 0.15566, 
			 "cosmo_polarized_energy": -7.05, 
			 "cosmo_cavitation_energy": 34.39, 
			 "cosmo_dispersion_energy": -24.87, 
			 "cosmo_repulsion_energy": 1.92, 
			 "cosmo_total_nonelectrostatic_energy": 11.44, 
			 "SMD_solvation_energy": 3.78 
		},
		"coords": [
			{
				"x": -0.2263975113,
				"y": -0.1122576211,
				"z": 5.1900238712,
				"element": "O" 
			},
			{
				"x": -0.1961610476,
				"y": -0.4986705963,
				"z": 3.897787926,
				"element": "C" 
			},
			{
				"x": 0.8366177619,
				"y": 0.0255510348,
				"z": 3.0562059784,
				"element": "C" 
			},
			{
				"x": 1.7082575989,
				"y": 0.8793575062,
				"z": 3.6577888308,
				"element": "N" 
			},
			{
				"x": 2.680970165,
				"y": 1.3900440823,
				"z": 2.9262720192,
				"element": "C" 
			},
			{
				"x": 2.8482433655,
				"y": 1.0950421283,
				"z": 1.5536964125,
				"element": "C" 
			},
			{
				"x": 1.9668620865,
				"y": 0.2345875138,
				"z": 0.9348638767,
				"element": "C" 
			},
			{
				"x": 0.9096396014,
				"y": -0.3503139351,
				"z": 1.6822646086,
				"element": "C" 
			},
			{
				"x": -0.0526933904,
				"y": -1.2695243108,
				"z": 1.1541417179,
				"element": "C" 
			},
			{
				"x": 0.0180708058,
				"y": -1.7595025298,
				"z": -0.2776965209,
				"element": "C" 
			},
			{
				"x": -0.0868547854,
				"y": -0.6995798216,
				"z": -1.2770218247,
				"element": "N" 
			},
			{
				"x": -1.3604396424,
				"y": 0.0254864392,
				"z": -1.2807219813,
				"element": "C" 
			},
			{
				"x": -1.3038146965,
				"y": 0.8463753878,
				"z": -2.5823891683,
				"element": "C" 
			},
			{
				"x": -0.3543736077,
				"y": 0.0335195227,
				"z": -3.5105837651,
				"element": "C" 
			},
			{
				"x": 0.0711907475,
				"y": -1.1742045879,
				"z": -2.6535887802,
				"element": "C" 
			},
			{
				"x": -1.0313835959,
				"y": -1.745459217,
				"z": 2.0081183452,
				"element": "C" 
			},
			{
				"x": -1.120501589,
				"y": -1.3740142303,
				"z": 3.3695252584,
				"element": "C" 
			},
			{
				"x": 0.5330044917,
				"y": 0.49822285,
				"z": 5.2848020375,
				"element": "H" 
			},
			{
				"x": 3.3672550848,
				"y": 2.0695464945,
				"z": 3.428991793,
				"element": "H" 
			},
			{
				"x": 3.6619589234,
				"y": 1.5542152879,
				"z": 1.0010949917,
				"element": "H" 
			},
			{
				"x": 2.0429494963,
				"y": 0.021443573,
				"z": -0.1252597366,
				"element": "H" 
			},
			{
				"x": 0.9773950125,
				"y": -2.2686325846,
				"z": -0.4477799874,
				"element": "H" 
			},
			{
				"x": -0.7690095669,
				"y": -2.5258821201,
				"z": -0.4229549749,
				"element": "H" 
			},
			{
				"x": -2.2191793109,
				"y": -0.6753074837,
				"z": -1.3054593669,
				"element": "H" 
			},
			{
				"x": -1.4632027255,
				"y": 0.6383068874,
				"z": -0.3811400376,
				"element": "H" 
			},
			{
				"x": -0.8922548606,
				"y": 1.8410544093,
				"z": -2.3899293047,
				"element": "H" 
			},
			{
				"x": -2.2993166028,
				"y": 0.9827276589,
				"z": -3.0136958724,
				"element": "H" 
			},
			{
				"x": 0.5158296836,
				"y": 0.6334931096,
				"z": -3.7911014257,
				"element": "H" 
			},
			{
				"x": -0.8420206322,
				"y": -0.2858988635,
				"z": -4.4357594016,
				"element": "H" 
			},
			{
				"x": -0.5892888553,
				"y": -2.0405761691,
				"z": -2.8593009893,
				"element": "H" 
			},
			{
				"x": 1.1017844141,
				"y": -1.4986997608,
				"z": -2.8362748383,
				"element": "H" 
			},
			{
				"x": -1.7674711354,
				"y": -2.4448514526,
				"z": 1.6192120382,
				"element": "H" 
			},
			{
				"x": -1.9053656832,
				"y": -1.7716986013,
				"z": 4.0037682707,
				"element": "H" 
			}
		],
		 "valence_orbital": [ 
			{
				"type": "occ",
				"energy": -0.28752,
				"method": "rhf"
			},
			{
				"type": "occ",
				"energy": -0.27009,
				"method": "rhf"
			},
			{
				"type": "occ",
				"energy": -0.25123,
				"method": "rhf"
			},
			{
				"type": "occ",
				"energy": -0.2165,
				"method": "rhf"
			},
			{
				"type": "occ",
				"energy": -0.2046,
				"method": "rhf"
			},
			{
				"type": "unocc",
				"energy": -0.04894,
				"method": "rhf"
			},
			{
				"type": "unocc",
				"energy": -0.01534,
				"method": "rhf"
			},
			{
				"type": "unocc",
				"energy": 0.03027,
				"method": "rhf"
			},
			{
				"type": "unocc",
				"energy": 0.07937,
				"method": "rhf"
			},
			{
				"type": "unocc",
				"energy": 0.0933,
				"method": "rhf"
			}
		],
		"cosmo_sigma_profile": { 
			"-0.025": 0.0,
			"-0.024": 0.0,
			"-0.023": 0.0,
			"-0.022": 0.0,
			"-0.021": 0.0,
			"-0.02": 0.0,
			"-0.019": 0.0,
			"-0.018": 0.0,
			"-0.017": 0.0,
			"-0.016": 0.0,
			"-0.015": 0.0,
			"-0.014": 0.0,
			"-0.013": 0.0,
			"-0.012": 0.035814402928,
			"-0.011": 0.222269558072,
			"-0.01": 0.498073473952,
			"-0.009": 1.1677613158,
			"-0.008": 0.616422704202,
			"-0.007": 2.50970057599,
			"-0.006": 8.19652131779,
			"-0.005": 9.73703430973,
			"-0.004": 15.1508208445,
			"-0.003": 24.3056408928,
			"-0.002": 27.3656900439,
			"-0.001": 42.3942718041,
			"0.0": 30.7122612595,
			"0.001": 27.1425031128,
			"0.002": 24.5725196848,
			"0.003": 18.7698344808,
			"0.004": 11.9672275074,
			"0.005": 6.50139937203,
			"0.006": 4.15121244313,
			"0.007": 4.61927369781,
			"0.008": 3.21361683861,
			"0.009": 2.76368827788,
			"0.01": 1.593551321,
			"0.011": 2.15508075917,
			"0.012": 0.874242128356,
			"0.013": 0.0,
			"0.014": 0.0,
			"0.015": 0.0,
			"0.016": 0.0,
			"0.017": 0.0,
			"0.018": 0.0,
			"0.019": 0.0,
			"0.02": 0.0,
			"0.021": 0.0,
			"0.022": 0.0,
			"0.023": 0.0,
			"0.024": 0.0,
			"0.025": 0.0
		}
	}
}
