{
	 "smiles": "NC(=S)C1=C(N)N(CC=C)C(=S)S1", 
	 "Tm": 469.15, 
	 "num_atms": 22, 
	 "gaussian": { 
		 "optdone": 1, 
		 "sigma_profile": "yes", 
		 "theory": "DFT", 
		 "functional": "B3LYP", 
		 "basiset": "6-31G**", 
		 "properties": { 
			 "R2extent": 6228.051, 
			 "electric_dipole_moment_norm": 8.49944573605, 
			 "electric_quadrupole_moment_norm": 24.8196244029, 
			 "total_energy": -1630.97225784, 
			 "HOMO_LUMO_gap": 0.13156, 
			 "cosmo_polarized_energy": -24.22, 
			 "cosmo_cavitation_energy": 30.49, 
			 "cosmo_dispersion_energy": -23.27, 
			 "cosmo_repulsion_energy": 1.72, 
			 "cosmo_total_nonelectrostatic_energy": 8.93, 
			 "SMD_solvation_energy": 3.44 
		},
		"coords": [
			{
				"x": 3.6924013786,
				"y": 1.1792676855,
				"z": -0.7304312169,
				"element": "N" 
			},
			{
				"x": 3.3055616959,
				"y": 2.2177062922,
				"z": 0.1133137497,
				"element": "C" 
			},
			{
				"x": 4.3825200636,
				"y": 3.4060132612,
				"z": 0.5761221064,
				"element": "S" 
			},
			{
				"x": 1.9248716917,
				"y": 2.2029134214,
				"z": 0.5174234138,
				"element": "C" 
			},
			{
				"x": 0.8604732169,
				"y": 1.5464684356,
				"z": -0.0756632713,
				"element": "C" 
			},
			{
				"x": 0.8894974388,
				"y": 0.7124567311,
				"z": -1.1698462227,
				"element": "N" 
			},
			{
				"x": -0.3522804709,
				"y": 1.7818013665,
				"z": 0.5507285238,
				"element": "N" 
			},
			{
				"x": -1.6000236505,
				"y": 1.1193148811,
				"z": 0.1367328197,
				"element": "C" 
			},
			{
				"x": -2.1493155894,
				"y": 1.6631729584,
				"z": -1.1563938764,
				"element": "C" 
			},
			{
				"x": -2.5184951287,
				"y": 0.9012901264,
				"z": -2.1886817896,
				"element": "C" 
			},
			{
				"x": -0.3056526005,
				"y": 2.6553958029,
				"z": 1.6355471521,
				"element": "C" 
			},
			{
				"x": -1.5922758672,
				"y": 3.1221841035,
				"z": 2.5770932493,
				"element": "S" 
			},
			{
				"x": 1.3434629404,
				"y": 3.1950640998,
				"z": 1.8594360803,
				"element": "S" 
			},
			{
				"x": 4.6847186882,
				"y": 1.1991908838,
				"z": -0.9364843578,
				"element": "H" 
			},
			{
				"x": 3.3630687023,
				"y": 0.2544715345,
				"z": -0.4704273229,
				"element": "H" 
			},
			{
				"x": 1.7484847923,
				"y": 0.8017008275,
				"z": -1.7039534992,
				"element": "H" 
			},
			{
				"x": 0.054873683,
				"y": 0.7410561807,
				"z": -1.7461000863,
				"element": "H" 
			},
			{
				"x": -2.3033866125,
				"y": 1.3054274096,
				"z": 0.9553816459,
				"element": "H" 
			},
			{
				"x": -1.4156083932,
				"y": 0.0422263443,
				"z": 0.0685279906,
				"element": "H" 
			},
			{
				"x": -2.2661240791,
				"y": 2.7447990417,
				"z": -1.1988875556,
				"element": "H" 
			},
			{
				"x": -2.4268551324,
				"y": -0.1828550665,
				"z": -2.161064214,
				"element": "H" 
			},
			{
				"x": -2.9524167675,
				"y": 1.3308336787,
				"z": -3.0860733191,
				"element": "H" 
			}
		],
		 "valence_orbital": [ 
			{
				"type": "occ",
				"energy": -0.27719,
				"method": "rhf"
			},
			{
				"type": "occ",
				"energy": -0.24559,
				"method": "rhf"
			},
			{
				"type": "occ",
				"energy": -0.22548,
				"method": "rhf"
			},
			{
				"type": "occ",
				"energy": -0.21513,
				"method": "rhf"
			},
			{
				"type": "occ",
				"energy": -0.20436,
				"method": "rhf"
			},
			{
				"type": "unocc",
				"energy": -0.0728,
				"method": "rhf"
			},
			{
				"type": "unocc",
				"energy": -0.03293,
				"method": "rhf"
			},
			{
				"type": "unocc",
				"energy": -0.02131,
				"method": "rhf"
			},
			{
				"type": "unocc",
				"energy": 0.00958,
				"method": "rhf"
			},
			{
				"type": "unocc",
				"energy": 0.0424,
				"method": "rhf"
			}
		],
		"cosmo_sigma_profile": { 
			"-0.025": 0.0,
			"-0.024": 0.0,
			"-0.023": 0.0,
			"-0.022": 0.0,
			"-0.021": 0.0,
			"-0.02": 0.0,
			"-0.019": 0.0,
			"-0.018": 0.0,
			"-0.017": 0.0,
			"-0.016": 0.0,
			"-0.015": 0.540337002039,
			"-0.014": 1.67744608017,
			"-0.013": 3.21807455239,
			"-0.012": 4.62196281842,
			"-0.011": 3.87273118531,
			"-0.01": 4.42915379082,
			"-0.009": 4.09394271672,
			"-0.008": 5.72215430578,
			"-0.007": 8.47772138083,
			"-0.006": 11.9489628778,
			"-0.005": 15.0178735783,
			"-0.004": 16.3806075571,
			"-0.003": 13.2898467169,
			"-0.002": 11.5577009157,
			"-0.001": 10.5951390699,
			"0.0": 13.2734638242,
			"0.001": 12.9909270336,
			"0.002": 14.7037209934,
			"0.003": 14.9229019354,
			"0.004": 13.1258856301,
			"0.005": 9.56382835191,
			"0.006": 10.2873225222,
			"0.007": 11.772852844,
			"0.008": 15.3147389535,
			"0.009": 10.305026358,
			"0.01": 6.33964722556,
			"0.011": 2.60925935745,
			"0.012": 0.135535282463,
			"0.013": 0.0,
			"0.014": 0.0,
			"0.015": 0.0,
			"0.016": 0.0,
			"0.017": 0.0,
			"0.018": 0.0,
			"0.019": 0.0,
			"0.02": 0.0,
			"0.021": 0.0,
			"0.022": 0.0,
			"0.023": 0.0,
			"0.024": 0.0,
			"0.025": 0.0
		}
	}
}
