{
	 "smiles": "OCCNC(=O)C1=C(C=CC=C1)C(F)(F)F", 
	 "Tm": 335.15, 
	 "num_atms": 26, 
	 "gaussian": { 
		 "optdone": 1, 
		 "sigma_profile": "yes", 
		 "theory": "DFT", 
		 "functional": "B3LYP", 
		 "basiset": "6-31G**", 
		 "properties": { 
			 "R2extent": 4839.6563, 
			 "electric_dipole_moment_norm": 3.75997356108, 
			 "electric_quadrupole_moment_norm": 23.0693955265, 
			 "total_energy": -891.81394638, 
			 "HOMO_LUMO_gap": 0.20808, 
			 "cosmo_polarized_energy": -16.52, 
			 "cosmo_cavitation_energy": 30.98, 
			 "cosmo_dispersion_energy": -21.46, 
			 "cosmo_repulsion_energy": 1.66, 
			 "cosmo_total_nonelectrostatic_energy": 11.18, 
			 "SMD_solvation_energy": 6.24 
		},
		"coords": [
			{
				"x": 1.3281265792,
				"y": -2.1396462114,
				"z": 0.3650290668,
				"element": "O" 
			},
			{
				"x": 0.910408779,
				"y": -1.168216037,
				"z": 1.3120168077,
				"element": "C" 
			},
			{
				"x": -0.6077812187,
				"y": -1.3113941475,
				"z": 1.4438602958,
				"element": "C" 
			},
			{
				"x": -1.1755378434,
				"y": -0.4219764584,
				"z": 2.4486746516,
				"element": "N" 
			},
			{
				"x": -1.6021542132,
				"y": 0.8715280768,
				"z": 2.2840008369,
				"element": "C" 
			},
			{
				"x": -1.7514414752,
				"y": 1.6295338071,
				"z": 3.2324390583,
				"element": "O" 
			},
			{
				"x": -1.9917189353,
				"y": 1.2993402496,
				"z": 0.8849603489,
				"element": "C" 
			},
			{
				"x": -1.3746975977,
				"y": 2.3823052877,
				"z": 0.232989255,
				"element": "C" 
			},
			{
				"x": -1.8486570016,
				"y": 2.8116354305,
				"z": -1.0090153175,
				"element": "C" 
			},
			{
				"x": -2.9408288499,
				"y": 2.1835025229,
				"z": -1.6067281438,
				"element": "C" 
			},
			{
				"x": -3.5596644815,
				"y": 1.112146108,
				"z": -0.9650265968,
				"element": "C" 
			},
			{
				"x": -3.0817675774,
				"y": 0.6723415444,
				"z": 0.2696330169,
				"element": "C" 
			},
			{
				"x": -0.2057481756,
				"y": 3.1138212179,
				"z": 0.8518763024,
				"element": "C" 
			},
			{
				"x": 0.6755053023,
				"y": 2.2580368007,
				"z": 1.4316556163,
				"element": "F" 
			},
			{
				"x": 0.4881075302,
				"y": 3.8096653085,
				"z": -0.0799103507,
				"element": "F" 
			},
			{
				"x": -0.5877269202,
				"y": 3.9908274489,
				"z": 1.7943960061,
				"element": "F" 
			},
			{
				"x": 2.2739736244,
				"y": -2.0276771219,
				"z": 0.2122965346,
				"element": "H" 
			},
			{
				"x": 1.1502742562,
				"y": -0.144500925,
				"z": 0.9934274479,
				"element": "H" 
			},
			{
				"x": 1.3805763578,
				"y": -1.3273151092,
				"z": 2.2969109741,
				"element": "H" 
			},
			{
				"x": -1.0710926988,
				"y": -1.1101557183,
				"z": 0.4767785781,
				"element": "H" 
			},
			{
				"x": -0.8467964528,
				"y": -2.347201096,
				"z": 1.7072157129,
				"element": "H" 
			},
			{
				"x": -0.9542488169,
				"y": -0.622120894,
				"z": 3.4174844839,
				"element": "H" 
			},
			{
				"x": -1.3537887945,
				"y": 3.6366954252,
				"z": -1.5079586415,
				"element": "H" 
			},
			{
				"x": -3.3014101727,
				"y": 2.5293720249,
				"z": -2.5704561187,
				"element": "H" 
			},
			{
				"x": -4.4119009664,
				"y": 0.6177136676,
				"z": -1.4215575227,
				"element": "H" 
			},
			{
				"x": -3.5639102375,
				"y": -0.159461202,
				"z": 0.7744076976,
				"element": "H" 
			}
		],
		 "valence_orbital": [ 
			{
				"type": "occ",
				"energy": -0.27805,
				"method": "rhf"
			},
			{
				"type": "occ",
				"energy": -0.27739,
				"method": "rhf"
			},
			{
				"type": "occ",
				"energy": -0.27302,
				"method": "rhf"
			},
			{
				"type": "occ",
				"energy": -0.25881,
				"method": "rhf"
			},
			{
				"type": "occ",
				"energy": -0.24659,
				"method": "rhf"
			},
			{
				"type": "unocc",
				"energy": -0.03851,
				"method": "rhf"
			},
			{
				"type": "unocc",
				"energy": -0.02621,
				"method": "rhf"
			},
			{
				"type": "unocc",
				"energy": 0.02809,
				"method": "rhf"
			},
			{
				"type": "unocc",
				"energy": 0.06781,
				"method": "rhf"
			},
			{
				"type": "unocc",
				"energy": 0.08069,
				"method": "rhf"
			}
		],
		"cosmo_sigma_profile": { 
			"-0.025": 0.0,
			"-0.024": 0.0,
			"-0.023": 0.0,
			"-0.022": 0.0,
			"-0.021": 0.0,
			"-0.02": 0.0,
			"-0.019": 0.0,
			"-0.018": 0.0,
			"-0.017": 0.028124923854,
			"-0.016": 0.986958450014,
			"-0.015": 0.705809400664,
			"-0.014": 1.42820656193,
			"-0.013": 1.78760003941,
			"-0.012": 2.38639065227,
			"-0.011": 2.27086458096,
			"-0.01": 1.66776442497,
			"-0.009": 1.95319112372,
			"-0.008": 1.61177520074,
			"-0.007": 8.98288181689,
			"-0.006": 12.5658710855,
			"-0.005": 15.267913504,
			"-0.004": 14.8061994636,
			"-0.003": 18.4472124037,
			"-0.002": 16.6311778492,
			"-0.001": 14.4073515714,
			"0.0": 15.6169919163,
			"0.001": 16.1444841329,
			"0.002": 25.9832970868,
			"0.003": 28.6014694214,
			"0.004": 5.44121162262,
			"0.005": 4.48532550318,
			"0.006": 2.80196546429,
			"0.007": 3.73905233085,
			"0.008": 3.1007969664,
			"0.009": 2.7506918577,
			"0.01": 3.13912639574,
			"0.011": 3.70738310857,
			"0.012": 4.80653208094,
			"0.013": 6.66149611069,
			"0.014": 2.89238578772,
			"0.015": 0.0,
			"0.016": 0.0,
			"0.017": 0.0,
			"0.018": 0.0,
			"0.019": 0.0,
			"0.02": 0.0,
			"0.021": 0.0,
			"0.022": 0.0,
			"0.023": 0.0,
			"0.024": 0.0,
			"0.025": 0.0
		}
	}
}
