{
	 "smiles": "COC1=CC=C(C=C1)C1=NN(C(N)=C1)C1=CC(C)=CC=C1", 
	 "Tm": 399.15, 
	 "num_atms": 38, 
	 "gaussian": { 
		 "optdone": 1, 
		 "sigma_profile": "yes", 
		 "theory": "DFT", 
		 "functional": "B3LYP", 
		 "basiset": "6-31G**", 
		 "properties": { 
			 "R2extent": 9950.9797, 
			 "electric_dipole_moment_norm": 2.46560967714, 
			 "electric_quadrupole_moment_norm": 22.0636119033, 
			 "total_energy": -897.517341607, 
			 "HOMO_LUMO_gap": 0.16877, 
			 "cosmo_polarized_energy": -16.09, 
			 "cosmo_cavitation_energy": 41.75, 
			 "cosmo_dispersion_energy": -30.28, 
			 "cosmo_repulsion_energy": 2.3, 
			 "cosmo_total_nonelectrostatic_energy": 13.77, 
			 "SMD_solvation_energy": 7.1 
		},
		"coords": [
			{
				"x": -0.0040781595,
				"y": -6.7600390449,
				"z": 1.3428371034,
				"element": "C" 
			},
			{
				"x": 1.1746958653,
				"y": -6.1776708185,
				"z": 0.8125408329,
				"element": "O" 
			},
			{
				"x": 1.1777395505,
				"y": -4.8326726134,
				"z": 0.5719224356,
				"element": "C" 
			},
			{
				"x": 0.0962480866,
				"y": -3.9754075747,
				"z": 0.8130030879,
				"element": "C" 
			},
			{
				"x": 0.2138932196,
				"y": -2.6158531022,
				"z": 0.5280861473,
				"element": "C" 
			},
			{
				"x": 1.3958344022,
				"y": -2.0761011196,
				"z": 0.0019432356,
				"element": "C" 
			},
			{
				"x": 2.4692989059,
				"y": -2.9531484448,
				"z": -0.2341544795,
				"element": "C" 
			},
			{
				"x": 2.3667872681,
				"y": -4.309093793,
				"z": 0.0449006976,
				"element": "C" 
			},
			{
				"x": 1.4999748473,
				"y": -0.6380987744,
				"z": -0.290087712,
				"element": "C" 
			},
			{
				"x": 0.471939533,
				"y": 0.175930728,
				"z": -0.0571493076,
				"element": "N" 
			},
			{
				"x": 0.8953646814,
				"y": 1.41850729,
				"z": -0.455261801,
				"element": "N" 
			},
			{
				"x": 2.1939223356,
				"y": 1.3856950564,
				"z": -0.9050049889,
				"element": "C" 
			},
			{
				"x": 2.8637363451,
				"y": 2.5149244648,
				"z": -1.375156127,
				"element": "N" 
			},
			{
				"x": 2.6112846959,
				"y": 0.0721050275,
				"z": -0.8230829675,
				"element": "C" 
			},
			{
				"x": 0.03296726,
				"y": 2.5320250766,
				"z": -0.2871823483,
				"element": "C" 
			},
			{
				"x": 0.0380923702,
				"y": 3.5899680097,
				"z": -1.2061273356,
				"element": "C" 
			},
			{
				"x": -0.8112826639,
				"y": 4.6898531039,
				"z": -1.0320306524,
				"element": "C" 
			},
			{
				"x": -0.8266323161,
				"y": 5.81194222,
				"z": -2.0446718163,
				"element": "C" 
			},
			{
				"x": -1.6746047777,
				"y": 4.7066975753,
				"z": 0.0701682767,
				"element": "C" 
			},
			{
				"x": -1.6949308146,
				"y": 3.6398495538,
				"z": 0.9704754345,
				"element": "C" 
			},
			{
				"x": -0.8439221178,
				"y": 2.5509035355,
				"z": 0.8042479968,
				"element": "C" 
			},
			{
				"x": -0.2596516732,
				"y": -6.3390970313,
				"z": 2.3241049214,
				"element": "H" 
			},
			{
				"x": 0.2085202219,
				"y": -7.8246137259,
				"z": 1.4546446408,
				"element": "H" 
			},
			{
				"x": -0.8598603727,
				"y": -6.6329277475,
				"z": 0.6669727065,
				"element": "H" 
			},
			{
				"x": -0.8354477953,
				"y": -4.3528078832,
				"z": 1.2180462562,
				"element": "H" 
			},
			{
				"x": -0.6241033162,
				"y": -1.9521072919,
				"z": 0.712073858,
				"element": "H" 
			},
			{
				"x": 3.4002219029,
				"y": -2.5723054648,
				"z": -0.6432138704,
				"element": "H" 
			},
			{
				"x": 3.1952074848,
				"y": -4.9858963896,
				"z": -0.1375405528,
				"element": "H" 
			},
			{
				"x": 2.6390744155,
				"y": 3.3632780604,
				"z": -0.8667910243,
				"element": "H" 
			},
			{
				"x": 3.865369359,
				"y": 2.3710993885,
				"z": -1.4008559639,
				"element": "H" 
			},
			{
				"x": 3.5838723158,
				"y": -0.3058957264,
				"z": -1.0994586638,
				"element": "H" 
			},
			{
				"x": 0.6867383254,
				"y": 3.5430191598,
				"z": -2.0745605148,
				"element": "H" 
			},
			{
				"x": -1.0117890783,
				"y": 6.7786998764,
				"z": -1.5661941196,
				"element": "H" 
			},
			{
				"x": 0.1205976597,
				"y": 5.8774091681,
				"z": -2.5878469399,
				"element": "H" 
			},
			{
				"x": -1.619121722,
				"y": 5.6615543632,
				"z": -2.7882264161,
				"element": "H" 
			},
			{
				"x": -2.3381220663,
				"y": 5.5545411928,
				"z": 0.2196306028,
				"element": "H" 
			},
			{
				"x": -2.3738957411,
				"y": 3.6616024396,
				"z": 1.8182088214,
				"element": "H" 
			},
			{
				"x": -0.8455384367,
				"y": 1.7146312558,
				"z": 1.4922905461,
				"element": "H" 
			}
		],
		 "valence_orbital": [ 
			{
				"type": "occ",
				"energy": -0.24633,
				"method": "rhf"
			},
			{
				"type": "occ",
				"energy": -0.24196,
				"method": "rhf"
			},
			{
				"type": "occ",
				"energy": -0.2305,
				"method": "rhf"
			},
			{
				"type": "occ",
				"energy": -0.20831,
				"method": "rhf"
			},
			{
				"type": "occ",
				"energy": -0.18739,
				"method": "rhf"
			},
			{
				"type": "unocc",
				"energy": -0.01862,
				"method": "rhf"
			},
			{
				"type": "unocc",
				"energy": -0.0034,
				"method": "rhf"
			},
			{
				"type": "unocc",
				"energy": 0.00784,
				"method": "rhf"
			},
			{
				"type": "unocc",
				"energy": 0.00962,
				"method": "rhf"
			},
			{
				"type": "unocc",
				"energy": 0.06012,
				"method": "rhf"
			}
		],
		"cosmo_sigma_profile": { 
			"-0.025": 0.0,
			"-0.024": 0.0,
			"-0.023": 0.0,
			"-0.022": 0.0,
			"-0.021": 0.0,
			"-0.02": 0.0,
			"-0.019": 0.0,
			"-0.018": 0.0,
			"-0.017": 0.0,
			"-0.016": 0.0,
			"-0.015": 0.0,
			"-0.014": 0.229694451322,
			"-0.013": 1.60762267868,
			"-0.012": 2.16460722606,
			"-0.011": 3.08411921352,
			"-0.01": 2.73185221017,
			"-0.009": 1.78419500263,
			"-0.008": 2.66968860824,
			"-0.007": 5.42361800773,
			"-0.006": 12.8814965763,
			"-0.005": 24.9075812657,
			"-0.004": 31.4164006974,
			"-0.003": 28.6426440168,
			"-0.002": 21.8177809698,
			"-0.001": 21.7502066625,
			"0.0": 21.0357648533,
			"0.001": 17.0118557654,
			"0.002": 18.6139381212,
			"0.003": 20.4216936767,
			"0.004": 26.6212078145,
			"0.005": 31.7485293604,
			"0.006": 14.4405306045,
			"0.007": 5.40558391913,
			"0.008": 4.49592686279,
			"0.009": 4.238768936,
			"0.01": 3.0282415623,
			"0.011": 2.47533973451,
			"0.012": 1.19145029308,
			"0.013": 0.86319915842,
			"0.014": 0.0781610039061,
			"0.015": 0.0,
			"0.016": 0.0,
			"0.017": 0.0,
			"0.018": 0.0,
			"0.019": 0.0,
			"0.02": 0.0,
			"0.021": 0.0,
			"0.022": 0.0,
			"0.023": 0.0,
			"0.024": 0.0,
			"0.025": 0.0
		}
	}
}
