{
	 "smiles": "CC(C)(C)CC1=NC(=NO1)C1=CC=C(C=C1)C(O)=O", 
	 "Tm": 501.15, 
	 "num_atms": 35, 
	 "gaussian": { 
		 "optdone": 1, 
		 "sigma_profile": "yes", 
		 "theory": "DFT", 
		 "functional": "B3LYP", 
		 "basiset": "6-31G**", 
		 "properties": { 
			 "R2extent": 9933.9577, 
			 "electric_dipole_moment_norm": 5.14325800053, 
			 "electric_quadrupole_moment_norm": 29.423768668, 
			 "total_energy": -878.304452727, 
			 "HOMO_LUMO_gap": 0.18461, 
			 "cosmo_polarized_energy": -17.0, 
			 "cosmo_cavitation_energy": 38.97, 
			 "cosmo_dispersion_energy": -27.42, 
			 "cosmo_repulsion_energy": 2.08, 
			 "cosmo_total_nonelectrostatic_energy": 13.63, 
			 "SMD_solvation_energy": 6.25 
		},
		"coords": [
			{
				"x": 3.7865437637,
				"y": 1.7636493528,
				"z": 0.4950124779,
				"element": "C" 
			},
			{
				"x": 2.6550193298,
				"y": 1.5233955276,
				"z": 1.5113889551,
				"element": "C" 
			},
			{
				"x": 2.5305803703,
				"y": 0.0199803523,
				"z": 1.8177925306,
				"element": "C" 
			},
			{
				"x": 2.9629449566,
				"y": 2.2889677055,
				"z": 2.8123222494,
				"element": "C" 
			},
			{
				"x": 1.3012481302,
				"y": 2.0790424363,
				"z": 0.9612167875,
				"element": "C" 
			},
			{
				"x": 0.857916132,
				"y": 1.5064257585,
				"z": -0.342304172,
				"element": "C" 
			},
			{
				"x": 0.1762846411,
				"y": 0.4213054345,
				"z": -0.5751449078,
				"element": "N" 
			},
			{
				"x": 0.0872980761,
				"y": 0.4073988714,
				"z": -1.952683377,
				"element": "C" 
			},
			{
				"x": 0.6751831592,
				"y": 1.4251780756,
				"z": -2.5431046681,
				"element": "N" 
			},
			{
				"x": 1.1921495824,
				"y": 2.1631955643,
				"z": -1.4725159716,
				"element": "O" 
			},
			{
				"x": -0.6077216243,
				"y": -0.6500881658,
				"z": -2.6996245381,
				"element": "C" 
			},
			{
				"x": -0.6573030222,
				"y": -0.621427981,
				"z": -4.1017606138,
				"element": "C" 
			},
			{
				"x": -1.3250834303,
				"y": -1.6249955214,
				"z": -4.7945191082,
				"element": "C" 
			},
			{
				"x": -1.9515752937,
				"y": -2.6738682129,
				"z": -4.1030381418,
				"element": "C" 
			},
			{
				"x": -1.8783442839,
				"y": -2.7106337743,
				"z": -2.7043414979,
				"element": "C" 
			},
			{
				"x": -1.2209696574,
				"y": -1.7043048863,
				"z": -2.0060563434,
				"element": "C" 
			},
			{
				"x": -2.6746119851,
				"y": -3.7926348863,
				"z": -4.7925851761,
				"element": "C" 
			},
			{
				"x": -3.1013410526,
				"y": -3.5559101908,
				"z": -6.0621323744,
				"element": "O" 
			},
			{
				"x": -2.8854577136,
				"y": -4.8636502138,
				"z": -4.2742201885,
				"element": "O" 
			},
			{
				"x": 4.744615533,
				"y": 1.4326305117,
				"z": 0.9094912781,
				"element": "H" 
			},
			{
				"x": 3.6217829837,
				"y": 1.2138372534,
				"z": -0.4369656004,
				"element": "H" 
			},
			{
				"x": 3.8795218715,
				"y": 2.8259159203,
				"z": 0.2433939058,
				"element": "H" 
			},
			{
				"x": 1.7493908381,
				"y": -0.1690633118,
				"z": 2.5624178782,
				"element": "H" 
			},
			{
				"x": 2.2812080952,
				"y": -0.5573721653,
				"z": 0.9230636625,
				"element": "H" 
			},
			{
				"x": 3.4748214962,
				"y": -0.3649941643,
				"z": 2.2175718509,
				"element": "H" 
			},
			{
				"x": 2.1673096472,
				"y": 2.1529280293,
				"z": 3.5534118119,
				"element": "H" 
			},
			{
				"x": 3.072897229,
				"y": 3.3635151287,
				"z": 2.6275455445,
				"element": "H" 
			},
			{
				"x": 3.897005579,
				"y": 1.929425127,
				"z": 3.2566226922,
				"element": "H" 
			},
			{
				"x": 1.3830149837,
				"y": 3.1644653445,
				"z": 0.8423161446,
				"element": "H" 
			},
			{
				"x": 0.5110878498,
				"y": 1.8792824467,
				"z": 1.6916592156,
				"element": "H" 
			},
			{
				"x": -0.1656773307,
				"y": 0.183708486,
				"z": -4.6369828792,
				"element": "H" 
			},
			{
				"x": -1.3163799644,
				"y": -1.6012031424,
				"z": -5.8815877319,
				"element": "H" 
			},
			{
				"x": -2.3468125767,
				"y": -3.5390249968,
				"z": -2.1842927014,
				"element": "H" 
			},
			{
				"x": -1.1709775303,
				"y": -1.7211253769,
				"z": -0.9230304063,
				"element": "H" 
			},
			{
				"x": -3.0079687827,
				"y": -2.6177503365,
				"z": -6.2776365869,
				"element": "H" 
			}
		],
		 "valence_orbital": [ 
			{
				"type": "occ",
				"energy": -0.30427,
				"method": "rhf"
			},
			{
				"type": "occ",
				"energy": -0.30017,
				"method": "rhf"
			},
			{
				"type": "occ",
				"energy": -0.27729,
				"method": "rhf"
			},
			{
				"type": "occ",
				"energy": -0.27453,
				"method": "rhf"
			},
			{
				"type": "occ",
				"energy": -0.25727,
				"method": "rhf"
			},
			{
				"type": "unocc",
				"energy": -0.07266,
				"method": "rhf"
			},
			{
				"type": "unocc",
				"energy": -0.03097,
				"method": "rhf"
			},
			{
				"type": "unocc",
				"energy": -0.01759,
				"method": "rhf"
			},
			{
				"type": "unocc",
				"energy": 0.01897,
				"method": "rhf"
			},
			{
				"type": "unocc",
				"energy": 0.05921,
				"method": "rhf"
			}
		],
		"cosmo_sigma_profile": { 
			"-0.025": 0.0,
			"-0.024": 0.0,
			"-0.023": 0.0,
			"-0.022": 0.0,
			"-0.021": 0.0,
			"-0.02": 0.0,
			"-0.019": 0.388545381564,
			"-0.018": 1.02375898447,
			"-0.017": 1.26210182202,
			"-0.016": 0.822723542721,
			"-0.015": 0.987787214603,
			"-0.014": 0.654813798538,
			"-0.013": 0.810317345716,
			"-0.012": 1.58816850313,
			"-0.011": 1.26898325538,
			"-0.01": 1.31385851311,
			"-0.009": 1.13754472752,
			"-0.008": 1.8304233291,
			"-0.007": 5.08824389871,
			"-0.006": 9.44307033555,
			"-0.005": 13.340100126,
			"-0.004": 20.3071658556,
			"-0.003": 30.744709739,
			"-0.002": 28.8009829573,
			"-0.001": 27.7399670512,
			"0.0": 31.0365610111,
			"0.001": 38.7333922911,
			"0.002": 23.3244850968,
			"0.003": 7.12309132826,
			"0.004": 6.67811983581,
			"0.005": 6.50016264577,
			"0.006": 7.91620277956,
			"0.007": 6.46011612768,
			"0.008": 5.19094298447,
			"0.009": 6.37375818309,
			"0.01": 6.58429314544,
			"0.011": 7.26166553931,
			"0.012": 5.44977040492,
			"0.013": 1.10163071454,
			"0.014": 0.00180065394821,
			"0.015": 0.0,
			"0.016": 0.0,
			"0.017": 0.0,
			"0.018": 0.0,
			"0.019": 0.0,
			"0.02": 0.0,
			"0.021": 0.0,
			"0.022": 0.0,
			"0.023": 0.0,
			"0.024": 0.0,
			"0.025": 0.0
		}
	}
}
