{
	 "smiles": "CCOC(=O)C1=CC=C(OCC)C=C1", 
	 "Tm": 282.15, 
	 "num_atms": 28, 
	 "gaussian": { 
		 "optdone": 1, 
		 "sigma_profile": "yes", 
		 "theory": "DFT", 
		 "functional": "B3LYP", 
		 "basiset": "6-31G**", 
		 "properties": { 
			 "R2extent": 4807.4179, 
			 "electric_dipole_moment_norm": 3.47294872407, 
			 "electric_quadrupole_moment_norm": 11.6588720964, 
			 "total_energy": -653.299497822, 
			 "HOMO_LUMO_gap": 0.19455, 
			 "cosmo_polarized_energy": -9.28, 
			 "cosmo_cavitation_energy": 31.83, 
			 "cosmo_dispersion_energy": -23.24, 
			 "cosmo_repulsion_energy": 1.87, 
			 "cosmo_total_nonelectrostatic_energy": 10.45, 
			 "SMD_solvation_energy": 6.94 
		},
		"coords": [
			{
				"x": 2.6395873906,
				"y": -3.826003217,
				"z": -1.4226787126,
				"element": "C" 
			},
			{
				"x": 2.9807117638,
				"y": -2.815175102,
				"z": -0.337449409,
				"element": "C" 
			},
			{
				"x": 1.9367774611,
				"y": -1.8268195557,
				"z": -0.1899249656,
				"element": "O" 
			},
			{
				"x": 1.9940145233,
				"y": -0.7598160525,
				"z": -1.0261428457,
				"element": "C" 
			},
			{
				"x": 2.8685992081,
				"y": -0.6114775693,
				"z": -1.8609505477,
				"element": "O" 
			},
			{
				"x": 0.8806860327,
				"y": 0.1952820548,
				"z": -0.8018276973,
				"element": "C" 
			},
			{
				"x": -0.1090257921,
				"y": -0.0069628478,
				"z": 0.1665601537,
				"element": "C" 
			},
			{
				"x": -1.1374785801,
				"y": 0.9175129273,
				"z": 0.3429965576,
				"element": "C" 
			},
			{
				"x": -1.1820682349,
				"y": 2.0667244078,
				"z": -0.4604051637,
				"element": "C" 
			},
			{
				"x": -2.1353448641,
				"y": 3.0310728105,
				"z": -0.3754053148,
				"element": "O" 
			},
			{
				"x": -3.1794160784,
				"y": 2.8936937628,
				"z": 0.591228759,
				"element": "C" 
			},
			{
				"x": -4.0865708702,
				"y": 4.1040507745,
				"z": 0.4581745877,
				"element": "C" 
			},
			{
				"x": -0.190509548,
				"y": 2.275782523,
				"z": -1.4355917873,
				"element": "C" 
			},
			{
				"x": 0.8254433643,
				"y": 1.3502621256,
				"z": -1.6014851138,
				"element": "C" 
			},
			{
				"x": 3.4085296407,
				"y": -4.6050365702,
				"z": -1.4610911033,
				"element": "H" 
			},
			{
				"x": 1.676025416,
				"y": -4.3037886632,
				"z": -1.2217578609,
				"element": "H" 
			},
			{
				"x": 2.5964327539,
				"y": -3.3379074856,
				"z": -2.3992219489,
				"element": "H" 
			},
			{
				"x": 3.0469647287,
				"y": -3.2901560062,
				"z": 0.6447162153,
				"element": "H" 
			},
			{
				"x": 3.9212084752,
				"y": -2.305035314,
				"z": -0.5586449134,
				"element": "H" 
			},
			{
				"x": -0.073459648,
				"y": -0.8955012949,
				"z": 0.7864991882,
				"element": "H" 
			},
			{
				"x": -1.8910960247,
				"y": 0.7369230304,
				"z": 1.0997874301,
				"element": "H" 
			},
			{
				"x": -2.7472282065,
				"y": 2.8356089739,
				"z": 1.5998049182,
				"element": "H" 
			},
			{
				"x": -3.7356121991,
				"y": 1.9638470883,
				"z": 0.4083761902,
				"element": "H" 
			},
			{
				"x": -4.5153330499,
				"y": 4.15600379,
				"z": -0.5463989206,
				"element": "H" 
			},
			{
				"x": -3.5287452002,
				"y": 5.0261899124,
				"z": 0.6430789514,
				"element": "H" 
			},
			{
				"x": -4.9044374876,
				"y": 4.0413277789,
				"z": 1.1824283196,
				"element": "H" 
			},
			{
				"x": -0.2466368797,
				"y": 3.171921413,
				"z": -2.0446050774,
				"element": "H" 
			},
			{
				"x": 1.5966819052,
				"y": 1.4988763049,
				"z": -2.3496698892,
				"element": "H" 
			}
		],
		 "valence_orbital": [ 
			{
				"type": "occ",
				"energy": -0.31813,
				"method": "rhf"
			},
			{
				"type": "occ",
				"energy": -0.28982,
				"method": "rhf"
			},
			{
				"type": "occ",
				"energy": -0.26399,
				"method": "rhf"
			},
			{
				"type": "occ",
				"energy": -0.25588,
				"method": "rhf"
			},
			{
				"type": "occ",
				"energy": -0.22575,
				"method": "rhf"
			},
			{
				"type": "unocc",
				"energy": -0.0312,
				"method": "rhf"
			},
			{
				"type": "unocc",
				"energy": -0.00392,
				"method": "rhf"
			},
			{
				"type": "unocc",
				"energy": 0.07171,
				"method": "rhf"
			},
			{
				"type": "unocc",
				"energy": 0.09215,
				"method": "rhf"
			},
			{
				"type": "unocc",
				"energy": 0.09874,
				"method": "rhf"
			}
		],
		"cosmo_sigma_profile": { 
			"-0.025": 0.0,
			"-0.024": 0.0,
			"-0.023": 0.0,
			"-0.022": 0.0,
			"-0.021": 0.0,
			"-0.02": 0.0,
			"-0.019": 0.0,
			"-0.018": 0.0,
			"-0.017": 0.0,
			"-0.016": 0.0,
			"-0.015": 0.0,
			"-0.014": 0.0,
			"-0.013": 0.0,
			"-0.012": 0.0,
			"-0.011": 0.0,
			"-0.01": 0.0,
			"-0.009": 0.0,
			"-0.008": 0.0,
			"-0.007": 1.7199085959,
			"-0.006": 7.71156597634,
			"-0.005": 17.772693322,
			"-0.004": 26.9346558826,
			"-0.003": 28.3005729028,
			"-0.002": 22.9816851069,
			"-0.001": 23.1038335167,
			"0.0": 24.841320371,
			"0.001": 17.8319026352,
			"0.002": 16.8766686696,
			"0.003": 17.9679070973,
			"0.004": 16.5421237117,
			"0.005": 5.529506135,
			"0.006": 5.14203275417,
			"0.007": 2.7791265296,
			"0.008": 3.23353864374,
			"0.009": 2.70397455312,
			"0.01": 2.19215210216,
			"0.011": 1.52351004967,
			"0.012": 4.38631341255,
			"0.013": 1.49624803002,
			"0.014": 0.0,
			"0.015": 0.0,
			"0.016": 0.0,
			"0.017": 0.0,
			"0.018": 0.0,
			"0.019": 0.0,
			"0.02": 0.0,
			"0.021": 0.0,
			"0.022": 0.0,
			"0.023": 0.0,
			"0.024": 0.0,
			"0.025": 0.0
		}
	}
}
