{
	 "smiles": "CC1=NC(C)=NN1", 
	 "Tm": 402.15, 
	 "num_atms": 14, 
	 "gaussian": { 
		 "optdone": 1, 
		 "sigma_profile": "yes", 
		 "theory": "DFT", 
		 "functional": "B3LYP", 
		 "basiset": "6-31G**", 
		 "properties": { 
			 "R2extent": 882.5465, 
			 "electric_dipole_moment_norm": 2.69401522082, 
			 "electric_quadrupole_moment_norm": 7.44021712318, 
			 "total_energy": -320.899862527, 
			 "HOMO_LUMO_gap": 0.2574, 
			 "cosmo_polarized_energy": -11.62, 
			 "cosmo_cavitation_energy": 17.78, 
			 "cosmo_dispersion_energy": -13.52, 
			 "cosmo_repulsion_energy": 1.17, 
			 "cosmo_total_nonelectrostatic_energy": 5.43, 
			 "SMD_solvation_energy": 0.72 
		},
		"coords": [
			{
				"x": -0.6169026745,
				"y": -2.8648996893,
				"z": -0.6440144575,
				"element": "C" 
			},
			{
				"x": -0.0324548772,
				"y": -1.4950892614,
				"z": -0.527949693,
				"element": "C" 
			},
			{
				"x": 0.9566843929,
				"y": -1.1245757226,
				"z": 0.2711672129,
				"element": "N" 
			},
			{
				"x": 1.1112908547,
				"y": 0.2099868992,
				"z": 0.0009414639,
				"element": "C" 
			},
			{
				"x": 2.1362555191,
				"y": 1.0611008827,
				"z": 0.6842272213,
				"element": "C" 
			},
			{
				"x": 0.278107903,
				"y": 0.6861302892,
				"z": -0.9159691532,
				"element": "N" 
			},
			{
				"x": -0.4449111953,
				"y": -0.4201182726,
				"z": -1.2413484864,
				"element": "N" 
			},
			{
				"x": -1.6825590208,
				"y": -2.873166001,
				"z": -0.3897203047,
				"element": "H" 
			},
			{
				"x": -0.511130104,
				"y": -3.2655124812,
				"z": -1.6582532851,
				"element": "H" 
			},
			{
				"x": -0.0916314459,
				"y": -3.5265243598,
				"z": 0.0456818396,
				"element": "H" 
			},
			{
				"x": 2.8333624833,
				"y": 1.496488424,
				"z": -0.0384912938,
				"element": "H" 
			},
			{
				"x": 1.6657379677,
				"y": 1.8875147076,
				"z": 1.2259828592,
				"element": "H" 
			},
			{
				"x": 2.6991413644,
				"y": 0.4512784746,
				"z": 1.3925833307,
				"element": "H" 
			},
			{
				"x": -1.1743911672,
				"y": -0.3548138895,
				"z": -1.9352372537,
				"element": "H" 
			}
		],
		 "valence_orbital": [ 
			{
				"type": "occ",
				"energy": -0.37614,
				"method": "rhf"
			},
			{
				"type": "occ",
				"energy": -0.3156,
				"method": "rhf"
			},
			{
				"type": "occ",
				"energy": -0.28283,
				"method": "rhf"
			},
			{
				"type": "occ",
				"energy": -0.26399,
				"method": "rhf"
			},
			{
				"type": "occ",
				"energy": -0.24403,
				"method": "rhf"
			},
			{
				"type": "unocc",
				"energy": 0.01337,
				"method": "rhf"
			},
			{
				"type": "unocc",
				"energy": 0.06526,
				"method": "rhf"
			},
			{
				"type": "unocc",
				"energy": 0.07679,
				"method": "rhf"
			},
			{
				"type": "unocc",
				"energy": 0.11589,
				"method": "rhf"
			},
			{
				"type": "unocc",
				"energy": 0.12934,
				"method": "rhf"
			}
		],
		"cosmo_sigma_profile": { 
			"-0.025": 0.0,
			"-0.024": 0.0,
			"-0.023": 0.0,
			"-0.022": 0.0,
			"-0.021": 0.0,
			"-0.02": 0.0,
			"-0.019": 0.0,
			"-0.018": 0.0,
			"-0.017": 0.66145744184,
			"-0.016": 1.47733322757,
			"-0.015": 1.8572661071,
			"-0.014": 0.842641294011,
			"-0.013": 0.97304957788,
			"-0.012": 0.680752421152,
			"-0.011": 1.377937549,
			"-0.01": 1.16940247809,
			"-0.009": 0.848653467733,
			"-0.008": 0.897265591955,
			"-0.007": 1.18801052814,
			"-0.006": 5.85150064279,
			"-0.005": 9.82743672519,
			"-0.004": 11.2201980107,
			"-0.003": 11.4296378134,
			"-0.002": 13.7195830108,
			"-0.001": 14.3253946511,
			"0.0": 10.1840341928,
			"0.001": 7.6917166205,
			"0.002": 5.75088783756,
			"0.003": 4.11515390708,
			"0.004": 4.67818012059,
			"0.005": 3.77560320671,
			"0.006": 3.02502726518,
			"0.007": 3.18581423879,
			"0.008": 1.83650184086,
			"0.009": 2.83142838603,
			"0.01": 2.70184838035,
			"0.011": 1.79996728983,
			"0.012": 2.00864957822,
			"0.013": 2.3580906814,
			"0.014": 1.96739968438,
			"0.015": 2.20275776751,
			"0.016": 1.31164684277,
			"0.017": 0.673517562566,
			"0.018": 0.203474239454,
			"0.019": 0.0,
			"0.02": 0.0,
			"0.021": 0.0,
			"0.022": 0.0,
			"0.023": 0.0,
			"0.024": 0.0,
			"0.025": 0.0
		}
	}
}
