{
	 "smiles": "OC(=O)C1=C(C2CC2)N(N=C1)C1=CC=CC=C1", 
	 "Tm": 447.15, 
	 "num_atms": 29, 
	 "gaussian": { 
		 "optdone": 1, 
		 "sigma_profile": "yes", 
		 "theory": "DFT", 
		 "functional": "B3LYP", 
		 "basiset": "6-31G**", 
		 "properties": { 
			 "R2extent": 7209.3571, 
			 "electric_dipole_moment_norm": 4.36692304833, 
			 "electric_quadrupole_moment_norm": 23.5613450282, 
			 "total_energy": -762.532924083, 
			 "HOMO_LUMO_gap": 0.20136, 
			 "cosmo_polarized_energy": -13.68, 
			 "cosmo_cavitation_energy": 32.95, 
			 "cosmo_dispersion_energy": -23.18, 
			 "cosmo_repulsion_energy": 1.8, 
			 "cosmo_total_nonelectrostatic_energy": 11.57, 
			 "SMD_solvation_energy": 5.69 
		},
		"coords": [
			{
				"x": 4.2830318882,
				"y": 1.9370107435,
				"z": -0.4543789071,
				"element": "O" 
			},
			{
				"x": 4.828263654,
				"y": 1.4149471723,
				"z": 0.6769732607,
				"element": "C" 
			},
			{
				"x": 5.9884625134,
				"y": 1.6234118088,
				"z": 0.9822602341,
				"element": "O" 
			},
			{
				"x": 3.8982722232,
				"y": 0.6176758273,
				"z": 1.4772251716,
				"element": "C" 
			},
			{
				"x": 2.5788229226,
				"y": 0.2170743418,
				"z": 1.2402565621,
				"element": "C" 
			},
			{
				"x": 1.7107248769,
				"y": 0.4051353392,
				"z": 0.0501523145,
				"element": "C" 
			},
			{
				"x": 1.0050211335,
				"y": -0.7686263745,
				"z": -0.600569432,
				"element": "C" 
			},
			{
				"x": 2.1570012077,
				"y": -0.1059376194,
				"z": -1.3012335553,
				"element": "C" 
			},
			{
				"x": 2.205933792,
				"y": -0.4757148664,
				"z": 2.3637465882,
				"element": "N" 
			},
			{
				"x": 3.2125559548,
				"y": -0.5663994864,
				"z": 3.2875067096,
				"element": "N" 
			},
			{
				"x": 4.2236311936,
				"y": 0.0915385342,
				"z": 2.7514780941,
				"element": "C" 
			},
			{
				"x": 0.9551037229,
				"y": -1.0824717843,
				"z": 2.6842346164,
				"element": "C" 
			},
			{
				"x": -0.2498879868,
				"y": -0.423952777,
				"z": 2.4236477226,
				"element": "C" 
			},
			{
				"x": -1.4559129182,
				"y": -1.0386426515,
				"z": 2.7611094539,
				"element": "C" 
			},
			{
				"x": -1.4623448464,
				"y": -2.293177167,
				"z": 3.3726090312,
				"element": "C" 
			},
			{
				"x": -0.2525239298,
				"y": -2.9343746353,
				"z": 3.6494748334,
				"element": "C" 
			},
			{
				"x": 0.9578083803,
				"y": -2.3355536697,
				"z": 3.3058848085,
				"element": "C" 
			},
			{
				"x": 5.0037391148,
				"y": 2.4360123636,
				"z": -0.8739942146,
				"element": "H" 
			},
			{
				"x": 1.177690614,
				"y": 1.3541066048,
				"z": 0.0270831599,
				"element": "H" 
			},
			{
				"x": 1.1670848801,
				"y": -1.7541220172,
				"z": -0.1762147809,
				"element": "H" 
			},
			{
				"x": -0.0021144421,
				"y": -0.6059725034,
				"z": -0.9712368811,
				"element": "H" 
			},
			{
				"x": 1.9591719734,
				"y": 0.5255995587,
				"z": -2.1609224838,
				"element": "H" 
			},
			{
				"x": 3.1004238292,
				"y": -0.6394225159,
				"z": -1.3463571093,
				"element": "H" 
			},
			{
				"x": 5.162815043,
				"y": 0.1897224671,
				"z": 3.2778198164,
				"element": "H" 
			},
			{
				"x": -0.2434980679,
				"y": 0.5636241853,
				"z": 1.9777420421,
				"element": "H" 
			},
			{
				"x": -2.3911900789,
				"y": -0.5256255565,
				"z": 2.5578558703,
				"element": "H" 
			},
			{
				"x": -2.4034250462,
				"y": -2.7649437038,
				"z": 3.6386847159,
				"element": "H" 
			},
			{
				"x": -0.2489219706,
				"y": -3.9070938448,
				"z": 4.132176446,
				"element": "H" 
			},
			{
				"x": 1.9057603693,
				"y": -2.8146277735,
				"z": 3.5205859127,
				"element": "H" 
			}
		],
		 "valence_orbital": [ 
			{
				"type": "occ",
				"energy": -0.28569,
				"method": "rhf"
			},
			{
				"type": "occ",
				"energy": -0.26985,
				"method": "rhf"
			},
			{
				"type": "occ",
				"energy": -0.26209,
				"method": "rhf"
			},
			{
				"type": "occ",
				"energy": -0.24983,
				"method": "rhf"
			},
			{
				"type": "occ",
				"energy": -0.23795,
				"method": "rhf"
			},
			{
				"type": "unocc",
				"energy": -0.03659,
				"method": "rhf"
			},
			{
				"type": "unocc",
				"energy": -0.01297,
				"method": "rhf"
			},
			{
				"type": "unocc",
				"energy": -0.00573,
				"method": "rhf"
			},
			{
				"type": "unocc",
				"energy": 0.02485,
				"method": "rhf"
			},
			{
				"type": "unocc",
				"energy": 0.0775,
				"method": "rhf"
			}
		],
		"cosmo_sigma_profile": { 
			"-0.025": 0.0,
			"-0.024": 0.0,
			"-0.023": 0.0,
			"-0.022": 0.0,
			"-0.021": 0.0,
			"-0.02": 0.0,
			"-0.019": 0.0,
			"-0.018": 0.229124238312,
			"-0.017": 1.0673317256,
			"-0.016": 0.598103921656,
			"-0.015": 1.13043837591,
			"-0.014": 0.823639900983,
			"-0.013": 0.618859546904,
			"-0.012": 0.195148576056,
			"-0.011": 0.702073235997,
			"-0.01": 1.01017734647,
			"-0.009": 0.597769756541,
			"-0.008": 1.27260708364,
			"-0.007": 5.67479527283,
			"-0.006": 14.8579188524,
			"-0.005": 19.6249414061,
			"-0.004": 24.0672481802,
			"-0.003": 17.0609765577,
			"-0.002": 19.3085988866,
			"-0.001": 18.3713223075,
			"0.0": 19.9389594341,
			"0.001": 19.1878985902,
			"0.002": 19.0715743739,
			"0.003": 16.9401817201,
			"0.004": 17.7925529515,
			"0.005": 9.39309735572,
			"0.006": 5.28315927549,
			"0.007": 4.19264629078,
			"0.008": 4.0928013924,
			"0.009": 3.76828055248,
			"0.01": 2.82046103254,
			"0.011": 3.4892191963,
			"0.012": 6.41738643898,
			"0.013": 2.33473637477,
			"0.014": 0.78617490503,
			"0.015": 0.0111460654283,
			"0.016": 0.0,
			"0.017": 0.0,
			"0.018": 0.0,
			"0.019": 0.0,
			"0.02": 0.0,
			"0.021": 0.0,
			"0.022": 0.0,
			"0.023": 0.0,
			"0.024": 0.0,
			"0.025": 0.0
		}
	}
}
