{
	 "smiles": "C1=CN(C=N1)C1=CC=NC=C1", 
	 "Tm": 378.15, 
	 "num_atms": 18, 
	 "gaussian": { 
		 "optdone": 1, 
		 "sigma_profile": "yes", 
		 "theory": "DFT", 
		 "functional": "B3LYP", 
		 "basiset": "6-31G**", 
		 "properties": { 
			 "R2extent": 2242.5859, 
			 "electric_dipole_moment_norm": 1.27865717454, 
			 "electric_quadrupole_moment_norm": 15.6436109652, 
			 "total_energy": -473.302586472, 
			 "HOMO_LUMO_gap": 0.19233, 
			 "cosmo_polarized_energy": -12.43, 
			 "cosmo_cavitation_energy": 22.18, 
			 "cosmo_dispersion_energy": -16.74, 
			 "cosmo_repulsion_energy": 1.28, 
			 "cosmo_total_nonelectrostatic_energy": 6.73, 
			 "SMD_solvation_energy": 1.67 
		},
		"coords": [
			{
				"x": 0.1860640456,
				"y": -2.7006350615,
				"z": -2.371945505,
				"element": "C" 
			},
			{
				"x": 0.3688253381,
				"y": -1.7914754823,
				"z": -1.3690496772,
				"element": "C" 
			},
			{
				"x": -0.5468926097,
				"y": -0.7697452868,
				"z": -1.6087688905,
				"element": "N" 
			},
			{
				"x": -1.2250032113,
				"y": -1.1423887308,
				"z": -2.7560559091,
				"element": "C" 
			},
			{
				"x": -0.8111061591,
				"y": -2.2877918238,
				"z": -3.2340686403,
				"element": "N" 
			},
			{
				"x": -0.7426333352,
				"y": 0.4005801487,
				"z": -0.8427093894,
				"element": "C" 
			},
			{
				"x": -1.7068141477,
				"y": 1.3530127447,
				"z": -1.200188992,
				"element": "C" 
			},
			{
				"x": -1.8533582326,
				"y": 2.4871207352,
				"z": -0.4053000264,
				"element": "C" 
			},
			{
				"x": -1.1316264818,
				"y": 2.7417738685,
				"z": 0.6927544316,
				"element": "N" 
			},
			{
				"x": -0.2154173096,
				"y": 1.824203079,
				"z": 1.0216677283,
				"element": "C" 
			},
			{
				"x": 0.0205225551,
				"y": 0.6533504029,
				"z": 0.3042517706,
				"element": "C" 
			},
			{
				"x": 0.7146000972,
				"y": -3.6310427134,
				"z": -2.5256481751,
				"element": "H" 
			},
			{
				"x": 1.046165821,
				"y": -1.7791857696,
				"z": -0.532330979,
				"element": "H" 
			},
			{
				"x": -2.0060273544,
				"y": -0.536386203,
				"z": -3.1887353437,
				"element": "H" 
			},
			{
				"x": -2.336881158,
				"y": 1.2314349303,
				"z": -2.0723084373,
				"element": "H" 
			},
			{
				"x": -2.5992032462,
				"y": 3.2328272785,
				"z": -0.6740753142,
				"element": "H" 
			},
			{
				"x": 0.3724436492,
				"y": 2.0296785659,
				"z": 1.9143879249,
				"element": "H" 
			},
			{
				"x": 0.7842417393,
				"y": -0.0347306822,
				"z": 0.6443234239,
				"element": "H" 
			}
		],
		 "valence_orbital": [ 
			{
				"type": "occ",
				"energy": -0.27908,
				"method": "rhf"
			},
			{
				"type": "occ",
				"energy": -0.27839,
				"method": "rhf"
			},
			{
				"type": "occ",
				"energy": -0.26587,
				"method": "rhf"
			},
			{
				"type": "occ",
				"energy": -0.26295,
				"method": "rhf"
			},
			{
				"type": "occ",
				"energy": -0.24012,
				"method": "rhf"
			},
			{
				"type": "unocc",
				"energy": -0.04779,
				"method": "rhf"
			},
			{
				"type": "unocc",
				"energy": -0.02621,
				"method": "rhf"
			},
			{
				"type": "unocc",
				"energy": 0.03151,
				"method": "rhf"
			},
			{
				"type": "unocc",
				"energy": 0.06016,
				"method": "rhf"
			},
			{
				"type": "unocc",
				"energy": 0.07349,
				"method": "rhf"
			}
		],
		"cosmo_sigma_profile": { 
			"-0.025": 0.0,
			"-0.024": 0.0,
			"-0.023": 0.0,
			"-0.022": 0.0,
			"-0.021": 0.0,
			"-0.02": 0.0,
			"-0.019": 0.0,
			"-0.018": 0.0,
			"-0.017": 0.0,
			"-0.016": 0.0,
			"-0.015": 0.0,
			"-0.014": 0.0,
			"-0.013": 0.0,
			"-0.012": 0.39258639141,
			"-0.011": 3.03647407346,
			"-0.01": 3.71301924451,
			"-0.009": 3.96098922268,
			"-0.008": 4.68328993831,
			"-0.007": 9.30927618047,
			"-0.006": 12.0036828257,
			"-0.005": 8.73133384921,
			"-0.004": 10.3170604286,
			"-0.003": 8.8010747554,
			"-0.002": 9.97323061378,
			"-0.001": 11.3530791486,
			"0.0": 12.6467502403,
			"0.001": 16.8947682889,
			"0.002": 15.0153039904,
			"0.003": 7.90369269784,
			"0.004": 8.19956819074,
			"0.005": 5.26157910724,
			"0.006": 3.32960888392,
			"0.007": 2.75506744237,
			"0.008": 3.36979790114,
			"0.009": 2.14766648158,
			"0.01": 1.93914217158,
			"0.011": 2.64889813933,
			"0.012": 2.36927357874,
			"0.013": 1.5151457348,
			"0.014": 2.19838804164,
			"0.015": 2.1285075579,
			"0.016": 1.8433976512,
			"0.017": 1.05281309474,
			"0.018": 0.162436314569,
			"0.019": 0.0,
			"0.02": 0.0,
			"0.021": 0.0,
			"0.022": 0.0,
			"0.023": 0.0,
			"0.024": 0.0,
			"0.025": 0.0
		}
	}
}
