{
	 "smiles": "[O-][N+](=O)C1=CC2=C(N=CC=C2)C2=C1C=CC=N2", 
	 "Tm": 476.15, 
	 "num_atms": 24, 
	 "gaussian": { 
		 "optdone": 1, 
		 "sigma_profile": "yes", 
		 "theory": "DFT", 
		 "functional": "B3LYP", 
		 "basiset": "6-31G**", 
		 "properties": { 
			 "R2extent": 4503.2143, 
			 "electric_dipole_moment_norm": 2.44034468672, 
			 "electric_quadrupole_moment_norm": 22.4413727655, 
			 "total_energy": -776.098731073, 
			 "HOMO_LUMO_gap": 0.15212, 
			 "cosmo_polarized_energy": -15.14, 
			 "cosmo_cavitation_energy": 29.09, 
			 "cosmo_dispersion_energy": -21.85, 
			 "cosmo_repulsion_energy": 1.63, 
			 "cosmo_total_nonelectrostatic_energy": 8.87, 
			 "SMD_solvation_energy": 4.32 
		},
		"coords": [
			{
				"x": -1.224277208,
				"y": -2.641501712,
				"z": -2.160621338,
				"element": "O" 
			},
			{
				"x": -1.7878367139,
				"y": -1.6396084312,
				"z": -1.7211548298,
				"element": "N" 
			},
			{
				"x": -2.9983091816,
				"y": -1.569959389,
				"z": -1.5014795843,
				"element": "O" 
			},
			{
				"x": -0.9478942933,
				"y": -0.4663887529,
				"z": -1.4100004541,
				"element": "C" 
			},
			{
				"x": 0.3658258113,
				"y": -0.7366549052,
				"z": -1.161259421,
				"element": "C" 
			},
			{
				"x": 1.2719914933,
				"y": 0.3012091401,
				"z": -0.8000784683,
				"element": "C" 
			},
			{
				"x": 0.8131718996,
				"y": 1.64403123,
				"z": -0.7119991099,
				"element": "C" 
			},
			{
				"x": 1.6318549907,
				"y": 2.6628446403,
				"z": -0.3680718551,
				"element": "N" 
			},
			{
				"x": 2.8991726781,
				"y": 2.3824102838,
				"z": -0.1100435278,
				"element": "C" 
			},
			{
				"x": 3.4567148201,
				"y": 1.0866244341,
				"z": -0.1695685027,
				"element": "C" 
			},
			{
				"x": 2.6324968419,
				"y": 0.0390191963,
				"z": -0.5169607349,
				"element": "C" 
			},
			{
				"x": -0.5871469111,
				"y": 1.9344282396,
				"z": -1.0077382023,
				"element": "C" 
			},
			{
				"x": -1.4847346963,
				"y": 0.8751577107,
				"z": -1.3554214681,
				"element": "C" 
			},
			{
				"x": -2.8193806353,
				"y": 1.2372769894,
				"z": -1.6618188101,
				"element": "C" 
			},
			{
				"x": -3.1916978992,
				"y": 2.5636461702,
				"z": -1.5987620309,
				"element": "C" 
			},
			{
				"x": -2.2326794871,
				"y": 3.5226508176,
				"z": -1.2252351981,
				"element": "C" 
			},
			{
				"x": -0.9761731282,
				"y": 3.2264144054,
				"z": -0.9435339046,
				"element": "N" 
			},
			{
				"x": 0.7146416172,
				"y": -1.7601411162,
				"z": -1.2335423678,
				"element": "H" 
			},
			{
				"x": 3.5295572181,
				"y": 3.2275570776,
				"z": 0.1638837733,
				"element": "H" 
			},
			{
				"x": 4.5070488308,
				"y": 0.9325893692,
				"z": 0.0551119566,
				"element": "H" 
			},
			{
				"x": 3.0057037842,
				"y": -0.9796975421,
				"z": -0.5778376888,
				"element": "H" 
			},
			{
				"x": -3.5334739899,
				"y": 0.4745190508,
				"z": -1.9352015098,
				"element": "H" 
			},
			{
				"x": -4.20794324,
				"y": 2.8656676532,
				"z": -1.8309269328,
				"element": "H" 
			},
			{
				"x": -2.5064326012,
				"y": 4.5749054402,
				"z": -1.1596397906,
				"element": "H" 
			}
		],
		 "valence_orbital": [ 
			{
				"type": "occ",
				"energy": -0.29421,
				"method": "rhf"
			},
			{
				"type": "occ",
				"energy": -0.2718,
				"method": "rhf"
			},
			{
				"type": "occ",
				"energy": -0.26231,
				"method": "rhf"
			},
			{
				"type": "occ",
				"energy": -0.25513,
				"method": "rhf"
			},
			{
				"type": "occ",
				"energy": -0.25356,
				"method": "rhf"
			},
			{
				"type": "unocc",
				"energy": -0.10144,
				"method": "rhf"
			},
			{
				"type": "unocc",
				"energy": -0.06669,
				"method": "rhf"
			},
			{
				"type": "unocc",
				"energy": -0.05201,
				"method": "rhf"
			},
			{
				"type": "unocc",
				"energy": -0.02149,
				"method": "rhf"
			},
			{
				"type": "unocc",
				"energy": 0.00745,
				"method": "rhf"
			}
		],
		"cosmo_sigma_profile": { 
			"-0.025": 0.0,
			"-0.024": 0.0,
			"-0.023": 0.0,
			"-0.022": 0.0,
			"-0.021": 0.0,
			"-0.02": 0.0,
			"-0.019": 0.0,
			"-0.018": 0.0,
			"-0.017": 0.0,
			"-0.016": 0.0,
			"-0.015": 0.0,
			"-0.014": 0.0,
			"-0.013": 0.0,
			"-0.012": 0.0,
			"-0.011": 0.0,
			"-0.01": 0.817277907558,
			"-0.009": 2.56268650874,
			"-0.008": 6.62668037888,
			"-0.007": 14.7544210089,
			"-0.006": 15.5469335407,
			"-0.005": 14.2908297787,
			"-0.004": 12.5448056922,
			"-0.003": 13.8247695914,
			"-0.002": 17.5307845487,
			"-0.001": 25.4836290187,
			"0.0": 22.7964621076,
			"0.001": 21.783655775,
			"0.002": 9.45735920204,
			"0.003": 5.19379361384,
			"0.004": 6.25510599679,
			"0.005": 5.00108788891,
			"0.006": 5.70638880565,
			"0.007": 9.63546695422,
			"0.008": 7.74232871709,
			"0.009": 4.90156861837,
			"0.01": 3.01542409641,
			"0.011": 1.55238037123,
			"0.012": 1.51455670317,
			"0.013": 0.778730839201,
			"0.014": 0.740623317008,
			"0.015": 1.36276280558,
			"0.016": 0.919878947277,
			"0.017": 0.863258435983,
			"0.018": 1.14620143411,
			"0.019": 0.423202361077,
			"0.02": 0.943003827002,
			"0.021": 0.36953845309,
			"0.022": 0.000138351843016,
			"0.023": 0.0,
			"0.024": 0.0,
			"0.025": 0.0
		}
	}
}
