{
	 "smiles": "CC(C)C[N+]([O-])=O", 
	 "Tm": 196.35, 
	 "num_atms": 16, 
	 "gaussian": { 
		 "optdone": 1, 
		 "sigma_profile": "yes", 
		 "theory": "DFT", 
		 "functional": "B3LYP", 
		 "basiset": "6-31G**", 
		 "properties": { 
			 "R2extent": 1267.1045, 
			 "electric_dipole_moment_norm": 3.62997153846, 
			 "electric_quadrupole_moment_norm": 8.27086716191, 
			 "total_energy": -362.960966939, 
			 "HOMO_LUMO_gap": 0.22264, 
			 "cosmo_polarized_energy": -7.7, 
			 "cosmo_cavitation_energy": 19.02, 
			 "cosmo_dispersion_energy": -13.65, 
			 "cosmo_repulsion_energy": 1.16, 
			 "cosmo_total_nonelectrostatic_energy": 6.53, 
			 "SMD_solvation_energy": 5.44 
		},
		"coords": [
			{
				"x": 2.8196298292,
				"y": 0.573602815,
				"z": -0.2826012428,
				"element": "C" 
			},
			{
				"x": 1.4815687238,
				"y": 0.3342128105,
				"z": -0.9968958614,
				"element": "C" 
			},
			{
				"x": 1.2855414059,
				"y": 1.2844590664,
				"z": -2.1870560277,
				"element": "C" 
			},
			{
				"x": 0.2836704084,
				"y": 0.3554360061,
				"z": -0.0241289222,
				"element": "C" 
			},
			{
				"x": 0.1135414276,
				"y": 1.7059469149,
				"z": 0.618217319,
				"element": "N" 
			},
			{
				"x": 0.7226737382,
				"y": 1.912319281,
				"z": 1.6654406366,
				"element": "O" 
			},
			{
				"x": -0.5925413128,
				"y": 2.5235090135,
				"z": 0.0322520284,
				"element": "O" 
			},
			{
				"x": 3.6479770897,
				"y": 0.4560189815,
				"z": -0.9879996669,
				"element": "H" 
			},
			{
				"x": 2.9702687547,
				"y": -0.1347993686,
				"z": 0.5382264042,
				"element": "H" 
			},
			{
				"x": 2.8749767805,
				"y": 1.5822959587,
				"z": 0.1373611384,
				"element": "H" 
			},
			{
				"x": 1.4821833656,
				"y": -0.6955575044,
				"z": -1.3817496565,
				"element": "H" 
			},
			{
				"x": 1.2605485869,
				"y": 2.3298408837,
				"z": -1.8654209021,
				"element": "H" 
			},
			{
				"x": 2.1091918612,
				"y": 1.1699895831,
				"z": -2.8984361344,
				"element": "H" 
			},
			{
				"x": 0.3495779571,
				"y": 1.0791002238,
				"z": -2.7162977971,
				"element": "H" 
			},
			{
				"x": 0.4296011945,
				"y": -0.3469811015,
				"z": 0.7974690881,
				"element": "H" 
			},
			{
				"x": -0.6528098107,
				"y": 0.1558064361,
				"z": -0.5464804038,
				"element": "H" 
			}
		],
		 "valence_orbital": [ 
			{
				"type": "occ",
				"energy": -0.35455,
				"method": "rhf"
			},
			{
				"type": "occ",
				"energy": -0.35172,
				"method": "rhf"
			},
			{
				"type": "occ",
				"energy": -0.30823,
				"method": "rhf"
			},
			{
				"type": "occ",
				"energy": -0.29617,
				"method": "rhf"
			},
			{
				"type": "occ",
				"energy": -0.28799,
				"method": "rhf"
			},
			{
				"type": "unocc",
				"energy": -0.06535,
				"method": "rhf"
			},
			{
				"type": "unocc",
				"energy": 0.07192,
				"method": "rhf"
			},
			{
				"type": "unocc",
				"energy": 0.11747,
				"method": "rhf"
			},
			{
				"type": "unocc",
				"energy": 0.1219,
				"method": "rhf"
			},
			{
				"type": "unocc",
				"energy": 0.13119,
				"method": "rhf"
			}
		],
		"cosmo_sigma_profile": { 
			"-0.025": 0.0,
			"-0.024": 0.0,
			"-0.023": 0.0,
			"-0.022": 0.0,
			"-0.021": 0.0,
			"-0.02": 0.0,
			"-0.019": 0.0,
			"-0.018": 0.0,
			"-0.017": 0.0,
			"-0.016": 0.0,
			"-0.015": 0.0,
			"-0.014": 0.0,
			"-0.013": 0.0,
			"-0.012": 0.0,
			"-0.011": 0.0,
			"-0.01": 0.0,
			"-0.009": 0.0,
			"-0.008": 1.51366707437,
			"-0.007": 6.55910750261,
			"-0.006": 7.84449243059,
			"-0.005": 10.8238549737,
			"-0.004": 11.3936625655,
			"-0.003": 16.0948621224,
			"-0.002": 13.8181629945,
			"-0.001": 12.312239186,
			"0.0": 13.2469162595,
			"0.001": 12.3499597091,
			"0.002": 3.16565482309,
			"0.003": 3.64908626828,
			"0.004": 2.40093727961,
			"0.005": 2.88489663104,
			"0.006": 4.23430501575,
			"0.007": 5.54593805759,
			"0.008": 9.87060979182,
			"0.009": 6.61085072944,
			"0.01": 3.13418449808,
			"0.011": 0.457723829896,
			"0.012": 0.0,
			"0.013": 0.0,
			"0.014": 0.0,
			"0.015": 0.0,
			"0.016": 0.0,
			"0.017": 0.0,
			"0.018": 0.0,
			"0.019": 0.0,
			"0.02": 0.0,
			"0.021": 0.0,
			"0.022": 0.0,
			"0.023": 0.0,
			"0.024": 0.0,
			"0.025": 0.0
		}
	}
}
