{
	 "smiles": "CN1N=CC2=C1N=C(NN)NC2=O", 
	 "Tm": 559.15, 
	 "num_atms": 21, 
	 "gaussian": { 
		 "optdone": 1, 
		 "sigma_profile": "yes", 
		 "theory": "DFT", 
		 "functional": "B3LYP", 
		 "basiset": "6-31G**", 
		 "properties": { 
			 "R2extent": 2750.3081, 
			 "electric_dipole_moment_norm": 7.53272737327, 
			 "electric_quadrupole_moment_norm": 25.6114720229, 
			 "total_energy": -637.174723044, 
			 "HOMO_LUMO_gap": 0.2054, 
			 "cosmo_polarized_energy": -20.74, 
			 "cosmo_cavitation_energy": 25.65, 
			 "cosmo_dispersion_energy": -19.48, 
			 "cosmo_repulsion_energy": 1.57, 
			 "cosmo_total_nonelectrostatic_energy": 7.74, 
			 "SMD_solvation_energy": 3.74 
		},
		"coords": [
			{
				"x": -1.097024056,
				"y": 0.805276122,
				"z": 2.4034231064,
				"element": "C" 
			},
			{
				"x": -0.93788864,
				"y": 0.2970144115,
				"z": 1.0573316384,
				"element": "N" 
			},
			{
				"x": -1.9411751184,
				"y": -0.4266864093,
				"z": 0.4658966016,
				"element": "N" 
			},
			{
				"x": -1.4912741644,
				"y": -0.7411951539,
				"z": -0.740073381,
				"element": "C" 
			},
			{
				"x": -0.1880614805,
				"y": -0.2296441516,
				"z": -0.9557313599,
				"element": "C" 
			},
			{
				"x": 0.1324007772,
				"y": 0.4381816359,
				"z": 0.2374625526,
				"element": "C" 
			},
			{
				"x": 1.2790469701,
				"y": 1.10969857,
				"z": 0.5375274271,
				"element": "N" 
			},
			{
				"x": 2.1495530978,
				"y": 1.0755388631,
				"z": -0.4435312254,
				"element": "C" 
			},
			{
				"x": 3.3801993503,
				"y": 1.6654564472,
				"z": -0.240026423,
				"element": "N" 
			},
			{
				"x": 4.1945230782,
				"y": 1.9257518856,
				"z": -1.3502260522,
				"element": "N" 
			},
			{
				"x": 1.9495304232,
				"y": 0.4663812813,
				"z": -1.6478842399,
				"element": "N" 
			},
			{
				"x": 0.7686477292,
				"y": -0.2434381522,
				"z": -2.0305725894,
				"element": "C" 
			},
			{
				"x": 0.6966892755,
				"y": -0.7462483768,
				"z": -3.1411627736,
				"element": "O" 
			},
			{
				"x": -1.9501724668,
				"y": 1.4876890743,
				"z": 2.4519101914,
				"element": "H" 
			},
			{
				"x": -1.2625926564,
				"y": -0.0200463073,
				"z": 3.1013206469,
				"element": "H" 
			},
			{
				"x": -0.1836624834,
				"y": 1.3372349792,
				"z": 2.6718416386,
				"element": "H" 
			},
			{
				"x": -2.1058419375,
				"y": -1.320454239,
				"z": -1.4153728343,
				"element": "H" 
			},
			{
				"x": 3.4064233223,
				"y": 2.2763969961,
				"z": 0.5688945902,
				"element": "H" 
			},
			{
				"x": 5.1509633195,
				"y": 1.6577385702,
				"z": -1.1411662594,
				"element": "H" 
			},
			{
				"x": 4.1690881017,
				"y": 2.9092466478,
				"z": -1.6134872615,
				"element": "H" 
			},
			{
				"x": 2.6952275583,
				"y": 0.5352073061,
				"z": -2.3322739936,
				"element": "H" 
			}
		],
		 "valence_orbital": [ 
			{
				"type": "occ",
				"energy": -0.27973,
				"method": "rhf"
			},
			{
				"type": "occ",
				"energy": -0.27827,
				"method": "rhf"
			},
			{
				"type": "occ",
				"energy": -0.25087,
				"method": "rhf"
			},
			{
				"type": "occ",
				"energy": -0.24438,
				"method": "rhf"
			},
			{
				"type": "occ",
				"energy": -0.20827,
				"method": "rhf"
			},
			{
				"type": "unocc",
				"energy": -0.00287,
				"method": "rhf"
			},
			{
				"type": "unocc",
				"energy": 0.00628,
				"method": "rhf"
			},
			{
				"type": "unocc",
				"energy": 0.0461,
				"method": "rhf"
			},
			{
				"type": "unocc",
				"energy": 0.05567,
				"method": "rhf"
			},
			{
				"type": "unocc",
				"energy": 0.08606,
				"method": "rhf"
			}
		],
		"cosmo_sigma_profile": { 
			"-0.025": 0.0,
			"-0.024": 0.0,
			"-0.023": 0.0,
			"-0.022": 0.0,
			"-0.021": 0.0,
			"-0.02": 0.0,
			"-0.019": 0.0,
			"-0.018": 0.0,
			"-0.017": 0.0,
			"-0.016": 0.0,
			"-0.015": 0.107411703106,
			"-0.014": 1.36129338957,
			"-0.013": 2.71932631938,
			"-0.012": 5.17042518178,
			"-0.011": 4.93610521538,
			"-0.01": 5.46848307479,
			"-0.009": 4.64716458311,
			"-0.008": 5.140679101,
			"-0.007": 3.58471690336,
			"-0.006": 8.59911036871,
			"-0.005": 9.11547821032,
			"-0.004": 10.3317409354,
			"-0.003": 14.4017643045,
			"-0.002": 14.0106853386,
			"-0.001": 12.2483699884,
			"0.0": 11.9218527133,
			"0.001": 11.7317374734,
			"0.002": 11.5088651387,
			"0.003": 11.3816869695,
			"0.004": 7.35369653044,
			"0.005": 6.57609806839,
			"0.006": 5.40829778118,
			"0.007": 4.92832685003,
			"0.008": 4.30369440002,
			"0.009": 3.43091290542,
			"0.01": 3.79648653947,
			"0.011": 3.58983115747,
			"0.012": 4.0674174841,
			"0.013": 6.96947168966,
			"0.014": 4.10006127283,
			"0.015": 0.996606214569,
			"0.016": 0.264473595933,
			"0.017": 0.0,
			"0.018": 0.0,
			"0.019": 0.0,
			"0.02": 0.0,
			"0.021": 0.0,
			"0.022": 0.0,
			"0.023": 0.0,
			"0.024": 0.0,
			"0.025": 0.0
		}
	}
}
