{
	 "smiles": "OCC1=CC(O)=CC=C1", 
	 "Tm": 345.15, 
	 "num_atms": 17, 
	 "gaussian": { 
		 "optdone": 1, 
		 "sigma_profile": "yes", 
		 "theory": "DFT", 
		 "functional": "B3LYP", 
		 "basiset": "6-31G**", 
		 "properties": { 
			 "R2extent": 1839.4022, 
			 "electric_dipole_moment_norm": 0.780164251937, 
			 "electric_quadrupole_moment_norm": 9.53818262459, 
			 "total_energy": -421.999756672, 
			 "HOMO_LUMO_gap": 0.21627, 
			 "cosmo_polarized_energy": -11.13, 
			 "cosmo_cavitation_energy": 20.73, 
			 "cosmo_dispersion_energy": -15.54, 
			 "cosmo_repulsion_energy": 1.29, 
			 "cosmo_total_nonelectrostatic_energy": 6.48, 
			 "SMD_solvation_energy": 3.97 
		},
		"coords": [
			{
				"x": -0.4121991985,
				"y": -1.4877958254,
				"z": 2.6598102179,
				"element": "O" 
			},
			{
				"x": 0.7206550399,
				"y": -1.922540397,
				"z": 1.9195080229,
				"element": "C" 
			},
			{
				"x": 0.6152202482,
				"y": -1.6613845301,
				"z": 0.4284950055,
				"element": "C" 
			},
			{
				"x": -0.6403701196,
				"y": -1.6659531317,
				"z": -0.1887841958,
				"element": "C" 
			},
			{
				"x": -0.750010893,
				"y": -1.4583048703,
				"z": -1.5664432257,
				"element": "C" 
			},
			{
				"x": -1.9542691049,
				"y": -1.4527408966,
				"z": -2.2130066005,
				"element": "O" 
			},
			{
				"x": 0.3968946305,
				"y": -1.2450520673,
				"z": -2.340195588,
				"element": "C" 
			},
			{
				"x": 1.6440202152,
				"y": -1.2397381824,
				"z": -1.7209406913,
				"element": "C" 
			},
			{
				"x": 1.7604846253,
				"y": -1.4410787561,
				"z": -0.3431434595,
				"element": "C" 
			},
			{
				"x": -0.5099359069,
				"y": -0.5386355302,
				"z": 2.5045713594,
				"element": "H" 
			},
			{
				"x": 1.6512669965,
				"y": -1.477845593,
				"z": 2.3053336968,
				"element": "H" 
			},
			{
				"x": 0.7853094318,
				"y": -3.001272266,
				"z": 2.1067881336,
				"element": "H" 
			},
			{
				"x": -1.5270258733,
				"y": -1.8286228023,
				"z": 0.4200232322,
				"element": "H" 
			},
			{
				"x": -2.6557315696,
				"y": -1.6245132942,
				"z": -1.5713578213,
				"element": "H" 
			},
			{
				"x": 0.2898444164,
				"y": -1.083959639,
				"z": -3.4076840457,
				"element": "H" 
			},
			{
				"x": 2.5347773108,
				"y": -1.0674022636,
				"z": -2.3186077897,
				"element": "H" 
			},
			{
				"x": 2.7385697512,
				"y": -1.4241599546,
				"z": 0.1304337491,
				"element": "H" 
			}
		],
		 "valence_orbital": [ 
			{
				"type": "occ",
				"energy": -0.33248,
				"method": "rhf"
			},
			{
				"type": "occ",
				"energy": -0.32224,
				"method": "rhf"
			},
			{
				"type": "occ",
				"energy": -0.27894,
				"method": "rhf"
			},
			{
				"type": "occ",
				"energy": -0.24528,
				"method": "rhf"
			},
			{
				"type": "occ",
				"energy": -0.22041,
				"method": "rhf"
			},
			{
				"type": "unocc",
				"energy": -0.00414,
				"method": "rhf"
			},
			{
				"type": "unocc",
				"energy": 0.01167,
				"method": "rhf"
			},
			{
				"type": "unocc",
				"energy": 0.07286,
				"method": "rhf"
			},
			{
				"type": "unocc",
				"energy": 0.0851,
				"method": "rhf"
			},
			{
				"type": "unocc",
				"energy": 0.10455,
				"method": "rhf"
			}
		],
		"cosmo_sigma_profile": { 
			"-0.025": 0.0,
			"-0.024": 0.0,
			"-0.023": 0.0,
			"-0.022": 0.0,
			"-0.021": 0.0,
			"-0.02": 0.0,
			"-0.019": 0.0,
			"-0.018": 0.19950619812,
			"-0.017": 0.99615689639,
			"-0.016": 1.39988194775,
			"-0.015": 1.7472927946,
			"-0.014": 1.83461911985,
			"-0.013": 1.82842587115,
			"-0.012": 1.38544735541,
			"-0.011": 1.75623277822,
			"-0.01": 2.20186224174,
			"-0.009": 2.10727197139,
			"-0.008": 1.43526132354,
			"-0.007": 1.38410303233,
			"-0.006": 3.9483982503,
			"-0.005": 11.3770008135,
			"-0.004": 13.3988065691,
			"-0.003": 12.7617722704,
			"-0.002": 10.7082536153,
			"-0.001": 8.8898163206,
			"0.0": 7.30287341265,
			"0.001": 7.82372303438,
			"0.002": 7.81256570661,
			"0.003": 8.47949062464,
			"0.004": 11.4771104748,
			"0.005": 11.6028282797,
			"0.006": 9.45850642485,
			"0.007": 3.4403709471,
			"0.008": 2.96727223467,
			"0.009": 1.95393315236,
			"0.01": 3.00525137659,
			"0.011": 2.96276596921,
			"0.012": 2.41719357366,
			"0.013": 1.71031827557,
			"0.014": 1.86021888767,
			"0.015": 0.115743938878,
			"0.016": 0.0,
			"0.017": 0.0,
			"0.018": 0.0,
			"0.019": 0.0,
			"0.02": 0.0,
			"0.021": 0.0,
			"0.022": 0.0,
			"0.023": 0.0,
			"0.024": 0.0,
			"0.025": 0.0
		}
	}
}
