{
	 "smiles": "ClC1=CC=C2SC3=CC=CC=C3NC2=C1", 
	 "Tm": 472.65, 
	 "num_atms": 23, 
	 "gaussian": { 
		 "optdone": 1, 
		 "sigma_profile": "yes", 
		 "theory": "DFT", 
		 "functional": "B3LYP", 
		 "basiset": "6-31G**", 
		 "properties": { 
			 "R2extent": 4950.1543, 
			 "electric_dipole_moment_norm": 2.17696027984, 
			 "electric_quadrupole_moment_norm": 12.8224287344, 
			 "total_energy": -1375.23666469, 
			 "HOMO_LUMO_gap": 0.16635, 
			 "cosmo_polarized_energy": -9.7, 
			 "cosmo_cavitation_energy": 30.0, 
			 "cosmo_dispersion_energy": -23.14, 
			 "cosmo_repulsion_energy": 1.72, 
			 "cosmo_total_nonelectrostatic_energy": 8.57, 
			 "SMD_solvation_energy": 3.74 
		},
		"coords": [
			{
				"x": 1.1691708297,
				"y": -4.9213395492,
				"z": 1.66318978,
				"element": "Cl" 
			},
			{
				"x": 1.1470179381,
				"y": -3.4585500733,
				"z": 0.6880656524,
				"element": "C" 
			},
			{
				"x": 0.9964211039,
				"y": -3.5543108362,
				"z": -0.6924436233,
				"element": "C" 
			},
			{
				"x": 0.9768729151,
				"y": -2.375934983,
				"z": -1.4417298807,
				"element": "C" 
			},
			{
				"x": 1.1342972064,
				"y": -1.1311473245,
				"z": -0.8333148265,
				"element": "C" 
			},
			{
				"x": 1.2800684485,
				"y": 0.3414988776,
				"z": -1.8288712694,
				"element": "S" 
			},
			{
				"x": 0.6276108436,
				"y": 1.5446908684,
				"z": -0.6816346932,
				"element": "C" 
			},
			{
				"x": 0.0130233682,
				"y": 2.7028349644,
				"z": -1.1593294483,
				"element": "C" 
			},
			{
				"x": -0.3854900159,
				"y": 3.7097960218,
				"z": -0.277469623,
				"element": "C" 
			},
			{
				"x": -0.1911578088,
				"y": 3.540226217,
				"z": 1.0930049356,
				"element": "C" 
			},
			{
				"x": 0.3863091047,
				"y": 2.3680091749,
				"z": 1.5804418216,
				"element": "C" 
			},
			{
				"x": 0.8094762895,
				"y": 1.3643574479,
				"z": 0.7008358729,
				"element": "C" 
			},
			{
				"x": 1.413870436,
				"y": 0.194614986,
				"z": 1.1924375243,
				"element": "N" 
			},
			{
				"x": 1.2691236644,
				"y": -1.049083806,
				"z": 0.5656963837,
				"element": "C" 
			},
			{
				"x": 1.2637457204,
				"y": -2.225245097,
				"z": 1.3257978505,
				"element": "C" 
			},
			{
				"x": 0.8948428539,
				"y": -4.5208710438,
				"z": -1.1711584063,
				"element": "H" 
			},
			{
				"x": 0.8540752718,
				"y": -2.4278579247,
				"z": -2.5192742837,
				"element": "H" 
			},
			{
				"x": -0.1384320345,
				"y": 2.8188825889,
				"z": -2.22840942,
				"element": "H" 
			},
			{
				"x": -0.8453727164,
				"y": 4.6146336594,
				"z": -0.661578618,
				"element": "H" 
			},
			{
				"x": -0.5001493183,
				"y": 4.3128455173,
				"z": 1.7904391219,
				"element": "H" 
			},
			{
				"x": 0.517918854,
				"y": 2.2275000927,
				"z": 2.6508635315,
				"element": "H" 
			},
			{
				"x": 1.4743930741,
				"y": 0.1505307356,
				"z": 2.2002987666,
				"element": "H" 
			},
			{
				"x": 1.3565639716,
				"y": -2.1786805142,
				"z": 2.4062428512,
				"element": "H" 
			}
		],
		 "valence_orbital": [ 
			{
				"type": "occ",
				"energy": -0.29607,
				"method": "rhf"
			},
			{
				"type": "occ",
				"energy": -0.26654,
				"method": "rhf"
			},
			{
				"type": "occ",
				"energy": -0.25573,
				"method": "rhf"
			},
			{
				"type": "occ",
				"energy": -0.2324,
				"method": "rhf"
			},
			{
				"type": "occ",
				"energy": -0.19145,
				"method": "rhf"
			},
			{
				"type": "unocc",
				"energy": -0.0251,
				"method": "rhf"
			},
			{
				"type": "unocc",
				"energy": -0.01755,
				"method": "rhf"
			},
			{
				"type": "unocc",
				"energy": -0.0104,
				"method": "rhf"
			},
			{
				"type": "unocc",
				"energy": 0.01391,
				"method": "rhf"
			},
			{
				"type": "unocc",
				"energy": 0.02222,
				"method": "rhf"
			}
		],
		"cosmo_sigma_profile": { 
			"-0.025": 0.0,
			"-0.024": 0.0,
			"-0.023": 0.0,
			"-0.022": 0.0,
			"-0.021": 0.0,
			"-0.02": 0.0,
			"-0.019": 0.0,
			"-0.018": 0.0,
			"-0.017": 0.0,
			"-0.016": 0.0,
			"-0.015": 0.779282620522,
			"-0.014": 1.5329940678,
			"-0.013": 1.73879939672,
			"-0.012": 1.98269147801,
			"-0.011": 1.20324785295,
			"-0.01": 2.00072304125,
			"-0.009": 1.8215391346,
			"-0.008": 2.69902969361,
			"-0.007": 6.45690933496,
			"-0.006": 11.570495753,
			"-0.005": 12.7488247527,
			"-0.004": 14.312114329,
			"-0.003": 12.853627886,
			"-0.002": 10.9226720502,
			"-0.001": 13.1095635498,
			"0.0": 15.3972592107,
			"0.001": 18.2071473797,
			"0.002": 23.9718237436,
			"0.003": 31.3294709392,
			"0.004": 29.4083546552,
			"0.005": 20.534322091,
			"0.006": 6.53654964234,
			"0.007": 3.00792791329,
			"0.008": 1.6106229095,
			"0.009": 0.0773712663106,
			"0.01": 0.0,
			"0.011": 0.0,
			"0.012": 0.0,
			"0.013": 0.0,
			"0.014": 0.0,
			"0.015": 0.0,
			"0.016": 0.0,
			"0.017": 0.0,
			"0.018": 0.0,
			"0.019": 0.0,
			"0.02": 0.0,
			"0.021": 0.0,
			"0.022": 0.0,
			"0.023": 0.0,
			"0.024": 0.0,
			"0.025": 0.0
		}
	}
}
