{
	 "smiles": "CC(C)(C)OC(=O)CC1=CC(N)=CC=C1", 
	 "Tm": 321.15, 
	 "num_atms": 32, 
	 "gaussian": { 
		 "optdone": 1, 
		 "sigma_profile": "yes", 
		 "theory": "DFT", 
		 "functional": "B3LYP", 
		 "basiset": "6-31G**", 
		 "properties": { 
			 "R2extent": 4816.8378, 
			 "electric_dipole_moment_norm": 3.38542768052, 
			 "electric_quadrupole_moment_norm": 6.7802407767, 
			 "total_energy": -672.756833759, 
			 "HOMO_LUMO_gap": 0.19749, 
			 "cosmo_polarized_energy": -12.45, 
			 "cosmo_cavitation_energy": 34.79, 
			 "cosmo_dispersion_energy": -23.68, 
			 "cosmo_repulsion_energy": 1.9, 
			 "cosmo_total_nonelectrostatic_energy": 13.01, 
			 "SMD_solvation_energy": 6.65 
		},
		"coords": [
			{
				"x": -3.0589592442,
				"y": 2.3005279198,
				"z": -2.1931732395,
				"element": "C" 
			},
			{
				"x": -3.5508492597,
				"y": 1.056206322,
				"z": -1.4497703158,
				"element": "C" 
			},
			{
				"x": -4.810373365,
				"y": 0.4876018586,
				"z": -2.1117329676,
				"element": "C" 
			},
			{
				"x": -3.7595373723,
				"y": 1.3568827538,
				"z": 0.0380126614,
				"element": "C" 
			},
			{
				"x": -2.4256328428,
				"y": 0.1157443315,
				"z": -1.6192297438,
				"element": "O" 
			},
			{
				"x": -2.4492404987,
				"y": -1.1182883193,
				"z": -1.0821693401,
				"element": "C" 
			},
			{
				"x": -3.3704773183,
				"y": -1.6030287934,
				"z": -0.4558699032,
				"element": "O" 
			},
			{
				"x": -1.1280815213,
				"y": -1.835748373,
				"z": -1.3318784945,
				"element": "C" 
			},
			{
				"x": -0.1321509098,
				"y": -1.5468082507,
				"z": -0.2188135425,
				"element": "C" 
			},
			{
				"x": 1.038304389,
				"y": -0.8365584092,
				"z": -0.4894795742,
				"element": "C" 
			},
			{
				"x": 1.9711702764,
				"y": -0.5594183374,
				"z": 0.5249589653,
				"element": "C" 
			},
			{
				"x": 3.1681939047,
				"y": 0.0978060106,
				"z": 0.2267327738,
				"element": "N" 
			},
			{
				"x": 1.7017556371,
				"y": -1.0069910266,
				"z": 1.8284902737,
				"element": "C" 
			},
			{
				"x": 0.5295307417,
				"y": -1.7107570723,
				"z": 2.0972864734,
				"element": "C" 
			},
			{
				"x": -0.391705127,
				"y": -1.9850847849,
				"z": 1.0871229871,
				"element": "C" 
			},
			{
				"x": -3.8144543496,
				"y": 3.0905736832,
				"z": -2.1458105414,
				"element": "H" 
			},
			{
				"x": -2.8636747071,
				"y": 2.07022007,
				"z": -3.2446240154,
				"element": "H" 
			},
			{
				"x": -2.1345618048,
				"y": 2.6768444573,
				"z": -1.7455333299,
				"element": "H" 
			},
			{
				"x": -4.6105134377,
				"y": 0.2380622195,
				"z": -3.158650791,
				"element": "H" 
			},
			{
				"x": -5.6068942082,
				"y": 1.2385718846,
				"z": -2.0884690456,
				"element": "H" 
			},
			{
				"x": -5.1559909849,
				"y": -0.4075139711,
				"z": -1.5941971162,
				"element": "H" 
			},
			{
				"x": -4.5053686636,
				"y": 2.1507368842,
				"z": 0.1494353947,
				"element": "H" 
			},
			{
				"x": -2.824523112,
				"y": 1.7016838986,
				"z": 0.4903345799,
				"element": "H" 
			},
			{
				"x": -4.1051115422,
				"y": 0.4724789162,
				"z": 0.5736686217,
				"element": "H" 
			},
			{
				"x": -0.7195693732,
				"y": -1.5245964294,
				"z": -2.2961120492,
				"element": "H" 
			},
			{
				"x": -1.3517213225,
				"y": -2.9057448122,
				"z": -1.3704986011,
				"element": "H" 
			},
			{
				"x": 1.2389030189,
				"y": -0.4963962972,
				"z": -1.5032218917,
				"element": "H" 
			},
			{
				"x": 3.6031224506,
				"y": 0.5671516479,
				"z": 1.0092699539,
				"element": "H" 
			},
			{
				"x": 3.1386089842,
				"y": 0.6882765226,
				"z": -0.5932307865,
				"element": "H" 
			},
			{
				"x": 2.4152938476,
				"y": -0.8057346426,
				"z": 2.6238784853,
				"element": "H" 
			},
			{
				"x": 0.3334355958,
				"y": -2.0481729022,
				"z": 3.1114552439,
				"element": "H" 
			},
			{
				"x": -1.3088278812,
				"y": -2.5239269589,
				"z": 1.3029188752,
				"element": "H" 
			}
		],
		 "valence_orbital": [ 
			{
				"type": "occ",
				"energy": -0.30092,
				"method": "rhf"
			},
			{
				"type": "occ",
				"energy": -0.29028,
				"method": "rhf"
			},
			{
				"type": "occ",
				"energy": -0.26073,
				"method": "rhf"
			},
			{
				"type": "occ",
				"energy": -0.23618,
				"method": "rhf"
			},
			{
				"type": "occ",
				"energy": -0.19929,
				"method": "rhf"
			},
			{
				"type": "unocc",
				"energy": -0.0018,
				"method": "rhf"
			},
			{
				"type": "unocc",
				"energy": 0.01787,
				"method": "rhf"
			},
			{
				"type": "unocc",
				"energy": 0.02853,
				"method": "rhf"
			},
			{
				"type": "unocc",
				"energy": 0.08212,
				"method": "rhf"
			},
			{
				"type": "unocc",
				"energy": 0.08817,
				"method": "rhf"
			}
		],
		"cosmo_sigma_profile": { 
			"-0.025": 0.0,
			"-0.024": 0.0,
			"-0.023": 0.0,
			"-0.022": 0.0,
			"-0.021": 0.0,
			"-0.02": 0.0,
			"-0.019": 0.0,
			"-0.018": 0.0,
			"-0.017": 0.0,
			"-0.016": 0.0,
			"-0.015": 0.0,
			"-0.014": 0.0,
			"-0.013": 0.0556266776263,
			"-0.012": 2.47124600557,
			"-0.011": 2.3093951577,
			"-0.01": 3.14697356058,
			"-0.009": 3.3388383345,
			"-0.008": 3.01016421277,
			"-0.007": 2.84057964469,
			"-0.006": 6.33926992547,
			"-0.005": 11.5146498064,
			"-0.004": 22.9214741633,
			"-0.003": 27.543154567,
			"-0.002": 25.0396330737,
			"-0.001": 25.4748802558,
			"0.0": 30.6809368277,
			"0.001": 21.2877403827,
			"0.002": 10.4612047061,
			"0.003": 10.6689798146,
			"0.004": 11.2577690171,
			"0.005": 12.2123847419,
			"0.006": 13.7891387976,
			"0.007": 9.67095687663,
			"0.008": 3.04429748386,
			"0.009": 1.85701890137,
			"0.01": 2.96232776475,
			"0.011": 2.54150402252,
			"0.012": 2.88972505544,
			"0.013": 2.20491565368,
			"0.014": 0.537985926083,
			"0.015": 0.352577885149,
			"0.016": 0.0,
			"0.017": 0.0,
			"0.018": 0.0,
			"0.019": 0.0,
			"0.02": 0.0,
			"0.021": 0.0,
			"0.022": 0.0,
			"0.023": 0.0,
			"0.024": 0.0,
			"0.025": 0.0
		}
	}
}
