{
	 "smiles": "ClS(=O)(=O)C1=C2C=CC=CC2=CC=C1", 
	 "Tm": 341.15, 
	 "num_atms": 21, 
	 "gaussian": { 
		 "optdone": 1, 
		 "sigma_profile": "yes", 
		 "theory": "DFT", 
		 "functional": "B3LYP", 
		 "basiset": "6-31G**", 
		 "properties": { 
			 "R2extent": 3520.48, 
			 "electric_dipole_moment_norm": 5.69343034031, 
			 "electric_quadrupole_moment_norm": 11.2134317669, 
			 "total_energy": -1394.05011893, 
			 "HOMO_LUMO_gap": 0.15386, 
			 "cosmo_polarized_energy": -9.33, 
			 "cosmo_cavitation_energy": 27.99, 
			 "cosmo_dispersion_energy": -21.26, 
			 "cosmo_repulsion_energy": 1.6, 
			 "cosmo_total_nonelectrostatic_energy": 8.33, 
			 "SMD_solvation_energy": 3.29 
		},
		"coords": [
			{
				"x": 1.0580844009,
				"y": -0.7118279061,
				"z": 3.5218410147,
				"element": "Cl" 
			},
			{
				"x": -0.6460015168,
				"y": -0.8136791718,
				"z": 2.2298830303,
				"element": "S" 
			},
			{
				"x": -0.7068807972,
				"y": -2.1926026239,
				"z": 1.7569461143,
				"element": "O" 
			},
			{
				"x": -1.7502610162,
				"y": -0.220909365,
				"z": 2.9746510993,
				"element": "O" 
			},
			{
				"x": -0.1603856669,
				"y": 0.2954290737,
				"z": 0.9067666568,
				"element": "C" 
			},
			{
				"x": 0.8505387274,
				"y": -0.0510525046,
				"z": -0.0459073198,
				"element": "C" 
			},
			{
				"x": 1.5841391524,
				"y": -1.2680984339,
				"z": -0.0592883256,
				"element": "C" 
			},
			{
				"x": 2.546726264,
				"y": -1.4942284802,
				"z": -1.0190646455,
				"element": "C" 
			},
			{
				"x": 2.8259838735,
				"y": -0.5304272223,
				"z": -2.0148380678,
				"element": "C" 
			},
			{
				"x": 2.1303844043,
				"y": 0.655557805,
				"z": -2.03209427,
				"element": "C" 
			},
			{
				"x": 1.1337395879,
				"y": 0.9302571158,
				"z": -1.0579370845,
				"element": "C" 
			},
			{
				"x": 0.4189305505,
				"y": 2.157573155,
				"z": -1.0743554213,
				"element": "C" 
			},
			{
				"x": -0.5446539435,
				"y": 2.4394662346,
				"z": -0.1344644608,
				"element": "C" 
			},
			{
				"x": -0.834551048,
				"y": 1.4994287532,
				"z": 0.8772435192,
				"element": "C" 
			},
			{
				"x": 1.3793892376,
				"y": -2.0289316842,
				"z": 0.6817438719,
				"element": "H" 
			},
			{
				"x": 3.0960757045,
				"y": -2.4307345036,
				"z": -1.0104569243,
				"element": "H" 
			},
			{
				"x": 3.5869066556,
				"y": -0.7304741704,
				"z": -2.7629398725,
				"element": "H" 
			},
			{
				"x": 2.3317811983,
				"y": 1.4050951701,
				"z": -2.7924639888,
				"element": "H" 
			},
			{
				"x": 0.6517815917,
				"y": 2.8796395594,
				"z": -1.8523940675,
				"element": "H" 
			},
			{
				"x": -1.0844005051,
				"y": 3.3803412186,
				"z": -0.1582064052,
				"element": "H" 
			},
			{
				"x": -1.5845268546,
				"y": 1.7122779806,
				"z": 1.6296355472,
				"element": "H" 
			}
		],
		 "valence_orbital": [ 
			{
				"type": "occ",
				"energy": -0.32621,
				"method": "rhf"
			},
			{
				"type": "occ",
				"energy": -0.31131,
				"method": "rhf"
			},
			{
				"type": "occ",
				"energy": -0.30642,
				"method": "rhf"
			},
			{
				"type": "occ",
				"energy": -0.27156,
				"method": "rhf"
			},
			{
				"type": "occ",
				"energy": -0.24647,
				"method": "rhf"
			},
			{
				"type": "unocc",
				"energy": -0.09261,
				"method": "rhf"
			},
			{
				"type": "unocc",
				"energy": -0.06192,
				"method": "rhf"
			},
			{
				"type": "unocc",
				"energy": -0.03678,
				"method": "rhf"
			},
			{
				"type": "unocc",
				"energy": -0.00415,
				"method": "rhf"
			},
			{
				"type": "unocc",
				"energy": 0.05411,
				"method": "rhf"
			}
		],
		"cosmo_sigma_profile": { 
			"-0.025": 0.0,
			"-0.024": 0.0,
			"-0.023": 0.0,
			"-0.022": 0.0,
			"-0.021": 0.0,
			"-0.02": 0.0,
			"-0.019": 0.0,
			"-0.018": 0.0,
			"-0.017": 0.0,
			"-0.016": 0.0,
			"-0.015": 0.0,
			"-0.014": 0.0,
			"-0.013": 0.0,
			"-0.012": 0.0,
			"-0.011": 0.0,
			"-0.01": 0.0,
			"-0.009": 0.0792252715024,
			"-0.008": 4.46918660166,
			"-0.007": 11.7833614634,
			"-0.006": 13.7585127525,
			"-0.005": 14.1023264508,
			"-0.004": 11.6387206496,
			"-0.003": 11.5182015015,
			"-0.002": 12.3725949395,
			"-0.001": 14.3299590547,
			"0.0": 20.9460520539,
			"0.001": 24.7879160773,
			"0.002": 24.6720910487,
			"0.003": 24.7803443819,
			"0.004": 13.2818114596,
			"0.005": 3.1627556082,
			"0.006": 3.63239954747,
			"0.007": 5.81811792895,
			"0.008": 8.54969739312,
			"0.009": 4.73717833312,
			"0.01": 0.031678947566,
			"0.011": 0.0,
			"0.012": 0.0,
			"0.013": 0.0,
			"0.014": 0.0,
			"0.015": 0.0,
			"0.016": 0.0,
			"0.017": 0.0,
			"0.018": 0.0,
			"0.019": 0.0,
			"0.02": 0.0,
			"0.021": 0.0,
			"0.022": 0.0,
			"0.023": 0.0,
			"0.024": 0.0,
			"0.025": 0.0
		}
	}
}
