{
	 "smiles": "FC(F)(F)C1=CC=CC=C1S(Cl)(=O)=O", 
	 "Tm": 296.15, 
	 "num_atms": 18, 
	 "gaussian": { 
		 "optdone": 1, 
		 "sigma_profile": "yes", 
		 "theory": "DFT", 
		 "functional": "B3LYP", 
		 "basiset": "6-31G**", 
		 "properties": { 
			 "R2extent": 3669.0428, 
			 "electric_dipole_moment_norm": 5.87876322367, 
			 "electric_quadrupole_moment_norm": 5.50005790606, 
			 "total_energy": -1577.42450563, 
			 "HOMO_LUMO_gap": 0.20761, 
			 "cosmo_polarized_energy": -9.56, 
			 "cosmo_cavitation_energy": 26.4, 
			 "cosmo_dispersion_energy": -19.78, 
			 "cosmo_repulsion_energy": 1.44, 
			 "cosmo_total_nonelectrostatic_energy": 8.06, 
			 "SMD_solvation_energy": 4.35 
		},
		"coords": [
			{
				"x": 2.2295573862,
				"y": 1.4948914678,
				"z": 1.6068914882,
				"element": "F" 
			},
			{
				"x": 2.0258025216,
				"y": 0.2322478992,
				"z": 1.1683964276,
				"element": "C" 
			},
			{
				"x": 2.2327685256,
				"y": -0.586873805,
				"z": 2.2214148085,
				"element": "F" 
			},
			{
				"x": 2.9668744738,
				"y": -0.0271930298,
				"z": 0.2534943253,
				"element": "F" 
			},
			{
				"x": 0.6043746791,
				"y": 0.0737478802,
				"z": 0.651496828,
				"element": "C" 
			},
			{
				"x": -0.3556954298,
				"y": 0.8861311913,
				"z": 1.2637301752,
				"element": "C" 
			},
			{
				"x": -1.7104316455,
				"y": 0.7784880754,
				"z": 0.9534365866,
				"element": "C" 
			},
			{
				"x": -2.1345620229,
				"y": -0.162531195,
				"z": 0.0212421515,
				"element": "C" 
			},
			{
				"x": -1.1999089998,
				"y": -0.9889707452,
				"z": -0.6009939529,
				"element": "C" 
			},
			{
				"x": 0.1588522308,
				"y": -0.8734203264,
				"z": -0.2932397306,
				"element": "C" 
			},
			{
				"x": 1.2018541046,
				"y": -1.9689485014,
				"z": -1.3075360347,
				"element": "S" 
			},
			{
				"x": 2.1905377049,
				"y": -3.1373849774,
				"z": 0.1537758636,
				"element": "Cl" 
			},
			{
				"x": 2.2060315502,
				"y": -1.2058256059,
				"z": -2.0322529213,
				"element": "O" 
			},
			{
				"x": 0.315200212,
				"y": -2.8910044502,
				"z": -2.0079471893,
				"element": "O" 
			},
			{
				"x": -0.0246967094,
				"y": 1.6155991525,
				"z": 1.9929872962,
				"element": "H" 
			},
			{
				"x": -2.4266815009,
				"y": 1.4288160795,
				"z": 1.4453028693,
				"element": "H" 
			},
			{
				"x": -3.1861142288,
				"y": -0.2616673522,
				"z": -0.2278387206,
				"element": "H" 
			},
			{
				"x": -1.5142628518,
				"y": -1.7285017573,
				"z": -1.3265602708,
				"element": "H" 
			}
		],
		 "valence_orbital": [ 
			{
				"type": "occ",
				"energy": -0.33855,
				"method": "rhf"
			},
			{
				"type": "occ",
				"energy": -0.33796,
				"method": "rhf"
			},
			{
				"type": "occ",
				"energy": -0.31679,
				"method": "rhf"
			},
			{
				"type": "occ",
				"energy": -0.30261,
				"method": "rhf"
			},
			{
				"type": "occ",
				"energy": -0.30082,
				"method": "rhf"
			},
			{
				"type": "unocc",
				"energy": -0.09321,
				"method": "rhf"
			},
			{
				"type": "unocc",
				"energy": -0.06571,
				"method": "rhf"
			},
			{
				"type": "unocc",
				"energy": -0.05292,
				"method": "rhf"
			},
			{
				"type": "unocc",
				"energy": 0.03722,
				"method": "rhf"
			},
			{
				"type": "unocc",
				"energy": 0.06219,
				"method": "rhf"
			}
		],
		"cosmo_sigma_profile": { 
			"-0.025": 0.0,
			"-0.024": 0.0,
			"-0.023": 0.0,
			"-0.022": 0.0,
			"-0.021": 0.0,
			"-0.02": 0.0,
			"-0.019": 0.0,
			"-0.018": 0.0,
			"-0.017": 0.0,
			"-0.016": 0.0,
			"-0.015": 0.0,
			"-0.014": 0.0,
			"-0.013": 0.0,
			"-0.012": 0.0,
			"-0.011": 0.0,
			"-0.01": 0.0,
			"-0.009": 1.55728678181,
			"-0.008": 9.37624677947,
			"-0.007": 9.05765612912,
			"-0.006": 8.35982732316,
			"-0.005": 7.83754629977,
			"-0.004": 8.23467149683,
			"-0.003": 11.3474279181,
			"-0.002": 15.3844744397,
			"-0.001": 20.2455743019,
			"0.0": 19.8715398961,
			"0.001": 19.4283926126,
			"0.002": 30.3222331875,
			"0.003": 22.8461090043,
			"0.004": 4.29241379576,
			"0.005": 3.85892635985,
			"0.006": 4.38525351612,
			"0.007": 7.35956021351,
			"0.008": 9.11114823058,
			"0.009": 2.66201729687,
			"0.01": 0.0,
			"0.011": 0.0,
			"0.012": 0.0,
			"0.013": 0.0,
			"0.014": 0.0,
			"0.015": 0.0,
			"0.016": 0.0,
			"0.017": 0.0,
			"0.018": 0.0,
			"0.019": 0.0,
			"0.02": 0.0,
			"0.021": 0.0,
			"0.022": 0.0,
			"0.023": 0.0,
			"0.024": 0.0,
			"0.025": 0.0
		}
	}
}
