{
	 "smiles": "CC1=CC(C)=C(N)C(Br)=C1", 
	 "Tm": 317.15, 
	 "num_atms": 20, 
	 "gaussian": { 
		 "optdone": 1, 
		 "sigma_profile": "yes", 
		 "theory": "DFT", 
		 "functional": "B3LYP", 
		 "basiset": "6-31G**", 
		 "properties": { 
			 "R2extent": 3070.4817, 
			 "electric_dipole_moment_norm": 2.09479569887, 
			 "electric_quadrupole_moment_norm": 8.45549344036, 
			 "total_energy": -2937.05358684, 
			 "HOMO_LUMO_gap": 0.19898, 
			 "cosmo_polarized_energy": -6.77, 
			 "cosmo_cavitation_energy": 24.91, 
			 "cosmo_dispersion_energy": -18.95, 
			 "cosmo_repulsion_energy": 1.53, 
			 "cosmo_total_nonelectrostatic_energy": 7.49, 
			 "SMD_solvation_energy": 3.11 
		},
		"coords": [
			{
				"x": 1.9216997086,
				"y": -3.1367247261,
				"z": 0.8852612521,
				"element": "C" 
			},
			{
				"x": 1.0193089804,
				"y": -2.0469750167,
				"z": 0.3551547293,
				"element": "C" 
			},
			{
				"x": 1.3555261415,
				"y": -0.6933799591,
				"z": 0.4987063614,
				"element": "C" 
			},
			{
				"x": 0.5559449312,
				"y": 0.3376648016,
				"z": 0.0112116065,
				"element": "C" 
			},
			{
				"x": 0.9638373378,
				"y": 1.7816118905,
				"z": 0.1700111497,
				"element": "C" 
			},
			{
				"x": -0.6562347286,
				"y": 0.027181135,
				"z": -0.6563722085,
				"element": "C" 
			},
			{
				"x": -1.439993697,
				"y": 1.0413839439,
				"z": -1.1965120099,
				"element": "N" 
			},
			{
				"x": -0.9869866493,
				"y": -1.3298123332,
				"z": -0.7903780234,
				"element": "C" 
			},
			{
				"x": -2.6258365685,
				"y": -1.8153889405,
				"z": -1.6724118954,
				"element": "Br" 
			},
			{
				"x": -0.1728354212,
				"y": -2.3493123578,
				"z": -0.3034498362,
				"element": "C" 
			},
			{
				"x": 2.146993761,
				"y": -2.9908364098,
				"z": 1.9479481335,
				"element": "H" 
			},
			{
				"x": 1.4610247126,
				"y": -4.1224952846,
				"z": 0.7756933071,
				"element": "H" 
			},
			{
				"x": 2.8807110798,
				"y": -3.1596368765,
				"z": 0.3534854507,
				"element": "H" 
			},
			{
				"x": 2.2806159872,
				"y": -0.4300646148,
				"z": 1.0076126112,
				"element": "H" 
			},
			{
				"x": 0.2569098745,
				"y": 2.3439066814,
				"z": 0.7970589856,
				"element": "H" 
			},
			{
				"x": 1.9460312687,
				"y": 1.8609118208,
				"z": 0.6420062816,
				"element": "H" 
			},
			{
				"x": 1.0099958567,
				"y": 2.2928971806,
				"z": -0.7993584548,
				"element": "H" 
			},
			{
				"x": -2.3794586584,
				"y": 0.7610628143,
				"z": -1.444694672,
				"element": "H" 
			},
			{
				"x": -1.4096180154,
				"y": 1.9227417899,
				"z": -0.7046883138,
				"element": "H" 
			},
			{
				"x": -0.4800359016,
				"y": -3.3811355387,
				"z": -0.4371844549,
				"element": "H" 
			}
		],
		 "valence_orbital": [ 
			{
				"type": "occ",
				"energy": -0.30702,
				"method": "rhf"
			},
			{
				"type": "occ",
				"energy": -0.29701,
				"method": "rhf"
			},
			{
				"type": "occ",
				"energy": -0.2861,
				"method": "rhf"
			},
			{
				"type": "occ",
				"energy": -0.23396,
				"method": "rhf"
			},
			{
				"type": "occ",
				"energy": -0.19925,
				"method": "rhf"
			},
			{
				"type": "unocc",
				"energy": -0.00027,
				"method": "rhf"
			},
			{
				"type": "unocc",
				"energy": 0.01274,
				"method": "rhf"
			},
			{
				"type": "unocc",
				"energy": 0.01457,
				"method": "rhf"
			},
			{
				"type": "unocc",
				"energy": 0.07862,
				"method": "rhf"
			},
			{
				"type": "unocc",
				"energy": 0.10951,
				"method": "rhf"
			}
		],
		"cosmo_sigma_profile": { 
			"-0.025": 0.0,
			"-0.024": 0.0,
			"-0.023": 0.0,
			"-0.022": 0.0,
			"-0.021": 0.0,
			"-0.02": 0.0,
			"-0.019": 0.0,
			"-0.018": 0.0,
			"-0.017": 0.0,
			"-0.016": 0.0,
			"-0.015": 0.0,
			"-0.014": 0.0,
			"-0.013": 0.0217775581797,
			"-0.012": 0.759452640191,
			"-0.011": 1.61976995563,
			"-0.01": 1.91592037568,
			"-0.009": 2.88792748436,
			"-0.008": 2.76068360022,
			"-0.007": 1.93646601758,
			"-0.006": 3.31949865304,
			"-0.005": 7.49259308831,
			"-0.004": 15.0068179015,
			"-0.003": 17.80125197,
			"-0.002": 16.9594163444,
			"-0.001": 18.8173667687,
			"0.0": 20.3101061228,
			"0.001": 16.3794925802,
			"0.002": 12.3438797993,
			"0.003": 12.982184584,
			"0.004": 17.7373812842,
			"0.005": 16.0979335612,
			"0.006": 7.9482118933,
			"0.007": 0.738586611052,
			"0.008": 0.89625568997,
			"0.009": 0.491023649391,
			"0.01": 0.632468468211,
			"0.011": 0.452507332968,
			"0.012": 0.835468964678,
			"0.013": 0.479273273525,
			"0.014": 0.326050611336,
			"0.015": 0.0,
			"0.016": 0.0,
			"0.017": 0.0,
			"0.018": 0.0,
			"0.019": 0.0,
			"0.02": 0.0,
			"0.021": 0.0,
			"0.022": 0.0,
			"0.023": 0.0,
			"0.024": 0.0,
			"0.025": 0.0
		}
	}
}
