{
	 "smiles": "C=CC(=O)NC(=O)NC12CC3CC(CC(C3)C1)C2", 
	 "Tm": 485.15, 
	 "num_atms": 38, 
	 "gaussian": { 
		 "optdone": 1, 
		 "sigma_profile": "yes", 
		 "theory": "DFT", 
		 "functional": "B3LYP", 
		 "basiset": "6-31G**", 
		 "properties": { 
			 "R2extent": 5225.4339, 
			 "electric_dipole_moment_norm": 4.59572935452, 
			 "electric_quadrupole_moment_norm": 16.2030289721, 
			 "total_energy": -805.531973808, 
			 "HOMO_LUMO_gap": 0.1966, 
			 "cosmo_polarized_energy": -13.84, 
			 "cosmo_cavitation_energy": 36.71, 
			 "cosmo_dispersion_energy": -26.05, 
			 "cosmo_repulsion_energy": 1.99, 
			 "cosmo_total_nonelectrostatic_energy": 12.65, 
			 "SMD_solvation_energy": 6.38 
		},
		"coords": [
			{
				"x": -2.0919987278,
				"y": 0.1429040686,
				"z": -2.7787661519,
				"element": "C" 
			},
			{
				"x": -3.1760224764,
				"y": -0.0778964941,
				"z": -2.0273725334,
				"element": "C" 
			},
			{
				"x": -3.767933477,
				"y": 0.917097289,
				"z": -1.0825326643,
				"element": "C" 
			},
			{
				"x": -4.9768720391,
				"y": 1.0958498698,
				"z": -1.0897529192,
				"element": "O" 
			},
			{
				"x": -2.9516122961,
				"y": 1.7113854356,
				"z": -0.2791669291,
				"element": "N" 
			},
			{
				"x": -1.7257800966,
				"y": 1.528469149,
				"z": 0.4275754393,
				"element": "C" 
			},
			{
				"x": -1.4006463094,
				"y": 2.4029187165,
				"z": 1.2216547132,
				"element": "O" 
			},
			{
				"x": -1.0229341119,
				"y": 0.3935469427,
				"z": 0.1837113773,
				"element": "N" 
			},
			{
				"x": 0.2422865023,
				"y": 0.0389093651,
				"z": 0.8547546718,
				"element": "C" 
			},
			{
				"x": 1.3467280573,
				"y": 1.0848686822,
				"z": 0.5687910319,
				"element": "C" 
			},
			{
				"x": 2.6700939843,
				"y": 0.6448140712,
				"z": 1.2295148142,
				"element": "C" 
			},
			{
				"x": 2.4657505004,
				"y": 0.5160548054,
				"z": 2.7535171883,
				"element": "C" 
			},
			{
				"x": 1.3776606146,
				"y": -0.5395984,
				"z": 3.0407288936,
				"element": "C" 
			},
			{
				"x": 1.8146554213,
				"y": -1.9005120226,
				"z": 2.4613764265,
				"element": "C" 
			},
			{
				"x": 2.0144073431,
				"y": -1.7689496693,
				"z": 0.9372094281,
				"element": "C" 
			},
			{
				"x": 3.1061417633,
				"y": -0.7169502946,
				"z": 0.6514127683,
				"element": "C" 
			},
			{
				"x": 0.6899316618,
				"y": -1.3244684668,
				"z": 0.2827491745,
				"element": "C" 
			},
			{
				"x": 0.0512823899,
				"y": -0.1023402783,
				"z": 2.3842277712,
				"element": "C" 
			},
			{
				"x": -1.7919380962,
				"y": -0.5567675954,
				"z": -3.5532135544,
				"element": "H" 
			},
			{
				"x": -1.4851777713,
				"y": 1.0356855092,
				"z": -2.6605928833,
				"element": "H" 
			},
			{
				"x": -3.8092057384,
				"y": -0.9445614825,
				"z": -2.1963790319,
				"element": "H" 
			},
			{
				"x": -3.4761101394,
				"y": 2.4631968803,
				"z": 0.1558248213,
				"element": "H" 
			},
			{
				"x": -1.3886778601,
				"y": -0.2621640967,
				"z": -0.4901171701,
				"element": "H" 
			},
			{
				"x": 1.475852438,
				"y": 1.1815819416,
				"z": -0.5173407561,
				"element": "H" 
			},
			{
				"x": 1.0255293057,
				"y": 2.0579992082,
				"z": 0.9495641283,
				"element": "H" 
			},
			{
				"x": 3.4409562469,
				"y": 1.3975126233,
				"z": 1.0226368059,
				"element": "H" 
			},
			{
				"x": 2.1717269274,
				"y": 1.4845582382,
				"z": 3.176986626,
				"element": "H" 
			},
			{
				"x": 3.4081812228,
				"y": 0.2269359863,
				"z": 3.2366801103,
				"element": "H" 
			},
			{
				"x": 1.2281840908,
				"y": -0.6304444063,
				"z": 4.1237393026,
				"element": "H" 
			},
			{
				"x": 2.7483999356,
				"y": -2.2326142821,
				"z": 2.9331888037,
				"element": "H" 
			},
			{
				"x": 1.057449441,
				"y": -2.6651647885,
				"z": 2.6792735746,
				"element": "H" 
			},
			{
				"x": 2.3122411071,
				"y": -2.7374134755,
				"z": 0.516462824,
				"element": "H" 
			},
			{
				"x": 4.0566626731,
				"y": -1.0335905044,
				"z": 1.0997313295,
				"element": "H" 
			},
			{
				"x": 3.2761516478,
				"y": -0.631901267,
				"z": -0.4300674217,
				"element": "H" 
			},
			{
				"x": 0.8152550576,
				"y": -1.2430937171,
				"z": -0.8060123067,
				"element": "H" 
			},
			{
				"x": -0.0920994075,
				"y": -2.0743953893,
				"z": 0.4665757672,
				"element": "H" 
			},
			{
				"x": -0.7346920025,
				"y": -0.8434313443,
				"z": 2.5798644477,
				"element": "H" 
			},
			{
				"x": -0.2891277826,
				"y": 0.8531691922,
				"z": 2.7921620824,
				"element": "H" 
			}
		],
		 "valence_orbital": [ 
			{
				"type": "occ",
				"energy": -0.28933,
				"method": "rhf"
			},
			{
				"type": "occ",
				"energy": -0.28328,
				"method": "rhf"
			},
			{
				"type": "occ",
				"energy": -0.27152,
				"method": "rhf"
			},
			{
				"type": "occ",
				"energy": -0.25418,
				"method": "rhf"
			},
			{
				"type": "occ",
				"energy": -0.25227,
				"method": "rhf"
			},
			{
				"type": "unocc",
				"energy": -0.05567,
				"method": "rhf"
			},
			{
				"type": "unocc",
				"energy": 0.02357,
				"method": "rhf"
			},
			{
				"type": "unocc",
				"energy": 0.06309,
				"method": "rhf"
			},
			{
				"type": "unocc",
				"energy": 0.07035,
				"method": "rhf"
			},
			{
				"type": "unocc",
				"energy": 0.09851,
				"method": "rhf"
			}
		],
		"cosmo_sigma_profile": { 
			"-0.025": 0.0,
			"-0.024": 0.0,
			"-0.023": 0.0,
			"-0.022": 0.0,
			"-0.021": 0.0,
			"-0.02": 0.0,
			"-0.019": 0.0,
			"-0.018": 0.0,
			"-0.017": 0.0,
			"-0.016": 0.0,
			"-0.015": 0.0,
			"-0.014": 0.43910685804,
			"-0.013": 0.669047852904,
			"-0.012": 0.661079765422,
			"-0.011": 0.446443849657,
			"-0.01": 0.640767625371,
			"-0.009": 1.09861483422,
			"-0.008": 3.59332752465,
			"-0.007": 7.45055059537,
			"-0.006": 8.13764741274,
			"-0.005": 9.20046606374,
			"-0.004": 10.4156370654,
			"-0.003": 20.5787522751,
			"-0.002": 45.3841968659,
			"-0.001": 45.6090800825,
			"0.0": 42.9804499259,
			"0.001": 29.1576045099,
			"0.002": 12.1449919503,
			"0.003": 5.73348952674,
			"0.004": 2.68891205702,
			"0.005": 3.60796957244,
			"0.006": 2.72087143739,
			"0.007": 3.44861099063,
			"0.008": 2.53515031591,
			"0.009": 3.78158238818,
			"0.01": 2.30327116382,
			"0.011": 4.33079504441,
			"0.012": 7.24034508754,
			"0.013": 5.86702266208,
			"0.014": 2.19056110668,
			"0.015": 0.0,
			"0.016": 0.0,
			"0.017": 0.0,
			"0.018": 0.0,
			"0.019": 0.0,
			"0.02": 0.0,
			"0.021": 0.0,
			"0.022": 0.0,
			"0.023": 0.0,
			"0.024": 0.0,
			"0.025": 0.0
		}
	}
}
