{
	 "smiles": "CC1=C(C2=C(S1)N=C(CCl)NC2=O)C1=CC=CC=C1", 
	 "Tm": 533.15, 
	 "num_atms": 30, 
	 "gaussian": { 
		 "optdone": 1, 
		 "sigma_profile": "yes", 
		 "theory": "DFT", 
		 "functional": "B3LYP", 
		 "basiset": "6-31G**", 
		 "properties": { 
			 "R2extent": 7652.9104, 
			 "electric_dipole_moment_norm": 1.87152765676, 
			 "electric_quadrupole_moment_norm": 11.4302892627, 
			 "total_energy": -1583.25580776, 
			 "HOMO_LUMO_gap": 0.15819, 
			 "cosmo_polarized_energy": -14.62, 
			 "cosmo_cavitation_energy": 37.34, 
			 "cosmo_dispersion_energy": -27.38, 
			 "cosmo_repulsion_energy": 2.08, 
			 "cosmo_total_nonelectrostatic_energy": 12.04, 
			 "SMD_solvation_energy": 4.25 
		},
		"coords": [
			{
				"x": -3.2147426543,
				"y": 2.7694221381,
				"z": -0.3252562134,
				"element": "C" 
			},
			{
				"x": -1.7803023692,
				"y": 2.4413678636,
				"z": -0.0299873541,
				"element": "C" 
			},
			{
				"x": -1.1568152793,
				"y": 1.211811789,
				"z": -0.0152164952,
				"element": "C" 
			},
			{
				"x": 0.2319263586,
				"y": 1.3241959129,
				"z": 0.3678011884,
				"element": "C" 
			},
			{
				"x": 0.6269787376,
				"y": 2.6361779541,
				"z": 0.6237987151,
				"element": "C" 
			},
			{
				"x": -0.6942376846,
				"y": 3.7487596054,
				"z": 0.4104875522,
				"element": "S" 
			},
			{
				"x": 1.8667697284,
				"y": 3.0725473371,
				"z": 0.9893438635,
				"element": "N" 
			},
			{
				"x": 2.768191752,
				"y": 2.137574465,
				"z": 1.0863790396,
				"element": "C" 
			},
			{
				"x": 4.1828675068,
				"y": 2.5475018209,
				"z": 1.3922741612,
				"element": "C" 
			},
			{
				"x": 4.9734364931,
				"y": 1.4917315387,
				"z": 2.6423670452,
				"element": "Cl" 
			},
			{
				"x": 2.5040862574,
				"y": 0.8198162565,
				"z": 0.8538361898,
				"element": "N" 
			},
			{
				"x": 1.2417558413,
				"y": 0.280561113,
				"z": 0.4889410988,
				"element": "C" 
			},
			{
				"x": 1.1301086536,
				"y": -0.9245015725,
				"z": 0.3243882726,
				"element": "O" 
			},
			{
				"x": -1.8564029489,
				"y": -0.0568205156,
				"z": -0.3525081748,
				"element": "C" 
			},
			{
				"x": -2.518700123,
				"y": -0.1951889279,
				"z": -1.5825024309,
				"element": "C" 
			},
			{
				"x": -3.2079327451,
				"y": -1.3678348031,
				"z": -1.8955666109,
				"element": "C" 
			},
			{
				"x": -3.2446365577,
				"y": -2.421458535,
				"z": -0.9822704412,
				"element": "C" 
			},
			{
				"x": -2.583545968,
				"y": -2.2972266068,
				"z": 0.2422051344,
				"element": "C" 
			},
			{
				"x": -1.8936756093,
				"y": -1.1279931609,
				"z": 0.5541354647,
				"element": "C" 
			},
			{
				"x": -3.3286513486,
				"y": 3.2633215005,
				"z": -1.2977897898,
				"element": "H" 
			},
			{
				"x": -3.8138071088,
				"y": 1.8571548278,
				"z": -0.3409761403,
				"element": "H" 
			},
			{
				"x": -3.6314601707,
				"y": 3.441838324,
				"z": 0.4322849826,
				"element": "H" 
			},
			{
				"x": 4.8133819248,
				"y": 2.4812206722,
				"z": 0.5023944077,
				"element": "H" 
			},
			{
				"x": 4.1747605692,
				"y": 3.5694638439,
				"z": 1.7647728004,
				"element": "H" 
			},
			{
				"x": 3.2311929939,
				"y": 0.127134915,
				"z": 0.9971863423,
				"element": "H" 
			},
			{
				"x": -2.4764204342,
				"y": 0.6158324571,
				"z": -2.3037353866,
				"element": "H" 
			},
			{
				"x": -3.7094977844,
				"y": -1.4579732722,
				"z": -2.8549982531,
				"element": "H" 
			},
			{
				"x": -3.7793249635,
				"y": -3.3356585037,
				"z": -1.2237754547,
				"element": "H" 
			},
			{
				"x": -2.6023368176,
				"y": -3.1155048794,
				"z": 0.9562659659,
				"element": "H" 
			},
			{
				"x": -1.3745662494,
				"y": -1.0434735576,
				"z": 1.5024205206,
				"element": "H" 
			}
		],
		 "valence_orbital": [ 
			{
				"type": "occ",
				"energy": -0.27186,
				"method": "rhf"
			},
			{
				"type": "occ",
				"energy": -0.26514,
				"method": "rhf"
			},
			{
				"type": "occ",
				"energy": -0.2459,
				"method": "rhf"
			},
			{
				"type": "occ",
				"energy": -0.24008,
				"method": "rhf"
			},
			{
				"type": "occ",
				"energy": -0.21726,
				"method": "rhf"
			},
			{
				"type": "unocc",
				"energy": -0.05907,
				"method": "rhf"
			},
			{
				"type": "unocc",
				"energy": -0.01959,
				"method": "rhf"
			},
			{
				"type": "unocc",
				"energy": -0.00956,
				"method": "rhf"
			},
			{
				"type": "unocc",
				"energy": 0.00304,
				"method": "rhf"
			},
			{
				"type": "unocc",
				"energy": 0.01063,
				"method": "rhf"
			}
		],
		"cosmo_sigma_profile": { 
			"-0.025": 0.0,
			"-0.024": 0.0,
			"-0.023": 0.0,
			"-0.022": 0.0,
			"-0.021": 0.0,
			"-0.02": 0.0,
			"-0.019": 0.0,
			"-0.018": 0.0,
			"-0.017": 0.0,
			"-0.016": 0.0,
			"-0.015": 0.155825129826,
			"-0.014": 0.90894377857,
			"-0.013": 1.01555244398,
			"-0.012": 0.968384541623,
			"-0.011": 1.25417734778,
			"-0.01": 3.35055194035,
			"-0.009": 4.67388876227,
			"-0.008": 4.76751152483,
			"-0.007": 4.09683607668,
			"-0.006": 7.97945934566,
			"-0.005": 19.1728935266,
			"-0.004": 24.0233109613,
			"-0.003": 25.6976305063,
			"-0.002": 23.3930499948,
			"-0.001": 23.9332597518,
			"0.0": 22.1712724065,
			"0.001": 25.3680683501,
			"0.002": 26.8144393554,
			"0.003": 19.5292526682,
			"0.004": 16.02444197,
			"0.005": 16.1916273222,
			"0.006": 8.15213656865,
			"0.007": 3.342059377,
			"0.008": 3.48925842649,
			"0.009": 1.69512594981,
			"0.01": 2.8451984807,
			"0.011": 2.92606927433,
			"0.012": 3.4970512076,
			"0.013": 5.56834514617,
			"0.014": 0.589525747588,
			"0.015": 0.0,
			"0.016": 0.0,
			"0.017": 0.0,
			"0.018": 0.0,
			"0.019": 0.0,
			"0.02": 0.0,
			"0.021": 0.0,
			"0.022": 0.0,
			"0.023": 0.0,
			"0.024": 0.0,
			"0.025": 0.0
		}
	}
}
