{
	 "smiles": "COC1=CC=C(C=C1)C(=O)C1=COC(=C1)S(N)(=O)=O", 
	 "Tm": 454.15, 
	 "num_atms": 30, 
	 "gaussian": { 
		 "optdone": 1, 
		 "sigma_profile": "yes", 
		 "theory": "DFT", 
		 "functional": "B3LYP", 
		 "basiset": "6-31G**", 
		 "properties": { 
			 "R2extent": 9070.6376, 
			 "electric_dipole_moment_norm": 5.14997341061, 
			 "electric_quadrupole_moment_norm": 34.4864669346, 
			 "total_energy": -1292.84647179, 
			 "HOMO_LUMO_gap": 0.16839, 
			 "cosmo_polarized_energy": -23.63, 
			 "cosmo_cavitation_energy": 37.35, 
			 "cosmo_dispersion_energy": -27.4, 
			 "cosmo_repulsion_energy": 2.06, 
			 "cosmo_total_nonelectrostatic_energy": 12.01, 
			 "SMD_solvation_energy": 8.15 
		},
		"coords": [
			{
				"x": -3.6674375961,
				"y": 1.6951732322,
				"z": 4.3827655699,
				"element": "C" 
			},
			{
				"x": -3.4768765759,
				"y": 0.6014510654,
				"z": 3.4938169895,
				"element": "O" 
			},
			{
				"x": -2.421042941,
				"y": 0.6306342641,
				"z": 2.6421528426,
				"element": "C" 
			},
			{
				"x": -1.4886839764,
				"y": 1.6778790162,
				"z": 2.5631834624,
				"element": "C" 
			},
			{
				"x": -0.4431499797,
				"y": 1.5951750098,
				"z": 1.6503869645,
				"element": "C" 
			},
			{
				"x": -0.3093678652,
				"y": 0.4967033807,
				"z": 0.7878941565,
				"element": "C" 
			},
			{
				"x": -1.2464878146,
				"y": -0.5497793597,
				"z": 0.8872955617,
				"element": "C" 
			},
			{
				"x": -2.2854187655,
				"y": -0.4881366142,
				"z": 1.8031330343,
				"element": "C" 
			},
			{
				"x": 0.853097892,
				"y": 0.4798622728,
				"z": -0.138555063,
				"element": "C" 
			},
			{
				"x": 1.8429414741,
				"y": 1.1781914449,
				"z": 0.068796969,
				"element": "O" 
			},
			{
				"x": 0.8350570729,
				"y": -0.385571157,
				"z": -1.3530651308,
				"element": "C" 
			},
			{
				"x": 1.9827227499,
				"y": -0.7650756752,
				"z": -2.0010769158,
				"element": "C" 
			},
			{
				"x": 1.7018786121,
				"y": -1.5017766437,
				"z": -3.1008438569,
				"element": "O" 
			},
			{
				"x": 0.3381759736,
				"y": -1.5801705028,
				"z": -3.174710868,
				"element": "C" 
			},
			{
				"x": -0.2469307064,
				"y": -0.9212352632,
				"z": -2.136759378,
				"element": "C" 
			},
			{
				"x": -0.3637068563,
				"y": -2.4954744277,
				"z": -4.5219617775,
				"element": "S" 
			},
			{
				"x": 0.0928156523,
				"y": -1.7030396919,
				"z": -5.920562178,
				"element": "N" 
			},
			{
				"x": 0.2828398197,
				"y": -3.8007208052,
				"z": -4.5721387432,
				"element": "O" 
			},
			{
				"x": -1.8045743756,
				"y": -2.3149394561,
				"z": -4.3822120743,
				"element": "O" 
			},
			{
				"x": -4.5597456468,
				"y": 1.456548428,
				"z": 4.9625958759,
				"element": "H" 
			},
			{
				"x": -2.8148785536,
				"y": 1.8143656516,
				"z": 5.062421469,
				"element": "H" 
			},
			{
				"x": -3.8299737922,
				"y": 2.6330699949,
				"z": 3.8377374711,
				"element": "H" 
			},
			{
				"x": -1.5707048091,
				"y": 2.5468537392,
				"z": 3.2049176401,
				"element": "H" 
			},
			{
				"x": 0.2943493991,
				"y": 2.3884781765,
				"z": 1.5876707661,
				"element": "H" 
			},
			{
				"x": -1.144279531,
				"y": -1.4364812311,
				"z": 0.2712211742,
				"element": "H" 
			},
			{
				"x": -3.0044242499,
				"y": -1.2949483577,
				"z": 1.8968943381,
				"element": "H" 
			},
			{
				"x": 3.0249966571,
				"y": -0.587949089,
				"z": -1.7874961442,
				"element": "H" 
			},
			{
				"x": -1.3085714027,
				"y": -0.816121059,
				"z": -1.977878913,
				"element": "H" 
			},
			{
				"x": 1.0862339613,
				"y": -1.7780137823,
				"z": -6.1145268402,
				"element": "H" 
			},
			{
				"x": -0.2701538261,
				"y": -0.7576525605,
				"z": -5.9870964021,
				"element": "H" 
			}
		],
		 "valence_orbital": [ 
			{
				"type": "occ",
				"energy": -0.3057,
				"method": "rhf"
			},
			{
				"type": "occ",
				"energy": -0.2689,
				"method": "rhf"
			},
			{
				"type": "occ",
				"energy": -0.26377,
				"method": "rhf"
			},
			{
				"type": "occ",
				"energy": -0.25354,
				"method": "rhf"
			},
			{
				"type": "occ",
				"energy": -0.23589,
				"method": "rhf"
			},
			{
				"type": "unocc",
				"energy": -0.0675,
				"method": "rhf"
			},
			{
				"type": "unocc",
				"energy": -0.03346,
				"method": "rhf"
			},
			{
				"type": "unocc",
				"energy": -0.01678,
				"method": "rhf"
			},
			{
				"type": "unocc",
				"energy": 0.00937,
				"method": "rhf"
			},
			{
				"type": "unocc",
				"energy": 0.04984,
				"method": "rhf"
			}
		],
		"cosmo_sigma_profile": { 
			"-0.025": 0.0,
			"-0.024": 0.0,
			"-0.023": 0.0,
			"-0.022": 0.0,
			"-0.021": 0.0,
			"-0.02": 0.0,
			"-0.019": 0.0,
			"-0.018": 0.0,
			"-0.017": 0.0327073800702,
			"-0.016": 1.59551468133,
			"-0.015": 2.72305267755,
			"-0.014": 2.4983625637,
			"-0.013": 2.57657811492,
			"-0.012": 2.94799676132,
			"-0.011": 2.98794015975,
			"-0.01": 2.64997324775,
			"-0.009": 3.89775427482,
			"-0.008": 4.21224339957,
			"-0.007": 9.17940439082,
			"-0.006": 18.9755819499,
			"-0.005": 19.7377945089,
			"-0.004": 18.6270761599,
			"-0.003": 19.1744049535,
			"-0.002": 18.8068190638,
			"-0.001": 18.6344264615,
			"0.0": 16.7757911226,
			"0.001": 14.1547259776,
			"0.002": 16.0647892227,
			"0.003": 19.7122005696,
			"0.004": 13.7950922756,
			"0.005": 8.25737236253,
			"0.006": 8.12571787971,
			"0.007": 7.2441457639,
			"0.008": 6.47000782774,
			"0.009": 8.54630828964,
			"0.01": 15.0824962617,
			"0.011": 10.4559980984,
			"0.012": 4.48630583651,
			"0.013": 0.807322205711,
			"0.014": 0.0,
			"0.015": 0.0,
			"0.016": 0.0,
			"0.017": 0.0,
			"0.018": 0.0,
			"0.019": 0.0,
			"0.02": 0.0,
			"0.021": 0.0,
			"0.022": 0.0,
			"0.023": 0.0,
			"0.024": 0.0,
			"0.025": 0.0
		}
	}
}
