{
	 "smiles": "CCOC(=O)C1=CC=C(N)C(N)=C1", 
	 "Tm": 383.15, 
	 "num_atms": 25, 
	 "gaussian": { 
		 "optdone": 1, 
		 "sigma_profile": "yes", 
		 "theory": "DFT", 
		 "functional": "B3LYP", 
		 "basiset": "6-31G**", 
		 "properties": { 
			 "R2extent": 3422.7942, 
			 "electric_dipole_moment_norm": 3.55759671267, 
			 "electric_quadrupole_moment_norm": 15.0623231684, 
			 "total_energy": -610.170323923, 
			 "HOMO_LUMO_gap": 0.17286, 
			 "cosmo_polarized_energy": -14.93, 
			 "cosmo_cavitation_energy": 28.76, 
			 "cosmo_dispersion_energy": -21.2, 
			 "cosmo_repulsion_energy": 1.71, 
			 "cosmo_total_nonelectrostatic_energy": 9.26, 
			 "SMD_solvation_energy": 5.97 
		},
		"coords": [
			{
				"x": -2.966002177,
				"y": -1.2234563262,
				"z": 2.7636334835,
				"element": "C" 
			},
			{
				"x": -2.5469848589,
				"y": 0.174074758,
				"z": 2.3300927616,
				"element": "C" 
			},
			{
				"x": -1.1895758673,
				"y": 0.1901719913,
				"z": 1.8383658545,
				"element": "O" 
			},
			{
				"x": -1.0189762655,
				"y": -0.1338715035,
				"z": 0.5289454637,
				"element": "C" 
			},
			{
				"x": -1.9454483761,
				"y": -0.4184046482,
				"z": -0.2098735948,
				"element": "O" 
			},
			{
				"x": 0.4037639785,
				"y": -0.094117078,
				"z": 0.1170139244,
				"element": "C" 
			},
			{
				"x": 0.7161492672,
				"y": -0.3995818153,
				"z": -1.2128964305,
				"element": "C" 
			},
			{
				"x": 2.0368594496,
				"y": -0.3614951699,
				"z": -1.646241023,
				"element": "C" 
			},
			{
				"x": 3.0711180821,
				"y": -0.0240600823,
				"z": -0.7642370418,
				"element": "C" 
			},
			{
				"x": 4.4123003758,
				"y": 0.0105306327,
				"z": -1.1511915784,
				"element": "N" 
			},
			{
				"x": 2.7637656788,
				"y": 0.2513824738,
				"z": 0.5925707289,
				"element": "C" 
			},
			{
				"x": 3.8366451291,
				"y": 0.6011085659,
				"z": 1.443565492,
				"element": "N" 
			},
			{
				"x": 1.4389722304,
				"y": 0.2200550192,
				"z": 1.01385987,
				"element": "C" 
			},
			{
				"x": -2.9858911801,
				"y": -1.8986680898,
				"z": 1.9049500981,
				"element": "H" 
			},
			{
				"x": -2.2759076582,
				"y": -1.6227880173,
				"z": 3.5130376976,
				"element": "H" 
			},
			{
				"x": -3.9695885732,
				"y": -1.1934164897,
				"z": 3.2015021513,
				"element": "H" 
			},
			{
				"x": -3.2102439809,
				"y": 0.5565886045,
				"z": 1.5505786039,
				"element": "H" 
			},
			{
				"x": -2.5404123023,
				"y": 0.868593629,
				"z": 3.1743064065,
				"element": "H" 
			},
			{
				"x": -0.0890437354,
				"y": -0.6503596718,
				"z": -1.8942331808,
				"element": "H" 
			},
			{
				"x": 2.2772048984,
				"y": -0.5804069686,
				"z": -2.6838993355,
				"element": "H" 
			},
			{
				"x": 4.9381693684,
				"y": 0.7443885815,
				"z": -0.6877330326,
				"element": "H" 
			},
			{
				"x": 4.5576796151,
				"y": 0.0204100498,
				"z": -2.1523155708,
				"element": "H" 
			},
			{
				"x": 3.5456037509,
				"y": 0.7207168527,
				"z": 2.406654458,
				"element": "H" 
			},
			{
				"x": 4.5942571763,
				"y": -0.075487479,
				"z": 1.3999524308,
				"element": "H" 
			},
			{
				"x": 1.1987859741,
				"y": 0.4341921814,
				"z": 2.0502913636,
				"element": "H" 
			}
		],
		 "valence_orbital": [ 
			{
				"type": "occ",
				"energy": -0.30122,
				"method": "rhf"
			},
			{
				"type": "occ",
				"energy": -0.28402,
				"method": "rhf"
			},
			{
				"type": "occ",
				"energy": -0.2582,
				"method": "rhf"
			},
			{
				"type": "occ",
				"energy": -0.22924,
				"method": "rhf"
			},
			{
				"type": "occ",
				"energy": -0.19671,
				"method": "rhf"
			},
			{
				"type": "unocc",
				"energy": -0.02385,
				"method": "rhf"
			},
			{
				"type": "unocc",
				"energy": 0.01216,
				"method": "rhf"
			},
			{
				"type": "unocc",
				"energy": 0.06645,
				"method": "rhf"
			},
			{
				"type": "unocc",
				"energy": 0.0845,
				"method": "rhf"
			},
			{
				"type": "unocc",
				"energy": 0.10032,
				"method": "rhf"
			}
		],
		"cosmo_sigma_profile": { 
			"-0.025": 0.0,
			"-0.024": 0.0,
			"-0.023": 0.0,
			"-0.022": 0.0,
			"-0.021": 0.0,
			"-0.02": 0.0,
			"-0.019": 0.0,
			"-0.018": 0.0,
			"-0.017": 0.0,
			"-0.016": 0.0,
			"-0.015": 0.0,
			"-0.014": 0.0,
			"-0.013": 0.490593929223,
			"-0.012": 2.77487784514,
			"-0.011": 5.00936246997,
			"-0.01": 4.92522805918,
			"-0.009": 6.29709545015,
			"-0.008": 5.3369168644,
			"-0.007": 5.20751356649,
			"-0.006": 5.95524373737,
			"-0.005": 9.59886724733,
			"-0.004": 13.8059263984,
			"-0.003": 18.5136933081,
			"-0.002": 15.532003292,
			"-0.001": 15.2714181871,
			"0.0": 15.9662618347,
			"0.001": 13.4532740492,
			"0.002": 11.4821235243,
			"0.003": 12.5389347376,
			"0.004": 14.9088288046,
			"0.005": 15.8776573293,
			"0.006": 8.81034505817,
			"0.007": 4.91725411498,
			"0.008": 2.56768521448,
			"0.009": 2.65116813084,
			"0.01": 2.7118549509,
			"0.011": 3.20692283827,
			"0.012": 4.5436798548,
			"0.013": 3.62072191998,
			"0.014": 0.617003761203,
			"0.015": 0.109813288742,
			"0.016": 0.0,
			"0.017": 0.0,
			"0.018": 0.0,
			"0.019": 0.0,
			"0.02": 0.0,
			"0.021": 0.0,
			"0.022": 0.0,
			"0.023": 0.0,
			"0.024": 0.0,
			"0.025": 0.0
		}
	}
}
