{
	 "smiles": "CCCCCCCCS(Cl)(=O)=O", 
	 "Tm": 287.15, 
	 "num_atms": 29, 
	 "gaussian": { 
		 "optdone": 1, 
		 "sigma_profile": "yes", 
		 "theory": "DFT", 
		 "functional": "B3LYP", 
		 "basiset": "6-31G**", 
		 "properties": { 
			 "R2extent": 5485.9647, 
			 "electric_dipole_moment_norm": 4.49976484497, 
			 "electric_quadrupole_moment_norm": 20.6111470561, 
			 "total_energy": -1323.879729, 
			 "HOMO_LUMO_gap": 0.2276, 
			 "cosmo_polarized_energy": -9.74, 
			 "cosmo_cavitation_energy": 33.26, 
			 "cosmo_dispersion_energy": -23.7, 
			 "cosmo_repulsion_energy": 1.88, 
			 "cosmo_total_nonelectrostatic_energy": 11.45, 
			 "SMD_solvation_energy": 3.63 
		},
		"coords": [
			{
				"x": -0.4504545774,
				"y": -2.8439007495,
				"z": -0.9797117502,
				"element": "C" 
			},
			{
				"x": -0.2208032279,
				"y": -2.3772849564,
				"z": 0.462803495,
				"element": "C" 
			},
			{
				"x": -1.4003065336,
				"y": -1.5813289202,
				"z": 1.0546859308,
				"element": "C" 
			},
			{
				"x": -1.622005057,
				"y": -0.1664849545,
				"z": 0.4691050047,
				"element": "C" 
			},
			{
				"x": -0.9945865066,
				"y": 0.9879426564,
				"z": 1.2725288615,
				"element": "C" 
			},
			{
				"x": 0.5373785185,
				"y": 0.9637328353,
				"z": 1.3644013649,
				"element": "C" 
			},
			{
				"x": 1.1428598069,
				"y": 2.1232755271,
				"z": 2.1734316172,
				"element": "C" 
			},
			{
				"x": 0.9331553784,
				"y": 3.5415029697,
				"z": 1.6390027628,
				"element": "C" 
			},
			{
				"x": 1.9397675283,
				"y": 3.9768295416,
				"z": 0.1742638787,
				"element": "S" 
			},
			{
				"x": 0.7291421911,
				"y": 3.2293863539,
				"z": -1.4290554166,
				"element": "Cl" 
			},
			{
				"x": 3.1757485567,
				"y": 3.2026599004,
				"z": 0.1647151923,
				"element": "O" 
			},
			{
				"x": 1.9394556815,
				"y": 5.4280187145,
				"z": 0.0339972357,
				"element": "O" 
			},
			{
				"x": 0.4065845482,
				"y": -3.4152681807,
				"z": -1.350912637,
				"element": "H" 
			},
			{
				"x": -1.3351750925,
				"y": -3.4875955033,
				"z": -1.0480057227,
				"element": "H" 
			},
			{
				"x": -0.6021910853,
				"y": -2.0021002806,
				"z": -1.6637363655,
				"element": "H" 
			},
			{
				"x": -0.0425979215,
				"y": -3.2573953403,
				"z": 1.0941329479,
				"element": "H" 
			},
			{
				"x": 0.6990354577,
				"y": -1.7816635071,
				"z": 0.5089585115,
				"element": "H" 
			},
			{
				"x": -1.2741153627,
				"y": -1.5011086333,
				"z": 2.1432367603,
				"element": "H" 
			},
			{
				"x": -2.3114649891,
				"y": -2.1761197304,
				"z": 0.9082455905,
				"element": "H" 
			},
			{
				"x": -2.6991228728,
				"y": 0.0291444675,
				"z": 0.4059096424,
				"element": "H" 
			},
			{
				"x": -1.2547611231,
				"y": -0.1247067542,
				"z": -0.5644396414,
				"element": "H" 
			},
			{
				"x": -1.413184084,
				"y": 0.9829204899,
				"z": 2.2898702725,
				"element": "H" 
			},
			{
				"x": -1.3199753973,
				"y": 1.930201752,
				"z": 0.812472762,
				"element": "H" 
			},
			{
				"x": 0.9717815435,
				"y": 0.9429802057,
				"z": 0.3586081038,
				"element": "H" 
			},
			{
				"x": 0.8590389452,
				"y": 0.0375615402,
				"z": 1.8534820457,
				"element": "H" 
			},
			{
				"x": 2.2177416587,
				"y": 1.9634156402,
				"z": 2.3038385768,
				"element": "H" 
			},
			{
				"x": 0.705691444,
				"y": 2.1254393462,
				"z": 3.1812373613,
				"element": "H" 
			},
			{
				"x": 1.277676364,
				"y": 4.2924593719,
				"z": 2.3578673134,
				"element": "H" 
			},
			{
				"x": -0.0970137921,
				"y": 3.7778861981,
				"z": 1.3654663016,
				"element": "H" 
			}
		],
		 "valence_orbital": [ 
			{
				"type": "occ",
				"energy": -0.32618,
				"method": "rhf"
			},
			{
				"type": "occ",
				"energy": -0.32179,
				"method": "rhf"
			},
			{
				"type": "occ",
				"energy": -0.31461,
				"method": "rhf"
			},
			{
				"type": "occ",
				"energy": -0.31425,
				"method": "rhf"
			},
			{
				"type": "occ",
				"energy": -0.31199,
				"method": "rhf"
			},
			{
				"type": "unocc",
				"energy": -0.08439,
				"method": "rhf"
			},
			{
				"type": "unocc",
				"energy": 0.03746,
				"method": "rhf"
			},
			{
				"type": "unocc",
				"energy": 0.05365,
				"method": "rhf"
			},
			{
				"type": "unocc",
				"energy": 0.06703,
				"method": "rhf"
			},
			{
				"type": "unocc",
				"energy": 0.0833,
				"method": "rhf"
			}
		],
		"cosmo_sigma_profile": { 
			"-0.025": 0.0,
			"-0.024": 0.0,
			"-0.023": 0.0,
			"-0.022": 0.0,
			"-0.021": 0.0,
			"-0.02": 0.0,
			"-0.019": 0.0,
			"-0.018": 0.0,
			"-0.017": 0.0,
			"-0.016": 0.0,
			"-0.015": 0.0,
			"-0.014": 0.0,
			"-0.013": 0.0,
			"-0.012": 0.0609560291776,
			"-0.011": 0.934035960713,
			"-0.01": 2.73727224663,
			"-0.009": 3.58602683377,
			"-0.008": 3.91051597323,
			"-0.007": 4.39281219074,
			"-0.006": 6.59264510944,
			"-0.005": 7.30524476613,
			"-0.004": 7.16380875383,
			"-0.003": 12.6905790858,
			"-0.002": 30.7959003232,
			"-0.001": 39.0715517178,
			"0.0": 36.5384228142,
			"0.001": 34.4117977313,
			"0.002": 19.4482747768,
			"0.003": 9.91180265521,
			"0.004": 11.0615808797,
			"0.005": 3.71817442364,
			"0.006": 3.00901575529,
			"0.007": 4.05340973577,
			"0.008": 10.0059139618,
			"0.009": 8.71853625307,
			"0.01": 0.632032330617,
			"0.011": 0.0,
			"0.012": 0.0,
			"0.013": 0.0,
			"0.014": 0.0,
			"0.015": 0.0,
			"0.016": 0.0,
			"0.017": 0.0,
			"0.018": 0.0,
			"0.019": 0.0,
			"0.02": 0.0,
			"0.021": 0.0,
			"0.022": 0.0,
			"0.023": 0.0,
			"0.024": 0.0,
			"0.025": 0.0
		}
	}
}
