{
	 "smiles": "NC1=C(C=C(Br)C(F)=C1)[N+]([O-])=O", 
	 "Tm": 440.15, 
	 "num_atms": 16, 
	 "gaussian": { 
		 "optdone": 1, 
		 "sigma_profile": "yes", 
		 "theory": "DFT", 
		 "functional": "B3LYP", 
		 "basiset": "6-31G**", 
		 "properties": { 
			 "R2extent": 3387.2112, 
			 "electric_dipole_moment_norm": 4.08779067713, 
			 "electric_quadrupole_moment_norm": 16.9490381984, 
			 "total_energy": -3162.14101802, 
			 "HOMO_LUMO_gap": 0.14071, 
			 "cosmo_polarized_energy": -11.29, 
			 "cosmo_cavitation_energy": 23.81, 
			 "cosmo_dispersion_energy": -18.27, 
			 "cosmo_repulsion_energy": 1.43, 
			 "cosmo_total_nonelectrostatic_energy": 6.97, 
			 "SMD_solvation_energy": 5.46 
		},
		"coords": [
			{
				"x": 2.7348122093,
				"y": -0.0459360047,
				"z": 0.6324861129,
				"element": "N" 
			},
			{
				"x": 1.508032027,
				"y": 0.1083868937,
				"z": 0.0834795208,
				"element": "C" 
			},
			{
				"x": 0.6423653414,
				"y": -0.9755609742,
				"z": -0.2484923187,
				"element": "C" 
			},
			{
				"x": -0.6217403224,
				"y": -0.7528425767,
				"z": -0.8173409816,
				"element": "C" 
			},
			{
				"x": -1.0690902422,
				"y": 0.5252676998,
				"z": -1.0744949491,
				"element": "C" 
			},
			{
				"x": -2.7721787087,
				"y": 0.8501255155,
				"z": -1.8423358101,
				"element": "Br" 
			},
			{
				"x": -0.2233529464,
				"y": 1.6009958992,
				"z": -0.7510090938,
				"element": "C" 
			},
			{
				"x": -0.6312558013,
				"y": 2.8511047641,
				"z": -0.9892312302,
				"element": "F" 
			},
			{
				"x": 1.0208214594,
				"y": 1.4089996164,
				"z": -0.1923937084,
				"element": "C" 
			},
			{
				"x": 1.0161660107,
				"y": -2.3553134909,
				"z": -0.0189560611,
				"element": "N" 
			},
			{
				"x": 2.129759028,
				"y": -2.5973572571,
				"z": 0.4848886124,
				"element": "O" 
			},
			{
				"x": 0.2194957355,
				"y": -3.2402162869,
				"z": -0.3301430939,
				"element": "O" 
			},
			{
				"x": 3.2972140195,
				"y": 0.7608049058,
				"z": 0.8439614814,
				"element": "H" 
			},
			{
				"x": 3.0604441687,
				"y": -0.9834087478,
				"z": 0.8208319806,
				"element": "H" 
			},
			{
				"x": -1.2335088091,
				"y": -1.6146985346,
				"z": -1.0474961621,
				"element": "H" 
			},
			{
				"x": 1.6283168305,
				"y": 2.2782485785,
				"z": 0.0355457009,
				"element": "H" 
			}
		],
		 "valence_orbital": [ 
			{
				"type": "occ",
				"energy": -0.30111,
				"method": "rhf"
			},
			{
				"type": "occ",
				"energy": -0.29912,
				"method": "rhf"
			},
			{
				"type": "occ",
				"energy": -0.29514,
				"method": "rhf"
			},
			{
				"type": "occ",
				"energy": -0.28296,
				"method": "rhf"
			},
			{
				"type": "occ",
				"energy": -0.23216,
				"method": "rhf"
			},
			{
				"type": "unocc",
				"energy": -0.09145,
				"method": "rhf"
			},
			{
				"type": "unocc",
				"energy": -0.02562,
				"method": "rhf"
			},
			{
				"type": "unocc",
				"energy": -0.00917,
				"method": "rhf"
			},
			{
				"type": "unocc",
				"energy": -0.00025,
				"method": "rhf"
			},
			{
				"type": "unocc",
				"energy": 0.06669,
				"method": "rhf"
			}
		],
		"cosmo_sigma_profile": { 
			"-0.025": 0.0,
			"-0.024": 0.0,
			"-0.023": 0.0,
			"-0.022": 0.0,
			"-0.021": 0.0,
			"-0.02": 0.0,
			"-0.019": 0.0,
			"-0.018": 0.0,
			"-0.017": 0.0,
			"-0.016": 0.24125665203,
			"-0.015": 1.43075739936,
			"-0.014": 2.32147955618,
			"-0.013": 0.918602374335,
			"-0.012": 1.31762402726,
			"-0.011": 2.25099126571,
			"-0.01": 3.18211930446,
			"-0.009": 2.97716076794,
			"-0.008": 2.60665580369,
			"-0.007": 3.24996289662,
			"-0.006": 4.25849362484,
			"-0.005": 6.15051568634,
			"-0.004": 8.22533911263,
			"-0.003": 8.29006565101,
			"-0.002": 15.1028473398,
			"-0.001": 21.4622149948,
			"0.0": 21.1749486867,
			"0.001": 15.1249133179,
			"0.002": 12.0144932747,
			"0.003": 19.785426116,
			"0.004": 15.4304900443,
			"0.005": 4.08255703878,
			"0.006": 2.81905280245,
			"0.007": 4.25215611435,
			"0.008": 6.33502320652,
			"0.009": 4.20794908307,
			"0.01": 4.22171600513,
			"0.011": 1.54383399712,
			"0.012": 0.0,
			"0.013": 0.0,
			"0.014": 0.0,
			"0.015": 0.0,
			"0.016": 0.0,
			"0.017": 0.0,
			"0.018": 0.0,
			"0.019": 0.0,
			"0.02": 0.0,
			"0.021": 0.0,
			"0.022": 0.0,
			"0.023": 0.0,
			"0.024": 0.0,
			"0.025": 0.0
		}
	}
}
