{
	 "smiles": "CC1CCC2C1C1C(CCC2(C)O)C1(C)C", 
	 "Tm": 378.15, 
	 "num_atms": 42, 
	 "gaussian": { 
		 "optdone": 1, 
		 "sigma_profile": "yes", 
		 "theory": "DFT", 
		 "functional": "B3LYP", 
		 "basiset": "6-31G**", 
		 "properties": { 
			 "R2extent": 3793.7135, 
			 "electric_dipole_moment_norm": 1.41611548964, 
			 "electric_quadrupole_moment_norm": 4.03768425833, 
			 "total_energy": -662.480391509, 
			 "HOMO_LUMO_gap": 0.29887, 
			 "cosmo_polarized_energy": -5.62, 
			 "cosmo_cavitation_energy": 37.49, 
			 "cosmo_dispersion_energy": -25.88, 
			 "cosmo_repulsion_energy": 1.98, 
			 "cosmo_total_nonelectrostatic_energy": 13.59, 
			 "SMD_solvation_energy": 5.5 
		},
		"coords": [
			{
				"x": 3.6064651347,
				"y": 0.2822863098,
				"z": -0.9628681299,
				"element": "C" 
			},
			{
				"x": 2.1634959962,
				"y": 0.070232779,
				"z": -1.4206704709,
				"element": "C" 
			},
			{
				"x": 1.6540912822,
				"y": 1.083293233,
				"z": -2.4539180166,
				"element": "C" 
			},
			{
				"x": 0.1417886834,
				"y": 0.8407560642,
				"z": -2.4554056631,
				"element": "C" 
			},
			{
				"x": -0.2299014339,
				"y": 0.6418847293,
				"z": -0.9620833594,
				"element": "C" 
			},
			{
				"x": 1.1158066064,
				"y": 0.1426625237,
				"z": -0.2748700231,
				"element": "C" 
			},
			{
				"x": 1.0774709432,
				"y": -1.1478155639,
				"z": 0.5379713794,
				"element": "C" 
			},
			{
				"x": 0.0483937941,
				"y": -1.3439934002,
				"z": 1.627168779,
				"element": "C" 
			},
			{
				"x": -0.9666553608,
				"y": -0.2417001352,
				"z": 1.8388537307,
				"element": "C" 
			},
			{
				"x": -2.0195232645,
				"y": -0.1960327224,
				"z": 0.7174279605,
				"element": "C" 
			},
			{
				"x": -1.5118208134,
				"y": -0.20035682,
				"z": -0.754716592,
				"element": "C" 
			},
			{
				"x": -2.6597660223,
				"y": 0.3289388691,
				"z": -1.6390129223,
				"element": "C" 
			},
			{
				"x": -1.1867687258,
				"y": -1.5325273596,
				"z": -1.188227738,
				"element": "O" 
			},
			{
				"x": 1.5173104942,
				"y": -1.2460675167,
				"z": 1.9982585592,
				"element": "C" 
			},
			{
				"x": 2.1936579371,
				"y": -2.5474625763,
				"z": 2.4050629275,
				"element": "C" 
			},
			{
				"x": 2.0678284454,
				"y": -0.0499415773,
				"z": 2.757521047,
				"element": "C" 
			},
			{
				"x": 3.9029288341,
				"y": -0.4627426073,
				"z": -0.2166752712,
				"element": "H" 
			},
			{
				"x": 4.305874694,
				"y": 0.2072654712,
				"z": -1.8032097805,
				"element": "H" 
			},
			{
				"x": 3.7332257173,
				"y": 1.2745746339,
				"z": -0.5124782151,
				"element": "H" 
			},
			{
				"x": 2.0857447774,
				"y": -0.9281865183,
				"z": -1.876174774,
				"element": "H" 
			},
			{
				"x": 2.1125734213,
				"y": 0.9549145938,
				"z": -3.4408485324,
				"element": "H" 
			},
			{
				"x": 1.880898961,
				"y": 2.1061331285,
				"z": -2.1196574717,
				"element": "H" 
			},
			{
				"x": -0.0768860835,
				"y": -0.0818231896,
				"z": -3.0050861921,
				"element": "H" 
			},
			{
				"x": -0.4232784998,
				"y": 1.6509167598,
				"z": -2.9269944868,
				"element": "H" 
			},
			{
				"x": -0.4601129937,
				"y": 1.6294677264,
				"z": -0.5399073696,
				"element": "H" 
			},
			{
				"x": 1.434977103,
				"y": 0.9592413773,
				"z": 0.3833162082,
				"element": "H" 
			},
			{
				"x": 1.280828693,
				"y": -2.0334730695,
				"z": -0.0597608375,
				"element": "H" 
			},
			{
				"x": -0.3810103854,
				"y": -2.3439570936,
				"z": 1.6899975975,
				"element": "H" 
			},
			{
				"x": -1.4809069903,
				"y": -0.3647981373,
				"z": 2.8015791334,
				"element": "H" 
			},
			{
				"x": -0.4675838304,
				"y": 0.7312272462,
				"z": 1.8926967543,
				"element": "H" 
			},
			{
				"x": -2.6440274437,
				"y": 0.6943323734,
				"z": 0.8670161348,
				"element": "H" 
			},
			{
				"x": -2.7004047332,
				"y": -1.0541373095,
				"z": 0.8182925616,
				"element": "H" 
			},
			{
				"x": -2.85848563,
				"y": 1.3900038858,
				"z": -1.4547674499,
				"element": "H" 
			},
			{
				"x": -3.585195255,
				"y": -0.2200432254,
				"z": -1.4220543006,
				"element": "H" 
			},
			{
				"x": -2.4303628161,
				"y": 0.1959945266,
				"z": -2.6984012607,
				"element": "H" 
			},
			{
				"x": -1.9946778088,
				"y": -2.0603681692,
				"z": -1.1402979523,
				"element": "H" 
			},
			{
				"x": 2.0530945649,
				"y": -2.7499667218,
				"z": 3.4744955819,
				"element": "H" 
			},
			{
				"x": 1.7905164893,
				"y": -3.4001068175,
				"z": 1.8489679354,
				"element": "H" 
			},
			{
				"x": 3.2738300582,
				"y": -2.5077757891,
				"z": 2.2153191274,
				"element": "H" 
			},
			{
				"x": 3.1383298057,
				"y": 0.0776818509,
				"z": 2.5545350768,
				"element": "H" 
			},
			{
				"x": 1.9550812107,
				"y": -0.200582787,
				"z": 3.8382810883,
				"element": "H" 
			},
			{
				"x": 1.5747544442,
				"y": 0.8922510245,
				"z": 2.5091252268,
				"element": "H" 
			}
		],
		 "valence_orbital": [ 
			{
				"type": "occ",
				"energy": -0.29839,
				"method": "rhf"
			},
			{
				"type": "occ",
				"energy": -0.28948,
				"method": "rhf"
			},
			{
				"type": "occ",
				"energy": -0.26415,
				"method": "rhf"
			},
			{
				"type": "occ",
				"energy": -0.24349,
				"method": "rhf"
			},
			{
				"type": "occ",
				"energy": -0.23336,
				"method": "rhf"
			},
			{
				"type": "unocc",
				"energy": 0.06551,
				"method": "rhf"
			},
			{
				"type": "unocc",
				"energy": 0.08525,
				"method": "rhf"
			},
			{
				"type": "unocc",
				"energy": 0.09056,
				"method": "rhf"
			},
			{
				"type": "unocc",
				"energy": 0.10571,
				"method": "rhf"
			},
			{
				"type": "unocc",
				"energy": 0.11586,
				"method": "rhf"
			}
		],
		"cosmo_sigma_profile": { 
			"-0.025": 0.0,
			"-0.024": 0.0,
			"-0.023": 0.0,
			"-0.022": 0.0,
			"-0.021": 0.0,
			"-0.02": 0.0,
			"-0.019": 0.0,
			"-0.018": 0.0,
			"-0.017": 0.0,
			"-0.016": 0.0,
			"-0.015": 0.0,
			"-0.014": 0.604436220395,
			"-0.013": 0.861211663789,
			"-0.012": 0.528112915242,
			"-0.011": 0.977006094384,
			"-0.01": 1.14991622561,
			"-0.009": 1.30578345928,
			"-0.008": 0.509894179203,
			"-0.007": 1.1800016463,
			"-0.006": 1.22878053116,
			"-0.005": 1.47998677254,
			"-0.004": 3.81266323762,
			"-0.003": 11.3881826295,
			"-0.002": 42.7036662463,
			"-0.001": 53.4905267305,
			"0.0": 54.910640106,
			"0.001": 50.4701200178,
			"0.002": 33.9407077898,
			"0.003": 7.6353403337,
			"0.004": 3.44680465008,
			"0.005": 2.30323585387,
			"0.006": 1.3457725127,
			"0.007": 1.63026889677,
			"0.008": 1.78645067524,
			"0.009": 1.40360120872,
			"0.01": 1.88031671616,
			"0.011": 1.7399243968,
			"0.012": 0.868022281361,
			"0.013": 1.09710291319,
			"0.014": 0.246509376986,
			"0.015": 0.0,
			"0.016": 0.0,
			"0.017": 0.0,
			"0.018": 0.0,
			"0.019": 0.0,
			"0.02": 0.0,
			"0.021": 0.0,
			"0.022": 0.0,
			"0.023": 0.0,
			"0.024": 0.0,
			"0.025": 0.0
		}
	}
}
