{
	 "smiles": "CC=C1CCC2C3CC=C4CC(CCC4(C)C3CCC12C)OC(C)=O", 
	 "Tm": 410.15, 
	 "num_atms": 59, 
	 "gaussian": { 
		 "optdone": 1, 
		 "sigma_profile": "yes", 
		 "theory": "DFT", 
		 "functional": "B3LYP", 
		 "basiset": "6-31G**", 
		 "properties": { 
			 "R2extent": 11490.4175, 
			 "electric_dipole_moment_norm": 1.38052412511, 
			 "electric_quadrupole_moment_norm": 9.18362121225, 
			 "total_energy": -1047.38150977, 
			 "HOMO_LUMO_gap": 0.23547, 
			 "cosmo_polarized_energy": -7.34, 
			 "cosmo_cavitation_energy": 51.53, 
			 "cosmo_dispersion_energy": -35.57, 
			 "cosmo_repulsion_energy": 2.65, 
			 "cosmo_total_nonelectrostatic_energy": 18.61, 
			 "SMD_solvation_energy": 8.39 
		},
		"coords": [
			{
				"x": 1.727220647,
				"y": -5.4654123825,
				"z": 0.5567568302,
				"element": "C" 
			},
			{
				"x": 2.878731429,
				"y": -4.5528466515,
				"z": 0.8806987326,
				"element": "C" 
			},
			{
				"x": 2.8559512859,
				"y": -3.2542092433,
				"z": 1.2025084914,
				"element": "C" 
			},
			{
				"x": 4.1285160112,
				"y": -2.4688615743,
				"z": 1.5485941243,
				"element": "C" 
			},
			{
				"x": 3.6459442594,
				"y": -1.0770084947,
				"z": 2.0133683101,
				"element": "C" 
			},
			{
				"x": 2.3266236491,
				"y": -0.9234912088,
				"z": 1.2474945713,
				"element": "C" 
			},
			{
				"x": 1.4185517167,
				"y": 0.2848685167,
				"z": 1.5492994587,
				"element": "C" 
			},
			{
				"x": 2.0973436666,
				"y": 1.5742335479,
				"z": 0.9874557795,
				"element": "C" 
			},
			{
				"x": 1.2359092189,
				"y": 2.472434467,
				"z": 0.1464167007,
				"element": "C" 
			},
			{
				"x": -0.0929283209,
				"y": 2.3773797875,
				"z": 0.0470081992,
				"element": "C" 
			},
			{
				"x": -0.9165046287,
				"y": 3.3304874218,
				"z": -0.7850708523,
				"element": "C" 
			},
			{
				"x": -1.6298269833,
				"y": 2.5591566646,
				"z": -1.9073868074,
				"element": "C" 
			},
			{
				"x": -2.2195927308,
				"y": 1.2113054319,
				"z": -1.4231911617,
				"element": "C" 
			},
			{
				"x": -2.2404402297,
				"y": 1.0609606823,
				"z": 0.1079420778,
				"element": "C" 
			},
			{
				"x": -0.8728864312,
				"y": 1.317837545,
				"z": 0.8166540397,
				"element": "C" 
			},
			{
				"x": -1.193101415,
				"y": 1.8867552064,
				"z": 2.2261020365,
				"element": "C" 
			},
			{
				"x": -0.0315798793,
				"y": 0.0110915847,
				"z": 1.0094464024,
				"element": "C" 
			},
			{
				"x": 0.0319171398,
				"y": -0.9684580871,
				"z": -0.1813518126,
				"element": "C" 
			},
			{
				"x": 0.555049259,
				"y": -2.370782076,
				"z": 0.2436405306,
				"element": "C" 
			},
			{
				"x": 1.6470831502,
				"y": -2.3147894242,
				"z": 1.3530283826,
				"element": "C" 
			},
			{
				"x": 1.038700111,
				"y": -2.5883919232,
				"z": 2.7549138131,
				"element": "C" 
			},
			{
				"x": -2.5892545526,
				"y": 3.4041952704,
				"z": -2.616331092,
				"element": "O" 
			},
			{
				"x": -3.7057808344,
				"y": 3.8379385466,
				"z": -1.9986398949,
				"element": "C" 
			},
			{
				"x": -4.5149339369,
				"y": 4.7158027313,
				"z": -2.9280700205,
				"element": "C" 
			},
			{
				"x": -4.0234149648,
				"y": 3.566291053,
				"z": -0.8583474371,
				"element": "O" 
			},
			{
				"x": 1.7389776536,
				"y": -6.3455397474,
				"z": 1.2127924374,
				"element": "H" 
			},
			{
				"x": 0.7546276142,
				"y": -4.9833883538,
				"z": 0.6650388126,
				"element": "H" 
			},
			{
				"x": 1.7988369036,
				"y": -5.8468162958,
				"z": -0.4708093776,
				"element": "H" 
			},
			{
				"x": 3.857302002,
				"y": -5.03723698,
				"z": 0.8557742604,
				"element": "H" 
			},
			{
				"x": 4.7554569124,
				"y": -2.3615664244,
				"z": 0.6533422236,
				"element": "H" 
			},
			{
				"x": 4.7410685473,
				"y": -2.9819178644,
				"z": 2.2976428668,
				"element": "H" 
			},
			{
				"x": 4.369181365,
				"y": -0.2858052385,
				"z": 1.7917991815,
				"element": "H" 
			},
			{
				"x": 3.4704551629,
				"y": -1.0594301332,
				"z": 3.0958749707,
				"element": "H" 
			},
			{
				"x": 2.6118826509,
				"y": -0.8358530545,
				"z": 0.1869533159,
				"element": "H" 
			},
			{
				"x": 1.343755226,
				"y": 0.3963461193,
				"z": 2.6375071541,
				"element": "H" 
			},
			{
				"x": 2.5075177015,
				"y": 2.1612882545,
				"z": 1.8223297345,
				"element": "H" 
			},
			{
				"x": 2.9780481356,
				"y": 1.2966737991,
				"z": 0.3916075093,
				"element": "H" 
			},
			{
				"x": 1.7551451693,
				"y": 3.2652999359,
				"z": -0.3928848541,
				"element": "H" 
			},
			{
				"x": -0.2930553052,
				"y": 4.1212198376,
				"z": -1.214199397,
				"element": "H" 
			},
			{
				"x": -1.6761189392,
				"y": 3.8081019007,
				"z": -0.1566069371,
				"element": "H" 
			},
			{
				"x": -0.9047433473,
				"y": 2.3609229691,
				"z": -2.7003135154,
				"element": "H" 
			},
			{
				"x": -3.2346558524,
				"y": 1.0998604917,
				"z": -1.815129503,
				"element": "H" 
			},
			{
				"x": -1.6279752848,
				"y": 0.4109015133,
				"z": -1.8764102255,
				"element": "H" 
			},
			{
				"x": -2.6124429963,
				"y": 0.0648487554,
				"z": 0.37740821,
				"element": "H" 
			},
			{
				"x": -2.9736345064,
				"y": 1.7752304016,
				"z": 0.4916745565,
				"element": "H" 
			},
			{
				"x": -1.8452811971,
				"y": 1.1999574649,
				"z": 2.7792118293,
				"element": "H" 
			},
			{
				"x": -0.2862687832,
				"y": 2.046239796,
				"z": 2.8162518278,
				"element": "H" 
			},
			{
				"x": -1.7124547019,
				"y": 2.8473701975,
				"z": 2.1499924712,
				"element": "H" 
			},
			{
				"x": -0.5650980193,
				"y": -0.5316330724,
				"z": 1.7999534231,
				"element": "H" 
			},
			{
				"x": -0.9588386135,
				"y": -1.1078031096,
				"z": -0.6200550615,
				"element": "H" 
			},
			{
				"x": 0.6623493205,
				"y": -0.5503774807,
				"z": -0.9759039741,
				"element": "H" 
			},
			{
				"x": 0.9505134841,
				"y": -2.8798637317,
				"z": -0.6416283993,
				"element": "H" 
			},
			{
				"x": -0.2951408955,
				"y": -2.9699425174,
				"z": 0.5918135291,
				"element": "H" 
			},
			{
				"x": 0.2414617629,
				"y": -1.8867715584,
				"z": 3.0152922952,
				"element": "H" 
			},
			{
				"x": 1.796597009,
				"y": -2.5388762887,
				"z": 3.5424743427,
				"element": "H" 
			},
			{
				"x": 0.6149693425,
				"y": -3.5972889166,
				"z": 2.780212824,
				"element": "H" 
			},
			{
				"x": -5.4305203531,
				"y": 5.0274562055,
				"z": -2.4262761428,
				"element": "H" 
			},
			{
				"x": -3.9301238955,
				"y": 5.5949625369,
				"z": -3.2150024594,
				"element": "H" 
			},
			{
				"x": -4.7556899088,
				"y": 4.1723431971,
				"z": -3.8462673311,
				"element": "H" 
			}
		],
		 "valence_orbital": [ 
			{
				"type": "occ",
				"energy": -0.27483,
				"method": "rhf"
			},
			{
				"type": "occ",
				"energy": -0.26899,
				"method": "rhf"
			},
			{
				"type": "occ",
				"energy": -0.2627,
				"method": "rhf"
			},
			{
				"type": "occ",
				"energy": -0.22428,
				"method": "rhf"
			},
			{
				"type": "occ",
				"energy": -0.22127,
				"method": "rhf"
			},
			{
				"type": "unocc",
				"energy": 0.0142,
				"method": "rhf"
			},
			{
				"type": "unocc",
				"energy": 0.02875,
				"method": "rhf"
			},
			{
				"type": "unocc",
				"energy": 0.02964,
				"method": "rhf"
			},
			{
				"type": "unocc",
				"energy": 0.07465,
				"method": "rhf"
			},
			{
				"type": "unocc",
				"energy": 0.08691,
				"method": "rhf"
			}
		],
		"cosmo_sigma_profile": { 
			"-0.025": 0.0,
			"-0.024": 0.0,
			"-0.023": 0.0,
			"-0.022": 0.0,
			"-0.021": 0.0,
			"-0.02": 0.0,
			"-0.019": 0.0,
			"-0.018": 0.0,
			"-0.017": 0.0,
			"-0.016": 0.0,
			"-0.015": 0.0,
			"-0.014": 0.0,
			"-0.013": 0.0,
			"-0.012": 0.0,
			"-0.011": 0.0,
			"-0.01": 0.0,
			"-0.009": 0.0,
			"-0.008": 0.0,
			"-0.007": 0.35787567543,
			"-0.006": 3.97021771083,
			"-0.005": 7.44456930309,
			"-0.004": 10.9980260008,
			"-0.003": 35.8106562014,
			"-0.002": 68.0157221469,
			"-0.001": 75.40785111,
			"0.0": 65.35738003,
			"0.001": 49.564139032,
			"0.002": 26.6515463447,
			"0.003": 11.8807633976,
			"0.004": 8.88369136653,
			"0.005": 7.72222969303,
			"0.006": 6.81658260824,
			"0.007": 5.03577264809,
			"0.008": 2.40722097796,
			"0.009": 3.13861740324,
			"0.01": 1.52259251719,
			"0.011": 1.81176768661,
			"0.012": 2.18117622332,
			"0.013": 1.87563711977,
			"0.014": 0.318642883075,
			"0.015": 0.0,
			"0.016": 0.0,
			"0.017": 0.0,
			"0.018": 0.0,
			"0.019": 0.0,
			"0.02": 0.0,
			"0.021": 0.0,
			"0.022": 0.0,
			"0.023": 0.0,
			"0.024": 0.0,
			"0.025": 0.0
		}
	}
}
