{
	 "smiles": "CCCC1NC(=O)NC1=O", 
	 "Tm": 407.15, 
	 "num_atms": 20, 
	 "gaussian": { 
		 "optdone": 1, 
		 "sigma_profile": "yes", 
		 "theory": "DFT", 
		 "functional": "B3LYP", 
		 "basiset": "6-31G**", 
		 "properties": { 
			 "R2extent": 1479.3634, 
			 "electric_dipole_moment_norm": 2.53761945532, 
			 "electric_quadrupole_moment_norm": 11.1073754794, 
			 "total_energy": -494.663042217, 
			 "HOMO_LUMO_gap": 0.25229, 
			 "cosmo_polarized_energy": -15.26, 
			 "cosmo_cavitation_energy": 23.04, 
			 "cosmo_dispersion_energy": -16.73, 
			 "cosmo_repulsion_energy": 1.4, 
			 "cosmo_total_nonelectrostatic_energy": 7.7, 
			 "SMD_solvation_energy": 5.1 
		},
		"coords": [
			{
				"x": -1.298992427,
				"y": 0.3896809451,
				"z": 1.7423950179,
				"element": "C" 
			},
			{
				"x": -1.4011989065,
				"y": 1.2045952225,
				"z": 0.4473388895,
				"element": "C" 
			},
			{
				"x": -0.0637523321,
				"y": 1.6035982849,
				"z": -0.195707443,
				"element": "C" 
			},
			{
				"x": 0.8119801703,
				"y": 0.462227988,
				"z": -0.745299994,
				"element": "C" 
			},
			{
				"x": 0.1187531574,
				"y": -0.557310075,
				"z": -1.523021798,
				"element": "N" 
			},
			{
				"x": 0.45611677,
				"y": -1.8399370971,
				"z": -1.1584826591,
				"element": "C" 
			},
			{
				"x": 0.1381466795,
				"y": -2.8847063869,
				"z": -1.6856546399,
				"element": "O" 
			},
			{
				"x": 1.2638341891,
				"y": -1.7013109185,
				"z": -0.0084875101,
				"element": "N" 
			},
			{
				"x": 1.5017013773,
				"y": -0.3865085552,
				"z": 0.3390681695,
				"element": "C" 
			},
			{
				"x": 2.1399770655,
				"y": 0.021983197,
				"z": 1.2853889955,
				"element": "O" 
			},
			{
				"x": -0.6518469376,
				"y": 0.881754251,
				"z": 2.4756936294,
				"element": "H" 
			},
			{
				"x": -0.8976026991,
				"y": -0.6127544636,
				"z": 1.5671010902,
				"element": "H" 
			},
			{
				"x": -2.288314553,
				"y": 0.2650257094,
				"z": 2.1942615635,
				"element": "H" 
			},
			{
				"x": -1.9481046152,
				"y": 2.1329008375,
				"z": 0.6538141231,
				"element": "H" 
			},
			{
				"x": -2.0034824149,
				"y": 0.6536326873,
				"z": -0.2849474991,
				"element": "H" 
			},
			{
				"x": -0.2633200075,
				"y": 2.2977865147,
				"z": -1.0216098287,
				"element": "H" 
			},
			{
				"x": 0.5590261113,
				"y": 2.1484467212,
				"z": 0.5243147269,
				"element": "H" 
			},
			{
				"x": 1.626041242,
				"y": 0.9159527095,
				"z": -1.3317480748,
				"element": "H" 
			},
			{
				"x": -0.2734912911,
				"y": -0.3987182724,
				"z": -2.438391538,
				"element": "H" 
			},
			{
				"x": 1.6014294216,
				"y": -2.4990392993,
				"z": 0.5105747793,
				"element": "H" 
			}
		],
		 "valence_orbital": [ 
			{
				"type": "occ",
				"energy": -0.33786,
				"method": "rhf"
			},
			{
				"type": "occ",
				"energy": -0.29199,
				"method": "rhf"
			},
			{
				"type": "occ",
				"energy": -0.29042,
				"method": "rhf"
			},
			{
				"type": "occ",
				"energy": -0.26949,
				"method": "rhf"
			},
			{
				"type": "occ",
				"energy": -0.2638,
				"method": "rhf"
			},
			{
				"type": "unocc",
				"energy": -0.01151,
				"method": "rhf"
			},
			{
				"type": "unocc",
				"energy": 0.05518,
				"method": "rhf"
			},
			{
				"type": "unocc",
				"energy": 0.06916,
				"method": "rhf"
			},
			{
				"type": "unocc",
				"energy": 0.09243,
				"method": "rhf"
			},
			{
				"type": "unocc",
				"energy": 0.10472,
				"method": "rhf"
			}
		],
		"cosmo_sigma_profile": { 
			"-0.025": 0.0,
			"-0.024": 0.0,
			"-0.023": 0.0,
			"-0.022": 0.0,
			"-0.021": 0.0,
			"-0.02": 0.0,
			"-0.019": 0.0,
			"-0.018": 0.0,
			"-0.017": 0.228381928365,
			"-0.016": 1.29566480629,
			"-0.015": 2.47712129792,
			"-0.014": 1.82344284833,
			"-0.013": 1.74906780813,
			"-0.012": 1.9065904074,
			"-0.011": 1.49230064173,
			"-0.01": 2.53898219262,
			"-0.009": 1.76594320429,
			"-0.008": 2.38911303974,
			"-0.007": 7.06500713398,
			"-0.006": 6.22949920546,
			"-0.005": 5.07230499693,
			"-0.004": 6.60918768887,
			"-0.003": 14.9692658529,
			"-0.002": 20.4745613665,
			"-0.001": 19.4346478718,
			"0.0": 16.4680563649,
			"0.001": 13.2632438108,
			"0.002": 6.42577559848,
			"0.003": 3.8456006816,
			"0.004": 3.04652701336,
			"0.005": 3.30685357601,
			"0.006": 2.49882721139,
			"0.007": 2.13895304225,
			"0.008": 2.93875875264,
			"0.009": 2.5127988179,
			"0.01": 3.04246791292,
			"0.011": 4.27548481843,
			"0.012": 9.61520609166,
			"0.013": 8.14097693266,
			"0.014": 0.990104775723,
			"0.015": 0.0,
			"0.016": 0.0,
			"0.017": 0.0,
			"0.018": 0.0,
			"0.019": 0.0,
			"0.02": 0.0,
			"0.021": 0.0,
			"0.022": 0.0,
			"0.023": 0.0,
			"0.024": 0.0,
			"0.025": 0.0
		}
	}
}
