{
	 "smiles": "CC1=C(CNC2=CC3=C(NC(=O)N3)C=C2)C=CC=C1", 
	 "Tm": 478.15, 
	 "num_atms": 34, 
	 "gaussian": { 
		 "optdone": 1, 
		 "sigma_profile": "yes", 
		 "theory": "DFT", 
		 "functional": "B3LYP", 
		 "basiset": "6-31G**", 
		 "properties": { 
			 "R2extent": 8420.7715, 
			 "electric_dipole_moment_norm": 4.41684165553, 
			 "electric_quadrupole_moment_norm": 25.3597324221, 
			 "total_energy": -820.153986425, 
			 "HOMO_LUMO_gap": 0.16802, 
			 "cosmo_polarized_energy": -18.22, 
			 "cosmo_cavitation_energy": 37.85, 
			 "cosmo_dispersion_energy": -27.33, 
			 "cosmo_repulsion_energy": 2.09, 
			 "cosmo_total_nonelectrostatic_energy": 12.61, 
			 "SMD_solvation_energy": 5.74 
		},
		"coords": [
			{
				"x": 1.7890225416,
				"y": -2.1743596193,
				"z": 1.1402503953,
				"element": "C" 
			},
			{
				"x": 0.5242270181,
				"y": -3.0019855204,
				"z": 1.2154427143,
				"element": "C" 
			},
			{
				"x": -0.7141065081,
				"y": -2.431543697,
				"z": 1.5808363086,
				"element": "C" 
			},
			{
				"x": -0.8426964639,
				"y": -0.9496931021,
				"z": 1.8659239708,
				"element": "C" 
			},
			{
				"x": -1.1010784691,
				"y": -0.2115767254,
				"z": 0.6321804607,
				"element": "N" 
			},
			{
				"x": -1.0013348183,
				"y": 1.1769716317,
				"z": 0.5682417259,
				"element": "C" 
			},
			{
				"x": -0.941392201,
				"y": 1.7985452714,
				"z": -0.7004150457,
				"element": "C" 
			},
			{
				"x": -0.8835344862,
				"y": 3.1809658635,
				"z": -0.7542948258,
				"element": "C" 
			},
			{
				"x": -0.8817234772,
				"y": 3.9709168568,
				"z": 0.4154671018,
				"element": "C" 
			},
			{
				"x": -0.8131132588,
				"y": 5.3021702297,
				"z": -0.004310466,
				"element": "N" 
			},
			{
				"x": -0.7728515529,
				"y": 5.3940975092,
				"z": -1.3918652886,
				"element": "C" 
			},
			{
				"x": -0.7136536384,
				"y": 6.3981865452,
				"z": -2.0797238645,
				"element": "O" 
			},
			{
				"x": -0.8151064972,
				"y": 4.0643657224,
				"z": -1.8254444136,
				"element": "N" 
			},
			{
				"x": -0.939876899,
				"y": 3.3712237047,
				"z": 1.6617263418,
				"element": "C" 
			},
			{
				"x": -0.9973921067,
				"y": 1.9719566313,
				"z": 1.7316957623,
				"element": "C" 
			},
			{
				"x": -1.8542343565,
				"y": -3.2411435268,
				"z": 1.6455531208,
				"element": "C" 
			},
			{
				"x": -1.7909418291,
				"y": -4.6052702395,
				"z": 1.3625890402,
				"element": "C" 
			},
			{
				"x": -0.5687559888,
				"y": -5.1732662924,
				"z": 1.0055715304,
				"element": "C" 
			},
			{
				"x": 0.5722190886,
				"y": -4.3735702086,
				"z": 0.9341489771,
				"element": "C" 
			},
			{
				"x": 1.6562585469,
				"y": -1.2709515208,
				"z": 0.5359498001,
				"element": "H" 
			},
			{
				"x": 2.6065670272,
				"y": -2.7528261398,
				"z": 0.7023241519,
				"element": "H" 
			},
			{
				"x": 2.1148964282,
				"y": -1.8455014388,
				"z": 2.134658211,
				"element": "H" 
			},
			{
				"x": 0.0636080981,
				"y": -0.57542453,
				"z": 2.3670741227,
				"element": "H" 
			},
			{
				"x": -1.67423071,
				"y": -0.7868806409,
				"z": 2.5642352514,
				"element": "H" 
			},
			{
				"x": -0.8293486447,
				"y": -0.7007554385,
				"z": -0.2084105102,
				"element": "H" 
			},
			{
				"x": -0.9479926787,
				"y": 1.1998066786,
				"z": -1.6070297986,
				"element": "H" 
			},
			{
				"x": -0.7975726905,
				"y": 6.1237709728,
				"z": 0.5768315035,
				"element": "H" 
			},
			{
				"x": -0.8069359738,
				"y": 3.8334612477,
				"z": -2.8053797518,
				"element": "H" 
			},
			{
				"x": -0.9393522045,
				"y": 3.9625133365,
				"z": 2.5723234215,
				"element": "H" 
			},
			{
				"x": -1.0496547569,
				"y": 1.5021681768,
				"z": 2.7064171076,
				"element": "H" 
			},
			{
				"x": -2.8034191366,
				"y": -2.7894523514,
				"z": 1.922877886,
				"element": "H" 
			},
			{
				"x": -2.6867323486,
				"y": -5.2165557716,
				"z": 1.4210370653,
				"element": "H" 
			},
			{
				"x": -0.5009002459,
				"y": -6.2343733232,
				"z": 0.7828661247,
				"element": "H" 
			},
			{
				"x": 1.5234331925,
				"y": -4.820390292,
				"z": 0.6555518691,
				"element": "H" 
			}
		],
		 "valence_orbital": [ 
			{
				"type": "occ",
				"energy": -0.25948,
				"method": "rhf"
			},
			{
				"type": "occ",
				"energy": -0.25216,
				"method": "rhf"
			},
			{
				"type": "occ",
				"energy": -0.24578,
				"method": "rhf"
			},
			{
				"type": "occ",
				"energy": -0.22128,
				"method": "rhf"
			},
			{
				"type": "occ",
				"energy": -0.17908,
				"method": "rhf"
			},
			{
				"type": "unocc",
				"energy": -0.01106,
				"method": "rhf"
			},
			{
				"type": "unocc",
				"energy": -0.00411,
				"method": "rhf"
			},
			{
				"type": "unocc",
				"energy": 0.0006,
				"method": "rhf"
			},
			{
				"type": "unocc",
				"energy": 0.03392,
				"method": "rhf"
			},
			{
				"type": "unocc",
				"energy": 0.07759,
				"method": "rhf"
			}
		],
		"cosmo_sigma_profile": { 
			"-0.025": 0.0,
			"-0.024": 0.0,
			"-0.023": 0.0,
			"-0.022": 0.0,
			"-0.021": 0.0,
			"-0.02": 0.0,
			"-0.019": 0.0,
			"-0.018": 0.0,
			"-0.017": 0.0,
			"-0.016": 1.02157009863,
			"-0.015": 2.558237986,
			"-0.014": 2.44429316748,
			"-0.013": 2.53573950208,
			"-0.012": 1.94515445929,
			"-0.011": 1.835311861,
			"-0.01": 2.85333273255,
			"-0.009": 4.28533776945,
			"-0.008": 3.56441981308,
			"-0.007": 4.853056929,
			"-0.006": 9.36820235621,
			"-0.005": 17.3914874287,
			"-0.004": 26.0865150292,
			"-0.003": 25.4132427288,
			"-0.002": 20.74415977,
			"-0.001": 18.9440614126,
			"0.0": 21.0833120626,
			"0.001": 19.4885840489,
			"0.002": 19.3531878466,
			"0.003": 16.486974998,
			"0.004": 15.6052075065,
			"0.005": 16.2353719281,
			"0.006": 17.5235095269,
			"0.007": 7.37079601833,
			"0.008": 2.11596886256,
			"0.009": 1.65283377735,
			"0.01": 1.77019671292,
			"0.011": 2.38880991996,
			"0.012": 1.54925577428,
			"0.013": 3.32392269592,
			"0.014": 7.05911437973,
			"0.015": 1.92300564926,
			"0.016": 0.0,
			"0.017": 0.0,
			"0.018": 0.0,
			"0.019": 0.0,
			"0.02": 0.0,
			"0.021": 0.0,
			"0.022": 0.0,
			"0.023": 0.0,
			"0.024": 0.0,
			"0.025": 0.0
		}
	}
}
