{
	 "smiles": "[O-][N+](=O)C1=C(C=CC=C1)C1=CNN=C1", 
	 "Tm": 379.15, 
	 "num_atms": 21, 
	 "gaussian": { 
		 "optdone": 1, 
		 "sigma_profile": "yes", 
		 "theory": "DFT", 
		 "functional": "B3LYP", 
		 "basiset": "6-31G**", 
		 "properties": { 
			 "R2extent": 3325.1192, 
			 "electric_dipole_moment_norm": 5.787883513, 
			 "electric_quadrupole_moment_norm": 14.6018292142, 
			 "total_energy": -661.747666596, 
			 "HOMO_LUMO_gap": 0.15585, 
			 "cosmo_polarized_energy": -16.47, 
			 "cosmo_cavitation_energy": 26.28, 
			 "cosmo_dispersion_energy": -19.11, 
			 "cosmo_repulsion_energy": 1.49, 
			 "cosmo_total_nonelectrostatic_energy": 8.67, 
			 "SMD_solvation_energy": 5.96 
		},
		"coords": [
			{
				"x": 2.4750827945,
				"y": 1.4129518111,
				"z": -1.5897755142,
				"element": "O" 
			},
			{
				"x": 1.5971482601,
				"y": 2.1271009665,
				"z": -2.0668581439,
				"element": "N" 
			},
			{
				"x": 1.7924474735,
				"y": 3.2198879108,
				"z": -2.6014282328,
				"element": "O" 
			},
			{
				"x": 0.2077645853,
				"y": 1.6297190486,
				"z": -2.0451870551,
				"element": "C" 
			},
			{
				"x": -0.2819911125,
				"y": 0.830784819,
				"z": -0.9922597371,
				"element": "C" 
			},
			{
				"x": -1.5985782471,
				"y": 0.3550716216,
				"z": -1.1439200842,
				"element": "C" 
			},
			{
				"x": -2.3675817243,
				"y": 0.6423526406,
				"z": -2.2683181071,
				"element": "C" 
			},
			{
				"x": -1.8562221016,
				"y": 1.4577700341,
				"z": -3.2799210466,
				"element": "C" 
			},
			{
				"x": -0.5660775143,
				"y": 1.961719369,
				"z": -3.1581844181,
				"element": "C" 
			},
			{
				"x": 0.441372379,
				"y": 0.5191450642,
				"z": 0.2506712505,
				"element": "C" 
			},
			{
				"x": 0.4244239485,
				"y": -0.6938015446,
				"z": 0.9251186076,
				"element": "C" 
			},
			{
				"x": 1.1502262533,
				"y": -0.5160152525,
				"z": 2.0554913572,
				"element": "N" 
			},
			{
				"x": 1.6395547038,
				"y": 0.7373724482,
				"z": 2.1829199401,
				"element": "N" 
			},
			{
				"x": 1.2172224433,
				"y": 1.3642310237,
				"z": 1.0924761348,
				"element": "C" 
			},
			{
				"x": -2.0255983026,
				"y": -0.2303357269,
				"z": -0.3359134989,
				"element": "H" 
			},
			{
				"x": -3.3759167211,
				"y": 0.2461968921,
				"z": -2.3434367851,
				"element": "H" 
			},
			{
				"x": -2.4540171729,
				"y": 1.7010198944,
				"z": -4.1522213844,
				"element": "H" 
			},
			{
				"x": -0.1316553073,
				"y": 2.5990127776,
				"z": -3.9186658027,
				"element": "H" 
			},
			{
				"x": -0.0154734826,
				"y": -1.6459588362,
				"z": 0.6667818488,
				"element": "H" 
			},
			{
				"x": 1.3652510711,
				"y": -1.1990023036,
				"z": 2.7648479385,
				"element": "H" 
			},
			{
				"x": 1.4695177738,
				"y": 2.4048773422,
				"z": 0.9429827327,
				"element": "H" 
			}
		],
		 "valence_orbital": [ 
			{
				"type": "occ",
				"energy": -0.29752,
				"method": "rhf"
			},
			{
				"type": "occ",
				"energy": -0.28176,
				"method": "rhf"
			},
			{
				"type": "occ",
				"energy": -0.26997,
				"method": "rhf"
			},
			{
				"type": "occ",
				"energy": -0.26207,
				"method": "rhf"
			},
			{
				"type": "occ",
				"energy": -0.2371,
				"method": "rhf"
			},
			{
				"type": "unocc",
				"energy": -0.08125,
				"method": "rhf"
			},
			{
				"type": "unocc",
				"energy": -0.03138,
				"method": "rhf"
			},
			{
				"type": "unocc",
				"energy": -0.00907,
				"method": "rhf"
			},
			{
				"type": "unocc",
				"energy": 0.01492,
				"method": "rhf"
			},
			{
				"type": "unocc",
				"energy": 0.06881,
				"method": "rhf"
			}
		],
		"cosmo_sigma_profile": { 
			"-0.025": 0.0,
			"-0.024": 0.0,
			"-0.023": 0.0,
			"-0.022": 0.0,
			"-0.021": 0.0,
			"-0.02": 0.0,
			"-0.019": 0.0,
			"-0.018": 0.0,
			"-0.017": 0.873420064263,
			"-0.016": 1.84963383175,
			"-0.015": 1.35522314116,
			"-0.014": 1.31332916701,
			"-0.013": 0.742977597927,
			"-0.012": 0.628076658169,
			"-0.011": 1.44684498098,
			"-0.01": 1.68432467076,
			"-0.009": 3.45190580985,
			"-0.008": 5.21569424866,
			"-0.007": 12.2461029874,
			"-0.006": 13.1423565702,
			"-0.005": 14.2829514996,
			"-0.004": 9.91167775506,
			"-0.003": 8.40625618192,
			"-0.002": 10.2294159606,
			"-0.001": 9.42004810277,
			"0.0": 10.782119993,
			"0.001": 15.6372768447,
			"0.002": 18.8187781331,
			"0.003": 13.458751448,
			"0.004": 5.35200384548,
			"0.005": 6.1489737458,
			"0.006": 6.08926136051,
			"0.007": 8.8950083216,
			"0.008": 11.7622626533,
			"0.009": 8.07547598487,
			"0.01": 3.68417787601,
			"0.011": 1.35081780888,
			"0.012": 1.7043274733,
			"0.013": 0.974583033997,
			"0.014": 0.715486420017,
			"0.015": 1.36948992351,
			"0.016": 0.459829534039,
			"0.017": 0.0,
			"0.018": 0.0,
			"0.019": 0.0,
			"0.02": 0.0,
			"0.021": 0.0,
			"0.022": 0.0,
			"0.023": 0.0,
			"0.024": 0.0,
			"0.025": 0.0
		}
	}
}
