{
	 "smiles": "OC12CCOC1(NC1=C2C=CC=C1)C1CC2CCN1CC2C=C", 
	 "Tm": 459.15, 
	 "num_atms": 47, 
	 "gaussian": { 
		 "optdone": 1, 
		 "sigma_profile": "yes", 
		 "theory": "DFT", 
		 "functional": "B3LYP", 
		 "basiset": "6-31G**", 
		 "properties": { 
			 "R2extent": 7020.8886, 
			 "electric_dipole_moment_norm": 2.58832074906, 
			 "electric_quadrupole_moment_norm": 4.48006179868, 
			 "total_energy": -998.393648442, 
			 "HOMO_LUMO_gap": 0.19502, 
			 "cosmo_polarized_energy": -12.97, 
			 "cosmo_cavitation_energy": 43.25, 
			 "cosmo_dispersion_energy": -30.2, 
			 "cosmo_repulsion_energy": 2.24, 
			 "cosmo_total_nonelectrostatic_energy": 15.28, 
			 "SMD_solvation_energy": 5.49 
		},
		"coords": [
			{
				"x": 2.5742190623,
				"y": -1.7229372522,
				"z": -0.6144315219,
				"element": "O" 
			},
			{
				"x": 1.5005040888,
				"y": -1.9478265177,
				"z": -1.5022492085,
				"element": "C" 
			},
			{
				"x": 2.0883111575,
				"y": -2.1306041542,
				"z": -2.9187479421,
				"element": "C" 
			},
			{
				"x": 2.0580960296,
				"y": -0.7121571017,
				"z": -3.4820440478,
				"element": "C" 
			},
			{
				"x": 0.8276863956,
				"y": -0.154545333,
				"z": -3.0072667874,
				"element": "O" 
			},
			{
				"x": 0.5503554206,
				"y": -0.6805373292,
				"z": -1.701211441,
				"element": "C" 
			},
			{
				"x": -0.7824493241,
				"y": -1.2446295146,
				"z": -1.6620516946,
				"element": "N" 
			},
			{
				"x": -0.7804963832,
				"y": -2.5653060559,
				"z": -1.2253953339,
				"element": "C" 
			},
			{
				"x": 0.5354363971,
				"y": -3.0363860955,
				"z": -1.0838184479,
				"element": "C" 
			},
			{
				"x": 0.7788343538,
				"y": -4.3255035823,
				"z": -0.635637185,
				"element": "C" 
			},
			{
				"x": -0.3064161251,
				"y": -5.160521466,
				"z": -0.3318781793,
				"element": "C" 
			},
			{
				"x": -1.6126055904,
				"y": -4.6883871457,
				"z": -0.4852515774,
				"element": "C" 
			},
			{
				"x": -1.8714665577,
				"y": -3.3869977864,
				"z": -0.9330888302,
				"element": "C" 
			},
			{
				"x": 0.8270441332,
				"y": 0.477027661,
				"z": -0.7140849036,
				"element": "C" 
			},
			{
				"x": -0.1276595681,
				"y": 1.6999090696,
				"z": -0.8685361306,
				"element": "C" 
			},
			{
				"x": -0.5493412871,
				"y": 2.1731151668,
				"z": 0.5377664252,
				"element": "C" 
			},
			{
				"x": 0.7224405623,
				"y": 2.4704710536,
				"z": 1.3623803144,
				"element": "C" 
			},
			{
				"x": 1.5603282719,
				"y": 1.159753663,
				"z": 1.4625889222,
				"element": "C" 
			},
			{
				"x": 0.9166725415,
				"y": 0.054912437,
				"z": 0.7153641242,
				"element": "N" 
			},
			{
				"x": -0.4005088588,
				"y": -0.2000179345,
				"z": 1.3351356327,
				"element": "C" 
			},
			{
				"x": -1.3643836425,
				"y": 1.0319314423,
				"z": 1.189903615,
				"element": "C" 
			},
			{
				"x": -2.0638270486,
				"y": 1.3532020599,
				"z": 2.4886602905,
				"element": "C" 
			},
			{
				"x": -2.2611586293,
				"y": 2.5537409999,
				"z": 3.0363418493,
				"element": "C" 
			},
			{
				"x": 2.1668359893,
				"y": -1.3290912452,
				"z": 0.1876785213,
				"element": "H" 
			},
			{
				"x": 3.0899474229,
				"y": -2.5633464526,
				"z": -2.8607746733,
				"element": "H" 
			},
			{
				"x": 1.4461718756,
				"y": -2.7849038212,
				"z": -3.5141773927,
				"element": "H" 
			},
			{
				"x": 2.0415171476,
				"y": -0.6655758707,
				"z": -4.5745118032,
				"element": "H" 
			},
			{
				"x": 2.9174069169,
				"y": -0.1277732159,
				"z": -3.1198559884,
				"element": "H" 
			},
			{
				"x": -1.5955545962,
				"y": -0.6573803592,
				"z": -1.561787562,
				"element": "H" 
			},
			{
				"x": 1.8010653021,
				"y": -4.6717902624,
				"z": -0.5099576381,
				"element": "H" 
			},
			{
				"x": -0.1328201744,
				"y": -6.1706947594,
				"z": 0.0258915234,
				"element": "H" 
			},
			{
				"x": -2.4498196779,
				"y": -5.3393182071,
				"z": -0.2478985941,
				"element": "H" 
			},
			{
				"x": -2.8912927122,
				"y": -3.0288020594,
				"z": -1.0438033862,
				"element": "H" 
			},
			{
				"x": 1.8435561276,
				"y": 0.7921690912,
				"z": -0.9654038471,
				"element": "H" 
			},
			{
				"x": -1.0183820397,
				"y": 1.4507720679,
				"z": -1.4580826489,
				"element": "H" 
			},
			{
				"x": 0.3779296337,
				"y": 2.5046549775,
				"z": -1.4108707563,
				"element": "H" 
			},
			{
				"x": -1.1650214781,
				"y": 3.0745201632,
				"z": 0.4508997001,
				"element": "H" 
			},
			{
				"x": 1.2965366135,
				"y": 3.2646989921,
				"z": 0.8716586289,
				"element": "H" 
			},
			{
				"x": 0.4564897899,
				"y": 2.835355157,
				"z": 2.3580207242,
				"element": "H" 
			},
			{
				"x": 2.5699781734,
				"y": 1.2967431238,
				"z": 1.0622946809,
				"element": "H" 
			},
			{
				"x": 1.6657408074,
				"y": 0.8367919598,
				"z": 2.5031883949,
				"element": "H" 
			},
			{
				"x": -0.8365991799,
				"y": -1.1022385629,
				"z": 0.9063272116,
				"element": "H" 
			},
			{
				"x": -0.2125670555,
				"y": -0.4104992858,
				"z": 2.3933876586,
				"element": "H" 
			},
			{
				"x": -2.1564767018,
				"y": 0.7522007332,
				"z": 0.4769007599,
				"element": "H" 
			},
			{
				"x": -2.4614253561,
				"y": 0.4798331511,
				"z": 3.0097733373,
				"element": "H" 
			},
			{
				"x": -2.799315735,
				"y": 2.6602867061,
				"z": 3.9735778644,
				"element": "H" 
			},
			{
				"x": -1.9072164922,
				"y": 3.4725816946,
				"z": 2.5781773424,
				"element": "H" 
			}
		],
		 "valence_orbital": [ 
			{
				"type": "occ",
				"energy": -0.25705,
				"method": "rhf"
			},
			{
				"type": "occ",
				"energy": -0.25259,
				"method": "rhf"
			},
			{
				"type": "occ",
				"energy": -0.23705,
				"method": "rhf"
			},
			{
				"type": "occ",
				"energy": -0.22376,
				"method": "rhf"
			},
			{
				"type": "occ",
				"energy": -0.19218,
				"method": "rhf"
			},
			{
				"type": "unocc",
				"energy": 0.00284,
				"method": "rhf"
			},
			{
				"type": "unocc",
				"energy": 0.01177,
				"method": "rhf"
			},
			{
				"type": "unocc",
				"energy": 0.02341,
				"method": "rhf"
			},
			{
				"type": "unocc",
				"energy": 0.06161,
				"method": "rhf"
			},
			{
				"type": "unocc",
				"energy": 0.07878,
				"method": "rhf"
			}
		],
		"cosmo_sigma_profile": { 
			"-0.025": 0.0,
			"-0.024": 0.0,
			"-0.023": 0.0,
			"-0.022": 0.0,
			"-0.021": 0.0,
			"-0.02": 0.0,
			"-0.019": 0.0,
			"-0.018": 0.0,
			"-0.017": 0.0,
			"-0.016": 0.0,
			"-0.015": 0.0,
			"-0.014": 0.0,
			"-0.013": 0.0530238346545,
			"-0.012": 0.693650438017,
			"-0.011": 1.5353090929,
			"-0.01": 2.29759165931,
			"-0.009": 2.20695054437,
			"-0.008": 1.70718931484,
			"-0.007": 1.94193677562,
			"-0.006": 3.60817287412,
			"-0.005": 13.5287012042,
			"-0.004": 30.8528184969,
			"-0.003": 45.4518500589,
			"-0.002": 44.819932391,
			"-0.001": 37.9242379868,
			"0.0": 29.9420803801,
			"0.001": 22.3703239475,
			"0.002": 16.2215810246,
			"0.003": 13.7945425736,
			"0.004": 14.0111176645,
			"0.005": 12.9850581512,
			"0.006": 12.3307482831,
			"0.007": 10.491254181,
			"0.008": 2.91449490371,
			"0.009": 2.8202822872,
			"0.01": 2.03671290959,
			"0.011": 2.86043607101,
			"0.012": 2.71214400847,
			"0.013": 2.86981733984,
			"0.014": 2.42923673996,
			"0.015": 0.236129069888,
			"0.016": 0.0,
			"0.017": 0.0,
			"0.018": 0.0,
			"0.019": 0.0,
			"0.02": 0.0,
			"0.021": 0.0,
			"0.022": 0.0,
			"0.023": 0.0,
			"0.024": 0.0,
			"0.025": 0.0
		}
	}
}
