{
	 "smiles": "CC(=O)C(CC(=O)C1=CC=CC=C1)(C#N)C1=CC=CC=C1", 
	 "Tm": 367.15, 
	 "num_atms": 36, 
	 "gaussian": { 
		 "optdone": 1, 
		 "sigma_profile": "yes", 
		 "theory": "DFT", 
		 "functional": "B3LYP", 
		 "basiset": "6-31G**", 
		 "properties": { 
			 "R2extent": 8053.4582, 
			 "electric_dipole_moment_norm": 3.93249596567, 
			 "electric_quadrupole_moment_norm": 25.6892555079, 
			 "total_energy": -900.135426513, 
			 "HOMO_LUMO_gap": 0.18155, 
			 "cosmo_polarized_energy": -15.53, 
			 "cosmo_cavitation_energy": 40.51, 
			 "cosmo_dispersion_energy": -27.41, 
			 "cosmo_repulsion_energy": 2.09, 
			 "cosmo_total_nonelectrostatic_energy": 15.18, 
			 "SMD_solvation_energy": 8.6 
		},
		"coords": [
			{
				"x": 1.4908074567,
				"y": 3.0283661462,
				"z": 2.2792407151,
				"element": "C" 
			},
			{
				"x": 1.2753251868,
				"y": 2.0141685533,
				"z": 1.186555269,
				"element": "C" 
			},
			{
				"x": 0.6188930252,
				"y": 2.237606394,
				"z": 0.1911977829,
				"element": "O" 
			},
			{
				"x": 2.0007051189,
				"y": 0.6237487245,
				"z": 1.3087473236,
				"element": "C" 
			},
			{
				"x": 1.074207083,
				"y": -0.4757739122,
				"z": 0.7281490225,
				"element": "C" 
			},
			{
				"x": -0.2599884339,
				"y": -0.5680998266,
				"z": 1.465616603,
				"element": "C" 
			},
			{
				"x": -0.5367811123,
				"y": 0.2472717418,
				"z": 2.3349770673,
				"element": "O" 
			},
			{
				"x": -1.2146835583,
				"y": -1.6551294455,
				"z": 1.0948081877,
				"element": "C" 
			},
			{
				"x": -2.4251604984,
				"y": -1.7377815868,
				"z": 1.8027054376,
				"element": "C" 
			},
			{
				"x": -3.3525970589,
				"y": -2.7285009731,
				"z": 1.4976627463,
				"element": "C" 
			},
			{
				"x": -3.0836217843,
				"y": -3.6478994088,
				"z": 0.4788649429,
				"element": "C" 
			},
			{
				"x": -1.8845716488,
				"y": -3.5727732525,
				"z": -0.2326427454,
				"element": "C" 
			},
			{
				"x": -0.9524238607,
				"y": -2.5820892957,
				"z": 0.0736363216,
				"element": "C" 
			},
			{
				"x": 2.2993200831,
				"y": 0.3098765234,
				"z": 2.7148900972,
				"element": "C" 
			},
			{
				"x": 2.5719456525,
				"y": 0.0465846459,
				"z": 3.8122741196,
				"element": "N" 
			},
			{
				"x": 3.3147046131,
				"y": 0.7015096205,
				"z": 0.4886803758,
				"element": "C" 
			},
			{
				"x": 4.5547226917,
				"y": 0.3665347026,
				"z": 1.0465812047,
				"element": "C" 
			},
			{
				"x": 5.7164926833,
				"y": 0.419395081,
				"z": 0.2732648508,
				"element": "C" 
			},
			{
				"x": 5.6569466323,
				"y": 0.8090548145,
				"z": -1.0639257324,
				"element": "C" 
			},
			{
				"x": 4.4244582917,
				"y": 1.1492549122,
				"z": -1.6247987381,
				"element": "C" 
			},
			{
				"x": 3.2619934831,
				"y": 1.0975757654,
				"z": -0.8569034496,
				"element": "C" 
			},
			{
				"x": 0.9731285285,
				"y": 2.6918463271,
				"z": 3.1831700633,
				"element": "H" 
			},
			{
				"x": 1.0908555877,
				"y": 3.9915719562,
				"z": 1.9608944966,
				"element": "H" 
			},
			{
				"x": 2.5536475752,
				"y": 3.119041399,
				"z": 2.5263995943,
				"element": "H" 
			},
			{
				"x": 0.8738995226,
				"y": -0.234486934,
				"z": -0.319997426,
				"element": "H" 
			},
			{
				"x": 1.5928132744,
				"y": -1.4394651112,
				"z": 0.74693811,
				"element": "H" 
			},
			{
				"x": -2.6112998558,
				"y": -1.0122844037,
				"z": 2.5872594844,
				"element": "H" 
			},
			{
				"x": -4.2852286103,
				"y": -2.7870084031,
				"z": 2.0508985946,
				"element": "H" 
			},
			{
				"x": -3.807842331,
				"y": -4.4214921365,
				"z": 0.2400588883,
				"element": "H" 
			},
			{
				"x": -1.6754102639,
				"y": -4.2852183867,
				"z": -1.0249467249,
				"element": "H" 
			},
			{
				"x": -0.026041685,
				"y": -2.5354403077,
				"z": -0.4895332698,
				"element": "H" 
			},
			{
				"x": 4.6180621114,
				"y": 0.0608299877,
				"z": 2.0854612701,
				"element": "H" 
			},
			{
				"x": 6.6685707726,
				"y": 0.1543241924,
				"z": 0.7237535109,
				"element": "H" 
			},
			{
				"x": 6.5615426976,
				"y": 0.850407643,
				"z": -1.6635132694,
				"element": "H" 
			},
			{
				"x": 4.3645341262,
				"y": 1.4612513707,
				"z": -2.6634791831,
				"element": "H" 
			},
			{
				"x": 2.3133745038,
				"y": 1.3856228826,
				"z": -1.2968455412,
				"element": "H" 
			}
		],
		 "valence_orbital": [ 
			{
				"type": "occ",
				"energy": -0.26881,
				"method": "rhf"
			},
			{
				"type": "occ",
				"energy": -0.26551,
				"method": "rhf"
			},
			{
				"type": "occ",
				"energy": -0.26192,
				"method": "rhf"
			},
			{
				"type": "occ",
				"energy": -0.25916,
				"method": "rhf"
			},
			{
				"type": "occ",
				"energy": -0.24825,
				"method": "rhf"
			},
			{
				"type": "unocc",
				"energy": -0.0667,
				"method": "rhf"
			},
			{
				"type": "unocc",
				"energy": -0.03282,
				"method": "rhf"
			},
			{
				"type": "unocc",
				"energy": -0.01648,
				"method": "rhf"
			},
			{
				"type": "unocc",
				"energy": -0.01503,
				"method": "rhf"
			},
			{
				"type": "unocc",
				"energy": -0.00277,
				"method": "rhf"
			}
		],
		"cosmo_sigma_profile": { 
			"-0.025": 0.0,
			"-0.024": 0.0,
			"-0.023": 0.0,
			"-0.022": 0.0,
			"-0.021": 0.0,
			"-0.02": 0.0,
			"-0.019": 0.0,
			"-0.018": 0.0,
			"-0.017": 0.0,
			"-0.016": 0.0,
			"-0.015": 0.0,
			"-0.014": 0.0,
			"-0.013": 0.0,
			"-0.012": 0.0,
			"-0.011": 0.0,
			"-0.01": 0.0,
			"-0.009": 0.14032780703,
			"-0.008": 5.06922869393,
			"-0.007": 11.3575989864,
			"-0.006": 23.0647077038,
			"-0.005": 29.4780891306,
			"-0.004": 27.8334286871,
			"-0.003": 23.4522078422,
			"-0.002": 23.7237071423,
			"-0.001": 19.782918537,
			"0.0": 18.8356195148,
			"0.001": 21.2900371241,
			"0.002": 20.8875729982,
			"0.003": 22.9654747688,
			"0.004": 23.5348842663,
			"0.005": 12.1172105897,
			"0.006": 4.66578734378,
			"0.007": 5.56273668084,
			"0.008": 6.95152746897,
			"0.009": 6.81203108901,
			"0.01": 6.25934907394,
			"0.011": 6.58421179811,
			"0.012": 3.03229054172,
			"0.013": 0.895579966349,
			"0.014": 0.0,
			"0.015": 0.0,
			"0.016": 0.0,
			"0.017": 0.0,
			"0.018": 0.0,
			"0.019": 0.0,
			"0.02": 0.0,
			"0.021": 0.0,
			"0.022": 0.0,
			"0.023": 0.0,
			"0.024": 0.0,
			"0.025": 0.0
		}
	}
}
