{
	 "smiles": "OC1CCCCC1C1=CC=C(F)C=C1", 
	 "Tm": 345.15, 
	 "num_atms": 29, 
	 "gaussian": { 
		 "optdone": 1, 
		 "sigma_profile": "yes", 
		 "theory": "DFT", 
		 "functional": "B3LYP", 
		 "basiset": "6-31G**", 
		 "properties": { 
			 "R2extent": 3313.9676, 
			 "electric_dipole_moment_norm": 1.90059067134, 
			 "electric_quadrupole_moment_norm": 8.45346428572, 
			 "total_energy": -641.382065215, 
			 "HOMO_LUMO_gap": 0.22405, 
			 "cosmo_polarized_energy": -7.55, 
			 "cosmo_cavitation_energy": 29.93, 
			 "cosmo_dispersion_energy": -21.78, 
			 "cosmo_repulsion_energy": 1.68, 
			 "cosmo_total_nonelectrostatic_energy": 9.83, 
			 "SMD_solvation_energy": 4.82 
		},
		"coords": [
			{
				"x": -2.7959900775,
				"y": 0.2687918157,
				"z": 1.4760709432,
				"element": "O" 
			},
			{
				"x": -1.7447120148,
				"y": 0.1469286392,
				"z": 0.5119768184,
				"element": "C" 
			},
			{
				"x": -1.7644656884,
				"y": -1.2305977293,
				"z": -0.1656785906,
				"element": "C" 
			},
			{
				"x": -1.550731942,
				"y": -2.3622101579,
				"z": 0.8481846766,
				"element": "C" 
			},
			{
				"x": -0.2280831071,
				"y": -2.1676908431,
				"z": 1.6024792847,
				"element": "C" 
			},
			{
				"x": -0.1457986882,
				"y": -0.7734186604,
				"z": 2.2530995829,
				"element": "C" 
			},
			{
				"x": -0.4292882976,
				"y": 0.4044847921,
				"z": 1.2918889393,
				"element": "C" 
			},
			{
				"x": 0.7142784117,
				"y": 0.8091967947,
				"z": 0.3607530105,
				"element": "C" 
			},
			{
				"x": 0.5894388135,
				"y": 1.9919692773,
				"z": -0.3903556474,
				"element": "C" 
			},
			{
				"x": 1.5996775061,
				"y": 2.4372021434,
				"z": -1.2397815361,
				"element": "C" 
			},
			{
				"x": 2.7668767762,
				"y": 1.6877595814,
				"z": -1.3362284771,
				"element": "C" 
			},
			{
				"x": 3.7540066495,
				"y": 2.1088725654,
				"z": -2.1567418947,
				"element": "F" 
			},
			{
				"x": 2.9431972643,
				"y": 0.5244439386,
				"z": -0.6016677329,
				"element": "C" 
			},
			{
				"x": 1.9152596098,
				"y": 0.0962864602,
				"z": 0.2427994778,
				"element": "C" 
			},
			{
				"x": -3.6251723197,
				"y": 0.0305767337,
				"z": 1.0413261389,
				"element": "H" 
			},
			{
				"x": -1.8604534043,
				"y": 0.924471956,
				"z": -0.2579392947,
				"element": "H" 
			},
			{
				"x": -0.979027291,
				"y": -1.2552129766,
				"z": -0.9323397728,
				"element": "H" 
			},
			{
				"x": -2.7180814654,
				"y": -1.3585960068,
				"z": -0.6972529736,
				"element": "H" 
			},
			{
				"x": -2.3828354702,
				"y": -2.3626930882,
				"z": 1.5625471833,
				"element": "H" 
			},
			{
				"x": -1.5629658913,
				"y": -3.3337011813,
				"z": 0.3406509822,
				"element": "H" 
			},
			{
				"x": -0.1172727187,
				"y": -2.9351520767,
				"z": 2.3780447502,
				"element": "H" 
			},
			{
				"x": 0.6006718273,
				"y": -2.3188038134,
				"z": 0.8998116229,
				"element": "H" 
			},
			{
				"x": 0.8261135535,
				"y": -0.6315759527,
				"z": 2.7399262915,
				"element": "H" 
			},
			{
				"x": -0.8993056315,
				"y": -0.7237981327,
				"z": 3.0463540979,
				"element": "H" 
			},
			{
				"x": -0.6430322721,
				"y": 1.2825975797,
				"z": 1.9156161836,
				"element": "H" 
			},
			{
				"x": -0.3135370825,
				"y": 2.5900604997,
				"z": -0.2989647997,
				"element": "H" 
			},
			{
				"x": 1.4991864116,
				"y": 3.3521986428,
				"z": -1.8138484743,
				"element": "H" 
			},
			{
				"x": 3.8708591036,
				"y": -0.0309700524,
				"z": -0.6899903224,
				"element": "H" 
			},
			{
				"x": 2.0727874353,
				"y": -0.8060207486,
				"z": 0.8214595326,
				"element": "H" 
			}
		],
		 "valence_orbital": [ 
			{
				"type": "occ",
				"energy": -0.30828,
				"method": "rhf"
			},
			{
				"type": "occ",
				"energy": -0.29778,
				"method": "rhf"
			},
			{
				"type": "occ",
				"energy": -0.26591,
				"method": "rhf"
			},
			{
				"type": "occ",
				"energy": -0.25479,
				"method": "rhf"
			},
			{
				"type": "occ",
				"energy": -0.23294,
				"method": "rhf"
			},
			{
				"type": "unocc",
				"energy": -0.00889,
				"method": "rhf"
			},
			{
				"type": "unocc",
				"energy": 0.00425,
				"method": "rhf"
			},
			{
				"type": "unocc",
				"energy": 0.06861,
				"method": "rhf"
			},
			{
				"type": "unocc",
				"energy": 0.08677,
				"method": "rhf"
			},
			{
				"type": "unocc",
				"energy": 0.11355,
				"method": "rhf"
			}
		],
		"cosmo_sigma_profile": { 
			"-0.025": 0.0,
			"-0.024": 0.0,
			"-0.023": 0.0,
			"-0.022": 0.0,
			"-0.021": 0.0,
			"-0.02": 0.0,
			"-0.019": 0.0,
			"-0.018": 0.0,
			"-0.017": 0.0,
			"-0.016": 0.00409153071913,
			"-0.015": 0.526748690451,
			"-0.014": 1.03156717883,
			"-0.013": 0.975898870668,
			"-0.012": 0.519539328853,
			"-0.011": 1.1873348421,
			"-0.01": 1.06315039675,
			"-0.009": 0.694010718587,
			"-0.008": 0.909401195562,
			"-0.007": 2.8272843726,
			"-0.006": 6.42200338053,
			"-0.005": 9.47679027241,
			"-0.004": 12.9645716407,
			"-0.003": 16.022741356,
			"-0.002": 23.2994019526,
			"-0.001": 25.9207759576,
			"0.0": 32.4477522334,
			"0.001": 25.8407032409,
			"0.002": 15.5416438046,
			"0.003": 11.7873462705,
			"0.004": 17.9166506873,
			"0.005": 14.7543224296,
			"0.006": 1.50640945125,
			"0.007": 1.84401040827,
			"0.008": 1.20334105821,
			"0.009": 1.13519006367,
			"0.01": 0.594336520078,
			"0.011": 1.21869356803,
			"0.012": 1.84476147489,
			"0.013": 1.12803527017,
			"0.014": 1.08772286304,
			"0.015": 0.292477197069,
			"0.016": 0.0,
			"0.017": 0.0,
			"0.018": 0.0,
			"0.019": 0.0,
			"0.02": 0.0,
			"0.021": 0.0,
			"0.022": 0.0,
			"0.023": 0.0,
			"0.024": 0.0,
			"0.025": 0.0
		}
	}
}
