{
	 "smiles": "CC(=O)NC1=CC=C(Br)C(C)=C1", 
	 "Tm": 376.15, 
	 "num_atms": 22, 
	 "gaussian": { 
		 "optdone": 1, 
		 "sigma_profile": "yes", 
		 "theory": "DFT", 
		 "functional": "B3LYP", 
		 "basiset": "6-31G**", 
		 "properties": { 
			 "R2extent": 4010.394, 
			 "electric_dipole_moment_norm": 1.81503585915, 
			 "electric_quadrupole_moment_norm": 20.3231024344, 
			 "total_energy": -3050.38843037, 
			 "HOMO_LUMO_gap": 0.2006, 
			 "cosmo_polarized_energy": -11.37, 
			 "cosmo_cavitation_energy": 28.0, 
			 "cosmo_dispersion_energy": -20.57, 
			 "cosmo_repulsion_energy": 1.64, 
			 "cosmo_total_nonelectrostatic_energy": 9.08, 
			 "SMD_solvation_energy": 4.62 
		},
		"coords": [
			{
				"x": -3.377129687,
				"y": -1.2275624542,
				"z": -0.7683359465,
				"element": "C" 
			},
			{
				"x": -2.7331671072,
				"y": -2.2925187821,
				"z": 0.0985661315,
				"element": "C" 
			},
			{
				"x": -3.3240104034,
				"y": -3.3145692557,
				"z": 0.4141998209,
				"element": "O" 
			},
			{
				"x": -1.4405443075,
				"y": -2.089106868,
				"z": 0.5605534905,
				"element": "N" 
			},
			{
				"x": -0.534387102,
				"y": -1.0202799713,
				"z": 0.3927515568,
				"element": "C" 
			},
			{
				"x": 0.24527871,
				"y": -0.6231428253,
				"z": 1.4883983816,
				"element": "C" 
			},
			{
				"x": 1.1765181622,
				"y": 0.4002973216,
				"z": 1.3493900164,
				"element": "C" 
			},
			{
				"x": 1.3247816322,
				"y": 1.0427622414,
				"z": 0.1217105724,
				"element": "C" 
			},
			{
				"x": 2.6072365896,
				"y": 2.4594100682,
				"z": -0.0074818868,
				"element": "Br" 
			},
			{
				"x": 0.5704181657,
				"y": 0.6686075062,
				"z": -0.9992820908,
				"element": "C" 
			},
			{
				"x": 0.7344794461,
				"y": 1.3337050258,
				"z": -2.3415287053,
				"element": "C" 
			},
			{
				"x": -0.3441368503,
				"y": -0.3805030107,
				"z": -0.8391217653,
				"element": "C" 
			},
			{
				"x": -3.1445918114,
				"y": -1.4062790176,
				"z": -1.8235775132,
				"element": "H" 
			},
			{
				"x": -4.4565561067,
				"y": -1.3217625101,
				"z": -0.6449126259,
				"element": "H" 
			},
			{
				"x": -3.0554763831,
				"y": -0.2151871847,
				"z": -0.5148289684,
				"element": "H" 
			},
			{
				"x": -1.1746298078,
				"y": -2.8066864433,
				"z": 1.2243540974,
				"element": "H" 
			},
			{
				"x": 0.1130846211,
				"y": -1.10867066,
				"z": 2.4509753124,
				"element": "H" 
			},
			{
				"x": 1.7788473453,
				"y": 0.7092432101,
				"z": 2.1960461935,
				"element": "H" 
			},
			{
				"x": 1.7639420725,
				"y": 1.2458606225,
				"z": -2.7041598764,
				"element": "H" 
			},
			{
				"x": 0.068247584,
				"y": 0.8856944265,
				"z": -3.0826777651,
				"element": "H" 
			},
			{
				"x": 0.5125162693,
				"y": 2.4044698818,
				"z": -2.2809760669,
				"element": "H" 
			},
			{
				"x": -0.8985210318,
				"y": -0.716581321,
				"z": -1.7076623626,
				"element": "H" 
			}
		],
		 "valence_orbital": [ 
			{
				"type": "occ",
				"energy": -0.29069,
				"method": "rhf"
			},
			{
				"type": "occ",
				"energy": -0.28316,
				"method": "rhf"
			},
			{
				"type": "occ",
				"energy": -0.26485,
				"method": "rhf"
			},
			{
				"type": "occ",
				"energy": -0.25637,
				"method": "rhf"
			},
			{
				"type": "occ",
				"energy": -0.22649,
				"method": "rhf"
			},
			{
				"type": "unocc",
				"energy": -0.02589,
				"method": "rhf"
			},
			{
				"type": "unocc",
				"energy": -0.02034,
				"method": "rhf"
			},
			{
				"type": "unocc",
				"energy": 0.00431,
				"method": "rhf"
			},
			{
				"type": "unocc",
				"energy": 0.02728,
				"method": "rhf"
			},
			{
				"type": "unocc",
				"energy": 0.08647,
				"method": "rhf"
			}
		],
		"cosmo_sigma_profile": { 
			"-0.025": 0.0,
			"-0.024": 0.0,
			"-0.023": 0.0,
			"-0.022": 0.0,
			"-0.021": 0.0,
			"-0.02": 0.0,
			"-0.019": 0.0,
			"-0.018": 0.0,
			"-0.017": 0.0,
			"-0.016": 0.0,
			"-0.015": 0.00813707912461,
			"-0.014": 0.733463539853,
			"-0.013": 1.14058008854,
			"-0.012": 0.995926809229,
			"-0.011": 1.23823828257,
			"-0.01": 1.18040178489,
			"-0.009": 1.27087765618,
			"-0.008": 2.858422905,
			"-0.007": 7.52250825561,
			"-0.006": 8.42263666932,
			"-0.005": 11.7775185491,
			"-0.004": 15.3091226804,
			"-0.003": 17.5098763461,
			"-0.002": 20.837530341,
			"-0.001": 21.6324085336,
			"0.0": 17.8280329589,
			"0.001": 14.6638748937,
			"0.002": 17.303781407,
			"0.003": 20.4468245124,
			"0.004": 15.8166666849,
			"0.005": 7.4228364563,
			"0.006": 1.03851589126,
			"0.007": 1.21058039947,
			"0.008": 1.14524197174,
			"0.009": 1.51882055504,
			"0.01": 1.49152926294,
			"0.011": 1.32587535231,
			"0.012": 2.5202821936,
			"0.013": 5.26601291771,
			"0.014": 3.57319410969,
			"0.015": 0.452762117397,
			"0.016": 0.0,
			"0.017": 0.0,
			"0.018": 0.0,
			"0.019": 0.0,
			"0.02": 0.0,
			"0.021": 0.0,
			"0.022": 0.0,
			"0.023": 0.0,
			"0.024": 0.0,
			"0.025": 0.0
		}
	}
}
