{
	 "smiles": "CNC(=O)OC1=CC=CC2=C1OC(C)(C)O2", 
	 "Tm": 403.15, 
	 "num_atms": 29, 
	 "gaussian": { 
		 "optdone": 1, 
		 "sigma_profile": "yes", 
		 "theory": "DFT", 
		 "functional": "B3LYP", 
		 "basiset": "6-31G**", 
		 "properties": { 
			 "R2extent": 4224.2815, 
			 "electric_dipole_moment_norm": 2.26340356543, 
			 "electric_quadrupole_moment_norm": 12.8842859628, 
			 "total_energy": -782.664493549, 
			 "HOMO_LUMO_gap": 0.2095, 
			 "cosmo_polarized_energy": -13.37, 
			 "cosmo_cavitation_energy": 33.15, 
			 "cosmo_dispersion_energy": -23.41, 
			 "cosmo_repulsion_energy": 1.87, 
			 "cosmo_total_nonelectrostatic_energy": 11.61, 
			 "SMD_solvation_energy": 6.9 
		},
		"coords": [
			{
				"x": 1.6759557678,
				"y": 3.3022580261,
				"z": 2.2755907174,
				"element": "C" 
			},
			{
				"x": 0.7854992546,
				"y": 2.1619988091,
				"z": 2.3596143728,
				"element": "N" 
			},
			{
				"x": -0.1279377884,
				"y": 1.8841406685,
				"z": 1.3931897716,
				"element": "C" 
			},
			{
				"x": -0.3303012451,
				"y": 2.5175362958,
				"z": 0.379545041,
				"element": "O" 
			},
			{
				"x": -0.822510342,
				"y": 0.7436973467,
				"z": 1.7622017304,
				"element": "O" 
			},
			{
				"x": -1.746962858,
				"y": 0.2454615257,
				"z": 0.8552751399,
				"element": "C" 
			},
			{
				"x": -3.099648495,
				"y": 0.1631935841,
				"z": 1.2171672307,
				"element": "C" 
			},
			{
				"x": -4.0344338796,
				"y": -0.3948707439,
				"z": 0.3466694235,
				"element": "C" 
			},
			{
				"x": -3.6603552884,
				"y": -0.8775687521,
				"z": -0.9203366926,
				"element": "C" 
			},
			{
				"x": -2.3211861494,
				"y": -0.7818819956,
				"z": -1.2516995567,
				"element": "C" 
			},
			{
				"x": -1.3724819961,
				"y": -0.2478806003,
				"z": -0.3822706898,
				"element": "C" 
			},
			{
				"x": -0.1261415388,
				"y": -0.3205815804,
				"z": -0.935775846,
				"element": "O" 
			},
			{
				"x": -0.3237014123,
				"y": -0.7272235011,
				"z": -2.3177939656,
				"element": "C" 
			},
			{
				"x": -0.1466123544,
				"y": 0.4883866454,
				"z": -3.217673502,
				"element": "C" 
			},
			{
				"x": 0.6044123555,
				"y": -1.8875181864,
				"z": -2.6253285124,
				"element": "C" 
			},
			{
				"x": -1.6996736527,
				"y": -1.1890435296,
				"z": -2.4039282878,
				"element": "O" 
			},
			{
				"x": 1.430939436,
				"y": 3.8448248541,
				"z": 1.3620464886,
				"element": "H" 
			},
			{
				"x": 2.7252972584,
				"y": 2.9887283841,
				"z": 2.2298467003,
				"element": "H" 
			},
			{
				"x": 1.5460037148,
				"y": 3.9730748301,
				"z": 3.1322873903,
				"element": "H" 
			},
			{
				"x": 0.845042719,
				"y": 1.5231613815,
				"z": 3.1373105201,
				"element": "H" 
			},
			{
				"x": -3.3959458266,
				"y": 0.5465755633,
				"z": 2.1875387931,
				"element": "H" 
			},
			{
				"x": -5.0757032029,
				"y": -0.4474648604,
				"z": 0.647872487,
				"element": "H" 
			},
			{
				"x": -4.3809664173,
				"y": -1.3044693061,
				"z": -1.6082483374,
				"element": "H" 
			},
			{
				"x": -0.3596559474,
				"y": 0.222569866,
				"z": -4.2566833916,
				"element": "H" 
			},
			{
				"x": -0.8281502928,
				"y": 1.2821991775,
				"z": -2.9027116883,
				"element": "H" 
			},
			{
				"x": 0.8780829808,
				"y": 0.8622333743,
				"z": -3.1457486986,
				"element": "H" 
			},
			{
				"x": 0.4061306433,
				"y": -2.7118717165,
				"z": -1.9368859585,
				"element": "H" 
			},
			{
				"x": 0.4455840907,
				"y": -2.2329605343,
				"z": -3.6502098496,
				"element": "H" 
			},
			{
				"x": 1.6456204665,
				"y": -1.5733050258,
				"z": -2.5158608298,
				"element": "H" 
			}
		],
		 "valence_orbital": [ 
			{
				"type": "occ",
				"energy": -0.30191,
				"method": "rhf"
			},
			{
				"type": "occ",
				"energy": -0.27246,
				"method": "rhf"
			},
			{
				"type": "occ",
				"energy": -0.25559,
				"method": "rhf"
			},
			{
				"type": "occ",
				"energy": -0.23,
				"method": "rhf"
			},
			{
				"type": "occ",
				"energy": -0.19999,
				"method": "rhf"
			},
			{
				"type": "unocc",
				"energy": 0.00951,
				"method": "rhf"
			},
			{
				"type": "unocc",
				"energy": 0.0172,
				"method": "rhf"
			},
			{
				"type": "unocc",
				"energy": 0.06035,
				"method": "rhf"
			},
			{
				"type": "unocc",
				"energy": 0.0851,
				"method": "rhf"
			},
			{
				"type": "unocc",
				"energy": 0.09341,
				"method": "rhf"
			}
		],
		"cosmo_sigma_profile": { 
			"-0.025": 0.0,
			"-0.024": 0.0,
			"-0.023": 0.0,
			"-0.022": 0.0,
			"-0.021": 0.0,
			"-0.02": 0.0,
			"-0.019": 0.0,
			"-0.018": 0.0,
			"-0.017": 0.0,
			"-0.016": 0.0,
			"-0.015": 0.309219838245,
			"-0.014": 1.12917815539,
			"-0.013": 0.949868256265,
			"-0.012": 1.10943746974,
			"-0.011": 0.745337371645,
			"-0.01": 1.09878953127,
			"-0.009": 0.910186210732,
			"-0.008": 0.918451120258,
			"-0.007": 2.60122029371,
			"-0.006": 8.54733869034,
			"-0.005": 23.3900636897,
			"-0.004": 25.1540448129,
			"-0.003": 22.3948113625,
			"-0.002": 26.4931057587,
			"-0.001": 23.8341012513,
			"0.0": 16.7395800756,
			"0.001": 15.744151858,
			"0.002": 16.5176742816,
			"0.003": 14.0495922413,
			"0.004": 13.6502463825,
			"0.005": 11.9157038871,
			"0.006": 5.82961760106,
			"0.007": 4.84267487172,
			"0.008": 6.0267574049,
			"0.009": 4.62485192767,
			"0.01": 4.24703922781,
			"0.011": 2.44747517863,
			"0.012": 3.4614104978,
			"0.013": 2.80568858878,
			"0.014": 0.00558966886024,
			"0.015": 0.0,
			"0.016": 0.0,
			"0.017": 0.0,
			"0.018": 0.0,
			"0.019": 0.0,
			"0.02": 0.0,
			"0.021": 0.0,
			"0.022": 0.0,
			"0.023": 0.0,
			"0.024": 0.0,
			"0.025": 0.0
		}
	}
}
