{
	 "smiles": "CN1C(=CC2=C1C=CS2)C(O)=O", 
	 "Tm": 428.15, 
	 "num_atms": 19, 
	 "gaussian": { 
		 "optdone": 1, 
		 "sigma_profile": "yes", 
		 "theory": "DFT", 
		 "functional": "B3LYP", 
		 "basiset": "6-31G**", 
		 "properties": { 
			 "R2extent": 3322.9612, 
			 "electric_dipole_moment_norm": 5.70062105213, 
			 "electric_quadrupole_moment_norm": 12.1227837628, 
			 "total_energy": -912.435698204, 
			 "HOMO_LUMO_gap": 0.17025, 
			 "cosmo_polarized_energy": -16.66, 
			 "cosmo_cavitation_energy": 24.82, 
			 "cosmo_dispersion_energy": -18.92, 
			 "cosmo_repulsion_energy": 1.43, 
			 "cosmo_total_nonelectrostatic_energy": 7.34, 
			 "SMD_solvation_energy": 5.04 
		},
		"coords": [
			{
				"x": -0.7801885031,
				"y": 0.403423793,
				"z": -0.7283633048,
				"element": "C" 
			},
			{
				"x": -0.3624438156,
				"y": 0.1175582334,
				"z": 0.6388584764,
				"element": "N" 
			},
			{
				"x": -0.314259771,
				"y": 0.9951866441,
				"z": 1.7335693417,
				"element": "C" 
			},
			{
				"x": -0.0860304193,
				"y": 0.2688450512,
				"z": 2.897763688,
				"element": "C" 
			},
			{
				"x": 0.0226051605,
				"y": -1.0802534506,
				"z": 2.5087366161,
				"element": "C" 
			},
			{
				"x": -0.1635828805,
				"y": -1.1526382251,
				"z": 1.1227322143,
				"element": "C" 
			},
			{
				"x": -0.1249961236,
				"y": -2.4738438539,
				"z": 0.5864066203,
				"element": "C" 
			},
			{
				"x": 0.1035669693,
				"y": -3.3839007642,
				"z": 1.5819236809,
				"element": "C" 
			},
			{
				"x": 0.2713363989,
				"y": -2.6714013354,
				"z": 3.1768872811,
				"element": "S" 
			},
			{
				"x": -0.4281785411,
				"y": 2.4628308119,
				"z": 1.6875640015,
				"element": "C" 
			},
			{
				"x": -0.1163470168,
				"y": 3.0803238745,
				"z": 0.5020479181,
				"element": "O" 
			},
			{
				"x": -0.7675622478,
				"y": 3.1296489461,
				"z": 2.6370679189,
				"element": "O" 
			},
			{
				"x": -1.3694862828,
				"y": 1.319922958,
				"z": -0.756879363,
				"element": "H" 
			},
			{
				"x": 0.0780660394,
				"y": 0.5046556337,
				"z": -1.405320793,
				"element": "H" 
			},
			{
				"x": -1.4042707951,
				"y": -0.4160395266,
				"z": -1.092652528,
				"element": "H" 
			},
			{
				"x": 0.0063341793,
				"y": 0.7106417369,
				"z": 3.8782920129,
				"element": "H" 
			},
			{
				"x": -0.2429204693,
				"y": -2.7427467194,
				"z": -0.4562097277,
				"element": "H" 
			},
			{
				"x": 0.1967463053,
				"y": -4.4562652712,
				"z": 1.4778370994,
				"element": "H" 
			},
			{
				"x": 0.4039118131,
				"y": 2.4859514636,
				"z": -0.0554611533,
				"element": "H" 
			}
		],
		 "valence_orbital": [ 
			{
				"type": "occ",
				"energy": -0.3145,
				"method": "rhf"
			},
			{
				"type": "occ",
				"energy": -0.28638,
				"method": "rhf"
			},
			{
				"type": "occ",
				"energy": -0.27263,
				"method": "rhf"
			},
			{
				"type": "occ",
				"energy": -0.23217,
				"method": "rhf"
			},
			{
				"type": "occ",
				"energy": -0.21556,
				"method": "rhf"
			},
			{
				"type": "unocc",
				"energy": -0.04531,
				"method": "rhf"
			},
			{
				"type": "unocc",
				"energy": 0.01007,
				"method": "rhf"
			},
			{
				"type": "unocc",
				"energy": 0.02122,
				"method": "rhf"
			},
			{
				"type": "unocc",
				"energy": 0.04652,
				"method": "rhf"
			},
			{
				"type": "unocc",
				"energy": 0.07421,
				"method": "rhf"
			}
		],
		"cosmo_sigma_profile": { 
			"-0.025": 0.0,
			"-0.024": 0.0,
			"-0.023": 0.0,
			"-0.022": 0.0,
			"-0.021": 0.0,
			"-0.02": 0.0,
			"-0.019": 0.0,
			"-0.018": 0.532826690316,
			"-0.017": 0.98230195523,
			"-0.016": 1.03947170515,
			"-0.015": 0.728656720233,
			"-0.014": 0.600070320028,
			"-0.013": 1.09499938557,
			"-0.012": 0.970739365576,
			"-0.011": 1.45874370423,
			"-0.01": 0.834764631277,
			"-0.009": 1.65129335543,
			"-0.008": 5.09552969327,
			"-0.007": 11.8975037249,
			"-0.006": 12.9141946495,
			"-0.005": 13.8335057601,
			"-0.004": 14.151745914,
			"-0.003": 11.2741845769,
			"-0.002": 7.16574265959,
			"-0.001": 8.38049250762,
			"0.0": 9.35662067471,
			"0.001": 10.0630501948,
			"0.002": 12.5080798859,
			"0.003": 15.0247697452,
			"0.004": 18.0729692441,
			"0.005": 12.3616020146,
			"0.006": 3.00965796896,
			"0.007": 2.19716458546,
			"0.008": 2.75448852267,
			"0.009": 3.13091067111,
			"0.01": 4.0167049547,
			"0.011": 5.25551464583,
			"0.012": 6.20513870317,
			"0.013": 2.64526774982,
			"0.014": 0.195463146908,
			"0.015": 0.0,
			"0.016": 0.0,
			"0.017": 0.0,
			"0.018": 0.0,
			"0.019": 0.0,
			"0.02": 0.0,
			"0.021": 0.0,
			"0.022": 0.0,
			"0.023": 0.0,
			"0.024": 0.0,
			"0.025": 0.0
		}
	}
}
