{
	 "smiles": "CC1=CC=C(C=C1)C(=O)C=CC(O)=O", 
	 "Tm": 412.15, 
	 "num_atms": 24, 
	 "gaussian": { 
		 "optdone": 1, 
		 "sigma_profile": "yes", 
		 "theory": "DFT", 
		 "functional": "B3LYP", 
		 "basiset": "6-31G**", 
		 "properties": { 
			 "R2extent": 4353.2719, 
			 "electric_dipole_moment_norm": 6.66095272615, 
			 "electric_quadrupole_moment_norm": 14.7697760183, 
			 "total_energy": -650.857554566, 
			 "HOMO_LUMO_gap": 0.1662, 
			 "cosmo_polarized_energy": -19.26, 
			 "cosmo_cavitation_energy": 29.6, 
			 "cosmo_dispersion_energy": -21.04, 
			 "cosmo_repulsion_energy": 1.68, 
			 "cosmo_total_nonelectrostatic_energy": 10.23, 
			 "SMD_solvation_energy": 7.11 
		},
		"coords": [
			{
				"x": 1.5676593734,
				"y": -3.6717945254,
				"z": 0.3856410557,
				"element": "C" 
			},
			{
				"x": 0.8317894108,
				"y": -2.5281151816,
				"z": -0.2681196201,
				"element": "C" 
			},
			{
				"x": 0.2975583982,
				"y": -1.4800632878,
				"z": 0.4913174902,
				"element": "C" 
			},
			{
				"x": -0.3601165587,
				"y": -0.4113626818,
				"z": -0.1172689224,
				"element": "C" 
			},
			{
				"x": -0.5074568396,
				"y": -0.3707031959,
				"z": -1.5116932275,
				"element": "C" 
			},
			{
				"x": 0.0046296337,
				"y": -1.4335113735,
				"z": -2.2763116665,
				"element": "C" 
			},
			{
				"x": 0.670417948,
				"y": -2.4862211573,
				"z": -1.6641213728,
				"element": "C" 
			},
			{
				"x": -1.2415805929,
				"y": 0.7136427946,
				"z": -2.2270884957,
				"element": "C" 
			},
			{
				"x": -1.685110164,
				"y": 0.5468414744,
				"z": -3.3576021764,
				"element": "O" 
			},
			{
				"x": -1.4350424164,
				"y": 2.0603126397,
				"z": -1.6043438134,
				"element": "C" 
			},
			{
				"x": -0.5250361345,
				"y": 2.7163347364,
				"z": -0.8709969583,
				"element": "C" 
			},
			{
				"x": -0.7830532075,
				"y": 4.1221528671,
				"z": -0.4330183617,
				"element": "C" 
			},
			{
				"x": 0.2309856436,
				"y": 4.7217131346,
				"z": 0.2461011183,
				"element": "O" 
			},
			{
				"x": -1.8127315697,
				"y": 4.7184463773,
				"z": -0.6396091718,
				"element": "O" 
			},
			{
				"x": 1.2293054004,
				"y": -4.6373003988,
				"z": -0.004653981,
				"element": "H" 
			},
			{
				"x": 2.6453451797,
				"y": -3.6073393018,
				"z": 0.1918189229,
				"element": "H" 
			},
			{
				"x": 1.4255052732,
				"y": -3.6743625755,
				"z": 1.4695142705,
				"element": "H" 
			},
			{
				"x": 0.3905219738,
				"y": -1.5039920053,
				"z": 1.573928316,
				"element": "H" 
			},
			{
				"x": -0.7867596747,
				"y": 0.3737017019,
				"z": 0.4978889101,
				"element": "H" 
			},
			{
				"x": -0.1352937156,
				"y": -1.4083945016,
				"z": -3.3519195288,
				"element": "H" 
			},
			{
				"x": 1.0686409352,
				"y": -3.2955230966,
				"z": -2.2711548432,
				"element": "H" 
			},
			{
				"x": -2.3419556756,
				"y": 2.5841291783,
				"z": -1.8980146587,
				"element": "H" 
			},
			{
				"x": 0.4170009123,
				"y": 2.2430399338,
				"z": -0.6011077924,
				"element": "H" 
			},
			{
				"x": 0.993276467,
				"y": 4.1302684452,
				"z": 0.3150145069,
				"element": "H" 
			}
		],
		 "valence_orbital": [ 
			{
				"type": "occ",
				"energy": -0.29714,
				"method": "rhf"
			},
			{
				"type": "occ",
				"energy": -0.28341,
				"method": "rhf"
			},
			{
				"type": "occ",
				"energy": -0.26931,
				"method": "rhf"
			},
			{
				"type": "occ",
				"energy": -0.26589,
				"method": "rhf"
			},
			{
				"type": "occ",
				"energy": -0.25696,
				"method": "rhf"
			},
			{
				"type": "unocc",
				"energy": -0.09076,
				"method": "rhf"
			},
			{
				"type": "unocc",
				"energy": -0.04265,
				"method": "rhf"
			},
			{
				"type": "unocc",
				"energy": -0.0192,
				"method": "rhf"
			},
			{
				"type": "unocc",
				"energy": 0.03648,
				"method": "rhf"
			},
			{
				"type": "unocc",
				"energy": 0.04851,
				"method": "rhf"
			}
		],
		"cosmo_sigma_profile": { 
			"-0.025": 0.0,
			"-0.024": 0.0,
			"-0.023": 0.0,
			"-0.022": 0.0,
			"-0.021": 0.0,
			"-0.02": 0.567203275267,
			"-0.019": 1.32877464499,
			"-0.018": 1.78259143051,
			"-0.017": 0.891647680758,
			"-0.016": 0.814614130255,
			"-0.015": 0.717984197297,
			"-0.014": 1.31170669952,
			"-0.013": 1.37322682729,
			"-0.012": 0.905976112103,
			"-0.011": 0.822154992136,
			"-0.01": 1.55233083339,
			"-0.009": 0.967939623101,
			"-0.008": 1.5799748377,
			"-0.007": 2.9118486854,
			"-0.006": 10.142057527,
			"-0.005": 16.627678364,
			"-0.004": 22.7250740473,
			"-0.003": 17.2823475979,
			"-0.002": 17.6974962223,
			"-0.001": 19.9039487192,
			"0.0": 17.7240692602,
			"0.001": 11.0383766166,
			"0.002": 12.3943114646,
			"0.003": 12.4095083461,
			"0.004": 13.7352720298,
			"0.005": 4.8438943385,
			"0.006": 4.17842655651,
			"0.007": 3.1783237986,
			"0.008": 4.09449128465,
			"0.009": 5.95683742222,
			"0.01": 7.19409584073,
			"0.011": 9.62368526709,
			"0.012": 6.63113045381,
			"0.013": 1.38324599922,
			"0.014": 0.0,
			"0.015": 0.0,
			"0.016": 0.0,
			"0.017": 0.0,
			"0.018": 0.0,
			"0.019": 0.0,
			"0.02": 0.0,
			"0.021": 0.0,
			"0.022": 0.0,
			"0.023": 0.0,
			"0.024": 0.0,
			"0.025": 0.0
		}
	}
}
