{
	 "smiles": "CCCCCC1=CC=C(C=C1)C1=CC=C(C=C1)C#N", 
	 "Tm": 307.15, 
	 "num_atms": 38, 
	 "gaussian": { 
		 "optdone": 1, 
		 "sigma_profile": "yes", 
		 "theory": "DFT", 
		 "functional": "B3LYP", 
		 "basiset": "6-31G**", 
		 "properties": { 
			 "R2extent": 9708.4941, 
			 "electric_dipole_moment_norm": 5.81648525314, 
			 "electric_quadrupole_moment_norm": 42.9285353164, 
			 "total_energy": -752.132894018, 
			 "HOMO_LUMO_gap": 0.1733, 
			 "cosmo_polarized_energy": -10.08, 
			 "cosmo_cavitation_energy": 41.97, 
			 "cosmo_dispersion_energy": -28.65, 
			 "cosmo_repulsion_energy": 2.22, 
			 "cosmo_total_nonelectrostatic_energy": 15.54, 
			 "SMD_solvation_energy": 7.72 
		},
		"coords": [
			{
				"x": -4.1812654978,
				"y": -4.2144060285,
				"z": -0.359747904,
				"element": "C" 
			},
			{
				"x": -3.1217751789,
				"y": -4.1641048038,
				"z": 0.7461565739,
				"element": "C" 
			},
			{
				"x": -1.7365528488,
				"y": -3.7536594461,
				"z": 0.2266455599,
				"element": "C" 
			},
			{
				"x": -0.6244141317,
				"y": -3.7563982717,
				"z": 1.2875210436,
				"element": "C" 
			},
			{
				"x": -0.7583241258,
				"y": -2.68448276,
				"z": 2.3950530025,
				"element": "C" 
			},
			{
				"x": -0.6533405597,
				"y": -1.2612503837,
				"z": 1.8892836759,
				"element": "C" 
			},
			{
				"x": 0.5847632431,
				"y": -0.7289759687,
				"z": 1.4984893426,
				"element": "C" 
			},
			{
				"x": 0.6932288197,
				"y": 0.5717552321,
				"z": 1.0162835552,
				"element": "C" 
			},
			{
				"x": -0.4379461565,
				"y": 1.399751025,
				"z": 0.9076400078,
				"element": "C" 
			},
			{
				"x": -1.6768803062,
				"y": 0.8702229708,
				"z": 1.3021344937,
				"element": "C" 
			},
			{
				"x": -1.7790160964,
				"y": -0.434251023,
				"z": 1.7822885529,
				"element": "C" 
			},
			{
				"x": -0.3244831857,
				"y": 2.7873411044,
				"z": 0.397568342,
				"element": "C" 
			},
			{
				"x": 0.5732102062,
				"y": 3.1070733039,
				"z": -0.6376821192,
				"element": "C" 
			},
			{
				"x": 0.6853783287,
				"y": 4.4053572552,
				"z": -1.1200057743,
				"element": "C" 
			},
			{
				"x": -0.1086987376,
				"y": 5.4285668321,
				"z": -0.5750213425,
				"element": "C" 
			},
			{
				"x": -1.0110454137,
				"y": 5.1251961875,
				"z": 0.4585736685,
				"element": "C" 
			},
			{
				"x": -1.111195962,
				"y": 3.8233422392,
				"z": 0.9338417348,
				"element": "C" 
			},
			{
				"x": 0.000816189,
				"y": 6.7693626937,
				"z": -1.0687419548,
				"element": "C" 
			},
			{
				"x": 0.0897749562,
				"y": 7.8581243915,
				"z": -1.4697571317,
				"element": "N" 
			},
			{
				"x": -5.1587949546,
				"y": -4.5115821481,
				"z": 0.033946758,
				"element": "H" 
			},
			{
				"x": -4.2991469183,
				"y": -3.2362401678,
				"z": -0.8398313838,
				"element": "H" 
			},
			{
				"x": -3.9046515829,
				"y": -4.9323581711,
				"z": -1.1402952727,
				"element": "H" 
			},
			{
				"x": -3.4520992853,
				"y": -3.4677827113,
				"z": 1.5277594645,
				"element": "H" 
			},
			{
				"x": -3.0487713071,
				"y": -5.1483387648,
				"z": 1.2293856412,
				"element": "H" 
			},
			{
				"x": -1.4473044877,
				"y": -4.442886786,
				"z": -0.5781788302,
				"element": "H" 
			},
			{
				"x": -1.800409464,
				"y": -2.7595254755,
				"z": -0.2354406917,
				"element": "H" 
			},
			{
				"x": -0.5849055596,
				"y": -4.7435909685,
				"z": 1.7673942547,
				"element": "H" 
			},
			{
				"x": 0.3435517095,
				"y": -3.6202120822,
				"z": 0.7886739936,
				"element": "H" 
			},
			{
				"x": -1.7083245371,
				"y": -2.8141336073,
				"z": 2.9251082579,
				"element": "H" 
			},
			{
				"x": 0.0318748699,
				"y": -2.8600916976,
				"z": 3.1358551452,
				"element": "H" 
			},
			{
				"x": 1.4806108124,
				"y": -1.3390475759,
				"z": 1.5874968792,
				"element": "H" 
			},
			{
				"x": 1.671384113,
				"y": 0.9630318713,
				"z": 0.7520788625,
				"element": "H" 
			},
			{
				"x": -2.5740273611,
				"y": 1.4751835696,
				"z": 1.2083306223,
				"element": "H" 
			},
			{
				"x": -2.752655703,
				"y": -0.817644669,
				"z": 2.0770055537,
				"element": "H" 
			},
			{
				"x": 1.172171482,
				"y": 2.3212421772,
				"z": -1.0866715093,
				"element": "H" 
			},
			{
				"x": 1.3765468883,
				"y": 4.6343456402,
				"z": -1.924361512,
				"element": "H" 
			},
			{
				"x": -1.6188777703,
				"y": 5.914639029,
				"z": 0.8880578886,
				"element": "H" 
			},
			{
				"x": -1.7915044861,
				"y": 3.6084279881,
				"z": 1.7516625516,
				"element": "H" 
			}
		],
		 "valence_orbital": [ 
			{
				"type": "occ",
				"energy": -0.31658,
				"method": "rhf"
			},
			{
				"type": "occ",
				"energy": -0.2777,
				"method": "rhf"
			},
			{
				"type": "occ",
				"energy": -0.27362,
				"method": "rhf"
			},
			{
				"type": "occ",
				"energy": -0.26033,
				"method": "rhf"
			},
			{
				"type": "occ",
				"energy": -0.23303,
				"method": "rhf"
			},
			{
				"type": "unocc",
				"energy": -0.05973,
				"method": "rhf"
			},
			{
				"type": "unocc",
				"energy": -0.02335,
				"method": "rhf"
			},
			{
				"type": "unocc",
				"energy": -0.01266,
				"method": "rhf"
			},
			{
				"type": "unocc",
				"energy": 0.00053,
				"method": "rhf"
			},
			{
				"type": "unocc",
				"energy": 0.04021,
				"method": "rhf"
			}
		],
		"cosmo_sigma_profile": { 
			"-0.025": 0.0,
			"-0.024": 0.0,
			"-0.023": 0.0,
			"-0.022": 0.0,
			"-0.021": 0.0,
			"-0.02": 0.0,
			"-0.019": 0.0,
			"-0.018": 0.0,
			"-0.017": 0.0,
			"-0.016": 0.0,
			"-0.015": 0.0,
			"-0.014": 0.0,
			"-0.013": 0.0,
			"-0.012": 0.0,
			"-0.011": 0.0,
			"-0.01": 0.0,
			"-0.009": 0.0,
			"-0.008": 2.35232551202,
			"-0.007": 6.40775522356,
			"-0.006": 13.582611644,
			"-0.005": 16.6283108728,
			"-0.004": 18.475004345,
			"-0.003": 23.6501722357,
			"-0.002": 32.7089588684,
			"-0.001": 39.6908902694,
			"0.0": 43.7926732737,
			"0.001": 40.2196873492,
			"0.002": 32.6550674204,
			"0.003": 17.6709031123,
			"0.004": 9.15911116882,
			"0.005": 11.0065783851,
			"0.006": 4.71928969399,
			"0.007": 2.55451895978,
			"0.008": 3.23197875683,
			"0.009": 3.64582519775,
			"0.01": 3.07264994684,
			"0.011": 3.06323467399,
			"0.012": 2.42581949473,
			"0.013": 1.8743937746,
			"0.014": 0.122935783124,
			"0.015": 0.0,
			"0.016": 0.0,
			"0.017": 0.0,
			"0.018": 0.0,
			"0.019": 0.0,
			"0.02": 0.0,
			"0.021": 0.0,
			"0.022": 0.0,
			"0.023": 0.0,
			"0.024": 0.0,
			"0.025": 0.0
		}
	}
}
