{
	 "smiles": "COC1=CC(C=C[N+]([O-])=O)=CC=C1OCC1=CC=CC=C1", 
	 "Tm": 396.15, 
	 "num_atms": 36, 
	 "gaussian": { 
		 "optdone": 1, 
		 "sigma_profile": "yes", 
		 "theory": "DFT", 
		 "functional": "B3LYP", 
		 "basiset": "6-31G**", 
		 "properties": { 
			 "R2extent": 11625.5749, 
			 "electric_dipole_moment_norm": 6.36262467383, 
			 "electric_quadrupole_moment_norm": 42.1087922424, 
			 "total_energy": -974.247484446, 
			 "HOMO_LUMO_gap": 0.13704, 
			 "cosmo_polarized_energy": -16.12, 
			 "cosmo_cavitation_energy": 41.93, 
			 "cosmo_dispersion_energy": -29.38, 
			 "cosmo_repulsion_energy": 2.25, 
			 "cosmo_total_nonelectrostatic_energy": 14.8, 
			 "SMD_solvation_energy": 10.65 
		},
		"coords": [
			{
				"x": 2.8818269635,
				"y": 0.9146083729,
				"z": 1.4392805115,
				"element": "C" 
			},
			{
				"x": 1.6156304639,
				"y": 0.5164842338,
				"z": 0.9307375028,
				"element": "O" 
			},
			{
				"x": 1.5543313751,
				"y": 0.0049190067,
				"z": -0.3317349621,
				"element": "C" 
			},
			{
				"x": 2.6556633004,
				"y": -0.167055859,
				"z": -1.1632994932,
				"element": "C" 
			},
			{
				"x": 2.5084446204,
				"y": -0.6594695032,
				"z": -2.4786039409,
				"element": "C" 
			},
			{
				"x": 3.6350780152,
				"y": -0.8505918742,
				"z": -3.3792461894,
				"element": "C" 
			},
			{
				"x": 4.9333259798,
				"y": -0.628431391,
				"z": -3.1175784029,
				"element": "C" 
			},
			{
				"x": 5.9405857651,
				"y": -0.8689527311,
				"z": -4.129340587,
				"element": "N" 
			},
			{
				"x": 5.5981563168,
				"y": -1.2827581789,
				"z": -5.2402949539,
				"element": "O" 
			},
			{
				"x": 7.1062336306,
				"y": -0.6343565524,
				"z": -3.7929061501,
				"element": "O" 
			},
			{
				"x": 1.2208493158,
				"y": -0.9723630848,
				"z": -2.9391738986,
				"element": "C" 
			},
			{
				"x": 0.1172025245,
				"y": -0.8206448996,
				"z": -2.10483227,
				"element": "C" 
			},
			{
				"x": 0.2592359826,
				"y": -0.34513864,
				"z": -0.8020326257,
				"element": "C" 
			},
			{
				"x": -0.8742706205,
				"y": -0.1658393982,
				"z": -0.0676317346,
				"element": "O" 
			},
			{
				"x": -0.9521265711,
				"y": -0.7509981624,
				"z": 1.2504636706,
				"element": "C" 
			},
			{
				"x": -2.398748951,
				"y": -0.7954574963,
				"z": 1.6768712438,
				"element": "C" 
			},
			{
				"x": -3.3997629252,
				"y": -1.2241625545,
				"z": 0.7956932796,
				"element": "C" 
			},
			{
				"x": -4.7258511445,
				"y": -1.3041275247,
				"z": 1.2179289514,
				"element": "C" 
			},
			{
				"x": -5.0680904223,
				"y": -0.9642525438,
				"z": 2.5294992965,
				"element": "C" 
			},
			{
				"x": -4.0771328715,
				"y": -0.5363852383,
				"z": 3.4132013445,
				"element": "C" 
			},
			{
				"x": -2.7509780011,
				"y": -0.4470880748,
				"z": 2.9850712277,
				"element": "C" 
			},
			{
				"x": 3.5760918484,
				"y": 0.0673391344,
				"z": 1.502449961,
				"element": "H" 
			},
			{
				"x": 3.3294179935,
				"y": 1.7053700916,
				"z": 0.8248547881,
				"element": "H" 
			},
			{
				"x": 2.6931630578,
				"y": 1.3010535081,
				"z": 2.4414588325,
				"element": "H" 
			},
			{
				"x": 3.6414446278,
				"y": 0.098840092,
				"z": -0.8035759933,
				"element": "H" 
			},
			{
				"x": 3.4087164013,
				"y": -1.2157893228,
				"z": -4.378065185,
				"element": "H" 
			},
			{
				"x": 5.3707631752,
				"y": -0.2721131486,
				"z": -2.1962293598,
				"element": "H" 
			},
			{
				"x": 1.0879768099,
				"y": -1.3476012837,
				"z": -3.9492956489,
				"element": "H" 
			},
			{
				"x": -0.883052538,
				"y": -1.0649247958,
				"z": -2.4462694953,
				"element": "H" 
			},
			{
				"x": -0.3567183991,
				"y": -0.1699195461,
				"z": 1.9580359222,
				"element": "H" 
			},
			{
				"x": -0.5294477594,
				"y": -1.7650054179,
				"z": 1.2053231521,
				"element": "H" 
			},
			{
				"x": -3.1350601775,
				"y": -1.4796755344,
				"z": -0.2254351978,
				"element": "H" 
			},
			{
				"x": -5.4941147685,
				"y": -1.6328993645,
				"z": 0.5237133406,
				"element": "H" 
			},
			{
				"x": -6.1015578903,
				"y": -1.0284213604,
				"z": 2.8576660923,
				"element": "H" 
			},
			{
				"x": -4.3354501373,
				"y": -0.2622627345,
				"z": 4.4320807686,
				"element": "H" 
			},
			{
				"x": -1.9833749901,
				"y": -0.1010282236,
				"z": 3.6731162028,
				"element": "H" 
			}
		],
		 "valence_orbital": [ 
			{
				"type": "occ",
				"energy": -0.27708,
				"method": "rhf"
			},
			{
				"type": "occ",
				"energy": -0.25694,
				"method": "rhf"
			},
			{
				"type": "occ",
				"energy": -0.25492,
				"method": "rhf"
			},
			{
				"type": "occ",
				"energy": -0.24987,
				"method": "rhf"
			},
			{
				"type": "occ",
				"energy": -0.22827,
				"method": "rhf"
			},
			{
				"type": "unocc",
				"energy": -0.09123,
				"method": "rhf"
			},
			{
				"type": "unocc",
				"energy": -0.02061,
				"method": "rhf"
			},
			{
				"type": "unocc",
				"energy": -0.01221,
				"method": "rhf"
			},
			{
				"type": "unocc",
				"energy": -0.00785,
				"method": "rhf"
			},
			{
				"type": "unocc",
				"energy": -0.00561,
				"method": "rhf"
			}
		],
		"cosmo_sigma_profile": { 
			"-0.025": 0.0,
			"-0.024": 0.0,
			"-0.023": 0.0,
			"-0.022": 0.0,
			"-0.021": 0.0,
			"-0.02": 0.0,
			"-0.019": 0.0,
			"-0.018": 0.0,
			"-0.017": 0.0,
			"-0.016": 0.0,
			"-0.015": 0.0,
			"-0.014": 0.0,
			"-0.013": 0.0,
			"-0.012": 0.0,
			"-0.011": 0.494912140768,
			"-0.01": 1.77327518764,
			"-0.009": 1.95846913806,
			"-0.008": 4.68344843658,
			"-0.007": 7.03516796096,
			"-0.006": 20.4127132896,
			"-0.005": 27.7059119661,
			"-0.004": 30.1464649002,
			"-0.003": 28.5603916263,
			"-0.002": 22.3797686968,
			"-0.001": 23.4684518734,
			"0.0": 19.4547182709,
			"0.001": 24.3386591204,
			"0.002": 22.5002974647,
			"0.003": 21.8573755092,
			"0.004": 15.5488134448,
			"0.005": 13.591037518,
			"0.006": 12.421717296,
			"0.007": 6.75588677969,
			"0.008": 10.3674703799,
			"0.009": 10.6820284863,
			"0.01": 5.91849066544,
			"0.011": 2.96759678913,
			"0.012": 0.177344658183,
			"0.013": 0.0,
			"0.014": 0.0,
			"0.015": 0.0,
			"0.016": 0.0,
			"0.017": 0.0,
			"0.018": 0.0,
			"0.019": 0.0,
			"0.02": 0.0,
			"0.021": 0.0,
			"0.022": 0.0,
			"0.023": 0.0,
			"0.024": 0.0,
			"0.025": 0.0
		}
	}
}
