{
	 "smiles": "O=S1(=O)CCNCC11CCCCC1", 
	 "Tm": 373.15, 
	 "num_atms": 30, 
	 "gaussian": { 
		 "optdone": 1, 
		 "sigma_profile": "yes", 
		 "theory": "DFT", 
		 "functional": "B3LYP", 
		 "basiset": "6-31G**", 
		 "properties": { 
			 "R2extent": 2730.8558, 
			 "electric_dipole_moment_norm": 4.28109281142, 
			 "electric_quadrupole_moment_norm": 11.8727075657, 
			 "total_energy": -956.524916324, 
			 "HOMO_LUMO_gap": 0.27999, 
			 "cosmo_polarized_energy": -15.47, 
			 "cosmo_cavitation_energy": 28.95, 
			 "cosmo_dispersion_energy": -22.22, 
			 "cosmo_repulsion_energy": 1.66, 
			 "cosmo_total_nonelectrostatic_energy": 8.4, 
			 "SMD_solvation_energy": 0.83 
		},
		"coords": [
			{
				"x": 2.6914765821,
				"y": 0.935037358,
				"z": 0.2463318622,
				"element": "O" 
			},
			{
				"x": 1.7745088021,
				"y": 0.3131837148,
				"z": -0.7330444402,
				"element": "S" 
			},
			{
				"x": 1.9438761559,
				"y": 0.5838484991,
				"z": -2.1745710089,
				"element": "O" 
			},
			{
				"x": 1.885667064,
				"y": -1.5012101911,
				"z": -0.498991152,
				"element": "C" 
			},
			{
				"x": 1.0291059314,
				"y": -1.9533424135,
				"z": 0.6783637393,
				"element": "C" 
			},
			{
				"x": -0.4003664758,
				"y": -1.7920871757,
				"z": 0.3787441113,
				"element": "N" 
			},
			{
				"x": -0.757032423,
				"y": -0.6672769628,
				"z": -0.4856697395,
				"element": "C" 
			},
			{
				"x": -0.0162891261,
				"y": 0.6786052264,
				"z": -0.2544115004,
				"element": "C" 
			},
			{
				"x": -0.545720097,
				"y": 1.7426327885,
				"z": -1.2346724236,
				"element": "C" 
			},
			{
				"x": 0.1054781061,
				"y": 3.1339925823,
				"z": -1.0847061226,
				"element": "C" 
			},
			{
				"x": 0.4178840587,
				"y": 3.4954522117,
				"z": 0.3890932302,
				"element": "C" 
			},
			{
				"x": -0.4352475839,
				"y": 2.6643132606,
				"z": 1.3542177825,
				"element": "C" 
			},
			{
				"x": -0.1077541294,
				"y": 1.1638985852,
				"z": 1.2196898985,
				"element": "C" 
			},
			{
				"x": 2.9479605678,
				"y": -1.6862819571,
				"z": -0.3234937874,
				"element": "H" 
			},
			{
				"x": 1.5824057652,
				"y": -1.9707371277,
				"z": -1.4370060651,
				"element": "H" 
			},
			{
				"x": 1.3502857113,
				"y": -1.3955087286,
				"z": 1.5725521661,
				"element": "H" 
			},
			{
				"x": 1.2381274879,
				"y": -3.0118832232,
				"z": 0.8770285568,
				"element": "H" 
			},
			{
				"x": -0.9281876662,
				"y": -1.7567064331,
				"z": 1.2433801958,
				"element": "H" 
			},
			{
				"x": -0.6212876109,
				"y": -0.9579273319,
				"z": -1.5355387104,
				"element": "H" 
			},
			{
				"x": -1.8295309854,
				"y": -0.4813828966,
				"z": -0.3640196419,
				"element": "H" 
			},
			{
				"x": -1.622947296,
				"y": 1.8176445577,
				"z": -1.0359777002,
				"element": "H" 
			},
			{
				"x": -0.4382764845,
				"y": 1.3876991755,
				"z": -2.2628466185,
				"element": "H" 
			},
			{
				"x": -0.5779602627,
				"y": 3.8717356067,
				"z": -1.5204606539,
				"element": "H" 
			},
			{
				"x": 1.0214608571,
				"y": 3.1683977378,
				"z": -1.6812161152,
				"element": "H" 
			},
			{
				"x": 0.2583424547,
				"y": 4.5654635197,
				"z": 0.559893739,
				"element": "H" 
			},
			{
				"x": 1.473515914,
				"y": 3.2936233076,
				"z": 0.6010896424,
				"element": "H" 
			},
			{
				"x": -0.2585985722,
				"y": 2.9727327963,
				"z": 2.3906848044,
				"element": "H" 
			},
			{
				"x": -1.5014299071,
				"y": 2.8403060537,
				"z": 1.1586036266,
				"element": "H" 
			},
			{
				"x": 0.8401974118,
				"y": 0.9738845772,
				"z": 1.7301467058,
				"element": "H" 
			},
			{
				"x": -0.8709642502,
				"y": 0.5685928823,
				"z": 1.7366056187,
				"element": "H" 
			}
		],
		 "valence_orbital": [ 
			{
				"type": "occ",
				"energy": -0.30804,
				"method": "rhf"
			},
			{
				"type": "occ",
				"energy": -0.29986,
				"method": "rhf"
			},
			{
				"type": "occ",
				"energy": -0.28721,
				"method": "rhf"
			},
			{
				"type": "occ",
				"energy": -0.26718,
				"method": "rhf"
			},
			{
				"type": "occ",
				"energy": -0.23525,
				"method": "rhf"
			},
			{
				"type": "unocc",
				"energy": 0.04474,
				"method": "rhf"
			},
			{
				"type": "unocc",
				"energy": 0.05646,
				"method": "rhf"
			},
			{
				"type": "unocc",
				"energy": 0.05748,
				"method": "rhf"
			},
			{
				"type": "unocc",
				"energy": 0.08061,
				"method": "rhf"
			},
			{
				"type": "unocc",
				"energy": 0.08846,
				"method": "rhf"
			}
		],
		"cosmo_sigma_profile": { 
			"-0.025": 0.0,
			"-0.024": 0.0,
			"-0.023": 0.0,
			"-0.022": 0.0,
			"-0.021": 0.0,
			"-0.02": 0.0,
			"-0.019": 0.0,
			"-0.018": 0.0,
			"-0.017": 0.0,
			"-0.016": 0.0,
			"-0.015": 0.0,
			"-0.014": 0.0,
			"-0.013": 0.0,
			"-0.012": 0.0,
			"-0.011": 0.554565942854,
			"-0.01": 1.69521809261,
			"-0.009": 2.1607616592,
			"-0.008": 4.32499722518,
			"-0.007": 6.01413348315,
			"-0.006": 10.905919095,
			"-0.005": 13.94074022,
			"-0.004": 18.3151187052,
			"-0.003": 23.8263934954,
			"-0.002": 26.1172268996,
			"-0.001": 23.2347938273,
			"0.0": 21.3162570082,
			"0.001": 15.0174130693,
			"0.002": 5.24297069429,
			"0.003": 4.26230266665,
			"0.004": 3.58010914118,
			"0.005": 3.14566536294,
			"0.006": 3.39873867176,
			"0.007": 3.72171668729,
			"0.008": 2.84160520003,
			"0.009": 3.99418122368,
			"0.01": 3.32915008435,
			"0.011": 8.0334262291,
			"0.012": 8.38765801731,
			"0.013": 4.01265030584,
			"0.014": 0.448895110749,
			"0.015": 0.334759615672,
			"0.016": 0.679183684075,
			"0.017": 0.290993146124,
			"0.018": 0.0,
			"0.019": 0.0,
			"0.02": 0.0,
			"0.021": 0.0,
			"0.022": 0.0,
			"0.023": 0.0,
			"0.024": 0.0,
			"0.025": 0.0
		}
	}
}
