{
	 "smiles": "NC(=O)C1=CN=C(C=C1)N1CCNCC1", 
	 "Tm": 469.15, 
	 "num_atms": 29, 
	 "gaussian": { 
		 "optdone": 1, 
		 "sigma_profile": "yes", 
		 "theory": "DFT", 
		 "functional": "B3LYP", 
		 "basiset": "6-31G**", 
		 "properties": { 
			 "R2extent": 4815.7898, 
			 "electric_dipole_moment_norm": 4.83376362372, 
			 "electric_quadrupole_moment_norm": 18.4239771941, 
			 "total_energy": -683.734419975, 
			 "HOMO_LUMO_gap": 0.178, 
			 "cosmo_polarized_energy": -19.7, 
			 "cosmo_cavitation_energy": 31.17, 
			 "cosmo_dispersion_energy": -23.42, 
			 "cosmo_repulsion_energy": 1.83, 
			 "cosmo_total_nonelectrostatic_energy": 9.58, 
			 "SMD_solvation_energy": 1.51 
		},
		"coords": [
			{
				"x": 1.3950142047,
				"y": -3.4656150815,
				"z": -2.3213055236,
				"element": "N" 
			},
			{
				"x": 0.1382600926,
				"y": -2.8934490541,
				"z": -2.3732272441,
				"element": "C" 
			},
			{
				"x": -0.7698641163,
				"y": -3.4090865466,
				"z": -3.0164395049,
				"element": "O" 
			},
			{
				"x": -0.0520645471,
				"y": -1.6448509386,
				"z": -1.5842284617,
				"element": "C" 
			},
			{
				"x": -1.2004171914,
				"y": -0.8787233058,
				"z": -1.8127994182,
				"element": "C" 
			},
			{
				"x": -1.4921324366,
				"y": 0.2552981827,
				"z": -1.1807742432,
				"element": "N" 
			},
			{
				"x": -0.6346937166,
				"y": 0.7180509978,
				"z": -0.2431586457,
				"element": "C" 
			},
			{
				"x": 0.5440050999,
				"y": -0.0014962026,
				"z": 0.0896755321,
				"element": "C" 
			},
			{
				"x": 0.8209718252,
				"y": -1.1737754609,
				"z": -0.5886422302,
				"element": "C" 
			},
			{
				"x": -0.9873391927,
				"y": 1.9117368541,
				"z": 0.3394223702,
				"element": "N" 
			},
			{
				"x": -0.2881275995,
				"y": 2.5106263131,
				"z": 1.468088769,
				"element": "C" 
			},
			{
				"x": -0.0848109534,
				"y": 4.0308154041,
				"z": 1.2476238974,
				"element": "C" 
			},
			{
				"x": -1.202851949,
				"y": 4.6787146136,
				"z": 0.5452946522,
				"element": "N" 
			},
			{
				"x": -2.4284891345,
				"y": 3.8903583987,
				"z": 0.6562503328,
				"element": "C" 
			},
			{
				"x": -2.2990093668,
				"y": 2.4974127637,
				"z": 0.0151544712,
				"element": "C" 
			},
			{
				"x": 1.5320901046,
				"y": -4.2265866969,
				"z": -2.9717803704,
				"element": "H" 
			},
			{
				"x": 2.2009614621,
				"y": -2.8859615024,
				"z": -2.1429959735,
				"element": "H" 
			},
			{
				"x": -1.9158086317,
				"y": -1.2230482539,
				"z": -2.5559851331,
				"element": "H" 
			},
			{
				"x": 1.2168222243,
				"y": 0.3323872488,
				"z": 0.8690244138,
				"element": "H" 
			},
			{
				"x": 1.7056250229,
				"y": -1.7419824732,
				"z": -0.3135069572,
				"element": "H" 
			},
			{
				"x": 0.6838083024,
				"y": 2.0393597782,
				"z": 1.6058330009,
				"element": "H" 
			},
			{
				"x": -0.8530706152,
				"y": 2.3364145294,
				"z": 2.3964590382,
				"element": "H" 
			},
			{
				"x": 0.0615096321,
				"y": 4.4992081846,
				"z": 2.2313405737,
				"element": "H" 
			},
			{
				"x": 0.8314619205,
				"y": 4.2033038153,
				"z": 0.6737955937,
				"element": "H" 
			},
			{
				"x": -0.9678435476,
				"y": 4.7679892425,
				"z": -0.4393923997,
				"element": "H" 
			},
			{
				"x": -2.6894689717,
				"y": 3.8111969895,
				"z": 1.7185889064,
				"element": "H" 
			},
			{
				"x": -3.2532128659,
				"y": 4.4270006741,
				"z": 0.1764273132,
				"element": "H" 
			},
			{
				"x": -2.3809892377,
				"y": 2.5736380557,
				"z": -1.073165254,
				"element": "H" 
			},
			{
				"x": -3.1133358177,
				"y": 1.8325634705,
				"z": 0.3384224947,
				"element": "H" 
			}
		],
		 "valence_orbital": [ 
			{
				"type": "occ",
				"energy": -0.26637,
				"method": "rhf"
			},
			{
				"type": "occ",
				"energy": -0.25629,
				"method": "rhf"
			},
			{
				"type": "occ",
				"energy": -0.24001,
				"method": "rhf"
			},
			{
				"type": "occ",
				"energy": -0.22759,
				"method": "rhf"
			},
			{
				"type": "occ",
				"energy": -0.20374,
				"method": "rhf"
			},
			{
				"type": "unocc",
				"energy": -0.02574,
				"method": "rhf"
			},
			{
				"type": "unocc",
				"energy": -0.01593,
				"method": "rhf"
			},
			{
				"type": "unocc",
				"energy": 0.06268,
				"method": "rhf"
			},
			{
				"type": "unocc",
				"energy": 0.0668,
				"method": "rhf"
			},
			{
				"type": "unocc",
				"energy": 0.0822,
				"method": "rhf"
			}
		],
		"cosmo_sigma_profile": { 
			"-0.025": 0.0,
			"-0.024": 0.0,
			"-0.023": 0.0,
			"-0.022": 0.0,
			"-0.021": 0.0,
			"-0.02": 0.0,
			"-0.019": 0.0,
			"-0.018": 0.0,
			"-0.017": 0.0,
			"-0.016": 0.0,
			"-0.015": 0.0168629740885,
			"-0.014": 0.720296697511,
			"-0.013": 2.43867607572,
			"-0.012": 2.51273316551,
			"-0.011": 2.37155148035,
			"-0.01": 3.57013347279,
			"-0.009": 4.88969256989,
			"-0.008": 5.53431580968,
			"-0.007": 6.32945188543,
			"-0.006": 8.11684466574,
			"-0.005": 12.4459555411,
			"-0.004": 23.1009711167,
			"-0.003": 26.0647741819,
			"-0.002": 19.3154745535,
			"-0.001": 13.9900050676,
			"0.0": 12.8541112642,
			"0.001": 12.7779219912,
			"0.002": 15.7333242231,
			"0.003": 15.4618648741,
			"0.004": 8.64264298353,
			"0.005": 6.83529495454,
			"0.006": 4.89199957639,
			"0.007": 3.84739015936,
			"0.008": 4.45444192382,
			"0.009": 4.5731131905,
			"0.01": 3.4081369424,
			"0.011": 2.70100762523,
			"0.012": 3.25411582806,
			"0.013": 4.82798169588,
			"0.014": 6.30228792377,
			"0.015": 1.54669488582,
			"0.016": 0.573848077735,
			"0.017": 0.590934585659,
			"0.018": 0.467493617895,
			"0.019": 0.0875444324613,
			"0.02": 0.0,
			"0.021": 0.0,
			"0.022": 0.0,
			"0.023": 0.0,
			"0.024": 0.0,
			"0.025": 0.0
		}
	}
}
