{
	 "smiles": "CC(=O)OC1CC2(O)C(CCC3(C)C(CCC23O)C2=COC(=O)C=C2)C2(C)CCC(OC3OC(CO)C(O)C(O)C3O)C=C12", 
	 "Tm": 442.15, 
	 "num_atms": 88, 
	 "gaussian": { 
		 "optdone": 1, 
		 "sigma_profile": "yes", 
		 "theory": "DFT", 
		 "functional": "B3LYP", 
		 "basiset": "6-31G**", 
		 "properties": { 
			 "R2extent": 37299.7894, 
			 "electric_dipole_moment_norm": 7.91473713335, 
			 "electric_quadrupole_moment_norm": 60.4676344562, 
			 "total_energy": -2148.55466158, 
			 "HOMO_LUMO_gap": 0.17338, 
			 "cosmo_polarized_energy": -35.36, 
			 "cosmo_cavitation_energy": 78.18, 
			 "cosmo_dispersion_energy": -51.96, 
			 "cosmo_repulsion_energy": 3.79, 
			 "cosmo_total_nonelectrostatic_energy": 30.01, 
			 "SMD_solvation_energy": 14.18 
		},
		"coords": [
			{
				"x": 0.3011829924,
				"y": -2.0685663836,
				"z": 5.0586063074,
				"element": "C" 
			},
			{
				"x": -0.6783524347,
				"y": -1.2992685844,
				"z": 4.206410566,
				"element": "C" 
			},
			{
				"x": -1.8400646185,
				"y": -1.0897796712,
				"z": 4.4849265122,
				"element": "O" 
			},
			{
				"x": -0.0845379437,
				"y": -0.857213518,
				"z": 3.0701300815,
				"element": "O" 
			},
			{
				"x": -0.8962045076,
				"y": -0.0431967047,
				"z": 2.1927887008,
				"element": "C" 
			},
			{
				"x": -1.7750296563,
				"y": -0.9397970013,
				"z": 1.3130258539,
				"element": "C" 
			},
			{
				"x": -2.6827353467,
				"y": -0.071406553,
				"z": 0.4203411235,
				"element": "C" 
			},
			{
				"x": -3.5198360397,
				"y": 0.7155379302,
				"z": 1.2796025415,
				"element": "O" 
			},
			{
				"x": -1.8026949744,
				"y": 0.8806818841,
				"z": -0.4493116059,
				"element": "C" 
			},
			{
				"x": -2.6382280756,
				"y": 1.6813815934,
				"z": -1.4756833044,
				"element": "C" 
			},
			{
				"x": -3.5113946791,
				"y": 0.780236329,
				"z": -2.3790234657,
				"element": "C" 
			},
			{
				"x": -4.4344327604,
				"y": -0.1095012576,
				"z": -1.5289979251,
				"element": "C" 
			},
			{
				"x": -5.4793217405,
				"y": 0.7938770043,
				"z": -0.820431558,
				"element": "C" 
			},
			{
				"x": -5.2949660316,
				"y": -1.2285399274,
				"z": -2.2545193857,
				"element": "C" 
			},
			{
				"x": -5.2681561327,
				"y": -2.4498885286,
				"z": -1.2685827492,
				"element": "C" 
			},
			{
				"x": -4.5268883475,
				"y": -1.9797150001,
				"z": 0.0087364375,
				"element": "C" 
			},
			{
				"x": -3.5448723634,
				"y": -0.941928864,
				"z": -0.5508495807,
				"element": "C" 
			},
			{
				"x": -2.6118212072,
				"y": -1.6656322856,
				"z": -1.3936427523,
				"element": "O" 
			},
			{
				"x": -4.9805764104,
				"y": -1.5712125759,
				"z": -3.6976492076,
				"element": "C" 
			},
			{
				"x": -5.8816265506,
				"y": -1.2565682601,
				"z": -4.6640088394,
				"element": "C" 
			},
			{
				"x": -5.7231132359,
				"y": -1.5265330786,
				"z": -5.9739349314,
				"element": "O" 
			},
			{
				"x": -4.5788701502,
				"y": -2.1834229929,
				"z": -6.4778020838,
				"element": "C" 
			},
			{
				"x": -4.5261831841,
				"y": -2.3831539984,
				"z": -7.6683110792,
				"element": "O" 
			},
			{
				"x": -3.6019749164,
				"y": -2.5357886951,
				"z": -5.4667456433,
				"element": "C" 
			},
			{
				"x": -3.7909098983,
				"y": -2.246654013,
				"z": -4.1523558666,
				"element": "C" 
			},
			{
				"x": -0.7693738963,
				"y": 1.7520600712,
				"z": 0.3618200731,
				"element": "C" 
			},
			{
				"x": -1.441873324,
				"y": 2.9084889498,
				"z": 1.1488108096,
				"element": "C" 
			},
			{
				"x": 0.248380456,
				"y": 2.3608786324,
				"z": -0.6452419823,
				"element": "C" 
			},
			{
				"x": 1.5535460068,
				"y": 2.827589221,
				"z": 0.0077907757,
				"element": "C" 
			},
			{
				"x": 2.2706904317,
				"y": 1.6409483288,
				"z": 0.6351566643,
				"element": "C" 
			},
			{
				"x": 3.3221650292,
				"y": 2.1546947909,
				"z": 1.4949676153,
				"element": "O" 
			},
			{
				"x": 4.430195388,
				"y": 1.2870713497,
				"z": 1.6890674352,
				"element": "C" 
			},
			{
				"x": 5.3399345035,
				"y": 1.3200717826,
				"z": 0.6243019726,
				"element": "O" 
			},
			{
				"x": 6.0815846142,
				"y": 2.5397368163,
				"z": 0.3818660661,
				"element": "C" 
			},
			{
				"x": 5.6383965266,
				"y": 3.1781977795,
				"z": -0.9390756545,
				"element": "C" 
			},
			{
				"x": 6.5570191847,
				"y": 4.1598040483,
				"z": -1.3760197938,
				"element": "O" 
			},
			{
				"x": 5.992587589,
				"y": 3.4992725502,
				"z": 1.5705847811,
				"element": "C" 
			},
			{
				"x": 6.9935721633,
				"y": 4.497758891,
				"z": 1.4067808612,
				"element": "O" 
			},
			{
				"x": 6.2065442839,
				"y": 2.7210536836,
				"z": 2.8645343962,
				"element": "C" 
			},
			{
				"x": 6.278804534,
				"y": 3.6092875158,
				"z": 3.9646694618,
				"element": "O" 
			},
			{
				"x": 5.0695698715,
				"y": 1.6769840389,
				"z": 3.0545643311,
				"element": "C" 
			},
			{
				"x": 4.0831109723,
				"y": 2.1825344341,
				"z": 3.9460598095,
				"element": "O" 
			},
			{
				"x": 1.3218223273,
				"y": 0.7898595908,
				"z": 1.4357500449,
				"element": "C" 
			},
			{
				"x": -0.013397501,
				"y": 0.837963626,
				"z": 1.3395245273,
				"element": "C" 
			},
			{
				"x": 1.0858863518,
				"y": -1.3950345403,
				"z": 5.41731038,
				"element": "H" 
			},
			{
				"x": -0.2221746814,
				"y": -2.5056178392,
				"z": 5.908284083,
				"element": "H" 
			},
			{
				"x": 0.7867436059,
				"y": -2.8512297943,
				"z": 4.4693070115,
				"element": "H" 
			},
			{
				"x": -1.5493192439,
				"y": 0.5687193591,
				"z": 2.8199133495,
				"element": "H" 
			},
			{
				"x": -1.1209295051,
				"y": -1.5784728805,
				"z": 0.7108238534,
				"element": "H" 
			},
			{
				"x": -2.3848767855,
				"y": -1.5830497902,
				"z": 1.9578870205,
				"element": "H" 
			},
			{
				"x": -3.9361138524,
				"y": 0.1259255328,
				"z": 1.923366268,
				"element": "H" 
			},
			{
				"x": -1.1890319164,
				"y": 0.1872083717,
				"z": -1.035134513,
				"element": "H" 
			},
			{
				"x": -1.9629383679,
				"y": 2.255500601,
				"z": -2.1174116021,
				"element": "H" 
			},
			{
				"x": -3.2674712528,
				"y": 2.413680195,
				"z": -0.9614705746,
				"element": "H" 
			},
			{
				"x": -2.8642288189,
				"y": 0.1624753383,
				"z": -3.0076364036,
				"element": "H" 
			},
			{
				"x": -4.1065046381,
				"y": 1.4057946187,
				"z": -3.0550301243,
				"element": "H" 
			},
			{
				"x": -5.038337818,
				"y": 1.551504077,
				"z": -0.1786402379,
				"element": "H" 
			},
			{
				"x": -6.0744171564,
				"y": 1.290985811,
				"z": -1.5952618592,
				"element": "H" 
			},
			{
				"x": -6.1759379072,
				"y": 0.2134382251,
				"z": -0.2075718187,
				"element": "H" 
			},
			{
				"x": -6.3204790754,
				"y": -0.8478476737,
				"z": -2.2795358326,
				"element": "H" 
			},
			{
				"x": -6.2768775369,
				"y": -2.8108531445,
				"z": -1.0495197756,
				"element": "H" 
			},
			{
				"x": -4.7256106883,
				"y": -3.2840258369,
				"z": -1.7207521551,
				"element": "H" 
			},
			{
				"x": -5.215757441,
				"y": -1.5275669699,
				"z": 0.7290927305,
				"element": "H" 
			},
			{
				"x": -4.0238286046,
				"y": -2.8070276252,
				"z": 0.5239773816,
				"element": "H" 
			},
			{
				"x": -2.2843617772,
				"y": -2.4187568268,
				"z": -0.8853231975,
				"element": "H" 
			},
			{
				"x": -6.8274645463,
				"y": -0.7579655907,
				"z": -4.4734969775,
				"element": "H" 
			},
			{
				"x": -2.7119853319,
				"y": -3.0394033681,
				"z": -5.8257850722,
				"element": "H" 
			},
			{
				"x": -3.0354278605,
				"y": -2.5036567423,
				"z": -3.4193689021,
				"element": "H" 
			},
			{
				"x": -2.184595849,
				"y": 2.5461348946,
				"z": 1.8584199238,
				"element": "H" 
			},
			{
				"x": -1.9499940042,
				"y": 3.5934200452,
				"z": 0.4633106416,
				"element": "H" 
			},
			{
				"x": -0.6901844762,
				"y": 3.4854252295,
				"z": 1.695583968,
				"element": "H" 
			},
			{
				"x": 0.4884664828,
				"y": 1.6124112175,
				"z": -1.4126731974,
				"element": "H" 
			},
			{
				"x": -0.2132858329,
				"y": 3.204024839,
				"z": -1.1676318372,
				"element": "H" 
			},
			{
				"x": 1.3543621224,
				"y": 3.5648807514,
				"z": 0.7933941028,
				"element": "H" 
			},
			{
				"x": 2.2008802843,
				"y": 3.3128302057,
				"z": -0.7295199433,
				"element": "H" 
			},
			{
				"x": 2.75799119,
				"y": 1.0440081805,
				"z": -0.1491909184,
				"element": "H" 
			},
			{
				"x": 4.0845618699,
				"y": 0.2476813235,
				"z": 1.7172568384,
				"element": "H" 
			},
			{
				"x": 7.1320935332,
				"y": 2.24232323,
				"z": 0.2743088641,
				"element": "H" 
			},
			{
				"x": 4.6201518786,
				"y": 3.5855905924,
				"z": -0.8180126811,
				"element": "H" 
			},
			{
				"x": 5.5947773646,
				"y": 2.4021224394,
				"z": -1.7104670327,
				"element": "H" 
			},
			{
				"x": 6.7908150216,
				"y": 4.7006974839,
				"z": -0.6048997436,
				"element": "H" 
			},
			{
				"x": 4.9964012278,
				"y": 3.9666353658,
				"z": 1.5980718827,
				"element": "H" 
			},
			{
				"x": 7.0549014177,
				"y": 4.9476464764,
				"z": 2.2641286222,
				"element": "H" 
			},
			{
				"x": 7.1717576945,
				"y": 2.2037263946,
				"z": 2.7905054236,
				"element": "H" 
			},
			{
				"x": 5.3966524556,
				"y": 3.5622255001,
				"z": 4.3770569884,
				"element": "H" 
			},
			{
				"x": 5.4863978075,
				"y": 0.7744955903,
				"z": 3.5123760783,
				"element": "H" 
			},
			{
				"x": 3.3624446386,
				"y": 2.4982585897,
				"z": 3.3719731955,
				"element": "H" 
			},
			{
				"x": 1.7695790744,
				"y": 0.1014351948,
				"z": 2.1465554516,
				"element": "H" 
			}
		],
		 "valence_orbital": [ 
			{
				"type": "occ",
				"energy": -0.26495,
				"method": "rhf"
			},
			{
				"type": "occ",
				"energy": -0.25998,
				"method": "rhf"
			},
			{
				"type": "occ",
				"energy": -0.25486,
				"method": "rhf"
			},
			{
				"type": "occ",
				"energy": -0.25036,
				"method": "rhf"
			},
			{
				"type": "occ",
				"energy": -0.22685,
				"method": "rhf"
			},
			{
				"type": "unocc",
				"energy": -0.05347,
				"method": "rhf"
			},
			{
				"type": "unocc",
				"energy": -0.00437,
				"method": "rhf"
			},
			{
				"type": "unocc",
				"energy": -0.00399,
				"method": "rhf"
			},
			{
				"type": "unocc",
				"energy": 0.01157,
				"method": "rhf"
			},
			{
				"type": "unocc",
				"energy": 0.03872,
				"method": "rhf"
			}
		],
		"cosmo_sigma_profile": { 
			"-0.025": 0.0,
			"-0.024": 0.0,
			"-0.023": 0.0,
			"-0.022": 0.0,
			"-0.021": 0.0,
			"-0.02": 0.0,
			"-0.019": 0.0,
			"-0.018": 0.0,
			"-0.017": 0.0,
			"-0.016": 0.0,
			"-0.015": 0.314531446174,
			"-0.014": 1.73290186691,
			"-0.013": 1.75875295162,
			"-0.012": 2.87430804595,
			"-0.011": 2.8262153323,
			"-0.01": 3.14189292341,
			"-0.009": 4.77120111684,
			"-0.008": 6.16249660686,
			"-0.007": 15.3768673834,
			"-0.006": 23.3565477669,
			"-0.005": 27.8706634248,
			"-0.004": 40.1488969137,
			"-0.003": 63.1002798584,
			"-0.002": 73.8822444777,
			"-0.001": 62.2118552015,
			"0.0": 56.2313233102,
			"0.001": 49.0523303982,
			"0.002": 31.8418209825,
			"0.003": 18.7750787777,
			"0.004": 18.4531307713,
			"0.005": 13.4897257703,
			"0.006": 12.258817055,
			"0.007": 10.2663042357,
			"0.008": 9.5274079708,
			"0.009": 10.338980977,
			"0.01": 8.56485696238,
			"0.011": 10.5581226826,
			"0.012": 12.2829717604,
			"0.013": 10.4964238046,
			"0.014": 4.05599710645,
			"0.015": 1.05696011546,
			"0.016": 0.0,
			"0.017": 0.0,
			"0.018": 0.0,
			"0.019": 0.0,
			"0.02": 0.0,
			"0.021": 0.0,
			"0.022": 0.0,
			"0.023": 0.0,
			"0.024": 0.0,
			"0.025": 0.0
		}
	}
}
