{
	 "smiles": "FC1=CC(F)=C(Br)C=C1F", 
	 "Tm": 254.15, 
	 "num_atms": 12, 
	 "gaussian": { 
		 "optdone": 1, 
		 "sigma_profile": "yes", 
		 "theory": "DFT", 
		 "functional": "B3LYP", 
		 "basiset": "6-31G**", 
		 "properties": { 
			 "R2extent": 4564.4878, 
			 "electric_dipole_moment_norm": 0.11416799026, 
			 "electric_quadrupole_moment_norm": 6.30845449219, 
			 "total_energy": -3100.73370778, 
			 "HOMO_LUMO_gap": 0.21247, 
			 "cosmo_polarized_energy": -3.43, 
			 "cosmo_cavitation_energy": 20.64, 
			 "cosmo_dispersion_energy": -15.33, 
			 "cosmo_repulsion_energy": 1.18, 
			 "cosmo_total_nonelectrostatic_energy": 6.48, 
			 "SMD_solvation_energy": 4.01 
		},
		"coords": [
			{
				"x": -0.3167964519,
				"y": -1.0820870804,
				"z": 0.2688100276,
				"element": "F" 
			},
			{
				"x": -0.392286484,
				"y": 0.2159686366,
				"z": -0.0549774065,
				"element": "C" 
			},
			{
				"x": -1.2777881207,
				"y": 1.0518060343,
				"z": 0.6115935697,
				"element": "C" 
			},
			{
				"x": -1.3340814784,
				"y": 2.3951547632,
				"z": 0.2538215546,
				"element": "C" 
			},
			{
				"x": -2.1898404984,
				"y": 3.1990786985,
				"z": 0.8992281886,
				"element": "F" 
			},
			{
				"x": -0.5196805602,
				"y": 2.906522943,
				"z": -0.7562376769,
				"element": "C" 
			},
			{
				"x": -0.6239272849,
				"y": 4.7434266544,
				"z": -1.2164806557,
				"element": "Br" 
			},
			{
				"x": 0.3669482556,
				"y": 2.0579976982,
				"z": -1.4201452458,
				"element": "C" 
			},
			{
				"x": 0.4268248521,
				"y": 0.716766509,
				"z": -1.0668143648,
				"element": "C" 
			},
			{
				"x": 1.2745312608,
				"y": -0.1112871305,
				"z": -1.6964221627,
				"element": "F" 
			},
			{
				"x": -1.914816263,
				"y": 0.6645675971,
				"z": 1.3977191012,
				"element": "H" 
			},
			{
				"x": 1.010612773,
				"y": 2.4288846766,
				"z": -2.2080949295,
				"element": "H" 
			}
		],
		 "valence_orbital": [ 
			{
				"type": "occ",
				"energy": -0.37821,
				"method": "rhf"
			},
			{
				"type": "occ",
				"energy": -0.32233,
				"method": "rhf"
			},
			{
				"type": "occ",
				"energy": -0.30197,
				"method": "rhf"
			},
			{
				"type": "occ",
				"energy": -0.27542,
				"method": "rhf"
			},
			{
				"type": "occ",
				"energy": -0.24923,
				"method": "rhf"
			},
			{
				"type": "unocc",
				"energy": -0.03676,
				"method": "rhf"
			},
			{
				"type": "unocc",
				"energy": -0.01723,
				"method": "rhf"
			},
			{
				"type": "unocc",
				"energy": -0.01373,
				"method": "rhf"
			},
			{
				"type": "unocc",
				"energy": 0.07074,
				"method": "rhf"
			},
			{
				"type": "unocc",
				"energy": 0.12104,
				"method": "rhf"
			}
		],
		"cosmo_sigma_profile": { 
			"-0.025": 0.0,
			"-0.024": 0.0,
			"-0.023": 0.0,
			"-0.022": 0.0,
			"-0.021": 0.0,
			"-0.02": 0.0,
			"-0.019": 0.0,
			"-0.018": 0.0,
			"-0.017": 0.0,
			"-0.016": 0.0,
			"-0.015": 0.0,
			"-0.014": 0.0,
			"-0.013": 0.0,
			"-0.012": 0.0,
			"-0.011": 0.0,
			"-0.01": 1.3910503021,
			"-0.009": 3.37107149308,
			"-0.008": 2.19404027462,
			"-0.007": 3.60848654721,
			"-0.006": 2.90026781574,
			"-0.005": 4.30443121351,
			"-0.004": 5.02898595049,
			"-0.003": 7.27018371556,
			"-0.002": 16.6717677545,
			"-0.001": 23.422848688,
			"0.0": 19.4402489744,
			"0.001": 12.2628712311,
			"0.002": 14.6654745936,
			"0.003": 35.9176486286,
			"0.004": 16.824879762,
			"0.005": 1.40794735749,
			"0.006": 0.0,
			"0.007": 0.0,
			"0.008": 0.0,
			"0.009": 0.0,
			"0.01": 0.0,
			"0.011": 0.0,
			"0.012": 0.0,
			"0.013": 0.0,
			"0.014": 0.0,
			"0.015": 0.0,
			"0.016": 0.0,
			"0.017": 0.0,
			"0.018": 0.0,
			"0.019": 0.0,
			"0.02": 0.0,
			"0.021": 0.0,
			"0.022": 0.0,
			"0.023": 0.0,
			"0.024": 0.0,
			"0.025": 0.0
		}
	}
}
