{
	 "smiles": "CCN(CC)C(=O)N1C=NC(=N1)S(=O)(=O)C1=C(C)C=C(C)C=C1C", 
	 "Tm": 388.15, 
	 "num_atms": 46, 
	 "gaussian": { 
		 "optdone": 1, 
		 "sigma_profile": "yes", 
		 "theory": "DFT", 
		 "functional": "B3LYP", 
		 "basiset": "6-31G**", 
		 "properties": { 
			 "R2extent": 10833.551, 
			 "electric_dipole_moment_norm": 4.39589611911, 
			 "electric_quadrupole_moment_norm": 30.3239226737, 
			 "total_energy": -1465.76431726, 
			 "HOMO_LUMO_gap": 0.19044, 
			 "cosmo_polarized_energy": -18.55, 
			 "cosmo_cavitation_energy": 48.96, 
			 "cosmo_dispersion_energy": -33.62, 
			 "cosmo_repulsion_energy": 2.51, 
			 "cosmo_total_nonelectrostatic_energy": 17.85, 
			 "SMD_solvation_energy": 7.25 
		},
		"coords": [
			{
				"x": -3.1181742737,
				"y": -2.0971051078,
				"z": 0.6578246666,
				"element": "C" 
			},
			{
				"x": -2.5165947469,
				"y": -2.1378227762,
				"z": -0.7492731156,
				"element": "C" 
			},
			{
				"x": -2.9367605889,
				"y": -1.0169706384,
				"z": -1.623729434,
				"element": "N" 
			},
			{
				"x": -3.9485412773,
				"y": -1.301200428,
				"z": -2.6618750167,
				"element": "C" 
			},
			{
				"x": -5.3899310387,
				"y": -1.2873649775,
				"z": -2.1483250078,
				"element": "C" 
			},
			{
				"x": -2.6507751944,
				"y": 0.295835212,
				"z": -1.4559939379,
				"element": "C" 
			},
			{
				"x": -3.2110713828,
				"y": 1.2217069823,
				"z": -2.0258854366,
				"element": "O" 
			},
			{
				"x": -1.5877114164,
				"y": 0.665794427,
				"z": -0.5386900218,
				"element": "N" 
			},
			{
				"x": -1.3967259493,
				"y": 1.9438264281,
				"z": -0.0946469085,
				"element": "C" 
			},
			{
				"x": -0.3236951239,
				"y": 2.0089331793,
				"z": 0.6629685253,
				"element": "N" 
			},
			{
				"x": 0.1269640994,
				"y": 0.7221235964,
				"z": 0.6431913379,
				"element": "C" 
			},
			{
				"x": -0.5853862263,
				"y": -0.128699808,
				"z": -0.0689781685,
				"element": "N" 
			},
			{
				"x": 1.6043994143,
				"y": 0.1954038567,
				"z": 1.5428131663,
				"element": "S" 
			},
			{
				"x": 1.7101483609,
				"y": -1.2559838307,
				"z": 1.3623028864,
				"element": "O" 
			},
			{
				"x": 1.4853458574,
				"y": 0.7500707357,
				"z": 2.8945079071,
				"element": "O" 
			},
			{
				"x": 2.9304152993,
				"y": 1.0337785441,
				"z": 0.6362591734,
				"element": "C" 
			},
			{
				"x": 3.4898742985,
				"y": 0.3962171781,
				"z": -0.4998141536,
				"element": "C" 
			},
			{
				"x": 3.0297084217,
				"y": -0.9271907722,
				"z": -1.0766110692,
				"element": "C" 
			},
			{
				"x": 4.5386254528,
				"y": 1.047081815,
				"z": -1.158142381,
				"element": "C" 
			},
			{
				"x": 5.0357816201,
				"y": 2.2823432518,
				"z": -0.7411436307,
				"element": "C" 
			},
			{
				"x": 6.1970785836,
				"y": 2.9327646909,
				"z": -1.4518908102,
				"element": "C" 
			},
			{
				"x": 4.4314314012,
				"y": 2.8946270225,
				"z": 0.3570772258,
				"element": "C" 
			},
			{
				"x": 3.3756921911,
				"y": 2.3091081666,
				"z": 1.0655730433,
				"element": "C" 
			},
			{
				"x": 2.7872559118,
				"y": 3.1075863715,
				"z": 2.2102814168,
				"element": "C" 
			},
			{
				"x": -4.2114186855,
				"y": -2.0796345992,
				"z": 0.6313485328,
				"element": "H" 
			},
			{
				"x": -2.8017529266,
				"y": -2.9861157021,
				"z": 1.2124988756,
				"element": "H" 
			},
			{
				"x": -2.7694786699,
				"y": -1.2241740592,
				"z": 1.2150732986,
				"element": "H" 
			},
			{
				"x": -1.4299389686,
				"y": -2.1632916476,
				"z": -0.6891939066,
				"element": "H" 
			},
			{
				"x": -2.8425161391,
				"y": -3.0444187956,
				"z": -1.2650476056,
				"element": "H" 
			},
			{
				"x": -3.6985389693,
				"y": -2.2776250986,
				"z": -3.088357787,
				"element": "H" 
			},
			{
				"x": -3.8300452822,
				"y": -0.5513624102,
				"z": -3.4453059209,
				"element": "H" 
			},
			{
				"x": -5.6343453299,
				"y": -0.3081137404,
				"z": -1.7289440176,
				"element": "H" 
			},
			{
				"x": -5.5575444213,
				"y": -2.050969052,
				"z": -1.3827994685,
				"element": "H" 
			},
			{
				"x": -6.0793065455,
				"y": -1.4858851338,
				"z": -2.975564764,
				"element": "H" 
			},
			{
				"x": -2.0633188925,
				"y": 2.7494377351,
				"z": -0.3610278809,
				"element": "H" 
			},
			{
				"x": 1.9470689278,
				"y": -0.9654115373,
				"z": -1.2210557096,
				"element": "H" 
			},
			{
				"x": 3.2805626258,
				"y": -1.7616407112,
				"z": -0.418863066,
				"element": "H" 
			},
			{
				"x": 3.5110991936,
				"y": -1.0846612785,
				"z": -2.0451984305,
				"element": "H" 
			},
			{
				"x": 4.9748174656,
				"y": 0.5671562962,
				"z": -2.0305844616,
				"element": "H" 
			},
			{
				"x": 6.1472911265,
				"y": 4.0234619431,
				"z": -1.3854198349,
				"element": "H" 
			},
			{
				"x": 7.1499962335,
				"y": 2.6219863469,
				"z": -1.0057164563,
				"element": "H" 
			},
			{
				"x": 6.2268948405,
				"y": 2.6541001745,
				"z": -2.5092951957,
				"element": "H" 
			},
			{
				"x": 4.7837594927,
				"y": 3.8715962745,
				"z": 0.6778549926,
				"element": "H" 
			},
			{
				"x": 2.9786962076,
				"y": 2.6341749787,
				"z": 3.1750395339,
				"element": "H" 
			},
			{
				"x": 1.7035777494,
				"y": 3.2073588079,
				"z": 2.1175020873,
				"element": "H" 
			},
			{
				"x": 3.2301872738,
				"y": 4.1068680895,
				"z": 2.2153569281,
				"element": "H" 
			}
		],
		 "valence_orbital": [ 
			{
				"type": "occ",
				"energy": -0.28773,
				"method": "rhf"
			},
			{
				"type": "occ",
				"energy": -0.28335,
				"method": "rhf"
			},
			{
				"type": "occ",
				"energy": -0.26288,
				"method": "rhf"
			},
			{
				"type": "occ",
				"energy": -0.25208,
				"method": "rhf"
			},
			{
				"type": "occ",
				"energy": -0.24494,
				"method": "rhf"
			},
			{
				"type": "unocc",
				"energy": -0.0545,
				"method": "rhf"
			},
			{
				"type": "unocc",
				"energy": -0.03074,
				"method": "rhf"
			},
			{
				"type": "unocc",
				"energy": -0.00594,
				"method": "rhf"
			},
			{
				"type": "unocc",
				"energy": 0.01246,
				"method": "rhf"
			},
			{
				"type": "unocc",
				"energy": 0.04108,
				"method": "rhf"
			}
		],
		"cosmo_sigma_profile": { 
			"-0.025": 0.0,
			"-0.024": 0.0,
			"-0.023": 0.0,
			"-0.022": 0.0,
			"-0.021": 0.0,
			"-0.02": 0.0,
			"-0.019": 0.0,
			"-0.018": 0.0,
			"-0.017": 0.0,
			"-0.016": 0.0,
			"-0.015": 0.0,
			"-0.014": 0.0,
			"-0.013": 0.0,
			"-0.012": 0.433799587864,
			"-0.011": 0.866008042802,
			"-0.01": 1.49265599879,
			"-0.009": 1.04474219949,
			"-0.008": 1.16340454765,
			"-0.007": 3.06121762598,
			"-0.006": 12.9680005283,
			"-0.005": 24.0514822046,
			"-0.004": 37.1435453293,
			"-0.003": 39.9268495553,
			"-0.002": 45.1010544206,
			"-0.001": 44.8677525664,
			"0.0": 45.135485389,
			"0.001": 23.9070675304,
			"0.002": 16.1791084766,
			"0.003": 18.3796558429,
			"0.004": 11.0836563241,
			"0.005": 6.97833777861,
			"0.006": 6.98865209718,
			"0.007": 5.82690475885,
			"0.008": 8.27897845617,
			"0.009": 7.43107821478,
			"0.01": 9.37899473602,
			"0.011": 10.5208154998,
			"0.012": 5.01109445073,
			"0.013": 0.00638617466512,
			"0.014": 0.0,
			"0.015": 0.0,
			"0.016": 0.0,
			"0.017": 0.0,
			"0.018": 0.0,
			"0.019": 0.0,
			"0.02": 0.0,
			"0.021": 0.0,
			"0.022": 0.0,
			"0.023": 0.0,
			"0.024": 0.0,
			"0.025": 0.0
		}
	}
}
