{
	 "smiles": "CCOC(=O)C1=C(C)NC(=O)NC1C1=CC=CC=C1Cl", 
	 "Tm": 490.15, 
	 "num_atms": 35, 
	 "gaussian": { 
		 "optdone": 1, 
		 "sigma_profile": "yes", 
		 "theory": "DFT", 
		 "functional": "B3LYP", 
		 "basiset": "6-31G**", 
		 "properties": { 
			 "R2extent": 5967.6723, 
			 "electric_dipole_moment_norm": 3.36001519193, 
			 "electric_quadrupole_moment_norm": 21.2384730951, 
			 "total_energy": -1337.93545154, 
			 "HOMO_LUMO_gap": 0.18537, 
			 "cosmo_polarized_energy": -17.61, 
			 "cosmo_cavitation_energy": 39.55, 
			 "cosmo_dispersion_energy": -27.04, 
			 "cosmo_repulsion_energy": 2.1, 
			 "cosmo_total_nonelectrostatic_energy": 14.6, 
			 "SMD_solvation_energy": 7.74 
		},
		"coords": [
			{
				"x": -3.9024404767,
				"y": 0.1851271144,
				"z": -1.5135161822,
				"element": "C" 
			},
			{
				"x": -2.5204209685,
				"y": -0.2526589111,
				"z": -1.9765587875,
				"element": "C" 
			},
			{
				"x": -1.5196480291,
				"y": 0.0011560588,
				"z": -0.9671438338,
				"element": "O" 
			},
			{
				"x": -0.9631770805,
				"y": 1.246035224,
				"z": -0.9613602709,
				"element": "C" 
			},
			{
				"x": -1.3085092256,
				"y": 2.1179181787,
				"z": -1.7461449809,
				"element": "O" 
			},
			{
				"x": 0.050870456,
				"y": 1.3711348454,
				"z": 0.0899781216,
				"element": "C" 
			},
			{
				"x": 0.5798149116,
				"y": 2.5936629086,
				"z": 0.39296697,
				"element": "C" 
			},
			{
				"x": 0.2830365053,
				"y": 3.8832351967,
				"z": -0.3258864489,
				"element": "C" 
			},
			{
				"x": 1.4673627695,
				"y": 2.7142238109,
				"z": 1.4372953012,
				"element": "N" 
			},
			{
				"x": 1.8195219188,
				"y": 1.6927958076,
				"z": 2.3252691401,
				"element": "C" 
			},
			{
				"x": 2.5701888784,
				"y": 1.902351173,
				"z": 3.2657851916,
				"element": "O" 
			},
			{
				"x": 1.2213088174,
				"y": 0.4962826591,
				"z": 2.0627662917,
				"element": "N" 
			},
			{
				"x": 0.4436305494,
				"y": 0.1254527591,
				"z": 0.875837638,
				"element": "C" 
			},
			{
				"x": 1.1516031531,
				"y": -0.9713784202,
				"z": 0.0605694384,
				"element": "C" 
			},
			{
				"x": 0.5296495279,
				"y": -2.2264224518,
				"z": -0.0227222946,
				"element": "C" 
			},
			{
				"x": 1.0995663296,
				"y": -3.295849487,
				"z": -0.7091138615,
				"element": "C" 
			},
			{
				"x": 2.332081154,
				"y": -3.1297563302,
				"z": -1.3400289233,
				"element": "C" 
			},
			{
				"x": 2.979608336,
				"y": -1.8979155148,
				"z": -1.2749172238,
				"element": "C" 
			},
			{
				"x": 2.392433752,
				"y": -0.8379456031,
				"z": -0.5810480898,
				"element": "C" 
			},
			{
				"x": 3.2934835398,
				"y": 0.6747382979,
				"z": -0.5408583352,
				"element": "Cl" 
			},
			{
				"x": -3.9333848034,
				"y": 1.2688184947,
				"z": -1.3783169333,
				"element": "H" 
			},
			{
				"x": -4.1694908938,
				"y": -0.2982022815,
				"z": -0.5687631125,
				"element": "H" 
			},
			{
				"x": -4.6517948306,
				"y": -0.0898900261,
				"z": -2.2635035573,
				"element": "H" 
			},
			{
				"x": -2.4759181918,
				"y": -1.3328484761,
				"z": -2.1384226772,
				"element": "H" 
			},
			{
				"x": -2.2341102336,
				"y": 0.2638297404,
				"z": -2.895597802,
				"element": "H" 
			},
			{
				"x": -0.7920072617,
				"y": 4.0498180282,
				"z": -0.4041860775,
				"element": "H" 
			},
			{
				"x": 0.6581135668,
				"y": 3.8457747905,
				"z": -1.3514891741,
				"element": "H" 
			},
			{
				"x": 0.7459802225,
				"y": 4.7271069836,
				"z": 0.1942852128,
				"element": "H" 
			},
			{
				"x": 1.876271951,
				"y": 3.6096611498,
				"z": 1.6588865302,
				"element": "H" 
			},
			{
				"x": 1.5175594257,
				"y": -0.2454458978,
				"z": 2.6810116584,
				"element": "H" 
			},
			{
				"x": -0.4829861129,
				"y": -0.3429043452,
				"z": 1.2279265504,
				"element": "H" 
			},
			{
				"x": -0.4353820612,
				"y": -2.3518556616,
				"z": 0.4603863702,
				"element": "H" 
			},
			{
				"x": 0.5847207134,
				"y": -4.2509088949,
				"z": -0.7497814883,
				"element": "H" 
			},
			{
				"x": 2.7932110833,
				"y": -3.9513592157,
				"z": -1.8797835064,
				"element": "H" 
			},
			{
				"x": 3.9400526076,
				"y": -1.7481817046,
				"z": -1.7557208532,
				"element": "H" 
			}
		],
		 "valence_orbital": [ 
			{
				"type": "occ",
				"energy": -0.26534,
				"method": "rhf"
			},
			{
				"type": "occ",
				"energy": -0.26307,
				"method": "rhf"
			},
			{
				"type": "occ",
				"energy": -0.25382,
				"method": "rhf"
			},
			{
				"type": "occ",
				"energy": -0.24603,
				"method": "rhf"
			},
			{
				"type": "occ",
				"energy": -0.22258,
				"method": "rhf"
			},
			{
				"type": "unocc",
				"energy": -0.03721,
				"method": "rhf"
			},
			{
				"type": "unocc",
				"energy": -0.01857,
				"method": "rhf"
			},
			{
				"type": "unocc",
				"energy": -0.01169,
				"method": "rhf"
			},
			{
				"type": "unocc",
				"energy": 0.02882,
				"method": "rhf"
			},
			{
				"type": "unocc",
				"energy": 0.06151,
				"method": "rhf"
			}
		],
		"cosmo_sigma_profile": { 
			"-0.025": 0.0,
			"-0.024": 0.0,
			"-0.023": 0.0,
			"-0.022": 0.0,
			"-0.021": 0.0,
			"-0.02": 0.0,
			"-0.019": 0.0,
			"-0.018": 0.0,
			"-0.017": 0.0,
			"-0.016": 0.213328538134,
			"-0.015": 0.98224415386,
			"-0.014": 1.70724901618,
			"-0.013": 2.80258694507,
			"-0.012": 2.00968229432,
			"-0.011": 1.83657903955,
			"-0.01": 1.61209817658,
			"-0.009": 2.75596847183,
			"-0.008": 1.90018115137,
			"-0.007": 5.87805204282,
			"-0.006": 13.7207175997,
			"-0.005": 16.1809242184,
			"-0.004": 22.184308535,
			"-0.003": 23.8052384139,
			"-0.002": 26.9718010494,
			"-0.001": 27.2997079694,
			"0.0": 29.056399663,
			"0.001": 25.0621887525,
			"0.002": 22.4803894537,
			"0.003": 21.5034584332,
			"0.004": 20.8070340591,
			"0.005": 10.6541029963,
			"0.006": 4.28319970738,
			"0.007": 2.55194537048,
			"0.008": 2.44502646046,
			"0.009": 2.39598480166,
			"0.01": 2.52152213091,
			"0.011": 3.19374990803,
			"0.012": 4.04229938616,
			"0.013": 7.29851953871,
			"0.014": 4.51801370321,
			"0.015": 0.137646741745,
			"0.016": 0.0,
			"0.017": 0.0,
			"0.018": 0.0,
			"0.019": 0.0,
			"0.02": 0.0,
			"0.021": 0.0,
			"0.022": 0.0,
			"0.023": 0.0,
			"0.024": 0.0,
			"0.025": 0.0
		}
	}
}
