{
	 "smiles": "CCN1C(=O)CSC1=S", 
	 "Tm": 311.15, 
	 "num_atms": 16, 
	 "gaussian": { 
		 "optdone": 1, 
		 "sigma_profile": "yes", 
		 "theory": "DFT", 
		 "functional": "B3LYP", 
		 "basiset": "6-31G**", 
		 "properties": { 
			 "R2extent": 2135.1327, 
			 "electric_dipole_moment_norm": 2.04884905496, 
			 "electric_quadrupole_moment_norm": 14.1783066038, 
			 "total_energy": -1121.12395685, 
			 "HOMO_LUMO_gap": 0.16315, 
			 "cosmo_polarized_energy": -10.11, 
			 "cosmo_cavitation_energy": 22.78, 
			 "cosmo_dispersion_energy": -17.55, 
			 "cosmo_repulsion_energy": 1.35, 
			 "cosmo_total_nonelectrostatic_energy": 6.58, 
			 "SMD_solvation_energy": 3.35 
		},
		"coords": [
			{
				"x": -1.1618033852,
				"y": 1.1307434505,
				"z": -0.7883169579,
				"element": "C" 
			},
			{
				"x": -0.9771920583,
				"y": 0.326245796,
				"z": 0.497784275,
				"element": "C" 
			},
			{
				"x": -0.0826893596,
				"y": -0.8299257713,
				"z": 0.3104171574,
				"element": "N" 
			},
			{
				"x": 1.2926134365,
				"y": -0.6654151329,
				"z": 0.5045578173,
				"element": "C" 
			},
			{
				"x": 1.8077727291,
				"y": 0.381658326,
				"z": 0.8343808992,
				"element": "O" 
			},
			{
				"x": 2.0504020165,
				"y": -1.9620485991,
				"z": 0.2568623791,
				"element": "C" 
			},
			{
				"x": 0.8148853357,
				"y": -3.2141552988,
				"z": -0.2324843331,
				"element": "S" 
			},
			{
				"x": -0.5352786726,
				"y": -2.0745240043,
				"z": -0.0802820309,
				"element": "C" 
			},
			{
				"x": -2.0965561097,
				"y": -2.5077120665,
				"z": -0.3776990935,
				"element": "S" 
			},
			{
				"x": -1.8268082529,
				"y": 1.9783829871,
				"z": -0.5962234086,
				"element": "H" 
			},
			{
				"x": -0.2045596727,
				"y": 1.5230142992,
				"z": -1.142560506,
				"element": "H" 
			},
			{
				"x": -1.6101555961,
				"y": 0.516213937,
				"z": -1.5731306703,
				"element": "H" 
			},
			{
				"x": -1.9297302112,
				"y": -0.06573898,
				"z": 0.8578288057,
				"element": "H" 
			},
			{
				"x": -0.5167351762,
				"y": 0.9383217857,
				"z": 1.2758123221,
				"element": "H" 
			},
			{
				"x": 2.7910433668,
				"y": -1.8042396544,
				"z": -0.5308764165,
				"element": "H" 
			},
			{
				"x": 2.5716916099,
				"y": -2.2551210745,
				"z": 1.1716297609,
				"element": "H" 
			}
		],
		 "valence_orbital": [ 
			{
				"type": "occ",
				"energy": -0.36326,
				"method": "rhf"
			},
			{
				"type": "occ",
				"energy": -0.29429,
				"method": "rhf"
			},
			{
				"type": "occ",
				"energy": -0.27802,
				"method": "rhf"
			},
			{
				"type": "occ",
				"energy": -0.24926,
				"method": "rhf"
			},
			{
				"type": "occ",
				"energy": -0.23402,
				"method": "rhf"
			},
			{
				"type": "unocc",
				"energy": -0.07087,
				"method": "rhf"
			},
			{
				"type": "unocc",
				"energy": -0.00467,
				"method": "rhf"
			},
			{
				"type": "unocc",
				"energy": 0.00023,
				"method": "rhf"
			},
			{
				"type": "unocc",
				"energy": 0.04718,
				"method": "rhf"
			},
			{
				"type": "unocc",
				"energy": 0.09414,
				"method": "rhf"
			}
		],
		"cosmo_sigma_profile": { 
			"-0.025": 0.0,
			"-0.024": 0.0,
			"-0.023": 0.0,
			"-0.022": 0.0,
			"-0.021": 0.0,
			"-0.02": 0.0,
			"-0.019": 0.0,
			"-0.018": 0.0,
			"-0.017": 0.0,
			"-0.016": 0.0,
			"-0.015": 0.0,
			"-0.014": 0.0,
			"-0.013": 0.0,
			"-0.012": 0.0,
			"-0.011": 0.0,
			"-0.01": 2.85840323653,
			"-0.009": 5.93131950883,
			"-0.008": 6.21256097985,
			"-0.007": 6.79731343,
			"-0.006": 6.50552432795,
			"-0.005": 9.08084034306,
			"-0.004": 14.0811006602,
			"-0.003": 14.7675683429,
			"-0.002": 12.2733555518,
			"-0.001": 11.7670182335,
			"0.0": 13.1120033379,
			"0.001": 11.1677523047,
			"0.002": 9.52829778874,
			"0.003": 12.227051503,
			"0.004": 9.47351574362,
			"0.005": 9.20627138573,
			"0.006": 8.76819610441,
			"0.007": 5.96693311136,
			"0.008": 4.45362008933,
			"0.009": 3.55969448624,
			"0.01": 3.93660421353,
			"0.011": 3.68419656048,
			"0.012": 0.581195728511,
			"0.013": 0.0,
			"0.014": 0.0,
			"0.015": 0.0,
			"0.016": 0.0,
			"0.017": 0.0,
			"0.018": 0.0,
			"0.019": 0.0,
			"0.02": 0.0,
			"0.021": 0.0,
			"0.022": 0.0,
			"0.023": 0.0,
			"0.024": 0.0,
			"0.025": 0.0
		}
	}
}
