{
	 "smiles": "CC(O)C1=CC=CC=C1", 
	 "Tm": 293.15, 
	 "num_atms": 19, 
	 "gaussian": { 
		 "optdone": 1, 
		 "sigma_profile": "yes", 
		 "theory": "DFT", 
		 "functional": "B3LYP", 
		 "basiset": "6-31G**", 
		 "properties": { 
			 "R2extent": 1526.1309, 
			 "electric_dipole_moment_norm": 1.33597943846, 
			 "electric_quadrupole_moment_norm": 4.06494323208, 
			 "total_energy": -386.100913665, 
			 "HOMO_LUMO_gap": 0.23782, 
			 "cosmo_polarized_energy": -6.82, 
			 "cosmo_cavitation_energy": 22.02, 
			 "cosmo_dispersion_energy": -16.1, 
			 "cosmo_repulsion_energy": 1.33, 
			 "cosmo_total_nonelectrostatic_energy": 7.26, 
			 "SMD_solvation_energy": 3.88 
		},
		"coords": [
			{
				"x": -2.253979841,
				"y": -1.9520538848,
				"z": 0.4969562415,
				"element": "C" 
			},
			{
				"x": -1.6197135351,
				"y": -1.2191590227,
				"z": -0.6862122264,
				"element": "C" 
			},
			{
				"x": -2.2841784947,
				"y": 0.0407262692,
				"z": -0.7730532004,
				"element": "O" 
			},
			{
				"x": -0.1136155744,
				"y": -1.0649462804,
				"z": -0.5251184012,
				"element": "C" 
			},
			{
				"x": 0.4184132359,
				"y": 0.0239278869,
				"z": 0.1775052802,
				"element": "C" 
			},
			{
				"x": 1.7972316599,
				"y": 0.149720476,
				"z": 0.352143972,
				"element": "C" 
			},
			{
				"x": 2.6626693978,
				"y": -0.8127158838,
				"z": -0.1722646789,
				"element": "C" 
			},
			{
				"x": 2.1409943148,
				"y": -1.8999068079,
				"z": -0.8764253658,
				"element": "C" 
			},
			{
				"x": 0.7619701456,
				"y": -2.0210044477,
				"z": -1.0537155216,
				"element": "C" 
			},
			{
				"x": -3.3346125609,
				"y": -2.0355517342,
				"z": 0.3485241436,
				"element": "H" 
			},
			{
				"x": -1.8310302795,
				"y": -2.955116344,
				"z": 0.6016923289,
				"element": "H" 
			},
			{
				"x": -2.0709404463,
				"y": -1.3987667742,
				"z": 1.4228698763,
				"element": "H" 
			},
			{
				"x": -1.8078184404,
				"y": -1.8082939261,
				"z": -1.5995946707,
				"element": "H" 
			},
			{
				"x": -1.8684387161,
				"y": 0.5416043895,
				"z": -1.4875951313,
				"element": "H" 
			},
			{
				"x": -0.2597446534,
				"y": 0.772064899,
				"z": 0.5768772827,
				"element": "H" 
			},
			{
				"x": 2.1967685893,
				"y": 1.0004674221,
				"z": 0.8974944013,
				"element": "H" 
			},
			{
				"x": 3.7360664407,
				"y": -0.7137432652,
				"z": -0.037822095,
				"element": "H" 
			},
			{
				"x": 2.807847334,
				"y": -2.6489019691,
				"z": -1.2945926316,
				"element": "H" 
			},
			{
				"x": 0.3610114241,
				"y": -2.8647510027,
				"z": -1.6115696035,
				"element": "H" 
			}
		],
		 "valence_orbital": [ 
			{
				"type": "occ",
				"energy": -0.33905,
				"method": "rhf"
			},
			{
				"type": "occ",
				"energy": -0.31892,
				"method": "rhf"
			},
			{
				"type": "occ",
				"energy": -0.27385,
				"method": "rhf"
			},
			{
				"type": "occ",
				"energy": -0.24899,
				"method": "rhf"
			},
			{
				"type": "occ",
				"energy": -0.24028,
				"method": "rhf"
			},
			{
				"type": "unocc",
				"energy": -0.00246,
				"method": "rhf"
			},
			{
				"type": "unocc",
				"energy": -0.00067,
				"method": "rhf"
			},
			{
				"type": "unocc",
				"energy": 0.08636,
				"method": "rhf"
			},
			{
				"type": "unocc",
				"energy": 0.09914,
				"method": "rhf"
			},
			{
				"type": "unocc",
				"energy": 0.1237,
				"method": "rhf"
			}
		],
		"cosmo_sigma_profile": { 
			"-0.025": 0.0,
			"-0.024": 0.0,
			"-0.023": 0.0,
			"-0.022": 0.0,
			"-0.021": 0.0,
			"-0.02": 0.0,
			"-0.019": 0.0,
			"-0.018": 0.0,
			"-0.017": 0.0,
			"-0.016": 0.0691409959886,
			"-0.015": 0.674179945186,
			"-0.014": 1.03029483091,
			"-0.013": 1.01046297014,
			"-0.012": 0.303123089962,
			"-0.011": 0.30569810875,
			"-0.01": 1.11348270934,
			"-0.009": 0.818117948116,
			"-0.008": 1.08652257167,
			"-0.007": 1.08765136994,
			"-0.006": 3.00821832952,
			"-0.005": 10.3609419047,
			"-0.004": 15.2757952468,
			"-0.003": 20.9755170534,
			"-0.002": 15.3772286909,
			"-0.001": 15.0945723159,
			"0.0": 14.8486813532,
			"0.001": 13.4975559548,
			"0.002": 9.70280097393,
			"0.003": 8.96837941673,
			"0.004": 8.03641948287,
			"0.005": 9.09370455957,
			"0.006": 9.87961868899,
			"0.007": 2.59220371388,
			"0.008": 1.23715611396,
			"0.009": 1.06803418795,
			"0.01": 1.40811670322,
			"0.011": 0.986501116644,
			"0.012": 1.10225379233,
			"0.013": 1.65065130899,
			"0.014": 1.6692957095,
			"0.015": 0.180872225307,
			"0.016": 0.0,
			"0.017": 0.0,
			"0.018": 0.0,
			"0.019": 0.0,
			"0.02": 0.0,
			"0.021": 0.0,
			"0.022": 0.0,
			"0.023": 0.0,
			"0.024": 0.0,
			"0.025": 0.0
		}
	}
}
