{
	 "smiles": "NC1=C(C#N)C(Cl)=CC=C1", 
	 "Tm": 409.15, 
	 "num_atms": 15, 
	 "gaussian": { 
		 "optdone": 1, 
		 "sigma_profile": "yes", 
		 "theory": "DFT", 
		 "functional": "B3LYP", 
		 "basiset": "6-31G**", 
		 "properties": { 
			 "R2extent": 2454.1893, 
			 "electric_dipole_moment_norm": 5.24467159506, 
			 "electric_quadrupole_moment_norm": 18.0221048504, 
			 "total_energy": -839.441437313, 
			 "HOMO_LUMO_gap": 0.17613, 
			 "cosmo_polarized_energy": -12.1, 
			 "cosmo_cavitation_energy": 21.91, 
			 "cosmo_dispersion_energy": -15.99, 
			 "cosmo_repulsion_energy": 1.3, 
			 "cosmo_total_nonelectrostatic_energy": 7.22, 
			 "SMD_solvation_energy": 4.61 
		},
		"coords": [
			{
				"x": -0.4697151131,
				"y": 1.4093358506,
				"z": -2.5059650986,
				"element": "N" 
			},
			{
				"x": -0.0344280561,
				"y": 0.5680256646,
				"z": -1.5136126206,
				"element": "C" 
			},
			{
				"x": 0.6526304534,
				"y": -0.6359907461,
				"z": -1.8383140615,
				"element": "C" 
			},
			{
				"x": 0.9256427009,
				"y": -0.9025080988,
				"z": -3.2122057392,
				"element": "C" 
			},
			{
				"x": 1.1062204673,
				"y": -1.0202256978,
				"z": -4.3570887536,
				"element": "N" 
			},
			{
				"x": 1.0463229471,
				"y": -1.5097711352,
				"z": -0.8057179063,
				"element": "C" 
			},
			{
				"x": 1.888089226,
				"y": -2.9871936876,
				"z": -1.2142735306,
				"element": "Cl" 
			},
			{
				"x": 0.7869447943,
				"y": -1.22296988,
				"z": 0.5266382452,
				"element": "C" 
			},
			{
				"x": 0.1173019345,
				"y": -0.0321867009,
				"z": 0.8331913825,
				"element": "C" 
			},
			{
				"x": -0.28838068,
				"y": 0.8496814696,
				"z": -0.157537873,
				"element": "C" 
			},
			{
				"x": -0.7132741064,
				"y": 2.3542028127,
				"z": -2.2555657137,
				"element": "H" 
			},
			{
				"x": -0.1114147694,
				"y": 1.2788568759,
				"z": -3.440924959,
				"element": "H" 
			},
			{
				"x": 1.1001602861,
				"y": -1.9101550931,
				"z": 1.302694183,
				"element": "H" 
			},
			{
				"x": -0.089918885,
				"y": 0.2055063622,
				"z": 1.8723674131,
				"element": "H" 
			},
			{
				"x": -0.8132811997,
				"y": 1.7639920039,
				"z": 0.1029150325,
				"element": "H" 
			}
		],
		 "valence_orbital": [ 
			{
				"type": "occ",
				"energy": -0.33727,
				"method": "rhf"
			},
			{
				"type": "occ",
				"energy": -0.3201,
				"method": "rhf"
			},
			{
				"type": "occ",
				"energy": -0.31902,
				"method": "rhf"
			},
			{
				"type": "occ",
				"energy": -0.26068,
				"method": "rhf"
			},
			{
				"type": "occ",
				"energy": -0.22768,
				"method": "rhf"
			},
			{
				"type": "unocc",
				"energy": -0.05155,
				"method": "rhf"
			},
			{
				"type": "unocc",
				"energy": -0.01211,
				"method": "rhf"
			},
			{
				"type": "unocc",
				"energy": 0.01692,
				"method": "rhf"
			},
			{
				"type": "unocc",
				"energy": 0.03228,
				"method": "rhf"
			},
			{
				"type": "unocc",
				"energy": 0.0675,
				"method": "rhf"
			}
		],
		"cosmo_sigma_profile": { 
			"-0.025": 0.0,
			"-0.024": 0.0,
			"-0.023": 0.0,
			"-0.022": 0.0,
			"-0.021": 0.0,
			"-0.02": 0.0,
			"-0.019": 0.0,
			"-0.018": 0.0,
			"-0.017": 0.0,
			"-0.016": 0.0,
			"-0.015": 0.382850825761,
			"-0.014": 1.32248670367,
			"-0.013": 1.72954519827,
			"-0.012": 2.38369781616,
			"-0.011": 2.50142905881,
			"-0.01": 2.77964951989,
			"-0.009": 2.8289337178,
			"-0.008": 3.13302455685,
			"-0.007": 7.14366066956,
			"-0.006": 7.65181152616,
			"-0.005": 7.97667099172,
			"-0.004": 5.18490604022,
			"-0.003": 7.59845831007,
			"-0.002": 8.00290058272,
			"-0.001": 12.494713625,
			"0.0": 13.5752566442,
			"0.001": 17.5937233641,
			"0.002": 16.759774237,
			"0.003": 19.2215574253,
			"0.004": 12.2373712205,
			"0.005": 3.13097198391,
			"0.006": 3.49562673247,
			"0.007": 2.78426428602,
			"0.008": 3.7911869531,
			"0.009": 3.29353915801,
			"0.01": 3.42852146209,
			"0.011": 2.67810633957,
			"0.012": 2.4808797725,
			"0.013": 1.36845641624,
			"0.014": 0.00190697325247,
			"0.015": 0.0,
			"0.016": 0.0,
			"0.017": 0.0,
			"0.018": 0.0,
			"0.019": 0.0,
			"0.02": 0.0,
			"0.021": 0.0,
			"0.022": 0.0,
			"0.023": 0.0,
			"0.024": 0.0,
			"0.025": 0.0
		}
	}
}
