{
	 "smiles": "CNC(=N/O)C1=CC(=C(O)C(=C1)C(C)(C)C)C(C)(C)C", 
	 "Tm": 473.15, 
	 "num_atms": 46, 
	 "gaussian": { 
		 "optdone": 1, 
		 "sigma_profile": "yes", 
		 "theory": "DFT", 
		 "functional": "B3LYP", 
		 "basiset": "6-31G**", 
		 "properties": { 
			 "R2extent": 6633.3278, 
			 "electric_dipole_moment_norm": 2.61782278048, 
			 "electric_quadrupole_moment_norm": 8.05933182962, 
			 "total_energy": -885.286309752, 
			 "HOMO_LUMO_gap": 0.18635, 
			 "cosmo_polarized_energy": -12.97, 
			 "cosmo_cavitation_energy": 44.31, 
			 "cosmo_dispersion_energy": -30.07, 
			 "cosmo_repulsion_energy": 2.34, 
			 "cosmo_total_nonelectrostatic_energy": 16.58, 
			 "SMD_solvation_energy": 7.41 
		},
		"coords": [
			{
				"x": 0.0783852902,
				"y": -3.7311780643,
				"z": 0.1362826066,
				"element": "C" 
			},
			{
				"x": 0.3396276747,
				"y": -3.3183285167,
				"z": -1.2415989491,
				"element": "N" 
			},
			{
				"x": 1.0446582601,
				"y": -2.1543919224,
				"z": -1.5180710748,
				"element": "C" 
			},
			{
				"x": 1.9797653305,
				"y": -2.0772124121,
				"z": -2.4132533881,
				"element": "N" 
			},
			{
				"x": 2.2706123114,
				"y": -3.3778223991,
				"z": -2.9292203644,
				"element": "O" 
			},
			{
				"x": 0.6627370011,
				"y": -0.8884347871,
				"z": -0.8459577345,
				"element": "C" 
			},
			{
				"x": 1.6382275691,
				"y": 0.0578022246,
				"z": -0.5181197814,
				"element": "C" 
			},
			{
				"x": 1.3208719083,
				"y": 1.279297432,
				"z": 0.0780444864,
				"element": "C" 
			},
			{
				"x": -0.0480986932,
				"y": 1.528003864,
				"z": 0.3470569417,
				"element": "C" 
			},
			{
				"x": -0.3340259038,
				"y": 2.7323157266,
				"z": 0.9456806654,
				"element": "O" 
			},
			{
				"x": -1.0709077382,
				"y": 0.601215877,
				"z": 0.0247077287,
				"element": "C" 
			},
			{
				"x": -0.6765210883,
				"y": -0.6008005158,
				"z": -0.5729793645,
				"element": "C" 
			},
			{
				"x": -2.5682873344,
				"y": 0.8902456596,
				"z": 0.3021548464,
				"element": "C" 
			},
			{
				"x": -3.0442523274,
				"y": 2.1412459601,
				"z": -0.4861881871,
				"element": "C" 
			},
			{
				"x": -2.8251497122,
				"y": 1.0565429509,
				"z": 1.8252230885,
				"element": "C" 
			},
			{
				"x": -3.473991094,
				"y": -0.2722821591,
				"z": -0.1579055983,
				"element": "C" 
			},
			{
				"x": 2.4239648831,
				"y": 2.3047027347,
				"z": 0.4298943891,
				"element": "C" 
			},
			{
				"x": 2.1882683891,
				"y": 3.6312438621,
				"z": -0.3348187964,
				"element": "C" 
			},
			{
				"x": 2.450962466,
				"y": 2.5667390376,
				"z": 1.9564470195,
				"element": "C" 
			},
			{
				"x": 3.8243107231,
				"y": 1.7934981842,
				"z": 0.0308556679,
				"element": "C" 
			},
			{
				"x": 0.9848280581,
				"y": -4.052366494,
				"z": 0.6705461994,
				"element": "H" 
			},
			{
				"x": -0.6302363977,
				"y": -4.5643521179,
				"z": 0.1277537168,
				"element": "H" 
			},
			{
				"x": -0.3702268002,
				"y": -2.9104780894,
				"z": 0.6976805332,
				"element": "H" 
			},
			{
				"x": 0.6873327941,
				"y": -4.0743505871,
				"z": -1.820256491,
				"element": "H" 
			},
			{
				"x": 2.9035704361,
				"y": -3.1714307461,
				"z": -3.6269790397,
				"element": "H" 
			},
			{
				"x": 2.6652048563,
				"y": -0.1887803344,
				"z": -0.7488694348,
				"element": "H" 
			},
			{
				"x": -1.2821238065,
				"y": 2.8071562336,
				"z": 1.0881389361,
				"element": "H" 
			},
			{
				"x": -1.4184710763,
				"y": -1.3332584182,
				"z": -0.8622082287,
				"element": "H" 
			},
			{
				"x": -2.9355927186,
				"y": 1.9697450648,
				"z": -1.5613802338,
				"element": "H" 
			},
			{
				"x": -2.4906296152,
				"y": 3.0581160371,
				"z": -0.2614878603,
				"element": "H" 
			},
			{
				"x": -4.1012926471,
				"y": 2.3397123805,
				"z": -0.2781865116,
				"element": "H" 
			},
			{
				"x": -2.248568817,
				"y": 1.8566872692,
				"z": 2.3000638197,
				"element": "H" 
			},
			{
				"x": -2.5647951269,
				"y": 0.133663882,
				"z": 2.352578527,
				"element": "H" 
			},
			{
				"x": -3.884371087,
				"y": 1.266242128,
				"z": 2.0097314805,
				"element": "H" 
			},
			{
				"x": -3.3933386354,
				"y": -0.4528987546,
				"z": -1.2338491536,
				"element": "H" 
			},
			{
				"x": -4.5179897893,
				"y": -0.023533212,
				"z": 0.0580560108,
				"element": "H" 
			},
			{
				"x": -3.242343177,
				"y": -1.2044138959,
				"z": 0.3662111298,
				"element": "H" 
			},
			{
				"x": 2.204460793,
				"y": 3.4595122315,
				"z": -1.4165940935,
				"element": "H" 
			},
			{
				"x": 2.9861112939,
				"y": 4.3443534254,
				"z": -0.0968700694,
				"element": "H" 
			},
			{
				"x": 1.2332814239,
				"y": 4.0874375313,
				"z": -0.0734918289,
				"element": "H" 
			},
			{
				"x": 1.506896445,
				"y": 2.9766835894,
				"z": 2.3157376269,
				"element": "H" 
			},
			{
				"x": 3.2486894943,
				"y": 3.2788845874,
				"z": 2.1976573628,
				"element": "H" 
			},
			{
				"x": 2.6547605533,
				"y": 1.6391023922,
				"z": 2.5026683931,
				"element": "H" 
			},
			{
				"x": 4.0939625481,
				"y": 0.8724802753,
				"z": 0.5580360345,
				"element": "H" 
			},
			{
				"x": 4.569305621,
				"y": 2.5516126621,
				"z": 0.2931653938,
				"element": "H" 
			},
			{
				"x": 3.9058174619,
				"y": 1.6098702227,
				"z": -1.045286421,
				"element": "H" 
			}
		],
		 "valence_orbital": [ 
			{
				"type": "occ",
				"energy": -0.28885,
				"method": "rhf"
			},
			{
				"type": "occ",
				"energy": -0.26111,
				"method": "rhf"
			},
			{
				"type": "occ",
				"energy": -0.23705,
				"method": "rhf"
			},
			{
				"type": "occ",
				"energy": -0.22056,
				"method": "rhf"
			},
			{
				"type": "occ",
				"energy": -0.19511,
				"method": "rhf"
			},
			{
				"type": "unocc",
				"energy": -0.00876,
				"method": "rhf"
			},
			{
				"type": "unocc",
				"energy": 0.00455,
				"method": "rhf"
			},
			{
				"type": "unocc",
				"energy": 0.0604,
				"method": "rhf"
			},
			{
				"type": "unocc",
				"energy": 0.06113,
				"method": "rhf"
			},
			{
				"type": "unocc",
				"energy": 0.08384,
				"method": "rhf"
			}
		],
		"cosmo_sigma_profile": { 
			"-0.025": 0.0,
			"-0.024": 0.0,
			"-0.023": 0.0,
			"-0.022": 0.0,
			"-0.021": 0.0,
			"-0.02": 0.0,
			"-0.019": 0.0,
			"-0.018": 0.0,
			"-0.017": 0.131734283237,
			"-0.016": 1.11718287723,
			"-0.015": 0.578650443977,
			"-0.014": 1.32115657741,
			"-0.013": 1.70829969479,
			"-0.012": 1.8994644529,
			"-0.011": 1.26094457115,
			"-0.01": 1.45394662982,
			"-0.009": 1.6369637281,
			"-0.008": 1.99504788448,
			"-0.007": 2.91406021192,
			"-0.006": 3.92926742668,
			"-0.005": 5.42216554075,
			"-0.004": 12.7262521349,
			"-0.003": 38.4333685053,
			"-0.002": 46.0340497154,
			"-0.001": 43.3503090182,
			"0.0": 40.6093116413,
			"0.001": 39.3303756989,
			"0.002": 27.3406454621,
			"0.003": 14.3116508378,
			"0.004": 12.935032898,
			"0.005": 13.491245512,
			"0.006": 7.76459579054,
			"0.007": 5.47161015204,
			"0.008": 4.05727890453,
			"0.009": 4.18783935008,
			"0.01": 2.7798752317,
			"0.011": 2.04419625798,
			"0.012": 1.52094399618,
			"0.013": 1.41249828113,
			"0.014": 0.580453048134,
			"0.015": 0.565074783905,
			"0.016": 0.164086020459,
			"0.017": 0.0,
			"0.018": 0.0,
			"0.019": 0.0,
			"0.02": 0.0,
			"0.021": 0.0,
			"0.022": 0.0,
			"0.023": 0.0,
			"0.024": 0.0,
			"0.025": 0.0
		}
	}
}
