{
	 "smiles": "OC1CCS(=O)(=O)C2=C1C=CC=C2", 
	 "Tm": 368.15, 
	 "num_atms": 23, 
	 "gaussian": { 
		 "optdone": 1, 
		 "sigma_profile": "yes", 
		 "theory": "DFT", 
		 "functional": "B3LYP", 
		 "basiset": "6-31G**", 
		 "properties": { 
			 "R2extent": 2907.2809, 
			 "electric_dipole_moment_norm": 5.42575739966, 
			 "electric_quadrupole_moment_norm": 13.4124189869, 
			 "total_energy": -972.772551784, 
			 "HOMO_LUMO_gap": 0.22455, 
			 "cosmo_polarized_energy": -18.14, 
			 "cosmo_cavitation_energy": 26.64, 
			 "cosmo_dispersion_energy": -20.32, 
			 "cosmo_repulsion_energy": 1.54, 
			 "cosmo_total_nonelectrostatic_energy": 7.86, 
			 "SMD_solvation_energy": 3.38 
		},
		"coords": [
			{
				"x": -0.160534321,
				"y": -0.1254636661,
				"z": 3.0580719326,
				"element": "O" 
			},
			{
				"x": -0.7530753067,
				"y": 0.6608999241,
				"z": 2.0160098244,
				"element": "C" 
			},
			{
				"x": -2.2624582501,
				"y": 0.4594168733,
				"z": 2.1538336471,
				"element": "C" 
			},
			{
				"x": -2.6668796094,
				"y": -0.9817939475,
				"z": 1.8391724299,
				"element": "C" 
			},
			{
				"x": -2.4376391552,
				"y": -1.3073043831,
				"z": 0.0776769926,
				"element": "S" 
			},
			{
				"x": -3.3781354092,
				"y": -0.4453279851,
				"z": -0.6610035485,
				"element": "O" 
			},
			{
				"x": -2.4293545117,
				"y": -2.7572467168,
				"z": -0.1724190619,
				"element": "O" 
			},
			{
				"x": -0.7717318156,
				"y": -0.6737455987,
				"z": -0.1994899276,
				"element": "C" 
			},
			{
				"x": -0.1756067123,
				"y": 0.2601811955,
				"z": 0.6632658407,
				"element": "C" 
			},
			{
				"x": 1.0760468553,
				"y": 0.775364742,
				"z": 0.2945713596,
				"element": "C" 
			},
			{
				"x": 1.7131436007,
				"y": 0.3695381651,
				"z": -0.8771026233,
				"element": "C" 
			},
			{
				"x": 1.1084163924,
				"y": -0.5748102349,
				"z": -1.7093258956,
				"element": "C" 
			},
			{
				"x": -0.1383776618,
				"y": -1.0955823003,
				"z": -1.3711315666,
				"element": "C" 
			},
			{
				"x": 0.7866266127,
				"y": -0.1981188533,
				"z": 2.8821108855,
				"element": "H" 
			},
			{
				"x": -0.5243061906,
				"y": 1.7253068049,
				"z": 2.1780754913,
				"element": "H" 
			},
			{
				"x": -2.5413485525,
				"y": 0.6923125805,
				"z": 3.186096795,
				"element": "H" 
			},
			{
				"x": -2.7981618979,
				"y": 1.1523013364,
				"z": 1.4974793914,
				"element": "H" 
			},
			{
				"x": -3.7274813396,
				"y": -1.1732588481,
				"z": 2.0219505445,
				"element": "H" 
			},
			{
				"x": -2.0592654215,
				"y": -1.7007306235,
				"z": 2.3922537866,
				"element": "H" 
			},
			{
				"x": 1.5508901185,
				"y": 1.5143213227,
				"z": 0.9368248253,
				"element": "H" 
			},
			{
				"x": 2.6788924084,
				"y": 0.7903000882,
				"z": -1.1406283871,
				"element": "H" 
			},
			{
				"x": 1.6030323852,
				"y": -0.9017705694,
				"z": -2.618640408,
				"element": "H" 
			},
			{
				"x": -0.6222922182,
				"y": -1.8348893058,
				"z": -2.0012523279,
				"element": "H" 
			}
		],
		 "valence_orbital": [ 
			{
				"type": "occ",
				"energy": -0.29559,
				"method": "rhf"
			},
			{
				"type": "occ",
				"energy": -0.29093,
				"method": "rhf"
			},
			{
				"type": "occ",
				"energy": -0.28091,
				"method": "rhf"
			},
			{
				"type": "occ",
				"energy": -0.27358,
				"method": "rhf"
			},
			{
				"type": "occ",
				"energy": -0.26704,
				"method": "rhf"
			},
			{
				"type": "unocc",
				"energy": -0.04249,
				"method": "rhf"
			},
			{
				"type": "unocc",
				"energy": -0.03228,
				"method": "rhf"
			},
			{
				"type": "unocc",
				"energy": 0.06349,
				"method": "rhf"
			},
			{
				"type": "unocc",
				"energy": 0.06848,
				"method": "rhf"
			},
			{
				"type": "unocc",
				"energy": 0.07151,
				"method": "rhf"
			}
		],
		"cosmo_sigma_profile": { 
			"-0.025": 0.0,
			"-0.024": 0.0,
			"-0.023": 0.0,
			"-0.022": 0.0,
			"-0.021": 0.0,
			"-0.02": 0.0,
			"-0.019": 0.0,
			"-0.018": 0.0,
			"-0.017": 0.0,
			"-0.016": 0.0,
			"-0.015": 0.583969280608,
			"-0.014": 0.884539336805,
			"-0.013": 0.624026636031,
			"-0.012": 1.19781170339,
			"-0.011": 1.13572154956,
			"-0.01": 1.46813424747,
			"-0.009": 2.50207218719,
			"-0.008": 4.55681357557,
			"-0.007": 11.9618042797,
			"-0.006": 16.360658617,
			"-0.005": 22.8289439727,
			"-0.004": 15.7657369238,
			"-0.003": 14.0181197584,
			"-0.002": 10.8310105084,
			"-0.001": 8.74274289139,
			"0.0": 8.94447018951,
			"0.001": 9.24887545132,
			"0.002": 14.1315155636,
			"0.003": 13.813886679,
			"0.004": 3.45598873316,
			"0.005": 3.09798619211,
			"0.006": 3.57409188829,
			"0.007": 3.39813808236,
			"0.008": 4.4819154045,
			"0.009": 3.87099456876,
			"0.01": 3.83931116933,
			"0.011": 13.0163845899,
			"0.012": 10.1470100618,
			"0.013": 2.35182492994,
			"0.014": 0.126919723382,
			"0.015": 0.0,
			"0.016": 0.0,
			"0.017": 0.0,
			"0.018": 0.0,
			"0.019": 0.0,
			"0.02": 0.0,
			"0.021": 0.0,
			"0.022": 0.0,
			"0.023": 0.0,
			"0.024": 0.0,
			"0.025": 0.0
		}
	}
}
