{
	 "smiles": "CCCCCCCCCCC#CC#CCCCCCCC(O)=O", 
	 "Tm": 324.65, 
	 "num_atms": 57, 
	 "gaussian": { 
		 "optdone": 1, 
		 "sigma_profile": "yes", 
		 "theory": "DFT", 
		 "functional": "B3LYP", 
		 "basiset": "6-31G**", 
		 "properties": { 
			 "R2extent": 11134.7955, 
			 "electric_dipole_moment_norm": 1.22111602233, 
			 "electric_quadrupole_moment_norm": 14.4609799478, 
			 "total_energy": -971.116947107, 
			 "HOMO_LUMO_gap": 0.22287, 
			 "cosmo_polarized_energy": -12.12, 
			 "cosmo_cavitation_energy": 58.67, 
			 "cosmo_dispersion_energy": -35.54, 
			 "cosmo_repulsion_energy": 2.81, 
			 "cosmo_total_nonelectrostatic_energy": 25.93, 
			 "SMD_solvation_energy": 9.33 
		},
		"coords": [
			{
				"x": 4.192526625,
				"y": -1.808160545,
				"z": -2.9679097975,
				"element": "C" 
			},
			{
				"x": 4.4056798632,
				"y": -2.1240585849,
				"z": -1.4824869929,
				"element": "C" 
			},
			{
				"x": 4.9432144157,
				"y": -0.9433397046,
				"z": -0.654495264,
				"element": "C" 
			},
			{
				"x": 4.0265096576,
				"y": 0.2909304222,
				"z": -0.5710091114,
				"element": "C" 
			},
			{
				"x": 2.6501607104,
				"y": 0.1104337646,
				"z": 0.1000072324,
				"element": "C" 
			},
			{
				"x": 2.6841180274,
				"y": -0.2052789253,
				"z": 1.6136939,
				"element": "C" 
			},
			{
				"x": 2.6894528959,
				"y": -1.6995394796,
				"z": 1.9973872184,
				"element": "C" 
			},
			{
				"x": 1.3477580345,
				"y": -2.4286272614,
				"z": 1.7963423892,
				"element": "C" 
			},
			{
				"x": 0.2835700367,
				"y": -2.0780667376,
				"z": 2.8445828459,
				"element": "C" 
			},
			{
				"x": -1.0522291608,
				"y": -2.8321105017,
				"z": 2.6394582036,
				"element": "C" 
			},
			{
				"x": -1.7682326725,
				"y": -2.4225290325,
				"z": 1.4343063145,
				"element": "C" 
			},
			{
				"x": -2.3496690941,
				"y": -2.0207317926,
				"z": 0.4436775765,
				"element": "C" 
			},
			{
				"x": -2.9965600636,
				"y": -1.5357180009,
				"z": -0.6591711031,
				"element": "C" 
			},
			{
				"x": -3.5662535429,
				"y": -1.078161358,
				"z": -1.6327855095,
				"element": "C" 
			},
			{
				"x": -4.1886547028,
				"y": -0.4081313213,
				"z": -2.7726127053,
				"element": "C" 
			},
			{
				"x": -3.833220522,
				"y": 1.0986345385,
				"z": -2.8150803594,
				"element": "C" 
			},
			{
				"x": -4.4057569222,
				"y": 1.8836600735,
				"z": -1.6251126724,
				"element": "C" 
			},
			{
				"x": -3.781454627,
				"y": 3.2752765852,
				"z": -1.4188651989,
				"element": "C" 
			},
			{
				"x": -2.3023319449,
				"y": 3.2819076971,
				"z": -0.9926198999,
				"element": "C" 
			},
			{
				"x": -2.0430600228,
				"y": 2.6037260259,
				"z": 0.356439851,
				"element": "C" 
			},
			{
				"x": -0.5891432578,
				"y": 2.6492493922,
				"z": 0.7679508246,
				"element": "C" 
			},
			{
				"x": -0.4090690331,
				"y": 2.1820845772,
				"z": 2.0303970144,
				"element": "O" 
			},
			{
				"x": 0.3351507883,
				"y": 3.0348902519,
				"z": 0.0839202213,
				"element": "O" 
			},
			{
				"x": 3.8734770868,
				"y": -2.6995647772,
				"z": -3.5182024888,
				"element": "H" 
			},
			{
				"x": 5.1178203042,
				"y": -1.4452707716,
				"z": -3.4309741554,
				"element": "H" 
			},
			{
				"x": 3.4263248822,
				"y": -1.0404969856,
				"z": -3.116992978,
				"element": "H" 
			},
			{
				"x": 5.1144236562,
				"y": -2.9578004458,
				"z": -1.3942499156,
				"element": "H" 
			},
			{
				"x": 3.4638149561,
				"y": -2.4867010736,
				"z": -1.0512172353,
				"element": "H" 
			},
			{
				"x": 5.9027493795,
				"y": -0.6260074292,
				"z": -1.0866957784,
				"element": "H" 
			},
			{
				"x": 5.1792242675,
				"y": -1.2945590112,
				"z": 0.3581309879,
				"element": "H" 
			},
			{
				"x": 3.8633628324,
				"y": 0.6832178524,
				"z": -1.5828696031,
				"element": "H" 
			},
			{
				"x": 4.5671943033,
				"y": 1.0830421977,
				"z": -0.0345728125,
				"element": "H" 
			},
			{
				"x": 2.0703415265,
				"y": -0.6575995059,
				"z": -0.4283400128,
				"element": "H" 
			},
			{
				"x": 2.0982589953,
				"y": 1.0453534986,
				"z": -0.0496444759,
				"element": "H" 
			},
			{
				"x": 3.5643685529,
				"y": 0.2795971686,
				"z": 2.0573508047,
				"element": "H" 
			},
			{
				"x": 1.8158660662,
				"y": 0.2664959211,
				"z": 2.0934637731,
				"element": "H" 
			},
			{
				"x": 2.9858765589,
				"y": -1.7971568274,
				"z": 3.0512123565,
				"element": "H" 
			},
			{
				"x": 3.4623456068,
				"y": -2.2191293836,
				"z": 1.4210520698,
				"element": "H" 
			},
			{
				"x": 0.9507526123,
				"y": -2.2219150835,
				"z": 0.7945022912,
				"element": "H" 
			},
			{
				"x": 1.5249746213,
				"y": -3.5122203927,
				"z": 1.8332330628,
				"element": "H" 
			},
			{
				"x": 0.0764454696,
				"y": -1.0018014139,
				"z": 2.8437274129,
				"element": "H" 
			},
			{
				"x": 0.6618991049,
				"y": -2.328208279,
				"z": 3.8444527843,
				"element": "H" 
			},
			{
				"x": -1.7008233443,
				"y": -2.6664746722,
				"z": 3.510257645,
				"element": "H" 
			},
			{
				"x": -0.8600800074,
				"y": -3.9138652365,
				"z": 2.6044091487,
				"element": "H" 
			},
			{
				"x": -5.2796846883,
				"y": -0.5328449808,
				"z": -2.7262022742,
				"element": "H" 
			},
			{
				"x": -3.864674921,
				"y": -0.890297629,
				"z": -3.7042437248,
				"element": "H" 
			},
			{
				"x": -2.7416960078,
				"y": 1.1852992956,
				"z": -2.8432714751,
				"element": "H" 
			},
			{
				"x": -4.2063176899,
				"y": 1.5216877871,
				"z": -3.7562265426,
				"element": "H" 
			},
			{
				"x": -4.2828109139,
				"y": 1.2877410689,
				"z": -0.7130858031,
				"element": "H" 
			},
			{
				"x": -5.4890997695,
				"y": 1.9964452646,
				"z": -1.7634041161,
				"element": "H" 
			},
			{
				"x": -3.8783115047,
				"y": 3.857177045,
				"z": -2.345209401,
				"element": "H" 
			},
			{
				"x": -4.3699161273,
				"y": 3.8131645349,
				"z": -0.6632266265,
				"element": "H" 
			},
			{
				"x": -1.6758905961,
				"y": 2.8040407736,
				"z": -1.7531442601,
				"element": "H" 
			},
			{
				"x": -1.9528517155,
				"y": 4.3190872923,
				"z": -0.9387631541,
				"element": "H" 
			},
			{
				"x": -2.3299246979,
				"y": 1.5447054354,
				"z": 0.3403959428,
				"element": "H" 
			},
			{
				"x": -2.6384613822,
				"y": 3.0576415602,
				"z": 1.1586413582,
				"element": "H" 
			},
			{
				"x": 0.5458170946,
				"y": 2.2386771199,
				"z": 2.2038922183,
				"element": "H" 
			}
		],
		 "valence_orbital": [ 
			{
				"type": "occ",
				"energy": -0.29678,
				"method": "rhf"
			},
			{
				"type": "occ",
				"energy": -0.29511,
				"method": "rhf"
			},
			{
				"type": "occ",
				"energy": -0.27321,
				"method": "rhf"
			},
			{
				"type": "occ",
				"energy": -0.22813,
				"method": "rhf"
			},
			{
				"type": "occ",
				"energy": -0.22663,
				"method": "rhf"
			},
			{
				"type": "unocc",
				"energy": -0.00376,
				"method": "rhf"
			},
			{
				"type": "unocc",
				"energy": -0.00011,
				"method": "rhf"
			},
			{
				"type": "unocc",
				"energy": 0.01084,
				"method": "rhf"
			},
			{
				"type": "unocc",
				"energy": 0.05536,
				"method": "rhf"
			},
			{
				"type": "unocc",
				"energy": 0.0836,
				"method": "rhf"
			}
		],
		"cosmo_sigma_profile": { 
			"-0.025": 0.0,
			"-0.024": 0.0,
			"-0.023": 0.0,
			"-0.022": 0.0,
			"-0.021": 0.0,
			"-0.02": 0.0,
			"-0.019": 0.0,
			"-0.018": 0.0,
			"-0.017": 0.0,
			"-0.016": 0.331251593869,
			"-0.015": 0.810979156757,
			"-0.014": 0.674687901024,
			"-0.013": 0.585339152086,
			"-0.012": 0.382920524306,
			"-0.011": 0.625427835527,
			"-0.01": 1.04546065019,
			"-0.009": 1.12857483768,
			"-0.008": 1.25755186791,
			"-0.007": 0.915929276969,
			"-0.006": 4.37440339225,
			"-0.005": 13.1212178151,
			"-0.004": 17.5339393352,
			"-0.003": 35.8561225038,
			"-0.002": 69.4045929438,
			"-0.001": 74.087890672,
			"0.0": 73.5464616894,
			"0.001": 56.3102092385,
			"0.002": 26.282930074,
			"0.003": 10.3082237041,
			"0.004": 16.9417288678,
			"0.005": 20.6821033946,
			"0.006": 11.2706433258,
			"0.007": 3.42056685146,
			"0.008": 3.12000890521,
			"0.009": 2.60105153778,
			"0.01": 2.45478976201,
			"0.011": 2.97624511701,
			"0.012": 3.39755031353,
			"0.013": 0.756135078257,
			"0.014": 0.0,
			"0.015": 0.0,
			"0.016": 0.0,
			"0.017": 0.0,
			"0.018": 0.0,
			"0.019": 0.0,
			"0.02": 0.0,
			"0.021": 0.0,
			"0.022": 0.0,
			"0.023": 0.0,
			"0.024": 0.0,
			"0.025": 0.0
		}
	}
}
