{
	 "smiles": "CC(C)CNC(=O)C1=CC=C(N)C=C1", 
	 "Tm": 393.15, 
	 "num_atms": 30, 
	 "gaussian": { 
		 "optdone": 1, 
		 "sigma_profile": "yes", 
		 "theory": "DFT", 
		 "functional": "B3LYP", 
		 "basiset": "6-31G**", 
		 "properties": { 
			 "R2extent": 3967.0171, 
			 "electric_dipole_moment_norm": 4.9838462998, 
			 "electric_quadrupole_moment_norm": 21.1595111654, 
			 "total_energy": -613.56960185, 
			 "HOMO_LUMO_gap": 0.1905, 
			 "cosmo_polarized_energy": -16.09, 
			 "cosmo_cavitation_energy": 32.36, 
			 "cosmo_dispersion_energy": -22.96, 
			 "cosmo_repulsion_energy": 1.83, 
			 "cosmo_total_nonelectrostatic_energy": 11.23, 
			 "SMD_solvation_energy": 5.82 
		},
		"coords": [
			{
				"x": -0.2897585412,
				"y": 1.898077516,
				"z": -2.7069726696,
				"element": "C" 
			},
			{
				"x": -1.7736057241,
				"y": 1.8748746179,
				"z": -2.3166740206,
				"element": "C" 
			},
			{
				"x": -2.6654613848,
				"y": 1.5880694967,
				"z": -3.5351111154,
				"element": "C" 
			},
			{
				"x": -2.0585676796,
				"y": 0.9018541363,
				"z": -1.1546771779,
				"element": "C" 
			},
			{
				"x": -1.8001922551,
				"y": -0.4987354253,
				"z": -1.5014298898,
				"element": "N" 
			},
			{
				"x": -1.4714411734,
				"y": -1.5192504763,
				"z": -0.6204024537,
				"element": "C" 
			},
			{
				"x": -1.9048626756,
				"y": -2.6538191667,
				"z": -0.8096211885,
				"element": "O" 
			},
			{
				"x": -0.5481695937,
				"y": -1.2298071253,
				"z": 0.5186514823,
				"element": "C" 
			},
			{
				"x": -0.6927551249,
				"y": -1.9960184259,
				"z": 1.68578059,
				"element": "C" 
			},
			{
				"x": 0.1568073195,
				"y": -1.8251980637,
				"z": 2.7689561754,
				"element": "C" 
			},
			{
				"x": 1.2120356804,
				"y": -0.8941407108,
				"z": 2.7105322986,
				"element": "C" 
			},
			{
				"x": 2.1013082823,
				"y": -0.7613410526,
				"z": 3.7698986776,
				"element": "N" 
			},
			{
				"x": 1.3827107664,
				"y": -0.1490468469,
				"z": 1.529367278,
				"element": "C" 
			},
			{
				"x": 0.5139209987,
				"y": -0.3151020616,
				"z": 0.45645734,
				"element": "C" 
			},
			{
				"x": 0.3399256349,
				"y": 2.2095418812,
				"z": -1.8659816887,
				"element": "H" 
			},
			{
				"x": 0.04232729,
				"y": 0.9060866868,
				"z": -3.0301363455,
				"element": "H" 
			},
			{
				"x": -0.111687455,
				"y": 2.5982427235,
				"z": -3.5299663458,
				"element": "H" 
			},
			{
				"x": -2.0438978086,
				"y": 2.8704426811,
				"z": -1.9358680991,
				"element": "H" 
			},
			{
				"x": -2.413012185,
				"y": 0.6271761355,
				"z": -3.9986087502,
				"element": "H" 
			},
			{
				"x": -2.5359196093,
				"y": 2.3581273965,
				"z": -4.3024247807,
				"element": "H" 
			},
			{
				"x": -3.7266691025,
				"y": 1.5654987052,
				"z": -3.2616449055,
				"element": "H" 
			},
			{
				"x": -3.108304165,
				"y": 1.0235575783,
				"z": -0.8437790463,
				"element": "H" 
			},
			{
				"x": -1.443687838,
				"y": 1.162258883,
				"z": -0.2918631912,
				"element": "H" 
			},
			{
				"x": -2.4287053617,
				"y": -0.8731714421,
				"z": -2.2039545393,
				"element": "H" 
			},
			{
				"x": -1.4879907176,
				"y": -2.7332839311,
				"z": 1.7231861812,
				"element": "H" 
			},
			{
				"x": 0.0203081222,
				"y": -2.4224278131,
				"z": 3.6672761377,
				"element": "H" 
			},
			{
				"x": 2.6132256742,
				"y": 0.1078996591,
				"z": 3.8154104062,
				"element": "H" 
			},
			{
				"x": 1.7655985634,
				"y": -1.0665447511,
				"z": 4.6720776191,
				"element": "H" 
			},
			{
				"x": 2.2115815899,
				"y": 0.5505232957,
				"z": 1.4532768823,
				"element": "H" 
			},
			{
				"x": 0.6861384731,
				"y": 0.2510558994,
				"z": -0.4528548604,
				"element": "H" 
			}
		],
		 "valence_orbital": [ 
			{
				"type": "occ",
				"energy": -0.30571,
				"method": "rhf"
			},
			{
				"type": "occ",
				"energy": -0.2515,
				"method": "rhf"
			},
			{
				"type": "occ",
				"energy": -0.24934,
				"method": "rhf"
			},
			{
				"type": "occ",
				"energy": -0.22979,
				"method": "rhf"
			},
			{
				"type": "occ",
				"energy": -0.20554,
				"method": "rhf"
			},
			{
				"type": "unocc",
				"energy": -0.01504,
				"method": "rhf"
			},
			{
				"type": "unocc",
				"energy": -0.00036,
				"method": "rhf"
			},
			{
				"type": "unocc",
				"energy": 0.06201,
				"method": "rhf"
			},
			{
				"type": "unocc",
				"energy": 0.07615,
				"method": "rhf"
			},
			{
				"type": "unocc",
				"energy": 0.07884,
				"method": "rhf"
			}
		],
		"cosmo_sigma_profile": { 
			"-0.025": 0.0,
			"-0.024": 0.0,
			"-0.023": 0.0,
			"-0.022": 0.0,
			"-0.021": 0.0,
			"-0.02": 0.0,
			"-0.019": 0.0,
			"-0.018": 0.0,
			"-0.017": 0.0,
			"-0.016": 0.0,
			"-0.015": 0.0,
			"-0.014": 0.0,
			"-0.013": 1.2426922254,
			"-0.012": 3.0606811881,
			"-0.011": 2.9974807837,
			"-0.01": 3.69493731091,
			"-0.009": 4.92566281981,
			"-0.008": 4.09531163043,
			"-0.007": 4.28076169844,
			"-0.006": 5.45997948862,
			"-0.005": 8.0017112769,
			"-0.004": 14.7155039482,
			"-0.003": 24.9240874564,
			"-0.002": 27.131257216,
			"-0.001": 26.7170212048,
			"0.0": 21.6720158725,
			"0.001": 22.0096620701,
			"0.002": 12.7805524807,
			"0.003": 9.40501920554,
			"0.004": 9.86286696911,
			"0.005": 14.1664888696,
			"0.006": 7.67116172144,
			"0.007": 2.89257024151,
			"0.008": 1.88002546601,
			"0.009": 1.84325245795,
			"0.01": 2.06325559459,
			"0.011": 2.8105864899,
			"0.012": 2.27945129344,
			"0.013": 3.29114993135,
			"0.014": 5.6254936216,
			"0.015": 2.02144896004,
			"0.016": 0.0,
			"0.017": 0.0,
			"0.018": 0.0,
			"0.019": 0.0,
			"0.02": 0.0,
			"0.021": 0.0,
			"0.022": 0.0,
			"0.023": 0.0,
			"0.024": 0.0,
			"0.025": 0.0
		}
	}
}
