{
	 "smiles": "OCC1=CC=CC2=C1C(Br)=CC=C2", 
	 "Tm": 362.65, 
	 "num_atms": 22, 
	 "gaussian": { 
		 "optdone": 1, 
		 "sigma_profile": "yes", 
		 "theory": "DFT", 
		 "functional": "B3LYP", 
		 "basiset": "6-31G**", 
		 "properties": { 
			 "R2extent": 3429.3348, 
			 "electric_dipole_moment_norm": 2.90253237019, 
			 "electric_quadrupole_moment_norm": 9.25890950976, 
			 "total_energy": -3071.21225971, 
			 "HOMO_LUMO_gap": 0.16826, 
			 "cosmo_polarized_energy": -8.07, 
			 "cosmo_cavitation_energy": 26.7, 
			 "cosmo_dispersion_energy": -20.56, 
			 "cosmo_repulsion_energy": 1.57, 
			 "cosmo_total_nonelectrostatic_energy": 7.71, 
			 "SMD_solvation_energy": 3.19 
		},
		"coords": [
			{
				"x": 1.3677186579,
				"y": 2.2073377302,
				"z": -0.8465508009,
				"element": "O" 
			},
			{
				"x": -0.0150499099,
				"y": 1.9645212663,
				"z": -1.0642975636,
				"element": "C" 
			},
			{
				"x": -0.4399798854,
				"y": 0.5237970782,
				"z": -0.7976701926,
				"element": "C" 
			},
			{
				"x": -0.5723481944,
				"y": -0.2680762842,
				"z": -1.9256437362,
				"element": "C" 
			},
			{
				"x": -0.9615378111,
				"y": -1.6214717098,
				"z": -1.8812099249,
				"element": "C" 
			},
			{
				"x": -1.2300888252,
				"y": -2.19645529,
				"z": -0.6675864505,
				"element": "C" 
			},
			{
				"x": -1.1110273291,
				"y": -1.4500788524,
				"z": 0.5349156103,
				"element": "C" 
			},
			{
				"x": -0.6983829868,
				"y": -0.0598808322,
				"z": 0.4981508691,
				"element": "C" 
			},
			{
				"x": -0.6027337781,
				"y": 0.563677117,
				"z": 1.7867148796,
				"element": "C" 
			},
			{
				"x": -0.0429551384,
				"y": 2.391793918,
				"z": 2.0783968425,
				"element": "Br" 
			},
			{
				"x": -0.8933231037,
				"y": -0.0931246695,
				"z": 2.96420765,
				"element": "C" 
			},
			{
				"x": -1.3050693192,
				"y": -1.4395063576,
				"z": 2.9580846642,
				"element": "C" 
			},
			{
				"x": -1.4057754202,
				"y": -2.1006226426,
				"z": 1.7610975277,
				"element": "C" 
			},
			{
				"x": 1.4953436106,
				"y": 2.2880162365,
				"z": 0.1092792055,
				"element": "H" 
			},
			{
				"x": -0.1809167154,
				"y": 2.1631258993,
				"z": -2.1267391446,
				"element": "H" 
			},
			{
				"x": -0.6435108691,
				"y": 2.6683631496,
				"z": -0.5087700991,
				"element": "H" 
			},
			{
				"x": -0.3661292154,
				"y": 0.1821756675,
				"z": -2.892512847,
				"element": "H" 
			},
			{
				"x": -1.0497840202,
				"y": -2.1921990252,
				"z": -2.8006493105,
				"element": "H" 
			},
			{
				"x": -1.5395836461,
				"y": -3.2355850458,
				"z": -0.5975301089,
				"element": "H" 
			},
			{
				"x": -0.7968484625,
				"y": 0.437221897,
				"z": 3.9041077277,
				"element": "H" 
			},
			{
				"x": -1.5302983304,
				"y": -1.9365091601,
				"z": 3.8963253056,
				"element": "H" 
			},
			{
				"x": -1.713019308,
				"y": -3.1420200901,
				"z": 1.7277798965,
				"element": "H" 
			}
		],
		 "valence_orbital": [ 
			{
				"type": "occ",
				"energy": -0.29578,
				"method": "rhf"
			},
			{
				"type": "occ",
				"energy": -0.2795,
				"method": "rhf"
			},
			{
				"type": "occ",
				"energy": -0.25789,
				"method": "rhf"
			},
			{
				"type": "occ",
				"energy": -0.25633,
				"method": "rhf"
			},
			{
				"type": "occ",
				"energy": -0.22136,
				"method": "rhf"
			},
			{
				"type": "unocc",
				"energy": -0.0531,
				"method": "rhf"
			},
			{
				"type": "unocc",
				"energy": -0.02344,
				"method": "rhf"
			},
			{
				"type": "unocc",
				"energy": -0.00648,
				"method": "rhf"
			},
			{
				"type": "unocc",
				"energy": 0.01654,
				"method": "rhf"
			},
			{
				"type": "unocc",
				"energy": 0.084,
				"method": "rhf"
			}
		],
		"cosmo_sigma_profile": { 
			"-0.025": 0.0,
			"-0.024": 0.0,
			"-0.023": 0.0,
			"-0.022": 0.0,
			"-0.021": 0.0,
			"-0.02": 0.0,
			"-0.019": 0.0,
			"-0.018": 0.0,
			"-0.017": 0.0,
			"-0.016": 0.0,
			"-0.015": 0.0,
			"-0.014": 0.0,
			"-0.013": 0.0,
			"-0.012": 0.0,
			"-0.011": 0.0,
			"-0.01": 0.171390970093,
			"-0.009": 1.00954803816,
			"-0.008": 0.586074984298,
			"-0.007": 6.72487454757,
			"-0.006": 15.7653076142,
			"-0.005": 14.9628670348,
			"-0.004": 16.4440208792,
			"-0.003": 15.5547654929,
			"-0.002": 15.2907583285,
			"-0.001": 14.5366623696,
			"0.0": 15.3629582176,
			"0.001": 13.2536791318,
			"0.002": 23.2700058648,
			"0.003": 28.8059432063,
			"0.004": 16.78681778,
			"0.005": 3.34013345242,
			"0.006": 1.51829183866,
			"0.007": 1.19157581013,
			"0.008": 1.4723210284,
			"0.009": 1.63694810257,
			"0.01": 1.61235876149,
			"0.011": 0.530412087554,
			"0.012": 1.40633823623,
			"0.013": 1.98709782917,
			"0.014": 2.1971254286,
			"0.015": 1.16026830091,
			"0.016": 0.0,
			"0.017": 0.0,
			"0.018": 0.0,
			"0.019": 0.0,
			"0.02": 0.0,
			"0.021": 0.0,
			"0.022": 0.0,
			"0.023": 0.0,
			"0.024": 0.0,
			"0.025": 0.0
		}
	}
}
