{
	 "smiles": "O=C(C1=CC=CC=C1)C1=CC=CC=C1N=NC1=C(C=CC=C1)C(=O)C1=CC=CC=C1", 
	 "Tm": 478.15, 
	 "num_atms": 48, 
	 "gaussian": { 
		 "optdone": 1, 
		 "sigma_profile": "yes", 
		 "theory": "DFT", 
		 "functional": "B3LYP", 
		 "basiset": "6-31G**", 
		 "properties": { 
			 "R2extent": 12167.2746, 
			 "electric_dipole_moment_norm": 4.62441994308, 
			 "electric_quadrupole_moment_norm": 30.1783938332, 
			 "total_energy": -1261.51957764, 
			 "HOMO_LUMO_gap": 0.13577, 
			 "cosmo_polarized_energy": -17.01, 
			 "cosmo_cavitation_energy": 54.41, 
			 "cosmo_dispersion_energy": -34.21, 
			 "cosmo_repulsion_energy": 2.6, 
			 "cosmo_total_nonelectrostatic_energy": 22.8, 
			 "SMD_solvation_energy": 9.34 
		},
		"coords": [
			{
				"x": -4.3522355104,
				"y": -2.0400801298,
				"z": 0.9250364866,
				"element": "O" 
			},
			{
				"x": -3.4272650723,
				"y": -1.2529744154,
				"z": 1.0759512398,
				"element": "C" 
			},
			{
				"x": -3.4692397941,
				"y": 0.1084161688,
				"z": 0.4569799118,
				"element": "C" 
			},
			{
				"x": -2.6095063293,
				"y": 1.1453049191,
				"z": 0.8484672775,
				"element": "C" 
			},
			{
				"x": -2.731172344,
				"y": 2.4116339314,
				"z": 0.2775452514,
				"element": "C" 
			},
			{
				"x": -3.7051742478,
				"y": 2.6505354133,
				"z": -0.6943408149,
				"element": "C" 
			},
			{
				"x": -4.5670024266,
				"y": 1.6219861959,
				"z": -1.0883510791,
				"element": "C" 
			},
			{
				"x": -4.4556432544,
				"y": 0.3611037628,
				"z": -0.5096177959,
				"element": "C" 
			},
			{
				"x": -2.2838258866,
				"y": -1.6473818953,
				"z": 1.9824162374,
				"element": "C" 
			},
			{
				"x": -2.5948451723,
				"y": -2.041598546,
				"z": 3.2896260055,
				"element": "C" 
			},
			{
				"x": -1.5893547789,
				"y": -2.4403231004,
				"z": 4.1669438906,
				"element": "C" 
			},
			{
				"x": -0.2567198013,
				"y": -2.4767655665,
				"z": 3.7364780622,
				"element": "C" 
			},
			{
				"x": 0.0663329152,
				"y": -2.1233335582,
				"z": 2.432929533,
				"element": "C" 
			},
			{
				"x": -0.944014035,
				"y": -1.7082811288,
				"z": 1.5474632227,
				"element": "C" 
			},
			{
				"x": -0.7215639704,
				"y": -1.3789814645,
				"z": 0.1873900405,
				"element": "N" 
			},
			{
				"x": 0.4794796715,
				"y": -1.442611789,
				"z": -0.1863998737,
				"element": "N" 
			},
			{
				"x": 0.7002362531,
				"y": -1.1271313555,
				"z": -1.5500099944,
				"element": "C" 
			},
			{
				"x": 2.0386204381,
				"y": -1.1993859235,
				"z": -1.9875704776,
				"element": "C" 
			},
			{
				"x": 2.3258696724,
				"y": -0.9853147374,
				"z": -3.3412818373,
				"element": "C" 
			},
			{
				"x": 1.3114582066,
				"y": -0.6547270108,
				"z": -4.2364779957,
				"element": "C" 
			},
			{
				"x": -0.0136588553,
				"y": -0.5614319665,
				"z": -3.7916528442,
				"element": "C" 
			},
			{
				"x": -0.3223877302,
				"y": -0.8051606135,
				"z": -2.459793975,
				"element": "C" 
			},
			{
				"x": 3.183269225,
				"y": -1.5817339208,
				"z": -1.0773886472,
				"element": "C" 
			},
			{
				"x": 3.8724150424,
				"y": -2.5472995418,
				"z": -1.3783848249,
				"element": "O" 
			},
			{
				"x": 3.5213587737,
				"y": -0.7378468209,
				"z": 0.110808002,
				"element": "C" 
			},
			{
				"x": 4.4761266084,
				"y": -1.2286545393,
				"z": 1.0156238864,
				"element": "C" 
			},
			{
				"x": 4.8588065055,
				"y": -0.4677194389,
				"z": 2.1163947905,
				"element": "C" 
			},
			{
				"x": 4.304766919,
				"y": 0.8007881129,
				"z": 2.315912277,
				"element": "C" 
			},
			{
				"x": 3.3656512337,
				"y": 1.3026389071,
				"z": 1.412287164,
				"element": "C" 
			},
			{
				"x": 2.9713276362,
				"y": 0.5360272381,
				"z": 0.31632568,
				"element": "C" 
			},
			{
				"x": -1.8537634303,
				"y": 0.9645314022,
				"z": 1.6055143187,
				"element": "H" 
			},
			{
				"x": -2.0671278916,
				"y": 3.2119705382,
				"z": 0.5908632681,
				"element": "H" 
			},
			{
				"x": -3.7953978631,
				"y": 3.6364743968,
				"z": -1.1416618968,
				"element": "H" 
			},
			{
				"x": -5.3270466729,
				"y": 1.8080063639,
				"z": -1.8417474467,
				"element": "H" 
			},
			{
				"x": -5.1228454315,
				"y": -0.4483229787,
				"z": -0.7865316833,
				"element": "H" 
			},
			{
				"x": -3.6323559841,
				"y": -2.0293076317,
				"z": 3.607778067,
				"element": "H" 
			},
			{
				"x": -1.8416161335,
				"y": -2.7311803878,
				"z": 5.1824207393,
				"element": "H" 
			},
			{
				"x": 0.5258223762,
				"y": -2.7958570352,
				"z": 4.4187209659,
				"element": "H" 
			},
			{
				"x": 1.0862752445,
				"y": -2.1709923009,
				"z": 2.0697236753,
				"element": "H" 
			},
			{
				"x": 3.3524688428,
				"y": -1.0795406853,
				"z": -3.6804372752,
				"element": "H" 
			},
			{
				"x": 1.5486922623,
				"y": -0.4780698771,
				"z": -5.2814380981,
				"element": "H" 
			},
			{
				"x": -0.8053231964,
				"y": -0.3117324711,
				"z": -4.4920576122,
				"element": "H" 
			},
			{
				"x": -1.3436279843,
				"y": -0.7662799278,
				"z": -2.0992049777,
				"element": "H" 
			},
			{
				"x": 4.9034324167,
				"y": -2.2084983653,
				"z": 0.8303397587,
				"element": "H" 
			},
			{
				"x": 5.5918379131,
				"y": -0.8573017469,
				"z": 2.8169426164,
				"element": "H" 
			},
			{
				"x": 4.6073139094,
				"y": 1.3974938191,
				"z": 3.1719027515,
				"element": "H" 
			},
			{
				"x": 2.9413147908,
				"y": 2.2912847777,
				"z": 1.5612065868,
				"element": "H" 
			},
			{
				"x": 2.2440369397,
				"y": 0.9307249232,
				"z": -0.3852425567,
				"element": "H" 
			}
		],
		 "valence_orbital": [ 
			{
				"type": "occ",
				"energy": -0.25787,
				"method": "rhf"
			},
			{
				"type": "occ",
				"energy": -0.2478,
				"method": "rhf"
			},
			{
				"type": "occ",
				"energy": -0.24688,
				"method": "rhf"
			},
			{
				"type": "occ",
				"energy": -0.23655,
				"method": "rhf"
			},
			{
				"type": "occ",
				"energy": -0.23004,
				"method": "rhf"
			},
			{
				"type": "unocc",
				"energy": -0.09427,
				"method": "rhf"
			},
			{
				"type": "unocc",
				"energy": -0.05945,
				"method": "rhf"
			},
			{
				"type": "unocc",
				"energy": -0.05911,
				"method": "rhf"
			},
			{
				"type": "unocc",
				"energy": -0.01595,
				"method": "rhf"
			},
			{
				"type": "unocc",
				"energy": -0.01544,
				"method": "rhf"
			}
		],
		"cosmo_sigma_profile": { 
			"-0.025": 0.0,
			"-0.024": 0.0,
			"-0.023": 0.0,
			"-0.022": 0.0,
			"-0.021": 0.0,
			"-0.02": 0.0,
			"-0.019": 0.0,
			"-0.018": 0.0,
			"-0.017": 0.0,
			"-0.016": 0.0,
			"-0.015": 0.0,
			"-0.014": 0.0,
			"-0.013": 0.0,
			"-0.012": 0.0,
			"-0.011": 0.0,
			"-0.01": 0.0,
			"-0.009": 0.0,
			"-0.008": 0.0732675039635,
			"-0.007": 10.6251869002,
			"-0.006": 30.3332569282,
			"-0.005": 38.3449345268,
			"-0.004": 36.9568926365,
			"-0.003": 28.5888185575,
			"-0.002": 26.4634245164,
			"-0.001": 26.2899527649,
			"0.0": 32.9171184549,
			"0.001": 42.197656694,
			"0.002": 46.1980916294,
			"0.003": 48.2587420994,
			"0.004": 31.6882596322,
			"0.005": 6.44451439212,
			"0.006": 3.10929667356,
			"0.007": 4.070445837,
			"0.008": 3.7099690634,
			"0.009": 3.57685786179,
			"0.01": 4.7556433975,
			"0.011": 7.32317273197,
			"0.012": 5.73618660147,
			"0.013": 1.01543528683,
			"0.014": 0.0,
			"0.015": 0.0,
			"0.016": 0.0,
			"0.017": 0.0,
			"0.018": 0.0,
			"0.019": 0.0,
			"0.02": 0.0,
			"0.021": 0.0,
			"0.022": 0.0,
			"0.023": 0.0,
			"0.024": 0.0,
			"0.025": 0.0
		}
	}
}
