{
	 "smiles": "OCC1=CC(=C(Cl)C=C1)[N+]([O-])=O", 
	 "Tm": 336.15, 
	 "num_atms": 18, 
	 "gaussian": { 
		 "optdone": 1, 
		 "sigma_profile": "yes", 
		 "theory": "DFT", 
		 "functional": "B3LYP", 
		 "basiset": "6-31G**", 
		 "properties": { 
			 "R2extent": 3761.6182, 
			 "electric_dipole_moment_norm": 4.07813149003, 
			 "electric_quadrupole_moment_norm": 18.1422266208, 
			 "total_energy": -1010.85301958, 
			 "HOMO_LUMO_gap": 0.17372, 
			 "cosmo_polarized_energy": -12.66, 
			 "cosmo_cavitation_energy": 24.9, 
			 "cosmo_dispersion_energy": -18.41, 
			 "cosmo_repulsion_energy": 1.48, 
			 "cosmo_total_nonelectrostatic_energy": 7.97, 
			 "SMD_solvation_energy": 6.33 
		},
		"coords": [
			{
				"x": 1.7701460689,
				"y": 1.9886328077,
				"z": -1.2116838406,
				"element": "O" 
			},
			{
				"x": 0.7374960517,
				"y": 1.4630029069,
				"z": -0.3953178437,
				"element": "C" 
			},
			{
				"x": 0.8054298521,
				"y": -0.045211626,
				"z": -0.2313429936,
				"element": "C" 
			},
			{
				"x": -0.3420198549,
				"y": -0.7885073315,
				"z": 0.034991339,
				"element": "C" 
			},
			{
				"x": -0.2770478375,
				"y": -2.1730748684,
				"z": 0.2043699298,
				"element": "C" 
			},
			{
				"x": 0.9526685342,
				"y": -2.844918904,
				"z": 0.1306609343,
				"element": "C" 
			},
			{
				"x": 1.1460370245,
				"y": -4.5544997624,
				"z": 0.4048645894,
				"element": "Cl" 
			},
			{
				"x": 2.1042379631,
				"y": -2.0942793437,
				"z": -0.1246937439,
				"element": "C" 
			},
			{
				"x": 2.0309164928,
				"y": -0.7174452139,
				"z": -0.3125958708,
				"element": "C" 
			},
			{
				"x": -1.5612833342,
				"y": -2.8592892258,
				"z": 0.436247757,
				"element": "N" 
			},
			{
				"x": -1.6927611186,
				"y": -4.0026318437,
				"z": 0.0134982006,
				"element": "O" 
			},
			{
				"x": -2.4338977387,
				"y": -2.2144139536,
				"z": 1.0189957937,
				"element": "O" 
			},
			{
				"x": 1.6395624077,
				"y": 1.6538485877,
				"z": -2.1090635796,
				"element": "H" 
			},
			{
				"x": 0.8684462589,
				"y": 1.9434379385,
				"z": 0.5815175267,
				"element": "H" 
			},
			{
				"x": -0.2608251554,
				"y": 1.7508090695,
				"z": -0.7580155671,
				"element": "H" 
			},
			{
				"x": -1.3148189006,
				"y": -0.3154581267,
				"z": 0.112731307,
				"element": "H" 
			},
			{
				"x": 3.0590041936,
				"y": -2.6062946,
				"z": -0.1689682878,
				"element": "H" 
			},
			{
				"x": 2.9301090925,
				"y": -0.1482065105,
				"z": -0.5245956503,
				"element": "H" 
			}
		],
		 "valence_orbital": [ 
			{
				"type": "occ",
				"energy": -0.31167,
				"method": "rhf"
			},
			{
				"type": "occ",
				"energy": -0.30009,
				"method": "rhf"
			},
			{
				"type": "occ",
				"energy": -0.29884,
				"method": "rhf"
			},
			{
				"type": "occ",
				"energy": -0.28197,
				"method": "rhf"
			},
			{
				"type": "occ",
				"energy": -0.26559,
				"method": "rhf"
			},
			{
				"type": "unocc",
				"energy": -0.09187,
				"method": "rhf"
			},
			{
				"type": "unocc",
				"energy": -0.04063,
				"method": "rhf"
			},
			{
				"type": "unocc",
				"energy": -0.01805,
				"method": "rhf"
			},
			{
				"type": "unocc",
				"energy": 0.01142,
				"method": "rhf"
			},
			{
				"type": "unocc",
				"energy": 0.06322,
				"method": "rhf"
			}
		],
		"cosmo_sigma_profile": { 
			"-0.025": 0.0,
			"-0.024": 0.0,
			"-0.023": 0.0,
			"-0.022": 0.0,
			"-0.021": 0.0,
			"-0.02": 0.0,
			"-0.019": 0.0,
			"-0.018": 0.0,
			"-0.017": 0.104123338041,
			"-0.016": 1.04990138396,
			"-0.015": 0.897756307337,
			"-0.014": 0.609980838658,
			"-0.013": 1.11577106464,
			"-0.012": 1.31421977492,
			"-0.011": 0.466716857419,
			"-0.01": 0.217269529152,
			"-0.009": 1.39848352739,
			"-0.008": 5.27184313268,
			"-0.007": 8.60840719123,
			"-0.006": 12.2462399094,
			"-0.005": 12.3971799923,
			"-0.004": 10.0259840834,
			"-0.003": 12.2086103726,
			"-0.002": 12.6562298723,
			"-0.001": 14.1851413411,
			"0.0": 18.4157606099,
			"0.001": 15.2307676065,
			"0.002": 10.9704031047,
			"0.003": 10.0942365471,
			"0.004": 7.59077396661,
			"0.005": 4.92380587496,
			"0.006": 5.7547989483,
			"0.007": 11.0295303821,
			"0.008": 9.57926676252,
			"0.009": 5.47266779583,
			"0.01": 2.1312952753,
			"0.011": 1.08144686393,
			"0.012": 1.39063789446,
			"0.013": 1.82701090826,
			"0.014": 0.768147530087,
			"0.015": 0.0,
			"0.016": 0.0,
			"0.017": 0.0,
			"0.018": 0.0,
			"0.019": 0.0,
			"0.02": 0.0,
			"0.021": 0.0,
			"0.022": 0.0,
			"0.023": 0.0,
			"0.024": 0.0,
			"0.025": 0.0
		}
	}
}
