{
	 "smiles": "ONC(=O)C1=C(Br)C=CC=C1", 
	 "Tm": 456.15, 
	 "num_atms": 17, 
	 "gaussian": { 
		 "optdone": 1, 
		 "sigma_profile": "yes", 
		 "theory": "DFT", 
		 "functional": "B3LYP", 
		 "basiset": "6-31G**", 
		 "properties": { 
			 "R2extent": 3078.9056, 
			 "electric_dipole_moment_norm": 2.62346535902, 
			 "electric_quadrupole_moment_norm": 15.8566655849, 
			 "total_energy": -3046.90732812, 
			 "HOMO_LUMO_gap": 0.20522, 
			 "cosmo_polarized_energy": -11.45, 
			 "cosmo_cavitation_energy": 23.54, 
			 "cosmo_dispersion_energy": -17.79, 
			 "cosmo_repulsion_energy": 1.43, 
			 "cosmo_total_nonelectrostatic_energy": 7.19, 
			 "SMD_solvation_energy": 4.75 
		},
		"coords": [
			{
				"x": -0.7428493244,
				"y": -3.1337570993,
				"z": -0.2205875857,
				"element": "O" 
			},
			{
				"x": -0.4986391651,
				"y": -2.946163056,
				"z": -1.5889258425,
				"element": "N" 
			},
			{
				"x": -0.4022315132,
				"y": -1.6665611828,
				"z": -2.0902683518,
				"element": "C" 
			},
			{
				"x": -0.6820385834,
				"y": -1.4409402419,
				"z": -3.2597763766,
				"element": "O" 
			},
			{
				"x": 0.0671818177,
				"y": -0.5726582986,
				"z": -1.1681579747,
				"element": "C" 
			},
			{
				"x": 1.1634417363,
				"y": -0.6091761599,
				"z": -0.2951997829,
				"element": "C" 
			},
			{
				"x": 2.3097534132,
				"y": -2.1472758278,
				"z": -0.1453306336,
				"element": "Br" 
			},
			{
				"x": 1.520879509,
				"y": 0.5003117082,
				"z": 0.4702113617,
				"element": "C" 
			},
			{
				"x": 0.7752721684,
				"y": 1.6745927025,
				"z": 0.3760566659,
				"element": "C" 
			},
			{
				"x": -0.3084788447,
				"y": 1.7438298351,
				"z": -0.4998047756,
				"element": "C" 
			},
			{
				"x": -0.6434820814,
				"y": 0.6342028249,
				"z": -1.2689391828,
				"element": "C" 
			},
			{
				"x": 0.1205233783,
				"y": -3.4129520021,
				"z": 0.1305405877,
				"element": "H" 
			},
			{
				"x": -1.0461743335,
				"y": -3.5782192846,
				"z": -2.1639557672,
				"element": "H" 
			},
			{
				"x": 2.380693014,
				"y": 0.4430438321,
				"z": 1.1275519176,
				"element": "H" 
			},
			{
				"x": 1.0530595947,
				"y": 2.5331415847,
				"z": 0.9799761607,
				"element": "H" 
			},
			{
				"x": -0.8847457747,
				"y": 2.6592421926,
				"z": -0.5893243776,
				"element": "H" 
			},
			{
				"x": -1.4670650114,
				"y": 0.6757384732,
				"z": -1.9737660427,
				"element": "H" 
			}
		],
		 "valence_orbital": [ 
			{
				"type": "occ",
				"energy": -0.30333,
				"method": "rhf"
			},
			{
				"type": "occ",
				"energy": -0.28084,
				"method": "rhf"
			},
			{
				"type": "occ",
				"energy": -0.26734,
				"method": "rhf"
			},
			{
				"type": "occ",
				"energy": -0.25898,
				"method": "rhf"
			},
			{
				"type": "occ",
				"energy": -0.25103,
				"method": "rhf"
			},
			{
				"type": "unocc",
				"energy": -0.04581,
				"method": "rhf"
			},
			{
				"type": "unocc",
				"energy": -0.02344,
				"method": "rhf"
			},
			{
				"type": "unocc",
				"energy": -0.01019,
				"method": "rhf"
			},
			{
				"type": "unocc",
				"energy": 0.02752,
				"method": "rhf"
			},
			{
				"type": "unocc",
				"energy": 0.08148,
				"method": "rhf"
			}
		],
		"cosmo_sigma_profile": { 
			"-0.025": 0.0,
			"-0.024": 0.0,
			"-0.023": 0.0,
			"-0.022": 0.0,
			"-0.021": 0.0,
			"-0.02": 0.0,
			"-0.019": 0.0,
			"-0.018": 0.0,
			"-0.017": 0.0,
			"-0.016": 0.0,
			"-0.015": 0.752573340625,
			"-0.014": 1.13442212026,
			"-0.013": 1.74772982215,
			"-0.012": 1.99454100545,
			"-0.011": 0.965843908068,
			"-0.01": 1.26215662758,
			"-0.009": 2.13341966454,
			"-0.008": 2.72756390778,
			"-0.007": 8.27112923474,
			"-0.006": 10.3374172057,
			"-0.005": 12.0789802476,
			"-0.004": 10.7428070414,
			"-0.003": 11.1970814609,
			"-0.002": 9.95508293707,
			"-0.001": 10.8639931457,
			"0.0": 12.3705888067,
			"0.001": 15.2774226865,
			"0.002": 19.2529854415,
			"0.003": 20.6866989407,
			"0.004": 6.66582881235,
			"0.005": 4.28880550674,
			"0.006": 3.35537905542,
			"0.007": 2.33034145535,
			"0.008": 3.35498933668,
			"0.009": 2.36197670158,
			"0.01": 3.8603166164,
			"0.011": 3.19384706188,
			"0.012": 4.81195471926,
			"0.013": 3.19751699627,
			"0.014": 0.15198647823,
			"0.015": 0.0,
			"0.016": 0.0,
			"0.017": 0.0,
			"0.018": 0.0,
			"0.019": 0.0,
			"0.02": 0.0,
			"0.021": 0.0,
			"0.022": 0.0,
			"0.023": 0.0,
			"0.024": 0.0,
			"0.025": 0.0
		}
	}
}
