{
	 "smiles": "CN(C(=O)CCl)C(C)(C)C#N", 
	 "Tm": 329.15, 
	 "num_atms": 22, 
	 "gaussian": { 
		 "optdone": 1, 
		 "sigma_profile": "yes", 
		 "theory": "DFT", 
		 "functional": "B3LYP", 
		 "basiset": "6-31G**", 
		 "properties": { 
			 "R2extent": 2473.9644, 
			 "electric_dipole_moment_norm": 3.52663735306, 
			 "electric_quadrupole_moment_norm": 20.6237446403, 
			 "total_energy": -918.265483451, 
			 "HOMO_LUMO_gap": 0.25546, 
			 "cosmo_polarized_energy": -17.63, 
			 "cosmo_cavitation_energy": 26.59, 
			 "cosmo_dispersion_energy": -18.62, 
			 "cosmo_repulsion_energy": 1.5, 
			 "cosmo_total_nonelectrostatic_energy": 9.47, 
			 "SMD_solvation_energy": 6.2 
		},
		"coords": [
			{
				"x": 0.8620382867,
				"y": -0.4423104471,
				"z": -1.4275081383,
				"element": "C" 
			},
			{
				"x": 0.0504484537,
				"y": -0.0068604163,
				"z": -0.2767623459,
				"element": "N" 
			},
			{
				"x": 0.306812692,
				"y": -0.6722994505,
				"z": 0.9166394809,
				"element": "C" 
			},
			{
				"x": 1.0621979293,
				"y": -1.6282564335,
				"z": 0.9625457893,
				"element": "O" 
			},
			{
				"x": -0.4108123623,
				"y": -0.2032990925,
				"z": 2.1952022911,
				"element": "C" 
			},
			{
				"x": 0.3428613987,
				"y": -0.8848535551,
				"z": 3.6717540455,
				"element": "Cl" 
			},
			{
				"x": -0.7595528526,
				"y": 1.2318748193,
				"z": -0.4692143624,
				"element": "C" 
			},
			{
				"x": -2.1725007335,
				"y": 1.1848211094,
				"z": 0.1718098376,
				"element": "C" 
			},
			{
				"x": 0.0229384591,
				"y": 2.4934347464,
				"z": -0.0241792401,
				"element": "C" 
			},
			{
				"x": -1.0247074676,
				"y": 1.3762185497,
				"z": -1.9238811541,
				"element": "C" 
			},
			{
				"x": -1.2840404708,
				"y": 1.5607516088,
				"z": -3.0396621319,
				"element": "N" 
			},
			{
				"x": 1.4370315799,
				"y": 0.3970301023,
				"z": -1.832152321,
				"element": "H" 
			},
			{
				"x": 0.2294157383,
				"y": -0.8486501299,
				"z": -2.2207285904,
				"element": "H" 
			},
			{
				"x": 1.5440346546,
				"y": -1.2129442792,
				"z": -1.0782529092,
				"element": "H" 
			},
			{
				"x": -0.3947167486,
				"y": 0.87865625,
				"z": 2.310463509,
				"element": "H" 
			},
			{
				"x": -1.447613114,
				"y": -0.5423951992,
				"z": 2.1841329849,
				"element": "H" 
			},
			{
				"x": -2.7819463451,
				"y": 1.9840464597,
				"z": -0.2562558793,
				"element": "H" 
			},
			{
				"x": -2.1422975664,
				"y": 1.3426339885,
				"z": 1.2488281787,
				"element": "H" 
			},
			{
				"x": -2.6589437379,
				"y": 0.2307287873,
				"z": -0.0442893252,
				"element": "H" 
			},
			{
				"x": 0.2057533093,
				"y": 2.4679991307,
				"z": 1.0527042181,
				"element": "H" 
			},
			{
				"x": 0.9866133602,
				"y": 2.5470549873,
				"z": -0.5358605945,
				"element": "H" 
			},
			{
				"x": -0.5441144631,
				"y": 3.3988184639,
				"z": -0.2569333428,
				"element": "H" 
			}
		],
		 "valence_orbital": [ 
			{
				"type": "occ",
				"energy": -0.34339,
				"method": "rhf"
			},
			{
				"type": "occ",
				"energy": -0.30489,
				"method": "rhf"
			},
			{
				"type": "occ",
				"energy": -0.30298,
				"method": "rhf"
			},
			{
				"type": "occ",
				"energy": -0.27094,
				"method": "rhf"
			},
			{
				"type": "occ",
				"energy": -0.26271,
				"method": "rhf"
			},
			{
				"type": "unocc",
				"energy": -0.00725,
				"method": "rhf"
			},
			{
				"type": "unocc",
				"energy": 0.00879,
				"method": "rhf"
			},
			{
				"type": "unocc",
				"energy": 0.01784,
				"method": "rhf"
			},
			{
				"type": "unocc",
				"energy": 0.02209,
				"method": "rhf"
			},
			{
				"type": "unocc",
				"energy": 0.05185,
				"method": "rhf"
			}
		],
		"cosmo_sigma_profile": { 
			"-0.025": 0.0,
			"-0.024": 0.0,
			"-0.023": 0.0,
			"-0.022": 0.0,
			"-0.021": 0.0,
			"-0.02": 0.0,
			"-0.019": 0.0,
			"-0.018": 0.0,
			"-0.017": 0.0,
			"-0.016": 0.0,
			"-0.015": 0.0,
			"-0.014": 0.0,
			"-0.013": 0.0,
			"-0.012": 0.0608378633153,
			"-0.011": 1.33132347454,
			"-0.01": 2.58111013384,
			"-0.009": 5.41217098204,
			"-0.008": 6.99929662458,
			"-0.007": 7.91644919015,
			"-0.006": 14.0722326029,
			"-0.005": 15.5340752945,
			"-0.004": 17.1973379579,
			"-0.003": 19.3227633839,
			"-0.002": 21.9206904357,
			"-0.001": 10.9512379239,
			"0.0": 7.03956744974,
			"0.001": 6.99500510493,
			"0.002": 5.42633040827,
			"0.003": 6.49878712052,
			"0.004": 7.09979865954,
			"0.005": 8.9190151209,
			"0.006": 10.8320564574,
			"0.007": 5.36217504477,
			"0.008": 4.27145502273,
			"0.009": 5.23367180416,
			"0.01": 4.86472452072,
			"0.011": 4.82566340014,
			"0.012": 6.29142040574,
			"0.013": 3.88050960356,
			"0.014": 1.53388779882,
			"0.015": 0.030304671856,
			"0.016": 0.0,
			"0.017": 0.0,
			"0.018": 0.0,
			"0.019": 0.0,
			"0.02": 0.0,
			"0.021": 0.0,
			"0.022": 0.0,
			"0.023": 0.0,
			"0.024": 0.0,
			"0.025": 0.0
		}
	}
}
