{
	 "smiles": "[O-][N+](=O)C1=CC(Cl)=C(F)C=C1", 
	 "Tm": 317.15, 
	 "num_atms": 14, 
	 "gaussian": { 
		 "optdone": 1, 
		 "sigma_profile": "yes", 
		 "theory": "DFT", 
		 "functional": "B3LYP", 
		 "basiset": "6-31G**", 
		 "properties": { 
			 "R2extent": 2540.0244, 
			 "electric_dipole_moment_norm": 2.81924186263, 
			 "electric_quadrupole_moment_norm": 12.0922813054, 
			 "total_energy": -995.5649412, 
			 "HOMO_LUMO_gap": 0.17745, 
			 "cosmo_polarized_energy": -7.28, 
			 "cosmo_cavitation_energy": 21.86, 
			 "cosmo_dispersion_energy": -16.2, 
			 "cosmo_repulsion_energy": 1.28, 
			 "cosmo_total_nonelectrostatic_energy": 6.94, 
			 "SMD_solvation_energy": 6.34 
		},
		"coords": [
			{
				"x": 0.7001191098,
				"y": -1.0702933047,
				"z": -3.0676956402,
				"element": "O" 
			},
			{
				"x": 1.2206706835,
				"y": -0.124304813,
				"z": -2.4788085635,
				"element": "N" 
			},
			{
				"x": 2.2112516968,
				"y": 0.4911221378,
				"z": -2.8690839268,
				"element": "O" 
			},
			{
				"x": 0.6099946076,
				"y": 0.3025214663,
				"z": -1.2103262223,
				"element": "C" 
			},
			{
				"x": 1.1819578548,
				"y": 1.3722605511,
				"z": -0.5242047467,
				"element": "C" 
			},
			{
				"x": 0.6060974536,
				"y": 1.7772185051,
				"z": 0.6751002372,
				"element": "C" 
			},
			{
				"x": 1.2712453185,
				"y": 3.1057069764,
				"z": 1.5807596263,
				"element": "Cl" 
			},
			{
				"x": -0.5240159961,
				"y": 1.1050213429,
				"z": 1.1577389993,
				"element": "C" 
			},
			{
				"x": -1.0775736833,
				"y": 1.4931111959,
				"z": 2.3089853285,
				"element": "F" 
			},
			{
				"x": -1.0842276592,
				"y": 0.037792906,
				"z": 0.4608746101,
				"element": "C" 
			},
			{
				"x": -0.5141792838,
				"y": -0.3732472479,
				"z": -0.7392421511,
				"element": "C" 
			},
			{
				"x": 2.0552933196,
				"y": 1.8696707903,
				"z": -0.9253778378,
				"element": "H" 
			},
			{
				"x": -1.9590649781,
				"y": -0.4527288625,
				"z": 0.8725358157,
				"element": "H" 
			},
			{
				"x": -0.9200684438,
				"y": -1.1982516437,
				"z": -1.3101555287,
				"element": "H" 
			}
		],
		 "valence_orbital": [ 
			{
				"type": "occ",
				"energy": -0.32108,
				"method": "rhf"
			},
			{
				"type": "occ",
				"energy": -0.31862,
				"method": "rhf"
			},
			{
				"type": "occ",
				"energy": -0.30284,
				"method": "rhf"
			},
			{
				"type": "occ",
				"energy": -0.29497,
				"method": "rhf"
			},
			{
				"type": "occ",
				"energy": -0.27802,
				"method": "rhf"
			},
			{
				"type": "unocc",
				"energy": -0.10057,
				"method": "rhf"
			},
			{
				"type": "unocc",
				"energy": -0.0506,
				"method": "rhf"
			},
			{
				"type": "unocc",
				"energy": -0.0111,
				"method": "rhf"
			},
			{
				"type": "unocc",
				"energy": 0.00099,
				"method": "rhf"
			},
			{
				"type": "unocc",
				"energy": 0.08755,
				"method": "rhf"
			}
		],
		"cosmo_sigma_profile": { 
			"-0.025": 0.0,
			"-0.024": 0.0,
			"-0.023": 0.0,
			"-0.022": 0.0,
			"-0.021": 0.0,
			"-0.02": 0.0,
			"-0.019": 0.0,
			"-0.018": 0.0,
			"-0.017": 0.0,
			"-0.016": 0.0,
			"-0.015": 0.0,
			"-0.014": 0.0,
			"-0.013": 0.0,
			"-0.012": 0.0,
			"-0.011": 0.0,
			"-0.01": 0.468494545326,
			"-0.009": 3.41624858753,
			"-0.008": 4.52348146694,
			"-0.007": 6.3603136557,
			"-0.006": 5.48366829463,
			"-0.005": 6.13339969547,
			"-0.004": 8.82809459272,
			"-0.003": 15.8471089947,
			"-0.002": 20.451499402,
			"-0.001": 18.8757879154,
			"0.0": 12.7064408317,
			"0.001": 9.19987007495,
			"0.002": 13.8158294473,
			"0.003": 17.8634754218,
			"0.004": 7.10249701295,
			"0.005": 3.70680721596,
			"0.006": 4.11487111437,
			"0.007": 9.17156307475,
			"0.008": 5.6259478464,
			"0.009": 4.03218059067,
			"0.01": 1.42850937075,
			"0.011": 0.0,
			"0.012": 0.0,
			"0.013": 0.0,
			"0.014": 0.0,
			"0.015": 0.0,
			"0.016": 0.0,
			"0.017": 0.0,
			"0.018": 0.0,
			"0.019": 0.0,
			"0.02": 0.0,
			"0.021": 0.0,
			"0.022": 0.0,
			"0.023": 0.0,
			"0.024": 0.0,
			"0.025": 0.0
		}
	}
}
