{
	 "smiles": "CC(O)C1=CC=C(NC(=O)C2=CC=NC=C2)C=C1", 
	 "Tm": 448.15, 
	 "num_atms": 32, 
	 "gaussian": { 
		 "optdone": 1, 
		 "sigma_profile": "yes", 
		 "theory": "DFT", 
		 "functional": "B3LYP", 
		 "basiset": "6-31G**", 
		 "properties": { 
			 "R2extent": 6127.3193, 
			 "electric_dipole_moment_norm": 5.05261526538, 
			 "electric_quadrupole_moment_norm": 9.19298529097, 
			 "total_energy": -801.879813008, 
			 "HOMO_LUMO_gap": 0.17521, 
			 "cosmo_polarized_energy": -17.28, 
			 "cosmo_cavitation_energy": 36.3, 
			 "cosmo_dispersion_energy": -25.37, 
			 "cosmo_repulsion_energy": 1.98, 
			 "cosmo_total_nonelectrostatic_energy": 12.91, 
			 "SMD_solvation_energy": 5.45 
		},
		"coords": [
			{
				"x": 0.823552969,
				"y": 1.8346106511,
				"z": 4.3796560099,
				"element": "C" 
			},
			{
				"x": 0.2745550398,
				"y": 0.6126103265,
				"z": 3.6283728549,
				"element": "C" 
			},
			{
				"x": -1.0002519267,
				"y": 0.2323769706,
				"z": 4.1401755789,
				"element": "O" 
			},
			{
				"x": 0.1200477557,
				"y": 0.8914927079,
				"z": 2.1444755478,
				"element": "C" 
			},
			{
				"x": 1.2312411887,
				"y": 0.8249781995,
				"z": 1.2957799094,
				"element": "C" 
			},
			{
				"x": 1.1264849244,
				"y": 1.1317219424,
				"z": -0.0587018323,
				"element": "C" 
			},
			{
				"x": -0.1181821509,
				"y": 1.4769452356,
				"z": -0.6018254953,
				"element": "C" 
			},
			{
				"x": -0.2762618065,
				"y": 1.8144327089,
				"z": -1.9730154874,
				"element": "N" 
			},
			{
				"x": 0.3610925828,
				"y": 1.3344973915,
				"z": -3.0993069418,
				"element": "C" 
			},
			{
				"x": 0.3719126905,
				"y": 1.9949752167,
				"z": -4.1317681607,
				"element": "O" 
			},
			{
				"x": 0.9741191976,
				"y": -0.0397955651,
				"z": -3.0704926692,
				"element": "C" 
			},
			{
				"x": 0.4387187125,
				"y": -1.1184138964,
				"z": -2.3581136413,
				"element": "C" 
			},
			{
				"x": 1.039938143,
				"y": -2.3706000555,
				"z": -2.4930121109,
				"element": "C" 
			},
			{
				"x": 2.1139405624,
				"y": -2.6057678145,
				"z": -3.2567990531,
				"element": "N" 
			},
			{
				"x": 2.6128465934,
				"y": -1.5671798455,
				"z": -3.9409192806,
				"element": "C" 
			},
			{
				"x": 2.0778913793,
				"y": -0.2810422127,
				"z": -3.894826999,
				"element": "C" 
			},
			{
				"x": -1.2360073421,
				"y": 1.5392204076,
				"z": 0.2395636845,
				"element": "C" 
			},
			{
				"x": -1.1146826711,
				"y": 1.2591284225,
				"z": 1.5992780422,
				"element": "C" 
			},
			{
				"x": 0.1327269209,
				"y": 2.6772421885,
				"z": 4.2804777571,
				"element": "H" 
			},
			{
				"x": 0.9498435711,
				"y": 1.6091092596,
				"z": 5.4460696041,
				"element": "H" 
			},
			{
				"x": 1.7984074715,
				"y": 2.1372787072,
				"z": 3.9856312481,
				"element": "H" 
			},
			{
				"x": 0.9898743199,
				"y": -0.218698758,
				"z": 3.7459373167,
				"element": "H" 
			},
			{
				"x": -0.9239750219,
				"y": 0.1656091163,
				"z": 5.1001586092,
				"element": "H" 
			},
			{
				"x": 2.2010937816,
				"y": 0.5418535696,
				"z": 1.6983064018,
				"element": "H" 
			},
			{
				"x": 2.005518917,
				"y": 1.1018971983,
				"z": -0.6930631302,
				"element": "H" 
			},
			{
				"x": -0.7715268515,
				"y": 2.6762262727,
				"z": -2.1711753801,
				"element": "H" 
			},
			{
				"x": -0.4296906013,
				"y": -0.9980029,
				"z": -1.7205838492,
				"element": "H" 
			},
			{
				"x": 0.6355661296,
				"y": -3.2275005665,
				"z": -1.957129458,
				"element": "H" 
			},
			{
				"x": 3.4811390844,
				"y": -1.7760227737,
				"z": -4.5632621795,
				"element": "H" 
			},
			{
				"x": 2.4928735799,
				"y": 0.5248869274,
				"z": -4.4899433428,
				"element": "H" 
			},
			{
				"x": -2.2039367907,
				"y": 1.7993691532,
				"z": -0.1803026892,
				"element": "H" 
			},
			{
				"x": -1.9844703521,
				"y": 1.2992618144,
				"z": 2.2448591358,
				"element": "H" 
			}
		],
		 "valence_orbital": [ 
			{
				"type": "occ",
				"energy": -0.26889,
				"method": "rhf"
			},
			{
				"type": "occ",
				"energy": -0.26205,
				"method": "rhf"
			},
			{
				"type": "occ",
				"energy": -0.25861,
				"method": "rhf"
			},
			{
				"type": "occ",
				"energy": -0.25282,
				"method": "rhf"
			},
			{
				"type": "occ",
				"energy": -0.2292,
				"method": "rhf"
			},
			{
				"type": "unocc",
				"energy": -0.05399,
				"method": "rhf"
			},
			{
				"type": "unocc",
				"energy": -0.01957,
				"method": "rhf"
			},
			{
				"type": "unocc",
				"energy": -0.01078,
				"method": "rhf"
			},
			{
				"type": "unocc",
				"energy": -0.00677,
				"method": "rhf"
			},
			{
				"type": "unocc",
				"energy": 0.0457,
				"method": "rhf"
			}
		],
		"cosmo_sigma_profile": { 
			"-0.025": 0.0,
			"-0.024": 0.0,
			"-0.023": 0.0,
			"-0.022": 0.0,
			"-0.021": 0.0,
			"-0.02": 0.0,
			"-0.019": 0.0,
			"-0.018": 0.0,
			"-0.017": 0.0,
			"-0.016": 0.130580169585,
			"-0.015": 1.25061109102,
			"-0.014": 1.69517452731,
			"-0.013": 1.99833145887,
			"-0.012": 1.81051264099,
			"-0.011": 1.87549123139,
			"-0.01": 2.54836066874,
			"-0.009": 1.73111495262,
			"-0.008": 1.9562954249,
			"-0.007": 7.4098168712,
			"-0.006": 16.8262664586,
			"-0.005": 18.4020382584,
			"-0.004": 22.8732247803,
			"-0.003": 22.5953557999,
			"-0.002": 18.8514901333,
			"-0.001": 19.5436475594,
			"0.0": 24.3460922066,
			"0.001": 25.2867069009,
			"0.002": 18.7251389811,
			"0.003": 12.6584696051,
			"0.004": 14.2008807217,
			"0.005": 10.2561435022,
			"0.006": 4.32886355968,
			"0.007": 5.65479129225,
			"0.008": 3.65608127187,
			"0.009": 3.41134959422,
			"0.01": 4.29980322017,
			"0.011": 4.43947110882,
			"0.012": 5.62378042845,
			"0.013": 6.34399268232,
			"0.014": 2.00667614246,
			"0.015": 0.940061128726,
			"0.016": 0.621150675321,
			"0.017": 0.0624760695417,
			"0.018": 0.0,
			"0.019": 0.0,
			"0.02": 0.0,
			"0.021": 0.0,
			"0.022": 0.0,
			"0.023": 0.0,
			"0.024": 0.0,
			"0.025": 0.0
		}
	}
}
