{
	 "smiles": "CN[C@H]1CC[C@@]2(C)[C@@H](CC[C@H]3[C@@H]4CC[C@H]([C@H](C)N(C)C)[C@@]4(C)CC[C@H]23)C1", 
	 "Tm": 445.5, 
	 "num_atms": 70, 
	 "gaussian": { 
		 "optdone": 1, 
		 "sigma_profile": "yes", 
		 "theory": "DFT", 
		 "functional": "B3LYP", 
		 "basiset": "6-31G**", 
		 "properties": { 
			 "R2extent": 14748.9461, 
			 "electric_dipole_moment_norm": 1.37107588776, 
			 "electric_quadrupole_moment_norm": 7.1425971383, 
			 "total_energy": -1050.58544635, 
			 "HOMO_LUMO_gap": 0.26759, 
			 "cosmo_polarized_energy": -5.95, 
			 "cosmo_cavitation_energy": 56.97, 
			 "cosmo_dispersion_energy": -39.32, 
			 "cosmo_repulsion_energy": 2.87, 
			 "cosmo_total_nonelectrostatic_energy": 20.52, 
			 "SMD_solvation_energy": 5.54 
		},
		"coords": [
			{
				"x": 1.4149395661,
				"y": 1.919427954,
				"z": -7.2712064301,
				"element": "C" 
			},
			{
				"x": 0.3098734222,
				"y": 1.4389900803,
				"z": -6.450636122,
				"element": "N" 
			},
			{
				"x": 0.4635706571,
				"y": 0.0724536817,
				"z": -5.9267202932,
				"element": "C" 
			},
			{
				"x": 1.5876689687,
				"y": -0.1126075195,
				"z": -4.8845300975,
				"element": "C" 
			},
			{
				"x": 1.2785781062,
				"y": 0.5453822431,
				"z": -3.5257733177,
				"element": "C" 
			},
			{
				"x": -0.1596163994,
				"y": 0.254115519,
				"z": -2.9553066012,
				"element": "C" 
			},
			{
				"x": -0.9799727674,
				"y": 1.5658228972,
				"z": -2.9671663857,
				"element": "C" 
			},
			{
				"x": -0.8244556065,
				"y": -0.8349348177,
				"z": -3.8551679568,
				"element": "C" 
			},
			{
				"x": -2.190076816,
				"y": -1.2912666317,
				"z": -3.3235883865,
				"element": "C" 
			},
			{
				"x": -2.0730890804,
				"y": -1.8396935485,
				"z": -1.8972630246,
				"element": "C" 
			},
			{
				"x": -1.4159293083,
				"y": -0.833304949,
				"z": -0.937602113,
				"element": "C" 
			},
			{
				"x": -1.175438524,
				"y": -1.4393904824,
				"z": 0.452906619,
				"element": "C" 
			},
			{
				"x": -2.3400535212,
				"y": -2.1054131196,
				"z": 1.2017037014,
				"element": "C" 
			},
			{
				"x": -1.8213584659,
				"y": -2.2240941812,
				"z": 2.6617560641,
				"element": "C" 
			},
			{
				"x": -0.4898731661,
				"y": -1.4108944175,
				"z": 2.7385788133,
				"element": "C" 
			},
			{
				"x": -0.2672787303,
				"y": -0.7966327281,
				"z": 4.14022514,
				"element": "C" 
			},
			{
				"x": 1.0660814656,
				"y": -0.0344661244,
				"z": 4.2787193769,
				"element": "C" 
			},
			{
				"x": -0.4655756725,
				"y": -1.8323688255,
				"z": 5.18010134,
				"element": "N" 
			},
			{
				"x": 0.5909582504,
				"y": -2.8299667951,
				"z": 5.2796857734,
				"element": "C" 
			},
			{
				"x": -0.8024918922,
				"y": -1.2894950099,
				"z": 6.4865184674,
				"element": "C" 
			},
			{
				"x": -0.561839176,
				"y": -0.4587538348,
				"z": 1.4958628875,
				"element": "C" 
			},
			{
				"x": -1.4869070185,
				"y": 0.7427630181,
				"z": 1.794249867,
				"element": "C" 
			},
			{
				"x": 0.7822480582,
				"y": 0.0298503669,
				"z": 0.9185728586,
				"element": "C" 
			},
			{
				"x": 0.6175255045,
				"y": 0.6379311287,
				"z": -0.4899482117,
				"element": "C" 
			},
			{
				"x": -0.0583264436,
				"y": -0.3181053413,
				"z": -1.4981141732,
				"element": "C" 
			},
			{
				"x": -0.8891647813,
				"y": -0.4284439389,
				"z": -5.3394593398,
				"element": "C" 
			},
			{
				"x": 2.4016939359,
				"y": 1.953171763,
				"z": -6.776541526,
				"element": "H" 
			},
			{
				"x": 1.5141958862,
				"y": 1.2764371677,
				"z": -8.1538051663,
				"element": "H" 
			},
			{
				"x": 1.1871748478,
				"y": 2.9301484265,
				"z": -7.6252633279,
				"element": "H" 
			},
			{
				"x": 0.14978873,
				"y": 2.086868918,
				"z": -5.683666364,
				"element": "H" 
			},
			{
				"x": 0.7186478113,
				"y": -0.5407157895,
				"z": -6.8011092617,
				"element": "H" 
			},
			{
				"x": 2.534532487,
				"y": 0.2820956188,
				"z": -5.271362395,
				"element": "H" 
			},
			{
				"x": 1.7541609263,
				"y": -1.1879769236,
				"z": -4.7441494238,
				"element": "H" 
			},
			{
				"x": 1.4219680893,
				"y": 1.6297296197,
				"z": -3.6123081047,
				"element": "H" 
			},
			{
				"x": 2.0405071099,
				"y": 0.2101156363,
				"z": -2.8135923944,
				"element": "H" 
			},
			{
				"x": -0.4607585422,
				"y": 2.3544141775,
				"z": -2.4144023851,
				"element": "H" 
			},
			{
				"x": -1.9707788515,
				"y": 1.4499274619,
				"z": -2.5194783186,
				"element": "H" 
			},
			{
				"x": -1.1351742229,
				"y": 1.937227383,
				"z": -3.9842743779,
				"element": "H" 
			},
			{
				"x": -0.1697735101,
				"y": -1.7174916002,
				"z": -3.7888003784,
				"element": "H" 
			},
			{
				"x": -2.9066410983,
				"y": -0.4594536181,
				"z": -3.3501965416,
				"element": "H" 
			},
			{
				"x": -2.5991785325,
				"y": -2.0630409649,
				"z": -3.9885707994,
				"element": "H" 
			},
			{
				"x": -1.4703420927,
				"y": -2.7603636388,
				"z": -1.916055732,
				"element": "H" 
			},
			{
				"x": -3.0613898031,
				"y": -2.1260854215,
				"z": -1.5188840175,
				"element": "H" 
			},
			{
				"x": -2.1027138874,
				"y": 0.0191915502,
				"z": -0.8347332542,
				"element": "H" 
			},
			{
				"x": -0.4127439512,
				"y": -2.2239190518,
				"z": 0.3107031496,
				"element": "H" 
			},
			{
				"x": -3.2415403072,
				"y": -1.4824756571,
				"z": 1.1516274876,
				"element": "H" 
			},
			{
				"x": -2.6076610254,
				"y": -3.077001033,
				"z": 0.7755422594,
				"element": "H" 
			},
			{
				"x": -1.6551374108,
				"y": -3.2646940494,
				"z": 2.9515819557,
				"element": "H" 
			},
			{
				"x": -2.5470555484,
				"y": -1.8304788319,
				"z": 3.3799934904,
				"element": "H" 
			},
			{
				"x": 0.3462666556,
				"y": -2.0965344661,
				"z": 2.5382032786,
				"element": "H" 
			},
			{
				"x": -1.0801873362,
				"y": -0.0795405779,
				"z": 4.3109311597,
				"element": "H" 
			},
			{
				"x": 1.9163475821,
				"y": -0.6388415804,
				"z": 3.9454345178,
				"element": "H" 
			},
			{
				"x": 1.2462293816,
				"y": 0.2516033287,
				"z": 5.3203382268,
				"element": "H" 
			},
			{
				"x": 1.0631676156,
				"y": 0.884838383,
				"z": 3.687920328,
				"element": "H" 
			},
			{
				"x": 0.2593413426,
				"y": -3.6382194872,
				"z": 5.9411032153,
				"element": "H" 
			},
			{
				"x": 1.5440505753,
				"y": -2.442204988,
				"z": 5.6851806991,
				"element": "H" 
			},
			{
				"x": 0.7971851589,
				"y": -3.2709266613,
				"z": 4.3006143762,
				"element": "H" 
			},
			{
				"x": -1.1009407626,
				"y": -2.1065122407,
				"z": 7.1533037699,
				"element": "H" 
			},
			{
				"x": 0.0233625537,
				"y": -0.7461108952,
				"z": 6.9854677427,
				"element": "H" 
			},
			{
				"x": -1.6507377096,
				"y": -0.602797429,
				"z": 6.3979368419,
				"element": "H" 
			},
			{
				"x": -2.4328851887,
				"y": 0.4316057351,
				"z": 2.2470085471,
				"element": "H" 
			},
			{
				"x": -1.7324347076,
				"y": 1.3128264147,
				"z": 0.8951367097,
				"element": "H" 
			},
			{
				"x": -1.0045580106,
				"y": 1.4373805519,
				"z": 2.490383644,
				"element": "H" 
			},
			{
				"x": 1.2551160655,
				"y": 0.7727060035,
				"z": 1.5699833056,
				"element": "H" 
			},
			{
				"x": 1.4748974141,
				"y": -0.8222349112,
				"z": 0.8645796637,
				"element": "H" 
			},
			{
				"x": 0.0366586211,
				"y": 1.5640841093,
				"z": -0.4125835853,
				"element": "H" 
			},
			{
				"x": 1.6049529839,
				"y": 0.93678003,
				"z": -0.8591282666,
				"element": "H" 
			},
			{
				"x": 0.5920061574,
				"y": -1.2062619241,
				"z": -1.5767535051,
				"element": "H" 
			},
			{
				"x": -1.2443204793,
				"y": -1.2915893758,
				"z": -5.9149383268,
				"element": "H" 
			},
			{
				"x": -1.6411955818,
				"y": 0.3534142137,
				"z": -5.4930753721,
				"element": "H" 
			}
		],
		 "valence_orbital": [ 
			{
				"type": "occ",
				"energy": -0.2863,
				"method": "rhf"
			},
			{
				"type": "occ",
				"energy": -0.26702,
				"method": "rhf"
			},
			{
				"type": "occ",
				"energy": -0.25926,
				"method": "rhf"
			},
			{
				"type": "occ",
				"energy": -0.2076,
				"method": "rhf"
			},
			{
				"type": "occ",
				"energy": -0.19878,
				"method": "rhf"
			},
			{
				"type": "unocc",
				"energy": 0.06881,
				"method": "rhf"
			},
			{
				"type": "unocc",
				"energy": 0.07335,
				"method": "rhf"
			},
			{
				"type": "unocc",
				"energy": 0.07976,
				"method": "rhf"
			},
			{
				"type": "unocc",
				"energy": 0.09582,
				"method": "rhf"
			},
			{
				"type": "unocc",
				"energy": 0.0971,
				"method": "rhf"
			}
		],
		"cosmo_sigma_profile": { 
			"-0.025": 0.0,
			"-0.024": 0.0,
			"-0.023": 0.0,
			"-0.022": 0.0,
			"-0.021": 0.0,
			"-0.02": 0.0,
			"-0.019": 0.0,
			"-0.018": 0.0,
			"-0.017": 0.0,
			"-0.016": 0.0,
			"-0.015": 0.0,
			"-0.014": 0.0,
			"-0.013": 0.0,
			"-0.012": 0.0,
			"-0.011": 0.0,
			"-0.01": 0.0,
			"-0.009": 0.0,
			"-0.008": 0.401938006006,
			"-0.007": 0.771406114634,
			"-0.006": 1.96727297189,
			"-0.005": 2.02446240254,
			"-0.004": 3.67094465222,
			"-0.003": 22.7797510525,
			"-0.002": 64.6599477002,
			"-0.001": 99.4010388215,
			"0.0": 105.06265337,
			"0.001": 71.1167325642,
			"0.002": 32.681666013,
			"0.003": 8.56517440217,
			"0.004": 2.55059168557,
			"0.005": 2.25484982383,
			"0.006": 2.28634625206,
			"0.007": 1.57800530839,
			"0.008": 1.6936381696,
			"0.009": 1.96793223586,
			"0.01": 0.865155420344,
			"0.011": 1.18838723356,
			"0.012": 1.17968566706,
			"0.013": 1.44933575099,
			"0.014": 0.882843195955,
			"0.015": 0.568247015982,
			"0.016": 0.44870324456,
			"0.017": 0.280435429063,
			"0.018": 0.676187149504,
			"0.019": 0.107929987462,
			"0.02": 0.0,
			"0.021": 0.0,
			"0.022": 0.0,
			"0.023": 0.0,
			"0.024": 0.0,
			"0.025": 0.0
		}
	}
}
