{
	 "smiles": "[O-][N+](=O)C1=CC(=CC=C1)C1=CC=C(O1)C=C1C(=O)NC(=O)NC1=O", 
	 "Tm": 553.15, 
	 "num_atms": 33, 
	 "gaussian": { 
		 "optdone": 1, 
		 "sigma_profile": "yes", 
		 "theory": "DFT", 
		 "functional": "B3LYP", 
		 "basiset": "6-31G**", 
		 "properties": { 
			 "R2extent": 14374.1124, 
			 "electric_dipole_moment_norm": 1.65030737137, 
			 "electric_quadrupole_moment_norm": 41.2553375296, 
			 "total_energy": -1192.5558867, 
			 "HOMO_LUMO_gap": 0.12256, 
			 "cosmo_polarized_energy": -21.18, 
			 "cosmo_cavitation_energy": 40.89, 
			 "cosmo_dispersion_energy": -29.88, 
			 "cosmo_repulsion_energy": 2.2, 
			 "cosmo_total_nonelectrostatic_energy": 13.21, 
			 "SMD_solvation_energy": 11.65 
		},
		"coords": [
			{
				"x": 2.9121092135,
				"y": -4.9351120285,
				"z": 0.5784147269,
				"element": "O" 
			},
			{
				"x": 2.5421687681,
				"y": -4.7996285277,
				"z": 1.7435934295,
				"element": "N" 
			},
			{
				"x": 2.6657732398,
				"y": -5.6475787314,
				"z": 2.6247992489,
				"element": "O" 
			},
			{
				"x": 1.9013771486,
				"y": -3.5229039718,
				"z": 2.1127343804,
				"element": "C" 
			},
			{
				"x": 1.7510703626,
				"y": -2.5502094085,
				"z": 1.1334387589,
				"element": "C" 
			},
			{
				"x": 1.1430128186,
				"y": -1.3314291139,
				"z": 1.4719142826,
				"element": "C" 
			},
			{
				"x": 0.7035561398,
				"y": -1.132044783,
				"z": 2.7951684772,
				"element": "C" 
			},
			{
				"x": 0.8681670404,
				"y": -2.1270395654,
				"z": 3.7564412396,
				"element": "C" 
			},
			{
				"x": 1.4715101133,
				"y": -3.3397460813,
				"z": 3.4261022071,
				"element": "C" 
			},
			{
				"x": 0.9735714317,
				"y": -0.2950636923,
				"z": 0.4631268349,
				"element": "C" 
			},
			{
				"x": 1.3046852858,
				"y": -0.2245366686,
				"z": -0.8791875724,
				"element": "C" 
			},
			{
				"x": 0.8898145774,
				"y": 1.0398473261,
				"z": -1.3369174474,
				"element": "C" 
			},
			{
				"x": 0.3183480715,
				"y": 1.6994946147,
				"z": -0.2558841309,
				"element": "C" 
			},
			{
				"x": 0.3804463008,
				"y": 0.8564520472,
				"z": 0.8466907777,
				"element": "O" 
			},
			{
				"x": -0.2896456677,
				"y": 2.945848042,
				"z": 0.0321756827,
				"element": "C" 
			},
			{
				"x": -0.5666602381,
				"y": 4.0649332976,
				"z": -0.7114254979,
				"element": "C" 
			},
			{
				"x": -0.2560462915,
				"y": 4.2357469741,
				"z": -2.1385741797,
				"element": "C" 
			},
			{
				"x": 0.2907441325,
				"y": 3.4061023973,
				"z": -2.8563688049,
				"element": "O" 
			},
			{
				"x": -0.6324962133,
				"y": 5.4631748788,
				"z": -2.6863324373,
				"element": "N" 
			},
			{
				"x": -1.2569725293,
				"y": 6.5304200476,
				"z": -2.0544473633,
				"element": "C" 
			},
			{
				"x": -1.5434828123,
				"y": 7.5636298105,
				"z": -2.6263417983,
				"element": "O" 
			},
			{
				"x": -1.5223561629,
				"y": 6.3060629499,
				"z": -0.7112293925,
				"element": "N" 
			},
			{
				"x": -1.235615443,
				"y": 5.1643294354,
				"z": 0.0345815048,
				"element": "C" 
			},
			{
				"x": -1.5335825667,
				"y": 5.1173872865,
				"z": 1.2191563752,
				"element": "O" 
			},
			{
				"x": 2.107105562,
				"y": -2.7569667092,
				"z": 0.132415504,
				"element": "H" 
			},
			{
				"x": 0.2334100691,
				"y": -0.1918159343,
				"z": 3.0600888779,
				"element": "H" 
			},
			{
				"x": 0.5238213075,
				"y": -1.9568432043,
				"z": 4.7712971794,
				"element": "H" 
			},
			{
				"x": 1.6132282602,
				"y": -4.1313111794,
				"z": 4.1507161901,
				"element": "H" 
			},
			{
				"x": 1.789040801,
				"y": -0.9940997495,
				"z": -1.4620913638,
				"element": "H" 
			},
			{
				"x": 0.9773128599,
				"y": 1.4591305779,
				"z": -2.325053022,
				"element": "H" 
			},
			{
				"x": -0.6067603229,
				"y": 3.0358240075,
				"z": 1.070240327,
				"element": "H" 
			},
			{
				"x": -0.4250386758,
				"y": 5.5960281647,
				"z": -3.6683951544,
				"element": "H" 
			},
			{
				"x": -1.9775165804,
				"y": 7.0643174912,
				"z": -0.21844784,
				"element": "H" 
			}
		],
		 "valence_orbital": [ 
			{
				"type": "occ",
				"energy": -0.29879,
				"method": "rhf"
			},
			{
				"type": "occ",
				"energy": -0.29623,
				"method": "rhf"
			},
			{
				"type": "occ",
				"energy": -0.29456,
				"method": "rhf"
			},
			{
				"type": "occ",
				"energy": -0.26692,
				"method": "rhf"
			},
			{
				"type": "occ",
				"energy": -0.23668,
				"method": "rhf"
			},
			{
				"type": "unocc",
				"energy": -0.11412,
				"method": "rhf"
			},
			{
				"type": "unocc",
				"energy": -0.10037,
				"method": "rhf"
			},
			{
				"type": "unocc",
				"energy": -0.05606,
				"method": "rhf"
			},
			{
				"type": "unocc",
				"energy": -0.01976,
				"method": "rhf"
			},
			{
				"type": "unocc",
				"energy": -0.006,
				"method": "rhf"
			}
		],
		"cosmo_sigma_profile": { 
			"-0.025": 0.0,
			"-0.024": 0.0,
			"-0.023": 0.0,
			"-0.022": 0.0,
			"-0.021": 0.0,
			"-0.02": 0.0,
			"-0.019": 0.0,
			"-0.018": 0.0,
			"-0.017": 0.0632248542503,
			"-0.016": 1.77696540286,
			"-0.015": 1.55664698703,
			"-0.014": 1.88255277136,
			"-0.013": 1.03711584796,
			"-0.012": 1.55072033083,
			"-0.011": 2.24578722264,
			"-0.01": 2.67659942623,
			"-0.009": 3.67637199722,
			"-0.008": 8.12545359784,
			"-0.007": 12.1456490028,
			"-0.006": 15.2095303103,
			"-0.005": 16.3226788548,
			"-0.004": 17.4276829151,
			"-0.003": 18.8705587574,
			"-0.002": 31.6722723791,
			"-0.001": 36.1881752481,
			"0.0": 31.9783115985,
			"0.001": 23.8707665515,
			"0.002": 14.4459847911,
			"0.003": 7.57339797925,
			"0.004": 5.64067256159,
			"0.005": 7.52765691649,
			"0.006": 7.92181392787,
			"0.007": 13.4365408534,
			"0.008": 9.69026994754,
			"0.009": 8.47973697303,
			"0.01": 6.7332309841,
			"0.011": 8.33122159567,
			"0.012": 11.2891107368,
			"0.013": 1.25510126709,
			"0.014": 0.0,
			"0.015": 0.0,
			"0.016": 0.0,
			"0.017": 0.0,
			"0.018": 0.0,
			"0.019": 0.0,
			"0.02": 0.0,
			"0.021": 0.0,
			"0.022": 0.0,
			"0.023": 0.0,
			"0.024": 0.0,
			"0.025": 0.0
		}
	}
}
