{
	 "smiles": "ClC1=CC=C(CN2N=CC(Cl)=C(Cl)C2=O)C=C1", 
	 "Tm": 411.15, 
	 "num_atms": 24, 
	 "gaussian": { 
		 "optdone": 1, 
		 "sigma_profile": "yes", 
		 "theory": "DFT", 
		 "functional": "B3LYP", 
		 "basiset": "6-31G**", 
		 "properties": { 
			 "R2extent": 10481.6939, 
			 "electric_dipole_moment_norm": 3.0101275654, 
			 "electric_quadrupole_moment_norm": 10.5624946684, 
			 "total_energy": -1988.66497867, 
			 "HOMO_LUMO_gap": 0.16457, 
			 "cosmo_polarized_energy": -10.16, 
			 "cosmo_cavitation_energy": 34.63, 
			 "cosmo_dispersion_energy": -25.19, 
			 "cosmo_repulsion_energy": 1.96, 
			 "cosmo_total_nonelectrostatic_energy": 11.4, 
			 "SMD_solvation_energy": 4.74 
		},
		"coords": [
			{
				"x": 5.0561713474,
				"y": 1.9981300124,
				"z": 1.4227608449,
				"element": "Cl" 
			},
			{
				"x": 3.344313512,
				"y": 1.7395946509,
				"z": 1.1184888049,
				"element": "C" 
			},
			{
				"x": 2.9168854352,
				"y": 0.5109113938,
				"z": 0.6166427302,
				"element": "C" 
			},
			{
				"x": 1.5564002404,
				"y": 0.3134037891,
				"z": 0.3819019055,
				"element": "C" 
			},
			{
				"x": 0.6263877996,
				"y": 1.326016464,
				"z": 0.6447228511,
				"element": "C" 
			},
			{
				"x": -0.8464381763,
				"y": 1.0991089394,
				"z": 0.3759805474,
				"element": "C" 
			},
			{
				"x": -1.257802717,
				"y": 1.5395701527,
				"z": -0.9762140549,
				"element": "N" 
			},
			{
				"x": -1.1440506731,
				"y": 0.6174561371,
				"z": -1.9394423867,
				"element": "N" 
			},
			{
				"x": -1.4676624091,
				"y": 0.9533369564,
				"z": -3.1569249896,
				"element": "C" 
			},
			{
				"x": -1.9359290969,
				"y": 2.2579571575,
				"z": -3.5026213627,
				"element": "C" 
			},
			{
				"x": -2.3378924818,
				"y": 2.5630331247,
				"z": -5.1636909056,
				"element": "Cl" 
			},
			{
				"x": -2.0494994869,
				"y": 3.2025815109,
				"z": -2.5213578926,
				"element": "C" 
			},
			{
				"x": -2.6013921119,
				"y": 4.807880813,
				"z": -2.8021671258,
				"element": "Cl" 
			},
			{
				"x": -1.6754439693,
				"y": 2.8740801088,
				"z": -1.1394643302,
				"element": "C" 
			},
			{
				"x": -1.713724495,
				"y": 3.6506786861,
				"z": -0.1941308039,
				"element": "O" 
			},
			{
				"x": 1.080818484,
				"y": 2.5529984334,
				"z": 1.1462945358,
				"element": "C" 
			},
			{
				"x": 2.4379249632,
				"y": 2.7656339789,
				"z": 1.3854371478,
				"element": "C" 
			},
			{
				"x": 3.6358210463,
				"y": -0.275902548,
				"z": 0.4171903976,
				"element": "H" 
			},
			{
				"x": 1.2170716348,
				"y": -0.6411601935,
				"z": -0.0107700015,
				"element": "H" 
			},
			{
				"x": -1.0946595941,
				"y": 0.0383443279,
				"z": 0.428619317,
				"element": "H" 
			},
			{
				"x": -1.4623456931,
				"y": 1.6558122458,
				"z": 1.0826896939,
				"element": "H" 
			},
			{
				"x": -1.3707338107,
				"y": 0.1857972385,
				"z": -3.9164244507,
				"element": "H" 
			},
			{
				"x": 0.3664568954,
				"y": 3.3476835938,
				"z": 1.3362701508,
				"element": "H" 
			},
			{
				"x": 2.7898233573,
				"y": 3.7142530265,
				"z": 1.7754093772,
				"element": "H" 
			}
		],
		 "valence_orbital": [ 
			{
				"type": "occ",
				"energy": -0.29619,
				"method": "rhf"
			},
			{
				"type": "occ",
				"energy": -0.27821,
				"method": "rhf"
			},
			{
				"type": "occ",
				"energy": -0.26822,
				"method": "rhf"
			},
			{
				"type": "occ",
				"energy": -0.2546,
				"method": "rhf"
			},
			{
				"type": "occ",
				"energy": -0.24872,
				"method": "rhf"
			},
			{
				"type": "unocc",
				"energy": -0.08415,
				"method": "rhf"
			},
			{
				"type": "unocc",
				"energy": -0.02606,
				"method": "rhf"
			},
			{
				"type": "unocc",
				"energy": -0.02375,
				"method": "rhf"
			},
			{
				"type": "unocc",
				"energy": -0.0188,
				"method": "rhf"
			},
			{
				"type": "unocc",
				"energy": -0.01323,
				"method": "rhf"
			}
		],
		"cosmo_sigma_profile": { 
			"-0.025": 0.0,
			"-0.024": 0.0,
			"-0.023": 0.0,
			"-0.022": 0.0,
			"-0.021": 0.0,
			"-0.02": 0.0,
			"-0.019": 0.0,
			"-0.018": 0.0,
			"-0.017": 0.0,
			"-0.016": 0.0,
			"-0.015": 0.0,
			"-0.014": 0.0,
			"-0.013": 0.0,
			"-0.012": 0.0,
			"-0.011": 0.0,
			"-0.01": 0.989898623066,
			"-0.009": 1.93201512281,
			"-0.008": 2.30248431705,
			"-0.007": 9.48208798237,
			"-0.006": 13.271925644,
			"-0.005": 16.189057974,
			"-0.004": 21.0183792199,
			"-0.003": 23.5973525931,
			"-0.002": 20.091043132,
			"-0.001": 19.0983427272,
			"0.0": 19.3578683769,
			"0.001": 25.6683449666,
			"0.002": 33.7712610692,
			"0.003": 32.5882893773,
			"0.004": 18.5587688638,
			"0.005": 8.82458891004,
			"0.006": 3.154350591,
			"0.007": 2.33865474824,
			"0.008": 1.93980132692,
			"0.009": 2.51616522845,
			"0.01": 2.19539095292,
			"0.011": 2.02422268095,
			"0.012": 3.16031416825,
			"0.013": 1.68522610218,
			"0.014": 0.0212571687922,
			"0.015": 0.0,
			"0.016": 0.0,
			"0.017": 0.0,
			"0.018": 0.0,
			"0.019": 0.0,
			"0.02": 0.0,
			"0.021": 0.0,
			"0.022": 0.0,
			"0.023": 0.0,
			"0.024": 0.0,
			"0.025": 0.0
		}
	}
}
