{
	 "smiles": "CN1C(=O)C2=C(C=C(C=C2)[N+]([O-])=O)C1=O", 
	 "Tm": 451.15, 
	 "num_atms": 21, 
	 "gaussian": { 
		 "optdone": 1, 
		 "sigma_profile": "yes", 
		 "theory": "DFT", 
		 "functional": "B3LYP", 
		 "basiset": "6-31G**", 
		 "properties": { 
			 "R2extent": 4076.5655, 
			 "electric_dipole_moment_norm": 2.86984205315, 
			 "electric_quadrupole_moment_norm": 16.8628429486, 
			 "total_energy": -756.899183337, 
			 "HOMO_LUMO_gap": 0.16641, 
			 "cosmo_polarized_energy": -13.06, 
			 "cosmo_cavitation_energy": 27.36, 
			 "cosmo_dispersion_energy": -19.82, 
			 "cosmo_repulsion_energy": 1.52, 
			 "cosmo_total_nonelectrostatic_energy": 9.06, 
			 "SMD_solvation_energy": 8.45 
		},
		"coords": [
			{
				"x": -3.2540466157,
				"y": 0.2172617202,
				"z": 1.6908847922,
				"element": "C" 
			},
			{
				"x": -1.8815319364,
				"y": -0.0743326532,
				"z": 1.3126168372,
				"element": "N" 
			},
			{
				"x": -1.4912494573,
				"y": -0.434835933,
				"z": 0.0158672267,
				"element": "C" 
			},
			{
				"x": -2.2304139496,
				"y": -0.5573062324,
				"z": -0.9390874608,
				"element": "O" 
			},
			{
				"x": -0.0081777849,
				"y": -0.6330245964,
				"z": 0.08428605,
				"element": "C" 
			},
			{
				"x": 0.4044037925,
				"y": -0.3857854233,
				"z": 1.3956489957,
				"element": "C" 
			},
			{
				"x": 1.7321031431,
				"y": -0.4911021351,
				"z": 1.7748743156,
				"element": "C" 
			},
			{
				"x": 2.6277804809,
				"y": -0.8573553136,
				"z": 0.7654617068,
				"element": "C" 
			},
			{
				"x": 2.2378021772,
				"y": -1.1094033514,
				"z": -0.5527093643,
				"element": "C" 
			},
			{
				"x": 0.8898563399,
				"y": -0.9973057858,
				"z": -0.9090435458,
				"element": "C" 
			},
			{
				"x": 4.0595230898,
				"y": -0.9847632806,
				"z": 1.1090726148,
				"element": "N" 
			},
			{
				"x": 4.8333369006,
				"y": -1.3079991202,
				"z": 0.2104957102,
				"element": "O" 
			},
			{
				"x": 4.3818272823,
				"y": -0.7586040044,
				"z": 2.2729094037,
				"element": "O" 
			},
			{
				"x": -0.7998936168,
				"y": -0.0224366764,
				"z": 2.2062205466,
				"element": "C" 
			},
			{
				"x": -0.8707244911,
				"y": 0.2572001349,
				"z": 3.3844258293,
				"element": "O" 
			},
			{
				"x": -3.3892726697,
				"y": -0.0490798038,
				"z": 2.7399868557,
				"element": "H" 
			},
			{
				"x": -3.9212506913,
				"y": -0.3680649973,
				"z": 1.0567462315,
				"element": "H" 
			},
			{
				"x": -3.480527644,
				"y": 1.2802698376,
				"z": 1.5611062446,
				"element": "H" 
			},
			{
				"x": 2.0726307537,
				"y": -0.3048904136,
				"z": 2.7857210307,
				"element": "H" 
			},
			{
				"x": 2.9953328614,
				"y": -1.3883763947,
				"z": -1.274416154,
				"element": "H" 
			},
			{
				"x": 0.5561920352,
				"y": -1.1873655773,
				"z": -1.9234678663,
				"element": "H" 
			}
		],
		 "valence_orbital": [ 
			{
				"type": "occ",
				"energy": -0.30821,
				"method": "rhf"
			},
			{
				"type": "occ",
				"energy": -0.30729,
				"method": "rhf"
			},
			{
				"type": "occ",
				"energy": -0.30386,
				"method": "rhf"
			},
			{
				"type": "occ",
				"energy": -0.2884,
				"method": "rhf"
			},
			{
				"type": "occ",
				"energy": -0.28527,
				"method": "rhf"
			},
			{
				"type": "unocc",
				"energy": -0.11886,
				"method": "rhf"
			},
			{
				"type": "unocc",
				"energy": -0.08449,
				"method": "rhf"
			},
			{
				"type": "unocc",
				"energy": -0.05212,
				"method": "rhf"
			},
			{
				"type": "unocc",
				"energy": 0.02135,
				"method": "rhf"
			},
			{
				"type": "unocc",
				"energy": 0.05574,
				"method": "rhf"
			}
		],
		"cosmo_sigma_profile": { 
			"-0.025": 0.0,
			"-0.024": 0.0,
			"-0.023": 0.0,
			"-0.022": 0.0,
			"-0.021": 0.0,
			"-0.02": 0.0,
			"-0.019": 0.0,
			"-0.018": 0.0,
			"-0.017": 0.0,
			"-0.016": 0.0,
			"-0.015": 0.0,
			"-0.014": 0.0,
			"-0.013": 0.0,
			"-0.012": 0.0,
			"-0.011": 0.0,
			"-0.01": 0.0345490560882,
			"-0.009": 2.76457021023,
			"-0.008": 5.7329368468,
			"-0.007": 8.87963392713,
			"-0.006": 14.2929966753,
			"-0.005": 16.9200625729,
			"-0.004": 20.9378537575,
			"-0.003": 26.7706473815,
			"-0.002": 22.3647427661,
			"-0.001": 12.8649844829,
			"0.0": 7.81743266351,
			"0.001": 6.64887842813,
			"0.002": 4.81532346885,
			"0.003": 5.81106032091,
			"0.004": 5.086226744,
			"0.005": 6.45172153165,
			"0.006": 9.42023796216,
			"0.007": 10.529228692,
			"0.008": 7.86678800631,
			"0.009": 8.53390977829,
			"0.01": 7.86167305776,
			"0.011": 7.7914434008,
			"0.012": 0.45055268413,
			"0.013": 0.0,
			"0.014": 0.0,
			"0.015": 0.0,
			"0.016": 0.0,
			"0.017": 0.0,
			"0.018": 0.0,
			"0.019": 0.0,
			"0.02": 0.0,
			"0.021": 0.0,
			"0.022": 0.0,
			"0.023": 0.0,
			"0.024": 0.0,
			"0.025": 0.0
		}
	}
}
