{
	 "smiles": "OC(=O)C=CC(=O)NCC1=CN=CC=C1", 
	 "Tm": 366.15, 
	 "num_atms": 25, 
	 "gaussian": { 
		 "optdone": 1, 
		 "sigma_profile": "yes", 
		 "theory": "DFT", 
		 "functional": "B3LYP", 
		 "basiset": "6-31G**", 
		 "properties": { 
			 "R2extent": 5372.8342, 
			 "electric_dipole_moment_norm": 7.54815443734, 
			 "electric_quadrupole_moment_norm": 39.8681422661, 
			 "total_energy": -722.261976024, 
			 "HOMO_LUMO_gap": 0.16938, 
			 "cosmo_polarized_energy": -23.13, 
			 "cosmo_cavitation_energy": 30.54, 
			 "cosmo_dispersion_energy": -22.18, 
			 "cosmo_repulsion_energy": 1.73, 
			 "cosmo_total_nonelectrostatic_energy": 10.09, 
			 "SMD_solvation_energy": 5.27 
		},
		"coords": [
			{
				"x": 0.9783090117,
				"y": 4.197240592,
				"z": -0.853422363,
				"element": "O" 
			},
			{
				"x": 0.5080702645,
				"y": 4.416080005,
				"z": 0.365673899,
				"element": "C" 
			},
			{
				"x": 0.5407322703,
				"y": 5.5107194539,
				"z": 0.8963875555,
				"element": "O" 
			},
			{
				"x": -0.1034411533,
				"y": 3.2826536772,
				"z": 1.1576434473,
				"element": "C" 
			},
			{
				"x": -0.2461568429,
				"y": 1.96093606,
				"z": 0.9406686841,
				"element": "C" 
			},
			{
				"x": 0.1686234595,
				"y": 1.1808301766,
				"z": -0.2521139206,
				"element": "C" 
			},
			{
				"x": 0.6555267063,
				"y": 1.6899795946,
				"z": -1.277727674,
				"element": "O" 
			},
			{
				"x": -0.0049313611,
				"y": -0.1672959674,
				"z": -0.2096355794,
				"element": "N" 
			},
			{
				"x": -0.5702191238,
				"y": -1.0031577678,
				"z": 0.8546038639,
				"element": "C" 
			},
			{
				"x": -0.2212478373,
				"y": -2.4564944075,
				"z": 0.6266227529,
				"element": "C" 
			},
			{
				"x": -1.2164959678,
				"y": -3.3981191555,
				"z": 0.3434116876,
				"element": "C" 
			},
			{
				"x": -0.9833241438,
				"y": -4.698327435,
				"z": 0.1332652754,
				"element": "N" 
			},
			{
				"x": 0.287066263,
				"y": -5.1115793026,
				"z": 0.1954935997,
				"element": "C" 
			},
			{
				"x": 1.3622173574,
				"y": -4.260534102,
				"z": 0.4662086977,
				"element": "C" 
			},
			{
				"x": 1.101896008,
				"y": -2.9113059449,
				"z": 0.6860541485,
				"element": "C" 
			},
			{
				"x": 0.8731723048,
				"y": 3.2365616904,
				"z": -1.1166177877,
				"element": "H" 
			},
			{
				"x": -0.4813919195,
				"y": 3.6654899278,
				"z": 2.1016515019,
				"element": "H" 
			},
			{
				"x": -0.735901369,
				"y": 1.3988053611,
				"z": 1.7299257567,
				"element": "H" 
			},
			{
				"x": 0.2414377739,
				"y": -0.6282463008,
				"z": -1.0770829814,
				"element": "H" 
			},
			{
				"x": -1.6613580621,
				"y": -0.891905015,
				"z": 0.9020199857,
				"element": "H" 
			},
			{
				"x": -0.164741392,
				"y": -0.6782619668,
				"z": 1.8185897124,
				"element": "H" 
			},
			{
				"x": -2.2584566423,
				"y": -3.0832335559,
				"z": 0.2859298843,
				"element": "H" 
			},
			{
				"x": 0.4559863914,
				"y": -6.1724887721,
				"z": 0.0209410739,
				"element": "H" 
			},
			{
				"x": 2.374323515,
				"y": -4.6502448934,
				"z": 0.5063589172,
				"element": "H" 
			},
			{
				"x": 1.9112044891,
				"y": -2.217901952,
				"z": 0.9008498625,
				"element": "H" 
			}
		],
		 "valence_orbital": [ 
			{
				"type": "occ",
				"energy": -0.29058,
				"method": "rhf"
			},
			{
				"type": "occ",
				"energy": -0.28649,
				"method": "rhf"
			},
			{
				"type": "occ",
				"energy": -0.28172,
				"method": "rhf"
			},
			{
				"type": "occ",
				"energy": -0.2754,
				"method": "rhf"
			},
			{
				"type": "occ",
				"energy": -0.25907,
				"method": "rhf"
			},
			{
				"type": "unocc",
				"energy": -0.08969,
				"method": "rhf"
			},
			{
				"type": "unocc",
				"energy": -0.05186,
				"method": "rhf"
			},
			{
				"type": "unocc",
				"energy": -0.03784,
				"method": "rhf"
			},
			{
				"type": "unocc",
				"energy": 0.02759,
				"method": "rhf"
			},
			{
				"type": "unocc",
				"energy": 0.06596,
				"method": "rhf"
			}
		],
		"cosmo_sigma_profile": { 
			"-0.025": 0.0,
			"-0.024": 0.0,
			"-0.023": 0.0,
			"-0.022": 0.0,
			"-0.021": 0.0,
			"-0.02": 0.0,
			"-0.019": 0.0,
			"-0.018": 0.0,
			"-0.017": 0.0,
			"-0.016": 0.0,
			"-0.015": 0.172376498355,
			"-0.014": 0.462075703886,
			"-0.013": 1.13271921353,
			"-0.012": 0.660111731396,
			"-0.011": 0.717763117156,
			"-0.01": 1.70627310355,
			"-0.009": 3.6605981713,
			"-0.008": 8.51239154505,
			"-0.007": 18.0085880956,
			"-0.006": 18.8917255076,
			"-0.005": 16.1737739636,
			"-0.004": 16.0654174497,
			"-0.003": 16.1426175692,
			"-0.002": 15.6140729359,
			"-0.001": 14.5776598334,
			"0.0": 14.3490344118,
			"0.001": 14.7702509008,
			"0.002": 14.2937332757,
			"0.003": 7.04805566276,
			"0.004": 5.72605273021,
			"0.005": 5.52519988374,
			"0.006": 4.71054457822,
			"0.007": 4.43538511014,
			"0.008": 4.78205875432,
			"0.009": 5.66996833116,
			"0.01": 6.00411866601,
			"0.011": 6.48641794289,
			"0.012": 9.2705529124,
			"0.013": 5.01897149398,
			"0.014": 2.0011766884,
			"0.015": 1.05225525793,
			"0.016": 0.771787763948,
			"0.017": 0.258856595479,
			"0.018": 0.0,
			"0.019": 0.0,
			"0.02": 0.0,
			"0.021": 0.0,
			"0.022": 0.0,
			"0.023": 0.0,
			"0.024": 0.0,
			"0.025": 0.0
		}
	}
}
