{
	 "smiles": "COC1=CC=C(C=C1)N1CCC(=O)CC1", 
	 "Tm": 340.15, 
	 "num_atms": 30, 
	 "gaussian": { 
		 "optdone": 1, 
		 "sigma_profile": "yes", 
		 "theory": "DFT", 
		 "functional": "B3LYP", 
		 "basiset": "6-31G**", 
		 "properties": { 
			 "R2extent": 4826.9477, 
			 "electric_dipole_moment_norm": 2.14193221181, 
			 "electric_quadrupole_moment_norm": 17.5089545259, 
			 "total_energy": -671.490878766, 
			 "HOMO_LUMO_gap": 0.15758, 
			 "cosmo_polarized_energy": -12.24, 
			 "cosmo_cavitation_energy": 31.93, 
			 "cosmo_dispersion_energy": -23.68, 
			 "cosmo_repulsion_energy": 1.84, 
			 "cosmo_total_nonelectrostatic_energy": 10.1, 
			 "SMD_solvation_energy": 5.49 
		},
		"coords": [
			{
				"x": -2.1776739619,
				"y": 4.6637456954,
				"z": -0.9617605333,
				"element": "C" 
			},
			{
				"x": -1.4773922501,
				"y": 4.2398453026,
				"z": 0.1924979954,
				"element": "O" 
			},
			{
				"x": -0.9560124502,
				"y": 2.9709824223,
				"z": 0.194199218,
				"element": "C" 
			},
			{
				"x": -1.0576261639,
				"y": 2.0575453973,
				"z": -0.8570532722,
				"element": "C" 
			},
			{
				"x": -0.4919217706,
				"y": 0.7839405111,
				"z": -0.7449072626,
				"element": "C" 
			},
			{
				"x": 0.2041168911,
				"y": 0.3857951188,
				"z": 0.4109733174,
				"element": "C" 
			},
			{
				"x": 0.30307639,
				"y": 1.3282070238,
				"z": 1.4602132055,
				"element": "C" 
			},
			{
				"x": -0.2707568039,
				"y": 2.5877508185,
				"z": 1.3537772707,
				"element": "C" 
			},
			{
				"x": 0.7822736359,
				"y": -0.8817591268,
				"z": 0.5205543645,
				"element": "N" 
			},
			{
				"x": 1.1045261449,
				"y": -1.4361630163,
				"z": 1.8317359182,
				"element": "C" 
			},
			{
				"x": 1.0166845521,
				"y": -2.9687220828,
				"z": 1.8388130337,
				"element": "C" 
			},
			{
				"x": 1.8773028489,
				"y": -3.6094964109,
				"z": 0.7604023743,
				"element": "C" 
			},
			{
				"x": 2.3468129584,
				"y": -4.7248357838,
				"z": 0.8650299289,
				"element": "O" 
			},
			{
				"x": 2.0975337544,
				"y": -2.730495207,
				"z": -0.4619418305,
				"element": "C" 
			},
			{
				"x": 0.970952852,
				"y": -1.7089726305,
				"z": -0.6639368222,
				"element": "C" 
			},
			{
				"x": -3.060356768,
				"y": 4.0392437043,
				"z": -1.1567425997,
				"element": "H" 
			},
			{
				"x": -1.5364755872,
				"y": 4.6579373297,
				"z": -1.8539600131,
				"element": "H" 
			},
			{
				"x": -2.5022448809,
				"y": 5.6868039034,
				"z": -0.7630297496,
				"element": "H" 
			},
			{
				"x": -1.5854638581,
				"y": 2.3118562387,
				"z": -1.7690213773,
				"element": "H" 
			},
			{
				"x": -0.6235394894,
				"y": 0.0928740383,
				"z": -1.5695930373,
				"element": "H" 
			},
			{
				"x": 0.855483666,
				"y": 1.0862089115,
				"z": 2.3611608323,
				"element": "H" 
			},
			{
				"x": -0.1842913693,
				"y": 3.3034796413,
				"z": 2.165255214,
				"element": "H" 
			},
			{
				"x": 2.1084201227,
				"y": -1.1284714151,
				"z": 2.1709786404,
				"element": "H" 
			},
			{
				"x": 0.3950384982,
				"y": -1.0419837497,
				"z": 2.5668753411,
				"element": "H" 
			},
			{
				"x": -0.0221369773,
				"y": -3.2738563008,
				"z": 1.6478938243,
				"element": "H" 
			},
			{
				"x": 1.2981925252,
				"y": -3.3795390192,
				"z": 2.8123395625,
				"element": "H" 
			},
			{
				"x": 3.047618175,
				"y": -2.1982791402,
				"z": -0.3120351534,
				"element": "H" 
			},
			{
				"x": 2.2220547603,
				"y": -3.3673855885,
				"z": -1.3422097935,
				"element": "H" 
			},
			{
				"x": 0.0454977415,
				"y": -2.2380409169,
				"z": -0.9530715822,
				"element": "H" 
			},
			{
				"x": 1.2312068142,
				"y": -1.0597156683,
				"z": -1.5067370144,
				"element": "H" 
			}
		],
		 "valence_orbital": [ 
			{
				"type": "occ",
				"energy": -0.31778,
				"method": "rhf"
			},
			{
				"type": "occ",
				"energy": -0.2557,
				"method": "rhf"
			},
			{
				"type": "occ",
				"energy": -0.24507,
				"method": "rhf"
			},
			{
				"type": "occ",
				"energy": -0.24385,
				"method": "rhf"
			},
			{
				"type": "occ",
				"energy": -0.17735,
				"method": "rhf"
			},
			{
				"type": "unocc",
				"energy": -0.01977,
				"method": "rhf"
			},
			{
				"type": "unocc",
				"energy": 0.002,
				"method": "rhf"
			},
			{
				"type": "unocc",
				"energy": 0.03105,
				"method": "rhf"
			},
			{
				"type": "unocc",
				"energy": 0.07343,
				"method": "rhf"
			},
			{
				"type": "unocc",
				"energy": 0.09579,
				"method": "rhf"
			}
		],
		"cosmo_sigma_profile": { 
			"-0.025": 0.0,
			"-0.024": 0.0,
			"-0.023": 0.0,
			"-0.022": 0.0,
			"-0.021": 0.0,
			"-0.02": 0.0,
			"-0.019": 0.0,
			"-0.018": 0.0,
			"-0.017": 0.0,
			"-0.016": 0.0,
			"-0.015": 0.0,
			"-0.014": 0.0,
			"-0.013": 0.0,
			"-0.012": 0.0,
			"-0.011": 0.0,
			"-0.01": 0.0,
			"-0.009": 0.0,
			"-0.008": 0.0,
			"-0.007": 2.37515765578,
			"-0.006": 11.0068514281,
			"-0.005": 28.5052964349,
			"-0.004": 37.5110838053,
			"-0.003": 36.567254459,
			"-0.002": 21.5751044775,
			"-0.001": 11.9569526371,
			"0.0": 8.94585787305,
			"0.001": 8.33320814448,
			"0.002": 7.96554022335,
			"0.003": 9.7628034647,
			"0.004": 8.9389749307,
			"0.005": 13.6113583556,
			"0.006": 12.8003204583,
			"0.007": 9.56531638285,
			"0.008": 2.63884542042,
			"0.009": 2.94492859453,
			"0.01": 3.65448326583,
			"0.011": 4.699605317,
			"0.012": 4.9349303721,
			"0.013": 2.82674296806,
			"0.014": 0.289075622244,
			"0.015": 0.0,
			"0.016": 0.0,
			"0.017": 0.0,
			"0.018": 0.0,
			"0.019": 0.0,
			"0.02": 0.0,
			"0.021": 0.0,
			"0.022": 0.0,
			"0.023": 0.0,
			"0.024": 0.0,
			"0.025": 0.0
		}
	}
}
