{
	 "smiles": "O=C1CCCCC2=CNC=C12", 
	 "Tm": 338.15, 
	 "num_atms": 22, 
	 "gaussian": { 
		 "optdone": 1, 
		 "sigma_profile": "yes", 
		 "theory": "DFT", 
		 "functional": "B3LYP", 
		 "basiset": "6-31G**", 
		 "properties": { 
			 "R2extent": 2359.9644, 
			 "electric_dipole_moment_norm": 4.16142535557, 
			 "electric_quadrupole_moment_norm": 22.5310855335, 
			 "total_energy": -479.562219647, 
			 "HOMO_LUMO_gap": 0.19812, 
			 "cosmo_polarized_energy": -12.79, 
			 "cosmo_cavitation_energy": 23.87, 
			 "cosmo_dispersion_energy": -18.04, 
			 "cosmo_repulsion_energy": 1.45, 
			 "cosmo_total_nonelectrostatic_energy": 7.29, 
			 "SMD_solvation_energy": 4.38 
		},
		"coords": [
			{
				"x": -2.0795762781,
				"y": -1.3519506939,
				"z": -1.5713575335,
				"element": "O" 
			},
			{
				"x": -1.3813157917,
				"y": -1.0564641398,
				"z": -0.6074097809,
				"element": "C" 
			},
			{
				"x": -0.9096078299,
				"y": 0.3839260592,
				"z": -0.4001987539,
				"element": "C" 
			},
			{
				"x": 0.5963583469,
				"y": 0.4926897611,
				"z": -0.0671134157,
				"element": "C" 
			},
			{
				"x": 0.9624825036,
				"y": 0.3798871865,
				"z": 1.4294116859,
				"element": "C" 
			},
			{
				"x": 0.0712727015,
				"y": -0.5703726625,
				"z": 2.2611014345,
				"element": "C" 
			},
			{
				"x": -0.2406481574,
				"y": -1.8866987491,
				"z": 1.6086197397,
				"element": "C" 
			},
			{
				"x": -0.0068828843,
				"y": -3.142752016,
				"z": 2.1181719496,
				"element": "C" 
			},
			{
				"x": -0.5188286962,
				"y": -4.0724062545,
				"z": 1.2301165908,
				"element": "N" 
			},
			{
				"x": -1.0805850417,
				"y": -3.4383023752,
				"z": 0.1650810298,
				"element": "C" 
			},
			{
				"x": -0.9269875778,
				"y": -2.0724652414,
				"z": 0.3550051763,
				"element": "C" 
			},
			{
				"x": -1.146925569,
				"y": 0.9129321777,
				"z": -1.3269518639,
				"element": "H" 
			},
			{
				"x": -1.5130586791,
				"y": 0.8495112593,
				"z": 0.3920139027,
				"element": "H" 
			},
			{
				"x": 1.129202976,
				"y": -0.2806261148,
				"z": -0.6325941358,
				"element": "H" 
			},
			{
				"x": 0.9739700984,
				"y": 1.4498039052,
				"z": -0.4439444154,
				"element": "H" 
			},
			{
				"x": 0.909503581,
				"y": 1.3722819637,
				"z": 1.8946942577,
				"element": "H" 
			},
			{
				"x": 2.0079989111,
				"y": 0.0593522828,
				"z": 1.5083669534,
				"element": "H" 
			},
			{
				"x": -0.8746612579,
				"y": -0.0568667864,
				"z": 2.4808496114,
				"element": "H" 
			},
			{
				"x": 0.5445552027,
				"y": -0.7440283424,
				"z": 3.2342354135,
				"element": "H" 
			},
			{
				"x": 0.4642871775,
				"y": -3.4517329273,
				"z": 3.0399314599,
				"element": "H" 
			},
			{
				"x": -0.4771428419,
				"y": -5.0718945832,
				"z": 1.3522189418,
				"element": "H" 
			},
			{
				"x": -1.5341108938,
				"y": -3.9698237088,
				"z": -0.6573482478,
				"element": "H" 
			}
		],
		 "valence_orbital": [ 
			{
				"type": "occ",
				"energy": -0.32119,
				"method": "rhf"
			},
			{
				"type": "occ",
				"energy": -0.3175,
				"method": "rhf"
			},
			{
				"type": "occ",
				"energy": -0.24017,
				"method": "rhf"
			},
			{
				"type": "occ",
				"energy": -0.22544,
				"method": "rhf"
			},
			{
				"type": "occ",
				"energy": -0.21619,
				"method": "rhf"
			},
			{
				"type": "unocc",
				"energy": -0.01807,
				"method": "rhf"
			},
			{
				"type": "unocc",
				"energy": 0.04127,
				"method": "rhf"
			},
			{
				"type": "unocc",
				"energy": 0.07181,
				"method": "rhf"
			},
			{
				"type": "unocc",
				"energy": 0.08476,
				"method": "rhf"
			},
			{
				"type": "unocc",
				"energy": 0.10908,
				"method": "rhf"
			}
		],
		"cosmo_sigma_profile": { 
			"-0.025": 0.0,
			"-0.024": 0.0,
			"-0.023": 0.0,
			"-0.022": 0.0,
			"-0.021": 0.0,
			"-0.02": 0.0,
			"-0.019": 0.0,
			"-0.018": 0.0,
			"-0.017": 0.0288005039615,
			"-0.016": 1.4472704925,
			"-0.015": 1.35999327493,
			"-0.014": 1.58468811331,
			"-0.013": 1.29008075851,
			"-0.012": 1.09218292678,
			"-0.011": 1.25930207642,
			"-0.01": 1.08525346846,
			"-0.009": 1.09670731045,
			"-0.008": 2.8434522137,
			"-0.007": 4.94588257724,
			"-0.006": 3.55940977655,
			"-0.005": 5.6517880401,
			"-0.004": 8.88226296735,
			"-0.003": 16.6750951156,
			"-0.002": 22.9531265387,
			"-0.001": 23.937042772,
			"0.0": 18.7233370577,
			"0.001": 11.3428658317,
			"0.002": 7.67912400431,
			"0.003": 5.91356070991,
			"0.004": 7.21655703243,
			"0.005": 8.69771872734,
			"0.006": 7.02710232067,
			"0.007": 2.80667854396,
			"0.008": 2.40672915664,
			"0.009": 1.62245767371,
			"0.01": 0.89230606416,
			"0.011": 2.17113040435,
			"0.012": 2.87953746144,
			"0.013": 4.28735729721,
			"0.014": 3.34690276854,
			"0.015": 0.721487186412,
			"0.016": 0.0,
			"0.017": 0.0,
			"0.018": 0.0,
			"0.019": 0.0,
			"0.02": 0.0,
			"0.021": 0.0,
			"0.022": 0.0,
			"0.023": 0.0,
			"0.024": 0.0,
			"0.025": 0.0
		}
	}
}
