{
	 "smiles": "OC1=CC(F)=C(Cl)C=C1", 
	 "Tm": 325.15, 
	 "num_atms": 13, 
	 "gaussian": { 
		 "optdone": 1, 
		 "sigma_profile": "yes", 
		 "theory": "DFT", 
		 "functional": "B3LYP", 
		 "basiset": "6-31G**", 
		 "properties": { 
			 "R2extent": 2227.3706, 
			 "electric_dipole_moment_norm": 3.54839563042, 
			 "electric_quadrupole_moment_norm": 11.4538219263, 
			 "total_energy": -866.290421984, 
			 "HOMO_LUMO_gap": 0.21183, 
			 "cosmo_polarized_energy": -8.73, 
			 "cosmo_cavitation_energy": 19.71, 
			 "cosmo_dispersion_energy": -14.86, 
			 "cosmo_repulsion_energy": 1.2, 
			 "cosmo_total_nonelectrostatic_energy": 6.05, 
			 "SMD_solvation_energy": 4.05 
		},
		"coords": [
			{
				"x": 0.4709062467,
				"y": 1.8516611563,
				"z": 1.2361603026,
				"element": "O" 
			},
			{
				"x": 0.6467137733,
				"y": 0.504364389,
				"z": 1.1341400827,
				"element": "C" 
			},
			{
				"x": 0.4647983279,
				"y": -0.0664504115,
				"z": -0.1295721233,
				"element": "C" 
			},
			{
				"x": 0.6328461365,
				"y": -1.4346459485,
				"z": -0.2829409129,
				"element": "C" 
			},
			{
				"x": 0.4567002364,
				"y": -1.97468883,
				"z": -1.4977640821,
				"element": "F" 
			},
			{
				"x": 0.9792157662,
				"y": -2.2555995384,
				"z": 0.7940223517,
				"element": "C" 
			},
			{
				"x": 1.1803757215,
				"y": -3.9744406928,
				"z": 0.5546918409,
				"element": "Cl" 
			},
			{
				"x": 1.1579724074,
				"y": -1.6762402529,
				"z": 2.0485404717,
				"element": "C" 
			},
			{
				"x": 0.9938534827,
				"y": -0.3029747896,
				"z": 2.2240677099,
				"element": "C" 
			},
			{
				"x": 0.6224560506,
				"y": 2.1260697709,
				"z": 2.1498298681,
				"element": "H" 
			},
			{
				"x": 0.1960698868,
				"y": 0.5470254295,
				"z": -0.9811457908,
				"element": "H" 
			},
			{
				"x": 1.4268052037,
				"y": -2.3067798139,
				"z": 2.8888928364,
				"element": "H" 
			},
			{
				"x": 1.1362867603,
				"y": 0.136199532,
				"z": 3.208077445,
				"element": "H" 
			}
		],
		 "valence_orbital": [ 
			{
				"type": "occ",
				"energy": -0.36723,
				"method": "rhf"
			},
			{
				"type": "occ",
				"energy": -0.31623,
				"method": "rhf"
			},
			{
				"type": "occ",
				"energy": -0.31503,
				"method": "rhf"
			},
			{
				"type": "occ",
				"energy": -0.26294,
				"method": "rhf"
			},
			{
				"type": "occ",
				"energy": -0.22999,
				"method": "rhf"
			},
			{
				"type": "unocc",
				"energy": -0.01816,
				"method": "rhf"
			},
			{
				"type": "unocc",
				"energy": -0.00235,
				"method": "rhf"
			},
			{
				"type": "unocc",
				"energy": 0.02313,
				"method": "rhf"
			},
			{
				"type": "unocc",
				"energy": 0.0587,
				"method": "rhf"
			},
			{
				"type": "unocc",
				"energy": 0.10568,
				"method": "rhf"
			}
		],
		"cosmo_sigma_profile": { 
			"-0.025": 0.0,
			"-0.024": 0.0,
			"-0.023": 0.0,
			"-0.022": 0.0,
			"-0.021": 0.0,
			"-0.02": 0.0,
			"-0.019": 0.204553866217,
			"-0.018": 0.914749782267,
			"-0.017": 1.46236452328,
			"-0.016": 0.954435059185,
			"-0.015": 0.991893613622,
			"-0.014": 0.945741533831,
			"-0.013": 0.713908305023,
			"-0.012": 1.12324901235,
			"-0.011": 1.08072254793,
			"-0.01": 1.14933567898,
			"-0.009": 1.16795367444,
			"-0.008": 3.80939150084,
			"-0.007": 4.9657006204,
			"-0.006": 5.02546594543,
			"-0.005": 5.88101246545,
			"-0.004": 3.95738508182,
			"-0.003": 4.87798946911,
			"-0.002": 5.87499491495,
			"-0.001": 8.1817558667,
			"0.0": 11.9997623371,
			"0.001": 16.0927836201,
			"0.002": 22.1162363249,
			"0.003": 19.7054906236,
			"0.004": 19.6068172086,
			"0.005": 9.08486585463,
			"0.006": 1.68899190676,
			"0.007": 0.672994891369,
			"0.008": 1.75066817864,
			"0.009": 1.92546989397,
			"0.01": 1.44683463057,
			"0.011": 1.22551685291,
			"0.012": 0.0,
			"0.013": 0.0,
			"0.014": 0.0,
			"0.015": 0.0,
			"0.016": 0.0,
			"0.017": 0.0,
			"0.018": 0.0,
			"0.019": 0.0,
			"0.02": 0.0,
			"0.021": 0.0,
			"0.022": 0.0,
			"0.023": 0.0,
			"0.024": 0.0,
			"0.025": 0.0
		}
	}
}
