{
	 "smiles": "COC(=O)C1=C(C)N=C(N)S1", 
	 "Tm": 445.15, 
	 "num_atms": 19, 
	 "gaussian": { 
		 "optdone": 1, 
		 "sigma_profile": "yes", 
		 "theory": "DFT", 
		 "functional": "B3LYP", 
		 "basiset": "6-31G**", 
		 "properties": { 
			 "R2extent": 2560.0288, 
			 "electric_dipole_moment_norm": 3.37307964033, 
			 "electric_quadrupole_moment_norm": 11.4928448963, 
			 "total_energy": -891.612607891, 
			 "HOMO_LUMO_gap": 0.17757, 
			 "cosmo_polarized_energy": -13.27, 
			 "cosmo_cavitation_energy": 24.96, 
			 "cosmo_dispersion_energy": -19.11, 
			 "cosmo_repulsion_energy": 1.52, 
			 "cosmo_total_nonelectrostatic_energy": 7.37, 
			 "SMD_solvation_energy": 4.2 
		},
		"coords": [
			{
				"x": 1.0483151914,
				"y": 1.5666763609,
				"z": 3.1755396878,
				"element": "C" 
			},
			{
				"x": 0.1175133397,
				"y": 0.7882164748,
				"z": 2.4111426468,
				"element": "O" 
			},
			{
				"x": 0.6361016183,
				"y": 0.1808526198,
				"z": 1.309123512,
				"element": "C" 
			},
			{
				"x": 1.8081208146,
				"y": 0.2866186607,
				"z": 0.9901185141,
				"element": "O" 
			},
			{
				"x": -0.3877153149,
				"y": -0.5826798918,
				"z": 0.6014257839,
				"element": "C" 
			},
			{
				"x": -0.2693304956,
				"y": -1.3386187689,
				"z": -0.5485849218,
				"element": "C" 
			},
			{
				"x": 0.9785634215,
				"y": -1.5419657663,
				"z": -1.3530074355,
				"element": "C" 
			},
			{
				"x": -1.4182981544,
				"y": -1.9596850732,
				"z": -0.9736630996,
				"element": "N" 
			},
			{
				"x": -2.423616251,
				"y": -1.6919665911,
				"z": -0.176929504,
				"element": "C" 
			},
			{
				"x": -3.6919313126,
				"y": -2.144385291,
				"z": -0.4086113253,
				"element": "N" 
			},
			{
				"x": -2.0555400488,
				"y": -0.6425708341,
				"z": 1.183592285,
				"element": "S" 
			},
			{
				"x": 0.4748585253,
				"y": 1.9765866959,
				"z": 4.0070375949,
				"element": "H" 
			},
			{
				"x": 1.8647270439,
				"y": 0.9406381976,
				"z": 3.5448717523,
				"element": "H" 
			},
			{
				"x": 1.4704974158,
				"y": 2.3711705663,
				"z": 2.5678013994,
				"element": "H" 
			},
			{
				"x": 1.8227151242,
				"y": -1.0155004866,
				"z": -0.9118410609,
				"element": "H" 
			},
			{
				"x": 1.2032736099,
				"y": -2.6121858196,
				"z": -1.4190054191,
				"element": "H" 
			},
			{
				"x": 0.8170804247,
				"y": -1.1871124762,
				"z": -2.3769614389,
				"element": "H" 
			},
			{
				"x": -4.3316438811,
				"y": -2.213354982,
				"z": 0.3677625051,
				"element": "H" 
			},
			{
				"x": -3.7535910708,
				"y": -2.8814335953,
				"z": -1.0973114762,
				"element": "H" 
			}
		],
		 "valence_orbital": [ 
			{
				"type": "occ",
				"energy": -0.2965,
				"method": "rhf"
			},
			{
				"type": "occ",
				"energy": -0.27646,
				"method": "rhf"
			},
			{
				"type": "occ",
				"energy": -0.27463,
				"method": "rhf"
			},
			{
				"type": "occ",
				"energy": -0.26772,
				"method": "rhf"
			},
			{
				"type": "occ",
				"energy": -0.21574,
				"method": "rhf"
			},
			{
				"type": "unocc",
				"energy": -0.03817,
				"method": "rhf"
			},
			{
				"type": "unocc",
				"energy": 0.00923,
				"method": "rhf"
			},
			{
				"type": "unocc",
				"energy": 0.03259,
				"method": "rhf"
			},
			{
				"type": "unocc",
				"energy": 0.0682,
				"method": "rhf"
			},
			{
				"type": "unocc",
				"energy": 0.09998,
				"method": "rhf"
			}
		],
		"cosmo_sigma_profile": { 
			"-0.025": 0.0,
			"-0.024": 0.0,
			"-0.023": 0.0,
			"-0.022": 0.0,
			"-0.021": 0.0,
			"-0.02": 0.0,
			"-0.019": 0.0,
			"-0.018": 0.0,
			"-0.017": 0.0,
			"-0.016": 0.300018813492,
			"-0.015": 1.51088008777,
			"-0.014": 2.8561644244,
			"-0.013": 2.6532590827,
			"-0.012": 2.38257618241,
			"-0.011": 2.32588604831,
			"-0.01": 2.48308438121,
			"-0.009": 2.0251652799,
			"-0.008": 1.31787917445,
			"-0.007": 2.00631584273,
			"-0.006": 6.22577922223,
			"-0.005": 10.4908514422,
			"-0.004": 13.1426163191,
			"-0.003": 13.8773892721,
			"-0.002": 11.6600165397,
			"-0.001": 14.6398356371,
			"0.0": 16.3417569049,
			"0.001": 16.7668979375,
			"0.002": 17.2595941154,
			"0.003": 12.1336046913,
			"0.004": 10.3726409087,
			"0.005": 7.33318960794,
			"0.006": 6.17651524885,
			"0.007": 4.05055813372,
			"0.008": 4.06527367244,
			"0.009": 2.92846318937,
			"0.01": 2.70765659041,
			"0.011": 3.25560483068,
			"0.012": 4.38085911922,
			"0.013": 1.36214868508,
			"0.014": 0.983219987246,
			"0.015": 0.44738278251,
			"0.016": 0.0,
			"0.017": 0.0,
			"0.018": 0.0,
			"0.019": 0.0,
			"0.02": 0.0,
			"0.021": 0.0,
			"0.022": 0.0,
			"0.023": 0.0,
			"0.024": 0.0,
			"0.025": 0.0
		}
	}
}
