{
	 "smiles": "O=CC1=CN=C(S1)C1=CN=CC=C1", 
	 "Tm": 413.15, 
	 "num_atms": 19, 
	 "gaussian": { 
		 "optdone": 1, 
		 "sigma_profile": "yes", 
		 "theory": "DFT", 
		 "functional": "B3LYP", 
		 "basiset": "6-31G**", 
		 "properties": { 
			 "R2extent": 3330.857, 
			 "electric_dipole_moment_norm": 2.38763737196, 
			 "electric_quadrupole_moment_norm": 15.880425079, 
			 "total_energy": -929.462662305, 
			 "HOMO_LUMO_gap": 0.15164, 
			 "cosmo_polarized_energy": -10.75, 
			 "cosmo_cavitation_energy": 26.18, 
			 "cosmo_dispersion_energy": -19.75, 
			 "cosmo_repulsion_energy": 1.48, 
			 "cosmo_total_nonelectrostatic_energy": 7.91, 
			 "SMD_solvation_energy": 2.69 
		},
		"coords": [
			{
				"x": -2.7571732816,
				"y": -4.308493691,
				"z": 0.8041064465,
				"element": "O" 
			},
			{
				"x": -2.013408124,
				"y": -3.5137532379,
				"z": 1.3509482601,
				"element": "C" 
			},
			{
				"x": -1.4134503424,
				"y": -2.3728796651,
				"z": 0.6536257854,
				"element": "C" 
			},
			{
				"x": -1.5796490785,
				"y": -2.0249466739,
				"z": -0.6701454443,
				"element": "C" 
			},
			{
				"x": -0.9174484816,
				"y": -0.9173145256,
				"z": -1.0934085632,
				"element": "N" 
			},
			{
				"x": -0.2189703716,
				"y": -0.3706238168,
				"z": -0.1196159396,
				"element": "C" 
			},
			{
				"x": -0.346371808,
				"y": -1.2202116183,
				"z": 1.4158593256,
				"element": "S" 
			},
			{
				"x": 0.5917631276,
				"y": 0.8359828934,
				"z": -0.2964703423,
				"element": "C" 
			},
			{
				"x": 1.3341983957,
				"y": 1.4128686308,
				"z": 0.7480348358,
				"element": "C" 
			},
			{
				"x": 2.0807390934,
				"y": 2.510074139,
				"z": 0.6169073377,
				"element": "N" 
			},
			{
				"x": 2.1179087934,
				"y": 3.0901742075,
				"z": -0.5900735241,
				"element": "C" 
			},
			{
				"x": 1.4207834415,
				"y": 2.6048084605,
				"z": -1.6995071638,
				"element": "C" 
			},
			{
				"x": 0.6457658674,
				"y": 1.4613364232,
				"z": -1.5533569447,
				"element": "C" 
			},
			{
				"x": -1.7504266419,
				"y": -3.6156989537,
				"z": 2.424480345,
				"element": "H" 
			},
			{
				"x": -2.1998252245,
				"y": -2.5878620161,
				"z": -1.357580654,
				"element": "H" 
			},
			{
				"x": 1.3249411738,
				"y": 0.9651579583,
				"z": 1.7414861825,
				"element": "H" 
			},
			{
				"x": 2.7334493417,
				"y": 3.9837277879,
				"z": -0.6728462105,
				"element": "H" 
			},
			{
				"x": 1.487282278,
				"y": 3.1155776225,
				"z": -2.6547859077,
				"element": "H" 
			},
			{
				"x": 0.0833918418,
				"y": 1.0394760754,
				"z": -2.3791578244,
				"element": "H" 
			}
		],
		 "valence_orbital": [ 
			{
				"type": "occ",
				"energy": -0.30029,
				"method": "rhf"
			},
			{
				"type": "occ",
				"energy": -0.29345,
				"method": "rhf"
			},
			{
				"type": "occ",
				"energy": -0.27089,
				"method": "rhf"
			},
			{
				"type": "occ",
				"energy": -0.26651,
				"method": "rhf"
			},
			{
				"type": "occ",
				"energy": -0.24692,
				"method": "rhf"
			},
			{
				"type": "unocc",
				"energy": -0.09528,
				"method": "rhf"
			},
			{
				"type": "unocc",
				"energy": -0.04487,
				"method": "rhf"
			},
			{
				"type": "unocc",
				"energy": -0.0329,
				"method": "rhf"
			},
			{
				"type": "unocc",
				"energy": -0.00496,
				"method": "rhf"
			},
			{
				"type": "unocc",
				"energy": 0.0199,
				"method": "rhf"
			}
		],
		"cosmo_sigma_profile": { 
			"-0.025": 0.0,
			"-0.024": 0.0,
			"-0.023": 0.0,
			"-0.022": 0.0,
			"-0.021": 0.0,
			"-0.02": 0.0,
			"-0.019": 0.0,
			"-0.018": 0.0,
			"-0.017": 0.0,
			"-0.016": 0.0,
			"-0.015": 0.0,
			"-0.014": 0.0,
			"-0.013": 0.0,
			"-0.012": 0.0,
			"-0.011": 0.0,
			"-0.01": 0.00355150755968,
			"-0.009": 1.92372342702,
			"-0.008": 6.77002732517,
			"-0.007": 12.6439435703,
			"-0.006": 12.8143306308,
			"-0.005": 11.3997255202,
			"-0.004": 11.0366053952,
			"-0.003": 12.7089996908,
			"-0.002": 15.6703065272,
			"-0.001": 19.4581097644,
			"0.0": 27.8880904884,
			"0.001": 21.6182173517,
			"0.002": 11.3301984927,
			"0.003": 6.58129492557,
			"0.004": 5.20665393743,
			"0.005": 3.47238449123,
			"0.006": 3.23755306259,
			"0.007": 5.01546387306,
			"0.008": 4.79641191405,
			"0.009": 3.25575034098,
			"0.01": 5.0028288605,
			"0.011": 6.26820438719,
			"0.012": 3.07518268135,
			"0.013": 0.886091528553,
			"0.014": 0.93012862809,
			"0.015": 0.7960983523,
			"0.016": 0.508427428545,
			"0.017": 0.0,
			"0.018": 0.0,
			"0.019": 0.0,
			"0.02": 0.0,
			"0.021": 0.0,
			"0.022": 0.0,
			"0.023": 0.0,
			"0.024": 0.0,
			"0.025": 0.0
		}
	}
}
