{
	 "smiles": "[O-][N+](=O)C1=CC=C(C=C1)N1CCNCC1", 
	 "Tm": 404.15, 
	 "num_atms": 28, 
	 "gaussian": { 
		 "optdone": 1, 
		 "sigma_profile": "yes", 
		 "theory": "DFT", 
		 "functional": "B3LYP", 
		 "basiset": "6-31G**", 
		 "properties": { 
			 "R2extent": 5004.0727, 
			 "electric_dipole_moment_norm": 7.93734121353, 
			 "electric_quadrupole_moment_norm": 30.6925716629, 
			 "total_energy": -703.486208891, 
			 "HOMO_LUMO_gap": 0.14553, 
			 "cosmo_polarized_energy": -15.47, 
			 "cosmo_cavitation_energy": 30.4, 
			 "cosmo_dispersion_energy": -22.79, 
			 "cosmo_repulsion_energy": 1.76, 
			 "cosmo_total_nonelectrostatic_energy": 9.37, 
			 "SMD_solvation_energy": 3.77 
		},
		"coords": [
			{
				"x": -4.2722094695,
				"y": 3.0238937256,
				"z": -1.0767276485,
				"element": "O" 
			},
			{
				"x": -4.2168829817,
				"y": 1.8001896484,
				"z": -1.2357136219,
				"element": "N" 
			},
			{
				"x": -5.1958443719,
				"y": 1.0877936255,
				"z": -1.4807072374,
				"element": "O" 
			},
			{
				"x": -2.9183112263,
				"y": 1.1580727338,
				"z": -1.1274453338,
				"element": "C" 
			},
			{
				"x": -1.7839676196,
				"y": 1.9288442389,
				"z": -0.8634552597,
				"element": "C" 
			},
			{
				"x": -0.5450056336,
				"y": 1.3193046974,
				"z": -0.7619639453,
				"element": "C" 
			},
			{
				"x": -0.403602157,
				"y": -0.0855367622,
				"z": -0.9164631104,
				"element": "C" 
			},
			{
				"x": -1.5773914233,
				"y": -0.8392489055,
				"z": -1.1841969215,
				"element": "C" 
			},
			{
				"x": -2.813736136,
				"y": -0.2251254631,
				"z": -1.2893526306,
				"element": "C" 
			},
			{
				"x": 0.8237726254,
				"y": -0.6970838377,
				"z": -0.8117779152,
				"element": "N" 
			},
			{
				"x": 1.9913325448,
				"y": 0.0041482265,
				"z": -0.2708583701,
				"element": "C" 
			},
			{
				"x": 2.9454546512,
				"y": -0.9846076721,
				"z": 0.3991359369,
				"element": "C" 
			},
			{
				"x": 3.4549346059,
				"y": -1.9614441395,
				"z": -0.5714117008,
				"element": "N" 
			},
			{
				"x": 2.5061296548,
				"y": -2.2707383083,
				"z": -1.647051538,
				"element": "C" 
			},
			{
				"x": 1.0341926987,
				"y": -2.0761956998,
				"z": -1.2601443243,
				"element": "C" 
			},
			{
				"x": -1.8893255652,
				"y": 3.0013200105,
				"z": -0.7549428969,
				"element": "H" 
			},
			{
				"x": 0.3257569318,
				"y": 1.9405683632,
				"z": -0.5937448774,
				"element": "H" 
			},
			{
				"x": -1.5229818487,
				"y": -1.9164821027,
				"z": -1.2798475928,
				"element": "H" 
			},
			{
				"x": -3.7095492594,
				"y": -0.8020730998,
				"z": -1.4835880498,
				"element": "H" 
			},
			{
				"x": 2.5237430532,
				"y": 0.5686649505,
				"z": -1.0515657646,
				"element": "H" 
			},
			{
				"x": 1.6581987038,
				"y": 0.7211453809,
				"z": 0.48402597,
				"element": "H" 
			},
			{
				"x": 3.7829675441,
				"y": -0.4232098829,
				"z": 0.8315781147,
				"element": "H" 
			},
			{
				"x": 2.4052567897,
				"y": -1.453877353,
				"z": 1.2383360032,
				"element": "H" 
			},
			{
				"x": 3.7283215427,
				"y": -2.8102152028,
				"z": -0.0890367219,
				"element": "H" 
			},
			{
				"x": 2.6596817954,
				"y": -3.3026454017,
				"z": -1.9770068631,
				"element": "H" 
			},
			{
				"x": 2.7155005155,
				"y": -1.6311796935,
				"z": -2.5152493719,
				"element": "H" 
			},
			{
				"x": 0.4088853148,
				"y": -2.2682770971,
				"z": -2.1384367639,
				"element": "H" 
			},
			{
				"x": 0.7418787205,
				"y": -2.8013049794,
				"z": -0.4836875653,
				"element": "H" 
			}
		],
		 "valence_orbital": [ 
			{
				"type": "occ",
				"energy": -0.28725,
				"method": "rhf"
			},
			{
				"type": "occ",
				"energy": -0.2687,
				"method": "rhf"
			},
			{
				"type": "occ",
				"energy": -0.2671,
				"method": "rhf"
			},
			{
				"type": "occ",
				"energy": -0.23486,
				"method": "rhf"
			},
			{
				"type": "occ",
				"energy": -0.21218,
				"method": "rhf"
			},
			{
				"type": "unocc",
				"energy": -0.06665,
				"method": "rhf"
			},
			{
				"type": "unocc",
				"energy": -0.01555,
				"method": "rhf"
			},
			{
				"type": "unocc",
				"energy": 0.02608,
				"method": "rhf"
			},
			{
				"type": "unocc",
				"energy": 0.05531,
				"method": "rhf"
			},
			{
				"type": "unocc",
				"energy": 0.08317,
				"method": "rhf"
			}
		],
		"cosmo_sigma_profile": { 
			"-0.025": 0.0,
			"-0.024": 0.0,
			"-0.023": 0.0,
			"-0.022": 0.0,
			"-0.021": 0.0,
			"-0.02": 0.0,
			"-0.019": 0.0,
			"-0.018": 0.0,
			"-0.017": 0.0,
			"-0.016": 0.0,
			"-0.015": 0.0,
			"-0.014": 0.0,
			"-0.013": 0.0,
			"-0.012": 0.0,
			"-0.011": 0.234025144993,
			"-0.01": 1.48756852526,
			"-0.009": 1.39610997079,
			"-0.008": 1.29257632936,
			"-0.007": 6.30743286225,
			"-0.006": 12.7455443078,
			"-0.005": 17.5342580655,
			"-0.004": 29.7121173834,
			"-0.003": 29.2921955098,
			"-0.002": 18.0966149447,
			"-0.001": 15.4801203902,
			"0.0": 13.6226869984,
			"0.001": 12.2802093164,
			"0.002": 13.9816978824,
			"0.003": 14.8940693872,
			"0.004": 9.02099933603,
			"0.005": 2.6956693894,
			"0.006": 3.8663408636,
			"0.007": 4.3778796279,
			"0.008": 5.65546718657,
			"0.009": 11.0891150139,
			"0.01": 5.04484633317,
			"0.011": 4.73506662695,
			"0.012": 2.2935548086,
			"0.013": 0.548500505404,
			"0.014": 0.16567535133,
			"0.015": 0.599815901522,
			"0.016": 0.330725924034,
			"0.017": 0.682627031955,
			"0.018": 0.336786049159,
			"0.019": 0.0,
			"0.02": 0.0,
			"0.021": 0.0,
			"0.022": 0.0,
			"0.023": 0.0,
			"0.024": 0.0,
			"0.025": 0.0
		}
	}
}
