{
	 "smiles": "CC1=C(N)C=C(C=C1)C1=CC=CC=C1", 
	 "Tm": 332.15, 
	 "num_atms": 27, 
	 "gaussian": { 
		 "optdone": 1, 
		 "sigma_profile": "yes", 
		 "theory": "DFT", 
		 "functional": "B3LYP", 
		 "basiset": "6-31G**", 
		 "properties": { 
			 "R2extent": 3593.7298, 
			 "electric_dipole_moment_norm": 1.87211353822, 
			 "electric_quadrupole_moment_norm": 9.6897406601, 
			 "total_energy": -557.989173246, 
			 "HOMO_LUMO_gap": 0.17831, 
			 "cosmo_polarized_energy": -9.47, 
			 "cosmo_cavitation_energy": 29.99, 
			 "cosmo_dispersion_energy": -22.09, 
			 "cosmo_repulsion_energy": 1.72, 
			 "cosmo_total_nonelectrostatic_energy": 9.62, 
			 "SMD_solvation_energy": 4.77 
		},
		"coords": [
			{
				"x": -3.1449707509,
				"y": 2.3995303897,
				"z": -0.2757593445,
				"element": "C" 
			},
			{
				"x": -1.9697679552,
				"y": 1.4556313143,
				"z": -0.3183574103,
				"element": "C" 
			},
			{
				"x": -1.5702917962,
				"y": 0.7577610326,
				"z": 0.8445000081,
				"element": "C" 
			},
			{
				"x": -2.2422339979,
				"y": 0.9677896407,
				"z": 2.0544907016,
				"element": "N" 
			},
			{
				"x": -0.4674840824,
				"y": -0.1054434638,
				"z": 0.7912574384,
				"element": "C" 
			},
			{
				"x": 0.2610796318,
				"y": -0.2991380863,
				"z": -0.3901911723,
				"element": "C" 
			},
			{
				"x": -0.1438663492,
				"y": 0.3912103239,
				"z": -1.5429718787,
				"element": "C" 
			},
			{
				"x": -1.2407865251,
				"y": 1.2493817268,
				"z": -1.4914339056,
				"element": "C" 
			},
			{
				"x": 1.4291031191,
				"y": -1.2167806389,
				"z": -0.416837958,
				"element": "C" 
			},
			{
				"x": 2.3168642829,
				"y": -1.2931685877,
				"z": 0.6702471806,
				"element": "C" 
			},
			{
				"x": 3.4123693581,
				"y": -2.155357058,
				"z": 0.6437384367,
				"element": "C" 
			},
			{
				"x": 3.6476669926,
				"y": -2.9603980487,
				"z": -0.472449221,
				"element": "C" 
			},
			{
				"x": 2.775961645,
				"y": -2.8945484393,
				"z": -1.5611993937,
				"element": "C" 
			},
			{
				"x": 1.6794610061,
				"y": -2.0338688994,
				"z": -1.5328324604,
				"element": "C" 
			},
			{
				"x": -3.0132905238,
				"y": 3.1714447657,
				"z": 0.4928523751,
				"element": "H" 
			},
			{
				"x": -4.0868441483,
				"y": 1.8789861906,
				"z": -0.0480200476,
				"element": "H" 
			},
			{
				"x": -3.2806015699,
				"y": 2.9010217566,
				"z": -1.2373289906,
				"element": "H" 
			},
			{
				"x": -2.08386657,
				"y": 0.2520580426,
				"z": 2.7508831453,
				"element": "H" 
			},
			{
				"x": -3.2246780597,
				"y": 1.1900685563,
				"z": 1.9702798241,
				"element": "H" 
			},
			{
				"x": -0.1895547508,
				"y": -0.6568848001,
				"z": 1.686286874,
				"element": "H" 
			},
			{
				"x": 0.4167118535,
				"y": 0.2831029997,
				"z": -2.4658096333,
				"element": "H" 
			},
			{
				"x": -1.5372088147,
				"y": 1.7882734353,
				"z": -2.3884699484,
				"element": "H" 
			},
			{
				"x": 2.159250011,
				"y": -0.6504218249,
				"z": 1.5314332452,
				"element": "H" 
			},
			{
				"x": 4.0892342707,
				"y": -2.1907333992,
				"z": 1.4930438525,
				"element": "H" 
			},
			{
				"x": 4.5015958269,
				"y": -3.631399107,
				"z": -0.4939362874,
				"element": "H" 
			},
			{
				"x": 2.9444419357,
				"y": -3.521830657,
				"z": -2.4322982773,
				"element": "H" 
			},
			{
				"x": 0.9928059604,
				"y": -2.0089871646,
				"z": -2.3738171524,
				"element": "H" 
			}
		],
		 "valence_orbital": [ 
			{
				"type": "occ",
				"energy": -0.30369,
				"method": "rhf"
			},
			{
				"type": "occ",
				"energy": -0.2584,
				"method": "rhf"
			},
			{
				"type": "occ",
				"energy": -0.24413,
				"method": "rhf"
			},
			{
				"type": "occ",
				"energy": -0.21872,
				"method": "rhf"
			},
			{
				"type": "occ",
				"energy": -0.196,
				"method": "rhf"
			},
			{
				"type": "unocc",
				"energy": -0.01769,
				"method": "rhf"
			},
			{
				"type": "unocc",
				"energy": 0.00418,
				"method": "rhf"
			},
			{
				"type": "unocc",
				"energy": 0.0175,
				"method": "rhf"
			},
			{
				"type": "unocc",
				"energy": 0.041,
				"method": "rhf"
			},
			{
				"type": "unocc",
				"energy": 0.0774,
				"method": "rhf"
			}
		],
		"cosmo_sigma_profile": { 
			"-0.025": 0.0,
			"-0.024": 0.0,
			"-0.023": 0.0,
			"-0.022": 0.0,
			"-0.021": 0.0,
			"-0.02": 0.0,
			"-0.019": 0.0,
			"-0.018": 0.0,
			"-0.017": 0.0,
			"-0.016": 0.0,
			"-0.015": 0.0,
			"-0.014": 0.0,
			"-0.013": 0.0,
			"-0.012": 1.21306423881,
			"-0.011": 2.18874358238,
			"-0.01": 3.05119473338,
			"-0.009": 3.17143321585,
			"-0.008": 3.33277609033,
			"-0.007": 2.33002038308,
			"-0.006": 5.36800940128,
			"-0.005": 14.9962117382,
			"-0.004": 23.372953285,
			"-0.003": 22.6147088582,
			"-0.002": 16.9806216729,
			"-0.001": 16.2518430811,
			"0.0": 17.1434496867,
			"0.001": 15.21146925,
			"0.002": 11.2436218456,
			"0.003": 15.3827442812,
			"0.004": 16.4116210366,
			"0.005": 16.5384110608,
			"0.006": 17.8677506433,
			"0.007": 8.20807816714,
			"0.008": 1.31741241317,
			"0.009": 0.437552341799,
			"0.01": 0.687776026514,
			"0.011": 0.863893779488,
			"0.012": 0.407518899444,
			"0.013": 0.780512421462,
			"0.014": 0.52542338862,
			"0.015": 0.352036540567,
			"0.016": 0.0,
			"0.017": 0.0,
			"0.018": 0.0,
			"0.019": 0.0,
			"0.02": 0.0,
			"0.021": 0.0,
			"0.022": 0.0,
			"0.023": 0.0,
			"0.024": 0.0,
			"0.025": 0.0
		}
	}
}
