{
	 "smiles": "FC1=C(F)C(F)=C(OC(=O)C(CC2=CC=CC=C2)NC(=O)OCC2C3=C(C=CC=C3)C3=C2C=CC=C3)C(F)=C1F", 
	 "Tm": 425.15, 
	 "num_atms": 60, 
	 "gaussian": { 
		 "optdone": 1, 
		 "sigma_profile": "yes", 
		 "theory": "DFT", 
		 "functional": "B3LYP", 
		 "basiset": "6-31G**", 
		 "properties": { 
			 "R2extent": 23609.6135, 
			 "electric_dipole_moment_norm": 3.16460203027, 
			 "electric_quadrupole_moment_norm": 26.6728599747, 
			 "total_energy": -2010.06336636, 
			 "HOMO_LUMO_gap": 0.17648, 
			 "cosmo_polarized_energy": -20.04, 
			 "cosmo_cavitation_energy": 68.21, 
			 "cosmo_dispersion_energy": -42.26, 
			 "cosmo_repulsion_energy": 2.97, 
			 "cosmo_total_nonelectrostatic_energy": 28.92, 
			 "SMD_solvation_energy": 13.82 
		},
		"coords": [
			{
				"x": -0.2011525988,
				"y": -4.0263032727,
				"z": -5.982080806,
				"element": "F" 
			},
			{
				"x": -0.2830538356,
				"y": -3.8378942746,
				"z": -4.6637990138,
				"element": "C" 
			},
			{
				"x": -1.2573254919,
				"y": -4.5070245252,
				"z": -3.9237949921,
				"element": "C" 
			},
			{
				"x": -2.1077943388,
				"y": -5.3341315528,
				"z": -4.5372391489,
				"element": "F" 
			},
			{
				"x": -1.3474199217,
				"y": -4.3029706529,
				"z": -2.5479274388,
				"element": "C" 
			},
			{
				"x": -2.2960129812,
				"y": -4.9279433325,
				"z": -1.8459811104,
				"element": "F" 
			},
			{
				"x": -0.454931041,
				"y": -3.449024773,
				"z": -1.9033814376,
				"element": "C" 
			},
			{
				"x": -0.5106021273,
				"y": -3.2674874459,
				"z": -0.5367970761,
				"element": "O" 
			},
			{
				"x": -1.2450543944,
				"y": -2.1735415513,
				"z": -0.0954229738,
				"element": "C" 
			},
			{
				"x": -1.8832308607,
				"y": -1.4744729165,
				"z": -0.8312170764,
				"element": "O" 
			},
			{
				"x": -1.1034638308,
				"y": -2.0486982897,
				"z": 1.4234268701,
				"element": "C" 
			},
			{
				"x": 0.374554386,
				"y": -1.7831665543,
				"z": 1.8391418185,
				"element": "C" 
			},
			{
				"x": 0.5816401636,
				"y": -1.8917795351,
				"z": 3.3334225013,
				"element": "C" 
			},
			{
				"x": 0.8758639253,
				"y": -3.1290871745,
				"z": 3.9226489253,
				"element": "C" 
			},
			{
				"x": 1.0470581948,
				"y": -3.2413854723,
				"z": 5.302970561,
				"element": "C" 
			},
			{
				"x": 0.9271916486,
				"y": -2.1127648732,
				"z": 6.1161353321,
				"element": "C" 
			},
			{
				"x": 0.6373851402,
				"y": -0.8744708938,
				"z": 5.5401966131,
				"element": "C" 
			},
			{
				"x": 0.4654394125,
				"y": -0.7664892646,
				"z": 4.1596331455,
				"element": "C" 
			},
			{
				"x": -2.065315065,
				"y": -1.1129861975,
				"z": 1.9690552052,
				"element": "N" 
			},
			{
				"x": -2.2186955009,
				"y": 0.2269673694,
				"z": 1.6904412158,
				"element": "C" 
			},
			{
				"x": -3.218070222,
				"y": 0.8495818393,
				"z": 1.9924726478,
				"element": "O" 
			},
			{
				"x": -1.1209161354,
				"y": 0.7760349943,
				"z": 1.1091453805,
				"element": "O" 
			},
			{
				"x": -1.2541554745,
				"y": 2.190186057,
				"z": 0.8218985025,
				"element": "C" 
			},
			{
				"x": 0.1217377258,
				"y": 2.7575406738,
				"z": 0.4611163872,
				"element": "C" 
			},
			{
				"x": 0.1143445537,
				"y": 4.2816662837,
				"z": 0.475289367,
				"element": "C" 
			},
			{
				"x": 0.5552532029,
				"y": 4.7857636833,
				"z": -0.7645536127,
				"element": "C" 
			},
			{
				"x": 0.6388152745,
				"y": 6.1633272768,
				"z": -0.9779602364,
				"element": "C" 
			},
			{
				"x": 0.2758126869,
				"y": 7.0296074903,
				"z": 0.0558489199,
				"element": "C" 
			},
			{
				"x": -0.161981231,
				"y": 6.5285881099,
				"z": 1.2863667174,
				"element": "C" 
			},
			{
				"x": -0.2439620551,
				"y": 5.1478629161,
				"z": 1.502549494,
				"element": "C" 
			},
			{
				"x": 0.8672474968,
				"y": 3.6533495058,
				"z": -1.6456978209,
				"element": "C" 
			},
			{
				"x": 0.6155202966,
				"y": 2.4528543334,
				"z": -0.9479159649,
				"element": "C" 
			},
			{
				"x": 0.8348933441,
				"y": 1.2255889264,
				"z": -1.5637810328,
				"element": "C" 
			},
			{
				"x": 1.3094167352,
				"y": 1.199752492,
				"z": -2.8812085035,
				"element": "C" 
			},
			{
				"x": 1.5587738329,
				"y": 2.3905139589,
				"z": -3.5709198975,
				"element": "C" 
			},
			{
				"x": 1.3395817807,
				"y": 3.6265755707,
				"z": -2.9591776141,
				"element": "C" 
			},
			{
				"x": 0.5166638738,
				"y": -2.7881806671,
				"z": -2.6512421097,
				"element": "C" 
			},
			{
				"x": 1.3637675457,
				"y": -1.9509364515,
				"z": -2.0383731104,
				"element": "F" 
			},
			{
				"x": 0.6052039179,
				"y": -2.9723230117,
				"z": -4.0268570711,
				"element": "C" 
			},
			{
				"x": 1.529857801,
				"y": -2.3136023727,
				"z": -4.7335393217,
				"element": "F" 
			},
			{
				"x": -1.3686576324,
				"y": -3.030805354,
				"z": 1.8303517438,
				"element": "H" 
			},
			{
				"x": 0.6626128001,
				"y": -0.7931063933,
				"z": 1.481694633,
				"element": "H" 
			},
			{
				"x": 0.9949481985,
				"y": -2.5181614556,
				"z": 1.3189115702,
				"element": "H" 
			},
			{
				"x": 0.9805892473,
				"y": -4.010801905,
				"z": 3.2937672167,
				"element": "H" 
			},
			{
				"x": 1.2803566251,
				"y": -4.2074470008,
				"z": 5.7417443952,
				"element": "H" 
			},
			{
				"x": 1.0634832037,
				"y": -2.1970163224,
				"z": 7.1904181607,
				"element": "H" 
			},
			{
				"x": 0.5463911889,
				"y": 0.0090612366,
				"z": 6.1656386266,
				"element": "H" 
			},
			{
				"x": 0.2427153819,
				"y": 0.1989108302,
				"z": 3.7142354818,
				"element": "H" 
			},
			{
				"x": -2.9224520143,
				"y": -1.5029699185,
				"z": 2.3317288278,
				"element": "H" 
			},
			{
				"x": -1.9668937666,
				"y": 2.3237911627,
				"z": 0.0032935923,
				"element": "H" 
			},
			{
				"x": -1.6593950361,
				"y": 2.6824189692,
				"z": 1.7083527501,
				"element": "H" 
			},
			{
				"x": 0.8368891049,
				"y": 2.3805773183,
				"z": 1.2071080684,
				"element": "H" 
			},
			{
				"x": 0.979012623,
				"y": 6.5592237065,
				"z": -1.9308288922,
				"element": "H" 
			},
			{
				"x": 0.3344151277,
				"y": 8.1035603199,
				"z": -0.0967032117,
				"element": "H" 
			},
			{
				"x": -0.4396459671,
				"y": 7.2154981267,
				"z": 2.0804850816,
				"element": "H" 
			},
			{
				"x": -0.5816396354,
				"y": 4.7675217553,
				"z": 2.4633869844,
				"element": "H" 
			},
			{
				"x": 0.6373952127,
				"y": 0.2977542219,
				"z": -1.0398193304,
				"element": "H" 
			},
			{
				"x": 1.4888387861,
				"y": 0.2463752062,
				"z": -3.3678088308,
				"element": "H" 
			},
			{
				"x": 1.9279672964,
				"y": 2.3532613687,
				"z": -4.5919577532,
				"element": "H" 
			},
			{
				"x": 1.5356834217,
				"y": 4.5489577015,
				"z": -3.4989913489,
				"element": "H" 
			}
		],
		 "valence_orbital": [ 
			{
				"type": "occ",
				"energy": -0.2541,
				"method": "rhf"
			},
			{
				"type": "occ",
				"energy": -0.24952,
				"method": "rhf"
			},
			{
				"type": "occ",
				"energy": -0.24915,
				"method": "rhf"
			},
			{
				"type": "occ",
				"energy": -0.24306,
				"method": "rhf"
			},
			{
				"type": "occ",
				"energy": -0.21395,
				"method": "rhf"
			},
			{
				"type": "unocc",
				"energy": -0.03747,
				"method": "rhf"
			},
			{
				"type": "unocc",
				"energy": -0.03034,
				"method": "rhf"
			},
			{
				"type": "unocc",
				"energy": -0.02979,
				"method": "rhf"
			},
			{
				"type": "unocc",
				"energy": -0.02723,
				"method": "rhf"
			},
			{
				"type": "unocc",
				"energy": -0.01289,
				"method": "rhf"
			}
		],
		"cosmo_sigma_profile": { 
			"-0.025": 0.0,
			"-0.024": 0.0,
			"-0.023": 0.0,
			"-0.022": 0.0,
			"-0.021": 0.0,
			"-0.02": 0.0,
			"-0.019": 0.0,
			"-0.018": 0.0,
			"-0.017": 0.0,
			"-0.016": 0.0,
			"-0.015": 0.866113943513,
			"-0.014": 1.73299622906,
			"-0.013": 1.38598399902,
			"-0.012": 1.14001533664,
			"-0.011": 1.3961001711,
			"-0.01": 1.85262883834,
			"-0.009": 2.48846713874,
			"-0.008": 1.72078915818,
			"-0.007": 3.08694999648,
			"-0.006": 19.9486215888,
			"-0.005": 36.7360341052,
			"-0.004": 53.441583282,
			"-0.003": 50.6637272382,
			"-0.002": 42.5984550112,
			"-0.001": 40.5321416263,
			"0.0": 34.6709419056,
			"0.001": 39.339756916,
			"0.002": 67.5088226416,
			"0.003": 38.5702460205,
			"0.004": 30.0796128129,
			"0.005": 29.2168752028,
			"0.006": 23.4405290476,
			"0.007": 4.40420696915,
			"0.008": 3.54146482234,
			"0.009": 4.29005996184,
			"0.01": 2.33985834215,
			"0.011": 2.02144459273,
			"0.012": 3.46677616579,
			"0.013": 4.93289583849,
			"0.014": 0.280267553991,
			"0.015": 0.0,
			"0.016": 0.0,
			"0.017": 0.0,
			"0.018": 0.0,
			"0.019": 0.0,
			"0.02": 0.0,
			"0.021": 0.0,
			"0.022": 0.0,
			"0.023": 0.0,
			"0.024": 0.0,
			"0.025": 0.0
		}
	}
}
