{
	 "smiles": "O=CC1=CC=C(S1)C1=CC=CC=C1", 
	 "Tm": 364.15, 
	 "num_atms": 21, 
	 "gaussian": { 
		 "optdone": 1, 
		 "sigma_profile": "yes", 
		 "theory": "DFT", 
		 "functional": "B3LYP", 
		 "basiset": "6-31G**", 
		 "properties": { 
			 "R2extent": 3862.1971, 
			 "electric_dipole_moment_norm": 4.26928210124, 
			 "electric_quadrupole_moment_norm": 12.5000856777, 
			 "total_energy": -897.386512162, 
			 "HOMO_LUMO_gap": 0.15126, 
			 "cosmo_polarized_energy": -8.96, 
			 "cosmo_cavitation_energy": 27.4, 
			 "cosmo_dispersion_energy": -20.46, 
			 "cosmo_repulsion_energy": 1.55, 
			 "cosmo_total_nonelectrostatic_energy": 8.48, 
			 "SMD_solvation_energy": 5.34 
		},
		"coords": [
			{
				"x": 2.8712201341,
				"y": 0.1707070887,
				"z": -4.5968823951,
				"element": "O" 
			},
			{
				"x": 1.7245286487,
				"y": 0.4322844369,
				"z": -4.274003018,
				"element": "C" 
			},
			{
				"x": 1.181652845,
				"y": 0.1704526932,
				"z": -2.9423669776,
				"element": "C" 
			},
			{
				"x": 1.8381734629,
				"y": -0.3987392616,
				"z": -1.8699062364,
				"element": "C" 
			},
			{
				"x": 1.0263716006,
				"y": -0.5169201416,
				"z": -0.7212421895,
				"element": "C" 
			},
			{
				"x": -0.262463306,
				"y": -0.0409402592,
				"z": -0.9000070453,
				"element": "C" 
			},
			{
				"x": -0.4661179307,
				"y": 0.5742866855,
				"z": -2.5200143244,
				"element": "S" 
			},
			{
				"x": -1.3581352475,
				"y": -0.0102550858,
				"z": 0.0765782762,
				"element": "C" 
			},
			{
				"x": -1.0737831001,
				"y": 0.0494954621,
				"z": 1.4538552197,
				"element": "C" 
			},
			{
				"x": -2.1025151297,
				"y": 0.0651775894,
				"z": 2.3922855139,
				"element": "C" 
			},
			{
				"x": -3.4358834349,
				"y": 0.0322627753,
				"z": 1.9775301483,
				"element": "C" 
			},
			{
				"x": -3.7317413659,
				"y": -0.019199756,
				"z": 0.6138952853,
				"element": "C" 
			},
			{
				"x": -2.7051906803,
				"y": -0.0439423327,
				"z": -0.3272697549,
				"element": "C" 
			},
			{
				"x": 1.0169672175,
				"y": 0.8951686026,
				"z": -4.9955238728,
				"element": "H" 
			},
			{
				"x": 2.8699950033,
				"y": -0.7219559546,
				"z": -1.939811614,
				"element": "H" 
			},
			{
				"x": 1.3590105701,
				"y": -0.9664466835,
				"z": 0.2071031764,
				"element": "H" 
			},
			{
				"x": -0.0418671724,
				"y": 0.1074359698,
				"z": 1.7853927869,
				"element": "H" 
			},
			{
				"x": -1.8621207796,
				"y": 0.1146871902,
				"z": 3.4503005843,
				"element": "H" 
			},
			{
				"x": -4.2368846086,
				"y": 0.048786357,
				"z": 2.7104998069,
				"element": "H" 
			},
			{
				"x": -4.7650366115,
				"y": -0.0495122865,
				"z": 0.2809720676,
				"element": "H" 
			},
			{
				"x": -2.9477801152,
				"y": -0.1115330891,
				"z": -1.3838854376,
				"element": "H" 
			}
		],
		 "valence_orbital": [ 
			{
				"type": "occ",
				"energy": -0.28594,
				"method": "rhf"
			},
			{
				"type": "occ",
				"energy": -0.26903,
				"method": "rhf"
			},
			{
				"type": "occ",
				"energy": -0.26419,
				"method": "rhf"
			},
			{
				"type": "occ",
				"energy": -0.25491,
				"method": "rhf"
			},
			{
				"type": "occ",
				"energy": -0.22748,
				"method": "rhf"
			},
			{
				"type": "unocc",
				"energy": -0.07622,
				"method": "rhf"
			},
			{
				"type": "unocc",
				"energy": -0.02021,
				"method": "rhf"
			},
			{
				"type": "unocc",
				"energy": -0.01641,
				"method": "rhf"
			},
			{
				"type": "unocc",
				"energy": 0.01596,
				"method": "rhf"
			},
			{
				"type": "unocc",
				"energy": 0.03517,
				"method": "rhf"
			}
		],
		"cosmo_sigma_profile": { 
			"-0.025": 0.0,
			"-0.024": 0.0,
			"-0.023": 0.0,
			"-0.022": 0.0,
			"-0.021": 0.0,
			"-0.02": 0.0,
			"-0.019": 0.0,
			"-0.018": 0.0,
			"-0.017": 0.0,
			"-0.016": 0.0,
			"-0.015": 0.0,
			"-0.014": 0.0,
			"-0.013": 0.0,
			"-0.012": 0.0,
			"-0.011": 0.0,
			"-0.01": 0.0,
			"-0.009": 0.0,
			"-0.008": 2.13097897001,
			"-0.007": 9.54036652835,
			"-0.006": 15.1202408715,
			"-0.005": 17.1298759612,
			"-0.004": 17.4291728176,
			"-0.003": 14.171765132,
			"-0.002": 13.2811408142,
			"-0.001": 13.5852342001,
			"0.0": 14.0494023205,
			"0.001": 21.3514480475,
			"0.002": 26.4941985572,
			"0.003": 18.8936769719,
			"0.004": 12.6642227161,
			"0.005": 8.72270730145,
			"0.006": 1.09951918255,
			"0.007": 1.87039187405,
			"0.008": 1.67649946709,
			"0.009": 1.86694813204,
			"0.01": 2.33858733372,
			"0.011": 4.0008090069,
			"0.012": 4.20295059452,
			"0.013": 1.19634184801,
			"0.014": 0.0501253734743,
			"0.015": 0.0,
			"0.016": 0.0,
			"0.017": 0.0,
			"0.018": 0.0,
			"0.019": 0.0,
			"0.02": 0.0,
			"0.021": 0.0,
			"0.022": 0.0,
			"0.023": 0.0,
			"0.024": 0.0,
			"0.025": 0.0
		}
	}
}
