{
	 "smiles": "CCOC1=C(OC)C=C(CO)C=C1", 
	 "Tm": 329.65, 
	 "num_atms": 27, 
	 "gaussian": { 
		 "optdone": 1, 
		 "sigma_profile": "yes", 
		 "theory": "DFT", 
		 "functional": "B3LYP", 
		 "basiset": "6-31G**", 
		 "properties": { 
			 "R2extent": 3317.0634, 
			 "electric_dipole_moment_norm": 1.40060684705, 
			 "electric_quadrupole_moment_norm": 14.6906575513, 
			 "total_energy": -615.135691434, 
			 "HOMO_LUMO_gap": 0.22511, 
			 "cosmo_polarized_energy": -10.64, 
			 "cosmo_cavitation_energy": 30.06, 
			 "cosmo_dispersion_energy": -21.51, 
			 "cosmo_repulsion_energy": 1.76, 
			 "cosmo_total_nonelectrostatic_energy": 10.3, 
			 "SMD_solvation_energy": 6.27 
		},
		"coords": [
			{
				"x": -1.6553469642,
				"y": 0.6627147375,
				"z": -3.4156288771,
				"element": "C" 
			},
			{
				"x": -1.2661668593,
				"y": -0.2799571973,
				"z": -2.2913502349,
				"element": "C" 
			},
			{
				"x": -0.2816726609,
				"y": 0.3891596159,
				"z": -1.4790529575,
				"element": "O" 
			},
			{
				"x": 0.1924569678,
				"y": -0.344621427,
				"z": -0.4134226254,
				"element": "C" 
			},
			{
				"x": -0.6091391128,
				"y": -0.6159330355,
				"z": 0.7112252222,
				"element": "C" 
			},
			{
				"x": -1.9244948215,
				"y": -0.2040482104,
				"z": 0.7673500943,
				"element": "O" 
			},
			{
				"x": -2.1008680644,
				"y": 1.2085055144,
				"z": 0.9134059889,
				"element": "C" 
			},
			{
				"x": -0.0884924861,
				"y": -1.3491657012,
				"z": 1.7772778603,
				"element": "C" 
			},
			{
				"x": 1.2288547938,
				"y": -1.8169284566,
				"z": 1.7497256611,
				"element": "C" 
			},
			{
				"x": 1.805494119,
				"y": -2.5707557376,
				"z": 2.9272310366,
				"element": "C" 
			},
			{
				"x": 0.7603371628,
				"y": -3.2112252117,
				"z": 3.6459984967,
				"element": "O" 
			},
			{
				"x": 2.0260928262,
				"y": -1.5308097501,
				"z": 0.6364277841,
				"element": "C" 
			},
			{
				"x": 1.5110392405,
				"y": -0.8014308497,
				"z": -0.4347225418,
				"element": "C" 
			},
			{
				"x": -2.3903390852,
				"y": 0.1842527584,
				"z": -4.0706909729,
				"element": "H" 
			},
			{
				"x": -0.7806764058,
				"y": 0.9334099662,
				"z": -4.0142633074,
				"element": "H" 
			},
			{
				"x": -2.0956006349,
				"y": 1.5817505959,
				"z": -3.0174214213,
				"element": "H" 
			},
			{
				"x": -0.8300569559,
				"y": -1.2066523205,
				"z": -2.6900560548,
				"element": "H" 
			},
			{
				"x": -2.1324531248,
				"y": -0.5476072537,
				"z": -1.6760842655,
				"element": "H" 
			},
			{
				"x": -3.1788774205,
				"y": 1.3831115936,
				"z": 0.9330095985,
				"element": "H" 
			},
			{
				"x": -1.6528755865,
				"y": 1.7555188338,
				"z": 0.0777360996,
				"element": "H" 
			},
			{
				"x": -1.6615521646,
				"y": 1.5600033088,
				"z": 1.8559192974,
				"element": "H" 
			},
			{
				"x": -0.7268940399,
				"y": -1.5638192938,
				"z": 2.626519364,
				"element": "H" 
			},
			{
				"x": 2.3486092271,
				"y": -1.8642487629,
				"z": 3.5783797113,
				"element": "H" 
			},
			{
				"x": 2.5479474071,
				"y": -3.2989235882,
				"z": 2.562273488,
				"element": "H" 
			},
			{
				"x": 1.1278470906,
				"y": -3.5401124354,
				"z": 4.4749693353,
				"element": "H" 
			},
			{
				"x": 3.0517323118,
				"y": -1.8899027251,
				"z": 0.5962826737,
				"element": "H" 
			},
			{
				"x": 2.1157952408,
				"y": -0.5817849679,
				"z": -1.3091384534,
				"element": "H" 
			}
		],
		 "valence_orbital": [ 
			{
				"type": "occ",
				"energy": -0.28716,
				"method": "rhf"
			},
			{
				"type": "occ",
				"energy": -0.27214,
				"method": "rhf"
			},
			{
				"type": "occ",
				"energy": -0.25505,
				"method": "rhf"
			},
			{
				"type": "occ",
				"energy": -0.23564,
				"method": "rhf"
			},
			{
				"type": "occ",
				"energy": -0.21811,
				"method": "rhf"
			},
			{
				"type": "unocc",
				"energy": 0.007,
				"method": "rhf"
			},
			{
				"type": "unocc",
				"energy": 0.00712,
				"method": "rhf"
			},
			{
				"type": "unocc",
				"energy": 0.07631,
				"method": "rhf"
			},
			{
				"type": "unocc",
				"energy": 0.09242,
				"method": "rhf"
			},
			{
				"type": "unocc",
				"energy": 0.10803,
				"method": "rhf"
			}
		],
		"cosmo_sigma_profile": { 
			"-0.025": 0.0,
			"-0.024": 0.0,
			"-0.023": 0.0,
			"-0.022": 0.0,
			"-0.021": 0.0,
			"-0.02": 0.0,
			"-0.019": 0.0,
			"-0.018": 0.0,
			"-0.017": 0.0,
			"-0.016": 0.799875932266,
			"-0.015": 1.12210653478,
			"-0.014": 0.939807132152,
			"-0.013": 0.847041579548,
			"-0.012": 1.02502911455,
			"-0.011": 0.618458942186,
			"-0.01": 0.800275029514,
			"-0.009": 0.677403928828,
			"-0.008": 1.36112053179,
			"-0.007": 0.86220281737,
			"-0.006": 4.38000409285,
			"-0.005": 11.0586538177,
			"-0.004": 22.0971353318,
			"-0.003": 29.332704198,
			"-0.002": 27.4592760316,
			"-0.001": 21.6575328584,
			"0.0": 19.5487533897,
			"0.001": 14.7358967463,
			"0.002": 11.1834399283,
			"0.003": 11.8113471421,
			"0.004": 12.7839647948,
			"0.005": 12.7312026699,
			"0.006": 5.82698625505,
			"0.007": 3.73951943523,
			"0.008": 3.50677309765,
			"0.009": 4.07218625362,
			"0.01": 3.7868008555,
			"0.011": 2.77006882001,
			"0.012": 2.60787260617,
			"0.013": 1.28817384693,
			"0.014": 0.660977989118,
			"0.015": 0.0295894362979,
			"0.016": 0.0,
			"0.017": 0.0,
			"0.018": 0.0,
			"0.019": 0.0,
			"0.02": 0.0,
			"0.021": 0.0,
			"0.022": 0.0,
			"0.023": 0.0,
			"0.024": 0.0,
			"0.025": 0.0
		}
	}
}
