{
	 "smiles": "OCC1=NC=CN1CC(F)(F)F", 
	 "Tm": 363.15, 
	 "num_atms": 19, 
	 "gaussian": { 
		 "optdone": 1, 
		 "sigma_profile": "yes", 
		 "theory": "DFT", 
		 "functional": "B3LYP", 
		 "basiset": "6-31G**", 
		 "properties": { 
			 "R2extent": 2661.781, 
			 "electric_dipole_moment_norm": 2.41499899172, 
			 "electric_quadrupole_moment_norm": 5.7678373096, 
			 "total_energy": -717.094166805, 
			 "HOMO_LUMO_gap": 0.23414, 
			 "cosmo_polarized_energy": -12.17, 
			 "cosmo_cavitation_energy": 24.12, 
			 "cosmo_dispersion_energy": -17.01, 
			 "cosmo_repulsion_energy": 1.31, 
			 "cosmo_total_nonelectrostatic_energy": 8.41, 
			 "SMD_solvation_energy": 3.97 
		},
		"coords": [
			{
				"x": 0.3286163958,
				"y": 1.0610045617,
				"z": 3.7230167707,
				"element": "O" 
			},
			{
				"x": -1.0169997315,
				"y": 1.1830634518,
				"z": 3.2490781243,
				"element": "C" 
			},
			{
				"x": -1.3669949317,
				"y": 0.1678483433,
				"z": 2.2037322181,
				"element": "C" 
			},
			{
				"x": -2.3622640714,
				"y": -0.6928716483,
				"z": 2.2831058095,
				"element": "N" 
			},
			{
				"x": -2.3216722301,
				"y": -1.4202239619,
				"z": 1.1147913119,
				"element": "C" 
			},
			{
				"x": -1.2840234222,
				"y": -1.0030494037,
				"z": 0.3226598209,
				"element": "C" 
			},
			{
				"x": -0.6649561659,
				"y": 0.0146992298,
				"z": 1.0266098587,
				"element": "N" 
			},
			{
				"x": 0.4780043956,
				"y": 0.7905250041,
				"z": 0.5935811841,
				"element": "C" 
			},
			{
				"x": 0.0865208262,
				"y": 1.9532410208,
				"z": -0.3074274999,
				"element": "C" 
			},
			{
				"x": -0.5245864548,
				"y": 1.5278803975,
				"z": -1.4311526064,
				"element": "F" 
			},
			{
				"x": 1.1888524316,
				"y": 2.6403895774,
				"z": -0.6687027808,
				"element": "F" 
			},
			{
				"x": -0.7516641356,
				"y": 2.8066068444,
				"z": 0.315578118,
				"element": "F" 
			},
			{
				"x": 0.4136668469,
				"y": 0.1861096999,
				"z": 4.125855789,
				"element": "H" 
			},
			{
				"x": -1.7535649643,
				"y": 1.0842210688,
				"z": 4.054679278,
				"element": "H" 
			},
			{
				"x": -1.0854463949,
				"y": 2.1983551832,
				"z": 2.8468275041,
				"element": "H" 
			},
			{
				"x": -3.0362055718,
				"y": -2.2061300567,
				"z": 0.9134811234,
				"element": "H" 
			},
			{
				"x": -0.9285490763,
				"y": -1.3201584209,
				"z": -0.6457336831,
				"element": "H" 
			},
			{
				"x": 1.1708959202,
				"y": 0.1556570745,
				"z": 0.0353569559,
				"element": "H" 
			},
			{
				"x": 0.9934703339,
				"y": 1.1813320343,
				"z": 1.4729627038,
				"element": "H" 
			}
		],
		 "valence_orbital": [ 
			{
				"type": "occ",
				"energy": -0.34958,
				"method": "rhf"
			},
			{
				"type": "occ",
				"energy": -0.29312,
				"method": "rhf"
			},
			{
				"type": "occ",
				"energy": -0.2807,
				"method": "rhf"
			},
			{
				"type": "occ",
				"energy": -0.27075,
				"method": "rhf"
			},
			{
				"type": "occ",
				"energy": -0.23122,
				"method": "rhf"
			},
			{
				"type": "unocc",
				"energy": 0.00292,
				"method": "rhf"
			},
			{
				"type": "unocc",
				"energy": 0.05682,
				"method": "rhf"
			},
			{
				"type": "unocc",
				"energy": 0.08318,
				"method": "rhf"
			},
			{
				"type": "unocc",
				"energy": 0.09425,
				"method": "rhf"
			},
			{
				"type": "unocc",
				"energy": 0.11416,
				"method": "rhf"
			}
		],
		"cosmo_sigma_profile": { 
			"-0.025": 0.0,
			"-0.024": 0.0,
			"-0.023": 0.0,
			"-0.022": 0.0,
			"-0.021": 0.0,
			"-0.02": 0.0,
			"-0.019": 0.0,
			"-0.018": 0.0,
			"-0.017": 0.0601378027268,
			"-0.016": 0.709579414507,
			"-0.015": 0.882886942458,
			"-0.014": 1.55315467191,
			"-0.013": 0.384718455459,
			"-0.012": 0.885862761891,
			"-0.011": 1.09228686708,
			"-0.01": 2.59904483252,
			"-0.009": 5.33739665597,
			"-0.008": 4.51810378524,
			"-0.007": 6.71340507546,
			"-0.006": 8.56419753244,
			"-0.005": 10.3106033078,
			"-0.004": 10.167560982,
			"-0.003": 11.088754875,
			"-0.002": 9.13078996161,
			"-0.001": 10.1110008555,
			"0.0": 11.2278746526,
			"0.001": 12.4895912613,
			"0.002": 27.6361326732,
			"0.003": 20.3493817021,
			"0.004": 5.55211434327,
			"0.005": 5.86841406371,
			"0.006": 3.60070572529,
			"0.007": 2.81273945563,
			"0.008": 2.01850761302,
			"0.009": 2.60466514691,
			"0.01": 3.05673296067,
			"0.011": 1.43219482517,
			"0.012": 2.0797309121,
			"0.013": 2.39469819503,
			"0.014": 1.4765701433,
			"0.015": 1.04663756083,
			"0.016": 0.766355505536,
			"0.017": 0.989594884377,
			"0.018": 0.357682386341,
			"0.019": 0.0,
			"0.02": 0.0,
			"0.021": 0.0,
			"0.022": 0.0,
			"0.023": 0.0,
			"0.024": 0.0,
			"0.025": 0.0
		}
	}
}
