{
	 "smiles": "COC(=O)C1=CC(Br)=C(C=C1)S(Cl)(=O)=O", 
	 "Tm": 356.15, 
	 "num_atms": 21, 
	 "gaussian": { 
		 "optdone": 1, 
		 "sigma_profile": "yes", 
		 "theory": "DFT", 
		 "functional": "B3LYP", 
		 "basiset": "6-31G**", 
		 "properties": { 
			 "R2extent": 11538.2119, 
			 "electric_dipole_moment_norm": 5.62626469072, 
			 "electric_quadrupole_moment_norm": 22.1117772429, 
			 "total_energy": -4039.0745594, 
			 "HOMO_LUMO_gap": 0.17238, 
			 "cosmo_polarized_energy": -11.25, 
			 "cosmo_cavitation_energy": 31.76, 
			 "cosmo_dispersion_energy": -23.95, 
			 "cosmo_repulsion_energy": 1.82, 
			 "cosmo_total_nonelectrostatic_energy": 9.63, 
			 "SMD_solvation_energy": 4.86 
		},
		"coords": [
			{
				"x": -2.6090067791,
				"y": 0.5829239575,
				"z": 0.808579251,
				"element": "C" 
			},
			{
				"x": -1.6868943888,
				"y": -0.3192270031,
				"z": 0.1691147979,
				"element": "O" 
			},
			{
				"x": -0.4011070897,
				"y": 0.0792964311,
				"z": 0.1649793659,
				"element": "C" 
			},
			{
				"x": -0.0110132983,
				"y": 1.1185776196,
				"z": 0.6558008056,
				"element": "O" 
			},
			{
				"x": 0.4937648258,
				"y": -0.9101846646,
				"z": -0.5163715455,
				"element": "C" 
			},
			{
				"x": 1.8552652864,
				"y": -0.6000514135,
				"z": -0.5812474127,
				"element": "C" 
			},
			{
				"x": 2.7530879966,
				"y": -1.4694250555,
				"z": -1.1968401527,
				"element": "C" 
			},
			{
				"x": 4.5758983882,
				"y": -0.9484847256,
				"z": -1.25310759,
				"element": "Br" 
			},
			{
				"x": 2.2657144977,
				"y": -2.6635951733,
				"z": -1.7513890711,
				"element": "C" 
			},
			{
				"x": 0.9025411089,
				"y": -2.9732909734,
				"z": -1.6937023125,
				"element": "C" 
			},
			{
				"x": 0.0147686371,
				"y": -2.099744308,
				"z": -1.0747135307,
				"element": "C" 
			},
			{
				"x": 3.3039232848,
				"y": -3.9196766831,
				"z": -2.5272936381,
				"element": "S" 
			},
			{
				"x": 3.861919071,
				"y": -2.9510963795,
				"z": -4.329453805,
				"element": "Cl" 
			},
			{
				"x": 2.4445606497,
				"y": -5.0302331225,
				"z": -2.918373099,
				"element": "O" 
			},
			{
				"x": 4.5173760187,
				"y": -4.1323622113,
				"z": -1.7541613493,
				"element": "O" 
			},
			{
				"x": -2.602111922,
				"y": 1.5531409272,
				"z": 0.3066432199,
				"element": "H" 
			},
			{
				"x": -3.5868763281,
				"y": 0.1107495566,
				"z": 0.7221054291,
				"element": "H" 
			},
			{
				"x": -2.3384918489,
				"y": 0.7231790144,
				"z": 1.8575990993,
				"element": "H" 
			},
			{
				"x": 2.2036322091,
				"y": 0.3287122914,
				"z": -0.1457728762,
				"element": "H" 
			},
			{
				"x": 0.5555678345,
				"y": -3.9003503663,
				"z": -2.1337215774,
				"element": "H" 
			},
			{
				"x": -1.0407181536,
				"y": -2.3369577182,
				"z": -1.0245740082,
				"element": "H" 
			}
		],
		 "valence_orbital": [ 
			{
				"type": "occ",
				"energy": -0.3183,
				"method": "rhf"
			},
			{
				"type": "occ",
				"energy": -0.30468,
				"method": "rhf"
			},
			{
				"type": "occ",
				"energy": -0.30163,
				"method": "rhf"
			},
			{
				"type": "occ",
				"energy": -0.299,
				"method": "rhf"
			},
			{
				"type": "occ",
				"energy": -0.27531,
				"method": "rhf"
			},
			{
				"type": "unocc",
				"energy": -0.10293,
				"method": "rhf"
			},
			{
				"type": "unocc",
				"energy": -0.07482,
				"method": "rhf"
			},
			{
				"type": "unocc",
				"energy": -0.05009,
				"method": "rhf"
			},
			{
				"type": "unocc",
				"energy": -0.01919,
				"method": "rhf"
			},
			{
				"type": "unocc",
				"energy": 0.00954,
				"method": "rhf"
			}
		],
		"cosmo_sigma_profile": { 
			"-0.025": 0.0,
			"-0.024": 0.0,
			"-0.023": 0.0,
			"-0.022": 0.0,
			"-0.021": 0.0,
			"-0.02": 0.0,
			"-0.019": 0.0,
			"-0.018": 0.0,
			"-0.017": 0.0,
			"-0.016": 0.0,
			"-0.015": 0.0,
			"-0.014": 0.0,
			"-0.013": 0.0,
			"-0.012": 0.0,
			"-0.011": 0.0,
			"-0.01": 0.0327559524385,
			"-0.009": 1.22386492008,
			"-0.008": 4.51712915389,
			"-0.007": 6.16956160718,
			"-0.006": 13.1266427133,
			"-0.005": 15.736207936,
			"-0.004": 20.8750127813,
			"-0.003": 21.5011939284,
			"-0.002": 28.4238336679,
			"-0.001": 24.0948370558,
			"0.0": 16.6462009237,
			"0.001": 15.2806016945,
			"0.002": 18.9570438153,
			"0.003": 24.1658880074,
			"0.004": 8.84023416889,
			"0.005": 4.98718107176,
			"0.006": 5.24579669852,
			"0.007": 10.2724482149,
			"0.008": 10.7830118497,
			"0.009": 3.16920012312,
			"0.01": 2.47542735134,
			"0.011": 4.21277757318,
			"0.012": 0.300874446287,
			"0.013": 0.0,
			"0.014": 0.0,
			"0.015": 0.0,
			"0.016": 0.0,
			"0.017": 0.0,
			"0.018": 0.0,
			"0.019": 0.0,
			"0.02": 0.0,
			"0.021": 0.0,
			"0.022": 0.0,
			"0.023": 0.0,
			"0.024": 0.0,
			"0.025": 0.0
		}
	}
}
