{
	 "smiles": "NC1=C(C=C(C=C1C1=CC=CC=C1)C1=CC=CC=C1)C1=CC=CC=C1", 
	 "Tm": 396.65, 
	 "num_atms": 44, 
	 "gaussian": { 
		 "optdone": 1, 
		 "sigma_profile": "yes", 
		 "theory": "DFT", 
		 "functional": "B3LYP", 
		 "basiset": "6-31G**", 
		 "properties": { 
			 "R2extent": 10845.6838, 
			 "electric_dipole_moment_norm": 1.89480749946, 
			 "electric_quadrupole_moment_norm": 11.3834461078, 
			 "total_energy": -980.784025957, 
			 "HOMO_LUMO_gap": 0.16405, 
			 "cosmo_polarized_energy": -10.35, 
			 "cosmo_cavitation_energy": 47.26, 
			 "cosmo_dispersion_energy": -33.25, 
			 "cosmo_repulsion_energy": 2.51, 
			 "cosmo_total_nonelectrostatic_energy": 16.52, 
			 "SMD_solvation_energy": 7.21 
		},
		"coords": [
			{
				"x": -0.9724558648,
				"y": -1.080688453,
				"z": -3.0995503267,
				"element": "N" 
			},
			{
				"x": -0.3862397012,
				"y": -0.8058289514,
				"z": -1.8643440266,
				"element": "C" 
			},
			{
				"x": 0.8909659423,
				"y": -0.1912004547,
				"z": -1.7946700524,
				"element": "C" 
			},
			{
				"x": 1.4496106353,
				"y": 0.0864304768,
				"z": -0.5432974636,
				"element": "C" 
			},
			{
				"x": 0.8013782271,
				"y": -0.225030148,
				"z": 0.6588003863,
				"element": "C" 
			},
			{
				"x": -0.4542365998,
				"y": -0.839825729,
				"z": 0.5662138,
				"element": "C" 
			},
			{
				"x": -1.0572673035,
				"y": -1.1400050075,
				"z": -0.6593172298,
				"element": "C" 
			},
			{
				"x": -2.4002162917,
				"y": -1.7885960243,
				"z": -0.6613211094,
				"element": "C" 
			},
			{
				"x": -3.4402948285,
				"y": -1.2608007228,
				"z": 0.1240265088,
				"element": "C" 
			},
			{
				"x": -4.6902173548,
				"y": -1.8774872488,
				"z": 0.1717700335,
				"element": "C" 
			},
			{
				"x": -4.9305464116,
				"y": -3.0362366026,
				"z": -0.5689546313,
				"element": "C" 
			},
			{
				"x": -3.9093281673,
				"y": -3.5725562759,
				"z": -1.3554681062,
				"element": "C" 
			},
			{
				"x": -2.658013427,
				"y": -2.9570710265,
				"z": -1.4017644075,
				"element": "C" 
			},
			{
				"x": 1.4237622329,
				"y": 0.0706338177,
				"z": 1.972769465,
				"element": "C" 
			},
			{
				"x": 2.8114803538,
				"y": -0.053158812,
				"z": 2.1635830842,
				"element": "C" 
			},
			{
				"x": 3.3959258434,
				"y": 0.229929866,
				"z": 3.3973013613,
				"element": "C" 
			},
			{
				"x": 2.6065710446,
				"y": 0.6376383233,
				"z": 4.4743606405,
				"element": "C" 
			},
			{
				"x": 1.2264890612,
				"y": 0.761861561,
				"z": 4.3026643686,
				"element": "C" 
			},
			{
				"x": 0.6435961077,
				"y": 0.4849761598,
				"z": 3.0669337022,
				"element": "C" 
			},
			{
				"x": 1.6403949128,
				"y": 0.2055430497,
				"z": -3.0216194969,
				"element": "C" 
			},
			{
				"x": 1.8884918499,
				"y": -0.7064466243,
				"z": -4.0640911192,
				"element": "C" 
			},
			{
				"x": 2.6286115163,
				"y": -0.3286276273,
				"z": -5.1850561815,
				"element": "C" 
			},
			{
				"x": 3.1379724889,
				"y": 0.9669412235,
				"z": -5.2898096126,
				"element": "C" 
			},
			{
				"x": 2.9007682238,
				"y": 1.883121941,
				"z": -4.2633203265,
				"element": "C" 
			},
			{
				"x": 2.1591909628,
				"y": 1.5067594059,
				"z": -3.1437950318,
				"element": "C" 
			},
			{
				"x": -1.9800965349,
				"y": -1.1623689214,
				"z": -3.0823314133,
				"element": "H" 
			},
			{
				"x": -0.633937246,
				"y": -0.5140126553,
				"z": -3.8654627695,
				"element": "H" 
			},
			{
				"x": 2.4214915175,
				"y": 0.5699221582,
				"z": -0.5145611803,
				"element": "H" 
			},
			{
				"x": -0.9689535652,
				"y": -1.1384355121,
				"z": 1.4744658532,
				"element": "H" 
			},
			{
				"x": -3.2633128971,
				"y": -0.3516433158,
				"z": 0.6915079941,
				"element": "H" 
			},
			{
				"x": -5.4789211107,
				"y": -1.4485493746,
				"z": 0.7837079721,
				"element": "H" 
			},
			{
				"x": -5.9042908722,
				"y": -3.5162730844,
				"z": -0.5341492437,
				"element": "H" 
			},
			{
				"x": -4.0828488863,
				"y": -4.4789677761,
				"z": -1.9289601759,
				"element": "H" 
			},
			{
				"x": -1.8658859752,
				"y": -3.3895131621,
				"z": -2.0051455835,
				"element": "H" 
			},
			{
				"x": 3.4330981643,
				"y": -0.3993890821,
				"z": 1.3430283198,
				"element": "H" 
			},
			{
				"x": 4.4699838596,
				"y": 0.120225421,
				"z": 3.5202219785,
				"element": "H" 
			},
			{
				"x": 3.0614265736,
				"y": 0.85551451,
				"z": 5.4363473319,
				"element": "H" 
			},
			{
				"x": 0.6018013291,
				"y": 1.086021003,
				"z": 5.130594626,
				"element": "H" 
			},
			{
				"x": -0.427256778,
				"y": 0.6137582839,
				"z": 2.9386768383,
				"element": "H" 
			},
			{
				"x": 1.5091375263,
				"y": -1.7206036808,
				"z": -3.9847410933,
				"element": "H" 
			},
			{
				"x": 2.8147234358,
				"y": -1.0523085473,
				"z": -5.9738804263,
				"element": "H" 
			},
			{
				"x": 3.7136448845,
				"y": 1.2599432909,
				"z": -6.1630677468,
				"element": "H" 
			},
			{
				"x": 3.2883735417,
				"y": 2.8955148502,
				"z": -4.336245633,
				"element": "H" 
			},
			{
				"x": 1.9661295806,
				"y": 2.228089478,
				"z": -2.3549498768,
				"element": "H" 
			}
		],
		 "valence_orbital": [ 
			{
				"type": "occ",
				"energy": -0.25074,
				"method": "rhf"
			},
			{
				"type": "occ",
				"energy": -0.24311,
				"method": "rhf"
			},
			{
				"type": "occ",
				"energy": -0.23999,
				"method": "rhf"
			},
			{
				"type": "occ",
				"energy": -0.22265,
				"method": "rhf"
			},
			{
				"type": "occ",
				"energy": -0.18873,
				"method": "rhf"
			},
			{
				"type": "unocc",
				"energy": -0.02468,
				"method": "rhf"
			},
			{
				"type": "unocc",
				"energy": -0.01922,
				"method": "rhf"
			},
			{
				"type": "unocc",
				"energy": -0.00505,
				"method": "rhf"
			},
			{
				"type": "unocc",
				"energy": -0.00406,
				"method": "rhf"
			},
			{
				"type": "unocc",
				"energy": -0.00129,
				"method": "rhf"
			}
		],
		"cosmo_sigma_profile": { 
			"-0.025": 0.0,
			"-0.024": 0.0,
			"-0.023": 0.0,
			"-0.022": 0.0,
			"-0.021": 0.0,
			"-0.02": 0.0,
			"-0.019": 0.0,
			"-0.018": 0.0,
			"-0.017": 0.0,
			"-0.016": 0.0,
			"-0.015": 0.0,
			"-0.014": 0.0,
			"-0.013": 0.0,
			"-0.012": 0.0,
			"-0.011": 0.741498872685,
			"-0.01": 2.09252025072,
			"-0.009": 1.97776210338,
			"-0.008": 1.99891802626,
			"-0.007": 1.49060998082,
			"-0.006": 10.2894650102,
			"-0.005": 32.3293629129,
			"-0.004": 37.1429773262,
			"-0.003": 38.8505604384,
			"-0.002": 25.2127914018,
			"-0.001": 25.026535909,
			"0.0": 24.596866464,
			"0.001": 24.9198217808,
			"0.002": 28.3935256431,
			"0.003": 31.6740047083,
			"0.004": 33.0216445462,
			"0.005": 33.0658553503,
			"0.006": 22.2869942571,
			"0.007": 2.22963404918,
			"0.008": 0.610273871586,
			"0.009": 0.526483374661,
			"0.01": 0.30889083578,
			"0.011": 0.0579827236007,
			"0.012": 0.0,
			"0.013": 0.0,
			"0.014": 0.0,
			"0.015": 0.0,
			"0.016": 0.0,
			"0.017": 0.0,
			"0.018": 0.0,
			"0.019": 0.0,
			"0.02": 0.0,
			"0.021": 0.0,
			"0.022": 0.0,
			"0.023": 0.0,
			"0.024": 0.0,
			"0.025": 0.0
		}
	}
}
