{
	 "smiles": "CCOC(=O)CC1=CC=C(O)C=C1", 
	 "Tm": 312.65, 
	 "num_atms": 25, 
	 "gaussian": { 
		 "optdone": 1, 
		 "sigma_profile": "yes", 
		 "theory": "DFT", 
		 "functional": "B3LYP", 
		 "basiset": "6-31G**", 
		 "properties": { 
			 "R2extent": 3357.1588, 
			 "electric_dipole_moment_norm": 2.86850899249, 
			 "electric_quadrupole_moment_norm": 7.3751770955, 
			 "total_energy": -613.982272067, 
			 "HOMO_LUMO_gap": 0.21422, 
			 "cosmo_polarized_energy": -12.41, 
			 "cosmo_cavitation_energy": 29.28, 
			 "cosmo_dispersion_energy": -20.63, 
			 "cosmo_repulsion_energy": 1.67, 
			 "cosmo_total_nonelectrostatic_energy": 10.33, 
			 "SMD_solvation_energy": 6.29 
		},
		"coords": [
			{
				"x": 1.830274223,
				"y": -2.6133188988,
				"z": 1.8428246881,
				"element": "C" 
			},
			{
				"x": 2.5606705152,
				"y": -1.3099738599,
				"z": 2.1286730669,
				"element": "C" 
			},
			{
				"x": 1.6587817932,
				"y": -0.177603338,
				"z": 2.0617763806,
				"element": "O" 
			},
			{
				"x": 1.4478122408,
				"y": 0.3521447433,
				"z": 0.8377879393,
				"element": "C" 
			},
			{
				"x": 1.9832396157,
				"y": -0.0421503743,
				"z": -0.1777924499,
				"element": "O" 
			},
			{
				"x": 0.4339091007,
				"y": 1.4839106646,
				"z": 0.88963149,
				"element": "C" 
			},
			{
				"x": -0.9441139789,
				"y": 1.0128680657,
				"z": 0.4513438412,
				"element": "C" 
			},
			{
				"x": -1.1551108403,
				"y": 0.522941982,
				"z": -0.8471484899,
				"element": "C" 
			},
			{
				"x": -2.4123010728,
				"y": 0.0956612275,
				"z": -1.2594470997,
				"element": "C" 
			},
			{
				"x": -3.493514195,
				"y": 0.1507000309,
				"z": -0.371149639,
				"element": "C" 
			},
			{
				"x": -4.707871311,
				"y": -0.2783257294,
				"z": -0.8291486315,
				"element": "O" 
			},
			{
				"x": -3.2995339423,
				"y": 0.6319081305,
				"z": 0.9262954213,
				"element": "C" 
			},
			{
				"x": -2.0312283467,
				"y": 1.0554888934,
				"z": 1.3278881101,
				"element": "C" 
			},
			{
				"x": 1.4582674973,
				"y": -2.6269898013,
				"z": 0.8155396848,
				"element": "H" 
			},
			{
				"x": 2.5143580965,
				"y": -3.4587656098,
				"z": 1.9718702335,
				"element": "H" 
			},
			{
				"x": 0.9866609144,
				"y": -2.7455984595,
				"z": 2.5265372168,
				"element": "H" 
			},
			{
				"x": 2.9527809952,
				"y": -1.2843964658,
				"z": 3.1482342272,
				"element": "H" 
			},
			{
				"x": 3.3772610656,
				"y": -1.1515709562,
				"z": 1.4202764317,
				"element": "H" 
			},
			{
				"x": 0.8000875304,
				"y": 2.2658035342,
				"z": 0.2158061607,
				"element": "H" 
			},
			{
				"x": 0.3899666027,
				"y": 1.8903065733,
				"z": 1.902329443,
				"element": "H" 
			},
			{
				"x": -0.3163739035,
				"y": 0.4667154309,
				"z": -1.5347331931,
				"element": "H" 
			},
			{
				"x": -2.577473914,
				"y": -0.2823616569,
				"z": -2.2630318278,
				"element": "H" 
			},
			{
				"x": -5.3614775619,
				"y": -0.1876772224,
				"z": -0.1237809693,
				"element": "H" 
			},
			{
				"x": -4.1344311297,
				"y": 0.6758473116,
				"z": 1.6229222872,
				"element": "H" 
			},
			{
				"x": -1.8929399945,
				"y": 1.4266357844,
				"z": 2.3400956776,
				"element": "H" 
			}
		],
		 "valence_orbital": [ 
			{
				"type": "occ",
				"energy": -0.32623,
				"method": "rhf"
			},
			{
				"type": "occ",
				"energy": -0.29593,
				"method": "rhf"
			},
			{
				"type": "occ",
				"energy": -0.2684,
				"method": "rhf"
			},
			{
				"type": "occ",
				"energy": -0.25107,
				"method": "rhf"
			},
			{
				"type": "occ",
				"energy": -0.21695,
				"method": "rhf"
			},
			{
				"type": "unocc",
				"energy": -0.00273,
				"method": "rhf"
			},
			{
				"type": "unocc",
				"energy": 0.00096,
				"method": "rhf"
			},
			{
				"type": "unocc",
				"energy": 0.02795,
				"method": "rhf"
			},
			{
				"type": "unocc",
				"energy": 0.07087,
				"method": "rhf"
			},
			{
				"type": "unocc",
				"energy": 0.09845,
				"method": "rhf"
			}
		],
		"cosmo_sigma_profile": { 
			"-0.025": 0.0,
			"-0.024": 0.0,
			"-0.023": 0.0,
			"-0.022": 0.0,
			"-0.021": 0.0,
			"-0.02": 0.0,
			"-0.019": 0.0,
			"-0.018": 0.156125076234,
			"-0.017": 1.13855894399,
			"-0.016": 1.04869904119,
			"-0.015": 1.20981184767,
			"-0.014": 1.46465353335,
			"-0.013": 0.680102099451,
			"-0.012": 0.749716541905,
			"-0.011": 0.738076164994,
			"-0.01": 1.27197464268,
			"-0.009": 1.09602991213,
			"-0.008": 1.01753482163,
			"-0.007": 1.54905759646,
			"-0.006": 9.74412832548,
			"-0.005": 15.1536795023,
			"-0.004": 21.1796003074,
			"-0.003": 23.2182050127,
			"-0.002": 18.6126871832,
			"-0.001": 17.3618640466,
			"0.0": 16.0507868004,
			"0.001": 13.2703685254,
			"0.002": 10.8261159088,
			"0.003": 12.8291116652,
			"0.004": 14.2410700639,
			"0.005": 14.1776787923,
			"0.006": 8.13134000997,
			"0.007": 4.06293236502,
			"0.008": 3.87784909717,
			"0.009": 3.78302056615,
			"0.01": 2.9122096151,
			"0.011": 4.47355900262,
			"0.012": 4.76134931344,
			"0.013": 0.498082745116,
			"0.014": 0.0,
			"0.015": 0.0,
			"0.016": 0.0,
			"0.017": 0.0,
			"0.018": 0.0,
			"0.019": 0.0,
			"0.02": 0.0,
			"0.021": 0.0,
			"0.022": 0.0,
			"0.023": 0.0,
			"0.024": 0.0,
			"0.025": 0.0
		}
	}
}
