{
	 "smiles": "C[C@@H]1O[C@@H](O[C@@H]2[C@@H](O)[C@H](O)[C@@H](CO)O[C@H]2OC2=CC(O)=C3C(=O)C[C@H](OC3=C2)C2=CC=C(O)C=C2)[C@H](O)[C@H](O)[C@H]1O", 
	 "Tm": 439.15, 
	 "num_atms": 73, 
	 "gaussian": { 
		 "optdone": 1, 
		 "sigma_profile": "yes", 
		 "theory": "DFT", 
		 "functional": "B3LYP", 
		 "basiset": "6-31G**", 
		 "properties": { 
			 "R2extent": 23771.436, 
			 "electric_dipole_moment_norm": 4.98514174924, 
			 "electric_quadrupole_moment_norm": 61.3472570985, 
			 "total_energy": -2101.21333014, 
			 "HOMO_LUMO_gap": 0.16073, 
			 "cosmo_polarized_energy": -45.61, 
			 "cosmo_cavitation_energy": 69.48, 
			 "cosmo_dispersion_energy": -44.88, 
			 "cosmo_repulsion_energy": 3.23, 
			 "cosmo_total_nonelectrostatic_energy": 27.83, 
			 "SMD_solvation_energy": 11.21 
		},
		"coords": [
			{
				"x": -0.9405807701,
				"y": -1.8988003058,
				"z": 2.1362541275,
				"element": "C" 
			},
			{
				"x": 0.0783543297,
				"y": -1.1827393427,
				"z": 3.0265558393,
				"element": "C" 
			},
			{
				"x": 0.1643367466,
				"y": 0.2212226316,
				"z": 2.7346528595,
				"element": "O" 
			},
			{
				"x": 0.8733200802,
				"y": 0.5801126716,
				"z": 1.575471164,
				"element": "C" 
			},
			{
				"x": 0.7935300745,
				"y": 1.9976320247,
				"z": 1.5710059691,
				"element": "O" 
			},
			{
				"x": 0.9359614538,
				"y": 2.6823014611,
				"z": 0.3345852235,
				"element": "C" 
			},
			{
				"x": 2.0499210526,
				"y": 3.7290918098,
				"z": 0.524938373,
				"element": "C" 
			},
			{
				"x": 3.2569822296,
				"y": 3.1231271424,
				"z": 0.0320035113,
				"element": "O" 
			},
			{
				"x": 1.7558477848,
				"y": 5.0739744017,
				"z": -0.1682265404,
				"element": "C" 
			},
			{
				"x": 0.9572886374,
				"y": 5.8947112118,
				"z": 0.6740074336,
				"element": "O" 
			},
			{
				"x": 0.9487403208,
				"y": 4.8815121665,
				"z": -1.4502666591,
				"element": "C" 
			},
			{
				"x": 1.7427544502,
				"y": 4.2044627261,
				"z": -2.5791244859,
				"element": "C" 
			},
			{
				"x": 1.0088833295,
				"y": 4.3213901685,
				"z": -3.7874405584,
				"element": "O" 
			},
			{
				"x": -0.2904233959,
				"y": 4.2147705474,
				"z": -1.1736755611,
				"element": "O" 
			},
			{
				"x": -0.4067258614,
				"y": 3.3239373124,
				"z": -0.0836949924,
				"element": "C" 
			},
			{
				"x": -1.3766280803,
				"y": 2.3272078916,
				"z": -0.3980906349,
				"element": "O" 
			},
			{
				"x": -1.1585477281,
				"y": 1.4403695678,
				"z": -1.4223481996,
				"element": "C" 
			},
			{
				"x": -0.7338676586,
				"y": 1.8431043506,
				"z": -2.691941989,
				"element": "C" 
			},
			{
				"x": -0.4403374463,
				"y": 0.8695384367,
				"z": -3.6434782523,
				"element": "C" 
			},
			{
				"x": 0.0738022461,
				"y": 1.2649457548,
				"z": -4.8233240799,
				"element": "O" 
			},
			{
				"x": -0.6316719334,
				"y": -0.5120921485,
				"z": -3.3622035504,
				"element": "C" 
			},
			{
				"x": -0.1803679534,
				"y": -1.5252532287,
				"z": -4.2895432793,
				"element": "C" 
			},
			{
				"x": 0.2913720567,
				"y": -1.2559492988,
				"z": -5.4081703038,
				"element": "O" 
			},
			{
				"x": -0.2487396685,
				"y": -2.9533188927,
				"z": -3.7858120718,
				"element": "C" 
			},
			{
				"x": -1.4059145582,
				"y": -3.1530012593,
				"z": -2.7975967078,
				"element": "C" 
			},
			{
				"x": -1.3502605809,
				"y": -2.1676801334,
				"z": -1.7395894445,
				"element": "O" 
			},
			{
				"x": -1.1522231224,
				"y": -0.8707751359,
				"z": -2.0915544928,
				"element": "C" 
			},
			{
				"x": -1.4233711924,
				"y": 0.093568269,
				"z": -1.1291187367,
				"element": "C" 
			},
			{
				"x": -1.3989739598,
				"y": -4.5165117821,
				"z": -2.14945611,
				"element": "C" 
			},
			{
				"x": -0.4872668234,
				"y": -4.82296945,
				"z": -1.1263635243,
				"element": "C" 
			},
			{
				"x": -0.4519230735,
				"y": -6.0929106552,
				"z": -0.56239725,
				"element": "C" 
			},
			{
				"x": -1.3271424061,
				"y": -7.086784445,
				"z": -1.0195443805,
				"element": "C" 
			},
			{
				"x": -1.2444218068,
				"y": -8.3153933525,
				"z": -0.4302041126,
				"element": "O" 
			},
			{
				"x": -2.2401360802,
				"y": -6.7939167022,
				"z": -2.0367647456,
				"element": "C" 
			},
			{
				"x": -2.2731913959,
				"y": -5.5129647798,
				"z": -2.5889685437,
				"element": "C" 
			},
			{
				"x": 2.3269855526,
				"y": 0.0909054668,
				"z": 1.673575276,
				"element": "C" 
			},
			{
				"x": 3.0595181332,
				"y": 0.3311902074,
				"z": 0.4774029325,
				"element": "O" 
			},
			{
				"x": 2.3477332933,
				"y": -1.4301137766,
				"z": 1.8623318686,
				"element": "C" 
			},
			{
				"x": 1.8943245276,
				"y": -2.0750843359,
				"z": 0.6771651453,
				"element": "O" 
			},
			{
				"x": 1.4635311039,
				"y": -1.8539524942,
				"z": 3.0438650492,
				"element": "C" 
			},
			{
				"x": 2.0879305283,
				"y": -1.4706605861,
				"z": 4.2682803915,
				"element": "O" 
			},
			{
				"x": -1.1254591611,
				"y": -2.9092313698,
				"z": 2.5162285296,
				"element": "H" 
			},
			{
				"x": -1.8875373724,
				"y": -1.3517582523,
				"z": 2.1589926317,
				"element": "H" 
			},
			{
				"x": -0.6011258893,
				"y": -1.9913613981,
				"z": 1.10350516,
				"element": "H" 
			},
			{
				"x": -0.279066739,
				"y": -1.2020028661,
				"z": 4.0606953437,
				"element": "H" 
			},
			{
				"x": 0.4144742146,
				"y": 0.1743457586,
				"z": 0.6642573662,
				"element": "H" 
			},
			{
				"x": 1.247388854,
				"y": 1.999079064,
				"z": -0.4625931319,
				"element": "H" 
			},
			{
				"x": 2.1332827727,
				"y": 3.9047503393,
				"z": 1.6059271747,
				"element": "H" 
			},
			{
				"x": 4.0160172733,
				"y": 3.6518151102,
				"z": 0.3124192066,
				"element": "H" 
			},
			{
				"x": 2.7116624162,
				"y": 5.5653869022,
				"z": -0.4157989228,
				"element": "H" 
			},
			{
				"x": 1.4289195515,
				"y": 6.0404914948,
				"z": 1.5045997145,
				"element": "H" 
			},
			{
				"x": 0.6533456941,
				"y": 5.871725949,
				"z": -1.8138476302,
				"element": "H" 
			},
			{
				"x": 1.9574191402,
				"y": 3.1599864736,
				"z": -2.3312976097,
				"element": "H" 
			},
			{
				"x": 2.7120208577,
				"y": 4.7194683306,
				"z": -2.6762931588,
				"element": "H" 
			},
			{
				"x": 1.0174328612,
				"y": 3.4738953621,
				"z": -4.2533236336,
				"element": "H" 
			},
			{
				"x": -0.8466983028,
				"y": 3.8370654185,
				"z": 0.7767350241,
				"element": "H" 
			},
			{
				"x": -0.6087370878,
				"y": 2.8861557242,
				"z": -2.933705714,
				"element": "H" 
			},
			{
				"x": 0.2550572057,
				"y": 0.4363558174,
				"z": -5.3441282496,
				"element": "H" 
			},
			{
				"x": -0.3432271356,
				"y": -3.6374516622,
				"z": -4.6330578091,
				"element": "H" 
			},
			{
				"x": 0.702760056,
				"y": -3.1829724075,
				"z": -3.2872629083,
				"element": "H" 
			},
			{
				"x": -2.3544644824,
				"y": -3.0042521757,
				"z": -3.3340479813,
				"element": "H" 
			},
			{
				"x": -1.8027456604,
				"y": -0.1897957231,
				"z": -0.1564716141,
				"element": "H" 
			},
			{
				"x": 0.1858910159,
				"y": -4.0568056552,
				"z": -0.7519993294,
				"element": "H" 
			},
			{
				"x": 0.2438113748,
				"y": -6.3346889365,
				"z": 0.2342026847,
				"element": "H" 
			},
			{
				"x": -1.8993665618,
				"y": -8.9037409184,
				"z": -0.827794365,
				"element": "H" 
			},
			{
				"x": -2.9291268166,
				"y": -7.5583276605,
				"z": -2.3897871845,
				"element": "H" 
			},
			{
				"x": -2.9947627475,
				"y": -5.2924657987,
				"z": -3.3719067844,
				"element": "H" 
			},
			{
				"x": 2.7834035746,
				"y": 0.5702123242,
				"z": 2.5494338446,
				"element": "H" 
			},
			{
				"x": 3.236799932,
				"y": 1.2840153746,
				"z": 0.3784581429,
				"element": "H" 
			},
			{
				"x": 3.387970545,
				"y": -1.7339140541,
				"z": 2.0759852006,
				"element": "H" 
			},
			{
				"x": 2.3105767925,
				"y": -1.5861025593,
				"z": -0.0500185186,
				"element": "H" 
			},
			{
				"x": 1.3229827864,
				"y": -2.9444415228,
				"z": 2.9974405449,
				"element": "H" 
			},
			{
				"x": 2.9376986024,
				"y": -1.9270405976,
				"z": 4.3249580191,
				"element": "H" 
			}
		],
		 "valence_orbital": [ 
			{
				"type": "occ",
				"energy": -0.25449,
				"method": "rhf"
			},
			{
				"type": "occ",
				"energy": -0.2361,
				"method": "rhf"
			},
			{
				"type": "occ",
				"energy": -0.23395,
				"method": "rhf"
			},
			{
				"type": "occ",
				"energy": -0.22542,
				"method": "rhf"
			},
			{
				"type": "occ",
				"energy": -0.21822,
				"method": "rhf"
			},
			{
				"type": "unocc",
				"energy": -0.05749,
				"method": "rhf"
			},
			{
				"type": "unocc",
				"energy": -0.00923,
				"method": "rhf"
			},
			{
				"type": "unocc",
				"energy": 0.00037,
				"method": "rhf"
			},
			{
				"type": "unocc",
				"energy": 0.00861,
				"method": "rhf"
			},
			{
				"type": "unocc",
				"energy": 0.03105,
				"method": "rhf"
			}
		],
		"cosmo_sigma_profile": { 
			"-0.025": 0.0,
			"-0.024": 0.0,
			"-0.023": 0.0,
			"-0.022": 0.0,
			"-0.021": 0.0,
			"-0.02": 0.0,
			"-0.019": 0.0,
			"-0.018": 0.563088597135,
			"-0.017": 2.8078147681,
			"-0.016": 4.06408769343,
			"-0.015": 4.59043908121,
			"-0.014": 4.16690774892,
			"-0.013": 4.78225766671,
			"-0.012": 4.98338203195,
			"-0.011": 4.41328498492,
			"-0.01": 5.33993209168,
			"-0.009": 5.09803950891,
			"-0.008": 6.66275499038,
			"-0.007": 18.6517024138,
			"-0.006": 25.5638558782,
			"-0.005": 31.4575324179,
			"-0.004": 39.7842019279,
			"-0.003": 33.090577858,
			"-0.002": 34.140822124,
			"-0.001": 31.1748861299,
			"0.0": 30.6412131246,
			"0.001": 30.8026550755,
			"0.002": 32.2027105072,
			"0.003": 32.0052755945,
			"0.004": 28.0464596979,
			"0.005": 25.3576680989,
			"0.006": 16.6638890454,
			"0.007": 14.4504250411,
			"0.008": 13.6632353205,
			"0.009": 14.6879200168,
			"0.01": 12.067368167,
			"0.011": 12.0170330795,
			"0.012": 8.72233276634,
			"0.013": 8.01038010326,
			"0.014": 3.32644410225,
			"0.015": 0.100249377323,
			"0.016": 0.0,
			"0.017": 0.0,
			"0.018": 0.0,
			"0.019": 0.0,
			"0.02": 0.0,
			"0.021": 0.0,
			"0.022": 0.0,
			"0.023": 0.0,
			"0.024": 0.0,
			"0.025": 0.0
		}
	}
}
