{
	 "smiles": "O=C1CCC(C2=CC=CC=C2)C2=CC=CC=C12", 
	 "Tm": 347.65, 
	 "num_atms": 31, 
	 "gaussian": { 
		 "optdone": 1, 
		 "sigma_profile": "yes", 
		 "theory": "DFT", 
		 "functional": "B3LYP", 
		 "basiset": "6-31G**", 
		 "properties": { 
			 "R2extent": 5037.619, 
			 "electric_dipole_moment_norm": 3.3574354037, 
			 "electric_quadrupole_moment_norm": 15.4363674674, 
			 "total_energy": -693.380785276, 
			 "HOMO_LUMO_gap": 0.18706, 
			 "cosmo_polarized_energy": -9.6, 
			 "cosmo_cavitation_energy": 33.39, 
			 "cosmo_dispersion_energy": -23.87, 
			 "cosmo_repulsion_energy": 1.84, 
			 "cosmo_total_nonelectrostatic_energy": 11.36, 
			 "SMD_solvation_energy": 5.6 
		},
		"coords": [
			{
				"x": 1.9753846416,
				"y": -0.4518453191,
				"z": -4.5175230426,
				"element": "O" 
			},
			{
				"x": 1.3957655345,
				"y": -0.1235242434,
				"z": -3.4925732975,
				"element": "C" 
			},
			{
				"x": 0.1032685035,
				"y": -0.7970120851,
				"z": -3.0625704512,
				"element": "C" 
			},
			{
				"x": -0.0534301218,
				"y": -0.8298588289,
				"z": -1.5403887059,
				"element": "C" 
			},
			{
				"x": 0.0072149192,
				"y": 0.5917806556,
				"z": -0.9403152041,
				"element": "C" 
			},
			{
				"x": -0.1625508737,
				"y": 0.5491880227,
				"z": 0.5720715117,
				"element": "C" 
			},
			{
				"x": 0.8238483881,
				"y": -0.0128935894,
				"z": 1.3974706786,
				"element": "C" 
			},
			{
				"x": 0.6394627131,
				"y": -0.0948268575,
				"z": 2.7769159516,
				"element": "C" 
			},
			{
				"x": -0.5366112196,
				"y": 0.385203691,
				"z": 3.3593358284,
				"element": "C" 
			},
			{
				"x": -1.5233953392,
				"y": 0.9486958427,
				"z": 2.550884025,
				"element": "C" 
			},
			{
				"x": -1.3346278209,
				"y": 1.0286636166,
				"z": 1.1689359169,
				"element": "C" 
			},
			{
				"x": 1.2609590707,
				"y": 1.3317963924,
				"z": -1.4114640141,
				"element": "C" 
			},
			{
				"x": 1.7765617372,
				"y": 2.4103061842,
				"z": -0.6792876083,
				"element": "C" 
			},
			{
				"x": 2.8999808226,
				"y": 3.1083621573,
				"z": -1.118813387,
				"element": "C" 
			},
			{
				"x": 3.5417021617,
				"y": 2.7415299427,
				"z": -2.3062993685,
				"element": "C" 
			},
			{
				"x": 3.0402591018,
				"y": 1.6811163024,
				"z": -3.0490396085,
				"element": "C" 
			},
			{
				"x": 1.9025469435,
				"y": 0.9784868657,
				"z": -2.6193178195,
				"element": "C" 
			},
			{
				"x": -0.725265762,
				"y": -0.2245627773,
				"z": -3.5071205482,
				"element": "H" 
			},
			{
				"x": 0.0746884778,
				"y": -1.7945906499,
				"z": -3.5095723591,
				"element": "H" 
			},
			{
				"x": -1.0014688404,
				"y": -1.301227643,
				"z": -1.2613151203,
				"element": "H" 
			},
			{
				"x": 0.7432470974,
				"y": -1.4418841582,
				"z": -1.099612954,
				"element": "H" 
			},
			{
				"x": -0.8556545624,
				"y": 1.1435956751,
				"z": -1.3450638696,
				"element": "H" 
			},
			{
				"x": 1.7471923175,
				"y": -0.3790389704,
				"z": 0.9565542736,
				"element": "H" 
			},
			{
				"x": 1.4152470322,
				"y": -0.5326663184,
				"z": 3.3988707067,
				"element": "H" 
			},
			{
				"x": -0.6795615269,
				"y": 0.3219360327,
				"z": 4.434196455,
				"element": "H" 
			},
			{
				"x": -2.4405417264,
				"y": 1.3281050222,
				"z": 2.992657989,
				"element": "H" 
			},
			{
				"x": -2.1092380469,
				"y": 1.4687689019,
				"z": 0.5451468497,
				"element": "H" 
			},
			{
				"x": 1.297139102,
				"y": 2.6978861226,
				"z": 0.2508408392,
				"element": "H" 
			},
			{
				"x": 3.2786985531,
				"y": 3.9390658272,
				"z": -0.5295702164,
				"element": "H" 
			},
			{
				"x": 4.4196401903,
				"y": 3.2833149597,
				"z": -2.6455688469,
				"element": "H" 
			},
			{
				"x": 3.5025385323,
				"y": 1.3687292262,
				"z": -3.9797646037,
				"element": "H" 
			}
		],
		 "valence_orbital": [ 
			{
				"type": "occ",
				"energy": -0.2579,
				"method": "rhf"
			},
			{
				"type": "occ",
				"energy": -0.25477,
				"method": "rhf"
			},
			{
				"type": "occ",
				"energy": -0.2529,
				"method": "rhf"
			},
			{
				"type": "occ",
				"energy": -0.24254,
				"method": "rhf"
			},
			{
				"type": "occ",
				"energy": -0.23962,
				"method": "rhf"
			},
			{
				"type": "unocc",
				"energy": -0.05256,
				"method": "rhf"
			},
			{
				"type": "unocc",
				"energy": -0.01085,
				"method": "rhf"
			},
			{
				"type": "unocc",
				"energy": -0.00602,
				"method": "rhf"
			},
			{
				"type": "unocc",
				"energy": -0.00411,
				"method": "rhf"
			},
			{
				"type": "unocc",
				"energy": 0.04346,
				"method": "rhf"
			}
		],
		"cosmo_sigma_profile": { 
			"-0.025": 0.0,
			"-0.024": 0.0,
			"-0.023": 0.0,
			"-0.022": 0.0,
			"-0.021": 0.0,
			"-0.02": 0.0,
			"-0.019": 0.0,
			"-0.018": 0.0,
			"-0.017": 0.0,
			"-0.016": 0.0,
			"-0.015": 0.0,
			"-0.014": 0.0,
			"-0.013": 0.0,
			"-0.012": 0.0,
			"-0.011": 0.0,
			"-0.01": 0.0,
			"-0.009": 0.0,
			"-0.008": 0.0,
			"-0.007": 0.460963244596,
			"-0.006": 10.5641389347,
			"-0.005": 25.9706451031,
			"-0.004": 30.2337456849,
			"-0.003": 29.202989497,
			"-0.002": 22.7045332165,
			"-0.001": 22.4341141231,
			"0.0": 14.8822484286,
			"0.001": 15.6050726559,
			"0.002": 18.8440362019,
			"0.003": 17.9631359289,
			"0.004": 19.5024778708,
			"0.005": 12.0364852161,
			"0.006": 8.16831586316,
			"0.007": 2.11469073889,
			"0.008": 1.56187144553,
			"0.009": 1.64978927577,
			"0.01": 2.01597128303,
			"0.011": 2.64954937162,
			"0.012": 4.09117131454,
			"0.013": 2.47886878909,
			"0.014": 0.457247505299,
			"0.015": 0.0,
			"0.016": 0.0,
			"0.017": 0.0,
			"0.018": 0.0,
			"0.019": 0.0,
			"0.02": 0.0,
			"0.021": 0.0,
			"0.022": 0.0,
			"0.023": 0.0,
			"0.024": 0.0,
			"0.025": 0.0
		}
	}
}
