{
	 "smiles": "ClCC1=COC(=N1)C1=CC=C(I)C=C1", 
	 "Tm": 403.15, 
	 "num_atms": 21, 
	 "gaussian": { 
		 "optdone": 1, 
		 "sigma_profile": "yes", 
		 "theory": "DFT", 
		 "functional": "B3LYP", 
		 "basiset": "6-31G**", 
		 "properties": { 
			 "R2extent": 4702.7373, 
			 "electric_dipole_moment_norm": 2.88830241145, 
			 "electric_quadrupole_moment_norm": 11.0033224192, 
			 "total_energy": -986.830619672, 
			 "HOMO_LUMO_gap": 0.1721, 
			 "cosmo_polarized_energy": -9.86, 
			 "cosmo_cavitation_energy": 31.38, 
			 "cosmo_dispersion_energy": -24.52, 
			 "cosmo_repulsion_energy": 1.91, 
			 "cosmo_total_nonelectrostatic_energy": 8.76, 
			 "SMD_solvation_energy": 3.32 
		},
		"coords": [
			{
				"x": 0.7208946166,
				"y": 2.2457340803,
				"z": -3.684906414,
				"element": "Cl" 
			},
			{
				"x": 1.9739317232,
				"y": 1.4623076153,
				"z": -2.6006269299,
				"element": "C" 
			},
			{
				"x": 1.4090740538,
				"y": 1.0269107341,
				"z": -1.2997781981,
				"element": "C" 
			},
			{
				"x": 1.4585556945,
				"y": 1.6539493299,
				"z": -0.0921387235,
				"element": "C" 
			},
			{
				"x": 0.8062877953,
				"y": 0.8722593989,
				"z": 0.8169757781,
				"element": "O" 
			},
			{
				"x": 0.3816679958,
				"y": -0.2143999186,
				"z": 0.1018495634,
				"element": "C" 
			},
			{
				"x": 0.7171609682,
				"y": -0.1667489286,
				"z": -1.1557321519,
				"element": "N" 
			},
			{
				"x": -0.35990026,
				"y": -1.2588389994,
				"z": 0.799965147,
				"element": "C" 
			},
			{
				"x": -0.8143609337,
				"y": -2.3741227963,
				"z": 0.0785031826,
				"element": "C" 
			},
			{
				"x": -1.5235529826,
				"y": -3.3866368218,
				"z": 0.7172216294,
				"element": "C" 
			},
			{
				"x": -1.7817298716,
				"y": -3.2847324525,
				"z": 2.0875410855,
				"element": "C" 
			},
			{
				"x": -2.8603947167,
				"y": -4.8233451127,
				"z": 3.065516394,
				"element": "I" 
			},
			{
				"x": -1.3379736635,
				"y": -2.1815187729,
				"z": 2.8201860966,
				"element": "C" 
			},
			{
				"x": -0.6282492711,
				"y": -1.171632278,
				"z": 2.1740602079,
				"element": "C" 
			},
			{
				"x": 2.7622169146,
				"y": 2.2032321615,
				"z": -2.470279522,
				"element": "H" 
			},
			{
				"x": 2.3542707506,
				"y": 0.6092271967,
				"z": -3.1615237327,
				"element": "H" 
			},
			{
				"x": 1.876405421,
				"y": 2.5799226159,
				"z": 0.2687032223,
				"element": "H" 
			},
			{
				"x": -0.6061649945,
				"y": -2.4352051062,
				"z": -0.9842992728,
				"element": "H" 
			},
			{
				"x": -1.8712448827,
				"y": -4.2441836762,
				"z": 0.1526042119,
				"element": "H" 
			},
			{
				"x": -1.5410262293,
				"y": -2.1063573945,
				"z": 3.8823279463,
				"element": "H" 
			},
			{
				"x": -0.2815681278,
				"y": -0.3128208749,
				"z": 2.7386304798,
				"element": "H" 
			}
		],
		 "valence_orbital": [ 
			{
				"type": "occ",
				"energy": -0.29567,
				"method": "rhf"
			},
			{
				"type": "occ",
				"energy": -0.27403,
				"method": "rhf"
			},
			{
				"type": "occ",
				"energy": -0.27382,
				"method": "rhf"
			},
			{
				"type": "occ",
				"energy": -0.26861,
				"method": "rhf"
			},
			{
				"type": "occ",
				"energy": -0.2316,
				"method": "rhf"
			},
			{
				"type": "unocc",
				"energy": -0.0595,
				"method": "rhf"
			},
			{
				"type": "unocc",
				"energy": -0.04368,
				"method": "rhf"
			},
			{
				"type": "unocc",
				"energy": -0.02438,
				"method": "rhf"
			},
			{
				"type": "unocc",
				"energy": -0.0162,
				"method": "rhf"
			},
			{
				"type": "unocc",
				"energy": 0.03276,
				"method": "rhf"
			}
		],
		"cosmo_sigma_profile": { 
			"-0.025": 0.0,
			"-0.024": 0.0,
			"-0.023": 0.0,
			"-0.022": 0.0,
			"-0.021": 0.0,
			"-0.02": 0.0,
			"-0.019": 0.0,
			"-0.018": 0.0,
			"-0.017": 0.0,
			"-0.016": 0.0,
			"-0.015": 0.0,
			"-0.014": 0.0,
			"-0.013": 0.0,
			"-0.012": 0.0,
			"-0.011": 1.03970116072,
			"-0.01": 1.79909816626,
			"-0.009": 3.50904382676,
			"-0.008": 6.57581520529,
			"-0.007": 11.1654787187,
			"-0.006": 14.0004575979,
			"-0.005": 12.1500122716,
			"-0.004": 11.574169829,
			"-0.003": 12.279645944,
			"-0.002": 15.1133724186,
			"-0.001": 17.7876653247,
			"0.0": 21.442051463,
			"0.001": 24.7296725234,
			"0.002": 25.5647206662,
			"0.003": 25.7716234964,
			"0.004": 21.4541853942,
			"0.005": 9.94389250982,
			"0.006": 12.0121548618,
			"0.007": 6.38703796535,
			"0.008": 1.93318999812,
			"0.009": 0.741554219067,
			"0.01": 0.770996767857,
			"0.011": 0.924269074804,
			"0.012": 0.973653436846,
			"0.013": 0.533621530391,
			"0.014": 0.0165963521364,
			"0.015": 0.0,
			"0.016": 0.0,
			"0.017": 0.0,
			"0.018": 0.0,
			"0.019": 0.0,
			"0.02": 0.0,
			"0.021": 0.0,
			"0.022": 0.0,
			"0.023": 0.0,
			"0.024": 0.0,
			"0.025": 0.0
		}
	}
}
