{
	 "smiles": "CC1=CC(C)=C(C#N)C(=O)N1N=CC1=C(Cl)C=CC=C1", 
	 "Tm": 507.15, 
	 "num_atms": 32, 
	 "gaussian": { 
		 "optdone": 1, 
		 "sigma_profile": "yes", 
		 "theory": "DFT", 
		 "functional": "B3LYP", 
		 "basiset": "6-31G**", 
		 "properties": { 
			 "R2extent": 8099.3929, 
			 "electric_dipole_moment_norm": 8.29656230616, 
			 "electric_quadrupole_moment_norm": 28.5094109795, 
			 "total_energy": -1278.46042945, 
			 "HOMO_LUMO_gap": 0.14112, 
			 "cosmo_polarized_energy": -18.17, 
			 "cosmo_cavitation_energy": 39.52, 
			 "cosmo_dispersion_energy": -27.45, 
			 "cosmo_repulsion_energy": 2.09, 
			 "cosmo_total_nonelectrostatic_energy": 14.16, 
			 "SMD_solvation_energy": 8.23 
		},
		"coords": [
			{
				"x": -2.1517501065,
				"y": -0.0389281645,
				"z": 1.2430628478,
				"element": "C" 
			},
			{
				"x": -1.2079547014,
				"y": 1.0156073996,
				"z": 0.7457395357,
				"element": "C" 
			},
			{
				"x": -1.4153829727,
				"y": 2.3509998287,
				"z": 0.9812415506,
				"element": "C" 
			},
			{
				"x": -0.5314790185,
				"y": 3.3414228251,
				"z": 0.4866314068,
				"element": "C" 
			},
			{
				"x": -0.8139710664,
				"y": 4.7902590037,
				"z": 0.7798073978,
				"element": "C" 
			},
			{
				"x": 0.5662722283,
				"y": 2.931682024,
				"z": -0.2517839157,
				"element": "C" 
			},
			{
				"x": 1.495553018,
				"y": 3.8727842017,
				"z": -0.7930106448,
				"element": "C" 
			},
			{
				"x": 2.2281080395,
				"y": 4.6715476841,
				"z": -1.2175608681,
				"element": "N" 
			},
			{
				"x": 0.8600257501,
				"y": 1.5284135444,
				"z": -0.5174276691,
				"element": "C" 
			},
			{
				"x": 1.820725099,
				"y": 1.1310524891,
				"z": -1.1630887131,
				"element": "O" 
			},
			{
				"x": -0.0895843271,
				"y": 0.6068866286,
				"z": 0.0479634211,
				"element": "N" 
			},
			{
				"x": -0.055103075,
				"y": -0.7557425586,
				"z": -0.2441290231,
				"element": "N" 
			},
			{
				"x": 1.087577538,
				"y": -1.3362257308,
				"z": -0.3802914828,
				"element": "C" 
			},
			{
				"x": 1.1160791586,
				"y": -2.7599622345,
				"z": -0.7397132445,
				"element": "C" 
			},
			{
				"x": 2.3005812558,
				"y": -3.5175565435,
				"z": -0.661091677,
				"element": "C" 
			},
			{
				"x": 3.8031650603,
				"y": -2.7959962151,
				"z": -0.0992021024,
				"element": "Cl" 
			},
			{
				"x": 2.324796627,
				"y": -4.8678447467,
				"z": -1.0096289473,
				"element": "C" 
			},
			{
				"x": 1.1563892503,
				"y": -5.4878397902,
				"z": -1.4473412523,
				"element": "C" 
			},
			{
				"x": -0.0337490601,
				"y": -4.7592105812,
				"z": -1.5356310723,
				"element": "C" 
			},
			{
				"x": -0.0472945762,
				"y": -3.4150908679,
				"z": -1.1884312643,
				"element": "C" 
			},
			{
				"x": -2.9670434465,
				"y": 0.4310193212,
				"z": 1.7959834966,
				"element": "H" 
			},
			{
				"x": -2.5648771988,
				"y": -0.6153572847,
				"z": 0.4106139879,
				"element": "H" 
			},
			{
				"x": -1.6420779601,
				"y": -0.7533113834,
				"z": 1.8963763153,
				"element": "H" 
			},
			{
				"x": -2.2848822531,
				"y": 2.6454228678,
				"z": 1.5568687758,
				"element": "H" 
			},
			{
				"x": -0.7743088579,
				"y": 4.9711657967,
				"z": 1.8601721824,
				"element": "H" 
			},
			{
				"x": -0.1001201383,
				"y": 5.4551555913,
				"z": 0.2925444057,
				"element": "H" 
			},
			{
				"x": -1.8237322708,
				"y": 5.0544378886,
				"z": 0.4470154719,
				"element": "H" 
			},
			{
				"x": 2.0342337365,
				"y": -0.8292274723,
				"z": -0.2428156371,
				"element": "H" 
			},
			{
				"x": 3.2544705565,
				"y": -5.4205486124,
				"z": -0.9350959455,
				"element": "H" 
			},
			{
				"x": 1.1794865459,
				"y": -6.5380039205,
				"z": -1.7222985118,
				"element": "H" 
			},
			{
				"x": -0.9436301101,
				"y": -5.2387688782,
				"z": -1.8827030134,
				"element": "H" 
			},
			{
				"x": -0.9568227242,
				"y": -2.82964211,
				"z": -1.2639758108,
				"element": "H" 
			}
		],
		 "valence_orbital": [ 
			{
				"type": "occ",
				"energy": -0.29166,
				"method": "rhf"
			},
			{
				"type": "occ",
				"energy": -0.26628,
				"method": "rhf"
			},
			{
				"type": "occ",
				"energy": -0.26169,
				"method": "rhf"
			},
			{
				"type": "occ",
				"energy": -0.2545,
				"method": "rhf"
			},
			{
				"type": "occ",
				"energy": -0.22391,
				"method": "rhf"
			},
			{
				"type": "unocc",
				"energy": -0.08279,
				"method": "rhf"
			},
			{
				"type": "unocc",
				"energy": -0.05115,
				"method": "rhf"
			},
			{
				"type": "unocc",
				"energy": -0.02413,
				"method": "rhf"
			},
			{
				"type": "unocc",
				"energy": -0.00714,
				"method": "rhf"
			},
			{
				"type": "unocc",
				"energy": 0.02061,
				"method": "rhf"
			}
		],
		"cosmo_sigma_profile": { 
			"-0.025": 0.0,
			"-0.024": 0.0,
			"-0.023": 0.0,
			"-0.022": 0.0,
			"-0.021": 0.0,
			"-0.02": 0.0,
			"-0.019": 0.0,
			"-0.018": 0.0,
			"-0.017": 0.0,
			"-0.016": 0.0,
			"-0.015": 0.0,
			"-0.014": 0.0,
			"-0.013": 0.0,
			"-0.012": 0.0,
			"-0.011": 0.0,
			"-0.01": 0.0,
			"-0.009": 0.0,
			"-0.008": 1.96127514418,
			"-0.007": 9.32054941496,
			"-0.006": 17.8724027349,
			"-0.005": 23.6659859717,
			"-0.004": 23.4343068935,
			"-0.003": 28.026265097,
			"-0.002": 35.8485842158,
			"-0.001": 28.9913771771,
			"0.0": 25.2534097903,
			"0.001": 23.825584366,
			"0.002": 25.5051321262,
			"0.003": 20.8792301563,
			"0.004": 11.7619857107,
			"0.005": 4.90912646715,
			"0.006": 3.9222468986,
			"0.007": 3.86582614687,
			"0.008": 6.46937533978,
			"0.009": 4.61534122226,
			"0.01": 5.37202502465,
			"0.011": 5.12180220137,
			"0.012": 6.0433769632,
			"0.013": 3.27866847913,
			"0.014": 0.377067727373,
			"0.015": 0.0,
			"0.016": 0.0,
			"0.017": 0.0,
			"0.018": 0.0,
			"0.019": 0.0,
			"0.02": 0.0,
			"0.021": 0.0,
			"0.022": 0.0,
			"0.023": 0.0,
			"0.024": 0.0,
			"0.025": 0.0
		}
	}
}
