{
	 "smiles": "CC(C)C1=CC(=O)OC2=C1C=CC(O)=C2", 
	 "Tm": 351.15, 
	 "num_atms": 27, 
	 "gaussian": { 
		 "optdone": 1, 
		 "sigma_profile": "yes", 
		 "theory": "DFT", 
		 "functional": "B3LYP", 
		 "basiset": "6-31G**", 
		 "properties": { 
			 "R2extent": 4003.4492, 
			 "electric_dipole_moment_norm": 6.73970453729, 
			 "electric_quadrupole_moment_norm": 18.7652025459, 
			 "total_energy": -690.19381261, 
			 "HOMO_LUMO_gap": 0.16593, 
			 "cosmo_polarized_energy": -16.5, 
			 "cosmo_cavitation_energy": 30.28, 
			 "cosmo_dispersion_energy": -22.03, 
			 "cosmo_repulsion_energy": 1.71, 
			 "cosmo_total_nonelectrostatic_energy": 9.96, 
			 "SMD_solvation_energy": 6.72 
		},
		"coords": [
			{
				"x": 0.1914580116,
				"y": 2.2347433075,
				"z": 0.3893862959,
				"element": "C" 
			},
			{
				"x": -1.072884423,
				"y": 1.3462669546,
				"z": 0.4241131949,
				"element": "C" 
			},
			{
				"x": -2.2212687501,
				"y": 2.0754678202,
				"z": 1.1365084074,
				"element": "C" 
			},
			{
				"x": -0.7422369582,
				"y": -0.0170994393,
				"z": 1.0157887421,
				"element": "C" 
			},
			{
				"x": -1.030576638,
				"y": -0.3275282316,
				"z": 2.307168151,
				"element": "C" 
			},
			{
				"x": -0.68878105,
				"y": -1.5984190467,
				"z": 2.9242843768,
				"element": "C" 
			},
			{
				"x": -0.9139818917,
				"y": -1.9219849188,
				"z": 4.0674659843,
				"element": "O" 
			},
			{
				"x": -0.0363837904,
				"y": -2.5232491885,
				"z": 2.1065519745,
				"element": "O" 
			},
			{
				"x": 0.2609237929,
				"y": -2.2572383617,
				"z": 0.8046594608,
				"element": "C" 
			},
			{
				"x": -0.0660183869,
				"y": -1.0200570402,
				"z": 0.2027329919,
				"element": "C" 
			},
			{
				"x": 0.2850104804,
				"y": -0.8603085868,
				"z": -1.1523297242,
				"element": "C" 
			},
			{
				"x": 0.9242409615,
				"y": -1.8630226717,
				"z": -1.8650485572,
				"element": "C" 
			},
			{
				"x": 1.2359731822,
				"y": -3.0791719954,
				"z": -1.2323826824,
				"element": "C" 
			},
			{
				"x": 1.8616392196,
				"y": -4.0993843072,
				"z": -1.8785616407,
				"element": "O" 
			},
			{
				"x": 0.9023015637,
				"y": -3.277193511,
				"z": 0.105681301,
				"element": "C" 
			},
			{
				"x": 1.0163545976,
				"y": 1.7546254336,
				"z": -0.1440602764,
				"element": "H" 
			},
			{
				"x": -0.026603327,
				"y": 3.1874722022,
				"z": -0.1042697477,
				"element": "H" 
			},
			{
				"x": 0.5324019439,
				"y": 2.4497571805,
				"z": 1.4074129137,
				"element": "H" 
			},
			{
				"x": -1.394528529,
				"y": 1.1795631402,
				"z": -0.6119348041,
				"element": "H" 
			},
			{
				"x": -2.4779471749,
				"y": 2.9860937639,
				"z": 0.5863818647,
				"element": "H" 
			},
			{
				"x": -3.1183366317,
				"y": 1.4525054932,
				"z": 1.1999955764,
				"element": "H" 
			},
			{
				"x": -1.9440926583,
				"y": 2.3781252536,
				"z": 2.1515809869,
				"element": "H" 
			},
			{
				"x": -1.537749938,
				"y": 0.3633411203,
				"z": 2.9679302676,
				"element": "H" 
			},
			{
				"x": 0.0531226874,
				"y": 0.0686323035,
				"z": -1.6606218199,
				"element": "H" 
			},
			{
				"x": 1.1825976742,
				"y": -1.7107938765,
				"z": -2.910103889,
				"element": "H" 
			},
			{
				"x": 2.0368654817,
				"y": -3.8411615564,
				"z": -2.7929035851,
				"element": "H" 
			},
			{
				"x": 1.1352005507,
				"y": -4.2115812413,
				"z": 0.6018742366,
				"element": "H" 
			}
		],
		 "valence_orbital": [ 
			{
				"type": "occ",
				"energy": -0.33182,
				"method": "rhf"
			},
			{
				"type": "occ",
				"energy": -0.28816,
				"method": "rhf"
			},
			{
				"type": "occ",
				"energy": -0.26451,
				"method": "rhf"
			},
			{
				"type": "occ",
				"energy": -0.2498,
				"method": "rhf"
			},
			{
				"type": "occ",
				"energy": -0.22283,
				"method": "rhf"
			},
			{
				"type": "unocc",
				"energy": -0.0569,
				"method": "rhf"
			},
			{
				"type": "unocc",
				"energy": -0.01218,
				"method": "rhf"
			},
			{
				"type": "unocc",
				"energy": 0.01122,
				"method": "rhf"
			},
			{
				"type": "unocc",
				"energy": 0.05713,
				"method": "rhf"
			},
			{
				"type": "unocc",
				"energy": 0.07674,
				"method": "rhf"
			}
		],
		"cosmo_sigma_profile": { 
			"-0.025": 0.0,
			"-0.024": 0.0,
			"-0.023": 0.0,
			"-0.022": 0.0,
			"-0.021": 0.0,
			"-0.02": 0.0,
			"-0.019": 0.108243429565,
			"-0.018": 1.06678111981,
			"-0.017": 1.12915420994,
			"-0.016": 1.08719100144,
			"-0.015": 0.788642508905,
			"-0.014": 1.78941664468,
			"-0.013": 0.721708226144,
			"-0.012": 0.48722656097,
			"-0.011": 1.16236238889,
			"-0.01": 1.31153811942,
			"-0.009": 1.07573974612,
			"-0.008": 1.84959276841,
			"-0.007": 5.0218249382,
			"-0.006": 8.45025822027,
			"-0.005": 8.67615941949,
			"-0.004": 12.0203146165,
			"-0.003": 25.3443645791,
			"-0.002": 22.0572046143,
			"-0.001": 22.6911527495,
			"0.0": 24.3030256878,
			"0.001": 24.1174756545,
			"0.002": 19.0256812859,
			"0.003": 12.8085175467,
			"0.004": 5.75341960301,
			"0.005": 2.94947790973,
			"0.006": 3.78733612788,
			"0.007": 3.74619461689,
			"0.008": 3.24698121208,
			"0.009": 3.75527558667,
			"0.01": 4.35081507121,
			"0.011": 4.25773229826,
			"0.012": 5.42931943286,
			"0.013": 5.03229132852,
			"0.014": 0.657787749344,
			"0.015": 0.0,
			"0.016": 0.0,
			"0.017": 0.0,
			"0.018": 0.0,
			"0.019": 0.0,
			"0.02": 0.0,
			"0.021": 0.0,
			"0.022": 0.0,
			"0.023": 0.0,
			"0.024": 0.0,
			"0.025": 0.0
		}
	}
}
