{
	 "smiles": "COC1=C(OCC#N)C=CC(C=CC(O)=O)=C1", 
	 "Tm": 438.15, 
	 "num_atms": 28, 
	 "gaussian": { 
		 "optdone": 1, 
		 "sigma_profile": "yes", 
		 "theory": "DFT", 
		 "functional": "B3LYP", 
		 "basiset": "6-31G**", 
		 "properties": { 
			 "R2extent": 7075.2153, 
			 "electric_dipole_moment_norm": 3.41726829646, 
			 "electric_quadrupole_moment_norm": 33.6103772685, 
			 "total_energy": -819.499586015, 
			 "HOMO_LUMO_gap": 0.15663, 
			 "cosmo_polarized_energy": -18.85, 
			 "cosmo_cavitation_energy": 35.04, 
			 "cosmo_dispersion_energy": -24.35, 
			 "cosmo_repulsion_energy": 1.91, 
			 "cosmo_total_nonelectrostatic_energy": 12.6, 
			 "SMD_solvation_energy": 9.96 
		},
		"coords": [
			{
				"x": 1.9898206841,
				"y": 1.1545237332,
				"z": -1.3673018385,
				"element": "C" 
			},
			{
				"x": 1.4297734276,
				"y": 1.0196023984,
				"z": -0.0659485313,
				"element": "O" 
			},
			{
				"x": 0.2456320656,
				"y": 0.3532338866,
				"z": 0.0643596757,
				"element": "C" 
			},
			{
				"x": -0.2994626419,
				"y": 0.2973083967,
				"z": 1.3657690785,
				"element": "C" 
			},
			{
				"x": 0.2984848787,
				"y": 0.9201041185,
				"z": 2.4383121103,
				"element": "O" 
			},
			{
				"x": 1.6074945429,
				"y": 0.4631719002,
				"z": 2.7818272209,
				"element": "C" 
			},
			{
				"x": 1.9855198388,
				"y": 1.0738014308,
				"z": 4.0612048675,
				"element": "C" 
			},
			{
				"x": 2.3159264715,
				"y": 1.5399165159,
				"z": 5.0702081789,
				"element": "N" 
			},
			{
				"x": -1.5220291086,
				"y": -0.3384760336,
				"z": 1.5768396625,
				"element": "C" 
			},
			{
				"x": -2.2134065681,
				"y": -0.9275445144,
				"z": 0.5236408406,
				"element": "C" 
			},
			{
				"x": -1.6796311696,
				"y": -0.8997885039,
				"z": -0.7750636404,
				"element": "C" 
			},
			{
				"x": -2.3416746188,
				"y": -1.5061141619,
				"z": -1.9286018833,
				"element": "C" 
			},
			{
				"x": -3.5138652407,
				"y": -2.1672404325,
				"z": -1.9547716961,
				"element": "C" 
			},
			{
				"x": -4.018481965,
				"y": -2.7114603867,
				"z": -3.2286906182,
				"element": "C" 
			},
			{
				"x": -5.2101211902,
				"y": -3.3425961788,
				"z": -3.0623672926,
				"element": "O" 
			},
			{
				"x": -3.4722363319,
				"y": -2.6302578448,
				"z": -4.3135935868,
				"element": "O" 
			},
			{
				"x": -0.4448692395,
				"y": -0.2531767215,
				"z": -0.9847357422,
				"element": "C" 
			},
			{
				"x": 2.2403648804,
				"y": 0.1789704851,
				"z": -1.801784158,
				"element": "H" 
			},
			{
				"x": 1.3084335018,
				"y": 1.6878774684,
				"z": -2.0406052211,
				"element": "H" 
			},
			{
				"x": 2.9020770836,
				"y": 1.7383427569,
				"z": -1.2403859474,
				"element": "H" 
			},
			{
				"x": 1.6216443279,
				"y": -0.6298977741,
				"z": 2.8939441011,
				"element": "H" 
			},
			{
				"x": 2.3386109758,
				"y": 0.7417084485,
				"z": 2.0160053724,
				"element": "H" 
			},
			{
				"x": -1.9179602106,
				"y": -0.3500471018,
				"z": 2.5869933886,
				"element": "H" 
			},
			{
				"x": -3.1632174291,
				"y": -1.4138927969,
				"z": 0.7167080883,
				"element": "H" 
			},
			{
				"x": -1.8252459806,
				"y": -1.4132777138,
				"z": -2.8830344522,
				"element": "H" 
			},
			{
				"x": -4.1277062155,
				"y": -2.3293429996,
				"z": -1.0752928402,
				"element": "H" 
			},
			{
				"x": -5.4643492354,
				"y": -3.665324356,
				"z": -3.9426965676,
				"element": "H" 
			},
			{
				"x": -0.0399255332,
				"y": -0.223424019,
				"z": -1.9896385691,
				"element": "H" 
			}
		],
		 "valence_orbital": [ 
			{
				"type": "occ",
				"energy": -0.30997,
				"method": "rhf"
			},
			{
				"type": "occ",
				"energy": -0.29362,
				"method": "rhf"
			},
			{
				"type": "occ",
				"energy": -0.27586,
				"method": "rhf"
			},
			{
				"type": "occ",
				"energy": -0.25744,
				"method": "rhf"
			},
			{
				"type": "occ",
				"energy": -0.23008,
				"method": "rhf"
			},
			{
				"type": "unocc",
				"energy": -0.07345,
				"method": "rhf"
			},
			{
				"type": "unocc",
				"energy": -0.01464,
				"method": "rhf"
			},
			{
				"type": "unocc",
				"energy": 0.00166,
				"method": "rhf"
			},
			{
				"type": "unocc",
				"energy": 0.01554,
				"method": "rhf"
			},
			{
				"type": "unocc",
				"energy": 0.03396,
				"method": "rhf"
			}
		],
		"cosmo_sigma_profile": { 
			"-0.025": 0.0,
			"-0.024": 0.0,
			"-0.023": 0.0,
			"-0.022": 0.0,
			"-0.021": 0.0,
			"-0.02": 0.0,
			"-0.019": 0.0,
			"-0.018": 0.503001650401,
			"-0.017": 0.822924320248,
			"-0.016": 0.928955319756,
			"-0.015": 1.12921040532,
			"-0.014": 0.398507043274,
			"-0.013": 0.513904530704,
			"-0.012": 0.355097836906,
			"-0.011": 1.07817478255,
			"-0.01": 2.19440429069,
			"-0.009": 5.62693463542,
			"-0.008": 8.05860299379,
			"-0.007": 14.0319169853,
			"-0.006": 17.1974247661,
			"-0.005": 17.9503351104,
			"-0.004": 17.2433044831,
			"-0.003": 15.6015678126,
			"-0.002": 13.3052185421,
			"-0.001": 15.4069077957,
			"0.0": 16.1962444313,
			"0.001": 18.8513666728,
			"0.002": 22.4755049344,
			"0.003": 21.0867099635,
			"0.004": 10.8628644862,
			"0.005": 7.88198500182,
			"0.006": 9.05523887097,
			"0.007": 7.91195485993,
			"0.008": 7.67751537858,
			"0.009": 6.78073915301,
			"0.01": 5.85636276122,
			"0.011": 4.73250791888,
			"0.012": 7.2411449659,
			"0.013": 2.00362043711,
			"0.014": 0.0,
			"0.015": 0.0,
			"0.016": 0.0,
			"0.017": 0.0,
			"0.018": 0.0,
			"0.019": 0.0,
			"0.02": 0.0,
			"0.021": 0.0,
			"0.022": 0.0,
			"0.023": 0.0,
			"0.024": 0.0,
			"0.025": 0.0
		}
	}
}
