{
	 "smiles": "CCCCC(Cl)=O", 
	 "Tm": 163.15, 
	 "num_atms": 16, 
	 "gaussian": { 
		 "optdone": 1, 
		 "sigma_profile": "yes", 
		 "theory": "DFT", 
		 "functional": "B3LYP", 
		 "basiset": "6-31G**", 
		 "properties": { 
			 "R2extent": 1980.4219, 
			 "electric_dipole_moment_norm": 3.0425933445, 
			 "electric_quadrupole_moment_norm": 9.79568193798, 
			 "total_energy": -731.391494178, 
			 "HOMO_LUMO_gap": 0.25725, 
			 "cosmo_polarized_energy": -5.23, 
			 "cosmo_cavitation_energy": 20.85, 
			 "cosmo_dispersion_energy": -15.15, 
			 "cosmo_repulsion_energy": 1.31, 
			 "cosmo_total_nonelectrostatic_energy": 7.01, 
			 "SMD_solvation_energy": 4.0 
		},
		"coords": [
			{
				"x": -0.0152347879,
				"y": -0.3406498392,
				"z": 2.234391938,
				"element": "C" 
			},
			{
				"x": -0.0795490772,
				"y": 0.4041855406,
				"z": 0.8957440101,
				"element": "C" 
			},
			{
				"x": -0.1592578068,
				"y": -0.5110096048,
				"z": -0.3382129372,
				"element": "C" 
			},
			{
				"x": 1.0761617032,
				"y": -1.3892624791,
				"z": -0.5824811485,
				"element": "C" 
			},
			{
				"x": 2.2905024979,
				"y": -0.6084496696,
				"z": -1.0240437651,
				"element": "C" 
			},
			{
				"x": 3.7670802147,
				"y": -1.6929579,
				"z": -1.2011945284,
				"element": "Cl" 
			},
			{
				"x": 2.3772571252,
				"y": 0.5508270083,
				"z": -1.2690334985,
				"element": "O" 
			},
			{
				"x": 0.892317109,
				"y": -0.9469155376,
				"z": 2.3295269372,
				"element": "H" 
			},
			{
				"x": -0.8751292414,
				"y": -1.0090895024,
				"z": 2.3595728177,
				"element": "H" 
			},
			{
				"x": -0.0187323251,
				"y": 0.3637052199,
				"z": 3.0721171385,
				"element": "H" 
			},
			{
				"x": -0.9648794516,
				"y": 1.0515514592,
				"z": 0.8907427793,
				"element": "H" 
			},
			{
				"x": 0.78317058,
				"y": 1.0724545722,
				"z": 0.7961929243,
				"element": "H" 
			},
			{
				"x": -0.3368002718,
				"y": 0.0980055621,
				"z": -1.2311930324,
				"element": "H" 
			},
			{
				"x": -1.0233511126,
				"y": -1.180055483,
				"z": -0.2378638258,
				"element": "H" 
			},
			{
				"x": 0.8871382571,
				"y": -2.1307550261,
				"z": -1.3689936991,
				"element": "H" 
			},
			{
				"x": 1.3583065869,
				"y": -1.9719843206,
				"z": 0.3008278899,
				"element": "H" 
			}
		],
		 "valence_orbital": [ 
			{
				"type": "occ",
				"energy": -0.34241,
				"method": "rhf"
			},
			{
				"type": "occ",
				"energy": -0.34032,
				"method": "rhf"
			},
			{
				"type": "occ",
				"energy": -0.31925,
				"method": "rhf"
			},
			{
				"type": "occ",
				"energy": -0.31314,
				"method": "rhf"
			},
			{
				"type": "occ",
				"energy": -0.2953,
				"method": "rhf"
			},
			{
				"type": "unocc",
				"energy": -0.03805,
				"method": "rhf"
			},
			{
				"type": "unocc",
				"energy": 0.01708,
				"method": "rhf"
			},
			{
				"type": "unocc",
				"energy": 0.0732,
				"method": "rhf"
			},
			{
				"type": "unocc",
				"energy": 0.10974,
				"method": "rhf"
			},
			{
				"type": "unocc",
				"energy": 0.12649,
				"method": "rhf"
			}
		],
		"cosmo_sigma_profile": { 
			"-0.025": 0.0,
			"-0.024": 0.0,
			"-0.023": 0.0,
			"-0.022": 0.0,
			"-0.021": 0.0,
			"-0.02": 0.0,
			"-0.019": 0.0,
			"-0.018": 0.0,
			"-0.017": 0.0,
			"-0.016": 0.0,
			"-0.015": 0.0,
			"-0.014": 0.0,
			"-0.013": 0.0,
			"-0.012": 0.0,
			"-0.011": 0.0,
			"-0.01": 0.0,
			"-0.009": 0.0,
			"-0.008": 1.31576344283,
			"-0.007": 4.42893631939,
			"-0.006": 5.63546204634,
			"-0.005": 6.51739585837,
			"-0.004": 10.380143062,
			"-0.003": 15.5772165721,
			"-0.002": 18.5217689179,
			"-0.001": 17.7544858855,
			"0.0": 19.220964902,
			"0.001": 15.2700715214,
			"0.002": 9.39481938278,
			"0.003": 6.81229956265,
			"0.004": 9.61601157977,
			"0.005": 11.446191726,
			"0.006": 4.21665022721,
			"0.007": 2.76912639936,
			"0.008": 4.32699547485,
			"0.009": 2.1403351428,
			"0.01": 0.0396961786602,
			"0.011": 0.0,
			"0.012": 0.0,
			"0.013": 0.0,
			"0.014": 0.0,
			"0.015": 0.0,
			"0.016": 0.0,
			"0.017": 0.0,
			"0.018": 0.0,
			"0.019": 0.0,
			"0.02": 0.0,
			"0.021": 0.0,
			"0.022": 0.0,
			"0.023": 0.0,
			"0.024": 0.0,
			"0.025": 0.0
		}
	}
}
