{
	 "smiles": "CC1(C)CN1P(=O)(NC(=O)NC12CC3CC(CC(C3)C1)C2)N1CC1(C)C", 
	 "Tm": 403.15, 
	 "num_atms": 59, 
	 "gaussian": { 
		 "optdone": 1, 
		 "sigma_profile": "yes", 
		 "theory": "DFT", 
		 "functional": "B3LYP", 
		 "basiset": "6-31G**", 
		 "properties": { 
			 "R2extent": 11676.2975, 
			 "electric_dipole_moment_norm": 5.40939358062, 
			 "electric_quadrupole_moment_norm": 16.6961770666, 
			 "total_energy": -1454.76111219, 
			 "HOMO_LUMO_gap": 0.25873, 
			 "cosmo_polarized_energy": -25.06, 
			 "cosmo_cavitation_energy": 55.7, 
			 "cosmo_dispersion_energy": -35.96, 
			 "cosmo_repulsion_energy": 2.65, 
			 "cosmo_total_nonelectrostatic_energy": 22.38, 
			 "SMD_solvation_energy": 6.9 
		},
		"coords": [
			{
				"x": 3.2805739685,
				"y": -0.6120915781,
				"z": 3.2325474696,
				"element": "C" 
			},
			{
				"x": 2.0359065647,
				"y": -0.2696337348,
				"z": 2.4315565047,
				"element": "C" 
			},
			{
				"x": 0.7306640246,
				"y": -0.5380081934,
				"z": 3.1594107931,
				"element": "C" 
			},
			{
				"x": 2.1134434131,
				"y": 0.8433681446,
				"z": 1.4266690629,
				"element": "C" 
			},
			{
				"x": 2.1627521739,
				"y": -0.5447767893,
				"z": 0.9965336503,
				"element": "N" 
			},
			{
				"x": 1.2311036677,
				"y": -1.3686416429,
				"z": -0.1368734626,
				"element": "P" 
			},
			{
				"x": 1.7595146597,
				"y": -1.2412290332,
				"z": -1.5238878448,
				"element": "O" 
			},
			{
				"x": -0.3663427798,
				"y": -0.714216499,
				"z": 0.0171886134,
				"element": "N" 
			},
			{
				"x": -1.4690006248,
				"y": -1.2962861788,
				"z": -0.613696785,
				"element": "C" 
			},
			{
				"x": -1.464625016,
				"y": -2.4677649781,
				"z": -0.9736160713,
				"element": "O" 
			},
			{
				"x": -2.6010600131,
				"y": -0.5201569159,
				"z": -0.7631450254,
				"element": "N" 
			},
			{
				"x": -2.8355826896,
				"y": 0.9321922326,
				"z": -0.6997605497,
				"element": "C" 
			},
			{
				"x": -1.9119859815,
				"y": 1.7363684634,
				"z": -1.6524268064,
				"element": "C" 
			},
			{
				"x": -2.2733743722,
				"y": 3.2367732022,
				"z": -1.6068575039,
				"element": "C" 
			},
			{
				"x": -3.7317495855,
				"y": 3.4264980205,
				"z": -2.0705204961,
				"element": "C" 
			},
			{
				"x": -4.6721847662,
				"y": 2.6432844497,
				"z": -1.1321951439,
				"element": "C" 
			},
			{
				"x": -4.5260256747,
				"y": 3.1780487994,
				"z": 0.3065071199,
				"element": "C" 
			},
			{
				"x": -3.0697366725,
				"y": 2.9873467164,
				"z": 0.7748639138,
				"element": "C" 
			},
			{
				"x": -2.1200146992,
				"y": 3.7610277014,
				"z": -0.1637408732,
				"element": "C" 
			},
			{
				"x": -2.7135685355,
				"y": 1.48557718,
				"z": 0.7435782533,
				"element": "C" 
			},
			{
				"x": -4.2983096736,
				"y": 1.1485664924,
				"z": -1.1621641064,
				"element": "C" 
			},
			{
				"x": 1.1188356438,
				"y": -2.8789026116,
				"z": 0.5971360586,
				"element": "N" 
			},
			{
				"x": 0.9038566449,
				"y": -4.0926309511,
				"z": -0.2068241655,
				"element": "C" 
			},
			{
				"x": 2.1852583304,
				"y": -3.92293893,
				"z": 0.5304267716,
				"element": "C" 
			},
			{
				"x": 2.3751086942,
				"y": -4.6506508218,
				"z": 1.8485764724,
				"element": "C" 
			},
			{
				"x": 3.4661809225,
				"y": -3.6753853071,
				"z": -0.2473989475,
				"element": "C" 
			},
			{
				"x": 3.3206349245,
				"y": -0.0204420977,
				"z": 4.1541938946,
				"element": "H" 
			},
			{
				"x": 4.1840808979,
				"y": -0.4181736016,
				"z": 2.6494555569,
				"element": "H" 
			},
			{
				"x": 3.27479466,
				"y": -1.6708309821,
				"z": 3.5138235439,
				"element": "H" 
			},
			{
				"x": -0.1393910866,
				"y": -0.2382089253,
				"z": 2.5734452915,
				"element": "H" 
			},
			{
				"x": 0.6300326213,
				"y": -1.6069619909,
				"z": 3.3704307293,
				"element": "H" 
			},
			{
				"x": 0.7173352539,
				"y": 0.0033309317,
				"z": 4.1117677666,
				"element": "H" 
			},
			{
				"x": 1.20412156,
				"y": 1.4208691084,
				"z": 1.2475362739,
				"element": "H" 
			},
			{
				"x": 3.0312292325,
				"y": 1.4151981774,
				"z": 1.2976425002,
				"element": "H" 
			},
			{
				"x": -0.3909095678,
				"y": 0.2895837774,
				"z": 0.1315175456,
				"element": "H" 
			},
			{
				"x": -3.3061919744,
				"y": -1.0557812235,
				"z": -1.2512734987,
				"element": "H" 
			},
			{
				"x": -0.8570787675,
				"y": 1.6018076742,
				"z": -1.3851031266,
				"element": "H" 
			},
			{
				"x": -2.0217969618,
				"y": 1.3420732601,
				"z": -2.6697578116,
				"element": "H" 
			},
			{
				"x": -1.5988525168,
				"y": 3.7873971506,
				"z": -2.27373588,
				"element": "H" 
			},
			{
				"x": -3.8477232049,
				"y": 3.0750430601,
				"z": -3.1037827893,
				"element": "H" 
			},
			{
				"x": -3.9956379132,
				"y": 4.4917127309,
				"z": -2.0638565165,
				"element": "H" 
			},
			{
				"x": -5.7104867543,
				"y": 2.7571959985,
				"z": -1.4669319466,
				"element": "H" 
			},
			{
				"x": -4.7989728577,
				"y": 4.2403290035,
				"z": 0.3431158243,
				"element": "H" 
			},
			{
				"x": -5.2118405537,
				"y": 2.648245391,
				"z": 0.9801402481,
				"element": "H" 
			},
			{
				"x": -2.9601413169,
				"y": 3.359302975,
				"z": 1.8010766155,
				"element": "H" 
			},
			{
				"x": -1.0801362623,
				"y": 3.6464263977,
				"z": 0.171392498,
				"element": "H" 
			},
			{
				"x": -2.3469738008,
				"y": 4.8340320072,
				"z": -0.1267560933,
				"element": "H" 
			},
			{
				"x": -3.3781051834,
				"y": 0.9114637101,
				"z": 1.4000886606,
				"element": "H" 
			},
			{
				"x": -1.6987405597,
				"y": 1.3481097893,
				"z": 1.1362934095,
				"element": "H" 
			},
			{
				"x": -4.9685024508,
				"y": 0.5736032787,
				"z": -0.5099439704,
				"element": "H" 
			},
			{
				"x": -4.4136400084,
				"y": 0.7517401973,
				"z": -2.1799302176,
				"element": "H" 
			},
			{
				"x": 0.9162732609,
				"y": -3.9785228103,
				"z": -1.2875411749,
				"element": "H" 
			},
			{
				"x": 0.1243597292,
				"y": -4.7478707567,
				"z": 0.173445888,
				"element": "H" 
			},
			{
				"x": 1.4210684551,
				"y": -4.7776194265,
				"z": 2.3662725183,
				"element": "H" 
			},
			{
				"x": 3.0529862165,
				"y": -4.0939693947,
				"z": 2.5057035896,
				"element": "H" 
			},
			{
				"x": 2.8151756181,
				"y": -5.6397724471,
				"z": 1.6768792774,
				"element": "H" 
			},
			{
				"x": 3.9515234928,
				"y": -4.6339194099,
				"z": -0.4635187938,
				"element": "H" 
			},
			{
				"x": 3.274093485,
				"y": -3.1515898874,
				"z": -1.1850521251,
				"element": "H" 
			},
			{
				"x": 4.1642747091,
				"y": -3.0706389028,
				"z": 0.3416754106,
				"element": "H" 
			}
		],
		 "valence_orbital": [ 
			{
				"type": "occ",
				"energy": -0.26551,
				"method": "rhf"
			},
			{
				"type": "occ",
				"energy": -0.25116,
				"method": "rhf"
			},
			{
				"type": "occ",
				"energy": -0.24299,
				"method": "rhf"
			},
			{
				"type": "occ",
				"energy": -0.23873,
				"method": "rhf"
			},
			{
				"type": "occ",
				"energy": -0.22946,
				"method": "rhf"
			},
			{
				"type": "unocc",
				"energy": 0.02927,
				"method": "rhf"
			},
			{
				"type": "unocc",
				"energy": 0.05019,
				"method": "rhf"
			},
			{
				"type": "unocc",
				"energy": 0.07026,
				"method": "rhf"
			},
			{
				"type": "unocc",
				"energy": 0.07598,
				"method": "rhf"
			},
			{
				"type": "unocc",
				"energy": 0.08607,
				"method": "rhf"
			}
		],
		"cosmo_sigma_profile": { 
			"-0.025": 0.0,
			"-0.024": 0.0,
			"-0.023": 0.0,
			"-0.022": 0.0,
			"-0.021": 0.0,
			"-0.02": 0.0,
			"-0.019": 0.0,
			"-0.018": 0.0,
			"-0.017": 0.0,
			"-0.016": 0.0,
			"-0.015": 0.0,
			"-0.014": 0.0486358387015,
			"-0.013": 1.23008408211,
			"-0.012": 1.8872500798,
			"-0.011": 2.62986702021,
			"-0.01": 1.87758172616,
			"-0.009": 2.09382118358,
			"-0.008": 2.85181625465,
			"-0.007": 3.2853558067,
			"-0.006": 5.92171507818,
			"-0.005": 9.48469439037,
			"-0.004": 25.444847374,
			"-0.003": 48.3289470223,
			"-0.002": 69.1344066238,
			"-0.001": 69.9705677171,
			"0.0": 72.2136138988,
			"0.001": 29.3386573339,
			"0.002": 10.1875058045,
			"0.003": 8.1427603522,
			"0.004": 6.65943036799,
			"0.005": 5.77719202904,
			"0.006": 5.69515494658,
			"0.007": 4.24113498873,
			"0.008": 4.98859091941,
			"0.009": 5.48866858563,
			"0.01": 5.41944648916,
			"0.011": 5.0826550274,
			"0.012": 4.03038066944,
			"0.013": 3.98743111225,
			"0.014": 4.60064446751,
			"0.015": 5.51892430054,
			"0.016": 3.10455318075,
			"0.017": 0.00883873349656,
			"0.018": 0.0,
			"0.019": 0.0,
			"0.02": 0.0,
			"0.021": 0.0,
			"0.022": 0.0,
			"0.023": 0.0,
			"0.024": 0.0,
			"0.025": 0.0
		}
	}
}
