{
	 "smiles": "CCC(NC1=NN=NN1C1=CC=CC=C1)C(O)=O", 
	 "Tm": 423.15, 
	 "num_atms": 31, 
	 "gaussian": { 
		 "optdone": 1, 
		 "sigma_profile": "yes", 
		 "theory": "DFT", 
		 "functional": "B3LYP", 
		 "basiset": "6-31G**", 
		 "properties": { 
			 "R2extent": 4621.9979, 
			 "electric_dipole_moment_norm": 5.53646321852, 
			 "electric_quadrupole_moment_norm": 24.1877885792, 
			 "total_energy": -851.169519272, 
			 "HOMO_LUMO_gap": 0.20465, 
			 "cosmo_polarized_energy": -20.51, 
			 "cosmo_cavitation_energy": 35.6, 
			 "cosmo_dispersion_energy": -24.05, 
			 "cosmo_repulsion_energy": 1.88, 
			 "cosmo_total_nonelectrostatic_energy": 13.42, 
			 "SMD_solvation_energy": 4.69 
		},
		"coords": [
			{
				"x": 1.0044665607,
				"y": 3.2570963168,
				"z": -0.5742077109,
				"element": "C" 
			},
			{
				"x": 1.2002566312,
				"y": 1.8043976749,
				"z": -1.0207788818,
				"element": "C" 
			},
			{
				"x": -0.0151969266,
				"y": 0.8812530235,
				"z": -0.77870242,
				"element": "C" 
			},
			{
				"x": -0.3767772727,
				"y": 0.8463118156,
				"z": 0.6471045101,
				"element": "N" 
			},
			{
				"x": -1.1282930875,
				"y": -0.2114314249,
				"z": 1.1308250233,
				"element": "C" 
			},
			{
				"x": -2.2709096535,
				"y": -0.0924706886,
				"z": 1.7871248086,
				"element": "N" 
			},
			{
				"x": -2.6363702776,
				"y": -1.3545282358,
				"z": 2.1343063581,
				"element": "N" 
			},
			{
				"x": -1.7917461695,
				"y": -2.228020739,
				"z": 1.7160880843,
				"element": "N" 
			},
			{
				"x": -0.7930854623,
				"y": -1.529929687,
				"z": 1.0762173147,
				"element": "N" 
			},
			{
				"x": 0.3587702988,
				"y": -2.2099199213,
				"z": 0.584671986,
				"element": "C" 
			},
			{
				"x": 1.6332034463,
				"y": -1.6723357159,
				"z": 0.7925814854,
				"element": "C" 
			},
			{
				"x": 2.7483198534,
				"y": -2.3644550074,
				"z": 0.3200417571,
				"element": "C" 
			},
			{
				"x": 2.59488196,
				"y": -3.5878955208,
				"z": -0.335161535,
				"element": "C" 
			},
			{
				"x": 1.3176873313,
				"y": -4.1216600525,
				"z": -0.5214201385,
				"element": "C" 
			},
			{
				"x": 0.1926745213,
				"y": -3.4346346169,
				"z": -0.0681335821,
				"element": "C" 
			},
			{
				"x": -1.1640445009,
				"y": 1.2844466799,
				"z": -1.7099320793,
				"element": "C" 
			},
			{
				"x": -2.1183180246,
				"y": 2.004290566,
				"z": -1.0799137916,
				"element": "O" 
			},
			{
				"x": -1.1939088953,
				"y": 1.0257404715,
				"z": -2.8913380481,
				"element": "O" 
			},
			{
				"x": 0.837225722,
				"y": 3.3271908632,
				"z": 0.5056051869,
				"element": "H" 
			},
			{
				"x": 1.8977320176,
				"y": 3.8459046108,
				"z": -0.8020364587,
				"element": "H" 
			},
			{
				"x": 0.1574153305,
				"y": 3.7312188681,
				"z": -1.0805179784,
				"element": "H" 
			},
			{
				"x": 1.4293022755,
				"y": 1.7659299793,
				"z": -2.0909541585,
				"element": "H" 
			},
			{
				"x": 2.0516931431,
				"y": 1.3641191834,
				"z": -0.4911113486,
				"element": "H" 
			},
			{
				"x": 0.2702105399,
				"y": -0.1260835897,
				"z": -1.0879838025,
				"element": "H" 
			},
			{
				"x": -0.8330798396,
				"y": 1.7058867799,
				"z": 0.9366628037,
				"element": "H" 
			},
			{
				"x": 1.7415484511,
				"y": -0.7312302004,
				"z": 1.3203998391,
				"element": "H" 
			},
			{
				"x": 3.7396908996,
				"y": -1.9508185402,
				"z": 0.4783632727,
				"element": "H" 
			},
			{
				"x": 3.46688405,
				"y": -4.1247029059,
				"z": -0.6958793967,
				"element": "H" 
			},
			{
				"x": 1.1932856443,
				"y": -5.074716958,
				"z": -1.0262311218,
				"element": "H" 
			},
			{
				"x": -0.8055075349,
				"y": -3.8354878202,
				"z": -0.2013706813,
				"element": "H" 
			},
			{
				"x": -2.7952110318,
				"y": 2.2198347915,
				"z": -1.7438192961,
				"element": "H" 
			}
		],
		 "valence_orbital": [ 
			{
				"type": "occ",
				"energy": -0.28846,
				"method": "rhf"
			},
			{
				"type": "occ",
				"energy": -0.28091,
				"method": "rhf"
			},
			{
				"type": "occ",
				"energy": -0.27291,
				"method": "rhf"
			},
			{
				"type": "occ",
				"energy": -0.25851,
				"method": "rhf"
			},
			{
				"type": "occ",
				"energy": -0.24405,
				"method": "rhf"
			},
			{
				"type": "unocc",
				"energy": -0.0394,
				"method": "rhf"
			},
			{
				"type": "unocc",
				"energy": -0.02457,
				"method": "rhf"
			},
			{
				"type": "unocc",
				"energy": -0.00895,
				"method": "rhf"
			},
			{
				"type": "unocc",
				"energy": 0.00733,
				"method": "rhf"
			},
			{
				"type": "unocc",
				"energy": 0.03793,
				"method": "rhf"
			}
		],
		"cosmo_sigma_profile": { 
			"-0.025": 0.0,
			"-0.024": 0.0,
			"-0.023": 0.0,
			"-0.022": 0.0,
			"-0.021": 0.0,
			"-0.02": 0.0,
			"-0.019": 0.447632613125,
			"-0.018": 1.16508897035,
			"-0.017": 0.5634547939,
			"-0.016": 0.794203959329,
			"-0.015": 1.00466465611,
			"-0.014": 0.973765188728,
			"-0.013": 0.753329837206,
			"-0.012": 1.37941994674,
			"-0.011": 1.33579798875,
			"-0.01": 1.43774323331,
			"-0.009": 1.63209713294,
			"-0.008": 3.58472622683,
			"-0.007": 7.51716779938,
			"-0.006": 14.9118752768,
			"-0.005": 17.0400201061,
			"-0.004": 25.4029122205,
			"-0.003": 24.9529596073,
			"-0.002": 24.5948682578,
			"-0.001": 21.436497121,
			"0.0": 18.4502354761,
			"0.001": 16.4863512549,
			"0.002": 13.6501145335,
			"0.003": 15.1742693955,
			"0.004": 11.3979493198,
			"0.005": 5.28742587934,
			"0.006": 6.27132202582,
			"0.007": 6.1073388723,
			"0.008": 6.23379551331,
			"0.009": 5.520767535,
			"0.01": 7.91009456249,
			"0.011": 9.59963387776,
			"0.012": 5.29580954738,
			"0.013": 2.59910119196,
			"0.014": 1.59221931008,
			"0.015": 0.565746969681,
			"0.016": 0.0,
			"0.017": 0.0,
			"0.018": 0.0,
			"0.019": 0.0,
			"0.02": 0.0,
			"0.021": 0.0,
			"0.022": 0.0,
			"0.023": 0.0,
			"0.024": 0.0,
			"0.025": 0.0
		}
	}
}
