{
	 "smiles": "OC(=O)CN(CC(O)=O)CC(O)=O", 
	 "Tm": 518.15, 
	 "num_atms": 22, 
	 "gaussian": { 
		 "optdone": 1, 
		 "sigma_profile": "yes", 
		 "theory": "DFT", 
		 "functional": "B3LYP", 
		 "basiset": "6-31G**", 
		 "properties": { 
			 "R2extent": 2577.9975, 
			 "electric_dipole_moment_norm": 7.3540926116, 
			 "electric_quadrupole_moment_norm": 17.025282037, 
			 "total_energy": -740.163266748, 
			 "HOMO_LUMO_gap": 0.20677, 
			 "cosmo_polarized_energy": -28.8, 
			 "cosmo_cavitation_energy": 26.36, 
			 "cosmo_dispersion_energy": -18.52, 
			 "cosmo_repulsion_energy": 1.47, 
			 "cosmo_total_nonelectrostatic_energy": 9.32, 
			 "SMD_solvation_energy": 7.81 
		},
		"coords": [
			{
				"x": 0.7814316212,
				"y": 3.1781729007,
				"z": -0.2869273929,
				"element": "O" 
			},
			{
				"x": 0.0090526442,
				"y": 2.2671184911,
				"z": 0.3828440623,
				"element": "C" 
			},
			{
				"x": 0.0806859796,
				"y": 2.1137595492,
				"z": 1.5769784154,
				"element": "O" 
			},
			{
				"x": -0.8891872912,
				"y": 1.4738646291,
				"z": -0.5653803291,
				"element": "C" 
			},
			{
				"x": -0.3960740705,
				"y": 0.1385136046,
				"z": -0.9200643122,
				"element": "N" 
			},
			{
				"x": 0.7268166325,
				"y": 0.0642945018,
				"z": -1.8668468093,
				"element": "C" 
			},
			{
				"x": 2.1376336042,
				"y": 0.0639875889,
				"z": -1.2416395033,
				"element": "C" 
			},
			{
				"x": 2.7257161458,
				"y": 1.2604104676,
				"z": -1.0205812535,
				"element": "O" 
			},
			{
				"x": 2.696320398,
				"y": -0.9636887784,
				"z": -0.9435760617,
				"element": "O" 
			},
			{
				"x": -0.3817825805,
				"y": -0.8374147917,
				"z": 0.1830228141,
				"element": "C" 
			},
			{
				"x": -1.7554281194,
				"y": -1.5036154828,
				"z": 0.3676664588,
				"element": "C" 
			},
			{
				"x": -2.5926837137,
				"y": -1.3362286519,
				"z": -0.6760019906,
				"element": "O" 
			},
			{
				"x": -2.0458097225,
				"y": -2.1398903212,
				"z": 1.3483720988,
				"element": "O" 
			},
			{
				"x": 1.3332236136,
				"y": 3.6172160444,
				"z": 0.386039277,
				"element": "H" 
			},
			{
				"x": -1.851327592,
				"y": 1.353083653,
				"z": -0.0586152964,
				"element": "H" 
			},
			{
				"x": -1.0493817891,
				"y": 2.0469067901,
				"z": -1.4827607342,
				"element": "H" 
			},
			{
				"x": 0.6554085057,
				"y": -0.8839956693,
				"z": -2.4066086368,
				"element": "H" 
			},
			{
				"x": 0.6147569223,
				"y": 0.8760524491,
				"z": -2.5939064348,
				"element": "H" 
			},
			{
				"x": 2.1222606798,
				"y": 1.9946998681,
				"z": -1.2213658124,
				"element": "H" 
			},
			{
				"x": 0.3416184819,
				"y": -1.624482988,
				"z": -0.0495922886,
				"element": "H" 
			},
			{
				"x": -0.0798581142,
				"y": -0.4053788106,
				"z": 1.1424110784,
				"element": "H" 
			},
			{
				"x": -2.0956922357,
				"y": -0.7941850438,
				"z": -1.324067349,
				"element": "H" 
			}
		],
		 "valence_orbital": [ 
			{
				"type": "occ",
				"energy": -0.33163,
				"method": "rhf"
			},
			{
				"type": "occ",
				"energy": -0.31297,
				"method": "rhf"
			},
			{
				"type": "occ",
				"energy": -0.29896,
				"method": "rhf"
			},
			{
				"type": "occ",
				"energy": -0.27889,
				"method": "rhf"
			},
			{
				"type": "occ",
				"energy": -0.25369,
				"method": "rhf"
			},
			{
				"type": "unocc",
				"energy": -0.04692,
				"method": "rhf"
			},
			{
				"type": "unocc",
				"energy": -0.01773,
				"method": "rhf"
			},
			{
				"type": "unocc",
				"energy": 0.00997,
				"method": "rhf"
			},
			{
				"type": "unocc",
				"energy": 0.03097,
				"method": "rhf"
			},
			{
				"type": "unocc",
				"energy": 0.06618,
				"method": "rhf"
			}
		],
		"cosmo_sigma_profile": { 
			"-0.025": 0.0,
			"-0.024": 0.0,
			"-0.023": 0.0,
			"-0.022": 0.0,
			"-0.021": 0.0,
			"-0.02": 0.0112132950142,
			"-0.019": 0.821410928491,
			"-0.018": 1.13071819693,
			"-0.017": 0.665749137588,
			"-0.016": 0.903666037914,
			"-0.015": 1.53065891787,
			"-0.014": 1.58410824026,
			"-0.013": 1.77929084641,
			"-0.012": 2.89780709271,
			"-0.011": 3.03448379986,
			"-0.01": 4.64194897147,
			"-0.009": 7.75054342677,
			"-0.008": 11.0276082849,
			"-0.007": 13.4971849039,
			"-0.006": 15.1738033276,
			"-0.005": 12.6960898901,
			"-0.004": 8.99236497717,
			"-0.003": 8.00268445364,
			"-0.002": 6.1747700169,
			"-0.001": 6.63078794043,
			"0.0": 4.6953381479,
			"0.001": 5.61489200117,
			"0.002": 5.81241650038,
			"0.003": 5.08338195449,
			"0.004": 4.78812740219,
			"0.005": 5.48498263944,
			"0.006": 5.86443020328,
			"0.007": 7.57023980794,
			"0.008": 6.71491980441,
			"0.009": 8.54328176236,
			"0.01": 14.3390793283,
			"0.011": 12.423273842,
			"0.012": 9.28929863559,
			"0.013": 2.74909535455,
			"0.014": 0.0536609669777,
			"0.015": 0.0,
			"0.016": 0.0,
			"0.017": 0.0,
			"0.018": 0.0,
			"0.019": 0.0,
			"0.02": 0.0,
			"0.021": 0.0,
			"0.022": 0.0,
			"0.023": 0.0,
			"0.024": 0.0,
			"0.025": 0.0
		}
	}
}
