{
	 "smiles": "CCC(=O)C1=CC=C2C=CC=CC2=C1", 
	 "Tm": 333.15, 
	 "num_atms": 26, 
	 "gaussian": { 
		 "optdone": 1, 
		 "sigma_profile": "yes", 
		 "theory": "DFT", 
		 "functional": "B3LYP", 
		 "basiset": "6-31G**", 
		 "properties": { 
			 "R2extent": 3487.98, 
			 "electric_dipole_moment_norm": 2.93295192767, 
			 "electric_quadrupole_moment_norm": 12.2401307681, 
			 "total_energy": -577.858027796, 
			 "HOMO_LUMO_gap": 0.15943, 
			 "cosmo_polarized_energy": -8.7, 
			 "cosmo_cavitation_energy": 29.36, 
			 "cosmo_dispersion_energy": -21.41, 
			 "cosmo_repulsion_energy": 1.66, 
			 "cosmo_total_nonelectrostatic_energy": 9.62, 
			 "SMD_solvation_energy": 5.27 
		},
		"coords": [
			{
				"x": 2.9582071644,
				"y": 1.9352409437,
				"z": -0.4985633107,
				"element": "C" 
			},
			{
				"x": 2.9481636115,
				"y": 0.3963538974,
				"z": -0.5806458599,
				"element": "C" 
			},
			{
				"x": 1.6647787321,
				"y": -0.1259671967,
				"z": -1.2170295542,
				"element": "C" 
			},
			{
				"x": 1.648271588,
				"y": -0.4126081083,
				"z": -2.4063812993,
				"element": "O" 
			},
			{
				"x": 0.4191973963,
				"y": -0.246959646,
				"z": -0.3872528458,
				"element": "C" 
			},
			{
				"x": 0.3803715981,
				"y": 0.043446392,
				"z": 1.0065476057,
				"element": "C" 
			},
			{
				"x": -0.789140878,
				"y": -0.0848265334,
				"z": 1.7185071089,
				"element": "C" 
			},
			{
				"x": -1.9890256382,
				"y": -0.5104488558,
				"z": 1.0872773274,
				"element": "C" 
			},
			{
				"x": -3.213065761,
				"y": -0.6544706826,
				"z": 1.7930590041,
				"element": "C" 
			},
			{
				"x": -4.3539190921,
				"y": -1.0703272444,
				"z": 1.1435435128,
				"element": "C" 
			},
			{
				"x": -4.3261357941,
				"y": -1.3625852866,
				"z": -0.2435676387,
				"element": "C" 
			},
			{
				"x": -3.1562300597,
				"y": -1.2332027379,
				"z": -0.9559887584,
				"element": "C" 
			},
			{
				"x": -1.9594297093,
				"y": -0.8058403281,
				"z": -0.3160764003,
				"element": "C" 
			},
			{
				"x": -0.7407779185,
				"y": -0.6626822194,
				"z": -1.0201673877,
				"element": "C" 
			},
			{
				"x": 2.147684998,
				"y": 2.3142822859,
				"z": 0.1314808092,
				"element": "H" 
			},
			{
				"x": 3.9052946785,
				"y": 2.2901663943,
				"z": -0.0811993175,
				"element": "H" 
			},
			{
				"x": 2.8417499016,
				"y": 2.3717630941,
				"z": -1.4949895514,
				"element": "H" 
			},
			{
				"x": 3.0949796411,
				"y": -0.035015574,
				"z": 0.4156981188,
				"element": "H" 
			},
			{
				"x": 3.7687049624,
				"y": 0.0554483248,
				"z": -1.217316066,
				"element": "H" 
			},
			{
				"x": 1.2790477744,
				"y": 0.3688003776,
				"z": 1.5194024862,
				"element": "H" 
			},
			{
				"x": -0.8084863944,
				"y": 0.1385451612,
				"z": 2.7820756098,
				"element": "H" 
			},
			{
				"x": -3.2350367128,
				"y": -0.4307168418,
				"z": 2.8564837287,
				"element": "H" 
			},
			{
				"x": -5.2841738642,
				"y": -1.1766107992,
				"z": 1.6941922665,
				"element": "H" 
			},
			{
				"x": -5.2345396245,
				"y": -1.6894795583,
				"z": -0.7409023226,
				"element": "H" 
			},
			{
				"x": -3.1281832281,
				"y": -1.4557493698,
				"z": -2.0192930502,
				"element": "H" 
			},
			{
				"x": -0.6957073715,
				"y": -0.8809558886,
				"z": -2.0829942154,
				"element": "H" 
			}
		],
		 "valence_orbital": [ 
			{
				"type": "occ",
				"energy": -0.32477,
				"method": "rhf"
			},
			{
				"type": "occ",
				"energy": -0.29,
				"method": "rhf"
			},
			{
				"type": "occ",
				"energy": -0.2509,
				"method": "rhf"
			},
			{
				"type": "occ",
				"energy": -0.24208,
				"method": "rhf"
			},
			{
				"type": "occ",
				"energy": -0.22241,
				"method": "rhf"
			},
			{
				"type": "unocc",
				"energy": -0.06298,
				"method": "rhf"
			},
			{
				"type": "unocc",
				"energy": -0.03282,
				"method": "rhf"
			},
			{
				"type": "unocc",
				"energy": 0.01402,
				"method": "rhf"
			},
			{
				"type": "unocc",
				"energy": 0.03419,
				"method": "rhf"
			},
			{
				"type": "unocc",
				"energy": 0.08619,
				"method": "rhf"
			}
		],
		"cosmo_sigma_profile": { 
			"-0.025": 0.0,
			"-0.024": 0.0,
			"-0.023": 0.0,
			"-0.022": 0.0,
			"-0.021": 0.0,
			"-0.02": 0.0,
			"-0.019": 0.0,
			"-0.018": 0.0,
			"-0.017": 0.0,
			"-0.016": 0.0,
			"-0.015": 0.0,
			"-0.014": 0.0,
			"-0.013": 0.0,
			"-0.012": 0.0,
			"-0.011": 0.0,
			"-0.01": 0.0,
			"-0.009": 0.0,
			"-0.008": 0.033834122651,
			"-0.007": 2.75227101779,
			"-0.006": 15.4270406323,
			"-0.005": 15.6388478644,
			"-0.004": 20.7555196749,
			"-0.003": 20.7564214356,
			"-0.002": 22.0976837316,
			"-0.001": 22.571157202,
			"0.0": 16.9492071219,
			"0.001": 14.3213411218,
			"0.002": 14.9792160486,
			"0.003": 27.0002709897,
			"0.004": 17.3610848505,
			"0.005": 5.84937741119,
			"0.006": 1.88647102188,
			"0.007": 1.68239752723,
			"0.008": 1.34488169053,
			"0.009": 1.47870935155,
			"0.01": 2.20588923335,
			"0.011": 2.71058010717,
			"0.012": 3.87363218593,
			"0.013": 2.05218523996,
			"0.014": 0.347280643467,
			"0.015": 0.0,
			"0.016": 0.0,
			"0.017": 0.0,
			"0.018": 0.0,
			"0.019": 0.0,
			"0.02": 0.0,
			"0.021": 0.0,
			"0.022": 0.0,
			"0.023": 0.0,
			"0.024": 0.0,
			"0.025": 0.0
		}
	}
}
