{
	 "smiles": "CC(C)(N=NC(C)(C)C#N)C#N", 
	 "Tm": 375.15, 
	 "num_atms": 24, 
	 "gaussian": { 
		 "optdone": 1, 
		 "sigma_profile": "yes", 
		 "theory": "DFT", 
		 "functional": "B3LYP", 
		 "basiset": "6-31G**", 
		 "properties": { 
			 "R2extent": 2712.1028, 
			 "electric_dipole_moment_norm": 0.000640312423743, 
			 "electric_quadrupole_moment_norm": 34.2614387093, 
			 "total_energy": -531.005540057, 
			 "HOMO_LUMO_gap": 0.17713, 
			 "cosmo_polarized_energy": -13.76, 
			 "cosmo_cavitation_energy": 29.46, 
			 "cosmo_dispersion_energy": -18.64, 
			 "cosmo_repulsion_energy": 1.55, 
			 "cosmo_total_nonelectrostatic_energy": 12.37, 
			 "SMD_solvation_energy": 6.52 
		},
		"coords": [
			{
				"x": -1.2273444475,
				"y": -2.0513886823,
				"z": -1.9931635997,
				"element": "C" 
			},
			{
				"x": -2.0360576084,
				"y": -0.8990968872,
				"z": -1.3649084435,
				"element": "C" 
			},
			{
				"x": -2.1778901655,
				"y": 0.2981909037,
				"z": -2.3255462018,
				"element": "C" 
			},
			{
				"x": -1.3783404022,
				"y": -0.4508609769,
				"z": -0.0779170255,
				"element": "N" 
			},
			{
				"x": -0.2387404402,
				"y": -0.0178082084,
				"z": -0.273159147,
				"element": "N" 
			},
			{
				"x": 0.4193689973,
				"y": 0.4294589322,
				"z": 1.0139673047,
				"element": "C" 
			},
			{
				"x": 0.561192683,
				"y": -0.7684458186,
				"z": 1.9738531422,
				"element": "C" 
			},
			{
				"x": -0.3889868834,
				"y": 1.5815118226,
				"z": 1.6430988212,
				"element": "C" 
			},
			{
				"x": 1.7598678257,
				"y": 0.9167294459,
				"z": 0.624668434,
				"element": "C" 
			},
			{
				"x": 2.8189183969,
				"y": 1.3070902516,
				"z": 0.3570396668,
				"element": "N" 
			},
			{
				"x": -3.3765826999,
				"y": -1.3863033382,
				"z": -0.9756187167,
				"element": "C" 
			},
			{
				"x": -4.4354835414,
				"y": -1.777031388,
				"z": -0.7079342516,
				"element": "N" 
			},
			{
				"x": -1.1253169982,
				"y": -2.8818687481,
				"z": -1.2898100251,
				"element": "H" 
			},
			{
				"x": -1.7303661523,
				"y": -2.4171468753,
				"z": -2.8915056226,
				"element": "H" 
			},
			{
				"x": -0.2339818149,
				"y": -1.682898036,
				"z": -2.2573798394,
				"element": "H" 
			},
			{
				"x": -2.7398261225,
				"y": 1.1087692242,
				"z": -1.8543696869,
				"element": "H" 
			},
			{
				"x": -2.7049024472,
				"y": -0.0081558387,
				"z": -3.232319131,
				"element": "H" 
			},
			{
				"x": -1.181801525,
				"y": 0.6599822715,
				"z": -2.5887603629,
				"element": "H" 
			},
			{
				"x": -0.4349012704,
				"y": -1.130245612,
				"z": 2.2370350919,
				"element": "H" 
			},
			{
				"x": 1.1229051466,
				"y": -1.5788241765,
				"z": 1.5020683035,
				"element": "H" 
			},
			{
				"x": 1.0884249228,
				"y": -0.4627543071,
				"z": 2.8807205534,
				"element": "H" 
			},
			{
				"x": -1.3823463069,
				"y": 1.2130282264,
				"z": 1.907338629,
				"element": "H" 
			},
			{
				"x": -0.4910390195,
				"y": 2.4124330486,
				"z": 0.9402694626,
				"element": "H" 
			},
			{
				"x": 0.114329873,
				"y": 1.9466347665,
				"z": 2.5415326445,
				"element": "H" 
			}
		],
		 "valence_orbital": [ 
			{
				"type": "occ",
				"energy": -0.34224,
				"method": "rhf"
			},
			{
				"type": "occ",
				"energy": -0.33801,
				"method": "rhf"
			},
			{
				"type": "occ",
				"energy": -0.33286,
				"method": "rhf"
			},
			{
				"type": "occ",
				"energy": -0.32854,
				"method": "rhf"
			},
			{
				"type": "occ",
				"energy": -0.25745,
				"method": "rhf"
			},
			{
				"type": "unocc",
				"energy": -0.08032,
				"method": "rhf"
			},
			{
				"type": "unocc",
				"energy": 0.00999,
				"method": "rhf"
			},
			{
				"type": "unocc",
				"energy": 0.02794,
				"method": "rhf"
			},
			{
				"type": "unocc",
				"energy": 0.03231,
				"method": "rhf"
			},
			{
				"type": "unocc",
				"energy": 0.03295,
				"method": "rhf"
			}
		],
		"cosmo_sigma_profile": { 
			"-0.025": 0.0,
			"-0.024": 0.0,
			"-0.023": 0.0,
			"-0.022": 0.0,
			"-0.021": 0.0,
			"-0.02": 0.0,
			"-0.019": 0.0,
			"-0.018": 0.0,
			"-0.017": 0.0,
			"-0.016": 0.0,
			"-0.015": 0.0,
			"-0.014": 0.0,
			"-0.013": 0.0,
			"-0.012": 0.0,
			"-0.011": 0.0,
			"-0.01": 0.0,
			"-0.009": 0.0,
			"-0.008": 0.329541025272,
			"-0.007": 3.49717685867,
			"-0.006": 16.4603194309,
			"-0.005": 23.5299457945,
			"-0.004": 25.6713502663,
			"-0.003": 25.9753867717,
			"-0.002": 31.8900748883,
			"-0.001": 21.5521252293,
			"0.0": 8.0093687398,
			"0.001": 4.51651307727,
			"0.002": 6.28320866317,
			"0.003": 5.37514618622,
			"0.004": 5.9809387144,
			"0.005": 8.10708906383,
			"0.006": 6.13119625798,
			"0.007": 8.38765000373,
			"0.008": 7.00808285861,
			"0.009": 6.99082154148,
			"0.01": 5.96339890741,
			"0.011": 5.11640968639,
			"0.012": 4.67312362992,
			"0.013": 1.97925050677,
			"0.014": 0.0,
			"0.015": 0.0,
			"0.016": 0.0,
			"0.017": 0.0,
			"0.018": 0.0,
			"0.019": 0.0,
			"0.02": 0.0,
			"0.021": 0.0,
			"0.022": 0.0,
			"0.023": 0.0,
			"0.024": 0.0,
			"0.025": 0.0
		}
	}
}
