{
	 "smiles": "COC1=CC(C)=CC=C1", 
	 "Tm": 226.15, 
	 "num_atms": 19, 
	 "gaussian": { 
		 "optdone": 1, 
		 "sigma_profile": "yes", 
		 "theory": "DFT", 
		 "functional": "B3LYP", 
		 "basiset": "6-31G**", 
		 "properties": { 
			 "R2extent": 1386.1816, 
			 "electric_dipole_moment_norm": 0.968602550069, 
			 "electric_quadrupole_moment_norm": 8.56151441919, 
			 "total_energy": -386.096498165, 
			 "HOMO_LUMO_gap": 0.22014, 
			 "cosmo_polarized_energy": -5.12, 
			 "cosmo_cavitation_energy": 22.06, 
			 "cosmo_dispersion_energy": -16.48, 
			 "cosmo_repulsion_energy": 1.35, 
			 "cosmo_total_nonelectrostatic_energy": 6.94, 
			 "SMD_solvation_energy": 4.68 
		},
		"coords": [
			{
				"x": 0.2553250198,
				"y": -3.2526802312,
				"z": 0.6592869084,
				"element": "C" 
			},
			{
				"x": 0.6235209031,
				"y": -2.1235015891,
				"z": -0.114174841,
				"element": "O" 
			},
			{
				"x": 0.1489006758,
				"y": -0.8990639532,
				"z": 0.2659791901,
				"element": "C" 
			},
			{
				"x": 0.5489323675,
				"y": 0.1778512209,
				"z": -0.5407142034,
				"element": "C" 
			},
			{
				"x": 0.1341402586,
				"y": 1.4781878062,
				"z": -0.2617522768,
				"element": "C" 
			},
			{
				"x": 0.5731063925,
				"y": 2.6336697968,
				"z": -1.1313551591,
				"element": "C" 
			},
			{
				"x": -0.6994210418,
				"y": 1.6982950513,
				"z": 0.8492475788,
				"element": "C" 
			},
			{
				"x": -1.0954222106,
				"y": 0.6317294971,
				"z": 1.6480034319,
				"element": "C" 
			},
			{
				"x": -0.6792905533,
				"y": -0.6754093058,
				"z": 1.3696199955,
				"element": "C" 
			},
			{
				"x": 0.7352832269,
				"y": -4.1120123688,
				"z": 0.1879195236,
				"element": "H" 
			},
			{
				"x": 0.6071352606,
				"y": -3.1679022329,
				"z": 1.695922306,
				"element": "H" 
			},
			{
				"x": -0.8319541016,
				"y": -3.4055589609,
				"z": 0.6638906468,
				"element": "H" 
			},
			{
				"x": 1.1920930409,
				"y": -0.0326495308,
				"z": -1.3900873176,
				"element": "H" 
			},
			{
				"x": 1.1737330541,
				"y": 2.2926006782,
				"z": -1.978812352,
				"element": "H" 
			},
			{
				"x": -0.2887374532,
				"y": 3.1817751299,
				"z": -1.528847518,
				"element": "H" 
			},
			{
				"x": 1.1748893779,
				"y": 3.3521619957,
				"z": -0.5624019039,
				"element": "H" 
			},
			{
				"x": -1.033775543,
				"y": 2.7059585208,
				"z": 1.0815978131,
				"element": "H" 
			},
			{
				"x": -1.7399697408,
				"y": 0.8085075468,
				"z": 2.5048895458,
				"element": "H" 
			},
			{
				"x": -1.0016889334,
				"y": -1.4903590709,
				"z": 2.006488632,
				"element": "H" 
			}
		],
		 "valence_orbital": [ 
			{
				"type": "occ",
				"energy": -0.34725,
				"method": "rhf"
			},
			{
				"type": "occ",
				"energy": -0.31905,
				"method": "rhf"
			},
			{
				"type": "occ",
				"energy": -0.30794,
				"method": "rhf"
			},
			{
				"type": "occ",
				"energy": -0.23714,
				"method": "rhf"
			},
			{
				"type": "occ",
				"energy": -0.212,
				"method": "rhf"
			},
			{
				"type": "unocc",
				"energy": 0.00814,
				"method": "rhf"
			},
			{
				"type": "unocc",
				"energy": 0.01695,
				"method": "rhf"
			},
			{
				"type": "unocc",
				"energy": 0.0957,
				"method": "rhf"
			},
			{
				"type": "unocc",
				"energy": 0.1115,
				"method": "rhf"
			},
			{
				"type": "unocc",
				"energy": 0.12398,
				"method": "rhf"
			}
		],
		"cosmo_sigma_profile": { 
			"-0.025": 0.0,
			"-0.024": 0.0,
			"-0.023": 0.0,
			"-0.022": 0.0,
			"-0.021": 0.0,
			"-0.02": 0.0,
			"-0.019": 0.0,
			"-0.018": 0.0,
			"-0.017": 0.0,
			"-0.016": 0.0,
			"-0.015": 0.0,
			"-0.014": 0.0,
			"-0.013": 0.0,
			"-0.012": 0.0,
			"-0.011": 0.0,
			"-0.01": 0.0,
			"-0.009": 0.0,
			"-0.008": 0.0,
			"-0.007": 0.0,
			"-0.006": 3.43376832167,
			"-0.005": 14.8237576037,
			"-0.004": 20.2337040815,
			"-0.003": 22.8190919948,
			"-0.002": 17.5930538007,
			"-0.001": 13.6447054899,
			"0.0": 14.4914074177,
			"0.001": 9.3890823592,
			"0.002": 8.35039867345,
			"0.003": 8.77898315768,
			"0.004": 9.52022621278,
			"0.005": 11.1465379924,
			"0.006": 9.97816507258,
			"0.007": 4.52275532742,
			"0.008": 2.07629712963,
			"0.009": 1.34849360792,
			"0.01": 1.52913652089,
			"0.011": 0.862603722094,
			"0.012": 0.0,
			"0.013": 0.0,
			"0.014": 0.0,
			"0.015": 0.0,
			"0.016": 0.0,
			"0.017": 0.0,
			"0.018": 0.0,
			"0.019": 0.0,
			"0.02": 0.0,
			"0.021": 0.0,
			"0.022": 0.0,
			"0.023": 0.0,
			"0.024": 0.0,
			"0.025": 0.0
		}
	}
}
