{
	 "smiles": "CC1(C)[C@H](O)CC[C@]2(C)[C@H]3CC[C@@H](CC3=CC[C@@H]12)C(=C)C(O)=O", 
	 "Tm": 491.5, 
	 "num_atms": 53, 
	 "gaussian": { 
		 "optdone": 1, 
		 "sigma_profile": "yes", 
		 "theory": "DFT", 
		 "functional": "B3LYP", 
		 "basiset": "6-31G**", 
		 "properties": { 
			 "R2extent": 9949.4254, 
			 "electric_dipole_moment_norm": 2.86485140103, 
			 "electric_quadrupole_moment_norm": 6.58829783404, 
			 "total_energy": -1005.87255704, 
			 "HOMO_LUMO_gap": 0.1763, 
			 "cosmo_polarized_energy": -13.06, 
			 "cosmo_cavitation_energy": 46.88, 
			 "cosmo_dispersion_energy": -32.78, 
			 "cosmo_repulsion_energy": 2.41, 
			 "cosmo_total_nonelectrostatic_energy": 16.51, 
			 "SMD_solvation_energy": 8.37 
		},
		"coords": [
			{
				"x": 3.0636654479,
				"y": -3.7493620468,
				"z": 1.903250105,
				"element": "C" 
			},
			{
				"x": 1.9921469676,
				"y": -3.5686643567,
				"z": 0.8044692106,
				"element": "C" 
			},
			{
				"x": 2.4103705258,
				"y": -4.469626135,
				"z": -0.3775955627,
				"element": "C" 
			},
			{
				"x": 0.599158001,
				"y": -4.0681888445,
				"z": 1.3793900588,
				"element": "C" 
			},
			{
				"x": -0.0742969345,
				"y": -5.0165387681,
				"z": 0.5510536977,
				"element": "O" 
			},
			{
				"x": -0.3605374951,
				"y": -2.9188315185,
				"z": 1.7346608081,
				"element": "C" 
			},
			{
				"x": 0.3595937131,
				"y": -1.7221364844,
				"z": 2.3581277861,
				"element": "C" 
			},
			{
				"x": 1.3647277454,
				"y": -1.0474992298,
				"z": 1.3795902333,
				"element": "C" 
			},
			{
				"x": 2.544522355,
				"y": -0.4712105929,
				"z": 2.1993596379,
				"element": "C" 
			},
			{
				"x": 0.6732852426,
				"y": 0.1106836634,
				"z": 0.5772631834,
				"element": "C" 
			},
			{
				"x": 0.343221686,
				"y": 1.3597667119,
				"z": 1.4326639021,
				"element": "C" 
			},
			{
				"x": -0.313378853,
				"y": 2.4806422404,
				"z": 0.6176792808,
				"element": "C" 
			},
			{
				"x": 0.6274377275,
				"y": 2.9368140783,
				"z": -0.5163820859,
				"element": "C" 
			},
			{
				"x": 0.9682351274,
				"y": 1.7270860174,
				"z": -1.4191966287,
				"element": "C" 
			},
			{
				"x": 1.4799407701,
				"y": 0.524685291,
				"z": -0.6529147465,
				"element": "C" 
			},
			{
				"x": 2.5439629301,
				"y": -0.1671549747,
				"z": -1.0865106814,
				"element": "C" 
			},
			{
				"x": 2.9663739593,
				"y": -1.5027259286,
				"z": -0.5270091248,
				"element": "C" 
			},
			{
				"x": 1.8205257164,
				"y": -2.0963758516,
				"z": 0.3068200974,
				"element": "C" 
			},
			{
				"x": 0.1037383147,
				"y": 4.1275194478,
				"z": -1.2997125059,
				"element": "C" 
			},
			{
				"x": 0.756957668,
				"y": 5.2980444951,
				"z": -1.3425907746,
				"element": "C" 
			},
			{
				"x": -1.184318714,
				"y": 3.9761985524,
				"z": -2.0418970155,
				"element": "C" 
			},
			{
				"x": -1.5683921704,
				"y": 5.0964056253,
				"z": -2.7049381929,
				"element": "O" 
			},
			{
				"x": -1.8593279827,
				"y": 2.9629368832,
				"z": -2.0768469969,
				"element": "O" 
			},
			{
				"x": 2.7710902249,
				"y": -3.3075735653,
				"z": 2.8590506315,
				"element": "H" 
			},
			{
				"x": 4.0246440713,
				"y": -3.3141586835,
				"z": 1.609335753,
				"element": "H" 
			},
			{
				"x": 3.2292170669,
				"y": -4.8181381214,
				"z": 2.0816104888,
				"element": "H" 
			},
			{
				"x": 2.3274284251,
				"y": -5.5241105656,
				"z": -0.1046563035,
				"element": "H" 
			},
			{
				"x": 1.7841267487,
				"y": -4.3123078631,
				"z": -1.26243469,
				"element": "H" 
			},
			{
				"x": 3.4476803678,
				"y": -4.2734873641,
				"z": -0.6659654511,
				"element": "H" 
			},
			{
				"x": 0.8131269596,
				"y": -4.6368392781,
				"z": 2.292051574,
				"element": "H" 
			},
			{
				"x": -0.4118358757,
				"y": -4.5460792318,
				"z": -0.2230284915,
				"element": "H" 
			},
			{
				"x": -0.8814173299,
				"y": -2.5974430458,
				"z": 0.8204093271,
				"element": "H" 
			},
			{
				"x": -1.1394593793,
				"y": -3.3022116382,
				"z": 2.4022741785,
				"element": "H" 
			},
			{
				"x": 0.8944797111,
				"y": -2.0619561349,
				"z": 3.2541503197,
				"element": "H" 
			},
			{
				"x": -0.3723664862,
				"y": -0.9902685574,
				"z": 2.7167972684,
				"element": "H" 
			},
			{
				"x": 2.1694565527,
				"y": 0.0932711641,
				"z": 3.0588046245,
				"element": "H" 
			},
			{
				"x": 3.1650468321,
				"y": 0.2063909269,
				"z": 1.6067418983,
				"element": "H" 
			},
			{
				"x": 3.18881693,
				"y": -1.2582820236,
				"z": 2.592862144,
				"element": "H" 
			},
			{
				"x": -0.2957103695,
				"y": -0.2750604816,
				"z": 0.2149490792,
				"element": "H" 
			},
			{
				"x": 1.2623785328,
				"y": 1.7538114359,
				"z": 1.8814339278,
				"element": "H" 
			},
			{
				"x": -0.3143240455,
				"y": 1.0796800259,
				"z": 2.2632932508,
				"element": "H" 
			},
			{
				"x": -1.2609141454,
				"y": 2.1392994852,
				"z": 0.1878138581,
				"element": "H" 
			},
			{
				"x": -0.5426792701,
				"y": 3.3294914135,
				"z": 1.2735426678,
				"element": "H" 
			},
			{
				"x": 1.5633471098,
				"y": 3.2707162829,
				"z": -0.0470968971,
				"element": "H" 
			},
			{
				"x": 1.6977502753,
				"y": 2.0196020233,
				"z": -2.1831246773,
				"element": "H" 
			},
			{
				"x": 0.0495186677,
				"y": 1.4402151263,
				"z": -1.9470476972,
				"element": "H" 
			},
			{
				"x": 3.095624062,
				"y": 0.2030628992,
				"z": -1.95075869,
				"element": "H" 
			},
			{
				"x": 3.2083725428,
				"y": -2.1629093489,
				"z": -1.3675910214,
				"element": "H" 
			},
			{
				"x": 3.8945181659,
				"y": -1.4171278741,
				"z": 0.0569693079,
				"element": "H" 
			},
			{
				"x": 0.981054632,
				"y": -2.1605456027,
				"z": -0.402945035,
				"element": "H" 
			},
			{
				"x": 0.3787854974,
				"y": 6.1454702997,
				"z": -1.9020572877,
				"element": "H" 
			},
			{
				"x": 1.6950193734,
				"y": 5.4304142118,
				"z": -0.8107419692,
				"element": "H" 
			},
			{
				"x": -2.4062875961,
				"y": 4.8654058107,
				"z": -3.138275774,
				"element": "H" 
			}
		],
		 "valence_orbital": [ 
			{
				"type": "occ",
				"energy": -0.27622,
				"method": "rhf"
			},
			{
				"type": "occ",
				"energy": -0.27316,
				"method": "rhf"
			},
			{
				"type": "occ",
				"energy": -0.26789,
				"method": "rhf"
			},
			{
				"type": "occ",
				"energy": -0.25053,
				"method": "rhf"
			},
			{
				"type": "occ",
				"energy": -0.22464,
				"method": "rhf"
			},
			{
				"type": "unocc",
				"energy": -0.04834,
				"method": "rhf"
			},
			{
				"type": "unocc",
				"energy": 0.02725,
				"method": "rhf"
			},
			{
				"type": "unocc",
				"energy": 0.06794,
				"method": "rhf"
			},
			{
				"type": "unocc",
				"energy": 0.07686,
				"method": "rhf"
			},
			{
				"type": "unocc",
				"energy": 0.0776,
				"method": "rhf"
			}
		],
		"cosmo_sigma_profile": { 
			"-0.025": 0.0,
			"-0.024": 0.0,
			"-0.023": 0.0,
			"-0.022": 0.0,
			"-0.021": 0.0,
			"-0.02": 0.0,
			"-0.019": 0.0,
			"-0.018": 0.563308980357,
			"-0.017": 0.891398673966,
			"-0.016": 0.74316371937,
			"-0.015": 0.844600892277,
			"-0.014": 1.02235061857,
			"-0.013": 2.00021018999,
			"-0.012": 1.00400290848,
			"-0.011": 1.8715056284,
			"-0.01": 1.99268870991,
			"-0.009": 1.7743568747,
			"-0.008": 1.61439727563,
			"-0.007": 3.25340622673,
			"-0.006": 5.63304547372,
			"-0.005": 5.13548573596,
			"-0.004": 8.12856857904,
			"-0.003": 24.1996080008,
			"-0.002": 50.9066022515,
			"-0.001": 64.036979993,
			"0.0": 54.1402655375,
			"0.001": 41.434672578,
			"0.002": 26.5420878504,
			"0.003": 13.8197585617,
			"0.004": 8.68055970873,
			"0.005": 7.05554457078,
			"0.006": 6.74013436198,
			"0.007": 5.15164974949,
			"0.008": 3.00781884547,
			"0.009": 3.23872346155,
			"0.01": 2.9132326714,
			"0.011": 3.22926672395,
			"0.012": 4.82032590589,
			"0.013": 1.03513999417,
			"0.014": 2.05579787559,
			"0.015": 1.54407083394,
			"0.016": 0.0,
			"0.017": 0.0,
			"0.018": 0.0,
			"0.019": 0.0,
			"0.02": 0.0,
			"0.021": 0.0,
			"0.022": 0.0,
			"0.023": 0.0,
			"0.024": 0.0,
			"0.025": 0.0
		}
	}
}
