{
	 "smiles": "CC(=C)CCl", 
	 "Tm": 193.15, 
	 "num_atms": 12, 
	 "gaussian": { 
		 "optdone": 1, 
		 "sigma_profile": "yes", 
		 "theory": "DFT", 
		 "functional": "B3LYP", 
		 "basiset": "6-31G**", 
		 "properties": { 
			 "R2extent": 817.0044, 
			 "electric_dipole_moment_norm": 2.16338780157, 
			 "electric_quadrupole_moment_norm": 3.64868777508, 
			 "total_energy": -616.824529882, 
			 "HOMO_LUMO_gap": 0.24915, 
			 "cosmo_polarized_energy": -4.27, 
			 "cosmo_cavitation_energy": 16.92, 
			 "cosmo_dispersion_energy": -12.35, 
			 "cosmo_repulsion_energy": 1.09, 
			 "cosmo_total_nonelectrostatic_energy": 5.66, 
			 "SMD_solvation_energy": 3.52 
		},
		"coords": [
			{
				"x": -0.261758374,
				"y": -2.0074962297,
				"z": -1.1144059908,
				"element": "C" 
			},
			{
				"x": 0.3565119189,
				"y": -1.1382740391,
				"z": -0.0508825512,
				"element": "C" 
			},
			{
				"x": -0.0874088644,
				"y": -1.0970633416,
				"z": 1.2101299108,
				"element": "C" 
			},
			{
				"x": 1.5494383661,
				"y": -0.3183961218,
				"z": -0.4486054531,
				"element": "C" 
			},
			{
				"x": 1.1291175035,
				"y": 0.9738459247,
				"z": -1.6865435793,
				"element": "Cl" 
			},
			{
				"x": -1.1029493221,
				"y": -2.5821653857,
				"z": -0.7195635126,
				"element": "H" 
			},
			{
				"x": -0.6199844663,
				"y": -1.4002308812,
				"z": -1.9528147317,
				"element": "H" 
			},
			{
				"x": 0.4743069561,
				"y": -2.7112201344,
				"z": -1.5238982319,
				"element": "H" 
			},
			{
				"x": -0.9246081494,
				"y": -1.7070051131,
				"z": 1.5370321772,
				"element": "H" 
			},
			{
				"x": 0.3705412646,
				"y": -0.4555757269,
				"z": 1.95774766,
				"element": "H" 
			},
			{
				"x": 2.3183651843,
				"y": -0.9246710662,
				"z": -0.9330130033,
				"element": "H" 
			},
			{
				"x": 1.9828279827,
				"y": 0.211752115,
				"z": 0.3988173057,
				"element": "H" 
			}
		],
		 "valence_orbital": [ 
			{
				"type": "occ",
				"energy": -0.37974,
				"method": "rhf"
			},
			{
				"type": "occ",
				"energy": -0.36509,
				"method": "rhf"
			},
			{
				"type": "occ",
				"energy": -0.29442,
				"method": "rhf"
			},
			{
				"type": "occ",
				"energy": -0.29165,
				"method": "rhf"
			},
			{
				"type": "occ",
				"energy": -0.26281,
				"method": "rhf"
			},
			{
				"type": "unocc",
				"energy": -0.01366,
				"method": "rhf"
			},
			{
				"type": "unocc",
				"energy": 0.04789,
				"method": "rhf"
			},
			{
				"type": "unocc",
				"energy": 0.09562,
				"method": "rhf"
			},
			{
				"type": "unocc",
				"energy": 0.12626,
				"method": "rhf"
			},
			{
				"type": "unocc",
				"energy": 0.1364,
				"method": "rhf"
			}
		],
		"cosmo_sigma_profile": { 
			"-0.025": 0.0,
			"-0.024": 0.0,
			"-0.023": 0.0,
			"-0.022": 0.0,
			"-0.021": 0.0,
			"-0.02": 0.0,
			"-0.019": 0.0,
			"-0.018": 0.0,
			"-0.017": 0.0,
			"-0.016": 0.0,
			"-0.015": 0.0,
			"-0.014": 0.0,
			"-0.013": 0.0,
			"-0.012": 0.0,
			"-0.011": 0.0,
			"-0.01": 0.0,
			"-0.009": 0.0,
			"-0.008": 0.194008911363,
			"-0.007": 4.54198812153,
			"-0.006": 6.42897895888,
			"-0.005": 9.65684492442,
			"-0.004": 11.595846244,
			"-0.003": 10.1365183651,
			"-0.002": 11.1576426888,
			"-0.001": 10.8039543033,
			"0.0": 13.5302095747,
			"0.001": 9.04392298682,
			"0.002": 8.42107320378,
			"0.003": 7.17065833348,
			"0.004": 7.12902439379,
			"0.005": 9.80054764115,
			"0.006": 7.76709789823,
			"0.007": 7.86518125978,
			"0.008": 0.187092214909,
			"0.009": 0.0,
			"0.01": 0.0,
			"0.011": 0.0,
			"0.012": 0.0,
			"0.013": 0.0,
			"0.014": 0.0,
			"0.015": 0.0,
			"0.016": 0.0,
			"0.017": 0.0,
			"0.018": 0.0,
			"0.019": 0.0,
			"0.02": 0.0,
			"0.021": 0.0,
			"0.022": 0.0,
			"0.023": 0.0,
			"0.024": 0.0,
			"0.025": 0.0
		}
	}
}
