{
	 "smiles": "CS(=O)(=O)C1=CC=C(NN)C=C1", 
	 "Tm": 406.15, 
	 "num_atms": 22, 
	 "gaussian": { 
		 "optdone": 1, 
		 "sigma_profile": "yes", 
		 "theory": "DFT", 
		 "functional": "B3LYP", 
		 "basiset": "6-31G**", 
		 "properties": { 
			 "R2extent": 3502.2097, 
			 "electric_dipole_moment_norm": 5.55070340948, 
			 "electric_quadrupole_moment_norm": 24.2811103103, 
			 "total_energy": -930.813526034, 
			 "HOMO_LUMO_gap": 0.19921, 
			 "cosmo_polarized_energy": -20.64, 
			 "cosmo_cavitation_energy": 27.26, 
			 "cosmo_dispersion_energy": -20.4, 
			 "cosmo_repulsion_energy": 1.58, 
			 "cosmo_total_nonelectrostatic_energy": 8.45, 
			 "SMD_solvation_energy": 4.81 
		},
		"coords": [
			{
				"x": -3.0544160054,
				"y": -1.0533164039,
				"z": 0.6618807149,
				"element": "C" 
			},
			{
				"x": -2.0732203069,
				"y": -0.6921354642,
				"z": 2.1398244549,
				"element": "S" 
			},
			{
				"x": -2.74470567,
				"y": 0.4126001373,
				"z": 2.8443764644,
				"element": "O" 
			},
			{
				"x": -1.813385776,
				"y": -1.9767599752,
				"z": 2.8107376151,
				"element": "O" 
			},
			{
				"x": -0.5227400332,
				"y": -0.0789326837,
				"z": 1.4959190821,
				"element": "C" 
			},
			{
				"x": 0.5291388022,
				"y": -0.9650484058,
				"z": 1.2584145466,
				"element": "C" 
			},
			{
				"x": 1.7383581772,
				"y": -0.4928424459,
				"z": 0.7579911935,
				"element": "C" 
			},
			{
				"x": 1.9096696955,
				"y": 0.8798594705,
				"z": 0.4921253384,
				"element": "C" 
			},
			{
				"x": 3.0870291098,
				"y": 1.3796842053,
				"z": -0.038451891,
				"element": "N" 
			},
			{
				"x": 4.2995784645,
				"y": 0.6721090525,
				"z": -0.0157657189,
				"element": "N" 
			},
			{
				"x": 0.8389898628,
				"y": 1.7646102886,
				"z": 0.7496206842,
				"element": "C" 
			},
			{
				"x": -0.3638989792,
				"y": 1.2905110478,
				"z": 1.2477596536,
				"element": "C" 
			},
			{
				"x": -2.5441521269,
				"y": -1.8132764641,
				"z": 0.0685652327,
				"element": "H" 
			},
			{
				"x": -4.016452336,
				"y": -1.4296872585,
				"z": 1.0159345926,
				"element": "H" 
			},
			{
				"x": -3.1935056274,
				"y": -0.1352887119,
				"z": 0.089278305,
				"element": "H" 
			},
			{
				"x": 0.4030974926,
				"y": -2.018518021,
				"z": 1.4861687814,
				"element": "H" 
			},
			{
				"x": 2.551794178,
				"y": -1.1857619389,
				"z": 0.5747895533,
				"element": "H" 
			},
			{
				"x": 3.2255732783,
				"y": 2.377361989,
				"z": 0.0382339211,
				"element": "H" 
			},
			{
				"x": 4.2906871786,
				"y": -0.0346007209,
				"z": -0.746967027,
				"element": "H" 
			},
			{
				"x": 4.4280361609,
				"y": 0.2016395797,
				"z": 0.8809758935,
				"element": "H" 
			},
			{
				"x": 0.9682620766,
				"y": 2.8277820762,
				"z": 0.5636780511,
				"element": "H" 
			},
			{
				"x": -1.1758376159,
				"y": 1.9744106473,
				"z": 1.4724105586,
				"element": "H" 
			}
		],
		 "valence_orbital": [ 
			{
				"type": "occ",
				"energy": -0.28671,
				"method": "rhf"
			},
			{
				"type": "occ",
				"energy": -0.28466,
				"method": "rhf"
			},
			{
				"type": "occ",
				"energy": -0.27874,
				"method": "rhf"
			},
			{
				"type": "occ",
				"energy": -0.2706,
				"method": "rhf"
			},
			{
				"type": "occ",
				"energy": -0.2239,
				"method": "rhf"
			},
			{
				"type": "unocc",
				"energy": -0.02469,
				"method": "rhf"
			},
			{
				"type": "unocc",
				"energy": -0.01942,
				"method": "rhf"
			},
			{
				"type": "unocc",
				"energy": 0.06041,
				"method": "rhf"
			},
			{
				"type": "unocc",
				"energy": 0.07319,
				"method": "rhf"
			},
			{
				"type": "unocc",
				"energy": 0.08573,
				"method": "rhf"
			}
		],
		"cosmo_sigma_profile": { 
			"-0.025": 0.0,
			"-0.024": 0.0,
			"-0.023": 0.0,
			"-0.022": 0.0,
			"-0.021": 0.0,
			"-0.02": 0.0,
			"-0.019": 0.0,
			"-0.018": 0.0,
			"-0.017": 0.0,
			"-0.016": 0.0,
			"-0.015": 0.0,
			"-0.014": 0.26786428557,
			"-0.013": 1.34716905564,
			"-0.012": 1.1923402088,
			"-0.011": 3.78170728705,
			"-0.01": 5.26282559091,
			"-0.009": 5.88579903332,
			"-0.008": 9.17250667122,
			"-0.007": 13.0614813648,
			"-0.006": 13.244408678,
			"-0.005": 15.3055179435,
			"-0.004": 14.5499668815,
			"-0.003": 12.1500570747,
			"-0.002": 9.55823427867,
			"-0.001": 6.78444478029,
			"0.0": 7.66082365566,
			"0.001": 7.72959808634,
			"0.002": 9.91823787203,
			"0.003": 14.1710056798,
			"0.004": 14.4418032249,
			"0.005": 4.76966146154,
			"0.006": 3.95934227661,
			"0.007": 4.23231402091,
			"0.008": 4.49724443802,
			"0.009": 3.39808269439,
			"0.01": 4.34375604566,
			"0.011": 7.88436377734,
			"0.012": 11.0718044143,
			"0.013": 4.45953783178,
			"0.014": 0.632568239045,
			"0.015": 0.615832499638,
			"0.016": 0.491344976677,
			"0.017": 0.11667918736,
			"0.018": 0.0,
			"0.019": 0.0,
			"0.02": 0.0,
			"0.021": 0.0,
			"0.022": 0.0,
			"0.023": 0.0,
			"0.024": 0.0,
			"0.025": 0.0
		}
	}
}
