{
	 "smiles": "CCOC(=O)CC1=NC2=C(N1)C=C(C)C(C)=C2", 
	 "Tm": 443.15, 
	 "num_atms": 33, 
	 "gaussian": { 
		 "optdone": 1, 
		 "sigma_profile": "yes", 
		 "theory": "DFT", 
		 "functional": "B3LYP", 
		 "basiset": "6-31G**", 
		 "properties": { 
			 "R2extent": 6531.9777, 
			 "electric_dipole_moment_norm": 3.40332962406, 
			 "electric_quadrupole_moment_norm": 15.9738759182, 
			 "total_energy": -765.02743436, 
			 "HOMO_LUMO_gap": 0.19727, 
			 "cosmo_polarized_energy": -12.64, 
			 "cosmo_cavitation_energy": 36.34, 
			 "cosmo_dispersion_energy": -26.62, 
			 "cosmo_repulsion_energy": 2.08, 
			 "cosmo_total_nonelectrostatic_energy": 11.8, 
			 "SMD_solvation_energy": 4.69 
		},
		"coords": [
			{
				"x": -1.9629517683,
				"y": -0.4335730138,
				"z": -5.0620876249,
				"element": "C" 
			},
			{
				"x": -0.9275103419,
				"y": 0.6747205549,
				"z": -4.9570092467,
				"element": "C" 
			},
			{
				"x": -0.9264492012,
				"y": 1.2671625322,
				"z": -3.6300580737,
				"element": "O" 
			},
			{
				"x": -0.1693350792,
				"y": 0.6700223896,
				"z": -2.6975711598,
				"element": "C" 
			},
			{
				"x": 0.4989651288,
				"y": -0.3287115539,
				"z": -2.9000700544,
				"element": "O" 
			},
			{
				"x": -0.209317488,
				"y": 1.4417163528,
				"z": -1.3903126274,
				"element": "C" 
			},
			{
				"x": 0.0060913786,
				"y": 0.6143312912,
				"z": -0.1572230606,
				"element": "C" 
			},
			{
				"x": -0.5069076578,
				"y": 0.9063601319,
				"z": 1.0154460721,
				"element": "N" 
			},
			{
				"x": -0.0139944247,
				"y": -0.0746845622,
				"z": 1.8672797162,
				"element": "C" 
			},
			{
				"x": 0.8154431684,
				"y": -0.9718786041,
				"z": 1.1590243291,
				"element": "C" 
			},
			{
				"x": 0.8229234472,
				"y": -0.492825566,
				"z": -0.1388102176,
				"element": "N" 
			},
			{
				"x": 1.4273832785,
				"y": -2.0620850878,
				"z": 1.778957309,
				"element": "C" 
			},
			{
				"x": 1.2071911814,
				"y": -2.2538658205,
				"z": 3.1436631447,
				"element": "C" 
			},
			{
				"x": 1.8585411353,
				"y": -3.4246068017,
				"z": 3.8431805837,
				"element": "C" 
			},
			{
				"x": 0.376184179,
				"y": -1.3542203567,
				"z": 3.8764821269,
				"element": "C" 
			},
			{
				"x": 0.1471386903,
				"y": -1.5713986491,
				"z": 5.3552105905,
				"element": "C" 
			},
			{
				"x": -0.2281374076,
				"y": -0.273657615,
				"z": 3.2364372043,
				"element": "C" 
			},
			{
				"x": -1.9996557491,
				"y": -0.8075088311,
				"z": -6.0905612001,
				"element": "H" 
			},
			{
				"x": -1.7051256037,
				"y": -1.2668588575,
				"z": -4.4039976894,
				"element": "H" 
			},
			{
				"x": -2.9573581944,
				"y": -0.0646508806,
				"z": -4.7950865907,
				"element": "H" 
			},
			{
				"x": -1.1620190847,
				"y": 1.5096892392,
				"z": -5.6208170168,
				"element": "H" 
			},
			{
				"x": 0.076394347,
				"y": 0.3043826577,
				"z": -5.1763910229,
				"element": "H" 
			},
			{
				"x": -1.1532086828,
				"y": 1.9805400259,
				"z": -1.2960649203,
				"element": "H" 
			},
			{
				"x": 0.5766739905,
				"y": 2.2086519188,
				"z": -1.4670336935,
				"element": "H" 
			},
			{
				"x": 1.1989908734,
				"y": -0.9132759375,
				"z": -0.9782650049,
				"element": "H" 
			},
			{
				"x": 2.0616613289,
				"y": -2.7480244385,
				"z": 1.2239615778,
				"element": "H" 
			},
			{
				"x": 2.4595885355,
				"y": -4.0150590524,
				"z": 3.1462641863,
				"element": "H" 
			},
			{
				"x": 1.116158582,
				"y": -4.0956655004,
				"z": 4.2927795044,
				"element": "H" 
			},
			{
				"x": 2.5181785607,
				"y": -3.0981873306,
				"z": 4.6567673482,
				"element": "H" 
			},
			{
				"x": 1.0852574132,
				"y": -1.5442403685,
				"z": 5.9236345976,
				"element": "H" 
			},
			{
				"x": -0.5104349098,
				"y": -0.8004247767,
				"z": 5.7653725127,
				"element": "H" 
			},
			{
				"x": -0.3151630683,
				"y": -2.5452093749,
				"z": 5.5597385046,
				"element": "H" 
			},
			{
				"x": -0.8633965571,
				"y": 0.412735885,
				"z": 3.7887598956,
				"element": "H" 
			}
		],
		 "valence_orbital": [ 
			{
				"type": "occ",
				"energy": -0.29499,
				"method": "rhf"
			},
			{
				"type": "occ",
				"energy": -0.28776,
				"method": "rhf"
			},
			{
				"type": "occ",
				"energy": -0.26049,
				"method": "rhf"
			},
			{
				"type": "occ",
				"energy": -0.21065,
				"method": "rhf"
			},
			{
				"type": "occ",
				"energy": -0.20457,
				"method": "rhf"
			},
			{
				"type": "unocc",
				"energy": -0.0073,
				"method": "rhf"
			},
			{
				"type": "unocc",
				"energy": -8e-05,
				"method": "rhf"
			},
			{
				"type": "unocc",
				"energy": 0.0325,
				"method": "rhf"
			},
			{
				"type": "unocc",
				"energy": 0.06264,
				"method": "rhf"
			},
			{
				"type": "unocc",
				"energy": 0.09666,
				"method": "rhf"
			}
		],
		"cosmo_sigma_profile": { 
			"-0.025": 0.0,
			"-0.024": 0.0,
			"-0.023": 0.0,
			"-0.022": 0.0,
			"-0.021": 0.0,
			"-0.02": 0.0,
			"-0.019": 0.0,
			"-0.018": 0.0,
			"-0.017": 0.0,
			"-0.016": 0.0,
			"-0.015": 0.0,
			"-0.014": 0.0,
			"-0.013": 0.256636516721,
			"-0.012": 0.785279151352,
			"-0.011": 0.481891847885,
			"-0.01": 0.743963071427,
			"-0.009": 2.86053320654,
			"-0.008": 3.4890774029,
			"-0.007": 5.11630994966,
			"-0.006": 7.80006656711,
			"-0.005": 15.0320537422,
			"-0.004": 29.8027839501,
			"-0.003": 31.3074291412,
			"-0.002": 25.7025770519,
			"-0.001": 25.1294508223,
			"0.0": 29.4454886019,
			"0.001": 21.6177237478,
			"0.002": 12.5410905056,
			"0.003": 13.2209986208,
			"0.004": 11.4132919151,
			"0.005": 12.3740993406,
			"0.006": 13.3185841638,
			"0.007": 6.35740270573,
			"0.008": 3.72436268608,
			"0.009": 2.55125349893,
			"0.01": 2.24946380418,
			"0.011": 3.12910518337,
			"0.012": 0.974475020501,
			"0.013": 1.48017082875,
			"0.014": 0.827082572835,
			"0.015": 0.877658907087,
			"0.016": 0.918707818191,
			"0.017": 0.838660917073,
			"0.018": 0.584886788377,
			"0.019": 0.0252830192485,
			"0.02": 0.0,
			"0.021": 0.0,
			"0.022": 0.0,
			"0.023": 0.0,
			"0.024": 0.0,
			"0.025": 0.0
		}
	}
}
