{
	 "smiles": "O=C1OC(=NC1=CC1=CC=CS1)C1=CC=CC=C1", 
	 "Tm": 440.15, 
	 "num_atms": 27, 
	 "gaussian": { 
		 "optdone": 1, 
		 "sigma_profile": "yes", 
		 "theory": "DFT", 
		 "functional": "B3LYP", 
		 "basiset": "6-31G**", 
		 "properties": { 
			 "R2extent": 6567.9, 
			 "electric_dipole_moment_norm": 3.58190206036, 
			 "electric_quadrupole_moment_norm": 19.6538290241, 
			 "total_energy": -1142.29372492, 
			 "HOMO_LUMO_gap": 0.11835, 
			 "cosmo_polarized_energy": -11.45, 
			 "cosmo_cavitation_energy": 34.58, 
			 "cosmo_dispersion_energy": -25.55, 
			 "cosmo_repulsion_energy": 1.9, 
			 "cosmo_total_nonelectrostatic_energy": 10.92, 
			 "SMD_solvation_energy": 6.05 
		},
		"coords": [
			{
				"x": 2.5771495373,
				"y": -1.1054835883,
				"z": 1.412634878,
				"element": "O" 
			},
			{
				"x": 1.4824530557,
				"y": -0.8405248494,
				"z": 0.9908834345,
				"element": "C" 
			},
			{
				"x": 0.5297788793,
				"y": -0.127211514,
				"z": 1.7465226596,
				"element": "O" 
			},
			{
				"x": -0.5842353478,
				"y": -0.0179232818,
				"z": 0.9448335148,
				"element": "C" 
			},
			{
				"x": -0.4891065601,
				"y": -0.5614867574,
				"z": -0.2289394818,
				"element": "N" 
			},
			{
				"x": 0.7896779978,
				"y": -1.1067140027,
				"z": -0.284699545,
				"element": "C" 
			},
			{
				"x": 1.3543188516,
				"y": -1.7829203974,
				"z": -1.3216126804,
				"element": "C" 
			},
			{
				"x": 0.7763673435,
				"y": -2.0935258478,
				"z": -2.5915493602,
				"element": "C" 
			},
			{
				"x": 1.4110385318,
				"y": -2.7906576794,
				"z": -3.6110213395,
				"element": "C" 
			},
			{
				"x": 0.6116995162,
				"y": -2.9612048458,
				"z": -4.7662635029,
				"element": "C" 
			},
			{
				"x": -0.6317740616,
				"y": -2.3943729844,
				"z": -4.6261796628,
				"element": "C" 
			},
			{
				"x": -0.8497671056,
				"y": -1.6428812229,
				"z": -3.0850450709,
				"element": "S" 
			},
			{
				"x": -1.7353862164,
				"y": 0.6872211715,
				"z": 1.4932957196,
				"element": "C" 
			},
			{
				"x": -1.6973494026,
				"y": 1.2296494929,
				"z": 2.7884217422,
				"element": "C" 
			},
			{
				"x": -2.8098435377,
				"y": 1.8999068093,
				"z": 3.2922781826,
				"element": "C" 
			},
			{
				"x": -3.9615192414,
				"y": 2.0335408688,
				"z": 2.5134642541,
				"element": "C" 
			},
			{
				"x": -4.0015225519,
				"y": 1.4939785043,
				"z": 1.2232075679,
				"element": "C" 
			},
			{
				"x": -2.8962062162,
				"y": 0.8233304079,
				"z": 0.7115938487,
				"element": "C" 
			},
			{
				"x": 2.3730574016,
				"y": -2.1302659336,
				"z": -1.1636299298,
				"element": "H" 
			},
			{
				"x": 2.4254703205,
				"y": -3.1611590845,
				"z": -3.5110001336,
				"element": "H" 
			},
			{
				"x": 0.9384196268,
				"y": -3.4786825858,
				"z": -5.6605443713,
				"element": "H" 
			},
			{
				"x": -1.4359296857,
				"y": -2.3777361723,
				"z": -5.3497745055,
				"element": "H" 
			},
			{
				"x": -0.7994064877,
				"y": 1.1214429103,
				"z": 3.3864155072,
				"element": "H" 
			},
			{
				"x": -2.7780189625,
				"y": 2.318375172,
				"z": 4.2937117269,
				"element": "H" 
			},
			{
				"x": -4.8269319711,
				"y": 2.5567893856,
				"z": 2.909727855,
				"element": "H" 
			},
			{
				"x": -4.8970417826,
				"y": 1.5979620931,
				"z": 0.6178955428,
				"element": "H" 
			},
			{
				"x": -2.9090919311,
				"y": 0.3986539314,
				"z": -0.2863268501,
				"element": "H" 
			}
		],
		 "valence_orbital": [ 
			{
				"type": "occ",
				"energy": -0.27097,
				"method": "rhf"
			},
			{
				"type": "occ",
				"energy": -0.26749,
				"method": "rhf"
			},
			{
				"type": "occ",
				"energy": -0.26391,
				"method": "rhf"
			},
			{
				"type": "occ",
				"energy": -0.26091,
				"method": "rhf"
			},
			{
				"type": "occ",
				"energy": -0.21151,
				"method": "rhf"
			},
			{
				"type": "unocc",
				"energy": -0.09316,
				"method": "rhf"
			},
			{
				"type": "unocc",
				"energy": -0.03646,
				"method": "rhf"
			},
			{
				"type": "unocc",
				"energy": -0.01261,
				"method": "rhf"
			},
			{
				"type": "unocc",
				"energy": 0.00474,
				"method": "rhf"
			},
			{
				"type": "unocc",
				"energy": 0.03131,
				"method": "rhf"
			}
		],
		"cosmo_sigma_profile": { 
			"-0.025": 0.0,
			"-0.024": 0.0,
			"-0.023": 0.0,
			"-0.022": 0.0,
			"-0.021": 0.0,
			"-0.02": 0.0,
			"-0.019": 0.0,
			"-0.018": 0.0,
			"-0.017": 0.0,
			"-0.016": 0.0,
			"-0.015": 0.0,
			"-0.014": 0.0,
			"-0.013": 0.0,
			"-0.012": 0.0,
			"-0.011": 0.0,
			"-0.01": 0.109556045015,
			"-0.009": 3.1481315686,
			"-0.008": 6.52749871663,
			"-0.007": 9.0865073359,
			"-0.006": 16.4709953656,
			"-0.005": 19.9815291166,
			"-0.004": 18.3670439709,
			"-0.003": 16.191659323,
			"-0.002": 16.6495202842,
			"-0.001": 17.5784049905,
			"0.0": 20.4106913105,
			"0.001": 25.6807614926,
			"0.002": 27.5720878995,
			"0.003": 29.4694755695,
			"0.004": 20.8512262521,
			"0.005": 6.67351454158,
			"0.006": 5.2033006546,
			"0.007": 4.82546107564,
			"0.008": 3.54288304178,
			"0.009": 3.31344584685,
			"0.01": 4.33814220262,
			"0.011": 5.03630328923,
			"0.012": 0.770318767479,
			"0.013": 0.0,
			"0.014": 0.0,
			"0.015": 0.0,
			"0.016": 0.0,
			"0.017": 0.0,
			"0.018": 0.0,
			"0.019": 0.0,
			"0.02": 0.0,
			"0.021": 0.0,
			"0.022": 0.0,
			"0.023": 0.0,
			"0.024": 0.0,
			"0.025": 0.0
		}
	}
}
