{
	 "smiles": "CC1=CC=CC(Cl)=C1C=O", 
	 "Tm": 310.15, 
	 "num_atms": 17, 
	 "gaussian": { 
		 "optdone": 1, 
		 "sigma_profile": "yes", 
		 "theory": "DFT", 
		 "functional": "B3LYP", 
		 "basiset": "6-31G**", 
		 "properties": { 
			 "R2extent": 2177.0079, 
			 "electric_dipole_moment_norm": 3.17195297254, 
			 "electric_quadrupole_moment_norm": 2.01184202909, 
			 "total_energy": -844.479400644, 
			 "HOMO_LUMO_gap": 0.18098, 
			 "cosmo_polarized_energy": -6.04, 
			 "cosmo_cavitation_energy": 22.43, 
			 "cosmo_dispersion_energy": -16.79, 
			 "cosmo_repulsion_energy": 1.34, 
			 "cosmo_total_nonelectrostatic_energy": 6.98, 
			 "SMD_solvation_energy": 4.62 
		},
		"coords": [
			{
				"x": 1.0700614834,
				"y": 0.8558875021,
				"z": 0.9206354985,
				"element": "C" 
			},
			{
				"x": 0.3044561015,
				"y": 0.1283208971,
				"z": -0.1575591672,
				"element": "C" 
			},
			{
				"x": 0.9279991291,
				"y": -0.9327594427,
				"z": -0.8222730278,
				"element": "C" 
			},
			{
				"x": 0.2796513181,
				"y": -1.6473604231,
				"z": -1.8272997001,
				"element": "C" 
			},
			{
				"x": -1.021376588,
				"y": -1.3163785188,
				"z": -2.1972094192,
				"element": "C" 
			},
			{
				"x": -1.6545293029,
				"y": -0.2634426299,
				"z": -1.5450616931,
				"element": "C" 
			},
			{
				"x": -3.302660587,
				"y": 0.0987734359,
				"z": -2.0668604833,
				"element": "Cl" 
			},
			{
				"x": -1.0253311292,
				"y": 0.4793747491,
				"z": -0.5237895282,
				"element": "C" 
			},
			{
				"x": -1.7463831207,
				"y": 1.5950937922,
				"z": 0.1408263434,
				"element": "C" 
			},
			{
				"x": -1.2889764608,
				"y": 2.2923940979,
				"z": 1.0301103216,
				"element": "O" 
			},
			{
				"x": 1.1731542483,
				"y": 1.9201557375,
				"z": 0.6929941542,
				"element": "H" 
			},
			{
				"x": 0.5527467882,
				"y": 0.8100938724,
				"z": 1.882618093,
				"element": "H" 
			},
			{
				"x": 2.0654481449,
				"y": 0.4172967032,
				"z": 1.0304911652,
				"element": "H" 
			},
			{
				"x": 1.9427266061,
				"y": -1.2009661548,
				"z": -0.5431283057,
				"element": "H" 
			},
			{
				"x": 0.7874173639,
				"y": -2.4670384506,
				"z": -2.3272114703,
				"element": "H" 
			},
			{
				"x": -1.5419038409,
				"y": -1.8607168128,
				"z": -2.9766517728,
				"element": "H" 
			},
			{
				"x": -2.7716001541,
				"y": 1.7715716451,
				"z": -0.2296310082,
				"element": "H" 
			}
		],
		 "valence_orbital": [ 
			{
				"type": "occ",
				"energy": -0.33886,
				"method": "rhf"
			},
			{
				"type": "occ",
				"energy": -0.32762,
				"method": "rhf"
			},
			{
				"type": "occ",
				"energy": -0.26927,
				"method": "rhf"
			},
			{
				"type": "occ",
				"energy": -0.25665,
				"method": "rhf"
			},
			{
				"type": "occ",
				"energy": -0.25212,
				"method": "rhf"
			},
			{
				"type": "unocc",
				"energy": -0.07114,
				"method": "rhf"
			},
			{
				"type": "unocc",
				"energy": -0.02129,
				"method": "rhf"
			},
			{
				"type": "unocc",
				"energy": 0.018,
				"method": "rhf"
			},
			{
				"type": "unocc",
				"energy": 0.02958,
				"method": "rhf"
			},
			{
				"type": "unocc",
				"energy": 0.09484,
				"method": "rhf"
			}
		],
		"cosmo_sigma_profile": { 
			"-0.025": 0.0,
			"-0.024": 0.0,
			"-0.023": 0.0,
			"-0.022": 0.0,
			"-0.021": 0.0,
			"-0.02": 0.0,
			"-0.019": 0.0,
			"-0.018": 0.0,
			"-0.017": 0.0,
			"-0.016": 0.0,
			"-0.015": 0.0,
			"-0.014": 0.0,
			"-0.013": 0.0,
			"-0.012": 0.0,
			"-0.011": 0.0,
			"-0.01": 0.0,
			"-0.009": 0.0,
			"-0.008": 0.834706502174,
			"-0.007": 5.37858308674,
			"-0.006": 8.09861204776,
			"-0.005": 10.0422306781,
			"-0.004": 12.0204812077,
			"-0.003": 13.9801854262,
			"-0.002": 16.2595378434,
			"-0.001": 16.6109895067,
			"0.0": 22.1992627919,
			"0.001": 19.4052067957,
			"0.002": 17.5303808049,
			"0.003": 14.0107056229,
			"0.004": 8.2719227706,
			"0.005": 2.68099225741,
			"0.006": 1.5147062053,
			"0.007": 1.38607966185,
			"0.008": 1.77728037928,
			"0.009": 2.03124044663,
			"0.01": 1.82400573889,
			"0.011": 3.12271766322,
			"0.012": 2.13814493182,
			"0.013": 0.699634151693,
			"0.014": 0.0,
			"0.015": 0.0,
			"0.016": 0.0,
			"0.017": 0.0,
			"0.018": 0.0,
			"0.019": 0.0,
			"0.02": 0.0,
			"0.021": 0.0,
			"0.022": 0.0,
			"0.023": 0.0,
			"0.024": 0.0,
			"0.025": 0.0
		}
	}
}
