{
	 "smiles": "CC(C)NS(=O)(=O)C1=C(CN)C=CC=C1", 
	 "Tm": 353.15, 
	 "num_atms": 31, 
	 "gaussian": { 
		 "optdone": 1, 
		 "sigma_profile": "yes", 
		 "theory": "DFT", 
		 "functional": "B3LYP", 
		 "basiset": "6-31G**", 
		 "properties": { 
			 "R2extent": 4605.7228, 
			 "electric_dipole_moment_norm": 5.07019277839, 
			 "electric_quadrupole_moment_norm": 14.951498259, 
			 "total_energy": -1048.77885193, 
			 "HOMO_LUMO_gap": 0.19085, 
			 "cosmo_polarized_energy": -15.59, 
			 "cosmo_cavitation_energy": 33.38, 
			 "cosmo_dispersion_energy": -24.0, 
			 "cosmo_repulsion_energy": 1.84, 
			 "cosmo_total_nonelectrostatic_energy": 11.22, 
			 "SMD_solvation_energy": 3.51 
		},
		"coords": [
			{
				"x": 0.58511486,
				"y": -1.4527391777,
				"z": -0.8956674817,
				"element": "C" 
			},
			{
				"x": -0.5053598156,
				"y": -2.0159230656,
				"z": 0.0197416032,
				"element": "C" 
			},
			{
				"x": -1.8985604626,
				"y": -1.9708319539,
				"z": -0.6220372291,
				"element": "C" 
			},
			{
				"x": -0.4617351375,
				"y": -1.4011844653,
				"z": 1.3778578188,
				"element": "N" 
			},
			{
				"x": -0.6709618931,
				"y": 0.2454671991,
				"z": 1.6564447568,
				"element": "S" 
			},
			{
				"x": -1.536231429,
				"y": 0.3431073984,
				"z": 2.8399368089,
				"element": "O" 
			},
			{
				"x": -1.0562257359,
				"y": 0.9209923652,
				"z": 0.4046561496,
				"element": "O" 
			},
			{
				"x": 0.9739495465,
				"y": 0.8387380223,
				"z": 2.1046051455,
				"element": "C" 
			},
			{
				"x": 1.1635244221,
				"y": 2.2221453473,
				"z": 2.3107607244,
				"element": "C" 
			},
			{
				"x": 0.084940199,
				"y": 3.2860745056,
				"z": 2.1134840079,
				"element": "C" 
			},
			{
				"x": -0.073689387,
				"y": 3.7840494261,
				"z": 0.7444900335,
				"element": "N" 
			},
			{
				"x": 2.4475022575,
				"y": 2.6334660042,
				"z": 2.6928162085,
				"element": "C" 
			},
			{
				"x": 3.4962236145,
				"y": 1.7297257483,
				"z": 2.8639930591,
				"element": "C" 
			},
			{
				"x": 3.277926288,
				"y": 0.3680589466,
				"z": 2.6651897691,
				"element": "C" 
			},
			{
				"x": 2.010477461,
				"y": -0.0785799978,
				"z": 2.2908265845,
				"element": "C" 
			},
			{
				"x": 0.3862698727,
				"y": -0.4105267577,
				"z": -1.1538653608,
				"element": "H" 
			},
			{
				"x": 1.5694346272,
				"y": -1.5167386918,
				"z": -0.4236381584,
				"element": "H" 
			},
			{
				"x": 0.613225661,
				"y": -2.0339237909,
				"z": -1.8222067546,
				"element": "H" 
			},
			{
				"x": -0.2540085188,
				"y": -3.0646681084,
				"z": 0.2247611041,
				"element": "H" 
			},
			{
				"x": -2.1894619414,
				"y": -0.9420250812,
				"z": -0.8443039481,
				"element": "H" 
			},
			{
				"x": -2.65104163,
				"y": -2.4073991538,
				"z": 0.0437092625,
				"element": "H" 
			},
			{
				"x": -1.9018046488,
				"y": -2.547021663,
				"z": -1.5535197234,
				"element": "H" 
			},
			{
				"x": -1.0533117148,
				"y": -1.878733186,
				"z": 2.0528032343,
				"element": "H" 
			},
			{
				"x": -0.8851277692,
				"y": 2.9138166343,
				"z": 2.4523835776,
				"element": "H" 
			},
			{
				"x": 0.3365269852,
				"y": 4.1329882796,
				"z": 2.7622243386,
				"element": "H" 
			},
			{
				"x": -0.4395499708,
				"y": 3.0302790393,
				"z": 0.1671941659,
				"element": "H" 
			},
			{
				"x": 0.8331225877,
				"y": 4.0425631835,
				"z": 0.3621882135,
				"element": "H" 
			},
			{
				"x": 2.6190703186,
				"y": 3.6931065202,
				"z": 2.866480228,
				"element": "H" 
			},
			{
				"x": 4.4768514076,
				"y": 2.0891233533,
				"z": 3.1623781879,
				"element": "H" 
			},
			{
				"x": 4.0820566393,
				"y": -0.3475431626,
				"z": 2.8065049894,
				"element": "H" 
			},
			{
				"x": 1.8141533066,
				"y": -1.1338637177,
				"z": 2.1467086846,
				"element": "H" 
			}
		],
		 "valence_orbital": [ 
			{
				"type": "occ",
				"energy": -0.30383,
				"method": "rhf"
			},
			{
				"type": "occ",
				"energy": -0.27322,
				"method": "rhf"
			},
			{
				"type": "occ",
				"energy": -0.26554,
				"method": "rhf"
			},
			{
				"type": "occ",
				"energy": -0.26237,
				"method": "rhf"
			},
			{
				"type": "occ",
				"energy": -0.224,
				"method": "rhf"
			},
			{
				"type": "unocc",
				"energy": -0.03315,
				"method": "rhf"
			},
			{
				"type": "unocc",
				"energy": -0.0178,
				"method": "rhf"
			},
			{
				"type": "unocc",
				"energy": 0.05476,
				"method": "rhf"
			},
			{
				"type": "unocc",
				"energy": 0.05947,
				"method": "rhf"
			},
			{
				"type": "unocc",
				"energy": 0.07508,
				"method": "rhf"
			}
		],
		"cosmo_sigma_profile": { 
			"-0.025": 0.0,
			"-0.024": 0.0,
			"-0.023": 0.0,
			"-0.022": 0.0,
			"-0.021": 0.0,
			"-0.02": 0.0,
			"-0.019": 0.0,
			"-0.018": 0.0,
			"-0.017": 0.0,
			"-0.016": 0.0,
			"-0.015": 0.0,
			"-0.014": 0.68225323517,
			"-0.013": 0.948662003064,
			"-0.012": 0.883640516665,
			"-0.011": 1.11109536687,
			"-0.01": 1.55435116506,
			"-0.009": 2.34574247274,
			"-0.008": 2.17592232764,
			"-0.007": 4.97637820199,
			"-0.006": 14.5559581889,
			"-0.005": 16.4745937703,
			"-0.004": 21.4940003548,
			"-0.003": 21.5031564885,
			"-0.002": 20.6871695435,
			"-0.001": 23.4202473975,
			"0.0": 25.9550441486,
			"0.001": 22.5942550248,
			"0.002": 14.3267835763,
			"0.003": 16.8021818312,
			"0.004": 10.9770931527,
			"0.005": 4.32417659266,
			"0.006": 2.46481453533,
			"0.007": 4.38511933101,
			"0.008": 4.45570665865,
			"0.009": 3.6811904356,
			"0.01": 4.02508621952,
			"0.011": 8.40221838092,
			"0.012": 2.37110315411,
			"0.013": 0.636561779063,
			"0.014": 0.454645848274,
			"0.015": 0.797680534724,
			"0.016": 0.742254357139,
			"0.017": 0.59883230693,
			"0.018": 0.529592189755,
			"0.019": 0.766257649372,
			"0.02": 0.140052817663,
			"0.021": 0.0,
			"0.022": 0.0,
			"0.023": 0.0,
			"0.024": 0.0,
			"0.025": 0.0
		}
	}
}
