{
	 "smiles": "CCOC(=O)C1=C(NC(=O)NC2=CC=CC=C2)NN=C1", 
	 "Tm": 517.15, 
	 "num_atms": 34, 
	 "gaussian": { 
		 "optdone": 1, 
		 "sigma_profile": "yes", 
		 "theory": "DFT", 
		 "functional": "B3LYP", 
		 "basiset": "6-31G**", 
		 "properties": { 
			 "R2extent": 8752.5993, 
			 "electric_dipole_moment_norm": 3.98042020646, 
			 "electric_quadrupole_moment_norm": 14.9899589656, 
			 "total_energy": -948.538769705, 
			 "HOMO_LUMO_gap": 0.18948, 
			 "cosmo_polarized_energy": -17.35, 
			 "cosmo_cavitation_energy": 39.03, 
			 "cosmo_dispersion_energy": -28.79, 
			 "cosmo_repulsion_energy": 2.21, 
			 "cosmo_total_nonelectrostatic_energy": 12.45, 
			 "SMD_solvation_energy": 7.0 
		},
		"coords": [
			{
				"x": -1.6593935363,
				"y": 5.3723931963,
				"z": 0.1822547286,
				"element": "C" 
			},
			{
				"x": -2.7613895574,
				"y": 4.3469361794,
				"z": -0.0379810367,
				"element": "C" 
			},
			{
				"x": -2.6706462322,
				"y": 3.2625453379,
				"z": 0.9168526845,
				"element": "O" 
			},
			{
				"x": -1.8459729448,
				"y": 2.2437577211,
				"z": 0.6057274114,
				"element": "C" 
			},
			{
				"x": -1.1898401261,
				"y": 2.1977090677,
				"z": -0.438398799,
				"element": "O" 
			},
			{
				"x": -1.8085026652,
				"y": 1.206011987,
				"z": 1.6146473739,
				"element": "C" 
			},
			{
				"x": -1.0190768773,
				"y": 0.0549874515,
				"z": 1.4930948474,
				"element": "C" 
			},
			{
				"x": -0.1893595083,
				"y": -0.2653824786,
				"z": 0.4419378681,
				"element": "N" 
			},
			{
				"x": 0.5699689089,
				"y": -1.4268059175,
				"z": 0.3837133699,
				"element": "C" 
			},
			{
				"x": 0.5495347848,
				"y": -2.2610805328,
				"z": 1.2864312231,
				"element": "O" 
			},
			{
				"x": 1.3170056133,
				"y": -1.5188704448,
				"z": -0.7672129485,
				"element": "N" 
			},
			{
				"x": 2.1967516247,
				"y": -2.5517013894,
				"z": -1.1623829786,
				"element": "C" 
			},
			{
				"x": 2.8381651012,
				"y": -2.3975900847,
				"z": -2.4016595842,
				"element": "C" 
			},
			{
				"x": 3.7206823835,
				"y": -3.3694531118,
				"z": -2.8643662039,
				"element": "C" 
			},
			{
				"x": 3.9770546199,
				"y": -4.5087977272,
				"z": -2.0995478875,
				"element": "C" 
			},
			{
				"x": 3.3375641485,
				"y": -4.6581936039,
				"z": -0.868595936,
				"element": "C" 
			},
			{
				"x": 2.4500290982,
				"y": -3.6942893167,
				"z": -0.3889517821,
				"element": "C" 
			},
			{
				"x": -1.2288627464,
				"y": -0.6782810804,
				"z": 2.6014965926,
				"element": "N" 
			},
			{
				"x": -2.1142781429,
				"y": -0.0882865317,
				"z": 3.4645289885,
				"element": "N" 
			},
			{
				"x": -2.4591544956,
				"y": 1.0400908511,
				"z": 2.8691206072,
				"element": "C" 
			},
			{
				"x": -1.6780718904,
				"y": 5.750092584,
				"z": 1.208679845,
				"element": "H" 
			},
			{
				"x": -0.6794012178,
				"y": 4.9311303082,
				"z": -0.0149781827,
				"element": "H" 
			},
			{
				"x": -1.7986662625,
				"y": 6.2189406487,
				"z": -0.4984544677,
				"element": "H" 
			},
			{
				"x": -3.7499644003,
				"y": 4.7775230486,
				"z": 0.1378387577,
				"element": "H" 
			},
			{
				"x": -2.7202637869,
				"y": 3.9331887161,
				"z": -1.0481240754,
				"element": "H" 
			},
			{
				"x": -0.2032619746,
				"y": 0.4528980336,
				"z": -0.2827191449,
				"element": "H" 
			},
			{
				"x": 1.2356417964,
				"y": -0.7577004519,
				"z": -1.4261671291,
				"element": "H" 
			},
			{
				"x": 2.6435197389,
				"y": -1.512394723,
				"z": -3.0037668504,
				"element": "H" 
			},
			{
				"x": 4.2073034939,
				"y": -3.2324953324,
				"z": -3.8256359493,
				"element": "H" 
			},
			{
				"x": 4.6649209173,
				"y": -5.2679708627,
				"z": -2.4585210058,
				"element": "H" 
			},
			{
				"x": 3.5276098513,
				"y": -5.5397530971,
				"z": -0.2629123017,
				"element": "H" 
			},
			{
				"x": 1.9570082312,
				"y": -3.8141960536,
				"z": 0.5648421709,
				"element": "H" 
			},
			{
				"x": -0.7898765589,
				"y": -1.5683699009,
				"z": 2.7933403429,
				"element": "H" 
			},
			{
				"x": -3.1612773878,
				"y": 1.71300751,
				"z": 3.3410694518,
				"element": "H" 
			}
		],
		 "valence_orbital": [ 
			{
				"type": "occ",
				"energy": -0.27742,
				"method": "rhf"
			},
			{
				"type": "occ",
				"energy": -0.26654,
				"method": "rhf"
			},
			{
				"type": "occ",
				"energy": -0.25556,
				"method": "rhf"
			},
			{
				"type": "occ",
				"energy": -0.2374,
				"method": "rhf"
			},
			{
				"type": "occ",
				"energy": -0.21825,
				"method": "rhf"
			},
			{
				"type": "unocc",
				"energy": -0.02877,
				"method": "rhf"
			},
			{
				"type": "unocc",
				"energy": -0.00592,
				"method": "rhf"
			},
			{
				"type": "unocc",
				"energy": -0.00442,
				"method": "rhf"
			},
			{
				"type": "unocc",
				"energy": 0.02403,
				"method": "rhf"
			},
			{
				"type": "unocc",
				"energy": 0.05203,
				"method": "rhf"
			}
		],
		"cosmo_sigma_profile": { 
			"-0.025": 0.0,
			"-0.024": 0.0,
			"-0.023": 0.0,
			"-0.022": 0.0,
			"-0.021": 0.0,
			"-0.02": 0.0,
			"-0.019": 0.31338585241,
			"-0.018": 1.19306127801,
			"-0.017": 1.18333253394,
			"-0.016": 1.29538122641,
			"-0.015": 1.41947098431,
			"-0.014": 1.38063238269,
			"-0.013": 2.026870336,
			"-0.012": 1.41906475433,
			"-0.011": 1.606644834,
			"-0.01": 2.14952159363,
			"-0.009": 1.37418217459,
			"-0.008": 3.5529825752,
			"-0.007": 3.93492392091,
			"-0.006": 8.68857966562,
			"-0.005": 16.0554119864,
			"-0.004": 21.8749687712,
			"-0.003": 24.4740825634,
			"-0.002": 27.8848072671,
			"-0.001": 27.6466085184,
			"0.0": 26.0187373608,
			"0.001": 22.6896026425,
			"0.002": 19.9630068693,
			"0.003": 18.5793175507,
			"0.004": 17.0629985593,
			"0.005": 15.5675004644,
			"0.006": 12.8627015439,
			"0.007": 6.128325492,
			"0.008": 4.03588197276,
			"0.009": 4.76730661391,
			"0.01": 5.02995381598,
			"0.011": 3.75981400699,
			"0.012": 2.59846933354,
			"0.013": 1.01010242191,
			"0.014": 1.23107822033,
			"0.015": 0.972577853919,
			"0.016": 0.311812532057,
			"0.017": 0.0,
			"0.018": 0.0,
			"0.019": 0.0,
			"0.02": 0.0,
			"0.021": 0.0,
			"0.022": 0.0,
			"0.023": 0.0,
			"0.024": 0.0,
			"0.025": 0.0
		}
	}
}
