{
	 "smiles": "FC1(F)C(F)(F)C(F)(F)C1(F)F", 
	 "Tm": 233.05, 
	 "num_atms": 12, 
	 "gaussian": { 
		 "optdone": 1, 
		 "sigma_profile": "yes", 
		 "theory": "DFT", 
		 "functional": "B3LYP", 
		 "basiset": "6-31G**", 
		 "properties": { 
			 "R2extent": 2887.5452, 
			 "electric_dipole_moment_norm": 0.000173205080757, 
			 "electric_quadrupole_moment_norm": 0.730237379213, 
			 "total_energy": -951.069962776, 
			 "HOMO_LUMO_gap": 0.30011, 
			 "cosmo_polarized_energy": -2.23, 
			 "cosmo_cavitation_energy": 20.17, 
			 "cosmo_dispersion_energy": -13.61, 
			 "cosmo_repulsion_energy": 0.94, 
			 "cosmo_total_nonelectrostatic_energy": 7.5, 
			 "SMD_solvation_energy": 6.73 
		},
		"coords": [
			{
				"x": -3.4523812322,
				"y": -0.9288276644,
				"z": -1.3448525493,
				"element": "F" 
			},
			{
				"x": -2.1434427721,
				"y": -0.9968715142,
				"z": -1.0670580476,
				"element": "C" 
			},
			{
				"x": -1.9139252969,
				"y": -1.864299795,
				"z": -0.0646766741,
				"element": "F" 
			},
			{
				"x": -1.4368393015,
				"y": 0.3809573744,
				"z": -0.8330836677,
				"element": "C" 
			},
			{
				"x": -2.192491331,
				"y": 1.41702567,
				"z": -1.2398202287,
				"element": "F" 
			},
			{
				"x": -0.9801892498,
				"y": 0.5861576177,
				"z": 0.4096872221,
				"element": "F" 
			},
			{
				"x": -0.3490037487,
				"y": -0.0108478185,
				"z": -1.8892877878,
				"element": "C" 
			},
			{
				"x": -0.1443170055,
				"y": 0.8889079906,
				"z": -2.8607114742,
				"element": "F" 
			},
			{
				"x": 0.8150299714,
				"y": -0.3647426571,
				"z": -1.3151302658,
				"element": "F" 
			},
			{
				"x": -1.2106563408,
				"y": -1.252795688,
				"z": -2.2986739194,
				"element": "C" 
			},
			{
				"x": -1.8485265023,
				"y": -1.0675165243,
				"z": -3.4685806887,
				"element": "F" 
			},
			{
				"x": -0.5631571906,
				"y": -2.4257469913,
				"z": -2.2922119188,
				"element": "F" 
			}
		],
		 "valence_orbital": [ 
			{
				"type": "occ",
				"energy": -0.43406,
				"method": "rhf"
			},
			{
				"type": "occ",
				"energy": -0.4288,
				"method": "rhf"
			},
			{
				"type": "occ",
				"energy": -0.38323,
				"method": "rhf"
			},
			{
				"type": "occ",
				"energy": -0.38322,
				"method": "rhf"
			},
			{
				"type": "occ",
				"energy": -0.32383,
				"method": "rhf"
			},
			{
				"type": "unocc",
				"energy": -0.02372,
				"method": "rhf"
			},
			{
				"type": "unocc",
				"energy": 0.06133,
				"method": "rhf"
			},
			{
				"type": "unocc",
				"energy": 0.12044,
				"method": "rhf"
			},
			{
				"type": "unocc",
				"energy": 0.12044,
				"method": "rhf"
			},
			{
				"type": "unocc",
				"energy": 0.1737,
				"method": "rhf"
			}
		],
		"cosmo_sigma_profile": { 
			"-0.025": 0.0,
			"-0.024": 0.0,
			"-0.023": 0.0,
			"-0.022": 0.0,
			"-0.021": 0.0,
			"-0.02": 0.0,
			"-0.019": 0.0,
			"-0.018": 0.0,
			"-0.017": 0.0,
			"-0.016": 0.0,
			"-0.015": 0.0,
			"-0.014": 0.0,
			"-0.013": 0.0,
			"-0.012": 0.0,
			"-0.011": 0.0,
			"-0.01": 0.0,
			"-0.009": 0.341886375065,
			"-0.008": 2.29774195541,
			"-0.007": 3.37001459115,
			"-0.006": 3.30576256612,
			"-0.005": 4.34371176905,
			"-0.004": 5.06986724121,
			"-0.003": 6.27044426925,
			"-0.002": 6.89612464921,
			"-0.001": 8.71151329422,
			"0.0": 17.805196721,
			"0.001": 59.4070852642,
			"0.002": 45.0371567102,
			"0.003": 0.0,
			"0.004": 0.0,
			"0.005": 0.0,
			"0.006": 0.0,
			"0.007": 0.0,
			"0.008": 0.0,
			"0.009": 0.0,
			"0.01": 0.0,
			"0.011": 0.0,
			"0.012": 0.0,
			"0.013": 0.0,
			"0.014": 0.0,
			"0.015": 0.0,
			"0.016": 0.0,
			"0.017": 0.0,
			"0.018": 0.0,
			"0.019": 0.0,
			"0.02": 0.0,
			"0.021": 0.0,
			"0.022": 0.0,
			"0.023": 0.0,
			"0.024": 0.0,
			"0.025": 0.0
		}
	}
}
