{
	 "smiles": "NC1=CC2=C(C=C1)C(=O)NC2=O", 
	 "Tm": 563.15, 
	 "num_atms": 18, 
	 "gaussian": { 
		 "optdone": 1, 
		 "sigma_profile": "yes", 
		 "theory": "DFT", 
		 "functional": "B3LYP", 
		 "basiset": "6-31G**", 
		 "properties": { 
			 "R2extent": 2078.4016, 
			 "electric_dipole_moment_norm": 4.94514785724, 
			 "electric_quadrupole_moment_norm": 12.8144747325, 
			 "total_energy": -568.45351432, 
			 "HOMO_LUMO_gap": 0.15529, 
			 "cosmo_polarized_energy": -17.29, 
			 "cosmo_cavitation_energy": 23.25, 
			 "cosmo_dispersion_energy": -17.34, 
			 "cosmo_repulsion_energy": 1.38, 
			 "cosmo_total_nonelectrostatic_energy": 7.3, 
			 "SMD_solvation_energy": 5.32 
		},
		"coords": [
			{
				"x": -2.6604287923,
				"y": 1.5639879002,
				"z": 0.1022753977,
				"element": "N" 
			},
			{
				"x": -1.5352783614,
				"y": 0.7773398979,
				"z": -0.0603027015,
				"element": "C" 
			},
			{
				"x": -0.3149666191,
				"y": 1.1446633546,
				"z": 0.5521689364,
				"element": "C" 
			},
			{
				"x": 0.7904253181,
				"y": 0.3513065038,
				"z": 0.3173608864,
				"element": "C" 
			},
			{
				"x": 0.7398975242,
				"y": -0.7856398314,
				"z": -0.495351873,
				"element": "C" 
			},
			{
				"x": -0.4532733662,
				"y": -1.1585948235,
				"z": -1.1045850811,
				"element": "C" 
			},
			{
				"x": -1.5826399784,
				"y": -0.373801106,
				"z": -0.8816779419,
				"element": "C" 
			},
			{
				"x": 2.0871818215,
				"y": -1.4057589863,
				"z": -0.5328818266,
				"element": "C" 
			},
			{
				"x": 2.4736267627,
				"y": -2.3990396943,
				"z": -1.1149342345,
				"element": "O" 
			},
			{
				"x": 2.8868385332,
				"y": -0.5775676618,
				"z": 0.2831953477,
				"element": "N" 
			},
			{
				"x": 2.188390197,
				"y": 0.5003776325,
				"z": 0.8351700534,
				"element": "C" 
			},
			{
				"x": 2.6448063282,
				"y": 1.352232877,
				"z": 1.5706107882,
				"element": "O" 
			},
			{
				"x": -2.6727788962,
				"y": 2.1915388298,
				"z": 0.892371325,
				"element": "H" 
			},
			{
				"x": -3.553941326,
				"y": 1.1393155178,
				"z": -0.0962056123,
				"element": "H" 
			},
			{
				"x": -0.2452453209,
				"y": 2.0241985171,
				"z": 1.1857061544,
				"element": "H" 
			},
			{
				"x": -0.5036540926,
				"y": -2.0402019012,
				"z": -1.7357980363,
				"element": "H" 
			},
			{
				"x": -2.5262913988,
				"y": -0.6427487833,
				"z": -1.3492486497,
				"element": "H" 
			},
			{
				"x": 3.867731667,
				"y": -0.7495082429,
				"z": 0.4515270677,
				"element": "H" 
			}
		],
		 "valence_orbital": [ 
			{
				"type": "occ",
				"energy": -0.28409,
				"method": "rhf"
			},
			{
				"type": "occ",
				"energy": -0.28348,
				"method": "rhf"
			},
			{
				"type": "occ",
				"energy": -0.27224,
				"method": "rhf"
			},
			{
				"type": "occ",
				"energy": -0.25814,
				"method": "rhf"
			},
			{
				"type": "occ",
				"energy": -0.22523,
				"method": "rhf"
			},
			{
				"type": "unocc",
				"energy": -0.06994,
				"method": "rhf"
			},
			{
				"type": "unocc",
				"energy": -0.03035,
				"method": "rhf"
			},
			{
				"type": "unocc",
				"energy": 0.04193,
				"method": "rhf"
			},
			{
				"type": "unocc",
				"energy": 0.06544,
				"method": "rhf"
			},
			{
				"type": "unocc",
				"energy": 0.086,
				"method": "rhf"
			}
		],
		"cosmo_sigma_profile": { 
			"-0.025": 0.0,
			"-0.024": 0.0,
			"-0.023": 0.0,
			"-0.022": 0.0,
			"-0.021": 0.0,
			"-0.02": 0.0,
			"-0.019": 0.0,
			"-0.018": 0.0,
			"-0.017": 0.0,
			"-0.016": 0.970920219361,
			"-0.015": 1.11552295682,
			"-0.014": 1.77350832803,
			"-0.013": 3.73085528106,
			"-0.012": 4.20526568904,
			"-0.011": 4.8428273734,
			"-0.01": 4.27368741999,
			"-0.009": 2.68279682572,
			"-0.008": 5.02453027225,
			"-0.007": 6.89003686818,
			"-0.006": 6.15512487885,
			"-0.005": 6.14913129983,
			"-0.004": 7.41962547689,
			"-0.003": 8.88889400826,
			"-0.002": 10.3218579118,
			"-0.001": 11.6478334707,
			"0.0": 10.0521819789,
			"0.001": 12.0694503851,
			"0.002": 14.6199655266,
			"0.003": 14.9967270905,
			"0.004": 5.30400224382,
			"0.005": 3.28076853617,
			"0.006": 4.67035388561,
			"0.007": 2.55266742689,
			"0.008": 3.56372141187,
			"0.009": 3.51099284621,
			"0.01": 5.56984175334,
			"0.011": 9.22920691715,
			"0.012": 9.19351945861,
			"0.013": 1.57203963813,
			"0.014": 0.0,
			"0.015": 0.0,
			"0.016": 0.0,
			"0.017": 0.0,
			"0.018": 0.0,
			"0.019": 0.0,
			"0.02": 0.0,
			"0.021": 0.0,
			"0.022": 0.0,
			"0.023": 0.0,
			"0.024": 0.0,
			"0.025": 0.0
		}
	}
}
