{
	 "smiles": "CC1=C(SC=C1)C1=NN=C(S)O1", 
	 "Tm": 485.15, 
	 "num_atms": 18, 
	 "gaussian": { 
		 "optdone": 1, 
		 "sigma_profile": "yes", 
		 "theory": "DFT", 
		 "functional": "B3LYP", 
		 "basiset": "6-31G**", 
		 "properties": { 
			 "R2extent": 3364.2864, 
			 "electric_dipole_moment_norm": 5.26115057758, 
			 "electric_quadrupole_moment_norm": 11.437646834, 
			 "total_energy": -1251.41077755, 
			 "HOMO_LUMO_gap": 0.16542, 
			 "cosmo_polarized_energy": -13.17, 
			 "cosmo_cavitation_energy": 26.36, 
			 "cosmo_dispersion_energy": -20.32, 
			 "cosmo_repulsion_energy": 1.52, 
			 "cosmo_total_nonelectrostatic_energy": 7.56, 
			 "SMD_solvation_energy": 2.51 
		},
		"coords": [
			{
				"x": -1.3120860103,
				"y": 1.8767720316,
				"z": 1.8846673051,
				"element": "C" 
			},
			{
				"x": 0.0479221763,
				"y": 1.2284845879,
				"z": 1.8645087133,
				"element": "C" 
			},
			{
				"x": 0.7082657028,
				"y": 0.7607354216,
				"z": 0.7388587869,
				"element": "C" 
			},
			{
				"x": 2.2686399336,
				"y": 0.0736601112,
				"z": 1.129598749,
				"element": "S" 
			},
			{
				"x": 2.0319153888,
				"y": 0.4160574802,
				"z": 2.8056132107,
				"element": "C" 
			},
			{
				"x": 0.8273063755,
				"y": 1.020205529,
				"z": 3.0425884415,
				"element": "C" 
			},
			{
				"x": 0.2941935993,
				"y": 0.7682825611,
				"z": -0.6403319083,
				"element": "C" 
			},
			{
				"x": 0.9397520236,
				"y": 0.3197128701,
				"z": -1.6781319207,
				"element": "N" 
			},
			{
				"x": 0.1323285691,
				"y": 0.5508066297,
				"z": -2.7909107999,
				"element": "N" 
			},
			{
				"x": -0.938601341,
				"y": 1.1200811431,
				"z": -2.3407962992,
				"element": "C" 
			},
			{
				"x": -2.3228820578,
				"y": 1.6479146862,
				"z": -3.2851924914,
				"element": "S" 
			},
			{
				"x": -0.9283524211,
				"y": 1.3006571474,
				"z": -0.9878106839,
				"element": "O" 
			},
			{
				"x": -2.0842855079,
				"y": 1.2081215058,
				"z": 1.4909006615,
				"element": "H" 
			},
			{
				"x": -1.5880919808,
				"y": 2.1478544091,
				"z": 2.9066477542,
				"element": "H" 
			},
			{
				"x": -1.3355482618,
				"y": 2.7855178103,
				"z": 1.2746879067,
				"element": "H" 
			},
			{
				"x": 2.7971299508,
				"y": 0.1512319486,
				"z": 3.5222716631,
				"element": "H" 
			},
			{
				"x": 0.4903494529,
				"y": 1.3155972348,
				"z": 4.0301416625,
				"element": "H" 
			},
			{
				"x": -3.0058555919,
				"y": 2.1141068923,
				"z": -2.222410751,
				"element": "H" 
			}
		],
		 "valence_orbital": [ 
			{
				"type": "occ",
				"energy": -0.32678,
				"method": "rhf"
			},
			{
				"type": "occ",
				"energy": -0.28185,
				"method": "rhf"
			},
			{
				"type": "occ",
				"energy": -0.27583,
				"method": "rhf"
			},
			{
				"type": "occ",
				"energy": -0.25853,
				"method": "rhf"
			},
			{
				"type": "occ",
				"energy": -0.22309,
				"method": "rhf"
			},
			{
				"type": "unocc",
				"energy": -0.05767,
				"method": "rhf"
			},
			{
				"type": "unocc",
				"energy": -0.00705,
				"method": "rhf"
			},
			{
				"type": "unocc",
				"energy": 0.00592,
				"method": "rhf"
			},
			{
				"type": "unocc",
				"energy": 0.02055,
				"method": "rhf"
			},
			{
				"type": "unocc",
				"energy": 0.03592,
				"method": "rhf"
			}
		],
		"cosmo_sigma_profile": { 
			"-0.025": 0.0,
			"-0.024": 0.0,
			"-0.023": 0.0,
			"-0.022": 0.0,
			"-0.021": 0.0,
			"-0.02": 0.0,
			"-0.019": 0.0,
			"-0.018": 0.0,
			"-0.017": 0.0,
			"-0.016": 0.0,
			"-0.015": 0.0,
			"-0.014": 0.045919454033,
			"-0.013": 1.68164638396,
			"-0.012": 1.95509789176,
			"-0.011": 1.30890872034,
			"-0.01": 1.91607437728,
			"-0.009": 3.27461764995,
			"-0.008": 3.38533600619,
			"-0.007": 5.86175014576,
			"-0.006": 6.77038680296,
			"-0.005": 10.1008761392,
			"-0.004": 13.7907814852,
			"-0.003": 15.1827689786,
			"-0.002": 15.9151432819,
			"-0.001": 19.9117623325,
			"0.0": 19.5467289653,
			"0.001": 17.1110449813,
			"0.002": 20.4414020995,
			"0.003": 19.4767027395,
			"0.004": 9.77464492855,
			"0.005": 5.8641541791,
			"0.006": 2.98126192292,
			"0.007": 2.0892907865,
			"0.008": 1.93106098238,
			"0.009": 2.59459625226,
			"0.01": 3.17144989074,
			"0.011": 3.3872256364,
			"0.012": 3.07444712512,
			"0.013": 2.21252461886,
			"0.014": 1.89778031878,
			"0.015": 0.203822191242,
			"0.016": 0.0,
			"0.017": 0.0,
			"0.018": 0.0,
			"0.019": 0.0,
			"0.02": 0.0,
			"0.021": 0.0,
			"0.022": 0.0,
			"0.023": 0.0,
			"0.024": 0.0,
			"0.025": 0.0
		}
	}
}
