{
	 "smiles": "CC1=C(COC2=CC(N)=CC=C2)C=CC=C1", 
	 "Tm": 335.15, 
	 "num_atms": 31, 
	 "gaussian": { 
		 "optdone": 1, 
		 "sigma_profile": "yes", 
		 "theory": "DFT", 
		 "functional": "B3LYP", 
		 "basiset": "6-31G**", 
		 "properties": { 
			 "R2extent": 4742.1066, 
			 "electric_dipole_moment_norm": 2.28279929035, 
			 "electric_quadrupole_moment_norm": 9.51996368691, 
			 "total_energy": -672.505956805, 
			 "HOMO_LUMO_gap": 0.19204, 
			 "cosmo_polarized_energy": -11.54, 
			 "cosmo_cavitation_energy": 33.9, 
			 "cosmo_dispersion_energy": -24.08, 
			 "cosmo_repulsion_energy": 1.9, 
			 "cosmo_total_nonelectrostatic_energy": 11.71, 
			 "SMD_solvation_energy": 5.71 
		},
		"coords": [
			{
				"x": 0.7603089418,
				"y": 0.8927627149,
				"z": -3.0355082911,
				"element": "C" 
			},
			{
				"x": 0.7732204186,
				"y": 1.8088512769,
				"z": -1.8323920922,
				"element": "C" 
			},
			{
				"x": 1.4472257755,
				"y": 1.4504458544,
				"z": -0.6455417225,
				"element": "C" 
			},
			{
				"x": 2.1993941372,
				"y": 0.1323545357,
				"z": -0.5749462927,
				"element": "C" 
			},
			{
				"x": 2.68077155,
				"y": -0.2023848338,
				"z": 0.7205261798,
				"element": "O" 
			},
			{
				"x": 1.8528195164,
				"y": -0.8615413502,
				"z": 1.595761193,
				"element": "C" 
			},
			{
				"x": 0.4747076724,
				"y": -0.9957670404,
				"z": 1.4149980507,
				"element": "C" 
			},
			{
				"x": -0.2942182567,
				"y": -1.689817278,
				"z": 2.3671699551,
				"element": "C" 
			},
			{
				"x": -1.6649975337,
				"y": -1.8690052271,
				"z": 2.1566225403,
				"element": "N" 
			},
			{
				"x": 0.3346173206,
				"y": -2.2363460812,
				"z": 3.496108989,
				"element": "C" 
			},
			{
				"x": 1.7109785131,
				"y": -2.0826918368,
				"z": 3.662212875,
				"element": "C" 
			},
			{
				"x": 2.4821443288,
				"y": -1.4012896824,
				"z": 2.7258754917,
				"element": "C" 
			},
			{
				"x": 1.4554204238,
				"y": 2.3298473784,
				"z": 0.4407108468,
				"element": "C" 
			},
			{
				"x": 0.7933276468,
				"y": 3.556423353,
				"z": 0.3730876924,
				"element": "C" 
			},
			{
				"x": 0.1191731373,
				"y": 3.9149508536,
				"z": -0.7928657807,
				"element": "C" 
			},
			{
				"x": 0.1158020218,
				"y": 3.0435941803,
				"z": -1.8829472311,
				"element": "C" 
			},
			{
				"x": 0.2151309528,
				"y": 1.3478650539,
				"z": -3.8664281313,
				"element": "H" 
			},
			{
				"x": 0.2820657823,
				"y": -0.0699336439,
				"z": -2.8150501265,
				"element": "H" 
			},
			{
				"x": 1.7738207992,
				"y": 0.6675297008,
				"z": -3.3897298378,
				"element": "H" 
			},
			{
				"x": 1.5886543719,
				"y": -0.6902134356,
				"z": -0.9702503239,
				"element": "H" 
			},
			{
				"x": 3.0996674773,
				"y": 0.1870064856,
				"z": -1.1999507822,
				"element": "H" 
			},
			{
				"x": -0.020538297,
				"y": -0.5484702366,
				"z": 0.5604465077,
				"element": "H" 
			},
			{
				"x": -2.1010445477,
				"y": -1.1677660372,
				"z": 1.5731466597,
				"element": "H" 
			},
			{
				"x": -2.2018026669,
				"y": -2.0384275979,
				"z": 2.9963441192,
				"element": "H" 
			},
			{
				"x": -0.2529727805,
				"y": -2.7763323158,
				"z": 4.2336061926,
				"element": "H" 
			},
			{
				"x": 2.1907097082,
				"y": -2.5068340843,
				"z": 4.5400975937,
				"element": "H" 
			},
			{
				"x": 3.5537724392,
				"y": -1.2828541656,
				"z": 2.8396301015,
				"element": "H" 
			},
			{
				"x": 1.9859271727,
				"y": 2.0428383381,
				"z": 1.3421325089,
				"element": "H" 
			},
			{
				"x": 0.8075349543,
				"y": 4.2266794737,
				"z": 1.2278176598,
				"element": "H" 
			},
			{
				"x": -0.3996084086,
				"y": 4.8671901221,
				"z": -0.8580005705,
				"element": "H" 
			},
			{
				"x": -0.4061125709,
				"y": 3.324135525,
				"z": -2.7947839747,
				"element": "H" 
			}
		],
		 "valence_orbital": [ 
			{
				"type": "occ",
				"energy": -0.28321,
				"method": "rhf"
			},
			{
				"type": "occ",
				"energy": -0.24429,
				"method": "rhf"
			},
			{
				"type": "occ",
				"energy": -0.23731,
				"method": "rhf"
			},
			{
				"type": "occ",
				"energy": -0.22025,
				"method": "rhf"
			},
			{
				"type": "occ",
				"energy": -0.19286,
				"method": "rhf"
			},
			{
				"type": "unocc",
				"energy": -0.00082,
				"method": "rhf"
			},
			{
				"type": "unocc",
				"energy": 0.00414,
				"method": "rhf"
			},
			{
				"type": "unocc",
				"energy": 0.01626,
				"method": "rhf"
			},
			{
				"type": "unocc",
				"energy": 0.02886,
				"method": "rhf"
			},
			{
				"type": "unocc",
				"energy": 0.08091,
				"method": "rhf"
			}
		],
		"cosmo_sigma_profile": { 
			"-0.025": 0.0,
			"-0.024": 0.0,
			"-0.023": 0.0,
			"-0.022": 0.0,
			"-0.021": 0.0,
			"-0.02": 0.0,
			"-0.019": 0.0,
			"-0.018": 0.0,
			"-0.017": 0.0,
			"-0.016": 0.0,
			"-0.015": 0.0,
			"-0.014": 0.0,
			"-0.013": 0.0834457868779,
			"-0.012": 2.07431865771,
			"-0.011": 2.9892275152,
			"-0.01": 2.90731646943,
			"-0.009": 3.25445517615,
			"-0.008": 2.61377085717,
			"-0.007": 2.82870122076,
			"-0.006": 8.74488513642,
			"-0.005": 21.1698035835,
			"-0.004": 24.4812740979,
			"-0.003": 23.9099222629,
			"-0.002": 19.6811459184,
			"-0.001": 17.3690982729,
			"0.0": 18.238528573,
			"0.001": 14.2586110448,
			"0.002": 15.7740520904,
			"0.003": 13.4171312676,
			"0.004": 16.1989815551,
			"0.005": 18.0812184947,
			"0.006": 18.8084839231,
			"0.007": 11.7025553962,
			"0.008": 2.20159126921,
			"0.009": 2.01458500667,
			"0.01": 2.05057832121,
			"0.011": 1.40836792639,
			"0.012": 0.70568436684,
			"0.013": 0.733455577336,
			"0.014": 0.576360335253,
			"0.015": 0.341748726819,
			"0.016": 0.0,
			"0.017": 0.0,
			"0.018": 0.0,
			"0.019": 0.0,
			"0.02": 0.0,
			"0.021": 0.0,
			"0.022": 0.0,
			"0.023": 0.0,
			"0.024": 0.0,
			"0.025": 0.0
		}
	}
}
