{
	 "smiles": "SC1=NC2=C(C=CC=C2)C(=O)N1C1=CC=C(Cl)C=C1", 
	 "Tm": 610.15, 
	 "num_atms": 28, 
	 "gaussian": { 
		 "optdone": 1, 
		 "sigma_profile": "yes", 
		 "theory": "DFT", 
		 "functional": "B3LYP", 
		 "basiset": "6-31G**", 
		 "properties": { 
			 "R2extent": 7383.4642, 
			 "electric_dipole_moment_norm": 2.31323154915, 
			 "electric_quadrupole_moment_norm": 5.33470585693, 
			 "total_energy": -1582.04051193, 
			 "HOMO_LUMO_gap": 0.18065, 
			 "cosmo_polarized_energy": -12.29, 
			 "cosmo_cavitation_energy": 36.46, 
			 "cosmo_dispersion_energy": -26.49, 
			 "cosmo_repulsion_energy": 1.99, 
			 "cosmo_total_nonelectrostatic_energy": 11.96, 
			 "SMD_solvation_energy": 4.81 
		},
		"coords": [
			{
				"x": -0.6639477953,
				"y": -2.1888451826,
				"z": 2.4382719969,
				"element": "S" 
			},
			{
				"x": 0.5376650516,
				"y": -1.6198347497,
				"z": 1.2438725994,
				"element": "C" 
			},
			{
				"x": 1.7759659317,
				"y": -1.9540297205,
				"z": 1.3831016122,
				"element": "N" 
			},
			{
				"x": 2.6831493894,
				"y": -1.4958252641,
				"z": 0.4396240364,
				"element": "C" 
			},
			{
				"x": 2.2908560238,
				"y": -0.6869449215,
				"z": -0.6496796158,
				"element": "C" 
			},
			{
				"x": 3.2391507862,
				"y": -0.241965087,
				"z": -1.585107253,
				"element": "C" 
			},
			{
				"x": 4.5713073481,
				"y": -0.5975998599,
				"z": -1.4411763467,
				"element": "C" 
			},
			{
				"x": 4.9673740669,
				"y": -1.4032187802,
				"z": -0.357836667,
				"element": "C" 
			},
			{
				"x": 4.0403892347,
				"y": -1.8486703664,
				"z": 0.572189678,
				"element": "C" 
			},
			{
				"x": 0.8840243631,
				"y": -0.3104392984,
				"z": -0.802986189,
				"element": "C" 
			},
			{
				"x": 0.4202881178,
				"y": 0.3802116453,
				"z": -1.6954521066,
				"element": "O" 
			},
			{
				"x": 0.033376258,
				"y": -0.8323203421,
				"z": 0.2180094732,
				"element": "N" 
			},
			{
				"x": -1.3694416476,
				"y": -0.5048543937,
				"z": 0.1363892043,
				"element": "C" 
			},
			{
				"x": -2.2346168046,
				"y": -1.3356838481,
				"z": -0.5776571214,
				"element": "C" 
			},
			{
				"x": -3.5889058603,
				"y": -1.0199409114,
				"z": -0.6643006863,
				"element": "C" 
			},
			{
				"x": -4.0588993399,
				"y": 0.1337485111,
				"z": -0.0360790005,
				"element": "C" 
			},
			{
				"x": -5.7637613074,
				"y": 0.5353174314,
				"z": -0.140616255,
				"element": "Cl" 
			},
			{
				"x": -3.2007835134,
				"y": 0.9755354444,
				"z": 0.6721404488,
				"element": "C" 
			},
			{
				"x": -1.8480010982,
				"y": 0.6520891641,
				"z": 0.7537297399,
				"element": "C" 
			},
			{
				"x": 0.2778691277,
				"y": -2.84534504,
				"z": 3.1423116596,
				"element": "H" 
			},
			{
				"x": 2.8977598694,
				"y": 0.3776516886,
				"z": -2.4076473985,
				"element": "H" 
			},
			{
				"x": 5.3083085217,
				"y": -0.2563470215,
				"z": -2.161450914,
				"element": "H" 
			},
			{
				"x": 6.0121639683,
				"y": -1.6799597134,
				"z": -0.2481179576,
				"element": "H" 
			},
			{
				"x": 4.3292545453,
				"y": -2.4703197074,
				"z": 1.4130425621,
				"element": "H" 
			},
			{
				"x": -1.8472755188,
				"y": -2.2247062861,
				"z": -1.0639739797,
				"element": "H" 
			},
			{
				"x": -4.2715568672,
				"y": -1.6577172055,
				"z": -1.2139333834,
				"element": "H" 
			},
			{
				"x": -3.5854053736,
				"y": 1.8699132719,
				"z": 1.1486120733,
				"element": "H" 
			},
			{
				"x": -1.1625074773,
				"y": 1.2961005428,
				"z": 1.2943197903,
				"element": "H" 
			}
		],
		 "valence_orbital": [ 
			{
				"type": "occ",
				"energy": -0.27477,
				"method": "rhf"
			},
			{
				"type": "occ",
				"energy": -0.27001,
				"method": "rhf"
			},
			{
				"type": "occ",
				"energy": -0.26365,
				"method": "rhf"
			},
			{
				"type": "occ",
				"energy": -0.25713,
				"method": "rhf"
			},
			{
				"type": "occ",
				"energy": -0.22738,
				"method": "rhf"
			},
			{
				"type": "unocc",
				"energy": -0.04673,
				"method": "rhf"
			},
			{
				"type": "unocc",
				"energy": -0.03782,
				"method": "rhf"
			},
			{
				"type": "unocc",
				"energy": -0.03494,
				"method": "rhf"
			},
			{
				"type": "unocc",
				"energy": -0.02645,
				"method": "rhf"
			},
			{
				"type": "unocc",
				"energy": 0.00926,
				"method": "rhf"
			}
		],
		"cosmo_sigma_profile": { 
			"-0.025": 0.0,
			"-0.024": 0.0,
			"-0.023": 0.0,
			"-0.022": 0.0,
			"-0.021": 0.0,
			"-0.02": 0.0,
			"-0.019": 0.0,
			"-0.018": 0.0,
			"-0.017": 0.0,
			"-0.016": 0.0,
			"-0.015": 0.0,
			"-0.014": 0.0,
			"-0.013": 0.0,
			"-0.012": 0.405011711331,
			"-0.011": 1.58388278922,
			"-0.01": 1.33871718851,
			"-0.009": 1.07703786608,
			"-0.008": 7.54227260223,
			"-0.007": 13.4754114054,
			"-0.006": 17.3460947338,
			"-0.005": 20.0995754935,
			"-0.004": 17.0609677653,
			"-0.003": 14.7233257707,
			"-0.002": 14.7270795263,
			"-0.001": 18.174639371,
			"0.0": 20.7944980181,
			"0.001": 30.5270295957,
			"0.002": 33.5877083482,
			"0.003": 28.7883413785,
			"0.004": 21.2667886667,
			"0.005": 8.86443148299,
			"0.006": 5.13464721248,
			"0.007": 2.85447600993,
			"0.008": 3.45297441539,
			"0.009": 2.97638244463,
			"0.01": 3.03883255818,
			"0.011": 3.34367295871,
			"0.012": 4.88732079831,
			"0.013": 1.57709402982,
			"0.014": 0.0,
			"0.015": 0.0,
			"0.016": 0.0,
			"0.017": 0.0,
			"0.018": 0.0,
			"0.019": 0.0,
			"0.02": 0.0,
			"0.021": 0.0,
			"0.022": 0.0,
			"0.023": 0.0,
			"0.024": 0.0,
			"0.025": 0.0
		}
	}
}
