{
	 "smiles": "CS(=O)(=O)CC(=O)C1=C(F)C=CC=C1", 
	 "Tm": 351.15, 
	 "num_atms": 23, 
	 "gaussian": { 
		 "optdone": 1, 
		 "sigma_profile": "yes", 
		 "theory": "DFT", 
		 "functional": "B3LYP", 
		 "basiset": "6-31G**", 
		 "properties": { 
			 "R2extent": 4434.3077, 
			 "electric_dipole_moment_norm": 3.72224247061, 
			 "electric_quadrupole_moment_norm": 18.8513729577, 
			 "total_energy": -1072.00958419, 
			 "HOMO_LUMO_gap": 0.18318, 
			 "cosmo_polarized_energy": -16.5, 
			 "cosmo_cavitation_energy": 28.63, 
			 "cosmo_dispersion_energy": -21.01, 
			 "cosmo_repulsion_energy": 1.57, 
			 "cosmo_total_nonelectrostatic_energy": 9.19, 
			 "SMD_solvation_energy": 5.45 
		},
		"coords": [
			{
				"x": 1.3961425555,
				"y": 0.3849003179,
				"z": -2.715221567,
				"element": "C" 
			},
			{
				"x": 0.5137609866,
				"y": -0.1776913999,
				"z": -1.2428842772,
				"element": "S" 
			},
			{
				"x": -0.8833046689,
				"y": -0.4490466,
				"z": -1.6069302667,
				"element": "O" 
			},
			{
				"x": 1.3365234172,
				"y": -1.2039390799,
				"z": -0.5858883848,
				"element": "O" 
			},
			{
				"x": 0.5079306318,
				"y": 1.3157734228,
				"z": -0.1715736983,
				"element": "C" 
			},
			{
				"x": 1.8913362909,
				"y": 1.5774348277,
				"z": 0.4081152461,
				"element": "C" 
			},
			{
				"x": 2.6874364783,
				"y": 2.216563985,
				"z": -0.2686302904,
				"element": "O" 
			},
			{
				"x": 2.2802311796,
				"y": 1.0630004954,
				"z": 1.7531777247,
				"element": "C" 
			},
			{
				"x": 1.5095136449,
				"y": 0.2232185761,
				"z": 2.5715197813,
				"element": "C" 
			},
			{
				"x": 0.2874561726,
				"y": -0.193359897,
				"z": 2.1782974083,
				"element": "F" 
			},
			{
				"x": 1.953273909,
				"y": -0.2186048435,
				"z": 3.8124841597,
				"element": "C" 
			},
			{
				"x": 3.2066388584,
				"y": 0.1833073398,
				"z": 4.2675560825,
				"element": "C" 
			},
			{
				"x": 4.0062419001,
				"y": 1.0197480486,
				"z": 3.4803456961,
				"element": "C" 
			},
			{
				"x": 3.5450060186,
				"y": 1.4454270791,
				"z": 2.242327392,
				"element": "C" 
			},
			{
				"x": 0.7719315316,
				"y": 1.101553625,
				"z": -3.2503904641,
				"element": "H" 
			},
			{
				"x": 2.3414271709,
				"y": 0.8360326828,
				"z": -2.4113580003,
				"element": "H" 
			},
			{
				"x": 1.56530527,
				"y": -0.5058044196,
				"z": -3.3228764815,
				"element": "H" 
			},
			{
				"x": -0.263635568,
				"y": 1.1120323752,
				"z": 0.5675743328,
				"element": "H" 
			},
			{
				"x": 0.2224784031,
				"y": 2.1573014954,
				"z": -0.8057858562,
				"element": "H" 
			},
			{
				"x": 1.3118147293,
				"y": -0.8716406288,
				"z": 4.3936310369,
				"element": "H" 
			},
			{
				"x": 3.5589633216,
				"y": -0.1590036686,
				"z": 5.2359286953,
				"element": "H" 
			},
			{
				"x": 4.9836123713,
				"y": 1.3320619373,
				"z": 3.8334967897,
				"element": "H" 
			},
			{
				"x": 4.1459153956,
				"y": 2.0878343291,
				"z": 1.6079849412,
				"element": "H" 
			}
		],
		 "valence_orbital": [ 
			{
				"type": "occ",
				"energy": -0.29942,
				"method": "rhf"
			},
			{
				"type": "occ",
				"energy": -0.29245,
				"method": "rhf"
			},
			{
				"type": "occ",
				"energy": -0.27725,
				"method": "rhf"
			},
			{
				"type": "occ",
				"energy": -0.27199,
				"method": "rhf"
			},
			{
				"type": "occ",
				"energy": -0.26513,
				"method": "rhf"
			},
			{
				"type": "unocc",
				"energy": -0.08195,
				"method": "rhf"
			},
			{
				"type": "unocc",
				"energy": -0.01789,
				"method": "rhf"
			},
			{
				"type": "unocc",
				"energy": 0.00845,
				"method": "rhf"
			},
			{
				"type": "unocc",
				"energy": 0.06559,
				"method": "rhf"
			},
			{
				"type": "unocc",
				"energy": 0.07327,
				"method": "rhf"
			}
		],
		"cosmo_sigma_profile": { 
			"-0.025": 0.0,
			"-0.024": 0.0,
			"-0.023": 0.0,
			"-0.022": 0.0,
			"-0.021": 0.0,
			"-0.02": 0.0,
			"-0.019": 0.0,
			"-0.018": 0.0,
			"-0.017": 0.0,
			"-0.016": 0.0,
			"-0.015": 0.0,
			"-0.014": 0.0,
			"-0.013": 0.0,
			"-0.012": 0.245661300427,
			"-0.011": 1.11575038513,
			"-0.01": 1.97989021783,
			"-0.009": 4.85544776461,
			"-0.008": 8.74944944189,
			"-0.007": 14.2328690266,
			"-0.006": 16.8281038498,
			"-0.005": 18.4473223583,
			"-0.004": 14.4717010524,
			"-0.003": 11.9247020102,
			"-0.002": 9.8330373993,
			"-0.001": 10.8192928205,
			"0.0": 14.1493131547,
			"0.001": 16.4160661687,
			"0.002": 16.7145749523,
			"0.003": 13.4271190552,
			"0.004": 4.81053305069,
			"0.005": 4.22030133199,
			"0.006": 4.88149395237,
			"0.007": 4.31687093239,
			"0.008": 4.67308117981,
			"0.009": 6.03024465196,
			"0.01": 8.0220217354,
			"0.011": 12.747431373,
			"0.012": 5.1761457316,
			"0.013": 0.0210710398678,
			"0.014": 0.0,
			"0.015": 0.0,
			"0.016": 0.0,
			"0.017": 0.0,
			"0.018": 0.0,
			"0.019": 0.0,
			"0.02": 0.0,
			"0.021": 0.0,
			"0.022": 0.0,
			"0.023": 0.0,
			"0.024": 0.0,
			"0.025": 0.0
		}
	}
}
