{
	 "smiles": "CC1(NC(=O)NC1=O)C1=CC=CS1", 
	 "Tm": 411.15, 
	 "num_atms": 21, 
	 "gaussian": { 
		 "optdone": 1, 
		 "sigma_profile": "yes", 
		 "theory": "DFT", 
		 "functional": "B3LYP", 
		 "basiset": "6-31G**", 
		 "properties": { 
			 "R2extent": 2813.9737, 
			 "electric_dipole_moment_norm": 2.46012723248, 
			 "electric_quadrupole_moment_norm": 12.7926132772, 
			 "total_energy": -967.834852329, 
			 "HOMO_LUMO_gap": 0.20819, 
			 "cosmo_polarized_energy": -16.58, 
			 "cosmo_cavitation_energy": 26.8, 
			 "cosmo_dispersion_energy": -19.62, 
			 "cosmo_repulsion_energy": 1.51, 
			 "cosmo_total_nonelectrostatic_energy": 8.69, 
			 "SMD_solvation_energy": 6.15 
		},
		"coords": [
			{
				"x": -1.2352305286,
				"y": 2.4622844454,
				"z": -0.7889914313,
				"element": "C" 
			},
			{
				"x": -1.0804058649,
				"y": 1.0237959508,
				"z": -0.2653327468,
				"element": "C" 
			},
			{
				"x": -2.3016523238,
				"y": 0.2424008065,
				"z": -0.4265619803,
				"element": "N" 
			},
			{
				"x": -2.1483992339,
				"y": -0.8943299681,
				"z": -1.1807025034,
				"element": "C" 
			},
			{
				"x": -2.9635871176,
				"y": -1.7593397764,
				"z": -1.4200326694,
				"element": "O" 
			},
			{
				"x": -0.8184939781,
				"y": -0.8521102889,
				"z": -1.6514726371,
				"element": "N" 
			},
			{
				"x": -0.1102936573,
				"y": 0.2391771158,
				"z": -1.2015909869,
				"element": "C" 
			},
			{
				"x": 1.0281679781,
				"y": 0.5474418901,
				"z": -1.4749653577,
				"element": "O" 
			},
			{
				"x": -0.5723685179,
				"y": 0.9642226755,
				"z": 1.1642512502,
				"element": "C" 
			},
			{
				"x": -0.9603288009,
				"y": 0.1026508729,
				"z": 2.1600622111,
				"element": "C" 
			},
			{
				"x": -0.2519458121,
				"y": 0.2980696901,
				"z": 3.3834450999,
				"element": "C" 
			},
			{
				"x": 0.6725120165,
				"y": 1.3016432572,
				"z": 3.3024344878,
				"element": "C" 
			},
			{
				"x": 0.6960228375,
				"y": 2.024685399,
				"z": 1.7281311685,
				"element": "S" 
			},
			{
				"x": -1.9066627518,
				"y": 3.0337828247,
				"z": -0.1424307429,
				"element": "H" 
			},
			{
				"x": -1.644318384,
				"y": 2.4479775033,
				"z": -1.8025701526,
				"element": "H" 
			},
			{
				"x": -0.2625424058,
				"y": 2.9597837529,
				"z": -0.8159224252,
				"element": "H" 
			},
			{
				"x": -3.1352313732,
				"y": 0.3808666721,
				"z": 0.1234486984,
				"element": "H" 
			},
			{
				"x": -0.4447144789,
				"y": -1.5572743978,
				"z": -2.2704263335,
				"element": "H" 
			},
			{
				"x": -1.7267972916,
				"y": -0.6511321366,
				"z": 2.0234106775,
				"element": "H" 
			},
			{
				"x": -0.4270593286,
				"y": -0.2844176811,
				"z": 4.2806362815,
				"element": "H" 
			},
			{
				"x": 1.3444290169,
				"y": 1.6617213926,
				"z": 4.0692800921,
				"element": "H" 
			}
		],
		 "valence_orbital": [ 
			{
				"type": "occ",
				"energy": -0.29338,
				"method": "rhf"
			},
			{
				"type": "occ",
				"energy": -0.27594,
				"method": "rhf"
			},
			{
				"type": "occ",
				"energy": -0.27095,
				"method": "rhf"
			},
			{
				"type": "occ",
				"energy": -0.25749,
				"method": "rhf"
			},
			{
				"type": "occ",
				"energy": -0.23787,
				"method": "rhf"
			},
			{
				"type": "unocc",
				"energy": -0.02968,
				"method": "rhf"
			},
			{
				"type": "unocc",
				"energy": -0.00488,
				"method": "rhf"
			},
			{
				"type": "unocc",
				"energy": 0.02492,
				"method": "rhf"
			},
			{
				"type": "unocc",
				"energy": 0.05396,
				"method": "rhf"
			},
			{
				"type": "unocc",
				"energy": 0.06188,
				"method": "rhf"
			}
		],
		"cosmo_sigma_profile": { 
			"-0.025": 0.0,
			"-0.024": 0.0,
			"-0.023": 0.0,
			"-0.022": 0.0,
			"-0.021": 0.0,
			"-0.02": 0.0,
			"-0.019": 0.0,
			"-0.018": 0.0,
			"-0.017": 0.645233865273,
			"-0.016": 1.6111457651,
			"-0.015": 2.21105483869,
			"-0.014": 1.44247765863,
			"-0.013": 1.9839876905,
			"-0.012": 1.71087491901,
			"-0.011": 1.75578870141,
			"-0.01": 2.32996440703,
			"-0.009": 2.50077982794,
			"-0.008": 4.60015152429,
			"-0.007": 6.90589051294,
			"-0.006": 9.61195142415,
			"-0.005": 12.6776952255,
			"-0.004": 14.9942080916,
			"-0.003": 13.637429093,
			"-0.002": 15.9610479965,
			"-0.001": 15.1533822144,
			"0.0": 11.7533962216,
			"0.001": 10.270622206,
			"0.002": 11.7707910081,
			"0.003": 11.500002567,
			"0.004": 13.9016913464,
			"0.005": 7.94573137083,
			"0.006": 4.78371346509,
			"0.007": 2.75176071807,
			"0.008": 3.04691765659,
			"0.009": 3.28896035727,
			"0.01": 3.68912722343,
			"0.011": 6.13876999617,
			"0.012": 9.34002957514,
			"0.013": 5.15935217314,
			"0.014": 0.338781554286,
			"0.015": 0.0,
			"0.016": 0.0,
			"0.017": 0.0,
			"0.018": 0.0,
			"0.019": 0.0,
			"0.02": 0.0,
			"0.021": 0.0,
			"0.022": 0.0,
			"0.023": 0.0,
			"0.024": 0.0,
			"0.025": 0.0
		}
	}
}
