{
	 "smiles": "CS(=O)(=O)N1CCCCC1C(O)=O", 
	 "Tm": 348.15, 
	 "num_atms": 26, 
	 "gaussian": { 
		 "optdone": 1, 
		 "sigma_profile": "yes", 
		 "theory": "DFT", 
		 "functional": "B3LYP", 
		 "basiset": "6-31G**", 
		 "properties": { 
			 "R2extent": 3723.6565, 
			 "electric_dipole_moment_norm": 5.01172445571, 
			 "electric_quadrupole_moment_norm": 20.4837456167, 
			 "total_energy": -1028.35470638, 
			 "HOMO_LUMO_gap": 0.26107, 
			 "cosmo_polarized_energy": -18.36, 
			 "cosmo_cavitation_energy": 27.83, 
			 "cosmo_dispersion_energy": -21.05, 
			 "cosmo_repulsion_energy": 1.59, 
			 "cosmo_total_nonelectrostatic_energy": 8.37, 
			 "SMD_solvation_energy": 4.07 
		},
		"coords": [
			{
				"x": -1.3854174361,
				"y": -0.5307028639,
				"z": 2.1062542934,
				"element": "C" 
			},
			{
				"x": -2.3758183173,
				"y": 0.8095355786,
				"z": 1.4091009096,
				"element": "S" 
			},
			{
				"x": -2.0541727171,
				"y": 2.0358137712,
				"z": 2.1380401232,
				"element": "O" 
			},
			{
				"x": -3.7647606485,
				"y": 0.31491947,
				"z": 1.3898836303,
				"element": "O" 
			},
			{
				"x": -1.9300178379,
				"y": 1.0559828587,
				"z": -0.1982206929,
				"element": "N" 
			},
			{
				"x": -1.0171320521,
				"y": 2.1926977254,
				"z": -0.4801515365,
				"element": "C" 
			},
			{
				"x": 0.4521031418,
				"y": 1.7652218465,
				"z": -0.553678636,
				"element": "C" 
			},
			{
				"x": 0.642994348,
				"y": 0.6172016755,
				"z": -1.5550092877,
				"element": "C" 
			},
			{
				"x": -0.3260059167,
				"y": -0.5431837368,
				"z": -1.2822493488,
				"element": "C" 
			},
			{
				"x": -1.7759806272,
				"y": -0.0370779825,
				"z": -1.1978998005,
				"element": "C" 
			},
			{
				"x": -2.8020378141,
				"y": -1.2007222511,
				"z": -1.2151834993,
				"element": "C" 
			},
			{
				"x": -4.0785074076,
				"y": -0.9343874444,
				"z": -0.9296147567,
				"element": "O" 
			},
			{
				"x": -2.4610472526,
				"y": -2.2821120104,
				"z": -1.6380216655,
				"element": "O" 
			},
			{
				"x": -1.7532136241,
				"y": -0.6751909006,
				"z": 3.1239631387,
				"element": "H" 
			},
			{
				"x": -1.5349383173,
				"y": -1.44122384,
				"z": 1.5243654874,
				"element": "H" 
			},
			{
				"x": -0.3371697278,
				"y": -0.2319954723,
				"z": 2.1186113459,
				"element": "H" 
			},
			{
				"x": -1.3413284963,
				"y": 2.6050338001,
				"z": -1.4444385632,
				"element": "H" 
			},
			{
				"x": -1.1823324812,
				"y": 2.9567340474,
				"z": 0.2776203048,
				"element": "H" 
			},
			{
				"x": 0.788059929,
				"y": 1.4582090884,
				"z": 0.445734595,
				"element": "H" 
			},
			{
				"x": 1.0636875844,
				"y": 2.6303139233,
				"z": -0.8353013586,
				"element": "H" 
			},
			{
				"x": 0.4672669408,
				"y": 0.9962451817,
				"z": -2.5717427916,
				"element": "H" 
			},
			{
				"x": 1.67675499,
				"y": 0.2557896183,
				"z": -1.5342632562,
				"element": "H" 
			},
			{
				"x": -0.2720459609,
				"y": -1.2954897881,
				"z": -2.0714535154,
				"element": "H" 
			},
			{
				"x": -0.0580372949,
				"y": -1.0543097614,
				"z": -0.3500644508,
				"element": "H" 
			},
			{
				"x": -1.9991815995,
				"y": 0.4691675082,
				"z": -2.1512278443,
				"element": "H" 
			},
			{
				"x": -4.1584214048,
				"y": -0.1957700421,
				"z": -0.2894528242,
				"element": "H" 
			}
		],
		 "valence_orbital": [ 
			{
				"type": "occ",
				"energy": -0.32627,
				"method": "rhf"
			},
			{
				"type": "occ",
				"energy": -0.32069,
				"method": "rhf"
			},
			{
				"type": "occ",
				"energy": -0.30826,
				"method": "rhf"
			},
			{
				"type": "occ",
				"energy": -0.27597,
				"method": "rhf"
			},
			{
				"type": "occ",
				"energy": -0.26865,
				"method": "rhf"
			},
			{
				"type": "unocc",
				"energy": -0.00758,
				"method": "rhf"
			},
			{
				"type": "unocc",
				"energy": 0.03572,
				"method": "rhf"
			},
			{
				"type": "unocc",
				"energy": 0.05092,
				"method": "rhf"
			},
			{
				"type": "unocc",
				"energy": 0.06194,
				"method": "rhf"
			},
			{
				"type": "unocc",
				"energy": 0.07478,
				"method": "rhf"
			}
		],
		"cosmo_sigma_profile": { 
			"-0.025": 0.0,
			"-0.024": 0.0,
			"-0.023": 0.0,
			"-0.022": 0.0,
			"-0.021": 0.0,
			"-0.02": 0.0,
			"-0.019": 0.0,
			"-0.018": 0.0,
			"-0.017": 0.0,
			"-0.016": 0.0,
			"-0.015": 0.0,
			"-0.014": 0.0,
			"-0.013": 0.0,
			"-0.012": 0.0,
			"-0.011": 0.00953358607792,
			"-0.01": 0.811608324849,
			"-0.009": 5.28959312621,
			"-0.008": 12.6787818223,
			"-0.007": 12.4579282131,
			"-0.006": 10.7409560905,
			"-0.005": 13.2400105221,
			"-0.004": 17.2825545211,
			"-0.003": 21.3153149747,
			"-0.002": 17.9846102127,
			"-0.001": 17.1716383342,
			"0.0": 11.8084516956,
			"0.001": 5.09932400869,
			"0.002": 5.27165477301,
			"0.003": 5.51904075905,
			"0.004": 5.07062848148,
			"0.005": 4.2298430677,
			"0.006": 4.98055995149,
			"0.007": 5.65361758749,
			"0.008": 6.06055987315,
			"0.009": 6.96556234813,
			"0.01": 11.0448771361,
			"0.011": 11.7595577492,
			"0.012": 4.11486242914,
			"0.013": 1.22540031154,
			"0.014": 0.00778390660057,
			"0.015": 0.0,
			"0.016": 0.0,
			"0.017": 0.0,
			"0.018": 0.0,
			"0.019": 0.0,
			"0.02": 0.0,
			"0.021": 0.0,
			"0.022": 0.0,
			"0.023": 0.0,
			"0.024": 0.0,
			"0.025": 0.0
		}
	}
}
