{
	 "smiles": "BrC1=CC=C(NC2=CC(=O)CCC2)C=C1", 
	 "Tm": 273.65, 
	 "num_atms": 27, 
	 "gaussian": { 
		 "optdone": 1, 
		 "sigma_profile": "yes", 
		 "theory": "DFT", 
		 "functional": "B3LYP", 
		 "basiset": "6-31G**", 
		 "properties": { 
			 "R2extent": 7904.5764, 
			 "electric_dipole_moment_norm": 5.75773550191, 
			 "electric_quadrupole_moment_norm": 17.0897002627, 
			 "total_energy": -3165.89059232, 
			 "HOMO_LUMO_gap": 0.16854, 
			 "cosmo_polarized_energy": -17.23, 
			 "cosmo_cavitation_energy": 32.55, 
			 "cosmo_dispersion_energy": -24.37, 
			 "cosmo_repulsion_energy": 1.92, 
			 "cosmo_total_nonelectrostatic_energy": 10.1, 
			 "SMD_solvation_energy": 4.33 
		},
		"coords": [
			{
				"x": 3.1802249958,
				"y": 4.1525357378,
				"z": 2.5360672938,
				"element": "Br" 
			},
			{
				"x": 1.8253069267,
				"y": 3.2157971181,
				"z": 1.5692831174,
				"element": "C" 
			},
			{
				"x": 2.1749259574,
				"y": 2.1420830699,
				"z": 0.7523901245,
				"element": "C" 
			},
			{
				"x": 1.1896569499,
				"y": 1.4564821549,
				"z": 0.0449385038,
				"element": "C" 
			},
			{
				"x": -0.1578932383,
				"y": 1.8317886775,
				"z": 0.1622421014,
				"element": "C" 
			},
			{
				"x": -1.1891714759,
				"y": 1.2106188301,
				"z": -0.5679354077,
				"element": "N" 
			},
			{
				"x": -1.3250838322,
				"y": -0.1013158327,
				"z": -0.9754218013,
				"element": "C" 
			},
			{
				"x": -0.5382666657,
				"y": -1.1365670411,
				"z": -0.5690481723,
				"element": "C" 
			},
			{
				"x": -0.6794956298,
				"y": -2.4933126002,
				"z": -1.0950808787,
				"element": "C" 
			},
			{
				"x": 0.0356015836,
				"y": -3.4138387247,
				"z": -0.7115771375,
				"element": "O" 
			},
			{
				"x": -1.7435533921,
				"y": -2.7168390789,
				"z": -2.1692336958,
				"element": "C" 
			},
			{
				"x": -2.9307736952,
				"y": -1.7635822361,
				"z": -2.0045790967,
				"element": "C" 
			},
			{
				"x": -2.4533251777,
				"y": -0.3084357143,
				"z": -1.9659170961,
				"element": "C" 
			},
			{
				"x": -0.4892574551,
				"y": 2.9183818542,
				"z": 0.9872481419,
				"element": "C" 
			},
			{
				"x": 0.4946059349,
				"y": 3.6138216908,
				"z": 1.6843947334,
				"element": "C" 
			},
			{
				"x": 3.2134855404,
				"y": 1.8465110257,
				"z": 0.6565156974,
				"element": "H" 
			},
			{
				"x": 1.4741324121,
				"y": 0.6445810816,
				"z": -0.6126175961,
				"element": "H" 
			},
			{
				"x": -1.9932829986,
				"y": 1.7974474269,
				"z": -0.7386058988,
				"element": "H" 
			},
			{
				"x": 0.2381737323,
				"y": -1.0029196018,
				"z": 0.1744844777,
				"element": "H" 
			},
			{
				"x": -1.269170112,
				"y": -2.5579783934,
				"z": -3.1489481951,
				"element": "H" 
			},
			{
				"x": -2.0460571464,
				"y": -3.7666321783,
				"z": -2.1298504201,
				"element": "H" 
			},
			{
				"x": -3.4553488448,
				"y": -1.9938631732,
				"z": -1.0692043166,
				"element": "H" 
			},
			{
				"x": -3.6536709679,
				"y": -1.8953075913,
				"z": -2.8166298913,
				"element": "H" 
			},
			{
				"x": -3.2882667089,
				"y": 0.3602970387,
				"z": -1.7152098079,
				"element": "H" 
			},
			{
				"x": -2.1037403171,
				"y": 0.0016314502,
				"z": -2.9616519721,
				"element": "H" 
			},
			{
				"x": -1.5292574209,
				"y": 3.2179139982,
				"z": 1.0895193258,
				"element": "H" 
			},
			{
				"x": 0.2266010458,
				"y": 4.4508010117,
				"z": 2.3189278667,
				"element": "H" 
			}
		],
		 "valence_orbital": [ 
			{
				"type": "occ",
				"energy": -0.28987,
				"method": "rhf"
			},
			{
				"type": "occ",
				"energy": -0.27279,
				"method": "rhf"
			},
			{
				"type": "occ",
				"energy": -0.25661,
				"method": "rhf"
			},
			{
				"type": "occ",
				"energy": -0.22416,
				"method": "rhf"
			},
			{
				"type": "occ",
				"energy": -0.21081,
				"method": "rhf"
			},
			{
				"type": "unocc",
				"energy": -0.04227,
				"method": "rhf"
			},
			{
				"type": "unocc",
				"energy": -0.02372,
				"method": "rhf"
			},
			{
				"type": "unocc",
				"energy": -0.00032,
				"method": "rhf"
			},
			{
				"type": "unocc",
				"energy": 0.00421,
				"method": "rhf"
			},
			{
				"type": "unocc",
				"energy": 0.05911,
				"method": "rhf"
			}
		],
		"cosmo_sigma_profile": { 
			"-0.025": 0.0,
			"-0.024": 0.0,
			"-0.023": 0.0,
			"-0.022": 0.0,
			"-0.021": 0.0,
			"-0.02": 0.0,
			"-0.019": 0.0,
			"-0.018": 0.0,
			"-0.017": 0.0,
			"-0.016": 0.0,
			"-0.015": 0.769547057337,
			"-0.014": 1.41505298376,
			"-0.013": 1.95319744903,
			"-0.012": 1.51457668657,
			"-0.011": 0.742097254974,
			"-0.01": 1.82925705679,
			"-0.009": 2.03644032629,
			"-0.008": 1.9263024174,
			"-0.007": 6.95171403715,
			"-0.006": 8.85969290258,
			"-0.005": 14.0136971329,
			"-0.004": 21.0749942437,
			"-0.003": 24.5421113689,
			"-0.002": 23.256781337,
			"-0.001": 19.8645740164,
			"0.0": 17.6608513455,
			"0.001": 17.3324630684,
			"0.002": 20.145455324,
			"0.003": 24.9484691791,
			"0.004": 16.8594458827,
			"0.005": 10.6857943034,
			"0.006": 1.88277781903,
			"0.007": 1.11779300314,
			"0.008": 1.51203560337,
			"0.009": 1.64979215597,
			"0.01": 1.43362293332,
			"0.011": 1.62446778548,
			"0.012": 1.83818196262,
			"0.013": 3.19223732814,
			"0.014": 5.20280953938,
			"0.015": 3.26029009558,
			"0.016": 0.694381523101,
			"0.017": 0.0,
			"0.018": 0.0,
			"0.019": 0.0,
			"0.02": 0.0,
			"0.021": 0.0,
			"0.022": 0.0,
			"0.023": 0.0,
			"0.024": 0.0,
			"0.025": 0.0
		}
	}
}
