{
	 "smiles": "CS(=O)(=O)C1=C(N)C=C(Br)C=C1", 
	 "Tm": 383.15, 
	 "num_atms": 20, 
	 "gaussian": { 
		 "optdone": 1, 
		 "sigma_profile": "yes", 
		 "theory": "DFT", 
		 "functional": "B3LYP", 
		 "basiset": "6-31G**", 
		 "properties": { 
			 "R2extent": 5174.4466, 
			 "electric_dipole_moment_norm": 3.68823424012, 
			 "electric_quadrupole_moment_norm": 14.4919619245, 
			 "total_energy": -3446.30254705, 
			 "HOMO_LUMO_gap": 0.18934, 
			 "cosmo_polarized_energy": -14.64, 
			 "cosmo_cavitation_energy": 27.12, 
			 "cosmo_dispersion_energy": -21.02, 
			 "cosmo_repulsion_energy": 1.62, 
			 "cosmo_total_nonelectrostatic_energy": 7.72, 
			 "SMD_solvation_energy": 3.29 
		},
		"coords": [
			{
				"x": -0.9300453253,
				"y": 2.4012777093,
				"z": 0.582916657,
				"element": "C" 
			},
			{
				"x": 0.3644031845,
				"y": 1.3842615566,
				"z": 1.3264089643,
				"element": "S" 
			},
			{
				"x": 1.4284501169,
				"y": 2.2758748997,
				"z": 1.8079482567,
				"element": "O" 
			},
			{
				"x": -0.3045392778,
				"y": 0.4527768257,
				"z": 2.2625817558,
				"element": "O" 
			},
			{
				"x": 1.000196645,
				"y": 0.433546726,
				"z": -0.0506660011,
				"element": "C" 
			},
			{
				"x": 0.2678939878,
				"y": -0.6554203827,
				"z": -0.5861014903,
				"element": "C" 
			},
			{
				"x": -0.9640653039,
				"y": -1.0283820502,
				"z": -0.0858844693,
				"element": "N" 
			},
			{
				"x": 0.8208726087,
				"y": -1.3209253752,
				"z": -1.6986646081,
				"element": "C" 
			},
			{
				"x": 2.0425260311,
				"y": -0.9188643441,
				"z": -2.2200483937,
				"element": "C" 
			},
			{
				"x": 2.7481511736,
				"y": -1.8569982205,
				"z": -3.7255148456,
				"element": "Br" 
			},
			{
				"x": 2.7756161893,
				"y": 0.1383717168,
				"z": -1.6757180597,
				"element": "C" 
			},
			{
				"x": 2.2354042856,
				"y": 0.8087831724,
				"z": -0.5839810628,
				"element": "C" 
			},
			{
				"x": -1.4058462766,
				"y": 2.9454650163,
				"z": 1.4013953771,
				"element": "H" 
			},
			{
				"x": -1.6491112354,
				"y": 1.7456140683,
				"z": 0.0885891398,
				"element": "H" 
			},
			{
				"x": -0.4724739225,
				"y": 3.0938047063,
				"z": -0.124518294,
				"element": "H" 
			},
			{
				"x": -1.1014183829,
				"y": -0.8464399282,
				"z": 0.903846875,
				"element": "H" 
			},
			{
				"x": -1.3073527494,
				"y": -1.9251352427,
				"z": -0.3986332394,
				"element": "H" 
			},
			{
				"x": 0.2892131511,
				"y": -2.1570170998,
				"z": -2.1401947509,
				"element": "H" 
			},
			{
				"x": 3.7326719681,
				"y": 0.4244169976,
				"z": -2.093079547,
				"element": "H" 
			},
			{
				"x": 2.7677531324,
				"y": 1.6339892483,
				"z": -0.1226822638,
				"element": "H" 
			}
		],
		 "valence_orbital": [ 
			{
				"type": "occ",
				"energy": -0.30339,
				"method": "rhf"
			},
			{
				"type": "occ",
				"energy": -0.29676,
				"method": "rhf"
			},
			{
				"type": "occ",
				"energy": -0.29408,
				"method": "rhf"
			},
			{
				"type": "occ",
				"energy": -0.26177,
				"method": "rhf"
			},
			{
				"type": "occ",
				"energy": -0.23286,
				"method": "rhf"
			},
			{
				"type": "unocc",
				"energy": -0.04352,
				"method": "rhf"
			},
			{
				"type": "unocc",
				"energy": -0.01555,
				"method": "rhf"
			},
			{
				"type": "unocc",
				"energy": -0.00322,
				"method": "rhf"
			},
			{
				"type": "unocc",
				"energy": 0.06289,
				"method": "rhf"
			},
			{
				"type": "unocc",
				"energy": 0.07182,
				"method": "rhf"
			}
		],
		"cosmo_sigma_profile": { 
			"-0.025": 0.0,
			"-0.024": 0.0,
			"-0.023": 0.0,
			"-0.022": 0.0,
			"-0.021": 0.0,
			"-0.02": 0.0,
			"-0.019": 0.0,
			"-0.018": 0.0,
			"-0.017": 0.0,
			"-0.016": 0.0,
			"-0.015": 0.0,
			"-0.014": 0.985426110225,
			"-0.013": 1.57289648233,
			"-0.012": 1.64089508882,
			"-0.011": 2.01364821286,
			"-0.01": 2.4141437274,
			"-0.009": 3.56109535588,
			"-0.008": 7.41564121769,
			"-0.007": 9.17284069336,
			"-0.006": 10.6113300303,
			"-0.005": 11.7142431353,
			"-0.004": 15.0209792717,
			"-0.003": 12.1911807848,
			"-0.002": 10.3495928533,
			"-0.001": 10.6323410254,
			"0.0": 12.0975706595,
			"0.001": 19.7298612295,
			"0.002": 22.1216691974,
			"0.003": 15.82206259,
			"0.004": 14.6632614376,
			"0.005": 3.81864574878,
			"0.006": 2.26716569313,
			"0.007": 3.66500330074,
			"0.008": 3.54626760104,
			"0.009": 4.00434518792,
			"0.01": 4.71018588177,
			"0.011": 7.13530461377,
			"0.012": 6.60136524631,
			"0.013": 0.390889185132,
			"0.014": 0.0,
			"0.015": 0.0,
			"0.016": 0.0,
			"0.017": 0.0,
			"0.018": 0.0,
			"0.019": 0.0,
			"0.02": 0.0,
			"0.021": 0.0,
			"0.022": 0.0,
			"0.023": 0.0,
			"0.024": 0.0,
			"0.025": 0.0
		}
	}
}
