{
	 "smiles": "NC(CCCCNC(=O)OCC1=CC=CC=C1)C(O)=O", 
	 "Tm": 532.15, 
	 "num_atms": 40, 
	 "gaussian": { 
		 "optdone": 1, 
		 "sigma_profile": "yes", 
		 "theory": "DFT", 
		 "functional": "B3LYP", 
		 "basiset": "6-31G**", 
		 "properties": { 
			 "R2extent": 9215.5986, 
			 "electric_dipole_moment_norm": 1.9533628132, 
			 "electric_quadrupole_moment_norm": 23.976307806, 
			 "total_energy": -955.983869913, 
			 "HOMO_LUMO_gap": 0.23614, 
			 "cosmo_polarized_energy": -21.13, 
			 "cosmo_cavitation_energy": 44.51, 
			 "cosmo_dispersion_energy": -29.54, 
			 "cosmo_repulsion_energy": 2.36, 
			 "cosmo_total_nonelectrostatic_energy": 17.33, 
			 "SMD_solvation_energy": 7.44 
		},
		"coords": [
			{
				"x": -4.9611231295,
				"y": -1.301753565,
				"z": 1.1953125027,
				"element": "N" 
			},
			{
				"x": -3.6296270102,
				"y": -1.2463070224,
				"z": 1.7941731698,
				"element": "C" 
			},
			{
				"x": -2.928834649,
				"y": 0.0535381324,
				"z": 1.3313544658,
				"element": "C" 
			},
			{
				"x": -1.4687136596,
				"y": 0.248369169,
				"z": 1.7684624171,
				"element": "C" 
			},
			{
				"x": -0.4983031282,
				"y": -0.81671706,
				"z": 1.240479707,
				"element": "C" 
			},
			{
				"x": 0.9628192909,
				"y": -0.4871735216,
				"z": 1.5800253231,
				"element": "C" 
			},
			{
				"x": 1.921425061,
				"y": -1.4875586333,
				"z": 1.1250180909,
				"element": "N" 
			},
			{
				"x": 2.4055067969,
				"y": -1.615409253,
				"z": -0.1460950986,
				"element": "C" 
			},
			{
				"x": 3.097766695,
				"y": -2.5420653452,
				"z": -0.5310460218,
				"element": "O" 
			},
			{
				"x": 2.0296349463,
				"y": -0.5617514684,
				"z": -0.9232612689,
				"element": "O" 
			},
			{
				"x": 2.5505373561,
				"y": -0.5825052072,
				"z": -2.2733231701,
				"element": "C" 
			},
			{
				"x": 1.7856056892,
				"y": 0.4282392873,
				"z": -3.0857324379,
				"element": "C" 
			},
			{
				"x": 0.4722726493,
				"y": 0.1579684211,
				"z": -3.4944313586,
				"element": "C" 
			},
			{
				"x": -0.2453232831,
				"y": 1.0914143982,
				"z": -4.240392005,
				"element": "C" 
			},
			{
				"x": 0.3451187888,
				"y": 2.308301143,
				"z": -4.5927089544,
				"element": "C" 
			},
			{
				"x": 1.6527556999,
				"y": 2.5858170047,
				"z": -4.1932063728,
				"element": "C" 
			},
			{
				"x": 2.3663691831,
				"y": 1.650150606,
				"z": -3.4411479588,
				"element": "C" 
			},
			{
				"x": -3.6816323793,
				"y": -1.2971907516,
				"z": 3.3217135541,
				"element": "C" 
			},
			{
				"x": -2.5990674588,
				"y": -1.9054483712,
				"z": 3.8672004974,
				"element": "O" 
			},
			{
				"x": -4.5773187416,
				"y": -0.8369385702,
				"z": 3.9971330621,
				"element": "O" 
			},
			{
				"x": -5.3903513838,
				"y": -2.2026387095,
				"z": 1.3953849394,
				"element": "H" 
			},
			{
				"x": -5.5489000045,
				"y": -0.6115816534,
				"z": 1.6610502721,
				"element": "H" 
			},
			{
				"x": -3.0552329768,
				"y": -2.109967415,
				"z": 1.4449071518,
				"element": "H" 
			},
			{
				"x": -2.9983910841,
				"y": 0.0610868183,
				"z": 0.2381833753,
				"element": "H" 
			},
			{
				"x": -3.5298638064,
				"y": 0.8998502391,
				"z": 1.6890391244,
				"element": "H" 
			},
			{
				"x": -1.4037440776,
				"y": 0.2881920472,
				"z": 2.8634646915,
				"element": "H" 
			},
			{
				"x": -1.1449845064,
				"y": 1.2344533142,
				"z": 1.4102044025,
				"element": "H" 
			},
			{
				"x": -0.7459229175,
				"y": -1.7980180266,
				"z": 1.6625987666,
				"element": "H" 
			},
			{
				"x": -0.5907717386,
				"y": -0.8990225597,
				"z": 0.1505262826,
				"element": "H" 
			},
			{
				"x": 1.0831462149,
				"y": -0.3896607435,
				"z": 2.6652968767,
				"element": "H" 
			},
			{
				"x": 1.2409337838,
				"y": 0.4732262072,
				"z": 1.1381860631,
				"element": "H" 
			},
			{
				"x": 2.0858403677,
				"y": -2.3037954496,
				"z": 1.6948453059,
				"element": "H" 
			},
			{
				"x": 2.4445790073,
				"y": -1.5952528429,
				"z": -2.6712058912,
				"element": "H" 
			},
			{
				"x": 3.6191527872,
				"y": -0.3461566182,
				"z": -2.2457532549,
				"element": "H" 
			},
			{
				"x": 0.0139786209,
				"y": -0.7903396653,
				"z": -3.2252046658,
				"element": "H" 
			},
			{
				"x": -1.2618300015,
				"y": 0.8691578781,
				"z": -4.5524963631,
				"element": "H" 
			},
			{
				"x": -0.2117328715,
				"y": 3.0341738636,
				"z": -5.1784133036,
				"element": "H" 
			},
			{
				"x": 2.1175648253,
				"y": 3.5291812248,
				"z": -4.4652606629,
				"element": "H" 
			},
			{
				"x": 3.384171351,
				"y": 1.8692041688,
				"z": -3.1280829658,
				"element": "H" 
			},
			{
				"x": -2.7165103067,
				"y": -1.8579714704,
				"z": 4.8320017122,
				"element": "H" 
			}
		],
		 "valence_orbital": [ 
			{
				"type": "occ",
				"energy": -0.26756,
				"method": "rhf"
			},
			{
				"type": "occ",
				"energy": -0.25295,
				"method": "rhf"
			},
			{
				"type": "occ",
				"energy": -0.2492,
				"method": "rhf"
			},
			{
				"type": "occ",
				"energy": -0.24751,
				"method": "rhf"
			},
			{
				"type": "occ",
				"energy": -0.247,
				"method": "rhf"
			},
			{
				"type": "unocc",
				"energy": -0.01086,
				"method": "rhf"
			},
			{
				"type": "unocc",
				"energy": -0.00365,
				"method": "rhf"
			},
			{
				"type": "unocc",
				"energy": 0.00013,
				"method": "rhf"
			},
			{
				"type": "unocc",
				"energy": 0.05862,
				"method": "rhf"
			},
			{
				"type": "unocc",
				"energy": 0.06647,
				"method": "rhf"
			}
		],
		"cosmo_sigma_profile": { 
			"-0.025": 0.0,
			"-0.024": 0.0,
			"-0.023": 0.0,
			"-0.022": 0.0,
			"-0.021": 0.0,
			"-0.02": 0.0,
			"-0.019": 0.0252023211277,
			"-0.018": 0.721572395058,
			"-0.017": 0.768437858815,
			"-0.016": 0.623891570967,
			"-0.015": 1.14844605932,
			"-0.014": 1.69693779543,
			"-0.013": 1.08484806906,
			"-0.012": 1.62783118732,
			"-0.011": 2.63736797225,
			"-0.01": 3.1213668167,
			"-0.009": 3.60595699782,
			"-0.008": 4.293240271,
			"-0.007": 5.30093557512,
			"-0.006": 14.3258116899,
			"-0.005": 24.1289966511,
			"-0.004": 27.3275704193,
			"-0.003": 33.8354458126,
			"-0.002": 32.286317538,
			"-0.001": 29.9507823951,
			"0.0": 21.5583778049,
			"0.001": 19.804072518,
			"0.002": 15.3090292541,
			"0.003": 15.2291778984,
			"0.004": 15.6425787021,
			"0.005": 16.4356450538,
			"0.006": 11.9577928593,
			"0.007": 6.98167225097,
			"0.008": 4.97087287899,
			"0.009": 3.52312472783,
			"0.01": 3.75592336453,
			"0.011": 5.88798340038,
			"0.012": 6.38817400313,
			"0.013": 5.47575824109,
			"0.014": 4.44403703745,
			"0.015": 0.715846490011,
			"0.016": 0.766366379345,
			"0.017": 0.325895485221,
			"0.018": 0.680750299204,
			"0.019": 0.133318741335,
			"0.02": 0.0,
			"0.021": 0.0,
			"0.022": 0.0,
			"0.023": 0.0,
			"0.024": 0.0,
			"0.025": 0.0
		}
	}
}
