{
	 "smiles": "NC1=NC2=C(N=CN2C2OC(CO)C(O)C2O)C(Cl)=N1", 
	 "Tm": 439.15, 
	 "num_atms": 32, 
	 "gaussian": { 
		 "optdone": 1, 
		 "sigma_profile": "yes", 
		 "theory": "DFT", 
		 "functional": "B3LYP", 
		 "basiset": "6-31G**", 
		 "properties": { 
			 "R2extent": 7432.5018, 
			 "electric_dipole_moment_norm": 3.95356926966, 
			 "electric_quadrupole_moment_norm": 35.4711229289, 
			 "total_energy": -1423.12791302, 
			 "HOMO_LUMO_gap": 0.17809, 
			 "cosmo_polarized_energy": -23.85, 
			 "cosmo_cavitation_energy": 37.21, 
			 "cosmo_dispersion_energy": -27.2, 
			 "cosmo_repulsion_energy": 2.1, 
			 "cosmo_total_nonelectrostatic_energy": 12.11, 
			 "SMD_solvation_energy": 1.88 
		},
		"coords": [
			{
				"x": 1.0347068044,
				"y": -3.0623024436,
				"z": -3.5382896394,
				"element": "N" 
			},
			{
				"x": 0.055158986,
				"y": -2.7934947826,
				"z": -2.6279796586,
				"element": "C" 
			},
			{
				"x": 0.1115873171,
				"y": -1.6152725389,
				"z": -1.9757905911,
				"element": "N" 
			},
			{
				"x": -0.8769990922,
				"y": -1.4733342776,
				"z": -1.0842623722,
				"element": "C" 
			},
			{
				"x": -1.891661879,
				"y": -2.4104348606,
				"z": -0.7940849883,
				"element": "C" 
			},
			{
				"x": -2.7316649203,
				"y": -1.9323329228,
				"z": 0.193225251,
				"element": "N" 
			},
			{
				"x": -2.2463773433,
				"y": -0.7526405152,
				"z": 0.4854621145,
				"element": "C" 
			},
			{
				"x": -1.1141671736,
				"y": -0.4132249279,
				"z": -0.2499057527,
				"element": "N" 
			},
			{
				"x": -0.3730239551,
				"y": 0.8505326496,
				"z": -0.2331563378,
				"element": "C" 
			},
			{
				"x": -0.8308964623,
				"y": 1.6062354421,
				"z": 0.856431861,
				"element": "O" 
			},
			{
				"x": 0.2702230673,
				"y": 2.3373380639,
				"z": 1.4560037168,
				"element": "C" 
			},
			{
				"x": 0.4046613747,
				"y": 1.944689769,
				"z": 2.9206866191,
				"element": "C" 
			},
			{
				"x": -0.7955714566,
				"y": 2.3051899499,
				"z": 3.5786262256,
				"element": "O" 
			},
			{
				"x": 1.5085653456,
				"y": 2.0191839902,
				"z": 0.6056715441,
				"element": "C" 
			},
			{
				"x": 1.6374319708,
				"y": 2.9993238169,
				"z": -0.4051756944,
				"element": "O" 
			},
			{
				"x": 1.1459574696,
				"y": 0.6666606269,
				"z": -0.0292815563,
				"element": "C" 
			},
			{
				"x": 1.8785062737,
				"y": 0.4814377358,
				"z": -1.2129779962,
				"element": "O" 
			},
			{
				"x": -1.8157606512,
				"y": -3.5823430003,
				"z": -1.5508235656,
				"element": "C" 
			},
			{
				"x": -2.9889854782,
				"y": -4.8555413713,
				"z": -1.3338095668,
				"element": "Cl" 
			},
			{
				"x": -0.8690964323,
				"y": -3.7684882291,
				"z": -2.4503506964,
				"element": "N" 
			},
			{
				"x": 0.8820280005,
				"y": -3.8497739645,
				"z": -4.1478555855,
				"element": "H" 
			},
			{
				"x": 1.5935173034,
				"y": -2.2964806663,
				"z": -3.8780882633,
				"element": "H" 
			},
			{
				"x": -2.6372114034,
				"y": -0.0670278933,
				"z": 1.2226651756,
				"element": "H" 
			},
			{
				"x": -0.550767518,
				"y": 1.3686777315,
				"z": -1.1867991694,
				"element": "H" 
			},
			{
				"x": 0.0387989189,
				"y": 3.4050321907,
				"z": 1.3896119295,
				"element": "H" 
			},
			{
				"x": 0.603639974,
				"y": 0.863164308,
				"z": 2.9953758373,
				"element": "H" 
			},
			{
				"x": 1.2762930847,
				"y": 2.4756803431,
				"z": 3.3381314224,
				"element": "H" 
			},
			{
				"x": -0.7395797638,
				"y": 2.0096233462,
				"z": 4.4953411283,
				"element": "H" 
			},
			{
				"x": 2.4229412246,
				"y": 1.9517303977,
				"z": 1.2143287953,
				"element": "H" 
			},
			{
				"x": 2.0454119323,
				"y": 2.5419253688,
				"z": -1.1588395894,
				"element": "H" 
			},
			{
				"x": 1.307319724,
				"y": -0.1481160146,
				"z": 0.6931839419,
				"element": "H" 
			},
			{
				"x": 1.4650147577,
				"y": -0.2724173217,
				"z": -1.6877745389,
				"element": "H" 
			}
		],
		 "valence_orbital": [ 
			{
				"type": "occ",
				"energy": -0.28385,
				"method": "rhf"
			},
			{
				"type": "occ",
				"energy": -0.28052,
				"method": "rhf"
			},
			{
				"type": "occ",
				"energy": -0.27294,
				"method": "rhf"
			},
			{
				"type": "occ",
				"energy": -0.26256,
				"method": "rhf"
			},
			{
				"type": "occ",
				"energy": -0.22878,
				"method": "rhf"
			},
			{
				"type": "unocc",
				"energy": -0.05069,
				"method": "rhf"
			},
			{
				"type": "unocc",
				"energy": -0.00465,
				"method": "rhf"
			},
			{
				"type": "unocc",
				"energy": 0.03178,
				"method": "rhf"
			},
			{
				"type": "unocc",
				"energy": 0.03603,
				"method": "rhf"
			},
			{
				"type": "unocc",
				"energy": 0.05848,
				"method": "rhf"
			}
		],
		"cosmo_sigma_profile": { 
			"-0.025": 0.0,
			"-0.024": 0.0,
			"-0.023": 0.0,
			"-0.022": 0.0,
			"-0.021": 0.0,
			"-0.02": 0.0,
			"-0.019": 0.0,
			"-0.018": 0.0,
			"-0.017": 0.0542657804414,
			"-0.016": 0.906043528232,
			"-0.015": 1.46658747104,
			"-0.014": 2.94384794572,
			"-0.013": 3.62407142203,
			"-0.012": 2.73271495032,
			"-0.011": 3.44148266967,
			"-0.01": 3.15041816667,
			"-0.009": 4.43822319231,
			"-0.008": 5.2360479866,
			"-0.007": 9.23887441653,
			"-0.006": 17.5936448427,
			"-0.005": 18.6176976365,
			"-0.004": 18.0274722434,
			"-0.003": 20.776311782,
			"-0.002": 19.6143164556,
			"-0.001": 19.5194122516,
			"0.0": 16.2772298151,
			"0.001": 14.6368755736,
			"0.002": 15.1518919546,
			"0.003": 15.8822536142,
			"0.004": 14.3291876942,
			"0.005": 10.3139194235,
			"0.006": 9.03574082076,
			"0.007": 7.74714501254,
			"0.008": 7.321189362,
			"0.009": 6.38893528692,
			"0.01": 6.68540240109,
			"0.011": 5.28932065878,
			"0.012": 6.5567922528,
			"0.013": 5.36141550318,
			"0.014": 2.71137782242,
			"0.015": 1.21628285072,
			"0.016": 0.373205841449,
			"0.017": 0.0,
			"0.018": 0.0,
			"0.019": 0.0,
			"0.02": 0.0,
			"0.021": 0.0,
			"0.022": 0.0,
			"0.023": 0.0,
			"0.024": 0.0,
			"0.025": 0.0
		}
	}
}
