{
	 "smiles": "CC(C)(C)C1=CC(=CC(=C1)C(C)(C)C)C(C)(C)C", 
	 "Tm": 344.15, 
	 "num_atms": 48, 
	 "gaussian": { 
		 "optdone": 1, 
		 "sigma_profile": "yes", 
		 "theory": "DFT", 
		 "functional": "B3LYP", 
		 "basiset": "6-31G**", 
		 "properties": { 
			 "R2extent": 6447.0356, 
			 "electric_dipole_moment_norm": 0.0229584407136, 
			 "electric_quadrupole_moment_norm": 3.99284406407, 
			 "total_energy": -704.041380757, 
			 "HOMO_LUMO_gap": 0.23061, 
			 "cosmo_polarized_energy": -3.73, 
			 "cosmo_cavitation_energy": 44.86, 
			 "cosmo_dispersion_energy": -29.1, 
			 "cosmo_repulsion_energy": 2.26, 
			 "cosmo_total_nonelectrostatic_energy": 18.02, 
			 "SMD_solvation_energy": 7.97 
		},
		"coords": [
			{
				"x": -2.4583665893,
				"y": -0.6814743214,
				"z": -3.8809289926,
				"element": "C" 
			},
			{
				"x": -1.7725084153,
				"y": -1.7548456915,
				"z": -3.0140657929,
				"element": "C" 
			},
			{
				"x": -0.5054081585,
				"y": -2.234586119,
				"z": -3.7616542576,
				"element": "C" 
			},
			{
				"x": -2.7537504894,
				"y": -2.9410783694,
				"z": -2.8575005512,
				"element": "C" 
			},
			{
				"x": -1.3780784792,
				"y": -1.2258820128,
				"z": -1.6200044177,
				"element": "C" 
			},
			{
				"x": -0.7451003628,
				"y": -2.0794633416,
				"z": -0.7101333326,
				"element": "C" 
			},
			{
				"x": -0.3621395347,
				"y": -1.6589105734,
				"z": 0.5720487702,
				"element": "C" 
			},
			{
				"x": -0.6335191992,
				"y": -0.3347054909,
				"z": 0.9296195013,
				"element": "C" 
			},
			{
				"x": -1.26593498,
				"y": 0.5604452015,
				"z": 0.0523888747,
				"element": "C" 
			},
			{
				"x": -1.6292798267,
				"y": 0.0941453736,
				"z": -1.2160548645,
				"element": "C" 
			},
			{
				"x": -1.534209338,
				"y": 2.0080173009,
				"z": 0.5112981396,
				"element": "C" 
			},
			{
				"x": -2.4416156079,
				"y": 1.9928894417,
				"z": 1.7647803573,
				"element": "C" 
			},
			{
				"x": -0.1926060235,
				"y": 2.6961828503,
				"z": 0.8598387673,
				"element": "C" 
			},
			{
				"x": -2.2337213637,
				"y": 2.851299665,
				"z": -0.5719347992,
				"element": "C" 
			},
			{
				"x": 0.3318300346,
				"y": -2.6532915382,
				"z": 1.5243773087,
				"element": "C" 
			},
			{
				"x": 1.6465501938,
				"y": -3.1534170285,
				"z": 0.879484456,
				"element": "C" 
			},
			{
				"x": -0.6029041462,
				"y": -3.8593662739,
				"z": 1.7815753248,
				"element": "C" 
			},
			{
				"x": 0.6795831021,
				"y": -2.0215675095,
				"z": 2.8858416975,
				"element": "C" 
			},
			{
				"x": -1.8043594328,
				"y": 0.1783932314,
				"z": -4.0594149726,
				"element": "H" 
			},
			{
				"x": -2.7174475592,
				"y": -1.1062465008,
				"z": -4.8563826625,
				"element": "H" 
			},
			{
				"x": -3.3844295533,
				"y": -0.3178383168,
				"z": -3.4236169436,
				"element": "H" 
			},
			{
				"x": -0.768845375,
				"y": -2.6193494433,
				"z": -4.7536859022,
				"element": "H" 
			},
			{
				"x": 0.0086837916,
				"y": -3.0343498743,
				"z": -3.2205047433,
				"element": "H" 
			},
			{
				"x": 0.2051661749,
				"y": -1.4119825169,
				"z": -3.8940580393,
				"element": "H" 
			},
			{
				"x": -3.6653137278,
				"y": -2.6281776206,
				"z": -2.3376300126,
				"element": "H" 
			},
			{
				"x": -2.3113424326,
				"y": -3.7633099732,
				"z": -2.2874551039,
				"element": "H" 
			},
			{
				"x": -3.0403101788,
				"y": -3.3332145618,
				"z": -3.8401854894,
				"element": "H" 
			},
			{
				"x": -0.543152286,
				"y": -3.1042216124,
				"z": -1.0064608819,
				"element": "H" 
			},
			{
				"x": -0.3486913954,
				"y": 0.0168604218,
				"z": 1.9138478835,
				"element": "H" 
			},
			{
				"x": -2.1172434167,
				"y": 0.7694959016,
				"z": -1.9045654221,
				"element": "H" 
			},
			{
				"x": -2.6371867783,
				"y": 3.0154120266,
				"z": 2.1079543831,
				"element": "H" 
			},
			{
				"x": -3.4037927261,
				"y": 1.5185417874,
				"z": 1.5448630509,
				"element": "H" 
			},
			{
				"x": -1.9826473263,
				"y": 1.4460596974,
				"z": 2.5936494839,
				"element": "H" 
			},
			{
				"x": 0.3383790165,
				"y": 2.1723783329,
				"z": 1.6600747444,
				"element": "H" 
			},
			{
				"x": -0.3660055417,
				"y": 3.725860665,
				"z": 1.1934051642,
				"element": "H" 
			},
			{
				"x": 0.4680950438,
				"y": 2.7285950374,
				"z": -0.0128462718,
				"element": "H" 
			},
			{
				"x": -2.4007800501,
				"y": 3.8666557994,
				"z": -0.1974810766,
				"element": "H" 
			},
			{
				"x": -3.2094744008,
				"y": 2.4364733731,
				"z": -0.8454325117,
				"element": "H" 
			},
			{
				"x": -1.6288885484,
				"y": 2.9310043533,
				"z": -1.4812254963,
				"element": "H" 
			},
			{
				"x": 2.1505060525,
				"y": -3.8666778928,
				"z": 1.5419013685,
				"element": "H" 
			},
			{
				"x": 2.3320991819,
				"y": -2.3201592894,
				"z": 0.692943944,
				"element": "H" 
			},
			{
				"x": 1.4666249272,
				"y": -3.6562959179,
				"z": -0.0752140332,
				"element": "H" 
			},
			{
				"x": -1.5401100242,
				"y": -3.5352759333,
				"z": 2.2460112316,
				"element": "H" 
			},
			{
				"x": -0.8546347856,
				"y": -4.3846815313,
				"z": 0.8556139932,
				"element": "H" 
			},
			{
				"x": -0.1219509734,
				"y": -4.5799173415,
				"z": 2.4531419755,
				"element": "H" 
			},
			{
				"x": 1.1684790544,
				"y": -2.7656653873,
				"z": 3.5232698529,
				"element": "H" 
			},
			{
				"x": -0.2138610753,
				"y": -1.6718411489,
				"z": 3.4135523636,
				"element": "H" 
			},
			{
				"x": 1.3673135291,
				"y": -1.1761173279,
				"z": 2.7796539349,
				"element": "H" 
			}
		],
		 "valence_orbital": [ 
			{
				"type": "occ",
				"energy": -0.31206,
				"method": "rhf"
			},
			{
				"type": "occ",
				"energy": -0.29867,
				"method": "rhf"
			},
			{
				"type": "occ",
				"energy": -0.2954,
				"method": "rhf"
			},
			{
				"type": "occ",
				"energy": -0.22918,
				"method": "rhf"
			},
			{
				"type": "occ",
				"energy": -0.22459,
				"method": "rhf"
			},
			{
				"type": "unocc",
				"energy": 0.00602,
				"method": "rhf"
			},
			{
				"type": "unocc",
				"energy": 0.01234,
				"method": "rhf"
			},
			{
				"type": "unocc",
				"energy": 0.07268,
				"method": "rhf"
			},
			{
				"type": "unocc",
				"energy": 0.09138,
				"method": "rhf"
			},
			{
				"type": "unocc",
				"energy": 0.09561,
				"method": "rhf"
			}
		],
		"cosmo_sigma_profile": { 
			"-0.025": 0.0,
			"-0.024": 0.0,
			"-0.023": 0.0,
			"-0.022": 0.0,
			"-0.021": 0.0,
			"-0.02": 0.0,
			"-0.019": 0.0,
			"-0.018": 0.0,
			"-0.017": 0.0,
			"-0.016": 0.0,
			"-0.015": 0.0,
			"-0.014": 0.0,
			"-0.013": 0.0,
			"-0.012": 0.0,
			"-0.011": 0.0,
			"-0.01": 0.0,
			"-0.009": 0.0,
			"-0.008": 0.0,
			"-0.007": 0.0,
			"-0.006": 0.0,
			"-0.005": 1.50955639028,
			"-0.004": 8.56602497016,
			"-0.003": 28.5613961974,
			"-0.002": 67.2539690215,
			"-0.001": 51.706295268,
			"0.0": 49.7579435212,
			"0.001": 63.839588555,
			"0.002": 41.0977814338,
			"0.003": 7.4180480985,
			"0.004": 6.75414843734,
			"0.005": 5.47965381047,
			"0.006": 5.6187162953,
			"0.007": 5.54675688731,
			"0.008": 2.19243472581,
			"0.009": 0.0,
			"0.01": 0.0,
			"0.011": 0.0,
			"0.012": 0.0,
			"0.013": 0.0,
			"0.014": 0.0,
			"0.015": 0.0,
			"0.016": 0.0,
			"0.017": 0.0,
			"0.018": 0.0,
			"0.019": 0.0,
			"0.02": 0.0,
			"0.021": 0.0,
			"0.022": 0.0,
			"0.023": 0.0,
			"0.024": 0.0,
			"0.025": 0.0
		}
	}
}
