{
	 "smiles": "CC(=O)NC1=CC=C(C=CC2=CC=CC=C2)C(=C1)[N+]([O-])=O", 
	 "Tm": 465.15, 
	 "num_atms": 35, 
	 "gaussian": { 
		 "optdone": 1, 
		 "sigma_profile": "yes", 
		 "theory": "DFT", 
		 "functional": "B3LYP", 
		 "basiset": "6-31G**", 
		 "properties": { 
			 "R2extent": 9766.8922, 
			 "electric_dipole_moment_norm": 4.421367284, 
			 "electric_quadrupole_moment_norm": 11.2937801958, 
			 "total_energy": -953.219178, 
			 "HOMO_LUMO_gap": 0.12073, 
			 "cosmo_polarized_energy": -17.67, 
			 "cosmo_cavitation_energy": 40.55, 
			 "cosmo_dispersion_energy": -28.73, 
			 "cosmo_repulsion_energy": 2.16, 
			 "cosmo_total_nonelectrostatic_energy": 13.98, 
			 "SMD_solvation_energy": 9.7 
		},
		"coords": [
			{
				"x": -4.8436020366,
				"y": -2.9993013266,
				"z": -0.7099968655,
				"element": "C" 
			},
			{
				"x": -5.5284479983,
				"y": -1.656142412,
				"z": -0.8509660415,
				"element": "C" 
			},
			{
				"x": -6.7124330807,
				"y": -1.5535222205,
				"z": -1.1301348099,
				"element": "O" 
			},
			{
				"x": -4.7834147022,
				"y": -0.4921923651,
				"z": -0.6764426505,
				"element": "N" 
			},
			{
				"x": -3.4301777367,
				"y": -0.2578734834,
				"z": -0.3856726424,
				"element": "C" 
			},
			{
				"x": -2.8215837944,
				"y": 0.8999188258,
				"z": -0.9055233827,
				"element": "C" 
			},
			{
				"x": -1.5012875151,
				"y": 1.198325474,
				"z": -0.619484871,
				"element": "C" 
			},
			{
				"x": -0.6800518733,
				"y": 0.3747960852,
				"z": 0.1841049723,
				"element": "C" 
			},
			{
				"x": 0.7278479279,
				"y": 0.7290653634,
				"z": 0.3969803912,
				"element": "C" 
			},
			{
				"x": 1.4655790979,
				"y": 1.4323900012,
				"z": -0.4897271806,
				"element": "C" 
			},
			{
				"x": 2.8623471728,
				"y": 1.8451447174,
				"z": -0.3333159377,
				"element": "C" 
			},
			{
				"x": 3.6046734169,
				"y": 1.6361366594,
				"z": 0.8464008163,
				"element": "C" 
			},
			{
				"x": 4.9305929599,
				"y": 2.0466399611,
				"z": 0.9344152817,
				"element": "C" 
			},
			{
				"x": 5.5506016299,
				"y": 2.6790312552,
				"z": -0.1484966199,
				"element": "C" 
			},
			{
				"x": 4.8293701223,
				"y": 2.8978318464,
				"z": -1.3228556533,
				"element": "C" 
			},
			{
				"x": 3.5012834638,
				"y": 2.4857515748,
				"z": -1.4116601376,
				"element": "C" 
			},
			{
				"x": -1.3285604586,
				"y": -0.7675345002,
				"z": 0.7100535438,
				"element": "C" 
			},
			{
				"x": -2.6641072576,
				"y": -1.0774202721,
				"z": 0.4433640725,
				"element": "C" 
			},
			{
				"x": -0.6456052548,
				"y": -1.7385202757,
				"z": 1.588749639,
				"element": "N" 
			},
			{
				"x": -1.1087854612,
				"y": -2.8788646008,
				"z": 1.6378962932,
				"element": "O" 
			},
			{
				"x": 0.3311355429,
				"y": -1.367901217,
				"z": 2.2407813014,
				"element": "O" 
			},
			{
				"x": -5.4524715029,
				"y": -3.7287557056,
				"z": -1.2445050443,
				"element": "H" 
			},
			{
				"x": -4.8032388372,
				"y": -3.3006713012,
				"z": 0.3422596563,
				"element": "H" 
			},
			{
				"x": -3.8240142541,
				"y": -3.0026636759,
				"z": -1.102459631,
				"element": "H" 
			},
			{
				"x": -5.3375195297,
				"y": 0.323319968,
				"z": -0.9100325578,
				"element": "H" 
			},
			{
				"x": -3.4000383308,
				"y": 1.5710512315,
				"z": -1.534775396,
				"element": "H" 
			},
			{
				"x": -1.0780313993,
				"y": 2.1144197278,
				"z": -1.0154936296,
				"element": "H" 
			},
			{
				"x": 1.1779311615,
				"y": 0.3723695178,
				"z": 1.3118744344,
				"element": "H" 
			},
			{
				"x": 1.0176280751,
				"y": 1.7160609645,
				"z": -1.4411965298,
				"element": "H" 
			},
			{
				"x": 3.140873015,
				"y": 1.1532114849,
				"z": 1.7005646102,
				"element": "H" 
			},
			{
				"x": 5.4848921008,
				"y": 1.8757320042,
				"z": 1.8527891544,
				"element": "H" 
			},
			{
				"x": 6.5857897451,
				"y": 2.9988465806,
				"z": -0.0741630787,
				"element": "H" 
			},
			{
				"x": 5.3001171606,
				"y": 3.3890630347,
				"z": -2.1695465871,
				"element": "H" 
			},
			{
				"x": 2.9441865827,
				"y": 2.6572362051,
				"z": -2.3295150456,
				"element": "H" 
			},
			{
				"x": -3.0767781516,
				"y": -1.9589791267,
				"z": 0.9092301258,
				"element": "H" 
			}
		],
		 "valence_orbital": [ 
			{
				"type": "occ",
				"energy": -0.28112,
				"method": "rhf"
			},
			{
				"type": "occ",
				"energy": -0.26506,
				"method": "rhf"
			},
			{
				"type": "occ",
				"energy": -0.25905,
				"method": "rhf"
			},
			{
				"type": "occ",
				"energy": -0.2564,
				"method": "rhf"
			},
			{
				"type": "occ",
				"energy": -0.21706,
				"method": "rhf"
			},
			{
				"type": "unocc",
				"energy": -0.09633,
				"method": "rhf"
			},
			{
				"type": "unocc",
				"energy": -0.05967,
				"method": "rhf"
			},
			{
				"type": "unocc",
				"energy": -0.0167,
				"method": "rhf"
			},
			{
				"type": "unocc",
				"energy": -0.01223,
				"method": "rhf"
			},
			{
				"type": "unocc",
				"energy": -0.00731,
				"method": "rhf"
			}
		],
		"cosmo_sigma_profile": { 
			"-0.025": 0.0,
			"-0.024": 0.0,
			"-0.023": 0.0,
			"-0.022": 0.0,
			"-0.021": 0.0,
			"-0.02": 0.0,
			"-0.019": 0.0,
			"-0.018": 0.0,
			"-0.017": 0.0,
			"-0.016": 0.0,
			"-0.015": 0.428089063173,
			"-0.014": 1.122307398,
			"-0.013": 1.68597808132,
			"-0.012": 1.04329312734,
			"-0.011": 1.12836557316,
			"-0.01": 1.62873328137,
			"-0.009": 2.26882399256,
			"-0.008": 4.7368534131,
			"-0.007": 10.5623835318,
			"-0.006": 19.0435326074,
			"-0.005": 23.9128038544,
			"-0.004": 24.6412255871,
			"-0.003": 23.4932195119,
			"-0.002": 21.3581854003,
			"-0.001": 21.3782456276,
			"0.0": 22.3803999584,
			"0.001": 27.2541502527,
			"0.002": 22.3658666604,
			"0.003": 17.1731835467,
			"0.004": 18.0241213628,
			"0.005": 14.3391195986,
			"0.006": 7.37264955628,
			"0.007": 7.96091917644,
			"0.008": 7.5041487926,
			"0.009": 5.1641307141,
			"0.01": 4.38981566611,
			"0.011": 2.21930948642,
			"0.012": 3.12583011815,
			"0.013": 5.56258238554,
			"0.014": 1.73456930926,
			"0.015": 0.0983860989072,
			"0.016": 0.0,
			"0.017": 0.0,
			"0.018": 0.0,
			"0.019": 0.0,
			"0.02": 0.0,
			"0.021": 0.0,
			"0.022": 0.0,
			"0.023": 0.0,
			"0.024": 0.0,
			"0.025": 0.0
		}
	}
}
