{
	 "smiles": "NNC1=NC(Cl)=CN=C1", 
	 "Tm": 411.15, 
	 "num_atms": 14, 
	 "gaussian": { 
		 "optdone": 1, 
		 "sigma_profile": "yes", 
		 "theory": "DFT", 
		 "functional": "B3LYP", 
		 "basiset": "6-31G**", 
		 "properties": { 
			 "R2extent": 2167.8863, 
			 "electric_dipole_moment_norm": 1.97786111494, 
			 "electric_quadrupole_moment_norm": 2.61917013575, 
			 "total_energy": -834.59485985, 
			 "HOMO_LUMO_gap": 0.17939, 
			 "cosmo_polarized_energy": -10.61, 
			 "cosmo_cavitation_energy": 20.5, 
			 "cosmo_dispersion_energy": -15.57, 
			 "cosmo_repulsion_energy": 1.3, 
			 "cosmo_total_nonelectrostatic_energy": 6.22, 
			 "SMD_solvation_energy": 1.4 
		},
		"coords": [
			{
				"x": -2.4312979812,
				"y": -0.7309876777,
				"z": 0.0934076816,
				"element": "N" 
			},
			{
				"x": -1.0738453351,
				"y": -0.6642562836,
				"z": -0.2723506928,
				"element": "N" 
			},
			{
				"x": -0.246935674,
				"y": 0.3439484543,
				"z": 0.153967001,
				"element": "C" 
			},
			{
				"x": -0.8095235159,
				"y": 1.4026627107,
				"z": 0.7554041866,
				"element": "N" 
			},
			{
				"x": 0.0117857978,
				"y": 2.3723490243,
				"z": 1.1259052145,
				"element": "C" 
			},
			{
				"x": -0.7114686736,
				"y": 3.7689666642,
				"z": 1.9145296151,
				"element": "Cl" 
			},
			{
				"x": 1.3900888865,
				"y": 2.3393589929,
				"z": 0.93131701,
				"element": "C" 
			},
			{
				"x": 1.949894863,
				"y": 1.2718527553,
				"z": 0.3388606904,
				"element": "N" 
			},
			{
				"x": 1.1559230719,
				"y": 0.2857106645,
				"z": -0.0466767213,
				"element": "C" 
			},
			{
				"x": -2.520135797,
				"y": -0.425348057,
				"z": 1.0634766565,
				"element": "H" 
			},
			{
				"x": -2.9340884652,
				"y": -0.0380113424,
				"z": -0.458818573,
				"element": "H" 
			},
			{
				"x": -0.6608568227,
				"y": -1.5622919734,
				"z": -0.4756648815,
				"element": "H" 
			},
			{
				"x": 2.0343728643,
				"y": 3.1525160331,
				"z": 1.246850253,
				"element": "H" 
			},
			{
				"x": 1.6157867814,
				"y": -0.5763699652,
				"z": -0.52680744,
				"element": "H" 
			}
		],
		 "valence_orbital": [ 
			{
				"type": "occ",
				"energy": -0.31442,
				"method": "rhf"
			},
			{
				"type": "occ",
				"energy": -0.29615,
				"method": "rhf"
			},
			{
				"type": "occ",
				"energy": -0.28269,
				"method": "rhf"
			},
			{
				"type": "occ",
				"energy": -0.26539,
				"method": "rhf"
			},
			{
				"type": "occ",
				"energy": -0.23063,
				"method": "rhf"
			},
			{
				"type": "unocc",
				"energy": -0.05124,
				"method": "rhf"
			},
			{
				"type": "unocc",
				"energy": -0.0183,
				"method": "rhf"
			},
			{
				"type": "unocc",
				"energy": 0.03198,
				"method": "rhf"
			},
			{
				"type": "unocc",
				"energy": 0.07727,
				"method": "rhf"
			},
			{
				"type": "unocc",
				"energy": 0.08557,
				"method": "rhf"
			}
		],
		"cosmo_sigma_profile": { 
			"-0.025": 0.0,
			"-0.024": 0.0,
			"-0.023": 0.0,
			"-0.022": 0.0,
			"-0.021": 0.0,
			"-0.02": 0.0,
			"-0.019": 0.0,
			"-0.018": 0.0,
			"-0.017": 0.0,
			"-0.016": 0.0,
			"-0.015": 0.543493821556,
			"-0.014": 1.74043121753,
			"-0.013": 1.41613595875,
			"-0.012": 1.59131598654,
			"-0.011": 2.74357932425,
			"-0.01": 3.42252314345,
			"-0.009": 5.0551648123,
			"-0.008": 4.81820316761,
			"-0.007": 5.50310730934,
			"-0.006": 4.39589664146,
			"-0.005": 5.60834876519,
			"-0.004": 5.46253166772,
			"-0.003": 6.75771272003,
			"-0.002": 10.512855739,
			"-0.001": 14.3052468715,
			"0.0": 12.7946996048,
			"0.001": 12.5057453212,
			"0.002": 10.2983336445,
			"0.003": 11.6350253377,
			"0.004": 13.4311420346,
			"0.005": 7.84177952506,
			"0.006": 4.86960840943,
			"0.007": 2.66488533693,
			"0.008": 2.67772133408,
			"0.009": 2.87256798943,
			"0.01": 2.4880293117,
			"0.011": 1.94665436134,
			"0.012": 1.54433400439,
			"0.013": 1.12998843378,
			"0.014": 1.9385607209,
			"0.015": 0.91155967989,
			"0.016": 0.476724412252,
			"0.017": 0.137995052819,
			"0.018": 0.0,
			"0.019": 0.0,
			"0.02": 0.0,
			"0.021": 0.0,
			"0.022": 0.0,
			"0.023": 0.0,
			"0.024": 0.0,
			"0.025": 0.0
		}
	}
}
