{
	 "smiles": "C1COCCO1", 
	 "Tm": 285.05, 
	 "num_atms": 14, 
	 "gaussian": { 
		 "optdone": 1, 
		 "sigma_profile": "yes", 
		 "theory": "DFT", 
		 "functional": "B3LYP", 
		 "basiset": "6-31G**", 
		 "properties": { 
			 "R2extent": 666.2364, 
			 "electric_dipole_moment_norm": 0.0, 
			 "electric_quadrupole_moment_norm": 6.69836169373, 
			 "total_energy": -307.663400123, 
			 "HOMO_LUMO_gap": 0.33127, 
			 "cosmo_polarized_energy": -5.8, 
			 "cosmo_cavitation_energy": 15.81, 
			 "cosmo_dispersion_energy": -12.65, 
			 "cosmo_repulsion_energy": 1.1, 
			 "cosmo_total_nonelectrostatic_energy": 4.25, 
			 "SMD_solvation_energy": 2.77 
		},
		"coords": [
			{
				"x": 0.1298628336,
				"y": 0.72481523,
				"z": -0.5899669504,
				"element": "C" 
			},
			{
				"x": 1.5741633621,
				"y": 0.497300735,
				"z": -1.0245038277,
				"element": "C" 
			},
			{
				"x": 1.853270901,
				"y": -0.8956539403,
				"z": -1.1187999703,
				"element": "O" 
			},
			{
				"x": 1.5970224764,
				"y": -1.5464153342,
				"z": 0.1213527114,
				"element": "C" 
			},
			{
				"x": 0.1527221003,
				"y": -1.318901069,
				"z": 0.5558904971,
				"element": "C" 
			},
			{
				"x": -0.1263846964,
				"y": 0.0740541584,
				"z": 0.6501857207,
				"element": "O" 
			},
			{
				"x": -0.5523670408,
				"y": 0.3430403812,
				"z": -1.3676352979,
				"element": "H" 
			},
			{
				"x": -0.0733682969,
				"y": 1.7893641132,
				"z": -0.4361487209,
				"element": "H" 
			},
			{
				"x": 1.7607514001,
				"y": 0.9246898369,
				"z": -2.0148374797,
				"element": "H" 
			},
			{
				"x": 2.2553634798,
				"y": 0.9732043666,
				"z": -0.2996319086,
				"element": "H" 
			},
			{
				"x": 1.8002561768,
				"y": -2.6109639311,
				"z": -0.0324655574,
				"element": "H" 
			},
			{
				"x": 2.2792514033,
				"y": -1.1646408356,
				"z": 0.8990221663,
				"element": "H" 
			},
			{
				"x": -0.0338665059,
				"y": -1.7462897417,
				"z": 1.5462226263,
				"element": "H" 
			},
			{
				"x": -0.5284775934,
				"y": -1.7948039694,
				"z": -0.1689840085,
				"element": "H" 
			}
		],
		 "valence_orbital": [ 
			{
				"type": "occ",
				"energy": -0.36221,
				"method": "rhf"
			},
			{
				"type": "occ",
				"energy": -0.36053,
				"method": "rhf"
			},
			{
				"type": "occ",
				"energy": -0.29904,
				"method": "rhf"
			},
			{
				"type": "occ",
				"energy": -0.27965,
				"method": "rhf"
			},
			{
				"type": "occ",
				"energy": -0.23519,
				"method": "rhf"
			},
			{
				"type": "unocc",
				"energy": 0.09608,
				"method": "rhf"
			},
			{
				"type": "unocc",
				"energy": 0.11159,
				"method": "rhf"
			},
			{
				"type": "unocc",
				"energy": 0.11634,
				"method": "rhf"
			},
			{
				"type": "unocc",
				"energy": 0.12992,
				"method": "rhf"
			},
			{
				"type": "unocc",
				"energy": 0.14642,
				"method": "rhf"
			}
		],
		"cosmo_sigma_profile": { 
			"-0.025": 0.0,
			"-0.024": 0.0,
			"-0.023": 0.0,
			"-0.022": 0.0,
			"-0.021": 0.0,
			"-0.02": 0.0,
			"-0.019": 0.0,
			"-0.018": 0.0,
			"-0.017": 0.0,
			"-0.016": 0.0,
			"-0.015": 0.0,
			"-0.014": 0.0,
			"-0.013": 0.0,
			"-0.012": 0.0,
			"-0.011": 0.0,
			"-0.01": 0.0,
			"-0.009": 0.0,
			"-0.008": 0.0,
			"-0.007": 0.0,
			"-0.006": 3.04663814474,
			"-0.005": 12.2351772503,
			"-0.004": 20.1560844056,
			"-0.003": 22.3545127639,
			"-0.002": 13.866658742,
			"-0.001": 8.9394256701,
			"0.0": 4.80570191669,
			"0.001": 3.69100450617,
			"0.002": 3.40814210676,
			"0.003": 2.57009450269,
			"0.004": 3.65913037241,
			"0.005": 1.79244206509,
			"0.006": 2.80982881862,
			"0.007": 2.74528488377,
			"0.008": 3.01966633934,
			"0.009": 1.48281682163,
			"0.01": 1.44006070255,
			"0.011": 3.01140929291,
			"0.012": 2.8781986005,
			"0.013": 4.09410441323,
			"0.014": 0.812353508962,
			"0.015": 0.0,
			"0.016": 0.0,
			"0.017": 0.0,
			"0.018": 0.0,
			"0.019": 0.0,
			"0.02": 0.0,
			"0.021": 0.0,
			"0.022": 0.0,
			"0.023": 0.0,
			"0.024": 0.0,
			"0.025": 0.0
		}
	}
}
