{
	 "smiles": "CCCCCCCCCCCC=CCCCCC(O)=O", 
	 "Tm": 302.95, 
	 "num_atms": 54, 
	 "gaussian": { 
		 "optdone": 1, 
		 "sigma_profile": "yes", 
		 "theory": "DFT", 
		 "functional": "B3LYP", 
		 "basiset": "6-31G**", 
		 "properties": { 
			 "R2extent": 11858.1396, 
			 "electric_dipole_moment_norm": 1.51555822059, 
			 "electric_quadrupole_moment_norm": 8.09443869024, 
			 "total_energy": -856.896781099, 
			 "HOMO_LUMO_gap": 0.24335, 
			 "cosmo_polarized_energy": -9.15, 
			 "cosmo_cavitation_energy": 54.47, 
			 "cosmo_dispersion_energy": -35.02, 
			 "cosmo_repulsion_energy": 2.88, 
			 "cosmo_total_nonelectrostatic_energy": 22.34, 
			 "SMD_solvation_energy": 8.38 
		},
		"coords": [
			{
				"x": 3.6852452114,
				"y": 1.9633844439,
				"z": -2.6990390854,
				"element": "C" 
			},
			{
				"x": 4.9538985598,
				"y": 1.3395465393,
				"z": -2.1048424485,
				"element": "C" 
			},
			{
				"x": 4.701503746,
				"y": 0.1284213048,
				"z": -1.1914322198,
				"element": "C" 
			},
			{
				"x": 3.9449062229,
				"y": 0.4473582231,
				"z": 0.1056567835,
				"element": "C" 
			},
			{
				"x": 3.7721676191,
				"y": -0.7715872206,
				"z": 1.0216240266,
				"element": "C" 
			},
			{
				"x": 3.0375676273,
				"y": -0.4453193784,
				"z": 2.3312611218,
				"element": "C" 
			},
			{
				"x": 2.8581869465,
				"y": -1.6319469903,
				"z": 3.3044416204,
				"element": "C" 
			},
			{
				"x": 1.5609980628,
				"y": -2.4473376284,
				"z": 3.149616808,
				"element": "C" 
			},
			{
				"x": 1.403022865,
				"y": -3.2140881935,
				"z": 1.8283557674,
				"element": "C" 
			},
			{
				"x": 0.1999039807,
				"y": -4.1713953889,
				"z": 1.799732503,
				"element": "C" 
			},
			{
				"x": -1.1837916097,
				"y": -3.4874166415,
				"z": 1.8689846299,
				"element": "C" 
			},
			{
				"x": -1.4664202781,
				"y": -2.5862876346,
				"z": 0.6973585676,
				"element": "C" 
			},
			{
				"x": -1.7556550812,
				"y": -1.2835722972,
				"z": 0.7702146718,
				"element": "C" 
			},
			{
				"x": -2.0578710694,
				"y": -0.3945334614,
				"z": -0.4061142105,
				"element": "C" 
			},
			{
				"x": -3.4978634555,
				"y": 0.1560753499,
				"z": -0.3757742563,
				"element": "C" 
			},
			{
				"x": -3.800057547,
				"y": 1.2198999929,
				"z": -1.4433871692,
				"element": "C" 
			},
			{
				"x": -3.5721995419,
				"y": 0.7649678657,
				"z": -2.9032619427,
				"element": "C" 
			},
			{
				"x": -4.3554672476,
				"y": -0.4805424152,
				"z": -3.2487687283,
				"element": "C" 
			},
			{
				"x": -5.6867510738,
				"y": -0.2313485565,
				"z": -3.3422670773,
				"element": "O" 
			},
			{
				"x": -3.8933377222,
				"y": -1.5904021755,
				"z": -3.4052931851,
				"element": "O" 
			},
			{
				"x": 3.0261795682,
				"y": 2.3669357818,
				"z": -1.9235223365,
				"element": "H" 
			},
			{
				"x": 3.9315558884,
				"y": 2.7854186328,
				"z": -3.3794256103,
				"element": "H" 
			},
			{
				"x": 3.1114416332,
				"y": 1.222323555,
				"z": -3.2680632637,
				"element": "H" 
			},
			{
				"x": 5.6137674674,
				"y": 1.028602334,
				"z": -2.9250213147,
				"element": "H" 
			},
			{
				"x": 5.5087476768,
				"y": 2.1045399957,
				"z": -1.5440925708,
				"element": "H" 
			},
			{
				"x": 4.1494642889,
				"y": -0.6386714946,
				"z": -1.7537605832,
				"element": "H" 
			},
			{
				"x": 5.6681932954,
				"y": -0.3248090884,
				"z": -0.932214881,
				"element": "H" 
			},
			{
				"x": 2.954523754,
				"y": 0.8590951705,
				"z": -0.1299425981,
				"element": "H" 
			},
			{
				"x": 4.4807101259,
				"y": 1.2385845093,
				"z": 0.6506852651,
				"element": "H" 
			},
			{
				"x": 3.2419928254,
				"y": -1.5603026685,
				"z": 0.4742987103,
				"element": "H" 
			},
			{
				"x": 4.7618385308,
				"y": -1.1854513187,
				"z": 1.2633694158,
				"element": "H" 
			},
			{
				"x": 2.0538006885,
				"y": -0.0107776312,
				"z": 2.1022631823,
				"element": "H" 
			},
			{
				"x": 3.6002003951,
				"y": 0.3481344429,
				"z": 2.8414719545,
				"element": "H" 
			},
			{
				"x": 3.724755734,
				"y": -2.3036833403,
				"z": 3.2222687498,
				"element": "H" 
			},
			{
				"x": 2.8789123943,
				"y": -1.2461195063,
				"z": 4.331560452,
				"element": "H" 
			},
			{
				"x": 0.7071728127,
				"y": -1.7700479587,
				"z": 3.285878119,
				"element": "H" 
			},
			{
				"x": 1.5092835297,
				"y": -3.1677095655,
				"z": 3.9787959312,
				"element": "H" 
			},
			{
				"x": 2.3161210974,
				"y": -3.7961197874,
				"z": 1.6428618399,
				"element": "H" 
			},
			{
				"x": 1.3117537428,
				"y": -2.5065940033,
				"z": 0.9957734013,
				"element": "H" 
			},
			{
				"x": 0.2818435388,
				"y": -4.8831432986,
				"z": 2.6324509197,
				"element": "H" 
			},
			{
				"x": 0.2459378283,
				"y": -4.7712178073,
				"z": 0.8807893183,
				"element": "H" 
			},
			{
				"x": -1.9474741465,
				"y": -4.2779818415,
				"z": 1.9061901273,
				"element": "H" 
			},
			{
				"x": -1.2832038822,
				"y": -2.921837773,
				"z": 2.8031036485,
				"element": "H" 
			},
			{
				"x": -1.4235307903,
				"y": -3.056994435,
				"z": -0.2876698044,
				"element": "H" 
			},
			{
				"x": -1.8049469288,
				"y": -0.8102367926,
				"z": 1.7537104298,
				"element": "H" 
			},
			{
				"x": -1.8957336807,
				"y": -0.9524359654,
				"z": -1.3349386111,
				"element": "H" 
			},
			{
				"x": -1.3573155736,
				"y": 0.4550794146,
				"z": -0.4142427156,
				"element": "H" 
			},
			{
				"x": -4.1971142666,
				"y": -0.6840019065,
				"z": -0.4749859491,
				"element": "H" 
			},
			{
				"x": -3.6955553378,
				"y": 0.5970409123,
				"z": 0.6100203143,
				"element": "H" 
			},
			{
				"x": -4.8395196843,
				"y": 1.5498367953,
				"z": -1.3375188202,
				"element": "H" 
			},
			{
				"x": -3.171234171,
				"y": 2.1022187162,
				"z": -1.2696162788,
				"element": "H" 
			},
			{
				"x": -3.8770793632,
				"y": 1.5704109655,
				"z": -3.5799635142,
				"element": "H" 
			},
			{
				"x": -2.5189656789,
				"y": 0.5434625642,
				"z": -3.0862118183,
				"element": "H" 
			},
			{
				"x": -6.1066095273,
				"y": -1.0869233448,
				"z": -3.5338672855,
				"element": "H" 
			}
		],
		 "valence_orbital": [ 
			{
				"type": "occ",
				"energy": -0.30888,
				"method": "rhf"
			},
			{
				"type": "occ",
				"energy": -0.29589,
				"method": "rhf"
			},
			{
				"type": "occ",
				"energy": -0.29079,
				"method": "rhf"
			},
			{
				"type": "occ",
				"energy": -0.27067,
				"method": "rhf"
			},
			{
				"type": "occ",
				"energy": -0.235,
				"method": "rhf"
			},
			{
				"type": "unocc",
				"energy": 0.00835,
				"method": "rhf"
			},
			{
				"type": "unocc",
				"energy": 0.02952,
				"method": "rhf"
			},
			{
				"type": "unocc",
				"energy": 0.07375,
				"method": "rhf"
			},
			{
				"type": "unocc",
				"energy": 0.08788,
				"method": "rhf"
			},
			{
				"type": "unocc",
				"energy": 0.09383,
				"method": "rhf"
			}
		],
		"cosmo_sigma_profile": { 
			"-0.025": 0.0,
			"-0.024": 0.0,
			"-0.023": 0.0,
			"-0.022": 0.0,
			"-0.021": 0.0,
			"-0.02": 0.0,
			"-0.019": 0.0,
			"-0.018": 0.266632679569,
			"-0.017": 1.22664525241,
			"-0.016": 0.704771351265,
			"-0.015": 0.796517885789,
			"-0.014": 0.713192457834,
			"-0.013": 0.432321199472,
			"-0.012": 1.07982777175,
			"-0.011": 0.565967097887,
			"-0.01": 1.01373477555,
			"-0.009": 0.568601321347,
			"-0.008": 0.397249780127,
			"-0.007": 0.483792638996,
			"-0.006": 2.36585176072,
			"-0.005": 3.63871108117,
			"-0.004": 7.19186743938,
			"-0.003": 25.0694972968,
			"-0.002": 60.5241143123,
			"-0.001": 81.6850844514,
			"0.0": 82.6990835557,
			"0.001": 66.2431724464,
			"0.002": 32.7540608369,
			"0.003": 9.83136848017,
			"0.004": 7.71676012032,
			"0.005": 6.72464313611,
			"0.006": 3.75289629922,
			"0.007": 3.05736972479,
			"0.008": 3.18590251401,
			"0.009": 1.99868087487,
			"0.01": 3.0676734024,
			"0.011": 2.50482987657,
			"0.012": 4.82219552035,
			"0.013": 1.22145249541,
			"0.014": 0.0,
			"0.015": 0.0,
			"0.016": 0.0,
			"0.017": 0.0,
			"0.018": 0.0,
			"0.019": 0.0,
			"0.02": 0.0,
			"0.021": 0.0,
			"0.022": 0.0,
			"0.023": 0.0,
			"0.024": 0.0,
			"0.025": 0.0
		}
	}
}
