{
	 "smiles": "CC(C)(C)OC(=O)N1CCC(CC1)C#N", 
	 "Tm": 320.15, 
	 "num_atms": 33, 
	 "gaussian": { 
		 "optdone": 1, 
		 "sigma_profile": "yes", 
		 "theory": "DFT", 
		 "functional": "B3LYP", 
		 "basiset": "6-31G**", 
		 "properties": { 
			 "R2extent": 4650.6383, 
			 "electric_dipole_moment_norm": 2.90005112541, 
			 "electric_quadrupole_moment_norm": 21.3891881985, 
			 "total_energy": -689.990998984, 
			 "HOMO_LUMO_gap": 0.26562, 
			 "cosmo_polarized_energy": -14.31, 
			 "cosmo_cavitation_energy": 34.63, 
			 "cosmo_dispersion_energy": -23.8, 
			 "cosmo_repulsion_energy": 1.89, 
			 "cosmo_total_nonelectrostatic_energy": 12.71, 
			 "SMD_solvation_energy": 7.21 
		},
		"coords": [
			{
				"x": -2.0381944174,
				"y": 3.9516816663,
				"z": 0.6402218733,
				"element": "C" 
			},
			{
				"x": -1.8099869818,
				"y": 2.8275226686,
				"z": 1.6560363401,
				"element": "C" 
			},
			{
				"x": -1.3012150847,
				"y": 3.3914882177,
				"z": 2.9853178634,
				"element": "C" 
			},
			{
				"x": -3.0646214083,
				"y": 1.9749594218,
				"z": 1.8725095696,
				"element": "C" 
			},
			{
				"x": -0.6907067292,
				"y": 1.973881176,
				"z": 1.2235458644,
				"element": "O" 
			},
			{
				"x": -0.7485169552,
				"y": 1.2914418697,
				"z": 0.0540740911,
				"element": "C" 
			},
			{
				"x": -1.6929506666,
				"y": 1.2832316271,
				"z": -0.7243813318,
				"element": "O" 
			},
			{
				"x": 0.413964727,
				"y": 0.5941333752,
				"z": -0.1545771089,
				"element": "N" 
			},
			{
				"x": 0.4895813475,
				"y": -0.2923382106,
				"z": -1.3186771475,
				"element": "C" 
			},
			{
				"x": 1.2153220561,
				"y": -1.5864070189,
				"z": -0.9474325349,
				"element": "C" 
			},
			{
				"x": 2.6792087328,
				"y": -1.2993695859,
				"z": -0.4919292293,
				"element": "C" 
			},
			{
				"x": 2.8060885165,
				"y": 0.1311963721,
				"z": 0.1122979045,
				"element": "C" 
			},
			{
				"x": 1.5212651854,
				"y": 0.5805406303,
				"z": 0.8093940896,
				"element": "C" 
			},
			{
				"x": 3.1331475641,
				"y": -2.3248765654,
				"z": 0.4563324322,
				"element": "C" 
			},
			{
				"x": 3.4807175311,
				"y": -3.1306486195,
				"z": 1.2169755372,
				"element": "N" 
			},
			{
				"x": -1.111579074,
				"y": 4.5120781137,
				"z": 0.4792234623,
				"element": "H" 
			},
			{
				"x": -2.3812320705,
				"y": 3.5521649493,
				"z": -0.3142234473,
				"element": "H" 
			},
			{
				"x": -2.791588761,
				"y": 4.6465070853,
				"z": 1.0254111276,
				"element": "H" 
			},
			{
				"x": -1.0916595546,
				"y": 2.5840172312,
				"z": 3.6929110596,
				"element": "H" 
			},
			{
				"x": -2.0544029161,
				"y": 4.0512779944,
				"z": 3.4259984949,
				"element": "H" 
			},
			{
				"x": -0.3827203787,
				"y": 3.9668620966,
				"z": 2.8359364856,
				"element": "H" 
			},
			{
				"x": -3.4154441166,
				"y": 1.5518638869,
				"z": 0.9311772523,
				"element": "H" 
			},
			{
				"x": -2.8535087262,
				"y": 1.160093774,
				"z": 2.5723436982,
				"element": "H" 
			},
			{
				"x": -3.8592603946,
				"y": 2.5936486497,
				"z": 2.3021318646,
				"element": "H" 
			},
			{
				"x": 0.999373936,
				"y": 0.2058426164,
				"z": -2.1568796712,
				"element": "H" 
			},
			{
				"x": -0.5313818253,
				"y": -0.4959269926,
				"z": -1.643958857,
				"element": "H" 
			},
			{
				"x": 1.2173521526,
				"y": -2.2761954602,
				"z": -1.7962698366,
				"element": "H" 
			},
			{
				"x": 0.6675391258,
				"y": -2.0770848416,
				"z": -0.1368151134,
				"element": "H" 
			},
			{
				"x": 3.3437206078,
				"y": -1.3611944466,
				"z": -1.362027539,
				"element": "H" 
			},
			{
				"x": 3.0328933127,
				"y": 0.8301765164,
				"z": -0.6993711094,
				"element": "H" 
			},
			{
				"x": 3.6417574655,
				"y": 0.1749540204,
				"z": 0.8156828072,
				"element": "H" 
			},
			{
				"x": 1.2985053286,
				"y": -0.08362294,
				"z": 1.6574407967,
				"element": "H" 
			},
			{
				"x": 1.6482324714,
				"y": 1.5845007224,
				"z": 1.2176803117,
				"element": "H" 
			}
		],
		 "valence_orbital": [ 
			{
				"type": "occ",
				"energy": -0.32027,
				"method": "rhf"
			},
			{
				"type": "occ",
				"energy": -0.31995,
				"method": "rhf"
			},
			{
				"type": "occ",
				"energy": -0.28909,
				"method": "rhf"
			},
			{
				"type": "occ",
				"energy": -0.26284,
				"method": "rhf"
			},
			{
				"type": "occ",
				"energy": -0.24073,
				"method": "rhf"
			},
			{
				"type": "unocc",
				"energy": 0.02489,
				"method": "rhf"
			},
			{
				"type": "unocc",
				"energy": 0.03573,
				"method": "rhf"
			},
			{
				"type": "unocc",
				"energy": 0.05074,
				"method": "rhf"
			},
			{
				"type": "unocc",
				"energy": 0.07124,
				"method": "rhf"
			},
			{
				"type": "unocc",
				"energy": 0.08724,
				"method": "rhf"
			}
		],
		"cosmo_sigma_profile": { 
			"-0.025": 0.0,
			"-0.024": 0.0,
			"-0.023": 0.0,
			"-0.022": 0.0,
			"-0.021": 0.0,
			"-0.02": 0.0,
			"-0.019": 0.0,
			"-0.018": 0.0,
			"-0.017": 0.0,
			"-0.016": 0.0,
			"-0.015": 0.0,
			"-0.014": 0.0,
			"-0.013": 0.0,
			"-0.012": 0.0,
			"-0.011": 0.0,
			"-0.01": 0.0,
			"-0.009": 0.0,
			"-0.008": 2.20901299615,
			"-0.007": 5.27751825417,
			"-0.006": 8.99705673053,
			"-0.005": 19.9352845708,
			"-0.004": 33.0295592329,
			"-0.003": 32.2781445665,
			"-0.002": 26.1614638842,
			"-0.001": 22.075195994,
			"0.0": 27.5433158759,
			"0.001": 23.3509286915,
			"0.002": 10.7169004041,
			"0.003": 5.23341333589,
			"0.004": 6.15881909474,
			"0.005": 6.04181645392,
			"0.006": 5.90346553917,
			"0.007": 4.64269397692,
			"0.008": 4.65961895799,
			"0.009": 4.71650903474,
			"0.01": 5.13590659331,
			"0.011": 4.86453863313,
			"0.012": 3.94927814615,
			"0.013": 4.9695876379,
			"0.014": 2.40546758945,
			"0.015": 0.0,
			"0.016": 0.0,
			"0.017": 0.0,
			"0.018": 0.0,
			"0.019": 0.0,
			"0.02": 0.0,
			"0.021": 0.0,
			"0.022": 0.0,
			"0.023": 0.0,
			"0.024": 0.0,
			"0.025": 0.0
		}
	}
}
