{
	 "smiles": "NC(CC#N)=C(C#N)C#N", 
	 "Tm": 445.15, 
	 "num_atms": 14, 
	 "gaussian": { 
		 "optdone": 1, 
		 "sigma_profile": "yes", 
		 "theory": "DFT", 
		 "functional": "B3LYP", 
		 "basiset": "6-31G**", 
		 "properties": { 
			 "R2extent": 1969.4572, 
			 "electric_dipole_moment_norm": 3.64894229195, 
			 "electric_quadrupole_moment_norm": 21.0680292721, 
			 "total_energy": -449.98807172, 
			 "HOMO_LUMO_gap": 0.1874, 
			 "cosmo_polarized_energy": -22.8, 
			 "cosmo_cavitation_energy": 21.93, 
			 "cosmo_dispersion_energy": -14.28, 
			 "cosmo_repulsion_energy": 1.18, 
			 "cosmo_total_nonelectrostatic_energy": 8.83, 
			 "SMD_solvation_energy": 7.82 
		},
		"coords": [
			{
				"x": 0.3292202245,
				"y": 0.587591716,
				"z": -1.6051501659,
				"element": "N" 
			},
			{
				"x": -0.6399232023,
				"y": 0.5380098494,
				"z": -0.679753309,
				"element": "C" 
			},
			{
				"x": -0.2876146825,
				"y": 0.9314499492,
				"z": 0.7496168767,
				"element": "C" 
			},
			{
				"x": 1.1109394095,
				"y": 1.323118462,
				"z": 0.915686099,
				"element": "C" 
			},
			{
				"x": 2.2287046788,
				"y": 1.6246214448,
				"z": 0.9944604482,
				"element": "N" 
			},
			{
				"x": -1.936939679,
				"y": 0.1464246042,
				"z": -0.9698933854,
				"element": "C" 
			},
			{
				"x": -2.2660322803,
				"y": -0.2212758809,
				"z": -2.3056593556,
				"element": "C" 
			},
			{
				"x": -2.4430135575,
				"y": -0.5036864337,
				"z": -3.4225631476,
				"element": "N" 
			},
			{
				"x": -2.9265907323,
				"y": 0.1118656895,
				"z": 0.051111994,
				"element": "C" 
			},
			{
				"x": -3.7042631673,
				"y": 0.0986743036,
				"z": 0.9189146694,
				"element": "N" 
			},
			{
				"x": 1.2659041718,
				"y": 0.877503375,
				"z": -1.364530769,
				"element": "H" 
			},
			{
				"x": 0.1288080934,
				"y": 0.3332515365,
				"z": -2.5629102369,
				"element": "H" 
			},
			{
				"x": -0.5121424343,
				"y": 0.0942911278,
				"z": 1.4207159263,
				"element": "H" 
			},
			{
				"x": -0.9356568423,
				"y": 1.7563602566,
				"z": 1.0676543561,
				"element": "H" 
			}
		],
		 "valence_orbital": [ 
			{
				"type": "occ",
				"energy": -0.36989,
				"method": "rhf"
			},
			{
				"type": "occ",
				"energy": -0.35819,
				"method": "rhf"
			},
			{
				"type": "occ",
				"energy": -0.35416,
				"method": "rhf"
			},
			{
				"type": "occ",
				"energy": -0.34646,
				"method": "rhf"
			},
			{
				"type": "occ",
				"energy": -0.25704,
				"method": "rhf"
			},
			{
				"type": "unocc",
				"energy": -0.06964,
				"method": "rhf"
			},
			{
				"type": "unocc",
				"energy": -0.02414,
				"method": "rhf"
			},
			{
				"type": "unocc",
				"energy": -0.00374,
				"method": "rhf"
			},
			{
				"type": "unocc",
				"energy": -0.0005,
				"method": "rhf"
			},
			{
				"type": "unocc",
				"energy": 0.03019,
				"method": "rhf"
			}
		],
		"cosmo_sigma_profile": { 
			"-0.025": 0.0,
			"-0.024": 0.0,
			"-0.023": 0.0,
			"-0.022": 0.0,
			"-0.021": 0.0,
			"-0.02": 0.0,
			"-0.019": 0.0,
			"-0.018": 0.0,
			"-0.017": 0.159127098168,
			"-0.016": 1.23626645823,
			"-0.015": 1.81897278302,
			"-0.014": 2.99977658049,
			"-0.013": 1.27357997682,
			"-0.012": 4.16151249684,
			"-0.011": 7.53900867287,
			"-0.01": 6.84452820463,
			"-0.009": 7.36672648551,
			"-0.008": 7.8435033447,
			"-0.007": 4.76307284429,
			"-0.006": 5.52937225837,
			"-0.005": 5.38077187842,
			"-0.004": 5.39864777082,
			"-0.003": 9.6372193708,
			"-0.002": 9.49532712792,
			"-0.001": 8.56267445895,
			"0.0": 5.3295297341,
			"0.001": 5.82538587874,
			"0.002": 4.56763613037,
			"0.003": 5.45147143913,
			"0.004": 4.77168228764,
			"0.005": 6.35371914313,
			"0.006": 6.9231350095,
			"0.007": 7.41981296955,
			"0.008": 7.85423522645,
			"0.009": 9.23360051443,
			"0.01": 8.06058820833,
			"0.011": 8.26948384641,
			"0.012": 6.11533331706,
			"0.013": 2.72102886124,
			"0.014": 0.0867408060598,
			"0.015": 0.0,
			"0.016": 0.0,
			"0.017": 0.0,
			"0.018": 0.0,
			"0.019": 0.0,
			"0.02": 0.0,
			"0.021": 0.0,
			"0.022": 0.0,
			"0.023": 0.0,
			"0.024": 0.0,
			"0.025": 0.0
		}
	}
}
