{
	 "smiles": "OC(=O)C(CC1=C(Br)C=CC=C1)CC1=C(Br)C=CC=C1", 
	 "Tm": 419.15, 
	 "num_atms": 34, 
	 "gaussian": { 
		 "optdone": 1, 
		 "sigma_profile": "yes", 
		 "theory": "DFT", 
		 "functional": "B3LYP", 
		 "basiset": "6-31G**", 
		 "properties": { 
			 "R2extent": 8320.4539, 
			 "electric_dipole_moment_norm": 1.51893939971, 
			 "electric_quadrupole_moment_norm": 14.8279371596, 
			 "total_energy": -5911.41815947, 
			 "HOMO_LUMO_gap": 0.21967, 
			 "cosmo_polarized_energy": -12.63, 
			 "cosmo_cavitation_energy": 41.36, 
			 "cosmo_dispersion_energy": -28.41, 
			 "cosmo_repulsion_energy": 2.19, 
			 "cosmo_total_nonelectrostatic_energy": 15.14, 
			 "SMD_solvation_energy": 5.58 
		},
		"coords": [
			{
				"x": -0.0443022273,
				"y": -2.7925346851,
				"z": 2.7101143867,
				"element": "O" 
			},
			{
				"x": 0.5825735082,
				"y": -1.5932209813,
				"z": 2.6768375522,
				"element": "C" 
			},
			{
				"x": 1.0513855236,
				"y": -1.0821087704,
				"z": 3.6724429987,
				"element": "O" 
			},
			{
				"x": 0.653039309,
				"y": -1.0362326434,
				"z": 1.2601158609,
				"element": "C" 
			},
			{
				"x": -0.7001650089,
				"y": -1.0856059791,
				"z": 0.5135806347,
				"element": "C" 
			},
			{
				"x": -1.8858657888,
				"y": -0.3348800631,
				"z": 1.0935393294,
				"element": "C" 
			},
			{
				"x": -3.1072677532,
				"y": -0.3020355242,
				"z": 0.3979778484,
				"element": "C" 
			},
			{
				"x": -3.28397277,
				"y": -1.1950591196,
				"z": -1.2943318574,
				"element": "Br" 
			},
			{
				"x": -4.2329637919,
				"y": 0.3570100832,
				"z": 0.8858191605,
				"element": "C" 
			},
			{
				"x": -4.1656857855,
				"y": 1.0154492576,
				"z": 2.1132240124,
				"element": "C" 
			},
			{
				"x": -2.9734674362,
				"y": 1.0009411006,
				"z": 2.8328057495,
				"element": "C" 
			},
			{
				"x": -1.8562478763,
				"y": 0.3352052444,
				"z": 2.3263542869,
				"element": "C" 
			},
			{
				"x": 1.3780070833,
				"y": 0.3318467055,
				"z": 1.2235993677,
				"element": "C" 
			},
			{
				"x": 2.0300960466,
				"y": 0.6155083948,
				"z": -0.1141209401,
				"element": "C" 
			},
			{
				"x": 1.5461068928,
				"y": 1.5302934573,
				"z": -1.0604796026,
				"element": "C" 
			},
			{
				"x": -0.0438335859,
				"y": 2.5550423411,
				"z": -0.7302128854,
				"element": "Br" 
			},
			{
				"x": 2.192654442,
				"y": 1.7491219936,
				"z": -2.2793067771,
				"element": "C" 
			},
			{
				"x": 3.3551508516,
				"y": 1.0449700147,
				"z": -2.5820970803,
				"element": "C" 
			},
			{
				"x": 3.8680309547,
				"y": 0.1299413455,
				"z": -1.6611419014,
				"element": "C" 
			},
			{
				"x": 3.2105343251,
				"y": -0.0706992194,
				"z": -0.4510306478,
				"element": "C" 
			},
			{
				"x": -0.0319459956,
				"y": -3.0791401757,
				"z": 3.638854,
				"element": "H" 
			},
			{
				"x": 1.2890342443,
				"y": -1.7588080696,
				"z": 0.7286719708,
				"element": "H" 
			},
			{
				"x": -0.9877420643,
				"y": -2.1361990964,
				"z": 0.3994552497,
				"element": "H" 
			},
			{
				"x": -0.5241048408,
				"y": -0.7199338949,
				"z": -0.5042308851,
				"element": "H" 
			},
			{
				"x": -5.1499958942,
				"y": 0.3510993886,
				"z": 0.3077446178,
				"element": "H" 
			},
			{
				"x": -5.0405008949,
				"y": 1.5315234418,
				"z": 2.4970485179,
				"element": "H" 
			},
			{
				"x": -2.9044784767,
				"y": 1.5075684793,
				"z": 3.7907023323,
				"element": "H" 
			},
			{
				"x": -0.9447267879,
				"y": 0.3435700364,
				"z": 2.9122696216,
				"element": "H" 
			},
			{
				"x": 2.1492353623,
				"y": 0.322354723,
				"z": 1.9991172445,
				"element": "H" 
			},
			{
				"x": 0.6839957532,
				"y": 1.1325185817,
				"z": 1.4826602912,
				"element": "H" 
			},
			{
				"x": 1.782672334,
				"y": 2.46759833,
				"z": -2.9797608686,
				"element": "H" 
			},
			{
				"x": 3.8564507882,
				"y": 1.2166533058,
				"z": -3.5298360437,
				"element": "H" 
			},
			{
				"x": 4.7787382959,
				"y": -0.4188612081,
				"z": -1.881148459,
				"element": "H" 
			},
			{
				"x": 3.6206612636,
				"y": -0.7740967947,
				"z": 0.2700629144,
				"element": "H" 
			}
		],
		 "valence_orbital": [ 
			{
				"type": "occ",
				"energy": -0.27838,
				"method": "rhf"
			},
			{
				"type": "occ",
				"energy": -0.25659,
				"method": "rhf"
			},
			{
				"type": "occ",
				"energy": -0.25218,
				"method": "rhf"
			},
			{
				"type": "occ",
				"energy": -0.24191,
				"method": "rhf"
			},
			{
				"type": "occ",
				"energy": -0.23736,
				"method": "rhf"
			},
			{
				"type": "unocc",
				"energy": -0.01769,
				"method": "rhf"
			},
			{
				"type": "unocc",
				"energy": -0.01508,
				"method": "rhf"
			},
			{
				"type": "unocc",
				"energy": -0.01209,
				"method": "rhf"
			},
			{
				"type": "unocc",
				"energy": -0.00728,
				"method": "rhf"
			},
			{
				"type": "unocc",
				"energy": 0.00442,
				"method": "rhf"
			}
		],
		"cosmo_sigma_profile": { 
			"-0.025": 0.0,
			"-0.024": 0.0,
			"-0.023": 0.0,
			"-0.022": 0.0,
			"-0.021": 0.0,
			"-0.02": 0.0,
			"-0.019": 0.0937201787162,
			"-0.018": 0.822693136275,
			"-0.017": 0.979610053735,
			"-0.016": 0.943307016679,
			"-0.015": 0.364730232191,
			"-0.014": 0.850000598687,
			"-0.013": 0.622924946048,
			"-0.012": 1.0262068273,
			"-0.011": 0.613103201289,
			"-0.01": 0.694822003915,
			"-0.009": 0.512417760157,
			"-0.008": 0.864847462013,
			"-0.007": 7.47517235688,
			"-0.006": 19.1589828141,
			"-0.005": 19.379575169,
			"-0.004": 24.0041352233,
			"-0.003": 22.7601702722,
			"-0.002": 21.1120663651,
			"-0.001": 23.4114380522,
			"0.0": 23.0978204792,
			"0.001": 24.0032998233,
			"0.002": 31.0246886745,
			"0.003": 37.7641632771,
			"0.004": 38.8065053995,
			"0.005": 17.170894448,
			"0.006": 2.52044703016,
			"0.007": 3.23156053414,
			"0.008": 2.18708020712,
			"0.009": 1.93082379742,
			"0.01": 1.8201476298,
			"0.011": 3.96919391084,
			"0.012": 2.55601205597,
			"0.013": 0.0,
			"0.014": 0.0,
			"0.015": 0.0,
			"0.016": 0.0,
			"0.017": 0.0,
			"0.018": 0.0,
			"0.019": 0.0,
			"0.02": 0.0,
			"0.021": 0.0,
			"0.022": 0.0,
			"0.023": 0.0,
			"0.024": 0.0,
			"0.025": 0.0
		}
	}
}
