{
	 "smiles": "CCCCC(C)C(C)O", 
	 "Tm": 159.15, 
	 "num_atms": 27, 
	 "gaussian": { 
		 "optdone": 1, 
		 "sigma_profile": "yes", 
		 "theory": "DFT", 
		 "functional": "B3LYP", 
		 "basiset": "6-31G**", 
		 "properties": { 
			 "R2extent": 2251.6874, 
			 "electric_dipole_moment_norm": 1.47481859901, 
			 "electric_quadrupole_moment_norm": 5.67097431311, 
			 "total_energy": -390.9399636, 
			 "HOMO_LUMO_gap": 0.33606, 
			 "cosmo_polarized_energy": -5.49, 
			 "cosmo_cavitation_energy": 27.27, 
			 "cosmo_dispersion_energy": -19.46, 
			 "cosmo_repulsion_energy": 1.63, 
			 "cosmo_total_nonelectrostatic_energy": 9.44, 
			 "SMD_solvation_energy": 4.57 
		},
		"coords": [
			{
				"x": 2.9761511647,
				"y": -1.9730359275,
				"z": -2.8142043483,
				"element": "C" 
			},
			{
				"x": 1.4446633541,
				"y": -2.0154638277,
				"z": -2.8802920653,
				"element": "C" 
			},
			{
				"x": 0.7431986408,
				"y": -0.7988159569,
				"z": -2.2514510856,
				"element": "C" 
			},
			{
				"x": 0.9415279305,
				"y": -0.6731666463,
				"z": -0.7338452316,
				"element": "C" 
			},
			{
				"x": 0.2197006541,
				"y": 0.5316599379,
				"z": -0.0903893181,
				"element": "C" 
			},
			{
				"x": -1.3043933872,
				"y": 0.3359834247,
				"z": -0.0629392351,
				"element": "C" 
			},
			{
				"x": 0.7824205472,
				"y": 0.8051983803,
				"z": 1.318562243,
				"element": "C" 
			},
			{
				"x": 0.1194280084,
				"y": 1.9793452159,
				"z": 2.0439296526,
				"element": "C" 
			},
			{
				"x": 2.1805021621,
				"y": 1.0656327595,
				"z": 1.1524213684,
				"element": "O" 
			},
			{
				"x": 3.4161395853,
				"y": -2.8376602246,
				"z": -3.3224956912,
				"element": "H" 
			},
			{
				"x": 3.3657832266,
				"y": -1.0696282894,
				"z": -3.2979770885,
				"element": "H" 
			},
			{
				"x": 3.3416326298,
				"y": -1.9774755696,
				"z": -1.7825627975,
				"element": "H" 
			},
			{
				"x": 1.0831132706,
				"y": -2.9314664031,
				"z": -2.3925032356,
				"element": "H" 
			},
			{
				"x": 1.1369794852,
				"y": -2.0921178849,
				"z": -3.9312593944,
				"element": "H" 
			},
			{
				"x": -0.3270329515,
				"y": -0.860845206,
				"z": -2.4861736398,
				"element": "H" 
			},
			{
				"x": 1.1085758407,
				"y": 0.1173178747,
				"z": -2.7379247532,
				"element": "H" 
			},
			{
				"x": 0.5954805717,
				"y": -1.597209862,
				"z": -0.2450053046,
				"element": "H" 
			},
			{
				"x": 2.0079703313,
				"y": -0.5822086206,
				"z": -0.51188669,
				"element": "H" 
			},
			{
				"x": 0.4498303015,
				"y": 1.4254045906,
				"z": -0.6897485239,
				"element": "H" 
			},
			{
				"x": -1.5833081935,
				"y": -0.4762521298,
				"z": 0.6203020471,
				"element": "H" 
			},
			{
				"x": -1.6851177004,
				"y": 0.0739282946,
				"z": -1.0539181343,
				"element": "H" 
			},
			{
				"x": -1.8326144534,
				"y": 1.2389407647,
				"z": 0.2559463238,
				"element": "H" 
			},
			{
				"x": 0.6422680201,
				"y": -0.1092092472,
				"z": 1.923399611,
				"element": "H" 
			},
			{
				"x": 0.6263183659,
				"y": 2.170041499,
				"z": 2.9977148888,
				"element": "H" 
			},
			{
				"x": -0.9325141605,
				"y": 1.7843678426,
				"z": 2.2703523102,
				"element": "H" 
			},
			{
				"x": 0.1867025777,
				"y": 2.8903699181,
				"z": 1.439786434,
				"element": "H" 
			},
			{
				"x": 2.5655941783,
				"y": 1.1834652929,
				"z": 2.0297616578,
				"element": "H" 
			}
		],
		 "valence_orbital": [ 
			{
				"type": "occ",
				"energy": -0.31838,
				"method": "rhf"
			},
			{
				"type": "occ",
				"energy": -0.31006,
				"method": "rhf"
			},
			{
				"type": "occ",
				"energy": -0.30488,
				"method": "rhf"
			},
			{
				"type": "occ",
				"energy": -0.29242,
				"method": "rhf"
			},
			{
				"type": "occ",
				"energy": -0.26044,
				"method": "rhf"
			},
			{
				"type": "unocc",
				"energy": 0.07562,
				"method": "rhf"
			},
			{
				"type": "unocc",
				"energy": 0.09574,
				"method": "rhf"
			},
			{
				"type": "unocc",
				"energy": 0.10894,
				"method": "rhf"
			},
			{
				"type": "unocc",
				"energy": 0.11881,
				"method": "rhf"
			},
			{
				"type": "unocc",
				"energy": 0.1352,
				"method": "rhf"
			}
		],
		"cosmo_sigma_profile": { 
			"-0.025": 0.0,
			"-0.024": 0.0,
			"-0.023": 0.0,
			"-0.022": 0.0,
			"-0.021": 0.0,
			"-0.02": 0.0,
			"-0.019": 0.0,
			"-0.018": 0.0,
			"-0.017": 0.0,
			"-0.016": 0.0,
			"-0.015": 0.506910796971,
			"-0.014": 0.697882140006,
			"-0.013": 1.43091097463,
			"-0.012": 0.717522334471,
			"-0.011": 0.748042004572,
			"-0.01": 0.848421928584,
			"-0.009": 1.15997680465,
			"-0.008": 0.763350064284,
			"-0.007": 0.89074900047,
			"-0.006": 1.54737837999,
			"-0.005": 1.21178293535,
			"-0.004": 2.18683846712,
			"-0.003": 10.5445414503,
			"-0.002": 27.9700180377,
			"-0.001": 40.0014753788,
			"0.0": 39.0369590968,
			"0.001": 40.1587578789,
			"0.002": 18.3437644836,
			"0.003": 2.8535119856,
			"0.004": 1.50790066582,
			"0.005": 2.52862123068,
			"0.006": 1.14856632761,
			"0.007": 1.58208620172,
			"0.008": 1.30089027779,
			"0.009": 1.66375781068,
			"0.01": 1.92150977481,
			"0.011": 1.37929510528,
			"0.012": 0.798360279507,
			"0.013": 1.18761948876,
			"0.014": 1.2502455585,
			"0.015": 0.694147935181,
			"0.016": 0.0,
			"0.017": 0.0,
			"0.018": 0.0,
			"0.019": 0.0,
			"0.02": 0.0,
			"0.021": 0.0,
			"0.022": 0.0,
			"0.023": 0.0,
			"0.024": 0.0,
			"0.025": 0.0
		}
	}
}
