{
	 "smiles": "CC1=NC(=C(C)S1)C1=CC=CC=C1", 
	 "Tm": 301.15, 
	 "num_atms": 24, 
	 "gaussian": { 
		 "optdone": 1, 
		 "sigma_profile": "yes", 
		 "theory": "DFT", 
		 "functional": "B3LYP", 
		 "basiset": "6-31G**", 
		 "properties": { 
			 "R2extent": 3224.2575, 
			 "electric_dipole_moment_norm": 1.08630726316, 
			 "electric_quadrupole_moment_norm": 7.24725775104, 
			 "total_energy": -878.749878304, 
			 "HOMO_LUMO_gap": 0.184, 
			 "cosmo_polarized_energy": -6.97, 
			 "cosmo_cavitation_energy": 28.86, 
			 "cosmo_dispersion_energy": -21.65, 
			 "cosmo_repulsion_energy": 1.67, 
			 "cosmo_total_nonelectrostatic_energy": 8.88, 
			 "SMD_solvation_energy": 3.35 
		},
		"coords": [
			{
				"x": 2.1549245507,
				"y": 0.3268574483,
				"z": 3.2947528866,
				"element": "C" 
			},
			{
				"x": 1.6151298071,
				"y": 0.6610593224,
				"z": 1.9375793461,
				"element": "C" 
			},
			{
				"x": 0.4757978149,
				"y": 0.24548297,
				"z": 1.4786782346,
				"element": "N" 
			},
			{
				"x": 0.2102989938,
				"y": 0.7220906652,
				"z": 0.2011566716,
				"element": "C" 
			},
			{
				"x": 1.1976662304,
				"y": 1.5125124602,
				"z": -0.3471334547,
				"element": "C" 
			},
			{
				"x": 1.3086960634,
				"y": 2.1324531737,
				"z": -1.709475039,
				"element": "C" 
			},
			{
				"x": 2.4961470999,
				"y": 1.6884116636,
				"z": 0.8100055366,
				"element": "S" 
			},
			{
				"x": -1.0598482214,
				"y": 0.3105121483,
				"z": -0.4352727596,
				"element": "C" 
			},
			{
				"x": -1.756556035,
				"y": 1.1373877754,
				"z": -1.3326021251,
				"element": "C" 
			},
			{
				"x": -2.9487146769,
				"y": 0.7098972615,
				"z": -1.9185035202,
				"element": "C" 
			},
			{
				"x": -3.4732073162,
				"y": -0.5459233346,
				"z": -1.6116598033,
				"element": "C" 
			},
			{
				"x": -2.8011358711,
				"y": -1.3680490496,
				"z": -0.7031749744,
				"element": "C" 
			},
			{
				"x": -1.6107664821,
				"y": -0.9441958018,
				"z": -0.1181840053,
				"element": "C" 
			},
			{
				"x": 1.4553509921,
				"y": -0.351537023,
				"z": 3.7867042068,
				"element": "H" 
			},
			{
				"x": 3.1344933599,
				"y": -0.158826958,
				"z": 3.2315323498,
				"element": "H" 
			},
			{
				"x": 2.2682815184,
				"y": 1.223205493,
				"z": 3.9142103714,
				"element": "H" 
			},
			{
				"x": 0.7044269404,
				"y": 1.5755013558,
				"z": -2.4298253855,
				"element": "H" 
			},
			{
				"x": 2.3443910166,
				"y": 2.1276491891,
				"z": -2.0626817674,
				"element": "H" 
			},
			{
				"x": 0.9659738129,
				"y": 3.1747315079,
				"z": -1.7198736751,
				"element": "H" 
			},
			{
				"x": -1.3860428897,
				"y": 2.1334552661,
				"z": -1.5492532338,
				"element": "H" 
			},
			{
				"x": -3.4743337898,
				"y": 1.3671544265,
				"z": -2.6056517889,
				"element": "H" 
			},
			{
				"x": -4.4021097009,
				"y": -0.8771953508,
				"z": -2.0669794591,
				"element": "H" 
			},
			{
				"x": -3.2071158631,
				"y": -2.343289045,
				"z": -0.4489816716,
				"element": "H" 
			},
			{
				"x": -1.0917473541,
				"y": -1.5744455641,
				"z": 0.5957330595,
				"element": "H" 
			}
		],
		 "valence_orbital": [ 
			{
				"type": "occ",
				"energy": -0.27871,
				"method": "rhf"
			},
			{
				"type": "occ",
				"energy": -0.26538,
				"method": "rhf"
			},
			{
				"type": "occ",
				"energy": -0.25901,
				"method": "rhf"
			},
			{
				"type": "occ",
				"energy": -0.24546,
				"method": "rhf"
			},
			{
				"type": "occ",
				"energy": -0.21199,
				"method": "rhf"
			},
			{
				"type": "unocc",
				"energy": -0.02799,
				"method": "rhf"
			},
			{
				"type": "unocc",
				"energy": -0.00042,
				"method": "rhf"
			},
			{
				"type": "unocc",
				"energy": 0.00386,
				"method": "rhf"
			},
			{
				"type": "unocc",
				"energy": 0.01936,
				"method": "rhf"
			},
			{
				"type": "unocc",
				"energy": 0.07546,
				"method": "rhf"
			}
		],
		"cosmo_sigma_profile": { 
			"-0.025": 0.0,
			"-0.024": 0.0,
			"-0.023": 0.0,
			"-0.022": 0.0,
			"-0.021": 0.0,
			"-0.02": 0.0,
			"-0.019": 0.0,
			"-0.018": 0.0,
			"-0.017": 0.0,
			"-0.016": 0.0,
			"-0.015": 0.0,
			"-0.014": 0.0,
			"-0.013": 0.0,
			"-0.012": 0.0,
			"-0.011": 0.0,
			"-0.01": 0.0,
			"-0.009": 0.0,
			"-0.008": 0.0,
			"-0.007": 0.0,
			"-0.006": 5.47045427707,
			"-0.005": 20.2068620189,
			"-0.004": 25.6012460149,
			"-0.003": 24.5211717834,
			"-0.002": 22.0891343905,
			"-0.001": 22.6718588516,
			"0.0": 13.5626891542,
			"0.001": 13.6360915345,
			"0.002": 20.454262699,
			"0.003": 18.5591211527,
			"0.004": 15.5060855836,
			"0.005": 12.0267395508,
			"0.006": 9.20268392359,
			"0.007": 1.71096464968,
			"0.008": 1.51738630973,
			"0.009": 2.00037545524,
			"0.01": 0.727549010751,
			"0.011": 0.830097534221,
			"0.012": 0.74596289226,
			"0.013": 0.794460065088,
			"0.014": 0.678361934393,
			"0.015": 0.0,
			"0.016": 0.0,
			"0.017": 0.0,
			"0.018": 0.0,
			"0.019": 0.0,
			"0.02": 0.0,
			"0.021": 0.0,
			"0.022": 0.0,
			"0.023": 0.0,
			"0.024": 0.0,
			"0.025": 0.0
		}
	}
}
