{
	 "smiles": "C1CC2=CC=CC3=C2C1=CC=C3", 
	 "Tm": 367.35, 
	 "num_atms": 22, 
	 "gaussian": { 
		 "optdone": 1, 
		 "sigma_profile": "yes", 
		 "theory": "DFT", 
		 "functional": "B3LYP", 
		 "basiset": "6-31G**", 
		 "properties": { 
			 "R2extent": 1779.9244, 
			 "electric_dipole_moment_norm": 0.847218802907, 
			 "electric_quadrupole_moment_norm": 6.8700247394, 
			 "total_energy": -463.320197064, 
			 "HOMO_LUMO_gap": 0.17282, 
			 "cosmo_polarized_energy": -4.3, 
			 "cosmo_cavitation_energy": 24.29, 
			 "cosmo_dispersion_energy": -18.55, 
			 "cosmo_repulsion_energy": 1.45, 
			 "cosmo_total_nonelectrostatic_energy": 7.19, 
			 "SMD_solvation_energy": 3.28 
		},
		"coords": [
			{
				"x": -1.1219097677,
				"y": 1.4703638099,
				"z": -1.5431327763,
				"element": "C" 
			},
			{
				"x": -0.6319057737,
				"y": 2.4957132481,
				"z": -0.4609508333,
				"element": "C" 
			},
			{
				"x": 0.0595538965,
				"y": 1.6490484563,
				"z": 0.5946877115,
				"element": "C" 
			},
			{
				"x": 0.6878711055,
				"y": 1.9690609732,
				"z": 1.7780043557,
				"element": "C" 
			},
			{
				"x": 1.2495773332,
				"y": 0.9213313272,
				"z": 2.5610718687,
				"element": "C" 
			},
			{
				"x": 1.1873392286,
				"y": -0.4060449673,
				"z": 2.1769493138,
				"element": "C" 
			},
			{
				"x": 0.5452047693,
				"y": -0.7678589052,
				"z": 0.9604631138,
				"element": "C" 
			},
			{
				"x": -0.0035498217,
				"y": 0.2935773951,
				"z": 0.2032511395,
				"element": "C" 
			},
			{
				"x": -0.6740927936,
				"y": 0.11319939,
				"z": -1.026524322,
				"element": "C" 
			},
			{
				"x": -0.8081157402,
				"y": -1.1627656798,
				"z": -1.5279137725,
				"element": "C" 
			},
			{
				"x": -0.2656601578,
				"y": -2.2507758866,
				"z": -0.7873692013,
				"element": "C" 
			},
			{
				"x": 0.3909492781,
				"y": -2.0732383975,
				"z": 0.41708017,
				"element": "C" 
			},
			{
				"x": -0.6881089736,
				"y": 1.6881545404,
				"z": -2.5258860377,
				"element": "H" 
			},
			{
				"x": -2.2098781074,
				"y": 1.5118550074,
				"z": -1.6697371615,
				"element": "H" 
			},
			{
				"x": 0.0519714157,
				"y": 3.2359275939,
				"z": -0.8920159995,
				"element": "H" 
			},
			{
				"x": -1.4700678227,
				"y": 3.0600929977,
				"z": -0.0362356304,
				"element": "H" 
			},
			{
				"x": 0.76351871,
				"y": 2.9965369894,
				"z": 2.1241869392,
				"element": "H" 
			},
			{
				"x": 1.7443428147,
				"y": 1.1785664106,
				"z": 3.4939433313,
				"element": "H" 
			},
			{
				"x": 1.6289544428,
				"y": -1.1766833396,
				"z": 2.8035015476,
				"element": "H" 
			},
			{
				"x": -1.3152840716,
				"y": -1.3554248857,
				"z": -2.469686859,
				"element": "H" 
			},
			{
				"x": -0.3737880681,
				"y": -3.2557255814,
				"z": -1.186863679,
				"element": "H" 
			},
			{
				"x": 0.7910781039,
				"y": -2.930710496,
				"z": 0.9519767815,
				"element": "H" 
			}
		],
		 "valence_orbital": [ 
			{
				"type": "occ",
				"energy": -0.3235,
				"method": "rhf"
			},
			{
				"type": "occ",
				"energy": -0.31013,
				"method": "rhf"
			},
			{
				"type": "occ",
				"energy": -0.27082,
				"method": "rhf"
			},
			{
				"type": "occ",
				"energy": -0.23631,
				"method": "rhf"
			},
			{
				"type": "occ",
				"energy": -0.20114,
				"method": "rhf"
			},
			{
				"type": "unocc",
				"energy": -0.02832,
				"method": "rhf"
			},
			{
				"type": "unocc",
				"energy": -0.00359,
				"method": "rhf"
			},
			{
				"type": "unocc",
				"energy": 0.03611,
				"method": "rhf"
			},
			{
				"type": "unocc",
				"energy": 0.10133,
				"method": "rhf"
			},
			{
				"type": "unocc",
				"energy": 0.10217,
				"method": "rhf"
			}
		],
		"cosmo_sigma_profile": { 
			"-0.025": 0.0,
			"-0.024": 0.0,
			"-0.023": 0.0,
			"-0.022": 0.0,
			"-0.021": 0.0,
			"-0.02": 0.0,
			"-0.019": 0.0,
			"-0.018": 0.0,
			"-0.017": 0.0,
			"-0.016": 0.0,
			"-0.015": 0.0,
			"-0.014": 0.0,
			"-0.013": 0.0,
			"-0.012": 0.0,
			"-0.011": 0.0,
			"-0.01": 0.0,
			"-0.009": 0.0,
			"-0.008": 0.0,
			"-0.007": 0.0,
			"-0.006": 1.69314293178,
			"-0.005": 12.804071396,
			"-0.004": 21.1334357997,
			"-0.003": 23.6241494809,
			"-0.002": 22.213158262,
			"-0.001": 19.7277005201,
			"0.0": 15.6044640174,
			"0.001": 9.46032523317,
			"0.002": 9.53615100673,
			"0.003": 11.2967299989,
			"0.004": 14.9726237362,
			"0.005": 19.1613292975,
			"0.006": 12.1202396518,
			"0.007": 0.479234655898,
			"0.008": 0.0,
			"0.009": 0.0,
			"0.01": 0.0,
			"0.011": 0.0,
			"0.012": 0.0,
			"0.013": 0.0,
			"0.014": 0.0,
			"0.015": 0.0,
			"0.016": 0.0,
			"0.017": 0.0,
			"0.018": 0.0,
			"0.019": 0.0,
			"0.02": 0.0,
			"0.021": 0.0,
			"0.022": 0.0,
			"0.023": 0.0,
			"0.024": 0.0,
			"0.025": 0.0
		}
	}
}
