{
	 "smiles": "COC(=O)C1=CC(=NN1)C(=O)OC", 
	 "Tm": 423.15, 
	 "num_atms": 21, 
	 "gaussian": { 
		 "optdone": 1, 
		 "sigma_profile": "yes", 
		 "theory": "DFT", 
		 "functional": "B3LYP", 
		 "basiset": "6-31G**", 
		 "properties": { 
			 "R2extent": 3663.3305, 
			 "electric_dipole_moment_norm": 1.54133751657, 
			 "electric_quadrupole_moment_norm": 13.9754206863, 
			 "total_energy": -681.958345629, 
			 "HOMO_LUMO_gap": 0.21912, 
			 "cosmo_polarized_energy": -14.13, 
			 "cosmo_cavitation_energy": 27.28, 
			 "cosmo_dispersion_energy": -19.93, 
			 "cosmo_repulsion_energy": 1.6, 
			 "cosmo_total_nonelectrostatic_energy": 8.96, 
			 "SMD_solvation_energy": 7.2 
		},
		"coords": [
			{
				"x": -0.1936390471,
				"y": 2.6657156174,
				"z": 3.3853058322,
				"element": "C" 
			},
			{
				"x": -0.3544517328,
				"y": 1.5131951707,
				"z": 2.538446183,
				"element": "O" 
			},
			{
				"x": -0.209565745,
				"y": 1.7439753763,
				"z": 1.2230357406,
				"element": "C" 
			},
			{
				"x": 0.0394771698,
				"y": 2.8299651542,
				"z": 0.73022114,
				"element": "O" 
			},
			{
				"x": -0.387353705,
				"y": 0.5252141144,
				"z": 0.4229022511,
				"element": "C" 
			},
			{
				"x": -0.6676173437,
				"y": -0.7997460524,
				"z": 0.7053049143,
				"element": "C" 
			},
			{
				"x": -0.6951139299,
				"y": -1.4288820436,
				"z": -0.5587180415,
				"element": "C" 
			},
			{
				"x": -0.4497950292,
				"y": -0.558987894,
				"z": -1.5549223257,
				"element": "N" 
			},
			{
				"x": -0.269529685,
				"y": 0.6032749596,
				"z": -0.9368277979,
				"element": "N" 
			},
			{
				"x": -0.9593112272,
				"y": -2.8678409414,
				"z": -0.7827823042,
				"element": "C" 
			},
			{
				"x": -1.1803490435,
				"y": -3.6468702609,
				"z": 0.1245752832,
				"element": "O" 
			},
			{
				"x": -0.927350333,
				"y": -3.2092985333,
				"z": -2.083343851,
				"element": "O" 
			},
			{
				"x": -1.1780994387,
				"y": -4.5975044377,
				"z": -2.3528714567,
				"element": "C" 
			},
			{
				"x": 0.8067594026,
				"y": 3.0893206105,
				"z": 3.2688943355,
				"element": "H" 
			},
			{
				"x": -0.9343495028,
				"y": 3.4294596573,
				"z": 3.1366473907,
				"element": "H" 
			},
			{
				"x": -0.3417132778,
				"y": 2.3029216166,
				"z": 4.4016879162,
				"element": "H" 
			},
			{
				"x": -0.8293835369,
				"y": -1.255173744,
				"z": 1.668825767,
				"element": "H" 
			},
			{
				"x": -0.0656624334,
				"y": 1.4456734421,
				"z": -1.4578636431,
				"element": "H" 
			},
			{
				"x": -1.1159531621,
				"y": -4.700356267,
				"z": -3.4359262832,
				"element": "H" 
			},
			{
				"x": -0.4303907222,
				"y": -5.2267088742,
				"z": -1.8632095996,
				"element": "H" 
			},
			{
				"x": -2.1696076773,
				"y": -4.8869466705,
				"z": -1.9952814509,
				"element": "H" 
			}
		],
		 "valence_orbital": [ 
			{
				"type": "occ",
				"energy": -0.30023,
				"method": "rhf"
			},
			{
				"type": "occ",
				"energy": -0.29564,
				"method": "rhf"
			},
			{
				"type": "occ",
				"energy": -0.2771,
				"method": "rhf"
			},
			{
				"type": "occ",
				"energy": -0.27567,
				"method": "rhf"
			},
			{
				"type": "occ",
				"energy": -0.27088,
				"method": "rhf"
			},
			{
				"type": "unocc",
				"energy": -0.05176,
				"method": "rhf"
			},
			{
				"type": "unocc",
				"energy": -0.02929,
				"method": "rhf"
			},
			{
				"type": "unocc",
				"energy": 0.08334,
				"method": "rhf"
			},
			{
				"type": "unocc",
				"energy": 0.08361,
				"method": "rhf"
			},
			{
				"type": "unocc",
				"energy": 0.10474,
				"method": "rhf"
			}
		],
		"cosmo_sigma_profile": { 
			"-0.025": 0.0,
			"-0.024": 0.0,
			"-0.023": 0.0,
			"-0.022": 0.0,
			"-0.021": 0.0,
			"-0.02": 0.0,
			"-0.019": 0.0,
			"-0.018": 0.16914077502,
			"-0.017": 0.989478952962,
			"-0.016": 0.851359723305,
			"-0.015": 0.800325891139,
			"-0.014": 0.511546320697,
			"-0.013": 1.22101078136,
			"-0.012": 0.52662237995,
			"-0.011": 0.929067324574,
			"-0.01": 0.524272768409,
			"-0.009": 1.08855922385,
			"-0.008": 2.09928074118,
			"-0.007": 5.58215913318,
			"-0.006": 13.0057476074,
			"-0.005": 17.3067785384,
			"-0.004": 23.0798225833,
			"-0.003": 22.4043248767,
			"-0.002": 13.5660045682,
			"-0.001": 12.9573210489,
			"0.0": 15.9725640675,
			"0.001": 12.537211678,
			"0.002": 8.88823749414,
			"0.003": 7.10501287519,
			"0.004": 6.4894324878,
			"0.005": 6.11119255181,
			"0.006": 5.01680632739,
			"0.007": 4.59814779113,
			"0.008": 4.81254910948,
			"0.009": 4.55348915609,
			"0.01": 6.55585084643,
			"0.011": 8.72384018375,
			"0.012": 5.97750766832,
			"0.013": 1.61633438545,
			"0.014": 1.17018638384,
			"0.015": 0.013692964253,
			"0.016": 0.0,
			"0.017": 0.0,
			"0.018": 0.0,
			"0.019": 0.0,
			"0.02": 0.0,
			"0.021": 0.0,
			"0.022": 0.0,
			"0.023": 0.0,
			"0.024": 0.0,
			"0.025": 0.0
		}
	}
}
