{
	 "smiles": "C[C@H](NC(=O)OC(C)(C)C)C(=O)N1CCC[C@H]1C(=O)OCC1=CC=CC=C1", 
	 "Tm": 342.15, 
	 "num_atms": 55, 
	 "gaussian": { 
		 "optdone": 1, 
		 "sigma_profile": "yes", 
		 "theory": "DFT", 
		 "functional": "B3LYP", 
		 "basiset": "6-31G**", 
		 "properties": { 
			 "R2extent": 10450.4484, 
			 "electric_dipole_moment_norm": 2.57042054147, 
			 "electric_quadrupole_moment_norm": 18.3162412099, 
			 "total_energy": -1264.68148691, 
			 "HOMO_LUMO_gap": 0.22787, 
			 "cosmo_polarized_energy": -17.23, 
			 "cosmo_cavitation_energy": 55.15, 
			 "cosmo_dispersion_energy": -34.13, 
			 "cosmo_repulsion_energy": 2.58, 
			 "cosmo_total_nonelectrostatic_energy": 23.61, 
			 "SMD_solvation_energy": 8.83 
		},
		"coords": [
			{
				"x": -2.5087333525,
				"y": -1.6744492519,
				"z": 1.8551439804,
				"element": "C" 
			},
			{
				"x": -1.416430359,
				"y": -0.7202702621,
				"z": 1.3629013059,
				"element": "C" 
			},
			{
				"x": -0.119821017,
				"y": -1.3905963815,
				"z": 1.3780039897,
				"element": "N" 
			},
			{
				"x": 0.9131543262,
				"y": -0.8811476489,
				"z": 0.6342884178,
				"element": "C" 
			},
			{
				"x": 0.7812502601,
				"y": -0.0660531222,
				"z": -0.2724534873,
				"element": "O" 
			},
			{
				"x": 2.0757857222,
				"y": -1.4451788248,
				"z": 1.0308884719,
				"element": "O" 
			},
			{
				"x": 3.353100683,
				"y": -1.0990285915,
				"z": 0.3905129763,
				"element": "C" 
			},
			{
				"x": 3.3258141286,
				"y": -1.5016402036,
				"z": -1.0879009126,
				"element": "C" 
			},
			{
				"x": 4.3557954162,
				"y": -1.9559469798,
				"z": 1.1680876037,
				"element": "C" 
			},
			{
				"x": 3.650980458,
				"y": 0.3921419155,
				"z": 0.5814359029,
				"element": "C" 
			},
			{
				"x": -1.3250866936,
				"y": 0.5135179944,
				"z": 2.2875813865,
				"element": "C" 
			},
			{
				"x": -0.7177045222,
				"y": 0.3882917718,
				"z": 3.349048875,
				"element": "O" 
			},
			{
				"x": -1.9183069246,
				"y": 1.7108843841,
				"z": 1.9491496629,
				"element": "N" 
			},
			{
				"x": -1.3969614681,
				"y": 2.9283935405,
				"z": 2.6011807617,
				"element": "C" 
			},
			{
				"x": -0.7792551885,
				"y": 3.7646992134,
				"z": 1.4385405683,
				"element": "C" 
			},
			{
				"x": -1.2453895182,
				"y": 3.0577498742,
				"z": 0.1371491825,
				"element": "C" 
			},
			{
				"x": -2.4091299891,
				"y": 2.1919788223,
				"z": 0.6431188851,
				"element": "C" 
			},
			{
				"x": -3.0880438527,
				"y": 1.1982835264,
				"z": -0.2927240157,
				"element": "C" 
			},
			{
				"x": -4.0269964299,
				"y": 0.5023352589,
				"z": 0.0276989652,
				"element": "O" 
			},
			{
				"x": -2.6031148337,
				"y": 1.2926428208,
				"z": -1.5456851769,
				"element": "O" 
			},
			{
				"x": -3.291497063,
				"y": 0.5215811626,
				"z": -2.5645111067,
				"element": "C" 
			},
			{
				"x": -2.8430700766,
				"y": -0.9198705127,
				"z": -2.6294982409,
				"element": "C" 
			},
			{
				"x": -1.4964244225,
				"y": -1.2668999287,
				"z": -2.4610605259,
				"element": "C" 
			},
			{
				"x": -1.0984498683,
				"y": -2.599731867,
				"z": -2.5761357013,
				"element": "C" 
			},
			{
				"x": -2.0331318354,
				"y": -3.5930177725,
				"z": -2.8761447278,
				"element": "C" 
			},
			{
				"x": -3.3754677021,
				"y": -3.2502949533,
				"z": -3.04714926,
				"element": "C" 
			},
			{
				"x": -3.7782268349,
				"y": -1.9205930905,
				"z": -2.9164036427,
				"element": "C" 
			},
			{
				"x": -3.4857175927,
				"y": -1.1921806814,
				"z": 1.7865379415,
				"element": "H" 
			},
			{
				"x": -2.3240895993,
				"y": -1.9521696326,
				"z": 2.8981001036,
				"element": "H" 
			},
			{
				"x": -2.5166698666,
				"y": -2.5780045292,
				"z": 1.240268917,
				"element": "H" 
			},
			{
				"x": -1.5961651691,
				"y": -0.4482340291,
				"z": 0.3264268029,
				"element": "H" 
			},
			{
				"x": 0.157249688,
				"y": -1.7683959283,
				"z": 2.275335975,
				"element": "H" 
			},
			{
				"x": 3.0666870851,
				"y": -2.5606735451,
				"z": -1.187289301,
				"element": "H" 
			},
			{
				"x": 2.6006620091,
				"y": -0.904493625,
				"z": -1.6413671063,
				"element": "H" 
			},
			{
				"x": 4.3167498892,
				"y": -1.3524600837,
				"z": -1.52910221,
				"element": "H" 
			},
			{
				"x": 4.3405682369,
				"y": -1.6978537549,
				"z": 2.2308575214,
				"element": "H" 
			},
			{
				"x": 5.3674244874,
				"y": -1.7919443881,
				"z": 0.7850246951,
				"element": "H" 
			},
			{
				"x": 4.1144842897,
				"y": -3.0181551875,
				"z": 1.0682539459,
				"element": "H" 
			},
			{
				"x": 2.9311338896,
				"y": 1.0070597172,
				"z": 0.0408047753,
				"element": "H" 
			},
			{
				"x": 4.6565328119,
				"y": 0.616346707,
				"z": 0.2107241424,
				"element": "H" 
			},
			{
				"x": 3.6139289197,
				"y": 0.6526642684,
				"z": 1.6438260067,
				"element": "H" 
			},
			{
				"x": -2.2228247446,
				"y": 3.4656707066,
				"z": 3.0811400237,
				"element": "H" 
			},
			{
				"x": -0.6852947477,
				"y": 2.6303161748,
				"z": 3.3684188581,
				"element": "H" 
			},
			{
				"x": 0.3113400217,
				"y": 3.7881078124,
				"z": 1.5059144666,
				"element": "H" 
			},
			{
				"x": -1.131191355,
				"y": 4.7998824434,
				"z": 1.478831823,
				"element": "H" 
			},
			{
				"x": -1.5518552434,
				"y": 3.7549743791,
				"z": -0.6461940827,
				"element": "H" 
			},
			{
				"x": -0.4658673608,
				"y": 2.4054463571,
				"z": -0.2655452256,
				"element": "H" 
			},
			{
				"x": -3.2470238311,
				"y": 2.8635629042,
				"z": 0.8925739519,
				"element": "H" 
			},
			{
				"x": -4.367996704,
				"y": 0.5822040083,
				"z": -2.3876290275,
				"element": "H" 
			},
			{
				"x": -3.0469561108,
				"y": 1.0532490625,
				"z": -3.4887057301,
				"element": "H" 
			},
			{
				"x": -0.7646849696,
				"y": -0.5066896919,
				"z": -2.2067671331,
				"element": "H" 
			},
			{
				"x": -0.0539138479,
				"y": -2.8594535989,
				"z": -2.4304006674,
				"element": "H" 
			},
			{
				"x": -1.718850445,
				"y": -4.6287564735,
				"z": -2.9686529114,
				"element": "H" 
			},
			{
				"x": -4.1113936182,
				"y": -4.0178969352,
				"z": -3.2691044492,
				"element": "H" 
			},
			{
				"x": -4.8274051649,
				"y": -1.6598033505,
				"z": -3.0318462436,
				"element": "H" 
			}
		],
		 "valence_orbital": [ 
			{
				"type": "occ",
				"energy": -0.26048,
				"method": "rhf"
			},
			{
				"type": "occ",
				"energy": -0.24895,
				"method": "rhf"
			},
			{
				"type": "occ",
				"energy": -0.24741,
				"method": "rhf"
			},
			{
				"type": "occ",
				"energy": -0.2444,
				"method": "rhf"
			},
			{
				"type": "occ",
				"energy": -0.23639,
				"method": "rhf"
			},
			{
				"type": "unocc",
				"energy": -0.00852,
				"method": "rhf"
			},
			{
				"type": "unocc",
				"energy": -0.00538,
				"method": "rhf"
			},
			{
				"type": "unocc",
				"energy": -0.00058,
				"method": "rhf"
			},
			{
				"type": "unocc",
				"energy": 0.02129,
				"method": "rhf"
			},
			{
				"type": "unocc",
				"energy": 0.04793,
				"method": "rhf"
			}
		],
		"cosmo_sigma_profile": { 
			"-0.025": 0.0,
			"-0.024": 0.0,
			"-0.023": 0.0,
			"-0.022": 0.0,
			"-0.021": 0.0,
			"-0.02": 0.0,
			"-0.019": 0.0,
			"-0.018": 0.0,
			"-0.017": 0.0,
			"-0.016": 0.0,
			"-0.015": 0.0,
			"-0.014": 0.0,
			"-0.013": 0.163255999147,
			"-0.012": 0.562832983418,
			"-0.011": 0.84599757621,
			"-0.01": 0.41306016476,
			"-0.009": 0.666772781053,
			"-0.008": 3.73666889627,
			"-0.007": 8.03187187855,
			"-0.006": 12.1976555519,
			"-0.005": 19.4384957814,
			"-0.004": 39.9070637519,
			"-0.003": 44.2302398079,
			"-0.002": 41.6006493361,
			"-0.001": 43.987565109,
			"0.0": 51.709019218,
			"0.001": 34.5617526319,
			"0.002": 23.3219233615,
			"0.003": 19.3425125997,
			"0.004": 21.1870288222,
			"0.005": 22.5537052671,
			"0.006": 12.262135284,
			"0.007": 7.20149196552,
			"0.008": 4.67076574013,
			"0.009": 4.31837855234,
			"0.01": 4.05910684948,
			"0.011": 4.17602426743,
			"0.012": 2.40512918896,
			"0.013": 3.89163856147,
			"0.014": 0.911167121912,
			"0.015": 0.0,
			"0.016": 0.0,
			"0.017": 0.0,
			"0.018": 0.0,
			"0.019": 0.0,
			"0.02": 0.0,
			"0.021": 0.0,
			"0.022": 0.0,
			"0.023": 0.0,
			"0.024": 0.0,
			"0.025": 0.0
		}
	}
}
