{
	 "smiles": "COC1=C(Cl)C=CC(Cl)=C1C(O)=O", 
	 "Tm": 388.15, 
	 "num_atms": 19, 
	 "gaussian": { 
		 "optdone": 1, 
		 "sigma_profile": "yes", 
		 "theory": "DFT", 
		 "functional": "B3LYP", 
		 "basiset": "6-31G**", 
		 "properties": { 
			 "R2extent": 3386.0468, 
			 "electric_dipole_moment_norm": 0.621976358072, 
			 "electric_quadrupole_moment_norm": 9.79521507166, 
			 "total_energy": -1454.51060083, 
			 "HOMO_LUMO_gap": 0.20481, 
			 "cosmo_polarized_energy": -10.21, 
			 "cosmo_cavitation_energy": 27.21, 
			 "cosmo_dispersion_energy": -19.85, 
			 "cosmo_repulsion_energy": 1.59, 
			 "cosmo_total_nonelectrostatic_energy": 8.95, 
			 "SMD_solvation_energy": 6.04 
		},
		"coords": [
			{
				"x": -1.9102596666,
				"y": 1.2637257362,
				"z": -1.5777140472,
				"element": "C" 
			},
			{
				"x": -1.4961081692,
				"y": -0.11701056,
				"z": -1.584937831,
				"element": "O" 
			},
			{
				"x": -0.1623659114,
				"y": -0.3363491605,
				"z": -1.4112971753,
				"element": "C" 
			},
			{
				"x": 0.7296036781,
				"y": -0.3267586934,
				"z": -2.4944070676,
				"element": "C" 
			},
			{
				"x": 0.1396115064,
				"y": 0.0352774242,
				"z": -4.1003526193,
				"element": "Cl" 
			},
			{
				"x": 2.0775150762,
				"y": -0.6271566894,
				"z": -2.3081888816,
				"element": "C" 
			},
			{
				"x": 2.5543932359,
				"y": -0.9439178295,
				"z": -1.0391803058,
				"element": "C" 
			},
			{
				"x": 1.6720513388,
				"y": -0.9715316378,
				"z": 0.03967765,
				"element": "C" 
			},
			{
				"x": 2.3095839312,
				"y": -1.3527998936,
				"z": 1.6286457039,
				"element": "Cl" 
			},
			{
				"x": 0.3165413788,
				"y": -0.6675068796,
				"z": -0.1298435612,
				"element": "C" 
			},
			{
				"x": -0.6653211701,
				"y": -0.646060227,
				"z": 1.0086506787,
				"element": "C" 
			},
			{
				"x": -0.8633963424,
				"y": -1.8697190352,
				"z": 1.531424944,
				"element": "O" 
			},
			{
				"x": -1.2263965685,
				"y": 0.3498466961,
				"z": 1.4092663797,
				"element": "O" 
			},
			{
				"x": -1.7145790425,
				"y": 1.7081736898,
				"z": -0.5983410148,
				"element": "H" 
			},
			{
				"x": -2.9832663489,
				"y": 1.2498041749,
				"z": -1.7731096496,
				"element": "H" 
			},
			{
				"x": -1.4039798847,
				"y": 1.8280816383,
				"z": -2.3672523813,
				"element": "H" 
			},
			{
				"x": 2.7502204622,
				"y": -0.6152688749,
				"z": -3.158475915,
				"element": "H" 
			},
			{
				"x": 3.6023890838,
				"y": -1.1730694353,
				"z": -0.8861266771,
				"element": "H" 
			},
			{
				"x": -1.489436587,
				"y": -1.7567604432,
				"z": 2.2676617704,
				"element": "H" 
			}
		],
		 "valence_orbital": [ 
			{
				"type": "occ",
				"energy": -0.32007,
				"method": "rhf"
			},
			{
				"type": "occ",
				"energy": -0.29809,
				"method": "rhf"
			},
			{
				"type": "occ",
				"energy": -0.29064,
				"method": "rhf"
			},
			{
				"type": "occ",
				"energy": -0.26804,
				"method": "rhf"
			},
			{
				"type": "occ",
				"energy": -0.25036,
				"method": "rhf"
			},
			{
				"type": "unocc",
				"energy": -0.04555,
				"method": "rhf"
			},
			{
				"type": "unocc",
				"energy": -0.02924,
				"method": "rhf"
			},
			{
				"type": "unocc",
				"energy": -0.001,
				"method": "rhf"
			},
			{
				"type": "unocc",
				"energy": 0.01395,
				"method": "rhf"
			},
			{
				"type": "unocc",
				"energy": 0.03086,
				"method": "rhf"
			}
		],
		"cosmo_sigma_profile": { 
			"-0.025": 0.0,
			"-0.024": 0.0,
			"-0.023": 0.0,
			"-0.022": 0.0,
			"-0.021": 0.0,
			"-0.02": 0.0,
			"-0.019": 0.637962378558,
			"-0.018": 0.972929936114,
			"-0.017": 1.07244604998,
			"-0.016": 0.92458666045,
			"-0.015": 0.525602762639,
			"-0.014": 0.302462688326,
			"-0.013": 0.734765683046,
			"-0.012": 1.45670556019,
			"-0.011": 0.703557195668,
			"-0.01": 0.504073374014,
			"-0.009": 1.34763771407,
			"-0.008": 5.02945772614,
			"-0.007": 5.69737547524,
			"-0.006": 5.59238474485,
			"-0.005": 6.85388740769,
			"-0.004": 12.7726579826,
			"-0.003": 15.3122617926,
			"-0.002": 13.8923326014,
			"-0.001": 17.340837374,
			"0.0": 26.2018485951,
			"0.001": 21.178834917,
			"0.002": 17.0843780921,
			"0.003": 17.8595818608,
			"0.004": 15.3933140835,
			"0.005": 7.02957777697,
			"0.006": 6.10066425672,
			"0.007": 4.2262715953,
			"0.008": 4.38607216271,
			"0.009": 4.30960677416,
			"0.01": 4.03925535318,
			"0.011": 2.71539464372,
			"0.012": 0.0762071461799,
			"0.013": 0.0,
			"0.014": 0.0,
			"0.015": 0.0,
			"0.016": 0.0,
			"0.017": 0.0,
			"0.018": 0.0,
			"0.019": 0.0,
			"0.02": 0.0,
			"0.021": 0.0,
			"0.022": 0.0,
			"0.023": 0.0,
			"0.024": 0.0,
			"0.025": 0.0
		}
	}
}
