{
	 "smiles": "SC1=C(Cl)C=C2NC(=O)COC2=C1", 
	 "Tm": 530.15, 
	 "num_atms": 19, 
	 "gaussian": { 
		 "optdone": 1, 
		 "sigma_profile": "yes", 
		 "theory": "DFT", 
		 "functional": "B3LYP", 
		 "basiset": "6-31G**", 
		 "properties": { 
			 "R2extent": 5065.864, 
			 "electric_dipole_moment_norm": 1.09248390377, 
			 "electric_quadrupole_moment_norm": 14.2217891434, 
			 "total_energy": -1372.04411915, 
			 "HOMO_LUMO_gap": 0.18442, 
			 "cosmo_polarized_energy": -12.83, 
			 "cosmo_cavitation_energy": 26.67, 
			 "cosmo_dispersion_energy": -20.85, 
			 "cosmo_repulsion_energy": 1.59, 
			 "cosmo_total_nonelectrostatic_energy": 7.41, 
			 "SMD_solvation_energy": 4.52 
		},
		"coords": [
			{
				"x": -2.9410182793,
				"y": 0.8076874843,
				"z": 2.5975957097,
				"element": "S" 
			},
			{
				"x": -2.2486798833,
				"y": 1.0802767492,
				"z": 0.9808361558,
				"element": "C" 
			},
			{
				"x": -1.9989733179,
				"y": 2.3319111183,
				"z": 0.3972224026,
				"element": "C" 
			},
			{
				"x": -2.3608236341,
				"y": 3.831293451,
				"z": 1.2436834634,
				"element": "Cl" 
			},
			{
				"x": -1.4508753786,
				"y": 2.4388528154,
				"z": -0.8831992572,
				"element": "C" 
			},
			{
				"x": -1.1493334426,
				"y": 1.2935284395,
				"z": -1.6127909854,
				"element": "C" 
			},
			{
				"x": -0.6464782565,
				"y": 1.3390223143,
				"z": -2.9224624178,
				"element": "N" 
			},
			{
				"x": -0.110018138,
				"y": 0.2491231096,
				"z": -3.5623811377,
				"element": "C" 
			},
			{
				"x": 0.3481718036,
				"y": 0.2906100801,
				"z": -4.6904256244,
				"element": "O" 
			},
			{
				"x": -0.079210912,
				"y": -1.0159485615,
				"z": -2.707625094,
				"element": "C" 
			},
			{
				"x": -1.1406452114,
				"y": -1.1071776096,
				"z": -1.7526121523,
				"element": "O" 
			},
			{
				"x": -1.3850829133,
				"y": 0.0328091596,
				"z": -1.0381341679,
				"element": "C" 
			},
			{
				"x": -1.9207044918,
				"y": -0.065818166,
				"z": 0.2371088789,
				"element": "C" 
			},
			{
				"x": -3.0681824018,
				"y": 2.1030643418,
				"z": 2.9374024542,
				"element": "H" 
			},
			{
				"x": -1.2720986314,
				"y": 3.4210523359,
				"z": -1.3077296783,
				"element": "H" 
			},
			{
				"x": -0.630768477,
				"y": 2.2129115375,
				"z": -3.4326764528,
				"element": "H" 
			},
			{
				"x": 0.8956145986,
				"y": -1.0659206977,
				"z": -2.1988100962,
				"element": "H" 
			},
			{
				"x": -0.1725672628,
				"y": -1.8783358626,
				"z": -3.3671522337,
				"element": "H" 
			},
			{
				"x": -2.0929257705,
				"y": -1.0556420391,
				"z": 0.6464502333,
				"element": "H" 
			}
		],
		 "valence_orbital": [ 
			{
				"type": "occ",
				"energy": -0.3293,
				"method": "rhf"
			},
			{
				"type": "occ",
				"energy": -0.28048,
				"method": "rhf"
			},
			{
				"type": "occ",
				"energy": -0.27275,
				"method": "rhf"
			},
			{
				"type": "occ",
				"energy": -0.24788,
				"method": "rhf"
			},
			{
				"type": "occ",
				"energy": -0.21667,
				"method": "rhf"
			},
			{
				"type": "unocc",
				"energy": -0.03225,
				"method": "rhf"
			},
			{
				"type": "unocc",
				"energy": -0.02323,
				"method": "rhf"
			},
			{
				"type": "unocc",
				"energy": -0.00308,
				"method": "rhf"
			},
			{
				"type": "unocc",
				"energy": 0.01614,
				"method": "rhf"
			},
			{
				"type": "unocc",
				"energy": 0.03279,
				"method": "rhf"
			}
		],
		"cosmo_sigma_profile": { 
			"-0.025": 0.0,
			"-0.024": 0.0,
			"-0.023": 0.0,
			"-0.022": 0.0,
			"-0.021": 0.0,
			"-0.02": 0.0,
			"-0.019": 0.0,
			"-0.018": 0.0,
			"-0.017": 0.0317601220424,
			"-0.016": 0.899961125473,
			"-0.015": 1.48203205934,
			"-0.014": 1.46896431343,
			"-0.013": 1.02872822296,
			"-0.012": 1.29244277046,
			"-0.011": 1.00631960223,
			"-0.01": 2.72736200267,
			"-0.009": 2.72575964868,
			"-0.008": 8.7445996188,
			"-0.007": 10.2863502351,
			"-0.006": 7.97921232596,
			"-0.005": 9.27021521141,
			"-0.004": 9.23637868213,
			"-0.003": 10.2432042623,
			"-0.002": 10.6463433584,
			"-0.001": 13.5677429582,
			"0.0": 16.7342548446,
			"0.001": 19.0240807702,
			"0.002": 23.4042970715,
			"0.003": 17.7979408806,
			"0.004": 11.9433399633,
			"0.005": 6.08320656335,
			"0.006": 6.28593848244,
			"0.007": 4.88458148834,
			"0.008": 3.57670194284,
			"0.009": 2.67720231298,
			"0.01": 2.20612445755,
			"0.011": 2.21166712379,
			"0.012": 5.10805994789,
			"0.013": 3.83100953236,
			"0.014": 0.211851899677,
			"0.015": 0.0,
			"0.016": 0.0,
			"0.017": 0.0,
			"0.018": 0.0,
			"0.019": 0.0,
			"0.02": 0.0,
			"0.021": 0.0,
			"0.022": 0.0,
			"0.023": 0.0,
			"0.024": 0.0,
			"0.025": 0.0
		}
	}
}
