{
	 "smiles": "CC1CCCCS1", 
	 "Tm": 215.15, 
	 "num_atms": 19, 
	 "gaussian": { 
		 "optdone": 1, 
		 "sigma_profile": "yes", 
		 "theory": "DFT", 
		 "functional": "B3LYP", 
		 "basiset": "6-31G**", 
		 "properties": { 
			 "R2extent": 1175.7755, 
			 "electric_dipole_moment_norm": 2.02572547745, 
			 "electric_quadrupole_moment_norm": 4.01977640299, 
			 "total_energy": -634.06802761, 
			 "HOMO_LUMO_gap": 0.25625, 
			 "cosmo_polarized_energy": -4.18, 
			 "cosmo_cavitation_energy": 20.73, 
			 "cosmo_dispersion_energy": -16.28, 
			 "cosmo_repulsion_energy": 1.31, 
			 "cosmo_total_nonelectrostatic_energy": 5.77, 
			 "SMD_solvation_energy": 2.47 
		},
		"coords": [
			{
				"x": -0.7726465312,
				"y": 1.2035998588,
				"z": -1.1623712996,
				"element": "C" 
			},
			{
				"x": 0.2930114204,
				"y": 1.2266429178,
				"z": -0.0614296295,
				"element": "C" 
			},
			{
				"x": -0.1013531585,
				"y": 2.0633158239,
				"z": 1.1650006774,
				"element": "C" 
			},
			{
				"x": -1.3551015355,
				"y": 1.5692518688,
				"z": 1.9171134378,
				"element": "C" 
			},
			{
				"x": -1.4170416087,
				"y": 0.0333515158,
				"z": 2.1048283363,
				"element": "C" 
			},
			{
				"x": -0.0349412839,
				"y": -0.6220409455,
				"z": 2.0988316103,
				"element": "C" 
			},
			{
				"x": 0.7928648571,
				"y": -0.4954220169,
				"z": 0.4562423866,
				"element": "S" 
			},
			{
				"x": -1.7105725698,
				"y": 0.7635646886,
				"z": -0.8123023308,
				"element": "H" 
			},
			{
				"x": -0.9802654888,
				"y": 2.224285351,
				"z": -1.5087630665,
				"element": "H" 
			},
			{
				"x": -0.4340070622,
				"y": 0.6172080542,
				"z": -2.0210028486,
				"element": "H" 
			},
			{
				"x": 1.2116329858,
				"y": 1.6517202021,
				"z": -0.4791368631,
				"element": "H" 
			},
			{
				"x": -0.2622538413,
				"y": 3.1002349604,
				"z": 0.8426572461,
				"element": "H" 
			},
			{
				"x": 0.752915056,
				"y": 2.0872112279,
				"z": 1.8512184189,
				"element": "H" 
			},
			{
				"x": -2.2593401754,
				"y": 1.9028511943,
				"z": 1.3960297297,
				"element": "H" 
			},
			{
				"x": -1.3732300923,
				"y": 2.0628035155,
				"z": 2.8959110378,
				"element": "H" 
			},
			{
				"x": -1.9245298429,
				"y": -0.2025229672,
				"z": 3.0485307608,
				"element": "H" 
			},
			{
				"x": -2.014105052,
				"y": -0.4239652652,
				"z": 1.3083213456,
				"element": "H" 
			},
			{
				"x": -0.1083069639,
				"y": -1.6954250129,
				"z": 2.2941818834,
				"element": "H" 
			},
			{
				"x": 0.6092708873,
				"y": -0.1898649716,
				"z": 2.8720391674,
				"element": "H" 
			}
		],
		 "valence_orbital": [ 
			{
				"type": "occ",
				"energy": -0.34181,
				"method": "rhf"
			},
			{
				"type": "occ",
				"energy": -0.32372,
				"method": "rhf"
			},
			{
				"type": "occ",
				"energy": -0.30681,
				"method": "rhf"
			},
			{
				"type": "occ",
				"energy": -0.28189,
				"method": "rhf"
			},
			{
				"type": "occ",
				"energy": -0.21001,
				"method": "rhf"
			},
			{
				"type": "unocc",
				"energy": 0.04624,
				"method": "rhf"
			},
			{
				"type": "unocc",
				"energy": 0.06557,
				"method": "rhf"
			},
			{
				"type": "unocc",
				"energy": 0.08225,
				"method": "rhf"
			},
			{
				"type": "unocc",
				"energy": 0.10307,
				"method": "rhf"
			},
			{
				"type": "unocc",
				"energy": 0.12461,
				"method": "rhf"
			}
		],
		"cosmo_sigma_profile": { 
			"-0.025": 0.0,
			"-0.024": 0.0,
			"-0.023": 0.0,
			"-0.022": 0.0,
			"-0.021": 0.0,
			"-0.02": 0.0,
			"-0.019": 0.0,
			"-0.018": 0.0,
			"-0.017": 0.0,
			"-0.016": 0.0,
			"-0.015": 0.0,
			"-0.014": 0.0,
			"-0.013": 0.0,
			"-0.012": 0.0,
			"-0.011": 0.0,
			"-0.01": 0.0,
			"-0.009": 0.0,
			"-0.008": 0.0,
			"-0.007": 0.0,
			"-0.006": 0.144517986116,
			"-0.005": 1.99349994864,
			"-0.004": 7.23032543233,
			"-0.003": 25.1314681942,
			"-0.002": 32.0778422048,
			"-0.001": 29.5545348219,
			"0.0": 21.6020586741,
			"0.001": 13.8372345724,
			"0.002": 4.53584147523,
			"0.003": 2.65293779051,
			"0.004": 2.40581258916,
			"0.005": 2.72966741935,
			"0.006": 3.15152155386,
			"0.007": 3.51704241042,
			"0.008": 2.92665322892,
			"0.009": 2.55907276632,
			"0.01": 2.13214247266,
			"0.011": 1.96416490883,
			"0.012": 1.65150432529,
			"0.013": 0.0562160669183,
			"0.014": 0.0,
			"0.015": 0.0,
			"0.016": 0.0,
			"0.017": 0.0,
			"0.018": 0.0,
			"0.019": 0.0,
			"0.02": 0.0,
			"0.021": 0.0,
			"0.022": 0.0,
			"0.023": 0.0,
			"0.024": 0.0,
			"0.025": 0.0
		}
	}
}
