{
	 "smiles": "CCOC(=O)C(C)N1N=C2C=CC=CC2=N1", 
	 "Tm": 312.65, 
	 "num_atms": 29, 
	 "gaussian": { 
		 "optdone": 1, 
		 "sigma_profile": "yes", 
		 "theory": "DFT", 
		 "functional": "B3LYP", 
		 "basiset": "6-31G**", 
		 "properties": { 
			 "R2extent": 4940.6991, 
			 "electric_dipole_moment_norm": 2.44164187587, 
			 "electric_quadrupole_moment_norm": 12.7599928527, 
			 "total_energy": -741.691384289, 
			 "HOMO_LUMO_gap": 0.17869, 
			 "cosmo_polarized_energy": -12.17, 
			 "cosmo_cavitation_energy": 33.64, 
			 "cosmo_dispersion_energy": -23.93, 
			 "cosmo_repulsion_energy": 1.9, 
			 "cosmo_total_nonelectrostatic_energy": 11.61, 
			 "SMD_solvation_energy": 4.83 
		},
		"coords": [
			{
				"x": -3.2654047509,
				"y": -1.4942610318,
				"z": 3.6555970116,
				"element": "C" 
			},
			{
				"x": -1.869238282,
				"y": -1.1115767279,
				"z": 3.2049743082,
				"element": "C" 
			},
			{
				"x": -1.9320536386,
				"y": -0.828435537,
				"z": 1.7838876004,
				"element": "O" 
			},
			{
				"x": -0.7681539901,
				"y": -0.4734238135,
				"z": 1.2051167666,
				"element": "C" 
			},
			{
				"x": 0.2891847488,
				"y": -0.3841654737,
				"z": 1.7799990308,
				"element": "O" 
			},
			{
				"x": -1.004838256,
				"y": -0.2091375164,
				"z": -0.2907215546,
				"element": "C" 
			},
			{
				"x": -1.9440939658,
				"y": 0.9797158078,
				"z": -0.5251460148,
				"element": "C" 
			},
			{
				"x": 0.2770268501,
				"y": -0.0277145147,
				"z": -0.9616467583,
				"element": "N" 
			},
			{
				"x": 0.8970988132,
				"y": 1.1458352264,
				"z": -0.9775587515,
				"element": "N" 
			},
			{
				"x": 2.0567940943,
				"y": 0.8597923918,
				"z": -1.6106759997,
				"element": "C" 
			},
			{
				"x": 3.1483109098,
				"y": 1.6927794863,
				"z": -1.9506602098,
				"element": "C" 
			},
			{
				"x": 4.2037450559,
				"y": 1.1011388201,
				"z": -2.6091326469,
				"element": "C" 
			},
			{
				"x": 4.2050773352,
				"y": -0.2882286669,
				"z": -2.9406578436,
				"element": "C" 
			},
			{
				"x": 3.1513909553,
				"y": -1.1157556173,
				"z": -2.6204459732,
				"element": "C" 
			},
			{
				"x": 2.0583238516,
				"y": -0.5284476058,
				"z": -1.9410808941,
				"element": "C" 
			},
			{
				"x": 0.899137681,
				"y": -1.0707762219,
				"z": -1.5053171347,
				"element": "N" 
			},
			{
				"x": -3.6202200237,
				"y": -2.3805781231,
				"z": 3.1219883821,
				"element": "H" 
			},
			{
				"x": -3.9721995564,
				"y": -0.6784176539,
				"z": 3.478929042,
				"element": "H" 
			},
			{
				"x": -3.259149772,
				"y": -1.7174424113,
				"z": 4.7269335323,
				"element": "H" 
			},
			{
				"x": -1.146291978,
				"y": -1.9166212049,
				"z": 3.3677587757,
				"element": "H" 
			},
			{
				"x": -1.4961880176,
				"y": -0.2223473295,
				"z": 3.7221685184,
				"element": "H" 
			},
			{
				"x": -1.4313064805,
				"y": -1.1193620386,
				"z": -0.7196515681,
				"element": "H" 
			},
			{
				"x": -1.5079655665,
				"y": 1.8977363212,
				"z": -0.1275986655,
				"element": "H" 
			},
			{
				"x": -2.117941925,
				"y": 1.1143457637,
				"z": -1.5954427459,
				"element": "H" 
			},
			{
				"x": -2.8975603716,
				"y": 0.7865555261,
				"z": -0.0305070208,
				"element": "H" 
			},
			{
				"x": 3.145128129,
				"y": 2.7472979029,
				"z": -1.6965001419,
				"element": "H" 
			},
			{
				"x": 5.0649321015,
				"y": 1.7014576372,
				"z": -2.8876439472,
				"element": "H" 
			},
			{
				"x": 5.0672452139,
				"y": -0.6964382055,
				"z": -3.4599554934,
				"element": "H" 
			},
			{
				"x": 3.150510835,
				"y": -2.1713251898,
				"z": -2.8703096041,
				"element": "H" 
			}
		],
		 "valence_orbital": [ 
			{
				"type": "occ",
				"energy": -0.30409,
				"method": "rhf"
			},
			{
				"type": "occ",
				"energy": -0.2921,
				"method": "rhf"
			},
			{
				"type": "occ",
				"energy": -0.28013,
				"method": "rhf"
			},
			{
				"type": "occ",
				"energy": -0.24647,
				"method": "rhf"
			},
			{
				"type": "occ",
				"energy": -0.22318,
				"method": "rhf"
			},
			{
				"type": "unocc",
				"energy": -0.04449,
				"method": "rhf"
			},
			{
				"type": "unocc",
				"energy": 0.00222,
				"method": "rhf"
			},
			{
				"type": "unocc",
				"energy": 0.02828,
				"method": "rhf"
			},
			{
				"type": "unocc",
				"energy": 0.03636,
				"method": "rhf"
			},
			{
				"type": "unocc",
				"energy": 0.09169,
				"method": "rhf"
			}
		],
		"cosmo_sigma_profile": { 
			"-0.025": 0.0,
			"-0.024": 0.0,
			"-0.023": 0.0,
			"-0.022": 0.0,
			"-0.021": 0.0,
			"-0.02": 0.0,
			"-0.019": 0.0,
			"-0.018": 0.0,
			"-0.017": 0.0,
			"-0.016": 0.0,
			"-0.015": 0.0,
			"-0.014": 0.0,
			"-0.013": 0.0,
			"-0.012": 0.0,
			"-0.011": 0.0,
			"-0.01": 0.0,
			"-0.009": 0.966190239448,
			"-0.008": 1.89755633063,
			"-0.007": 4.5171612739,
			"-0.006": 13.108298375,
			"-0.005": 22.5506118845,
			"-0.004": 29.5785485521,
			"-0.003": 25.0174502169,
			"-0.002": 23.5570615522,
			"-0.001": 21.5501321244,
			"0.0": 16.8907515753,
			"0.001": 15.0838956103,
			"0.002": 17.1936365065,
			"0.003": 17.6456433664,
			"0.004": 15.4962491666,
			"0.005": 7.77933224076,
			"0.006": 5.78702806996,
			"0.007": 5.00216814882,
			"0.008": 3.85860561176,
			"0.009": 4.91727016104,
			"0.01": 4.87260404111,
			"0.011": 6.69286944411,
			"0.012": 2.25538833806,
			"0.013": 0.933345732201,
			"0.014": 0.0585464189526,
			"0.015": 0.0,
			"0.016": 0.0,
			"0.017": 0.0,
			"0.018": 0.0,
			"0.019": 0.0,
			"0.02": 0.0,
			"0.021": 0.0,
			"0.022": 0.0,
			"0.023": 0.0,
			"0.024": 0.0,
			"0.025": 0.0
		}
	}
}
