{
	 "smiles": "NC1=NN2C(N=C(C=C2C(F)(F)F)C2=CC=CS2)=C1N=NC1=CC=CC(=C1)[N+]([O-])=O", 
	 "Tm": 518.15, 
	 "num_atms": 40, 
	 "gaussian": { 
		 "optdone": 1, 
		 "sigma_profile": "yes", 
		 "theory": "DFT", 
		 "functional": "B3LYP", 
		 "basiset": "6-31G**", 
		 "properties": { 
			 "R2extent": 17922.5282, 
			 "electric_dipole_moment_norm": 3.90686096502, 
			 "electric_quadrupole_moment_norm": 41.5022976211, 
			 "total_energy": -1885.08025934, 
			 "HOMO_LUMO_gap": 0.12043, 
			 "cosmo_polarized_energy": -20.29, 
			 "cosmo_cavitation_energy": 51.2, 
			 "cosmo_dispersion_energy": -35.83, 
			 "cosmo_repulsion_energy": 2.56, 
			 "cosmo_total_nonelectrostatic_energy": 17.93, 
			 "SMD_solvation_energy": 9.02 
		},
		"coords": [
			{
				"x": 0.4755047086,
				"y": -4.0541878713,
				"z": -0.6671348145,
				"element": "N" 
			},
			{
				"x": 0.834299666,
				"y": -2.8552592104,
				"z": -1.1923013441,
				"element": "C" 
			},
			{
				"x": 1.5884901756,
				"y": -2.7741725843,
				"z": -2.2955907993,
				"element": "N" 
			},
			{
				"x": 1.6870525311,
				"y": -1.4329586888,
				"z": -2.5224807644,
				"element": "N" 
			},
			{
				"x": 1.007695755,
				"y": -0.6414309662,
				"z": -1.5754161603,
				"element": "C" 
			},
			{
				"x": 1.0002141611,
				"y": 0.6860612157,
				"z": -1.6397150606,
				"element": "N" 
			},
			{
				"x": 1.6609984843,
				"y": 1.2802456926,
				"z": -2.639526652,
				"element": "C" 
			},
			{
				"x": 2.3627216131,
				"y": 0.5247284715,
				"z": -3.6221788073,
				"element": "C" 
			},
			{
				"x": 2.3611023127,
				"y": -0.8468604272,
				"z": -3.5406625301,
				"element": "C" 
			},
			{
				"x": 3.0793937905,
				"y": -1.7336330869,
				"z": -4.5369900083,
				"element": "C" 
			},
			{
				"x": 2.2255606227,
				"y": -2.5532418533,
				"z": -5.1684232581,
				"element": "F" 
			},
			{
				"x": 3.6885244932,
				"y": -0.9729057769,
				"z": -5.4699168535,
				"element": "F" 
			},
			{
				"x": 4.0200933482,
				"y": -2.4803351525,
				"z": -3.9381163265,
				"element": "F" 
			},
			{
				"x": 1.6209732367,
				"y": 2.7370064738,
				"z": -2.6638909254,
				"element": "C" 
			},
			{
				"x": 0.9703831443,
				"y": 3.5526128042,
				"z": -1.7610779865,
				"element": "C" 
			},
			{
				"x": 1.1150250842,
				"y": 4.934449592,
				"z": -2.0502551123,
				"element": "C" 
			},
			{
				"x": 1.8731971999,
				"y": 5.165863582,
				"z": -3.1695211258,
				"element": "C" 
			},
			{
				"x": 2.4250275288,
				"y": 3.6943816106,
				"z": -3.8912016294,
				"element": "S" 
			},
			{
				"x": 0.4373900588,
				"y": -1.5792348669,
				"z": -0.680122046,
				"element": "C" 
			},
			{
				"x": -0.316690213,
				"y": -1.474954665,
				"z": 0.4566349414,
				"element": "N" 
			},
			{
				"x": -0.6165478232,
				"y": -0.2994776926,
				"z": 0.8404023695,
				"element": "N" 
			},
			{
				"x": -1.4011840395,
				"y": -0.2594209591,
				"z": 2.0169963881,
				"element": "C" 
			},
			{
				"x": -1.9172968393,
				"y": -1.3792460508,
				"z": 2.6967478315,
				"element": "C" 
			},
			{
				"x": -2.6853138329,
				"y": -1.2126400093,
				"z": 3.8455789815,
				"element": "C" 
			},
			{
				"x": -2.9575876797,
				"y": 0.0636182573,
				"z": 4.3434679908,
				"element": "C" 
			},
			{
				"x": -2.4414322469,
				"y": 1.16088079,
				"z": 3.6564526457,
				"element": "C" 
			},
			{
				"x": -1.6734174873,
				"y": 1.0243962234,
				"z": 2.5053431023,
				"element": "C" 
			},
			{
				"x": -2.7210082101,
				"y": 2.5145365024,
				"z": 4.1657606735,
				"element": "N" 
			},
			{
				"x": -2.2578810037,
				"y": 3.4681732359,
				"z": 3.5413526425,
				"element": "O" 
			},
			{
				"x": -3.401892481,
				"y": 2.6106576801,
				"z": 5.1866766859,
				"element": "O" 
			},
			{
				"x": 0.1035366472,
				"y": -4.0377897151,
				"z": 0.2697895459,
				"element": "H" 
			},
			{
				"x": 0.9978749608,
				"y": -4.8675424416,
				"z": -0.9536344644,
				"element": "H" 
			},
			{
				"x": 2.8983552432,
				"y": 0.9990656947,
				"z": -4.4329032029,
				"element": "H" 
			},
			{
				"x": 0.4142812363,
				"y": 3.1437635762,
				"z": -0.9267713803,
				"element": "H" 
			},
			{
				"x": 0.6760972491,
				"y": 5.7262490692,
				"z": -1.4546332515,
				"element": "H" 
			},
			{
				"x": 2.1414271437,
				"y": 6.1141606354,
				"z": -3.6145248863,
				"element": "H" 
			},
			{
				"x": -1.7066128584,
				"y": -2.3671752986,
				"z": 2.3045191004,
				"element": "H" 
			},
			{
				"x": -3.0808799812,
				"y": -2.0821227254,
				"z": 4.3618469996,
				"element": "H" 
			},
			{
				"x": -3.552514445,
				"y": 0.2207306809,
				"z": 5.2339413131,
				"element": "H" 
			},
			{
				"x": -1.2862612536,
				"y": 1.8928082542,
				"z": 1.9888781783,
				"element": "H" 
			}
		],
		 "valence_orbital": [ 
			{
				"type": "occ",
				"energy": -0.26906,
				"method": "rhf"
			},
			{
				"type": "occ",
				"energy": -0.26843,
				"method": "rhf"
			},
			{
				"type": "occ",
				"energy": -0.23071,
				"method": "rhf"
			},
			{
				"type": "occ",
				"energy": -0.22789,
				"method": "rhf"
			},
			{
				"type": "occ",
				"energy": -0.21709,
				"method": "rhf"
			},
			{
				"type": "unocc",
				"energy": -0.09666,
				"method": "rhf"
			},
			{
				"type": "unocc",
				"energy": -0.0849,
				"method": "rhf"
			},
			{
				"type": "unocc",
				"energy": -0.07192,
				"method": "rhf"
			},
			{
				"type": "unocc",
				"energy": -0.04055,
				"method": "rhf"
			},
			{
				"type": "unocc",
				"energy": -0.00827,
				"method": "rhf"
			}
		],
		"cosmo_sigma_profile": { 
			"-0.025": 0.0,
			"-0.024": 0.0,
			"-0.023": 0.0,
			"-0.022": 0.0,
			"-0.021": 0.0,
			"-0.02": 0.0,
			"-0.019": 0.0,
			"-0.018": 0.0,
			"-0.017": 0.0,
			"-0.016": 0.0,
			"-0.015": 0.410655778274,
			"-0.014": 1.36310444764,
			"-0.013": 2.08063896617,
			"-0.012": 1.80813827874,
			"-0.011": 1.65947447827,
			"-0.01": 2.71714834241,
			"-0.009": 4.91134609793,
			"-0.008": 6.15058188432,
			"-0.007": 12.6043719175,
			"-0.006": 22.136068315,
			"-0.005": 20.3241642439,
			"-0.004": 22.3039709365,
			"-0.003": 23.1413923205,
			"-0.002": 26.7381749595,
			"-0.001": 26.0839542997,
			"0.0": 33.7459745609,
			"0.001": 51.7687367352,
			"0.002": 54.285465376,
			"0.003": 27.4826830466,
			"0.004": 14.5436597126,
			"0.005": 7.58093279104,
			"0.006": 8.67184536246,
			"0.007": 12.6708324609,
			"0.008": 11.7183351292,
			"0.009": 7.90272280547,
			"0.01": 5.24470874357,
			"0.011": 2.25242547188,
			"0.012": 1.48925161851,
			"0.013": 0.672070850493,
			"0.014": 0.643531504348,
			"0.015": 0.691921508826,
			"0.016": 0.577593309027,
			"0.017": 0.0107092435205,
			"0.018": 0.0,
			"0.019": 0.0,
			"0.02": 0.0,
			"0.021": 0.0,
			"0.022": 0.0,
			"0.023": 0.0,
			"0.024": 0.0,
			"0.025": 0.0
		}
	}
}
