{
	 "smiles": "CS(=O)(=O)N1CCCC(Cl)C1", 
	 "Tm": 328.15, 
	 "num_atms": 23, 
	 "gaussian": { 
		 "optdone": 1, 
		 "sigma_profile": "yes", 
		 "theory": "DFT", 
		 "functional": "B3LYP", 
		 "basiset": "6-31G**", 
		 "properties": { 
			 "R2extent": 2964.7109, 
			 "electric_dipole_moment_norm": 6.38234454805, 
			 "electric_quadrupole_moment_norm": 15.8989820237, 
			 "total_energy": -1299.38462271, 
			 "HOMO_LUMO_gap": 0.27434, 
			 "cosmo_polarized_energy": -18.66, 
			 "cosmo_cavitation_energy": 27.36, 
			 "cosmo_dispersion_energy": -20.35, 
			 "cosmo_repulsion_energy": 1.58, 
			 "cosmo_total_nonelectrostatic_energy": 8.6, 
			 "SMD_solvation_energy": 2.95 
		},
		"coords": [
			{
				"x": 2.3887495236,
				"y": 3.1367099419,
				"z": -1.5018540138,
				"element": "C" 
			},
			{
				"x": 0.8983141174,
				"y": 2.1732206344,
				"z": -1.8542817264,
				"element": "S" 
			},
			{
				"x": -0.231344347,
				"y": 3.1024140938,
				"z": -1.8112675513,
				"element": "O" 
			},
			{
				"x": 1.1877987376,
				"y": 1.3521274735,
				"z": -3.0298410259,
				"element": "O" 
			},
			{
				"x": 0.7078885009,
				"y": 1.1305888372,
				"z": -0.5568241388,
				"element": "N" 
			},
			{
				"x": 0.2132454084,
				"y": 1.681768099,
				"z": 0.7183428222,
				"element": "C" 
			},
			{
				"x": -0.0882028879,
				"y": 0.5222269628,
				"z": 1.690471887,
				"element": "C" 
			},
			{
				"x": -0.5373768024,
				"y": -0.7243314114,
				"z": 0.9153984588,
				"element": "C" 
			},
			{
				"x": 0.6344739576,
				"y": -1.2512432794,
				"z": 0.0763098183,
				"element": "C" 
			},
			{
				"x": 0.0062806312,
				"y": -2.3336886604,
				"z": -1.2552472539,
				"element": "Cl" 
			},
			{
				"x": 1.4961166355,
				"y": -0.0971854007,
				"z": -0.4847266611,
				"element": "C" 
			},
			{
				"x": 2.5164913156,
				"y": 3.8398292816,
				"z": -2.3266909611,
				"element": "H" 
			},
			{
				"x": 2.2562199952,
				"y": 3.6820267457,
				"z": -0.5659846326,
				"element": "H" 
			},
			{
				"x": 3.245948402,
				"y": 2.463537933,
				"z": -1.4477018695,
				"element": "H" 
			},
			{
				"x": -0.6944721686,
				"y": 2.2461604238,
				"z": 0.4971501349,
				"element": "H" 
			},
			{
				"x": 0.9389277632,
				"y": 2.3747101847,
				"z": 1.1740064145,
				"element": "H" 
			},
			{
				"x": 0.7990290736,
				"y": 0.2867659863,
				"z": 2.2913099544,
				"element": "H" 
			},
			{
				"x": -0.8631496657,
				"y": 0.8394901913,
				"z": 2.3947869349,
				"element": "H" 
			},
			{
				"x": -0.8967872869,
				"y": -1.5082723445,
				"z": 1.5876396107,
				"element": "H" 
			},
			{
				"x": -1.3622696769,
				"y": -0.4589231871,
				"z": 0.2476246092,
				"element": "H" 
			},
			{
				"x": 1.2736874576,
				"y": -1.9054054803,
				"z": 0.6735011338,
				"element": "H" 
			},
			{
				"x": 2.3677755796,
				"y": 0.0335399726,
				"z": 0.177828601,
				"element": "H" 
			},
			{
				"x": 1.8607557362,
				"y": -0.3389669977,
				"z": -1.4823505452,
				"element": "H" 
			}
		],
		 "valence_orbital": [ 
			{
				"type": "occ",
				"energy": -0.30268,
				"method": "rhf"
			},
			{
				"type": "occ",
				"energy": -0.30056,
				"method": "rhf"
			},
			{
				"type": "occ",
				"energy": -0.29639,
				"method": "rhf"
			},
			{
				"type": "occ",
				"energy": -0.29258,
				"method": "rhf"
			},
			{
				"type": "occ",
				"energy": -0.25859,
				"method": "rhf"
			},
			{
				"type": "unocc",
				"energy": 0.01575,
				"method": "rhf"
			},
			{
				"type": "unocc",
				"energy": 0.05228,
				"method": "rhf"
			},
			{
				"type": "unocc",
				"energy": 0.0724,
				"method": "rhf"
			},
			{
				"type": "unocc",
				"energy": 0.07563,
				"method": "rhf"
			},
			{
				"type": "unocc",
				"energy": 0.08978,
				"method": "rhf"
			}
		],
		"cosmo_sigma_profile": { 
			"-0.025": 0.0,
			"-0.024": 0.0,
			"-0.023": 0.0,
			"-0.022": 0.0,
			"-0.021": 0.0,
			"-0.02": 0.0,
			"-0.019": 0.0,
			"-0.018": 0.0,
			"-0.017": 0.0,
			"-0.016": 0.0,
			"-0.015": 0.0,
			"-0.014": 0.0,
			"-0.013": 0.0,
			"-0.012": 0.0,
			"-0.011": 0.0,
			"-0.01": 0.0,
			"-0.009": 0.590386983314,
			"-0.008": 6.85093023394,
			"-0.007": 13.5509601527,
			"-0.006": 16.2862229214,
			"-0.005": 20.2655270402,
			"-0.004": 26.6046627667,
			"-0.003": 19.0082124634,
			"-0.002": 12.8403706767,
			"-0.001": 9.33038577731,
			"0.0": 6.02236539303,
			"0.001": 5.31128823886,
			"0.002": 5.44664707539,
			"0.003": 7.39031407298,
			"0.004": 8.1914708803,
			"0.005": 9.56569483687,
			"0.006": 11.5102357958,
			"0.007": 8.51795152834,
			"0.008": 3.23153178735,
			"0.009": 3.43228742223,
			"0.01": 5.04531761891,
			"0.011": 9.59451380772,
			"0.012": 7.24721332718,
			"0.013": 0.331761859366,
			"0.014": 0.0,
			"0.015": 0.0,
			"0.016": 0.0,
			"0.017": 0.0,
			"0.018": 0.0,
			"0.019": 0.0,
			"0.02": 0.0,
			"0.021": 0.0,
			"0.022": 0.0,
			"0.023": 0.0,
			"0.024": 0.0,
			"0.025": 0.0
		}
	}
}
