{
	 "smiles": "OCC1OC(CC1O)N1C=NC2=C1N=CNC2=O", 
	 "Tm": 523.15, 
	 "num_atms": 30, 
	 "gaussian": { 
		 "optdone": 1, 
		 "sigma_profile": "yes", 
		 "theory": "DFT", 
		 "functional": "B3LYP", 
		 "basiset": "6-31G**", 
		 "properties": { 
			 "R2extent": 5205.8529, 
			 "electric_dipole_moment_norm": 6.07107196877, 
			 "electric_quadrupole_moment_norm": 31.4830700284, 
			 "total_energy": -908.183048939, 
			 "HOMO_LUMO_gap": 0.19156, 
			 "cosmo_polarized_energy": -30.22, 
			 "cosmo_cavitation_energy": 32.94, 
			 "cosmo_dispersion_energy": -24.17, 
			 "cosmo_repulsion_energy": 1.86, 
			 "cosmo_total_nonelectrostatic_energy": 10.62, 
			 "SMD_solvation_energy": 4.19 
		},
		"coords": [
			{
				"x": 2.0842360299,
				"y": -2.0074269276,
				"z": 2.499216982,
				"element": "O" 
			},
			{
				"x": 1.3422265428,
				"y": -1.6559231393,
				"z": 1.3414665677,
				"element": "C" 
			},
			{
				"x": 2.1368133964,
				"y": -1.9299821766,
				"z": 0.0570185761,
				"element": "C" 
			},
			{
				"x": 1.3018930627,
				"y": -1.7047232942,
				"z": -1.0951899042,
				"element": "O" 
			},
			{
				"x": 1.6969148606,
				"y": -0.5264951128,
				"z": -1.7913590387,
				"element": "C" 
			},
			{
				"x": 2.7340910339,
				"y": 0.1804207031,
				"z": -0.9122784065,
				"element": "C" 
			},
			{
				"x": 3.356264432,
				"y": -0.9972706572,
				"z": -0.1644008149,
				"element": "C" 
			},
			{
				"x": 4.0052027211,
				"y": -0.5511788191,
				"z": 1.0251974627,
				"element": "O" 
			},
			{
				"x": 0.5312969585,
				"y": 0.2703103998,
				"z": -2.1465475483,
				"element": "N" 
			},
			{
				"x": -0.0493207574,
				"y": 0.288944867,
				"z": -3.403861702,
				"element": "C" 
			},
			{
				"x": -1.1373404546,
				"y": 1.0112973816,
				"z": -3.4765900212,
				"element": "N" 
			},
			{
				"x": -1.3081080334,
				"y": 1.4926608394,
				"z": -2.1982793096,
				"element": "C" 
			},
			{
				"x": -0.2931663652,
				"y": 1.0435583692,
				"z": -1.3523301831,
				"element": "C" 
			},
			{
				"x": -0.1288886871,
				"y": 1.3146275107,
				"z": -0.025351394,
				"element": "N" 
			},
			{
				"x": -1.0660717068,
				"y": 2.0838615069,
				"z": 0.4521422064,
				"element": "C" 
			},
			{
				"x": -2.1052403197,
				"y": 2.5787249214,
				"z": -0.2774569193,
				"element": "N" 
			},
			{
				"x": -2.348469955,
				"y": 2.350650087,
				"z": -1.6731718296,
				"element": "C" 
			},
			{
				"x": -3.3143128522,
				"y": 2.8558305489,
				"z": -2.2149705827,
				"element": "O" 
			},
			{
				"x": 2.7867453204,
				"y": -1.3441202397,
				"z": 2.5542290284,
				"element": "H" 
			},
			{
				"x": 0.4460234541,
				"y": -2.2839188394,
				"z": 1.3239410237,
				"element": "H" 
			},
			{
				"x": 1.0078706142,
				"y": -0.6100160196,
				"z": 1.3599446916,
				"element": "H" 
			},
			{
				"x": 2.4353278975,
				"y": -2.9849428808,
				"z": 0.052586953,
				"element": "H" 
			},
			{
				"x": 2.135759586,
				"y": -0.8180545485,
				"z": -2.7555029202,
				"element": "H" 
			},
			{
				"x": 2.2450658859,
				"y": 0.8462297996,
				"z": -0.1984120034,
				"element": "H" 
			},
			{
				"x": 3.4551618854,
				"y": 0.7537782129,
				"z": -1.4987325085,
				"element": "H" 
			},
			{
				"x": 4.0812490429,
				"y": -1.506856727,
				"z": -0.8150007136,
				"element": "H" 
			},
			{
				"x": 4.6646960903,
				"y": -1.2137637943,
				"z": 1.2686379561,
				"element": "H" 
			},
			{
				"x": 0.3957639542,
				"y": -0.2585882676,
				"z": -4.2247014559,
				"element": "H" 
			},
			{
				"x": -1.0412091073,
				"y": 2.3662078756,
				"z": 1.501425736,
				"element": "H" 
			},
			{
				"x": -2.7947745303,
				"y": 3.1702584207,
				"z": 0.1715300719,
				"element": "H" 
			}
		],
		 "valence_orbital": [ 
			{
				"type": "occ",
				"energy": -0.27973,
				"method": "rhf"
			},
			{
				"type": "occ",
				"energy": -0.27409,
				"method": "rhf"
			},
			{
				"type": "occ",
				"energy": -0.26188,
				"method": "rhf"
			},
			{
				"type": "occ",
				"energy": -0.25224,
				"method": "rhf"
			},
			{
				"type": "occ",
				"energy": -0.22807,
				"method": "rhf"
			},
			{
				"type": "unocc",
				"energy": -0.03651,
				"method": "rhf"
			},
			{
				"type": "unocc",
				"energy": -0.0095,
				"method": "rhf"
			},
			{
				"type": "unocc",
				"energy": 0.02662,
				"method": "rhf"
			},
			{
				"type": "unocc",
				"energy": 0.03869,
				"method": "rhf"
			},
			{
				"type": "unocc",
				"energy": 0.06555,
				"method": "rhf"
			}
		],
		"cosmo_sigma_profile": { 
			"-0.025": 0.0,
			"-0.024": 0.0,
			"-0.023": 0.0,
			"-0.022": 0.0,
			"-0.021": 0.0,
			"-0.02": 0.0,
			"-0.019": 0.0,
			"-0.018": 0.0,
			"-0.017": 1.39907128583,
			"-0.016": 3.09373328252,
			"-0.015": 2.26951851758,
			"-0.014": 2.26294470321,
			"-0.013": 2.49140453192,
			"-0.012": 2.23363568957,
			"-0.011": 4.18568020608,
			"-0.01": 8.32252063041,
			"-0.009": 6.8453998012,
			"-0.008": 7.54253406769,
			"-0.007": 8.54474360129,
			"-0.006": 12.0350632309,
			"-0.005": 14.1688075587,
			"-0.004": 12.2005173643,
			"-0.003": 13.5158785225,
			"-0.002": 17.3032177675,
			"-0.001": 18.4596020203,
			"0.0": 13.5136808226,
			"0.001": 12.0505038511,
			"0.002": 9.67198276052,
			"0.003": 10.594849119,
			"0.004": 9.47123911,
			"0.005": 6.03637138211,
			"0.006": 5.68836812753,
			"0.007": 6.97511291634,
			"0.008": 5.46812339479,
			"0.009": 4.88493653701,
			"0.01": 5.28988496665,
			"0.011": 6.41093967984,
			"0.012": 9.05457294476,
			"0.013": 9.79272270741,
			"0.014": 5.13704891454,
			"0.015": 2.97107903662,
			"0.016": 0.814959463181,
			"0.017": 0.147547855456,
			"0.018": 0.0,
			"0.019": 0.0,
			"0.02": 0.0,
			"0.021": 0.0,
			"0.022": 0.0,
			"0.023": 0.0,
			"0.024": 0.0,
			"0.025": 0.0
		}
	}
}
