{
	 "smiles": "OC(=O)CNCC1=C(Cl)C=CC=C1F", 
	 "Tm": 458.15, 
	 "num_atms": 23, 
	 "gaussian": { 
		 "optdone": 1, 
		 "sigma_profile": "yes", 
		 "theory": "DFT", 
		 "functional": "B3LYP", 
		 "basiset": "6-31G**", 
		 "properties": { 
			 "R2extent": 3896.5345, 
			 "electric_dipole_moment_norm": 3.0714461138, 
			 "electric_quadrupole_moment_norm": 6.75432128493, 
			 "total_energy": -1113.60816006, 
			 "HOMO_LUMO_gap": 0.20751, 
			 "cosmo_polarized_energy": -13.89, 
			 "cosmo_cavitation_energy": 29.64, 
			 "cosmo_dispersion_energy": -21.07, 
			 "cosmo_repulsion_energy": 1.65, 
			 "cosmo_total_nonelectrostatic_energy": 10.22, 
			 "SMD_solvation_energy": 4.41 
		},
		"coords": [
			{
				"x": 2.9821793719,
				"y": -0.1855535456,
				"z": -0.702646659,
				"element": "O" 
			},
			{
				"x": 2.886235803,
				"y": -0.2598483523,
				"z": -2.0457153758,
				"element": "C" 
			},
			{
				"x": 3.8146263503,
				"y": -0.5750970048,
				"z": -2.758150929,
				"element": "O" 
			},
			{
				"x": 1.5108354508,
				"y": 0.106068047,
				"z": -2.5915401854,
				"element": "C" 
			},
			{
				"x": 0.4590889692,
				"y": 0.2414328717,
				"z": -1.6001438153,
				"element": "N" 
			},
			{
				"x": -0.0569579182,
				"y": -1.0456948137,
				"z": -1.1186927243,
				"element": "C" 
			},
			{
				"x": -1.1739091919,
				"y": -0.8485836172,
				"z": -0.1177706864,
				"element": "C" 
			},
			{
				"x": -1.0947078336,
				"y": -1.1345887013,
				"z": 1.2530762814,
				"element": "C" 
			},
			{
				"x": 0.3903101416,
				"y": -1.7762125367,
				"z": 1.943963048,
				"element": "Cl" 
			},
			{
				"x": -2.1727873955,
				"y": -0.9347064557,
				"z": 2.1192086048,
				"element": "C" 
			},
			{
				"x": -3.3721738717,
				"y": -0.4312466398,
				"z": 1.6201449606,
				"element": "C" 
			},
			{
				"x": -3.4992010791,
				"y": -0.128152019,
				"z": 0.2646205595,
				"element": "C" 
			},
			{
				"x": -2.4035522745,
				"y": -0.3457830468,
				"z": -0.5557826879,
				"element": "C" 
			},
			{
				"x": -2.5179538719,
				"y": -0.0462379331,
				"z": -1.8757197386,
				"element": "F" 
			},
			{
				"x": 3.8977852005,
				"y": -0.4356844218,
				"z": -0.4908928681,
				"element": "H" 
			},
			{
				"x": 1.6431686045,
				"y": 1.0701404902,
				"z": -3.0966087876,
				"element": "H" 
			},
			{
				"x": 1.306062993,
				"y": -0.6318319273,
				"z": -3.3880225892,
				"element": "H" 
			},
			{
				"x": -0.3079992282,
				"y": 0.7653292677,
				"z": -2.0102042999,
				"element": "H" 
			},
			{
				"x": 0.7638539305,
				"y": -1.5834342644,
				"z": -0.6424820581,
				"element": "H" 
			},
			{
				"x": -0.4327939219,
				"y": -1.6803072489,
				"z": -1.9421487921,
				"element": "H" 
			},
			{
				"x": -2.0642884981,
				"y": -1.172540827,
				"z": 3.1708378678,
				"element": "H" 
			},
			{
				"x": -4.2104246371,
				"y": -0.2732821173,
				"z": 2.2912062929,
				"element": "H" 
			},
			{
				"x": -4.4159970935,
				"y": 0.266314796,
				"z": -0.1584354185,
				"element": "H" 
			}
		],
		 "valence_orbital": [ 
			{
				"type": "occ",
				"energy": -0.31371,
				"method": "rhf"
			},
			{
				"type": "occ",
				"energy": -0.27522,
				"method": "rhf"
			},
			{
				"type": "occ",
				"energy": -0.26231,
				"method": "rhf"
			},
			{
				"type": "occ",
				"energy": -0.25341,
				"method": "rhf"
			},
			{
				"type": "occ",
				"energy": -0.23361,
				"method": "rhf"
			},
			{
				"type": "unocc",
				"energy": -0.0261,
				"method": "rhf"
			},
			{
				"type": "unocc",
				"energy": -0.01554,
				"method": "rhf"
			},
			{
				"type": "unocc",
				"energy": 0.01115,
				"method": "rhf"
			},
			{
				"type": "unocc",
				"energy": 0.02155,
				"method": "rhf"
			},
			{
				"type": "unocc",
				"energy": 0.07265,
				"method": "rhf"
			}
		],
		"cosmo_sigma_profile": { 
			"-0.025": 0.0,
			"-0.024": 0.0,
			"-0.023": 0.0,
			"-0.022": 0.0,
			"-0.021": 0.0,
			"-0.02": 0.0,
			"-0.019": 0.0429464802236,
			"-0.018": 0.762917996437,
			"-0.017": 0.830331701074,
			"-0.016": 0.789627529298,
			"-0.015": 0.986493645316,
			"-0.014": 1.04809796463,
			"-0.013": 0.303560057016,
			"-0.012": 0.279882589918,
			"-0.011": 0.832007229439,
			"-0.01": 1.5651444367,
			"-0.009": 1.39768488421,
			"-0.008": 5.32402607251,
			"-0.007": 9.97467200627,
			"-0.006": 11.0164441973,
			"-0.005": 14.3182004918,
			"-0.004": 16.3810389776,
			"-0.003": 16.6834153041,
			"-0.002": 14.421619427,
			"-0.001": 13.4603411449,
			"0.0": 15.3191323179,
			"0.001": 18.3624188597,
			"0.002": 20.5274153614,
			"0.003": 20.1633291895,
			"0.004": 16.5400058638,
			"0.005": 6.29956452746,
			"0.006": 4.24685268404,
			"0.007": 2.55914575309,
			"0.008": 2.15124855969,
			"0.009": 3.45575359971,
			"0.01": 3.03743035222,
			"0.011": 4.37515251274,
			"0.012": 5.95127755357,
			"0.013": 1.92204192839,
			"0.014": 0.708943357888,
			"0.015": 0.813643854296,
			"0.016": 0.592576199253,
			"0.017": 0.523690119998,
			"0.018": 0.0214776666349,
			"0.019": 0.0,
			"0.02": 0.0,
			"0.021": 0.0,
			"0.022": 0.0,
			"0.023": 0.0,
			"0.024": 0.0,
			"0.025": 0.0
		}
	}
}
