{
	 "smiles": "NC1=CC=CC(=C1)C1=CN=CO1", 
	 "Tm": 366.65, 
	 "num_atms": 20, 
	 "gaussian": { 
		 "optdone": 1, 
		 "sigma_profile": "yes", 
		 "theory": "DFT", 
		 "functional": "B3LYP", 
		 "basiset": "6-31G**", 
		 "properties": { 
			 "R2extent": 3206.373, 
			 "electric_dipole_moment_norm": 2.92746968729, 
			 "electric_quadrupole_moment_norm": 9.90298820912, 
			 "total_energy": -532.492915532, 
			 "HOMO_LUMO_gap": 0.17112, 
			 "cosmo_polarized_energy": -12.08, 
			 "cosmo_cavitation_energy": 24.57, 
			 "cosmo_dispersion_energy": -18.34, 
			 "cosmo_repulsion_energy": 1.43, 
			 "cosmo_total_nonelectrostatic_energy": 7.67, 
			 "SMD_solvation_energy": 3.47 
		},
		"coords": [
			{
				"x": -2.3639494817,
				"y": 0.8945729667,
				"z": 1.5974636473,
				"element": "N" 
			},
			{
				"x": -1.9935275763,
				"y": -0.3824276133,
				"z": 1.1720966579,
				"element": "C" 
			},
			{
				"x": -2.7958080285,
				"y": -1.4980943664,
				"z": 1.4749336616,
				"element": "C" 
			},
			{
				"x": -2.4475112611,
				"y": -2.7586231144,
				"z": 0.998566147,
				"element": "C" 
			},
			{
				"x": -1.3081999904,
				"y": -2.9456282181,
				"z": 0.217945975,
				"element": "C" 
			},
			{
				"x": -0.4989720925,
				"y": -1.8402036784,
				"z": -0.0926040237,
				"element": "C" 
			},
			{
				"x": -0.8472220887,
				"y": -0.5686539824,
				"z": 0.3881544044,
				"element": "C" 
			},
			{
				"x": 0.6997915437,
				"y": -1.9989692267,
				"z": -0.9066208339,
				"element": "C" 
			},
			{
				"x": 1.6580628303,
				"y": -1.1577699939,
				"z": -1.4007439155,
				"element": "C" 
			},
			{
				"x": 2.5911243164,
				"y": -1.877818739,
				"z": -2.1320155997,
				"element": "N" 
			},
			{
				"x": 2.1724299968,
				"y": -3.100918849,
				"z": -2.0555551018,
				"element": "C" 
			},
			{
				"x": 1.0361203252,
				"y": -3.2660316509,
				"z": -1.3342457383,
				"element": "O" 
			},
			{
				"x": -1.609854059,
				"y": 1.5647425247,
				"z": 1.6584843713,
				"element": "H" 
			},
			{
				"x": -2.9555713913,
				"y": 0.9189121586,
				"z": 2.4164685424,
				"element": "H" 
			},
			{
				"x": -3.6901485041,
				"y": -1.3675590493,
				"z": 2.0788719146,
				"element": "H" 
			},
			{
				"x": -3.0755682856,
				"y": -3.6108965271,
				"z": 1.2423128316,
				"element": "H" 
			},
			{
				"x": -1.0430943179,
				"y": -3.9300052095,
				"z": -0.1488695925,
				"element": "H" 
			},
			{
				"x": -0.2247823337,
				"y": 0.2898863429,
				"z": 0.1503506495,
				"element": "H" 
			},
			{
				"x": 1.7415347282,
				"y": -0.0873236123,
				"z": -1.2855867514,
				"element": "H" 
			},
			{
				"x": 2.6079456702,
				"y": -3.9899901621,
				"z": -2.4872072457,
				"element": "H" 
			}
		],
		 "valence_orbital": [ 
			{
				"type": "occ",
				"energy": -0.31601,
				"method": "rhf"
			},
			{
				"type": "occ",
				"energy": -0.28578,
				"method": "rhf"
			},
			{
				"type": "occ",
				"energy": -0.27778,
				"method": "rhf"
			},
			{
				"type": "occ",
				"energy": -0.22075,
				"method": "rhf"
			},
			{
				"type": "occ",
				"energy": -0.2048,
				"method": "rhf"
			},
			{
				"type": "unocc",
				"energy": -0.03368,
				"method": "rhf"
			},
			{
				"type": "unocc",
				"energy": 0.0081,
				"method": "rhf"
			},
			{
				"type": "unocc",
				"energy": 0.03149,
				"method": "rhf"
			},
			{
				"type": "unocc",
				"energy": 0.07347,
				"method": "rhf"
			},
			{
				"type": "unocc",
				"energy": 0.0849,
				"method": "rhf"
			}
		],
		"cosmo_sigma_profile": { 
			"-0.025": 0.0,
			"-0.024": 0.0,
			"-0.023": 0.0,
			"-0.022": 0.0,
			"-0.021": 0.0,
			"-0.02": 0.0,
			"-0.019": 0.0,
			"-0.018": 0.0,
			"-0.017": 0.0,
			"-0.016": 0.0,
			"-0.015": 0.0,
			"-0.014": 0.0,
			"-0.013": 0.339581235959,
			"-0.012": 2.59884950009,
			"-0.011": 4.12567308768,
			"-0.01": 4.5475844141,
			"-0.009": 5.32763640067,
			"-0.008": 7.01036004161,
			"-0.007": 6.71805503694,
			"-0.006": 7.85802315017,
			"-0.005": 10.2715853188,
			"-0.004": 9.43447822562,
			"-0.003": 9.50698328127,
			"-0.002": 9.08914169185,
			"-0.001": 10.4668693461,
			"0.0": 10.8159121211,
			"0.001": 13.2096273963,
			"0.002": 15.8834202243,
			"0.003": 14.7691411131,
			"0.004": 12.206781832,
			"0.005": 13.5361963312,
			"0.006": 10.903827593,
			"0.007": 3.75758003134,
			"0.008": 1.85742122817,
			"0.009": 1.82975116613,
			"0.01": 2.01716863432,
			"0.011": 2.04069690686,
			"0.012": 1.6348386422,
			"0.013": 2.15161741998,
			"0.014": 1.08850296141,
			"0.015": 1.63151525563,
			"0.016": 0.538344664888,
			"0.017": 0.0,
			"0.018": 0.0,
			"0.019": 0.0,
			"0.02": 0.0,
			"0.021": 0.0,
			"0.022": 0.0,
			"0.023": 0.0,
			"0.024": 0.0,
			"0.025": 0.0
		}
	}
}
