{
	 "smiles": "CC1=CC=C(O1)C(C1=CC=C(C)O1)C1=CC=CC=C1C#N", 
	 "Tm": 360.15, 
	 "num_atms": 36, 
	 "gaussian": { 
		 "optdone": 1, 
		 "sigma_profile": "yes", 
		 "theory": "DFT", 
		 "functional": "B3LYP", 
		 "basiset": "6-31G**", 
		 "properties": { 
			 "R2extent": 6105.1128, 
			 "electric_dipole_moment_norm": 4.45720010881, 
			 "electric_quadrupole_moment_norm": 17.3624421727, 
			 "total_energy": -900.108475307, 
			 "HOMO_LUMO_gap": 0.15987, 
			 "cosmo_polarized_energy": -12.05, 
			 "cosmo_cavitation_energy": 41.78, 
			 "cosmo_dispersion_energy": -27.05, 
			 "cosmo_repulsion_energy": 2.14, 
			 "cosmo_total_nonelectrostatic_energy": 16.86, 
			 "SMD_solvation_energy": 9.25 
		},
		"coords": [
			{
				"x": 2.4079107897,
				"y": -1.4362754597,
				"z": 2.9226975735,
				"element": "C" 
			},
			{
				"x": 2.0578502892,
				"y": -0.1633745913,
				"z": 2.2357438117,
				"element": "C" 
			},
			{
				"x": 2.2875594906,
				"y": 1.1522151955,
				"z": 2.5092971467,
				"element": "C" 
			},
			{
				"x": 1.6903552254,
				"y": 1.9054455679,
				"z": 1.4445950645,
				"element": "C" 
			},
			{
				"x": 1.1372862411,
				"y": 0.9979476731,
				"z": 0.591705428,
				"element": "C" 
			},
			{
				"x": 1.3537301909,
				"y": -0.2702218737,
				"z": 1.0632527566,
				"element": "O" 
			},
			{
				"x": 0.3696781412,
				"y": 1.1618981112,
				"z": -0.6932315968,
				"element": "C" 
			},
			{
				"x": 1.044575039,
				"y": 0.5392835348,
				"z": -1.8865784764,
				"element": "C" 
			},
			{
				"x": 1.5294090469,
				"y": 1.0753589516,
				"z": -3.0417443138,
				"element": "C" 
			},
			{
				"x": 2.0540332646,
				"y": -0.0173601495,
				"z": -3.8087720706,
				"element": "C" 
			},
			{
				"x": 1.8527810936,
				"y": -1.1462511682,
				"z": -3.0715292699,
				"element": "C" 
			},
			{
				"x": 2.1609640107,
				"y": -2.5864031688,
				"z": -3.2853301088,
				"element": "C" 
			},
			{
				"x": 1.2347903124,
				"y": -0.8175612204,
				"z": -1.8917383402,
				"element": "O" 
			},
			{
				"x": -1.0963060977,
				"y": 0.7277437909,
				"z": -0.5589757725,
				"element": "C" 
			},
			{
				"x": -1.4358444623,
				"y": -0.6035597537,
				"z": -0.2914831811,
				"element": "C" 
			},
			{
				"x": -2.7679641493,
				"y": -0.9963892229,
				"z": -0.1705473871,
				"element": "C" 
			},
			{
				"x": -3.7990722848,
				"y": -0.0644474741,
				"z": -0.3145634429,
				"element": "C" 
			},
			{
				"x": -3.4894569988,
				"y": 1.2636925713,
				"z": -0.5805405339,
				"element": "C" 
			},
			{
				"x": -2.1456798516,
				"y": 1.6624607994,
				"z": -0.7030628212,
				"element": "C" 
			},
			{
				"x": -1.8667595486,
				"y": 3.0432039799,
				"z": -0.9782795216,
				"element": "C" 
			},
			{
				"x": -1.6433471865,
				"y": 4.1636348352,
				"z": -1.2014227331,
				"element": "N" 
			},
			{
				"x": 1.5124159919,
				"y": -2.0076868661,
				"z": 3.1939487402,
				"element": "H" 
			},
			{
				"x": 2.9652060484,
				"y": -1.2215405864,
				"z": 3.8374599058,
				"element": "H" 
			},
			{
				"x": 3.0276106436,
				"y": -2.0793425661,
				"z": 2.2869249568,
				"element": "H" 
			},
			{
				"x": 2.8197579484,
				"y": 1.5402262227,
				"z": 3.3662452076,
				"element": "H" 
			},
			{
				"x": 1.6732667133,
				"y": 2.9800488014,
				"z": 1.3298096385,
				"element": "H" 
			},
			{
				"x": 0.3797477708,
				"y": 2.2370000246,
				"z": -0.8925681698,
				"element": "H" 
			},
			{
				"x": 1.5133060154,
				"y": 2.1211065779,
				"z": -3.3144734184,
				"element": "H" 
			},
			{
				"x": 2.5212006633,
				"y": 0.0318274338,
				"z": -4.7821597823,
				"element": "H" 
			},
			{
				"x": 2.8291276757,
				"y": -2.9746727749,
				"z": -2.5077787252,
				"element": "H" 
			},
			{
				"x": 2.6495021995,
				"y": -2.7201144585,
				"z": -4.2532824674,
				"element": "H" 
			},
			{
				"x": 1.2520806549,
				"y": -3.1994042178,
				"z": -3.2733386472,
				"element": "H" 
			},
			{
				"x": -0.6422924892,
				"y": -1.3324092503,
				"z": -0.1784114026,
				"element": "H" 
			},
			{
				"x": -3.002277444,
				"y": -2.0364178423,
				"z": 0.0373614775,
				"element": "H" 
			},
			{
				"x": -4.8360381842,
				"y": -0.3711264299,
				"z": -0.2201849784,
				"element": "H" 
			},
			{
				"x": -4.2735067634,
				"y": 2.0046650036,
				"z": -0.6962445461,
				"element": "H" 
			}
		],
		 "valence_orbital": [ 
			{
				"type": "occ",
				"energy": -0.27123,
				"method": "rhf"
			},
			{
				"type": "occ",
				"energy": -0.26446,
				"method": "rhf"
			},
			{
				"type": "occ",
				"energy": -0.25972,
				"method": "rhf"
			},
			{
				"type": "occ",
				"energy": -0.21799,
				"method": "rhf"
			},
			{
				"type": "occ",
				"energy": -0.20642,
				"method": "rhf"
			},
			{
				"type": "unocc",
				"energy": -0.04655,
				"method": "rhf"
			},
			{
				"type": "unocc",
				"energy": -0.02054,
				"method": "rhf"
			},
			{
				"type": "unocc",
				"energy": 0.00782,
				"method": "rhf"
			},
			{
				"type": "unocc",
				"energy": 0.03164,
				"method": "rhf"
			},
			{
				"type": "unocc",
				"energy": 0.03732,
				"method": "rhf"
			}
		],
		"cosmo_sigma_profile": { 
			"-0.025": 0.0,
			"-0.024": 0.0,
			"-0.023": 0.0,
			"-0.022": 0.0,
			"-0.021": 0.0,
			"-0.02": 0.0,
			"-0.019": 0.0,
			"-0.018": 0.0,
			"-0.017": 0.0,
			"-0.016": 0.0,
			"-0.015": 0.0,
			"-0.014": 0.0,
			"-0.013": 0.0,
			"-0.012": 0.0,
			"-0.011": 0.0,
			"-0.01": 0.0,
			"-0.009": 0.0,
			"-0.008": 1.356018448,
			"-0.007": 8.49106146225,
			"-0.006": 18.8273352258,
			"-0.005": 26.9186490131,
			"-0.004": 26.9376411616,
			"-0.003": 26.5272476291,
			"-0.002": 26.9428243337,
			"-0.001": 32.9041148463,
			"0.0": 24.5975784783,
			"0.001": 18.9812645066,
			"0.002": 25.4358042125,
			"0.003": 30.0095286682,
			"0.004": 18.7691366041,
			"0.005": 13.6951570536,
			"0.006": 12.2189433773,
			"0.007": 4.26535307376,
			"0.008": 4.20024780401,
			"0.009": 3.77500771025,
			"0.01": 3.76376059216,
			"0.011": 2.92702328254,
			"0.012": 2.34512836884,
			"0.013": 1.531944773,
			"0.014": 0.0288404359632,
			"0.015": 0.0,
			"0.016": 0.0,
			"0.017": 0.0,
			"0.018": 0.0,
			"0.019": 0.0,
			"0.02": 0.0,
			"0.021": 0.0,
			"0.022": 0.0,
			"0.023": 0.0,
			"0.024": 0.0,
			"0.025": 0.0
		}
	}
}
