{
	 "smiles": "CC1=CC=C(OC2=C(C#N)C(F)=CC=C2)C=C1", 
	 "Tm": 367.15, 
	 "num_atms": 27, 
	 "gaussian": { 
		 "optdone": 1, 
		 "sigma_profile": "yes", 
		 "theory": "DFT", 
		 "functional": "B3LYP", 
		 "basiset": "6-31G**", 
		 "properties": { 
			 "R2extent": 5294.3377, 
			 "electric_dipole_moment_norm": 6.92063146107, 
			 "electric_quadrupole_moment_norm": 22.0487733146, 
			 "total_energy": -769.304014201, 
			 "HOMO_LUMO_gap": 0.19587, 
			 "cosmo_polarized_energy": -11.52, 
			 "cosmo_cavitation_energy": 33.55, 
			 "cosmo_dispersion_energy": -23.06, 
			 "cosmo_repulsion_energy": 1.78, 
			 "cosmo_total_nonelectrostatic_energy": 12.26, 
			 "SMD_solvation_energy": 7.76 
		},
		"coords": [
			{
				"x": -2.7573486645,
				"y": 2.7486520719,
				"z": 3.2714278671,
				"element": "C" 
			},
			{
				"x": -1.7726855589,
				"y": 1.9797951978,
				"z": 2.4219011831,
				"element": "C" 
			},
			{
				"x": -0.7183542809,
				"y": 1.2661458085,
				"z": 3.0087195421,
				"element": "C" 
			},
			{
				"x": 0.2148034416,
				"y": 0.5806224112,
				"z": 2.2308228628,
				"element": "C" 
			},
			{
				"x": 0.0899516626,
				"y": 0.6059447435,
				"z": 0.8438731996,
				"element": "C" 
			},
			{
				"x": 1.061583437,
				"y": -0.0129067309,
				"z": 0.0564747443,
				"element": "O" 
			},
			{
				"x": 0.901101418,
				"y": -1.3092266971,
				"z": -0.3261158169,
				"element": "C" 
			},
			{
				"x": 1.9419148305,
				"y": -1.838323949,
				"z": -1.124894356,
				"element": "C" 
			},
			{
				"x": 3.0722751882,
				"y": -1.0478803448,
				"z": -1.4918037364,
				"element": "C" 
			},
			{
				"x": 3.9982402291,
				"y": -0.4141959799,
				"z": -1.7974325139,
				"element": "N" 
			},
			{
				"x": 1.8369462645,
				"y": -3.1694112516,
				"z": -1.5521234121,
				"element": "C" 
			},
			{
				"x": 2.8245812878,
				"y": -3.6684676846,
				"z": -2.3090136114,
				"element": "F" 
			},
			{
				"x": 0.7581175723,
				"y": -3.975440346,
				"z": -1.2209407911,
				"element": "C" 
			},
			{
				"x": -0.2526438274,
				"y": -3.4255843756,
				"z": -0.4319524574,
				"element": "C" 
			},
			{
				"x": -0.1939464165,
				"y": -2.1060014739,
				"z": 0.0179399437,
				"element": "C" 
			},
			{
				"x": -0.9458419977,
				"y": 1.3057789412,
				"z": 0.2295524163,
				"element": "C" 
			},
			{
				"x": -1.869768658,
				"y": 1.9854547344,
				"z": 1.0233577494,
				"element": "C" 
			},
			{
				"x": -2.4144968848,
				"y": 3.7768782039,
				"z": 3.4411394718,
				"element": "H" 
			},
			{
				"x": -2.8879085116,
				"y": 2.2838327461,
				"z": 4.2531287229,
				"element": "H" 
			},
			{
				"x": -3.7387800333,
				"y": 2.808848729,
				"z": 2.7917878395,
				"element": "H" 
			},
			{
				"x": -0.6217461969,
				"y": 1.2480704679,
				"z": 4.091161607,
				"element": "H" 
			},
			{
				"x": 1.03675662,
				"y": 0.0370168869,
				"z": 2.6851908088,
				"element": "H" 
			},
			{
				"x": 0.7248646893,
				"y": -4.998184298,
				"z": -1.5767166666,
				"element": "H" 
			},
			{
				"x": -1.1070191013,
				"y": -4.0377013322,
				"z": -0.1599449447,
				"element": "H" 
			},
			{
				"x": -0.9870602354,
				"y": -1.695110426,
				"z": 0.6296084627,
				"element": "H" 
			},
			{
				"x": -1.0154413194,
				"y": 1.319224645,
				"z": -0.8532879191,
				"element": "H" 
			},
			{
				"x": -2.6780949543,
				"y": 2.5327693023,
				"z": 0.5454398043,
				"element": "H" 
			}
		],
		 "valence_orbital": [ 
			{
				"type": "occ",
				"energy": -0.32488,
				"method": "rhf"
			},
			{
				"type": "occ",
				"energy": -0.26864,
				"method": "rhf"
			},
			{
				"type": "occ",
				"energy": -0.26162,
				"method": "rhf"
			},
			{
				"type": "occ",
				"energy": -0.25057,
				"method": "rhf"
			},
			{
				"type": "occ",
				"energy": -0.24629,
				"method": "rhf"
			},
			{
				"type": "unocc",
				"energy": -0.05042,
				"method": "rhf"
			},
			{
				"type": "unocc",
				"energy": -0.01785,
				"method": "rhf"
			},
			{
				"type": "unocc",
				"energy": -0.01414,
				"method": "rhf"
			},
			{
				"type": "unocc",
				"energy": -0.01033,
				"method": "rhf"
			},
			{
				"type": "unocc",
				"energy": 0.03828,
				"method": "rhf"
			}
		],
		"cosmo_sigma_profile": { 
			"-0.025": 0.0,
			"-0.024": 0.0,
			"-0.023": 0.0,
			"-0.022": 0.0,
			"-0.021": 0.0,
			"-0.02": 0.0,
			"-0.019": 0.0,
			"-0.018": 0.0,
			"-0.017": 0.0,
			"-0.016": 0.0,
			"-0.015": 0.0,
			"-0.014": 0.0,
			"-0.013": 0.0,
			"-0.012": 0.0,
			"-0.011": 0.0,
			"-0.01": 0.0,
			"-0.009": 0.131753819558,
			"-0.008": 3.299613739,
			"-0.007": 8.17025350104,
			"-0.006": 13.0971371097,
			"-0.005": 14.4701282324,
			"-0.004": 20.6812620133,
			"-0.003": 18.2586684807,
			"-0.002": 23.4197157377,
			"-0.001": 30.3901181312,
			"0.0": 27.9743207371,
			"0.001": 18.4090452993,
			"0.002": 22.6053682246,
			"0.003": 22.6128434615,
			"0.004": 14.311272334,
			"0.005": 5.91218144108,
			"0.006": 5.08079072998,
			"0.007": 5.30498379671,
			"0.008": 3.69236009411,
			"0.009": 3.52561661649,
			"0.01": 3.09346501486,
			"0.011": 2.61390671326,
			"0.012": 2.32002653779,
			"0.013": 1.14839495604,
			"0.014": 0.0104140647007,
			"0.015": 0.0,
			"0.016": 0.0,
			"0.017": 0.0,
			"0.018": 0.0,
			"0.019": 0.0,
			"0.02": 0.0,
			"0.021": 0.0,
			"0.022": 0.0,
			"0.023": 0.0,
			"0.024": 0.0,
			"0.025": 0.0
		}
	}
}
