{
	 "smiles": "[O-][N+](=O)C1=CC=CC=C1NC(=O)C(F)(F)C(F)(F)C(F)(F)C(F)(F)C(F)(F)C(F)(F)C(F)(F)C(F)(F)F", 
	 "Tm": 367.15, 
	 "num_atms": 42, 
	 "gaussian": { 
		 "optdone": 1, 
		 "sigma_profile": "yes", 
		 "theory": "DFT", 
		 "functional": "B3LYP", 
		 "basiset": "6-31G**", 
		 "properties": { 
			 "R2extent": 21654.9536, 
			 "electric_dipole_moment_norm": 5.17581903953, 
			 "electric_quadrupole_moment_norm": 24.160035184, 
			 "total_energy": -2606.88648788, 
			 "HOMO_LUMO_gap": 0.15339, 
			 "cosmo_polarized_energy": -11.35, 
			 "cosmo_cavitation_energy": 51.65, 
			 "cosmo_dispersion_energy": -34.18, 
			 "cosmo_repulsion_energy": 2.24, 
			 "cosmo_total_nonelectrostatic_energy": 19.71, 
			 "SMD_solvation_energy": 15.94 
		},
		"coords": [
			{
				"x": 1.6515080684,
				"y": -0.5326420285,
				"z": -4.244346192,
				"element": "O" 
			},
			{
				"x": 2.2048503864,
				"y": -1.5568123799,
				"z": -3.8138394184,
				"element": "N" 
			},
			{
				"x": 2.3341973815,
				"y": -2.581478897,
				"z": -4.4755432427,
				"element": "O" 
			},
			{
				"x": 2.7577172649,
				"y": -1.5406030642,
				"z": -2.4566708058,
				"element": "C" 
			},
			{
				"x": 3.7061326423,
				"y": -2.5276820328,
				"z": -2.1690264191,
				"element": "C" 
			},
			{
				"x": 4.3111320035,
				"y": -2.574435321,
				"z": -0.9225403875,
				"element": "C" 
			},
			{
				"x": 3.9672712115,
				"y": -1.6163942803,
				"z": 0.0358521293,
				"element": "C" 
			},
			{
				"x": 3.0276956051,
				"y": -0.6320760067,
				"z": -0.243844731,
				"element": "C" 
			},
			{
				"x": 2.3764642963,
				"y": -0.577550095,
				"z": -1.4877267741,
				"element": "C" 
			},
			{
				"x": 1.4351852435,
				"y": 0.413845003,
				"z": -1.7924525116,
				"element": "N" 
			},
			{
				"x": 0.5092782898,
				"y": 1.1239272563,
				"z": -1.0605077746,
				"element": "C" 
			},
			{
				"x": -0.0817852966,
				"y": 2.0683782642,
				"z": -1.5475163724,
				"element": "O" 
			},
			{
				"x": 0.1763029085,
				"y": 0.6861831302,
				"z": 0.3868697344,
				"element": "C" 
			},
			{
				"x": 1.0722566331,
				"y": 1.2774400802,
				"z": 1.2338422194,
				"element": "F" 
			},
			{
				"x": 0.2737213863,
				"y": -0.6631469517,
				"z": 0.5396368279,
				"element": "F" 
			},
			{
				"x": -1.2355862384,
				"y": 1.0941705305,
				"z": 0.9084055224,
				"element": "C" 
			},
			{
				"x": -1.2395454979,
				"y": 0.8173745962,
				"z": 2.2368216358,
				"element": "F" 
			},
			{
				"x": -1.4146457628,
				"y": 2.4169043204,
				"z": 0.7691008864,
				"element": "F" 
			},
			{
				"x": -2.42472722,
				"y": 0.3457759974,
				"z": 0.2004300498,
				"element": "C" 
			},
			{
				"x": -1.9985361471,
				"y": -0.0029100009,
				"z": -1.0414106418,
				"element": "F" 
			},
			{
				"x": -3.4457665835,
				"y": 1.2149402834,
				"z": 0.0626976847,
				"element": "F" 
			},
			{
				"x": -2.9710100231,
				"y": -0.9783293896,
				"z": 0.8728965819,
				"element": "C" 
			},
			{
				"x": -2.0140478523,
				"y": -1.569881986,
				"z": 1.6227086238,
				"element": "F" 
			},
			{
				"x": -3.28399568,
				"y": -1.8189903567,
				"z": -0.1411032143,
				"element": "F" 
			},
			{
				"x": -4.2876622642,
				"y": -0.8962075731,
				"z": 1.712649479,
				"element": "C" 
			},
			{
				"x": -4.60673898,
				"y": -2.1771204519,
				"z": 2.032167418,
				"element": "F" 
			},
			{
				"x": -5.2557818336,
				"y": -0.4128039235,
				"z": 0.9053145711,
				"element": "F" 
			},
			{
				"x": -4.3362870161,
				"y": -0.0650372064,
				"z": 3.0264282507,
				"element": "C" 
			},
			{
				"x": -5.6439861093,
				"y": 0.0812730306,
				"z": 3.3374845389,
				"element": "F" 
			},
			{
				"x": -3.8158702405,
				"y": 1.1615870075,
				"z": 2.7704913766,
				"element": "F" 
			},
			{
				"x": -3.6276037437,
				"y": -0.5942512743,
				"z": 4.3124911475,
				"element": "C" 
			},
			{
				"x": -2.2931836402,
				"y": -0.6423243559,
				"z": 4.1142117455,
				"element": "F" 
			},
			{
				"x": -3.8948909256,
				"y": 0.3313747978,
				"z": 5.2637690102,
				"element": "F" 
			},
			{
				"x": -4.0621697359,
				"y": -1.9757047456,
				"z": 4.881746937,
				"element": "C" 
			},
			{
				"x": -3.4479812543,
				"y": -2.9652778916,
				"z": 4.2241194862,
				"element": "F" 
			},
			{
				"x": -3.6995653518,
				"y": -2.0351621524,
				"z": 6.1690079614,
				"element": "F" 
			},
			{
				"x": -5.3867461674,
				"y": -2.1434193036,
				"z": 4.7987720828,
				"element": "F" 
			},
			{
				"x": 3.9488804352,
				"y": -3.2408041727,
				"z": -2.9464209783,
				"element": "H" 
			},
			{
				"x": 5.0514725969,
				"y": -3.336473481,
				"z": -0.7051133606,
				"element": "H" 
			},
			{
				"x": 4.4485209871,
				"y": -1.6218822859,
				"z": 1.008975233,
				"element": "H" 
			},
			{
				"x": 2.79918577,
				"y": 0.1168115851,
				"z": 0.5011749201,
				"element": "H" 
			},
			{
				"x": 1.3679404538,
				"y": 0.6190157256,
				"z": -2.7886032297,
				"element": "H" 
			}
		],
		 "valence_orbital": [ 
			{
				"type": "occ",
				"energy": -0.32674,
				"method": "rhf"
			},
			{
				"type": "occ",
				"energy": -0.31584,
				"method": "rhf"
			},
			{
				"type": "occ",
				"energy": -0.29634,
				"method": "rhf"
			},
			{
				"type": "occ",
				"energy": -0.29456,
				"method": "rhf"
			},
			{
				"type": "occ",
				"energy": -0.2623,
				"method": "rhf"
			},
			{
				"type": "unocc",
				"energy": -0.10891,
				"method": "rhf"
			},
			{
				"type": "unocc",
				"energy": -0.05798,
				"method": "rhf"
			},
			{
				"type": "unocc",
				"energy": -0.0244,
				"method": "rhf"
			},
			{
				"type": "unocc",
				"energy": -0.01398,
				"method": "rhf"
			},
			{
				"type": "unocc",
				"energy": 0.0054,
				"method": "rhf"
			}
		],
		"cosmo_sigma_profile": { 
			"-0.025": 0.0,
			"-0.024": 0.0,
			"-0.023": 0.0,
			"-0.022": 0.0,
			"-0.021": 0.0,
			"-0.02": 0.0,
			"-0.019": 0.0,
			"-0.018": 0.0,
			"-0.017": 0.0,
			"-0.016": 0.0,
			"-0.015": 0.0,
			"-0.014": 0.0,
			"-0.013": 0.0,
			"-0.012": 0.0,
			"-0.011": 0.0,
			"-0.01": 0.0,
			"-0.009": 0.466552245267,
			"-0.008": 6.29979700058,
			"-0.007": 12.2640045854,
			"-0.006": 13.4081650537,
			"-0.005": 12.4557612314,
			"-0.004": 16.7375944176,
			"-0.003": 16.8835186189,
			"-0.002": 24.8096133774,
			"-0.001": 39.8689382837,
			"0.0": 78.3918393682,
			"0.001": 120.334133284,
			"0.002": 27.6797531204,
			"0.003": 4.82957084271,
			"0.004": 5.05375568057,
			"0.005": 4.62660415817,
			"0.006": 5.89072480732,
			"0.007": 8.25083405893,
			"0.008": 6.20380316208,
			"0.009": 5.9435147029,
			"0.01": 4.36199898226,
			"0.011": 1.68001288277,
			"0.012": 0.0,
			"0.013": 0.0,
			"0.014": 0.0,
			"0.015": 0.0,
			"0.016": 0.0,
			"0.017": 0.0,
			"0.018": 0.0,
			"0.019": 0.0,
			"0.02": 0.0,
			"0.021": 0.0,
			"0.022": 0.0,
			"0.023": 0.0,
			"0.024": 0.0,
			"0.025": 0.0
		}
	}
}
