{
	 "smiles": "NC(=N)S(O)=O", 
	 "Tm": 399.15, 
	 "num_atms": 10, 
	 "gaussian": { 
		 "optdone": 1, 
		 "sigma_profile": "yes", 
		 "theory": "DFT", 
		 "functional": "B3LYP", 
		 "basiset": "6-31G**", 
		 "properties": { 
			 "R2extent": 1208.7515, 
			 "electric_dipole_moment_norm": 3.28257577064, 
			 "electric_quadrupole_moment_norm": 5.01274473717, 
			 "total_energy": -698.588624611, 
			 "HOMO_LUMO_gap": 0.21792, 
			 "cosmo_polarized_energy": -15.21, 
			 "cosmo_cavitation_energy": 15.89, 
			 "cosmo_dispersion_energy": -12.56, 
			 "cosmo_repulsion_energy": 1.05, 
			 "cosmo_total_nonelectrostatic_energy": 4.38, 
			 "SMD_solvation_energy": 1.35 
		},
		"coords": [
			{
				"x": 1.4086335545,
				"y": 1.1960484124,
				"z": -0.5487608858,
				"element": "N" 
			},
			{
				"x": 0.604738576,
				"y": 0.2359318734,
				"z": -1.105482205,
				"element": "C" 
			},
			{
				"x": -0.6275799825,
				"y": 0.3382886145,
				"z": -1.3650346965,
				"element": "N" 
			},
			{
				"x": 1.56047873,
				"y": -1.3122960156,
				"z": -1.6037296032,
				"element": "S" 
			},
			{
				"x": 2.0060794382,
				"y": -1.718241566,
				"z": -0.0235826054,
				"element": "O" 
			},
			{
				"x": 0.4589056711,
				"y": -2.1928505564,
				"z": -2.0903872285,
				"element": "O" 
			},
			{
				"x": 0.9125228118,
				"y": 1.9937431154,
				"z": -0.1706348178,
				"element": "H" 
			},
			{
				"x": 2.1761815932,
				"y": 0.8641214212,
				"z": 0.019872702,
				"element": "H" 
			},
			{
				"x": -0.9495901233,
				"y": -0.5044707487,
				"z": -1.8553528625,
				"element": "H" 
			},
			{
				"x": 1.1954297311,
				"y": -1.8956745502,
				"z": 0.4882922028,
				"element": "H" 
			}
		],
		 "valence_orbital": [ 
			{
				"type": "occ",
				"energy": -0.35627,
				"method": "rhf"
			},
			{
				"type": "occ",
				"energy": -0.31967,
				"method": "rhf"
			},
			{
				"type": "occ",
				"energy": -0.30281,
				"method": "rhf"
			},
			{
				"type": "occ",
				"energy": -0.26759,
				"method": "rhf"
			},
			{
				"type": "occ",
				"energy": -0.25461,
				"method": "rhf"
			},
			{
				"type": "unocc",
				"energy": -0.03669,
				"method": "rhf"
			},
			{
				"type": "unocc",
				"energy": 0.02393,
				"method": "rhf"
			},
			{
				"type": "unocc",
				"energy": 0.03712,
				"method": "rhf"
			},
			{
				"type": "unocc",
				"energy": 0.06932,
				"method": "rhf"
			},
			{
				"type": "unocc",
				"energy": 0.0726,
				"method": "rhf"
			}
		],
		"cosmo_sigma_profile": { 
			"-0.025": 0.0,
			"-0.024": 0.0,
			"-0.023": 0.0,
			"-0.022": 0.0,
			"-0.021": 0.0,
			"-0.02": 0.0,
			"-0.019": 0.366877707074,
			"-0.018": 1.1149820275,
			"-0.017": 0.982035834211,
			"-0.016": 0.706301489403,
			"-0.015": 0.677633448643,
			"-0.014": 2.59972130064,
			"-0.013": 2.74294384993,
			"-0.012": 3.04622320949,
			"-0.011": 3.3063026665,
			"-0.01": 3.09625768953,
			"-0.009": 2.88650267181,
			"-0.008": 3.02256861845,
			"-0.007": 4.1118419628,
			"-0.006": 4.37345948272,
			"-0.005": 4.41207015367,
			"-0.004": 5.23642749472,
			"-0.003": 5.70063775385,
			"-0.002": 5.87998703902,
			"-0.001": 8.54967831205,
			"0.0": 6.70609744993,
			"0.001": 5.2323366408,
			"0.002": 2.77379456998,
			"0.003": 4.20684979444,
			"0.004": 4.7319792207,
			"0.005": 3.88430845387,
			"0.006": 3.88610703239,
			"0.007": 4.85397715087,
			"0.008": 3.81231920251,
			"0.009": 4.24686786259,
			"0.01": 5.31163042441,
			"0.011": 5.1030642635,
			"0.012": 4.02724335384,
			"0.013": 2.19098589701,
			"0.014": 1.12420771224,
			"0.015": 1.20702775129,
			"0.016": 0.859545392916,
			"0.017": 0.0581727187156,
			"0.018": 0.0,
			"0.019": 0.0,
			"0.02": 0.0,
			"0.021": 0.0,
			"0.022": 0.0,
			"0.023": 0.0,
			"0.024": 0.0,
			"0.025": 0.0
		}
	}
}
