{
	 "smiles": "ClC1=CC=C(C=C1)C1=CC=CC=C1NC(=O)C1=CC=CN=C1Cl", 
	 "Tm": 416.45, 
	 "num_atms": 35, 
	 "gaussian": { 
		 "optdone": 1, 
		 "sigma_profile": "yes", 
		 "theory": "DFT", 
		 "functional": "B3LYP", 
		 "basiset": "6-31G**", 
		 "properties": { 
			 "R2extent": 9723.454, 
			 "electric_dipole_moment_norm": 4.58340376576, 
			 "electric_quadrupole_moment_norm": 21.8737004569, 
			 "total_energy": -1798.27453969, 
			 "HOMO_LUMO_gap": 0.17298, 
			 "cosmo_polarized_energy": -17.03, 
			 "cosmo_cavitation_energy": 44.1, 
			 "cosmo_dispersion_energy": -30.12, 
			 "cosmo_repulsion_energy": 2.33, 
			 "cosmo_total_nonelectrostatic_energy": 16.31, 
			 "SMD_solvation_energy": 5.73 
		},
		"coords": [
			{
				"x": -4.5161353532,
				"y": -1.5566829653,
				"z": 3.2210980064,
				"element": "Cl" 
			},
			{
				"x": -3.624947345,
				"y": -1.2787533189,
				"z": 1.7334897298,
				"element": "C" 
			},
			{
				"x": -2.4575267147,
				"y": -1.9996996831,
				"z": 1.4862843215,
				"element": "C" 
			},
			{
				"x": -1.7547956691,
				"y": -1.7723819241,
				"z": 0.3027598631,
				"element": "C" 
			},
			{
				"x": -2.1980746158,
				"y": -0.8274297544,
				"z": -0.6403047343,
				"element": "C" 
			},
			{
				"x": -3.3799017204,
				"y": -0.1208246951,
				"z": -0.3607545914,
				"element": "C" 
			},
			{
				"x": -4.0956648057,
				"y": -0.3406979195,
				"z": 0.8148975263,
				"element": "C" 
			},
			{
				"x": -1.4722897046,
				"y": -0.6037926532,
				"z": -1.9242119381,
				"element": "C" 
			},
			{
				"x": -2.157456262,
				"y": -0.784316872,
				"z": -3.133307126,
				"element": "C" 
			},
			{
				"x": -1.5279271662,
				"y": -0.6033991143,
				"z": -4.3629547749,
				"element": "C" 
			},
			{
				"x": -0.1846749665,
				"y": -0.230755662,
				"z": -4.3912014449,
				"element": "C" 
			},
			{
				"x": 0.5233952419,
				"y": -0.0261208751,
				"z": -3.2087318952,
				"element": "C" 
			},
			{
				"x": -0.113266435,
				"y": -0.203364909,
				"z": -1.9708240597,
				"element": "C" 
			},
			{
				"x": 0.5483013813,
				"y": 0.0494892589,
				"z": -0.7479079434,
				"element": "N" 
			},
			{
				"x": 1.8761462275,
				"y": 0.3377718795,
				"z": -0.5251452645,
				"element": "C" 
			},
			{
				"x": 2.7386773318,
				"y": 0.412675071,
				"z": -1.3861783605,
				"element": "O" 
			},
			{
				"x": 2.1783123946,
				"y": 0.6094838729,
				"z": 0.9311441232,
				"element": "C" 
			},
			{
				"x": 1.5347760639,
				"y": 1.6550466501,
				"z": 1.6011222641,
				"element": "C" 
			},
			{
				"x": 1.8822794504,
				"y": 1.9598561741,
				"z": 2.9166433605,
				"element": "C" 
			},
			{
				"x": 2.8707902812,
				"y": 1.1920366433,
				"z": 3.5248988901,
				"element": "C" 
			},
			{
				"x": 3.4884811712,
				"y": 0.173658609,
				"z": 2.9102964405,
				"element": "N" 
			},
			{
				"x": 3.1521884901,
				"y": -0.0966505086,
				"z": 1.6625322579,
				"element": "C" 
			},
			{
				"x": 3.9676091893,
				"y": -1.4718910559,
				"z": 0.9349312031,
				"element": "Cl" 
			},
			{
				"x": -2.1105300099,
				"y": -2.7367102524,
				"z": 2.2020887005,
				"element": "H" 
			},
			{
				"x": -0.8624889426,
				"y": -2.3571100109,
				"z": 0.0977201034,
				"element": "H" 
			},
			{
				"x": -3.7378188178,
				"y": 0.6167064511,
				"z": -1.0728397566,
				"element": "H" 
			},
			{
				"x": -5.0053289664,
				"y": 0.2125999365,
				"z": 1.020986409,
				"element": "H" 
			},
			{
				"x": -3.1973289926,
				"y": -1.0957636058,
				"z": -3.0954424526,
				"element": "H" 
			},
			{
				"x": -2.0784852319,
				"y": -0.7609423883,
				"z": -5.2851847678,
				"element": "H" 
			},
			{
				"x": 0.324460111,
				"y": -0.0922926223,
				"z": -5.3404840069,
				"element": "H" 
			},
			{
				"x": 1.5627571566,
				"y": 0.2689172853,
				"z": -3.2247492639,
				"element": "H" 
			},
			{
				"x": -0.0268723673,
				"y": -0.0430880512,
				"z": 0.0783436354,
				"element": "H" 
			},
			{
				"x": 0.7778866078,
				"y": 2.2357654121,
				"z": 1.0812030299,
				"element": "H" 
			},
			{
				"x": 1.4027260826,
				"y": 2.7721927676,
				"z": 3.4519556809,
				"element": "H" 
			},
			{
				"x": 3.1852269054,
				"y": 1.3900688299,
				"z": 4.5470268349,
				"element": "H" 
			}
		],
		 "valence_orbital": [ 
			{
				"type": "occ",
				"energy": -0.27224,
				"method": "rhf"
			},
			{
				"type": "occ",
				"energy": -0.27084,
				"method": "rhf"
			},
			{
				"type": "occ",
				"energy": -0.25965,
				"method": "rhf"
			},
			{
				"type": "occ",
				"energy": -0.24774,
				"method": "rhf"
			},
			{
				"type": "occ",
				"energy": -0.22724,
				"method": "rhf"
			},
			{
				"type": "unocc",
				"energy": -0.05426,
				"method": "rhf"
			},
			{
				"type": "unocc",
				"energy": -0.04248,
				"method": "rhf"
			},
			{
				"type": "unocc",
				"energy": -0.03805,
				"method": "rhf"
			},
			{
				"type": "unocc",
				"energy": -0.03077,
				"method": "rhf"
			},
			{
				"type": "unocc",
				"energy": -0.01401,
				"method": "rhf"
			}
		],
		"cosmo_sigma_profile": { 
			"-0.025": 0.0,
			"-0.024": 0.0,
			"-0.023": 0.0,
			"-0.022": 0.0,
			"-0.021": 0.0,
			"-0.02": 0.0,
			"-0.019": 0.0,
			"-0.018": 0.0,
			"-0.017": 0.0,
			"-0.016": 0.0,
			"-0.015": 0.0,
			"-0.014": 0.0,
			"-0.013": 0.0,
			"-0.012": 0.0,
			"-0.011": 0.53287998547,
			"-0.01": 1.59746002633,
			"-0.009": 3.01214260397,
			"-0.008": 9.24359608688,
			"-0.007": 15.1376186019,
			"-0.006": 20.4633310536,
			"-0.005": 21.3175839279,
			"-0.004": 19.8664844951,
			"-0.003": 21.6701324432,
			"-0.002": 22.1462961467,
			"-0.001": 25.4133375399,
			"0.0": 28.8959272189,
			"0.001": 32.2050867,
			"0.002": 29.9308201625,
			"0.003": 31.1330931352,
			"0.004": 28.2277995865,
			"0.005": 20.2605534956,
			"0.006": 6.46099920435,
			"0.007": 2.84932976475,
			"0.008": 2.50818303531,
			"0.009": 3.80304620624,
			"0.01": 3.27442596365,
			"0.011": 3.57283046658,
			"0.012": 4.0312319999,
			"0.013": 2.12882926039,
			"0.014": 0.544306653539,
			"0.015": 0.0363613107222,
			"0.016": 0.0,
			"0.017": 0.0,
			"0.018": 0.0,
			"0.019": 0.0,
			"0.02": 0.0,
			"0.021": 0.0,
			"0.022": 0.0,
			"0.023": 0.0,
			"0.024": 0.0,
			"0.025": 0.0
		}
	}
}
