{
	 "smiles": "NC(=S)NC1=CC=C(I)C=C1", 
	 "Tm": 457.15, 
	 "num_atms": 18, 
	 "gaussian": { 
		 "optdone": 1, 
		 "sigma_profile": "no", 
		 "theory": "DFT", 
		 "functional": "B3LYP", 
		 "basiset": "6-31G**", 
		 "properties": { 
			 "R2extent": 2811.5742, 
			 "electric_dipole_moment_norm": 3.55221047518, 
			 "electric_quadrupole_moment_norm": 23.4131201722, 
			 "total_energy": -790.055989874, 
			 "HOMO_LUMO_gap": 0.16365, 
			 "cosmo_polarized_energy": -104347.05, 
			 "cosmo_cavitation_energy": 27.24, 
			 "cosmo_dispersion_energy": -22.05, 
			 "cosmo_repulsion_energy": 1.71, 
			 "cosmo_total_nonelectrostatic_energy": 6.89, 
			 "SMD_solvation_energy": 2.88 
		},
		"coords": [
			{
				"x": 1.0028086259,
				"y": 1.0522832221,
				"z": 2.3241172278,
				"element": "N" 
			},
			{
				"x": -0.2421293949,
				"y": 0.5102819681,
				"z": 2.4130866189,
				"element": "C" 
			},
			{
				"x": -1.0959177347,
				"y": 0.4456249984,
				"z": 3.8567543519,
				"element": "S" 
			},
			{
				"x": -0.7841029316,
				"y": 0.0011024133,
				"z": 1.259809927,
				"element": "N" 
			},
			{
				"x": -0.2275953227,
				"y": -0.1365836712,
				"z": -0.0309775184,
				"element": "C" 
			},
			{
				"x": 1.1098317557,
				"y": -0.5071556584,
				"z": -0.242965352,
				"element": "C" 
			},
			{
				"x": 1.6019388151,
				"y": -0.6566476022,
				"z": -1.5398856554,
				"element": "C" 
			},
			{
				"x": 0.7564494921,
				"y": -0.4630558227,
				"z": -2.6329972511,
				"element": "C" 
			},
			{
				"x": 1.5052344288,
				"y": -0.6968840434,
				"z": -4.5997261269,
				"element": "I" 
			},
			{
				"x": -0.5837896157,
				"y": -0.1215128137,
				"z": -2.4353245005,
				"element": "C" 
			},
			{
				"x": -1.0670553476,
				"y": 0.0472022422,
				"z": -1.1405694096,
				"element": "C" 
			},
			{
				"x": 1.3633406217,
				"y": 1.3625806411,
				"z": 1.4318997954,
				"element": "H" 
			},
			{
				"x": 1.315358385,
				"y": 1.5427104551,
				"z": 3.1479422231,
				"element": "H" 
			},
			{
				"x": -1.7490594237,
				"y": -0.2761632877,
				"z": 1.3776697824,
				"element": "H" 
			},
			{
				"x": 1.7591876457,
				"y": -0.7093993858,
				"z": 0.6012396331,
				"element": "H" 
			},
			{
				"x": 2.6367068725,
				"y": -0.9447065422,
				"z": -1.6878035855,
				"element": "H" 
			},
			{
				"x": -1.2471297049,
				"y": 0.025285682,
				"z": -3.2801797014,
				"element": "H" 
			},
			{
				"x": -2.1039771666,
				"y": 0.3324372049,
				"z": -0.9865904588,
				"element": "H" 
			}
		],
		 "valence_orbital": [ 
			{
				"type": "occ",
				"energy": -0.28346,
				"method": "rhf"
			},
			{
				"type": "occ",
				"energy": -0.27847,
				"method": "rhf"
			},
			{
				"type": "occ",
				"energy": -0.24755,
				"method": "rhf"
			},
			{
				"type": "occ",
				"energy": -0.21719,
				"method": "rhf"
			},
			{
				"type": "occ",
				"energy": -0.21232,
				"method": "rhf"
			},
			{
				"type": "unocc",
				"energy": -0.04867,
				"method": "rhf"
			},
			{
				"type": "unocc",
				"energy": -0.04453,
				"method": "rhf"
			},
			{
				"type": "unocc",
				"energy": -0.03561,
				"method": "rhf"
			},
			{
				"type": "unocc",
				"energy": 0.00501,
				"method": "rhf"
			},
			{
				"type": "unocc",
				"energy": 0.03539,
				"method": "rhf"
			}
		],
		"cosmo_sigma_profile": { 
			"0.0": 0.0,
			"0.0": 0.0,
			"0.0": 0.0,
			"0.0": 0.0,
			"0.0": 0.0,
			"0.0": 0.0,
			"0.0": 0.0,
			"0.0": 0.0,
			"0.0": 0.0,
			"0.0": 0.0,
			"0.0": 0.0,
			"0.0": 0.0,
			"0.0": 0.0,
			"0.0": 0.0,
			"0.0": 0.0,
			"0.0": 0.0,
			"0.0": 0.0,
			"0.0": 0.0,
			"0.0": 0.0,
			"0.0": 0.0,
			"0.0": 0.0,
			"0.0": 0.0,
			"0.0": 0.0,
			"0.0": 0.0,
			"0.0": 0.0,
			"0.0": 0.0,
			"0.0": 0.0,
			"0.0": 0.0,
			"0.0": 0.0,
			"0.0": 0.0,
			"0.0": 0.0,
			"0.0": 0.0,
			"0.0": 0.0,
			"0.0": 0.0,
			"0.0": 0.0,
			"0.0": 0.0,
			"0.0": 0.0,
			"0.0": 0.0,
			"0.0": 0.0,
			"0.0": 0.0,
			"0.0": 0.0,
			"0.0": 0.0,
			"0.0": 0.0,
			"0.0": 0.0,
			"0.0": 0.0,
			"0.0": 0.0,
			"0.0": 0.0,
			"0.0": 0.0,
			"0.0": 0.0,
			"0.0": 0.0,
			"0.0": 0.0
		}
	}
}
