{
	 "smiles": "CC1=C(C)CC(Cl)(Cl)C(=O)C(Cl)(Cl)C1", 
	 "Tm": 364.15, 
	 "num_atms": 24, 
	 "gaussian": { 
		 "optdone": 1, 
		 "sigma_profile": "yes", 
		 "theory": "DFT", 
		 "functional": "B3LYP", 
		 "basiset": "6-31G**", 
		 "properties": { 
			 "R2extent": 5618.2415, 
			 "electric_dipole_moment_norm": 5.14141998382, 
			 "electric_quadrupole_moment_norm": 14.0754668033, 
			 "total_energy": -2264.93727995, 
			 "HOMO_LUMO_gap": 0.16986, 
			 "cosmo_polarized_energy": -10.12, 
			 "cosmo_cavitation_energy": 31.86, 
			 "cosmo_dispersion_energy": -22.78, 
			 "cosmo_repulsion_energy": 1.76, 
			 "cosmo_total_nonelectrostatic_energy": 10.85, 
			 "SMD_solvation_energy": 4.68 
		},
		"coords": [
			{
				"x": -1.5155284466,
				"y": 0.3008865896,
				"z": 0.6159492583,
				"element": "C" 
			},
			{
				"x": -0.0647041239,
				"y": 0.0327906847,
				"z": 0.9260437384,
				"element": "C" 
			},
			{
				"x": 0.8726525025,
				"y": 0.9676188575,
				"z": 1.1631335822,
				"element": "C" 
			},
			{
				"x": 0.6477116373,
				"y": 2.4583509692,
				"z": 1.1639251947,
				"element": "C" 
			},
			{
				"x": 2.295232755,
				"y": 0.5462165085,
				"z": 1.4857921569,
				"element": "C" 
			},
			{
				"x": 3.1062681441,
				"y": -0.0592605212,
				"z": 0.3284570081,
				"element": "C" 
			},
			{
				"x": 3.0783325246,
				"y": 1.0607977494,
				"z": -1.1077886931,
				"element": "Cl" 
			},
			{
				"x": 4.8176861095,
				"y": -0.2229457553,
				"z": 0.9043838974,
				"element": "Cl" 
			},
			{
				"x": 2.6876494357,
				"y": -1.4650258684,
				"z": -0.2349561326,
				"element": "C" 
			},
			{
				"x": 3.5109358105,
				"y": -2.1549698758,
				"z": -0.7696239912,
				"element": "O" 
			},
			{
				"x": 1.1991852894,
				"y": -1.9622117504,
				"z": -0.1527295476,
				"element": "C" 
			},
			{
				"x": 1.266416332,
				"y": -3.7668441084,
				"z": 0.0093683572,
				"element": "Cl" 
			},
			{
				"x": 0.464436353,
				"y": -1.5482887106,
				"z": -1.7673775651,
				"element": "Cl" 
			},
			{
				"x": 0.3046894718,
				"y": -1.4389001954,
				"z": 0.9829601107,
				"element": "C" 
			},
			{
				"x": -1.763625607,
				"y": 1.3618332921,
				"z": 0.5895482901,
				"element": "H" 
			},
			{
				"x": -2.160357927,
				"y": -0.1759901363,
				"z": 1.365780985,
				"element": "H" 
			},
			{
				"x": -1.7846066408,
				"y": -0.1332523119,
				"z": -0.3537864507,
				"element": "H" 
			},
			{
				"x": -0.3803289897,
				"y": 2.7411078495,
				"z": 0.9380357845,
				"element": "H" 
			},
			{
				"x": 0.9048446167,
				"y": 2.8822996163,
				"z": 2.1435500382,
				"element": "H" 
			},
			{
				"x": 1.3006482225,
				"y": 2.9428592185,
				"z": 0.4289866472,
				"element": "H" 
			},
			{
				"x": 2.8645206816,
				"y": 1.4105208076,
				"z": 1.834477607,
				"element": "H" 
			},
			{
				"x": 2.3233194133,
				"y": -0.1862172655,
				"z": 2.3028560537,
				"element": "H" 
			},
			{
				"x": -0.602297416,
				"y": -2.046734384,
				"z": 0.9580029201,
				"element": "H" 
			},
			{
				"x": 0.8138198515,
				"y": -1.6907412597,
				"z": 1.9222107506,
				"element": "H" 
			}
		],
		 "valence_orbital": [ 
			{
				"type": "occ",
				"energy": -0.314,
				"method": "rhf"
			},
			{
				"type": "occ",
				"energy": -0.31306,
				"method": "rhf"
			},
			{
				"type": "occ",
				"energy": -0.30748,
				"method": "rhf"
			},
			{
				"type": "occ",
				"energy": -0.28541,
				"method": "rhf"
			},
			{
				"type": "occ",
				"energy": -0.25618,
				"method": "rhf"
			},
			{
				"type": "unocc",
				"energy": -0.08632,
				"method": "rhf"
			},
			{
				"type": "unocc",
				"energy": -0.03337,
				"method": "rhf"
			},
			{
				"type": "unocc",
				"energy": -0.02583,
				"method": "rhf"
			},
			{
				"type": "unocc",
				"energy": 0.00074,
				"method": "rhf"
			},
			{
				"type": "unocc",
				"energy": 0.01888,
				"method": "rhf"
			}
		],
		"cosmo_sigma_profile": { 
			"-0.025": 0.0,
			"-0.024": 0.0,
			"-0.023": 0.0,
			"-0.022": 0.0,
			"-0.021": 0.0,
			"-0.02": 0.0,
			"-0.019": 0.0,
			"-0.018": 0.0,
			"-0.017": 0.0,
			"-0.016": 0.0140126297779,
			"-0.015": 0.316974367391,
			"-0.014": 0.508704883004,
			"-0.013": 0.372358381975,
			"-0.012": 0.54776074755,
			"-0.011": 1.13178979567,
			"-0.01": 1.09596485562,
			"-0.009": 1.79037231552,
			"-0.008": 1.85272347785,
			"-0.007": 3.51723746411,
			"-0.006": 8.0995033515,
			"-0.005": 12.1970564099,
			"-0.004": 16.1796551847,
			"-0.003": 20.4650493358,
			"-0.002": 22.3866141093,
			"-0.001": 23.6681533499,
			"0.0": 25.2769687777,
			"0.001": 20.5711416538,
			"0.002": 21.5902737306,
			"0.003": 28.7441209509,
			"0.004": 28.8565616366,
			"0.005": 4.75849977289,
			"0.006": 3.46919641773,
			"0.007": 2.97280589819,
			"0.008": 4.95381606111,
			"0.009": 3.84380012231,
			"0.01": 0.612944086685,
			"0.011": 0.0,
			"0.012": 0.0,
			"0.013": 0.0,
			"0.014": 0.0,
			"0.015": 0.0,
			"0.016": 0.0,
			"0.017": 0.0,
			"0.018": 0.0,
			"0.019": 0.0,
			"0.02": 0.0,
			"0.021": 0.0,
			"0.022": 0.0,
			"0.023": 0.0,
			"0.024": 0.0,
			"0.025": 0.0
		}
	}
}
