{
	 "smiles": "COC1=CC(F)=C(C=C1)C1=CC(=NO1)C(O)=O", 
	 "Tm": 468.15, 
	 "num_atms": 25, 
	 "gaussian": { 
		 "optdone": 1, 
		 "sigma_profile": "yes", 
		 "theory": "DFT", 
		 "functional": "B3LYP", 
		 "basiset": "6-31G**", 
		 "properties": { 
			 "R2extent": 6652.1293, 
			 "electric_dipole_moment_norm": 4.31986100934, 
			 "electric_quadrupole_moment_norm": 11.1660357321, 
			 "total_energy": -879.423959164, 
			 "HOMO_LUMO_gap": 0.16664, 
			 "cosmo_polarized_energy": -14.33, 
			 "cosmo_cavitation_energy": 31.61, 
			 "cosmo_dispersion_energy": -23.18, 
			 "cosmo_repulsion_energy": 1.76, 
			 "cosmo_total_nonelectrostatic_energy": 10.18, 
			 "SMD_solvation_energy": 7.72 
		},
		"coords": [
			{
				"x": -1.9927613951,
				"y": -3.1501348457,
				"z": 2.5467169153,
				"element": "C" 
			},
			{
				"x": -0.6151257899,
				"y": -2.7995278716,
				"z": 2.5015266408,
				"element": "O" 
			},
			{
				"x": -0.2573112719,
				"y": -1.6582407212,
				"z": 1.8627843172,
				"element": "C" 
			},
			{
				"x": -1.1582025095,
				"y": -0.7888896948,
				"z": 1.2362678281,
				"element": "C" 
			},
			{
				"x": -0.6613965823,
				"y": 0.3497432088,
				"z": 0.6158367825,
				"element": "C" 
			},
			{
				"x": -1.5542462564,
				"y": 1.169605606,
				"z": 0.0198349116,
				"element": "F" 
			},
			{
				"x": 0.6973812705,
				"y": 0.6791407439,
				"z": 0.5813426338,
				"element": "C" 
			},
			{
				"x": 1.5777439895,
				"y": -0.218903887,
				"z": 1.222516278,
				"element": "C" 
			},
			{
				"x": 1.1177052865,
				"y": -1.3626458705,
				"z": 1.8504079351,
				"element": "C" 
			},
			{
				"x": 1.1809003087,
				"y": 1.8821076772,
				"z": -0.0792296991,
				"element": "C" 
			},
			{
				"x": 0.5935155649,
				"y": 2.9122859393,
				"z": -0.7642990574,
				"element": "C" 
			},
			{
				"x": 1.6868099229,
				"y": 3.7402577238,
				"z": -1.1285133529,
				"element": "C" 
			},
			{
				"x": 2.844277881,
				"y": 3.2666502143,
				"z": -0.7077603079,
				"element": "N" 
			},
			{
				"x": 2.5270530622,
				"y": 2.0931301927,
				"z": -0.0448988267,
				"element": "O" 
			},
			{
				"x": 1.5803935888,
				"y": 5.0061283683,
				"z": -1.8971620824,
				"element": "C" 
			},
			{
				"x": 2.7683588657,
				"y": 5.6017900322,
				"z": -2.1112166469,
				"element": "O" 
			},
			{
				"x": 0.5222398779,
				"y": 5.4520856075,
				"z": -2.2895848927,
				"element": "O" 
			},
			{
				"x": -2.40184215,
				"y": -3.3006490803,
				"z": 1.5401015664,
				"element": "H" 
			},
			{
				"x": -2.5840263986,
				"y": -2.3876810326,
				"z": 3.0685806,
				"element": "H" 
			},
			{
				"x": -2.0447576455,
				"y": -4.0879434851,
				"z": 3.100669165,
				"element": "H" 
			},
			{
				"x": -2.2257162847,
				"y": -0.9631999441,
				"z": 1.2128956479,
				"element": "H" 
			},
			{
				"x": 2.638869864,
				"y": 0.0026073106,
				"z": 1.2169118071,
				"element": "H" 
			},
			{
				"x": 1.7998033835,
				"y": -2.0478648765,
				"z": 2.3409248383,
				"element": "H" 
			},
			{
				"x": -0.4474402249,
				"y": 3.0715465639,
				"z": -0.9833472156,
				"element": "H" 
			},
			{
				"x": 2.5754736428,
				"y": 6.4094021211,
				"z": -2.6165057857,
				"element": "H" 
			}
		],
		 "valence_orbital": [ 
			{
				"type": "occ",
				"energy": -0.30307,
				"method": "rhf"
			},
			{
				"type": "occ",
				"energy": -0.28666,
				"method": "rhf"
			},
			{
				"type": "occ",
				"energy": -0.28612,
				"method": "rhf"
			},
			{
				"type": "occ",
				"energy": -0.26681,
				"method": "rhf"
			},
			{
				"type": "occ",
				"energy": -0.22497,
				"method": "rhf"
			},
			{
				"type": "unocc",
				"energy": -0.05833,
				"method": "rhf"
			},
			{
				"type": "unocc",
				"energy": -0.03128,
				"method": "rhf"
			},
			{
				"type": "unocc",
				"energy": -0.01632,
				"method": "rhf"
			},
			{
				"type": "unocc",
				"energy": 0.05002,
				"method": "rhf"
			},
			{
				"type": "unocc",
				"energy": 0.07358,
				"method": "rhf"
			}
		],
		"cosmo_sigma_profile": { 
			"-0.025": 0.0,
			"-0.024": 0.0,
			"-0.023": 0.0,
			"-0.022": 0.0,
			"-0.021": 0.0,
			"-0.02": 0.0212138252124,
			"-0.019": 0.67138112148,
			"-0.018": 1.04959963477,
			"-0.017": 0.773448188966,
			"-0.016": 0.942004738203,
			"-0.015": 0.785291889939,
			"-0.014": 0.396489714005,
			"-0.013": 0.681065757876,
			"-0.012": 1.05744854539,
			"-0.011": 1.05559576317,
			"-0.01": 0.319653995407,
			"-0.009": 0.593220327166,
			"-0.008": 3.49561735818,
			"-0.007": 7.56331399059,
			"-0.006": 14.2489927143,
			"-0.005": 15.3790905617,
			"-0.004": 16.4481501559,
			"-0.003": 15.1203456757,
			"-0.002": 13.0722242608,
			"-0.001": 24.1287360934,
			"0.0": 25.3930919198,
			"0.001": 22.0477688347,
			"0.002": 18.8750488427,
			"0.003": 15.5796194056,
			"0.004": 8.71697521786,
			"0.005": 5.66630749405,
			"0.006": 7.50516085602,
			"0.007": 5.43699799523,
			"0.008": 6.09712059006,
			"0.009": 5.15696286582,
			"0.01": 6.27386788116,
			"0.011": 6.68382143331,
			"0.012": 1.87850314682,
			"0.013": 1.08491084771,
			"0.014": 0.0,
			"0.015": 0.0,
			"0.016": 0.0,
			"0.017": 0.0,
			"0.018": 0.0,
			"0.019": 0.0,
			"0.02": 0.0,
			"0.021": 0.0,
			"0.022": 0.0,
			"0.023": 0.0,
			"0.024": 0.0,
			"0.025": 0.0
		}
	}
}
