{
	 "smiles": "CC(C)CC1NC(=S)N(CC=C)C1=O", 
	 "Tm": 483.15, 
	 "num_atms": 30, 
	 "gaussian": { 
		 "optdone": 1, 
		 "sigma_profile": "yes", 
		 "theory": "DFT", 
		 "functional": "B3LYP", 
		 "basiset": "6-31G**", 
		 "properties": { 
			 "R2extent": 3772.9796, 
			 "electric_dipole_moment_norm": 2.94608491052, 
			 "electric_quadrupole_moment_norm": 18.4385455001, 
			 "total_energy": -973.641978455, 
			 "HOMO_LUMO_gap": 0.18167, 
			 "cosmo_polarized_energy": -14.76, 
			 "cosmo_cavitation_energy": 34.16, 
			 "cosmo_dispersion_energy": -23.01, 
			 "cosmo_repulsion_energy": 1.79, 
			 "cosmo_total_nonelectrostatic_energy": 12.94, 
			 "SMD_solvation_energy": 5.59 
		},
		"coords": [
			{
				"x": -2.9395079228,
				"y": -0.2069642213,
				"z": 3.2038473143,
				"element": "C" 
			},
			{
				"x": -2.245976961,
				"y": -0.3010507335,
				"z": 1.8348491254,
				"element": "C" 
			},
			{
				"x": -1.1256588512,
				"y": -1.3520222795,
				"z": 1.8745310331,
				"element": "C" 
			},
			{
				"x": -1.7614179457,
				"y": 1.101586285,
				"z": 1.4166021641,
				"element": "C" 
			},
			{
				"x": -1.2461727936,
				"y": 1.2817239843,
				"z": -0.0237707636,
				"element": "C" 
			},
			{
				"x": -2.0597832941,
				"y": 0.6893938557,
				"z": -1.0754439762,
				"element": "N" 
			},
			{
				"x": -1.3474744822,
				"y": -0.0499008557,
				"z": -1.9642341791,
				"element": "C" 
			},
			{
				"x": -1.9220563803,
				"y": -0.7627013991,
				"z": -3.3508281886,
				"element": "S" 
			},
			{
				"x": -0.0370363807,
				"y": -0.0893641869,
				"z": -1.4896521419,
				"element": "N" 
			},
			{
				"x": 1.059662775,
				"y": -0.8539029367,
				"z": -2.0940195999,
				"element": "C" 
			},
			{
				"x": 1.0725158126,
				"y": -2.2946384404,
				"z": -1.6508128726,
				"element": "C" 
			},
			{
				"x": 2.0496417164,
				"y": -2.832208449,
				"z": -0.9213824403,
				"element": "C" 
			},
			{
				"x": 0.1170411376,
				"y": 0.6473452133,
				"z": -0.3184844025,
				"element": "C" 
			},
			{
				"x": 1.1435352591,
				"y": 0.7831978946,
				"z": 0.3132871419,
				"element": "O" 
			},
			{
				"x": -3.3354520598,
				"y": -1.1809882098,
				"z": 3.5086730406,
				"element": "H" 
			},
			{
				"x": -2.2364320191,
				"y": 0.1219940658,
				"z": 3.9786073348,
				"element": "H" 
			},
			{
				"x": -3.7736193115,
				"y": 0.5033013416,
				"z": 3.1872440204,
				"element": "H" 
			},
			{
				"x": -2.9947249205,
				"y": -0.6299405943,
				"z": 1.1010460762,
				"element": "H" 
			},
			{
				"x": -0.6891792377,
				"y": -1.5460791547,
				"z": 0.8913173524,
				"element": "H" 
			},
			{
				"x": -0.3142094703,
				"y": -1.0381890134,
				"z": 2.5408174946,
				"element": "H" 
			},
			{
				"x": -1.5149802356,
				"y": -2.3058460367,
				"z": 2.2461126374,
				"element": "H" 
			},
			{
				"x": -0.949428947,
				"y": 1.4323514197,
				"z": 2.0768841843,
				"element": "H" 
			},
			{
				"x": -2.5845165564,
				"y": 1.813351565,
				"z": 1.5597238136,
				"element": "H" 
			},
			{
				"x": -1.1219013441,
				"y": 2.3615306804,
				"z": -0.200258325,
				"element": "H" 
			},
			{
				"x": -3.0088540045,
				"y": 0.9527270609,
				"z": -1.2912458517,
				"element": "H" 
			},
			{
				"x": 0.9338549671,
				"y": -0.7823537794,
				"z": -3.1783568988,
				"element": "H" 
			},
			{
				"x": 1.9818108367,
				"y": -0.3490280785,
				"z": -1.7977767728,
				"element": "H" 
			},
			{
				"x": 0.2241956071,
				"y": -2.8950385864,
				"z": -1.9734965511,
				"element": "H" 
			},
			{
				"x": 2.9017161836,
				"y": -2.2449287682,
				"z": -0.587784942,
				"element": "H" 
			},
			{
				"x": 2.0341088227,
				"y": -3.8791576427,
				"z": -0.6331948268,
				"element": "H" 
			}
		],
		 "valence_orbital": [ 
			{
				"type": "occ",
				"energy": -0.2849,
				"method": "rhf"
			},
			{
				"type": "occ",
				"energy": -0.2748,
				"method": "rhf"
			},
			{
				"type": "occ",
				"energy": -0.26658,
				"method": "rhf"
			},
			{
				"type": "occ",
				"energy": -0.23288,
				"method": "rhf"
			},
			{
				"type": "occ",
				"energy": -0.22176,
				"method": "rhf"
			},
			{
				"type": "unocc",
				"energy": -0.04009,
				"method": "rhf"
			},
			{
				"type": "unocc",
				"energy": 0.00373,
				"method": "rhf"
			},
			{
				"type": "unocc",
				"energy": 0.02437,
				"method": "rhf"
			},
			{
				"type": "unocc",
				"energy": 0.0677,
				"method": "rhf"
			},
			{
				"type": "unocc",
				"energy": 0.08484,
				"method": "rhf"
			}
		],
		"cosmo_sigma_profile": { 
			"-0.025": 0.0,
			"-0.024": 0.0,
			"-0.023": 0.0,
			"-0.022": 0.0,
			"-0.021": 0.0,
			"-0.02": 0.0,
			"-0.019": 0.0,
			"-0.018": 0.0,
			"-0.017": 0.0121941777029,
			"-0.016": 0.712111027949,
			"-0.015": 1.11866226027,
			"-0.014": 1.30951089846,
			"-0.013": 1.06221174248,
			"-0.012": 0.870491432773,
			"-0.011": 0.825192645239,
			"-0.01": 0.857392077426,
			"-0.009": 2.14781830399,
			"-0.008": 5.54732229466,
			"-0.007": 4.74482573177,
			"-0.006": 7.23571328508,
			"-0.005": 12.982805644,
			"-0.004": 15.9952319387,
			"-0.003": 28.6925855502,
			"-0.002": 27.9933355425,
			"-0.001": 26.3510301684,
			"0.0": 23.1722973667,
			"0.001": 22.0490636668,
			"0.002": 15.729578946,
			"0.003": 12.199554653,
			"0.004": 9.38824460323,
			"0.005": 7.22580370898,
			"0.006": 5.48120404266,
			"0.007": 6.72882571173,
			"0.008": 7.4887694656,
			"0.009": 8.66196330389,
			"0.01": 4.9579024034,
			"0.011": 5.70456737539,
			"0.012": 2.99132438554,
			"0.013": 0.102480047418,
			"0.014": 0.0,
			"0.015": 0.0,
			"0.016": 0.0,
			"0.017": 0.0,
			"0.018": 0.0,
			"0.019": 0.0,
			"0.02": 0.0,
			"0.021": 0.0,
			"0.022": 0.0,
			"0.023": 0.0,
			"0.024": 0.0,
			"0.025": 0.0
		}
	}
}
