{
	 "smiles": "CC12CCC(CC1)C(C)(C)O2", 
	 "Tm": 274.4, 
	 "num_atms": 29, 
	 "gaussian": { 
		 "optdone": 1, 
		 "sigma_profile": "yes", 
		 "theory": "DFT", 
		 "functional": "B3LYP", 
		 "basiset": "6-31G**", 
		 "properties": { 
			 "R2extent": 1743.2788, 
			 "electric_dipole_moment_norm": 1.28180013263, 
			 "electric_quadrupole_moment_norm": 3.02804999959, 
			 "total_energy": -467.152915132, 
			 "HOMO_LUMO_gap": 0.29759, 
			 "cosmo_polarized_energy": -3.89, 
			 "cosmo_cavitation_energy": 26.86, 
			 "cosmo_dispersion_energy": -19.8, 
			 "cosmo_repulsion_energy": 1.55, 
			 "cosmo_total_nonelectrostatic_energy": 8.61, 
			 "SMD_solvation_energy": 3.99 
		},
		"coords": [
			{
				"x": 2.1236402101,
				"y": -0.8530076391,
				"z": 1.2648474124,
				"element": "C" 
			},
			{
				"x": 0.9466024085,
				"y": -0.5751641638,
				"z": 0.3373234268,
				"element": "C" 
			},
			{
				"x": 0.5573111786,
				"y": 0.9173807328,
				"z": 0.3209557002,
				"element": "C" 
			},
			{
				"x": -0.7018615841,
				"y": 1.1135072048,
				"z": -0.5687523235,
				"element": "C" 
			},
			{
				"x": -1.1752384769,
				"y": -0.26927914,
				"z": -1.0637024574,
				"element": "C" 
			},
			{
				"x": -0.0590621052,
				"y": -0.8336187235,
				"z": -1.9675633125,
				"element": "C" 
			},
			{
				"x": 1.2116185031,
				"y": -1.0621581712,
				"z": -1.1022122874,
				"element": "C" 
			},
			{
				"x": -1.4037954497,
				"y": -1.2148127598,
				"z": 0.147314563,
				"element": "C" 
			},
			{
				"x": -2.4576920838,
				"y": -0.6757146982,
				"z": 1.1281303242,
				"element": "C" 
			},
			{
				"x": -1.8117439755,
				"y": -2.6342184446,
				"z": -0.279306888,
				"element": "C" 
			},
			{
				"x": -0.1559726743,
				"y": -1.3300381493,
				"z": 0.8803093174,
				"element": "O" 
			},
			{
				"x": 2.3463947077,
				"y": -1.9240117853,
				"z": 1.2861147527,
				"element": "H" 
			},
			{
				"x": 3.017688165,
				"y": -0.3172409595,
				"z": 0.930113247,
				"element": "H" 
			},
			{
				"x": 1.8875922385,
				"y": -0.5345685849,
				"z": 2.2846509599,
				"element": "H" 
			},
			{
				"x": 1.3997902149,
				"y": 1.51719799,
				"z": -0.0422855362,
				"element": "H" 
			},
			{
				"x": 0.362990276,
				"y": 1.2300219717,
				"z": 1.3524152084,
				"element": "H" 
			},
			{
				"x": -0.4733335635,
				"y": 1.7401782783,
				"z": -1.4380898127,
				"element": "H" 
			},
			{
				"x": -1.4933651967,
				"y": 1.6303102516,
				"z": -0.0194026373,
				"element": "H" 
			},
			{
				"x": -2.1114384502,
				"y": -0.1741651608,
				"z": -1.6262984035,
				"element": "H" 
			},
			{
				"x": 0.1390761675,
				"y": -0.1171299834,
				"z": -2.7725845046,
				"element": "H" 
			},
			{
				"x": -0.373777549,
				"y": -1.7606310265,
				"z": -2.4543470055,
				"element": "H" 
			},
			{
				"x": 2.0780530742,
				"y": -0.5357771437,
				"z": -1.5189975833,
				"element": "H" 
			},
			{
				"x": 1.4728665097,
				"y": -2.1248647242,
				"z": -1.0595955037,
				"element": "H" 
			},
			{
				"x": -2.5579142528,
				"y": -1.3671440474,
				"z": 1.9701060656,
				"element": "H" 
			},
			{
				"x": -3.4367361293,
				"y": -0.5802248166,
				"z": 0.6450463137,
				"element": "H" 
			},
			{
				"x": -2.1750427905,
				"y": 0.2977123925,
				"z": 1.5343779938,
				"element": "H" 
			},
			{
				"x": -2.7616457575,
				"y": -2.6262730877,
				"z": -0.8257817494,
				"element": "H" 
			},
			{
				"x": -1.9340687654,
				"y": -3.2599857401,
				"z": 0.6097956203,
				"element": "H" 
			},
			{
				"x": -1.0531348496,
				"y": -3.1033798723,
				"z": -0.9092809004,
				"element": "H" 
			}
		],
		 "valence_orbital": [ 
			{
				"type": "occ",
				"energy": -0.3291,
				"method": "rhf"
			},
			{
				"type": "occ",
				"energy": -0.30277,
				"method": "rhf"
			},
			{
				"type": "occ",
				"energy": -0.29999,
				"method": "rhf"
			},
			{
				"type": "occ",
				"energy": -0.268,
				"method": "rhf"
			},
			{
				"type": "occ",
				"energy": -0.22924,
				"method": "rhf"
			},
			{
				"type": "unocc",
				"energy": 0.06835,
				"method": "rhf"
			},
			{
				"type": "unocc",
				"energy": 0.09214,
				"method": "rhf"
			},
			{
				"type": "unocc",
				"energy": 0.11298,
				"method": "rhf"
			},
			{
				"type": "unocc",
				"energy": 0.12039,
				"method": "rhf"
			},
			{
				"type": "unocc",
				"energy": 0.12423,
				"method": "rhf"
			}
		],
		"cosmo_sigma_profile": { 
			"-0.025": 0.0,
			"-0.024": 0.0,
			"-0.023": 0.0,
			"-0.022": 0.0,
			"-0.021": 0.0,
			"-0.02": 0.0,
			"-0.019": 0.0,
			"-0.018": 0.0,
			"-0.017": 0.0,
			"-0.016": 0.0,
			"-0.015": 0.0,
			"-0.014": 0.0,
			"-0.013": 0.0,
			"-0.012": 0.0,
			"-0.011": 0.0,
			"-0.01": 0.0,
			"-0.009": 0.0,
			"-0.008": 0.0,
			"-0.007": 0.0,
			"-0.006": 0.0,
			"-0.005": 0.0,
			"-0.004": 0.935730195268,
			"-0.003": 22.9716987246,
			"-0.002": 45.3098283708,
			"-0.001": 37.1756373144,
			"0.0": 32.6212084775,
			"0.001": 35.7265054679,
			"0.002": 13.2828930917,
			"0.003": 2.49307959101,
			"0.004": 1.76950453405,
			"0.005": 1.61069093196,
			"0.006": 1.2182367108,
			"0.007": 1.36927139179,
			"0.008": 1.46923789052,
			"0.009": 1.73020902941,
			"0.01": 1.19220482238,
			"0.011": 0.988365153575,
			"0.012": 0.859174211903,
			"0.013": 1.35611708548,
			"0.014": 1.13362397735,
			"0.015": 0.30648672857,
			"0.016": 0.0,
			"0.017": 0.0,
			"0.018": 0.0,
			"0.019": 0.0,
			"0.02": 0.0,
			"0.021": 0.0,
			"0.022": 0.0,
			"0.023": 0.0,
			"0.024": 0.0,
			"0.025": 0.0
		}
	}
}
