{
	 "smiles": "CCSC1=NC(=NC(N)=N1)C(C)C", 
	 "Tm": 389.15, 
	 "num_atms": 27, 
	 "gaussian": { 
		 "optdone": 1, 
		 "sigma_profile": "yes", 
		 "theory": "DFT", 
		 "functional": "B3LYP", 
		 "basiset": "6-31G**", 
		 "properties": { 
			 "R2extent": 3827.9654, 
			 "electric_dipole_moment_norm": 1.1444428295, 
			 "electric_quadrupole_moment_norm": 14.4227603176, 
			 "total_energy": -930.528666862, 
			 "HOMO_LUMO_gap": 0.2054, 
			 "cosmo_polarized_energy": -10.86, 
			 "cosmo_cavitation_energy": 31.84, 
			 "cosmo_dispersion_energy": -23.05, 
			 "cosmo_repulsion_energy": 1.85, 
			 "cosmo_total_nonelectrostatic_energy": 10.65, 
			 "SMD_solvation_energy": 1.84 
		},
		"coords": [
			{
				"x": -3.5474318754,
				"y": 1.7369294473,
				"z": -0.706153592,
				"element": "C" 
			},
			{
				"x": -2.2559351777,
				"y": 1.0327083735,
				"z": -0.2915870525,
				"element": "C" 
			},
			{
				"x": -2.5000289379,
				"y": 0.2467489295,
				"z": 1.3530001483,
				"element": "S" 
			},
			{
				"x": -0.9217393996,
				"y": -0.4995243047,
				"z": 1.6445545235,
				"element": "C" 
			},
			{
				"x": 0.0472560552,
				"y": -0.3748657588,
				"z": 0.7314082703,
				"element": "N" 
			},
			{
				"x": 1.204532105,
				"y": -0.9821151994,
				"z": 1.058806302,
				"element": "C" 
			},
			{
				"x": 1.4240994208,
				"y": -1.6634968079,
				"z": 2.1822433889,
				"element": "N" 
			},
			{
				"x": 0.364509901,
				"y": -1.7159433797,
				"z": 3.0230311094,
				"element": "C" 
			},
			{
				"x": 0.5331269459,
				"y": -2.3965252297,
				"z": 4.1780267052,
				"element": "N" 
			},
			{
				"x": -0.8350521943,
				"y": -1.1515683625,
				"z": 2.8064173355,
				"element": "N" 
			},
			{
				"x": 2.3446743904,
				"y": -0.8777887651,
				"z": 0.0654178021,
				"element": "C" 
			},
			{
				"x": 1.9612579344,
				"y": -1.5365576738,
				"z": -1.2719170198,
				"element": "C" 
			},
			{
				"x": 2.7574277911,
				"y": 0.5916804428,
				"z": -0.1340999563,
				"element": "C" 
			},
			{
				"x": -3.4115280038,
				"y": 2.208157774,
				"z": -1.6847955209,
				"element": "H" 
			},
			{
				"x": -3.8271201674,
				"y": 2.5183035882,
				"z": 0.0071791193,
				"element": "H" 
			},
			{
				"x": -4.382329428,
				"y": 1.0338043122,
				"z": -0.7847174711,
				"element": "H" 
			},
			{
				"x": -1.4219134047,
				"y": 1.7332816709,
				"z": -0.2171505184,
				"element": "H" 
			},
			{
				"x": -1.9745635714,
				"y": 0.2558742187,
				"z": -1.0052309814,
				"element": "H" 
			},
			{
				"x": 1.4224090937,
				"y": -2.8254470308,
				"z": 4.3701575926,
				"element": "H" 
			},
			{
				"x": -0.2281499689,
				"y": -2.4553138576,
				"z": 4.8330894148,
				"element": "H" 
			},
			{
				"x": 3.1822039407,
				"y": -1.4272954324,
				"z": 0.5072477392,
				"element": "H" 
			},
			{
				"x": 1.0965370344,
				"y": -1.0327336132,
				"z": -1.7132972826,
				"element": "H" 
			},
			{
				"x": 2.7959959792,
				"y": -1.475288288,
				"z": -1.9779365254,
				"element": "H" 
			},
			{
				"x": 1.7083166896,
				"y": -2.5933215295,
				"z": -1.1379462543,
				"element": "H" 
			},
			{
				"x": 3.071318023,
				"y": 1.049442988,
				"z": 0.80961857,
				"element": "H" 
			},
			{
				"x": 3.594050102,
				"y": 0.6584960378,
				"z": -0.8373780041,
				"element": "H" 
			},
			{
				"x": 1.9217767228,
				"y": 1.1735574504,
				"z": -0.5334878422,
				"element": "H" 
			}
		],
		 "valence_orbital": [ 
			{
				"type": "occ",
				"energy": -0.30898,
				"method": "rhf"
			},
			{
				"type": "occ",
				"energy": -0.25982,
				"method": "rhf"
			},
			{
				"type": "occ",
				"energy": -0.25606,
				"method": "rhf"
			},
			{
				"type": "occ",
				"energy": -0.2489,
				"method": "rhf"
			},
			{
				"type": "occ",
				"energy": -0.2307,
				"method": "rhf"
			},
			{
				"type": "unocc",
				"energy": -0.0253,
				"method": "rhf"
			},
			{
				"type": "unocc",
				"energy": -0.00609,
				"method": "rhf"
			},
			{
				"type": "unocc",
				"energy": 0.03832,
				"method": "rhf"
			},
			{
				"type": "unocc",
				"energy": 0.0856,
				"method": "rhf"
			},
			{
				"type": "unocc",
				"energy": 0.09161,
				"method": "rhf"
			}
		],
		"cosmo_sigma_profile": { 
			"-0.025": 0.0,
			"-0.024": 0.0,
			"-0.023": 0.0,
			"-0.022": 0.0,
			"-0.021": 0.0,
			"-0.02": 0.0,
			"-0.019": 0.0,
			"-0.018": 0.0,
			"-0.017": 0.0,
			"-0.016": 0.0,
			"-0.015": 0.500769282055,
			"-0.014": 2.35279184246,
			"-0.013": 2.1003436436,
			"-0.012": 2.10021144415,
			"-0.011": 1.77106566708,
			"-0.01": 1.64908180475,
			"-0.009": 1.86060417366,
			"-0.008": 1.66337124786,
			"-0.007": 1.66032331132,
			"-0.006": 1.05332297253,
			"-0.005": 3.83614254841,
			"-0.004": 13.1275226279,
			"-0.003": 25.8813724914,
			"-0.002": 31.9462155279,
			"-0.001": 30.0221719064,
			"0.0": 31.640165457,
			"0.001": 24.3803947576,
			"0.002": 13.15916502,
			"0.003": 9.81090640441,
			"0.004": 10.2806383392,
			"0.005": 10.195340399,
			"0.006": 9.16040670783,
			"0.007": 6.89919912255,
			"0.008": 5.22994019044,
			"0.009": 2.1086260373,
			"0.01": 1.73984885494,
			"0.011": 1.85210408966,
			"0.012": 1.63416318012,
			"0.013": 1.60415301629,
			"0.014": 0.474451026211,
			"0.015": 0.0,
			"0.016": 0.0,
			"0.017": 0.0,
			"0.018": 0.0,
			"0.019": 0.0,
			"0.02": 0.0,
			"0.021": 0.0,
			"0.022": 0.0,
			"0.023": 0.0,
			"0.024": 0.0,
			"0.025": 0.0
		}
	}
}
