{
	 "smiles": "CC1=NN2C(N=C(C)C=C2C)=C1C(O)=O", 
	 "Tm": 500.15, 
	 "num_atms": 26, 
	 "gaussian": { 
		 "optdone": 1, 
		 "sigma_profile": "yes", 
		 "theory": "DFT", 
		 "functional": "B3LYP", 
		 "basiset": "6-31G**", 
		 "properties": { 
			 "R2extent": 3356.4778, 
			 "electric_dipole_moment_norm": 8.03429527588, 
			 "electric_quadrupole_moment_norm": 9.49317920404, 
			 "total_energy": -702.421257565, 
			 "HOMO_LUMO_gap": 0.16569, 
			 "cosmo_polarized_energy": -16.43, 
			 "cosmo_cavitation_energy": 29.97, 
			 "cosmo_dispersion_energy": -21.95, 
			 "cosmo_repulsion_energy": 1.72, 
			 "cosmo_total_nonelectrostatic_energy": 9.73, 
			 "SMD_solvation_energy": 4.76 
		},
		"coords": [
			{
				"x": -0.3984061521,
				"y": 2.8614873989,
				"z": -0.8988050117,
				"element": "C" 
			},
			{
				"x": -0.120563411,
				"y": 1.6090944512,
				"z": -0.1349391039,
				"element": "C" 
			},
			{
				"x": 0.0992029147,
				"y": 1.6620096617,
				"z": 1.186848669,
				"element": "N" 
			},
			{
				"x": 0.3137934189,
				"y": 0.366404817,
				"z": 1.5513287132,
				"element": "N" 
			},
			{
				"x": 0.2318347722,
				"y": -0.5089544955,
				"z": 0.4700325092,
				"element": "C" 
			},
			{
				"x": 0.4099074351,
				"y": -1.8366061878,
				"z": 0.5990502784,
				"element": "N" 
			},
			{
				"x": 0.6724820474,
				"y": -2.3039235269,
				"z": 1.8144571321,
				"element": "C" 
			},
			{
				"x": 0.8710266135,
				"y": -3.7898593445,
				"z": 1.9531531848,
				"element": "C" 
			},
			{
				"x": 0.763960398,
				"y": -1.4423310363,
				"z": 2.9427687746,
				"element": "C" 
			},
			{
				"x": 0.5813810604,
				"y": -0.0808995776,
				"z": 2.8100401906,
				"element": "C" 
			},
			{
				"x": 0.6506148748,
				"y": 0.9278347407,
				"z": 3.9086178834,
				"element": "C" 
			},
			{
				"x": -0.0517356203,
				"y": 0.2847943505,
				"z": -0.6427148429,
				"element": "C" 
			},
			{
				"x": -0.2344148965,
				"y": -0.1764073059,
				"z": -2.0281756645,
				"element": "C" 
			},
			{
				"x": -0.1102412822,
				"y": -1.5115123515,
				"z": -2.2200041853,
				"element": "O" 
			},
			{
				"x": -0.4801298967,
				"y": 0.5687855071,
				"z": -2.9552838418,
				"element": "O" 
			},
			{
				"x": -1.36949962,
				"y": 2.7981515262,
				"z": -1.3980259289,
				"element": "H" 
			},
			{
				"x": -0.3842868865,
				"y": 3.7215524011,
				"z": -0.2265759792,
				"element": "H" 
			},
			{
				"x": 0.3427863675,
				"y": 2.9991477188,
				"z": -1.6912218009,
				"element": "H" 
			},
			{
				"x": 1.7012822539,
				"y": -4.1206253895,
				"z": 1.3210590698,
				"element": "H" 
			},
			{
				"x": -0.0229873339,
				"y": -4.3236282028,
				"z": 1.6153713985,
				"element": "H" 
			},
			{
				"x": 1.0810532438,
				"y": -4.0766657556,
				"z": 2.9856505163,
				"element": "H" 
			},
			{
				"x": 0.9793754025,
				"y": -1.8511060204,
				"z": 3.9224031425,
				"element": "H" 
			},
			{
				"x": 0.8701131012,
				"y": 0.4428955879,
				"z": 4.860834153,
				"element": "H" 
			},
			{
				"x": 1.4214293103,
				"y": 1.6741150347,
				"z": 3.6910127895,
				"element": "H" 
			},
			{
				"x": -0.2959072591,
				"y": 1.4726389204,
				"z": 3.9842592894,
				"element": "H" 
			},
			{
				"x": 0.087429144,
				"y": -1.9642929218,
				"z": -1.3744413353,
				"element": "H" 
			}
		],
		 "valence_orbital": [ 
			{
				"type": "occ",
				"energy": -0.28973,
				"method": "rhf"
			},
			{
				"type": "occ",
				"energy": -0.2896,
				"method": "rhf"
			},
			{
				"type": "occ",
				"energy": -0.2652,
				"method": "rhf"
			},
			{
				"type": "occ",
				"energy": -0.25244,
				"method": "rhf"
			},
			{
				"type": "occ",
				"energy": -0.23484,
				"method": "rhf"
			},
			{
				"type": "unocc",
				"energy": -0.06915,
				"method": "rhf"
			},
			{
				"type": "unocc",
				"energy": -0.02764,
				"method": "rhf"
			},
			{
				"type": "unocc",
				"energy": 0.00823,
				"method": "rhf"
			},
			{
				"type": "unocc",
				"energy": 0.07801,
				"method": "rhf"
			},
			{
				"type": "unocc",
				"energy": 0.0847,
				"method": "rhf"
			}
		],
		"cosmo_sigma_profile": { 
			"-0.025": 0.0,
			"-0.024": 0.0,
			"-0.023": 0.0,
			"-0.022": 0.0,
			"-0.021": 0.0,
			"-0.02": 0.0,
			"-0.019": 0.0,
			"-0.018": 0.0,
			"-0.017": 0.0,
			"-0.016": 0.0,
			"-0.015": 0.0,
			"-0.014": 0.0,
			"-0.013": 0.0,
			"-0.012": 0.0,
			"-0.011": 0.0,
			"-0.01": 0.0,
			"-0.009": 0.112644800619,
			"-0.008": 3.44084336388,
			"-0.007": 5.26281352338,
			"-0.006": 11.2691152623,
			"-0.005": 16.5397721621,
			"-0.004": 22.8082997626,
			"-0.003": 25.4571735429,
			"-0.002": 31.266101555,
			"-0.001": 28.1873919876,
			"0.0": 19.6597765021,
			"0.001": 12.9867079167,
			"0.002": 6.36341814561,
			"0.003": 6.60033942116,
			"0.004": 6.78940730946,
			"0.005": 3.52816508656,
			"0.006": 3.83367878098,
			"0.007": 4.37721148415,
			"0.008": 3.40667750695,
			"0.009": 4.02021995486,
			"0.01": 4.3139873161,
			"0.011": 4.8629192958,
			"0.012": 6.48213781475,
			"0.013": 4.95364975058,
			"0.014": 1.86059848253,
			"0.015": 0.165826476329,
			"0.016": 0.0,
			"0.017": 0.0,
			"0.018": 0.0,
			"0.019": 0.0,
			"0.02": 0.0,
			"0.021": 0.0,
			"0.022": 0.0,
			"0.023": 0.0,
			"0.024": 0.0,
			"0.025": 0.0
		}
	}
}
