{
	 "smiles": "NC1=NC2=C(S1)C=CN=C2", 
	 "Tm": 549.15, 
	 "num_atms": 15, 
	 "gaussian": { 
		 "optdone": 1, 
		 "sigma_profile": "yes", 
		 "theory": "DFT", 
		 "functional": "B3LYP", 
		 "basiset": "6-31G**", 
		 "properties": { 
			 "R2extent": 1876.7523, 
			 "electric_dipole_moment_norm": 4.30313078816, 
			 "electric_quadrupole_moment_norm": 7.68725546278, 
			 "total_energy": -794.096708741, 
			 "HOMO_LUMO_gap": 0.20128, 
			 "cosmo_polarized_energy": -13.33, 
			 "cosmo_cavitation_energy": 21.02, 
			 "cosmo_dispersion_energy": -16.66, 
			 "cosmo_repulsion_energy": 1.29, 
			 "cosmo_total_nonelectrostatic_energy": 5.66, 
			 "SMD_solvation_energy": 0.1 
		},
		"coords": [
			{
				"x": -0.7257264366,
				"y": -2.8355355612,
				"z": -0.7419116101,
				"element": "N" 
			},
			{
				"x": -0.5562391576,
				"y": -1.4800482684,
				"z": -0.806264424,
				"element": "C" 
			},
			{
				"x": 0.3513913913,
				"y": -0.8254416543,
				"z": -0.1550386761,
				"element": "N" 
			},
			{
				"x": 0.3109221897,
				"y": 0.518843197,
				"z": -0.4867233365,
				"element": "C" 
			},
			{
				"x": -0.6772893701,
				"y": 0.9025949061,
				"z": -1.4225671184,
				"element": "C" 
			},
			{
				"x": -1.5856493586,
				"y": -0.5175661474,
				"z": -1.9208781141,
				"element": "S" 
			},
			{
				"x": -0.8017038705,
				"y": 2.2346561394,
				"z": -1.8049854783,
				"element": "C" 
			},
			{
				"x": 0.0894925583,
				"y": 3.1383935197,
				"z": -1.2231050118,
				"element": "C" 
			},
			{
				"x": 1.0384578727,
				"y": 2.8026627686,
				"z": -0.3333626837,
				"element": "N" 
			},
			{
				"x": 1.1447693578,
				"y": 1.5220056925,
				"z": 0.0252897164,
				"element": "C" 
			},
			{
				"x": -1.6401227486,
				"y": -3.2121185746,
				"z": -0.9417613049,
				"element": "H" 
			},
			{
				"x": -0.2346548302,
				"y": -3.2772830537,
				"z": 0.0236219785,
				"element": "H" 
			},
			{
				"x": -1.5470039037,
				"y": 2.5685469003,
				"z": -2.5190628984,
				"element": "H" 
			},
			{
				"x": 0.035829967,
				"y": 4.192028764,
				"z": -1.4893848335,
				"element": "H" 
			},
			{
				"x": 1.9167263391,
				"y": 1.262661372,
				"z": 0.7468337949,
				"element": "H" 
			}
		],
		 "valence_orbital": [ 
			{
				"type": "occ",
				"energy": -0.30569,
				"method": "rhf"
			},
			{
				"type": "occ",
				"energy": -0.28645,
				"method": "rhf"
			},
			{
				"type": "occ",
				"energy": -0.25165,
				"method": "rhf"
			},
			{
				"type": "occ",
				"energy": -0.24886,
				"method": "rhf"
			},
			{
				"type": "occ",
				"energy": -0.22369,
				"method": "rhf"
			},
			{
				"type": "unocc",
				"energy": -0.02241,
				"method": "rhf"
			},
			{
				"type": "unocc",
				"energy": -0.01825,
				"method": "rhf"
			},
			{
				"type": "unocc",
				"energy": -0.00765,
				"method": "rhf"
			},
			{
				"type": "unocc",
				"energy": 0.03672,
				"method": "rhf"
			},
			{
				"type": "unocc",
				"energy": 0.05891,
				"method": "rhf"
			}
		],
		"cosmo_sigma_profile": { 
			"-0.025": 0.0,
			"-0.024": 0.0,
			"-0.023": 0.0,
			"-0.022": 0.0,
			"-0.021": 0.0,
			"-0.02": 0.0,
			"-0.019": 0.0,
			"-0.018": 0.0,
			"-0.017": 0.0,
			"-0.016": 0.115977925006,
			"-0.015": 1.65589682462,
			"-0.014": 2.95882259867,
			"-0.013": 2.57520847741,
			"-0.012": 3.21020011483,
			"-0.011": 1.79703418567,
			"-0.01": 2.68345971261,
			"-0.009": 1.24318017729,
			"-0.008": 3.52564993794,
			"-0.007": 5.02062185849,
			"-0.006": 7.86198976519,
			"-0.005": 7.04917943644,
			"-0.004": 6.73804447514,
			"-0.003": 7.11839323191,
			"-0.002": 7.27024838491,
			"-0.001": 9.57664860688,
			"0.0": 11.5072999512,
			"0.001": 16.6966820432,
			"0.002": 20.1538264715,
			"0.003": 14.0614833733,
			"0.004": 8.43885280949,
			"0.005": 4.61384191717,
			"0.006": 3.76269882013,
			"0.007": 2.67181240417,
			"0.008": 4.13560566125,
			"0.009": 2.18712408964,
			"0.01": 2.95222657871,
			"0.011": 1.76887154037,
			"0.012": 1.84823649477,
			"0.013": 1.82483389361,
			"0.014": 1.87614472767,
			"0.015": 1.09340946458,
			"0.016": 0.857255247963,
			"0.017": 0.578381087183,
			"0.018": 0.0,
			"0.019": 0.0,
			"0.02": 0.0,
			"0.021": 0.0,
			"0.022": 0.0,
			"0.023": 0.0,
			"0.024": 0.0,
			"0.025": 0.0
		}
	}
}
