{
	 "smiles": "CN(C)C=NC1=C(C#N)C(C)=C(C)S1", 
	 "Tm": 391.15, 
	 "num_atms": 27, 
	 "gaussian": { 
		 "optdone": 1, 
		 "sigma_profile": "yes", 
		 "theory": "DFT", 
		 "functional": "B3LYP", 
		 "basiset": "6-31G**", 
		 "properties": { 
			 "R2extent": 3786.9709, 
			 "electric_dipole_moment_norm": 3.63111722064, 
			 "electric_quadrupole_moment_norm": 23.3848441496, 
			 "total_energy": -951.309966362, 
			 "HOMO_LUMO_gap": 0.1645, 
			 "cosmo_polarized_energy": -12.88, 
			 "cosmo_cavitation_energy": 32.14, 
			 "cosmo_dispersion_energy": -22.32, 
			 "cosmo_repulsion_energy": 1.72, 
			 "cosmo_total_nonelectrostatic_energy": 11.54, 
			 "SMD_solvation_energy": 5.28 
		},
		"coords": [
			{
				"x": 0.8566724137,
				"y": 1.4322717859,
				"z": 0.9391894032,
				"element": "C" 
			},
			{
				"x": 0.8576151962,
				"y": 2.5580729483,
				"z": 0.0144778416,
				"element": "N" 
			},
			{
				"x": 0.6621663525,
				"y": 3.8769547329,
				"z": 0.6035181996,
				"element": "C" 
			},
			{
				"x": 0.8980648304,
				"y": 2.4277536881,
				"z": -1.3362609126,
				"element": "C" 
			},
			{
				"x": 0.8327906218,
				"y": 1.3908216573,
				"z": -2.1040273912,
				"element": "N" 
			},
			{
				"x": 0.3274048789,
				"y": 0.1587909281,
				"z": -1.8119755019,
				"element": "C" 
			},
			{
				"x": -0.9196531639,
				"y": -0.2109663879,
				"z": -1.3120176145,
				"element": "C" 
			},
			{
				"x": -1.8678554719,
				"y": 0.7478422648,
				"z": -0.8688924566,
				"element": "C" 
			},
			{
				"x": -2.6291951307,
				"y": 1.5451094936,
				"z": -0.4858898765,
				"element": "N" 
			},
			{
				"x": -1.1574869873,
				"y": -1.6420567635,
				"z": -1.3102504778,
				"element": "C" 
			},
			{
				"x": -2.4533043489,
				"y": -2.216383009,
				"z": -0.8055918593,
				"element": "C" 
			},
			{
				"x": -0.0984078193,
				"y": -2.3477927,
				"z": -1.8079797833,
				"element": "C" 
			},
			{
				"x": 0.0814356566,
				"y": -3.8278405798,
				"z": -1.9737163652,
				"element": "C" 
			},
			{
				"x": 1.209442084,
				"y": -1.274114022,
				"z": -2.3076353918,
				"element": "S" 
			},
			{
				"x": 1.3556698647,
				"y": 0.5763830121,
				"z": 0.4863005521,
				"element": "H" 
			},
			{
				"x": -0.1591168804,
				"y": 1.1409137286,
				"z": 1.2289991592,
				"element": "H" 
			},
			{
				"x": 1.4105388657,
				"y": 1.7229861371,
				"z": 1.8373831627,
				"element": "H" 
			},
			{
				"x": 1.3861684684,
				"y": 4.0449959364,
				"z": 1.4085529064,
				"element": "H" 
			},
			{
				"x": 0.7999257695,
				"y": 4.6476041173,
				"z": -0.1579038652,
				"element": "H" 
			},
			{
				"x": -0.3501221165,
				"y": 3.9762994854,
				"z": 1.0138295468,
				"element": "H" 
			},
			{
				"x": 1.0708505338,
				"y": 3.3816636796,
				"z": -1.8395898677,
				"element": "H" 
			},
			{
				"x": -2.6289254932,
				"y": -1.9354298801,
				"z": 0.239216075,
				"element": "H" 
			},
			{
				"x": -2.4703446191,
				"y": -3.3059875825,
				"z": -0.8671447432,
				"element": "H" 
			},
			{
				"x": -3.3023894942,
				"y": -1.8334314115,
				"z": -1.3830785884,
				"element": "H" 
			},
			{
				"x": 0.9338260226,
				"y": -4.2020065172,
				"z": -1.3940667347,
				"element": "H" 
			},
			{
				"x": 0.2545342679,
				"y": -4.1011479629,
				"z": -3.0213221926,
				"element": "H" 
			},
			{
				"x": -0.807204301,
				"y": -4.365706779,
				"z": -1.6359232242,
				"element": "H" 
			}
		],
		 "valence_orbital": [ 
			{
				"type": "occ",
				"energy": -0.31589,
				"method": "rhf"
			},
			{
				"type": "occ",
				"energy": -0.29125,
				"method": "rhf"
			},
			{
				"type": "occ",
				"energy": -0.24537,
				"method": "rhf"
			},
			{
				"type": "occ",
				"energy": -0.24043,
				"method": "rhf"
			},
			{
				"type": "occ",
				"energy": -0.195,
				"method": "rhf"
			},
			{
				"type": "unocc",
				"energy": -0.0305,
				"method": "rhf"
			},
			{
				"type": "unocc",
				"energy": 0.0157,
				"method": "rhf"
			},
			{
				"type": "unocc",
				"energy": 0.01957,
				"method": "rhf"
			},
			{
				"type": "unocc",
				"energy": 0.02724,
				"method": "rhf"
			},
			{
				"type": "unocc",
				"energy": 0.06087,
				"method": "rhf"
			}
		],
		"cosmo_sigma_profile": { 
			"-0.025": 0.0,
			"-0.024": 0.0,
			"-0.023": 0.0,
			"-0.022": 0.0,
			"-0.021": 0.0,
			"-0.02": 0.0,
			"-0.019": 0.0,
			"-0.018": 0.0,
			"-0.017": 0.0,
			"-0.016": 0.0,
			"-0.015": 0.0,
			"-0.014": 0.0,
			"-0.013": 0.0,
			"-0.012": 0.0,
			"-0.011": 0.0,
			"-0.01": 0.115622960967,
			"-0.009": 1.88559348186,
			"-0.008": 2.7332907572,
			"-0.007": 4.1666675901,
			"-0.006": 9.50340610311,
			"-0.005": 15.8734372427,
			"-0.004": 26.1239966293,
			"-0.003": 31.8328770826,
			"-0.002": 28.0149166995,
			"-0.001": 22.3023650061,
			"0.0": 19.7556799061,
			"0.001": 14.7252441831,
			"0.002": 14.2535089166,
			"0.003": 15.6531077977,
			"0.004": 12.7866271948,
			"0.005": 7.22786735421,
			"0.006": 3.51893754643,
			"0.007": 2.888101829,
			"0.008": 3.75363978427,
			"0.009": 3.62779708153,
			"0.01": 4.16095586904,
			"0.011": 3.60154830067,
			"0.012": 3.53609621289,
			"0.013": 3.36342872437,
			"0.014": 2.09980079619,
			"0.015": 0.0199830457191,
			"0.016": 0.0,
			"0.017": 0.0,
			"0.018": 0.0,
			"0.019": 0.0,
			"0.02": 0.0,
			"0.021": 0.0,
			"0.022": 0.0,
			"0.023": 0.0,
			"0.024": 0.0,
			"0.025": 0.0
		}
	}
}
