{
	 "smiles": "ClS(=O)(=O)C1=CC=C(C=C1)N1CCOC1=O", 
	 "Tm": 442.15, 
	 "num_atms": 24, 
	 "gaussian": { 
		 "optdone": 1, 
		 "sigma_profile": "yes", 
		 "theory": "DFT", 
		 "functional": "B3LYP", 
		 "basiset": "6-31G**", 
		 "properties": { 
			 "R2extent": 6622.3001, 
			 "electric_dipole_moment_norm": 8.07488401774, 
			 "electric_quadrupole_moment_norm": 16.0840876008, 
			 "total_energy": -1561.75028836, 
			 "HOMO_LUMO_gap": 0.16866, 
			 "cosmo_polarized_energy": -18.71, 
			 "cosmo_cavitation_energy": 31.67, 
			 "cosmo_dispersion_energy": -24.12, 
			 "cosmo_repulsion_energy": 1.82, 
			 "cosmo_total_nonelectrostatic_energy": 9.37, 
			 "SMD_solvation_energy": 4.93 
		},
		"coords": [
			{
				"x": 0.1826313424,
				"y": 1.7740422118,
				"z": 4.5438112625,
				"element": "Cl" 
			},
			{
				"x": -1.5181310653,
				"y": 1.070611698,
				"z": 3.4499986053,
				"element": "S" 
			},
			{
				"x": -2.512336463,
				"y": 2.1333620813,
				"z": 3.5331934096,
				"element": "O" 
			},
			{
				"x": -1.7747000921,
				"y": -0.2787094139,
				"z": 3.9402574163,
				"element": "O" 
			},
			{
				"x": -0.8748370271,
				"y": 0.9859097139,
				"z": 1.7960364999,
				"element": "C" 
			},
			{
				"x": -0.9664650646,
				"y": 2.1038838437,
				"z": 0.9634412655,
				"element": "C" 
			},
			{
				"x": -0.4783047091,
				"y": 2.0360321915,
				"z": -0.3341180794,
				"element": "C" 
			},
			{
				"x": 0.113188365,
				"y": 0.8443310519,
				"z": -0.8039155291,
				"element": "C" 
			},
			{
				"x": 0.1955843876,
				"y": -0.269744043,
				"z": 0.054963753,
				"element": "C" 
			},
			{
				"x": -0.2944944315,
				"y": -0.2015347714,
				"z": 1.3535706745,
				"element": "C" 
			},
			{
				"x": 0.6019444888,
				"y": 0.7303133781,
				"z": -2.1143642568,
				"element": "N" 
			},
			{
				"x": 1.185959507,
				"y": -0.5015737537,
				"z": -2.6379965622,
				"element": "C" 
			},
			{
				"x": 1.3908744672,
				"y": -0.1317332249,
				"z": -4.1143863542,
				"element": "C" 
			},
			{
				"x": 1.3793427365,
				"y": 1.3025861675,
				"z": -4.1392639282,
				"element": "O" 
			},
			{
				"x": 0.816337139,
				"y": 1.7922884592,
				"z": -3.0010036136,
				"element": "C" 
			},
			{
				"x": 0.5714311896,
				"y": 2.9618692676,
				"z": -2.8413260143,
				"element": "O" 
			},
			{
				"x": -1.428953496,
				"y": 3.0154618576,
				"z": 1.3250451426,
				"element": "H" 
			},
			{
				"x": -0.5418647976,
				"y": 2.8939866148,
				"z": -0.9873089123,
				"element": "H" 
			},
			{
				"x": 0.6438201695,
				"y": -1.1964401374,
				"z": -0.2811840386,
				"element": "H" 
			},
			{
				"x": -0.2357415327,
				"y": -1.0609420711,
				"z": 2.0117054388,
				"element": "H" 
			},
			{
				"x": 2.1303513191,
				"y": -0.7364036465,
				"z": -2.1300839995,
				"element": "H" 
			},
			{
				"x": 0.506210998,
				"y": -1.3499844039,
				"z": -2.5205454183,
				"element": "H" 
			},
			{
				"x": 0.5749046653,
				"y": -0.4998656606,
				"z": -4.7450723082,
				"element": "H" 
			},
			{
				"x": 2.3434479041,
				"y": -0.4784474104,
				"z": -4.5177544534,
				"element": "H" 
			}
		],
		 "valence_orbital": [ 
			{
				"type": "occ",
				"energy": -0.31997,
				"method": "rhf"
			},
			{
				"type": "occ",
				"energy": -0.30847,
				"method": "rhf"
			},
			{
				"type": "occ",
				"energy": -0.3024,
				"method": "rhf"
			},
			{
				"type": "occ",
				"energy": -0.28904,
				"method": "rhf"
			},
			{
				"type": "occ",
				"energy": -0.25542,
				"method": "rhf"
			},
			{
				"type": "unocc",
				"energy": -0.08676,
				"method": "rhf"
			},
			{
				"type": "unocc",
				"energy": -0.04219,
				"method": "rhf"
			},
			{
				"type": "unocc",
				"energy": -0.03794,
				"method": "rhf"
			},
			{
				"type": "unocc",
				"energy": 0.02237,
				"method": "rhf"
			},
			{
				"type": "unocc",
				"energy": 0.05157,
				"method": "rhf"
			}
		],
		"cosmo_sigma_profile": { 
			"-0.025": 0.0,
			"-0.024": 0.0,
			"-0.023": 0.0,
			"-0.022": 0.0,
			"-0.021": 0.0,
			"-0.02": 0.0,
			"-0.019": 0.0,
			"-0.018": 0.0,
			"-0.017": 0.0,
			"-0.016": 0.0,
			"-0.015": 0.0,
			"-0.014": 0.0,
			"-0.013": 0.0,
			"-0.012": 0.0,
			"-0.011": 0.0,
			"-0.01": 0.106578774087,
			"-0.009": 2.81553505464,
			"-0.008": 12.9665623698,
			"-0.007": 25.4358337352,
			"-0.006": 16.6263283523,
			"-0.005": 13.1247378919,
			"-0.004": 10.9147238155,
			"-0.003": 10.2828931593,
			"-0.002": 11.46374976,
			"-0.001": 14.9990731246,
			"0.0": 17.7475721699,
			"0.001": 22.1116153635,
			"0.002": 15.7933272828,
			"0.003": 13.9219616655,
			"0.004": 16.4687441065,
			"0.005": 5.74562214541,
			"0.006": 4.88149151111,
			"0.007": 8.87369087847,
			"0.008": 11.7958300051,
			"0.009": 10.9900897154,
			"0.01": 3.32886925643,
			"0.011": 3.49583924268,
			"0.012": 2.60647380092,
			"0.013": 0.394593954887,
			"0.014": 0.0,
			"0.015": 0.0,
			"0.016": 0.0,
			"0.017": 0.0,
			"0.018": 0.0,
			"0.019": 0.0,
			"0.02": 0.0,
			"0.021": 0.0,
			"0.022": 0.0,
			"0.023": 0.0,
			"0.024": 0.0,
			"0.025": 0.0
		}
	}
}
