{
	 "smiles": "COC1=C(OC2=NC=C(N)C=C2)C=CC(C)=C1", 
	 "Tm": 380.15, 
	 "num_atms": 31, 
	 "gaussian": { 
		 "optdone": 1, 
		 "sigma_profile": "yes", 
		 "theory": "DFT", 
		 "functional": "B3LYP", 
		 "basiset": "6-31G**", 
		 "properties": { 
			 "R2extent": 5018.0934, 
			 "electric_dipole_moment_norm": 2.18691369057, 
			 "electric_quadrupole_moment_norm": 15.8638806986, 
			 "total_energy": -763.754106431, 
			 "HOMO_LUMO_gap": 0.17939, 
			 "cosmo_polarized_energy": -16.34, 
			 "cosmo_cavitation_energy": 35.25, 
			 "cosmo_dispersion_energy": -24.95, 
			 "cosmo_repulsion_energy": 1.98, 
			 "cosmo_total_nonelectrostatic_energy": 12.28, 
			 "SMD_solvation_energy": 6.09 
		},
		"coords": [
			{
				"x": -2.5454108069,
				"y": 0.5332667683,
				"z": 0.5443516769,
				"element": "C" 
			},
			{
				"x": -1.2198147933,
				"y": 0.0375911872,
				"z": 0.6162836588,
				"element": "O" 
			},
			{
				"x": -0.7565376218,
				"y": -0.7139872352,
				"z": -0.4202223417,
				"element": "C" 
			},
			{
				"x": 0.5894219133,
				"y": -1.1245726673,
				"z": -0.3294287425,
				"element": "C" 
			},
			{
				"x": 1.3380855676,
				"y": -0.8312773684,
				"z": 0.8000102729,
				"element": "O" 
			},
			{
				"x": 1.7304572716,
				"y": 0.4652951503,
				"z": 1.025922488,
				"element": "C" 
			},
			{
				"x": 1.594288755,
				"y": 1.3731825716,
				"z": 0.0755059919,
				"element": "N" 
			},
			{
				"x": 2.0187595979,
				"y": 2.6179598677,
				"z": 0.3284112776,
				"element": "C" 
			},
			{
				"x": 2.6021560951,
				"y": 3.0162337447,
				"z": 1.5368193206,
				"element": "C" 
			},
			{
				"x": 2.9727113862,
				"y": 4.3485287141,
				"z": 1.7714142026,
				"element": "N" 
			},
			{
				"x": 2.7380596626,
				"y": 2.0268490924,
				"z": 2.5279902055,
				"element": "C" 
			},
			{
				"x": 2.3002101551,
				"y": 0.7361104828,
				"z": 2.2774470474,
				"element": "C" 
			},
			{
				"x": 1.1422049481,
				"y": -1.9179509415,
				"z": -1.3203954177,
				"element": "C" 
			},
			{
				"x": 0.3756594875,
				"y": -2.3121489564,
				"z": -2.4226696478,
				"element": "C" 
			},
			{
				"x": -0.9527545914,
				"y": -1.9048665262,
				"z": -2.54116769,
				"element": "C" 
			},
			{
				"x": -1.7945377668,
				"y": -2.3063713148,
				"z": -3.7305196928,
				"element": "C" 
			},
			{
				"x": -1.5092378212,
				"y": -1.1035367133,
				"z": -1.528697785,
				"element": "C" 
			},
			{
				"x": -2.6949756009,
				"y": 1.1240551967,
				"z": 1.4494176343,
				"element": "H" 
			},
			{
				"x": -3.2825624621,
				"y": -0.2801458509,
				"z": 0.5193336371,
				"element": "H" 
			},
			{
				"x": -2.6898467146,
				"y": 1.1746212946,
				"z": -0.3345146362,
				"element": "H" 
			},
			{
				"x": 1.8888360504,
				"y": 3.3417564889,
				"z": -0.476521154,
				"element": "H" 
			},
			{
				"x": 3.7432437178,
				"y": 4.4574555824,
				"z": 2.4180834127,
				"element": "H" 
			},
			{
				"x": 3.1364390202,
				"y": 4.8841050163,
				"z": 0.9284960096,
				"element": "H" 
			},
			{
				"x": 3.1785510456,
				"y": 2.2775560992,
				"z": 3.4899662896,
				"element": "H" 
			},
			{
				"x": 2.3862584054,
				"y": -0.0522430028,
				"z": 3.0165839559,
				"element": "H" 
			},
			{
				"x": 2.1778152291,
				"y": -2.225223965,
				"z": -1.2163057348,
				"element": "H" 
			},
			{
				"x": 0.8221590404,
				"y": -2.9350430908,
				"z": -3.1924355282,
				"element": "H" 
			},
			{
				"x": -1.2483857359,
				"y": -2.9838186989,
				"z": -4.3926008912,
				"element": "H" 
			},
			{
				"x": -2.7151196379,
				"y": -2.8135494764,
				"z": -3.4189824599,
				"element": "H" 
			},
			{
				"x": -2.0938080975,
				"y": -1.4330318584,
				"z": -4.3225538513,
				"element": "H" 
			},
			{
				"x": -2.5450256983,
				"y": -0.7931995909,
				"z": -1.6150215085,
				"element": "H" 
			}
		],
		 "valence_orbital": [ 
			{
				"type": "occ",
				"energy": -0.26748,
				"method": "rhf"
			},
			{
				"type": "occ",
				"energy": -0.25449,
				"method": "rhf"
			},
			{
				"type": "occ",
				"energy": -0.22984,
				"method": "rhf"
			},
			{
				"type": "occ",
				"energy": -0.20607,
				"method": "rhf"
			},
			{
				"type": "occ",
				"energy": -0.19185,
				"method": "rhf"
			},
			{
				"type": "unocc",
				"energy": -0.01246,
				"method": "rhf"
			},
			{
				"type": "unocc",
				"energy": 0.00927,
				"method": "rhf"
			},
			{
				"type": "unocc",
				"energy": 0.02426,
				"method": "rhf"
			},
			{
				"type": "unocc",
				"energy": 0.02806,
				"method": "rhf"
			},
			{
				"type": "unocc",
				"energy": 0.07977,
				"method": "rhf"
			}
		],
		"cosmo_sigma_profile": { 
			"-0.025": 0.0,
			"-0.024": 0.0,
			"-0.023": 0.0,
			"-0.022": 0.0,
			"-0.021": 0.0,
			"-0.02": 0.0,
			"-0.019": 0.0,
			"-0.018": 0.0,
			"-0.017": 0.0,
			"-0.016": 0.0,
			"-0.015": 0.0,
			"-0.014": 0.0,
			"-0.013": 0.454194841397,
			"-0.012": 2.94942735334,
			"-0.011": 2.84570086733,
			"-0.01": 3.08580600218,
			"-0.009": 4.19413385194,
			"-0.008": 2.90128811336,
			"-0.007": 5.74547282635,
			"-0.006": 12.2993128245,
			"-0.005": 21.3214872153,
			"-0.004": 23.5283013062,
			"-0.003": 24.658708399,
			"-0.002": 19.5467578095,
			"-0.001": 15.8022619253,
			"0.0": 17.4987039045,
			"0.001": 14.5824109777,
			"0.002": 15.2205665656,
			"0.003": 19.273172604,
			"0.004": 19.0865208916,
			"0.005": 13.0447862704,
			"0.006": 10.606849244,
			"0.007": 5.72213403454,
			"0.008": 6.41995112895,
			"0.009": 6.99322648938,
			"0.01": 4.08741519317,
			"0.011": 1.66686200106,
			"0.012": 1.9943337219,
			"0.013": 2.26882412568,
			"0.014": 1.27602666223,
			"0.015": 0.856261282808,
			"0.016": 0.0505242366513,
			"0.017": 0.0,
			"0.018": 0.0,
			"0.019": 0.0,
			"0.02": 0.0,
			"0.021": 0.0,
			"0.022": 0.0,
			"0.023": 0.0,
			"0.024": 0.0,
			"0.025": 0.0
		}
	}
}
