{
	 "smiles": "[O-][N+](=O)C1=CC2=C(C=C1)C1=CC=C(C=C1C2)[N+]([O-])=O", 
	 "Tm": 607.15, 
	 "num_atms": 27, 
	 "gaussian": { 
		 "optdone": 1, 
		 "sigma_profile": "yes", 
		 "theory": "DFT", 
		 "functional": "B3LYP", 
		 "basiset": "6-31G**", 
		 "properties": { 
			 "R2extent": 7445.2034, 
			 "electric_dipole_moment_norm": 1.11477773121, 
			 "electric_quadrupole_moment_norm": 49.8848144869, 
			 "total_energy": -910.421183841, 
			 "HOMO_LUMO_gap": 0.14895, 
			 "cosmo_polarized_energy": -14.86, 
			 "cosmo_cavitation_energy": 33.17, 
			 "cosmo_dispersion_energy": -24.29, 
			 "cosmo_repulsion_energy": 1.82, 
			 "cosmo_total_nonelectrostatic_energy": 10.7, 
			 "SMD_solvation_energy": 9.45 
		},
		"coords": [
			{
				"x": 0.7302593219,
				"y": 4.9129447882,
				"z": 1.2594597103,
				"element": "O" 
			},
			{
				"x": -0.2035940233,
				"y": 4.2395589632,
				"z": 1.69530782,
				"element": "N" 
			},
			{
				"x": -1.1695666223,
				"y": 4.6936820836,
				"z": 2.3078001619,
				"element": "O" 
			},
			{
				"x": -0.1601735354,
				"y": 2.7866625301,
				"z": 1.4664627383,
				"element": "C" 
			},
			{
				"x": 0.9290131937,
				"y": 2.2528939626,
				"z": 0.7730797041,
				"element": "C" 
			},
			{
				"x": 0.9491701409,
				"y": 0.8812604079,
				"z": 0.5689330486,
				"element": "C" 
			},
			{
				"x": -0.1007326322,
				"y": 0.0668540717,
				"z": 1.0505193634,
				"element": "C" 
			},
			{
				"x": -1.1809444514,
				"y": 0.6254499345,
				"z": 1.7422670045,
				"element": "C" 
			},
			{
				"x": -1.2093017997,
				"y": 2.0011506015,
				"z": 1.951728691,
				"element": "C" 
			},
			{
				"x": 0.1876060864,
				"y": -1.3242445305,
				"z": 0.6913100544,
				"element": "C" 
			},
			{
				"x": -0.5335363508,
				"y": -2.4979766295,
				"z": 0.9356692106,
				"element": "C" 
			},
			{
				"x": -0.0255057841,
				"y": -3.7098894347,
				"z": 0.4769705049,
				"element": "C" 
			},
			{
				"x": 1.1891264125,
				"y": -3.7223838996,
				"z": -0.2141824963,
				"element": "C" 
			},
			{
				"x": 1.9276667831,
				"y": -2.5644637713,
				"z": -0.470671135,
				"element": "C" 
			},
			{
				"x": 1.414043599,
				"y": -1.3613403499,
				"z": -0.0100808272,
				"element": "C" 
			},
			{
				"x": 1.9855280077,
				"y": 0.0344853379,
				"z": -0.138409873,
				"element": "C" 
			},
			{
				"x": 1.713985136,
				"y": -5.0108775943,
				"z": -0.6932166122,
				"element": "N" 
			},
			{
				"x": 2.7852178344,
				"y": -4.9994524802,
				"z": -1.2997062319,
				"element": "O" 
			},
			{
				"x": 1.0514653414,
				"y": -6.0211943156,
				"z": -0.4591018345,
				"element": "O" 
			},
			{
				"x": 1.7126711463,
				"y": 2.9128088308,
				"z": 0.420854806,
				"element": "H" 
			},
			{
				"x": -1.9897889725,
				"y": 0.0043201344,
				"z": 2.1141640974,
				"element": "H" 
			},
			{
				"x": -2.0226429059,
				"y": 2.4810604414,
				"z": 2.4809941827,
				"element": "H" 
			},
			{
				"x": -1.4759647589,
				"y": -2.4748932391,
				"z": 1.4738464873,
				"element": "H" 
			},
			{
				"x": -0.5455644708,
				"y": -4.645138792,
				"z": 0.6407043693,
				"element": "H" 
			},
			{
				"x": 2.8632653688,
				"y": -2.6372877799,
				"z": -1.0119821323,
				"element": "H" 
			},
			{
				"x": 2.9741919866,
				"y": 0.1182491737,
				"z": 0.3309227616,
				"element": "H" 
			},
			{
				"x": 2.1121059486,
				"y": 0.3315615551,
				"z": -1.187443574,
				"element": "H" 
			}
		],
		 "valence_orbital": [ 
			{
				"type": "occ",
				"energy": -0.29738,
				"method": "rhf"
			},
			{
				"type": "occ",
				"energy": -0.29678,
				"method": "rhf"
			},
			{
				"type": "occ",
				"energy": -0.29025,
				"method": "rhf"
			},
			{
				"type": "occ",
				"energy": -0.28188,
				"method": "rhf"
			},
			{
				"type": "occ",
				"energy": -0.2605,
				"method": "rhf"
			},
			{
				"type": "unocc",
				"energy": -0.11155,
				"method": "rhf"
			},
			{
				"type": "unocc",
				"energy": -0.08459,
				"method": "rhf"
			},
			{
				"type": "unocc",
				"energy": -0.04978,
				"method": "rhf"
			},
			{
				"type": "unocc",
				"energy": -0.02897,
				"method": "rhf"
			},
			{
				"type": "unocc",
				"energy": -0.0287,
				"method": "rhf"
			}
		],
		"cosmo_sigma_profile": { 
			"-0.025": 0.0,
			"-0.024": 0.0,
			"-0.023": 0.0,
			"-0.022": 0.0,
			"-0.021": 0.0,
			"-0.02": 0.0,
			"-0.019": 0.0,
			"-0.018": 0.0,
			"-0.017": 0.0,
			"-0.016": 0.0,
			"-0.015": 0.0,
			"-0.014": 0.0,
			"-0.013": 0.0,
			"-0.012": 0.0,
			"-0.011": 0.0,
			"-0.01": 0.0,
			"-0.009": 0.416104636213,
			"-0.008": 6.4775167244,
			"-0.007": 14.2838604836,
			"-0.006": 18.0687594146,
			"-0.005": 20.0561394183,
			"-0.004": 16.4099525782,
			"-0.003": 15.4759079994,
			"-0.002": 18.8729730615,
			"-0.001": 21.3193300934,
			"0.0": 27.2772280694,
			"0.001": 27.7068482336,
			"0.002": 11.937105086,
			"0.003": 5.02080967479,
			"0.004": 4.600482292,
			"0.005": 6.85477874103,
			"0.006": 6.69126872345,
			"0.007": 15.1826496231,
			"0.008": 15.8319151492,
			"0.009": 8.96199964205,
			"0.01": 5.70661870395,
			"0.011": 0.413691488731,
			"0.012": 0.0,
			"0.013": 0.0,
			"0.014": 0.0,
			"0.015": 0.0,
			"0.016": 0.0,
			"0.017": 0.0,
			"0.018": 0.0,
			"0.019": 0.0,
			"0.02": 0.0,
			"0.021": 0.0,
			"0.022": 0.0,
			"0.023": 0.0,
			"0.024": 0.0,
			"0.025": 0.0
		}
	}
}
