{
	 "smiles": "ClCC1=NC2=C(C=NN2C2=CC=CC=C2)C(Cl)=N1", 
	 "Tm": 386.15, 
	 "num_atms": 26, 
	 "gaussian": { 
		 "optdone": 1, 
		 "sigma_profile": "yes", 
		 "theory": "DFT", 
		 "functional": "B3LYP", 
		 "basiset": "6-31G**", 
		 "properties": { 
			 "R2extent": 6508.7194, 
			 "electric_dipole_moment_norm": 2.89529770145, 
			 "electric_quadrupole_moment_norm": 8.50423243156, 
			 "total_energy": -1601.47886715, 
			 "HOMO_LUMO_gap": 0.15688, 
			 "cosmo_polarized_energy": -9.14, 
			 "cosmo_cavitation_energy": 34.83, 
			 "cosmo_dispersion_energy": -25.51, 
			 "cosmo_repulsion_energy": 1.97, 
			 "cosmo_total_nonelectrostatic_energy": 11.29, 
			 "SMD_solvation_energy": 2.25 
		},
		"coords": [
			{
				"x": 2.9667886575,
				"y": -2.2962877251,
				"z": 2.0707357118,
				"element": "Cl" 
			},
			{
				"x": 2.665112292,
				"y": -1.9869523491,
				"z": 0.3011572327,
				"element": "C" 
			},
			{
				"x": 2.1899634996,
				"y": -0.5780649549,
				"z": 0.0804797423,
				"element": "C" 
			},
			{
				"x": 0.8753219988,
				"y": -0.3734912169,
				"z": 0.0944728359,
				"element": "N" 
			},
			{
				"x": 0.5239207667,
				"y": 0.9054323513,
				"z": -0.0907630043,
				"element": "C" 
			},
			{
				"x": 1.435081184,
				"y": 1.9725779324,
				"z": -0.2960906448,
				"element": "C" 
			},
			{
				"x": 0.6165019795,
				"y": 3.1226153534,
				"z": -0.4602547614,
				"element": "C" 
			},
			{
				"x": -0.6575507946,
				"y": 2.8034045682,
				"z": -0.364781969,
				"element": "N" 
			},
			{
				"x": -0.7324534076,
				"y": 1.4521314712,
				"z": -0.1380731301,
				"element": "N" 
			},
			{
				"x": -2.0136779852,
				"y": 0.8340294642,
				"z": -0.0123846108,
				"element": "C" 
			},
			{
				"x": -3.1431537074,
				"y": 1.5356927642,
				"z": -0.450677394,
				"element": "C" 
			},
			{
				"x": -4.4015481479,
				"y": 0.9518219628,
				"z": -0.3262530626,
				"element": "C" 
			},
			{
				"x": -4.5419309227,
				"y": -0.3239225966,
				"z": 0.2239112636,
				"element": "C" 
			},
			{
				"x": -3.4085226444,
				"y": -1.013322012,
				"z": 0.6553980989,
				"element": "C" 
			},
			{
				"x": -2.1400856224,
				"y": -0.442882104,
				"z": 0.5468682378,
				"element": "C" 
			},
			{
				"x": 2.7826292951,
				"y": 1.5986471744,
				"z": -0.2905458631,
				"element": "C" 
			},
			{
				"x": 4.0253112097,
				"y": 2.8032515669,
				"z": -0.5433059151,
				"element": "Cl" 
			},
			{
				"x": 3.1591079518,
				"y": 0.35352036,
				"z": -0.1065875613,
				"element": "N" 
			},
			{
				"x": 3.6120486722,
				"y": -2.1576218116,
				"z": -0.2076727135,
				"element": "H" 
			},
			{
				"x": 1.9069787499,
				"y": -2.7013643939,
				"z": -0.0143613636,
				"element": "H" 
			},
			{
				"x": 0.9105612266,
				"y": 4.147840425,
				"z": -0.6356237052,
				"element": "H" 
			},
			{
				"x": -3.0235849979,
				"y": 2.5247353256,
				"z": -0.8741436455,
				"element": "H" 
			},
			{
				"x": -5.2756693778,
				"y": 1.4992118099,
				"z": -0.6661490979,
				"element": "H" 
			},
			{
				"x": -5.5251491344,
				"y": -0.7751636773,
				"z": 0.3158676672,
				"element": "H" 
			},
			{
				"x": -3.5049111523,
				"y": -2.0043934163,
				"z": 1.0886136859,
				"element": "H" 
			},
			{
				"x": -1.262589589,
				"y": -0.9806462719,
				"z": 0.879863966,
				"element": "H" 
			}
		],
		 "valence_orbital": [ 
			{
				"type": "occ",
				"energy": -0.29959,
				"method": "rhf"
			},
			{
				"type": "occ",
				"energy": -0.28613,
				"method": "rhf"
			},
			{
				"type": "occ",
				"energy": -0.27771,
				"method": "rhf"
			},
			{
				"type": "occ",
				"energy": -0.26153,
				"method": "rhf"
			},
			{
				"type": "occ",
				"energy": -0.23827,
				"method": "rhf"
			},
			{
				"type": "unocc",
				"energy": -0.08139,
				"method": "rhf"
			},
			{
				"type": "unocc",
				"energy": -0.04878,
				"method": "rhf"
			},
			{
				"type": "unocc",
				"energy": -0.01817,
				"method": "rhf"
			},
			{
				"type": "unocc",
				"energy": -0.0105,
				"method": "rhf"
			},
			{
				"type": "unocc",
				"energy": 0.01847,
				"method": "rhf"
			}
		],
		"cosmo_sigma_profile": { 
			"-0.025": 0.0,
			"-0.024": 0.0,
			"-0.023": 0.0,
			"-0.022": 0.0,
			"-0.021": 0.0,
			"-0.02": 0.0,
			"-0.019": 0.0,
			"-0.018": 0.0,
			"-0.017": 0.0,
			"-0.016": 0.0,
			"-0.015": 0.0,
			"-0.014": 0.0,
			"-0.013": 0.0,
			"-0.012": 0.0,
			"-0.011": 0.0,
			"-0.01": 0.798255009972,
			"-0.009": 2.31292829374,
			"-0.008": 4.68251440474,
			"-0.007": 6.19254161026,
			"-0.006": 12.8760843383,
			"-0.005": 17.5275080604,
			"-0.004": 21.8091827569,
			"-0.003": 24.3897856752,
			"-0.002": 21.0602514933,
			"-0.001": 20.3530590158,
			"0.0": 18.7255842672,
			"0.001": 21.0808211656,
			"0.002": 22.5895222164,
			"0.003": 26.3912360139,
			"0.004": 24.3268637972,
			"0.005": 19.308899925,
			"0.006": 11.492536511,
			"0.007": 3.43721285521,
			"0.008": 1.82038441789,
			"0.009": 1.84395796217,
			"0.01": 2.00269873038,
			"0.011": 0.700846984785,
			"0.012": 0.558607477697,
			"0.013": 0.0,
			"0.014": 0.0,
			"0.015": 0.0,
			"0.016": 0.0,
			"0.017": 0.0,
			"0.018": 0.0,
			"0.019": 0.0,
			"0.02": 0.0,
			"0.021": 0.0,
			"0.022": 0.0,
			"0.023": 0.0,
			"0.024": 0.0,
			"0.025": 0.0
		}
	}
}
