{
	 "smiles": "CCC(N)C(O)=O", 
	 "Tm": 577.15, 
	 "num_atms": 16, 
	 "gaussian": { 
		 "optdone": 1, 
		 "sigma_profile": "yes", 
		 "theory": "DFT", 
		 "functional": "B3LYP", 
		 "basiset": "6-31G**", 
		 "properties": { 
			 "R2extent": 964.356, 
			 "electric_dipole_moment_norm": 4.08091303264, 
			 "electric_quadrupole_moment_norm": 8.58454383762, 
			 "total_energy": -363.055448678, 
			 "HOMO_LUMO_gap": 0.24588, 
			 "cosmo_polarized_energy": -15.2, 
			 "cosmo_cavitation_energy": 18.94, 
			 "cosmo_dispersion_energy": -13.79, 
			 "cosmo_repulsion_energy": 1.18, 
			 "cosmo_total_nonelectrostatic_energy": 6.33, 
			 "SMD_solvation_energy": 3.15 
		},
		"coords": [
			{
				"x": 1.0283275278,
				"y": -0.91189705,
				"z": 2.6485724882,
				"element": "C" 
			},
			{
				"x": -0.051248014,
				"y": -0.0717867345,
				"z": 1.9605736421,
				"element": "C" 
			},
			{
				"x": -0.1888089532,
				"y": -0.3247236639,
				"z": 0.4303654823,
				"element": "C" 
			},
			{
				"x": -0.5385783239,
				"y": -1.6831900633,
				"z": 0.0480268838,
				"element": "N" 
			},
			{
				"x": 1.1275503413,
				"y": 0.0441158937,
				"z": -0.2607844505,
				"element": "C" 
			},
			{
				"x": 1.3721450376,
				"y": 1.3710780306,
				"z": -0.3985181804,
				"element": "O" 
			},
			{
				"x": 1.9470045349,
				"y": -0.76677682,
				"z": -0.6179467819,
				"element": "O" 
			},
			{
				"x": 1.0282903821,
				"y": -0.7303239279,
				"z": 3.7273601671,
				"element": "H" 
			},
			{
				"x": 0.8557277381,
				"y": -1.9808767201,
				"z": 2.4900786496,
				"element": "H" 
			},
			{
				"x": 2.0270721133,
				"y": -0.6792837164,
				"z": 2.2670572889,
				"element": "H" 
			},
			{
				"x": 0.1392143641,
				"y": 0.9961656082,
				"z": 2.1342143355,
				"element": "H" 
			},
			{
				"x": -1.0306072408,
				"y": -0.27906822,
				"z": 2.4111491783,
				"element": "H" 
			},
			{
				"x": -0.9670861784,
				"y": 0.3624768278,
				"z": 0.0586447504,
				"element": "H" 
			},
			{
				"x": -1.098918294,
				"y": -2.1327047985,
				"z": 0.7654220122,
				"element": "H" 
			},
			{
				"x": 0.3149472754,
				"y": -2.2199359356,
				"z": -0.084951794,
				"element": "H" 
			},
			{
				"x": 0.6022676897,
				"y": 1.88253129,
				"z": -0.1107636717,
				"element": "H" 
			}
		],
		 "valence_orbital": [ 
			{
				"type": "occ",
				"energy": -0.3614,
				"method": "rhf"
			},
			{
				"type": "occ",
				"energy": -0.35662,
				"method": "rhf"
			},
			{
				"type": "occ",
				"energy": -0.32034,
				"method": "rhf"
			},
			{
				"type": "occ",
				"energy": -0.2764,
				"method": "rhf"
			},
			{
				"type": "occ",
				"energy": -0.24126,
				"method": "rhf"
			},
			{
				"type": "unocc",
				"energy": 0.00462,
				"method": "rhf"
			},
			{
				"type": "unocc",
				"energy": 0.04485,
				"method": "rhf"
			},
			{
				"type": "unocc",
				"energy": 0.07833,
				"method": "rhf"
			},
			{
				"type": "unocc",
				"energy": 0.1258,
				"method": "rhf"
			},
			{
				"type": "unocc",
				"energy": 0.13475,
				"method": "rhf"
			}
		],
		"cosmo_sigma_profile": { 
			"-0.025": 0.0,
			"-0.024": 0.0,
			"-0.023": 0.0,
			"-0.022": 0.0,
			"-0.021": 0.0,
			"-0.02": 0.0,
			"-0.019": 0.25862770956,
			"-0.018": 1.05119956788,
			"-0.017": 0.911869816664,
			"-0.016": 1.24946066338,
			"-0.015": 1.1923719963,
			"-0.014": 1.0549159033,
			"-0.013": 1.00217385975,
			"-0.012": 1.46232997186,
			"-0.011": 0.97089919926,
			"-0.01": 1.73617929428,
			"-0.009": 2.48627804999,
			"-0.008": 3.36986276734,
			"-0.007": 4.40899389681,
			"-0.006": 5.41979025065,
			"-0.005": 6.20313465275,
			"-0.004": 9.95360881738,
			"-0.003": 12.0546301605,
			"-0.002": 11.4504880252,
			"-0.001": 12.9770121732,
			"0.0": 10.2051274971,
			"0.001": 9.35816780497,
			"0.002": 4.60286973885,
			"0.003": 3.14069265462,
			"0.004": 2.93516931964,
			"0.005": 3.42478252536,
			"0.006": 2.39663076863,
			"0.007": 3.94426761619,
			"0.008": 3.55229679328,
			"0.009": 4.29310624269,
			"0.01": 5.66649957005,
			"0.011": 5.19110836209,
			"0.012": 3.73540866937,
			"0.013": 1.5904492773,
			"0.014": 0.85394434926,
			"0.015": 0.623919618027,
			"0.016": 0.599995752636,
			"0.017": 0.498048513058,
			"0.018": 0.640038762206,
			"0.019": 0.351254188622,
			"0.02": 0.0,
			"0.021": 0.0,
			"0.022": 0.0,
			"0.023": 0.0,
			"0.024": 0.0,
			"0.025": 0.0
		}
	}
}
