{
	 "smiles": "CC(COC1=CC=C(OC2=CC=CC=C2)C=C1)OC1=NC=CC=C1", 
	 "Tm": 322.15, 
	 "num_atms": 43, 
	 "gaussian": { 
		 "optdone": 1, 
		 "sigma_profile": "yes", 
		 "theory": "DFT", 
		 "functional": "B3LYP", 
		 "basiset": "6-31G**", 
		 "properties": { 
			 "R2extent": 12695.4121, 
			 "electric_dipole_moment_norm": 2.95083921114, 
			 "electric_quadrupole_moment_norm": 17.3188042067, 
			 "total_energy": -1053.98673629, 
			 "HOMO_LUMO_gap": 0.17529, 
			 "cosmo_polarized_energy": -9.83, 
			 "cosmo_cavitation_energy": 46.99, 
			 "cosmo_dispersion_energy": -32.82, 
			 "cosmo_repulsion_energy": 2.49, 
			 "cosmo_total_nonelectrostatic_energy": 16.66, 
			 "SMD_solvation_energy": 8.42 
		},
		"coords": [
			{
				"x": -3.6738756083,
				"y": -2.5283182344,
				"z": -0.6455995594,
				"element": "C" 
			},
			{
				"x": -2.3285537696,
				"y": -2.4197225866,
				"z": -1.3463546364,
				"element": "C" 
			},
			{
				"x": -1.2399843418,
				"y": -3.2714065359,
				"z": -0.6741691398,
				"element": "C" 
			},
			{
				"x": -1.0082810639,
				"y": -2.8790911833,
				"z": 0.6761134528,
				"element": "O" 
			},
			{
				"x": -0.1383313689,
				"y": -1.8520425936,
				"z": 0.9432956912,
				"element": "C" 
			},
			{
				"x": 0.1285530167,
				"y": -1.6356857952,
				"z": 2.303865898,
				"element": "C" 
			},
			{
				"x": 1.0013112304,
				"y": -0.6292085745,
				"z": 2.6990216935,
				"element": "C" 
			},
			{
				"x": 1.6106372425,
				"y": 0.1778617015,
				"z": 1.7321706118,
				"element": "C" 
			},
			{
				"x": 2.5531069169,
				"y": 1.1346115735,
				"z": 2.0829197932,
				"element": "O" 
			},
			{
				"x": 2.1891316539,
				"y": 2.2102290621,
				"z": 2.8642458399,
				"element": "C" 
			},
			{
				"x": 3.2405702284,
				"y": 2.9074198704,
				"z": 3.4695973811,
				"element": "C" 
			},
			{
				"x": 2.9670013258,
				"y": 4.0328910699,
				"z": 4.2430658152,
				"element": "C" 
			},
			{
				"x": 1.6507953264,
				"y": 4.4681827133,
				"z": 4.4223862074,
				"element": "C" 
			},
			{
				"x": 0.6105890769,
				"y": 3.7660781997,
				"z": 3.8129023463,
				"element": "C" 
			},
			{
				"x": 0.8683600145,
				"y": 2.6382352757,
				"z": 3.0303502899,
				"element": "C" 
			},
			{
				"x": 1.3463977143,
				"y": -0.0302813185,
				"z": 0.3824622088,
				"element": "C" 
			},
			{
				"x": 0.4741159278,
				"y": -1.0456702693,
				"z": -0.0231488618,
				"element": "C" 
			},
			{
				"x": -2.521342941,
				"y": -2.9184137363,
				"z": -2.6903408001,
				"element": "O" 
			},
			{
				"x": -1.7098653818,
				"y": -2.4830840648,
				"z": -3.6834697769,
				"element": "C" 
			},
			{
				"x": -0.6904216835,
				"y": -1.67389381,
				"z": -3.4089206836,
				"element": "N" 
			},
			{
				"x": 0.0753033495,
				"y": -1.2655932311,
				"z": -4.4369663366,
				"element": "C" 
			},
			{
				"x": -0.1371790799,
				"y": -1.6458064041,
				"z": -5.7546777624,
				"element": "C" 
			},
			{
				"x": -1.2131748846,
				"y": -2.5039302525,
				"z": -6.023258686,
				"element": "C" 
			},
			{
				"x": -2.0178095117,
				"y": -2.9337314793,
				"z": -4.9810376927,
				"element": "C" 
			},
			{
				"x": -3.5700012631,
				"y": -2.2264964129,
				"z": 0.3995394004,
				"element": "H" 
			},
			{
				"x": -4.4140311846,
				"y": -1.8846859383,
				"z": -1.1283591087,
				"element": "H" 
			},
			{
				"x": -4.0401098268,
				"y": -3.5596930334,
				"z": -0.6743710718,
				"element": "H" 
			},
			{
				"x": -2.0025721029,
				"y": -1.3778048206,
				"z": -1.3998028218,
				"element": "H" 
			},
			{
				"x": -1.5828846367,
				"y": -4.3094761866,
				"z": -0.6231493098,
				"element": "H" 
			},
			{
				"x": -0.3150689169,
				"y": -3.2392028323,
				"z": -1.2582442335,
				"element": "H" 
			},
			{
				"x": -0.3504274948,
				"y": -2.2789312302,
				"z": 3.0347779214,
				"element": "H" 
			},
			{
				"x": 1.2193688317,
				"y": -0.4690198317,
				"z": 3.7499499738,
				"element": "H" 
			},
			{
				"x": 4.2551854577,
				"y": 2.5527878088,
				"z": 3.3202354592,
				"element": "H" 
			},
			{
				"x": 3.7873341817,
				"y": 4.5698728456,
				"z": 4.7110774699,
				"element": "H" 
			},
			{
				"x": 1.4402348791,
				"y": 5.3436089469,
				"z": 5.0289399689,
				"element": "H" 
			},
			{
				"x": -0.4165414906,
				"y": 4.0969782678,
				"z": 3.9399015449,
				"element": "H" 
			},
			{
				"x": 0.0574137339,
				"y": 2.1000482959,
				"z": 2.5531943162,
				"element": "H" 
			},
			{
				"x": 1.8302204016,
				"y": 0.6051169218,
				"z": -0.352307387,
				"element": "H" 
			},
			{
				"x": 0.2720225309,
				"y": -1.1809542932,
				"z": -1.0806462504,
				"element": "H" 
			},
			{
				"x": 0.8987669076,
				"y": -0.6038121907,
				"z": -4.1766494105,
				"element": "H" 
			},
			{
				"x": 0.5141819519,
				"y": -1.2881598283,
				"z": -6.54443225,
				"element": "H" 
			},
			{
				"x": -1.4196518377,
				"y": -2.8291166808,
				"z": -7.0389053098,
				"element": "H" 
			},
			{
				"x": -2.8656935112,
				"y": -3.5921892046,
				"z": -5.1306021946,
				"element": "H" 
			}
		],
		 "valence_orbital": [ 
			{
				"type": "occ",
				"energy": -0.25255,
				"method": "rhf"
			},
			{
				"type": "occ",
				"energy": -0.24497,
				"method": "rhf"
			},
			{
				"type": "occ",
				"energy": -0.23896,
				"method": "rhf"
			},
			{
				"type": "occ",
				"energy": -0.22395,
				"method": "rhf"
			},
			{
				"type": "occ",
				"energy": -0.20387,
				"method": "rhf"
			},
			{
				"type": "unocc",
				"energy": -0.02858,
				"method": "rhf"
			},
			{
				"type": "unocc",
				"energy": -0.00639,
				"method": "rhf"
			},
			{
				"type": "unocc",
				"energy": -0.00385,
				"method": "rhf"
			},
			{
				"type": "unocc",
				"energy": 0.00698,
				"method": "rhf"
			},
			{
				"type": "unocc",
				"energy": 0.01074,
				"method": "rhf"
			}
		],
		"cosmo_sigma_profile": { 
			"-0.025": 0.0,
			"-0.024": 0.0,
			"-0.023": 0.0,
			"-0.022": 0.0,
			"-0.021": 0.0,
			"-0.02": 0.0,
			"-0.019": 0.0,
			"-0.018": 0.0,
			"-0.017": 0.0,
			"-0.016": 0.0,
			"-0.015": 0.0,
			"-0.014": 0.0,
			"-0.013": 0.0,
			"-0.012": 0.0,
			"-0.011": 0.0,
			"-0.01": 0.0,
			"-0.009": 0.0,
			"-0.008": 0.0637822265447,
			"-0.007": 4.85852033468,
			"-0.006": 18.919988823,
			"-0.005": 27.0428388032,
			"-0.004": 32.4909414383,
			"-0.003": 32.4499405655,
			"-0.002": 28.0157738457,
			"-0.001": 29.1791477135,
			"0.0": 30.0137520564,
			"0.001": 30.1101203405,
			"0.002": 32.5887225816,
			"0.003": 35.3901904477,
			"0.004": 30.5238845006,
			"0.005": 18.9967448992,
			"0.006": 11.7751197362,
			"0.007": 4.31667315675,
			"0.008": 3.99859272734,
			"0.009": 3.27548388578,
			"0.01": 1.56579635403,
			"0.011": 0.00525952640548,
			"0.012": 0.0,
			"0.013": 0.0,
			"0.014": 0.0,
			"0.015": 0.0,
			"0.016": 0.0,
			"0.017": 0.0,
			"0.018": 0.0,
			"0.019": 0.0,
			"0.02": 0.0,
			"0.021": 0.0,
			"0.022": 0.0,
			"0.023": 0.0,
			"0.024": 0.0,
			"0.025": 0.0
		}
	}
}
