{
	 "smiles": "NC1=CC(=CC=C1)N1CCCCC1=O", 
	 "Tm": 418.15, 
	 "num_atms": 28, 
	 "gaussian": { 
		 "optdone": 1, 
		 "sigma_profile": "yes", 
		 "theory": "DFT", 
		 "functional": "B3LYP", 
		 "basiset": "6-31G**", 
		 "properties": { 
			 "R2extent": 3720.5262, 
			 "electric_dipole_moment_norm": 1.96315233744, 
			 "electric_quadrupole_moment_norm": 13.0073445895, 
			 "total_energy": -612.357021695, 
			 "HOMO_LUMO_gap": 0.19524, 
			 "cosmo_polarized_energy": -14.63, 
			 "cosmo_cavitation_energy": 29.73, 
			 "cosmo_dispersion_energy": -22.16, 
			 "cosmo_repulsion_energy": 1.75, 
			 "cosmo_total_nonelectrostatic_energy": 9.33, 
			 "SMD_solvation_energy": 4.59 
		},
		"coords": [
			{
				"x": -0.7411941078,
				"y": 3.3411281898,
				"z": -3.5155067664,
				"element": "N" 
			},
			{
				"x": 0.1774016109,
				"y": 2.4724211704,
				"z": -2.9181207452,
				"element": "C" 
			},
			{
				"x": -0.2780850637,
				"y": 1.4198134429,
				"z": -2.1116799937,
				"element": "C" 
			},
			{
				"x": 0.6272586291,
				"y": 0.5685390491,
				"z": -1.4704289718,
				"element": "C" 
			},
			{
				"x": 2.0064892921,
				"y": 0.7790077433,
				"z": -1.6222464818,
				"element": "C" 
			},
			{
				"x": 2.4541992096,
				"y": 1.8360690137,
				"z": -2.4151203962,
				"element": "C" 
			},
			{
				"x": 1.559790078,
				"y": 2.6806548121,
				"z": -3.0630581445,
				"element": "C" 
			},
			{
				"x": 0.1586717427,
				"y": -0.4858084195,
				"z": -0.6181257084,
				"element": "N" 
			},
			{
				"x": 0.9948196738,
				"y": -0.7949577416,
				"z": 0.5598686882,
				"element": "C" 
			},
			{
				"x": 0.2331882109,
				"y": -1.5314454191,
				"z": 1.6562347559,
				"element": "C" 
			},
			{
				"x": -0.4227233347,
				"y": -2.7803319061,
				"z": 1.0727595775,
				"element": "C" 
			},
			{
				"x": -1.4000360184,
				"y": -2.3559535924,
				"z": -0.0239989931,
				"element": "C" 
			},
			{
				"x": -0.9189574836,
				"y": -1.2768740208,
				"z": -0.9973818869,
				"element": "C" 
			},
			{
				"x": -1.5326357823,
				"y": -1.1078095223,
				"z": -2.0432624126,
				"element": "O" 
			},
			{
				"x": -0.395497206,
				"y": 3.8239200664,
				"z": -4.3337136716,
				"element": "H" 
			},
			{
				"x": -1.653771957,
				"y": 2.9382159021,
				"z": -3.6811442699,
				"element": "H" 
			},
			{
				"x": -1.3411066525,
				"y": 1.2506561491,
				"z": -2.0024209912,
				"element": "H" 
			},
			{
				"x": 2.7255249039,
				"y": 0.1222746761,
				"z": -1.1477566838,
				"element": "H" 
			},
			{
				"x": 3.5222125379,
				"y": 1.9955340484,
				"z": -2.5352263536,
				"element": "H" 
			},
			{
				"x": 1.9221978146,
				"y": 3.4993553178,
				"z": -3.6793943553,
				"element": "H" 
			},
			{
				"x": 1.3893795978,
				"y": 0.1528542602,
				"z": 0.9362099581,
				"element": "H" 
			},
			{
				"x": 1.8584944641,
				"y": -1.4057060162,
				"z": 0.2576979891,
				"element": "H" 
			},
			{
				"x": 0.9363113214,
				"y": -1.7825090086,
				"z": 2.4582041524,
				"element": "H" 
			},
			{
				"x": -0.5303477326,
				"y": -0.8716498179,
				"z": 2.0879357549,
				"element": "H" 
			},
			{
				"x": -0.9441547265,
				"y": -3.3575022934,
				"z": 1.844204757,
				"element": "H" 
			},
			{
				"x": 0.3526846084,
				"y": -3.4372702026,
				"z": 0.6569436455,
				"element": "H" 
			},
			{
				"x": -1.7234270771,
				"y": -3.1961508861,
				"z": -0.6441827849,
				"element": "H" 
			},
			{
				"x": -2.3129865531,
				"y": -1.9473749947,
				"z": 0.4303103322,
				"element": "H" 
			}
		],
		 "valence_orbital": [ 
			{
				"type": "occ",
				"energy": -0.30529,
				"method": "rhf"
			},
			{
				"type": "occ",
				"energy": -0.26604,
				"method": "rhf"
			},
			{
				"type": "occ",
				"energy": -0.23811,
				"method": "rhf"
			},
			{
				"type": "occ",
				"energy": -0.21347,
				"method": "rhf"
			},
			{
				"type": "occ",
				"energy": -0.19559,
				"method": "rhf"
			},
			{
				"type": "unocc",
				"energy": -0.00035,
				"method": "rhf"
			},
			{
				"type": "unocc",
				"energy": 0.01988,
				"method": "rhf"
			},
			{
				"type": "unocc",
				"energy": 0.04254,
				"method": "rhf"
			},
			{
				"type": "unocc",
				"energy": 0.0855,
				"method": "rhf"
			},
			{
				"type": "unocc",
				"energy": 0.08944,
				"method": "rhf"
			}
		],
		"cosmo_sigma_profile": { 
			"-0.025": 0.0,
			"-0.024": 0.0,
			"-0.023": 0.0,
			"-0.022": 0.0,
			"-0.021": 0.0,
			"-0.02": 0.0,
			"-0.019": 0.0,
			"-0.018": 0.0,
			"-0.017": 0.0,
			"-0.016": 0.0,
			"-0.015": 0.0,
			"-0.014": 0.0,
			"-0.013": 0.0946371223329,
			"-0.012": 2.10249423442,
			"-0.011": 2.66507617838,
			"-0.01": 2.7805978495,
			"-0.009": 3.56193261056,
			"-0.008": 2.35754735238,
			"-0.007": 2.65856328781,
			"-0.006": 5.05843822385,
			"-0.005": 14.8261393599,
			"-0.004": 25.0527801404,
			"-0.003": 32.250760188,
			"-0.002": 23.9312423213,
			"-0.001": 19.920662322,
			"0.0": 13.7578611063,
			"0.001": 8.79402874605,
			"0.002": 7.55728727855,
			"0.003": 7.17320995807,
			"0.004": 7.81739252021,
			"0.005": 8.19825006076,
			"0.006": 11.3446948635,
			"0.007": 7.8154849937,
			"0.008": 2.73395372123,
			"0.009": 2.87864412525,
			"0.01": 1.992704472,
			"0.011": 2.10293519287,
			"0.012": 3.12505722808,
			"0.013": 3.29502284694,
			"0.014": 5.5150356707,
			"0.015": 2.04947346585,
			"0.016": 0.0556805742279,
			"0.017": 0.0,
			"0.018": 0.0,
			"0.019": 0.0,
			"0.02": 0.0,
			"0.021": 0.0,
			"0.022": 0.0,
			"0.023": 0.0,
			"0.024": 0.0,
			"0.025": 0.0
		}
	}
}
