{
	 "smiles": "CCC1=CC=CC=C1NCN1C(=O)C2=CC=CC=C2C1=O", 
	 "Tm": 377.15, 
	 "num_atms": 37, 
	 "gaussian": { 
		 "optdone": 1, 
		 "sigma_profile": "yes", 
		 "theory": "DFT", 
		 "functional": "B3LYP", 
		 "basiset": "6-31G**", 
		 "properties": { 
			 "R2extent": 7283.8627, 
			 "electric_dipole_moment_norm": 3.51127041397, 
			 "electric_quadrupole_moment_norm": 17.2155656881, 
			 "total_energy": -917.446350187, 
			 "HOMO_LUMO_gap": 0.1095, 
			 "cosmo_polarized_energy": -12.66, 
			 "cosmo_cavitation_energy": 40.38, 
			 "cosmo_dispersion_energy": -28.23, 
			 "cosmo_repulsion_energy": 2.14, 
			 "cosmo_total_nonelectrostatic_energy": 14.28, 
			 "SMD_solvation_energy": 6.68 
		},
		"coords": [
			{
				"x": -3.2462688425,
				"y": -2.9385174507,
				"z": 1.7361066454,
				"element": "C" 
			},
			{
				"x": -2.1634983739,
				"y": -2.5473154614,
				"z": 0.7269802845,
				"element": "C" 
			},
			{
				"x": -2.5420633704,
				"y": -1.4856242688,
				"z": -0.2912231956,
				"element": "C" 
			},
			{
				"x": -3.7873423624,
				"y": -0.8549107351,
				"z": -0.2860524449,
				"element": "C" 
			},
			{
				"x": -4.1315829622,
				"y": 0.1112005716,
				"z": -1.2352951447,
				"element": "C" 
			},
			{
				"x": -3.2052303182,
				"y": 0.4594622262,
				"z": -2.2132500405,
				"element": "C" 
			},
			{
				"x": -1.9481993879,
				"y": -0.1457358662,
				"z": -2.2435428112,
				"element": "C" 
			},
			{
				"x": -1.605997105,
				"y": -1.1216365639,
				"z": -1.2951908628,
				"element": "C" 
			},
			{
				"x": -0.3723527497,
				"y": -1.7961227078,
				"z": -1.334120139,
				"element": "N" 
			},
			{
				"x": 0.732718339,
				"y": -1.3583806581,
				"z": -2.1359972386,
				"element": "C" 
			},
			{
				"x": 1.3748553831,
				"y": -0.1108405456,
				"z": -1.6862685963,
				"element": "N" 
			},
			{
				"x": 1.9967695716,
				"y": 0.0064420637,
				"z": -0.4355031987,
				"element": "C" 
			},
			{
				"x": 2.072978931,
				"y": -0.8863202342,
				"z": 0.3891177384,
				"element": "O" 
			},
			{
				"x": 2.5133769807,
				"y": 1.4054054089,
				"z": -0.3676955144,
				"element": "C" 
			},
			{
				"x": 3.2066380217,
				"y": 2.059503213,
				"z": 0.6401911896,
				"element": "C" 
			},
			{
				"x": 3.5659375958,
				"y": 3.3949646012,
				"z": 0.4131440564,
				"element": "C" 
			},
			{
				"x": 3.2351619169,
				"y": 4.039225241,
				"z": -0.7859544662,
				"element": "C" 
			},
			{
				"x": 2.5341834343,
				"y": 3.3695206103,
				"z": -1.798076513,
				"element": "C" 
			},
			{
				"x": 2.183105818,
				"y": 2.0482262468,
				"z": -1.5636718173,
				"element": "C" 
			},
			{
				"x": 1.4463245562,
				"y": 1.0791594916,
				"z": -2.4299454015,
				"element": "C" 
			},
			{
				"x": 0.9939785623,
				"y": 1.2411895731,
				"z": -3.5467798418,
				"element": "O" 
			},
			{
				"x": -4.13774676,
				"y": -3.3317993623,
				"z": 1.2370556,
				"element": "H" 
			},
			{
				"x": -3.5529353841,
				"y": -2.0872544935,
				"z": 2.3523413425,
				"element": "H" 
			},
			{
				"x": -2.8710230218,
				"y": -3.7156841128,
				"z": 2.4087270247,
				"element": "H" 
			},
			{
				"x": -1.8392682342,
				"y": -3.4495433357,
				"z": 0.1882391715,
				"element": "H" 
			},
			{
				"x": -1.2772674101,
				"y": -2.2107235528,
				"z": 1.289037779,
				"element": "H" 
			},
			{
				"x": -4.512017248,
				"y": -1.1245422113,
				"z": 0.4752622477,
				"element": "H" 
			},
			{
				"x": -5.109684864,
				"y": 0.581599383,
				"z": -1.2045645318,
				"element": "H" 
			},
			{
				"x": -3.4480641839,
				"y": 1.2120058779,
				"z": -2.9583304867,
				"element": "H" 
			},
			{
				"x": -1.2377398117,
				"y": 0.1589724522,
				"z": -3.0039227855,
				"element": "H" 
			},
			{
				"x": -0.0689859743,
				"y": -2.1622937549,
				"z": -0.4424209037,
				"element": "H" 
			},
			{
				"x": 1.4904653411,
				"y": -2.1455323588,
				"z": -2.1162715752,
				"element": "H" 
			},
			{
				"x": 0.433049002,
				"y": -1.1869674405,
				"z": -3.1708037906,
				"element": "H" 
			},
			{
				"x": 3.4572865494,
				"y": 1.5509624665,
				"z": 1.5655095409,
				"element": "H" 
			},
			{
				"x": 4.1094037252,
				"y": 3.9413060585,
				"z": 1.1781924978,
				"element": "H" 
			},
			{
				"x": 3.5274497903,
				"y": 5.0748509609,
				"z": -0.9315073077,
				"element": "H" 
			},
			{
				"x": 2.2720848458,
				"y": 3.858848668,
				"z": -2.7305165106,
				"element": "H" 
			}
		],
		 "valence_orbital": [ 
			{
				"type": "occ",
				"energy": -0.28084,
				"method": "rhf"
			},
			{
				"type": "occ",
				"energy": -0.27283,
				"method": "rhf"
			},
			{
				"type": "occ",
				"energy": -0.27223,
				"method": "rhf"
			},
			{
				"type": "occ",
				"energy": -0.23156,
				"method": "rhf"
			},
			{
				"type": "occ",
				"energy": -0.19542,
				"method": "rhf"
			},
			{
				"type": "unocc",
				"energy": -0.08592,
				"method": "rhf"
			},
			{
				"type": "unocc",
				"energy": -0.0441,
				"method": "rhf"
			},
			{
				"type": "unocc",
				"energy": 0.01448,
				"method": "rhf"
			},
			{
				"type": "unocc",
				"energy": 0.02288,
				"method": "rhf"
			},
			{
				"type": "unocc",
				"energy": 0.02496,
				"method": "rhf"
			}
		],
		"cosmo_sigma_profile": { 
			"-0.025": 0.0,
			"-0.024": 0.0,
			"-0.023": 0.0,
			"-0.022": 0.0,
			"-0.021": 0.0,
			"-0.02": 0.0,
			"-0.019": 0.0,
			"-0.018": 0.0,
			"-0.017": 0.0,
			"-0.016": 0.0,
			"-0.015": 0.0,
			"-0.014": 0.0,
			"-0.013": 0.0,
			"-0.012": 0.0,
			"-0.011": 0.0,
			"-0.01": 0.0,
			"-0.009": 0.437527403196,
			"-0.008": 3.34591513247,
			"-0.007": 11.6447900956,
			"-0.006": 16.2818893683,
			"-0.005": 19.2244470379,
			"-0.004": 23.6612039515,
			"-0.003": 28.5690936021,
			"-0.002": 30.3871151503,
			"-0.001": 31.5482827529,
			"0.0": 28.7501044982,
			"0.001": 27.5682710515,
			"0.002": 24.0302017819,
			"0.003": 12.0620144827,
			"0.004": 9.45437877732,
			"0.005": 9.35368804716,
			"0.006": 11.3024339111,
			"0.007": 10.5360923053,
			"0.008": 5.52918659479,
			"0.009": 3.98187352611,
			"0.01": 4.78762900147,
			"0.011": 7.70119652685,
			"0.012": 2.12624670832,
			"0.013": 0.00886952920019,
			"0.014": 0.0,
			"0.015": 0.0,
			"0.016": 0.0,
			"0.017": 0.0,
			"0.018": 0.0,
			"0.019": 0.0,
			"0.02": 0.0,
			"0.021": 0.0,
			"0.022": 0.0,
			"0.023": 0.0,
			"0.024": 0.0,
			"0.025": 0.0
		}
	}
}
