{
	 "smiles": "CC1=CC2=C(C=C1)C(=O)N(CCCC(O)=O)C2=O", 
	 "Tm": 513.15, 
	 "num_atms": 31, 
	 "gaussian": { 
		 "optdone": 1, 
		 "sigma_profile": "yes", 
		 "theory": "DFT", 
		 "functional": "B3LYP", 
		 "basiset": "6-31G**", 
		 "properties": { 
			 "R2extent": 6084.7526, 
			 "electric_dipole_moment_norm": 4.35876475507, 
			 "electric_quadrupole_moment_norm": 22.0411092638, 
			 "total_energy": -858.923536013, 
			 "HOMO_LUMO_gap": 0.1692, 
			 "cosmo_polarized_energy": -17.39, 
			 "cosmo_cavitation_energy": 34.88, 
			 "cosmo_dispersion_energy": -24.23, 
			 "cosmo_repulsion_energy": 1.86, 
			 "cosmo_total_nonelectrostatic_energy": 12.5, 
			 "SMD_solvation_energy": 7.62 
		},
		"coords": [
			{
				"x": 4.0604306413,
				"y": 0.681804663,
				"z": 4.1815317936,
				"element": "C" 
			},
			{
				"x": 3.3198802607,
				"y": -0.2188453074,
				"z": 3.2226932827,
				"element": "C" 
			},
			{
				"x": 3.1165581304,
				"y": 0.1846631496,
				"z": 1.8881709462,
				"element": "C" 
			},
			{
				"x": 2.412689934,
				"y": -0.6580043931,
				"z": 1.0460921542,
				"element": "C" 
			},
			{
				"x": 1.9095003731,
				"y": -1.8850035396,
				"z": 1.4863512175,
				"element": "C" 
			},
			{
				"x": 2.0980737244,
				"y": -2.3062696869,
				"z": 2.793218515,
				"element": "C" 
			},
			{
				"x": 2.8100883389,
				"y": -1.456959315,
				"z": 3.6497760936,
				"element": "C" 
			},
			{
				"x": 1.2059042216,
				"y": -2.5353661515,
				"z": 0.3496652322,
				"element": "C" 
			},
			{
				"x": 0.6234668304,
				"y": -3.6125939062,
				"z": 0.3196957506,
				"element": "O" 
			},
			{
				"x": 1.3137611952,
				"y": -1.6560454322,
				"z": -0.7294543609,
				"element": "N" 
			},
			{
				"x": 0.853391602,
				"y": -1.9428427088,
				"z": -2.0858069015,
				"element": "C" 
			},
			{
				"x": -0.5830224704,
				"y": -1.4990809554,
				"z": -2.3980485671,
				"element": "C" 
			},
			{
				"x": -1.6796510375,
				"y": -2.2273032345,
				"z": -1.5944851236,
				"element": "C" 
			},
			{
				"x": -1.9839568335,
				"y": -1.5510936386,
				"z": -0.2566100466,
				"element": "C" 
			},
			{
				"x": -1.8333100058,
				"y": -2.2964927893,
				"z": 0.8627897974,
				"element": "O" 
			},
			{
				"x": -2.373961254,
				"y": -0.4096120445,
				"z": -0.1855341205,
				"element": "O" 
			},
			{
				"x": 2.0562929134,
				"y": -0.5002113346,
				"z": -0.3939565542,
				"element": "C" 
			},
			{
				"x": 2.3329556347,
				"y": 0.3930675468,
				"z": -1.166243244,
				"element": "O" 
			},
			{
				"x": 4.9674710706,
				"y": 1.0894364179,
				"z": 3.7239043088,
				"element": "H" 
			},
			{
				"x": 4.3471405377,
				"y": 0.1502809518,
				"z": 5.0924493674,
				"element": "H" 
			},
			{
				"x": 3.4367469551,
				"y": 1.5342860451,
				"z": 4.4762352376,
				"element": "H" 
			},
			{
				"x": 3.5000088942,
				"y": 1.1338604888,
				"z": 1.5251708555,
				"element": "H" 
			},
			{
				"x": 1.7085779312,
				"y": -3.2590136838,
				"z": 3.1368639896,
				"element": "H" 
			},
			{
				"x": 2.9748224656,
				"y": -1.7612411862,
				"z": 4.679755138,
				"element": "H" 
			},
			{
				"x": 0.9574220244,
				"y": -3.021824334,
				"z": -2.236488272,
				"element": "H" 
			},
			{
				"x": 1.5449935611,
				"y": -1.4276839296,
				"z": -2.7576954619,
				"element": "H" 
			},
			{
				"x": -0.7393773279,
				"y": -1.6894783428,
				"z": -3.4661672061,
				"element": "H" 
			},
			{
				"x": -0.6878798366,
				"y": -0.4195392013,
				"z": -2.2497693493,
				"element": "H" 
			},
			{
				"x": -1.430218405,
				"y": -3.2860194143,
				"z": -1.4742673422,
				"element": "H" 
			},
			{
				"x": -2.6180335405,
				"y": -2.1723651618,
				"z": -2.1565678316,
				"element": "H" 
			},
			{
				"x": -1.328266529,
				"y": -3.1039095713,
				"z": 0.6656307017,
				"element": "H" 
			}
		],
		 "valence_orbital": [ 
			{
				"type": "occ",
				"energy": -0.28896,
				"method": "rhf"
			},
			{
				"type": "occ",
				"energy": -0.27938,
				"method": "rhf"
			},
			{
				"type": "occ",
				"energy": -0.27744,
				"method": "rhf"
			},
			{
				"type": "occ",
				"energy": -0.26543,
				"method": "rhf"
			},
			{
				"type": "occ",
				"energy": -0.25843,
				"method": "rhf"
			},
			{
				"type": "unocc",
				"energy": -0.08923,
				"method": "rhf"
			},
			{
				"type": "unocc",
				"energy": -0.04616,
				"method": "rhf"
			},
			{
				"type": "unocc",
				"energy": 0.01688,
				"method": "rhf"
			},
			{
				"type": "unocc",
				"energy": 0.02224,
				"method": "rhf"
			},
			{
				"type": "unocc",
				"energy": 0.06064,
				"method": "rhf"
			}
		],
		"cosmo_sigma_profile": { 
			"-0.025": 0.0,
			"-0.024": 0.0,
			"-0.023": 0.0,
			"-0.022": 0.0,
			"-0.021": 0.0,
			"-0.02": 0.0,
			"-0.019": 0.0,
			"-0.018": 0.0,
			"-0.017": 0.0,
			"-0.016": 0.0,
			"-0.015": 0.0,
			"-0.014": 0.0,
			"-0.013": 0.22446776397,
			"-0.012": 0.673475169682,
			"-0.011": 0.912739031604,
			"-0.01": 0.666801886288,
			"-0.009": 0.748411972284,
			"-0.008": 1.80279335715,
			"-0.007": 6.34930612796,
			"-0.006": 15.934734909,
			"-0.005": 30.2172644682,
			"-0.004": 28.797331651,
			"-0.003": 27.368168947,
			"-0.002": 21.3164073545,
			"-0.001": 24.4343891538,
			"0.0": 19.1549840996,
			"0.001": 15.5426004957,
			"0.002": 16.8420164621,
			"0.003": 6.71669105216,
			"0.004": 4.52273831829,
			"0.005": 4.04236122881,
			"0.006": 4.1258277706,
			"0.007": 5.32222060687,
			"0.008": 4.52361204619,
			"0.009": 6.11366289972,
			"0.01": 9.01963290488,
			"0.011": 11.0628039437,
			"0.012": 6.66067503609,
			"0.013": 3.30331179238,
			"0.014": 0.477198300459,
			"0.015": 0.0,
			"0.016": 0.0,
			"0.017": 0.0,
			"0.018": 0.0,
			"0.019": 0.0,
			"0.02": 0.0,
			"0.021": 0.0,
			"0.022": 0.0,
			"0.023": 0.0,
			"0.024": 0.0,
			"0.025": 0.0
		}
	}
}
