{
	 "smiles": "COC(=O)C1=CC=C(I)C=C1", 
	 "Tm": 388.15, 
	 "num_atms": 18, 
	 "gaussian": { 
		 "optdone": 1, 
		 "sigma_profile": "no", 
		 "theory": "DFT", 
		 "functional": "B3LYP", 
		 "basiset": "6-31G**", 
		 "properties": { 
			 "R2extent": 2602.6215, 
			 "electric_dipole_moment_norm": 1.92090119736, 
			 "electric_quadrupole_moment_norm": 9.96394110832, 
			 "total_energy": -470.914009817, 
			 "HOMO_LUMO_gap": 0.19071, 
			 "cosmo_polarized_energy": -104083.32, 
			 "cosmo_cavitation_energy": 25.93, 
			 "cosmo_dispersion_energy": -20.53, 
			 "cosmo_repulsion_energy": 1.61, 
			 "cosmo_total_nonelectrostatic_energy": 7.02, 
			 "SMD_solvation_energy": 5.19 
		},
		"coords": [
			{
				"x": 1.3273706987,
				"y": 2.9149084567,
				"z": -2.8256843177,
				"element": "C" 
			},
			{
				"x": 0.8528350296,
				"y": 1.5951829682,
				"z": -2.5135722177,
				"element": "O" 
			},
			{
				"x": 0.2268845669,
				"y": 1.4762202431,
				"z": -1.3213206382,
				"element": "C" 
			},
			{
				"x": 0.0676545471,
				"y": 2.4075816452,
				"z": -0.5562993808,
				"element": "O" 
			},
			{
				"x": -0.2399910523,
				"y": 0.0847283428,
				"z": -1.060371075,
				"element": "C" 
			},
			{
				"x": -0.0363387944,
				"y": -0.9614090193,
				"z": -1.9695625727,
				"element": "C" 
			},
			{
				"x": -0.4926635305,
				"y": -2.2460140705,
				"z": -1.67819769,
				"element": "C" 
			},
			{
				"x": -1.154826563,
				"y": -2.4769642484,
				"z": -0.4698040979,
				"element": "C" 
			},
			{
				"x": -1.8507591074,
				"y": -4.4280133987,
				"z": -0.0216963438,
				"element": "I" 
			},
			{
				"x": -1.3664094357,
				"y": -1.4447250276,
				"z": 0.4484514932,
				"element": "C" 
			},
			{
				"x": -0.9058789314,
				"y": -0.1657808949,
				"z": 0.1461039517,
				"element": "C" 
			},
			{
				"x": 2.0495586983,
				"y": 3.2504399108,
				"z": -2.0771860455,
				"element": "H" 
			},
			{
				"x": 0.4969217853,
				"y": 3.6247527899,
				"z": -2.8550787382,
				"element": "H" 
			},
			{
				"x": 1.7984062927,
				"y": 2.8337568034,
				"z": -3.8048994103,
				"element": "H" 
			},
			{
				"x": 0.4789220786,
				"y": -0.768251903,
				"z": -2.9034594354,
				"element": "H" 
			},
			{
				"x": -0.3340278868,
				"y": -3.0540973074,
				"z": -2.3830486726,
				"element": "H" 
			},
			{
				"x": -1.8813411708,
				"y": -1.6343986949,
				"z": 1.3832323867,
				"element": "H" 
			},
			{
				"x": -1.054717225,
				"y": 0.6562834045,
				"z": 0.8382928041,
				"element": "H" 
			}
		],
		 "valence_orbital": [ 
			{
				"type": "occ",
				"energy": -0.30209,
				"method": "rhf"
			},
			{
				"type": "occ",
				"energy": -0.28059,
				"method": "rhf"
			},
			{
				"type": "occ",
				"energy": -0.27356,
				"method": "rhf"
			},
			{
				"type": "occ",
				"energy": -0.27242,
				"method": "rhf"
			},
			{
				"type": "occ",
				"energy": -0.24779,
				"method": "rhf"
			},
			{
				"type": "unocc",
				"energy": -0.05708,
				"method": "rhf"
			},
			{
				"type": "unocc",
				"energy": -0.04393,
				"method": "rhf"
			},
			{
				"type": "unocc",
				"energy": -0.02169,
				"method": "rhf"
			},
			{
				"type": "unocc",
				"energy": 0.03771,
				"method": "rhf"
			},
			{
				"type": "unocc",
				"energy": 0.04064,
				"method": "rhf"
			}
		],
		"cosmo_sigma_profile": { 
			"0.0": 0.0,
			"0.0": 0.0,
			"0.0": 0.0,
			"0.0": 0.0,
			"0.0": 0.0,
			"0.0": 0.0,
			"0.0": 0.0,
			"0.0": 0.0,
			"0.0": 0.0,
			"0.0": 0.0,
			"0.0": 0.0,
			"0.0": 0.0,
			"0.0": 0.0,
			"0.0": 0.0,
			"0.0": 0.0,
			"0.0": 0.0,
			"0.0": 0.0,
			"0.0": 0.0,
			"0.0": 0.0,
			"0.0": 0.0,
			"0.0": 0.0,
			"0.0": 0.0,
			"0.0": 0.0,
			"0.0": 0.0,
			"0.0": 0.0,
			"0.0": 0.0,
			"0.0": 0.0,
			"0.0": 0.0,
			"0.0": 0.0,
			"0.0": 0.0,
			"0.0": 0.0,
			"0.0": 0.0,
			"0.0": 0.0,
			"0.0": 0.0,
			"0.0": 0.0,
			"0.0": 0.0,
			"0.0": 0.0,
			"0.0": 0.0,
			"0.0": 0.0,
			"0.0": 0.0,
			"0.0": 0.0,
			"0.0": 0.0,
			"0.0": 0.0,
			"0.0": 0.0,
			"0.0": 0.0,
			"0.0": 0.0,
			"0.0": 0.0,
			"0.0": 0.0,
			"0.0": 0.0,
			"0.0": 0.0,
			"0.0": 0.0
		}
	}
}
