{
	 "smiles": "NC1=CC(NC(=O)NCC2=CC=NC=C2)=CC=C1", 
	 "Tm": 433.15, 
	 "num_atms": 32, 
	 "gaussian": { 
		 "optdone": 1, 
		 "sigma_profile": "yes", 
		 "theory": "DFT", 
		 "functional": "B3LYP", 
		 "basiset": "6-31G**", 
		 "properties": { 
			 "R2extent": 6345.7538, 
			 "electric_dipole_moment_norm": 5.12605406429, 
			 "electric_quadrupole_moment_norm": 20.0444836908, 
			 "total_energy": -798.076233846, 
			 "HOMO_LUMO_gap": 0.18572, 
			 "cosmo_polarized_energy": -20.49, 
			 "cosmo_cavitation_energy": 36.39, 
			 "cosmo_dispersion_energy": -26.02, 
			 "cosmo_repulsion_energy": 2.03, 
			 "cosmo_total_nonelectrostatic_energy": 12.41, 
			 "SMD_solvation_energy": 4.79 
		},
		"coords": [
			{
				"x": -1.5000341603,
				"y": 4.1645769484,
				"z": -0.9755898425,
				"element": "N" 
			},
			{
				"x": -0.5959124913,
				"y": 3.3420910195,
				"z": -1.643154722,
				"element": "C" 
			},
			{
				"x": 0.4444837835,
				"y": 2.7161402204,
				"z": -0.9343427181,
				"element": "C" 
			},
			{
				"x": 1.3926818393,
				"y": 1.9331402815,
				"z": -1.6062999041,
				"element": "C" 
			},
			{
				"x": 2.4613377992,
				"y": 1.3128511466,
				"z": -0.9219932459,
				"element": "N" 
			},
			{
				"x": 2.5068777498,
				"y": 0.644278423,
				"z": 0.2951491371,
				"element": "C" 
			},
			{
				"x": 3.5716338574,
				"y": 0.1939470353,
				"z": 0.7119307082,
				"element": "O" 
			},
			{
				"x": 1.3185634242,
				"y": 0.5331245439,
				"z": 0.9824358973,
				"element": "N" 
			},
			{
				"x": 1.2544506851,
				"y": -0.2787699808,
				"z": 2.1941276375,
				"element": "C" 
			},
			{
				"x": 0.906246081,
				"y": -1.7360499946,
				"z": 1.9465888953,
				"element": "C" 
			},
			{
				"x": 1.8036432245,
				"y": -2.5948520369,
				"z": 1.2979549993,
				"element": "C" 
			},
			{
				"x": 1.4301477559,
				"y": -3.9203662207,
				"z": 1.0844031949,
				"element": "C" 
			},
			{
				"x": 0.2530073646,
				"y": -4.4400395002,
				"z": 1.464036894,
				"element": "N" 
			},
			{
				"x": -0.5962662836,
				"y": -3.6150506632,
				"z": 2.0854855572,
				"element": "C" 
			},
			{
				"x": -0.3204319095,
				"y": -2.2710070848,
				"z": 2.3473671219,
				"element": "C" 
			},
			{
				"x": 1.3232479783,
				"y": 1.7942147884,
				"z": -3.0009509956,
				"element": "C" 
			},
			{
				"x": 0.3004137364,
				"y": 2.4325792788,
				"z": -3.6991837612,
				"element": "C" 
			},
			{
				"x": -0.6623364686,
				"y": 3.1910042859,
				"z": -3.0390770702,
				"element": "C" 
			},
			{
				"x": -2.3767598517,
				"y": 4.3274863994,
				"z": -1.4497081726,
				"element": "H" 
			},
			{
				"x": -1.6208465728,
				"y": 3.9818927572,
				"z": 0.0102632755,
				"element": "H" 
			},
			{
				"x": 0.5422896051,
				"y": 2.884032331,
				"z": 0.1333240987,
				"element": "H" 
			},
			{
				"x": 3.3263096179,
				"y": 1.1970704736,
				"z": -1.4307452918,
				"element": "H" 
			},
			{
				"x": 0.4639072185,
				"y": 0.6567528078,
				"z": 0.4567354497,
				"element": "H" 
			},
			{
				"x": 2.2373249276,
				"y": -0.2038717275,
				"z": 2.6646925354,
				"element": "H" 
			},
			{
				"x": 0.5173796012,
				"y": 0.1679450362,
				"z": 2.8699737551,
				"element": "H" 
			},
			{
				"x": 2.7721932795,
				"y": -2.2269882166,
				"z": 0.974032088,
				"element": "H" 
			},
			{
				"x": 2.1141928301,
				"y": -4.6048562394,
				"z": 0.5852576179,
				"element": "H" 
			},
			{
				"x": -1.5480451925,
				"y": -4.046901053,
				"z": 2.3919868108,
				"element": "H" 
			},
			{
				"x": -1.0547330965,
				"y": -1.6549465196,
				"z": 2.860681977,
				"element": "H" 
			},
			{
				"x": 2.0535451812,
				"y": 1.1814540629,
				"z": -3.5203004715,
				"element": "H" 
			},
			{
				"x": 0.243391833,
				"y": 2.3238156286,
				"z": -4.7785677646,
				"element": "H" 
			},
			{
				"x": -1.4568033466,
				"y": 3.6785017688,
				"z": -3.5974136908,
				"element": "H" 
			}
		],
		 "valence_orbital": [ 
			{
				"type": "occ",
				"energy": -0.25973,
				"method": "rhf"
			},
			{
				"type": "occ",
				"energy": -0.25658,
				"method": "rhf"
			},
			{
				"type": "occ",
				"energy": -0.24487,
				"method": "rhf"
			},
			{
				"type": "occ",
				"energy": -0.23021,
				"method": "rhf"
			},
			{
				"type": "occ",
				"energy": -0.20909,
				"method": "rhf"
			},
			{
				"type": "unocc",
				"energy": -0.02337,
				"method": "rhf"
			},
			{
				"type": "unocc",
				"energy": -0.00947,
				"method": "rhf"
			},
			{
				"type": "unocc",
				"energy": -0.0071,
				"method": "rhf"
			},
			{
				"type": "unocc",
				"energy": 0.00406,
				"method": "rhf"
			},
			{
				"type": "unocc",
				"energy": 0.06123,
				"method": "rhf"
			}
		],
		"cosmo_sigma_profile": { 
			"-0.025": 0.0,
			"-0.024": 0.0,
			"-0.023": 0.0,
			"-0.022": 0.0,
			"-0.021": 0.0,
			"-0.02": 0.0,
			"-0.019": 0.0,
			"-0.018": 0.0,
			"-0.017": 0.0,
			"-0.016": 0.0,
			"-0.015": 0.0,
			"-0.014": 0.52467160898,
			"-0.013": 1.37274391427,
			"-0.012": 3.47782473854,
			"-0.011": 5.12343618309,
			"-0.01": 5.04181842891,
			"-0.009": 5.5166695162,
			"-0.008": 4.9559776288,
			"-0.007": 7.5040768945,
			"-0.006": 17.7581176029,
			"-0.005": 20.56772378,
			"-0.004": 19.2400593227,
			"-0.003": 18.2977444695,
			"-0.002": 14.4322257396,
			"-0.001": 15.7020664558,
			"0.0": 17.9953786916,
			"0.001": 16.7497978111,
			"0.002": 19.774541433,
			"0.003": 21.8778573974,
			"0.004": 13.5856110042,
			"0.005": 12.4633024403,
			"0.006": 12.5327638085,
			"0.007": 6.97296946142,
			"0.008": 2.47162699202,
			"0.009": 3.28939118138,
			"0.01": 4.56785018415,
			"0.011": 1.87402174086,
			"0.012": 2.96066954714,
			"0.013": 4.17285566048,
			"0.014": 5.51192303798,
			"0.015": 1.84440857437,
			"0.016": 1.02248325729,
			"0.017": 0.458728925798,
			"0.018": 0.0126032973589,
			"0.019": 0.0,
			"0.02": 0.0,
			"0.021": 0.0,
			"0.022": 0.0,
			"0.023": 0.0,
			"0.024": 0.0,
			"0.025": 0.0
		}
	}
}
