{
	 "smiles": "NC1=C(C=CC(Cl)=C1Cl)C(O)=O", 
	 "Tm": 509.15, 
	 "num_atms": 17, 
	 "gaussian": { 
		 "optdone": 1, 
		 "sigma_profile": "yes", 
		 "theory": "DFT", 
		 "functional": "B3LYP", 
		 "basiset": "6-31G**", 
		 "properties": { 
			 "R2extent": 3685.9538, 
			 "electric_dipole_moment_norm": 1.88702537874, 
			 "electric_quadrupole_moment_norm": 7.40049721708, 
			 "total_energy": -1395.36960292, 
			 "HOMO_LUMO_gap": 0.16253, 
			 "cosmo_polarized_energy": -8.56, 
			 "cosmo_cavitation_energy": 24.66, 
			 "cosmo_dispersion_energy": -19.17, 
			 "cosmo_repulsion_energy": 1.52, 
			 "cosmo_total_nonelectrostatic_energy": 7.01, 
			 "SMD_solvation_energy": 4.7 
		},
		"coords": [
			{
				"x": 0.7821234499,
				"y": -0.3094379522,
				"z": -2.7233784701,
				"element": "N" 
			},
			{
				"x": 0.1132299147,
				"y": 0.2971680218,
				"z": -1.7176269008,
				"element": "C" 
			},
			{
				"x": 0.545985993,
				"y": 0.2017048508,
				"z": -0.3586954678,
				"element": "C" 
			},
			{
				"x": -0.1809038759,
				"y": 0.8490101456,
				"z": 0.6543381509,
				"element": "C" 
			},
			{
				"x": -1.317344057,
				"y": 1.5864437268,
				"z": 0.3796777858,
				"element": "C" 
			},
			{
				"x": -1.7523294372,
				"y": 1.6877767859,
				"z": -0.9498474945,
				"element": "C" 
			},
			{
				"x": -3.1889547167,
				"y": 2.6232271419,
				"z": -1.2760495698,
				"element": "Cl" 
			},
			{
				"x": -1.0597072417,
				"y": 1.0612243674,
				"z": -1.9806893364,
				"element": "C" 
			},
			{
				"x": -1.6018403242,
				"y": 1.1868401598,
				"z": -3.6419255777,
				"element": "Cl" 
			},
			{
				"x": 1.7498518906,
				"y": -0.573377915,
				"z": -0.0276690148,
				"element": "C" 
			},
			{
				"x": 2.045383461,
				"y": -0.5808170204,
				"z": 1.2947001396,
				"element": "O" 
			},
			{
				"x": 2.4613663177,
				"y": -1.1778426145,
				"z": -0.8250305041,
				"element": "O" 
			},
			{
				"x": 1.6106008288,
				"y": -0.8409117533,
				"z": -2.4854756756,
				"element": "H" 
			},
			{
				"x": 0.4539918218,
				"y": -0.2243315872,
				"z": -3.6703202766,
				"element": "H" 
			},
			{
				"x": 0.1684634264,
				"y": 0.760783697,
				"z": 1.6758584607,
				"element": "H" 
			},
			{
				"x": -1.8737977916,
				"y": 2.0833698935,
				"z": 1.1643051964,
				"element": "H" 
			},
			{
				"x": 2.8495803404,
				"y": -1.1185299479,
				"z": 1.3785285549,
				"element": "H" 
			}
		],
		 "valence_orbital": [ 
			{
				"type": "occ",
				"energy": -0.3161,
				"method": "rhf"
			},
			{
				"type": "occ",
				"energy": -0.31446,
				"method": "rhf"
			},
			{
				"type": "occ",
				"energy": -0.28979,
				"method": "rhf"
			},
			{
				"type": "occ",
				"energy": -0.25692,
				"method": "rhf"
			},
			{
				"type": "occ",
				"energy": -0.22028,
				"method": "rhf"
			},
			{
				"type": "unocc",
				"energy": -0.05775,
				"method": "rhf"
			},
			{
				"type": "unocc",
				"energy": -0.00591,
				"method": "rhf"
			},
			{
				"type": "unocc",
				"energy": -0.00195,
				"method": "rhf"
			},
			{
				"type": "unocc",
				"energy": 0.0417,
				"method": "rhf"
			},
			{
				"type": "unocc",
				"energy": 0.05886,
				"method": "rhf"
			}
		],
		"cosmo_sigma_profile": { 
			"-0.025": 0.0,
			"-0.024": 0.0,
			"-0.023": 0.0,
			"-0.022": 0.0,
			"-0.021": 0.0,
			"-0.02": 0.0,
			"-0.019": 0.0188899372485,
			"-0.018": 0.691715211213,
			"-0.017": 1.06192918507,
			"-0.016": 0.892779623085,
			"-0.015": 0.335910427288,
			"-0.014": 1.15716966194,
			"-0.013": 1.46523267392,
			"-0.012": 0.791693201027,
			"-0.011": 1.78324695593,
			"-0.01": 1.67704667467,
			"-0.009": 2.75459866329,
			"-0.008": 2.50689647024,
			"-0.007": 4.92690511053,
			"-0.006": 6.14049305224,
			"-0.005": 4.52564865981,
			"-0.004": 5.43914545529,
			"-0.003": 9.52629000994,
			"-0.002": 11.4485728618,
			"-0.001": 12.8536308521,
			"0.0": 23.8561052506,
			"0.001": 28.8568572553,
			"0.002": 21.6720856252,
			"0.003": 20.7329740249,
			"0.004": 15.8775086771,
			"0.005": 7.62398393565,
			"0.006": 2.45213735312,
			"0.007": 3.01629654541,
			"0.008": 1.60737655297,
			"0.009": 1.85832444166,
			"0.01": 1.58185985787,
			"0.011": 2.20120783536,
			"0.012": 1.00900349725,
			"0.013": 0.0,
			"0.014": 0.0,
			"0.015": 0.0,
			"0.016": 0.0,
			"0.017": 0.0,
			"0.018": 0.0,
			"0.019": 0.0,
			"0.02": 0.0,
			"0.021": 0.0,
			"0.022": 0.0,
			"0.023": 0.0,
			"0.024": 0.0,
			"0.025": 0.0
		}
	}
}
