{
	 "smiles": "CCOC1=CC=C(C=C1OCC)C(O)=O", 
	 "Tm": 441.15, 
	 "num_atms": 29, 
	 "gaussian": { 
		 "optdone": 1, 
		 "sigma_profile": "yes", 
		 "theory": "DFT", 
		 "functional": "B3LYP", 
		 "basiset": "6-31G**", 
		 "properties": { 
			 "R2extent": 4850.9235, 
			 "electric_dipole_moment_norm": 5.27421924933, 
			 "electric_quadrupole_moment_norm": 23.1778651204, 
			 "total_energy": -728.497271221, 
			 "HOMO_LUMO_gap": 0.19964, 
			 "cosmo_polarized_energy": -15.34, 
			 "cosmo_cavitation_energy": 32.98, 
			 "cosmo_dispersion_energy": -23.04, 
			 "cosmo_repulsion_energy": 1.84, 
			 "cosmo_total_nonelectrostatic_energy": 11.78, 
			 "SMD_solvation_energy": 7.44 
		},
		"coords": [
			{
				"x": -2.352773424,
				"y": 1.0540189575,
				"z": -2.0864164033,
				"element": "C" 
			},
			{
				"x": -1.2936964658,
				"y": 0.8091230534,
				"z": -1.0281524248,
				"element": "C" 
			},
			{
				"x": -0.4139313676,
				"y": -0.2258931604,
				"z": -1.5229827512,
				"element": "O" 
			},
			{
				"x": 0.6106628037,
				"y": -0.588975954,
				"z": -0.6895623885,
				"element": "C" 
			},
			{
				"x": 1.9240819334,
				"y": -0.339870514,
				"z": -1.0949496129,
				"element": "C" 
			},
			{
				"x": 2.9981712072,
				"y": -0.7155121336,
				"z": -0.2910407249,
				"element": "C" 
			},
			{
				"x": 2.7703110195,
				"y": -1.3410886258,
				"z": 0.9426003921,
				"element": "C" 
			},
			{
				"x": 1.4541922998,
				"y": -1.6235421556,
				"z": 1.3326258866,
				"element": "C" 
			},
			{
				"x": 0.3767482021,
				"y": -1.2564354128,
				"z": 0.5331533402,
				"element": "C" 
			},
			{
				"x": -0.9000894887,
				"y": -1.5241461766,
				"z": 0.9647935441,
				"element": "O" 
			},
			{
				"x": -1.571017006,
				"y": -2.5909663766,
				"z": 0.2592941977,
				"element": "C" 
			},
			{
				"x": -2.9435394751,
				"y": -2.7645434503,
				"z": 0.8821475803,
				"element": "C" 
			},
			{
				"x": 3.8717754489,
				"y": -1.7776253925,
				"z": 1.8582394762,
				"element": "C" 
			},
			{
				"x": 5.0825442637,
				"y": -1.1785327698,
				"z": 1.6864477342,
				"element": "O" 
			},
			{
				"x": 3.7321824936,
				"y": -2.6152583405,
				"z": 2.7186589564,
				"element": "O" 
			},
			{
				"x": -2.9443355306,
				"y": 0.1506499544,
				"z": -2.2613753434,
				"element": "H" 
			},
			{
				"x": -1.8936021521,
				"y": 1.3525473888,
				"z": -3.0331384464,
				"element": "H" 
			},
			{
				"x": -3.0285676026,
				"y": 1.8512943523,
				"z": -1.7615369685,
				"element": "H" 
			},
			{
				"x": -0.7015175993,
				"y": 1.7163772437,
				"z": -0.8466926317,
				"element": "H" 
			},
			{
				"x": -1.7375407119,
				"y": 0.4920619888,
				"z": -0.0791882379,
				"element": "H" 
			},
			{
				"x": 2.0802058181,
				"y": 0.1458011955,
				"z": -2.0526618511,
				"element": "H" 
			},
			{
				"x": 4.0080232265,
				"y": -0.542128896,
				"z": -0.6543685278,
				"element": "H" 
			},
			{
				"x": 1.2731654006,
				"y": -2.1372755017,
				"z": 2.2701594899,
				"element": "H" 
			},
			{
				"x": -0.97601661,
				"y": -3.5089940253,
				"z": 0.3563956845,
				"element": "H" 
			},
			{
				"x": -1.6421197407,
				"y": -2.3392010245,
				"z": -0.80517225,
				"element": "H" 
			},
			{
				"x": -3.478192026,
				"y": -3.5818931938,
				"z": 0.3881924089,
				"element": "H" 
			},
			{
				"x": -2.8572631187,
				"y": -2.9994461588,
				"z": 1.9467355366,
				"element": "H" 
			},
			{
				"x": -3.5377036034,
				"y": -1.8517920192,
				"z": 0.7785498548,
				"element": "H" 
			},
			{
				"x": 4.9966418056,
				"y": -0.4233528526,
				"z": 1.0885444798,
				"element": "H" 
			}
		],
		 "valence_orbital": [ 
			{
				"type": "occ",
				"energy": -0.30561,
				"method": "rhf"
			},
			{
				"type": "occ",
				"energy": -0.27359,
				"method": "rhf"
			},
			{
				"type": "occ",
				"energy": -0.27017,
				"method": "rhf"
			},
			{
				"type": "occ",
				"energy": -0.25725,
				"method": "rhf"
			},
			{
				"type": "occ",
				"energy": -0.24507,
				"method": "rhf"
			},
			{
				"type": "unocc",
				"energy": -0.04543,
				"method": "rhf"
			},
			{
				"type": "unocc",
				"energy": -0.01736,
				"method": "rhf"
			},
			{
				"type": "unocc",
				"energy": 0.04971,
				"method": "rhf"
			},
			{
				"type": "unocc",
				"energy": 0.06422,
				"method": "rhf"
			},
			{
				"type": "unocc",
				"energy": 0.07685,
				"method": "rhf"
			}
		],
		"cosmo_sigma_profile": { 
			"-0.025": 0.0,
			"-0.024": 0.0,
			"-0.023": 0.0,
			"-0.022": 0.0,
			"-0.021": 0.0,
			"-0.02": 0.0,
			"-0.019": 0.131280544813,
			"-0.018": 0.808256544653,
			"-0.017": 0.948065827805,
			"-0.016": 1.16399608747,
			"-0.015": 0.777419790759,
			"-0.014": 0.820355520046,
			"-0.013": 0.68603419499,
			"-0.012": 1.56920605971,
			"-0.011": 0.913150615743,
			"-0.01": 1.50068747629,
			"-0.009": 1.31655165935,
			"-0.008": 1.53894072051,
			"-0.007": 3.47922266365,
			"-0.006": 4.82845255519,
			"-0.005": 6.85246514991,
			"-0.004": 20.8436199691,
			"-0.003": 30.6107282504,
			"-0.002": 32.2436556518,
			"-0.001": 27.0967279337,
			"0.0": 25.3923905485,
			"0.001": 18.6359181441,
			"0.002": 16.890718457,
			"0.003": 11.0412819434,
			"0.004": 6.51601307806,
			"0.005": 3.93856069465,
			"0.006": 5.41620489988,
			"0.007": 4.1857508896,
			"0.008": 4.64039307306,
			"0.009": 5.59606027117,
			"0.01": 5.74361577083,
			"0.011": 7.07155880567,
			"0.012": 5.26997566065,
			"0.013": 1.86377582109,
			"0.014": 0.0847234354492,
			"0.015": 0.0,
			"0.016": 0.0,
			"0.017": 0.0,
			"0.018": 0.0,
			"0.019": 0.0,
			"0.02": 0.0,
			"0.021": 0.0,
			"0.022": 0.0,
			"0.023": 0.0,
			"0.024": 0.0,
			"0.025": 0.0
		}
	}
}
