{
	 "smiles": "ON=CC1=C(Cl)C=CC=C1Cl", 
	 "Tm": 422.15, 
	 "num_atms": 16, 
	 "gaussian": { 
		 "optdone": 1, 
		 "sigma_profile": "yes", 
		 "theory": "DFT", 
		 "functional": "B3LYP", 
		 "basiset": "6-31G**", 
		 "properties": { 
			 "R2extent": 2507.7404, 
			 "electric_dipole_moment_norm": 1.47133412589, 
			 "electric_quadrupole_moment_norm": 10.6006005655, 
			 "total_energy": -1320.04650843, 
			 "HOMO_LUMO_gap": 0.18616, 
			 "cosmo_polarized_energy": -8.57, 
			 "cosmo_cavitation_energy": 24.31, 
			 "cosmo_dispersion_energy": -18.23, 
			 "cosmo_repulsion_energy": 1.48, 
			 "cosmo_total_nonelectrostatic_energy": 7.57, 
			 "SMD_solvation_energy": 4.24 
		},
		"coords": [
			{
				"x": 2.6673380446,
				"y": -1.3138820118,
				"z": 2.1399305731,
				"element": "O" 
			},
			{
				"x": 1.4828746213,
				"y": -1.1899874936,
				"z": 1.4136917996,
				"element": "N" 
			},
			{
				"x": 1.6136614919,
				"y": -0.3077544157,
				"z": 0.4940295597,
				"element": "C" 
			},
			{
				"x": 0.5208934926,
				"y": 0.0360569053,
				"z": -0.4293447931,
				"element": "C" 
			},
			{
				"x": 0.8383865835,
				"y": 0.4636903912,
				"z": -1.7393444761,
				"element": "C" 
			},
			{
				"x": 2.5179051944,
				"y": 0.5156957175,
				"z": -2.2678993114,
				"element": "Cl" 
			},
			{
				"x": -0.1255360026,
				"y": 0.8362576969,
				"z": -2.670840618,
				"element": "C" 
			},
			{
				"x": -1.469549149,
				"y": 0.7946945902,
				"z": -2.3101770092,
				"element": "C" 
			},
			{
				"x": -1.834955027,
				"y": 0.3889901064,
				"z": -1.0300155744,
				"element": "C" 
			},
			{
				"x": -0.8565390874,
				"y": 0.0187871174,
				"z": -0.1076331247,
				"element": "C" 
			},
			{
				"x": -1.4270395133,
				"y": -0.4230166446,
				"z": 1.4893043445,
				"element": "Cl" 
			},
			{
				"x": 2.4466412999,
				"y": -1.9998793157,
				"z": 2.7846096108,
				"element": "H" 
			},
			{
				"x": 2.5696938389,
				"y": 0.1964309578,
				"z": 0.354682253,
				"element": "H" 
			},
			{
				"x": 0.1806466173,
				"y": 1.1474178323,
				"z": -3.6626562383,
				"element": "H" 
			},
			{
				"x": -2.2328194288,
				"y": 1.0820395021,
				"z": -3.0262994905,
				"element": "H" 
			},
			{
				"x": -2.8765029761,
				"y": 0.3620590643,
				"z": -0.7318375049,
				"element": "H" 
			}
		],
		 "valence_orbital": [ 
			{
				"type": "occ",
				"energy": -0.31842,
				"method": "rhf"
			},
			{
				"type": "occ",
				"energy": -0.29679,
				"method": "rhf"
			},
			{
				"type": "occ",
				"energy": -0.27734,
				"method": "rhf"
			},
			{
				"type": "occ",
				"energy": -0.25386,
				"method": "rhf"
			},
			{
				"type": "occ",
				"energy": -0.2413,
				"method": "rhf"
			},
			{
				"type": "unocc",
				"energy": -0.05514,
				"method": "rhf"
			},
			{
				"type": "unocc",
				"energy": -0.02748,
				"method": "rhf"
			},
			{
				"type": "unocc",
				"energy": 0.00368,
				"method": "rhf"
			},
			{
				"type": "unocc",
				"energy": 0.02515,
				"method": "rhf"
			},
			{
				"type": "unocc",
				"energy": 0.04965,
				"method": "rhf"
			}
		],
		"cosmo_sigma_profile": { 
			"-0.025": 0.0,
			"-0.024": 0.0,
			"-0.023": 0.0,
			"-0.022": 0.0,
			"-0.021": 0.0,
			"-0.02": 0.0,
			"-0.019": 0.0,
			"-0.018": 0.427518573057,
			"-0.017": 1.2080123527,
			"-0.016": 0.822664761553,
			"-0.015": 1.14030686828,
			"-0.014": 0.715460210812,
			"-0.013": 0.861969892923,
			"-0.012": 0.319784373673,
			"-0.011": 0.19382507498,
			"-0.01": 0.910308192259,
			"-0.009": 1.01675094574,
			"-0.008": 4.41925815353,
			"-0.007": 7.27457986276,
			"-0.006": 8.17263896118,
			"-0.005": 6.86876553149,
			"-0.004": 6.37785508296,
			"-0.003": 9.21253141726,
			"-0.002": 10.979333555,
			"-0.001": 13.9911099358,
			"0.0": 20.3567122443,
			"0.001": 26.3230966799,
			"0.002": 20.897864547,
			"0.003": 16.0310841002,
			"0.004": 15.9682768074,
			"0.005": 7.51770923899,
			"0.006": 3.42556751543,
			"0.007": 3.66204993994,
			"0.008": 2.89800872173,
			"0.009": 2.94899105563,
			"0.01": 2.98190290845,
			"0.011": 1.14332332782,
			"0.012": 0.428724436682,
			"0.013": 0.0440315564946,
			"0.014": 0.0,
			"0.015": 0.0,
			"0.016": 0.0,
			"0.017": 0.0,
			"0.018": 0.0,
			"0.019": 0.0,
			"0.02": 0.0,
			"0.021": 0.0,
			"0.022": 0.0,
			"0.023": 0.0,
			"0.024": 0.0,
			"0.025": 0.0
		}
	}
}
