{
	 "smiles": "CN(C)C(=O)CN1C(=O)C(=O)C2=C1C=CC(Br)=C2", 
	 "Tm": 468.15, 
	 "num_atms": 29, 
	 "gaussian": { 
		 "optdone": 1, 
		 "sigma_profile": "yes", 
		 "theory": "DFT", 
		 "functional": "B3LYP", 
		 "basiset": "6-31G**", 
		 "properties": { 
			 "R2extent": 9408.0439, 
			 "electric_dipole_moment_norm": 7.46966322467, 
			 "electric_quadrupole_moment_norm": 21.2666439724, 
			 "total_energy": -3370.49197328, 
			 "HOMO_LUMO_gap": 0.12912, 
			 "cosmo_polarized_energy": -20.06, 
			 "cosmo_cavitation_energy": 36.34, 
			 "cosmo_dispersion_energy": -25.86, 
			 "cosmo_repulsion_energy": 2.0, 
			 "cosmo_total_nonelectrostatic_energy": 12.48, 
			 "SMD_solvation_energy": 6.81 
		},
		"coords": [
			{
				"x": -0.7144981047,
				"y": 2.3953101564,
				"z": 2.9732005615,
				"element": "C" 
			},
			{
				"x": -0.3474987899,
				"y": 2.4597087482,
				"z": 1.563148578,
				"element": "N" 
			},
			{
				"x": 0.3262308586,
				"y": 3.680001677,
				"z": 1.1457450894,
				"element": "C" 
			},
			{
				"x": -0.7772629787,
				"y": 1.4658472608,
				"z": 0.7247281363,
				"element": "C" 
			},
			{
				"x": -1.4095929989,
				"y": 0.4902660536,
				"z": 1.110333996,
				"element": "O" 
			},
			{
				"x": -0.3964518006,
				"y": 1.6016720489,
				"z": -0.766389791,
				"element": "C" 
			},
			{
				"x": -0.9950221589,
				"y": 0.5643671216,
				"z": -1.569632019,
				"element": "N" 
			},
			{
				"x": -2.0552911649,
				"y": 0.8195864622,
				"z": -2.4309042058,
				"element": "C" 
			},
			{
				"x": -2.5689844985,
				"y": 1.8982435249,
				"z": -2.6351226852,
				"element": "O" 
			},
			{
				"x": -2.4124301696,
				"y": -0.5566672961,
				"z": -3.0835979502,
				"element": "C" 
			},
			{
				"x": -3.2849296779,
				"y": -0.7234923073,
				"z": -3.906427705,
				"element": "O" 
			},
			{
				"x": -1.468316389,
				"y": -1.5100983998,
				"z": -2.4801522181,
				"element": "C" 
			},
			{
				"x": -0.6573309518,
				"y": -0.8001349117,
				"z": -1.5735629487,
				"element": "C" 
			},
			{
				"x": 0.3313135118,
				"y": -1.4552866323,
				"z": -0.848517599,
				"element": "C" 
			},
			{
				"x": 0.4958874894,
				"y": -2.8294367307,
				"z": -1.0562737997,
				"element": "C" 
			},
			{
				"x": -0.3106312648,
				"y": -3.5275358568,
				"z": -1.9615010358,
				"element": "C" 
			},
			{
				"x": -0.0375446726,
				"y": -5.4029621145,
				"z": -2.2010854416,
				"element": "Br" 
			},
			{
				"x": -1.3090329383,
				"y": -2.8767184826,
				"z": -2.6844824148,
				"element": "C" 
			},
			{
				"x": 0.1808970407,
				"y": 2.4731120636,
				"z": 3.6010307766,
				"element": "H" 
			},
			{
				"x": -1.3934541238,
				"y": 3.2170087899,
				"z": 3.2338684764,
				"element": "H" 
			},
			{
				"x": -1.2120247644,
				"y": 1.4449338543,
				"z": 3.1573857411,
				"element": "H" 
			},
			{
				"x": 0.6905646739,
				"y": 3.6111783263,
				"z": 0.1221812229,
				"element": "H" 
			},
			{
				"x": -0.3430555771,
				"y": 4.5481624488,
				"z": 1.2158050088,
				"element": "H" 
			},
			{
				"x": 1.1894881327,
				"y": 3.8661749663,
				"z": 1.7952816869,
				"element": "H" 
			},
			{
				"x": 0.6947022743,
				"y": 1.5821586399,
				"z": -0.8824450827,
				"element": "H" 
			},
			{
				"x": -0.7643623196,
				"y": 2.5455209483,
				"z": -1.1789356214,
				"element": "H" 
			},
			{
				"x": 0.9475527991,
				"y": -0.9376013563,
				"z": -0.123055076,
				"element": "H" 
			},
			{
				"x": 1.2573818333,
				"y": -3.3655591137,
				"z": -0.5010199249,
				"element": "H" 
			},
			{
				"x": -1.9445032697,
				"y": -3.406459889,
				"z": -3.3852037548,
				"element": "H" 
			}
		],
		 "valence_orbital": [ 
			{
				"type": "occ",
				"energy": -0.28179,
				"method": "rhf"
			},
			{
				"type": "occ",
				"energy": -0.26909,
				"method": "rhf"
			},
			{
				"type": "occ",
				"energy": -0.25744,
				"method": "rhf"
			},
			{
				"type": "occ",
				"energy": -0.25035,
				"method": "rhf"
			},
			{
				"type": "occ",
				"energy": -0.22879,
				"method": "rhf"
			},
			{
				"type": "unocc",
				"energy": -0.09967,
				"method": "rhf"
			},
			{
				"type": "unocc",
				"energy": -0.02571,
				"method": "rhf"
			},
			{
				"type": "unocc",
				"energy": -0.00023,
				"method": "rhf"
			},
			{
				"type": "unocc",
				"energy": 0.00047,
				"method": "rhf"
			},
			{
				"type": "unocc",
				"energy": 0.01001,
				"method": "rhf"
			}
		],
		"cosmo_sigma_profile": { 
			"-0.025": 0.0,
			"-0.024": 0.0,
			"-0.023": 0.0,
			"-0.022": 0.0,
			"-0.021": 0.0,
			"-0.02": 0.0,
			"-0.019": 0.0,
			"-0.018": 0.0,
			"-0.017": 0.0,
			"-0.016": 0.0,
			"-0.015": 0.0,
			"-0.014": 0.0,
			"-0.013": 0.0,
			"-0.012": 0.0,
			"-0.011": 0.0,
			"-0.01": 0.208810239063,
			"-0.009": 4.71836155317,
			"-0.008": 12.6072661069,
			"-0.007": 11.0758083407,
			"-0.006": 12.285320066,
			"-0.005": 21.3029317521,
			"-0.004": 23.7249349446,
			"-0.003": 25.8712024076,
			"-0.002": 25.3051707657,
			"-0.001": 19.2441554889,
			"0.0": 19.5391308518,
			"0.001": 22.7602307978,
			"0.002": 13.4230071578,
			"0.003": 11.8212113131,
			"0.004": 14.7219277696,
			"0.005": 6.43454884853,
			"0.006": 4.19475615807,
			"0.007": 5.2282776852,
			"0.008": 5.30332094044,
			"0.009": 7.8482291055,
			"0.01": 9.42849741054,
			"0.011": 8.50187468751,
			"0.012": 3.43343522715,
			"0.013": 3.8037363355,
			"0.014": 0.996052804878,
			"0.015": 0.0,
			"0.016": 0.0,
			"0.017": 0.0,
			"0.018": 0.0,
			"0.019": 0.0,
			"0.02": 0.0,
			"0.021": 0.0,
			"0.022": 0.0,
			"0.023": 0.0,
			"0.024": 0.0,
			"0.025": 0.0
		}
	}
}
