{
	 "smiles": "NC1=CC=CC(=C1)S(O)(=O)=O", 
	 "Tm": 573.15, 
	 "num_atms": 18, 
	 "gaussian": { 
		 "optdone": 1, 
		 "sigma_profile": "yes", 
		 "theory": "DFT", 
		 "functional": "B3LYP", 
		 "basiset": "6-31G**", 
		 "properties": { 
			 "R2extent": 2123.7998, 
			 "electric_dipole_moment_norm": 5.78492180587, 
			 "electric_quadrupole_moment_norm": 10.3373275613, 
			 "total_energy": -911.40028023, 
			 "HOMO_LUMO_gap": 0.18477, 
			 "cosmo_polarized_energy": -18.11, 
			 "cosmo_cavitation_energy": 23.8, 
			 "cosmo_dispersion_energy": -18.38, 
			 "cosmo_repulsion_energy": 1.44, 
			 "cosmo_total_nonelectrostatic_energy": 6.86, 
			 "SMD_solvation_energy": 3.18 
		},
		"coords": [
			{
				"x": 2.7508078546,
				"y": 2.0186869538,
				"z": -0.146029014,
				"element": "N" 
			},
			{
				"x": 1.830283492,
				"y": 1.0350274668,
				"z": 0.1933941836,
				"element": "C" 
			},
			{
				"x": 1.9474657052,
				"y": 0.3221209071,
				"z": 1.4020747721,
				"element": "C" 
			},
			{
				"x": 1.0669409633,
				"y": -0.7103333384,
				"z": 1.712861342,
				"element": "C" 
			},
			{
				"x": 0.0388650597,
				"y": -1.0669692812,
				"z": 0.838798588,
				"element": "C" 
			},
			{
				"x": -0.0728468037,
				"y": -0.3458264826,
				"z": -0.3499351497,
				"element": "C" 
			},
			{
				"x": 0.7954565492,
				"y": 0.6874732529,
				"z": -0.6914640278,
				"element": "C" 
			},
			{
				"x": -1.3864589511,
				"y": -0.7539151689,
				"z": -1.4868771665,
				"element": "S" 
			},
			{
				"x": -2.6194817234,
				"y": 0.143105494,
				"z": -0.8559096158,
				"element": "O" 
			},
			{
				"x": -1.1054509523,
				"y": -0.1835238859,
				"z": -2.8067059785,
				"element": "O" 
			},
			{
				"x": -1.7331461864,
				"y": -2.1593755685,
				"z": -1.326717567,
				"element": "O" 
			},
			{
				"x": 2.4526578324,
				"y": 2.6877218916,
				"z": -0.8411411641,
				"element": "H" 
			},
			{
				"x": 3.2483620567,
				"y": 2.4463268143,
				"z": 0.6215491823,
				"element": "H" 
			},
			{
				"x": 2.7461258376,
				"y": 0.5782022506,
				"z": 2.0935861443,
				"element": "H" 
			},
			{
				"x": 1.1862426934,
				"y": -1.2471830754,
				"z": 2.6491534461,
				"element": "H" 
			},
			{
				"x": -0.6439082457,
				"y": -1.8783234957,
				"z": 1.0590732644,
				"element": "H" 
			},
			{
				"x": 0.6797722812,
				"y": 1.1989265634,
				"z": -1.6414446792,
				"element": "H" 
			},
			{
				"x": -3.0053874626,
				"y": 0.627558702,
				"z": -1.6053665602,
				"element": "H" 
			}
		],
		 "valence_orbital": [ 
			{
				"type": "occ",
				"energy": -0.31992,
				"method": "rhf"
			},
			{
				"type": "occ",
				"energy": -0.31532,
				"method": "rhf"
			},
			{
				"type": "occ",
				"energy": -0.30025,
				"method": "rhf"
			},
			{
				"type": "occ",
				"energy": -0.27202,
				"method": "rhf"
			},
			{
				"type": "occ",
				"energy": -0.22327,
				"method": "rhf"
			},
			{
				"type": "unocc",
				"energy": -0.0385,
				"method": "rhf"
			},
			{
				"type": "unocc",
				"energy": -0.00663,
				"method": "rhf"
			},
			{
				"type": "unocc",
				"energy": 0.04409,
				"method": "rhf"
			},
			{
				"type": "unocc",
				"energy": 0.06433,
				"method": "rhf"
			},
			{
				"type": "unocc",
				"energy": 0.08109,
				"method": "rhf"
			}
		],
		"cosmo_sigma_profile": { 
			"-0.025": 0.0,
			"-0.024": 0.0,
			"-0.023": 0.0,
			"-0.022": 0.0,
			"-0.021": 0.0,
			"-0.02": 0.324262780709,
			"-0.019": 0.772219902756,
			"-0.018": 1.05166221226,
			"-0.017": 0.983697626746,
			"-0.016": 0.8285054567,
			"-0.015": 0.541475209335,
			"-0.014": 0.700193666892,
			"-0.013": 3.05954318796,
			"-0.012": 4.2314859109,
			"-0.011": 3.81176083419,
			"-0.01": 3.84154154759,
			"-0.009": 4.16854831198,
			"-0.008": 4.11555843505,
			"-0.007": 6.82465170682,
			"-0.006": 8.70801596541,
			"-0.005": 8.86657163377,
			"-0.004": 7.09642974829,
			"-0.003": 7.86437245387,
			"-0.002": 7.05905568003,
			"-0.001": 7.9367912505,
			"0.0": 8.97897340407,
			"0.001": 9.29968665641,
			"0.002": 10.067449491,
			"0.003": 15.8075805994,
			"0.004": 13.7882773632,
			"0.005": 5.03765233966,
			"0.006": 5.38667396902,
			"0.007": 5.50910933114,
			"0.008": 6.63993803057,
			"0.009": 8.51265775365,
			"0.01": 11.4038246657,
			"0.011": 5.46009307139,
			"0.012": 0.503178734639,
			"0.013": 0.390521912669,
			"0.014": 0.055399156692,
			"0.015": 0.0,
			"0.016": 0.0,
			"0.017": 0.0,
			"0.018": 0.0,
			"0.019": 0.0,
			"0.02": 0.0,
			"0.021": 0.0,
			"0.022": 0.0,
			"0.023": 0.0,
			"0.024": 0.0,
			"0.025": 0.0
		}
	}
}
