{
	 "smiles": "CCOC(=O)C1=C(N)N=C(SC)N=C1", 
	 "Tm": 388.15, 
	 "num_atms": 25, 
	 "gaussian": { 
		 "optdone": 1, 
		 "sigma_profile": "yes", 
		 "theory": "DFT", 
		 "functional": "B3LYP", 
		 "basiset": "6-31G**", 
		 "properties": { 
			 "R2extent": 4961.1049, 
			 "electric_dipole_moment_norm": 5.75496024834, 
			 "electric_quadrupole_moment_norm": 12.478641765, 
			 "total_energy": -1024.40741227, 
			 "HOMO_LUMO_gap": 0.17591, 
			 "cosmo_polarized_energy": -13.93, 
			 "cosmo_cavitation_energy": 30.83, 
			 "cosmo_dispersion_energy": -23.05, 
			 "cosmo_repulsion_energy": 1.79, 
			 "cosmo_total_nonelectrostatic_energy": 9.57, 
			 "SMD_solvation_energy": 4.0 
		},
		"coords": [
			{
				"x": 2.8805305275,
				"y": -0.6923104121,
				"z": -2.0512801761,
				"element": "C" 
			},
			{
				"x": 1.6284144596,
				"y": -1.5338695576,
				"z": -1.85988313,
				"element": "C" 
			},
			{
				"x": 0.6451257832,
				"y": -0.8431590652,
				"z": -1.0463564503,
				"element": "O" 
			},
			{
				"x": 0.7876185554,
				"y": -0.9639677758,
				"z": 0.308942202,
				"element": "C" 
			},
			{
				"x": 1.681352092,
				"y": -1.618679836,
				"z": 0.8119894391,
				"element": "O" 
			},
			{
				"x": -0.2397088832,
				"y": -0.2342977926,
				"z": 1.073834348,
				"element": "C" 
			},
			{
				"x": -1.3119780681,
				"y": 0.5502781982,
				"z": 0.5553733924,
				"element": "C" 
			},
			{
				"x": -1.5399718203,
				"y": 0.739119744,
				"z": -0.7599959082,
				"element": "N" 
			},
			{
				"x": -2.1797393892,
				"y": 1.1628632445,
				"z": 1.3917622092,
				"element": "N" 
			},
			{
				"x": -1.9883624293,
				"y": 1.0015977016,
				"z": 2.6950857978,
				"element": "C" 
			},
			{
				"x": -3.0922184709,
				"y": 1.7785068161,
				"z": 3.8375349372,
				"element": "S" 
			},
			{
				"x": -4.2489117569,
				"y": 2.6317351343,
				"z": 2.7157730069,
				"element": "C" 
			},
			{
				"x": -1.0174498978,
				"y": 0.2902650233,
				"z": 3.3022809888,
				"element": "N" 
			},
			{
				"x": -0.1700446838,
				"y": -0.3076744652,
				"z": 2.472348627,
				"element": "C" 
			},
			{
				"x": 3.3864445481,
				"y": -0.5367973826,
				"z": -1.0957426173,
				"element": "H" 
			},
			{
				"x": 3.5719681121,
				"y": -1.2070380157,
				"z": -2.7266896931,
				"element": "H" 
			},
			{
				"x": 2.6367388222,
				"y": 0.281149195,
				"z": -2.4873737812,
				"element": "H" 
			},
			{
				"x": 1.8620365299,
				"y": -2.4883412749,
				"z": -1.3843568941,
				"element": "H" 
			},
			{
				"x": 1.1154962361,
				"y": -1.7153759006,
				"z": -2.8076189701,
				"element": "H" 
			},
			{
				"x": -2.3248506708,
				"y": 1.3136109363,
				"z": -1.0211063289,
				"element": "H" 
			},
			{
				"x": -0.932597309,
				"y": 0.3159995614,
				"z": -1.443000439,
				"element": "H" 
			},
			{
				"x": -4.7652898397,
				"y": 1.9165174017,
				"z": 2.0746629544,
				"element": "H" 
			},
			{
				"x": -3.7230015102,
				"y": 3.3608830616,
				"z": 2.0985594868,
				"element": "H" 
			},
			{
				"x": -4.9687378191,
				"y": 3.1404627066,
				"z": 3.360810054,
				"element": "H" 
			},
			{
				"x": 0.6312368823,
				"y": -0.8938772463,
				"z": 2.9159469448,
				"element": "H" 
			}
		],
		 "valence_orbital": [ 
			{
				"type": "occ",
				"energy": -0.30292,
				"method": "rhf"
			},
			{
				"type": "occ",
				"energy": -0.27697,
				"method": "rhf"
			},
			{
				"type": "occ",
				"energy": -0.25513,
				"method": "rhf"
			},
			{
				"type": "occ",
				"energy": -0.25144,
				"method": "rhf"
			},
			{
				"type": "occ",
				"energy": -0.22509,
				"method": "rhf"
			},
			{
				"type": "unocc",
				"energy": -0.04918,
				"method": "rhf"
			},
			{
				"type": "unocc",
				"energy": -0.01484,
				"method": "rhf"
			},
			{
				"type": "unocc",
				"energy": 0.04133,
				"method": "rhf"
			},
			{
				"type": "unocc",
				"energy": 0.0426,
				"method": "rhf"
			},
			{
				"type": "unocc",
				"energy": 0.08494,
				"method": "rhf"
			}
		],
		"cosmo_sigma_profile": { 
			"-0.025": 0.0,
			"-0.024": 0.0,
			"-0.023": 0.0,
			"-0.022": 0.0,
			"-0.021": 0.0,
			"-0.02": 0.0,
			"-0.019": 0.0,
			"-0.018": 0.0,
			"-0.017": 0.0,
			"-0.016": 0.0,
			"-0.015": 0.207953744955,
			"-0.014": 0.959357517572,
			"-0.013": 1.04379719834,
			"-0.012": 1.18830469694,
			"-0.011": 1.529527977,
			"-0.01": 2.10707194386,
			"-0.009": 1.89764162202,
			"-0.008": 1.10076825466,
			"-0.007": 4.17078382959,
			"-0.006": 7.41340689059,
			"-0.005": 13.1248867235,
			"-0.004": 20.0529293346,
			"-0.003": 19.8642072204,
			"-0.002": 27.7119977493,
			"-0.001": 27.7571710456,
			"0.0": 24.1996403011,
			"0.001": 15.2777204853,
			"0.002": 11.8646975623,
			"0.003": 9.07594890541,
			"0.004": 10.6768542906,
			"0.005": 8.77623571748,
			"0.006": 9.57013611802,
			"0.007": 7.26565923621,
			"0.008": 3.93044219068,
			"0.009": 2.81592764974,
			"0.01": 3.28348756176,
			"0.011": 3.54886779007,
			"0.012": 4.08753420412,
			"0.013": 0.771514373819,
			"0.014": 1.25921739134,
			"0.015": 0.392369600894,
			"0.016": 0.0105085441145,
			"0.017": 0.0,
			"0.018": 0.0,
			"0.019": 0.0,
			"0.02": 0.0,
			"0.021": 0.0,
			"0.022": 0.0,
			"0.023": 0.0,
			"0.024": 0.0,
			"0.025": 0.0
		}
	}
}
