{
	 "smiles": "[O-][N+](=O)C1=CC(=CC(=C1)C#N)[N+]([O-])=O", 
	 "Tm": 402.15, 
	 "num_atms": 17, 
	 "gaussian": { 
		 "optdone": 1, 
		 "sigma_profile": "yes", 
		 "theory": "DFT", 
		 "functional": "B3LYP", 
		 "basiset": "6-31G**", 
		 "properties": { 
			 "R2extent": 3779.6657, 
			 "electric_dipole_moment_norm": 0.0259638209823, 
			 "electric_quadrupole_moment_norm": 17.9314749215, 
			 "total_energy": -733.46977789, 
			 "HOMO_LUMO_gap": 0.18434, 
			 "cosmo_polarized_energy": -15.17, 
			 "cosmo_cavitation_energy": 25.36, 
			 "cosmo_dispersion_energy": -17.75, 
			 "cosmo_repulsion_energy": 1.39, 
			 "cosmo_total_nonelectrostatic_energy": 9.0, 
			 "SMD_solvation_energy": 10.46 
		},
		"coords": [
			{
				"x": -3.9863815555,
				"y": 2.4226540355,
				"z": 0.4332399259,
				"element": "O" 
			},
			{
				"x": -2.7743901067,
				"y": 2.3050525884,
				"z": 0.278572906,
				"element": "N" 
			},
			{
				"x": -1.969692613,
				"y": 3.2269625617,
				"z": 0.1929306802,
				"element": "O" 
			},
			{
				"x": -2.2367186155,
				"y": 0.9297625515,
				"z": 0.18696112,
				"element": "C" 
			},
			{
				"x": -0.8680559873,
				"y": 0.759733565,
				"z": 0.0117607378,
				"element": "C" 
			},
			{
				"x": -0.3961468019,
				"y": -0.5454137657,
				"z": -0.0702953874,
				"element": "C" 
			},
			{
				"x": -1.232356271,
				"y": -1.6527581205,
				"z": 0.0156276557,
				"element": "C" 
			},
			{
				"x": -2.6088803996,
				"y": -1.4437853557,
				"z": 0.1924804798,
				"element": "C" 
			},
			{
				"x": -3.1202163056,
				"y": -0.1396738351,
				"z": 0.279557831,
				"element": "C" 
			},
			{
				"x": -3.4965976703,
				"y": -2.5674727722,
				"z": 0.2845995514,
				"element": "C" 
			},
			{
				"x": -4.2155257815,
				"y": -3.4775462658,
				"z": 0.3591755111,
				"element": "N" 
			},
			{
				"x": 1.0551706186,
				"y": -0.7642426124,
				"z": -0.2566077222,
				"element": "N" 
			},
			{
				"x": 1.4412007944,
				"y": -1.9273999791,
				"z": -0.3253002882,
				"element": "O" 
			},
			{
				"x": 1.7663221987,
				"y": 0.2326684709,
				"z": -0.3288364753,
				"element": "O" 
			},
			{
				"x": -0.1988651424,
				"y": 1.6068161181,
				"z": -0.0577281466,
				"element": "H" 
			},
			{
				"x": -0.8152755553,
				"y": -2.6493967608,
				"z": -0.0542100274,
				"element": "H" 
			},
			{
				"x": -4.1780908063,
				"y": 0.0458395761,
				"z": 0.4159716481,
				"element": "H" 
			}
		],
		 "valence_orbital": [ 
			{
				"type": "occ",
				"energy": -0.33861,
				"method": "rhf"
			},
			{
				"type": "occ",
				"energy": -0.33564,
				"method": "rhf"
			},
			{
				"type": "occ",
				"energy": -0.3277,
				"method": "rhf"
			},
			{
				"type": "occ",
				"energy": -0.3266,
				"method": "rhf"
			},
			{
				"type": "occ",
				"energy": -0.31773,
				"method": "rhf"
			},
			{
				"type": "unocc",
				"energy": -0.13339,
				"method": "rhf"
			},
			{
				"type": "unocc",
				"energy": -0.12471,
				"method": "rhf"
			},
			{
				"type": "unocc",
				"energy": -0.08518,
				"method": "rhf"
			},
			{
				"type": "unocc",
				"energy": -0.03072,
				"method": "rhf"
			},
			{
				"type": "unocc",
				"energy": -0.00082,
				"method": "rhf"
			}
		],
		"cosmo_sigma_profile": { 
			"-0.025": 0.0,
			"-0.024": 0.0,
			"-0.023": 0.0,
			"-0.022": 0.0,
			"-0.021": 0.0,
			"-0.02": 0.0,
			"-0.019": 0.0,
			"-0.018": 0.0,
			"-0.017": 0.0,
			"-0.016": 0.0,
			"-0.015": 0.0,
			"-0.014": 0.0,
			"-0.013": 0.0,
			"-0.012": 0.179657024512,
			"-0.011": 2.25571083671,
			"-0.01": 3.33348448228,
			"-0.009": 5.54912884736,
			"-0.008": 6.99330075903,
			"-0.007": 9.53957241985,
			"-0.006": 15.3226836001,
			"-0.005": 23.8963071971,
			"-0.004": 18.7690964109,
			"-0.003": 7.67731068269,
			"-0.002": 5.49504090051,
			"-0.001": 5.4359007276,
			"0.0": 6.50189186867,
			"0.001": 5.7603088591,
			"0.002": 5.96885070374,
			"0.003": 7.5380494965,
			"0.004": 7.49103763875,
			"0.005": 11.3501186533,
			"0.006": 19.0516293179,
			"0.007": 15.4124798337,
			"0.008": 11.0495318976,
			"0.009": 6.25751515494,
			"0.01": 2.46939103473,
			"0.011": 2.28597833764,
			"0.012": 1.03162019976,
			"0.013": 0.0,
			"0.014": 0.0,
			"0.015": 0.0,
			"0.016": 0.0,
			"0.017": 0.0,
			"0.018": 0.0,
			"0.019": 0.0,
			"0.02": 0.0,
			"0.021": 0.0,
			"0.022": 0.0,
			"0.023": 0.0,
			"0.024": 0.0,
			"0.025": 0.0
		}
	}
}
