{
	 "smiles": "CCOC(=O)C(=O)OCC", 
	 "Tm": 232.65, 
	 "num_atms": 20, 
	 "gaussian": { 
		 "optdone": 1, 
		 "sigma_profile": "yes", 
		 "theory": "DFT", 
		 "functional": "B3LYP", 
		 "basiset": "6-31G**", 
		 "properties": { 
			 "R2extent": 2329.0798, 
			 "electric_dipole_moment_norm": 3.85578881424, 
			 "electric_quadrupole_moment_norm": 18.9236783887, 
			 "total_energy": -535.571212842, 
			 "HOMO_LUMO_gap": 0.22359, 
			 "cosmo_polarized_energy": -10.93, 
			 "cosmo_cavitation_energy": 24.85, 
			 "cosmo_dispersion_energy": -17.79, 
			 "cosmo_repulsion_energy": 1.52, 
			 "cosmo_total_nonelectrostatic_energy": 8.58, 
			 "SMD_solvation_energy": 7.12 
		},
		"coords": [
			{
				"x": -0.5253300612,
				"y": 3.3668568665,
				"z": -0.2529289774,
				"element": "C" 
			},
			{
				"x": 0.0880792101,
				"y": 2.727304101,
				"z": 0.9828758854,
				"element": "C" 
			},
			{
				"x": -0.0821101525,
				"y": 1.2844499351,
				"z": 0.9672883114,
				"element": "O" 
			},
			{
				"x": -1.24580471,
				"y": 0.8216606008,
				"z": 1.4424490216,
				"element": "C" 
			},
			{
				"x": -2.1508569015,
				"y": 1.4890340391,
				"z": 1.8829015312,
				"element": "O" 
			},
			{
				"x": -1.326837402,
				"y": -0.7177211498,
				"z": 1.3988065278,
				"element": "C" 
			},
			{
				"x": -2.1851914277,
				"y": -1.3248696487,
				"z": 1.9925679793,
				"element": "O" 
			},
			{
				"x": -0.3710048254,
				"y": -1.2613274145,
				"z": 0.6358073652,
				"element": "O" 
			},
			{
				"x": -0.3976715019,
				"y": -2.7090955256,
				"z": 0.5402577752,
				"element": "C" 
			},
			{
				"x": 0.7395442488,
				"y": -3.125496245,
				"z": -0.3713674953,
				"element": "C" 
			},
			{
				"x": -0.3147601145,
				"y": 4.4413969068,
				"z": -0.2539876117,
				"element": "H" 
			},
			{
				"x": -0.1056119013,
				"y": 2.9331443376,
				"z": -1.1650656915,
				"element": "H" 
			},
			{
				"x": -1.6094777155,
				"y": 3.2311439554,
				"z": -0.2602086971,
				"element": "H" 
			},
			{
				"x": 1.1706562045,
				"y": 2.8666801144,
				"z": 1.0146066636,
				"element": "H" 
			},
			{
				"x": -0.3591852554,
				"y": 3.1219550629,
				"z": 1.8983227474,
				"element": "H" 
			},
			{
				"x": -0.2968812449,
				"y": -3.1251746375,
				"z": 1.5474633083,
				"element": "H" 
			},
			{
				"x": -1.374838345,
				"y": -3.0142487886,
				"z": 0.1532108428,
				"element": "H" 
			},
			{
				"x": 0.6201342411,
				"y": -2.6928398607,
				"z": -1.3685994665,
				"element": "H" 
			},
			{
				"x": 0.7542704985,
				"y": -4.2155029924,
				"z": -0.4679797154,
				"element": "H" 
			},
			{
				"x": 1.7029771558,
				"y": -2.8019496568,
				"z": 0.0322796958,
				"element": "H" 
			}
		],
		 "valence_orbital": [ 
			{
				"type": "occ",
				"energy": -0.35102,
				"method": "rhf"
			},
			{
				"type": "occ",
				"energy": -0.31446,
				"method": "rhf"
			},
			{
				"type": "occ",
				"energy": -0.30634,
				"method": "rhf"
			},
			{
				"type": "occ",
				"energy": -0.29594,
				"method": "rhf"
			},
			{
				"type": "occ",
				"energy": -0.27683,
				"method": "rhf"
			},
			{
				"type": "unocc",
				"energy": -0.05324,
				"method": "rhf"
			},
			{
				"type": "unocc",
				"energy": 0.07709,
				"method": "rhf"
			},
			{
				"type": "unocc",
				"energy": 0.09544,
				"method": "rhf"
			},
			{
				"type": "unocc",
				"energy": 0.10422,
				"method": "rhf"
			},
			{
				"type": "unocc",
				"energy": 0.1165,
				"method": "rhf"
			}
		],
		"cosmo_sigma_profile": { 
			"-0.025": 0.0,
			"-0.024": 0.0,
			"-0.023": 0.0,
			"-0.022": 0.0,
			"-0.021": 0.0,
			"-0.02": 0.0,
			"-0.019": 0.0,
			"-0.018": 0.0,
			"-0.017": 0.0,
			"-0.016": 0.0,
			"-0.015": 0.0,
			"-0.014": 0.0,
			"-0.013": 0.0,
			"-0.012": 0.0,
			"-0.011": 0.0,
			"-0.01": 0.0,
			"-0.009": 0.0,
			"-0.008": 0.791106662425,
			"-0.007": 2.29607342503,
			"-0.006": 9.04901762202,
			"-0.005": 18.7466106378,
			"-0.004": 29.0045275352,
			"-0.003": 22.9242353401,
			"-0.002": 17.4908160261,
			"-0.001": 19.4253081383,
			"0.0": 14.9488964433,
			"0.001": 6.35888030446,
			"0.002": 4.86925786956,
			"0.003": 5.06288060443,
			"0.004": 3.60744648446,
			"0.005": 3.68398681889,
			"0.006": 3.22699166034,
			"0.007": 4.73093040808,
			"0.008": 4.46223652009,
			"0.009": 4.80331932534,
			"0.01": 9.3317595885,
			"0.011": 7.1855740817,
			"0.012": 2.87794471819,
			"0.013": 0.700878593685,
			"0.014": 0.0,
			"0.015": 0.0,
			"0.016": 0.0,
			"0.017": 0.0,
			"0.018": 0.0,
			"0.019": 0.0,
			"0.02": 0.0,
			"0.021": 0.0,
			"0.022": 0.0,
			"0.023": 0.0,
			"0.024": 0.0,
			"0.025": 0.0
		}
	}
}
