{
	 "smiles": "NNC(=O)C12CC3CC(CC(C3)C1)C2", 
	 "Tm": 425.15, 
	 "num_atms": 32, 
	 "gaussian": { 
		 "optdone": 1, 
		 "sigma_profile": "yes", 
		 "theory": "DFT", 
		 "functional": "B3LYP", 
		 "basiset": "6-31G**", 
		 "properties": { 
			 "R2extent": 2656.1243, 
			 "electric_dipole_moment_norm": 3.96782603827, 
			 "electric_quadrupole_moment_norm": 19.9034129975, 
			 "total_energy": -614.749763513, 
			 "HOMO_LUMO_gap": 0.26795, 
			 "cosmo_polarized_energy": -12.59, 
			 "cosmo_cavitation_energy": 29.39, 
			 "cosmo_dispersion_energy": -22.25, 
			 "cosmo_repulsion_energy": 1.74, 
			 "cosmo_total_nonelectrostatic_energy": 8.88, 
			 "SMD_solvation_energy": 4.99 
		},
		"coords": [
			{
				"x": -3.1378440389,
				"y": -0.5533433555,
				"z": -2.1699941471,
				"element": "N" 
			},
			{
				"x": -2.9398491004,
				"y": -1.510883545,
				"z": -1.1680282158,
				"element": "N" 
			},
			{
				"x": -1.8482070899,
				"y": -1.6146170855,
				"z": -0.3280967927,
				"element": "C" 
			},
			{
				"x": -1.8593232169,
				"y": -2.5272521795,
				"z": 0.4912621312,
				"element": "O" 
			},
			{
				"x": -0.6815479143,
				"y": -0.6180110689,
				"z": -0.4329591457,
				"element": "C" 
			},
			{
				"x": -1.1481008234,
				"y": 0.8393326174,
				"z": -0.1542899582,
				"element": "C" 
			},
			{
				"x": 0.0586907495,
				"y": 1.8003327018,
				"z": -0.2093308344,
				"element": "C" 
			},
			{
				"x": 1.0951977626,
				"y": 1.3986670514,
				"z": 0.8582835691,
				"element": "C" 
			},
			{
				"x": 1.574549565,
				"y": -0.0413534797,
				"z": 0.5857262139,
				"element": "C" 
			},
			{
				"x": 2.2323095852,
				"y": -0.1082611627,
				"z": -0.8073322645,
				"element": "C" 
			},
			{
				"x": 1.197893812,
				"y": 0.2907474457,
				"z": -1.8780198246,
				"element": "C" 
			},
			{
				"x": 0.707280126,
				"y": 1.7287240166,
				"z": -1.6077686608,
				"element": "C" 
			},
			{
				"x": -0.0031762662,
				"y": -0.677678768,
				"z": -1.8312626327,
				"element": "C" 
			},
			{
				"x": 0.3724773015,
				"y": -1.0042330097,
				"z": 0.6361739341,
				"element": "C" 
			},
			{
				"x": -3.98437825,
				"y": -0.0213301355,
				"z": -1.9807405757,
				"element": "H" 
			},
			{
				"x": -3.2375056075,
				"y": -1.0105052465,
				"z": -3.0736263338,
				"element": "H" 
			},
			{
				"x": -3.6384067269,
				"y": -2.2282458788,
				"z": -0.9958715015,
				"element": "H" 
			},
			{
				"x": -1.6206488318,
				"y": 0.8872529511,
				"z": 0.8358443574,
				"element": "H" 
			},
			{
				"x": -1.8963151595,
				"y": 1.1394122559,
				"z": -0.892644567,
				"element": "H" 
			},
			{
				"x": -0.2923970674,
				"y": 2.8229230631,
				"z": -0.0187491379,
				"element": "H" 
			},
			{
				"x": 1.9460691816,
				"y": 2.0927426041,
				"z": 0.8394740997,
				"element": "H" 
			},
			{
				"x": 0.6503908067,
				"y": 1.4651241671,
				"z": 1.8598982925,
				"element": "H" 
			},
			{
				"x": 2.3025327422,
				"y": -0.3384353619,
				"z": 1.3514853736,
				"element": "H" 
			},
			{
				"x": 3.1001491901,
				"y": 0.5633387189,
				"z": -0.8508312913,
				"element": "H" 
			},
			{
				"x": 2.6033860145,
				"y": -1.123291341,
				"z": -1.0010171319,
				"element": "H" 
			},
			{
				"x": 1.6569376276,
				"y": 0.2398896334,
				"z": -2.8739878999,
				"element": "H" 
			},
			{
				"x": -0.0168925639,
				"y": 2.0310852815,
				"z": -2.3756702147,
				"element": "H" 
			},
			{
				"x": 1.5494355068,
				"y": 2.4307791513,
				"z": -1.6679028738,
				"element": "H" 
			},
			{
				"x": 0.3347456513,
				"y": -1.7037848271,
				"z": -2.0284521609,
				"element": "H" 
			},
			{
				"x": -0.7252150835,
				"y": -0.4123424494,
				"z": -2.6079825721,
				"element": "H" 
			},
			{
				"x": 0.6989620096,
				"y": -2.0362650546,
				"z": 0.4697253211,
				"element": "H" 
			},
			{
				"x": -0.0918998918,
				"y": -0.9884177097,
				"z": 1.6278854444,
				"element": "H" 
			}
		],
		 "valence_orbital": [ 
			{
				"type": "occ",
				"energy": -0.28265,
				"method": "rhf"
			},
			{
				"type": "occ",
				"energy": -0.27205,
				"method": "rhf"
			},
			{
				"type": "occ",
				"energy": -0.26291,
				"method": "rhf"
			},
			{
				"type": "occ",
				"energy": -0.25021,
				"method": "rhf"
			},
			{
				"type": "occ",
				"energy": -0.23437,
				"method": "rhf"
			},
			{
				"type": "unocc",
				"energy": 0.03358,
				"method": "rhf"
			},
			{
				"type": "unocc",
				"energy": 0.05831,
				"method": "rhf"
			},
			{
				"type": "unocc",
				"energy": 0.07957,
				"method": "rhf"
			},
			{
				"type": "unocc",
				"energy": 0.10749,
				"method": "rhf"
			},
			{
				"type": "unocc",
				"energy": 0.13136,
				"method": "rhf"
			}
		],
		"cosmo_sigma_profile": { 
			"-0.025": 0.0,
			"-0.024": 0.0,
			"-0.023": 0.0,
			"-0.022": 0.0,
			"-0.021": 0.0,
			"-0.02": 0.0,
			"-0.019": 0.0,
			"-0.018": 0.0,
			"-0.017": 0.0,
			"-0.016": 0.0,
			"-0.015": 0.0,
			"-0.014": 0.0,
			"-0.013": 0.278222245704,
			"-0.012": 2.59838937314,
			"-0.011": 5.38385310597,
			"-0.01": 4.46443449271,
			"-0.009": 4.88476602057,
			"-0.008": 4.44884969275,
			"-0.007": 1.8988232844,
			"-0.006": 1.71554788231,
			"-0.005": 1.97823590291,
			"-0.004": 2.27200185394,
			"-0.003": 2.25192185019,
			"-0.002": 23.4441081173,
			"-0.001": 44.453456084,
			"0.0": 43.551103563,
			"0.001": 35.1873499854,
			"0.002": 12.6315547664,
			"0.003": 4.01128977963,
			"0.004": 2.91510234472,
			"0.005": 2.30630225355,
			"0.006": 2.38546687055,
			"0.007": 1.7777513517,
			"0.008": 2.28821843765,
			"0.009": 2.13363109888,
			"0.01": 2.05917065816,
			"0.011": 1.65033969774,
			"0.012": 1.62466436509,
			"0.013": 2.36259967086,
			"0.014": 5.05896909088,
			"0.015": 2.78601518255,
			"0.016": 0.0076441872309,
			"0.017": 0.0,
			"0.018": 0.0,
			"0.019": 0.0,
			"0.02": 0.0,
			"0.021": 0.0,
			"0.022": 0.0,
			"0.023": 0.0,
			"0.024": 0.0,
			"0.025": 0.0
		}
	}
}
