{
	 "smiles": "CCOC(=O)CSC1=NC=C(N1C)C(=O)OC", 
	 "Tm": 308.65, 
	 "num_atms": 31, 
	 "gaussian": { 
		 "optdone": 1, 
		 "sigma_profile": "yes", 
		 "theory": "DFT", 
		 "functional": "B3LYP", 
		 "basiset": "6-31G**", 
		 "properties": { 
			 "R2extent": 6816.9052, 
			 "electric_dipole_moment_norm": 3.84426441989, 
			 "electric_quadrupole_moment_norm": 16.5305802064, 
			 "total_energy": -1198.10066676, 
			 "HOMO_LUMO_gap": 0.18342, 
			 "cosmo_polarized_energy": -14.92, 
			 "cosmo_cavitation_energy": 37.37, 
			 "cosmo_dispersion_energy": -26.04, 
			 "cosmo_repulsion_energy": 2.04, 
			 "cosmo_total_nonelectrostatic_energy": 13.37, 
			 "SMD_solvation_energy": 7.81 
		},
		"coords": [
			{
				"x": -4.1653429396,
				"y": -1.3193062992,
				"z": -4.0195457741,
				"element": "C" 
			},
			{
				"x": -3.6852695455,
				"y": 0.0647379125,
				"z": -3.6111064822,
				"element": "C" 
			},
			{
				"x": -3.2550866162,
				"y": 0.0828655246,
				"z": -2.2267815676,
				"element": "O" 
			},
			{
				"x": -4.2089782893,
				"y": 0.2893290083,
				"z": -1.3020396571,
				"element": "C" 
			},
			{
				"x": -5.3857721741,
				"y": 0.4529961818,
				"z": -1.5450749704,
				"element": "O" 
			},
			{
				"x": -3.6449453073,
				"y": 0.2609419549,
				"z": 0.1079777977,
				"element": "C" 
			},
			{
				"x": -2.2751688948,
				"y": 1.4454204922,
				"z": 0.4133893741,
				"element": "S" 
			},
			{
				"x": -0.898277802,
				"y": 0.3782576242,
				"z": 0.0919908771,
				"element": "C" 
			},
			{
				"x": -0.9201499581,
				"y": -0.9412428822,
				"z": 0.2134184954,
				"element": "N" 
			},
			{
				"x": 0.3447626662,
				"y": -1.3441888581,
				"z": -0.0830605478,
				"element": "C" 
			},
			{
				"x": 1.156703375,
				"y": -0.2654736804,
				"z": -0.376235024,
				"element": "C" 
			},
			{
				"x": 0.3275640333,
				"y": 0.857604598,
				"z": -0.2687573053,
				"element": "N" 
			},
			{
				"x": 0.6683046043,
				"y": 2.2567896286,
				"z": -0.5066588051,
				"element": "C" 
			},
			{
				"x": 2.5807286229,
				"y": -0.3254727232,
				"z": -0.69735243,
				"element": "C" 
			},
			{
				"x": 3.2010013624,
				"y": -1.3671499206,
				"z": -0.7978055837,
				"element": "O" 
			},
			{
				"x": 3.1514679365,
				"y": 0.897476749,
				"z": -0.8646384771,
				"element": "O" 
			},
			{
				"x": 4.5560675057,
				"y": 0.8711838265,
				"z": -1.1681082622,
				"element": "C" 
			},
			{
				"x": -4.4076162183,
				"y": -1.3270598672,
				"z": -5.0874822923,
				"element": "H" 
			},
			{
				"x": -3.390727207,
				"y": -2.0695051542,
				"z": -3.8366129157,
				"element": "H" 
			},
			{
				"x": -5.0645848907,
				"y": -1.5939578399,
				"z": -3.4627671541,
				"element": "H" 
			},
			{
				"x": -2.7976049496,
				"y": 0.3642005069,
				"z": -4.1729604744,
				"element": "H" 
			},
			{
				"x": -4.4708898742,
				"y": 0.8122095188,
				"z": -3.7444374533,
				"element": "H" 
			},
			{
				"x": -4.4455340564,
				"y": 0.5146939712,
				"z": 0.801995437,
				"element": "H" 
			},
			{
				"x": -3.2455106672,
				"y": -0.7312321058,
				"z": 0.3387909031,
				"element": "H" 
			},
			{
				"x": 0.6387317114,
				"y": -2.384058849,
				"z": -0.0699688534,
				"element": "H" 
			},
			{
				"x": -0.2582064401,
				"y": 2.8214219008,
				"z": -0.6191548709,
				"element": "H" 
			},
			{
				"x": 1.2463543284,
				"y": 2.6652463528,
				"z": 0.3263351354,
				"element": "H" 
			},
			{
				"x": 1.2606562221,
				"y": 2.341346768,
				"z": -1.4162917034,
				"element": "H" 
			},
			{
				"x": 4.7400517471,
				"y": 0.3251537482,
				"z": -2.0965234064,
				"element": "H" 
			},
			{
				"x": 4.8534840198,
				"y": 1.9148206156,
				"z": -1.2713074082,
				"element": "H" 
			},
			{
				"x": 5.1148876955,
				"y": 0.3905512971,
				"z": -0.3615266009,
				"element": "H" 
			}
		],
		 "valence_orbital": [ 
			{
				"type": "occ",
				"energy": -0.28685,
				"method": "rhf"
			},
			{
				"type": "occ",
				"energy": -0.28358,
				"method": "rhf"
			},
			{
				"type": "occ",
				"energy": -0.27683,
				"method": "rhf"
			},
			{
				"type": "occ",
				"energy": -0.27152,
				"method": "rhf"
			},
			{
				"type": "occ",
				"energy": -0.21825,
				"method": "rhf"
			},
			{
				"type": "unocc",
				"energy": -0.03483,
				"method": "rhf"
			},
			{
				"type": "unocc",
				"energy": -0.01282,
				"method": "rhf"
			},
			{
				"type": "unocc",
				"energy": 0.02832,
				"method": "rhf"
			},
			{
				"type": "unocc",
				"energy": 0.04145,
				"method": "rhf"
			},
			{
				"type": "unocc",
				"energy": 0.07065,
				"method": "rhf"
			}
		],
		"cosmo_sigma_profile": { 
			"-0.025": 0.0,
			"-0.024": 0.0,
			"-0.023": 0.0,
			"-0.022": 0.0,
			"-0.021": 0.0,
			"-0.02": 0.0,
			"-0.019": 0.0,
			"-0.018": 0.0,
			"-0.017": 0.0,
			"-0.016": 0.0,
			"-0.015": 0.0,
			"-0.014": 0.0,
			"-0.013": 0.0,
			"-0.012": 0.0,
			"-0.011": 0.0,
			"-0.01": 0.0,
			"-0.009": 0.357733252717,
			"-0.008": 3.17315884791,
			"-0.007": 5.93099776972,
			"-0.006": 15.4077053806,
			"-0.005": 26.0120436477,
			"-0.004": 33.5455755702,
			"-0.003": 33.3644652001,
			"-0.002": 25.8968555062,
			"-0.001": 22.374808638,
			"0.0": 19.9877193206,
			"0.001": 17.6137912208,
			"0.002": 14.9505960735,
			"0.003": 13.0163938192,
			"0.004": 10.6692405811,
			"0.005": 9.04259337504,
			"0.006": 8.33905772117,
			"0.007": 6.54512106444,
			"0.008": 5.43636936843,
			"0.009": 3.74300246618,
			"0.01": 5.29416469656,
			"0.011": 7.48992095077,
			"0.012": 8.89262297901,
			"0.013": 1.20809760458,
			"0.014": 0.0282835434437,
			"0.015": 0.0,
			"0.016": 0.0,
			"0.017": 0.0,
			"0.018": 0.0,
			"0.019": 0.0,
			"0.02": 0.0,
			"0.021": 0.0,
			"0.022": 0.0,
			"0.023": 0.0,
			"0.024": 0.0,
			"0.025": 0.0
		}
	}
}
