{
	 "smiles": "CCCC1=CC=CC=C1", 
	 "Tm": 173.65, 
	 "num_atms": 21, 
	 "gaussian": { 
		 "optdone": 1, 
		 "sigma_profile": "yes", 
		 "theory": "DFT", 
		 "functional": "B3LYP", 
		 "basiset": "6-31G**", 
		 "properties": { 
			 "R2extent": 1522.185, 
			 "electric_dipole_moment_norm": 0.271818781544, 
			 "electric_quadrupole_moment_norm": 4.29746318658, 
			 "total_energy": -350.203900784, 
			 "HOMO_LUMO_gap": 0.23856, 
			 "cosmo_polarized_energy": -2.98, 
			 "cosmo_cavitation_energy": 23.34, 
			 "cosmo_dispersion_energy": -16.86, 
			 "cosmo_repulsion_energy": 1.4, 
			 "cosmo_total_nonelectrostatic_energy": 7.88, 
			 "SMD_solvation_energy": 3.82 
		},
		"coords": [
			{
				"x": -0.8598969329,
				"y": 1.0790714715,
				"z": 1.8128522826,
				"element": "C" 
			},
			{
				"x": 0.5727056756,
				"y": 1.1954667675,
				"z": 1.2845501073,
				"element": "C" 
			},
			{
				"x": 0.6628453608,
				"y": 1.4246513175,
				"z": -0.2408713946,
				"element": "C" 
			},
			{
				"x": 0.1566543266,
				"y": 0.2625634085,
				"z": -1.07104249,
				"element": "C" 
			},
			{
				"x": 0.9382607959,
				"y": -0.8918934454,
				"z": -1.2296448198,
				"element": "C" 
			},
			{
				"x": 0.4766779195,
				"y": -1.9769203336,
				"z": -1.9744294908,
				"element": "C" 
			},
			{
				"x": -0.7816140909,
				"y": -1.9279426206,
				"z": -2.5792744575,
				"element": "C" 
			},
			{
				"x": -1.569466869,
				"y": -0.7858472722,
				"z": -2.4331160953,
				"element": "C" 
			},
			{
				"x": -1.1018721112,
				"y": 0.2977072454,
				"z": -1.6859922988,
				"element": "C" 
			},
			{
				"x": -1.3904073936,
				"y": 0.24299112,
				"z": 1.3465984789,
				"element": "H" 
			},
			{
				"x": -1.4319572194,
				"y": 1.9915566543,
				"z": 1.6071102558,
				"element": "H" 
			},
			{
				"x": -0.8685521287,
				"y": 0.9195625576,
				"z": 2.8960603817,
				"element": "H" 
			},
			{
				"x": 1.0822761033,
				"y": 2.0263490706,
				"z": 1.7891152594,
				"element": "H" 
			},
			{
				"x": 1.1343029126,
				"y": 0.2882697959,
				"z": 1.5421688365,
				"element": "H" 
			},
			{
				"x": 0.1008223379,
				"y": 2.3309332685,
				"z": -0.499367392,
				"element": "H" 
			},
			{
				"x": 1.709998283,
				"y": 1.6239944873,
				"z": -0.5014090186,
				"element": "H" 
			},
			{
				"x": 1.9224612087,
				"y": -0.9365476938,
				"z": -0.768324535,
				"element": "H" 
			},
			{
				"x": 1.100939752,
				"y": -2.8591446581,
				"z": -2.0875826272,
				"element": "H" 
			},
			{
				"x": -1.1415420059,
				"y": -2.7708149528,
				"z": -3.1623932526,
				"element": "H" 
			},
			{
				"x": -2.5480046064,
				"y": -0.7349535338,
				"z": -2.9028341892,
				"element": "H" 
			},
			{
				"x": -1.7201313181,
				"y": 1.1861473456,
				"z": -1.5817735408,
				"element": "H" 
			}
		],
		 "valence_orbital": [ 
			{
				"type": "occ",
				"energy": -0.33271,
				"method": "rhf"
			},
			{
				"type": "occ",
				"energy": -0.32512,
				"method": "rhf"
			},
			{
				"type": "occ",
				"energy": -0.31847,
				"method": "rhf"
			},
			{
				"type": "occ",
				"energy": -0.2443,
				"method": "rhf"
			},
			{
				"type": "occ",
				"energy": -0.23593,
				"method": "rhf"
			},
			{
				"type": "unocc",
				"energy": 0.00263,
				"method": "rhf"
			},
			{
				"type": "unocc",
				"energy": 0.00533,
				"method": "rhf"
			},
			{
				"type": "unocc",
				"energy": 0.09172,
				"method": "rhf"
			},
			{
				"type": "unocc",
				"energy": 0.10976,
				"method": "rhf"
			},
			{
				"type": "unocc",
				"energy": 0.12463,
				"method": "rhf"
			}
		],
		"cosmo_sigma_profile": { 
			"-0.025": 0.0,
			"-0.024": 0.0,
			"-0.023": 0.0,
			"-0.022": 0.0,
			"-0.021": 0.0,
			"-0.02": 0.0,
			"-0.019": 0.0,
			"-0.018": 0.0,
			"-0.017": 0.0,
			"-0.016": 0.0,
			"-0.015": 0.0,
			"-0.014": 0.0,
			"-0.013": 0.0,
			"-0.012": 0.0,
			"-0.011": 0.0,
			"-0.01": 0.0,
			"-0.009": 0.0,
			"-0.008": 0.0,
			"-0.007": 0.0,
			"-0.006": 0.791176275862,
			"-0.005": 8.30313691804,
			"-0.004": 11.4844579866,
			"-0.003": 20.3094072859,
			"-0.002": 23.2405113275,
			"-0.001": 23.571968259,
			"0.0": 23.2365153463,
			"0.001": 21.7469872184,
			"0.002": 14.4294060951,
			"0.003": 8.33245426631,
			"0.004": 7.88260420756,
			"0.005": 7.9380018929,
			"0.006": 7.82386622937,
			"0.007": 4.26408757812,
			"0.008": 0.0,
			"0.009": 0.0,
			"0.01": 0.0,
			"0.011": 0.0,
			"0.012": 0.0,
			"0.013": 0.0,
			"0.014": 0.0,
			"0.015": 0.0,
			"0.016": 0.0,
			"0.017": 0.0,
			"0.018": 0.0,
			"0.019": 0.0,
			"0.02": 0.0,
			"0.021": 0.0,
			"0.022": 0.0,
			"0.023": 0.0,
			"0.024": 0.0,
			"0.025": 0.0
		}
	}
}
