{
	 "smiles": "CC1OC(=O)C(C)OC1=O", 
	 "Tm": 397.15, 
	 "num_atms": 18, 
	 "gaussian": { 
		 "optdone": 1, 
		 "sigma_profile": "yes", 
		 "theory": "DFT", 
		 "functional": "B3LYP", 
		 "basiset": "6-31G**", 
		 "properties": { 
			 "R2extent": 1613.1054, 
			 "electric_dipole_moment_norm": 1.91564086927, 
			 "electric_quadrupole_moment_norm": 15.2404981674, 
			 "total_energy": -534.35814445, 
			 "HOMO_LUMO_gap": 0.26227, 
			 "cosmo_polarized_energy": -13.56, 
			 "cosmo_cavitation_energy": 21.74, 
			 "cosmo_dispersion_energy": -15.92, 
			 "cosmo_repulsion_energy": 1.31, 
			 "cosmo_total_nonelectrostatic_energy": 7.13, 
			 "SMD_solvation_energy": 6.1 
		},
		"coords": [
			{
				"x": 0.2557964441,
				"y": -0.9407546226,
				"z": -2.3654003815,
				"element": "C" 
			},
			{
				"x": 1.0768570591,
				"y": -0.128047752,
				"z": -1.3625368314,
				"element": "C" 
			},
			{
				"x": 0.666690067,
				"y": -0.4352586552,
				"z": -0.0126353428,
				"element": "O" 
			},
			{
				"x": -0.2040297628,
				"y": 0.3528198297,
				"z": 0.6491094932,
				"element": "C" 
			},
			{
				"x": -0.6894444703,
				"y": -0.0044010876,
				"z": 1.6939330054,
				"element": "O" 
			},
			{
				"x": -0.549949083,
				"y": 1.7134094563,
				"z": 0.0537655514,
				"element": "C" 
			},
			{
				"x": -1.9748311542,
				"y": 1.74126461,
				"z": -0.5023738272,
				"element": "C" 
			},
			{
				"x": 0.3833083096,
				"y": 2.2034647719,
				"z": -0.9329901399,
				"element": "O" 
			},
			{
				"x": 1.0846422335,
				"y": 1.3561779746,
				"z": -1.7123351078,
				"element": "C" 
			},
			{
				"x": 1.7134497737,
				"y": 1.7635435409,
				"z": -2.6576083215,
				"element": "O" 
			},
			{
				"x": 0.3298489667,
				"y": -2.003250595,
				"z": -2.1223364265,
				"element": "H" 
			},
			{
				"x": -0.7997828294,
				"y": -0.6538192857,
				"z": -2.3454692736,
				"element": "H" 
			},
			{
				"x": 0.6443463274,
				"y": -0.7734836345,
				"z": -3.3726728459,
				"element": "H" 
			},
			{
				"x": 2.1211342674,
				"y": -0.4461632138,
				"z": -1.4126848603,
				"element": "H" 
			},
			{
				"x": -0.4741682318,
				"y": 2.4229373218,
				"z": 0.8814483858,
				"element": "H" 
			},
			{
				"x": -2.2092308433,
				"y": 2.7478209724,
				"z": -0.8564363675,
				"element": "H" 
			},
			{
				"x": -2.6777925918,
				"y": 1.4638610474,
				"z": 0.2865734075,
				"element": "H" 
			},
			{
				"x": -2.0931444818,
				"y": 1.0442793214,
				"z": -1.3373501175,
				"element": "H" 
			}
		],
		 "valence_orbital": [ 
			{
				"type": "occ",
				"energy": -0.36468,
				"method": "rhf"
			},
			{
				"type": "occ",
				"energy": -0.32577,
				"method": "rhf"
			},
			{
				"type": "occ",
				"energy": -0.31496,
				"method": "rhf"
			},
			{
				"type": "occ",
				"energy": -0.28549,
				"method": "rhf"
			},
			{
				"type": "occ",
				"energy": -0.28142,
				"method": "rhf"
			},
			{
				"type": "unocc",
				"energy": -0.01915,
				"method": "rhf"
			},
			{
				"type": "unocc",
				"energy": -0.00969,
				"method": "rhf"
			},
			{
				"type": "unocc",
				"energy": 0.06042,
				"method": "rhf"
			},
			{
				"type": "unocc",
				"energy": 0.08085,
				"method": "rhf"
			},
			{
				"type": "unocc",
				"energy": 0.10553,
				"method": "rhf"
			}
		],
		"cosmo_sigma_profile": { 
			"-0.025": 0.0,
			"-0.024": 0.0,
			"-0.023": 0.0,
			"-0.022": 0.0,
			"-0.021": 0.0,
			"-0.02": 0.0,
			"-0.019": 0.0,
			"-0.018": 0.0,
			"-0.017": 0.0,
			"-0.016": 0.0,
			"-0.015": 0.057149958018,
			"-0.014": 0.120361789862,
			"-0.013": 0.231540769181,
			"-0.012": 0.21633997621,
			"-0.011": 0.352914631212,
			"-0.01": 0.600611135687,
			"-0.009": 5.81759228049,
			"-0.008": 8.7916777464,
			"-0.007": 6.70160078197,
			"-0.006": 9.74336787327,
			"-0.005": 16.2184292446,
			"-0.004": 13.3573466801,
			"-0.003": 13.898557674,
			"-0.002": 15.6780249128,
			"-0.001": 12.0518564861,
			"0.0": 4.83138403544,
			"0.001": 4.55405724613,
			"0.002": 4.45463817681,
			"0.003": 3.63448676215,
			"0.004": 2.98802386641,
			"0.005": 3.57367240016,
			"0.006": 4.22556373346,
			"0.007": 4.30884476689,
			"0.008": 6.08295790219,
			"0.009": 6.30765986824,
			"0.01": 6.7402559804,
			"0.011": 10.9603600394,
			"0.012": 4.86636664266,
			"0.013": 0.313253161822,
			"0.014": 0.0,
			"0.015": 0.0,
			"0.016": 0.0,
			"0.017": 0.0,
			"0.018": 0.0,
			"0.019": 0.0,
			"0.02": 0.0,
			"0.021": 0.0,
			"0.022": 0.0,
			"0.023": 0.0,
			"0.024": 0.0,
			"0.025": 0.0
		}
	}
}
