{
	 "smiles": "CN1C(=O)C(C2=NNC(=O)C2=C/NC2=NC=CS2)=C(O)C2=CC=CC=C12", 
	 "Tm": 521.15, 
	 "num_atms": 39, 
	 "gaussian": { 
		 "optdone": 1, 
		 "sigma_profile": "yes", 
		 "theory": "DFT", 
		 "functional": "B3LYP", 
		 "basiset": "6-31G**", 
		 "properties": { 
			 "R2extent": 13080.4505, 
			 "electric_dipole_moment_norm": 5.86726439578, 
			 "electric_quadrupole_moment_norm": 21.6714934287, 
			 "total_energy": -1553.25297937, 
			 "HOMO_LUMO_gap": 0.13068, 
			 "cosmo_polarized_energy": -26.88, 
			 "cosmo_cavitation_energy": 45.34, 
			 "cosmo_dispersion_energy": -33.57, 
			 "cosmo_repulsion_energy": 2.44, 
			 "cosmo_total_nonelectrostatic_energy": 14.21, 
			 "SMD_solvation_energy": 6.57 
		},
		"coords": [
			{
				"x": 1.527481542,
				"y": 0.4573485507,
				"z": -2.5536827508,
				"element": "C" 
			},
			{
				"x": 1.5446400673,
				"y": 0.9285916512,
				"z": -1.1684783017,
				"element": "N" 
			},
			{
				"x": 1.3532695718,
				"y": -0.0439762651,
				"z": -0.1638566625,
				"element": "C" 
			},
			{
				"x": 1.1714121981,
				"y": -1.2216566624,
				"z": -0.478351287,
				"element": "O" 
			},
			{
				"x": 1.3513985265,
				"y": 0.4196507022,
				"z": 1.2233856819,
				"element": "C" 
			},
			{
				"x": 1.1552079327,
				"y": -0.5822122054,
				"z": 2.2888331096,
				"element": "C" 
			},
			{
				"x": 1.8969258265,
				"y": -0.5384822511,
				"z": 3.3730183954,
				"element": "N" 
			},
			{
				"x": 1.4499403299,
				"y": -1.5450961251,
				"z": 4.2005807673,
				"element": "N" 
			},
			{
				"x": 0.4008680413,
				"y": -2.2685498617,
				"z": 3.6901329413,
				"element": "C" 
			},
			{
				"x": -0.1939217015,
				"y": -3.2198451212,
				"z": 4.2286918825,
				"element": "O" 
			},
			{
				"x": 0.1738768471,
				"y": -1.6505803002,
				"z": 2.3802756892,
				"element": "C" 
			},
			{
				"x": -0.7973103,
				"y": -2.1118489885,
				"z": 1.5302569484,
				"element": "C" 
			},
			{
				"x": -1.594059903,
				"y": -3.1409128679,
				"z": 1.9118982571,
				"element": "N" 
			},
			{
				"x": -2.6059189584,
				"y": -3.6651761364,
				"z": 1.1329963555,
				"element": "C" 
			},
			{
				"x": -2.9587639335,
				"y": -3.1991741952,
				"z": -0.0309558253,
				"element": "N" 
			},
			{
				"x": -3.9946932559,
				"y": -3.9431916708,
				"z": -0.5476615337,
				"element": "C" 
			},
			{
				"x": -4.4442117399,
				"y": -4.9776802214,
				"z": 0.2163826028,
				"element": "C" 
			},
			{
				"x": -3.5239174511,
				"y": -5.0617538925,
				"z": 1.6953919981,
				"element": "S" 
			},
			{
				"x": 1.5167633467,
				"y": 1.7540524935,
				"z": 1.5047601873,
				"element": "C" 
			},
			{
				"x": 1.4370503413,
				"y": 2.1795943786,
				"z": 2.7865158192,
				"element": "O" 
			},
			{
				"x": 1.7748344981,
				"y": 2.7167296295,
				"z": 0.4516891466,
				"element": "C" 
			},
			{
				"x": 2.0497375819,
				"y": 4.0724804173,
				"z": 0.7165262833,
				"element": "C" 
			},
			{
				"x": 2.2688756596,
				"y": 4.9816626312,
				"z": -0.306118631,
				"element": "C" 
			},
			{
				"x": 2.2253854122,
				"y": 4.5377268957,
				"z": -1.633390958,
				"element": "C" 
			},
			{
				"x": 1.9837409484,
				"y": 3.2030776886,
				"z": -1.9274776131,
				"element": "C" 
			},
			{
				"x": 1.764967653,
				"y": 2.267985458,
				"z": -0.8949615454,
				"element": "C" 
			},
			{
				"x": 2.4884643703,
				"y": 0.6516604975,
				"z": -3.0400673471,
				"element": "H" 
			},
			{
				"x": 0.7309385353,
				"y": 0.9511592371,
				"z": -3.1188768882,
				"element": "H" 
			},
			{
				"x": 1.3442384999,
				"y": -0.6140016662,
				"z": -2.5229894213,
				"element": "H" 
			},
			{
				"x": 1.898658009,
				"y": -1.6897719351,
				"z": 5.0912267711,
				"element": "H" 
			},
			{
				"x": -0.9609820237,
				"y": -1.7155469677,
				"z": 0.5362191152,
				"element": "H" 
			},
			{
				"x": -1.3784509383,
				"y": -3.5201631535,
				"z": 2.8473224046,
				"element": "H" 
			},
			{
				"x": -4.3984001657,
				"y": -3.6753075425,
				"z": -1.5171146023,
				"element": "H" 
			},
			{
				"x": -5.2385190438,
				"y": -5.6808089869,
				"z": 0.0140187368,
				"element": "H" 
			},
			{
				"x": 1.2954921166,
				"y": 3.134885595,
				"z": 2.7993447603,
				"element": "H" 
			},
			{
				"x": 2.1303026761,
				"y": 4.4213991586,
				"z": 1.7429894632,
				"element": "H" 
			},
			{
				"x": 2.4822350598,
				"y": 6.0205954937,
				"z": -0.0780560598,
				"element": "H" 
			},
			{
				"x": 2.3928104457,
				"y": 5.2376294409,
				"z": -2.4465406675,
				"element": "H" 
			},
			{
				"x": 1.9691333774,
				"y": 2.8831070973,
				"z": -2.9609772222,
				"element": "H" 
			}
		],
		 "valence_orbital": [ 
			{
				"type": "occ",
				"energy": -0.25015,
				"method": "rhf"
			},
			{
				"type": "occ",
				"energy": -0.24509,
				"method": "rhf"
			},
			{
				"type": "occ",
				"energy": -0.2311,
				"method": "rhf"
			},
			{
				"type": "occ",
				"energy": -0.21549,
				"method": "rhf"
			},
			{
				"type": "occ",
				"energy": -0.19614,
				"method": "rhf"
			},
			{
				"type": "unocc",
				"energy": -0.06546,
				"method": "rhf"
			},
			{
				"type": "unocc",
				"energy": -0.05325,
				"method": "rhf"
			},
			{
				"type": "unocc",
				"energy": -0.01746,
				"method": "rhf"
			},
			{
				"type": "unocc",
				"energy": 0.00185,
				"method": "rhf"
			},
			{
				"type": "unocc",
				"energy": 0.00751,
				"method": "rhf"
			}
		],
		"cosmo_sigma_profile": { 
			"-0.025": 0.0,
			"-0.024": 0.0,
			"-0.023": 0.0,
			"-0.022": 0.0,
			"-0.021": 0.0,
			"-0.02": 0.0,
			"-0.019": 0.197152872118,
			"-0.018": 0.586882686076,
			"-0.017": 1.20039684582,
			"-0.016": 1.58666372482,
			"-0.015": 2.64798702933,
			"-0.014": 1.82844719126,
			"-0.013": 1.63744955991,
			"-0.012": 2.35768374512,
			"-0.011": 2.10366406972,
			"-0.01": 3.07026533186,
			"-0.009": 5.19421090975,
			"-0.008": 6.47885582705,
			"-0.007": 11.0309125163,
			"-0.006": 20.6528131315,
			"-0.005": 20.4986393759,
			"-0.004": 19.3912200663,
			"-0.003": 18.0900240953,
			"-0.002": 25.8813972657,
			"-0.001": 30.9560263837,
			"0.0": 28.3911826804,
			"0.001": 30.4869007734,
			"0.002": 25.8424786824,
			"0.003": 26.4133888727,
			"0.004": 18.0019923265,
			"0.005": 6.8063070999,
			"0.006": 6.85721462577,
			"0.007": 6.1924806424,
			"0.008": 5.85786357538,
			"0.009": 6.18805604168,
			"0.01": 5.03736193719,
			"0.011": 5.89553962357,
			"0.012": 6.7059104953,
			"0.013": 6.89910271971,
			"0.014": 4.04159792927,
			"0.015": 1.69456859082,
			"0.016": 0.992095732508,
			"0.017": 0.0168352763891,
			"0.018": 0.0,
			"0.019": 0.0,
			"0.02": 0.0,
			"0.021": 0.0,
			"0.022": 0.0,
			"0.023": 0.0,
			"0.024": 0.0,
			"0.025": 0.0
		}
	}
}
