{
	 "smiles": "IC1=CC(CN2C=NC=N2)=CC=C1", 
	 "Tm": 327.15, 
	 "num_atms": 21, 
	 "gaussian": { 
		 "optdone": 1, 
		 "sigma_profile": "no", 
		 "theory": "DFT", 
		 "functional": "B3LYP", 
		 "basiset": "6-31G**", 
		 "properties": { 
			 "R2extent": 3133.8474, 
			 "electric_dipole_moment_norm": 1.71509483703, 
			 "electric_quadrupole_moment_norm": 16.449456829, 
			 "total_energy": -523.400656484, 
			 "HOMO_LUMO_gap": 0.20119, 
			 "cosmo_polarized_energy": -101801.51, 
			 "cosmo_cavitation_energy": 28.93, 
			 "cosmo_dispersion_energy": -22.19, 
			 "cosmo_repulsion_energy": 1.71, 
			 "cosmo_total_nonelectrostatic_energy": 8.45, 
			 "SMD_solvation_energy": 2.08 
		},
		"coords": [
			{
				"x": -4.7816642421,
				"y": 0.8357387115,
				"z": 1.697441504,
				"element": "I" 
			},
			{
				"x": -2.9197572018,
				"y": 0.6026277352,
				"z": 0.7063185362,
				"element": "C" 
			},
			{
				"x": -1.785711723,
				"y": 0.2729535452,
				"z": 1.4518384668,
				"element": "C" 
			},
			{
				"x": -0.5538132603,
				"y": 0.1170950193,
				"z": 0.8081059334,
				"element": "C" 
			},
			{
				"x": 0.6848381409,
				"y": -0.2102671657,
				"z": 1.6249069192,
				"element": "C" 
			},
			{
				"x": 1.418726984,
				"y": -1.3736575553,
				"z": 1.1386307108,
				"element": "N" 
			},
			{
				"x": 1.2853500794,
				"y": -2.6793754875,
				"z": 1.4672889505,
				"element": "C" 
			},
			{
				"x": 2.1034282969,
				"y": -3.4261049584,
				"z": 0.7447756274,
				"element": "N" 
			},
			{
				"x": 2.7255965021,
				"y": -2.5033475265,
				"z": -0.0400286297,
				"element": "C" 
			},
			{
				"x": 2.3495575477,
				"y": -1.2463549542,
				"z": 0.1554527658,
				"element": "N" 
			},
			{
				"x": -0.4713724259,
				"y": 0.2893318027,
				"z": -0.579552617,
				"element": "C" 
			},
			{
				"x": -1.6125523313,
				"y": 0.6115500529,
				"z": -1.3105040106,
				"element": "C" 
			},
			{
				"x": -2.8473987531,
				"y": 0.7731826812,
				"z": -0.6754059686,
				"element": "C" 
			},
			{
				"x": -1.8586083324,
				"y": 0.1391386476,
				"z": 2.5264361281,
				"element": "H" 
			},
			{
				"x": 0.4140402335,
				"y": -0.3982914455,
				"z": 2.6673379718,
				"element": "H" 
			},
			{
				"x": 1.3916110775,
				"y": 0.6241835488,
				"z": 1.6091448342,
				"element": "H" 
			},
			{
				"x": 0.5997878144,
				"y": -3.0283405025,
				"z": 2.2275188004,
				"element": "H" 
			},
			{
				"x": 3.4815716274,
				"y": -2.7602022818,
				"z": -0.7693298436,
				"element": "H" 
			},
			{
				"x": 0.4848927825,
				"y": 0.1599358384,
				"z": -1.0767204002,
				"element": "H" 
			},
			{
				"x": -1.5473688839,
				"y": 0.7420936822,
				"z": -2.3867195979,
				"element": "H" 
			},
			{
				"x": -3.7317539322,
				"y": 1.0255106122,
				"z": -1.249336081,
				"element": "H" 
			}
		],
		 "valence_orbital": [ 
			{
				"type": "occ",
				"energy": -0.27991,
				"method": "rhf"
			},
			{
				"type": "occ",
				"energy": -0.27448,
				"method": "rhf"
			},
			{
				"type": "occ",
				"energy": -0.27241,
				"method": "rhf"
			},
			{
				"type": "occ",
				"energy": -0.26623,
				"method": "rhf"
			},
			{
				"type": "occ",
				"energy": -0.2463,
				"method": "rhf"
			},
			{
				"type": "unocc",
				"energy": -0.04511,
				"method": "rhf"
			},
			{
				"type": "unocc",
				"energy": -0.03057,
				"method": "rhf"
			},
			{
				"type": "unocc",
				"energy": -0.02483,
				"method": "rhf"
			},
			{
				"type": "unocc",
				"energy": 0.00237,
				"method": "rhf"
			},
			{
				"type": "unocc",
				"energy": 0.0371,
				"method": "rhf"
			}
		],
		"cosmo_sigma_profile": { 
			"0.0": 0.0,
			"0.0": 0.0,
			"0.0": 0.0,
			"0.0": 0.0,
			"0.0": 0.0,
			"0.0": 0.0,
			"0.0": 0.0,
			"0.0": 0.0,
			"0.0": 0.0,
			"0.0": 0.0,
			"0.0": 0.0,
			"0.0": 0.0,
			"0.0": 0.0,
			"0.0": 0.0,
			"0.0": 0.0,
			"0.0": 0.0,
			"0.0": 0.0,
			"0.0": 0.0,
			"0.0": 0.0,
			"0.0": 0.0,
			"0.0": 0.0,
			"0.0": 0.0,
			"0.0": 0.0,
			"0.0": 0.0,
			"0.0": 0.0,
			"0.0": 0.0,
			"0.0": 0.0,
			"0.0": 0.0,
			"0.0": 0.0,
			"0.0": 0.0,
			"0.0": 0.0,
			"0.0": 0.0,
			"0.0": 0.0,
			"0.0": 0.0,
			"0.0": 0.0,
			"0.0": 0.0,
			"0.0": 0.0,
			"0.0": 0.0,
			"0.0": 0.0,
			"0.0": 0.0,
			"0.0": 0.0,
			"0.0": 0.0,
			"0.0": 0.0,
			"0.0": 0.0,
			"0.0": 0.0,
			"0.0": 0.0,
			"0.0": 0.0,
			"0.0": 0.0,
			"0.0": 0.0,
			"0.0": 0.0,
			"0.0": 0.0
		}
	}
}
