{
	 "smiles": "CCN(CC)C1=C(C)C=CC=C1", 
	 "Tm": 213.15, 
	 "num_atms": 29, 
	 "gaussian": { 
		 "optdone": 1, 
		 "sigma_profile": "yes", 
		 "theory": "DFT", 
		 "functional": "B3LYP", 
		 "basiset": "6-31G**", 
		 "properties": { 
			 "R2extent": 2182.9148, 
			 "electric_dipole_moment_norm": 0.443839903569, 
			 "electric_quadrupole_moment_norm": 4.14808597307, 
			 "total_energy": -484.171083447, 
			 "HOMO_LUMO_gap": 0.21209, 
			 "cosmo_polarized_energy": -3.6, 
			 "cosmo_cavitation_energy": 29.96, 
			 "cosmo_dispersion_energy": -20.59, 
			 "cosmo_repulsion_energy": 1.65, 
			 "cosmo_total_nonelectrostatic_energy": 11.02, 
			 "SMD_solvation_energy": 4.77 
		},
		"coords": [
			{
				"x": 2.4161381716,
				"y": 0.6375240329,
				"z": 0.5346153886,
				"element": "C" 
			},
			{
				"x": 1.3210578091,
				"y": 0.4877262252,
				"z": 1.5889085539,
				"element": "C" 
			},
			{
				"x": -0.0381437807,
				"y": 0.5093116593,
				"z": 1.0239462337,
				"element": "N" 
			},
			{
				"x": -1.0606768168,
				"y": 0.6369555303,
				"z": 2.0743325663,
				"element": "C" 
			},
			{
				"x": -2.4549616661,
				"y": 0.9225875891,
				"z": 1.519736041,
				"element": "C" 
			},
			{
				"x": -0.2888370622,
				"y": -0.5747254798,
				"z": 0.0981777842,
				"element": "C" 
			},
			{
				"x": -0.4551541585,
				"y": -0.2991189764,
				"z": -1.2742083796,
				"element": "C" 
			},
			{
				"x": -0.3631355252,
				"y": 1.104927398,
				"z": -1.8230243042,
				"element": "C" 
			},
			{
				"x": -0.7012991442,
				"y": -1.3728853239,
				"z": -2.1442511192,
				"element": "C" 
			},
			{
				"x": -0.7791563081,
				"y": -2.6857859701,
				"z": -1.6858060815,
				"element": "C" 
			},
			{
				"x": -0.6115130132,
				"y": -2.9532495037,
				"z": -0.3258863967,
				"element": "C" 
			},
			{
				"x": -0.3691005946,
				"y": -1.9003282383,
				"z": 0.5531215047,
				"element": "C" 
			},
			{
				"x": 2.2923717354,
				"y": 1.570520745,
				"z": -0.0231523595,
				"element": "H" 
			},
			{
				"x": 2.4042485169,
				"y": -0.1918977397,
				"z": -0.1783188693,
				"element": "H" 
			},
			{
				"x": 3.3992383454,
				"y": 0.6510333296,
				"z": 1.0164686021,
				"element": "H" 
			},
			{
				"x": 1.5047248405,
				"y": -0.4299723416,
				"z": 2.1798381611,
				"element": "H" 
			},
			{
				"x": 1.3856782352,
				"y": 1.3255890603,
				"z": 2.2935163499,
				"element": "H" 
			},
			{
				"x": -0.751919691,
				"y": 1.471337498,
				"z": 2.7154837626,
				"element": "H" 
			},
			{
				"x": -1.100873737,
				"y": -0.2543806622,
				"z": 2.728856683,
				"element": "H" 
			},
			{
				"x": -2.4544926543,
				"y": 1.8394887894,
				"z": 0.9224408234,
				"element": "H" 
			},
			{
				"x": -2.8116930713,
				"y": 0.1044440724,
				"z": 0.8877701804,
				"element": "H" 
			},
			{
				"x": -3.1670312999,
				"y": 1.0472617552,
				"z": 2.3420938255,
				"element": "H" 
			},
			{
				"x": -0.5306090991,
				"y": 1.8416311562,
				"z": -1.0368868257,
				"element": "H" 
			},
			{
				"x": -1.08916061,
				"y": 1.2591938733,
				"z": -2.6277419184,
				"element": "H" 
			},
			{
				"x": 0.6317631023,
				"y": 1.2975237761,
				"z": -2.2442299766,
				"element": "H" 
			},
			{
				"x": -0.8371620855,
				"y": -1.1663807733,
				"z": -3.2034412546,
				"element": "H" 
			},
			{
				"x": -0.9732818982,
				"y": -3.4948351529,
				"z": -2.3844664047,
				"element": "H" 
			},
			{
				"x": -0.6704143764,
				"y": -3.9722503307,
				"z": 0.0464582362,
				"element": "H" 
			},
			{
				"x": -0.2391041641,
				"y": -2.1051459979,
				"z": 1.6124491935,
				"element": "H" 
			}
		],
		 "valence_orbital": [ 
			{
				"type": "occ",
				"energy": -0.33247,
				"method": "rhf"
			},
			{
				"type": "occ",
				"energy": -0.32702,
				"method": "rhf"
			},
			{
				"type": "occ",
				"energy": -0.24025,
				"method": "rhf"
			},
			{
				"type": "occ",
				"energy": -0.23289,
				"method": "rhf"
			},
			{
				"type": "occ",
				"energy": -0.21036,
				"method": "rhf"
			},
			{
				"type": "unocc",
				"energy": 0.00173,
				"method": "rhf"
			},
			{
				"type": "unocc",
				"energy": 0.0066,
				"method": "rhf"
			},
			{
				"type": "unocc",
				"energy": 0.09058,
				"method": "rhf"
			},
			{
				"type": "unocc",
				"energy": 0.10258,
				"method": "rhf"
			},
			{
				"type": "unocc",
				"energy": 0.11322,
				"method": "rhf"
			}
		],
		"cosmo_sigma_profile": { 
			"-0.025": 0.0,
			"-0.024": 0.0,
			"-0.023": 0.0,
			"-0.022": 0.0,
			"-0.021": 0.0,
			"-0.02": 0.0,
			"-0.019": 0.0,
			"-0.018": 0.0,
			"-0.017": 0.0,
			"-0.016": 0.0,
			"-0.015": 0.0,
			"-0.014": 0.0,
			"-0.013": 0.0,
			"-0.012": 0.0,
			"-0.011": 0.0,
			"-0.01": 0.0,
			"-0.009": 0.0,
			"-0.008": 0.0,
			"-0.007": 0.0,
			"-0.006": 0.620048306486,
			"-0.005": 6.32554451535,
			"-0.004": 12.8053446802,
			"-0.003": 25.3422317547,
			"-0.002": 28.4722691278,
			"-0.001": 34.1460304737,
			"0.0": 36.7114127764,
			"0.001": 33.1503677702,
			"0.002": 18.2828977823,
			"0.003": 10.1176542465,
			"0.004": 8.35227778306,
			"0.005": 6.99084343426,
			"0.006": 7.0630154398,
			"0.007": 3.29590416312,
			"0.008": 0.750175842086,
			"0.009": 0.602514713734,
			"0.01": 0.479897907129,
			"0.011": 0.150019048068,
			"0.012": 0.0,
			"0.013": 0.0,
			"0.014": 0.0,
			"0.015": 0.0,
			"0.016": 0.0,
			"0.017": 0.0,
			"0.018": 0.0,
			"0.019": 0.0,
			"0.02": 0.0,
			"0.021": 0.0,
			"0.022": 0.0,
			"0.023": 0.0,
			"0.024": 0.0,
			"0.025": 0.0
		}
	}
}
