{
	 "smiles": "CCC(Br)C(N)=O", 
	 "Tm": 382.15, 
	 "num_atms": 15, 
	 "gaussian": { 
		 "optdone": 1, 
		 "sigma_profile": "yes", 
		 "theory": "DFT", 
		 "functional": "B3LYP", 
		 "basiset": "6-31G**", 
		 "properties": { 
			 "R2extent": 1530.6546, 
			 "electric_dipole_moment_norm": 1.56543296247, 
			 "electric_quadrupole_moment_norm": 12.230373442, 
			 "total_energy": -2858.65455324, 
			 "HOMO_LUMO_gap": 0.24423, 
			 "cosmo_polarized_energy": -9.7, 
			 "cosmo_cavitation_energy": 20.18, 
			 "cosmo_dispersion_energy": -15.33, 
			 "cosmo_repulsion_energy": 1.31, 
			 "cosmo_total_nonelectrostatic_energy": 6.17, 
			 "SMD_solvation_energy": 3.27 
		},
		"coords": [
			{
				"x": 1.0585042252,
				"y": 2.8870509875,
				"z": -0.3444446252,
				"element": "C" 
			},
			{
				"x": 0.4465274096,
				"y": 1.6584336931,
				"z": 0.3287590434,
				"element": "C" 
			},
			{
				"x": 1.1013426126,
				"y": 0.329400622,
				"z": -0.0564549277,
				"element": "C" 
			},
			{
				"x": 0.8313415072,
				"y": -0.0515374768,
				"z": -2.010731865,
				"element": "Br" 
			},
			{
				"x": 0.6436064671,
				"y": -0.8062778981,
				"z": 0.8744061997,
				"element": "C" 
			},
			{
				"x": -0.0181294119,
				"y": -1.8611532585,
				"z": 0.3465094476,
				"element": "N" 
			},
			{
				"x": 0.8919989884,
				"y": -0.6817390693,
				"z": 2.0669012588,
				"element": "O" 
			},
			{
				"x": 0.9403639649,
				"y": 2.8493187972,
				"z": -1.4308546836,
				"element": "H" 
			},
			{
				"x": 2.1285676017,
				"y": 2.9672419142,
				"z": -0.122643997,
				"element": "H" 
			},
			{
				"x": 0.5737062051,
				"y": 3.7986875264,
				"z": 0.0175568065,
				"element": "H" 
			},
			{
				"x": 0.5595053377,
				"y": 1.727480396,
				"z": 1.4166606815,
				"element": "H" 
			},
			{
				"x": -0.6281811013,
				"y": 1.6002915182,
				"z": 0.1214597147,
				"element": "H" 
			},
			{
				"x": 2.1867800296,
				"y": 0.3954820478,
				"z": 0.0351209401,
				"element": "H" 
			},
			{
				"x": -0.1624949405,
				"y": -1.9516843362,
				"z": -0.647016497,
				"element": "H" 
			},
			{
				"x": -0.2941388953,
				"y": -2.6021954635,
				"z": 0.9723725031,
				"element": "H" 
			}
		],
		 "valence_orbital": [ 
			{
				"type": "occ",
				"energy": -0.34143,
				"method": "rhf"
			},
			{
				"type": "occ",
				"energy": -0.29791,
				"method": "rhf"
			},
			{
				"type": "occ",
				"energy": -0.28753,
				"method": "rhf"
			},
			{
				"type": "occ",
				"energy": -0.27345,
				"method": "rhf"
			},
			{
				"type": "occ",
				"energy": -0.2559,
				"method": "rhf"
			},
			{
				"type": "unocc",
				"energy": -0.01167,
				"method": "rhf"
			},
			{
				"type": "unocc",
				"energy": 0.01801,
				"method": "rhf"
			},
			{
				"type": "unocc",
				"energy": 0.08125,
				"method": "rhf"
			},
			{
				"type": "unocc",
				"energy": 0.10778,
				"method": "rhf"
			},
			{
				"type": "unocc",
				"energy": 0.12623,
				"method": "rhf"
			}
		],
		"cosmo_sigma_profile": { 
			"-0.025": 0.0,
			"-0.024": 0.0,
			"-0.023": 0.0,
			"-0.022": 0.0,
			"-0.021": 0.0,
			"-0.02": 0.0,
			"-0.019": 0.0,
			"-0.018": 0.0,
			"-0.017": 0.0,
			"-0.016": 0.0,
			"-0.015": 0.287747688866,
			"-0.014": 1.33096907966,
			"-0.013": 1.31384405562,
			"-0.012": 1.70758113235,
			"-0.011": 2.20201124327,
			"-0.01": 2.60003497255,
			"-0.009": 1.58385137835,
			"-0.008": 2.46217333129,
			"-0.007": 4.17590870334,
			"-0.006": 3.11768666331,
			"-0.005": 4.51582240278,
			"-0.004": 9.45959507532,
			"-0.003": 12.6889121164,
			"-0.002": 15.8863137571,
			"-0.001": 16.6850343765,
			"0.0": 15.4321705327,
			"0.001": 13.2151677305,
			"0.002": 9.27128598372,
			"0.003": 7.71324230514,
			"0.004": 7.74571168203,
			"0.005": 6.76891690931,
			"0.006": 4.13271217505,
			"0.007": 1.15888328637,
			"0.008": 1.17555175551,
			"0.009": 1.32440163361,
			"0.01": 1.55129267538,
			"0.011": 0.972272149836,
			"0.012": 2.53159609606,
			"0.013": 5.39328938447,
			"0.014": 2.63903143911,
			"0.015": 0.0176531784725,
			"0.016": 0.0,
			"0.017": 0.0,
			"0.018": 0.0,
			"0.019": 0.0,
			"0.02": 0.0,
			"0.021": 0.0,
			"0.022": 0.0,
			"0.023": 0.0,
			"0.024": 0.0,
			"0.025": 0.0
		}
	}
}
