{
	 "smiles": "CC1CN(CC(C)O1)S(=O)(=O)CCN", 
	 "Tm": 347.15, 
	 "num_atms": 32, 
	 "gaussian": { 
		 "optdone": 1, 
		 "sigma_profile": "yes", 
		 "theory": "DFT", 
		 "functional": "B3LYP", 
		 "basiset": "6-31G**", 
		 "properties": { 
			 "R2extent": 3802.6462, 
			 "electric_dipole_moment_norm": 3.08827033467, 
			 "electric_quadrupole_moment_norm": 14.75893445, 
			 "total_energy": -1048.99303862, 
			 "HOMO_LUMO_gap": 0.28862, 
			 "cosmo_polarized_energy": -17.36, 
			 "cosmo_cavitation_energy": 33.49, 
			 "cosmo_dispersion_energy": -23.83, 
			 "cosmo_repulsion_energy": 1.85, 
			 "cosmo_total_nonelectrostatic_energy": 11.5, 
			 "SMD_solvation_energy": 3.24 
		},
		"coords": [
			{
				"x": -2.2154536429,
				"y": 1.7807720345,
				"z": 0.5474096765,
				"element": "C" 
			},
			{
				"x": -1.0783826801,
				"y": 0.996848142,
				"z": -0.0905466459,
				"element": "C" 
			},
			{
				"x": 0.0639911608,
				"y": 0.7224629034,
				"z": 0.8936073246,
				"element": "C" 
			},
			{
				"x": 1.0867211957,
				"y": -0.1857678414,
				"z": 0.328809709,
				"element": "N" 
			},
			{
				"x": 0.4940732265,
				"y": -1.3907617251,
				"z": -0.2909135373,
				"element": "C" 
			},
			{
				"x": -0.6630455055,
				"y": -1.0492511134,
				"z": -1.2402028033,
				"element": "C" 
			},
			{
				"x": -1.3891190924,
				"y": -2.2906286869,
				"z": -1.7362477229,
				"element": "C" 
			},
			{
				"x": -1.6219499644,
				"y": -0.2411901389,
				"z": -0.5546126583,
				"element": "O" 
			},
			{
				"x": 2.3756364107,
				"y": 0.5376202686,
				"z": -0.5260252072,
				"element": "S" 
			},
			{
				"x": 2.451624297,
				"y": 1.9316130466,
				"z": -0.0697312365,
				"element": "O" 
			},
			{
				"x": 2.2828896139,
				"y": 0.2221237558,
				"z": -1.9594614895,
				"element": "O" 
			},
			{
				"x": 3.8335496733,
				"y": -0.3435920171,
				"z": 0.1064682813,
				"element": "C" 
			},
			{
				"x": 4.1098121238,
				"y": -0.1527394545,
				"z": 1.6117990217,
				"element": "C" 
			},
			{
				"x": 3.3108067019,
				"y": -0.9374000972,
				"z": 2.5439750593,
				"element": "N" 
			},
			{
				"x": -1.8688764315,
				"y": 2.7631125421,
				"z": 0.8827794551,
				"element": "H" 
			},
			{
				"x": -2.6205704651,
				"y": 1.2385792296,
				"z": 1.4079606792,
				"element": "H" 
			},
			{
				"x": -3.0226658404,
				"y": 1.9242226042,
				"z": -0.1753993398,
				"element": "H" 
			},
			{
				"x": -0.6724512586,
				"y": 1.5577820239,
				"z": -0.9491638849,
				"element": "H" 
			},
			{
				"x": -0.3437127928,
				"y": 0.2243411565,
				"z": 1.7829331832,
				"element": "H" 
			},
			{
				"x": 0.5511446661,
				"y": 1.647662445,
				"z": 1.2028644962,
				"element": "H" 
			},
			{
				"x": 1.2698885247,
				"y": -1.9491182032,
				"z": -0.8202508835,
				"element": "H" 
			},
			{
				"x": 0.1177451752,
				"y": -2.0192142734,
				"z": 0.5266508528,
				"element": "H" 
			},
			{
				"x": -0.2509619115,
				"y": -0.4844009947,
				"z": -2.0900584914,
				"element": "H" 
			},
			{
				"x": -0.7138441324,
				"y": -2.9324393041,
				"z": -2.3108316922,
				"element": "H" 
			},
			{
				"x": -1.7902868735,
				"y": -2.8654606492,
				"z": -0.8950717936,
				"element": "H" 
			},
			{
				"x": -2.2240730171,
				"y": -2.0022565263,
				"z": -2.3798755535,
				"element": "H" 
			},
			{
				"x": 4.6427420664,
				"y": 0.0681946982,
				"z": -0.5063554426,
				"element": "H" 
			},
			{
				"x": 3.7097286839,
				"y": -1.3971165342,
				"z": -0.1631034277,
				"element": "H" 
			},
			{
				"x": 3.997017447,
				"y": 0.9100297297,
				"z": 1.8512657229,
				"element": "H" 
			},
			{
				"x": 5.1661563523,
				"y": -0.3950425448,
				"z": 1.7760071847,
				"element": "H" 
			},
			{
				"x": 3.4801945293,
				"y": -1.9305170984,
				"z": 2.4027755268,
				"element": "H" 
			},
			{
				"x": 2.3233717599,
				"y": -0.7809673774,
				"z": 2.3591456367,
				"element": "H" 
			}
		],
		 "valence_orbital": [ 
			{
				"type": "occ",
				"energy": -0.30202,
				"method": "rhf"
			},
			{
				"type": "occ",
				"energy": -0.29799,
				"method": "rhf"
			},
			{
				"type": "occ",
				"energy": -0.2855,
				"method": "rhf"
			},
			{
				"type": "occ",
				"energy": -0.24493,
				"method": "rhf"
			},
			{
				"type": "occ",
				"energy": -0.23572,
				"method": "rhf"
			},
			{
				"type": "unocc",
				"energy": 0.0529,
				"method": "rhf"
			},
			{
				"type": "unocc",
				"energy": 0.05806,
				"method": "rhf"
			},
			{
				"type": "unocc",
				"energy": 0.07355,
				"method": "rhf"
			},
			{
				"type": "unocc",
				"energy": 0.08409,
				"method": "rhf"
			},
			{
				"type": "unocc",
				"energy": 0.08976,
				"method": "rhf"
			}
		],
		"cosmo_sigma_profile": { 
			"-0.025": 0.0,
			"-0.024": 0.0,
			"-0.023": 0.0,
			"-0.022": 0.0,
			"-0.021": 0.0,
			"-0.02": 0.0,
			"-0.019": 0.0,
			"-0.018": 0.0,
			"-0.017": 0.0,
			"-0.016": 0.0,
			"-0.015": 0.0,
			"-0.014": 0.0,
			"-0.013": 0.0,
			"-0.012": 0.0,
			"-0.011": 0.00669653957095,
			"-0.01": 0.958199502372,
			"-0.009": 1.99460536108,
			"-0.008": 6.78933643857,
			"-0.007": 7.21143071617,
			"-0.006": 8.36342238099,
			"-0.005": 22.9253478068,
			"-0.004": 29.8101064962,
			"-0.003": 31.6778411174,
			"-0.002": 27.6700534212,
			"-0.001": 20.9965278501,
			"0.0": 18.8498961937,
			"0.001": 11.3081329901,
			"0.002": 6.71782128268,
			"0.003": 5.0258983966,
			"0.004": 5.39017607417,
			"0.005": 4.69781666033,
			"0.006": 4.25273494865,
			"0.007": 4.23897561546,
			"0.008": 5.14751536481,
			"0.009": 5.62385891733,
			"0.01": 6.17307855119,
			"0.011": 9.6420943734,
			"0.012": 8.29066579492,
			"0.013": 1.3859023167,
			"0.014": 0.914765770801,
			"0.015": 0.463107841733,
			"0.016": 0.369919980079,
			"0.017": 1.11405280468,
			"0.018": 0.621184364815,
			"0.019": 0.522920902412,
			"0.02": 0.171059944011,
			"0.021": 0.0,
			"0.022": 0.0,
			"0.023": 0.0,
			"0.024": 0.0,
			"0.025": 0.0
		}
	}
}
