{
	 "smiles": "NC1=CC(OCC2=CC=C(Cl)C=C2)=CC=C1", 
	 "Tm": 361.15, 
	 "num_atms": 28, 
	 "gaussian": { 
		 "optdone": 1, 
		 "sigma_profile": "yes", 
		 "theory": "DFT", 
		 "functional": "B3LYP", 
		 "basiset": "6-31G**", 
		 "properties": { 
			 "R2extent": 6428.7188, 
			 "electric_dipole_moment_norm": 2.97291433109, 
			 "electric_quadrupole_moment_norm": 13.1393421567, 
			 "total_energy": -1092.77842537, 
			 "HOMO_LUMO_gap": 0.17875, 
			 "cosmo_polarized_energy": -12.32, 
			 "cosmo_cavitation_energy": 33.88, 
			 "cosmo_dispersion_energy": -24.29, 
			 "cosmo_repulsion_energy": 1.93, 
			 "cosmo_total_nonelectrostatic_energy": 11.51, 
			 "SMD_solvation_energy": 5.45 
		},
		"coords": [
			{
				"x": 0.2113287585,
				"y": -1.3047381067,
				"z": -2.2912773376,
				"element": "N" 
			},
			{
				"x": -0.7310234003,
				"y": -0.7654537752,
				"z": -1.4126287389,
				"element": "C" 
			},
			{
				"x": -0.3378895057,
				"y": -0.3742439772,
				"z": -0.1186738667,
				"element": "C" 
			},
			{
				"x": -1.2643075208,
				"y": 0.2215049124,
				"z": 0.7390045327,
				"element": "C" 
			},
			{
				"x": -0.9781087685,
				"y": 0.627729372,
				"z": 2.0207113219,
				"element": "O" 
			},
			{
				"x": 0.2711730393,
				"y": 0.2813266913,
				"z": 2.602005961,
				"element": "C" 
			},
			{
				"x": 1.4235925511,
				"y": 1.1781265687,
				"z": 2.1873838862,
				"element": "C" 
			},
			{
				"x": 2.7404914935,
				"y": 0.7122151529,
				"z": 2.2715622426,
				"element": "C" 
			},
			{
				"x": 3.818143435,
				"y": 1.5396495362,
				"z": 1.9555365571,
				"element": "C" 
			},
			{
				"x": 3.5672769338,
				"y": 2.8474085899,
				"z": 1.5428546478,
				"element": "C" 
			},
			{
				"x": 4.9170170097,
				"y": 3.8984310826,
				"z": 1.1334978602,
				"element": "Cl" 
			},
			{
				"x": 2.2638026402,
				"y": 3.3330338158,
				"z": 1.4452634755,
				"element": "C" 
			},
			{
				"x": 1.1985411598,
				"y": 2.4949262515,
				"z": 1.7728492661,
				"element": "C" 
			},
			{
				"x": -2.5850887516,
				"y": 0.4428233664,
				"z": 0.325874948,
				"element": "C" 
			},
			{
				"x": -2.9609536581,
				"y": 0.0539923379,
				"z": -0.9558021668,
				"element": "C" 
			},
			{
				"x": -2.0541785351,
				"y": -0.5498642368,
				"z": -1.826590763,
				"element": "C" 
			},
			{
				"x": 0.9999452645,
				"y": -1.7602451208,
				"z": -1.8533672407,
				"element": "H" 
			},
			{
				"x": -0.1741446516,
				"y": -1.8592185988,
				"z": -3.0430443975,
				"element": "H" 
			},
			{
				"x": 0.6954523824,
				"y": -0.5081500563,
				"z": 0.1802859659,
				"element": "H" 
			},
			{
				"x": 0.5127413795,
				"y": -0.7714190801,
				"z": 2.4024098583,
				"element": "H" 
			},
			{
				"x": 0.1019442164,
				"y": 0.3768122025,
				"z": 3.6808458941,
				"element": "H" 
			},
			{
				"x": 2.9343577044,
				"y": -0.3103388686,
				"z": 2.5878394328,
				"element": "H" 
			},
			{
				"x": 4.8373442598,
				"y": 1.1750340743,
				"z": 2.0207838932,
				"element": "H" 
			},
			{
				"x": 2.0868101775,
				"y": 4.3515459967,
				"z": 1.1176376703,
				"element": "H" 
			},
			{
				"x": 0.179846536,
				"y": 2.860700253,
				"z": 1.6971189443,
				"element": "H" 
			},
			{
				"x": -3.2837032545,
				"y": 0.9021628409,
				"z": 1.015979251,
				"element": "H" 
			},
			{
				"x": -3.984158242,
				"y": 0.2167035661,
				"z": -1.2832046901,
				"element": "H" 
			},
			{
				"x": -2.3623526533,
				"y": -0.8450547905,
				"z": -2.8258564078,
				"element": "H" 
			}
		],
		 "valence_orbital": [ 
			{
				"type": "occ",
				"energy": -0.2869,
				"method": "rhf"
			},
			{
				"type": "occ",
				"energy": -0.26442,
				"method": "rhf"
			},
			{
				"type": "occ",
				"energy": -0.2433,
				"method": "rhf"
			},
			{
				"type": "occ",
				"energy": -0.22489,
				"method": "rhf"
			},
			{
				"type": "occ",
				"energy": -0.1957,
				"method": "rhf"
			},
			{
				"type": "unocc",
				"energy": -0.01695,
				"method": "rhf"
			},
			{
				"type": "unocc",
				"energy": -0.01516,
				"method": "rhf"
			},
			{
				"type": "unocc",
				"energy": 0.01304,
				"method": "rhf"
			},
			{
				"type": "unocc",
				"energy": 0.02519,
				"method": "rhf"
			},
			{
				"type": "unocc",
				"energy": 0.03116,
				"method": "rhf"
			}
		],
		"cosmo_sigma_profile": { 
			"-0.025": 0.0,
			"-0.024": 0.0,
			"-0.023": 0.0,
			"-0.022": 0.0,
			"-0.021": 0.0,
			"-0.02": 0.0,
			"-0.019": 0.0,
			"-0.018": 0.0,
			"-0.017": 0.0,
			"-0.016": 0.0,
			"-0.015": 0.0,
			"-0.014": 0.0,
			"-0.013": 0.164412120514,
			"-0.012": 2.46069290677,
			"-0.011": 2.61242137542,
			"-0.01": 2.78648421297,
			"-0.009": 2.80321799248,
			"-0.008": 2.96561299047,
			"-0.007": 9.60084616298,
			"-0.006": 15.4922722854,
			"-0.005": 20.5148835609,
			"-0.004": 16.8391254318,
			"-0.003": 15.6177215525,
			"-0.002": 14.1498269167,
			"-0.001": 14.6998236654,
			"0.0": 16.2877356681,
			"0.001": 17.8810997576,
			"0.002": 19.4399517936,
			"0.003": 23.0434650384,
			"0.004": 26.1339232955,
			"0.005": 18.6070984445,
			"0.006": 11.4655297559,
			"0.007": 9.52491280011,
			"0.008": 2.53955211497,
			"0.009": 1.71151309181,
			"0.01": 1.67519395088,
			"0.011": 0.876021013157,
			"0.012": 0.827691773486,
			"0.013": 0.767482598928,
			"0.014": 0.590231831881,
			"0.015": 0.267577766921,
			"0.016": 0.0,
			"0.017": 0.0,
			"0.018": 0.0,
			"0.019": 0.0,
			"0.02": 0.0,
			"0.021": 0.0,
			"0.022": 0.0,
			"0.023": 0.0,
			"0.024": 0.0,
			"0.025": 0.0
		}
	}
}
