{
	 "smiles": "CC1=NN=C(O1)C1=C(F)C=CC=C1", 
	 "Tm": 311.15, 
	 "num_atms": 20, 
	 "gaussian": { 
		 "optdone": 1, 
		 "sigma_profile": "yes", 
		 "theory": "DFT", 
		 "functional": "B3LYP", 
		 "basiset": "6-31G**", 
		 "properties": { 
			 "R2extent": 2604.5353, 
			 "electric_dipole_moment_norm": 2.80270494523, 
			 "electric_quadrupole_moment_norm": 13.5969644351, 
			 "total_energy": -631.716159093, 
			 "HOMO_LUMO_gap": 0.18724, 
			 "cosmo_polarized_energy": -10.41, 
			 "cosmo_cavitation_energy": 25.44, 
			 "cosmo_dispersion_energy": -18.83, 
			 "cosmo_repulsion_energy": 1.46, 
			 "cosmo_total_nonelectrostatic_energy": 8.08, 
			 "SMD_solvation_energy": 3.52 
		},
		"coords": [
			{
				"x": -2.9251871635,
				"y": -2.2475823104,
				"z": -2.3687001403,
				"element": "C" 
			},
			{
				"x": -2.3117703795,
				"y": -1.1036357172,
				"z": -1.649243767,
				"element": "C" 
			},
			{
				"x": -2.7011214014,
				"y": 0.1327061801,
				"z": -1.6039059054,
				"element": "N" 
			},
			{
				"x": -1.7887154036,
				"y": 0.8055847638,
				"z": -0.7969605069,
				"element": "N" 
			},
			{
				"x": -0.9110502272,
				"y": -0.0760709112,
				"z": -0.4118757554,
				"element": "C" 
			},
			{
				"x": -1.1801917511,
				"y": -1.3165368641,
				"z": -0.9165338058,
				"element": "O" 
			},
			{
				"x": 0.2421285429,
				"y": 0.1586247601,
				"z": 0.4502680643,
				"element": "C" 
			},
			{
				"x": 1.1504333113,
				"y": -0.8402830328,
				"z": 0.8268136809,
				"element": "C" 
			},
			{
				"x": 0.9815429832,
				"y": -2.1017564566,
				"z": 0.3870570451,
				"element": "F" 
			},
			{
				"x": 2.2381399552,
				"y": -0.5757033726,
				"z": 1.650929857,
				"element": "C" 
			},
			{
				"x": 2.4374864696,
				"y": 0.720747884,
				"z": 2.1207952613,
				"element": "C" 
			},
			{
				"x": 1.5485784405,
				"y": 1.7397440401,
				"z": 1.7628907792,
				"element": "C" 
			},
			{
				"x": 0.4654856515,
				"y": 1.4606174715,
				"z": 0.9382729995,
				"element": "C" 
			},
			{
				"x": -3.2124224336,
				"y": -3.0402833996,
				"z": -1.6704623959,
				"element": "H" 
			},
			{
				"x": -3.8124565042,
				"y": -1.8952615497,
				"z": -2.8957270056,
				"element": "H" 
			},
			{
				"x": -2.2238783341,
				"y": -2.676553241,
				"z": -3.0915892671,
				"element": "H" 
			},
			{
				"x": 2.906713086,
				"y": -1.3900235276,
				"z": 1.9079023329,
				"element": "H" 
			},
			{
				"x": 3.2852692558,
				"y": 0.9333894376,
				"z": 2.7647667994,
				"element": "H" 
			},
			{
				"x": 1.70134959,
				"y": 2.7504192185,
				"z": 2.1273515372,
				"element": "H" 
			},
			{
				"x": -0.234333688,
				"y": 2.2373566271,
				"z": 0.6499501925,
				"element": "H" 
			}
		],
		 "valence_orbital": [ 
			{
				"type": "occ",
				"energy": -0.31777,
				"method": "rhf"
			},
			{
				"type": "occ",
				"energy": -0.30562,
				"method": "rhf"
			},
			{
				"type": "occ",
				"energy": -0.27367,
				"method": "rhf"
			},
			{
				"type": "occ",
				"energy": -0.26055,
				"method": "rhf"
			},
			{
				"type": "occ",
				"energy": -0.23979,
				"method": "rhf"
			},
			{
				"type": "unocc",
				"energy": -0.05255,
				"method": "rhf"
			},
			{
				"type": "unocc",
				"energy": -0.01208,
				"method": "rhf"
			},
			{
				"type": "unocc",
				"energy": 0.01653,
				"method": "rhf"
			},
			{
				"type": "unocc",
				"energy": 0.05648,
				"method": "rhf"
			},
			{
				"type": "unocc",
				"energy": 0.08121,
				"method": "rhf"
			}
		],
		"cosmo_sigma_profile": { 
			"-0.025": 0.0,
			"-0.024": 0.0,
			"-0.023": 0.0,
			"-0.022": 0.0,
			"-0.021": 0.0,
			"-0.02": 0.0,
			"-0.019": 0.0,
			"-0.018": 0.0,
			"-0.017": 0.0,
			"-0.016": 0.0,
			"-0.015": 0.0,
			"-0.014": 0.0,
			"-0.013": 0.0,
			"-0.012": 0.0,
			"-0.011": 0.0,
			"-0.01": 0.0,
			"-0.009": 0.0,
			"-0.008": 1.32860328323,
			"-0.007": 9.9740562909,
			"-0.006": 13.8103719376,
			"-0.005": 16.5715438289,
			"-0.004": 15.2277196149,
			"-0.003": 19.3571324441,
			"-0.002": 14.6071754494,
			"-0.001": 14.3434900524,
			"0.0": 14.8935146414,
			"0.001": 14.3360143178,
			"0.002": 15.4355549986,
			"0.003": 15.3826951917,
			"0.004": 10.6988728305,
			"0.005": 4.09902054129,
			"0.006": 3.68661043952,
			"0.007": 2.69288839349,
			"0.008": 2.43415762226,
			"0.009": 1.63968225746,
			"0.01": 2.58823491896,
			"0.011": 2.77616660054,
			"0.012": 3.45860757316,
			"0.013": 2.72271394643,
			"0.014": 1.98750764452,
			"0.015": 0.889399306673,
			"0.016": 0.241512064294,
			"0.017": 0.0,
			"0.018": 0.0,
			"0.019": 0.0,
			"0.02": 0.0,
			"0.021": 0.0,
			"0.022": 0.0,
			"0.023": 0.0,
			"0.024": 0.0,
			"0.025": 0.0
		}
	}
}
