{
	 "smiles": "COC1=CC=C(NS(=O)(=O)C2=CC(N)=CC=C2)C=C1", 
	 "Tm": 383.15, 
	 "num_atms": 33, 
	 "gaussian": { 
		 "optdone": 1, 
		 "sigma_profile": "yes", 
		 "theory": "DFT", 
		 "functional": "B3LYP", 
		 "basiset": "6-31G**", 
		 "properties": { 
			 "R2extent": 7400.1549, 
			 "electric_dipole_moment_norm": 8.10290130385, 
			 "electric_quadrupole_moment_norm": 25.9212693123, 
			 "total_energy": -1237.10368001, 
			 "HOMO_LUMO_gap": 0.17919, 
			 "cosmo_polarized_energy": -23.06, 
			 "cosmo_cavitation_energy": 38.63, 
			 "cosmo_dispersion_energy": -27.4, 
			 "cosmo_repulsion_energy": 2.09, 
			 "cosmo_total_nonelectrostatic_energy": 13.32, 
			 "SMD_solvation_energy": 6.38 
		},
		"coords": [
			{
				"x": -1.0419443593,
				"y": -4.8814576131,
				"z": 2.5139863101,
				"element": "C" 
			},
			{
				"x": -1.1913259218,
				"y": -4.8906776296,
				"z": 1.1039997361,
				"element": "O" 
			},
			{
				"x": -0.5423543775,
				"y": -3.9323921958,
				"z": 0.3800280503,
				"element": "C" 
			},
			{
				"x": 0.2638954771,
				"y": -2.9286697447,
				"z": 0.9272583336,
				"element": "C" 
			},
			{
				"x": 0.8671928774,
				"y": -1.9914885195,
				"z": 0.0842566622,
				"element": "C" 
			},
			{
				"x": 0.7059644108,
				"y": -2.0613597692,
				"z": -1.3009930595,
				"element": "C" 
			},
			{
				"x": 1.3837427122,
				"y": -1.1442820129,
				"z": -2.1571414721,
				"element": "N" 
			},
			{
				"x": 0.5527401963,
				"y": -0.0664472036,
				"z": -3.179715095,
				"element": "S" 
			},
			{
				"x": 1.6183612361,
				"y": 0.7351596692,
				"z": -3.7852630714,
				"element": "O" 
			},
			{
				"x": -0.375211399,
				"y": -0.8700020862,
				"z": -3.9742888585,
				"element": "O" 
			},
			{
				"x": -0.4221772496,
				"y": 1.0091764012,
				"z": -2.1204909672,
				"element": "C" 
			},
			{
				"x": 0.1091236368,
				"y": 2.2502897215,
				"z": -1.7750364339,
				"element": "C" 
			},
			{
				"x": -0.6149727449,
				"y": 3.1006465985,
				"z": -0.9222379244,
				"element": "C" 
			},
			{
				"x": -0.1406508127,
				"y": 4.3727110826,
				"z": -0.6213494875,
				"element": "N" 
			},
			{
				"x": -1.8581320462,
				"y": 2.6591426257,
				"z": -0.430769978,
				"element": "C" 
			},
			{
				"x": -2.3671924851,
				"y": 1.4149843748,
				"z": -0.7931261572,
				"element": "C" 
			},
			{
				"x": -1.6596029054,
				"y": 0.5674681647,
				"z": -1.6474456811,
				"element": "C" 
			},
			{
				"x": -0.0885228723,
				"y": -3.0837209207,
				"z": -1.8463641913,
				"element": "C" 
			},
			{
				"x": -0.717578433,
				"y": -3.9957368046,
				"z": -1.0115215021,
				"element": "C" 
			},
			{
				"x": -1.631327327,
				"y": -5.7209829079,
				"z": 2.8858140561,
				"element": "H" 
			},
			{
				"x": 0.0060013112,
				"y": -5.0172257884,
				"z": 2.8120372805,
				"element": "H" 
			},
			{
				"x": -1.421675374,
				"y": -3.9511346157,
				"z": 2.9565656777,
				"element": "H" 
			},
			{
				"x": 0.4200550276,
				"y": -2.8548918393,
				"z": 1.9967486328,
				"element": "H" 
			},
			{
				"x": 1.4746524945,
				"y": -1.2005632125,
				"z": 0.5171411691,
				"element": "H" 
			},
			{
				"x": 2.1673276311,
				"y": -0.6593512035,
				"z": -1.7310869281,
				"element": "H" 
			},
			{
				"x": 1.0612336102,
				"y": 2.5610010699,
				"z": -2.1934370648,
				"element": "H" 
			},
			{
				"x": -0.5025906105,
				"y": 4.7945713948,
				"z": 0.2216253455,
				"element": "H" 
			},
			{
				"x": 0.8521353837,
				"y": 4.5163802222,
				"z": -0.7369903427,
				"element": "H" 
			},
			{
				"x": -2.4304226471,
				"y": 3.3080860403,
				"z": 0.227434235,
				"element": "H" 
			},
			{
				"x": -3.3334879806,
				"y": 1.1032554368,
				"z": -0.4075853297,
				"element": "H" 
			},
			{
				"x": -2.0571364978,
				"y": -0.3925783131,
				"z": -1.9519204286,
				"element": "H" 
			},
			{
				"x": -0.2062010737,
				"y": -3.1455497637,
				"z": -2.9215098198,
				"element": "H" 
			},
			{
				"x": -1.3376188877,
				"y": -4.7877606581,
				"z": -1.4183216963,
				"element": "H" 
			}
		],
		 "valence_orbital": [ 
			{
				"type": "occ",
				"energy": -0.29032,
				"method": "rhf"
			},
			{
				"type": "occ",
				"energy": -0.26348,
				"method": "rhf"
			},
			{
				"type": "occ",
				"energy": -0.25583,
				"method": "rhf"
			},
			{
				"type": "occ",
				"energy": -0.21784,
				"method": "rhf"
			},
			{
				"type": "occ",
				"energy": -0.2113,
				"method": "rhf"
			},
			{
				"type": "unocc",
				"energy": -0.03211,
				"method": "rhf"
			},
			{
				"type": "unocc",
				"energy": -0.00798,
				"method": "rhf"
			},
			{
				"type": "unocc",
				"energy": -0.00382,
				"method": "rhf"
			},
			{
				"type": "unocc",
				"energy": 0.00771,
				"method": "rhf"
			},
			{
				"type": "unocc",
				"energy": 0.06708,
				"method": "rhf"
			}
		],
		"cosmo_sigma_profile": { 
			"-0.025": 0.0,
			"-0.024": 0.0,
			"-0.023": 0.0,
			"-0.022": 0.0,
			"-0.021": 0.0,
			"-0.02": 0.0,
			"-0.019": 0.0,
			"-0.018": 0.0,
			"-0.017": 0.0,
			"-0.016": 0.0541070580438,
			"-0.015": 1.16250765106,
			"-0.014": 0.809068924407,
			"-0.013": 2.87525066628,
			"-0.012": 4.40178344853,
			"-0.011": 4.59976656755,
			"-0.01": 4.31065346543,
			"-0.009": 5.2388428356,
			"-0.008": 4.25484145412,
			"-0.007": 6.88794633126,
			"-0.006": 16.7780963035,
			"-0.005": 23.4547061863,
			"-0.004": 22.6887890741,
			"-0.003": 18.4903051138,
			"-0.002": 15.1737166076,
			"-0.001": 12.8866126643,
			"0.0": 14.664760838,
			"0.001": 15.2326143478,
			"0.002": 16.2359332577,
			"0.003": 24.6976853119,
			"0.004": 29.7987988479,
			"0.005": 14.34632359,
			"0.006": 7.08349556536,
			"0.007": 7.38363898228,
			"0.008": 5.86861396227,
			"0.009": 6.57174172943,
			"0.01": 9.01868012865,
			"0.011": 8.65232933303,
			"0.012": 3.25283830391,
			"0.013": 0.755170080058,
			"0.014": 0.0196798237442,
			"0.015": 0.0,
			"0.016": 0.0,
			"0.017": 0.0,
			"0.018": 0.0,
			"0.019": 0.0,
			"0.02": 0.0,
			"0.021": 0.0,
			"0.022": 0.0,
			"0.023": 0.0,
			"0.024": 0.0,
			"0.025": 0.0
		}
	}
}
