{
	 "smiles": "CCC(C)NC1=CC=C(C=C1)C(N)=O", 
	 "Tm": 387.15, 
	 "num_atms": 30, 
	 "gaussian": { 
		 "optdone": 1, 
		 "sigma_profile": "yes", 
		 "theory": "DFT", 
		 "functional": "B3LYP", 
		 "basiset": "6-31G**", 
		 "properties": { 
			 "R2extent": 4386.3607, 
			 "electric_dipole_moment_norm": 5.23874518754, 
			 "electric_quadrupole_moment_norm": 17.6822052366, 
			 "total_energy": -613.577216295, 
			 "HOMO_LUMO_gap": 0.18206, 
			 "cosmo_polarized_energy": -16.69, 
			 "cosmo_cavitation_energy": 32.67, 
			 "cosmo_dispersion_energy": -23.3, 
			 "cosmo_repulsion_energy": 1.86, 
			 "cosmo_total_nonelectrostatic_energy": 11.23, 
			 "SMD_solvation_energy": 6.07 
		},
		"coords": [
			{
				"x": 1.1253625719,
				"y": -1.1303268081,
				"z": 4.0246729131,
				"element": "C" 
			},
			{
				"x": 0.7407018837,
				"y": 0.3299502531,
				"z": 3.7707239815,
				"element": "C" 
			},
			{
				"x": 0.8141346417,
				"y": 0.7553968884,
				"z": 2.2944418868,
				"element": "C" 
			},
			{
				"x": 0.6053028623,
				"y": 2.2701871485,
				"z": 2.1283181264,
				"element": "C" 
			},
			{
				"x": -0.1485120959,
				"y": -0.0297096198,
				"z": 1.5218389552,
				"element": "N" 
			},
			{
				"x": -0.152758993,
				"y": -0.141818234,
				"z": 0.1432869006,
				"element": "C" 
			},
			{
				"x": -1.2960512036,
				"y": -0.6642710941,
				"z": -0.5022066988,
				"element": "C" 
			},
			{
				"x": -1.3255766317,
				"y": -0.8340563856,
				"z": -1.8779816429,
				"element": "C" 
			},
			{
				"x": -0.2213008955,
				"y": -0.4892834263,
				"z": -2.6751981865,
				"element": "C" 
			},
			{
				"x": 0.918019674,
				"y": 0.0144293777,
				"z": -2.0333695939,
				"element": "C" 
			},
			{
				"x": 0.9593973623,
				"y": 0.197379779,
				"z": -0.6577601138,
				"element": "C" 
			},
			{
				"x": -0.1774315624,
				"y": -0.6409068364,
				"z": -4.1587878348,
				"element": "C" 
			},
			{
				"x": -1.3835680067,
				"y": -0.8746669825,
				"z": -4.7913904281,
				"element": "N" 
			},
			{
				"x": 0.8705680946,
				"y": -0.5877669756,
				"z": -4.7949602491,
				"element": "O" 
			},
			{
				"x": 1.0349440909,
				"y": -1.3811052126,
				"z": 5.0862181245,
				"element": "H" 
			},
			{
				"x": 0.4875533128,
				"y": -1.8130493198,
				"z": 3.456311175,
				"element": "H" 
			},
			{
				"x": 2.1616375463,
				"y": -1.3210074708,
				"z": 3.7242274417,
				"element": "H" 
			},
			{
				"x": 1.3960661541,
				"y": 0.9935070864,
				"z": 4.347219661,
				"element": "H" 
			},
			{
				"x": -0.2779512277,
				"y": 0.5215339632,
				"z": 4.1406537517,
				"element": "H" 
			},
			{
				"x": 1.8138337642,
				"y": 0.4936133843,
				"z": 1.9258316768,
				"element": "H" 
			},
			{
				"x": 1.3852645164,
				"y": 2.8334509275,
				"z": 2.6518949436,
				"element": "H" 
			},
			{
				"x": -0.3647707812,
				"y": 2.5725388018,
				"z": 2.5396313183,
				"element": "H" 
			},
			{
				"x": 0.6280174078,
				"y": 2.5556610732,
				"z": 1.0728547054,
				"element": "H" 
			},
			{
				"x": -1.0617455964,
				"y": -0.1042243693,
				"z": 1.9509386448,
				"element": "H" 
			},
			{
				"x": -2.1571792764,
				"y": -0.9522387911,
				"z": 0.0966465442,
				"element": "H" 
			},
			{
				"x": -2.2124458044,
				"y": -1.2728470746,
				"z": -2.3268774938,
				"element": "H" 
			},
			{
				"x": 1.7767764276,
				"y": 0.2656254081,
				"z": -2.6472803926,
				"element": "H" 
			},
			{
				"x": 1.8580853068,
				"y": 0.5997567679,
				"z": -0.2043037138,
				"element": "H" 
			},
			{
				"x": -1.338682324,
				"y": -0.8298453283,
				"z": -5.799586493,
				"element": "H" 
			},
			{
				"x": -2.2388912185,
				"y": -0.5459069301,
				"z": -4.3704079096,
				"element": "H" 
			}
		],
		 "valence_orbital": [ 
			{
				"type": "occ",
				"energy": -0.293,
				"method": "rhf"
			},
			{
				"type": "occ",
				"energy": -0.26035,
				"method": "rhf"
			},
			{
				"type": "occ",
				"energy": -0.24977,
				"method": "rhf"
			},
			{
				"type": "occ",
				"energy": -0.23587,
				"method": "rhf"
			},
			{
				"type": "occ",
				"energy": -0.19845,
				"method": "rhf"
			},
			{
				"type": "unocc",
				"energy": -0.01639,
				"method": "rhf"
			},
			{
				"type": "unocc",
				"energy": 0.00018,
				"method": "rhf"
			},
			{
				"type": "unocc",
				"energy": 0.07121,
				"method": "rhf"
			},
			{
				"type": "unocc",
				"energy": 0.07478,
				"method": "rhf"
			},
			{
				"type": "unocc",
				"energy": 0.0881,
				"method": "rhf"
			}
		],
		"cosmo_sigma_profile": { 
			"-0.025": 0.0,
			"-0.024": 0.0,
			"-0.023": 0.0,
			"-0.022": 0.0,
			"-0.021": 0.0,
			"-0.02": 0.0,
			"-0.019": 0.0,
			"-0.018": 0.0,
			"-0.017": 0.0,
			"-0.016": 0.0,
			"-0.015": 0.0,
			"-0.014": 0.296054627313,
			"-0.013": 2.05986972394,
			"-0.012": 3.09014584396,
			"-0.011": 4.09151888178,
			"-0.01": 4.33218548497,
			"-0.009": 3.53538210042,
			"-0.008": 3.31525005547,
			"-0.007": 5.52678583896,
			"-0.006": 7.05425045799,
			"-0.005": 8.02951087023,
			"-0.004": 11.8523058557,
			"-0.003": 21.9233730831,
			"-0.002": 26.1268171694,
			"-0.001": 23.6023271076,
			"0.0": 23.7851573484,
			"0.001": 23.7221346964,
			"0.002": 14.7386749568,
			"0.003": 10.4431509288,
			"0.004": 10.7573494213,
			"0.005": 13.7158177629,
			"0.006": 10.5869724752,
			"0.007": 3.4579973003,
			"0.008": 1.80597137862,
			"0.009": 3.10810833622,
			"0.01": 1.49900879957,
			"0.011": 1.53497487684,
			"0.012": 1.66447239444,
			"0.013": 2.3592331185,
			"0.014": 5.92280245236,
			"0.015": 2.07441511321,
			"0.016": 0.0,
			"0.017": 0.0,
			"0.018": 0.0,
			"0.019": 0.0,
			"0.02": 0.0,
			"0.021": 0.0,
			"0.022": 0.0,
			"0.023": 0.0,
			"0.024": 0.0,
			"0.025": 0.0
		}
	}
}
