{
	 "smiles": "BrC1=CC(NC(=O)C2=CC=CC=C2)=CC=C1", 
	 "Tm": 410.15, 
	 "num_atms": 26, 
	 "gaussian": { 
		 "optdone": 1, 
		 "sigma_profile": "yes", 
		 "theory": "DFT", 
		 "functional": "B3LYP", 
		 "basiset": "6-31G**", 
		 "properties": { 
			 "R2extent": 8015.7399, 
			 "electric_dipole_moment_norm": 5.29490024174, 
			 "electric_quadrupole_moment_norm": 9.89743217456, 
			 "total_energy": -3202.81111543, 
			 "HOMO_LUMO_gap": 0.17683, 
			 "cosmo_polarized_energy": -13.63, 
			 "cosmo_cavitation_energy": 33.02, 
			 "cosmo_dispersion_energy": -24.64, 
			 "cosmo_repulsion_energy": 1.9, 
			 "cosmo_total_nonelectrostatic_energy": 10.27, 
			 "SMD_solvation_energy": 4.8 
		},
		"coords": [
			{
				"x": -0.4473981626,
				"y": 0.407223176,
				"z": 5.2239611687,
				"element": "Br" 
			},
			{
				"x": -1.2761419866,
				"y": 0.3693406663,
				"z": 3.49948192,
				"element": "C" 
			},
			{
				"x": -0.5514458129,
				"y": -0.1423444711,
				"z": 2.4262856371,
				"element": "C" 
			},
			{
				"x": -1.1596966879,
				"y": -0.1696553388,
				"z": 1.1608309602,
				"element": "C" 
			},
			{
				"x": -0.5118263769,
				"y": -0.65439348,
				"z": 0.008969893,
				"element": "N" 
			},
			{
				"x": 0.7376959537,
				"y": -1.2325632263,
				"z": -0.1036138169,
				"element": "C" 
			},
			{
				"x": 1.4764779959,
				"y": -1.4415808331,
				"z": 0.8516944804,
				"element": "O" 
			},
			{
				"x": 1.134478696,
				"y": -1.6169506794,
				"z": -1.5021151833,
				"element": "C" 
			},
			{
				"x": 2.0984351531,
				"y": -2.6260421627,
				"z": -1.6354163593,
				"element": "C" 
			},
			{
				"x": 2.5190865817,
				"y": -3.0360647041,
				"z": -2.8979752141,
				"element": "C" 
			},
			{
				"x": 1.9938032257,
				"y": -2.4308051745,
				"z": -4.0427932746,
				"element": "C" 
			},
			{
				"x": 1.0510491181,
				"y": -1.408841606,
				"z": -3.9188667692,
				"element": "C" 
			},
			{
				"x": 0.6223756669,
				"y": -1.0029819273,
				"z": -2.6548229339,
				"element": "C" 
			},
			{
				"x": -2.4704189628,
				"y": 0.3127446592,
				"z": 1.0084163365,
				"element": "C" 
			},
			{
				"x": -3.1656578585,
				"y": 0.8154337859,
				"z": 2.1030723482,
				"element": "C" 
			},
			{
				"x": -2.576255014,
				"y": 0.8515665804,
				"z": 3.367814379,
				"element": "C" 
			},
			{
				"x": 0.452300073,
				"y": -0.5190377848,
				"z": 2.5503551141,
				"element": "H" 
			},
			{
				"x": -1.0770060311,
				"y": -0.6542441195,
				"z": -0.8270767541,
				"element": "H" 
			},
			{
				"x": 2.5038536624,
				"y": -3.0719846856,
				"z": -0.7336599252,
				"element": "H" 
			},
			{
				"x": 3.2589787463,
				"y": -3.8255854738,
				"z": -2.9908227631,
				"element": "H" 
			},
			{
				"x": 2.3248528199,
				"y": -2.7477044173,
				"z": -5.0275048647,
				"element": "H" 
			},
			{
				"x": 0.6566016343,
				"y": -0.9199300638,
				"z": -4.8047110227,
				"element": "H" 
			},
			{
				"x": -0.0799934161,
				"y": -0.1770390449,
				"z": -2.5782295721,
				"element": "H" 
			},
			{
				"x": -2.9422760662,
				"y": 0.2928126801,
				"z": 0.0289597266,
				"element": "H" 
			},
			{
				"x": -4.1783673474,
				"y": 1.1846482376,
				"z": 1.9718812555,
				"element": "H" 
			},
			{
				"x": -3.1106056039,
				"y": 1.2416794075,
				"z": 4.2255852337,
				"element": "H" 
			}
		],
		 "valence_orbital": [ 
			{
				"type": "occ",
				"energy": -0.27085,
				"method": "rhf"
			},
			{
				"type": "occ",
				"energy": -0.26736,
				"method": "rhf"
			},
			{
				"type": "occ",
				"energy": -0.25763,
				"method": "rhf"
			},
			{
				"type": "occ",
				"energy": -0.24537,
				"method": "rhf"
			},
			{
				"type": "occ",
				"energy": -0.22726,
				"method": "rhf"
			},
			{
				"type": "unocc",
				"energy": -0.05043,
				"method": "rhf"
			},
			{
				"type": "unocc",
				"energy": -0.01779,
				"method": "rhf"
			},
			{
				"type": "unocc",
				"energy": -0.01301,
				"method": "rhf"
			},
			{
				"type": "unocc",
				"energy": -0.00253,
				"method": "rhf"
			},
			{
				"type": "unocc",
				"energy": 0.0124,
				"method": "rhf"
			}
		],
		"cosmo_sigma_profile": { 
			"-0.025": 0.0,
			"-0.024": 0.0,
			"-0.023": 0.0,
			"-0.022": 0.0,
			"-0.021": 0.0,
			"-0.02": 0.0,
			"-0.019": 0.0,
			"-0.018": 0.0,
			"-0.017": 0.0,
			"-0.016": 0.104107473776,
			"-0.015": 0.948261224069,
			"-0.014": 1.37940252598,
			"-0.013": 1.33756095159,
			"-0.012": 1.20272250273,
			"-0.011": 1.82257200593,
			"-0.01": 1.55458606645,
			"-0.009": 1.53748143713,
			"-0.008": 2.75747571641,
			"-0.007": 6.78114843822,
			"-0.006": 14.3684907522,
			"-0.005": 16.7524577539,
			"-0.004": 16.8274573729,
			"-0.003": 13.5551436894,
			"-0.002": 15.9690989496,
			"-0.001": 15.5407833995,
			"0.0": 17.8285436509,
			"0.001": 20.6486997502,
			"0.002": 27.2027541666,
			"0.003": 31.0312827807,
			"0.004": 32.1585538781,
			"0.005": 12.6452223146,
			"0.006": 2.08206640465,
			"0.007": 2.05421375222,
			"0.008": 1.01505960782,
			"0.009": 1.59760392768,
			"0.01": 1.83420551677,
			"0.011": 2.2906687765,
			"0.012": 2.40137600503,
			"0.013": 1.85564373769,
			"0.014": 0.089951510841,
			"0.015": 0.0,
			"0.016": 0.0,
			"0.017": 0.0,
			"0.018": 0.0,
			"0.019": 0.0,
			"0.02": 0.0,
			"0.021": 0.0,
			"0.022": 0.0,
			"0.023": 0.0,
			"0.024": 0.0,
			"0.025": 0.0
		}
	}
}
