{
	 "smiles": "FC1=CC=C(CNC2=NN=C(S)S2)C=C1", 
	 "Tm": 442.15, 
	 "num_atms": 23, 
	 "gaussian": { 
		 "optdone": 1, 
		 "sigma_profile": "yes", 
		 "theory": "DFT", 
		 "functional": "B3LYP", 
		 "basiset": "6-31G**", 
		 "properties": { 
			 "R2extent": 8197.2627, 
			 "electric_dipole_moment_norm": 3.48286664402, 
			 "electric_quadrupole_moment_norm": 25.5211331345, 
			 "total_energy": -1408.20097017, 
			 "HOMO_LUMO_gap": 0.1915, 
			 "cosmo_polarized_energy": -15.96, 
			 "cosmo_cavitation_energy": 32.35, 
			 "cosmo_dispersion_energy": -24.37, 
			 "cosmo_repulsion_energy": 1.8, 
			 "cosmo_total_nonelectrostatic_energy": 9.78, 
			 "SMD_solvation_energy": 2.83 
		},
		"coords": [
			{
				"x": -5.2420700296,
				"y": -1.2188804906,
				"z": 0.3991765644,
				"element": "F" 
			},
			{
				"x": -3.9673389822,
				"y": -0.8383269257,
				"z": 0.1791638577,
				"element": "C" 
			},
			{
				"x": -2.9330617985,
				"y": -1.636745426,
				"z": 0.6503874857,
				"element": "C" 
			},
			{
				"x": -1.6176103719,
				"y": -1.2297659076,
				"z": 0.4199401144,
				"element": "C" 
			},
			{
				"x": -1.3374964025,
				"y": -0.0485673639,
				"z": -0.2763585351,
				"element": "C" 
			},
			{
				"x": 0.0906641842,
				"y": 0.3740681633,
				"z": -0.536874081,
				"element": "C" 
			},
			{
				"x": 0.3444678464,
				"y": 1.7087146909,
				"z": 0.0199994465,
				"element": "N" 
			},
			{
				"x": 1.5134322072,
				"y": 2.3484877208,
				"z": -0.2683606346,
				"element": "C" 
			},
			{
				"x": 2.3776924016,
				"y": 1.913842601,
				"z": -1.1548497001,
				"element": "N" 
			},
			{
				"x": 3.4170262122,
				"y": 2.7797857727,
				"z": -1.3517517166,
				"element": "N" 
			},
			{
				"x": 3.3680213465,
				"y": 3.8422264944,
				"z": -0.6124414442,
				"element": "C" 
			},
			{
				"x": 4.6729060491,
				"y": 5.0364625952,
				"z": -0.5647989888,
				"element": "S" 
			},
			{
				"x": 1.9511308568,
				"y": 3.896351415,
				"z": 0.4622925307,
				"element": "S" 
			},
			{
				"x": -2.4083079835,
				"y": 0.7322774363,
				"z": -0.7378330072,
				"element": "C" 
			},
			{
				"x": -3.7274095645,
				"y": 0.3455169575,
				"z": -0.5126444415,
				"element": "C" 
			},
			{
				"x": -3.1617532061,
				"y": -2.5509003945,
				"z": 1.1872009061,
				"element": "H" 
			},
			{
				"x": -0.7992672254,
				"y": -1.844174545,
				"z": 0.7858026255,
				"element": "H" 
			},
			{
				"x": 0.7905319373,
				"y": -0.3654304301,
				"z": -0.124523109,
				"element": "H" 
			},
			{
				"x": 0.3005476675,
				"y": 0.4332822454,
				"z": -1.6093795195,
				"element": "H" 
			},
			{
				"x": -0.0707278054,
				"y": 1.8938391577,
				"z": 0.9222183868,
				"element": "H" 
			},
			{
				"x": 3.8993224487,
				"y": 6.1249354385,
				"z": -0.7637857308,
				"element": "H" 
			},
			{
				"x": -2.2037309845,
				"y": 1.6529661848,
				"z": -1.2767884434,
				"element": "H" 
			},
			{
				"x": -4.5643688032,
				"y": 0.9383346097,
				"z": -0.8654925659,
				"element": "H" 
			}
		],
		 "valence_orbital": [ 
			{
				"type": "occ",
				"energy": -0.27383,
				"method": "rhf"
			},
			{
				"type": "occ",
				"energy": -0.27158,
				"method": "rhf"
			},
			{
				"type": "occ",
				"energy": -0.26176,
				"method": "rhf"
			},
			{
				"type": "occ",
				"energy": -0.25243,
				"method": "rhf"
			},
			{
				"type": "occ",
				"energy": -0.22721,
				"method": "rhf"
			},
			{
				"type": "unocc",
				"energy": -0.03571,
				"method": "rhf"
			},
			{
				"type": "unocc",
				"energy": -0.02324,
				"method": "rhf"
			},
			{
				"type": "unocc",
				"energy": -0.01505,
				"method": "rhf"
			},
			{
				"type": "unocc",
				"energy": -0.01418,
				"method": "rhf"
			},
			{
				"type": "unocc",
				"energy": 0.01977,
				"method": "rhf"
			}
		],
		"cosmo_sigma_profile": { 
			"-0.025": 0.0,
			"-0.024": 0.0,
			"-0.023": 0.0,
			"-0.022": 0.0,
			"-0.021": 0.0,
			"-0.02": 0.0,
			"-0.019": 0.0,
			"-0.018": 0.0,
			"-0.017": 0.0,
			"-0.016": 0.0802161848717,
			"-0.015": 1.20347076993,
			"-0.014": 1.24880256998,
			"-0.013": 1.23254747793,
			"-0.012": 1.75003905772,
			"-0.011": 4.38952346729,
			"-0.01": 3.55418845021,
			"-0.009": 2.92030020358,
			"-0.008": 2.74691423261,
			"-0.007": 7.12988567031,
			"-0.006": 12.5799432246,
			"-0.005": 13.8675134266,
			"-0.004": 15.7703761047,
			"-0.003": 13.6049313965,
			"-0.002": 14.9263098558,
			"-0.001": 17.4973038231,
			"0.0": 23.3305901152,
			"0.001": 22.2067235418,
			"0.002": 21.6807279503,
			"0.003": 21.7038167807,
			"0.004": 21.9515193106,
			"0.005": 9.40679164369,
			"0.006": 4.43786062965,
			"0.007": 4.79944054522,
			"0.008": 3.04037570081,
			"0.009": 3.03114554533,
			"0.01": 2.43373141351,
			"0.011": 3.18665342098,
			"0.012": 3.53830223141,
			"0.013": 2.63212071984,
			"0.014": 1.94876690394,
			"0.015": 0.494372701274,
			"0.016": 0.0,
			"0.017": 0.0,
			"0.018": 0.0,
			"0.019": 0.0,
			"0.02": 0.0,
			"0.021": 0.0,
			"0.022": 0.0,
			"0.023": 0.0,
			"0.024": 0.0,
			"0.025": 0.0
		}
	}
}
