{
	 "smiles": "OC(=O)C1=NN=C(Br)C=C1", 
	 "Tm": 414.15, 
	 "num_atms": 13, 
	 "gaussian": { 
		 "optdone": 1, 
		 "sigma_profile": "yes", 
		 "theory": "DFT", 
		 "functional": "B3LYP", 
		 "basiset": "6-31G**", 
		 "properties": { 
			 "R2extent": 4235.5494, 
			 "electric_dipole_moment_norm": 2.63713647163, 
			 "electric_quadrupole_moment_norm": 15.8221174487, 
			 "total_energy": -3023.65515869, 
			 "HOMO_LUMO_gap": 0.17608, 
			 "cosmo_polarized_energy": -14.72, 
			 "cosmo_cavitation_energy": 21.25, 
			 "cosmo_dispersion_energy": -16.33, 
			 "cosmo_repulsion_energy": 1.33, 
			 "cosmo_total_nonelectrostatic_energy": 6.26, 
			 "SMD_solvation_energy": 2.3 
		},
		"coords": [
			{
				"x": 1.654500609,
				"y": -0.1594502473,
				"z": 0.7430565848,
				"element": "O" 
			},
			{
				"x": 0.4091182585,
				"y": -0.4544653501,
				"z": 1.1409535506,
				"element": "C" 
			},
			{
				"x": 0.1518091039,
				"y": -1.077656054,
				"z": 2.1520434546,
				"element": "O" 
			},
			{
				"x": -0.6579895095,
				"y": 0.057561077,
				"z": 0.2187136707,
				"element": "C" 
			},
			{
				"x": -0.2844347285,
				"y": 0.733722643,
				"z": -0.871282144,
				"element": "N" 
			},
			{
				"x": -1.2138464942,
				"y": 1.1986672708,
				"z": -1.7063178006,
				"element": "N" 
			},
			{
				"x": -2.4938608217,
				"y": 0.9778545058,
				"z": -1.4337583801,
				"element": "C" 
			},
			{
				"x": -3.7467030994,
				"y": 1.6790648421,
				"z": -2.6833982304,
				"element": "Br" 
			},
			{
				"x": -2.9629966746,
				"y": 0.2795872313,
				"z": -0.313780344,
				"element": "C" 
			},
			{
				"x": -1.9978970694,
				"y": -0.200101603,
				"z": 0.5481029269,
				"element": "C" 
			},
			{
				"x": 2.2480143459,
				"y": -0.5391816379,
				"z": 1.4129200143,
				"element": "H" 
			},
			{
				"x": -4.0236175932,
				"y": 0.1333038536,
				"z": -0.1483497101,
				"element": "H" 
			},
			{
				"x": -2.2332963268,
				"y": -0.7556065313,
				"z": 1.4488964074,
				"element": "H" 
			}
		],
		 "valence_orbital": [ 
			{
				"type": "occ",
				"energy": -0.32684,
				"method": "rhf"
			},
			{
				"type": "occ",
				"energy": -0.30731,
				"method": "rhf"
			},
			{
				"type": "occ",
				"energy": -0.29475,
				"method": "rhf"
			},
			{
				"type": "occ",
				"energy": -0.28394,
				"method": "rhf"
			},
			{
				"type": "occ",
				"energy": -0.25971,
				"method": "rhf"
			},
			{
				"type": "unocc",
				"energy": -0.08363,
				"method": "rhf"
			},
			{
				"type": "unocc",
				"energy": -0.07296,
				"method": "rhf"
			},
			{
				"type": "unocc",
				"energy": -0.01023,
				"method": "rhf"
			},
			{
				"type": "unocc",
				"energy": 0.02254,
				"method": "rhf"
			},
			{
				"type": "unocc",
				"energy": 0.06747,
				"method": "rhf"
			}
		],
		"cosmo_sigma_profile": { 
			"-0.025": 0.0,
			"-0.024": 0.0,
			"-0.023": 0.0,
			"-0.022": 0.0,
			"-0.021": 0.0,
			"-0.02": 0.0132414320687,
			"-0.019": 0.801828237903,
			"-0.018": 1.13347056403,
			"-0.017": 0.755296917716,
			"-0.016": 0.708249184295,
			"-0.015": 0.988615230309,
			"-0.014": 0.749249146799,
			"-0.013": 0.672558545951,
			"-0.012": 0.501324040016,
			"-0.011": 0.662624442571,
			"-0.01": 2.8729754558,
			"-0.009": 5.22003883676,
			"-0.008": 4.75280459116,
			"-0.007": 3.89688671388,
			"-0.006": 5.98715765984,
			"-0.005": 10.8260169523,
			"-0.004": 13.4333108632,
			"-0.003": 16.2303228589,
			"-0.002": 11.4063400025,
			"-0.001": 7.13366234734,
			"0.0": 8.46103788435,
			"0.001": 7.20868321219,
			"0.002": 9.80429267418,
			"0.003": 13.4936065404,
			"0.004": 5.67977600324,
			"0.005": 4.90984149125,
			"0.006": 3.79340337786,
			"0.007": 4.18730890467,
			"0.008": 3.63622926563,
			"0.009": 5.47540897385,
			"0.01": 6.16300513502,
			"0.011": 6.44194043102,
			"0.012": 2.67160104764,
			"0.013": 2.64027334936,
			"0.014": 1.30573310481,
			"0.015": 0.463599779285,
			"0.016": 0.0,
			"0.017": 0.0,
			"0.018": 0.0,
			"0.019": 0.0,
			"0.02": 0.0,
			"0.021": 0.0,
			"0.022": 0.0,
			"0.023": 0.0,
			"0.024": 0.0,
			"0.025": 0.0
		}
	}
}
