{
	 "smiles": "OC(=O)CC1SC(NC1=O)=NC1=CC=CC=C1", 
	 "Tm": 476.15, 
	 "num_atms": 27, 
	 "gaussian": { 
		 "optdone": 1, 
		 "sigma_profile": "yes", 
		 "theory": "DFT", 
		 "functional": "B3LYP", 
		 "basiset": "6-31G**", 
		 "properties": { 
			 "R2extent": 5967.2248, 
			 "electric_dipole_moment_norm": 1.78295559115, 
			 "electric_quadrupole_moment_norm": 8.34023325513, 
			 "total_energy": -1158.58769315, 
			 "HOMO_LUMO_gap": 0.18663, 
			 "cosmo_polarized_energy": -17.88, 
			 "cosmo_cavitation_energy": 34.0, 
			 "cosmo_dispersion_energy": -24.74, 
			 "cosmo_repulsion_energy": 1.92, 
			 "cosmo_total_nonelectrostatic_energy": 11.18, 
			 "SMD_solvation_energy": 5.87 
		},
		"coords": [
			{
				"x": 0.9141769316,
				"y": -2.9175330272,
				"z": 2.6236304449,
				"element": "O" 
			},
			{
				"x": 2.0298522798,
				"y": -3.2126232969,
				"z": 1.9119185743,
				"element": "C" 
			},
			{
				"x": 3.1045033401,
				"y": -3.4121040735,
				"z": 2.4273010495,
				"element": "O" 
			},
			{
				"x": 1.765882227,
				"y": -3.2949657007,
				"z": 0.4215373234,
				"element": "C" 
			},
			{
				"x": 0.5054975857,
				"y": -2.5830767235,
				"z": -0.0800195625,
				"element": "C" 
			},
			{
				"x": 0.554586175,
				"y": -0.7463753314,
				"z": 0.0952153273,
				"element": "S" 
			},
			{
				"x": 0.195127658,
				"y": -0.4972408047,
				"z": -1.6543669688,
				"element": "C" 
			},
			{
				"x": 0.1142714693,
				"y": -1.7351395604,
				"z": -2.2880341062,
				"element": "N" 
			},
			{
				"x": 0.2765485387,
				"y": -2.8915732537,
				"z": -1.5641227384,
				"element": "C" 
			},
			{
				"x": 0.2484437176,
				"y": -4.0153785126,
				"z": -2.0257213597,
				"element": "O" 
			},
			{
				"x": -0.0017474597,
				"y": 0.5773788236,
				"z": -2.2971172711,
				"element": "N" 
			},
			{
				"x": 0.1108133587,
				"y": 1.853087038,
				"z": -1.7114816061,
				"element": "C" 
			},
			{
				"x": 1.2710281952,
				"y": 2.2767707556,
				"z": -1.0423567724,
				"element": "C" 
			},
			{
				"x": 1.3484238618,
				"y": 3.5713177389,
				"z": -0.5270927054,
				"element": "C" 
			},
			{
				"x": 0.278802516,
				"y": 4.4558176074,
				"z": -0.6705782892,
				"element": "C" 
			},
			{
				"x": -0.8707497368,
				"y": 4.0409038971,
				"z": -1.3489569139,
				"element": "C" 
			},
			{
				"x": -0.9524762627,
				"y": 2.7549547633,
				"z": -1.8770688865,
				"element": "C" 
			},
			{
				"x": 1.1810245076,
				"y": -2.9028612976,
				"z": 3.558454915,
				"element": "H" 
			},
			{
				"x": 1.6675397171,
				"y": -4.3569998075,
				"z": 0.1616766756,
				"element": "H" 
			},
			{
				"x": 2.6615546848,
				"y": -2.9271684009,
				"z": -0.0856366584,
				"element": "H" 
			},
			{
				"x": -0.3630741579,
				"y": -2.9516072983,
				"z": 0.4723257049,
				"element": "H" 
			},
			{
				"x": -0.0694373755,
				"y": -1.7666103651,
				"z": -3.2833045547,
				"element": "H" 
			},
			{
				"x": 2.1150042917,
				"y": 1.6005184144,
				"z": -0.9506708048,
				"element": "H" 
			},
			{
				"x": 2.2528839182,
				"y": 3.8882709379,
				"z": -0.0155223556,
				"element": "H" 
			},
			{
				"x": 0.3431476613,
				"y": 5.4621166575,
				"z": -0.2677821627,
				"element": "H" 
			},
			{
				"x": -1.7052876379,
				"y": 4.7250412573,
				"z": -1.4741840144,
				"element": "H" 
			},
			{
				"x": -1.8348400048,
				"y": 2.426579563,
				"z": -2.4170422838,
				"element": "H" 
			}
		],
		 "valence_orbital": [ 
			{
				"type": "occ",
				"energy": -0.28508,
				"method": "rhf"
			},
			{
				"type": "occ",
				"energy": -0.2776,
				"method": "rhf"
			},
			{
				"type": "occ",
				"energy": -0.26152,
				"method": "rhf"
			},
			{
				"type": "occ",
				"energy": -0.25184,
				"method": "rhf"
			},
			{
				"type": "occ",
				"energy": -0.22384,
				"method": "rhf"
			},
			{
				"type": "unocc",
				"energy": -0.03721,
				"method": "rhf"
			},
			{
				"type": "unocc",
				"energy": -0.01723,
				"method": "rhf"
			},
			{
				"type": "unocc",
				"energy": -0.00565,
				"method": "rhf"
			},
			{
				"type": "unocc",
				"energy": 0.00634,
				"method": "rhf"
			},
			{
				"type": "unocc",
				"energy": 0.0112,
				"method": "rhf"
			}
		],
		"cosmo_sigma_profile": { 
			"-0.025": 0.0,
			"-0.024": 0.0,
			"-0.023": 0.0,
			"-0.022": 0.0,
			"-0.021": 0.0,
			"-0.02": 0.0,
			"-0.019": 0.378215649185,
			"-0.018": 1.05746424583,
			"-0.017": 1.59494035016,
			"-0.016": 1.14041781381,
			"-0.015": 1.85568834264,
			"-0.014": 1.36962741855,
			"-0.013": 1.59542581381,
			"-0.012": 1.48102561658,
			"-0.011": 2.12793882147,
			"-0.01": 1.35253562768,
			"-0.009": 3.40469779817,
			"-0.008": 7.32631747483,
			"-0.007": 8.4523296643,
			"-0.006": 11.6692842061,
			"-0.005": 16.66381948,
			"-0.004": 19.1282978678,
			"-0.003": 18.2955213338,
			"-0.002": 17.0183158124,
			"-0.001": 14.1022500309,
			"0.0": 12.598459728,
			"0.001": 15.0250248345,
			"0.002": 18.2210924534,
			"0.003": 17.3676767614,
			"0.004": 17.9247936651,
			"0.005": 17.2092308275,
			"0.006": 9.56827246053,
			"0.007": 3.08915964134,
			"0.008": 4.04345729288,
			"0.009": 5.19637618183,
			"0.01": 4.97625112991,
			"0.011": 10.412245433,
			"0.012": 6.71529014779,
			"0.013": 0.633427698561,
			"0.014": 0.0,
			"0.015": 0.0,
			"0.016": 0.0,
			"0.017": 0.0,
			"0.018": 0.0,
			"0.019": 0.0,
			"0.02": 0.0,
			"0.021": 0.0,
			"0.022": 0.0,
			"0.023": 0.0,
			"0.024": 0.0,
			"0.025": 0.0
		}
	}
}
