{
	 "smiles": "CN(CCO)C(=O)COC(=O)C1=CC=CC=C1", 
	 "Tm": 352.15, 
	 "num_atms": 32, 
	 "gaussian": { 
		 "optdone": 1, 
		 "sigma_profile": "yes", 
		 "theory": "DFT", 
		 "functional": "B3LYP", 
		 "basiset": "6-31G**", 
		 "properties": { 
			 "R2extent": 5966.5994, 
			 "electric_dipole_moment_norm": 5.87063569045, 
			 "electric_quadrupole_moment_norm": 21.0594012078, 
			 "total_energy": -821.976006794, 
			 "HOMO_LUMO_gap": 0.18344, 
			 "cosmo_polarized_energy": -15.44, 
			 "cosmo_cavitation_energy": 35.36, 
			 "cosmo_dispersion_energy": -25.13, 
			 "cosmo_repulsion_energy": 1.96, 
			 "cosmo_total_nonelectrostatic_energy": 12.19, 
			 "SMD_solvation_energy": 7.04 
		},
		"coords": [
			{
				"x": -1.3589667849,
				"y": -0.5463029985,
				"z": 1.0783993436,
				"element": "C" 
			},
			{
				"x": -0.9288424622,
				"y": -1.9231312929,
				"z": 0.8534807027,
				"element": "N" 
			},
			{
				"x": -1.9868570886,
				"y": -2.9071622896,
				"z": 0.5560961537,
				"element": "C" 
			},
			{
				"x": -2.3812953162,
				"y": -3.8145908211,
				"z": 1.7320920946,
				"element": "C" 
			},
			{
				"x": -1.5326073798,
				"y": -4.9237496439,
				"z": 1.9004887719,
				"element": "O" 
			},
			{
				"x": 0.3597203656,
				"y": -2.3481487129,
				"z": 0.9001583764,
				"element": "C" 
			},
			{
				"x": 0.6651933141,
				"y": -3.5468091605,
				"z": 0.8864280642,
				"element": "O" 
			},
			{
				"x": 1.4856209854,
				"y": -1.317665652,
				"z": 0.9750725179,
				"element": "C" 
			},
			{
				"x": 1.4097342994,
				"y": -0.3859071065,
				"z": -0.1190166402,
				"element": "O" 
			},
			{
				"x": 1.5248511243,
				"y": 0.9377172337,
				"z": 0.1722561904,
				"element": "C" 
			},
			{
				"x": 1.6001678558,
				"y": 1.3666561508,
				"z": 1.3082793123,
				"element": "O" 
			},
			{
				"x": 1.5262037355,
				"y": 1.7841070187,
				"z": -1.0503170643,
				"element": "C" 
			},
			{
				"x": 1.451649297,
				"y": 1.2388304234,
				"z": -2.3405058994,
				"element": "C" 
			},
			{
				"x": 1.4578023478,
				"y": 2.0823026306,
				"z": -3.4498947041,
				"element": "C" 
			},
			{
				"x": 1.5392143831,
				"y": 3.4665532821,
				"z": -3.2780498843,
				"element": "C" 
			},
			{
				"x": 1.6152945751,
				"y": 4.0115655802,
				"z": -1.9931726058,
				"element": "C" 
			},
			{
				"x": 1.6091785239,
				"y": 3.1738372758,
				"z": -0.8812063359,
				"element": "C" 
			},
			{
				"x": -1.6594288036,
				"y": -0.0611375077,
				"z": 0.1414040602,
				"element": "H" 
			},
			{
				"x": -2.2173726522,
				"y": -0.5458806884,
				"z": 1.7577499951,
				"element": "H" 
			},
			{
				"x": -0.5733290659,
				"y": 0.0473834482,
				"z": 1.5428518698,
				"element": "H" 
			},
			{
				"x": -1.6539109479,
				"y": -3.5393712762,
				"z": -0.2734892919,
				"element": "H" 
			},
			{
				"x": -2.8560820463,
				"y": -2.3344686454,
				"z": 0.2184007292,
				"element": "H" 
			},
			{
				"x": -2.4468605437,
				"y": -3.1954520172,
				"z": 2.6459420244,
				"element": "H" 
			},
			{
				"x": -3.3906992149,
				"y": -4.202390096,
				"z": 1.5398150466,
				"element": "H" 
			},
			{
				"x": -0.6360267196,
				"y": -4.6389280752,
				"z": 1.642891968,
				"element": "H" 
			},
			{
				"x": 1.4856729351,
				"y": -0.7714746587,
				"z": 1.9224097039,
				"element": "H" 
			},
			{
				"x": 2.4167230629,
				"y": -1.8775960168,
				"z": 0.8785829743,
				"element": "H" 
			},
			{
				"x": 1.3918406345,
				"y": 0.1639114882,
				"z": -2.4649663015,
				"element": "H" 
			},
			{
				"x": 1.4008868422,
				"y": 1.6604054038,
				"z": -4.4488245777,
				"element": "H" 
			},
			{
				"x": 1.5446990399,
				"y": 4.1204942778,
				"z": -4.1454310814,
				"element": "H" 
			},
			{
				"x": 1.6800129052,
				"y": 5.0873408612,
				"z": -1.8606465847,
				"element": "H" 
			},
			{
				"x": 1.6689127989,
				"y": 3.5726615851,
				"z": 0.125721072,
				"element": "H" 
			}
		],
		 "valence_orbital": [ 
			{
				"type": "occ",
				"energy": -0.27232,
				"method": "rhf"
			},
			{
				"type": "occ",
				"energy": -0.26911,
				"method": "rhf"
			},
			{
				"type": "occ",
				"energy": -0.26876,
				"method": "rhf"
			},
			{
				"type": "occ",
				"energy": -0.25204,
				"method": "rhf"
			},
			{
				"type": "occ",
				"energy": -0.24302,
				"method": "rhf"
			},
			{
				"type": "unocc",
				"energy": -0.05958,
				"method": "rhf"
			},
			{
				"type": "unocc",
				"energy": -0.01821,
				"method": "rhf"
			},
			{
				"type": "unocc",
				"energy": -0.00235,
				"method": "rhf"
			},
			{
				"type": "unocc",
				"energy": 0.04478,
				"method": "rhf"
			},
			{
				"type": "unocc",
				"energy": 0.08122,
				"method": "rhf"
			}
		],
		"cosmo_sigma_profile": { 
			"-0.025": 0.0,
			"-0.024": 0.0,
			"-0.023": 0.0,
			"-0.022": 0.0,
			"-0.021": 0.0,
			"-0.02": 0.0,
			"-0.019": 0.0,
			"-0.018": 0.0,
			"-0.017": 0.0,
			"-0.016": 0.0,
			"-0.015": 0.0,
			"-0.014": 0.0,
			"-0.013": 0.0,
			"-0.012": 0.0,
			"-0.011": 0.0,
			"-0.01": 0.0,
			"-0.009": 0.346576525237,
			"-0.008": 1.87099552509,
			"-0.007": 6.13679997456,
			"-0.006": 20.4077036099,
			"-0.005": 26.302374712,
			"-0.004": 28.880004523,
			"-0.003": 28.0939575785,
			"-0.002": 21.6079884873,
			"-0.001": 19.2091792329,
			"0.0": 17.8036567745,
			"0.001": 17.3317467437,
			"0.002": 17.5142661086,
			"0.003": 17.1632316192,
			"0.004": 15.0229402407,
			"0.005": 5.14986411459,
			"0.006": 3.46382481933,
			"0.007": 3.25946710784,
			"0.008": 3.4217836479,
			"0.009": 4.98167269807,
			"0.01": 3.69188592373,
			"0.011": 6.19619071962,
			"0.012": 4.18168866738,
			"0.013": 2.9678365536,
			"0.014": 2.14646567397,
			"0.015": 2.40374431692,
			"0.016": 0.653893481867,
			"0.017": 0.0,
			"0.018": 0.0,
			"0.019": 0.0,
			"0.02": 0.0,
			"0.021": 0.0,
			"0.022": 0.0,
			"0.023": 0.0,
			"0.024": 0.0,
			"0.025": 0.0
		}
	}
}
