{
	 "smiles": "CCC1=C(C=NN1C1=CC=C(Br)C=C1)C(O)=O", 
	 "Tm": 483.15, 
	 "num_atms": 28, 
	 "gaussian": { 
		 "optdone": 1, 
		 "sigma_profile": "yes", 
		 "theory": "DFT", 
		 "functional": "B3LYP", 
		 "basiset": "6-31G**", 
		 "properties": { 
			 "R2extent": 8004.0533, 
			 "electric_dipole_moment_norm": 2.63945622241, 
			 "electric_quadrupole_moment_norm": 25.7879272511, 
			 "total_energy": -3295.25832123, 
			 "HOMO_LUMO_gap": 0.20556, 
			 "cosmo_polarized_energy": -16.84, 
			 "cosmo_cavitation_energy": 34.87, 
			 "cosmo_dispersion_energy": -24.95, 
			 "cosmo_repulsion_energy": 1.94, 
			 "cosmo_total_nonelectrostatic_energy": 11.86, 
			 "SMD_solvation_energy": 5.09 
		},
		"coords": [
			{
				"x": 0.5228338328,
				"y": -2.9395353381,
				"z": -0.6643651643,
				"element": "C" 
			},
			{
				"x": 1.6512012959,
				"y": -1.8909173917,
				"z": -0.6096750173,
				"element": "C" 
			},
			{
				"x": 1.7097779873,
				"y": -1.1909598111,
				"z": 0.7162042702,
				"element": "C" 
			},
			{
				"x": 2.2662523323,
				"y": -1.6220749763,
				"z": 1.9245444238,
				"element": "C" 
			},
			{
				"x": 1.9152753308,
				"y": -0.6191128273,
				"z": 2.8658811807,
				"element": "C" 
			},
			{
				"x": 1.2114322805,
				"y": 0.3554021169,
				"z": 2.3165209939,
				"element": "N" 
			},
			{
				"x": 1.1041736876,
				"y": 0.0006381877,
				"z": 0.9986247858,
				"element": "N" 
			},
			{
				"x": 0.3849161433,
				"y": 0.87474405,
				"z": 0.1284098681,
				"element": "C" 
			},
			{
				"x": 0.9792947411,
				"y": 1.3742188005,
				"z": -1.0330698903,
				"element": "C" 
			},
			{
				"x": 0.2637305154,
				"y": 2.2335315944,
				"z": -1.8664315568,
				"element": "C" 
			},
			{
				"x": -1.0337789264,
				"y": 2.6021784405,
				"z": -1.5149913825,
				"element": "C" 
			},
			{
				"x": -2.0130459881,
				"y": 3.782912846,
				"z": -2.6495646964,
				"element": "Br" 
			},
			{
				"x": -1.6248212823,
				"y": 2.1292146207,
				"z": -0.3430334765,
				"element": "C" 
			},
			{
				"x": -0.9116926736,
				"y": 1.2598143734,
				"z": 0.4789474083,
				"element": "C" 
			},
			{
				"x": 3.0232516185,
				"y": -2.8704670978,
				"z": 2.1137535894,
				"element": "C" 
			},
			{
				"x": 3.6774243037,
				"y": -3.006239196,
				"z": 3.3011459377,
				"element": "O" 
			},
			{
				"x": 3.0913552773,
				"y": -3.7614133502,
				"z": 1.2931421144,
				"element": "O" 
			},
			{
				"x": 0.5084728951,
				"y": -3.4215509898,
				"z": -1.6465837598,
				"element": "H" 
			},
			{
				"x": -0.4567330938,
				"y": -2.481027633,
				"z": -0.4958845528,
				"element": "H" 
			},
			{
				"x": 0.6895686822,
				"y": -3.7092610121,
				"z": 0.0919458874,
				"element": "H" 
			},
			{
				"x": 1.5196262297,
				"y": -1.1652815007,
				"z": -1.4155178501,
				"element": "H" 
			},
			{
				"x": 2.6074308396,
				"y": -2.3969831049,
				"z": -0.762263657,
				"element": "H" 
			},
			{
				"x": 2.127832777,
				"y": -0.5720066264,
				"z": 3.9277624094,
				"element": "H" 
			},
			{
				"x": 2.0037944233,
				"y": 1.1132441433,
				"z": -1.2752858827,
				"element": "H" 
			},
			{
				"x": 0.7173908243,
				"y": 2.6243939245,
				"z": -2.7696554002,
				"element": "H" 
			},
			{
				"x": -2.6311187131,
				"y": 2.4324057784,
				"z": -0.0786057186,
				"element": "H" 
			},
			{
				"x": -1.348080034,
				"y": 0.8829958234,
				"z": 1.3969676754,
				"element": "H" 
			},
			{
				"x": 3.6284346935,
				"y": -2.1866638443,
				"z": 3.8117774607,
				"element": "H" 
			}
		],
		 "valence_orbital": [ 
			{
				"type": "occ",
				"energy": -0.28598,
				"method": "rhf"
			},
			{
				"type": "occ",
				"energy": -0.28284,
				"method": "rhf"
			},
			{
				"type": "occ",
				"energy": -0.27152,
				"method": "rhf"
			},
			{
				"type": "occ",
				"energy": -0.25809,
				"method": "rhf"
			},
			{
				"type": "occ",
				"energy": -0.25005,
				"method": "rhf"
			},
			{
				"type": "unocc",
				"energy": -0.04449,
				"method": "rhf"
			},
			{
				"type": "unocc",
				"energy": -0.03384,
				"method": "rhf"
			},
			{
				"type": "unocc",
				"energy": -0.02076,
				"method": "rhf"
			},
			{
				"type": "unocc",
				"energy": -0.00548,
				"method": "rhf"
			},
			{
				"type": "unocc",
				"energy": 0.0053,
				"method": "rhf"
			}
		],
		"cosmo_sigma_profile": { 
			"-0.025": 0.0,
			"-0.024": 0.0,
			"-0.023": 0.0,
			"-0.022": 0.0,
			"-0.021": 0.0,
			"-0.02": 0.0,
			"-0.019": 0.276485864566,
			"-0.018": 0.91849584945,
			"-0.017": 1.13560235751,
			"-0.016": 1.19005653681,
			"-0.015": 1.10791573415,
			"-0.014": 0.811891199233,
			"-0.013": 0.789839608938,
			"-0.012": 1.45718141964,
			"-0.011": 1.45021477931,
			"-0.01": 1.38929043435,
			"-0.009": 1.52403826045,
			"-0.008": 5.8991541386,
			"-0.007": 10.5689922116,
			"-0.006": 10.3535211824,
			"-0.005": 9.15947161508,
			"-0.004": 13.4034232491,
			"-0.003": 22.488909071,
			"-0.002": 23.6794384086,
			"-0.001": 22.7383449438,
			"0.0": 23.929785856,
			"0.001": 28.1767736758,
			"0.002": 26.4479975348,
			"0.003": 13.7153912198,
			"0.004": 16.1362348765,
			"0.005": 6.95476693841,
			"0.006": 4.62024849484,
			"0.007": 3.82127399095,
			"0.008": 4.07992241766,
			"0.009": 3.79157778917,
			"0.01": 5.12151430114,
			"0.011": 5.40925095289,
			"0.012": 4.7950475181,
			"0.013": 3.42698463655,
			"0.014": 1.25575397808,
			"0.015": 0.145929631636,
			"0.016": 0.0,
			"0.017": 0.0,
			"0.018": 0.0,
			"0.019": 0.0,
			"0.02": 0.0,
			"0.021": 0.0,
			"0.022": 0.0,
			"0.023": 0.0,
			"0.024": 0.0,
			"0.025": 0.0
		}
	}
}
