{
	 "smiles": "ClS(=O)(=O)C1=C(C=CC=C1)C#N", 
	 "Tm": 342.65, 
	 "num_atms": 16, 
	 "gaussian": { 
		 "optdone": 1, 
		 "sigma_profile": "yes", 
		 "theory": "DFT", 
		 "functional": "B3LYP", 
		 "basiset": "6-31G**", 
		 "properties": { 
			 "R2extent": 2865.305, 
			 "electric_dipole_moment_norm": 7.2243744352, 
			 "electric_quadrupole_moment_norm": 11.5012599227, 
			 "total_energy": -1332.63494086, 
			 "HOMO_LUMO_gap": 0.19178, 
			 "cosmo_polarized_energy": -14.6, 
			 "cosmo_cavitation_energy": 25.09, 
			 "cosmo_dispersion_energy": -18.27, 
			 "cosmo_repulsion_energy": 1.41, 
			 "cosmo_total_nonelectrostatic_energy": 8.24, 
			 "SMD_solvation_energy": 4.24 
		},
		"coords": [
			{
				"x": 1.5916318622,
				"y": 0.9473488445,
				"z": 2.0607648528,
				"element": "Cl" 
			},
			{
				"x": 1.2601136011,
				"y": -1.134458492,
				"z": 1.846610415,
				"element": "S" 
			},
			{
				"x": 1.1338902028,
				"y": -1.6735961222,
				"z": 3.1945792552,
				"element": "O" 
			},
			{
				"x": 2.2481244258,
				"y": -1.6317580619,
				"z": 0.9023040201,
				"element": "O" 
			},
			{
				"x": -0.3700391788,
				"y": -1.148795768,
				"z": 1.0820480132,
				"element": "C" 
			},
			{
				"x": -0.5637179113,
				"y": -0.8041379774,
				"z": -0.2710484463,
				"element": "C" 
			},
			{
				"x": -1.8644039106,
				"y": -0.8843163817,
				"z": -0.7949445824,
				"element": "C" 
			},
			{
				"x": -2.9286411388,
				"y": -1.2948908626,
				"z": 0.0060644362,
				"element": "C" 
			},
			{
				"x": -2.7157225532,
				"y": -1.629741301,
				"z": 1.3427948595,
				"element": "C" 
			},
			{
				"x": -1.4319249446,
				"y": -1.5549873853,
				"z": 1.8861390859,
				"element": "C" 
			},
			{
				"x": 0.4841245675,
				"y": -0.3578158775,
				"z": -1.1424087378,
				"element": "C" 
			},
			{
				"x": 1.2654676564,
				"y": 0.0274360453,
				"z": -1.9117479216,
				"element": "N" 
			},
			{
				"x": -2.0238845961,
				"y": -0.6204536353,
				"z": -1.8345873222,
				"element": "H" 
			},
			{
				"x": -3.9257164063,
				"y": -1.3511668976,
				"z": -0.418713864,
				"element": "H" 
			},
			{
				"x": -3.5436526493,
				"y": -1.949730506,
				"z": 1.9669724382,
				"element": "H" 
			},
			{
				"x": -1.2444490268,
				"y": -1.8127356212,
				"z": 2.9217734982,
				"element": "H" 
			}
		],
		 "valence_orbital": [ 
			{
				"type": "occ",
				"energy": -0.34555,
				"method": "rhf"
			},
			{
				"type": "occ",
				"energy": -0.33827,
				"method": "rhf"
			},
			{
				"type": "occ",
				"energy": -0.32245,
				"method": "rhf"
			},
			{
				"type": "occ",
				"energy": -0.30993,
				"method": "rhf"
			},
			{
				"type": "occ",
				"energy": -0.29701,
				"method": "rhf"
			},
			{
				"type": "unocc",
				"energy": -0.10523,
				"method": "rhf"
			},
			{
				"type": "unocc",
				"energy": -0.07803,
				"method": "rhf"
			},
			{
				"type": "unocc",
				"energy": -0.06067,
				"method": "rhf"
			},
			{
				"type": "unocc",
				"energy": 0.01262,
				"method": "rhf"
			},
			{
				"type": "unocc",
				"energy": 0.03672,
				"method": "rhf"
			}
		],
		"cosmo_sigma_profile": { 
			"-0.025": 0.0,
			"-0.024": 0.0,
			"-0.023": 0.0,
			"-0.022": 0.0,
			"-0.021": 0.0,
			"-0.02": 0.0,
			"-0.019": 0.0,
			"-0.018": 0.0,
			"-0.017": 0.0,
			"-0.016": 0.0,
			"-0.015": 0.0,
			"-0.014": 0.0,
			"-0.013": 0.0,
			"-0.012": 0.0,
			"-0.011": 0.0,
			"-0.01": 0.946867247779,
			"-0.009": 7.19450771836,
			"-0.008": 10.7051533602,
			"-0.007": 9.1283950364,
			"-0.006": 7.09668201978,
			"-0.005": 9.809414169,
			"-0.004": 9.69708560781,
			"-0.003": 15.1912260299,
			"-0.002": 17.5796527738,
			"-0.001": 15.6814460862,
			"0.0": 15.0598388658,
			"0.001": 9.83965317514,
			"0.002": 14.8822892035,
			"0.003": 12.4233458484,
			"0.004": 3.80526971558,
			"0.005": 5.37982165741,
			"0.006": 7.53531472308,
			"0.007": 12.5607395616,
			"0.008": 11.471958616,
			"0.009": 4.25481593739,
			"0.01": 2.33796761847,
			"0.011": 2.41339514438,
			"0.012": 1.35426373312,
			"0.013": 0.0,
			"0.014": 0.0,
			"0.015": 0.0,
			"0.016": 0.0,
			"0.017": 0.0,
			"0.018": 0.0,
			"0.019": 0.0,
			"0.02": 0.0,
			"0.021": 0.0,
			"0.022": 0.0,
			"0.023": 0.0,
			"0.024": 0.0,
			"0.025": 0.0
		}
	}
}
