{
	 "smiles": "CSC(C(O)=O)C(C)(C)C", 
	 "Tm": 357.15, 
	 "num_atms": 24, 
	 "gaussian": { 
		 "optdone": 1, 
		 "sigma_profile": "yes", 
		 "theory": "DFT", 
		 "functional": "B3LYP", 
		 "basiset": "6-31G**", 
		 "properties": { 
			 "R2extent": 1817.9976, 
			 "electric_dipole_moment_norm": 2.50873934477, 
			 "electric_quadrupole_moment_norm": 11.5034300433, 
			 "total_energy": -823.836184321, 
			 "HOMO_LUMO_gap": 0.23076, 
			 "cosmo_polarized_energy": -9.97, 
			 "cosmo_cavitation_energy": 25.92, 
			 "cosmo_dispersion_energy": -19.0, 
			 "cosmo_repulsion_energy": 1.46, 
			 "cosmo_total_nonelectrostatic_energy": 8.38, 
			 "SMD_solvation_energy": 5.64 
		},
		"coords": [
			{
				"x": 1.1568116788,
				"y": -2.1242857129,
				"z": 1.6747760774,
				"element": "C" 
			},
			{
				"x": -0.4665447514,
				"y": -1.8743353441,
				"z": 0.8613178969,
				"element": "S" 
			},
			{
				"x": -0.1258043073,
				"y": -0.5888011644,
				"z": -0.4496687557,
				"element": "C" 
			},
			{
				"x": 1.1600763897,
				"y": -0.978445738,
				"z": -1.2035897303,
				"element": "C" 
			},
			{
				"x": 1.1882582997,
				"y": -2.2587649965,
				"z": -1.6439728155,
				"element": "O" 
			},
			{
				"x": 2.089327466,
				"y": -0.2411125166,
				"z": -1.4280934851,
				"element": "O" 
			},
			{
				"x": -0.2619529582,
				"y": 0.9064936232,
				"z": -0.0264493153,
				"element": "C" 
			},
			{
				"x": -1.6623669307,
				"y": 1.1238131075,
				"z": 0.5827972507,
				"element": "C" 
			},
			{
				"x": -0.1542624205,
				"y": 1.7866399192,
				"z": -1.2944207195,
				"element": "C" 
			},
			{
				"x": 0.8080066766,
				"y": 1.3331489826,
				"z": 0.995638483,
				"element": "C" 
			},
			{
				"x": 1.9177331274,
				"y": -2.4359487383,
				"z": 0.9560947146,
				"element": "H" 
			},
			{
				"x": 1.4858009536,
				"y": -1.2329403435,
				"z": 2.2085915775,
				"element": "H" 
			},
			{
				"x": 0.9974372804,
				"y": -2.932559561,
				"z": 2.3921565099,
				"element": "H" 
			},
			{
				"x": -0.9481355377,
				"y": -0.7926446869,
				"z": -1.1497776765,
				"element": "H" 
			},
			{
				"x": 0.4351237144,
				"y": -2.7402913968,
				"z": -1.2556329118,
				"element": "H" 
			},
			{
				"x": -2.4539850411,
				"y": 0.8483367815,
				"z": -0.1245121151,
				"element": "H" 
			},
			{
				"x": -1.8050221768,
				"y": 0.5386259181,
				"z": 1.4947956964,
				"element": "H" 
			},
			{
				"x": -1.796254763,
				"y": 2.1813982526,
				"z": 0.8326271709,
				"element": "H" 
			},
			{
				"x": -0.8928433136,
				"y": 1.4869413922,
				"z": -2.0480116973,
				"element": "H" 
			},
			{
				"x": 0.8384801975,
				"y": 1.7313170218,
				"z": -1.7412290136,
				"element": "H" 
			},
			{
				"x": -0.3601361147,
				"y": 2.8300708239,
				"z": -1.0331290818,
				"element": "H" 
			},
			{
				"x": 0.7153629363,
				"y": 2.4050651346,
				"z": 1.2006022166,
				"element": "H" 
			},
			{
				"x": 0.6766160944,
				"y": 0.8111203786,
				"z": 1.9487643999,
				"element": "H" 
			},
			{
				"x": 1.8156735002,
				"y": 1.1457588633,
				"z": 0.6190253239,
				"element": "H" 
			}
		],
		 "valence_orbital": [ 
			{
				"type": "occ",
				"energy": -0.33319,
				"method": "rhf"
			},
			{
				"type": "occ",
				"energy": -0.31915,
				"method": "rhf"
			},
			{
				"type": "occ",
				"energy": -0.31731,
				"method": "rhf"
			},
			{
				"type": "occ",
				"energy": -0.27448,
				"method": "rhf"
			},
			{
				"type": "occ",
				"energy": -0.24576,
				"method": "rhf"
			},
			{
				"type": "unocc",
				"energy": -0.015,
				"method": "rhf"
			},
			{
				"type": "unocc",
				"energy": 0.03038,
				"method": "rhf"
			},
			{
				"type": "unocc",
				"energy": 0.05118,
				"method": "rhf"
			},
			{
				"type": "unocc",
				"energy": 0.07815,
				"method": "rhf"
			},
			{
				"type": "unocc",
				"energy": 0.09251,
				"method": "rhf"
			}
		],
		"cosmo_sigma_profile": { 
			"-0.025": 0.0,
			"-0.024": 0.0,
			"-0.023": 0.0,
			"-0.022": 0.0,
			"-0.021": 0.0,
			"-0.02": 0.0,
			"-0.019": 0.0,
			"-0.018": 0.0,
			"-0.017": 0.0,
			"-0.016": 0.0,
			"-0.015": 0.150933241382,
			"-0.014": 0.603613564038,
			"-0.013": 1.18684539283,
			"-0.012": 1.04607149826,
			"-0.011": 0.89289805154,
			"-0.01": 1.39177381088,
			"-0.009": 1.75771190245,
			"-0.008": 2.49188201522,
			"-0.007": 4.41816623145,
			"-0.006": 6.02949732672,
			"-0.005": 7.86666857957,
			"-0.004": 11.0732408976,
			"-0.003": 19.16315407,
			"-0.002": 22.5386295197,
			"-0.001": 20.648635983,
			"0.0": 19.5217180799,
			"0.001": 24.6037152835,
			"0.002": 12.2279363019,
			"0.003": 5.15767824623,
			"0.004": 5.83802611954,
			"0.005": 5.92663970943,
			"0.006": 5.87353011013,
			"0.007": 4.03237361592,
			"0.008": 2.74905617164,
			"0.009": 3.40118620756,
			"0.01": 4.62230939077,
			"0.011": 4.45854982717,
			"0.012": 2.75877330077,
			"0.013": 0.632714807968,
			"0.014": 0.0,
			"0.015": 0.0,
			"0.016": 0.0,
			"0.017": 0.0,
			"0.018": 0.0,
			"0.019": 0.0,
			"0.02": 0.0,
			"0.021": 0.0,
			"0.022": 0.0,
			"0.023": 0.0,
			"0.024": 0.0,
			"0.025": 0.0
		}
	}
}
