{
	 "smiles": "COC1=CC=C(CCCC(O)=O)C=C1OC", 
	 "Tm": 335.15, 
	 "num_atms": 32, 
	 "gaussian": { 
		 "optdone": 1, 
		 "sigma_profile": "yes", 
		 "theory": "DFT", 
		 "functional": "B3LYP", 
		 "basiset": "6-31G**", 
		 "properties": { 
			 "R2extent": 4069.8803, 
			 "electric_dipole_moment_norm": 1.7423025627, 
			 "electric_quadrupole_moment_norm": 9.68187760251, 
			 "total_energy": -767.805147777, 
			 "HOMO_LUMO_gap": 0.21865, 
			 "cosmo_polarized_energy": -13.18, 
			 "cosmo_cavitation_energy": 35.15, 
			 "cosmo_dispersion_energy": -23.48, 
			 "cosmo_repulsion_energy": 1.87, 
			 "cosmo_total_nonelectrostatic_energy": 13.54, 
			 "SMD_solvation_energy": 8.04 
		},
		"coords": [
			{
				"x": -2.6662963861,
				"y": -1.2940860046,
				"z": 1.9760273878,
				"element": "C" 
			},
			{
				"x": -1.6357513496,
				"y": -2.075701491,
				"z": 1.3627338091,
				"element": "O" 
			},
			{
				"x": -0.7441785323,
				"y": -1.3548266554,
				"z": 0.5966975102,
				"element": "C" 
			},
			{
				"x": -0.7364486139,
				"y": -1.5304864303,
				"z": -0.7855424289,
				"element": "C" 
			},
			{
				"x": 0.176578586,
				"y": -0.8393741157,
				"z": -1.5844756462,
				"element": "C" 
			},
			{
				"x": 1.0939619737,
				"y": 0.0532105674,
				"z": -1.0190781899,
				"element": "C" 
			},
			{
				"x": 2.0855904902,
				"y": 0.8177562178,
				"z": -1.8742459244,
				"element": "C" 
			},
			{
				"x": 1.7951082868,
				"y": 2.3249980165,
				"z": -2.0433759623,
				"element": "C" 
			},
			{
				"x": 0.552844072,
				"y": 2.6596331103,
				"z": -2.8894959628,
				"element": "C" 
			},
			{
				"x": -0.790337733,
				"y": 2.3858287717,
				"z": -2.2443760211,
				"element": "C" 
			},
			{
				"x": -0.8660097964,
				"y": 2.9041321556,
				"z": -0.9931993448,
				"element": "O" 
			},
			{
				"x": -1.7242708183,
				"y": 1.8227087945,
				"z": -2.77155619,
				"element": "O" 
			},
			{
				"x": 1.0888081033,
				"y": 0.2141136311,
				"z": 0.374458941,
				"element": "C" 
			},
			{
				"x": 0.1910037056,
				"y": -0.479124001,
				"z": 1.1832578288,
				"element": "C" 
			},
			{
				"x": 0.2163018998,
				"y": -0.2613754504,
				"z": 2.5448329991,
				"element": "O" 
			},
			{
				"x": 0.665110633,
				"y": -1.3776606507,
				"z": 3.321943936,
				"element": "C" 
			},
			{
				"x": -3.2839472548,
				"y": -1.9924320337,
				"z": 2.5448219936,
				"element": "H" 
			},
			{
				"x": -3.285864029,
				"y": -0.8027010309,
				"z": 1.2148262169,
				"element": "H" 
			},
			{
				"x": -2.2476908978,
				"y": -0.5388247902,
				"z": 2.6489285768,
				"element": "H" 
			},
			{
				"x": -1.4578725156,
				"y": -2.2147075906,
				"z": -1.220887587,
				"element": "H" 
			},
			{
				"x": 0.1611843359,
				"y": -0.9868254127,
				"z": -2.6605599459,
				"element": "H" 
			},
			{
				"x": 2.1414551165,
				"y": 0.3532208785,
				"z": -2.8664266542,
				"element": "H" 
			},
			{
				"x": 3.085777104,
				"y": 0.7197559972,
				"z": -1.4333409163,
				"element": "H" 
			},
			{
				"x": 2.6629824778,
				"y": 2.7832487182,
				"z": -2.53255056,
				"element": "H" 
			},
			{
				"x": 1.7012300235,
				"y": 2.8000411409,
				"z": -1.0613020764,
				"element": "H" 
			},
			{
				"x": 0.5665043264,
				"y": 3.733136875,
				"z": -3.1198137796,
				"element": "H" 
			},
			{
				"x": 0.5636660099,
				"y": 2.1241704707,
				"z": -3.8426419824,
				"element": "H" 
			},
			{
				"x": -1.7513367293,
				"y": 2.6780213015,
				"z": -0.6630554636,
				"element": "H" 
			},
			{
				"x": 1.7928572938,
				"y": 0.883688646,
				"z": 0.8612663918,
				"element": "H" 
			},
			{
				"x": 0.6270101234,
				"y": -1.0592022587,
				"z": 4.3658937992,
				"element": "H" 
			},
			{
				"x": 1.6984014781,
				"y": -1.6406651789,
				"z": 3.0620066758,
				"element": "H" 
			},
			{
				"x": 0.0206286164,
				"y": -2.2501721982,
				"z": 3.1770285695,
				"element": "H" 
			}
		],
		 "valence_orbital": [ 
			{
				"type": "occ",
				"energy": -0.29095,
				"method": "rhf"
			},
			{
				"type": "occ",
				"energy": -0.26484,
				"method": "rhf"
			},
			{
				"type": "occ",
				"energy": -0.26064,
				"method": "rhf"
			},
			{
				"type": "occ",
				"energy": -0.23802,
				"method": "rhf"
			},
			{
				"type": "occ",
				"energy": -0.22242,
				"method": "rhf"
			},
			{
				"type": "unocc",
				"energy": -0.00377,
				"method": "rhf"
			},
			{
				"type": "unocc",
				"energy": 0.00589,
				"method": "rhf"
			},
			{
				"type": "unocc",
				"energy": 0.02229,
				"method": "rhf"
			},
			{
				"type": "unocc",
				"energy": 0.07862,
				"method": "rhf"
			},
			{
				"type": "unocc",
				"energy": 0.08677,
				"method": "rhf"
			}
		],
		"cosmo_sigma_profile": { 
			"-0.025": 0.0,
			"-0.024": 0.0,
			"-0.023": 0.0,
			"-0.022": 0.0,
			"-0.021": 0.0,
			"-0.02": 0.0,
			"-0.019": 0.0,
			"-0.018": 0.368967979912,
			"-0.017": 0.666111374392,
			"-0.016": 0.995117727517,
			"-0.015": 0.910933645213,
			"-0.014": 0.73423018843,
			"-0.013": 0.420514272552,
			"-0.012": 0.277840077919,
			"-0.011": 0.622464313064,
			"-0.01": 1.14593670201,
			"-0.009": 0.48277489565,
			"-0.008": 0.611179710658,
			"-0.007": 1.05559835119,
			"-0.006": 6.63119360168,
			"-0.005": 16.2844216323,
			"-0.004": 30.6459954495,
			"-0.003": 35.3779546798,
			"-0.002": 34.6883250642,
			"-0.001": 23.6477812947,
			"0.0": 18.9743870615,
			"0.001": 11.8366056351,
			"0.002": 12.2210891986,
			"0.003": 12.7868913994,
			"0.004": 13.039632933,
			"0.005": 10.304544174,
			"0.006": 7.7419537378,
			"0.007": 6.50382138046,
			"0.008": 5.37044949381,
			"0.009": 4.32143432073,
			"0.01": 3.78541390357,
			"0.011": 4.55425958509,
			"0.012": 6.6234101826,
			"0.013": 2.00386180369,
			"0.014": 0.15383443099,
			"0.015": 0.0,
			"0.016": 0.0,
			"0.017": 0.0,
			"0.018": 0.0,
			"0.019": 0.0,
			"0.02": 0.0,
			"0.021": 0.0,
			"0.022": 0.0,
			"0.023": 0.0,
			"0.024": 0.0,
			"0.025": 0.0
		}
	}
}
