{
	 "smiles": "CN(C)S(=O)(=O)CCC(O)=O", 
	 "Tm": 395.15, 
	 "num_atms": 22, 
	 "gaussian": { 
		 "optdone": 1, 
		 "sigma_profile": "yes", 
		 "theory": "DFT", 
		 "functional": "B3LYP", 
		 "basiset": "6-31G**", 
		 "properties": { 
			 "R2extent": 2286.4416, 
			 "electric_dipole_moment_norm": 3.61579436362, 
			 "electric_quadrupole_moment_norm": 18.3957614072, 
			 "total_energy": -950.938803635, 
			 "HOMO_LUMO_gap": 0.2653, 
			 "cosmo_polarized_energy": -19.15, 
			 "cosmo_cavitation_energy": 26.54, 
			 "cosmo_dispersion_energy": -19.03, 
			 "cosmo_repulsion_energy": 1.5, 
			 "cosmo_total_nonelectrostatic_energy": 9.01, 
			 "SMD_solvation_energy": 5.14 
		},
		"coords": [
			{
				"x": -0.1704154691,
				"y": -2.3158070579,
				"z": 2.1529042293,
				"element": "C" 
			},
			{
				"x": -0.7833721834,
				"y": -1.1804757039,
				"z": 1.4520191705,
				"element": "N" 
			},
			{
				"x": -1.9389556785,
				"y": -0.6005148866,
				"z": 2.152627365,
				"element": "C" 
			},
			{
				"x": -0.981237928,
				"y": -1.4107884561,
				"z": -0.2259562241,
				"element": "S" 
			},
			{
				"x": -1.0265569684,
				"y": -2.8427709708,
				"z": -0.5471327875,
				"element": "O" 
			},
			{
				"x": -2.0507065888,
				"y": -0.5043721703,
				"z": -0.6598057003,
				"element": "O" 
			},
			{
				"x": 0.5942226155,
				"y": -0.7745879754,
				"z": -0.8693489618,
				"element": "C" 
			},
			{
				"x": 0.7887708575,
				"y": 0.7216708717,
				"z": -0.6276451411,
				"element": "C" 
			},
			{
				"x": -0.1258832726,
				"y": 1.6385802656,
				"z": -1.4210814583,
				"element": "C" 
			},
			{
				"x": -0.2579415827,
				"y": 1.2302166565,
				"z": -2.7044422965,
				"element": "O" 
			},
			{
				"x": -0.6282270459,
				"y": 2.6504265144,
				"z": -0.9918108825,
				"element": "O" 
			},
			{
				"x": 0.1466425586,
				"y": -1.9693917925,
				"z": 3.1407605823,
				"element": "H" 
			},
			{
				"x": -0.859375036,
				"y": -3.1619897793,
				"z": 2.2709915978,
				"element": "H" 
			},
			{
				"x": 0.7124378254,
				"y": -2.6671360916,
				"z": 1.6153353882,
				"element": "H" 
			},
			{
				"x": -2.736512073,
				"y": -1.3349005711,
				"z": 2.3324572202,
				"element": "H" 
			},
			{
				"x": -2.3427215593,
				"y": 0.2270847318,
				"z": 1.571938318,
				"element": "H" 
			},
			{
				"x": -1.586174797,
				"y": -0.2224461258,
				"z": 3.1167054735,
				"element": "H" 
			},
			{
				"x": 0.5743640704,
				"y": -1.0173946997,
				"z": -1.9342703303,
				"element": "H" 
			},
			{
				"x": 1.3818121592,
				"y": -1.3634450538,
				"z": -0.3927512076,
				"element": "H" 
			},
			{
				"x": 1.817877074,
				"y": 0.9758349749,
				"z": -0.9127770619,
				"element": "H" 
			},
			{
				"x": 0.6718166115,
				"y": 0.9677862725,
				"z": 0.4290954253,
				"element": "H" 
			},
			{
				"x": -0.8678635891,
				"y": 1.8560210473,
				"z": -3.1292127182,
				"element": "H" 
			}
		],
		 "valence_orbital": [ 
			{
				"type": "occ",
				"energy": -0.31543,
				"method": "rhf"
			},
			{
				"type": "occ",
				"energy": -0.30522,
				"method": "rhf"
			},
			{
				"type": "occ",
				"energy": -0.29921,
				"method": "rhf"
			},
			{
				"type": "occ",
				"energy": -0.27654,
				"method": "rhf"
			},
			{
				"type": "occ",
				"energy": -0.25896,
				"method": "rhf"
			},
			{
				"type": "unocc",
				"energy": 0.00634,
				"method": "rhf"
			},
			{
				"type": "unocc",
				"energy": 0.05689,
				"method": "rhf"
			},
			{
				"type": "unocc",
				"energy": 0.06236,
				"method": "rhf"
			},
			{
				"type": "unocc",
				"energy": 0.07622,
				"method": "rhf"
			},
			{
				"type": "unocc",
				"energy": 0.08397,
				"method": "rhf"
			}
		],
		"cosmo_sigma_profile": { 
			"-0.025": 0.0,
			"-0.024": 0.0,
			"-0.023": 0.0,
			"-0.022": 0.0,
			"-0.021": 0.0,
			"-0.02": 0.0,
			"-0.019": 0.130455301841,
			"-0.018": 0.800326882889,
			"-0.017": 1.07790051177,
			"-0.016": 0.853639603841,
			"-0.015": 0.83539017407,
			"-0.014": 0.538795258896,
			"-0.013": 0.418668694811,
			"-0.012": 0.40158912164,
			"-0.011": 0.867521212212,
			"-0.01": 1.24855131558,
			"-0.009": 3.35038567485,
			"-0.008": 8.18623991753,
			"-0.007": 8.0665970045,
			"-0.006": 11.4561630572,
			"-0.005": 16.9451889016,
			"-0.004": 18.653566384,
			"-0.003": 18.0429921767,
			"-0.002": 19.7532186544,
			"-0.001": 9.27019925534,
			"0.0": 7.06751463526,
			"0.001": 6.75304322595,
			"0.002": 4.99953458782,
			"0.003": 4.36195324962,
			"0.004": 4.41672253938,
			"0.005": 5.87893986974,
			"0.006": 5.67967413729,
			"0.007": 5.87828746598,
			"0.008": 6.6283961065,
			"0.009": 5.56552263637,
			"0.01": 7.77356947774,
			"0.011": 12.6602632148,
			"0.012": 8.73938889463,
			"0.013": 0.61579439934,
			"0.014": 0.0,
			"0.015": 0.0,
			"0.016": 0.0,
			"0.017": 0.0,
			"0.018": 0.0,
			"0.019": 0.0,
			"0.02": 0.0,
			"0.021": 0.0,
			"0.022": 0.0,
			"0.023": 0.0,
			"0.024": 0.0,
			"0.025": 0.0
		}
	}
}
