{
	 "smiles": "CCOC(=O)CCC(O)=O", 
	 "Tm": 281.15, 
	 "num_atms": 20, 
	 "gaussian": { 
		 "optdone": 1, 
		 "sigma_profile": "yes", 
		 "theory": "DFT", 
		 "functional": "B3LYP", 
		 "basiset": "6-31G**", 
		 "properties": { 
			 "R2extent": 2193.9292, 
			 "electric_dipole_moment_norm": 1.83389962103, 
			 "electric_quadrupole_moment_norm": 9.31140308654, 
			 "total_energy": -535.592252082, 
			 "HOMO_LUMO_gap": 0.26822, 
			 "cosmo_polarized_energy": -12.86, 
			 "cosmo_cavitation_energy": 24.62, 
			 "cosmo_dispersion_energy": -16.88, 
			 "cosmo_repulsion_energy": 1.41, 
			 "cosmo_total_nonelectrostatic_energy": 9.15, 
			 "SMD_solvation_energy": 6.29 
		},
		"coords": [
			{
				"x": 0.9828317362,
				"y": -1.5413729872,
				"z": 2.8758560031,
				"element": "C" 
			},
			{
				"x": 0.1742109896,
				"y": -0.2585522838,
				"z": 2.994247211,
				"element": "C" 
			},
			{
				"x": -1.0264689579,
				"y": -0.3432013431,
				"z": 2.1847270683,
				"element": "O" 
			},
			{
				"x": -0.9374809529,
				"y": 0.1134677778,
				"z": 0.9164316939,
				"element": "C" 
			},
			{
				"x": 0.0320046117,
				"y": 0.6707997649,
				"z": 0.4496225912,
				"element": "O" 
			},
			{
				"x": -2.2068733773,
				"y": -0.1980210944,
				"z": 0.1437938939,
				"element": "C" 
			},
			{
				"x": -2.3331421287,
				"y": -1.7123113088,
				"z": -0.1539411111,
				"element": "C" 
			},
			{
				"x": -1.1603754125,
				"y": -2.2140330402,
				"z": -0.9704230901,
				"element": "C" 
			},
			{
				"x": -1.3056477651,
				"y": -1.9292065963,
				"z": -2.286214126,
				"element": "O" 
			},
			{
				"x": -0.1831549326,
				"y": -2.774624844,
				"z": -0.5248103999,
				"element": "O" 
			},
			{
				"x": 1.2895275976,
				"y": -1.7101638268,
				"z": 1.8406388909,
				"element": "H" 
			},
			{
				"x": 0.3971669023,
				"y": -2.4043986935,
				"z": 3.2054273663,
				"element": "H" 
			},
			{
				"x": 1.8801418424,
				"y": -1.4743809397,
				"z": 3.5002219515,
				"element": "H" 
			},
			{
				"x": 0.7516458214,
				"y": 0.6106289237,
				"z": 2.6728644872,
				"element": "H" 
			},
			{
				"x": -0.1877186023,
				"y": -0.099720955,
				"z": 4.0131354526,
				"element": "H" 
			},
			{
				"x": -3.0755477603,
				"y": 0.1142747525,
				"z": 0.7314219766,
				"element": "H" 
			},
			{
				"x": -2.1807139112,
				"y": 0.3730736523,
				"z": -0.7859938972,
				"element": "H" 
			},
			{
				"x": -2.3516462137,
				"y": -2.2727919546,
				"z": 0.7820994162,
				"element": "H" 
			},
			{
				"x": -3.2621620043,
				"y": -1.8916096207,
				"z": -0.7023749519,
				"element": "H" 
			},
			{
				"x": -0.4897974826,
				"y": -2.2297553831,
				"z": -2.7214304264,
				"element": "H" 
			}
		],
		 "valence_orbital": [ 
			{
				"type": "occ",
				"energy": -0.33604,
				"method": "rhf"
			},
			{
				"type": "occ",
				"energy": -0.32149,
				"method": "rhf"
			},
			{
				"type": "occ",
				"energy": -0.29636,
				"method": "rhf"
			},
			{
				"type": "occ",
				"energy": -0.27884,
				"method": "rhf"
			},
			{
				"type": "occ",
				"energy": -0.26827,
				"method": "rhf"
			},
			{
				"type": "unocc",
				"energy": -5e-05,
				"method": "rhf"
			},
			{
				"type": "unocc",
				"energy": 0.01018,
				"method": "rhf"
			},
			{
				"type": "unocc",
				"energy": 0.07429,
				"method": "rhf"
			},
			{
				"type": "unocc",
				"energy": 0.10835,
				"method": "rhf"
			},
			{
				"type": "unocc",
				"energy": 0.11794,
				"method": "rhf"
			}
		],
		"cosmo_sigma_profile": { 
			"-0.025": 0.0,
			"-0.024": 0.0,
			"-0.023": 0.0,
			"-0.022": 0.0,
			"-0.021": 0.0,
			"-0.02": 0.0,
			"-0.019": 0.0647058452739,
			"-0.018": 0.865014737079,
			"-0.017": 0.805495529937,
			"-0.016": 1.04211398473,
			"-0.015": 0.546016981385,
			"-0.014": 0.952170177581,
			"-0.013": 0.733962416658,
			"-0.012": 0.497658909129,
			"-0.011": 0.797791429261,
			"-0.01": 0.727021409264,
			"-0.009": 0.392926792311,
			"-0.008": 0.548623757487,
			"-0.007": 4.14070524609,
			"-0.006": 9.04763760671,
			"-0.005": 14.7688143514,
			"-0.004": 20.4813398724,
			"-0.003": 19.2636529328,
			"-0.002": 15.2408382782,
			"-0.001": 12.3284306039,
			"0.0": 13.3774572855,
			"0.001": 9.3972240232,
			"0.002": 7.97907249417,
			"0.003": 7.99679097206,
			"0.004": 6.84947898814,
			"0.005": 7.30360561099,
			"0.006": 5.16341738144,
			"0.007": 5.19941569585,
			"0.008": 3.88420921953,
			"0.009": 5.84744770953,
			"0.01": 3.79529932574,
			"0.011": 6.51858453756,
			"0.012": 5.72583708193,
			"0.013": 0.537649446854,
			"0.014": 0.0,
			"0.015": 0.0,
			"0.016": 0.0,
			"0.017": 0.0,
			"0.018": 0.0,
			"0.019": 0.0,
			"0.02": 0.0,
			"0.021": 0.0,
			"0.022": 0.0,
			"0.023": 0.0,
			"0.024": 0.0,
			"0.025": 0.0
		}
	}
}
