{
	 "smiles": "CC(C)(C)OC(=O)N1CC(=O)C1", 
	 "Tm": 324.15, 
	 "num_atms": 25, 
	 "gaussian": { 
		 "optdone": 1, 
		 "sigma_profile": "yes", 
		 "theory": "DFT", 
		 "functional": "B3LYP", 
		 "basiset": "6-31G**", 
		 "properties": { 
			 "R2extent": 3107.1953, 
			 "electric_dipole_moment_norm": 2.47166550124, 
			 "electric_quadrupole_moment_norm": 10.3608235179, 
			 "total_energy": -593.100935008, 
			 "HOMO_LUMO_gap": 0.21652, 
			 "cosmo_polarized_energy": -10.73, 
			 "cosmo_cavitation_energy": 28.15, 
			 "cosmo_dispersion_energy": -19.73, 
			 "cosmo_repulsion_energy": 1.62, 
			 "cosmo_total_nonelectrostatic_energy": 10.03, 
			 "SMD_solvation_energy": 5.37 
		},
		"coords": [
			{
				"x": -1.6218044858,
				"y": 2.0495136353,
				"z": 0.3023557713,
				"element": "C" 
			},
			{
				"x": -1.0218137608,
				"y": 0.783428616,
				"z": -0.3136297182,
				"element": "C" 
			},
			{
				"x": -2.1086820193,
				"y": -0.2641094995,
				"z": -0.5765202376,
				"element": "C" 
			},
			{
				"x": -0.2185195984,
				"y": 1.1171167049,
				"z": -1.574766127,
				"element": "C" 
			},
			{
				"x": -0.114438809,
				"y": 0.310679621,
				"z": 0.7479235995,
				"element": "O" 
			},
			{
				"x": 0.6307848036,
				"y": -0.8038939675,
				"z": 0.5768013586,
				"element": "C" 
			},
			{
				"x": 0.6378408446,
				"y": -1.5455926642,
				"z": -0.3920489803,
				"element": "O" 
			},
			{
				"x": 1.4351243347,
				"y": -0.9968769942,
				"z": 1.6718397687,
				"element": "N" 
			},
			{
				"x": 2.0326944588,
				"y": -2.2968401945,
				"z": 2.0206860142,
				"element": "C" 
			},
			{
				"x": 1.8969790628,
				"y": -1.8667737918,
				"z": 3.4951360252,
				"element": "C" 
			},
			{
				"x": 2.2076972316,
				"y": -2.3471558164,
				"z": 4.5487686505,
				"element": "O" 
			},
			{
				"x": 1.2018273648,
				"y": -0.558192216,
				"z": 3.0620166261,
				"element": "C" 
			},
			{
				"x": -2.3277507941,
				"y": 2.5082107134,
				"z": -0.3962123318,
				"element": "H" 
			},
			{
				"x": -0.8377810988,
				"y": 2.7771758721,
				"z": 0.5308801439,
				"element": "H" 
			},
			{
				"x": -2.1549856291,
				"y": 1.8142552797,
				"z": 1.2281854484,
				"element": "H" 
			},
			{
				"x": -2.8415335309,
				"y": 0.1372182117,
				"z": -1.2839280815,
				"element": "H" 
			},
			{
				"x": -2.6339146751,
				"y": -0.508840708,
				"z": 0.3523386304,
				"element": "H" 
			},
			{
				"x": -1.6800373343,
				"y": -1.176055229,
				"z": -0.9927162138,
				"element": "H" 
			},
			{
				"x": 0.5741685914,
				"y": 1.8350294813,
				"z": -1.341750821,
				"element": "H" 
			},
			{
				"x": -0.8791790036,
				"y": 1.5708040787,
				"z": -2.3205797493,
				"element": "H" 
			},
			{
				"x": 0.2301180761,
				"y": 0.2196659576,
				"z": -2.0014608784,
				"element": "H" 
			},
			{
				"x": 1.424478736,
				"y": -3.164032579,
				"z": 1.7339549801,
				"element": "H" 
			},
			{
				"x": 3.0581915077,
				"y": -2.4458940164,
				"z": 1.6647993815,
				"element": "H" 
			},
			{
				"x": 0.1456057656,
				"y": -0.4866213494,
				"z": 3.3492105636,
				"element": "H" 
			},
			{
				"x": 1.7159299616,
				"y": 0.3658808543,
				"z": 3.348816177,
				"element": "H" 
			}
		],
		 "valence_orbital": [ 
			{
				"type": "occ",
				"energy": -0.33661,
				"method": "rhf"
			},
			{
				"type": "occ",
				"energy": -0.29419,
				"method": "rhf"
			},
			{
				"type": "occ",
				"energy": -0.27666,
				"method": "rhf"
			},
			{
				"type": "occ",
				"energy": -0.26223,
				"method": "rhf"
			},
			{
				"type": "occ",
				"energy": -0.25563,
				"method": "rhf"
			},
			{
				"type": "unocc",
				"energy": -0.03911,
				"method": "rhf"
			},
			{
				"type": "unocc",
				"energy": 0.04142,
				"method": "rhf"
			},
			{
				"type": "unocc",
				"energy": 0.07591,
				"method": "rhf"
			},
			{
				"type": "unocc",
				"energy": 0.08977,
				"method": "rhf"
			},
			{
				"type": "unocc",
				"energy": 0.1014,
				"method": "rhf"
			}
		],
		"cosmo_sigma_profile": { 
			"-0.025": 0.0,
			"-0.024": 0.0,
			"-0.023": 0.0,
			"-0.022": 0.0,
			"-0.021": 0.0,
			"-0.02": 0.0,
			"-0.019": 0.0,
			"-0.018": 0.0,
			"-0.017": 0.0,
			"-0.016": 0.0,
			"-0.015": 0.0,
			"-0.014": 0.0,
			"-0.013": 0.0,
			"-0.012": 0.0,
			"-0.011": 0.0,
			"-0.01": 0.0,
			"-0.009": 0.351627111251,
			"-0.008": 5.92940602086,
			"-0.007": 12.5665038823,
			"-0.006": 8.88483928056,
			"-0.005": 10.2639400852,
			"-0.004": 17.9377613064,
			"-0.003": 19.7600127763,
			"-0.002": 18.0950007731,
			"-0.001": 20.6862714861,
			"0.0": 25.4187887873,
			"0.001": 19.7017806868,
			"0.002": 6.37211570928,
			"0.003": 6.86660930595,
			"0.004": 6.04658744759,
			"0.005": 6.50577779982,
			"0.006": 5.3755216346,
			"0.007": 4.82304920201,
			"0.008": 4.07907689943,
			"0.009": 4.37562014979,
			"0.01": 6.58881439303,
			"0.011": 3.99346468013,
			"0.012": 2.319369448,
			"0.013": 3.22444430924,
			"0.014": 0.454164736912,
			"0.015": 0.0,
			"0.016": 0.0,
			"0.017": 0.0,
			"0.018": 0.0,
			"0.019": 0.0,
			"0.02": 0.0,
			"0.021": 0.0,
			"0.022": 0.0,
			"0.023": 0.0,
			"0.024": 0.0,
			"0.025": 0.0
		}
	}
}
