{
	 "smiles": "NC1=NC(=CS1)C1=C(F)C=CC(F)=C1", 
	 "Tm": 419.15, 
	 "num_atms": 20, 
	 "gaussian": { 
		 "optdone": 1, 
		 "sigma_profile": "yes", 
		 "theory": "DFT", 
		 "functional": "B3LYP", 
		 "basiset": "6-31G**", 
		 "properties": { 
			 "R2extent": 4624.9672, 
			 "electric_dipole_moment_norm": 2.13511010021, 
			 "electric_quadrupole_moment_norm": 18.6840876836, 
			 "total_energy": -1053.92640397, 
			 "HOMO_LUMO_gap": 0.17393, 
			 "cosmo_polarized_energy": -11.98, 
			 "cosmo_cavitation_energy": 27.6, 
			 "cosmo_dispersion_energy": -20.59, 
			 "cosmo_repulsion_energy": 1.54, 
			 "cosmo_total_nonelectrostatic_energy": 8.54, 
			 "SMD_solvation_energy": 4.22 
		},
		"coords": [
			{
				"x": 0.0627606652,
				"y": -0.556087635,
				"z": -5.5957674967,
				"element": "N" 
			},
			{
				"x": 0.6044662669,
				"y": -0.1176371727,
				"z": -4.4089439911,
				"element": "C" 
			},
			{
				"x": -0.0508367534,
				"y": -0.0617895046,
				"z": -3.288631524,
				"element": "N" 
			},
			{
				"x": 0.7761567137,
				"y": 0.3316912273,
				"z": -2.2482626209,
				"element": "C" 
			},
			{
				"x": 2.0758935351,
				"y": 0.5906205471,
				"z": -2.590027363,
				"element": "C" 
			},
			{
				"x": 2.3202050408,
				"y": 0.3135650594,
				"z": -4.2942396645,
				"element": "S" 
			},
			{
				"x": 0.2461853876,
				"y": 0.4428752296,
				"z": -0.8748069437,
				"element": "C" 
			},
			{
				"x": -1.0453919399,
				"y": 0.9202722243,
				"z": -0.6026661457,
				"element": "C" 
			},
			{
				"x": -1.8429571125,
				"y": 1.311278958,
				"z": -1.6146526264,
				"element": "F" 
			},
			{
				"x": -1.5372260204,
				"y": 1.0358066688,
				"z": 0.6925628953,
				"element": "C" 
			},
			{
				"x": -0.735109241,
				"y": 0.6769461105,
				"z": 1.775112919,
				"element": "C" 
			},
			{
				"x": 0.5478886196,
				"y": 0.2085748269,
				"z": 1.5170053725,
				"element": "C" 
			},
			{
				"x": 1.3363363917,
				"y": -0.1520196805,
				"z": 2.5530241522,
				"element": "F" 
			},
			{
				"x": 1.0410374425,
				"y": 0.0825506556,
				"z": 0.2261253985,
				"element": "C" 
			},
			{
				"x": -0.9481398394,
				"y": -0.5962208632,
				"z": -5.5712870462,
				"element": "H" 
			},
			{
				"x": 0.4357109909,
				"y": -0.1545213649,
				"z": -6.4442016113,
				"element": "H" 
			},
			{
				"x": 2.8778102405,
				"y": 0.9589572017,
				"z": -1.9678535721,
				"element": "H" 
			},
			{
				"x": -2.5428932627,
				"y": 1.4151358281,
				"z": 0.8367282781,
				"element": "H" 
			},
			{
				"x": -1.0902680939,
				"y": 0.7525668383,
				"z": 2.796603542,
				"element": "H" 
			},
			{
				"x": 2.0349709687,
				"y": -0.3226651547,
				"z": 0.074178048,
				"element": "H" 
			}
		],
		 "valence_orbital": [ 
			{
				"type": "occ",
				"energy": -0.28642,
				"method": "rhf"
			},
			{
				"type": "occ",
				"energy": -0.27409,
				"method": "rhf"
			},
			{
				"type": "occ",
				"energy": -0.26142,
				"method": "rhf"
			},
			{
				"type": "occ",
				"energy": -0.23791,
				"method": "rhf"
			},
			{
				"type": "occ",
				"energy": -0.20893,
				"method": "rhf"
			},
			{
				"type": "unocc",
				"energy": -0.035,
				"method": "rhf"
			},
			{
				"type": "unocc",
				"energy": -0.00051,
				"method": "rhf"
			},
			{
				"type": "unocc",
				"energy": 0.0019,
				"method": "rhf"
			},
			{
				"type": "unocc",
				"energy": 0.01659,
				"method": "rhf"
			},
			{
				"type": "unocc",
				"energy": 0.06903,
				"method": "rhf"
			}
		],
		"cosmo_sigma_profile": { 
			"-0.025": 0.0,
			"-0.024": 0.0,
			"-0.023": 0.0,
			"-0.022": 0.0,
			"-0.021": 0.0,
			"-0.02": 0.0,
			"-0.019": 0.0,
			"-0.018": 0.0,
			"-0.017": 0.0,
			"-0.016": 0.0,
			"-0.015": 0.495782508513,
			"-0.014": 2.00442175763,
			"-0.013": 2.77757520855,
			"-0.012": 2.2889064109,
			"-0.011": 3.31259143926,
			"-0.01": 1.69908688158,
			"-0.009": 2.54059831007,
			"-0.008": 6.34534097428,
			"-0.007": 9.48099374493,
			"-0.006": 8.8445035432,
			"-0.005": 8.36629432865,
			"-0.004": 7.38232886367,
			"-0.003": 8.44886688172,
			"-0.002": 6.60115772619,
			"-0.001": 9.81384562179,
			"0.0": 15.7707887325,
			"0.001": 25.1121909012,
			"0.002": 27.7006365352,
			"0.003": 23.2050680682,
			"0.004": 23.3601787127,
			"0.005": 10.2778639797,
			"0.006": 3.69892725803,
			"0.007": 2.62668662174,
			"0.008": 2.87618143502,
			"0.009": 1.68838617249,
			"0.01": 2.45074463993,
			"0.011": 2.01375072257,
			"0.012": 1.42035830431,
			"0.013": 0.797377087121,
			"0.014": 0.903885928069,
			"0.015": 0.162831938286,
			"0.016": 0.0,
			"0.017": 0.0,
			"0.018": 0.0,
			"0.019": 0.0,
			"0.02": 0.0,
			"0.021": 0.0,
			"0.022": 0.0,
			"0.023": 0.0,
			"0.024": 0.0,
			"0.025": 0.0
		}
	}
}
