{
	 "smiles": "CC1=NC2=C(N1)C=C(C)C=C2", 
	 "Tm": 476.15, 
	 "num_atms": 21, 
	 "gaussian": { 
		 "optdone": 1, 
		 "sigma_profile": "yes", 
		 "theory": "DFT", 
		 "functional": "B3LYP", 
		 "basiset": "6-31G**", 
		 "properties": { 
			 "R2extent": 2048.0672, 
			 "electric_dipole_moment_norm": 3.43089766679, 
			 "electric_quadrupole_moment_norm": 9.70631837207, 
			 "total_energy": -458.514587652, 
			 "HOMO_LUMO_gap": 0.20414, 
			 "cosmo_polarized_energy": -12.54, 
			 "cosmo_cavitation_energy": 24.41, 
			 "cosmo_dispersion_energy": -18.36, 
			 "cosmo_repulsion_energy": 1.47, 
			 "cosmo_total_nonelectrostatic_energy": 7.53, 
			 "SMD_solvation_energy": 2.12 
		},
		"coords": [
			{
				"x": -0.9940568789,
				"y": -1.950194817,
				"z": 2.8944853446,
				"element": "C" 
			},
			{
				"x": -0.8836465003,
				"y": -1.2542087072,
				"z": 1.5774463162,
				"element": "C" 
			},
			{
				"x": -1.8912544595,
				"y": -0.8068838386,
				"z": 0.8674037187,
				"element": "N" 
			},
			{
				"x": -1.3177923896,
				"y": -0.2411363463,
				"z": -0.2650172648,
				"element": "C" 
			},
			{
				"x": 0.0899175925,
				"y": -0.3606015355,
				"z": -0.2196424311,
				"element": "C" 
			},
			{
				"x": 0.3396342982,
				"y": -1.0152799897,
				"z": 0.97489564,
				"element": "N" 
			},
			{
				"x": 0.9218748658,
				"y": 0.1231860755,
				"z": -1.2311997866,
				"element": "C" 
			},
			{
				"x": 0.3188066032,
				"y": 0.7478385419,
				"z": -2.3248959725,
				"element": "C" 
			},
			{
				"x": 1.158134112,
				"y": 1.295327903,
				"z": -3.4570630139,
				"element": "C" 
			},
			{
				"x": -1.0909261184,
				"y": 0.8696424353,
				"z": -2.3744085235,
				"element": "C" 
			},
			{
				"x": -1.9152238085,
				"y": 0.3866493689,
				"z": -1.3652216563,
				"element": "C" 
			},
			{
				"x": -2.048195148,
				"y": -2.0215444974,
				"z": 3.1638898202,
				"element": "H" 
			},
			{
				"x": -0.466920432,
				"y": -1.4039478842,
				"z": 3.685616965,
				"element": "H" 
			},
			{
				"x": -0.5742758336,
				"y": -2.9622374008,
				"z": 2.8530658892,
				"element": "H" 
			},
			{
				"x": 1.2424816878,
				"y": -1.2722987746,
				"z": 1.3419519639,
				"element": "H" 
			},
			{
				"x": 2.0027501663,
				"y": 0.0218957391,
				"z": -1.1783880011,
				"element": "H" 
			},
			{
				"x": 1.0041438905,
				"y": 2.3733887143,
				"z": -3.584575063,
				"element": "H" 
			},
			{
				"x": 2.2251303101,
				"y": 1.1309399364,
				"z": -3.2814962871,
				"element": "H" 
			},
			{
				"x": 0.9010963255,
				"y": 0.8210436399,
				"z": -4.4116299611,
				"element": "H" 
			},
			{
				"x": -1.5382327076,
				"y": 1.3597432704,
				"z": -3.2357008045,
				"element": "H" 
			},
			{
				"x": -2.9946455756,
				"y": 0.4876781663,
				"z": -1.4176168925,
				"element": "H" 
			}
		],
		 "valence_orbital": [ 
			{
				"type": "occ",
				"energy": -0.31891,
				"method": "rhf"
			},
			{
				"type": "occ",
				"energy": -0.29437,
				"method": "rhf"
			},
			{
				"type": "occ",
				"energy": -0.26183,
				"method": "rhf"
			},
			{
				"type": "occ",
				"energy": -0.21973,
				"method": "rhf"
			},
			{
				"type": "occ",
				"energy": -0.20906,
				"method": "rhf"
			},
			{
				"type": "unocc",
				"energy": -0.00492,
				"method": "rhf"
			},
			{
				"type": "unocc",
				"energy": 0.02558,
				"method": "rhf"
			},
			{
				"type": "unocc",
				"energy": 0.06209,
				"method": "rhf"
			},
			{
				"type": "unocc",
				"energy": 0.07632,
				"method": "rhf"
			},
			{
				"type": "unocc",
				"energy": 0.10678,
				"method": "rhf"
			}
		],
		"cosmo_sigma_profile": { 
			"-0.025": 0.0,
			"-0.024": 0.0,
			"-0.023": 0.0,
			"-0.022": 0.0,
			"-0.021": 0.0,
			"-0.02": 0.0,
			"-0.019": 0.0,
			"-0.018": 0.0,
			"-0.017": 0.0,
			"-0.016": 0.870800573013,
			"-0.015": 1.37537984918,
			"-0.014": 1.52377655989,
			"-0.013": 0.856305513518,
			"-0.012": 1.58785639342,
			"-0.011": 1.37541974582,
			"-0.01": 0.96391807357,
			"-0.009": 1.66183752769,
			"-0.008": 0.964832255969,
			"-0.007": 1.84386232166,
			"-0.006": 5.9499758699,
			"-0.005": 12.5921249887,
			"-0.004": 13.8938232471,
			"-0.003": 17.1568362844,
			"-0.002": 18.4628123393,
			"-0.001": 18.0491831737,
			"0.0": 14.941965984,
			"0.001": 12.0734751671,
			"0.002": 9.99813853446,
			"0.003": 9.86002170289,
			"0.004": 8.98452141019,
			"0.005": 10.6531271991,
			"0.006": 10.5314514988,
			"0.007": 5.22673043024,
			"0.008": 1.40487380858,
			"0.009": 1.82062757913,
			"0.01": 0.811348166166,
			"0.011": 1.33693657585,
			"0.012": 1.06163649935,
			"0.013": 1.59399656445,
			"0.014": 0.66689201022,
			"0.015": 0.819084138745,
			"0.016": 1.13379448775,
			"0.017": 0.949323035983,
			"0.018": 0.798490793382,
			"0.019": 0.0272117709584,
			"0.02": 0.0,
			"0.021": 0.0,
			"0.022": 0.0,
			"0.023": 0.0,
			"0.024": 0.0,
			"0.025": 0.0
		}
	}
}
