{
	 "smiles": "CNC(=O)OC1=CC(=CC(=C1)C(C)(C)C)C(C)(C)C", 
	 "Tm": 376.15, 
	 "num_atms": 44, 
	 "gaussian": { 
		 "optdone": 1, 
		 "sigma_profile": "yes", 
		 "theory": "DFT", 
		 "functional": "B3LYP", 
		 "basiset": "6-31G**", 
		 "properties": { 
			 "R2extent": 6776.8417, 
			 "electric_dipole_moment_norm": 2.21402005637, 
			 "electric_quadrupole_moment_norm": 16.7638203408, 
			 "total_energy": -830.018098265, 
			 "HOMO_LUMO_gap": 0.22721, 
			 "cosmo_polarized_energy": -10.93, 
			 "cosmo_cavitation_energy": 44.15, 
			 "cosmo_dispersion_energy": -29.78, 
			 "cosmo_repulsion_energy": 2.33, 
			 "cosmo_total_nonelectrostatic_energy": 16.7, 
			 "SMD_solvation_energy": 8.68 
		},
		"coords": [
			{
				"x": 5.7541235815,
				"y": 1.1080547033,
				"z": 0.4310036335,
				"element": "C" 
			},
			{
				"x": 4.4876021318,
				"y": 1.3109422587,
				"z": -0.2434123766,
				"element": "N" 
			},
			{
				"x": 3.359960786,
				"y": 0.6379335768,
				"z": 0.1126911517,
				"element": "C" 
			},
			{
				"x": 3.2602003469,
				"y": -0.1626686484,
				"z": 1.0204475269,
				"element": "O" 
			},
			{
				"x": 2.3438462135,
				"y": 1.0221421386,
				"z": -0.734355847,
				"element": "O" 
			},
			{
				"x": 1.0584225137,
				"y": 0.5002017953,
				"z": -0.5843563728,
				"element": "C" 
			},
			{
				"x": 0.4112881634,
				"y": 0.1548307436,
				"z": -1.7672742812,
				"element": "C" 
			},
			{
				"x": -0.9115368852,
				"y": -0.3009669888,
				"z": -1.7322951351,
				"element": "C" 
			},
			{
				"x": -1.534862491,
				"y": -0.3976870333,
				"z": -0.4797079774,
				"element": "C" 
			},
			{
				"x": -0.8920170539,
				"y": -0.0535283265,
				"z": 0.7185066277,
				"element": "C" 
			},
			{
				"x": 0.4278431725,
				"y": 0.4104839116,
				"z": 0.653612056,
				"element": "C" 
			},
			{
				"x": -1.6427794068,
				"y": -0.1942687998,
				"z": 2.0575042236,
				"element": "C" 
			},
			{
				"x": -2.9137117643,
				"y": 0.6876166438,
				"z": 2.033721244,
				"element": "C" 
			},
			{
				"x": -0.7811802937,
				"y": 0.2382307438,
				"z": 3.259226284,
				"element": "C" 
			},
			{
				"x": -2.0477666029,
				"y": -1.6733013393,
				"z": 2.2646779168,
				"element": "C" 
			},
			{
				"x": -1.6822164809,
				"y": -0.6944455101,
				"z": -3.0074145496,
				"element": "C" 
			},
			{
				"x": -0.8317035596,
				"y": -0.5237307873,
				"z": -4.2805461987,
				"element": "C" 
			},
			{
				"x": -2.1132925481,
				"y": -2.1773946731,
				"z": -2.9128134272,
				"element": "C" 
			},
			{
				"x": -2.9390219364,
				"y": 0.1973110821,
				"z": -3.1457839752,
				"element": "C" 
			},
			{
				"x": 6.4998593441,
				"y": 0.659960146,
				"z": -0.2362169354,
				"element": "H" 
			},
			{
				"x": 5.5780073306,
				"y": 0.429231101,
				"z": 1.2659335855,
				"element": "H" 
			},
			{
				"x": 6.1515090647,
				"y": 2.0527681882,
				"z": 0.8183079911,
				"element": "H" 
			},
			{
				"x": 4.426654123,
				"y": 1.9239494208,
				"z": -1.0415382168,
				"element": "H" 
			},
			{
				"x": 0.9606133692,
				"y": 0.2549471137,
				"z": -2.6948502515,
				"element": "H" 
			},
			{
				"x": -2.5587112337,
				"y": -0.7547396486,
				"z": -0.4354920913,
				"element": "H" 
			},
			{
				"x": 0.9767350379,
				"y": 0.6811003472,
				"z": 1.5427981926,
				"element": "H" 
			},
			{
				"x": -3.4599352208,
				"y": 0.5945414161,
				"z": 2.9793624874,
				"element": "H" 
			},
			{
				"x": -3.5951371661,
				"y": 0.4012716577,
				"z": 1.2271298398,
				"element": "H" 
			},
			{
				"x": -2.655380712,
				"y": 1.7424758784,
				"z": 1.893483548,
				"element": "H" 
			},
			{
				"x": -0.4855335656,
				"y": 1.2903807148,
				"z": 3.190611708,
				"element": "H" 
			},
			{
				"x": 0.1265930918,
				"y": -0.3667870543,
				"z": 3.3487713592,
				"element": "H" 
			},
			{
				"x": -1.3536364974,
				"y": 0.1168697042,
				"z": 4.1847201558,
				"element": "H" 
			},
			{
				"x": -2.5853758355,
				"y": -1.7922693856,
				"z": 3.2124088633,
				"element": "H" 
			},
			{
				"x": -2.7009083392,
				"y": -2.0330614369,
				"z": 1.4640612163,
				"element": "H" 
			},
			{
				"x": -1.1644979979,
				"y": -2.3195831727,
				"z": 2.2911107581,
				"element": "H" 
			},
			{
				"x": -0.5163635426,
				"y": 0.5150951136,
				"z": -4.4236130256,
				"element": "H" 
			},
			{
				"x": -1.4187579582,
				"y": -0.8138393148,
				"z": -5.158045555,
				"element": "H" 
			},
			{
				"x": 0.0636137603,
				"y": -1.1537467811,
				"z": -4.2598088045,
				"element": "H" 
			},
			{
				"x": -1.2412788282,
				"y": -2.8329055013,
				"z": -2.819433649,
				"element": "H" 
			},
			{
				"x": -2.7604616473,
				"y": -2.3593848495,
				"z": -2.0498798791,
				"element": "H" 
			},
			{
				"x": -2.6661424377,
				"y": -2.4721778706,
				"z": -3.8121438014,
				"element": "H" 
			},
			{
				"x": -3.6107948644,
				"y": 0.0899194255,
				"z": -2.2891424768,
				"element": "H" 
			},
			{
				"x": -2.6623615091,
				"y": 1.254035828,
				"z": -3.2220771709,
				"element": "H" 
			},
			{
				"x": -3.5016056526,
				"y": -0.0729065309,
				"z": -4.0467883712,
				"element": "H" 
			}
		],
		 "valence_orbital": [ 
			{
				"type": "occ",
				"energy": -0.29819,
				"method": "rhf"
			},
			{
				"type": "occ",
				"energy": -0.27201,
				"method": "rhf"
			},
			{
				"type": "occ",
				"energy": -0.2566,
				"method": "rhf"
			},
			{
				"type": "occ",
				"energy": -0.23279,
				"method": "rhf"
			},
			{
				"type": "occ",
				"energy": -0.22211,
				"method": "rhf"
			},
			{
				"type": "unocc",
				"energy": 0.0051,
				"method": "rhf"
			},
			{
				"type": "unocc",
				"energy": 0.00937,
				"method": "rhf"
			},
			{
				"type": "unocc",
				"energy": 0.0604,
				"method": "rhf"
			},
			{
				"type": "unocc",
				"energy": 0.07616,
				"method": "rhf"
			},
			{
				"type": "unocc",
				"energy": 0.09096,
				"method": "rhf"
			}
		],
		"cosmo_sigma_profile": { 
			"-0.025": 0.0,
			"-0.024": 0.0,
			"-0.023": 0.0,
			"-0.022": 0.0,
			"-0.021": 0.0,
			"-0.02": 0.0,
			"-0.019": 0.0,
			"-0.018": 0.0,
			"-0.017": 0.0,
			"-0.016": 0.0,
			"-0.015": 0.109570132025,
			"-0.014": 1.1621506043,
			"-0.013": 1.13961260931,
			"-0.012": 0.64216416888,
			"-0.011": 0.737756119515,
			"-0.01": 1.35092612537,
			"-0.009": 0.706373643581,
			"-0.008": 1.10224707289,
			"-0.007": 1.28247081862,
			"-0.006": 0.840501815881,
			"-0.005": 9.64749812534,
			"-0.004": 16.2425496122,
			"-0.003": 36.9596477431,
			"-0.002": 54.2425108079,
			"-0.001": 42.0678226755,
			"0.0": 39.5896494406,
			"0.001": 51.1698744823,
			"0.002": 26.7439228828,
			"0.003": 10.642034428,
			"0.004": 11.0999975683,
			"0.005": 10.5247434844,
			"0.006": 7.75872615553,
			"0.007": 3.02404712494,
			"0.008": 1.92846626637,
			"0.009": 1.12626786935,
			"0.01": 1.61564601695,
			"0.011": 2.10963005856,
			"0.012": 2.66315123405,
			"0.013": 4.48708673745,
			"0.014": 0.567448705828,
			"0.015": 0.0,
			"0.016": 0.0,
			"0.017": 0.0,
			"0.018": 0.0,
			"0.019": 0.0,
			"0.02": 0.0,
			"0.021": 0.0,
			"0.022": 0.0,
			"0.023": 0.0,
			"0.024": 0.0,
			"0.025": 0.0
		}
	}
}
