{
	 "smiles": "CC1=NC=CN1C1=NC2=C(C=CC=C2)C(=C1)C(O)=O", 
	 "Tm": 503.15, 
	 "num_atms": 30, 
	 "gaussian": { 
		 "optdone": 1, 
		 "sigma_profile": "yes", 
		 "theory": "DFT", 
		 "functional": "B3LYP", 
		 "basiset": "6-31G**", 
		 "properties": { 
			 "R2extent": 5618.2944, 
			 "electric_dipole_moment_norm": 5.01274271233, 
			 "electric_quadrupole_moment_norm": 18.2481051775, 
			 "total_energy": -854.834319585, 
			 "HOMO_LUMO_gap": 0.13448, 
			 "cosmo_polarized_energy": -18.41, 
			 "cosmo_cavitation_energy": 34.58, 
			 "cosmo_dispersion_energy": -24.92, 
			 "cosmo_repulsion_energy": 1.86, 
			 "cosmo_total_nonelectrostatic_energy": 11.52, 
			 "SMD_solvation_energy": 4.91 
		},
		"coords": [
			{
				"x": -1.0407112756,
				"y": 1.6677835487,
				"z": -3.0038952086,
				"element": "C" 
			},
			{
				"x": -1.2705799621,
				"y": 2.6904398209,
				"z": -1.9397053608,
				"element": "C" 
			},
			{
				"x": -1.7820733996,
				"y": 3.8786204486,
				"z": -2.1644016916,
				"element": "N" 
			},
			{
				"x": -1.8602992839,
				"y": 4.5096462356,
				"z": -0.9385934064,
				"element": "C" 
			},
			{
				"x": -1.4086346121,
				"y": 3.6940046321,
				"z": 0.0546573342,
				"element": "C" 
			},
			{
				"x": -1.017668557,
				"y": 2.5108061945,
				"z": -0.5770084482,
				"element": "N" 
			},
			{
				"x": -0.493203316,
				"y": 1.3775851118,
				"z": 0.078028758,
				"element": "C" 
			},
			{
				"x": 0.2868150828,
				"y": 0.5750794656,
				"z": -0.6109207424,
				"element": "N" 
			},
			{
				"x": 0.8196032748,
				"y": -0.5130548531,
				"z": 0.0122726497,
				"element": "C" 
			},
			{
				"x": 0.5669101982,
				"y": -0.829860287,
				"z": 1.3885172627,
				"element": "C" 
			},
			{
				"x": 1.2416942017,
				"y": -1.9413942739,
				"z": 1.9651663868,
				"element": "C" 
			},
			{
				"x": 2.0851623487,
				"y": -2.7236026932,
				"z": 1.2042558428,
				"element": "C" 
			},
			{
				"x": 2.2992170414,
				"y": -2.4321300225,
				"z": -0.1625223872,
				"element": "C" 
			},
			{
				"x": 1.6849973526,
				"y": -1.3458949424,
				"z": -0.7441389969,
				"element": "C" 
			},
			{
				"x": -0.3370443292,
				"y": 0.0393500818,
				"z": 2.0824489467,
				"element": "C" 
			},
			{
				"x": -0.8424999578,
				"y": 1.1435108878,
				"z": 1.4377761016,
				"element": "C" 
			},
			{
				"x": -0.8147166162,
				"y": -0.1753276611,
				"z": 3.497645164,
				"element": "C" 
			},
			{
				"x": -1.0547603618,
				"y": -1.4579920066,
				"z": 3.8711298646,
				"element": "O" 
			},
			{
				"x": -1.0190473531,
				"y": 0.7328175973,
				"z": 4.2644967968,
				"element": "O" 
			},
			{
				"x": -1.4788484709,
				"y": 2.0552896267,
				"z": -3.9251095375,
				"element": "H" 
			},
			{
				"x": -1.50651485,
				"y": 0.7082078329,
				"z": -2.7589536728,
				"element": "H" 
			},
			{
				"x": 0.0237576767,
				"y": 1.4744963746,
				"z": -3.1582266794,
				"element": "H" 
			},
			{
				"x": -2.2347449383,
				"y": 5.5197419257,
				"z": -0.8476044038,
				"element": "H" 
			},
			{
				"x": -1.2792130754,
				"y": 3.847265357,
				"z": 1.1136695281,
				"element": "H" 
			},
			{
				"x": 1.1249206239,
				"y": -2.1571736427,
				"z": 3.0221478441,
				"element": "H" 
			},
			{
				"x": 2.5983507466,
				"y": -3.5632800324,
				"z": 1.6627747183,
				"element": "H" 
			},
			{
				"x": 2.9642819178,
				"y": -3.0593908151,
				"z": -0.7482753323,
				"element": "H" 
			},
			{
				"x": 1.8508019515,
				"y": -1.0827185623,
				"z": -1.7833252333,
				"element": "H" 
			},
			{
				"x": -1.5304925153,
				"y": 1.7944672152,
				"z": 1.9617329677,
				"element": "H" 
			},
			{
				"x": -0.951159542,
				"y": -2.0534925645,
				"z": 3.1140609352,
				"element": "H" 
			}
		],
		 "valence_orbital": [ 
			{
				"type": "occ",
				"energy": -0.28543,
				"method": "rhf"
			},
			{
				"type": "occ",
				"energy": -0.26725,
				"method": "rhf"
			},
			{
				"type": "occ",
				"energy": -0.26336,
				"method": "rhf"
			},
			{
				"type": "occ",
				"energy": -0.2506,
				"method": "rhf"
			},
			{
				"type": "occ",
				"energy": -0.22507,
				"method": "rhf"
			},
			{
				"type": "unocc",
				"energy": -0.09059,
				"method": "rhf"
			},
			{
				"type": "unocc",
				"energy": -0.04694,
				"method": "rhf"
			},
			{
				"type": "unocc",
				"energy": -0.02781,
				"method": "rhf"
			},
			{
				"type": "unocc",
				"energy": 0.00813,
				"method": "rhf"
			},
			{
				"type": "unocc",
				"energy": 0.03967,
				"method": "rhf"
			}
		],
		"cosmo_sigma_profile": { 
			"-0.025": 0.0,
			"-0.024": 0.0,
			"-0.023": 0.0,
			"-0.022": 0.0,
			"-0.021": 0.0,
			"-0.02": 0.0,
			"-0.019": 0.0,
			"-0.018": 0.393641055593,
			"-0.017": 0.866382007368,
			"-0.016": 0.891371890511,
			"-0.015": 0.675075478187,
			"-0.014": 1.22365718366,
			"-0.013": 0.744278402986,
			"-0.012": 0.950483564365,
			"-0.011": 1.42471291309,
			"-0.01": 2.14897459058,
			"-0.009": 3.06607643162,
			"-0.008": 3.81117155889,
			"-0.007": 9.80188926052,
			"-0.006": 15.4420408072,
			"-0.005": 17.5053220156,
			"-0.004": 16.8922471165,
			"-0.003": 19.9345969326,
			"-0.002": 21.555072839,
			"-0.001": 20.9614714515,
			"0.0": 20.4467612033,
			"0.001": 20.0675165218,
			"0.002": 19.1398350718,
			"0.003": 17.0154943445,
			"0.004": 9.05376906116,
			"0.005": 10.0194535207,
			"0.006": 7.35350480799,
			"0.007": 4.73654243725,
			"0.008": 5.26162438834,
			"0.009": 6.48876297786,
			"0.01": 5.53890097572,
			"0.011": 6.55529859338,
			"0.012": 2.78095549382,
			"0.013": 1.31410861972,
			"0.014": 1.22055432097,
			"0.015": 0.633821669968,
			"0.016": 1.06057113558,
			"0.017": 0.864545534742,
			"0.018": 0.459978205621,
			"0.019": 0.0,
			"0.02": 0.0,
			"0.021": 0.0,
			"0.022": 0.0,
			"0.023": 0.0,
			"0.024": 0.0,
			"0.025": 0.0
		}
	}
}
