{
	 "smiles": "COC1=CC(=CC(OC)=C1OC)C(Cl)=O", 
	 "Tm": 353.15, 
	 "num_atms": 26, 
	 "gaussian": { 
		 "optdone": 1, 
		 "sigma_profile": "yes", 
		 "theory": "DFT", 
		 "functional": "B3LYP", 
		 "basiset": "6-31G**", 
		 "properties": { 
			 "R2extent": 5721.8527, 
			 "electric_dipole_moment_norm": 3.44629405159, 
			 "electric_quadrupole_moment_norm": 23.1209117273, 
			 "total_energy": -1148.74239989, 
			 "HOMO_LUMO_gap": 0.16098, 
			 "cosmo_polarized_energy": -11.12, 
			 "cosmo_cavitation_energy": 32.16, 
			 "cosmo_dispersion_energy": -22.89, 
			 "cosmo_repulsion_energy": 1.82, 
			 "cosmo_total_nonelectrostatic_energy": 11.09, 
			 "SMD_solvation_energy": 8.59 
		},
		"coords": [
			{
				"x": -3.0235182999,
				"y": 0.2863947806,
				"z": 2.2714781183,
				"element": "C" 
			},
			{
				"x": -1.6342859304,
				"y": 0.0295387913,
				"z": 2.1087873262,
				"element": "O" 
			},
			{
				"x": -1.2484745075,
				"y": -0.7836672415,
				"z": 1.0869635974,
				"element": "C" 
			},
			{
				"x": -2.1242980106,
				"y": -1.4126460858,
				"z": 0.203686689,
				"element": "C" 
			},
			{
				"x": -1.6100618773,
				"y": -2.2188980116,
				"z": -0.8252595271,
				"element": "C" 
			},
			{
				"x": -0.2306715143,
				"y": -2.4024439863,
				"z": -0.9767469593,
				"element": "C" 
			},
			{
				"x": 0.6462728112,
				"y": -1.778984711,
				"z": -0.0850706973,
				"element": "C" 
			},
			{
				"x": 1.9988382823,
				"y": -1.8962497502,
				"z": -0.1283757062,
				"element": "O" 
			},
			{
				"x": 2.5693122232,
				"y": -2.678233491,
				"z": -1.1684477136,
				"element": "C" 
			},
			{
				"x": 0.1449949506,
				"y": -0.9623108095,
				"z": 0.9501548526,
				"element": "C" 
			},
			{
				"x": 1.0278287661,
				"y": -0.3103013553,
				"z": 1.755507538,
				"element": "O" 
			},
			{
				"x": 1.1066439386,
				"y": -0.7692373131,
				"z": 3.1103507916,
				"element": "C" 
			},
			{
				"x": -2.6167801373,
				"y": -2.8394756786,
				"z": -1.7106075972,
				"element": "C" 
			},
			{
				"x": -1.9374135119,
				"y": -3.8928966721,
				"z": -3.0588684577,
				"element": "Cl" 
			},
			{
				"x": -3.8034971541,
				"y": -2.7222174054,
				"z": -1.6313750501,
				"element": "O" 
			},
			{
				"x": -3.1031265657,
				"y": 0.9669076964,
				"z": 3.1200127782,
				"element": "H" 
			},
			{
				"x": -3.5816837857,
				"y": -0.6326148099,
				"z": 2.4891463156,
				"element": "H" 
			},
			{
				"x": -3.4493947793,
				"y": 0.7647962344,
				"z": 1.3812693222,
				"element": "H" 
			},
			{
				"x": -3.1962386948,
				"y": -1.2932864019,
				"z": 0.2813428111,
				"element": "H" 
			},
			{
				"x": 0.1387247673,
				"y": -3.031390685,
				"z": -1.7731513879,
				"element": "H" 
			},
			{
				"x": 2.3164667666,
				"y": -2.2791353585,
				"z": -2.1586383735,
				"element": "H" 
			},
			{
				"x": 3.6489123453,
				"y": -2.6234636414,
				"z": -1.0231833297,
				"element": "H" 
			},
			{
				"x": 2.2490537858,
				"y": -3.7262974385,
				"z": -1.110277818,
				"element": "H" 
			},
			{
				"x": 1.8681365061,
				"y": -0.1529523079,
				"z": 3.5913313382,
				"element": "H" 
			},
			{
				"x": 0.1518072721,
				"y": -0.644631805,
				"z": 3.6291402112,
				"element": "H" 
			},
			{
				"x": 1.4164523537,
				"y": -1.8205025433,
				"z": 3.1462309278,
				"element": "H" 
			}
		],
		 "valence_orbital": [ 
			{
				"type": "occ",
				"energy": -0.31355,
				"method": "rhf"
			},
			{
				"type": "occ",
				"energy": -0.28849,
				"method": "rhf"
			},
			{
				"type": "occ",
				"energy": -0.28183,
				"method": "rhf"
			},
			{
				"type": "occ",
				"energy": -0.2361,
				"method": "rhf"
			},
			{
				"type": "occ",
				"energy": -0.23059,
				"method": "rhf"
			},
			{
				"type": "unocc",
				"energy": -0.06961,
				"method": "rhf"
			},
			{
				"type": "unocc",
				"energy": 0.0038,
				"method": "rhf"
			},
			{
				"type": "unocc",
				"energy": 0.02179,
				"method": "rhf"
			},
			{
				"type": "unocc",
				"energy": 0.03839,
				"method": "rhf"
			},
			{
				"type": "unocc",
				"energy": 0.07443,
				"method": "rhf"
			}
		],
		"cosmo_sigma_profile": { 
			"-0.025": 0.0,
			"-0.024": 0.0,
			"-0.023": 0.0,
			"-0.022": 0.0,
			"-0.021": 0.0,
			"-0.02": 0.0,
			"-0.019": 0.0,
			"-0.018": 0.0,
			"-0.017": 0.0,
			"-0.016": 0.0,
			"-0.015": 0.0,
			"-0.014": 0.0,
			"-0.013": 0.0,
			"-0.012": 0.0,
			"-0.011": 0.0,
			"-0.01": 0.0,
			"-0.009": 0.0,
			"-0.008": 0.0468243959372,
			"-0.007": 4.00170698725,
			"-0.006": 18.3051106954,
			"-0.005": 22.2052462479,
			"-0.004": 25.9737061182,
			"-0.003": 26.5835244915,
			"-0.002": 17.3190417422,
			"-0.001": 16.4165948161,
			"0.0": 19.0357590026,
			"0.001": 21.5657902444,
			"0.002": 19.2658135559,
			"0.003": 10.4167951787,
			"0.004": 12.2097780822,
			"0.005": 11.0538082724,
			"0.006": 6.42715689267,
			"0.007": 5.58222553596,
			"0.008": 6.01179659561,
			"0.009": 7.02939608568,
			"0.01": 4.0490834123,
			"0.011": 2.35401299168,
			"0.012": 1.30904916933,
			"0.013": 1.06391881817,
			"0.014": 0.160012165644,
			"0.015": 0.0,
			"0.016": 0.0,
			"0.017": 0.0,
			"0.018": 0.0,
			"0.019": 0.0,
			"0.02": 0.0,
			"0.021": 0.0,
			"0.022": 0.0,
			"0.023": 0.0,
			"0.024": 0.0,
			"0.025": 0.0
		}
	}
}
