{
	 "smiles": "CCN(CC)CC(=O)NC1=C(C)C=C(C)C=C1C", 
	 "Tm": 317.15, 
	 "num_atms": 42, 
	 "gaussian": { 
		 "optdone": 1, 
		 "sigma_profile": "yes", 
		 "theory": "DFT", 
		 "functional": "B3LYP", 
		 "basiset": "6-31G**", 
		 "properties": { 
			 "R2extent": 6592.4992, 
			 "electric_dipole_moment_norm": 2.74742661594, 
			 "electric_quadrupole_moment_norm": 4.52446971036, 
			 "total_energy": -770.81846972, 
			 "HOMO_LUMO_gap": 0.19642, 
			 "cosmo_polarized_energy": -13.38, 
			 "cosmo_cavitation_energy": 42.5, 
			 "cosmo_dispersion_energy": -28.77, 
			 "cosmo_repulsion_energy": 2.25, 
			 "cosmo_total_nonelectrostatic_energy": 15.97, 
			 "SMD_solvation_energy": 5.51 
		},
		"coords": [
			{
				"x": -3.2309348406,
				"y": -3.3418300916,
				"z": -0.874108425,
				"element": "C" 
			},
			{
				"x": -2.2085266024,
				"y": -2.2924970116,
				"z": -0.429319832,
				"element": "C" 
			},
			{
				"x": -0.8239613991,
				"y": -2.6522118795,
				"z": -0.7522505562,
				"element": "N" 
			},
			{
				"x": -0.5540646913,
				"y": -2.621236891,
				"z": -2.2007137746,
				"element": "C" 
			},
			{
				"x": 0.8592699873,
				"y": -3.0652981312,
				"z": -2.5739578198,
				"element": "C" 
			},
			{
				"x": 0.1402436129,
				"y": -1.9454350539,
				"z": 0.0863960464,
				"element": "C" 
			},
			{
				"x": 0.2020152074,
				"y": -0.4185414736,
				"z": -0.1121532622,
				"element": "C" 
			},
			{
				"x": 0.4816533277,
				"y": 0.0783483515,
				"z": -1.1968002955,
				"element": "O" 
			},
			{
				"x": -0.0663569935,
				"y": 0.3251923846,
				"z": 1.0160099769,
				"element": "N" 
			},
			{
				"x": -0.1412921662,
				"y": 1.7505364547,
				"z": 1.0787759898,
				"element": "C" 
			},
			{
				"x": 0.982852525,
				"y": 2.5436614548,
				"z": 0.7814268853,
				"element": "C" 
			},
			{
				"x": 2.3045638527,
				"y": 1.9363944732,
				"z": 0.3869891571,
				"element": "C" 
			},
			{
				"x": 0.8521913485,
				"y": 3.9334859847,
				"z": 0.8812136454,
				"element": "C" 
			},
			{
				"x": -0.3367721643,
				"y": 4.547543929,
				"z": 1.2824485771,
				"element": "C" 
			},
			{
				"x": -0.4501726305,
				"y": 6.0523407703,
				"z": 1.352845862,
				"element": "C" 
			},
			{
				"x": -1.4244950333,
				"y": 3.7280366961,
				"z": 1.5994007932,
				"element": "C" 
			},
			{
				"x": -1.3510414056,
				"y": 2.3368210526,
				"z": 1.4992432342,
				"element": "C" 
			},
			{
				"x": -2.5514554252,
				"y": 1.4838186198,
				"z": 1.837232796,
				"element": "C" 
			},
			{
				"x": -3.3178605773,
				"y": -3.4053484635,
				"z": -1.9622691883,
				"element": "H" 
			},
			{
				"x": -2.9519222602,
				"y": -4.3296261473,
				"z": -0.4949597332,
				"element": "H" 
			},
			{
				"x": -4.2214476958,
				"y": -3.0860968878,
				"z": -0.4835111379,
				"element": "H" 
			},
			{
				"x": -2.272881036,
				"y": -2.1958285247,
				"z": 0.6618892432,
				"element": "H" 
			},
			{
				"x": -2.4888371096,
				"y": -1.3067592648,
				"z": -0.8486759805,
				"element": "H" 
			},
			{
				"x": -0.7427099967,
				"y": -1.6226561155,
				"z": -2.6256404506,
				"element": "H" 
			},
			{
				"x": -1.2658852824,
				"y": -3.3115688095,
				"z": -2.6649725092,
				"element": "H" 
			},
			{
				"x": 1.6022055725,
				"y": -2.3116968047,
				"z": -2.2997056988,
				"element": "H" 
			},
			{
				"x": 1.1153921018,
				"y": -4.0149501561,
				"z": -2.0921073669,
				"element": "H" 
			},
			{
				"x": 0.9235828248,
				"y": -3.2061416269,
				"z": -3.6575300199,
				"element": "H" 
			},
			{
				"x": -0.07800121,
				"y": -2.1934996358,
				"z": 1.1332659054,
				"element": "H" 
			},
			{
				"x": 1.143118295,
				"y": -2.3283468446,
				"z": -0.1241915426,
				"element": "H" 
			},
			{
				"x": -0.4344480263,
				"y": -0.1812126968,
				"z": 1.8090277607,
				"element": "H" 
			},
			{
				"x": 2.5643553495,
				"y": 1.0965266503,
				"z": 1.040888053,
				"element": "H" 
			},
			{
				"x": 2.260815916,
				"y": 1.5431583762,
				"z": -0.6330583042,
				"element": "H" 
			},
			{
				"x": 3.1050041406,
				"y": 2.6784231837,
				"z": 0.4483405681,
				"element": "H" 
			},
			{
				"x": 1.7169610077,
				"y": 4.5519324637,
				"z": 0.6508633747,
				"element": "H" 
			},
			{
				"x": 0.5145377934,
				"y": 6.5162436851,
				"z": 1.5799697508,
				"element": "H" 
			},
			{
				"x": -1.1657521879,
				"y": 6.3657238032,
				"z": 2.1192432119,
				"element": "H" 
			},
			{
				"x": -0.7937556891,
				"y": 6.4691366984,
				"z": 0.3976153102,
				"element": "H" 
			},
			{
				"x": -2.3584834214,
				"y": 4.1815474578,
				"z": 1.9240176655,
				"element": "H" 
			},
			{
				"x": -2.7894231326,
				"y": 0.7849201263,
				"z": 1.0280268211,
				"element": "H" 
			},
			{
				"x": -3.4309284046,
				"y": 2.1069608223,
				"z": 2.0172792996,
				"element": "H" 
			},
			{
				"x": -2.3926534808,
				"y": 0.8838290722,
				"z": 2.7442159696,
				"element": "H" 
			}
		],
		 "valence_orbital": [ 
			{
				"type": "occ",
				"energy": -0.27512,
				"method": "rhf"
			},
			{
				"type": "occ",
				"energy": -0.25918,
				"method": "rhf"
			},
			{
				"type": "occ",
				"energy": -0.23351,
				"method": "rhf"
			},
			{
				"type": "occ",
				"energy": -0.22091,
				"method": "rhf"
			},
			{
				"type": "occ",
				"energy": -0.20048,
				"method": "rhf"
			},
			{
				"type": "unocc",
				"energy": -0.00406,
				"method": "rhf"
			},
			{
				"type": "unocc",
				"energy": 0.00726,
				"method": "rhf"
			},
			{
				"type": "unocc",
				"energy": 0.02849,
				"method": "rhf"
			},
			{
				"type": "unocc",
				"energy": 0.05717,
				"method": "rhf"
			},
			{
				"type": "unocc",
				"energy": 0.10132,
				"method": "rhf"
			}
		],
		"cosmo_sigma_profile": { 
			"-0.025": 0.0,
			"-0.024": 0.0,
			"-0.023": 0.0,
			"-0.022": 0.0,
			"-0.021": 0.0,
			"-0.02": 0.0,
			"-0.019": 0.0,
			"-0.018": 0.0,
			"-0.017": 0.0,
			"-0.016": 0.0,
			"-0.015": 0.0,
			"-0.014": 0.43224041802,
			"-0.013": 0.961103746668,
			"-0.012": 1.39337763368,
			"-0.011": 1.52969759689,
			"-0.01": 1.68547122332,
			"-0.009": 1.68982244623,
			"-0.008": 2.08222223901,
			"-0.007": 1.85866661736,
			"-0.006": 2.85194909651,
			"-0.005": 8.1589749967,
			"-0.004": 22.3623364117,
			"-0.003": 34.0420673057,
			"-0.002": 41.1970900034,
			"-0.001": 45.3806549741,
			"0.0": 47.6878569117,
			"0.001": 37.8283542379,
			"0.002": 18.0023070203,
			"0.003": 9.77369680858,
			"0.004": 9.31826231838,
			"0.005": 8.61381471148,
			"0.006": 10.3835741382,
			"0.007": 5.00376387565,
			"0.008": 2.58592302336,
			"0.009": 2.69584889124,
			"0.01": 2.88891267543,
			"0.011": 2.33937601038,
			"0.012": 2.73086253102,
			"0.013": 2.49718596289,
			"0.014": 2.41411255761,
			"0.015": 0.607409261431,
			"0.016": 0.028488260167,
			"0.017": 0.0,
			"0.018": 0.0,
			"0.019": 0.0,
			"0.02": 0.0,
			"0.021": 0.0,
			"0.022": 0.0,
			"0.023": 0.0,
			"0.024": 0.0,
			"0.025": 0.0
		}
	}
}
