{
	 "smiles": "O=C(OC1=CC=CC=C1)C1=CC=CN=C1", 
	 "Tm": 345.15, 
	 "num_atms": 24, 
	 "gaussian": { 
		 "optdone": 1, 
		 "sigma_profile": "yes", 
		 "theory": "DFT", 
		 "functional": "B3LYP", 
		 "basiset": "6-31G**", 
		 "properties": { 
			 "R2extent": 4281.2109, 
			 "electric_dipole_moment_norm": 3.37224704463, 
			 "electric_quadrupole_moment_norm": 13.0104347249, 
			 "total_energy": -667.900659656, 
			 "HOMO_LUMO_gap": 0.18166, 
			 "cosmo_polarized_energy": -10.0, 
			 "cosmo_cavitation_energy": 29.41, 
			 "cosmo_dispersion_energy": -21.47, 
			 "cosmo_repulsion_energy": 1.66, 
			 "cosmo_total_nonelectrostatic_energy": 9.6, 
			 "SMD_solvation_energy": 4.63 
		},
		"coords": [
			{
				"x": 0.0985882905,
				"y": -0.484729103,
				"z": -1.7139257954,
				"element": "O" 
			},
			{
				"x": -0.696441645,
				"y": -0.0972655648,
				"z": -0.8878550245,
				"element": "C" 
			},
			{
				"x": -0.380316373,
				"y": 0.7041068555,
				"z": 0.1745025072,
				"element": "O" 
			},
			{
				"x": 0.93048647,
				"y": 1.1421715757,
				"z": 0.3849888563,
				"element": "C" 
			},
			{
				"x": 1.3858238967,
				"y": 1.081275126,
				"z": 1.7007841762,
				"element": "C" 
			},
			{
				"x": 2.6548077612,
				"y": 1.5722016377,
				"z": 2.0077745211,
				"element": "C" 
			},
			{
				"x": 3.4581763402,
				"y": 2.116443615,
				"z": 1.0039686871,
				"element": "C" 
			},
			{
				"x": 2.9844611302,
				"y": 2.1713628798,
				"z": -0.3084031988,
				"element": "C" 
			},
			{
				"x": 1.715408207,
				"y": 1.6878103385,
				"z": -0.630680812,
				"element": "C" 
			},
			{
				"x": -2.146378116,
				"y": -0.4314617588,
				"z": -0.8909169151,
				"element": "C" 
			},
			{
				"x": -3.0520056231,
				"y": 0.0413216978,
				"z": 0.0660962662,
				"element": "C" 
			},
			{
				"x": -4.3868242535,
				"y": -0.3375048193,
				"z": -0.040512018,
				"element": "C" 
			},
			{
				"x": -4.7620158435,
				"y": -1.1719675474,
				"z": -1.0958592599,
				"element": "C" 
			},
			{
				"x": -3.9092999217,
				"y": -1.6343939842,
				"z": -2.0208378387,
				"element": "N" 
			},
			{
				"x": -2.6308011611,
				"y": -1.2647009413,
				"z": -1.9106494655,
				"element": "C" 
			},
			{
				"x": 0.7430428577,
				"y": 0.6548002809,
				"z": 2.4638500172,
				"element": "H" 
			},
			{
				"x": 3.0131694543,
				"y": 1.5272689458,
				"z": 3.0318933747,
				"element": "H" 
			},
			{
				"x": 4.4468889882,
				"y": 2.4963161159,
				"z": 1.2426169383,
				"element": "H" 
			},
			{
				"x": 3.6044541773,
				"y": 2.5945675467,
				"z": -1.0931786327,
				"element": "H" 
			},
			{
				"x": 1.3483894832,
				"y": 1.7227222961,
				"z": -1.6480286367,
				"element": "H" 
			},
			{
				"x": -2.7104776938,
				"y": 0.6872864042,
				"z": 0.8668480249,
				"element": "H" 
			},
			{
				"x": -5.1255864733,
				"y": 0.0043290166,
				"z": 0.6772248047,
				"element": "H" 
			},
			{
				"x": -5.7990476399,
				"y": -1.4849652762,
				"z": -1.2045217036,
				"element": "H" 
			},
			{
				"x": -1.9387023126,
				"y": -1.6387953372,
				"z": -2.6606788729,
				"element": "H" 
			}
		],
		 "valence_orbital": [ 
			{
				"type": "occ",
				"energy": -0.28986,
				"method": "rhf"
			},
			{
				"type": "occ",
				"energy": -0.27491,
				"method": "rhf"
			},
			{
				"type": "occ",
				"energy": -0.26286,
				"method": "rhf"
			},
			{
				"type": "occ",
				"energy": -0.25695,
				"method": "rhf"
			},
			{
				"type": "occ",
				"energy": -0.24501,
				"method": "rhf"
			},
			{
				"type": "unocc",
				"energy": -0.06335,
				"method": "rhf"
			},
			{
				"type": "unocc",
				"energy": -0.03167,
				"method": "rhf"
			},
			{
				"type": "unocc",
				"energy": -0.00815,
				"method": "rhf"
			},
			{
				"type": "unocc",
				"energy": -0.00292,
				"method": "rhf"
			},
			{
				"type": "unocc",
				"energy": 0.04324,
				"method": "rhf"
			}
		],
		"cosmo_sigma_profile": { 
			"-0.025": 0.0,
			"-0.024": 0.0,
			"-0.023": 0.0,
			"-0.022": 0.0,
			"-0.021": 0.0,
			"-0.02": 0.0,
			"-0.019": 0.0,
			"-0.018": 0.0,
			"-0.017": 0.0,
			"-0.016": 0.0,
			"-0.015": 0.0,
			"-0.014": 0.0,
			"-0.013": 0.0,
			"-0.012": 0.0,
			"-0.011": 0.0,
			"-0.01": 0.0,
			"-0.009": 0.0,
			"-0.008": 1.36153697166,
			"-0.007": 8.74681848535,
			"-0.006": 16.6837517335,
			"-0.005": 18.5384484281,
			"-0.004": 17.8778591564,
			"-0.003": 16.1789074155,
			"-0.002": 16.5142384238,
			"-0.001": 18.8301132078,
			"0.0": 23.3448468825,
			"0.001": 21.1154871545,
			"0.002": 15.6446724133,
			"0.003": 13.2005563588,
			"0.004": 14.0483203068,
			"0.005": 10.3195914438,
			"0.006": 3.1453113202,
			"0.007": 3.20085291312,
			"0.008": 2.5903602366,
			"0.009": 3.18192574783,
			"0.01": 4.11208465279,
			"0.011": 4.89428695695,
			"0.012": 1.01319405134,
			"0.013": 0.475002198632,
			"0.014": 1.10257839384,
			"0.015": 0.783014348726,
			"0.016": 0.480680470263,
			"0.017": 0.0,
			"0.018": 0.0,
			"0.019": 0.0,
			"0.02": 0.0,
			"0.021": 0.0,
			"0.022": 0.0,
			"0.023": 0.0,
			"0.024": 0.0,
			"0.025": 0.0
		}
	}
}
