{
	 "smiles": "C1=CC=C2N=CC=CC2=C1", 
	 "Tm": 258.25, 
	 "num_atms": 17, 
	 "gaussian": { 
		 "optdone": 1, 
		 "sigma_profile": "yes", 
		 "theory": "DFT", 
		 "functional": "B3LYP", 
		 "basiset": "6-31G**", 
		 "properties": { 
			 "R2extent": 1534.9329, 
			 "electric_dipole_moment_norm": 2.00528387267, 
			 "electric_quadrupole_moment_norm": 6.90270335811, 
			 "total_energy": -401.93282401, 
			 "HOMO_LUMO_gap": 0.18009, 
			 "cosmo_polarized_energy": -6.65, 
			 "cosmo_cavitation_energy": 20.69, 
			 "cosmo_dispersion_energy": -15.76, 
			 "cosmo_repulsion_energy": 1.25, 
			 "cosmo_total_nonelectrostatic_energy": 6.17, 
			 "SMD_solvation_energy": 1.96 
		},
		"coords": [
			{
				"x": 2.0249946143,
				"y": -0.0421191235,
				"z": -2.9306379279,
				"element": "C" 
			},
			{
				"x": 2.571742955,
				"y": 1.0503815523,
				"z": -2.2109127836,
				"element": "C" 
			},
			{
				"x": 2.0780467404,
				"y": 1.3889750606,
				"z": -0.9711833552,
				"element": "C" 
			},
			{
				"x": 1.0123206219,
				"y": 0.6483995079,
				"z": -0.3933864426,
				"element": "C" 
			},
			{
				"x": 0.5540086124,
				"y": 1.0196004906,
				"z": 0.8387345308,
				"element": "N" 
			},
			{
				"x": -0.4349645022,
				"y": 0.3223367777,
				"z": 1.3606737386,
				"element": "C" 
			},
			{
				"x": -1.0525802242,
				"y": -0.7861191273,
				"z": 0.7266905904,
				"element": "C" 
			},
			{
				"x": -0.602504099,
				"y": -1.171891283,
				"z": -0.5135956744,
				"element": "C" 
			},
			{
				"x": 0.4602986174,
				"y": -0.4552705556,
				"z": -1.1210111469,
				"element": "C" 
			},
			{
				"x": 0.9916516949,
				"y": -0.7791351821,
				"z": -2.3974561023,
				"element": "C" 
			},
			{
				"x": 2.4267272437,
				"y": -0.2952206276,
				"z": -3.9074491505,
				"element": "H" 
			},
			{
				"x": 3.3868415115,
				"y": 1.6215135894,
				"z": -2.6460200241,
				"element": "H" 
			},
			{
				"x": 2.4789360994,
				"y": 2.2202195458,
				"z": -0.4003107823,
				"element": "H" 
			},
			{
				"x": -0.7827217476,
				"y": 0.6379774862,
				"z": 2.3441202017,
				"element": "H" 
			},
			{
				"x": -1.8635005514,
				"y": -1.309797816,
				"z": 1.2231190411,
				"element": "H" 
			},
			{
				"x": -1.046443982,
				"y": -2.0156870017,
				"z": -1.0364131122,
				"element": "H" 
			},
			{
				"x": 0.5689463957,
				"y": -1.6177632937,
				"z": -2.9453616007,
				"element": "H" 
			}
		],
		 "valence_orbital": [ 
			{
				"type": "occ",
				"energy": -0.34034,
				"method": "rhf"
			},
			{
				"type": "occ",
				"energy": -0.3046,
				"method": "rhf"
			},
			{
				"type": "occ",
				"energy": -0.25186,
				"method": "rhf"
			},
			{
				"type": "occ",
				"energy": -0.25006,
				"method": "rhf"
			},
			{
				"type": "occ",
				"energy": -0.23147,
				"method": "rhf"
			},
			{
				"type": "unocc",
				"energy": -0.05138,
				"method": "rhf"
			},
			{
				"type": "unocc",
				"energy": -0.01463,
				"method": "rhf"
			},
			{
				"type": "unocc",
				"energy": 0.02161,
				"method": "rhf"
			},
			{
				"type": "unocc",
				"energy": 0.09093,
				"method": "rhf"
			},
			{
				"type": "unocc",
				"energy": 0.09391,
				"method": "rhf"
			}
		],
		"cosmo_sigma_profile": { 
			"-0.025": 0.0,
			"-0.024": 0.0,
			"-0.023": 0.0,
			"-0.022": 0.0,
			"-0.021": 0.0,
			"-0.02": 0.0,
			"-0.019": 0.0,
			"-0.018": 0.0,
			"-0.017": 0.0,
			"-0.016": 0.0,
			"-0.015": 0.0,
			"-0.014": 0.0,
			"-0.013": 0.0,
			"-0.012": 0.0,
			"-0.011": 0.0,
			"-0.01": 0.0,
			"-0.009": 0.0,
			"-0.008": 0.0057658227064,
			"-0.007": 4.84056496956,
			"-0.006": 14.9166827467,
			"-0.005": 14.3536561489,
			"-0.004": 13.6829403978,
			"-0.003": 11.3284585809,
			"-0.002": 8.63591226593,
			"-0.001": 8.26446064578,
			"0.0": 9.87327338483,
			"0.001": 11.8067091002,
			"0.002": 19.9894323924,
			"0.003": 18.4948273002,
			"0.004": 13.16943794,
			"0.005": 5.42201845344,
			"0.006": 1.63032709833,
			"0.007": 1.29076644308,
			"0.008": 1.81836643474,
			"0.009": 1.10474009359,
			"0.01": 0.835317290219,
			"0.011": 1.19156202771,
			"0.012": 0.448768637311,
			"0.013": 1.13207253315,
			"0.014": 1.03464297458,
			"0.015": 0.491380963378,
			"0.016": 0.801834774981,
			"0.017": 0.164144528706,
			"0.018": 0.0,
			"0.019": 0.0,
			"0.02": 0.0,
			"0.021": 0.0,
			"0.022": 0.0,
			"0.023": 0.0,
			"0.024": 0.0,
			"0.025": 0.0
		}
	}
}
