{
	 "smiles": "BrC1=CC=C(C=C1)N=C=S", 
	 "Tm": 332.35, 
	 "num_atms": 14, 
	 "gaussian": { 
		 "optdone": 1, 
		 "sigma_profile": "yes", 
		 "theory": "DFT", 
		 "functional": "B3LYP", 
		 "basiset": "6-31G**", 
		 "properties": { 
			 "R2extent": 5816.5059, 
			 "electric_dipole_moment_norm": 2.07435914441, 
			 "electric_quadrupole_moment_norm": 14.1110794474, 
			 "total_energy": -3293.49163881, 
			 "HOMO_LUMO_gap": 0.17589, 
			 "cosmo_polarized_energy": -5.72, 
			 "cosmo_cavitation_energy": 24.24, 
			 "cosmo_dispersion_energy": -18.6, 
			 "cosmo_repulsion_energy": 1.48, 
			 "cosmo_total_nonelectrostatic_energy": 7.12, 
			 "SMD_solvation_energy": 3.64 
		},
		"coords": [
			{
				"x": 0.5583130071,
				"y": -3.886047194,
				"z": 0.347366505,
				"element": "Br" 
			},
			{
				"x": -0.6426182749,
				"y": -2.4639216847,
				"z": -0.0652901742,
				"element": "C" 
			},
			{
				"x": -0.1332910215,
				"y": -1.2311140514,
				"z": -0.4751776412,
				"element": "C" 
			},
			{
				"x": -1.0081001615,
				"y": -0.1918828064,
				"z": -0.7763611315,
				"element": "C" 
			},
			{
				"x": -2.3948150387,
				"y": -0.3885620755,
				"z": -0.6665934582,
				"element": "C" 
			},
			{
				"x": -2.8959708333,
				"y": -1.6342045448,
				"z": -0.2531444337,
				"element": "C" 
			},
			{
				"x": -2.018008879,
				"y": -2.6710313154,
				"z": 0.0471715701,
				"element": "C" 
			},
			{
				"x": -3.2581871756,
				"y": 0.6341441978,
				"z": -0.9625808404,
				"element": "N" 
			},
			{
				"x": -4.0060218023,
				"y": 1.5200245531,
				"z": -1.2188657615,
				"element": "C" 
			},
			{
				"x": -5.0091353442,
				"y": 2.70844624,
				"z": -1.5622666104,
				"element": "S" 
			},
			{
				"x": 0.9372434112,
				"y": -1.0838346541,
				"z": -0.5584961865,
				"element": "H" 
			},
			{
				"x": -0.6288643697,
				"y": 0.7724347105,
				"z": -1.0963737269,
				"element": "H" 
			},
			{
				"x": -3.9677010155,
				"y": -1.7784029604,
				"z": -0.1710556609,
				"element": "H" 
			},
			{
				"x": -2.400242502,
				"y": -3.6336484149,
				"z": 0.3664675503,
				"element": "H" 
			}
		],
		 "valence_orbital": [ 
			{
				"type": "occ",
				"energy": -0.3001,
				"method": "rhf"
			},
			{
				"type": "occ",
				"energy": -0.28532,
				"method": "rhf"
			},
			{
				"type": "occ",
				"energy": -0.28212,
				"method": "rhf"
			},
			{
				"type": "occ",
				"energy": -0.25753,
				"method": "rhf"
			},
			{
				"type": "occ",
				"energy": -0.23391,
				"method": "rhf"
			},
			{
				"type": "unocc",
				"energy": -0.05802,
				"method": "rhf"
			},
			{
				"type": "unocc",
				"energy": -0.034,
				"method": "rhf"
			},
			{
				"type": "unocc",
				"energy": -0.00613,
				"method": "rhf"
			},
			{
				"type": "unocc",
				"energy": -0.00139,
				"method": "rhf"
			},
			{
				"type": "unocc",
				"energy": 0.03526,
				"method": "rhf"
			}
		],
		"cosmo_sigma_profile": { 
			"-0.025": 0.0,
			"-0.024": 0.0,
			"-0.023": 0.0,
			"-0.022": 0.0,
			"-0.021": 0.0,
			"-0.02": 0.0,
			"-0.019": 0.0,
			"-0.018": 0.0,
			"-0.017": 0.0,
			"-0.016": 0.0,
			"-0.015": 0.0,
			"-0.014": 0.0,
			"-0.013": 0.0,
			"-0.012": 0.0,
			"-0.011": 0.0,
			"-0.01": 0.0,
			"-0.009": 0.225141657403,
			"-0.008": 6.25918057678,
			"-0.007": 8.17372894047,
			"-0.006": 8.78206614186,
			"-0.005": 7.75247064193,
			"-0.004": 8.49679855605,
			"-0.003": 9.41968820669,
			"-0.002": 14.8103988454,
			"-0.001": 19.850297053,
			"0.0": 18.6659014198,
			"0.001": 23.9326049233,
			"0.002": 22.1705353153,
			"0.003": 13.9524727658,
			"0.004": 16.8923996084,
			"0.005": 10.8608993957,
			"0.006": 12.5330091213,
			"0.007": 0.434424972767,
			"0.008": 0.0,
			"0.009": 0.0,
			"0.01": 0.0,
			"0.011": 0.0,
			"0.012": 0.0,
			"0.013": 0.0,
			"0.014": 0.0,
			"0.015": 0.0,
			"0.016": 0.0,
			"0.017": 0.0,
			"0.018": 0.0,
			"0.019": 0.0,
			"0.02": 0.0,
			"0.021": 0.0,
			"0.022": 0.0,
			"0.023": 0.0,
			"0.024": 0.0,
			"0.025": 0.0
		}
	}
}
