{
	 "smiles": "CC1=C(SC(CC#N)=N1)N=NC1=CC=C(C=C1)[N+]([O-])=O", 
	 "Tm": 506.15, 
	 "num_atms": 29, 
	 "gaussian": { 
		 "optdone": 1, 
		 "sigma_profile": "yes", 
		 "theory": "DFT", 
		 "functional": "B3LYP", 
		 "basiset": "6-31G**", 
		 "properties": { 
			 "R2extent": 10470.6527, 
			 "electric_dipole_moment_norm": 5.5031562998, 
			 "electric_quadrupole_moment_norm": 29.4203145673, 
			 "total_energy": -1284.92224774, 
			 "HOMO_LUMO_gap": 0.12594, 
			 "cosmo_polarized_energy": -15.96, 
			 "cosmo_cavitation_energy": 38.73, 
			 "cosmo_dispersion_energy": -27.58, 
			 "cosmo_repulsion_energy": 2.07, 
			 "cosmo_total_nonelectrostatic_energy": 13.22, 
			 "SMD_solvation_energy": 7.39 
		},
		"coords": [
			{
				"x": -1.4448217851,
				"y": -1.5291967255,
				"z": 2.0146999519,
				"element": "C" 
			},
			{
				"x": -0.7908795442,
				"y": -2.3120470771,
				"z": 0.9202088636,
				"element": "C" 
			},
			{
				"x": -0.0698039972,
				"y": -1.7962902575,
				"z": -0.1578403829,
				"element": "C" 
			},
			{
				"x": 0.5148519267,
				"y": -3.1031545303,
				"z": -1.1723096456,
				"element": "S" 
			},
			{
				"x": -0.2485977409,
				"y": -4.2191186977,
				"z": -0.0854460151,
				"element": "C" 
			},
			{
				"x": -0.2508107531,
				"y": -5.717955251,
				"z": -0.2836245684,
				"element": "C" 
			},
			{
				"x": 0.7135784324,
				"y": -6.1991940741,
				"z": -1.274244006,
				"element": "C" 
			},
			{
				"x": 1.472636519,
				"y": -6.5810147831,
				"z": -2.06396432,
				"element": "N" 
			},
			{
				"x": -0.8720335138,
				"y": -3.6772454475,
				"z": 0.9317307585,
				"element": "N" 
			},
			{
				"x": 0.2704659065,
				"y": -0.5241880109,
				"z": -0.5599488928,
				"element": "N" 
			},
			{
				"x": -0.163856163,
				"y": 0.4193451486,
				"z": 0.1725489277,
				"element": "N" 
			},
			{
				"x": 0.2096587905,
				"y": 1.7094683719,
				"z": -0.2720813333,
				"element": "C" 
			},
			{
				"x": -0.2620594839,
				"y": 2.7735485729,
				"z": 0.5132662916,
				"element": "C" 
			},
			{
				"x": 0.0402112014,
				"y": 4.08767553,
				"z": 0.1760125423,
				"element": "C" 
			},
			{
				"x": 0.8197116028,
				"y": 4.3199898468,
				"z": -0.9556388927,
				"element": "C" 
			},
			{
				"x": 1.3021534886,
				"y": 3.2787009697,
				"z": -1.7542026076,
				"element": "C" 
			},
			{
				"x": 0.9959974695,
				"y": 1.9706329224,
				"z": -1.4108482961,
				"element": "C" 
			},
			{
				"x": 1.1456973491,
				"y": 5.7065737988,
				"z": -1.3217724943,
				"element": "N" 
			},
			{
				"x": 1.8353017342,
				"y": 5.8841073736,
				"z": -2.3256207844,
				"element": "O" 
			},
			{
				"x": 0.7087809588,
				"y": 6.6043139733,
				"z": -0.6019096779,
				"element": "O" 
			},
			{
				"x": -0.7158065832,
				"y": -0.9039243688,
				"z": 2.5393341083,
				"element": "H" 
			},
			{
				"x": -2.1962163859,
				"y": -0.8431519391,
				"z": 1.6113774702,
				"element": "H" 
			},
			{
				"x": -1.9150399771,
				"y": -2.2187073958,
				"z": 2.7180215328,
				"element": "H" 
			},
			{
				"x": -1.2557115734,
				"y": -6.0402806265,
				"z": -0.5865749796,
				"element": "H" 
			},
			{
				"x": -0.0494406356,
				"y": -6.19299156,
				"z": 0.6831467124,
				"element": "H" 
			},
			{
				"x": -0.8652965521,
				"y": 2.5439453291,
				"z": 1.3849751235,
				"element": "H" 
			},
			{
				"x": -0.3106552304,
				"y": 4.9263060361,
				"z": 0.7637615535,
				"element": "H" 
			},
			{
				"x": 1.9042140205,
				"y": 3.514020639,
				"z": -2.6229514827,
				"element": "H" 
			},
			{
				"x": 1.3529705189,
				"y": 1.1390322326,
				"z": -2.0062054568,
				"element": "H" 
			}
		],
		 "valence_orbital": [ 
			{
				"type": "occ",
				"energy": -0.29443,
				"method": "rhf"
			},
			{
				"type": "occ",
				"energy": -0.29403,
				"method": "rhf"
			},
			{
				"type": "occ",
				"energy": -0.28577,
				"method": "rhf"
			},
			{
				"type": "occ",
				"energy": -0.25488,
				"method": "rhf"
			},
			{
				"type": "occ",
				"energy": -0.24779,
				"method": "rhf"
			},
			{
				"type": "unocc",
				"energy": -0.12185,
				"method": "rhf"
			},
			{
				"type": "unocc",
				"energy": -0.07715,
				"method": "rhf"
			},
			{
				"type": "unocc",
				"energy": -0.03835,
				"method": "rhf"
			},
			{
				"type": "unocc",
				"energy": -0.03005,
				"method": "rhf"
			},
			{
				"type": "unocc",
				"energy": -0.017,
				"method": "rhf"
			}
		],
		"cosmo_sigma_profile": { 
			"-0.025": 0.0,
			"-0.024": 0.0,
			"-0.023": 0.0,
			"-0.022": 0.0,
			"-0.021": 0.0,
			"-0.02": 0.0,
			"-0.019": 0.0,
			"-0.018": 0.0,
			"-0.017": 0.0,
			"-0.016": 0.0,
			"-0.015": 0.0,
			"-0.014": 0.0,
			"-0.013": 0.0,
			"-0.012": 0.0,
			"-0.011": 2.97376284061,
			"-0.01": 5.39024052764,
			"-0.009": 4.71608803196,
			"-0.008": 6.63229899017,
			"-0.007": 10.3135871936,
			"-0.006": 12.5266391294,
			"-0.005": 14.0032740755,
			"-0.004": 15.1408819782,
			"-0.003": 18.1224962798,
			"-0.002": 21.1979230945,
			"-0.001": 40.8429142854,
			"0.0": 41.8721060886,
			"0.001": 28.3725653957,
			"0.002": 12.707373035,
			"0.003": 10.034140099,
			"0.004": 10.1106286977,
			"0.005": 7.68067207984,
			"0.006": 7.14765758958,
			"0.007": 12.3773811734,
			"0.008": 11.5646487525,
			"0.009": 8.54814279175,
			"0.01": 5.9672440762,
			"0.011": 3.37577747242,
			"0.012": 2.09968887498,
			"0.013": 1.12963726448,
			"0.014": 0.0250940669706,
			"0.015": 0.0,
			"0.016": 0.0,
			"0.017": 0.0,
			"0.018": 0.0,
			"0.019": 0.0,
			"0.02": 0.0,
			"0.021": 0.0,
			"0.022": 0.0,
			"0.023": 0.0,
			"0.024": 0.0,
			"0.025": 0.0
		}
	}
}
