{
	 "smiles": "NC1=CC=C(OC2=NC=CC=N2)C=C1", 
	 "Tm": 406.15, 
	 "num_atms": 23, 
	 "gaussian": { 
		 "optdone": 1, 
		 "sigma_profile": "yes", 
		 "theory": "DFT", 
		 "functional": "B3LYP", 
		 "basiset": "6-31G**", 
		 "properties": { 
			 "R2extent": 3682.323, 
			 "electric_dipole_moment_norm": 3.6329614614, 
			 "electric_quadrupole_moment_norm": 15.4843913051, 
			 "total_energy": -625.954872197, 
			 "HOMO_LUMO_gap": 0.16035, 
			 "cosmo_polarized_energy": -15.79, 
			 "cosmo_cavitation_energy": 28.19, 
			 "cosmo_dispersion_energy": -20.67, 
			 "cosmo_repulsion_energy": 1.64, 
			 "cosmo_total_nonelectrostatic_energy": 9.16, 
			 "SMD_solvation_energy": 2.56 
		},
		"coords": [
			{
				"x": 3.408637956,
				"y": -3.4757705144,
				"z": -2.0626518385,
				"element": "N" 
			},
			{
				"x": 2.5057201163,
				"y": -2.8459880751,
				"z": -1.1992788861,
				"element": "C" 
			},
			{
				"x": 2.9624624861,
				"y": -1.9898706957,
				"z": -0.1824321545,
				"element": "C" 
			},
			{
				"x": 2.0692925489,
				"y": -1.408732859,
				"z": 0.7138715693,
				"element": "C" 
			},
			{
				"x": 0.7080656181,
				"y": -1.6748845501,
				"z": 0.6032167378,
				"element": "C" 
			},
			{
				"x": -0.1775686452,
				"y": -1.1669223357,
				"z": 1.5609950082,
				"element": "O" 
			},
			{
				"x": -0.7775574311,
				"y": 0.0264783938,
				"z": 1.3520696775,
				"element": "C" 
			},
			{
				"x": -1.5964119194,
				"y": 0.3884900696,
				"z": 2.3475031196,
				"element": "N" 
			},
			{
				"x": -2.2105281232,
				"y": 1.5606952677,
				"z": 2.1837658765,
				"element": "C" 
			},
			{
				"x": -2.0234986408,
				"y": 2.3662388281,
				"z": 1.058825432,
				"element": "C" 
			},
			{
				"x": -1.1457631029,
				"y": 1.872033521,
				"z": 0.0988553817,
				"element": "C" 
			},
			{
				"x": -0.513141767,
				"y": 0.7006813355,
				"z": 0.230984014,
				"element": "N" 
			},
			{
				"x": 0.2341593968,
				"y": -2.525146141,
				"z": -0.3910039256,
				"element": "C" 
			},
			{
				"x": 1.1273147892,
				"y": -3.1063582953,
				"z": -1.2872700987,
				"element": "C" 
			},
			{
				"x": 3.0174543996,
				"y": -3.7612885101,
				"z": -2.9500879519,
				"element": "H" 
			},
			{
				"x": 4.2865973144,
				"y": -2.9897882606,
				"z": -2.1855245312,
				"element": "H" 
			},
			{
				"x": 4.026181533,
				"y": -1.7850250698,
				"z": -0.0913484255,
				"element": "H" 
			},
			{
				"x": 2.4240175813,
				"y": -0.7515107343,
				"z": 1.5011264622,
				"element": "H" 
			},
			{
				"x": -2.8793823584,
				"y": 1.8660936294,
				"z": 2.9872281577,
				"element": "H" 
			},
			{
				"x": -2.5303300961,
				"y": 3.3166930724,
				"z": 0.9410626363,
				"element": "H" 
			},
			{
				"x": -0.9352357285,
				"y": 2.4282738858,
				"z": -0.8133631214,
				"element": "H" 
			},
			{
				"x": -0.8292681637,
				"y": -2.7306556727,
				"z": -0.4575437762,
				"element": "H" 
			},
			{
				"x": 0.7559822367,
				"y": -3.7746362896,
				"z": -2.0600993634,
				"element": "H" 
			}
		],
		 "valence_orbital": [ 
			{
				"type": "occ",
				"energy": -0.29959,
				"method": "rhf"
			},
			{
				"type": "occ",
				"energy": -0.25269,
				"method": "rhf"
			},
			{
				"type": "occ",
				"energy": -0.24981,
				"method": "rhf"
			},
			{
				"type": "occ",
				"energy": -0.24639,
				"method": "rhf"
			},
			{
				"type": "occ",
				"energy": -0.19816,
				"method": "rhf"
			},
			{
				"type": "unocc",
				"energy": -0.03781,
				"method": "rhf"
			},
			{
				"type": "unocc",
				"energy": -0.0083,
				"method": "rhf"
			},
			{
				"type": "unocc",
				"energy": 0.00314,
				"method": "rhf"
			},
			{
				"type": "unocc",
				"energy": 0.02087,
				"method": "rhf"
			},
			{
				"type": "unocc",
				"energy": 0.08019,
				"method": "rhf"
			}
		],
		"cosmo_sigma_profile": { 
			"-0.025": 0.0,
			"-0.024": 0.0,
			"-0.023": 0.0,
			"-0.022": 0.0,
			"-0.021": 0.0,
			"-0.02": 0.0,
			"-0.019": 0.0,
			"-0.018": 0.0,
			"-0.017": 0.0,
			"-0.016": 0.0,
			"-0.015": 0.0,
			"-0.014": 0.0,
			"-0.013": 0.211665458914,
			"-0.012": 2.58131348714,
			"-0.011": 2.68762333112,
			"-0.01": 3.38770859568,
			"-0.009": 2.81567077045,
			"-0.008": 7.42239312638,
			"-0.007": 12.3750313594,
			"-0.006": 14.9976872072,
			"-0.005": 12.910179209,
			"-0.004": 13.0537685774,
			"-0.003": 13.0430627591,
			"-0.002": 14.0671801264,
			"-0.001": 12.6348675522,
			"0.0": 16.2457802317,
			"0.001": 12.1473824495,
			"0.002": 10.935919842,
			"0.003": 10.1351854774,
			"0.004": 10.9276772116,
			"0.005": 12.0990956067,
			"0.006": 9.49563433206,
			"0.007": 5.16297993597,
			"0.008": 4.29213495407,
			"0.009": 3.85642076324,
			"0.01": 4.45501574373,
			"0.011": 3.65223105386,
			"0.012": 3.62925109623,
			"0.013": 3.01724542437,
			"0.014": 2.24388009319,
			"0.015": 1.42607492989,
			"0.016": 0.170929535083,
			"0.017": 0.0,
			"0.018": 0.0,
			"0.019": 0.0,
			"0.02": 0.0,
			"0.021": 0.0,
			"0.022": 0.0,
			"0.023": 0.0,
			"0.024": 0.0,
			"0.025": 0.0
		}
	}
}
