{
	 "smiles": "CCNC(C1=CN=CC=C1)C1=CC2=C(OCC2)C=C1", 
	 "Tm": 324.15, 
	 "num_atms": 37, 
	 "gaussian": { 
		 "optdone": 1, 
		 "sigma_profile": "yes", 
		 "theory": "DFT", 
		 "functional": "B3LYP", 
		 "basiset": "6-31G**", 
		 "properties": { 
			 "R2extent": 6090.3508, 
			 "electric_dipole_moment_norm": 2.29719200329, 
			 "electric_quadrupole_moment_norm": 14.5860997443, 
			 "total_energy": -805.255798202, 
			 "HOMO_LUMO_gap": 0.17845, 
			 "cosmo_polarized_energy": -12.0, 
			 "cosmo_cavitation_energy": 38.43, 
			 "cosmo_dispersion_energy": -27.1, 
			 "cosmo_repulsion_energy": 2.11, 
			 "cosmo_total_nonelectrostatic_energy": 13.44, 
			 "SMD_solvation_energy": 3.45 
		},
		"coords": [
			{
				"x": 3.1370281385,
				"y": 1.7428062257,
				"z": 1.177764555,
				"element": "C" 
			},
			{
				"x": 1.9373034261,
				"y": 0.8588023736,
				"z": 1.5397864945,
				"element": "C" 
			},
			{
				"x": 0.6662071036,
				"y": 1.5735909584,
				"z": 1.726024667,
				"element": "N" 
			},
			{
				"x": -0.2984586978,
				"y": 1.6281307596,
				"z": 0.6136737753,
				"element": "C" 
			},
			{
				"x": 0.2813485398,
				"y": 2.1870899685,
				"z": -0.6910918762,
				"element": "C" 
			},
			{
				"x": 0.9535193975,
				"y": 1.3939962678,
				"z": -1.6351256815,
				"element": "C" 
			},
			{
				"x": 1.5499345178,
				"y": 1.8669861975,
				"z": -2.7360078772,
				"element": "N" 
			},
			{
				"x": 1.4853934148,
				"y": 3.1863996704,
				"z": -2.9552697406,
				"element": "C" 
			},
			{
				"x": 0.8277085175,
				"y": 4.072319814,
				"z": -2.1014358705,
				"element": "C" 
			},
			{
				"x": 0.2213505149,
				"y": 3.5597379597,
				"z": -0.9564199676,
				"element": "C" 
			},
			{
				"x": -1.0429119688,
				"y": 0.2972449956,
				"z": 0.4452779735,
				"element": "C" 
			},
			{
				"x": -1.8091974473,
				"y": 0.0460841823,
				"z": -0.7094954824,
				"element": "C" 
			},
			{
				"x": -2.5365627812,
				"y": -1.1308457998,
				"z": -0.813671043,
				"element": "C" 
			},
			{
				"x": -2.5147694156,
				"y": -2.0612667418,
				"z": 0.2282699945,
				"element": "C" 
			},
			{
				"x": -3.2779520604,
				"y": -3.168298648,
				"z": -0.0152800852,
				"element": "O" 
			},
			{
				"x": -3.6930569606,
				"y": -3.1099959998,
				"z": -1.4039039315,
				"element": "C" 
			},
			{
				"x": -3.4699013966,
				"y": -1.6543080899,
				"z": -1.8833825156,
				"element": "C" 
			},
			{
				"x": -1.7848054416,
				"y": -1.8392828157,
				"z": 1.3890620039,
				"element": "C" 
			},
			{
				"x": -1.058188019,
				"y": -0.646935954,
				"z": 1.4813642648,
				"element": "C" 
			},
			{
				"x": 3.2940845078,
				"y": 2.5123021445,
				"z": 1.9438330047,
				"element": "H" 
			},
			{
				"x": 4.0541360455,
				"y": 1.1456946625,
				"z": 1.1236957123,
				"element": "H" 
			},
			{
				"x": 3.0010628196,
				"y": 2.2448427357,
				"z": 0.2165494655,
				"element": "H" 
			},
			{
				"x": 2.167877431,
				"y": 0.3202391763,
				"z": 2.469847552,
				"element": "H" 
			},
			{
				"x": 1.7917836151,
				"y": 0.0867128461,
				"z": 0.7780717122,
				"element": "H" 
			},
			{
				"x": 0.8399718744,
				"y": 2.5117492772,
				"z": 2.0710994734,
				"element": "H" 
			},
			{
				"x": -1.04553403,
				"y": 2.3638144409,
				"z": 0.9456251147,
				"element": "H" 
			},
			{
				"x": 1.0018164509,
				"y": 0.3157356948,
				"z": -1.4979044085,
				"element": "H" 
			},
			{
				"x": 1.9765736563,
				"y": 3.549074296,
				"z": -3.8567098005,
				"element": "H" 
			},
			{
				"x": 0.7903602918,
				"y": 5.1329689512,
				"z": -2.3309467776,
				"element": "H" 
			},
			{
				"x": -0.2990938304,
				"y": 4.2221981352,
				"z": -0.2672542971,
				"element": "H" 
			},
			{
				"x": -1.830256376,
				"y": 0.7712063806,
				"z": -1.5181354247,
				"element": "H" 
			},
			{
				"x": -3.0747071335,
				"y": -3.8165876059,
				"z": -1.9711254627,
				"element": "H" 
			},
			{
				"x": -4.7341573986,
				"y": -3.4368426974,
				"z": -1.452416434,
				"element": "H" 
			},
			{
				"x": -3.0454630925,
				"y": -1.6195021149,
				"z": -2.8914945766,
				"element": "H" 
			},
			{
				"x": -4.4089103419,
				"y": -1.0865270843,
				"z": -1.9034317829,
				"element": "H" 
			},
			{
				"x": -1.7816255206,
				"y": -2.5682148473,
				"z": 2.192444291,
				"element": "H" 
			},
			{
				"x": -0.4902083506,
				"y": -0.4322197155,
				"z": 2.3794129816,
				"element": "H" 
			}
		],
		 "valence_orbital": [ 
			{
				"type": "occ",
				"energy": -0.26025,
				"method": "rhf"
			},
			{
				"type": "occ",
				"energy": -0.25139,
				"method": "rhf"
			},
			{
				"type": "occ",
				"energy": -0.24036,
				"method": "rhf"
			},
			{
				"type": "occ",
				"energy": -0.21592,
				"method": "rhf"
			},
			{
				"type": "occ",
				"energy": -0.20307,
				"method": "rhf"
			},
			{
				"type": "unocc",
				"energy": -0.02462,
				"method": "rhf"
			},
			{
				"type": "unocc",
				"energy": -0.01334,
				"method": "rhf"
			},
			{
				"type": "unocc",
				"energy": 0.00255,
				"method": "rhf"
			},
			{
				"type": "unocc",
				"energy": 0.0159,
				"method": "rhf"
			},
			{
				"type": "unocc",
				"energy": 0.08478,
				"method": "rhf"
			}
		],
		"cosmo_sigma_profile": { 
			"-0.025": 0.0,
			"-0.024": 0.0,
			"-0.023": 0.0,
			"-0.022": 0.0,
			"-0.021": 0.0,
			"-0.02": 0.0,
			"-0.019": 0.0,
			"-0.018": 0.0,
			"-0.017": 0.0,
			"-0.016": 0.0,
			"-0.015": 0.0,
			"-0.014": 0.0,
			"-0.013": 0.0,
			"-0.012": 0.0,
			"-0.011": 0.0,
			"-0.01": 0.541866708427,
			"-0.009": 1.32589613696,
			"-0.008": 1.56080456659,
			"-0.007": 4.7165282289,
			"-0.006": 12.2089159425,
			"-0.005": 23.5362696424,
			"-0.004": 27.2946388427,
			"-0.003": 28.3627236655,
			"-0.002": 31.0696770279,
			"-0.001": 25.3477483727,
			"0.0": 26.5207964395,
			"0.001": 26.5400458368,
			"0.002": 19.7489041314,
			"0.003": 17.2620793287,
			"0.004": 11.9649706467,
			"0.005": 12.1944340619,
			"0.006": 9.24674019012,
			"0.007": 3.70146858579,
			"0.008": 3.41655872563,
			"0.009": 3.68049236451,
			"0.01": 3.04529176273,
			"0.011": 3.31621001715,
			"0.012": 2.09487908138,
			"0.013": 1.58902374133,
			"0.014": 1.24216272971,
			"0.015": 0.625214172496,
			"0.016": 0.934070797,
			"0.017": 0.603108756952,
			"0.018": 0.017541999781,
			"0.019": 0.0,
			"0.02": 0.0,
			"0.021": 0.0,
			"0.022": 0.0,
			"0.023": 0.0,
			"0.024": 0.0,
			"0.025": 0.0
		}
	}
}
