{
	 "smiles": "NC(=O)C1CCCN2C=CN=C12", 
	 "Tm": 451.15, 
	 "num_atms": 23, 
	 "gaussian": { 
		 "optdone": 1, 
		 "sigma_profile": "yes", 
		 "theory": "DFT", 
		 "functional": "B3LYP", 
		 "basiset": "6-31G**", 
		 "properties": { 
			 "R2extent": 2149.9701, 
			 "electric_dipole_moment_norm": 4.17859831522, 
			 "electric_quadrupole_moment_norm": 11.9183527532, 
			 "total_energy": -550.987919765, 
			 "HOMO_LUMO_gap": 0.23838, 
			 "cosmo_polarized_energy": -13.7, 
			 "cosmo_cavitation_energy": 24.99, 
			 "cosmo_dispersion_energy": -18.99, 
			 "cosmo_repulsion_energy": 1.51, 
			 "cosmo_total_nonelectrostatic_energy": 7.51, 
			 "SMD_solvation_energy": 3.72 
		},
		"coords": [
			{
				"x": -0.4373670721,
				"y": -1.5493049581,
				"z": 2.9350417348,
				"element": "N" 
			},
			{
				"x": -1.1937479828,
				"y": -1.6184133382,
				"z": 1.8115350781,
				"element": "C" 
			},
			{
				"x": -2.4061502024,
				"y": -1.7964266794,
				"z": 1.8107049254,
				"element": "O" 
			},
			{
				"x": -0.4097785737,
				"y": -1.5596034476,
				"z": 0.4754178648,
				"element": "C" 
			},
			{
				"x": -1.3615778054,
				"y": -1.2541600036,
				"z": -0.695128595,
				"element": "C" 
			},
			{
				"x": -0.5832465901,
				"y": -1.0516115096,
				"z": -1.9999504406,
				"element": "C" 
			},
			{
				"x": 0.346580885,
				"y": 0.1597788829,
				"z": -1.8964384887,
				"element": "C" 
			},
			{
				"x": 1.1142071544,
				"y": 0.0950108653,
				"z": -0.6519164599,
				"element": "N" 
			},
			{
				"x": 2.2665505874,
				"y": 0.7948459793,
				"z": -0.3478164463,
				"element": "C" 
			},
			{
				"x": 2.5791845157,
				"y": 0.4520386832,
				"z": 0.9419907178,
				"element": "C" 
			},
			{
				"x": 1.6528518851,
				"y": -0.4367409257,
				"z": 1.4356079141,
				"element": "N" 
			},
			{
				"x": 0.7766240016,
				"y": -0.6282321359,
				"z": 0.4609456428,
				"element": "C" 
			},
			{
				"x": 0.519853295,
				"y": -1.2053289951,
				"z": 2.8675745959,
				"element": "H" 
			},
			{
				"x": -0.9318285869,
				"y": -1.5330849331,
				"z": 3.8147773946,
				"element": "H" 
			},
			{
				"x": -0.0182316857,
				"y": -2.5809919646,
				"z": 0.3396598679,
				"element": "H" 
			},
			{
				"x": -2.0840392693,
				"y": -2.0671772952,
				"z": -0.7854160957,
				"element": "H" 
			},
			{
				"x": -1.9432307825,
				"y": -0.3543963262,
				"z": -0.4620599509,
				"element": "H" 
			},
			{
				"x": 0.007150063,
				"y": -1.9479350806,
				"z": -2.2293980501,
				"element": "H" 
			},
			{
				"x": -1.2687012422,
				"y": -0.8955715225,
				"z": -2.8394232669,
				"element": "H" 
			},
			{
				"x": 1.048508306,
				"y": 0.1990726645,
				"z": -2.7353707046,
				"element": "H" 
			},
			{
				"x": -0.2383843868,
				"y": 1.0884973233,
				"z": -1.9070155778,
				"element": "H" 
			},
			{
				"x": 2.7384632427,
				"y": 1.4523027586,
				"z": -1.0619601004,
				"element": "H" 
			},
			{
				"x": 3.4153102442,
				"y": 0.7879319585,
				"z": 1.5389384408,
				"element": "H" 
			}
		],
		 "valence_orbital": [ 
			{
				"type": "occ",
				"energy": -0.27887,
				"method": "rhf"
			},
			{
				"type": "occ",
				"energy": -0.27431,
				"method": "rhf"
			},
			{
				"type": "occ",
				"energy": -0.25233,
				"method": "rhf"
			},
			{
				"type": "occ",
				"energy": -0.24354,
				"method": "rhf"
			},
			{
				"type": "occ",
				"energy": -0.22046,
				"method": "rhf"
			},
			{
				"type": "unocc",
				"energy": 0.01792,
				"method": "rhf"
			},
			{
				"type": "unocc",
				"energy": 0.04189,
				"method": "rhf"
			},
			{
				"type": "unocc",
				"energy": 0.05791,
				"method": "rhf"
			},
			{
				"type": "unocc",
				"energy": 0.08192,
				"method": "rhf"
			},
			{
				"type": "unocc",
				"energy": 0.11422,
				"method": "rhf"
			}
		],
		"cosmo_sigma_profile": { 
			"-0.025": 0.0,
			"-0.024": 0.0,
			"-0.023": 0.0,
			"-0.022": 0.0,
			"-0.021": 0.0,
			"-0.02": 0.0,
			"-0.019": 0.0,
			"-0.018": 0.0,
			"-0.017": 0.0,
			"-0.016": 0.0,
			"-0.015": 0.0,
			"-0.014": 0.13895145043,
			"-0.013": 0.840382853507,
			"-0.012": 1.1733315987,
			"-0.011": 1.14680666603,
			"-0.01": 1.0331619453,
			"-0.009": 0.833543674988,
			"-0.008": 2.96457870781,
			"-0.007": 5.96671953339,
			"-0.006": 10.7548397599,
			"-0.005": 16.0739401984,
			"-0.004": 24.2274918931,
			"-0.003": 21.1395302238,
			"-0.002": 14.0620863369,
			"-0.001": 13.3974372921,
			"0.0": 8.72979263167,
			"0.001": 7.23376247369,
			"0.002": 7.55667906517,
			"0.003": 6.927934437,
			"0.004": 8.41167851399,
			"0.005": 8.01712023204,
			"0.006": 7.4862812852,
			"0.007": 4.57749178133,
			"0.008": 4.24806608727,
			"0.009": 2.50909219006,
			"0.01": 2.7181290881,
			"0.011": 1.70721515973,
			"0.012": 2.7605287958,
			"0.013": 3.00005935441,
			"0.014": 5.7104107404,
			"0.015": 1.38387813193,
			"0.016": 0.00161903281746,
			"0.017": 0.0,
			"0.018": 0.0,
			"0.019": 0.0,
			"0.02": 0.0,
			"0.021": 0.0,
			"0.022": 0.0,
			"0.023": 0.0,
			"0.024": 0.0,
			"0.025": 0.0
		}
	}
}
