{
	 "smiles": "O=C(ON=C(C1=CC2=C(O1)C=CC=C2)C1=CC2=C(O1)C=CC=C2)C1=CC=CC=C1", 
	 "Tm": 427.15, 
	 "num_atms": 44, 
	 "gaussian": { 
		 "optdone": 1, 
		 "sigma_profile": "yes", 
		 "theory": "DFT", 
		 "functional": "B3LYP", 
		 "basiset": "6-31G**", 
		 "properties": { 
			 "R2extent": 14810.4202, 
			 "electric_dipole_moment_norm": 3.79738789301, 
			 "electric_quadrupole_moment_norm": 27.9531532767, 
			 "total_energy": -1279.1776931, 
			 "HOMO_LUMO_gap": 0.13996, 
			 "cosmo_polarized_energy": -15.16, 
			 "cosmo_cavitation_energy": 51.02, 
			 "cosmo_dispersion_energy": -35.46, 
			 "cosmo_repulsion_energy": 2.6, 
			 "cosmo_total_nonelectrostatic_energy": 18.15, 
			 "SMD_solvation_energy": 9.36 
		},
		"coords": [
			{
				"x": 1.3156228552,
				"y": 2.8005734776,
				"z": -1.914982115,
				"element": "O" 
			},
			{
				"x": 1.7478985621,
				"y": 1.9545480597,
				"z": -1.1731791119,
				"element": "C" 
			},
			{
				"x": 1.0516084534,
				"y": 0.8220285809,
				"z": -0.7907518093,
				"element": "O" 
			},
			{
				"x": -0.2253684132,
				"y": 0.7576035881,
				"z": -1.3516164,
				"element": "N" 
			},
			{
				"x": -0.87498842,
				"y": -0.3049007831,
				"z": -0.9810398926,
				"element": "C" 
			},
			{
				"x": -0.4125060299,
				"y": -1.4295787021,
				"z": -0.1659384788,
				"element": "C" 
			},
			{
				"x": -1.123159726,
				"y": -2.3114031454,
				"z": 0.6037035604,
				"element": "C" 
			},
			{
				"x": -0.1718840044,
				"y": -3.2155423175,
				"z": 1.1811539389,
				"element": "C" 
			},
			{
				"x": 1.0807738937,
				"y": -2.8009450799,
				"z": 0.6889744822,
				"element": "C" 
			},
			{
				"x": 0.9388927593,
				"y": -1.7139342868,
				"z": -0.1230511275,
				"element": "O" 
			},
			{
				"x": 2.2796395455,
				"y": -3.4324510537,
				"z": 1.0034815045,
				"element": "C" 
			},
			{
				"x": 2.1938695904,
				"y": -4.527604757,
				"z": 1.8601396623,
				"element": "C" 
			},
			{
				"x": 0.9556752308,
				"y": -4.9657672569,
				"z": 2.3740908238,
				"element": "C" 
			},
			{
				"x": -0.2316681645,
				"y": -4.3232565817,
				"z": 2.0449372313,
				"element": "C" 
			},
			{
				"x": -2.2667752495,
				"y": -0.2996887479,
				"z": -1.44983385,
				"element": "C" 
			},
			{
				"x": -3.0541167684,
				"y": 0.7358019772,
				"z": -1.8635957355,
				"element": "C" 
			},
			{
				"x": -4.3111783029,
				"y": 0.1613027449,
				"z": -2.2526228884,
				"element": "C" 
			},
			{
				"x": -4.1777092276,
				"y": -1.2232899033,
				"z": -2.0279563193,
				"element": "C" 
			},
			{
				"x": -2.9320882683,
				"y": -1.5073742862,
				"z": -1.5384692409,
				"element": "O" 
			},
			{
				"x": -5.1859487707,
				"y": -2.1476835603,
				"z": -2.2751376173,
				"element": "C" 
			},
			{
				"x": -6.382550637,
				"y": -1.6368722994,
				"z": -2.7748932882,
				"element": "C" 
			},
			{
				"x": -6.5503401249,
				"y": -0.2572970029,
				"z": -3.0107599891,
				"element": "C" 
			},
			{
				"x": -5.5290281214,
				"y": 0.6508787355,
				"z": -2.7553899046,
				"element": "C" 
			},
			{
				"x": 3.0930031956,
				"y": 1.9705358198,
				"z": -0.5334908655,
				"element": "C" 
			},
			{
				"x": 3.9169776955,
				"y": 3.0725003266,
				"z": -0.8040960721,
				"element": "C" 
			},
			{
				"x": 5.1855720954,
				"y": 3.1518319349,
				"z": -0.236163039,
				"element": "C" 
			},
			{
				"x": 5.6385767296,
				"y": 2.131932896,
				"z": 0.6052755792,
				"element": "C" 
			},
			{
				"x": 4.8204377934,
				"y": 1.0324117152,
				"z": 0.8761890412,
				"element": "C" 
			},
			{
				"x": 3.5492598944,
				"y": 0.9467474297,
				"z": 0.3102762469,
				"element": "C" 
			},
			{
				"x": -2.1947857879,
				"y": -2.316810191,
				"z": 0.7260430981,
				"element": "H" 
			},
			{
				"x": 3.2241089982,
				"y": -3.087420646,
				"z": 0.5972568542,
				"element": "H" 
			},
			{
				"x": 3.1007606409,
				"y": -5.0560815958,
				"z": 2.1378595422,
				"element": "H" 
			},
			{
				"x": 0.9343023387,
				"y": -5.8239966156,
				"z": 3.0388118401,
				"element": "H" 
			},
			{
				"x": -1.1814040954,
				"y": -4.6681303744,
				"z": 2.4421785251,
				"element": "H" 
			},
			{
				"x": -2.7546965263,
				"y": 1.7728120848,
				"z": -1.8830086822,
				"element": "H" 
			},
			{
				"x": -5.0406474009,
				"y": -3.2064468962,
				"z": -2.0906055737,
				"element": "H" 
			},
			{
				"x": -7.2021039275,
				"y": -2.3164771283,
				"z": -2.9877404902,
				"element": "H" 
			},
			{
				"x": -7.4986373306,
				"y": 0.0996032649,
				"z": -3.4011892425,
				"element": "H" 
			},
			{
				"x": -5.666599876,
				"y": 1.7116334317,
				"z": -2.9411685692,
				"element": "H" 
			},
			{
				"x": 3.5420055231,
				"y": 3.8506884945,
				"z": -1.4601820047,
				"element": "H" 
			},
			{
				"x": 5.8212271192,
				"y": 4.0065826735,
				"z": -0.4475561897,
				"element": "H" 
			},
			{
				"x": 6.6281974136,
				"y": 2.1940328132,
				"z": 1.0492146522,
				"element": "H" 
			},
			{
				"x": 5.1736351912,
				"y": 0.2406671337,
				"z": 1.5304649134,
				"element": "H" 
			},
			{
				"x": 2.9108396541,
				"y": 0.0949360289,
				"z": 0.5130670013,
				"element": "H" 
			}
		],
		 "valence_orbital": [ 
			{
				"type": "occ",
				"energy": -0.25744,
				"method": "rhf"
			},
			{
				"type": "occ",
				"energy": -0.24776,
				"method": "rhf"
			},
			{
				"type": "occ",
				"energy": -0.24368,
				"method": "rhf"
			},
			{
				"type": "occ",
				"energy": -0.23017,
				"method": "rhf"
			},
			{
				"type": "occ",
				"energy": -0.21685,
				"method": "rhf"
			},
			{
				"type": "unocc",
				"energy": -0.07689,
				"method": "rhf"
			},
			{
				"type": "unocc",
				"energy": -0.0414,
				"method": "rhf"
			},
			{
				"type": "unocc",
				"energy": -0.02962,
				"method": "rhf"
			},
			{
				"type": "unocc",
				"energy": -0.00677,
				"method": "rhf"
			},
			{
				"type": "unocc",
				"energy": -1e-05,
				"method": "rhf"
			}
		],
		"cosmo_sigma_profile": { 
			"-0.025": 0.0,
			"-0.024": 0.0,
			"-0.023": 0.0,
			"-0.022": 0.0,
			"-0.021": 0.0,
			"-0.02": 0.0,
			"-0.019": 0.0,
			"-0.018": 0.0,
			"-0.017": 0.0,
			"-0.016": 0.0,
			"-0.015": 0.0,
			"-0.014": 0.0,
			"-0.013": 0.0,
			"-0.012": 0.0,
			"-0.011": 0.0,
			"-0.01": 0.0,
			"-0.009": 0.0507388769649,
			"-0.008": 2.09041389811,
			"-0.007": 10.5163244114,
			"-0.006": 26.2396961344,
			"-0.005": 30.7948959062,
			"-0.004": 31.6914703781,
			"-0.003": 27.3569375251,
			"-0.002": 25.8232594909,
			"-0.001": 28.9526387749,
			"0.0": 37.1345238446,
			"0.001": 37.6117049868,
			"0.002": 41.0102347589,
			"0.003": 40.0605302947,
			"0.004": 33.7000093093,
			"0.005": 14.3244329027,
			"0.006": 4.19138710618,
			"0.007": 3.85205406911,
			"0.008": 2.13619643008,
			"0.009": 2.1662821705,
			"0.01": 3.15022178009,
			"0.011": 4.06145088643,
			"0.012": 1.95381199197,
			"0.013": 1.82854946427,
			"0.014": 0.82778624414,
			"0.015": 1.20037573272,
			"0.016": 0.360654762369,
			"0.017": 0.0,
			"0.018": 0.0,
			"0.019": 0.0,
			"0.02": 0.0,
			"0.021": 0.0,
			"0.022": 0.0,
			"0.023": 0.0,
			"0.024": 0.0,
			"0.025": 0.0
		}
	}
}
