{
	 "smiles": "CN1C=NC(Cl)=C1Cl", 
	 "Tm": 327.15, 
	 "num_atms": 12, 
	 "gaussian": { 
		 "optdone": 1, 
		 "sigma_profile": "yes", 
		 "theory": "DFT", 
		 "functional": "B3LYP", 
		 "basiset": "6-31G**", 
		 "properties": { 
			 "R2extent": 3454.2707, 
			 "electric_dipole_moment_norm": 4.95473693954, 
			 "electric_quadrupole_moment_norm": 15.8472073707, 
			 "total_energy": -1184.7048279, 
			 "HOMO_LUMO_gap": 0.23407, 
			 "cosmo_polarized_energy": -9.85, 
			 "cosmo_cavitation_energy": 19.88, 
			 "cosmo_dispersion_energy": -15.02, 
			 "cosmo_repulsion_energy": 1.25, 
			 "cosmo_total_nonelectrostatic_energy": 6.11, 
			 "SMD_solvation_energy": 1.87 
		},
		"coords": [
			{
				"x": 1.2044380789,
				"y": -1.1475824878,
				"z": 0.395281264,
				"element": "C" 
			},
			{
				"x": 0.4966584669,
				"y": -1.9147955673,
				"z": -0.6172025207,
				"element": "N" 
			},
			{
				"x": 0.9960944775,
				"y": -2.3873370939,
				"z": -1.7985446513,
				"element": "C" 
			},
			{
				"x": 0.0993348212,
				"y": -3.0491855307,
				"z": -2.5015153084,
				"element": "N" 
			},
			{
				"x": -1.0360527154,
				"y": -3.0104721618,
				"z": -1.7524800378,
				"element": "C" 
			},
			{
				"x": -2.5102801002,
				"y": -3.7527237393,
				"z": -2.2619269608,
				"element": "Cl" 
			},
			{
				"x": -0.8257982231,
				"y": -2.3176281449,
				"z": -0.5822405505,
				"element": "C" 
			},
			{
				"x": -1.8689941217,
				"y": -1.9470035366,
				"z": 0.7325069952,
				"element": "Cl" 
			},
			{
				"x": 0.7324286825,
				"y": -0.1723627069,
				"z": 0.5405076084,
				"element": "H" 
			},
			{
				"x": 1.2143924859,
				"y": -1.6829191584,
				"z": 1.348306016,
				"element": "H" 
			},
			{
				"x": 2.2312671015,
				"y": -1.0006691334,
				"z": 0.0573558265,
				"element": "H" 
			},
			{
				"x": 2.023311046,
				"y": -2.216020739,
				"z": -2.0904476806,
				"element": "H" 
			}
		],
		 "valence_orbital": [ 
			{
				"type": "occ",
				"energy": -0.34561,
				"method": "rhf"
			},
			{
				"type": "occ",
				"energy": -0.31473,
				"method": "rhf"
			},
			{
				"type": "occ",
				"energy": -0.28927,
				"method": "rhf"
			},
			{
				"type": "occ",
				"energy": -0.28091,
				"method": "rhf"
			},
			{
				"type": "occ",
				"energy": -0.22828,
				"method": "rhf"
			},
			{
				"type": "unocc",
				"energy": 0.00579,
				"method": "rhf"
			},
			{
				"type": "unocc",
				"energy": 0.0211,
				"method": "rhf"
			},
			{
				"type": "unocc",
				"energy": 0.04929,
				"method": "rhf"
			},
			{
				"type": "unocc",
				"energy": 0.05376,
				"method": "rhf"
			},
			{
				"type": "unocc",
				"energy": 0.081,
				"method": "rhf"
			}
		],
		"cosmo_sigma_profile": { 
			"-0.025": 0.0,
			"-0.024": 0.0,
			"-0.023": 0.0,
			"-0.022": 0.0,
			"-0.021": 0.0,
			"-0.02": 0.0,
			"-0.019": 0.0,
			"-0.018": 0.0,
			"-0.017": 0.0,
			"-0.016": 0.0,
			"-0.015": 0.0,
			"-0.014": 0.0,
			"-0.013": 0.0,
			"-0.012": 0.0,
			"-0.011": 0.282290984177,
			"-0.01": 2.99860100159,
			"-0.009": 2.95450183213,
			"-0.008": 3.19863349161,
			"-0.007": 6.63269117647,
			"-0.006": 7.63006163102,
			"-0.005": 9.06545111225,
			"-0.004": 13.2383415961,
			"-0.003": 8.54145383757,
			"-0.002": 8.00193300731,
			"-0.001": 8.70709735798,
			"0.0": 13.0112173399,
			"0.001": 14.7384768417,
			"0.002": 13.6817476107,
			"0.003": 17.4421862382,
			"0.004": 14.0838113004,
			"0.005": 5.28472845729,
			"0.006": 2.22068685299,
			"0.007": 1.93643359958,
			"0.008": 2.21479206873,
			"0.009": 1.41654614768,
			"0.01": 0.55186014766,
			"0.011": 1.33509859331,
			"0.012": 1.03315471928,
			"0.013": 1.21912774723,
			"0.014": 1.24824453944,
			"0.015": 0.895894065645,
			"0.016": 0.618030603456,
			"0.017": 0.0199528986559,
			"0.018": 0.0,
			"0.019": 0.0,
			"0.02": 0.0,
			"0.021": 0.0,
			"0.022": 0.0,
			"0.023": 0.0,
			"0.024": 0.0,
			"0.025": 0.0
		}
	}
}
