{
	 "smiles": "O=C1NC(=O)C2(CCC(CC2)C2=CC=CC=C2)N1", 
	 "Tm": 524.15, 
	 "num_atms": 34, 
	 "gaussian": { 
		 "optdone": 1, 
		 "sigma_profile": "yes", 
		 "theory": "DFT", 
		 "functional": "B3LYP", 
		 "basiset": "6-31G**", 
		 "properties": { 
			 "R2extent": 5840.2326, 
			 "electric_dipole_moment_norm": 2.48837377217, 
			 "electric_quadrupole_moment_norm": 13.4512843851, 
			 "total_energy": -803.145349904, 
			 "HOMO_LUMO_gap": 0.22781, 
			 "cosmo_polarized_energy": -17.01, 
			 "cosmo_cavitation_energy": 35.55, 
			 "cosmo_dispersion_energy": -25.5, 
			 "cosmo_repulsion_energy": 1.96, 
			 "cosmo_total_nonelectrostatic_energy": 12.02, 
			 "SMD_solvation_energy": 6.42 
		},
		"coords": [
			{
				"x": 4.6426451934,
				"y": 0.5980760945,
				"z": 3.276318521,
				"element": "O" 
			},
			{
				"x": 3.5946231488,
				"y": 0.3688155028,
				"z": 2.7094143714,
				"element": "C" 
			},
			{
				"x": 2.3791519257,
				"y": -0.0022653681,
				"z": 3.3289151774,
				"element": "N" 
			},
			{
				"x": 1.3470462812,
				"y": -0.2007008806,
				"z": 2.4398570685,
				"element": "C" 
			},
			{
				"x": 0.2074364489,
				"y": -0.523752707,
				"z": 2.7194968747,
				"element": "O" 
			},
			{
				"x": 1.9283371851,
				"y": 0.0677928379,
				"z": 1.0321095323,
				"element": "C" 
			},
			{
				"x": 1.2089717525,
				"y": 1.2503124013,
				"z": 0.3406999059,
				"element": "C" 
			},
			{
				"x": -0.2202970464,
				"y": 0.9085292794,
				"z": -0.1033454222,
				"element": "C" 
			},
			{
				"x": -0.2623461809,
				"y": -0.3421730915,
				"z": -1.0093000269,
				"element": "C" 
			},
			{
				"x": 0.4227606684,
				"y": -1.5331931102,
				"z": -0.3029892225,
				"element": "C" 
			},
			{
				"x": 1.852905785,
				"y": -1.1945295464,
				"z": 0.1405606184,
				"element": "C" 
			},
			{
				"x": -1.6761082596,
				"y": -0.6781159849,
				"z": -1.4549848645,
				"element": "C" 
			},
			{
				"x": -2.6705863417,
				"y": -1.0160615536,
				"z": -0.5234399824,
				"element": "C" 
			},
			{
				"x": -3.9658331389,
				"y": -1.3233131407,
				"z": -0.9398494894,
				"element": "C" 
			},
			{
				"x": -4.294054122,
				"y": -1.2991146277,
				"z": -2.2973622581,
				"element": "C" 
			},
			{
				"x": -3.3156296838,
				"y": -0.9650349958,
				"z": -3.2338147422,
				"element": "C" 
			},
			{
				"x": -2.0200467237,
				"y": -0.6580581148,
				"z": -2.8126835359,
				"element": "C" 
			},
			{
				"x": 3.3101233844,
				"y": 0.4039040283,
				"z": 1.3720812575,
				"element": "N" 
			},
			{
				"x": 2.2931370068,
				"y": -0.1071591312,
				"z": 4.329643832,
				"element": "H" 
			},
			{
				"x": 1.8128181048,
				"y": 1.5241679167,
				"z": -0.5362381575,
				"element": "H" 
			},
			{
				"x": 1.2134493565,
				"y": 2.1197325806,
				"z": 1.0077682321,
				"element": "H" 
			},
			{
				"x": -0.8414073303,
				"y": 0.7382849054,
				"z": 0.7811288743,
				"element": "H" 
			},
			{
				"x": -0.6482532733,
				"y": 1.7652261367,
				"z": -0.6360379428,
				"element": "H" 
			},
			{
				"x": 0.3224058733,
				"y": -0.1142370649,
				"z": -1.9134107609,
				"element": "H" 
			},
			{
				"x": 0.4478094532,
				"y": -2.3973903497,
				"z": -0.9763164919,
				"element": "H" 
			},
			{
				"x": -0.1660697744,
				"y": -1.8253248885,
				"z": 0.571694238,
				"element": "H" 
			},
			{
				"x": 2.4778250287,
				"y": -1.0006455596,
				"z": -0.742918047,
				"element": "H" 
			},
			{
				"x": 2.3091639084,
				"y": -2.0403340607,
				"z": 0.6671931504,
				"element": "H" 
			},
			{
				"x": -2.4315439645,
				"y": -1.0395631965,
				"z": 0.5365848783,
				"element": "H" 
			},
			{
				"x": -4.7206346422,
				"y": -1.5822587333,
				"z": -0.2023886765,
				"element": "H" 
			},
			{
				"x": -5.3030333029,
				"y": -1.5385449334,
				"z": -2.6208186535,
				"element": "H" 
			},
			{
				"x": -3.5584479215,
				"y": -0.9427105344,
				"z": -4.292692159,
				"element": "H" 
			},
			{
				"x": -1.2631355466,
				"y": -0.3986507374,
				"z": -3.5495473774,
				"element": "H" 
			},
			{
				"x": 4.0220167477,
				"y": 0.6462906272,
				"z": 0.7010712784,
				"element": "H" 
			}
		],
		 "valence_orbital": [ 
			{
				"type": "occ",
				"energy": -0.28675,
				"method": "rhf"
			},
			{
				"type": "occ",
				"energy": -0.26328,
				"method": "rhf"
			},
			{
				"type": "occ",
				"energy": -0.26096,
				"method": "rhf"
			},
			{
				"type": "occ",
				"energy": -0.24673,
				"method": "rhf"
			},
			{
				"type": "occ",
				"energy": -0.23888,
				"method": "rhf"
			},
			{
				"type": "unocc",
				"energy": -0.01107,
				"method": "rhf"
			},
			{
				"type": "unocc",
				"energy": 0.0004,
				"method": "rhf"
			},
			{
				"type": "unocc",
				"energy": 0.0029,
				"method": "rhf"
			},
			{
				"type": "unocc",
				"energy": 0.06292,
				"method": "rhf"
			},
			{
				"type": "unocc",
				"energy": 0.06886,
				"method": "rhf"
			}
		],
		"cosmo_sigma_profile": { 
			"-0.025": 0.0,
			"-0.024": 0.0,
			"-0.023": 0.0,
			"-0.022": 0.0,
			"-0.021": 0.0,
			"-0.02": 0.0,
			"-0.019": 0.0,
			"-0.018": 0.0,
			"-0.017": 0.242520447794,
			"-0.016": 1.16751863,
			"-0.015": 1.76955927607,
			"-0.014": 2.42885207659,
			"-0.013": 1.8487767625,
			"-0.012": 1.40263171648,
			"-0.011": 2.09998116992,
			"-0.01": 2.36885922983,
			"-0.009": 2.2302247933,
			"-0.008": 1.68723948925,
			"-0.007": 2.51788579658,
			"-0.006": 4.21284917562,
			"-0.005": 16.2208547111,
			"-0.004": 22.7800135931,
			"-0.003": 30.9267727348,
			"-0.002": 28.2398174776,
			"-0.001": 31.3145226522,
			"0.0": 21.4000800121,
			"0.001": 15.0498007861,
			"0.002": 12.0167231309,
			"0.003": 10.4881843,
			"0.004": 11.0950594488,
			"0.005": 10.3921296834,
			"0.006": 10.9900089536,
			"0.007": 6.70639900987,
			"0.008": 2.19444890174,
			"0.009": 2.12784386947,
			"0.01": 3.34155278781,
			"0.011": 4.16907826272,
			"0.012": 6.75212807881,
			"0.013": 7.55871636276,
			"0.014": 1.69135282123,
			"0.015": 0.0,
			"0.016": 0.0,
			"0.017": 0.0,
			"0.018": 0.0,
			"0.019": 0.0,
			"0.02": 0.0,
			"0.021": 0.0,
			"0.022": 0.0,
			"0.023": 0.0,
			"0.024": 0.0,
			"0.025": 0.0
		}
	}
}
