{
	 "smiles": "COC1=CC2=C(C=C1)C(O)=C(C=N2)C(O)=O", 
	 "Tm": 543.15, 
	 "num_atms": 25, 
	 "gaussian": { 
		 "optdone": 1, 
		 "sigma_profile": "yes", 
		 "theory": "DFT", 
		 "functional": "B3LYP", 
		 "basiset": "6-31G**", 
		 "properties": { 
			 "R2extent": 4796.5353, 
			 "electric_dipole_moment_norm": 9.46216799893, 
			 "electric_quadrupole_moment_norm": 8.83133996345, 
			 "total_energy": -780.243642969, 
			 "HOMO_LUMO_gap": 0.16368, 
			 "cosmo_polarized_energy": -23.75, 
			 "cosmo_cavitation_energy": 29.36, 
			 "cosmo_dispersion_energy": -22.38, 
			 "cosmo_repulsion_energy": 1.69, 
			 "cosmo_total_nonelectrostatic_energy": 8.67, 
			 "SMD_solvation_energy": 5.54 
		},
		"coords": [
			{
				"x": 2.0676519938,
				"y": -0.3446578536,
				"z": 4.9261400909,
				"element": "C" 
			},
			{
				"x": 1.7885011045,
				"y": 0.7835254076,
				"z": 4.1078907804,
				"element": "O" 
			},
			{
				"x": 1.1177498134,
				"y": 0.6034633006,
				"z": 2.940245122,
				"element": "C" 
			},
			{
				"x": 0.8722475425,
				"y": 1.7421232743,
				"z": 2.1886392079,
				"element": "C" 
			},
			{
				"x": 0.1859631101,
				"y": 1.6673298129,
				"z": 0.9607613027,
				"element": "C" 
			},
			{
				"x": -0.2554485851,
				"y": 0.3893409454,
				"z": 0.4825965826,
				"element": "C" 
			},
			{
				"x": -0.0041026648,
				"y": -0.7540858889,
				"z": 1.2780118608,
				"element": "C" 
			},
			{
				"x": 0.6675006122,
				"y": -0.6611154134,
				"z": 2.4785223639,
				"element": "C" 
			},
			{
				"x": -0.9289361112,
				"y": 0.3615577313,
				"z": -0.7725466332,
				"element": "C" 
			},
			{
				"x": -1.3691151543,
				"y": -0.8174945621,
				"z": -1.308294162,
				"element": "O" 
			},
			{
				"x": -1.1583283443,
				"y": 1.5403629675,
				"z": -1.4658221352,
				"element": "C" 
			},
			{
				"x": -0.6797742309,
				"y": 2.7440901497,
				"z": -0.8669531924,
				"element": "C" 
			},
			{
				"x": -0.0366608684,
				"y": 2.8305125815,
				"z": 0.2726363577,
				"element": "N" 
			},
			{
				"x": -1.8460573739,
				"y": 1.6774371749,
				"z": -2.7933253253,
				"element": "C" 
			},
			{
				"x": -2.273113439,
				"y": 0.5543326243,
				"z": -3.4075817472,
				"element": "O" 
			},
			{
				"x": -2.0155587498,
				"y": 2.7596739243,
				"z": -3.3115992836,
				"element": "O" 
			},
			{
				"x": 2.6079777578,
				"y": 0.0422609239,
				"z": 5.7908127434,
				"element": "H" 
			},
			{
				"x": 1.1478384535,
				"y": -0.8354992925,
				"z": 5.2678451676,
				"element": "H" 
			},
			{
				"x": 2.6985652594,
				"y": -1.0764745371,
				"z": 4.4063856205,
				"element": "H" 
			},
			{
				"x": 1.2047251733,
				"y": 2.7113837286,
				"z": 2.5409845545,
				"element": "H" 
			},
			{
				"x": -0.3532080957,
				"y": -1.7389112791,
				"z": 0.9730560885,
				"element": "H" 
			},
			{
				"x": 0.838986533,
				"y": -1.5564684252,
				"z": 3.0630039062,
				"element": "H" 
			},
			{
				"x": -1.0039052539,
				"y": -1.5743456385,
				"z": -0.8334566502,
				"element": "H" 
			},
			{
				"x": -0.8619538686,
				"y": 3.6650063651,
				"z": -1.4153706833,
				"element": "H" 
			},
			{
				"x": -2.0642446137,
				"y": -0.2282480216,
				"z": -2.8699819368,
				"element": "H" 
			}
		],
		 "valence_orbital": [ 
			{
				"type": "occ",
				"energy": -0.28613,
				"method": "rhf"
			},
			{
				"type": "occ",
				"energy": -0.27181,
				"method": "rhf"
			},
			{
				"type": "occ",
				"energy": -0.25833,
				"method": "rhf"
			},
			{
				"type": "occ",
				"energy": -0.25624,
				"method": "rhf"
			},
			{
				"type": "occ",
				"energy": -0.23231,
				"method": "rhf"
			},
			{
				"type": "unocc",
				"energy": -0.06863,
				"method": "rhf"
			},
			{
				"type": "unocc",
				"energy": -0.04035,
				"method": "rhf"
			},
			{
				"type": "unocc",
				"energy": 0.0091,
				"method": "rhf"
			},
			{
				"type": "unocc",
				"energy": 0.02197,
				"method": "rhf"
			},
			{
				"type": "unocc",
				"energy": 0.03468,
				"method": "rhf"
			}
		],
		"cosmo_sigma_profile": { 
			"-0.025": 0.0,
			"-0.024": 0.0,
			"-0.023": 0.0,
			"-0.022": 0.0,
			"-0.021": 0.0537482637905,
			"-0.02": 1.05439499754,
			"-0.019": 0.666709257817,
			"-0.018": 1.19411381067,
			"-0.017": 0.99174622422,
			"-0.016": 0.6472160836,
			"-0.015": 1.1148372569,
			"-0.014": 1.10347348935,
			"-0.013": 1.47940883969,
			"-0.012": 0.61155612134,
			"-0.011": 1.19236824226,
			"-0.01": 1.70605961544,
			"-0.009": 1.86935129638,
			"-0.008": 3.17769071736,
			"-0.007": 7.48828996779,
			"-0.006": 14.9770599278,
			"-0.005": 16.6594645656,
			"-0.004": 14.3306731583,
			"-0.003": 16.0497230053,
			"-0.002": 12.4939479706,
			"-0.001": 16.9123562572,
			"0.0": 15.9760943422,
			"0.001": 16.3812191597,
			"0.002": 17.1110162632,
			"0.003": 13.7738442181,
			"0.004": 6.48670496935,
			"0.005": 6.14367160651,
			"0.006": 4.64334351215,
			"0.007": 5.06716262387,
			"0.008": 5.06121881052,
			"0.009": 5.24440258569,
			"0.01": 5.3533372728,
			"0.011": 5.88449560358,
			"0.012": 6.91265997933,
			"0.013": 3.30333283975,
			"0.014": 1.3775566353,
			"0.015": 0.622513360061,
			"0.016": 0.681938101592,
			"0.017": 0.00857138334252,
			"0.018": 0.0,
			"0.019": 0.0,
			"0.02": 0.0,
			"0.021": 0.0,
			"0.022": 0.0,
			"0.023": 0.0,
			"0.024": 0.0,
			"0.025": 0.0
		}
	}
}
