{
	 "smiles": "OC(=O)C(OC1=C(Br)C=C(Cl)C=C1)C1=CC=CC=C1", 
	 "Tm": 409.15, 
	 "num_atms": 29, 
	 "gaussian": { 
		 "optdone": 1, 
		 "sigma_profile": "yes", 
		 "theory": "DFT", 
		 "functional": "B3LYP", 
		 "basiset": "6-31G**", 
		 "properties": { 
			 "R2extent": 9401.1075, 
			 "electric_dipole_moment_norm": 1.87181367395, 
			 "electric_quadrupole_moment_norm": 10.3791943926, 
			 "total_energy": -3796.77910932, 
			 "HOMO_LUMO_gap": 0.21327, 
			 "cosmo_polarized_energy": -12.12, 
			 "cosmo_cavitation_energy": 38.28, 
			 "cosmo_dispersion_energy": -26.86, 
			 "cosmo_repulsion_energy": 2.1, 
			 "cosmo_total_nonelectrostatic_energy": 13.52, 
			 "SMD_solvation_energy": 6.33 
		},
		"coords": [
			{
				"x": 1.182972583,
				"y": -0.7910729143,
				"z": -0.7729065716,
				"element": "O" 
			},
			{
				"x": 0.1755836219,
				"y": -0.3776196247,
				"z": -1.5691061547,
				"element": "C" 
			},
			{
				"x": 0.2495175595,
				"y": -0.3483521971,
				"z": -2.7770448729,
				"element": "O" 
			},
			{
				"x": -1.0987502174,
				"y": -0.0049382288,
				"z": -0.7998260587,
				"element": "C" 
			},
			{
				"x": -0.8274955891,
				"y": 0.4918092214,
				"z": 0.510177785,
				"element": "O" 
			},
			{
				"x": -0.3727290564,
				"y": 1.7860189084,
				"z": 0.6029843085,
				"element": "C" 
			},
			{
				"x": -1.2442957567,
				"y": 2.8842557632,
				"z": 0.5469464366,
				"element": "C" 
			},
			{
				"x": -3.1110121508,
				"y": 2.6184586321,
				"z": 0.2770001214,
				"element": "Br" 
			},
			{
				"x": -0.7687980253,
				"y": 4.1841985665,
				"z": 0.7121568079,
				"element": "C" 
			},
			{
				"x": 0.5910558385,
				"y": 4.3825713871,
				"z": 0.9458577512,
				"element": "C" 
			},
			{
				"x": 1.1907070845,
				"y": 6.0181615288,
				"z": 1.1576624548,
				"element": "Cl" 
			},
			{
				"x": 1.4748290634,
				"y": 3.307012198,
				"z": 1.0219644666,
				"element": "C" 
			},
			{
				"x": 0.9842665823,
				"y": 2.0149156382,
				"z": 0.8484520091,
				"element": "C" 
			},
			{
				"x": -1.9911186947,
				"y": -1.2359233575,
				"z": -0.6940964025,
				"element": "C" 
			},
			{
				"x": -2.537920534,
				"y": -1.7830342321,
				"z": -1.8620180019,
				"element": "C" 
			},
			{
				"x": -3.3534686676,
				"y": -2.9113696745,
				"z": -1.7913724304,
				"element": "C" 
			},
			{
				"x": -3.6287159375,
				"y": -3.5017861299,
				"z": -0.5556652303,
				"element": "C" 
			},
			{
				"x": -3.0822236728,
				"y": -2.9578741279,
				"z": 0.6069852979,
				"element": "C" 
			},
			{
				"x": -2.2623815731,
				"y": -1.829132051,
				"z": 0.5416691642,
				"element": "C" 
			},
			{
				"x": 1.9076828813,
				"y": -1.0437300513,
				"z": -1.3705542502,
				"element": "H" 
			},
			{
				"x": -1.5995690892,
				"y": 0.7596324455,
				"z": -1.4032085467,
				"element": "H" 
			},
			{
				"x": -1.449906845,
				"y": 5.024704462,
				"z": 0.6681176009,
				"element": "H" 
			},
			{
				"x": 2.5279381171,
				"y": 3.4783182603,
				"z": 1.2130898686,
				"element": "H" 
			},
			{
				"x": 1.6421757212,
				"y": 1.1552302594,
				"z": 0.8996905461,
				"element": "H" 
			},
			{
				"x": -2.3167800769,
				"y": -1.3282169352,
				"z": -2.8232957813,
				"element": "H" 
			},
			{
				"x": -3.7759625267,
				"y": -3.3270421235,
				"z": -2.701555582,
				"element": "H" 
			},
			{
				"x": -4.2666942802,
				"y": -4.37914645,
				"z": -0.5005299367,
				"element": "H" 
			},
			{
				"x": -3.2928613963,
				"y": -3.4111551369,
				"z": 1.5714576156,
				"element": "H" 
			},
			{
				"x": -1.841344963,
				"y": -1.4008940361,
				"z": 1.4433675857,
				"element": "H" 
			}
		],
		 "valence_orbital": [ 
			{
				"type": "occ",
				"energy": -0.28191,
				"method": "rhf"
			},
			{
				"type": "occ",
				"energy": -0.26513,
				"method": "rhf"
			},
			{
				"type": "occ",
				"energy": -0.25308,
				"method": "rhf"
			},
			{
				"type": "occ",
				"energy": -0.24991,
				"method": "rhf"
			},
			{
				"type": "occ",
				"energy": -0.24575,
				"method": "rhf"
			},
			{
				"type": "unocc",
				"energy": -0.03248,
				"method": "rhf"
			},
			{
				"type": "unocc",
				"energy": -0.02701,
				"method": "rhf"
			},
			{
				"type": "unocc",
				"energy": -0.02055,
				"method": "rhf"
			},
			{
				"type": "unocc",
				"energy": -0.01216,
				"method": "rhf"
			},
			{
				"type": "unocc",
				"energy": -0.00485,
				"method": "rhf"
			}
		],
		"cosmo_sigma_profile": { 
			"-0.025": 0.0,
			"-0.024": 0.0,
			"-0.023": 0.0,
			"-0.022": 0.0,
			"-0.021": 0.0,
			"-0.02": 0.0,
			"-0.019": 0.402654674421,
			"-0.018": 1.36368494158,
			"-0.017": 0.310437100251,
			"-0.016": 0.974275829629,
			"-0.015": 1.04909715173,
			"-0.014": 0.791281439018,
			"-0.013": 0.614002676437,
			"-0.012": 0.542088163321,
			"-0.011": 0.798224110158,
			"-0.01": 0.681190221686,
			"-0.009": 0.821546008463,
			"-0.008": 3.64613243879,
			"-0.007": 6.75884033687,
			"-0.006": 13.8782888148,
			"-0.005": 17.0598912895,
			"-0.004": 20.4011548908,
			"-0.003": 19.0321567428,
			"-0.002": 18.8546367494,
			"-0.001": 20.031623949,
			"0.0": 27.0626215729,
			"0.001": 33.0363784965,
			"0.002": 28.8536949159,
			"0.003": 28.0713055525,
			"0.004": 29.4107151364,
			"0.005": 16.7545687701,
			"0.006": 4.70707639029,
			"0.007": 2.99971595859,
			"0.008": 3.14001848711,
			"0.009": 2.58081211711,
			"0.01": 2.06460175874,
			"0.011": 4.90885814521,
			"0.012": 0.885436971126,
			"0.013": 0.0,
			"0.014": 0.0,
			"0.015": 0.0,
			"0.016": 0.0,
			"0.017": 0.0,
			"0.018": 0.0,
			"0.019": 0.0,
			"0.02": 0.0,
			"0.021": 0.0,
			"0.022": 0.0,
			"0.023": 0.0,
			"0.024": 0.0,
			"0.025": 0.0
		}
	}
}
