{
	 "smiles": "OC(C(O)=O)C1=CC=C(C=C1)C(F)(F)F", 
	 "Tm": 405.15, 
	 "num_atms": 22, 
	 "gaussian": { 
		 "optdone": 1, 
		 "sigma_profile": "yes", 
		 "theory": "DFT", 
		 "functional": "B3LYP", 
		 "basiset": "6-31G**", 
		 "properties": { 
			 "R2extent": 4116.6922, 
			 "electric_dipole_moment_norm": 2.91926530997, 
			 "electric_quadrupole_moment_norm": 9.86764563967, 
			 "total_energy": -872.379638334, 
			 "HOMO_LUMO_gap": 0.22884, 
			 "cosmo_polarized_energy": -11.89, 
			 "cosmo_cavitation_energy": 28.31, 
			 "cosmo_dispersion_energy": -20.1, 
			 "cosmo_repulsion_energy": 1.52, 
			 "cosmo_total_nonelectrostatic_energy": 9.73, 
			 "SMD_solvation_energy": 7.13 
		},
		"coords": [
			{
				"x": 0.8451132174,
				"y": 3.429632395,
				"z": 0.6137517127,
				"element": "O" 
			},
			{
				"x": 0.6858066314,
				"y": 2.2045342576,
				"z": 1.293696643,
				"element": "C" 
			},
			{
				"x": -0.5477882517,
				"y": 2.1993792337,
				"z": 2.201223665,
				"element": "C" 
			},
			{
				"x": -1.5146619145,
				"y": 3.0176104013,
				"z": 1.7239785882,
				"element": "O" 
			},
			{
				"x": -0.6753610316,
				"y": 1.530705548,
				"z": 3.2003602824,
				"element": "O" 
			},
			{
				"x": 0.6429436293,
				"y": 0.9857909588,
				"z": 0.3595796922,
				"element": "C" 
			},
			{
				"x": 0.4141506421,
				"y": -0.3008994343,
				"z": 0.8665226621,
				"element": "C" 
			},
			{
				"x": 0.4035129791,
				"y": -1.4003344176,
				"z": 0.0128202197,
				"element": "C" 
			},
			{
				"x": 0.6244899135,
				"y": -1.2249493228,
				"z": -1.3566743801,
				"element": "C" 
			},
			{
				"x": 0.8610179229,
				"y": 0.0529948734,
				"z": -1.8653362741,
				"element": "C" 
			},
			{
				"x": 0.8723974654,
				"y": 1.1530714346,
				"z": -1.0083849959,
				"element": "C" 
			},
			{
				"x": 0.5529376842,
				"y": -2.406797174,
				"z": -2.2846160786,
				"element": "C" 
			},
			{
				"x": 0.9738621739,
				"y": -3.5430870021,
				"z": -1.6855822854,
				"element": "F" 
			},
			{
				"x": -0.7139832246,
				"y": -2.6339402794,
				"z": -2.7059121903,
				"element": "F" 
			},
			{
				"x": 1.3068359541,
				"y": -2.226552371,
				"z": -3.3916624007,
				"element": "F" 
			},
			{
				"x": -0.0220603562,
				"y": 3.6916160967,
				"z": 0.2729612414,
				"element": "H" 
			},
			{
				"x": 1.549293837,
				"y": 2.1045533843,
				"z": 1.9603852976,
				"element": "H" 
			},
			{
				"x": -2.2728622487,
				"y": 2.9444517134,
				"z": 2.3276472515,
				"element": "H" 
			},
			{
				"x": 0.2425741031,
				"y": -0.4394138749,
				"z": 1.9292470836,
				"element": "H" 
			},
			{
				"x": 0.2325824491,
				"y": -2.3957050529,
				"z": 0.4087355516,
				"element": "H" 
			},
			{
				"x": 1.0468803416,
				"y": 0.1860122682,
				"z": -2.9256831091,
				"element": "H" 
			},
			{
				"x": 1.0770180833,
				"y": 2.1458263642,
				"z": -1.3925581767,
				"element": "H" 
			}
		],
		 "valence_orbital": [ 
			{
				"type": "occ",
				"energy": -0.34366,
				"method": "rhf"
			},
			{
				"type": "occ",
				"energy": -0.31774,
				"method": "rhf"
			},
			{
				"type": "occ",
				"energy": -0.28331,
				"method": "rhf"
			},
			{
				"type": "occ",
				"energy": -0.2691,
				"method": "rhf"
			},
			{
				"type": "occ",
				"energy": -0.26437,
				"method": "rhf"
			},
			{
				"type": "unocc",
				"energy": -0.03553,
				"method": "rhf"
			},
			{
				"type": "unocc",
				"energy": -0.02131,
				"method": "rhf"
			},
			{
				"type": "unocc",
				"energy": -0.00638,
				"method": "rhf"
			},
			{
				"type": "unocc",
				"energy": 0.04798,
				"method": "rhf"
			},
			{
				"type": "unocc",
				"energy": 0.0949,
				"method": "rhf"
			}
		],
		"cosmo_sigma_profile": { 
			"-0.025": 0.0,
			"-0.024": 0.0,
			"-0.023": 0.0,
			"-0.022": 0.0,
			"-0.021": 0.0,
			"-0.02": 0.166051730329,
			"-0.019": 0.67911204002,
			"-0.018": 0.974898927694,
			"-0.017": 0.929462020439,
			"-0.016": 1.06722123565,
			"-0.015": 0.485995153801,
			"-0.014": 0.773739145428,
			"-0.013": 1.40967158983,
			"-0.012": 1.6363953388,
			"-0.011": 2.00062744134,
			"-0.01": 0.465787688432,
			"-0.009": 1.37864824103,
			"-0.008": 4.33403863011,
			"-0.007": 6.7627335133,
			"-0.006": 8.09757437479,
			"-0.005": 11.3290810322,
			"-0.004": 11.4136645667,
			"-0.003": 11.4612764838,
			"-0.002": 10.4293120969,
			"-0.001": 11.1820754233,
			"0.0": 16.7671123088,
			"0.001": 18.199847491,
			"0.002": 28.5032991557,
			"0.003": 41.8119253112,
			"0.004": 8.3861644444,
			"0.005": 3.66406870385,
			"0.006": 2.84365863927,
			"0.007": 1.68929544963,
			"0.008": 2.33032405091,
			"0.009": 2.57093651256,
			"0.01": 3.84603604982,
			"0.011": 5.94499233597,
			"0.012": 1.78491677021,
			"0.013": 0.711873407871,
			"0.014": 0.0,
			"0.015": 0.0,
			"0.016": 0.0,
			"0.017": 0.0,
			"0.018": 0.0,
			"0.019": 0.0,
			"0.02": 0.0,
			"0.021": 0.0,
			"0.022": 0.0,
			"0.023": 0.0,
			"0.024": 0.0,
			"0.025": 0.0
		}
	}
}
