{
	 "smiles": "CC(=O)CCC1=CC(F)=C(O)C=C1", 
	 "Tm": 362.15, 
	 "num_atms": 24, 
	 "gaussian": { 
		 "optdone": 1, 
		 "sigma_profile": "yes", 
		 "theory": "DFT", 
		 "functional": "B3LYP", 
		 "basiset": "6-31G**", 
		 "properties": { 
			 "R2extent": 4227.0399, 
			 "electric_dipole_moment_norm": 2.32555334706, 
			 "electric_quadrupole_moment_norm": 16.2131987529, 
			 "total_energy": -637.978462788, 
			 "HOMO_LUMO_gap": 0.20344, 
			 "cosmo_polarized_energy": -11.53, 
			 "cosmo_cavitation_energy": 28.87, 
			 "cosmo_dispersion_energy": -20.49, 
			 "cosmo_repulsion_energy": 1.62, 
			 "cosmo_total_nonelectrostatic_energy": 10.0, 
			 "SMD_solvation_energy": 6.22 
		},
		"coords": [
			{
				"x": 3.5852973413,
				"y": -3.1420272298,
				"z": -2.6701483186,
				"element": "C" 
			},
			{
				"x": 2.1269319371,
				"y": -3.2866987172,
				"z": -2.267686638,
				"element": "C" 
			},
			{
				"x": 1.4420281707,
				"y": -4.2091192335,
				"z": -2.6685151232,
				"element": "O" 
			},
			{
				"x": 1.5678994951,
				"y": -2.2162280853,
				"z": -1.3368785825,
				"element": "C" 
			},
			{
				"x": 0.0849121736,
				"y": -2.4177518771,
				"z": -0.9883102464,
				"element": "C" 
			},
			{
				"x": -0.4470157497,
				"y": -1.3470133121,
				"z": -0.0608157178,
				"element": "C" 
			},
			{
				"x": -0.3416290836,
				"y": -1.4891758329,
				"z": 1.3313546927,
				"element": "C" 
			},
			{
				"x": -0.8045873984,
				"y": -0.4808900895,
				"z": 2.1571561503,
				"element": "C" 
			},
			{
				"x": -0.719027334,
				"y": -0.5971980453,
				"z": 3.5130502384,
				"element": "F" 
			},
			{
				"x": -1.3827878456,
				"y": 0.6922650513,
				"z": 1.6656969296,
				"element": "C" 
			},
			{
				"x": -1.8332525025,
				"y": 1.6651649682,
				"z": 2.5054012818,
				"element": "O" 
			},
			{
				"x": -1.4915846065,
				"y": 0.8362950608,
				"z": 0.2826049435,
				"element": "C" 
			},
			{
				"x": -1.0279706254,
				"y": -0.1738837633,
				"z": -0.561840128,
				"element": "C" 
			},
			{
				"x": 3.8722584004,
				"y": -3.9704218764,
				"z": -3.3192577875,
				"element": "H" 
			},
			{
				"x": 3.7451608078,
				"y": -2.19266478,
				"z": -3.1944572182,
				"element": "H" 
			},
			{
				"x": 4.2301918055,
				"y": -3.1277169718,
				"z": -1.7839196669,
				"element": "H" 
			},
			{
				"x": 1.7269742249,
				"y": -1.2335396733,
				"z": -1.8029459022,
				"element": "H" 
			},
			{
				"x": 2.1821727521,
				"y": -2.1977224508,
				"z": -0.4253074101,
				"element": "H" 
			},
			{
				"x": -0.0389418376,
				"y": -3.4084568316,
				"z": -0.5392854396,
				"element": "H" 
			},
			{
				"x": -0.4952006853,
				"y": -2.435155606,
				"z": -1.9164079636,
				"element": "H" 
			},
			{
				"x": 0.0898626288,
				"y": -2.3791496152,
				"z": 1.7796814087,
				"element": "H" 
			},
			{
				"x": -1.6726435862,
				"y": 1.3666512375,
				"z": 3.4124484262,
				"element": "H" 
			},
			{
				"x": -1.945809547,
				"y": 1.7391712809,
				"z": -0.112137213,
				"element": "H" 
			},
			{
				"x": -1.1277389354,
				"y": -0.0479336076,
				"z": -1.6367807158,
				"element": "H" 
			}
		],
		 "valence_orbital": [ 
			{
				"type": "occ",
				"energy": -0.34223,
				"method": "rhf"
			},
			{
				"type": "occ",
				"energy": -0.32841,
				"method": "rhf"
			},
			{
				"type": "occ",
				"energy": -0.25327,
				"method": "rhf"
			},
			{
				"type": "occ",
				"energy": -0.24978,
				"method": "rhf"
			},
			{
				"type": "occ",
				"energy": -0.21931,
				"method": "rhf"
			},
			{
				"type": "unocc",
				"energy": -0.01587,
				"method": "rhf"
			},
			{
				"type": "unocc",
				"energy": -0.00447,
				"method": "rhf"
			},
			{
				"type": "unocc",
				"energy": 0.00749,
				"method": "rhf"
			},
			{
				"type": "unocc",
				"energy": 0.06702,
				"method": "rhf"
			},
			{
				"type": "unocc",
				"energy": 0.0851,
				"method": "rhf"
			}
		],
		"cosmo_sigma_profile": { 
			"-0.025": 0.0,
			"-0.024": 0.0,
			"-0.023": 0.0,
			"-0.022": 0.0,
			"-0.021": 0.0,
			"-0.02": 0.0,
			"-0.019": 0.0,
			"-0.018": 0.0,
			"-0.017": 0.010824846268,
			"-0.016": 0.737826372152,
			"-0.015": 0.598513825949,
			"-0.014": 0.286838055348,
			"-0.013": 0.575488095085,
			"-0.012": 0.915665089237,
			"-0.011": 1.05341235821,
			"-0.01": 0.727308997431,
			"-0.009": 1.02882745023,
			"-0.008": 0.929345090063,
			"-0.007": 3.16259770199,
			"-0.006": 14.2271303449,
			"-0.005": 17.8931597548,
			"-0.004": 22.0275134426,
			"-0.003": 20.0898805331,
			"-0.002": 16.6665289788,
			"-0.001": 15.6988352103,
			"0.0": 14.2216654055,
			"0.001": 14.6771534359,
			"0.002": 12.6456572125,
			"0.003": 15.654731142,
			"0.004": 16.987505953,
			"0.005": 9.16258626485,
			"0.006": 3.62020847119,
			"0.007": 3.098156735,
			"0.008": 3.26864648141,
			"0.009": 2.60571192215,
			"0.01": 3.89862374481,
			"0.011": 5.06019383117,
			"0.012": 4.59608764055,
			"0.013": 2.01332626224,
			"0.014": 0.15469921129,
			"0.015": 0.0,
			"0.016": 0.0,
			"0.017": 0.0,
			"0.018": 0.0,
			"0.019": 0.0,
			"0.02": 0.0,
			"0.021": 0.0,
			"0.022": 0.0,
			"0.023": 0.0,
			"0.024": 0.0,
			"0.025": 0.0
		}
	}
}
