{
	 "smiles": "COC1=C(Br)C=C(CCC(O)=O)C=C1", 
	 "Tm": 369.15, 
	 "num_atms": 25, 
	 "gaussian": { 
		 "optdone": 1, 
		 "sigma_profile": "yes", 
		 "theory": "DFT", 
		 "functional": "B3LYP", 
		 "basiset": "6-31G**", 
		 "properties": { 
			 "R2extent": 5263.6076, 
			 "electric_dipole_moment_norm": 3.57514213424, 
			 "electric_quadrupole_moment_norm": 12.0541545855, 
			 "total_energy": -3184.77420125, 
			 "HOMO_LUMO_gap": 0.22055, 
			 "cosmo_polarized_energy": -12.32, 
			 "cosmo_cavitation_energy": 31.44, 
			 "cosmo_dispersion_energy": -22.5, 
			 "cosmo_repulsion_energy": 1.81, 
			 "cosmo_total_nonelectrostatic_energy": 10.75, 
			 "SMD_solvation_energy": 5.95 
		},
		"coords": [
			{
				"x": -2.7787518252,
				"y": 2.8924866098,
				"z": 0.8465750609,
				"element": "C" 
			},
			{
				"x": -2.4827569101,
				"y": 2.1716766866,
				"z": 2.0455365425,
				"element": "O" 
			},
			{
				"x": -1.6447564002,
				"y": 1.0982610214,
				"z": 1.8822332915,
				"element": "C" 
			},
			{
				"x": -0.2498715323,
				"y": 1.2266503296,
				"z": 1.936055695,
				"element": "C" 
			},
			{
				"x": 0.5325935648,
				"y": 2.9497658255,
				"z": 2.1942983937,
				"element": "Br" 
			},
			{
				"x": 0.5807520294,
				"y": 0.1135185604,
				"z": 1.8256155565,
				"element": "C" 
			},
			{
				"x": 0.0352386732,
				"y": -1.1664237892,
				"z": 1.6577402116,
				"element": "C" 
			},
			{
				"x": 0.9298171085,
				"y": -2.3828266218,
				"z": 1.5191164887,
				"element": "C" 
			},
			{
				"x": 1.342260158,
				"y": -2.6873165721,
				"z": 0.0675718466,
				"element": "C" 
			},
			{
				"x": 2.4007516319,
				"y": -1.7433041079,
				"z": -0.4647149665,
				"element": "C" 
			},
			{
				"x": 2.4680171867,
				"y": -1.781057637,
				"z": -1.8157332726,
				"element": "O" 
			},
			{
				"x": 3.1395808567,
				"y": -1.0524330819,
				"z": 0.2041273207,
				"element": "O" 
			},
			{
				"x": -1.3590694292,
				"y": -1.2955585646,
				"z": 1.6090982551,
				"element": "C" 
			},
			{
				"x": -2.186084427,
				"y": -0.1798709485,
				"z": 1.7166464623,
				"element": "C" 
			},
			{
				"x": -3.4607450845,
				"y": 3.6955069622,
				"z": 1.1323503179,
				"element": "H" 
			},
			{
				"x": -1.873090955,
				"y": 3.3258678361,
				"z": 0.4074163982,
				"element": "H" 
			},
			{
				"x": -3.2678480577,
				"y": 2.2448536714,
				"z": 0.1073957225,
				"element": "H" 
			},
			{
				"x": 1.6565711684,
				"y": 0.2395982827,
				"z": 1.8632428232,
				"element": "H" 
			},
			{
				"x": 0.4056635721,
				"y": -3.2590895946,
				"z": 1.915038063,
				"element": "H" 
			},
			{
				"x": 1.8375746967,
				"y": -2.2519725052,
				"z": 2.1153550745,
				"element": "H" 
			},
			{
				"x": 1.7690519698,
				"y": -3.6972754008,
				"z": 0.0003797736,
				"element": "H" 
			},
			{
				"x": 0.4824981336,
				"y": -2.673649234,
				"z": -0.6094814598,
				"element": "H" 
			},
			{
				"x": 3.1887484285,
				"y": -1.1792000589,
				"z": -2.0682775576,
				"element": "H" 
			},
			{
				"x": -1.8042199404,
				"y": -2.2808712449,
				"z": 1.4947932227,
				"element": "H" 
			},
			{
				"x": -3.267124617,
				"y": -0.2778364244,
				"z": 1.6954207359,
				"element": "H" 
			}
		],
		 "valence_orbital": [ 
			{
				"type": "occ",
				"energy": -0.28262,
				"method": "rhf"
			},
			{
				"type": "occ",
				"energy": -0.27915,
				"method": "rhf"
			},
			{
				"type": "occ",
				"energy": -0.27324,
				"method": "rhf"
			},
			{
				"type": "occ",
				"energy": -0.24769,
				"method": "rhf"
			},
			{
				"type": "occ",
				"energy": -0.23314,
				"method": "rhf"
			},
			{
				"type": "unocc",
				"energy": -0.01259,
				"method": "rhf"
			},
			{
				"type": "unocc",
				"energy": -0.00707,
				"method": "rhf"
			},
			{
				"type": "unocc",
				"energy": 0.00291,
				"method": "rhf"
			},
			{
				"type": "unocc",
				"energy": 0.01482,
				"method": "rhf"
			},
			{
				"type": "unocc",
				"energy": 0.07531,
				"method": "rhf"
			}
		],
		"cosmo_sigma_profile": { 
			"-0.025": 0.0,
			"-0.024": 0.0,
			"-0.023": 0.0,
			"-0.022": 0.0,
			"-0.021": 0.0,
			"-0.02": 0.0,
			"-0.019": 0.0,
			"-0.018": 0.648228313791,
			"-0.017": 1.03816727427,
			"-0.016": 0.61170622243,
			"-0.015": 0.957237290384,
			"-0.014": 0.963251534204,
			"-0.013": 0.526010874302,
			"-0.012": 0.530126569801,
			"-0.011": 0.67021832587,
			"-0.01": 0.700589435224,
			"-0.009": 0.4128233722,
			"-0.008": 0.944351517788,
			"-0.007": 3.81280420395,
			"-0.006": 9.63882580029,
			"-0.005": 15.3757231972,
			"-0.004": 22.2435686994,
			"-0.003": 28.2208556327,
			"-0.002": 22.7351962475,
			"-0.001": 16.4323999885,
			"0.0": 13.4918617718,
			"0.001": 14.2454133164,
			"0.002": 19.4196902208,
			"0.003": 20.9626629164,
			"0.004": 17.5716967126,
			"0.005": 10.5052728179,
			"0.006": 4.53649143524,
			"0.007": 4.32847939594,
			"0.008": 3.88068196943,
			"0.009": 5.0015456106,
			"0.01": 4.07079158254,
			"0.011": 4.48440342864,
			"0.012": 3.04993249208,
			"0.013": 0.114085809643,
			"0.014": 0.0,
			"0.015": 0.0,
			"0.016": 0.0,
			"0.017": 0.0,
			"0.018": 0.0,
			"0.019": 0.0,
			"0.02": 0.0,
			"0.021": 0.0,
			"0.022": 0.0,
			"0.023": 0.0,
			"0.024": 0.0,
			"0.025": 0.0
		}
	}
}
