{
	 "smiles": "[O-][N+](=O)C1=CC(=C(CC(=O)NC2=CC=CC=C2)C=C1CC(=O)NC1=CC=CC=C1)[N+]([O-])=O", 
	 "Tm": 540.15, 
	 "num_atms": 50, 
	 "gaussian": { 
		 "optdone": 1, 
		 "sigma_profile": "yes", 
		 "theory": "DFT", 
		 "functional": "B3LYP", 
		 "basiset": "6-31G**", 
		 "properties": { 
			 "R2extent": 13340.6604, 
			 "electric_dipole_moment_norm": 3.57353319, 
			 "electric_quadrupole_moment_norm": 16.0602496852, 
			 "total_energy": -1519.37108289, 
			 "HOMO_LUMO_gap": 0.1135, 
			 "cosmo_polarized_energy": -22.91, 
			 "cosmo_cavitation_energy": 55.8, 
			 "cosmo_dispersion_energy": -34.83, 
			 "cosmo_repulsion_energy": 2.56, 
			 "cosmo_total_nonelectrostatic_energy": 23.53, 
			 "SMD_solvation_energy": 13.49 
		},
		"coords": [
			{
				"x": 3.0064513399,
				"y": -2.1433382056,
				"z": -4.1570672215,
				"element": "O" 
			},
			{
				"x": 2.9980752612,
				"y": -0.9802969077,
				"z": -3.7549447861,
				"element": "N" 
			},
			{
				"x": 3.9770530091,
				"y": -0.2373386263,
				"z": -3.7488478205,
				"element": "O" 
			},
			{
				"x": 1.7220470576,
				"y": -0.427552308,
				"z": -3.2601991798,
				"element": "C" 
			},
			{
				"x": 1.6577405691,
				"y": 0.9567246036,
				"z": -3.1878321019,
				"element": "C" 
			},
			{
				"x": 0.5011781937,
				"y": 1.5718946481,
				"z": -2.7202106066,
				"element": "C" 
			},
			{
				"x": -0.629656068,
				"y": 0.819825495,
				"z": -2.3496364401,
				"element": "C" 
			},
			{
				"x": -1.9347211394,
				"y": 1.363098448,
				"z": -1.8088268685,
				"element": "C" 
			},
			{
				"x": -1.9801480873,
				"y": 1.1552830881,
				"z": -0.2762551308,
				"element": "C" 
			},
			{
				"x": -2.4656564822,
				"y": 0.1347262027,
				"z": 0.1994526241,
				"element": "O" 
			},
			{
				"x": -1.4036746938,
				"y": 2.1681797145,
				"z": 0.4322428232,
				"element": "N" 
			},
			{
				"x": -1.2022011086,
				"y": 2.2686603538,
				"z": 1.8271409749,
				"element": "C" 
			},
			{
				"x": -1.7311978701,
				"y": 1.3550336333,
				"z": 2.7520747176,
				"element": "C" 
			},
			{
				"x": -1.4779586819,
				"y": 1.5378487234,
				"z": 4.1128441937,
				"element": "C" 
			},
			{
				"x": -0.7134063272,
				"y": 2.6126019946,
				"z": 4.5682025741,
				"element": "C" 
			},
			{
				"x": -0.1953818011,
				"y": 3.5217751532,
				"z": 3.6431820953,
				"element": "C" 
			},
			{
				"x": -0.4361958818,
				"y": 3.3537627239,
				"z": 2.2826538556,
				"element": "C" 
			},
			{
				"x": -0.520337695,
				"y": -0.5721176259,
				"z": -2.4672413356,
				"element": "C" 
			},
			{
				"x": 0.6319620363,
				"y": -1.2444605238,
				"z": -2.8892286389,
				"element": "C" 
			},
			{
				"x": 0.660485534,
				"y": -2.7626910741,
				"z": -2.911940258,
				"element": "C" 
			},
			{
				"x": -0.5414867949,
				"y": -3.3988962081,
				"z": -2.2136208034,
				"element": "C" 
			},
			{
				"x": -1.5326824165,
				"y": -3.7401221283,
				"z": -2.8447904864,
				"element": "O" 
			},
			{
				"x": -0.4857519584,
				"y": -3.5484666534,
				"z": -0.8472210056,
				"element": "N" 
			},
			{
				"x": 0.5053896434,
				"y": -3.0783103326,
				"z": 0.0704955105,
				"element": "C" 
			},
			{
				"x": 0.1861355196,
				"y": -2.0369290105,
				"z": 0.9510200951,
				"element": "C" 
			},
			{
				"x": 1.1333696736,
				"y": -1.5958463823,
				"z": 1.875851673,
				"element": "C" 
			},
			{
				"x": 2.4025462878,
				"y": -2.1778382438,
				"z": 1.91590792,
				"element": "C" 
			},
			{
				"x": 2.7190212931,
				"y": -3.215865283,
				"z": 1.0371015929,
				"element": "C" 
			},
			{
				"x": 1.7690514571,
				"y": -3.6779896722,
				"z": 0.1249212588,
				"element": "C" 
			},
			{
				"x": 0.5477644367,
				"y": 3.0403816893,
				"z": -2.6579176573,
				"element": "N" 
			},
			{
				"x": -0.1861868288,
				"y": 3.6281312835,
				"z": -1.8496309609,
				"element": "O" 
			},
			{
				"x": 1.3279136547,
				"y": 3.6164095721,
				"z": -3.4059690849,
				"element": "O" 
			},
			{
				"x": 2.5124097379,
				"y": 1.5501770491,
				"z": -3.4811913728,
				"element": "H" 
			},
			{
				"x": -2.0819590424,
				"y": 2.4091195125,
				"z": -2.0721337312,
				"element": "H" 
			},
			{
				"x": -2.7584583713,
				"y": 0.7716261494,
				"z": -2.2120612059,
				"element": "H" 
			},
			{
				"x": -0.9868451214,
				"y": 2.9022965634,
				"z": -0.1305429784,
				"element": "H" 
			},
			{
				"x": -2.3318951151,
				"y": 0.5280530996,
				"z": 2.4011451652,
				"element": "H" 
			},
			{
				"x": -1.8927454651,
				"y": 0.8281642878,
				"z": 4.8231030067,
				"element": "H" 
			},
			{
				"x": -0.526100651,
				"y": 2.7431858959,
				"z": 5.6295257508,
				"element": "H" 
			},
			{
				"x": 0.3993334664,
				"y": 4.3662303219,
				"z": 3.978915175,
				"element": "H" 
			},
			{
				"x": -0.0292674204,
				"y": 4.0627457378,
				"z": 1.5655510555,
				"element": "H" 
			},
			{
				"x": -1.3905729505,
				"y": -1.1577655532,
				"z": -2.1942787916,
				"element": "H" 
			},
			{
				"x": 0.633535538,
				"y": -3.1075094474,
				"z": -3.9485218199,
				"element": "H" 
			},
			{
				"x": 1.6047419473,
				"y": -3.1132262302,
				"z": -2.4942980972,
				"element": "H" 
			},
			{
				"x": -1.3719169409,
				"y": -3.852104081,
				"z": -0.4595467864,
				"element": "H" 
			},
			{
				"x": -0.7923017557,
				"y": -1.5678671092,
				"z": 0.8958119842,
				"element": "H" 
			},
			{
				"x": 0.8774470973,
				"y": -0.7878406519,
				"z": 2.555133346,
				"element": "H" 
			},
			{
				"x": 3.1405433274,
				"y": -1.8271943829,
				"z": 2.6312322212,
				"element": "H" 
			},
			{
				"x": 3.7000275873,
				"y": -3.6804361147,
				"z": 1.0715273793,
				"element": "H" 
			},
			{
				"x": 1.9938830002,
				"y": -4.5123331884,
				"z": -0.5326818226,
				"element": "H" 
			}
		],
		 "valence_orbital": [ 
			{
				"type": "occ",
				"energy": -0.26457,
				"method": "rhf"
			},
			{
				"type": "occ",
				"energy": -0.26408,
				"method": "rhf"
			},
			{
				"type": "occ",
				"energy": -0.26068,
				"method": "rhf"
			},
			{
				"type": "occ",
				"energy": -0.24569,
				"method": "rhf"
			},
			{
				"type": "occ",
				"energy": -0.23261,
				"method": "rhf"
			},
			{
				"type": "unocc",
				"energy": -0.11911,
				"method": "rhf"
			},
			{
				"type": "unocc",
				"energy": -0.10675,
				"method": "rhf"
			},
			{
				"type": "unocc",
				"energy": -0.0419,
				"method": "rhf"
			},
			{
				"type": "unocc",
				"energy": -0.03345,
				"method": "rhf"
			},
			{
				"type": "unocc",
				"energy": -0.02174,
				"method": "rhf"
			}
		],
		"cosmo_sigma_profile": { 
			"-0.025": 0.0,
			"-0.024": 0.0,
			"-0.023": 0.0,
			"-0.022": 0.0,
			"-0.021": 0.0,
			"-0.02": 0.0,
			"-0.019": 0.0,
			"-0.018": 0.0,
			"-0.017": 0.0,
			"-0.016": 0.0,
			"-0.015": 0.152973711522,
			"-0.014": 0.902125675574,
			"-0.013": 1.18061963152,
			"-0.012": 0.837725200708,
			"-0.011": 0.743444338951,
			"-0.01": 1.68040618402,
			"-0.009": 4.09265210225,
			"-0.008": 8.7250420416,
			"-0.007": 15.4748682584,
			"-0.006": 28.7736455826,
			"-0.005": 31.1565446768,
			"-0.004": 36.1903315566,
			"-0.003": 36.2606820051,
			"-0.002": 29.1323503318,
			"-0.001": 26.456721681,
			"0.0": 28.8674785122,
			"0.001": 32.8138260715,
			"0.002": 25.2850845725,
			"0.003": 24.5416739742,
			"0.004": 24.7359265356,
			"0.005": 23.1790068538,
			"0.006": 15.2204273313,
			"0.007": 14.6395426602,
			"0.008": 10.9316887292,
			"0.009": 7.02735542154,
			"0.01": 2.96716105223,
			"0.011": 2.80194575565,
			"0.012": 4.47769086896,
			"0.013": 6.34095921849,
			"0.014": 2.03741908288,
			"0.015": 0.0598299373553,
			"0.016": 0.0,
			"0.017": 0.0,
			"0.018": 0.0,
			"0.019": 0.0,
			"0.02": 0.0,
			"0.021": 0.0,
			"0.022": 0.0,
			"0.023": 0.0,
			"0.024": 0.0,
			"0.025": 0.0
		}
	}
}
