{
	 "smiles": "OCC(O)C1=CC=CC=C1", 
	 "Tm": 340.65, 
	 "num_atms": 20, 
	 "gaussian": { 
		 "optdone": 1, 
		 "sigma_profile": "yes", 
		 "theory": "DFT", 
		 "functional": "B3LYP", 
		 "basiset": "6-31G**", 
		 "properties": { 
			 "R2extent": 2289.3827, 
			 "electric_dipole_moment_norm": 2.57849393833, 
			 "electric_quadrupole_moment_norm": 10.0828867528, 
			 "total_energy": -461.309947609, 
			 "HOMO_LUMO_gap": 0.23767, 
			 "cosmo_polarized_energy": -10.12, 
			 "cosmo_cavitation_energy": 23.14, 
			 "cosmo_dispersion_energy": -17.2, 
			 "cosmo_repulsion_energy": 1.42, 
			 "cosmo_total_nonelectrostatic_energy": 7.36, 
			 "SMD_solvation_energy": 3.98 
		},
		"coords": [
			{
				"x": 0.5411679032,
				"y": 1.8875699633,
				"z": 3.8200507388,
				"element": "O" 
			},
			{
				"x": 0.0437065957,
				"y": 1.8632063114,
				"z": 2.4809047304,
				"element": "C" 
			},
			{
				"x": -0.3136466178,
				"y": 0.4014587759,
				"z": 2.1827107619,
				"element": "C" 
			},
			{
				"x": -1.2097473813,
				"y": -0.0653216553,
				"z": 3.1764896497,
				"element": "O" 
			},
			{
				"x": -0.9389735576,
				"y": 0.2666354948,
				"z": 0.8097309075,
				"element": "C" 
			},
			{
				"x": -2.3295044335,
				"y": 0.2391977875,
				"z": 0.6544680388,
				"element": "C" 
			},
			{
				"x": -2.8947202062,
				"y": 0.1613070519,
				"z": -0.6194579401,
				"element": "C" 
			},
			{
				"x": -2.0785893881,
				"y": 0.1153125404,
				"z": -1.751297826,
				"element": "C" 
			},
			{
				"x": -0.6901908927,
				"y": 0.1397585622,
				"z": -1.602921338,
				"element": "C" 
			},
			{
				"x": -0.1256469372,
				"y": 0.2106871548,
				"z": -0.3290890457,
				"element": "C" 
			},
			{
				"x": 0.5191120531,
				"y": 2.796001105,
				"z": 4.1426550049,
				"element": "H" 
			},
			{
				"x": -0.8636457553,
				"y": 2.4754456238,
				"z": 2.3800718134,
				"element": "H" 
			},
			{
				"x": 0.7930372467,
				"y": 2.2286019539,
				"z": 1.764370094,
				"element": "H" 
			},
			{
				"x": 0.6242546905,
				"y": -0.1793211659,
				"z": 2.2100357444,
				"element": "H" 
			},
			{
				"x": -0.8664433813,
				"y": 0.2929843949,
				"z": 4.0095107246,
				"element": "H" 
			},
			{
				"x": -2.9544750449,
				"y": 0.2626163003,
				"z": 1.5402937783,
				"element": "H" 
			},
			{
				"x": -3.9755889293,
				"y": 0.1334035432,
				"z": -0.7277874802,
				"element": "H" 
			},
			{
				"x": -2.5203396179,
				"y": 0.0530796355,
				"z": -2.7418432022,
				"element": "H" 
			},
			{
				"x": -0.0470585316,
				"y": 0.0943622889,
				"z": -2.477418246,
				"element": "H" 
			},
			{
				"x": 0.9565921854,
				"y": 0.2134143337,
				"z": -0.2176769086,
				"element": "H" 
			}
		],
		 "valence_orbital": [ 
			{
				"type": "occ",
				"energy": -0.32084,
				"method": "rhf"
			},
			{
				"type": "occ",
				"energy": -0.28699,
				"method": "rhf"
			},
			{
				"type": "occ",
				"energy": -0.26809,
				"method": "rhf"
			},
			{
				"type": "occ",
				"energy": -0.24447,
				"method": "rhf"
			},
			{
				"type": "occ",
				"energy": -0.23641,
				"method": "rhf"
			},
			{
				"type": "unocc",
				"energy": 0.00126,
				"method": "rhf"
			},
			{
				"type": "unocc",
				"energy": 0.00432,
				"method": "rhf"
			},
			{
				"type": "unocc",
				"energy": 0.06291,
				"method": "rhf"
			},
			{
				"type": "unocc",
				"energy": 0.09786,
				"method": "rhf"
			},
			{
				"type": "unocc",
				"energy": 0.12094,
				"method": "rhf"
			}
		],
		"cosmo_sigma_profile": { 
			"-0.025": 0.0,
			"-0.024": 0.0,
			"-0.023": 0.0,
			"-0.022": 0.0,
			"-0.021": 0.0,
			"-0.02": 0.0,
			"-0.019": 0.0,
			"-0.018": 0.0,
			"-0.017": 0.205518907404,
			"-0.016": 0.948503382867,
			"-0.015": 0.984543626541,
			"-0.014": 1.40146874643,
			"-0.013": 0.63556879185,
			"-0.012": 0.694724445265,
			"-0.011": 1.17936688686,
			"-0.01": 2.05862984876,
			"-0.009": 0.905084078525,
			"-0.008": 1.29969132444,
			"-0.007": 1.9334338584,
			"-0.006": 5.59381491966,
			"-0.005": 12.1148008135,
			"-0.004": 18.3363659067,
			"-0.003": 18.6564298711,
			"-0.002": 13.8950114814,
			"-0.001": 12.5452042841,
			"0.0": 10.8004018589,
			"0.001": 8.71433308885,
			"0.002": 9.91919521911,
			"0.003": 8.78191023942,
			"0.004": 9.90643999713,
			"0.005": 11.1983277692,
			"0.006": 11.5373393774,
			"0.007": 3.32287671948,
			"0.008": 2.7163409854,
			"0.009": 2.20750749551,
			"0.01": 2.48357101857,
			"0.011": 1.77614847145,
			"0.012": 2.05771497068,
			"0.013": 2.08566056537,
			"0.014": 1.05487286642,
			"0.015": 0.18435415221,
			"0.016": 0.0,
			"0.017": 0.0,
			"0.018": 0.0,
			"0.019": 0.0,
			"0.02": 0.0,
			"0.021": 0.0,
			"0.022": 0.0,
			"0.023": 0.0,
			"0.024": 0.0,
			"0.025": 0.0
		}
	}
}
