{
	 "smiles": "OC1=C2C=CC=CC2=C(Cl)C=C1C=O", 
	 "Tm": 368.15, 
	 "num_atms": 21, 
	 "gaussian": { 
		 "optdone": 1, 
		 "sigma_profile": "yes", 
		 "theory": "DFT", 
		 "functional": "B3LYP", 
		 "basiset": "6-31G**", 
		 "properties": { 
			 "R2extent": 3206.4307, 
			 "electric_dipole_moment_norm": 1.5582617431, 
			 "electric_quadrupole_moment_norm": 11.772894822, 
			 "total_energy": -1034.04416116, 
			 "HOMO_LUMO_gap": 0.13995, 
			 "cosmo_polarized_energy": -7.09, 
			 "cosmo_cavitation_energy": 26.72, 
			 "cosmo_dispersion_energy": -20.34, 
			 "cosmo_repulsion_energy": 1.55, 
			 "cosmo_total_nonelectrostatic_energy": 7.93, 
			 "SMD_solvation_energy": 5.25 
		},
		"coords": [
			{
				"x": 2.3088172043,
				"y": 0.3047302173,
				"z": 0.5381965803,
				"element": "O" 
			},
			{
				"x": 1.0377672316,
				"y": 0.0783478818,
				"z": 0.2077697306,
				"element": "C" 
			},
			{
				"x": 0.6410106224,
				"y": 0.2875548256,
				"z": -1.1523284886,
				"element": "C" 
			},
			{
				"x": 1.5802538844,
				"y": 0.7241915868,
				"z": -2.117896629,
				"element": "C" 
			},
			{
				"x": 1.1967159592,
				"y": 0.9251119245,
				"z": -3.4265904492,
				"element": "C" 
			},
			{
				"x": -0.1419169054,
				"y": 0.6944691932,
				"z": -3.8091385338,
				"element": "C" 
			},
			{
				"x": -1.0784060514,
				"y": 0.2684448491,
				"z": -2.8883168207,
				"element": "C" 
			},
			{
				"x": -0.7194000628,
				"y": 0.0519897897,
				"z": -1.5361013796,
				"element": "C" 
			},
			{
				"x": -1.6447197426,
				"y": -0.3902051654,
				"z": -0.5310799943,
				"element": "C" 
			},
			{
				"x": -3.3258055469,
				"y": -0.6908847671,
				"z": -0.962895412,
				"element": "Cl" 
			},
			{
				"x": -1.2530500636,
				"y": -0.5856794962,
				"z": 0.7619911754,
				"element": "C" 
			},
			{
				"x": 0.0960850412,
				"y": -0.3551772716,
				"z": 1.1568196955,
				"element": "C" 
			},
			{
				"x": 0.5130798288,
				"y": -0.5618812996,
				"z": 2.5279834068,
				"element": "C" 
			},
			{
				"x": 1.6688454854,
				"y": -0.3796390058,
				"z": 2.9347459073,
				"element": "O" 
			},
			{
				"x": 2.3882499246,
				"y": 0.1063456288,
				"z": 1.5129113779,
				"element": "H" 
			},
			{
				"x": 2.6026174584,
				"y": 0.8947365945,
				"z": -1.8002959321,
				"element": "H" 
			},
			{
				"x": 1.9209877682,
				"y": 1.2599191327,
				"z": -4.1626591513,
				"element": "H" 
			},
			{
				"x": -0.441054698,
				"y": 0.8536995228,
				"z": -4.8410420302,
				"element": "H" 
			},
			{
				"x": -2.1035444078,
				"y": 0.0944227062,
				"z": -3.192892086,
				"element": "H" 
			},
			{
				"x": -1.9694879129,
				"y": -0.9203397928,
				"z": 1.505799325,
				"element": "H" 
			},
			{
				"x": -0.2652450172,
				"y": -0.9034570547,
				"z": 3.2360197078,
				"element": "H" 
			}
		],
		 "valence_orbital": [ 
			{
				"type": "occ",
				"energy": -0.31466,
				"method": "rhf"
			},
			{
				"type": "occ",
				"energy": -0.27794,
				"method": "rhf"
			},
			{
				"type": "occ",
				"energy": -0.27752,
				"method": "rhf"
			},
			{
				"type": "occ",
				"energy": -0.26772,
				"method": "rhf"
			},
			{
				"type": "occ",
				"energy": -0.22017,
				"method": "rhf"
			},
			{
				"type": "unocc",
				"energy": -0.08022,
				"method": "rhf"
			},
			{
				"type": "unocc",
				"energy": -0.04603,
				"method": "rhf"
			},
			{
				"type": "unocc",
				"energy": 0.00147,
				"method": "rhf"
			},
			{
				"type": "unocc",
				"energy": 0.02585,
				"method": "rhf"
			},
			{
				"type": "unocc",
				"energy": 0.0265,
				"method": "rhf"
			}
		],
		"cosmo_sigma_profile": { 
			"-0.025": 0.0,
			"-0.024": 0.0,
			"-0.023": 0.0,
			"-0.022": 0.0,
			"-0.021": 0.0,
			"-0.02": 0.0,
			"-0.019": 0.0,
			"-0.018": 0.0,
			"-0.017": 0.0,
			"-0.016": 0.0,
			"-0.015": 0.0,
			"-0.014": 0.0,
			"-0.013": 0.0,
			"-0.012": 0.0,
			"-0.011": 0.0,
			"-0.01": 0.300588425304,
			"-0.009": 2.27397624325,
			"-0.008": 4.44477039992,
			"-0.007": 6.54435970797,
			"-0.006": 11.2408684806,
			"-0.005": 11.6391409786,
			"-0.004": 13.4887674788,
			"-0.003": 12.1545689029,
			"-0.002": 13.443896721,
			"-0.001": 15.6143980375,
			"0.0": 19.6321744484,
			"0.001": 24.9686202778,
			"0.002": 25.5157767016,
			"0.003": 20.1258387815,
			"0.004": 13.6666687586,
			"0.005": 6.75231159666,
			"0.006": 2.55359670823,
			"0.007": 3.80383473676,
			"0.008": 3.12552517228,
			"0.009": 1.69843193799,
			"0.01": 1.95688543546,
			"0.011": 1.69280494227,
			"0.012": 1.19601409125,
			"0.013": 0.135095773139,
			"0.014": 0.0,
			"0.015": 0.0,
			"0.016": 0.0,
			"0.017": 0.0,
			"0.018": 0.0,
			"0.019": 0.0,
			"0.02": 0.0,
			"0.021": 0.0,
			"0.022": 0.0,
			"0.023": 0.0,
			"0.024": 0.0,
			"0.025": 0.0
		}
	}
}
