{
	 "smiles": "OCCOC1=CC2=CC=CC=C2C=C1", 
	 "Tm": 348.45, 
	 "num_atms": 26, 
	 "gaussian": { 
		 "optdone": 1, 
		 "sigma_profile": "yes", 
		 "theory": "DFT", 
		 "functional": "B3LYP", 
		 "basiset": "6-31G**", 
		 "properties": { 
			 "R2extent": 4054.7199, 
			 "electric_dipole_moment_norm": 1.3965684158, 
			 "electric_quadrupole_moment_norm": 13.8913374468, 
			 "total_energy": -614.950887427, 
			 "HOMO_LUMO_gap": 0.17388, 
			 "cosmo_polarized_energy": -9.54, 
			 "cosmo_cavitation_energy": 29.44, 
			 "cosmo_dispersion_energy": -21.82, 
			 "cosmo_repulsion_energy": 1.71, 
			 "cosmo_total_nonelectrostatic_energy": 9.34, 
			 "SMD_solvation_energy": 4.89 
		},
		"coords": [
			{
				"x": 1.5870026829,
				"y": 4.9896045899,
				"z": 0.021960331,
				"element": "O" 
			},
			{
				"x": 2.3867395608,
				"y": 4.2908049379,
				"z": -0.9121494625,
				"element": "C" 
			},
			{
				"x": 1.7421738493,
				"y": 2.981670177,
				"z": -1.3390002566,
				"element": "C" 
			},
			{
				"x": 1.6292085554,
				"y": 2.1913202622,
				"z": -0.154700482,
				"element": "O" 
			},
			{
				"x": 1.0161439871,
				"y": 0.9714836784,
				"z": -0.2295572028,
				"element": "C" 
			},
			{
				"x": 0.5106099539,
				"y": 0.409205935,
				"z": -1.3837054478,
				"element": "C" 
			},
			{
				"x": -0.1059527153,
				"y": -0.873056414,
				"z": -1.3447965077,
				"element": "C" 
			},
			{
				"x": -0.6387376622,
				"y": -1.4848721795,
				"z": -2.5112092481,
				"element": "C" 
			},
			{
				"x": -1.2314005278,
				"y": -2.7273933336,
				"z": -2.4505085481,
				"element": "C" 
			},
			{
				"x": -1.3211677093,
				"y": -3.420858259,
				"z": -1.2198698178,
				"element": "C" 
			},
			{
				"x": -0.8137344315,
				"y": -2.8538954346,
				"z": -0.0711304846,
				"element": "C" 
			},
			{
				"x": -0.1975495827,
				"y": -1.5760974642,
				"z": -0.1006850084,
				"element": "C" 
			},
			{
				"x": 0.338054125,
				"y": -0.9601442392,
				"z": 1.0653355354,
				"element": "C" 
			},
			{
				"x": 0.9281907474,
				"y": 0.2761487057,
				"z": 1.0080942056,
				"element": "C" 
			},
			{
				"x": 1.4066527465,
				"y": 4.3681530955,
				"z": 0.741034832,
				"element": "H" 
			},
			{
				"x": 3.3924607357,
				"y": 4.0818964781,
				"z": -0.5138685078,
				"element": "H" 
			},
			{
				"x": 2.5008933272,
				"y": 4.9389608338,
				"z": -1.7872437276,
				"element": "H" 
			},
			{
				"x": 2.3562113001,
				"y": 2.4643082762,
				"z": -2.0898071576,
				"element": "H" 
			},
			{
				"x": 0.7459614405,
				"y": 3.1690816715,
				"z": -1.7611072397,
				"element": "H" 
			},
			{
				"x": 0.5716989846,
				"y": 0.9243264739,
				"z": -2.3355450751,
				"element": "H" 
			},
			{
				"x": -0.5716431789,
				"y": -0.9547027559,
				"z": -3.4579545235,
				"element": "H" 
			},
			{
				"x": -1.6336606986,
				"y": -3.1802854449,
				"z": -3.3523126288,
				"element": "H" 
			},
			{
				"x": -1.7907547126,
				"y": -4.3994744775,
				"z": -1.1853338461,
				"element": "H" 
			},
			{
				"x": -0.8788776137,
				"y": -3.3802717615,
				"z": 0.8779848013,
				"element": "H" 
			},
			{
				"x": 0.2736291507,
				"y": -1.4868479976,
				"z": 2.0139297623,
				"element": "H" 
			},
			{
				"x": 1.3399476855,
				"y": 0.7516346463,
				"z": 1.8924457049,
				"element": "H" 
			}
		],
		 "valence_orbital": [ 
			{
				"type": "occ",
				"energy": -0.30179,
				"method": "rhf"
			},
			{
				"type": "occ",
				"energy": -0.28046,
				"method": "rhf"
			},
			{
				"type": "occ",
				"energy": -0.27014,
				"method": "rhf"
			},
			{
				"type": "occ",
				"energy": -0.23092,
				"method": "rhf"
			},
			{
				"type": "occ",
				"energy": -0.20907,
				"method": "rhf"
			},
			{
				"type": "unocc",
				"energy": -0.03519,
				"method": "rhf"
			},
			{
				"type": "unocc",
				"energy": -0.00349,
				"method": "rhf"
			},
			{
				"type": "unocc",
				"energy": 0.03363,
				"method": "rhf"
			},
			{
				"type": "unocc",
				"energy": 0.08584,
				"method": "rhf"
			},
			{
				"type": "unocc",
				"energy": 0.09505,
				"method": "rhf"
			}
		],
		"cosmo_sigma_profile": { 
			"-0.025": 0.0,
			"-0.024": 0.0,
			"-0.023": 0.0,
			"-0.022": 0.0,
			"-0.021": 0.0,
			"-0.02": 0.0,
			"-0.019": 0.0,
			"-0.018": 0.0,
			"-0.017": 0.0,
			"-0.016": 0.0,
			"-0.015": 0.0,
			"-0.014": 0.0784719228375,
			"-0.013": 0.513607492459,
			"-0.012": 0.710271242857,
			"-0.011": 0.370139071846,
			"-0.01": 0.71990973619,
			"-0.009": 0.901844735367,
			"-0.008": 0.582311681929,
			"-0.007": 0.954810625838,
			"-0.006": 14.7063245934,
			"-0.005": 27.6232542911,
			"-0.004": 23.7105216416,
			"-0.003": 19.1960683185,
			"-0.002": 14.7865607209,
			"-0.001": 12.4389861051,
			"0.0": 11.0605016065,
			"0.001": 12.5567784789,
			"0.002": 12.3058707688,
			"0.003": 17.0143712374,
			"0.004": 23.9799480956,
			"0.005": 19.1891967283,
			"0.006": 6.98160851612,
			"0.007": 2.16711553533,
			"0.008": 2.04914247336,
			"0.009": 0.626104218401,
			"0.01": 0.770558851349,
			"0.011": 1.9258600756,
			"0.012": 1.3684579831,
			"0.013": 1.71516466319,
			"0.014": 2.30085987848,
			"0.015": 0.525661826735,
			"0.016": 0.0,
			"0.017": 0.0,
			"0.018": 0.0,
			"0.019": 0.0,
			"0.02": 0.0,
			"0.021": 0.0,
			"0.022": 0.0,
			"0.023": 0.0,
			"0.024": 0.0,
			"0.025": 0.0
		}
	}
}
