{
	 "smiles": "O=CC1=CSC=C1", 
	 "Tm": 243.15, 
	 "num_atms": 11, 
	 "gaussian": { 
		 "optdone": 1, 
		 "sigma_profile": "yes", 
		 "theory": "DFT", 
		 "functional": "B3LYP", 
		 "basiset": "6-31G**", 
		 "properties": { 
			 "R2extent": 1260.5156, 
			 "electric_dipole_moment_norm": 2.78208523593, 
			 "electric_quadrupole_moment_norm": 9.8166910805, 
			 "total_energy": -666.325849804, 
			 "HOMO_LUMO_gap": 0.19771, 
			 "cosmo_polarized_energy": -7.75, 
			 "cosmo_cavitation_energy": 17.24, 
			 "cosmo_dispersion_energy": -13.33, 
			 "cosmo_repulsion_energy": 1.06, 
			 "cosmo_total_nonelectrostatic_energy": 4.97, 
			 "SMD_solvation_energy": 4.4 
		},
		"coords": [
			{
				"x": 1.7824026368,
				"y": 1.0413515991,
				"z": 1.8752052092,
				"element": "O" 
			},
			{
				"x": 2.1161397939,
				"y": 0.8986017229,
				"z": 0.7133255811,
				"element": "C" 
			},
			{
				"x": 1.1718735852,
				"y": 0.7332063293,
				"z": -0.4018102733,
				"element": "C" 
			},
			{
				"x": 1.5683898937,
				"y": 0.5722067605,
				"z": -1.7105657272,
				"element": "C" 
			},
			{
				"x": 0.2192505448,
				"y": 0.4053271453,
				"z": -2.7693796584,
				"element": "S" 
			},
			{
				"x": -0.9017659293,
				"y": 0.552776139,
				"z": -1.4417088384,
				"element": "C" 
			},
			{
				"x": -0.2559677254,
				"y": 0.7209115768,
				"z": -0.2545496974,
				"element": "C" 
			},
			{
				"x": 3.1892401308,
				"y": 0.8838050328,
				"z": 0.4211944282,
				"element": "H" 
			},
			{
				"x": 2.5787789937,
				"y": 0.5443508431,
				"z": -2.0968446276,
				"element": "H" 
			},
			{
				"x": -1.9650830062,
				"y": 0.5047454712,
				"z": -1.6317375328,
				"element": "H" 
			},
			{
				"x": -0.744858918,
				"y": 0.8346173799,
				"z": 0.7050711367,
				"element": "H" 
			}
		],
		 "valence_orbital": [ 
			{
				"type": "occ",
				"energy": -0.37312,
				"method": "rhf"
			},
			{
				"type": "occ",
				"energy": -0.36498,
				"method": "rhf"
			},
			{
				"type": "occ",
				"energy": -0.26713,
				"method": "rhf"
			},
			{
				"type": "occ",
				"energy": -0.25593,
				"method": "rhf"
			},
			{
				"type": "occ",
				"energy": -0.25579,
				"method": "rhf"
			},
			{
				"type": "unocc",
				"energy": -0.05808,
				"method": "rhf"
			},
			{
				"type": "unocc",
				"energy": -0.00956,
				"method": "rhf"
			},
			{
				"type": "unocc",
				"energy": 0.01595,
				"method": "rhf"
			},
			{
				"type": "unocc",
				"energy": 0.08084,
				"method": "rhf"
			},
			{
				"type": "unocc",
				"energy": 0.09802,
				"method": "rhf"
			}
		],
		"cosmo_sigma_profile": { 
			"-0.025": 0.0,
			"-0.024": 0.0,
			"-0.023": 0.0,
			"-0.022": 0.0,
			"-0.021": 0.0,
			"-0.02": 0.0,
			"-0.019": 0.0,
			"-0.018": 0.0,
			"-0.017": 0.0,
			"-0.016": 0.0,
			"-0.015": 0.0,
			"-0.014": 0.0,
			"-0.013": 0.0,
			"-0.012": 0.0,
			"-0.011": 0.0,
			"-0.01": 0.871906035239,
			"-0.009": 4.64339739057,
			"-0.008": 5.24939499889,
			"-0.007": 5.84516462765,
			"-0.006": 8.7795800736,
			"-0.005": 6.57082763482,
			"-0.004": 8.40658109599,
			"-0.003": 6.72334743095,
			"-0.002": 7.76164839437,
			"-0.001": 8.48273124454,
			"0.0": 9.63794244422,
			"0.001": 13.1777088484,
			"0.002": 17.6819527483,
			"0.003": 11.7978632988,
			"0.004": 5.06854080268,
			"0.005": 2.74386021043,
			"0.006": 1.47999693039,
			"0.007": 1.20531749778,
			"0.008": 1.73324263458,
			"0.009": 2.20203372061,
			"0.01": 2.68067428351,
			"0.011": 3.35782690603,
			"0.012": 3.8009836195,
			"0.013": 1.29268782857,
			"0.014": 0.0526216375743,
			"0.015": 0.0,
			"0.016": 0.0,
			"0.017": 0.0,
			"0.018": 0.0,
			"0.019": 0.0,
			"0.02": 0.0,
			"0.021": 0.0,
			"0.022": 0.0,
			"0.023": 0.0,
			"0.024": 0.0,
			"0.025": 0.0
		}
	}
}
