{
	 "smiles": "CCOC(=O)C1CCN(CC1)S(Cl)(=O)=O", 
	 "Tm": 312.15, 
	 "num_atms": 29, 
	 "gaussian": { 
		 "optdone": 1, 
		 "sigma_profile": "yes", 
		 "theory": "DFT", 
		 "functional": "B3LYP", 
		 "basiset": "6-31G**", 
		 "properties": { 
			 "R2extent": 5224.1176, 
			 "electric_dipole_moment_norm": 4.06399982037, 
			 "electric_quadrupole_moment_norm": 22.2819328852, 
			 "total_energy": -1527.26134299, 
			 "HOMO_LUMO_gap": 0.20147, 
			 "cosmo_polarized_energy": -14.15, 
			 "cosmo_cavitation_energy": 34.43, 
			 "cosmo_dispersion_energy": -24.27, 
			 "cosmo_repulsion_energy": 1.89, 
			 "cosmo_total_nonelectrostatic_energy": 12.04, 
			 "SMD_solvation_energy": 4.03 
		},
		"coords": [
			{
				"x": 3.23790131,
				"y": -2.0170927519,
				"z": 0.0566202064,
				"element": "C" 
			},
			{
				"x": 2.1294796307,
				"y": -2.8430264904,
				"z": 0.6796254893,
				"element": "C" 
			},
			{
				"x": 0.9048935397,
				"y": -2.0715948353,
				"z": 0.5895184068,
				"element": "O" 
			},
			{
				"x": -0.2054043609,
				"y": -2.656102485,
				"z": 1.0939880842,
				"element": "C" 
			},
			{
				"x": -0.2140634048,
				"y": -3.7544960293,
				"z": 1.6051078227,
				"element": "O" 
			},
			{
				"x": -1.4329682441,
				"y": -1.7763813595,
				"z": 0.9049977284,
				"element": "C" 
			},
			{
				"x": -1.8956595342,
				"y": -1.8399031879,
				"z": -0.57654325,
				"element": "C" 
			},
			{
				"x": -2.7857646729,
				"y": -0.649591601,
				"z": -0.9314416282,
				"element": "C" 
			},
			{
				"x": -2.0526224455,
				"y": 0.6329977444,
				"z": -0.7530787855,
				"element": "N" 
			},
			{
				"x": -0.8944279793,
				"y": 0.6295417763,
				"z": 0.1768707671,
				"element": "C" 
			},
			{
				"x": -1.2107766786,
				"y": -0.3022918829,
				"z": 1.3465946825,
				"element": "C" 
			},
			{
				"x": -1.9482938693,
				"y": 1.6374187545,
				"z": -2.0516734937,
				"element": "S" 
			},
			{
				"x": -0.5289395315,
				"y": 0.653743164,
				"z": -3.360900178,
				"element": "Cl" 
			},
			{
				"x": -1.2912341394,
				"y": 2.8654030667,
				"z": -1.6376283208,
				"element": "O" 
			},
			{
				"x": -3.2068747883,
				"y": 1.6085995004,
				"z": -2.7779361807,
				"element": "O" 
			},
			{
				"x": 3.0211602517,
				"y": -1.7966523299,
				"z": -0.9924754621,
				"element": "H" 
			},
			{
				"x": 4.1811114127,
				"y": -2.5700103935,
				"z": 0.103578103,
				"element": "H" 
			},
			{
				"x": 3.3691330944,
				"y": -1.0703489408,
				"z": 0.5885196694,
				"element": "H" 
			},
			{
				"x": 2.3230286149,
				"y": -3.0691519938,
				"z": 1.7326504741,
				"element": "H" 
			},
			{
				"x": 1.9808308948,
				"y": -3.7946875001,
				"z": 0.1603533043,
				"element": "H" 
			},
			{
				"x": -2.2043151812,
				"y": -2.2250647405,
				"z": 1.536342652,
				"element": "H" 
			},
			{
				"x": -2.4428046684,
				"y": -2.7694989367,
				"z": -0.7599704001,
				"element": "H" 
			},
			{
				"x": -1.0263182716,
				"y": -1.8405789421,
				"z": -1.24187295,
				"element": "H" 
			},
			{
				"x": -3.6748417118,
				"y": -0.6175521347,
				"z": -0.2907669757,
				"element": "H" 
			},
			{
				"x": -3.1373456406,
				"y": -0.715756392,
				"z": -1.9622723761,
				"element": "H" 
			},
			{
				"x": -0.7429881512,
				"y": 1.653393632,
				"z": 0.520829055,
				"element": "H" 
			},
			{
				"x": 0.0164636333,
				"y": 0.297087335,
				"z": -0.3357816155,
				"element": "H" 
			},
			{
				"x": -2.112471551,
				"y": 0.0610058234,
				"z": 1.8506940644,
				"element": "H" 
			},
			{
				"x": -0.3944875576,
				"y": -0.2310078694,
				"z": 2.0704511069,
				"element": "H" 
			}
		],
		 "valence_orbital": [ 
			{
				"type": "occ",
				"energy": -0.3263,
				"method": "rhf"
			},
			{
				"type": "occ",
				"energy": -0.31282,
				"method": "rhf"
			},
			{
				"type": "occ",
				"energy": -0.31021,
				"method": "rhf"
			},
			{
				"type": "occ",
				"energy": -0.28281,
				"method": "rhf"
			},
			{
				"type": "occ",
				"energy": -0.27878,
				"method": "rhf"
			},
			{
				"type": "unocc",
				"energy": -0.07731,
				"method": "rhf"
			},
			{
				"type": "unocc",
				"energy": -0.00349,
				"method": "rhf"
			},
			{
				"type": "unocc",
				"energy": 0.05176,
				"method": "rhf"
			},
			{
				"type": "unocc",
				"energy": 0.06097,
				"method": "rhf"
			},
			{
				"type": "unocc",
				"energy": 0.07309,
				"method": "rhf"
			}
		],
		"cosmo_sigma_profile": { 
			"-0.025": 0.0,
			"-0.024": 0.0,
			"-0.023": 0.0,
			"-0.022": 0.0,
			"-0.021": 0.0,
			"-0.02": 0.0,
			"-0.019": 0.0,
			"-0.018": 0.0,
			"-0.017": 0.0,
			"-0.016": 0.0,
			"-0.015": 0.0,
			"-0.014": 0.0,
			"-0.013": 0.0,
			"-0.012": 0.0,
			"-0.011": 0.0,
			"-0.01": 0.0,
			"-0.009": 0.0,
			"-0.008": 0.0753105671872,
			"-0.007": 3.82546178165,
			"-0.006": 16.2409592844,
			"-0.005": 28.2687213911,
			"-0.004": 30.6398638877,
			"-0.003": 28.6353605622,
			"-0.002": 23.5301358669,
			"-0.001": 18.6168224233,
			"0.0": 17.345403315,
			"0.001": 13.6323137432,
			"0.002": 12.9879775787,
			"0.003": 13.8086556711,
			"0.004": 13.4931383703,
			"0.005": 9.73655593519,
			"0.006": 5.22178861483,
			"0.007": 6.5840634133,
			"0.008": 11.9365618196,
			"0.009": 6.99621283152,
			"0.01": 1.74146663724,
			"0.011": 3.0298230252,
			"0.012": 4.91107776142,
			"0.013": 1.09265545705,
			"0.014": 0.0,
			"0.015": 0.0,
			"0.016": 0.0,
			"0.017": 0.0,
			"0.018": 0.0,
			"0.019": 0.0,
			"0.02": 0.0,
			"0.021": 0.0,
			"0.022": 0.0,
			"0.023": 0.0,
			"0.024": 0.0,
			"0.025": 0.0
		}
	}
}
