{
	 "smiles": "NS(=O)(=O)N1CCCC1", 
	 "Tm": 370.15, 
	 "num_atms": 19, 
	 "gaussian": { 
		 "optdone": 1, 
		 "sigma_profile": "yes", 
		 "theory": "DFT", 
		 "functional": "B3LYP", 
		 "basiset": "6-31G**", 
		 "properties": { 
			 "R2extent": 1529.1047, 
			 "electric_dipole_moment_norm": 3.58242628815, 
			 "electric_quadrupole_moment_norm": 12.0661033441, 
			 "total_energy": -816.518810289, 
			 "HOMO_LUMO_gap": 0.30287, 
			 "cosmo_polarized_energy": -14.51, 
			 "cosmo_cavitation_energy": 22.32, 
			 "cosmo_dispersion_energy": -17.45, 
			 "cosmo_repulsion_energy": 1.4, 
			 "cosmo_total_nonelectrostatic_energy": 6.27, 
			 "SMD_solvation_energy": 1.95 
		},
		"coords": [
			{
				"x": 1.9276641152,
				"y": 1.044147128,
				"z": 1.9537320011,
				"element": "N" 
			},
			{
				"x": 0.2826024555,
				"y": 0.6848114145,
				"z": 1.84246222,
				"element": "S" 
			},
			{
				"x": 0.0843879995,
				"y": -0.4224797792,
				"z": 2.7823338473,
				"element": "O" 
			},
			{
				"x": -0.5586877485,
				"y": 1.8794675096,
				"z": 1.9328618051,
				"element": "O" 
			},
			{
				"x": 0.2340652235,
				"y": 0.2146515038,
				"z": 0.2452974585,
				"element": "N" 
			},
			{
				"x": 0.8842473833,
				"y": -1.0743371202,
				"z": -0.1253610768,
				"element": "C" 
			},
			{
				"x": -0.0640472382,
				"y": -1.682653993,
				"z": -1.1758504401,
				"element": "C" 
			},
			{
				"x": -0.8435442467,
				"y": -0.4723217836,
				"z": -1.7171251377,
				"element": "C" 
			},
			{
				"x": -1.059543538,
				"y": 0.3821572855,
				"z": -0.4658082026,
				"element": "C" 
			},
			{
				"x": 2.1214114292,
				"y": 1.960884882,
				"z": 1.558205009,
				"element": "H" 
			},
			{
				"x": 2.2051727935,
				"y": 0.998489916,
				"z": 2.9310326927,
				"element": "H" 
			},
			{
				"x": 1.8771464304,
				"y": -0.8637367416,
				"z": -0.5348810685,
				"element": "H" 
			},
			{
				"x": 1.0021287553,
				"y": -1.7197744401,
				"z": 0.7492798936,
				"element": "H" 
			},
			{
				"x": -0.754904231,
				"y": -2.3826388824,
				"z": -0.6934824244,
				"element": "H" 
			},
			{
				"x": 0.4766954035,
				"y": -2.2304144198,
				"z": -1.9522346745,
				"element": "H" 
			},
			{
				"x": -1.7875616394,
				"y": -0.7458918351,
				"z": -2.1960725572,
				"element": "H" 
			},
			{
				"x": -0.2391536352,
				"y": 0.0787894257,
				"z": -2.4462075051,
				"element": "H" 
			},
			{
				"x": -1.9046716866,
				"y": 0.0003960485,
				"z": 0.1228434648,
				"element": "H" 
			},
			{
				"x": -1.2362080254,
				"y": 1.4386538814,
				"z": -0.673225305,
				"element": "H" 
			}
		],
		 "valence_orbital": [ 
			{
				"type": "occ",
				"energy": -0.33224,
				"method": "rhf"
			},
			{
				"type": "occ",
				"energy": -0.31611,
				"method": "rhf"
			},
			{
				"type": "occ",
				"energy": -0.29775,
				"method": "rhf"
			},
			{
				"type": "occ",
				"energy": -0.28519,
				"method": "rhf"
			},
			{
				"type": "occ",
				"energy": -0.2473,
				"method": "rhf"
			},
			{
				"type": "unocc",
				"energy": 0.05557,
				"method": "rhf"
			},
			{
				"type": "unocc",
				"energy": 0.0739,
				"method": "rhf"
			},
			{
				"type": "unocc",
				"energy": 0.08815,
				"method": "rhf"
			},
			{
				"type": "unocc",
				"energy": 0.10555,
				"method": "rhf"
			},
			{
				"type": "unocc",
				"energy": 0.10811,
				"method": "rhf"
			}
		],
		"cosmo_sigma_profile": { 
			"-0.025": 0.0,
			"-0.024": 0.0,
			"-0.023": 0.0,
			"-0.022": 0.0,
			"-0.021": 0.0,
			"-0.02": 0.0,
			"-0.019": 0.0,
			"-0.018": 0.0,
			"-0.017": 0.0,
			"-0.016": 0.0173332189775,
			"-0.015": 1.56495928813,
			"-0.014": 2.75958919965,
			"-0.013": 2.103124374,
			"-0.012": 3.30691377507,
			"-0.011": 2.25518592747,
			"-0.01": 1.76581482245,
			"-0.009": 1.03099492083,
			"-0.008": 1.3105656134,
			"-0.007": 1.60562543658,
			"-0.006": 1.44507458486,
			"-0.005": 6.81657107928,
			"-0.004": 20.3798378989,
			"-0.003": 24.8564680075,
			"-0.002": 19.3840892245,
			"-0.001": 13.1476608169,
			"0.0": 9.43727923666,
			"0.001": 3.6465504724,
			"0.002": 3.79967194395,
			"0.003": 5.09885805845,
			"0.004": 4.32206153788,
			"0.005": 3.99123136737,
			"0.006": 3.48543667271,
			"0.007": 3.58645888965,
			"0.008": 4.69286673913,
			"0.009": 3.78575222521,
			"0.01": 5.41371578871,
			"0.011": 11.5789331605,
			"0.012": 7.08370700243,
			"0.013": 0.395823021464,
			"0.014": 0.0,
			"0.015": 0.0,
			"0.016": 0.0,
			"0.017": 0.0,
			"0.018": 0.0,
			"0.019": 0.0,
			"0.02": 0.0,
			"0.021": 0.0,
			"0.022": 0.0,
			"0.023": 0.0,
			"0.024": 0.0,
			"0.025": 0.0
		}
	}
}
