{
	 "smiles": "OCC1OC(C(O)C1O)N1C=NC2=CN=CN=C12", 
	 "Tm": 454.15, 
	 "num_atms": 30, 
	 "gaussian": { 
		 "optdone": 1, 
		 "sigma_profile": "yes", 
		 "theory": "DFT", 
		 "functional": "B3LYP", 
		 "basiset": "6-31G**", 
		 "properties": { 
			 "R2extent": 5126.1206, 
			 "electric_dipole_moment_norm": 0.869078460209, 
			 "electric_quadrupole_moment_norm": 17.0197892828, 
			 "total_energy": -908.161645359, 
			 "HOMO_LUMO_gap": 0.20341, 
			 "cosmo_polarized_energy": -16.3, 
			 "cosmo_cavitation_energy": 32.68, 
			 "cosmo_dispersion_energy": -24.42, 
			 "cosmo_repulsion_energy": 1.85, 
			 "cosmo_total_nonelectrostatic_energy": 10.12, 
			 "SMD_solvation_energy": 1.37 
		},
		"coords": [
			{
				"x": -0.189859086,
				"y": 1.9136335319,
				"z": -4.547218926,
				"element": "O" 
			},
			{
				"x": -0.0733429826,
				"y": 0.6613577937,
				"z": -3.8964964832,
				"element": "C" 
			},
			{
				"x": -0.3232954532,
				"y": 0.8260472796,
				"z": -2.4054572694,
				"element": "C" 
			},
			{
				"x": -0.3604917889,
				"y": -0.4458770771,
				"z": -1.7334579789,
				"element": "O" 
			},
			{
				"x": -0.3351880608,
				"y": -0.1104106347,
				"z": -0.3662759037,
				"element": "C" 
			},
			{
				"x": 0.6704892251,
				"y": 1.0645622666,
				"z": -0.2015661794,
				"element": "C" 
			},
			{
				"x": 0.1626128563,
				"y": 2.0827299949,
				"z": 0.6277515262,
				"element": "O" 
			},
			{
				"x": 0.7910409004,
				"y": 1.5939610151,
				"z": -1.6572207506,
				"element": "C" 
			},
			{
				"x": 0.7006965171,
				"y": 2.9931320779,
				"z": -1.7804288469,
				"element": "O" 
			},
			{
				"x": 0.0132548752,
				"y": -1.2812081076,
				"z": 0.4189688794,
				"element": "N" 
			},
			{
				"x": 0.0920163938,
				"y": -2.6152555238,
				"z": 0.0520130371,
				"element": "C" 
			},
			{
				"x": 0.3551836015,
				"y": -3.4277203768,
				"z": 1.0468194331,
				"element": "N" 
			},
			{
				"x": 0.4472200139,
				"y": -2.5972778134,
				"z": 2.1512829478,
				"element": "C" 
			},
			{
				"x": 0.6991538991,
				"y": -2.8033741395,
				"z": 3.5067730472,
				"element": "C" 
			},
			{
				"x": 0.7220846719,
				"y": -1.762786527,
				"z": 4.3517136617,
				"element": "N" 
			},
			{
				"x": 0.5023448517,
				"y": -0.5337293838,
				"z": 3.8607668779,
				"element": "C" 
			},
			{
				"x": 0.2522622431,
				"y": -0.1926434915,
				"z": 2.5857794912,
				"element": "N" 
			},
			{
				"x": 0.2332302241,
				"y": -1.2530133777,
				"z": 1.7744308772,
				"element": "C" 
			},
			{
				"x": 0.2547183259,
				"y": 2.5825405642,
				"z": -4.0048818524,
				"element": "H" 
			},
			{
				"x": 0.9162588467,
				"y": 0.1993001694,
				"z": -4.0508008206,
				"element": "H" 
			},
			{
				"x": -0.8221852052,
				"y": -0.0043332039,
				"z": -4.3371022324,
				"element": "H" 
			},
			{
				"x": -1.2784812537,
				"y": 1.3551027251,
				"z": -2.261348345,
				"element": "H" 
			},
			{
				"x": -1.3224703168,
				"y": 0.2526551499,
				"z": -0.0370947304,
				"element": "H" 
			},
			{
				"x": 1.6332771992,
				"y": 0.6908778907,
				"z": 0.1664866808,
				"element": "H" 
			},
			{
				"x": 0.1250415745,
				"y": 1.7041945439,
				"z": 1.5265186428,
				"element": "H" 
			},
			{
				"x": 1.7584234064,
				"y": 1.2845967894,
				"z": -2.0718954797,
				"element": "H" 
			},
			{
				"x": 0.2702245108,
				"y": 3.3182280565,
				"z": -0.9724572702,
				"element": "H" 
			},
			{
				"x": -0.0517855082,
				"y": -2.9062111358,
				"z": -0.9788025409,
				"element": "H" 
			},
			{
				"x": 0.8815260609,
				"y": -3.7934080397,
				"z": 3.9189832422,
				"element": "H" 
			},
			{
				"x": 0.5308394577,
				"y": 0.2830289834,
				"z": 4.577417265,
				"element": "H" 
			}
		],
		 "valence_orbital": [ 
			{
				"type": "occ",
				"energy": -0.28109,
				"method": "rhf"
			},
			{
				"type": "occ",
				"energy": -0.279,
				"method": "rhf"
			},
			{
				"type": "occ",
				"energy": -0.2737,
				"method": "rhf"
			},
			{
				"type": "occ",
				"energy": -0.26902,
				"method": "rhf"
			},
			{
				"type": "occ",
				"energy": -0.26667,
				"method": "rhf"
			},
			{
				"type": "unocc",
				"energy": -0.06326,
				"method": "rhf"
			},
			{
				"type": "unocc",
				"energy": -0.02393,
				"method": "rhf"
			},
			{
				"type": "unocc",
				"energy": 0.01763,
				"method": "rhf"
			},
			{
				"type": "unocc",
				"energy": 0.04356,
				"method": "rhf"
			},
			{
				"type": "unocc",
				"energy": 0.07132,
				"method": "rhf"
			}
		],
		"cosmo_sigma_profile": { 
			"-0.025": 0.0,
			"-0.024": 0.0,
			"-0.023": 0.0,
			"-0.022": 0.0,
			"-0.021": 0.0,
			"-0.02": 0.0,
			"-0.019": 0.0,
			"-0.018": 0.0,
			"-0.017": 0.0,
			"-0.016": 0.0,
			"-0.015": 0.0,
			"-0.014": 0.0,
			"-0.013": 0.0,
			"-0.012": 0.186539867761,
			"-0.011": 0.563940544512,
			"-0.01": 1.5416660078,
			"-0.009": 2.7473866304,
			"-0.008": 6.80031652811,
			"-0.007": 12.9100375856,
			"-0.006": 19.8646519959,
			"-0.005": 19.1010308601,
			"-0.004": 20.1483035506,
			"-0.003": 21.2657711484,
			"-0.002": 22.1174300661,
			"-0.001": 18.2698341019,
			"0.0": 15.2869510328,
			"0.001": 11.8037443179,
			"0.002": 12.0573118014,
			"0.003": 10.2087709666,
			"0.004": 8.03551889772,
			"0.005": 6.25477464434,
			"0.006": 9.00787159896,
			"0.007": 7.26146694997,
			"0.008": 5.5799394644,
			"0.009": 5.01037231659,
			"0.01": 3.99143569395,
			"0.011": 3.2387498229,
			"0.012": 4.97747073404,
			"0.013": 3.94471489647,
			"0.014": 4.23552362993,
			"0.015": 1.81194189038,
			"0.016": 0.854396141457,
			"0.017": 0.0,
			"0.018": 0.0,
			"0.019": 0.0,
			"0.02": 0.0,
			"0.021": 0.0,
			"0.022": 0.0,
			"0.023": 0.0,
			"0.024": 0.0,
			"0.025": 0.0
		}
	}
}
