{
	 "smiles": "CC1=CC2=C(S1)N=CN=C2N1CCCC1C(O)=O", 
	 "Tm": 403.15, 
	 "num_atms": 31, 
	 "gaussian": { 
		 "optdone": 1, 
		 "sigma_profile": "yes", 
		 "theory": "DFT", 
		 "functional": "B3LYP", 
		 "basiset": "6-31G**", 
		 "properties": { 
			 "R2extent": 6386.2835, 
			 "electric_dipole_moment_norm": 4.99334728013, 
			 "electric_quadrupole_moment_norm": 17.5381523308, 
			 "total_energy": -1178.02640627, 
			 "HOMO_LUMO_gap": 0.17963, 
			 "cosmo_polarized_energy": -17.26, 
			 "cosmo_cavitation_energy": 35.45, 
			 "cosmo_dispersion_energy": -25.92, 
			 "cosmo_repulsion_energy": 1.96, 
			 "cosmo_total_nonelectrostatic_energy": 11.5, 
			 "SMD_solvation_energy": 3.59 
		},
		"coords": [
			{
				"x": 1.6641610086,
				"y": -2.6386164995,
				"z": 3.2224809139,
				"element": "C" 
			},
			{
				"x": 1.591112686,
				"y": -2.4703867697,
				"z": 1.7354655961,
				"element": "C" 
			},
			{
				"x": 0.9689007265,
				"y": -1.4790352284,
				"z": 1.0389526784,
				"element": "C" 
			},
			{
				"x": 1.0930921037,
				"y": -1.6061756507,
				"z": -0.3922387874,
				"element": "C" 
			},
			{
				"x": 1.862563216,
				"y": -2.7346813742,
				"z": -0.7495431345,
				"element": "C" 
			},
			{
				"x": 2.380788917,
				"y": -3.6300903319,
				"z": 0.6694274634,
				"element": "S" 
			},
			{
				"x": 2.2044191775,
				"y": -3.1042651105,
				"z": -1.9880003584,
				"element": "N" 
			},
			{
				"x": 1.754726892,
				"y": -2.2728434086,
				"z": -2.9250615361,
				"element": "C" 
			},
			{
				"x": 1.0054881165,
				"y": -1.179429788,
				"z": -2.7546029505,
				"element": "N" 
			},
			{
				"x": 0.641074854,
				"y": -0.8341486451,
				"z": -1.5047321898,
				"element": "C" 
			},
			{
				"x": -0.1578044467,
				"y": 0.2700208572,
				"z": -1.4167951098,
				"element": "N" 
			},
			{
				"x": -0.9132478816,
				"y": 0.7053488905,
				"z": -0.2399465035,
				"element": "C" 
			},
			{
				"x": -2.0478459977,
				"y": 1.5480142138,
				"z": -0.838501335,
				"element": "C" 
			},
			{
				"x": -1.4026950201,
				"y": 2.1644770568,
				"z": -2.0868341329,
				"element": "C" 
			},
			{
				"x": -0.4987260209,
				"y": 1.0292590135,
				"z": -2.6217859544,
				"element": "C" 
			},
			{
				"x": 0.740603398,
				"y": 1.6017525728,
				"z": -3.3038968885,
				"element": "C" 
			},
			{
				"x": 0.5570504939,
				"y": 1.6927624272,
				"z": -4.639798921,
				"element": "O" 
			},
			{
				"x": 1.7282648789,
				"y": 2.0084437118,
				"z": -2.7375082396,
				"element": "O" 
			},
			{
				"x": 1.1269367738,
				"y": -1.8244970253,
				"z": 3.717042027,
				"element": "H" 
			},
			{
				"x": 2.6995284443,
				"y": -2.6277859161,
				"z": 3.5819911224,
				"element": "H" 
			},
			{
				"x": 1.2162144326,
				"y": -3.5850383065,
				"z": 3.5469470455,
				"element": "H" 
			},
			{
				"x": 0.4584545988,
				"y": -0.671575711,
				"z": 1.5465437112,
				"element": "H" 
			},
			{
				"x": 2.0217014649,
				"y": -2.5100808243,
				"z": -3.9531372585,
				"element": "H" 
			},
			{
				"x": -0.2863015213,
				"y": 1.3064500621,
				"z": 0.4340089027,
				"element": "H" 
			},
			{
				"x": -1.2900805163,
				"y": -0.1556309797,
				"z": 0.3183458095,
				"element": "H" 
			},
			{
				"x": -2.8829733236,
				"y": 0.8987423441,
				"z": -1.1231019719,
				"element": "H" 
			},
			{
				"x": -2.4255832873,
				"y": 2.2967804622,
				"z": -0.137268376,
				"element": "H" 
			},
			{
				"x": -2.1241556629,
				"y": 2.4958549062,
				"z": -2.836713373,
				"element": "H" 
			},
			{
				"x": -0.7822758446,
				"y": 3.021624087,
				"z": -1.8036901373,
				"element": "H" 
			},
			{
				"x": -1.0248788833,
				"y": 0.3985952562,
				"z": -3.3456382351,
				"element": "H" 
			},
			{
				"x": 1.3623862232,
				"y": 2.104755708,
				"z": -4.9954098769,
				"element": "H" 
			}
		],
		 "valence_orbital": [ 
			{
				"type": "occ",
				"energy": -0.27426,
				"method": "rhf"
			},
			{
				"type": "occ",
				"energy": -0.25697,
				"method": "rhf"
			},
			{
				"type": "occ",
				"energy": -0.25153,
				"method": "rhf"
			},
			{
				"type": "occ",
				"energy": -0.24781,
				"method": "rhf"
			},
			{
				"type": "occ",
				"energy": -0.20436,
				"method": "rhf"
			},
			{
				"type": "unocc",
				"energy": -0.02473,
				"method": "rhf"
			},
			{
				"type": "unocc",
				"energy": -0.01054,
				"method": "rhf"
			},
			{
				"type": "unocc",
				"energy": 0.01285,
				"method": "rhf"
			},
			{
				"type": "unocc",
				"energy": 0.02552,
				"method": "rhf"
			},
			{
				"type": "unocc",
				"energy": 0.0394,
				"method": "rhf"
			}
		],
		"cosmo_sigma_profile": { 
			"-0.025": 0.0,
			"-0.024": 0.0,
			"-0.023": 0.0,
			"-0.022": 0.0,
			"-0.021": 0.0,
			"-0.02": 0.0,
			"-0.019": 0.0186240912459,
			"-0.018": 0.831783055312,
			"-0.017": 0.999914893129,
			"-0.016": 1.01773078209,
			"-0.015": 0.149330333362,
			"-0.014": 0.928201475614,
			"-0.013": 0.739688763705,
			"-0.012": 1.14536605375,
			"-0.011": 0.719031731669,
			"-0.01": 0.453346537505,
			"-0.009": 0.478292528647,
			"-0.008": 0.436460602426,
			"-0.007": 4.25053013168,
			"-0.006": 9.94188382231,
			"-0.005": 23.7340833273,
			"-0.004": 33.7886742977,
			"-0.003": 26.3725138718,
			"-0.002": 22.3475568067,
			"-0.001": 22.1861457151,
			"0.0": 15.5821029031,
			"0.001": 16.2005595004,
			"0.002": 20.8605978856,
			"0.003": 16.3284292696,
			"0.004": 13.8016535205,
			"0.005": 7.20153029649,
			"0.006": 5.4888879428,
			"0.007": 5.72297287355,
			"0.008": 6.50085570883,
			"0.009": 6.25937651351,
			"0.01": 4.43814119757,
			"0.011": 5.2036555123,
			"0.012": 5.50484416098,
			"0.013": 1.64601067321,
			"0.014": 0.795431207433,
			"0.015": 0.875646025854,
			"0.016": 0.137661650171,
			"0.017": 0.0,
			"0.018": 0.0,
			"0.019": 0.0,
			"0.02": 0.0,
			"0.021": 0.0,
			"0.022": 0.0,
			"0.023": 0.0,
			"0.024": 0.0,
			"0.025": 0.0
		}
	}
}
