{
	 "smiles": "CCOC1=CC2=C(C=C1)C=C(O)C(O)=C2", 
	 "Tm": 405.15, 
	 "num_atms": 27, 
	 "gaussian": { 
		 "optdone": 1, 
		 "sigma_profile": "yes", 
		 "theory": "DFT", 
		 "functional": "B3LYP", 
		 "basiset": "6-31G**", 
		 "properties": { 
			 "R2extent": 4593.2629, 
			 "electric_dipole_moment_norm": 3.65575822505, 
			 "electric_quadrupole_moment_norm": 10.8840474728, 
			 "total_energy": -690.182094722, 
			 "HOMO_LUMO_gap": 0.16721, 
			 "cosmo_polarized_energy": -13.42, 
			 "cosmo_cavitation_energy": 30.64, 
			 "cosmo_dispersion_energy": -22.99, 
			 "cosmo_repulsion_energy": 1.79, 
			 "cosmo_total_nonelectrostatic_energy": 9.44, 
			 "SMD_solvation_energy": 5.86 
		},
		"coords": [
			{
				"x": -3.2130888821,
				"y": -3.3305381504,
				"z": -0.885320174,
				"element": "C" 
			},
			{
				"x": -1.9818706728,
				"y": -2.580951762,
				"z": -0.4063175617,
				"element": "C" 
			},
			{
				"x": -1.9391671655,
				"y": -1.3351216483,
				"z": -1.0962746819,
				"element": "O" 
			},
			{
				"x": -0.9101669458,
				"y": -0.4773432234,
				"z": -0.8298134367,
				"element": "C" 
			},
			{
				"x": 0.1135855563,
				"y": -0.7154849852,
				"z": 0.0673878086,
				"element": "C" 
			},
			{
				"x": 1.1352685577,
				"y": 0.2540682149,
				"z": 0.2637428678,
				"element": "C" 
			},
			{
				"x": 1.1006298219,
				"y": 1.4810604753,
				"z": -0.4724779861,
				"element": "C" 
			},
			{
				"x": 0.0297884841,
				"y": 1.6861489363,
				"z": -1.3855195352,
				"element": "C" 
			},
			{
				"x": -0.9480359791,
				"y": 0.7396260018,
				"z": -1.5626538544,
				"element": "C" 
			},
			{
				"x": 2.1220587825,
				"y": 2.4471643048,
				"z": -0.2743115914,
				"element": "C" 
			},
			{
				"x": 3.144891807,
				"y": 2.220232986,
				"z": 0.6157537638,
				"element": "C" 
			},
			{
				"x": 4.1273027433,
				"y": 3.1456289752,
				"z": 0.8085417276,
				"element": "O" 
			},
			{
				"x": 3.1769252334,
				"y": 0.9977731789,
				"z": 1.3474312972,
				"element": "C" 
			},
			{
				"x": 4.2461660779,
				"y": 0.8863056334,
				"z": 2.2050832498,
				"element": "O" 
			},
			{
				"x": 2.2032989051,
				"y": 0.0429151339,
				"z": 1.1782127711,
				"element": "C" 
			},
			{
				"x": -4.1199615833,
				"y": -2.7576365253,
				"z": -0.6724098097,
				"element": "H" 
			},
			{
				"x": -3.1622082854,
				"y": -3.5057072045,
				"z": -1.9636013286,
				"element": "H" 
			},
			{
				"x": -3.2863794864,
				"y": -4.2980652055,
				"z": -0.3791288577,
				"element": "H" 
			},
			{
				"x": -1.0672916693,
				"y": -3.1552111137,
				"z": -0.6142859793,
				"element": "H" 
			},
			{
				"x": -2.0262380464,
				"y": -2.4063437105,
				"z": 0.6785933016,
				"element": "H" 
			},
			{
				"x": 0.1600886096,
				"y": -1.6374527965,
				"z": 0.6357848754,
				"element": "H" 
			},
			{
				"x": -0.0062222657,
				"y": 2.6143696035,
				"z": -1.9497767039,
				"element": "H" 
			},
			{
				"x": -1.7672192133,
				"y": 0.8909540758,
				"z": -2.257915684,
				"element": "H" 
			},
			{
				"x": 2.1060134801,
				"y": 3.3812974659,
				"z": -0.8272026935,
				"element": "H" 
			},
			{
				"x": 4.738550993,
				"y": 2.7876847912,
				"z": 1.4692918931,
				"element": "H" 
			},
			{
				"x": 4.2081580881,
				"y": 0.039819838,
				"z": 2.6670978429,
				"element": "H" 
			},
			{
				"x": 2.2457230552,
				"y": -0.8843932898,
				"z": 1.7466884792,
				"element": "H" 
			}
		],
		 "valence_orbital": [ 
			{
				"type": "occ",
				"energy": -0.32034,
				"method": "rhf"
			},
			{
				"type": "occ",
				"energy": -0.27843,
				"method": "rhf"
			},
			{
				"type": "occ",
				"energy": -0.25723,
				"method": "rhf"
			},
			{
				"type": "occ",
				"energy": -0.20953,
				"method": "rhf"
			},
			{
				"type": "occ",
				"energy": -0.19053,
				"method": "rhf"
			},
			{
				"type": "unocc",
				"energy": -0.02332,
				"method": "rhf"
			},
			{
				"type": "unocc",
				"energy": 0.01365,
				"method": "rhf"
			},
			{
				"type": "unocc",
				"energy": 0.04065,
				"method": "rhf"
			},
			{
				"type": "unocc",
				"energy": 0.05221,
				"method": "rhf"
			},
			{
				"type": "unocc",
				"energy": 0.09558,
				"method": "rhf"
			}
		],
		"cosmo_sigma_profile": { 
			"-0.025": 0.0,
			"-0.024": 0.0,
			"-0.023": 0.0,
			"-0.022": 0.0,
			"-0.021": 0.0,
			"-0.02": 0.0,
			"-0.019": 0.102930889542,
			"-0.018": 0.886520653411,
			"-0.017": 1.18668712538,
			"-0.016": 1.21130955203,
			"-0.015": 0.847302029122,
			"-0.014": 1.79257842524,
			"-0.013": 0.888225121838,
			"-0.012": 1.24185877129,
			"-0.011": 2.00024057619,
			"-0.01": 1.98820550118,
			"-0.009": 1.76956014277,
			"-0.008": 1.38200470343,
			"-0.007": 1.97647367076,
			"-0.006": 8.78081090006,
			"-0.005": 14.5219551398,
			"-0.004": 19.5374894148,
			"-0.003": 20.5056522257,
			"-0.002": 15.8958721859,
			"-0.001": 14.6408667763,
			"0.0": 16.334920325,
			"0.001": 13.5425776159,
			"0.002": 11.8897766258,
			"0.003": 14.1282209731,
			"0.004": 22.4356047711,
			"0.005": 27.6807270328,
			"0.006": 9.30033234359,
			"0.007": 3.61505784505,
			"0.008": 3.98886966841,
			"0.009": 2.74369918469,
			"0.01": 2.40959487537,
			"0.011": 2.77767781495,
			"0.012": 0.949491268574,
			"0.013": 0.0,
			"0.014": 0.0,
			"0.015": 0.0,
			"0.016": 0.0,
			"0.017": 0.0,
			"0.018": 0.0,
			"0.019": 0.0,
			"0.02": 0.0,
			"0.021": 0.0,
			"0.022": 0.0,
			"0.023": 0.0,
			"0.024": 0.0,
			"0.025": 0.0
		}
	}
}
