{
	 "smiles": "NC1=NC=C(CCC(O)=O)S1", 
	 "Tm": 469.15, 
	 "num_atms": 19, 
	 "gaussian": { 
		 "optdone": 1, 
		 "sigma_profile": "yes", 
		 "theory": "DFT", 
		 "functional": "B3LYP", 
		 "basiset": "6-31G**", 
		 "properties": { 
			 "R2extent": 3026.4109, 
			 "electric_dipole_moment_norm": 5.26757714609, 
			 "electric_quadrupole_moment_norm": 7.56832356008, 
			 "total_energy": -891.601661008, 
			 "HOMO_LUMO_gap": 0.20238, 
			 "cosmo_polarized_energy": -21.42, 
			 "cosmo_cavitation_energy": 25.54, 
			 "cosmo_dispersion_energy": -19.08, 
			 "cosmo_repulsion_energy": 1.52, 
			 "cosmo_total_nonelectrostatic_energy": 7.98, 
			 "SMD_solvation_energy": 3.51 
		},
		"coords": [
			{
				"x": 0.3778274308,
				"y": 2.5041025738,
				"z": -3.542425844,
				"element": "N" 
			},
			{
				"x": 0.7235164762,
				"y": 2.0075998269,
				"z": -2.3047480969,
				"element": "C" 
			},
			{
				"x": 1.9419347451,
				"y": 1.9572606384,
				"z": -1.8529321926,
				"element": "N" 
			},
			{
				"x": 1.9552623007,
				"y": 1.4895768114,
				"z": -0.5546898325,
				"element": "C" 
			},
			{
				"x": 0.7634137204,
				"y": 1.1614064306,
				"z": 0.0169500955,
				"element": "C" 
			},
			{
				"x": 0.4925917811,
				"y": 0.6079892813,
				"z": 1.3829428112,
				"element": "C" 
			},
			{
				"x": 0.0012504138,
				"y": -0.8490069902,
				"z": 1.3730064749,
				"element": "C" 
			},
			{
				"x": -0.2190279587,
				"y": -1.3982264566,
				"z": 2.7767192694,
				"element": "C" 
			},
			{
				"x": -0.6625724486,
				"y": -2.6840193653,
				"z": 2.835517962,
				"element": "O" 
			},
			{
				"x": -0.0264353368,
				"y": -0.7791262028,
				"z": 3.7925386616,
				"element": "O" 
			},
			{
				"x": -0.519723782,
				"y": 1.4814952469,
				"z": -1.1565829806,
				"element": "S" 
			},
			{
				"x": 1.1753243328,
				"y": 2.6032276984,
				"z": -4.1575970539,
				"element": "H" 
			},
			{
				"x": -0.4329375565,
				"y": 2.0980087283,
				"z": -3.98738439,
				"element": "H" 
			},
			{
				"x": 2.9085991908,
				"y": 1.3970295038,
				"z": -0.044597597,
				"element": "H" 
			},
			{
				"x": 1.4176034287,
				"y": 0.6643219547,
				"z": 1.9652648703,
				"element": "H" 
			},
			{
				"x": -0.2370766447,
				"y": 1.2211039594,
				"z": 1.9236670874,
				"element": "H" 
			},
			{
				"x": 0.7264253442,
				"y": -1.4887313899,
				"z": 0.8522493326,
				"element": "H" 
			},
			{
				"x": -0.9388925715,
				"y": -0.9369510527,
				"z": 0.8114742753,
				"element": "H" 
			},
			{
				"x": -0.7667828659,
				"y": -3.0439611965,
				"z": 1.9431271473,
				"element": "H" 
			}
		],
		 "valence_orbital": [ 
			{
				"type": "occ",
				"energy": -0.31745,
				"method": "rhf"
			},
			{
				"type": "occ",
				"energy": -0.2791,
				"method": "rhf"
			},
			{
				"type": "occ",
				"energy": -0.27384,
				"method": "rhf"
			},
			{
				"type": "occ",
				"energy": -0.27243,
				"method": "rhf"
			},
			{
				"type": "occ",
				"energy": -0.21086,
				"method": "rhf"
			},
			{
				"type": "unocc",
				"energy": -0.00848,
				"method": "rhf"
			},
			{
				"type": "unocc",
				"energy": 0.00219,
				"method": "rhf"
			},
			{
				"type": "unocc",
				"energy": 0.01103,
				"method": "rhf"
			},
			{
				"type": "unocc",
				"energy": 0.05068,
				"method": "rhf"
			},
			{
				"type": "unocc",
				"energy": 0.06271,
				"method": "rhf"
			}
		],
		"cosmo_sigma_profile": { 
			"-0.025": 0.0,
			"-0.024": 0.0,
			"-0.023": 0.0,
			"-0.022": 0.0,
			"-0.021": 0.0,
			"-0.02": 0.0,
			"-0.019": 0.406654939766,
			"-0.018": 1.1206939375,
			"-0.017": 1.45444211037,
			"-0.016": 1.09232308377,
			"-0.015": 1.25580165655,
			"-0.014": 2.69072498174,
			"-0.013": 3.76229063036,
			"-0.012": 3.60841236709,
			"-0.011": 3.76662622744,
			"-0.01": 3.48859295036,
			"-0.009": 3.83574354478,
			"-0.008": 3.93100855515,
			"-0.007": 6.05066937162,
			"-0.006": 10.271092185,
			"-0.005": 12.3758353991,
			"-0.004": 11.0505281583,
			"-0.003": 7.64205512067,
			"-0.002": 9.03490922345,
			"-0.001": 9.33793923498,
			"0.0": 7.73267200467,
			"0.001": 9.00792106065,
			"0.002": 10.9660156002,
			"0.003": 12.6793070626,
			"0.004": 11.7678465059,
			"0.005": 9.65434867665,
			"0.006": 4.89296257022,
			"0.007": 5.27892922546,
			"0.008": 5.12538355809,
			"0.009": 4.72272619603,
			"0.01": 6.50653776007,
			"0.011": 7.40043248157,
			"0.012": 7.06148069494,
			"0.013": 2.47889933541,
			"0.014": 0.9673824931,
			"0.015": 0.995472150473,
			"0.016": 0.634394006001,
			"0.017": 0.0,
			"0.018": 0.0,
			"0.019": 0.0,
			"0.02": 0.0,
			"0.021": 0.0,
			"0.022": 0.0,
			"0.023": 0.0,
			"0.024": 0.0,
			"0.025": 0.0
		}
	}
}
