{
	 "smiles": "CC(C)N1C(=O)NC2(CCNC2)C1=O", 
	 "Tm": 372.15, 
	 "num_atms": 29, 
	 "gaussian": { 
		 "optdone": 1, 
		 "sigma_profile": "yes", 
		 "theory": "DFT", 
		 "functional": "B3LYP", 
		 "basiset": "6-31G**", 
		 "properties": { 
			 "R2extent": 3736.867, 
			 "electric_dipole_moment_norm": 1.89178346541, 
			 "electric_quadrupole_moment_norm": 11.3508976834, 
			 "total_energy": -666.745045943, 
			 "HOMO_LUMO_gap": 0.22742, 
			 "cosmo_polarized_energy": -16.8, 
			 "cosmo_cavitation_energy": 30.63, 
			 "cosmo_dispersion_energy": -21.65, 
			 "cosmo_repulsion_energy": 1.72, 
			 "cosmo_total_nonelectrostatic_energy": 10.7, 
			 "SMD_solvation_energy": 3.25 
		},
		"coords": [
			{
				"x": -3.7191212237,
				"y": 0.7484216856,
				"z": 2.9303308587,
				"element": "C" 
			},
			{
				"x": -2.6681539862,
				"y": 1.7318872066,
				"z": 2.4018359599,
				"element": "C" 
			},
			{
				"x": -1.9081854756,
				"y": 2.4477531955,
				"z": 3.5250831671,
				"element": "C" 
			},
			{
				"x": -1.733932984,
				"y": 1.0591357339,
				"z": 1.4806610322,
				"element": "N" 
			},
			{
				"x": -0.8776561161,
				"y": -0.0070997208,
				"z": 1.8371083763,
				"element": "C" 
			},
			{
				"x": -0.7523169503,
				"y": -0.488478863,
				"z": 2.9486074909,
				"element": "O" 
			},
			{
				"x": -0.2374895118,
				"y": -0.3866633411,
				"z": 0.6833963872,
				"element": "N" 
			},
			{
				"x": -0.521869256,
				"y": 0.4849577855,
				"z": -0.4499180719,
				"element": "C" 
			},
			{
				"x": -0.9771996917,
				"y": -0.2643950271,
				"z": -1.7353788481,
				"element": "C" 
			},
			{
				"x": 0.1809056267,
				"y": -0.0477921011,
				"z": -2.7579484971,
				"element": "C" 
			},
			{
				"x": 1.3296075879,
				"y": 0.4978429448,
				"z": -2.0169677627,
				"element": "N" 
			},
			{
				"x": 0.7180545758,
				"y": 1.2929528033,
				"z": -0.9551647907,
				"element": "C" 
			},
			{
				"x": -1.5990322043,
				"y": 1.3958420054,
				"z": 0.1482004879,
				"element": "C" 
			},
			{
				"x": -2.2041120499,
				"y": 2.2690629489,
				"z": -0.4468702552,
				"element": "O" 
			},
			{
				"x": -4.4427580787,
				"y": 1.2815180938,
				"z": 3.5549008863,
				"element": "H" 
			},
			{
				"x": -3.249225966,
				"y": -0.0334470258,
				"z": 3.5315543612,
				"element": "H" 
			},
			{
				"x": -4.2635904014,
				"y": 0.2789379764,
				"z": 2.1053520236,
				"element": "H" 
			},
			{
				"x": -3.158405681,
				"y": 2.476782626,
				"z": 1.76758861,
				"element": "H" 
			},
			{
				"x": -1.3703629417,
				"y": 1.7283269885,
				"z": 4.1468313214,
				"element": "H" 
			},
			{
				"x": -2.6132562678,
				"y": 2.9976446172,
				"z": 4.1563529697,
				"element": "H" 
			},
			{
				"x": -1.1904382021,
				"y": 3.1645093012,
				"z": 3.1144305575,
				"element": "H" 
			},
			{
				"x": 0.5458569009,
				"y": -1.019102797,
				"z": 0.7397319118,
				"element": "H" 
			},
			{
				"x": -1.9189899554,
				"y": 0.1510235204,
				"z": -2.1025760697,
				"element": "H" 
			},
			{
				"x": -1.1392125545,
				"y": -1.3201469041,
				"z": -1.5023120977,
				"element": "H" 
			},
			{
				"x": 0.4639475824,
				"y": -0.9611319987,
				"z": -3.2875923366,
				"element": "H" 
			},
			{
				"x": -0.1236735115,
				"y": 0.688049468,
				"z": -3.5108571223,
				"element": "H" 
			},
			{
				"x": 1.8600559177,
				"y": -0.2669571417,
				"z": -1.6030711665,
				"element": "H" 
			},
			{
				"x": 1.4244662312,
				"y": 1.5223869619,
				"z": -0.1533429732,
				"element": "H" 
			},
			{
				"x": 0.351888587,
				"y": 2.2349790574,
				"z": -1.3812664102,
				"element": "H" 
			}
		],
		 "valence_orbital": [ 
			{
				"type": "occ",
				"energy": -0.28205,
				"method": "rhf"
			},
			{
				"type": "occ",
				"energy": -0.27798,
				"method": "rhf"
			},
			{
				"type": "occ",
				"energy": -0.26836,
				"method": "rhf"
			},
			{
				"type": "occ",
				"energy": -0.2609,
				"method": "rhf"
			},
			{
				"type": "occ",
				"energy": -0.23629,
				"method": "rhf"
			},
			{
				"type": "unocc",
				"energy": -0.00887,
				"method": "rhf"
			},
			{
				"type": "unocc",
				"energy": 0.04916,
				"method": "rhf"
			},
			{
				"type": "unocc",
				"energy": 0.06026,
				"method": "rhf"
			},
			{
				"type": "unocc",
				"energy": 0.08857,
				"method": "rhf"
			},
			{
				"type": "unocc",
				"energy": 0.09529,
				"method": "rhf"
			}
		],
		"cosmo_sigma_profile": { 
			"-0.025": 0.0,
			"-0.024": 0.0,
			"-0.023": 0.0,
			"-0.022": 0.0,
			"-0.021": 0.0,
			"-0.02": 0.0,
			"-0.019": 0.0,
			"-0.018": 0.0,
			"-0.017": 0.0,
			"-0.016": 0.0,
			"-0.015": 0.73375802618,
			"-0.014": 2.09258222109,
			"-0.013": 1.86311916596,
			"-0.012": 2.34659063617,
			"-0.011": 2.05602092724,
			"-0.01": 2.28269230395,
			"-0.009": 1.81984954123,
			"-0.008": 1.96545208912,
			"-0.007": 2.04403022844,
			"-0.006": 4.66526300049,
			"-0.005": 8.87501669375,
			"-0.004": 22.6519997229,
			"-0.003": 31.7533000674,
			"-0.002": 28.7898953913,
			"-0.001": 25.5284229042,
			"0.0": 21.9138976242,
			"0.001": 14.6846190847,
			"0.002": 4.85323924507,
			"0.003": 6.66940453771,
			"0.004": 6.18846643401,
			"0.005": 3.84516401829,
			"0.006": 3.448482505,
			"0.007": 3.79572991277,
			"0.008": 3.7842633001,
			"0.009": 3.1936195902,
			"0.01": 4.15306779129,
			"0.011": 4.03327440128,
			"0.012": 7.65558866459,
			"0.013": 6.70698730711,
			"0.014": 2.29857431245,
			"0.015": 0.3391374929,
			"0.016": 0.778900418351,
			"0.017": 0.504448095144,
			"0.018": 0.434971579351,
			"0.019": 0.0,
			"0.02": 0.0,
			"0.021": 0.0,
			"0.022": 0.0,
			"0.023": 0.0,
			"0.024": 0.0,
			"0.025": 0.0
		}
	}
}
