{
	 "smiles": "NCCCN1C(=O)C2C3CC(C=C3)C2C1=O", 
	 "Tm": 340.15, 
	 "num_atms": 32, 
	 "gaussian": { 
		 "optdone": 1, 
		 "sigma_profile": "yes", 
		 "theory": "DFT", 
		 "functional": "B3LYP", 
		 "basiset": "6-31G**", 
		 "properties": { 
			 "R2extent": 3723.0556, 
			 "electric_dipole_moment_norm": 1.97476974101, 
			 "electric_quadrupole_moment_norm": 16.7406270701, 
			 "total_energy": -726.867336672, 
			 "HOMO_LUMO_gap": 0.21229, 
			 "cosmo_polarized_energy": -14.63, 
			 "cosmo_cavitation_energy": 33.01, 
			 "cosmo_dispersion_energy": -23.29, 
			 "cosmo_repulsion_energy": 1.83, 
			 "cosmo_total_nonelectrostatic_energy": 11.55, 
			 "SMD_solvation_energy": 5.1 
		},
		"coords": [
			{
				"x": -3.8936451254,
				"y": -0.6725405708,
				"z": -2.7679656988,
				"element": "N" 
			},
			{
				"x": -2.488979046,
				"y": -0.2601818003,
				"z": -2.8549270426,
				"element": "C" 
			},
			{
				"x": -1.5743139337,
				"y": -1.4205664142,
				"z": -2.4394311859,
				"element": "C" 
			},
			{
				"x": -1.718810035,
				"y": -1.8010713524,
				"z": -0.959030017,
				"element": "C" 
			},
			{
				"x": -0.9939290285,
				"y": -0.901359941,
				"z": -0.0566047896,
				"element": "N" 
			},
			{
				"x": 0.3645480619,
				"y": -1.0679231035,
				"z": 0.2274920596,
				"element": "C" 
			},
			{
				"x": 1.0633742227,
				"y": -1.9357802868,
				"z": -0.2585289443,
				"element": "O" 
			},
			{
				"x": 0.7859006851,
				"y": 0.0070326458,
				"z": 1.2223280401,
				"element": "C" 
			},
			{
				"x": 1.7757669024,
				"y": 1.0745064395,
				"z": 0.6206793748,
				"element": "C" 
			},
			{
				"x": 0.7986296477,
				"y": 1.9419848245,
				"z": -0.2096306604,
				"element": "C" 
			},
			{
				"x": -0.10025728,
				"y": 2.2765934081,
				"z": 1.0057574887,
				"element": "C" 
			},
			{
				"x": 0.9601630661,
				"y": 2.7490123175,
				"z": 1.9943098168,
				"element": "C" 
			},
			{
				"x": 2.0724513059,
				"y": 2.0365491872,
				"z": 1.7659354003,
				"element": "C" 
			},
			{
				"x": -0.4998570028,
				"y": 0.830364464,
				"z": 1.4845818649,
				"element": "C" 
			},
			{
				"x": -1.5722486447,
				"y": 0.1773020852,
				"z": 0.6181122538,
				"element": "C" 
			},
			{
				"x": -2.731737881,
				"y": 0.5245232969,
				"z": 0.5072768639,
				"element": "O" 
			},
			{
				"x": -4.504319923,
				"y": 0.1370223308,
				"z": -2.7228549264,
				"element": "H" 
			},
			{
				"x": -4.1595122196,
				"y": -1.2001522151,
				"z": -3.5954734135,
				"element": "H" 
			},
			{
				"x": -2.1884261687,
				"y": 0.0939930885,
				"z": -3.855917392,
				"element": "H" 
			},
			{
				"x": -2.3482747226,
				"y": 0.5806100994,
				"z": -2.1676638312,
				"element": "H" 
			},
			{
				"x": -0.5261981574,
				"y": -1.1864970087,
				"z": -2.6584636596,
				"element": "H" 
			},
			{
				"x": -1.8266083298,
				"y": -2.302475819,
				"z": -3.0429373038,
				"element": "H" 
			},
			{
				"x": -2.7733039973,
				"y": -1.7692731977,
				"z": -0.6761649056,
				"element": "H" 
			},
			{
				"x": -1.3173149769,
				"y": -2.8018673179,
				"z": -0.7828137585,
				"element": "H" 
			},
			{
				"x": 1.2115484418,
				"y": -0.4793210183,
				"z": 2.103232621,
				"element": "H" 
			},
			{
				"x": 2.6311949186,
				"y": 0.6343680246,
				"z": 0.1068475138,
				"element": "H" 
			},
			{
				"x": 0.2868442751,
				"y": 1.3985520502,
				"z": -1.0108872388,
				"element": "H" 
			},
			{
				"x": 1.2809920019,
				"y": 2.8284261109,
				"z": -0.6277898173,
				"element": "H" 
			},
			{
				"x": -0.9559989214,
				"y": 2.9330043203,
				"z": 0.8434344883,
				"element": "H" 
			},
			{
				"x": 0.7846640592,
				"y": 3.4601390368,
				"z": 2.7941421784,
				"element": "H" 
			},
			{
				"x": 2.9919911342,
				"y": 2.0461714433,
				"z": 2.3408987629,
				"element": "H" 
			},
			{
				"x": -0.8430333292,
				"y": 0.8339548722,
				"z": 2.521855858,
				"element": "H" 
			}
		],
		 "valence_orbital": [ 
			{
				"type": "occ",
				"energy": -0.27779,
				"method": "rhf"
			},
			{
				"type": "occ",
				"energy": -0.26736,
				"method": "rhf"
			},
			{
				"type": "occ",
				"energy": -0.24998,
				"method": "rhf"
			},
			{
				"type": "occ",
				"energy": -0.24911,
				"method": "rhf"
			},
			{
				"type": "occ",
				"energy": -0.23064,
				"method": "rhf"
			},
			{
				"type": "unocc",
				"energy": -0.01835,
				"method": "rhf"
			},
			{
				"type": "unocc",
				"energy": 0.00783,
				"method": "rhf"
			},
			{
				"type": "unocc",
				"energy": 0.02481,
				"method": "rhf"
			},
			{
				"type": "unocc",
				"energy": 0.07888,
				"method": "rhf"
			},
			{
				"type": "unocc",
				"energy": 0.09705,
				"method": "rhf"
			}
		],
		"cosmo_sigma_profile": { 
			"-0.025": 0.0,
			"-0.024": 0.0,
			"-0.023": 0.0,
			"-0.022": 0.0,
			"-0.021": 0.0,
			"-0.02": 0.0,
			"-0.019": 0.0,
			"-0.018": 0.0,
			"-0.017": 0.0,
			"-0.016": 0.0,
			"-0.015": 0.0,
			"-0.014": 0.0,
			"-0.013": 0.0,
			"-0.012": 0.0,
			"-0.011": 0.0,
			"-0.01": 1.10832047692,
			"-0.009": 2.54323058928,
			"-0.008": 2.92085287518,
			"-0.007": 4.16501602908,
			"-0.006": 13.0371490356,
			"-0.005": 16.5040325673,
			"-0.004": 24.5917487023,
			"-0.003": 30.5076644546,
			"-0.002": 34.464767441,
			"-0.001": 28.3318556003,
			"0.0": 20.2244472921,
			"0.001": 10.0883610376,
			"0.002": 8.74554451515,
			"0.003": 7.20515260083,
			"0.004": 5.30710257607,
			"0.005": 5.08423956719,
			"0.006": 4.25971856882,
			"0.007": 3.14321793481,
			"0.008": 3.85261761122,
			"0.009": 4.18776184392,
			"0.01": 4.40850613232,
			"0.011": 6.47454323242,
			"0.012": 11.2105853871,
			"0.013": 3.98561152014,
			"0.014": 0.433628352506,
			"0.015": 0.420772042466,
			"0.016": 0.58671178044,
			"0.017": 0.0705952754238,
			"0.018": 0.0,
			"0.019": 0.0,
			"0.02": 0.0,
			"0.021": 0.0,
			"0.022": 0.0,
			"0.023": 0.0,
			"0.024": 0.0,
			"0.025": 0.0
		}
	}
}
