{
	 "smiles": "NC1=CC=CC=C1[N+]([O-])=O", 
	 "Tm": 345.15, 
	 "num_atms": 16, 
	 "gaussian": { 
		 "optdone": 1, 
		 "sigma_profile": "yes", 
		 "theory": "DFT", 
		 "functional": "B3LYP", 
		 "basiset": "6-31G**", 
		 "properties": { 
			 "R2extent": 1386.53, 
			 "electric_dipole_moment_norm": 4.70377883196, 
			 "electric_quadrupole_moment_norm": 8.48638857171, 
			 "total_energy": -492.113264473, 
			 "HOMO_LUMO_gap": 0.1425, 
			 "cosmo_polarized_energy": -10.9, 
			 "cosmo_cavitation_energy": 20.26, 
			 "cosmo_dispersion_energy": -15.56, 
			 "cosmo_repulsion_energy": 1.25, 
			 "cosmo_total_nonelectrostatic_energy": 5.95, 
			 "SMD_solvation_energy": 5.53 
		},
		"coords": [
			{
				"x": 0.5843953363,
				"y": 1.694669126,
				"z": 0.3035634252,
				"element": "N" 
			},
			{
				"x": 0.5755541454,
				"y": 0.3846858932,
				"z": 0.6527845882,
				"element": "C" 
			},
			{
				"x": 1.4911292475,
				"y": -0.0888237023,
				"z": 1.6288833821,
				"element": "C" 
			},
			{
				"x": 1.5186762124,
				"y": -1.413616466,
				"z": 2.0174410625,
				"element": "C" 
			},
			{
				"x": 0.63336654,
				"y": -2.3516897371,
				"z": 1.4561324828,
				"element": "C" 
			},
			{
				"x": -0.2712694903,
				"y": -1.9267251991,
				"z": 0.5031796686,
				"element": "C" 
			},
			{
				"x": -0.3116771877,
				"y": -0.581689122,
				"z": 0.0971867719,
				"element": "C" 
			},
			{
				"x": -1.2930686902,
				"y": -0.2284430616,
				"z": -0.9079894193,
				"element": "N" 
			},
			{
				"x": -1.359956058,
				"y": 0.9546332967,
				"z": -1.2958631134,
				"element": "O" 
			},
			{
				"x": -2.0313178604,
				"y": -1.1109957709,
				"z": -1.3476375449,
				"element": "O" 
			},
			{
				"x": 1.2427053153,
				"y": 2.3221728348,
				"z": 0.73302241,
				"element": "H" 
			},
			{
				"x": -0.0714307439,
				"y": 2.0111688616,
				"z": -0.3955983477,
				"element": "H" 
			},
			{
				"x": 2.1808005402,
				"y": 0.625337547,
				"z": 2.0707613263,
				"element": "H" 
			},
			{
				"x": 2.2375598293,
				"y": -1.7290499941,
				"z": 2.7683918769,
				"element": "H" 
			},
			{
				"x": 0.6585881325,
				"y": -3.3909578507,
				"z": 1.7642654789,
				"element": "H" 
			},
			{
				"x": -0.9733552683,
				"y": -2.6086766557,
				"z": 0.0407759518,
				"element": "H" 
			}
		],
		 "valence_orbital": [ 
			{
				"type": "occ",
				"energy": -0.3014,
				"method": "rhf"
			},
			{
				"type": "occ",
				"energy": -0.3003,
				"method": "rhf"
			},
			{
				"type": "occ",
				"energy": -0.28251,
				"method": "rhf"
			},
			{
				"type": "occ",
				"energy": -0.27419,
				"method": "rhf"
			},
			{
				"type": "occ",
				"energy": -0.22217,
				"method": "rhf"
			},
			{
				"type": "unocc",
				"energy": -0.07967,
				"method": "rhf"
			},
			{
				"type": "unocc",
				"energy": -0.00469,
				"method": "rhf"
			},
			{
				"type": "unocc",
				"energy": 0.01178,
				"method": "rhf"
			},
			{
				"type": "unocc",
				"energy": 0.07679,
				"method": "rhf"
			},
			{
				"type": "unocc",
				"energy": 0.08695,
				"method": "rhf"
			}
		],
		"cosmo_sigma_profile": { 
			"-0.025": 0.0,
			"-0.024": 0.0,
			"-0.023": 0.0,
			"-0.022": 0.0,
			"-0.021": 0.0,
			"-0.02": 0.0,
			"-0.019": 0.0,
			"-0.018": 0.0,
			"-0.017": 0.0,
			"-0.016": 0.0,
			"-0.015": 0.466679365728,
			"-0.014": 1.50802154033,
			"-0.013": 1.59402108325,
			"-0.012": 1.40675573707,
			"-0.011": 1.18463796544,
			"-0.01": 2.46047524174,
			"-0.009": 2.27737789019,
			"-0.008": 2.63184711793,
			"-0.007": 4.17783191673,
			"-0.006": 8.05824744395,
			"-0.005": 10.2293150968,
			"-0.004": 9.6182061688,
			"-0.003": 9.07215126134,
			"-0.002": 8.38712294499,
			"-0.001": 8.74576752086,
			"0.0": 10.3554408382,
			"0.001": 13.4920744714,
			"0.002": 13.2906398394,
			"0.003": 12.954221142,
			"0.004": 10.8938589627,
			"0.005": 4.01711261668,
			"0.006": 3.04177075902,
			"0.007": 3.0374174138,
			"0.008": 5.79160588624,
			"0.009": 5.64052256056,
			"0.01": 4.12425852172,
			"0.011": 3.39795495674,
			"0.012": 0.380352117225,
			"0.013": 0.0,
			"0.014": 0.0,
			"0.015": 0.0,
			"0.016": 0.0,
			"0.017": 0.0,
			"0.018": 0.0,
			"0.019": 0.0,
			"0.02": 0.0,
			"0.021": 0.0,
			"0.022": 0.0,
			"0.023": 0.0,
			"0.024": 0.0,
			"0.025": 0.0
		}
	}
}
