{
	 "smiles": "NC1=C(C#N)C(C2=C(O1)N(N=C2C(F)(F)F)C1=CC=CC=C1)C1=CC=C(O)C=C1", 
	 "Tm": 491.15, 
	 "num_atms": 42, 
	 "gaussian": { 
		 "optdone": 1, 
		 "sigma_profile": "yes", 
		 "theory": "DFT", 
		 "functional": "B3LYP", 
		 "basiset": "6-31G**", 
		 "properties": { 
			 "R2extent": 11630.6984, 
			 "electric_dipole_moment_norm": 4.53091937911, 
			 "electric_quadrupole_moment_norm": 42.4914777627, 
			 "total_energy": -1438.88326851, 
			 "HOMO_LUMO_gap": 0.17472, 
			 "cosmo_polarized_energy": -23.87, 
			 "cosmo_cavitation_energy": 49.3, 
			 "cosmo_dispersion_energy": -32.58, 
			 "cosmo_repulsion_energy": 2.41, 
			 "cosmo_total_nonelectrostatic_energy": 19.13, 
			 "SMD_solvation_energy": 10.29 
		},
		"coords": [
			{
				"x": 0.4101716613,
				"y": 3.1100814781,
				"z": 2.6750399244,
				"element": "N" 
			},
			{
				"x": 0.6360582037,
				"y": 2.0209862151,
				"z": 1.8805116785,
				"element": "C" 
			},
			{
				"x": 1.3912832592,
				"y": 1.984266978,
				"z": 0.7419450994,
				"element": "C" 
			},
			{
				"x": 2.1103571258,
				"y": 3.1657677814,
				"z": 0.4207743074,
				"element": "C" 
			},
			{
				"x": 2.6996594053,
				"y": 4.1480398575,
				"z": 0.1977882616,
				"element": "N" 
			},
			{
				"x": 1.4916260107,
				"y": 0.7800700924,
				"z": -0.2025023996,
				"element": "C" 
			},
			{
				"x": 0.8284911686,
				"y": -0.3727688319,
				"z": 0.5029143773,
				"element": "C" 
			},
			{
				"x": 0.120705616,
				"y": -0.2115629212,
				"z": 1.6654109727,
				"element": "C" 
			},
			{
				"x": -0.058510617,
				"y": 0.9376595523,
				"z": 2.3699649765,
				"element": "O" 
			},
			{
				"x": -0.3642157441,
				"y": -1.4175531931,
				"z": 2.0792720426,
				"element": "N" 
			},
			{
				"x": 0.0222510763,
				"y": -2.3908402106,
				"z": 1.2099503664,
				"element": "N" 
			},
			{
				"x": 0.7324077326,
				"y": -1.7674337574,
				"z": 0.2763943626,
				"element": "C" 
			},
			{
				"x": 1.2902828563,
				"y": -2.5385366658,
				"z": -0.8800249934,
				"element": "C" 
			},
			{
				"x": 1.4311988753,
				"y": -3.8425247419,
				"z": -0.5975513203,
				"element": "F" 
			},
			{
				"x": 2.5110061848,
				"y": -2.0504049398,
				"z": -1.2207119165,
				"element": "F" 
			},
			{
				"x": 0.5096381285,
				"y": -2.4367925597,
				"z": -1.9756761531,
				"element": "F" 
			},
			{
				"x": -1.1203201773,
				"y": -1.7530176807,
				"z": 3.2400690083,
				"element": "C" 
			},
			{
				"x": -2.0000807742,
				"y": -0.8271395331,
				"z": 3.8098855635,
				"element": "C" 
			},
			{
				"x": -2.7240118076,
				"y": -1.1870054743,
				"z": 4.946876614,
				"element": "C" 
			},
			{
				"x": -2.588110263,
				"y": -2.460058621,
				"z": 5.5014784442,
				"element": "C" 
			},
			{
				"x": -1.7180273972,
				"y": -3.3805701518,
				"z": 4.9124345525,
				"element": "C" 
			},
			{
				"x": -0.9771629454,
				"y": -3.0331229995,
				"z": 3.7852762636,
				"element": "C" 
			},
			{
				"x": 0.9045109212,
				"y": 1.0563335058,
				"z": -1.5889686683,
				"element": "C" 
			},
			{
				"x": -0.398678113,
				"y": 1.5503858542,
				"z": -1.7435410089,
				"element": "C" 
			},
			{
				"x": -0.9359407067,
				"y": 1.7865735593,
				"z": -3.0029370725,
				"element": "C" 
			},
			{
				"x": -0.1677056713,
				"y": 1.5289328936,
				"z": -4.1456904797,
				"element": "C" 
			},
			{
				"x": -0.7422980383,
				"y": 1.7804492984,
				"z": -5.3584503914,
				"element": "O" 
			},
			{
				"x": 1.132606412,
				"y": 1.0359166597,
				"z": -4.0094589143,
				"element": "C" 
			},
			{
				"x": 1.657519368,
				"y": 0.8035144829,
				"z": -2.7377440488,
				"element": "C" 
			},
			{
				"x": 0.981537645,
				"y": 3.9217651647,
				"z": 2.4838331138,
				"element": "H" 
			},
			{
				"x": 0.2416987451,
				"y": 2.9164613921,
				"z": 3.6524856612,
				"element": "H" 
			},
			{
				"x": 2.5536023177,
				"y": 0.5453227947,
				"z": -0.3442705527,
				"element": "H" 
			},
			{
				"x": -2.1258111899,
				"y": 0.1539130496,
				"z": 3.3687088571,
				"element": "H" 
			},
			{
				"x": -3.4076262455,
				"y": -0.4689073046,
				"z": 5.3897283931,
				"element": "H" 
			},
			{
				"x": -3.1591370082,
				"y": -2.7349856667,
				"z": 6.3829397702,
				"element": "H" 
			},
			{
				"x": -1.6086470933,
				"y": -4.3749683656,
				"z": 5.3345344905,
				"element": "H" 
			},
			{
				"x": -0.2991485868,
				"y": -3.7350119569,
				"z": 3.315285184,
				"element": "H" 
			},
			{
				"x": -1.0019812969,
				"y": 1.7603346449,
				"z": -0.8642455567,
				"element": "H" 
			},
			{
				"x": -1.9429729389,
				"y": 2.1716064805,
				"z": -3.1244428663,
				"element": "H" 
			},
			{
				"x": -0.1124026104,
				"y": 1.5642329107,
				"z": -6.0581818681,
				"element": "H" 
			},
			{
				"x": 1.735477511,
				"y": 0.8343349572,
				"z": -4.8924522241,
				"element": "H" 
			},
			{
				"x": 2.6667990008,
				"y": 0.4126559724,
				"z": -2.6443518509,
				"element": "H" 
			}
		],
		 "valence_orbital": [ 
			{
				"type": "occ",
				"energy": -0.25842,
				"method": "rhf"
			},
			{
				"type": "occ",
				"energy": -0.25163,
				"method": "rhf"
			},
			{
				"type": "occ",
				"energy": -0.24551,
				"method": "rhf"
			},
			{
				"type": "occ",
				"energy": -0.23042,
				"method": "rhf"
			},
			{
				"type": "occ",
				"energy": -0.21722,
				"method": "rhf"
			},
			{
				"type": "unocc",
				"energy": -0.0425,
				"method": "rhf"
			},
			{
				"type": "unocc",
				"energy": -0.02172,
				"method": "rhf"
			},
			{
				"type": "unocc",
				"energy": -0.01837,
				"method": "rhf"
			},
			{
				"type": "unocc",
				"energy": -0.00308,
				"method": "rhf"
			},
			{
				"type": "unocc",
				"energy": 0.00834,
				"method": "rhf"
			}
		],
		"cosmo_sigma_profile": { 
			"-0.025": 0.0,
			"-0.024": 0.0,
			"-0.023": 0.0,
			"-0.022": 0.0,
			"-0.021": 0.0,
			"-0.02": 0.0,
			"-0.019": 0.0,
			"-0.018": 0.300491712144,
			"-0.017": 1.31947835609,
			"-0.016": 1.18109320491,
			"-0.015": 2.29247249005,
			"-0.014": 2.74443840224,
			"-0.013": 3.71388987771,
			"-0.012": 3.66584870551,
			"-0.011": 2.75762635209,
			"-0.01": 2.73876386641,
			"-0.009": 2.53299154916,
			"-0.008": 3.06038214431,
			"-0.007": 7.03082110608,
			"-0.006": 20.6391906422,
			"-0.005": 23.3592813402,
			"-0.004": 25.0722666499,
			"-0.003": 22.7566229143,
			"-0.002": 23.5293858861,
			"-0.001": 22.4615932922,
			"0.0": 24.36244422,
			"0.001": 29.1580499821,
			"0.002": 36.7496577361,
			"0.003": 43.5656969919,
			"0.004": 29.5415875036,
			"0.005": 18.9269255831,
			"0.006": 6.73002244167,
			"0.007": 5.66368183155,
			"0.008": 6.2296675385,
			"0.009": 5.43197942262,
			"0.01": 5.94488078833,
			"0.011": 6.00904277551,
			"0.012": 3.57232715463,
			"0.013": 2.53613293579,
			"0.014": 1.15481918599,
			"0.015": 0.0,
			"0.016": 0.0,
			"0.017": 0.0,
			"0.018": 0.0,
			"0.019": 0.0,
			"0.02": 0.0,
			"0.021": 0.0,
			"0.022": 0.0,
			"0.023": 0.0,
			"0.024": 0.0,
			"0.025": 0.0
		}
	}
}
