{
	 "smiles": "CC(=O)CC(C)(C)O", 
	 "Tm": 230.35, 
	 "num_atms": 20, 
	 "gaussian": { 
		 "optdone": 1, 
		 "sigma_profile": "yes", 
		 "theory": "DFT", 
		 "functional": "B3LYP", 
		 "basiset": "6-31G**", 
		 "properties": { 
			 "R2extent": 1827.1589, 
			 "electric_dipole_moment_norm": 2.61965808647, 
			 "electric_quadrupole_moment_norm": 11.9122868044, 
			 "total_energy": -386.323178355, 
			 "HOMO_LUMO_gap": 0.22778, 
			 "cosmo_polarized_energy": -10.68, 
			 "cosmo_cavitation_energy": 22.17, 
			 "cosmo_dispersion_energy": -15.85, 
			 "cosmo_repulsion_energy": 1.33, 
			 "cosmo_total_nonelectrostatic_energy": 7.64, 
			 "SMD_solvation_energy": 4.71 
		},
		"coords": [
			{
				"x": -3.5835903387,
				"y": -1.7587122334,
				"z": -1.0658182327,
				"element": "C" 
			},
			{
				"x": -2.2999362267,
				"y": -1.1387317378,
				"z": -1.5953332379,
				"element": "C" 
			},
			{
				"x": -1.825255736,
				"y": -1.4941046093,
				"z": -2.6593279799,
				"element": "O" 
			},
			{
				"x": -1.6708081476,
				"y": -0.0684371295,
				"z": -0.7090593937,
				"element": "C" 
			},
			{
				"x": -0.2702795804,
				"y": 0.4710495509,
				"z": -1.0810999732,
				"element": "C" 
			},
			{
				"x": 0.7798691786,
				"y": -0.6415608947,
				"z": -1.0630485815,
				"element": "C" 
			},
			{
				"x": -0.2812127312,
				"y": 1.2066776541,
				"z": -2.4264232927,
				"element": "C" 
			},
			{
				"x": 0.1313239921,
				"y": 1.3744531945,
				"z": -0.0361772423,
				"element": "O" 
			},
			{
				"x": -4.0281584277,
				"y": -2.3952102251,
				"z": -1.832160159,
				"element": "H" 
			},
			{
				"x": -3.3631125587,
				"y": -2.3639577769,
				"z": -0.1782033454,
				"element": "H" 
			},
			{
				"x": -4.2985987396,
				"y": -0.9885916485,
				"z": -0.7562152523,
				"element": "H" 
			},
			{
				"x": -2.3844778458,
				"y": 0.7702900621,
				"z": -0.6757115592,
				"element": "H" 
			},
			{
				"x": -1.6336208493,
				"y": -0.4486153978,
				"z": 0.3203967907,
				"element": "H" 
			},
			{
				"x": 0.5595196526,
				"y": -1.3913139934,
				"z": -1.8248665077,
				"element": "H" 
			},
			{
				"x": 1.7689939062,
				"y": -0.2155752631,
				"z": -1.253397102,
				"element": "H" 
			},
			{
				"x": 0.8045854539,
				"y": -1.1229854528,
				"z": -0.0801591668,
				"element": "H" 
			},
			{
				"x": -1.0113056704,
				"y": 2.027135349,
				"z": -2.4141736853,
				"element": "H" 
			},
			{
				"x": 0.7062365827,
				"y": 1.63536006,
				"z": -2.6218854234,
				"element": "H" 
			},
			{
				"x": -0.5482019163,
				"y": 0.5285471031,
				"z": -3.2393193938,
				"element": "H" 
			},
			{
				"x": -0.4157699975,
				"y": 2.1684833884,
				"z": -0.1076172618,
				"element": "H" 
			}
		],
		 "valence_orbital": [ 
			{
				"type": "occ",
				"energy": -0.34904,
				"method": "rhf"
			},
			{
				"type": "occ",
				"energy": -0.34437,
				"method": "rhf"
			},
			{
				"type": "occ",
				"energy": -0.31502,
				"method": "rhf"
			},
			{
				"type": "occ",
				"energy": -0.26949,
				"method": "rhf"
			},
			{
				"type": "occ",
				"energy": -0.24575,
				"method": "rhf"
			},
			{
				"type": "unocc",
				"energy": -0.01797,
				"method": "rhf"
			},
			{
				"type": "unocc",
				"energy": 0.06811,
				"method": "rhf"
			},
			{
				"type": "unocc",
				"energy": 0.09238,
				"method": "rhf"
			},
			{
				"type": "unocc",
				"energy": 0.12187,
				"method": "rhf"
			},
			{
				"type": "unocc",
				"energy": 0.14111,
				"method": "rhf"
			}
		],
		"cosmo_sigma_profile": { 
			"-0.025": 0.0,
			"-0.024": 0.0,
			"-0.023": 0.0,
			"-0.022": 0.0,
			"-0.021": 0.0,
			"-0.02": 0.0,
			"-0.019": 0.0,
			"-0.018": 0.0,
			"-0.017": 0.0,
			"-0.016": 0.0,
			"-0.015": 0.371071663356,
			"-0.014": 0.88996149403,
			"-0.013": 0.681633871948,
			"-0.012": 1.14851546202,
			"-0.011": 1.11550014599,
			"-0.01": 1.03359943094,
			"-0.009": 1.17694089182,
			"-0.008": 1.13387218012,
			"-0.007": 2.28871716476,
			"-0.006": 10.2270348898,
			"-0.005": 11.138310507,
			"-0.004": 11.0823498194,
			"-0.003": 14.4156149573,
			"-0.002": 16.69458312,
			"-0.001": 19.0089090016,
			"0.0": 15.5542728002,
			"0.001": 16.6307613186,
			"0.002": 8.34409026234,
			"0.003": 3.79304458373,
			"0.004": 3.32674896816,
			"0.005": 3.38865204184,
			"0.006": 3.3678018577,
			"0.007": 3.49914011906,
			"0.008": 2.62074781789,
			"0.009": 2.23238848925,
			"0.01": 2.7700752248,
			"0.011": 4.19098370916,
			"0.012": 3.63111722883,
			"0.013": 2.6911732369,
			"0.014": 2.25276277127,
			"0.015": 0.785241425217,
			"0.016": 0.0,
			"0.017": 0.0,
			"0.018": 0.0,
			"0.019": 0.0,
			"0.02": 0.0,
			"0.021": 0.0,
			"0.022": 0.0,
			"0.023": 0.0,
			"0.024": 0.0,
			"0.025": 0.0
		}
	}
}
