{
	 "smiles": "CC1=CC(=CC(C)=C1OCC1=CN=CC=C1)C(O)=O", 
	 "Tm": 456.15, 
	 "num_atms": 34, 
	 "gaussian": { 
		 "optdone": 1, 
		 "sigma_profile": "yes", 
		 "theory": "DFT", 
		 "functional": "B3LYP", 
		 "basiset": "6-31G**", 
		 "properties": { 
			 "R2extent": 7669.2446, 
			 "electric_dipole_moment_norm": 3.8354601823, 
			 "electric_quadrupole_moment_norm": 34.6293993991, 
			 "total_energy": -861.063091628, 
			 "HOMO_LUMO_gap": 0.20336, 
			 "cosmo_polarized_energy": -19.11, 
			 "cosmo_cavitation_energy": 38.38, 
			 "cosmo_dispersion_energy": -26.71, 
			 "cosmo_repulsion_energy": 2.04, 
			 "cosmo_total_nonelectrostatic_energy": 13.72, 
			 "SMD_solvation_energy": 6.3 
		},
		"coords": [
			{
				"x": -2.417208442,
				"y": -1.4483001946,
				"z": -0.354243814,
				"element": "C" 
			},
			{
				"x": -1.2563133353,
				"y": -1.2435413122,
				"z": -1.2968892777,
				"element": "C" 
			},
			{
				"x": -0.9416457828,
				"y": -2.1951822251,
				"z": -2.2681688041,
				"element": "C" 
			},
			{
				"x": 0.1091015995,
				"y": -1.9955822235,
				"z": -3.1693725121,
				"element": "C" 
			},
			{
				"x": 0.8711105538,
				"y": -0.8231459765,
				"z": -3.0850823945,
				"element": "C" 
			},
			{
				"x": 0.5988726435,
				"y": 0.1499083151,
				"z": -2.1206617197,
				"element": "C" 
			},
			{
				"x": 1.410706199,
				"y": 1.4188137821,
				"z": -2.0308215166,
				"element": "C" 
			},
			{
				"x": -0.4667582871,
				"y": -0.0810756886,
				"z": -1.233403408,
				"element": "C" 
			},
			{
				"x": -0.7781138812,
				"y": 0.9081034061,
				"z": -0.317259691,
				"element": "O" 
			},
			{
				"x": -0.2003501022,
				"y": 0.745874509,
				"z": 0.9829230479,
				"element": "C" 
			},
			{
				"x": -0.5953758817,
				"y": 1.9124758258,
				"z": 1.8546060004,
				"element": "C" 
			},
			{
				"x": 0.1456292553,
				"y": 2.2086476391,
				"z": 3.0054961273,
				"element": "C" 
			},
			{
				"x": -0.1496773668,
				"y": 3.1943195992,
				"z": 3.8579917827,
				"element": "N" 
			},
			{
				"x": -1.2219728622,
				"y": 3.9464764185,
				"z": 3.5775125151,
				"element": "C" 
			},
			{
				"x": -2.0241499994,
				"y": 3.7486440508,
				"z": 2.4535662806,
				"element": "C" 
			},
			{
				"x": -1.7067379248,
				"y": 2.7117102287,
				"z": 1.577526622,
				"element": "C" 
			},
			{
				"x": 0.3734883923,
				"y": -3.0720576486,
				"z": -4.1771274807,
				"element": "C" 
			},
			{
				"x": 1.0809430468,
				"y": -2.7145303242,
				"z": -5.2841144536,
				"element": "O" 
			},
			{
				"x": -0.0069697896,
				"y": -4.2124121194,
				"z": -4.0491505995,
				"element": "O" 
			},
			{
				"x": -3.1386890974,
				"y": -2.1519391468,
				"z": -0.776805312,
				"element": "H" 
			},
			{
				"x": -2.0890285134,
				"y": -1.8594754609,
				"z": 0.6083899677,
				"element": "H" 
			},
			{
				"x": -2.9274400694,
				"y": -0.5041661954,
				"z": -0.1475392712,
				"element": "H" 
			},
			{
				"x": -1.5197729629,
				"y": -3.1102711431,
				"z": -2.3476063472,
				"element": "H" 
			},
			{
				"x": 1.7193821801,
				"y": -0.6621900351,
				"z": -3.7473896493,
				"element": "H" 
			},
			{
				"x": 2.0372416869,
				"y": 1.5451139624,
				"z": -2.9175845086,
				"element": "H" 
			},
			{
				"x": 0.7618290683,
				"y": 2.2932092068,
				"z": -1.9324857911,
				"element": "H" 
			},
			{
				"x": 2.0742909129,
				"y": 1.4156750478,
				"z": -1.1579310849,
				"element": "H" 
			},
			{
				"x": 0.8939068067,
				"y": 0.6810392376,
				"z": 0.9070060923,
				"element": "H" 
			},
			{
				"x": -0.5485275236,
				"y": -0.1976669692,
				"z": 1.4280108074,
				"element": "H" 
			},
			{
				"x": 1.0287815995,
				"y": 1.6171466843,
				"z": 3.2500659268,
				"element": "H" 
			},
			{
				"x": -1.4450666734,
				"y": 4.7456842533,
				"z": 4.2820210544,
				"element": "H" 
			},
			{
				"x": -2.8777345316,
				"y": 4.3935949004,
				"z": 2.2689558805,
				"element": "H" 
			},
			{
				"x": -2.2968974339,
				"y": 2.525618287,
				"z": 0.6869267358,
				"element": "H" 
			},
			{
				"x": 1.1655465162,
				"y": -1.7521186906,
				"z": -5.3263612051,
				"element": "H" 
			}
		],
		 "valence_orbital": [ 
			{
				"type": "occ",
				"energy": -0.27284,
				"method": "rhf"
			},
			{
				"type": "occ",
				"energy": -0.26181,
				"method": "rhf"
			},
			{
				"type": "occ",
				"energy": -0.26,
				"method": "rhf"
			},
			{
				"type": "occ",
				"energy": -0.25886,
				"method": "rhf"
			},
			{
				"type": "occ",
				"energy": -0.25171,
				"method": "rhf"
			},
			{
				"type": "unocc",
				"energy": -0.04835,
				"method": "rhf"
			},
			{
				"type": "unocc",
				"energy": -0.02895,
				"method": "rhf"
			},
			{
				"type": "unocc",
				"energy": -0.02039,
				"method": "rhf"
			},
			{
				"type": "unocc",
				"energy": -0.01861,
				"method": "rhf"
			},
			{
				"type": "unocc",
				"energy": 0.04509,
				"method": "rhf"
			}
		],
		"cosmo_sigma_profile": { 
			"-0.025": 0.0,
			"-0.024": 0.0,
			"-0.023": 0.0,
			"-0.022": 0.0,
			"-0.021": 0.0,
			"-0.02": 0.0,
			"-0.019": 0.0463103489825,
			"-0.018": 0.59831337304,
			"-0.017": 1.04857832118,
			"-0.016": 0.612085067859,
			"-0.015": 1.57585946455,
			"-0.014": 0.729537270052,
			"-0.013": 0.447902237552,
			"-0.012": 1.36758976975,
			"-0.011": 1.38509145431,
			"-0.01": 1.15629437742,
			"-0.009": 0.815486227652,
			"-0.008": 1.23844741885,
			"-0.007": 6.13010018317,
			"-0.006": 18.0909992206,
			"-0.005": 24.2112978741,
			"-0.004": 22.7291694012,
			"-0.003": 21.9282054573,
			"-0.002": 22.9503518716,
			"-0.001": 25.4772806449,
			"0.0": 26.3403438474,
			"0.001": 19.3158414186,
			"0.002": 23.6244014611,
			"0.003": 25.0764946352,
			"0.004": 9.08592336986,
			"0.005": 6.75519667541,
			"0.006": 5.08678232057,
			"0.007": 4.54636039842,
			"0.008": 4.44044198616,
			"0.009": 4.65388324589,
			"0.01": 4.29219585043,
			"0.011": 7.08050327803,
			"0.012": 6.71903932978,
			"0.013": 2.63798931837,
			"0.014": 0.951613187535,
			"0.015": 1.27904236368,
			"0.016": 0.615391831888,
			"0.017": 0.400415506516,
			"0.018": 0.0,
			"0.019": 0.0,
			"0.02": 0.0,
			"0.021": 0.0,
			"0.022": 0.0,
			"0.023": 0.0,
			"0.024": 0.0,
			"0.025": 0.0
		}
	}
}
