{
	 "smiles": "CCOC(=O)CC(=O)C1=CC(=CC=C1)[N+]([O-])=O", 
	 "Tm": 349.15, 
	 "num_atms": 28, 
	 "gaussian": { 
		 "optdone": 1, 
		 "sigma_profile": "yes", 
		 "theory": "DFT", 
		 "functional": "B3LYP", 
		 "basiset": "6-31G**", 
		 "properties": { 
			 "R2extent": 5353.2212, 
			 "electric_dipole_moment_norm": 3.41024329191, 
			 "electric_quadrupole_moment_norm": 29.6107543138, 
			 "total_energy": -856.582922197, 
			 "HOMO_LUMO_gap": 0.17524, 
			 "cosmo_polarized_energy": -14.53, 
			 "cosmo_cavitation_energy": 34.08, 
			 "cosmo_dispersion_energy": -23.83, 
			 "cosmo_repulsion_energy": 1.88, 
			 "cosmo_total_nonelectrostatic_energy": 12.13, 
			 "SMD_solvation_energy": 9.71 
		},
		"coords": [
			{
				"x": 3.5710932367,
				"y": 3.7398211478,
				"z": 1.4310857587,
				"element": "C" 
			},
			{
				"x": 2.1412285535,
				"y": 3.238383163,
				"z": 1.4780573097,
				"element": "C" 
			},
			{
				"x": 2.1901900006,
				"y": 1.8122475088,
				"z": 1.744645255,
				"element": "O" 
			},
			{
				"x": 1.0056730956,
				"y": 1.1860520659,
				"z": 1.8122918996,
				"element": "C" 
			},
			{
				"x": -0.0680838089,
				"y": 1.7357647692,
				"z": 1.6791903872,
				"element": "O" 
			},
			{
				"x": 1.1887005193,
				"y": -0.3072891432,
				"z": 2.0559655866,
				"element": "C" 
			},
			{
				"x": 1.218931688,
				"y": -1.107423487,
				"z": 0.7436856741,
				"element": "C" 
			},
			{
				"x": 2.2836362684,
				"y": -1.5087400003,
				"z": 0.3077876927,
				"element": "O" 
			},
			{
				"x": -0.0652002754,
				"y": -1.4116400733,
				"z": 0.0300409419,
				"element": "C" 
			},
			{
				"x": -1.3053900771,
				"y": -0.9069899416,
				"z": 0.4411665094,
				"element": "C" 
			},
			{
				"x": -2.439939455,
				"y": -1.2641964282,
				"z": -0.2824832959,
				"element": "C" 
			},
			{
				"x": -2.3875007949,
				"y": -2.0979855614,
				"z": -1.3972146161,
				"element": "C" 
			},
			{
				"x": -1.1470920462,
				"y": -2.5919294275,
				"z": -1.8019388148,
				"element": "C" 
			},
			{
				"x": 0.0030995962,
				"y": -2.2512443124,
				"z": -1.095784229,
				"element": "C" 
			},
			{
				"x": -3.7508227159,
				"y": -0.7443509134,
				"z": 0.1507426703,
				"element": "N" 
			},
			{
				"x": -4.7295113866,
				"y": -1.027854812,
				"z": -0.5393117653,
				"element": "O" 
			},
			{
				"x": -3.7845473365,
				"y": -0.066542885,
				"z": 1.1750919139,
				"element": "O" 
			},
			{
				"x": 4.1361959776,
				"y": 3.2372793295,
				"z": 0.6411997861,
				"element": "H" 
			},
			{
				"x": 3.5777331677,
				"y": 4.8153918655,
				"z": 1.2294329287,
				"element": "H" 
			},
			{
				"x": 4.0790515824,
				"y": 3.5652034557,
				"z": 2.3837190858,
				"element": "H" 
			},
			{
				"x": 1.6138149919,
				"y": 3.3977900911,
				"z": 0.5326913569,
				"element": "H" 
			},
			{
				"x": 1.5574521386,
				"y": 3.7203021236,
				"z": 2.2681354211,
				"element": "H" 
			},
			{
				"x": 2.1447203827,
				"y": -0.4857985801,
				"z": 2.5477881677,
				"element": "H" 
			},
			{
				"x": 0.3673843768,
				"y": -0.6432500413,
				"z": 2.6934489222,
				"element": "H" 
			},
			{
				"x": -1.4055629649,
				"y": -0.220892677,
				"z": 1.2728909637,
				"element": "H" 
			},
			{
				"x": -3.3034546808,
				"y": -2.3426590838,
				"z": -1.9204625295,
				"element": "H" 
			},
			{
				"x": -1.0832167877,
				"y": -3.2436204285,
				"z": -2.6673656556,
				"element": "H" 
			},
			{
				"x": 0.976916754,
				"y": -2.6245277242,
				"z": -1.3939973251,
				"element": "H" 
			}
		],
		 "valence_orbital": [ 
			{
				"type": "occ",
				"energy": -0.29466,
				"method": "rhf"
			},
			{
				"type": "occ",
				"energy": -0.29055,
				"method": "rhf"
			},
			{
				"type": "occ",
				"energy": -0.28815,
				"method": "rhf"
			},
			{
				"type": "occ",
				"energy": -0.28517,
				"method": "rhf"
			},
			{
				"type": "occ",
				"energy": -0.27012,
				"method": "rhf"
			},
			{
				"type": "unocc",
				"energy": -0.09488,
				"method": "rhf"
			},
			{
				"type": "unocc",
				"energy": -0.07817,
				"method": "rhf"
			},
			{
				"type": "unocc",
				"energy": -0.01626,
				"method": "rhf"
			},
			{
				"type": "unocc",
				"energy": -0.00504,
				"method": "rhf"
			},
			{
				"type": "unocc",
				"energy": 0.02973,
				"method": "rhf"
			}
		],
		"cosmo_sigma_profile": { 
			"-0.025": 0.0,
			"-0.024": 0.0,
			"-0.023": 0.0,
			"-0.022": 0.0,
			"-0.021": 0.0,
			"-0.02": 0.0,
			"-0.019": 0.0,
			"-0.018": 0.0,
			"-0.017": 0.0,
			"-0.016": 0.0,
			"-0.015": 0.0,
			"-0.014": 0.0,
			"-0.013": 0.0,
			"-0.012": 0.0,
			"-0.011": 0.0,
			"-0.01": 0.0,
			"-0.009": 1.50839595547,
			"-0.008": 6.03726076802,
			"-0.007": 11.2771543869,
			"-0.006": 14.763347808,
			"-0.005": 20.6392562365,
			"-0.004": 24.9455690122,
			"-0.003": 21.7159775785,
			"-0.002": 23.6054096625,
			"-0.001": 25.0954071614,
			"0.0": 23.8297831113,
			"0.001": 12.810269704,
			"0.002": 8.06917416574,
			"0.003": 8.32659858592,
			"0.004": 7.60557433093,
			"0.005": 7.24365054967,
			"0.006": 8.29685891212,
			"0.007": 13.8141781791,
			"0.008": 9.84578927435,
			"0.009": 7.84819728091,
			"0.01": 7.41180763022,
			"0.011": 5.68941797979,
			"0.012": 1.37244703359,
			"0.013": 0.0,
			"0.014": 0.0,
			"0.015": 0.0,
			"0.016": 0.0,
			"0.017": 0.0,
			"0.018": 0.0,
			"0.019": 0.0,
			"0.02": 0.0,
			"0.021": 0.0,
			"0.022": 0.0,
			"0.023": 0.0,
			"0.024": 0.0,
			"0.025": 0.0
		}
	}
}
