{
	 "smiles": "FC1=CC=C(CNC2=CC3=C(NC(=O)N3)C=C2)C=C1", 
	 "Tm": 525.15, 
	 "num_atms": 31, 
	 "gaussian": { 
		 "optdone": 1, 
		 "sigma_profile": "yes", 
		 "theory": "DFT", 
		 "functional": "B3LYP", 
		 "basiset": "6-31G**", 
		 "properties": { 
			 "R2extent": 7309.9439, 
			 "electric_dipole_moment_norm": 3.49376939852, 
			 "electric_quadrupole_moment_norm": 23.7235120926, 
			 "total_energy": -880.064967695, 
			 "HOMO_LUMO_gap": 0.16812, 
			 "cosmo_polarized_energy": -19.03, 
			 "cosmo_cavitation_energy": 36.06, 
			 "cosmo_dispersion_energy": -25.77, 
			 "cosmo_repulsion_energy": 1.96, 
			 "cosmo_total_nonelectrostatic_energy": 12.25, 
			 "SMD_solvation_energy": 5.7 
		},
		"coords": [
			{
				"x": -5.0366513092,
				"y": 2.6697309356,
				"z": -2.6105436005,
				"element": "F" 
			},
			{
				"x": -4.2422531279,
				"y": 2.3623119963,
				"z": -1.5635219555,
				"element": "C" 
			},
			{
				"x": -4.8247891711,
				"y": 1.9510948421,
				"z": -0.3715619736,
				"element": "C" 
			},
			{
				"x": -3.9911083885,
				"y": 1.6382189923,
				"z": 0.7036336641,
				"element": "C" 
			},
			{
				"x": -2.5976084922,
				"y": 1.7336239485,
				"z": 0.5980106032,
				"element": "C" 
			},
			{
				"x": -1.7105072804,
				"y": 1.3461289101,
				"z": 1.769588368,
				"element": "C" 
			},
			{
				"x": -1.0632002734,
				"y": 0.033246775,
				"z": 1.6429554759,
				"element": "N" 
			},
			{
				"x": 0.0898311144,
				"y": -0.1487972044,
				"z": 0.8582708984,
				"element": "C" 
			},
			{
				"x": 1.1560909629,
				"y": 0.7753056601,
				"z": 0.9012814779,
				"element": "C" 
			},
			{
				"x": 2.2939972951,
				"y": 0.4975268261,
				"z": 0.1568443705,
				"element": "C" 
			},
			{
				"x": 2.4137105076,
				"y": -0.6750433117,
				"z": -0.6168500103,
				"element": "C" 
			},
			{
				"x": 3.6741428667,
				"y": -0.630924223,
				"z": -1.2154293956,
				"element": "N" 
			},
			{
				"x": 4.3674350349,
				"y": 0.5200254107,
				"z": -0.8510568994,
				"element": "C" 
			},
			{
				"x": 5.485720899,
				"y": 0.8649281584,
				"z": -1.1887731878,
				"element": "O" 
			},
			{
				"x": 3.4836049581,
				"y": 1.1979612812,
				"z": -0.0041164516,
				"element": "N" 
			},
			{
				"x": 1.3757125269,
				"y": -1.592929888,
				"z": -0.657074212,
				"element": "C" 
			},
			{
				"x": 0.2169701664,
				"y": -1.3126670707,
				"z": 0.0752579415,
				"element": "C" 
			},
			{
				"x": -2.0476346999,
				"y": 2.1564900282,
				"z": -0.6227471783,
				"element": "C" 
			},
			{
				"x": -2.8626926685,
				"y": 2.4712392849,
				"z": -1.7084416618,
				"element": "C" 
			},
			{
				"x": -5.9047857314,
				"y": 1.8841229861,
				"z": -0.2962505458,
				"element": "H" 
			},
			{
				"x": -4.4365030708,
				"y": 1.3194156526,
				"z": 1.6431444496,
				"element": "H" 
			},
			{
				"x": -2.3098347792,
				"y": 1.3309728711,
				"z": 2.6866691744,
				"element": "H" 
			},
			{
				"x": -0.9336751523,
				"y": 2.0984956616,
				"z": 1.9257204329,
				"element": "H" 
			},
			{
				"x": -1.7484827252,
				"y": -0.6911353137,
				"z": 1.4625708492,
				"element": "H" 
			},
			{
				"x": 1.1055647172,
				"y": 1.6653102602,
				"z": 1.5184970345,
				"element": "H" 
			},
			{
				"x": 4.0807489298,
				"y": -1.3163552134,
				"z": -1.830346721,
				"element": "H" 
			},
			{
				"x": 3.7371491407,
				"y": 2.0737800445,
				"z": 0.4231485243,
				"element": "H" 
			},
			{
				"x": 1.4455964092,
				"y": -2.5007192473,
				"z": -1.2482371657,
				"element": "H" 
			},
			{
				"x": -0.6113059543,
				"y": -2.0152101427,
				"z": 0.0402352797,
				"element": "H" 
			},
			{
				"x": -0.9698200782,
				"y": 2.2377056851,
				"z": -0.7269696256,
				"element": "H" 
			},
			{
				"x": -2.4486226263,
				"y": 2.8014454042,
				"z": -2.6551079595,
				"element": "H" 
			}
		],
		 "valence_orbital": [ 
			{
				"type": "occ",
				"energy": -0.26406,
				"method": "rhf"
			},
			{
				"type": "occ",
				"energy": -0.26362,
				"method": "rhf"
			},
			{
				"type": "occ",
				"energy": -0.24557,
				"method": "rhf"
			},
			{
				"type": "occ",
				"energy": -0.22771,
				"method": "rhf"
			},
			{
				"type": "occ",
				"energy": -0.18499,
				"method": "rhf"
			},
			{
				"type": "unocc",
				"energy": -0.01687,
				"method": "rhf"
			},
			{
				"type": "unocc",
				"energy": -0.00956,
				"method": "rhf"
			},
			{
				"type": "unocc",
				"energy": -0.00273,
				"method": "rhf"
			},
			{
				"type": "unocc",
				"energy": 0.02641,
				"method": "rhf"
			},
			{
				"type": "unocc",
				"energy": 0.07297,
				"method": "rhf"
			}
		],
		"cosmo_sigma_profile": { 
			"-0.025": 0.0,
			"-0.024": 0.0,
			"-0.023": 0.0,
			"-0.022": 0.0,
			"-0.021": 0.0,
			"-0.02": 0.0,
			"-0.019": 0.0,
			"-0.018": 0.0,
			"-0.017": 0.0,
			"-0.016": 1.0327824418,
			"-0.015": 2.97991826877,
			"-0.014": 2.15764106817,
			"-0.013": 1.76819034413,
			"-0.012": 2.54771523379,
			"-0.011": 3.38177641175,
			"-0.01": 2.93656987284,
			"-0.009": 4.21647700533,
			"-0.008": 3.67906348511,
			"-0.007": 9.34471450549,
			"-0.006": 16.2833035222,
			"-0.005": 17.1902364275,
			"-0.004": 18.4183563757,
			"-0.003": 14.5763952636,
			"-0.002": 14.0914946961,
			"-0.001": 12.5035291175,
			"0.0": 15.9284553992,
			"0.001": 22.7072236239,
			"0.002": 21.8651766248,
			"0.003": 20.9250704179,
			"0.004": 26.7681132257,
			"0.005": 18.3516608962,
			"0.006": 8.28442961302,
			"0.007": 3.0688919378,
			"0.008": 1.88024350995,
			"0.009": 2.16349981738,
			"0.01": 2.30664298629,
			"0.011": 1.5906778997,
			"0.012": 2.04638433375,
			"0.013": 4.233351391,
			"0.014": 7.52706178543,
			"0.015": 1.47642588724,
			"0.016": 0.0,
			"0.017": 0.0,
			"0.018": 0.0,
			"0.019": 0.0,
			"0.02": 0.0,
			"0.021": 0.0,
			"0.022": 0.0,
			"0.023": 0.0,
			"0.024": 0.0,
			"0.025": 0.0
		}
	}
}
