{
	 "smiles": "CN(C)C(=O)N1CCCC(C1)C(O)=O", 
	 "Tm": 397.15, 
	 "num_atms": 30, 
	 "gaussian": { 
		 "optdone": 1, 
		 "sigma_profile": "yes", 
		 "theory": "DFT", 
		 "functional": "B3LYP", 
		 "basiset": "6-31G**", 
		 "properties": { 
			 "R2extent": 3243.9809, 
			 "electric_dipole_moment_norm": 1.95178306684, 
			 "electric_quadrupole_moment_norm": 18.9334481572, 
			 "total_energy": -687.803754945, 
			 "HOMO_LUMO_gap": 0.22958, 
			 "cosmo_polarized_energy": -14.6, 
			 "cosmo_cavitation_energy": 30.9, 
			 "cosmo_dispersion_energy": -22.01, 
			 "cosmo_repulsion_energy": 1.74, 
			 "cosmo_total_nonelectrostatic_energy": 10.64, 
			 "SMD_solvation_energy": 6.29 
		},
		"coords": [
			{
				"x": 2.3019298506,
				"y": -0.0441940753,
				"z": 3.8335078078,
				"element": "C" 
			},
			{
				"x": 1.7306533929,
				"y": 0.0109141464,
				"z": 2.4942084482,
				"element": "N" 
			},
			{
				"x": 2.698335172,
				"y": -0.1988526703,
				"z": 1.4207604368,
				"element": "C" 
			},
			{
				"x": 0.4085906561,
				"y": -0.4152915409,
				"z": 2.379399149,
				"element": "C" 
			},
			{
				"x": -0.1984814948,
				"y": -0.9359687238,
				"z": 3.3135880093,
				"element": "O" 
			},
			{
				"x": -0.1972978837,
				"y": -0.1978030909,
				"z": 1.1452918911,
				"element": "N" 
			},
			{
				"x": 0.0882143757,
				"y": 1.010370086,
				"z": 0.3386218974,
				"element": "C" 
			},
			{
				"x": -1.2145833075,
				"y": 1.6838602631,
				"z": -0.1027665695,
				"element": "C" 
			},
			{
				"x": -2.0680799392,
				"y": 0.7357301395,
				"z": -0.9677012386,
				"element": "C" 
			},
			{
				"x": -1.9948767329,
				"y": -0.7244546382,
				"z": -0.4565986191,
				"element": "C" 
			},
			{
				"x": -1.5388490715,
				"y": -0.7790974752,
				"z": 1.0150358418,
				"element": "C" 
			},
			{
				"x": -1.0622620778,
				"y": -1.5814107594,
				"z": -1.3043879851,
				"element": "C" 
			},
			{
				"x": -1.2121629746,
				"y": -2.8974261615,
				"z": -1.0221058281,
				"element": "O" 
			},
			{
				"x": -0.2688906467,
				"y": -1.1855825688,
				"z": -2.1323437585,
				"element": "O" 
			},
			{
				"x": 2.6993524333,
				"y": -1.0415292531,
				"z": 4.0731683904,
				"element": "H" 
			},
			{
				"x": 3.1192765435,
				"y": 0.6814281432,
				"z": 3.9034561035,
				"element": "H" 
			},
			{
				"x": 1.5340991717,
				"y": 0.19853661,
				"z": 4.566744448,
				"element": "H" 
			},
			{
				"x": 3.3745972396,
				"y": -1.0285588402,
				"z": 1.673873174,
				"element": "H" 
			},
			{
				"x": 2.1928428877,
				"y": -0.454845843,
				"z": 0.4912434361,
				"element": "H" 
			},
			{
				"x": 3.3095782372,
				"y": 0.6967931653,
				"z": 1.255587225,
				"element": "H" 
			},
			{
				"x": 0.6897079343,
				"y": 1.6931685184,
				"z": 0.9442546998,
				"element": "H" 
			},
			{
				"x": 0.6705262043,
				"y": 0.7493689769,
				"z": -0.553937701,
				"element": "H" 
			},
			{
				"x": -1.7738081471,
				"y": 2.0005915247,
				"z": 0.7855489936,
				"element": "H" 
			},
			{
				"x": -0.9745426851,
				"y": 2.5936924229,
				"z": -0.6632454182,
				"element": "H" 
			},
			{
				"x": -3.109614272,
				"y": 1.0726251264,
				"z": -0.9667880477,
				"element": "H" 
			},
			{
				"x": -1.717000773,
				"y": 0.764753725,
				"z": -2.0026112987,
				"element": "H" 
			},
			{
				"x": -2.9797592501,
				"y": -1.2022811877,
				"z": -0.5041523401,
				"element": "H" 
			},
			{
				"x": -2.2726166445,
				"y": -0.251851373,
				"z": 1.6404222695,
				"element": "H" 
			},
			{
				"x": -1.5031061532,
				"y": -1.807698974,
				"z": 1.3742629309,
				"element": "H" 
			},
			{
				"x": -0.5688720456,
				"y": -3.3697856726,
				"z": -1.5767363476,
				"element": "H" 
			}
		],
		 "valence_orbital": [ 
			{
				"type": "occ",
				"energy": -0.32111,
				"method": "rhf"
			},
			{
				"type": "occ",
				"energy": -0.27851,
				"method": "rhf"
			},
			{
				"type": "occ",
				"energy": -0.25789,
				"method": "rhf"
			},
			{
				"type": "occ",
				"energy": -0.22649,
				"method": "rhf"
			},
			{
				"type": "occ",
				"energy": -0.22566,
				"method": "rhf"
			},
			{
				"type": "unocc",
				"energy": 0.00392,
				"method": "rhf"
			},
			{
				"type": "unocc",
				"energy": 0.05034,
				"method": "rhf"
			},
			{
				"type": "unocc",
				"energy": 0.07025,
				"method": "rhf"
			},
			{
				"type": "unocc",
				"energy": 0.08411,
				"method": "rhf"
			},
			{
				"type": "unocc",
				"energy": 0.09818,
				"method": "rhf"
			}
		],
		"cosmo_sigma_profile": { 
			"-0.025": 0.0,
			"-0.024": 0.0,
			"-0.023": 0.0,
			"-0.022": 0.0,
			"-0.021": 0.0,
			"-0.02": 0.0,
			"-0.019": 0.0,
			"-0.018": 0.682978705451,
			"-0.017": 0.833283755442,
			"-0.016": 0.97639238506,
			"-0.015": 0.851934962337,
			"-0.014": 0.696210790468,
			"-0.013": 0.474824397826,
			"-0.012": 0.518629219001,
			"-0.011": 0.95358929558,
			"-0.01": 0.827541765127,
			"-0.009": 0.538958976933,
			"-0.008": 0.420663343809,
			"-0.007": 1.23717105634,
			"-0.006": 3.77735512477,
			"-0.005": 6.28964519116,
			"-0.004": 27.439115565,
			"-0.003": 35.5752861456,
			"-0.002": 37.7543731049,
			"-0.001": 30.1398783237,
			"0.0": 16.916869649,
			"0.001": 9.37447348803,
			"0.002": 9.22691823462,
			"0.003": 6.15675994571,
			"0.004": 4.5474388631,
			"0.005": 5.38608406306,
			"0.006": 4.06803580483,
			"0.007": 3.83507091763,
			"0.008": 4.50259277372,
			"0.009": 4.03902428249,
			"0.01": 2.96229388417,
			"0.011": 4.40018500672,
			"0.012": 5.19793830394,
			"0.013": 2.29902091487,
			"0.014": 3.85217634808,
			"0.015": 3.3398019856,
			"0.016": 0.00119760686281,
			"0.017": 0.0,
			"0.018": 0.0,
			"0.019": 0.0,
			"0.02": 0.0,
			"0.021": 0.0,
			"0.022": 0.0,
			"0.023": 0.0,
			"0.024": 0.0,
			"0.025": 0.0
		}
	}
}
