{
	 "smiles": "OC(=O)C(NC1CC1)C1=CC=C(O)C=C1", 
	 "Tm": 484.15, 
	 "num_atms": 28, 
	 "gaussian": { 
		 "optdone": 1, 
		 "sigma_profile": "yes", 
		 "theory": "DFT", 
		 "functional": "B3LYP", 
		 "basiset": "6-31G**", 
		 "properties": { 
			 "R2extent": 3592.0312, 
			 "electric_dipole_moment_norm": 6.26940118432, 
			 "electric_quadrupole_moment_norm": 12.7009487276, 
			 "total_energy": -707.386603095, 
			 "HOMO_LUMO_gap": 0.20172, 
			 "cosmo_polarized_energy": -20.44, 
			 "cosmo_cavitation_energy": 31.14, 
			 "cosmo_dispersion_energy": -22.03, 
			 "cosmo_repulsion_energy": 1.74, 
			 "cosmo_total_nonelectrostatic_energy": 10.85, 
			 "SMD_solvation_energy": 4.94 
		},
		"coords": [
			{
				"x": 2.1781522277,
				"y": -0.0940972211,
				"z": 1.8415502828,
				"element": "O" 
			},
			{
				"x": 0.9384024911,
				"y": 0.2350344947,
				"z": 2.2857105252,
				"element": "C" 
			},
			{
				"x": 0.6500503966,
				"y": 0.0936104177,
				"z": 3.4453695494,
				"element": "O" 
			},
			{
				"x": 0.0270867766,
				"y": 0.8824077115,
				"z": 1.2102784712,
				"element": "C" 
			},
			{
				"x": -1.3591639561,
				"y": 0.9635076821,
				"z": 1.6666486249,
				"element": "N" 
			},
			{
				"x": -2.181379153,
				"y": -0.2168147985,
				"z": 1.5695246267,
				"element": "C" 
			},
			{
				"x": -2.1826624142,
				"y": -1.1887676748,
				"z": 2.7261619638,
				"element": "C" 
			},
			{
				"x": -3.3678984861,
				"y": -0.2850465328,
				"z": 2.4970879181,
				"element": "C" 
			},
			{
				"x": 0.2484697101,
				"y": 0.2995293372,
				"z": -0.1875933183,
				"element": "C" 
			},
			{
				"x": 0.4280790838,
				"y": 1.1506524242,
				"z": -1.2866355661,
				"element": "C" 
			},
			{
				"x": 0.5637581048,
				"y": 0.6517023685,
				"z": -2.5814444312,
				"element": "C" 
			},
			{
				"x": 0.5193485951,
				"y": -0.7291873604,
				"z": -2.802029973,
				"element": "C" 
			},
			{
				"x": 0.6459637196,
				"y": -1.2862262549,
				"z": -4.0394794334,
				"element": "O" 
			},
			{
				"x": 0.3453247982,
				"y": -1.5993009319,
				"z": -1.7184706096,
				"element": "C" 
			},
			{
				"x": 0.2118484728,
				"y": -1.0867795707,
				"z": -0.4324611658,
				"element": "C" 
			},
			{
				"x": 2.2098131674,
				"y": 0.0105686172,
				"z": 0.8768562101,
				"element": "H" 
			},
			{
				"x": 0.3851035884,
				"y": 1.9217769915,
				"z": 1.1767606286,
				"element": "H" 
			},
			{
				"x": -1.816621804,
				"y": 1.7376544166,
				"z": 1.1946227684,
				"element": "H" 
			},
			{
				"x": -2.3250301825,
				"y": -0.649188378,
				"z": 0.5758868003,
				"element": "H" 
			},
			{
				"x": -1.5238676855,
				"y": -0.9514886662,
				"z": 3.5521005687,
				"element": "H" 
			},
			{
				"x": -2.2891604745,
				"y": -2.2456219066,
				"z": 2.4986467034,
				"element": "H" 
			},
			{
				"x": -4.2899889942,
				"y": -0.7130738908,
				"z": 2.1154712956,
				"element": "H" 
			},
			{
				"x": -3.4962178939,
				"y": 0.5448921441,
				"z": 3.1845729516,
				"element": "H" 
			},
			{
				"x": 0.4626479825,
				"y": 2.2267306617,
				"z": -1.1311231364,
				"element": "H" 
			},
			{
				"x": 0.7072330256,
				"y": 1.33357079,
				"z": -3.4170408329,
				"element": "H" 
			},
			{
				"x": 0.7594630444,
				"y": -0.587173344,
				"z": -4.6966416625,
				"element": "H" 
			},
			{
				"x": 0.319300272,
				"y": -2.667921633,
				"z": -1.9039083434,
				"element": "H" 
			},
			{
				"x": 0.0837455876,
				"y": -1.7747498932,
				"z": 0.3985785839,
				"element": "H" 
			}
		],
		 "valence_orbital": [ 
			{
				"type": "occ",
				"energy": -0.28098,
				"method": "rhf"
			},
			{
				"type": "occ",
				"energy": -0.2702,
				"method": "rhf"
			},
			{
				"type": "occ",
				"energy": -0.26603,
				"method": "rhf"
			},
			{
				"type": "occ",
				"energy": -0.2412,
				"method": "rhf"
			},
			{
				"type": "occ",
				"energy": -0.22383,
				"method": "rhf"
			},
			{
				"type": "unocc",
				"energy": -0.02211,
				"method": "rhf"
			},
			{
				"type": "unocc",
				"energy": -0.01196,
				"method": "rhf"
			},
			{
				"type": "unocc",
				"energy": 0.01134,
				"method": "rhf"
			},
			{
				"type": "unocc",
				"energy": 0.05702,
				"method": "rhf"
			},
			{
				"type": "unocc",
				"energy": 0.07941,
				"method": "rhf"
			}
		],
		"cosmo_sigma_profile": { 
			"-0.025": 0.0,
			"-0.024": 0.0,
			"-0.023": 0.0,
			"-0.022": 0.0,
			"-0.021": 0.0,
			"-0.02": 0.0,
			"-0.019": 0.0,
			"-0.018": 0.627507484353,
			"-0.017": 1.11265852603,
			"-0.016": 1.21034516202,
			"-0.015": 1.23972871528,
			"-0.014": 1.94057268632,
			"-0.013": 1.39894188133,
			"-0.012": 0.934232417769,
			"-0.011": 2.92740525684,
			"-0.01": 4.22660353761,
			"-0.009": 3.89970382753,
			"-0.008": 7.18954874454,
			"-0.007": 7.46187787226,
			"-0.006": 9.75783500055,
			"-0.005": 11.2376864781,
			"-0.004": 14.470945794,
			"-0.003": 15.8851277578,
			"-0.002": 15.6089495723,
			"-0.001": 16.2594613681,
			"0.0": 17.3327619514,
			"0.001": 16.7075661237,
			"0.002": 13.1715413424,
			"0.003": 15.6229586206,
			"0.004": 13.987851289,
			"0.005": 9.03631573276,
			"0.006": 5.10688099064,
			"0.007": 4.29862053319,
			"0.008": 4.80548631318,
			"0.009": 4.31725162302,
			"0.01": 6.72735285149,
			"0.011": 6.82402959476,
			"0.012": 4.73712694451,
			"0.013": 2.84314512476,
			"0.014": 0.945848092554,
			"0.015": 0.779433418587,
			"0.016": 0.470722711621,
			"0.017": 0.57946990214,
			"0.018": 0.0423358988105,
			"0.019": 0.0,
			"0.02": 0.0,
			"0.021": 0.0,
			"0.022": 0.0,
			"0.023": 0.0,
			"0.024": 0.0,
			"0.025": 0.0
		}
	}
}
