{
	 "smiles": "COCCCN1C(=S)NN=C1C1=CC=C(C=C1)C(C)(C)C", 
	 "Tm": 390.15, 
	 "num_atms": 44, 
	 "gaussian": { 
		 "optdone": 1, 
		 "sigma_profile": "yes", 
		 "theory": "DFT", 
		 "functional": "B3LYP", 
		 "basiset": "6-31G**", 
		 "properties": { 
			 "R2extent": 9529.9171, 
			 "electric_dipole_moment_norm": 5.55374696039, 
			 "electric_quadrupole_moment_norm": 20.2248631333, 
			 "total_energy": -1261.23866744, 
			 "HOMO_LUMO_gap": 0.16336, 
			 "cosmo_polarized_energy": -16.92, 
			 "cosmo_cavitation_energy": 47.29, 
			 "cosmo_dispersion_energy": -32.23, 
			 "cosmo_repulsion_energy": 2.47, 
			 "cosmo_total_nonelectrostatic_energy": 17.54, 
			 "SMD_solvation_energy": 6.27 
		},
		"coords": [
			{
				"x": -4.1475047809,
				"y": -0.1236569043,
				"z": -3.1252122349,
				"element": "C" 
			},
			{
				"x": -3.2275380154,
				"y": 0.4255533879,
				"z": -2.2064562122,
				"element": "O" 
			},
			{
				"x": -3.4428655568,
				"y": 1.8068089504,
				"z": -1.9689543523,
				"element": "C" 
			},
			{
				"x": -2.4213893613,
				"y": 2.2909265873,
				"z": -0.948500962,
				"element": "C" 
			},
			{
				"x": -2.5483731612,
				"y": 1.5348314755,
				"z": 0.3799051222,
				"element": "C" 
			},
			{
				"x": -1.6148104621,
				"y": 2.0357380439,
				"z": 1.3916202803,
				"element": "N" 
			},
			{
				"x": -1.8662457772,
				"y": 3.1778587007,
				"z": 2.1379311776,
				"element": "C" 
			},
			{
				"x": -3.2596325976,
				"y": 4.1031319824,
				"z": 2.2254090155,
				"element": "S" 
			},
			{
				"x": -0.6866258208,
				"y": 3.3682796271,
				"z": 2.7852090618,
				"element": "N" 
			},
			{
				"x": 0.2716597828,
				"y": 2.4361264774,
				"z": 2.5029752885,
				"element": "N" 
			},
			{
				"x": -0.308980822,
				"y": 1.6328748156,
				"z": 1.646198404,
				"element": "C" 
			},
			{
				"x": 0.3737703116,
				"y": 0.4677481726,
				"z": 1.0587567712,
				"element": "C" 
			},
			{
				"x": -0.2181838438,
				"y": -0.8040434969,
				"z": 1.0082869578,
				"element": "C" 
			},
			{
				"x": 0.4792629472,
				"y": -1.8847225315,
				"z": 0.4794435266,
				"element": "C" 
			},
			{
				"x": 1.7899645063,
				"y": -1.7528665862,
				"z": -0.0121252816,
				"element": "C" 
			},
			{
				"x": 2.3743982841,
				"y": -0.4805323077,
				"z": 0.0609540304,
				"element": "C" 
			},
			{
				"x": 1.683584398,
				"y": 0.6111241307,
				"z": 0.5857396105,
				"element": "C" 
			},
			{
				"x": 2.5197722384,
				"y": -2.9777211126,
				"z": -0.5912672181,
				"element": "C" 
			},
			{
				"x": 2.6341827166,
				"y": -4.0697504053,
				"z": 0.4994823483,
				"element": "C" 
			},
			{
				"x": 3.9398988255,
				"y": -2.6353435871,
				"z": -1.0800497173,
				"element": "C" 
			},
			{
				"x": 1.7158996687,
				"y": -3.5330285707,
				"z": -1.7914134567,
				"element": "C" 
			},
			{
				"x": -5.1856850628,
				"y": -0.037497813,
				"z": -2.7671190987,
				"element": "H" 
			},
			{
				"x": -3.9008735407,
				"y": -1.1818441169,
				"z": -3.2416612075,
				"element": "H" 
			},
			{
				"x": -4.0832656923,
				"y": 0.3659860122,
				"z": -4.1098934874,
				"element": "H" 
			},
			{
				"x": -4.4672468531,
				"y": 1.9756961528,
				"z": -1.5938205453,
				"element": "H" 
			},
			{
				"x": -3.3416388433,
				"y": 2.3796712005,
				"z": -2.9056940942,
				"element": "H" 
			},
			{
				"x": -1.4117163461,
				"y": 2.1551584894,
				"z": -1.3528883199,
				"element": "H" 
			},
			{
				"x": -2.5764650362,
				"y": 3.3601917371,
				"z": -0.7713646489,
				"element": "H" 
			},
			{
				"x": -2.3663583773,
				"y": 0.473730508,
				"z": 0.2242805837,
				"element": "H" 
			},
			{
				"x": -3.5514358375,
				"y": 1.6650088623,
				"z": 0.7954609812,
				"element": "H" 
			},
			{
				"x": -0.5087741026,
				"y": 4.1058682616,
				"z": 3.4489159337,
				"element": "H" 
			},
			{
				"x": -1.2140400114,
				"y": -0.95938328,
				"z": 1.4113309512,
				"element": "H" 
			},
			{
				"x": -0.0097234473,
				"y": -2.8538118173,
				"z": 0.4608360144,
				"element": "H" 
			},
			{
				"x": 3.3845885258,
				"y": -0.3226569784,
				"z": -0.2979274302,
				"element": "H" 
			},
			{
				"x": 2.1584635255,
				"y": 1.5856876679,
				"z": 0.6318915389,
				"element": "H" 
			},
			{
				"x": 3.1488754863,
				"y": -4.9511371311,
				"z": 0.1010018373,
				"element": "H" 
			},
			{
				"x": 1.6527102831,
				"y": -4.3928229435,
				"z": 0.858876277,
				"element": "H" 
			},
			{
				"x": 3.2024941749,
				"y": -3.705271153,
				"z": 1.3613870967,
				"element": "H" 
			},
			{
				"x": 4.4159384363,
				"y": -3.5344005805,
				"z": -1.4841315288,
				"element": "H" 
			},
			{
				"x": 4.5734535065,
				"y": -2.2648969557,
				"z": -0.2674752094,
				"element": "H" 
			},
			{
				"x": 3.927584376,
				"y": -1.883515416,
				"z": -1.8760190893,
				"element": "H" 
			},
			{
				"x": 0.7059228688,
				"y": -3.8368119075,
				"z": -1.5007905462,
				"element": "H" 
			},
			{
				"x": 1.6240384469,
				"y": -2.7823834326,
				"z": -2.5831566178,
				"element": "H" 
			},
			{
				"x": 2.2195100404,
				"y": -4.4107022156,
				"z": -2.2116715503,
				"element": "H" 
			}
		],
		 "valence_orbital": [ 
			{
				"type": "occ",
				"energy": -0.26205,
				"method": "rhf"
			},
			{
				"type": "occ",
				"energy": -0.26037,
				"method": "rhf"
			},
			{
				"type": "occ",
				"energy": -0.25059,
				"method": "rhf"
			},
			{
				"type": "occ",
				"energy": -0.20572,
				"method": "rhf"
			},
			{
				"type": "occ",
				"energy": -0.19746,
				"method": "rhf"
			},
			{
				"type": "unocc",
				"energy": -0.0341,
				"method": "rhf"
			},
			{
				"type": "unocc",
				"energy": -0.01428,
				"method": "rhf"
			},
			{
				"type": "unocc",
				"energy": 0.00697,
				"method": "rhf"
			},
			{
				"type": "unocc",
				"energy": 0.03284,
				"method": "rhf"
			},
			{
				"type": "unocc",
				"energy": 0.07249,
				"method": "rhf"
			}
		],
		"cosmo_sigma_profile": { 
			"-0.025": 0.0,
			"-0.024": 0.0,
			"-0.023": 0.0,
			"-0.022": 0.0,
			"-0.021": 0.0,
			"-0.02": 0.0,
			"-0.019": 0.0,
			"-0.018": 0.294390292171,
			"-0.017": 1.24427132118,
			"-0.016": 1.43056419403,
			"-0.015": 0.229014078139,
			"-0.014": 0.590980077986,
			"-0.013": 0.932865739098,
			"-0.012": 1.36433959095,
			"-0.011": 0.757070186642,
			"-0.01": 0.632077659787,
			"-0.009": 0.769435820692,
			"-0.008": 1.55307004746,
			"-0.007": 3.96542241881,
			"-0.006": 7.30920938231,
			"-0.005": 13.5641744984,
			"-0.004": 27.5866271903,
			"-0.003": 53.9669206784,
			"-0.002": 51.9757660747,
			"-0.001": 35.9940561291,
			"0.0": 29.4022372216,
			"0.001": 32.7298069597,
			"0.002": 17.6617758143,
			"0.003": 14.0165928675,
			"0.004": 17.1013665519,
			"0.005": 10.3484884052,
			"0.006": 6.11715603774,
			"0.007": 5.95559071954,
			"0.008": 6.89083124001,
			"0.009": 7.03939899017,
			"0.01": 8.07700571742,
			"0.011": 8.37427552545,
			"0.012": 4.38471631192,
			"0.013": 1.37812530458,
			"0.014": 0.116183118877,
			"0.015": 0.0,
			"0.016": 0.0,
			"0.017": 0.0,
			"0.018": 0.0,
			"0.019": 0.0,
			"0.02": 0.0,
			"0.021": 0.0,
			"0.022": 0.0,
			"0.023": 0.0,
			"0.024": 0.0,
			"0.025": 0.0
		}
	}
}
