{
	 "smiles": "ClC(=O)C1=CC=C2OCOC2=C1", 
	 "Tm": 353.65, 
	 "num_atms": 17, 
	 "gaussian": { 
		 "optdone": 1, 
		 "sigma_profile": "yes", 
		 "theory": "DFT", 
		 "functional": "B3LYP", 
		 "basiset": "6-31G**", 
		 "properties": { 
			 "R2extent": 2730.7096, 
			 "electric_dipole_moment_norm": 5.13480304004, 
			 "electric_quadrupole_moment_norm": 4.403944365, 
			 "total_energy": -993.709492982, 
			 "HOMO_LUMO_gap": 0.1628, 
			 "cosmo_polarized_energy": -8.44, 
			 "cosmo_cavitation_energy": 23.64, 
			 "cosmo_dispersion_energy": -18.2, 
			 "cosmo_repulsion_energy": 1.44, 
			 "cosmo_total_nonelectrostatic_energy": 6.88, 
			 "SMD_solvation_energy": 5.43 
		},
		"coords": [
			{
				"x": 1.4699001479,
				"y": 2.1418958927,
				"z": 2.5495467126,
				"element": "Cl" 
			},
			{
				"x": 0.1508154471,
				"y": 1.7889754556,
				"z": 1.3199189295,
				"element": "C" 
			},
			{
				"x": -0.6840692985,
				"y": 2.6230268787,
				"z": 1.1288193706,
				"element": "O" 
			},
			{
				"x": 0.2378705669,
				"y": 0.4733630222,
				"z": 0.6574967614,
				"element": "C" 
			},
			{
				"x": 1.2425190254,
				"y": -0.4667538647,
				"z": 0.9225243994,
				"element": "C" 
			},
			{
				"x": 1.2756221517,
				"y": -1.7027530412,
				"z": 0.2621675929,
				"element": "C" 
			},
			{
				"x": 0.273531605,
				"y": -1.9479529909,
				"z": -0.6589754707,
				"element": "C" 
			},
			{
				"x": 0.0874472114,
				"y": -3.0600760131,
				"z": -1.4221419561,
				"element": "O" 
			},
			{
				"x": -1.0910393477,
				"y": -2.8184162626,
				"z": -2.2110816285,
				"element": "C" 
			},
			{
				"x": -1.5847998549,
				"y": -1.5181913863,
				"z": -1.8760951463,
				"element": "O" 
			},
			{
				"x": -0.7318492459,
				"y": -1.0136090382,
				"z": -0.9278312979,
				"element": "C" 
			},
			{
				"x": -0.7831218241,
				"y": 0.2023215645,
				"z": -0.2928663523,
				"element": "C" 
			},
			{
				"x": 2.008043729,
				"y": -0.2341226821,
				"z": 1.6514256683,
				"element": "H" 
			},
			{
				"x": 2.0491982431,
				"y": -2.4346806822,
				"z": 0.4617949808,
				"element": "H" 
			},
			{
				"x": -1.8469442679,
				"y": -3.574988866,
				"z": -1.9712457454,
				"element": "H" 
			},
			{
				"x": -0.8263917179,
				"y": -2.8517569293,
				"z": -3.2741745563,
				"element": "H" 
			},
			{
				"x": -1.5567325705,
				"y": 0.9326189426,
				"z": -0.4933822621,
				"element": "H" 
			}
		],
		 "valence_orbital": [ 
			{
				"type": "occ",
				"energy": -0.31601,
				"method": "rhf"
			},
			{
				"type": "occ",
				"energy": -0.31453,
				"method": "rhf"
			},
			{
				"type": "occ",
				"energy": -0.28892,
				"method": "rhf"
			},
			{
				"type": "occ",
				"energy": -0.27156,
				"method": "rhf"
			},
			{
				"type": "occ",
				"energy": -0.23339,
				"method": "rhf"
			},
			{
				"type": "unocc",
				"energy": -0.07059,
				"method": "rhf"
			},
			{
				"type": "unocc",
				"energy": -0.01956,
				"method": "rhf"
			},
			{
				"type": "unocc",
				"energy": 0.02054,
				"method": "rhf"
			},
			{
				"type": "unocc",
				"energy": 0.03765,
				"method": "rhf"
			},
			{
				"type": "unocc",
				"energy": 0.08114,
				"method": "rhf"
			}
		],
		"cosmo_sigma_profile": { 
			"-0.025": 0.0,
			"-0.024": 0.0,
			"-0.023": 0.0,
			"-0.022": 0.0,
			"-0.021": 0.0,
			"-0.02": 0.0,
			"-0.019": 0.0,
			"-0.018": 0.0,
			"-0.017": 0.0,
			"-0.016": 0.0,
			"-0.015": 0.0,
			"-0.014": 0.0,
			"-0.013": 0.0,
			"-0.012": 0.0,
			"-0.011": 0.0,
			"-0.01": 0.0,
			"-0.009": 1.20944295409,
			"-0.008": 9.91954550055,
			"-0.007": 10.2775999663,
			"-0.006": 11.4349359649,
			"-0.005": 6.82895703301,
			"-0.004": 6.73080373055,
			"-0.003": 9.7472166925,
			"-0.002": 12.2627478233,
			"-0.001": 14.9504028479,
			"0.0": 18.9501740867,
			"0.001": 21.2349938958,
			"0.002": 14.1526562052,
			"0.003": 10.6017945171,
			"0.004": 10.1647782837,
			"0.005": 10.8136377238,
			"0.006": 5.72468168766,
			"0.007": 4.49175690721,
			"0.008": 7.22858969821,
			"0.009": 5.09482501869,
			"0.01": 1.27529230448,
			"0.011": 0.00828678736374,
			"0.012": 0.0,
			"0.013": 0.0,
			"0.014": 0.0,
			"0.015": 0.0,
			"0.016": 0.0,
			"0.017": 0.0,
			"0.018": 0.0,
			"0.019": 0.0,
			"0.02": 0.0,
			"0.021": 0.0,
			"0.022": 0.0,
			"0.023": 0.0,
			"0.024": 0.0,
			"0.025": 0.0
		}
	}
}
