{
	 "smiles": "OC1=C(C=C(Br)C=C1)C#N", 
	 "Tm": 434.15, 
	 "num_atms": 14, 
	 "gaussian": { 
		 "optdone": 1, 
		 "sigma_profile": "yes", 
		 "theory": "DFT", 
		 "functional": "B3LYP", 
		 "basiset": "6-31G**", 
		 "properties": { 
			 "R2extent": 4063.4624, 
			 "electric_dipole_moment_norm": 5.26973924497, 
			 "electric_quadrupole_moment_norm": 15.047413726, 
			 "total_energy": -2970.50974439, 
			 "HOMO_LUMO_gap": 0.18307, 
			 "cosmo_polarized_energy": -14.75, 
			 "cosmo_cavitation_energy": 22.28, 
			 "cosmo_dispersion_energy": -16.38, 
			 "cosmo_repulsion_energy": 1.34, 
			 "cosmo_total_nonelectrostatic_energy": 7.23, 
			 "SMD_solvation_energy": 4.49 
		},
		"coords": [
			{
				"x": -1.6985259526,
				"y": -0.7805870666,
				"z": -1.3168487006,
				"element": "O" 
			},
			{
				"x": -1.4316248839,
				"y": -0.0156697007,
				"z": -0.2317668505,
				"element": "C" 
			},
			{
				"x": -1.1692250507,
				"y": 1.3537484564,
				"z": -0.450434215,
				"element": "C" 
			},
			{
				"x": -0.886209871,
				"y": 2.1938776356,
				"z": 0.6389379204,
				"element": "C" 
			},
			{
				"x": -0.865798587,
				"y": 1.6732591143,
				"z": 1.9268888812,
				"element": "C" 
			},
			{
				"x": -0.4806096886,
				"y": 2.8179487308,
				"z": 3.4030730016,
				"element": "Br" 
			},
			{
				"x": -1.1244601621,
				"y": 0.3200894808,
				"z": 2.1498197379,
				"element": "C" 
			},
			{
				"x": -1.4056368129,
				"y": -0.517333587,
				"z": 1.0733500518,
				"element": "C" 
			},
			{
				"x": -1.1902879244,
				"y": 1.8896958913,
				"z": -1.7771409526,
				"element": "C" 
			},
			{
				"x": -1.2012141452,
				"y": 2.350146257,
				"z": -2.8450816951,
				"element": "N" 
			},
			{
				"x": -1.8607224076,
				"y": -1.6933666971,
				"z": -1.0443410796,
				"element": "H" 
			},
			{
				"x": -0.6859256708,
				"y": 3.2436346613,
				"z": 0.4623004189,
				"element": "H" 
			},
			{
				"x": -1.1066021618,
				"y": -0.0783604097,
				"z": 3.1577233187,
				"element": "H" 
			},
			{
				"x": -1.6068566812,
				"y": -1.5711827664,
				"z": 1.248920163,
				"element": "H" 
			}
		],
		 "valence_orbital": [ 
			{
				"type": "occ",
				"energy": -0.33238,
				"method": "rhf"
			},
			{
				"type": "occ",
				"energy": -0.31083,
				"method": "rhf"
			},
			{
				"type": "occ",
				"energy": -0.30051,
				"method": "rhf"
			},
			{
				"type": "occ",
				"energy": -0.28058,
				"method": "rhf"
			},
			{
				"type": "occ",
				"energy": -0.24398,
				"method": "rhf"
			},
			{
				"type": "unocc",
				"energy": -0.06091,
				"method": "rhf"
			},
			{
				"type": "unocc",
				"energy": -0.02592,
				"method": "rhf"
			},
			{
				"type": "unocc",
				"energy": -0.00966,
				"method": "rhf"
			},
			{
				"type": "unocc",
				"energy": 0.03224,
				"method": "rhf"
			},
			{
				"type": "unocc",
				"energy": 0.04838,
				"method": "rhf"
			}
		],
		"cosmo_sigma_profile": { 
			"-0.025": 0.0,
			"-0.024": 0.0,
			"-0.023": 0.0,
			"-0.022": 0.0,
			"-0.021": 0.0,
			"-0.02": 0.229352374151,
			"-0.019": 1.04065769567,
			"-0.018": 1.38296528622,
			"-0.017": 1.17628104001,
			"-0.016": 0.958571250978,
			"-0.015": 1.07311267389,
			"-0.014": 0.534522242816,
			"-0.013": 1.4799966693,
			"-0.012": 1.5492527421,
			"-0.011": 0.849320693608,
			"-0.01": 0.979401171377,
			"-0.009": 2.93285413603,
			"-0.008": 5.95028730934,
			"-0.007": 6.7640462782,
			"-0.006": 4.42101849771,
			"-0.005": 5.08696721852,
			"-0.004": 6.97612973081,
			"-0.003": 7.31217668791,
			"-0.002": 9.7063721036,
			"-0.001": 14.3757109193,
			"0.0": 18.1585577807,
			"0.001": 19.7154495923,
			"0.002": 11.4882595929,
			"0.003": 9.14980507679,
			"0.004": 14.3981381431,
			"0.005": 6.04310283372,
			"0.006": 4.72553416388,
			"0.007": 5.33161878572,
			"0.008": 5.29259645826,
			"0.009": 5.03004217667,
			"0.01": 3.02957003066,
			"0.011": 2.84681448184,
			"0.012": 2.3365895947,
			"0.013": 1.2924038546,
			"0.014": 0.00356577552762,
			"0.015": 0.0,
			"0.016": 0.0,
			"0.017": 0.0,
			"0.018": 0.0,
			"0.019": 0.0,
			"0.02": 0.0,
			"0.021": 0.0,
			"0.022": 0.0,
			"0.023": 0.0,
			"0.024": 0.0,
			"0.025": 0.0
		}
	}
}
