{
	 "smiles": "CC(CO)NCC1=C(Cl)C=CC=C1", 
	 "Tm": 328.15, 
	 "num_atms": 27, 
	 "gaussian": { 
		 "optdone": 1, 
		 "sigma_profile": "yes", 
		 "theory": "DFT", 
		 "functional": "B3LYP", 
		 "basiset": "6-31G**", 
		 "properties": { 
			 "R2extent": 3766.9293, 
			 "electric_dipole_moment_norm": 2.90870529789, 
			 "electric_quadrupole_moment_norm": 9.00571132726, 
			 "total_energy": -979.658009519, 
			 "HOMO_LUMO_gap": 0.20491, 
			 "cosmo_polarized_energy": -10.39, 
			 "cosmo_cavitation_energy": 31.03, 
			 "cosmo_dispersion_energy": -21.76, 
			 "cosmo_repulsion_energy": 1.73, 
			 "cosmo_total_nonelectrostatic_energy": 11.0, 
			 "SMD_solvation_energy": 2.97 
		},
		"coords": [
			{
				"x": -0.0455209248,
				"y": -1.1190806019,
				"z": 2.4033867047,
				"element": "C" 
			},
			{
				"x": -0.5320319299,
				"y": 0.2805350895,
				"z": 2.0200310112,
				"element": "C" 
			},
			{
				"x": -0.5820963753,
				"y": 1.1912608077,
				"z": 3.2585091407,
				"element": "C" 
			},
			{
				"x": 0.6854353354,
				"y": 1.3604082097,
				"z": 3.8742070111,
				"element": "O" 
			},
			{
				"x": -1.8787211019,
				"y": 0.2441665536,
				"z": 1.4428276915,
				"element": "N" 
			},
			{
				"x": -2.0278351569,
				"y": -0.4072225529,
				"z": 0.1392401269,
				"element": "C" 
			},
			{
				"x": -1.197453887,
				"y": 0.1600815237,
				"z": -1.0076000318,
				"element": "C" 
			},
			{
				"x": -1.4685983678,
				"y": 1.3999816075,
				"z": -1.6048770986,
				"element": "C" 
			},
			{
				"x": -2.8430564373,
				"y": 2.3683442001,
				"z": -1.0493782362,
				"element": "Cl" 
			},
			{
				"x": -0.6985616619,
				"y": 1.9142447899,
				"z": -2.6464148026,
				"element": "C" 
			},
			{
				"x": 0.3881731684,
				"y": 1.1788278887,
				"z": -3.1204342572,
				"element": "C" 
			},
			{
				"x": 0.6880321491,
				"y": -0.0589545362,
				"z": -2.5526161494,
				"element": "C" 
			},
			{
				"x": -0.0999454579,
				"y": -0.5523971026,
				"z": -1.5127645093,
				"element": "C" 
			},
			{
				"x": 0.1592372967,
				"y": -1.7425999977,
				"z": 1.5278252108,
				"element": "H" 
			},
			{
				"x": 0.8770889022,
				"y": -1.0363998971,
				"z": 2.983575778,
				"element": "H" 
			},
			{
				"x": -0.8019144926,
				"y": -1.6229985999,
				"z": 3.0144356867,
				"element": "H" 
			},
			{
				"x": 0.2078749057,
				"y": 0.7231619945,
				"z": 1.3220162218,
				"element": "H" 
			},
			{
				"x": -1.0221560874,
				"y": 2.1643363246,
				"z": 2.9804855704,
				"element": "H" 
			},
			{
				"x": -1.2341531454,
				"y": 0.7424607004,
				"z": 4.0144124367,
				"element": "H" 
			},
			{
				"x": 1.2630311226,
				"y": 1.8039603934,
				"z": 3.2391267967,
				"element": "H" 
			},
			{
				"x": -2.2456717249,
				"y": 1.1902225783,
				"z": 1.375324177,
				"element": "H" 
			},
			{
				"x": -1.7829653334,
				"y": -1.4682795595,
				"z": 0.247560912,
				"element": "H" 
			},
			{
				"x": -3.0895055452,
				"y": -0.3563111865,
				"z": -0.1241257601,
				"element": "H" 
			},
			{
				"x": -0.9530394064,
				"y": 2.8755695817,
				"z": -3.079183785,
				"element": "H" 
			},
			{
				"x": 0.9913008064,
				"y": 1.5752001716,
				"z": -3.9316830344,
				"element": "H" 
			},
			{
				"x": 1.5297076523,
				"y": -0.6397247777,
				"z": -2.9177859222,
				"element": "H" 
			},
			{
				"x": 0.1303456974,
				"y": -1.5217936029,
				"z": -1.0781008893,
				"element": "H" 
			}
		],
		 "valence_orbital": [ 
			{
				"type": "occ",
				"energy": -0.31655,
				"method": "rhf"
			},
			{
				"type": "occ",
				"energy": -0.26707,
				"method": "rhf"
			},
			{
				"type": "occ",
				"energy": -0.26198,
				"method": "rhf"
			},
			{
				"type": "occ",
				"energy": -0.25054,
				"method": "rhf"
			},
			{
				"type": "occ",
				"energy": -0.22339,
				"method": "rhf"
			},
			{
				"type": "unocc",
				"energy": -0.01848,
				"method": "rhf"
			},
			{
				"type": "unocc",
				"energy": -0.01625,
				"method": "rhf"
			},
			{
				"type": "unocc",
				"energy": 0.02438,
				"method": "rhf"
			},
			{
				"type": "unocc",
				"energy": 0.07255,
				"method": "rhf"
			},
			{
				"type": "unocc",
				"energy": 0.08955,
				"method": "rhf"
			}
		],
		"cosmo_sigma_profile": { 
			"-0.025": 0.0,
			"-0.024": 0.0,
			"-0.023": 0.0,
			"-0.022": 0.0,
			"-0.021": 0.0,
			"-0.02": 0.0,
			"-0.019": 0.0,
			"-0.018": 0.0,
			"-0.017": 0.0,
			"-0.016": 0.0131351207993,
			"-0.015": 0.858202202041,
			"-0.014": 0.980403193997,
			"-0.013": 0.932161483623,
			"-0.012": 1.21817282479,
			"-0.011": 1.04333487103,
			"-0.01": 0.549519692254,
			"-0.009": 0.883779964099,
			"-0.008": 0.89391316848,
			"-0.007": 4.73822452437,
			"-0.006": 11.3943700352,
			"-0.005": 14.5189047453,
			"-0.004": 19.1308107108,
			"-0.003": 16.8738886603,
			"-0.002": 19.0211630221,
			"-0.001": 24.1291997262,
			"0.0": 20.7809878216,
			"0.001": 22.4257581858,
			"0.002": 19.3451366466,
			"0.003": 17.6838394807,
			"0.004": 17.0985752217,
			"0.005": 11.382734915,
			"0.006": 1.95331466229,
			"0.007": 2.17344467578,
			"0.008": 2.55936386405,
			"0.009": 0.960692764116,
			"0.01": 2.71128978604,
			"0.011": 1.75463437637,
			"0.012": 1.48575264151,
			"0.013": 1.66169342636,
			"0.014": 2.64295686612,
			"0.015": 0.94025852865,
			"0.016": 0.361087528372,
			"0.017": 0.499723463652,
			"0.018": 0.0,
			"0.019": 0.0,
			"0.02": 0.0,
			"0.021": 0.0,
			"0.022": 0.0,
			"0.023": 0.0,
			"0.024": 0.0,
			"0.025": 0.0
		}
	}
}
