{
	 "smiles": "CC(C)C1=CC2=C(CC1)C1(C)CCCC(C)(C1CC2)C(O)=O", 
	 "Tm": 437.15, 
	 "num_atms": 52, 
	 "gaussian": { 
		 "optdone": 1, 
		 "sigma_profile": "yes", 
		 "theory": "DFT", 
		 "functional": "B3LYP", 
		 "basiset": "6-31G**", 
		 "properties": { 
			 "R2extent": 7111.5646, 
			 "electric_dipole_moment_norm": 1.56396857385, 
			 "electric_quadrupole_moment_norm": 8.1689617792, 
			 "total_energy": -930.675056026, 
			 "HOMO_LUMO_gap": 0.18494, 
			 "cosmo_polarized_energy": -8.46, 
			 "cosmo_cavitation_energy": 45.61, 
			 "cosmo_dispersion_energy": -31.42, 
			 "cosmo_repulsion_energy": 2.36, 
			 "cosmo_total_nonelectrostatic_energy": 16.55, 
			 "SMD_solvation_energy": 7.49 
		},
		"coords": [
			{
				"x": -0.2040868823,
				"y": -1.3779086705,
				"z": -4.7450751863,
				"element": "C" 
			},
			{
				"x": -1.4016824414,
				"y": -1.5267311811,
				"z": -3.7798104798,
				"element": "C" 
			},
			{
				"x": -1.7985371103,
				"y": -3.0033678884,
				"z": -3.6503466574,
				"element": "C" 
			},
			{
				"x": -1.1220195638,
				"y": -0.8349799733,
				"z": -2.4589290826,
				"element": "C" 
			},
			{
				"x": -0.8743700535,
				"y": -1.4611780909,
				"z": -1.2939496813,
				"element": "C" 
			},
			{
				"x": -0.6501426967,
				"y": -0.7402474422,
				"z": -0.0294066621,
				"element": "C" 
			},
			{
				"x": -0.3429988311,
				"y": 0.5771072452,
				"z": -0.0361056154,
				"element": "C" 
			},
			{
				"x": -0.2378425001,
				"y": 1.2727255997,
				"z": -1.3854724563,
				"element": "C" 
			},
			{
				"x": -1.1910664976,
				"y": 0.6794797889,
				"z": -2.4281936228,
				"element": "C" 
			},
			{
				"x": -0.0669786128,
				"y": 1.3987128281,
				"z": 1.2249930791,
				"element": "C" 
			},
			{
				"x": -1.3422919588,
				"y": 2.2194994421,
				"z": 1.5642760375,
				"element": "C" 
			},
			{
				"x": 1.0904812033,
				"y": 2.4240671162,
				"z": 0.9803536851,
				"element": "C" 
			},
			{
				"x": 1.8554748877,
				"y": 2.7347579923,
				"z": 2.2674798145,
				"element": "C" 
			},
			{
				"x": 2.5902015871,
				"y": 1.4914030592,
				"z": 2.8013900522,
				"element": "C" 
			},
			{
				"x": 1.8019769662,
				"y": 0.1450120844,
				"z": 2.6397922193,
				"element": "C" 
			},
			{
				"x": 2.0007647858,
				"y": -0.6885451703,
				"z": 3.9262882803,
				"element": "C" 
			},
			{
				"x": 0.2688562117,
				"y": 0.4793530742,
				"z": 2.4514164778,
				"element": "C" 
			},
			{
				"x": -0.7013602023,
				"y": -0.7195620601,
				"z": 2.5099057721,
				"element": "C" 
			},
			{
				"x": -0.752802765,
				"y": -1.5641584269,
				"z": 1.2320925276,
				"element": "C" 
			},
			{
				"x": 2.3628403612,
				"y": -0.7115762408,
				"z": 1.4930424248,
				"element": "C" 
			},
			{
				"x": 2.9215082339,
				"y": -0.0071178125,
				"z": 0.4759628065,
				"element": "O" 
			},
			{
				"x": 2.362681587,
				"y": -1.9264602785,
				"z": 1.4704307861,
				"element": "O" 
			},
			{
				"x": 0.6670516301,
				"y": -1.9171756835,
				"z": -4.357060829,
				"element": "H" 
			},
			{
				"x": -0.4464895483,
				"y": -1.7882788846,
				"z": -5.731659103,
				"element": "H" 
			},
			{
				"x": 0.0842918044,
				"y": -0.3309716536,
				"z": -4.8814835264,
				"element": "H" 
			},
			{
				"x": -2.250272741,
				"y": -0.9931473203,
				"z": -4.2382167689,
				"element": "H" 
			},
			{
				"x": -0.9714035852,
				"y": -3.60691263,
				"z": -3.2602794662,
				"element": "H" 
			},
			{
				"x": -2.6542560298,
				"y": -3.1317521721,
				"z": -2.9804630271,
				"element": "H" 
			},
			{
				"x": -2.0671461119,
				"y": -3.4131581031,
				"z": -4.629565257,
				"element": "H" 
			},
			{
				"x": -0.8732719575,
				"y": -2.547317251,
				"z": -1.2388943536,
				"element": "H" 
			},
			{
				"x": 0.7977989991,
				"y": 1.1798368535,
				"z": -1.7515378759,
				"element": "H" 
			},
			{
				"x": -0.4253519194,
				"y": 2.3471334683,
				"z": -1.2890442629,
				"element": "H" 
			},
			{
				"x": -0.9759875815,
				"y": 1.1054649158,
				"z": -3.414915965,
				"element": "H" 
			},
			{
				"x": -2.2278177369,
				"y": 0.9723725224,
				"z": -2.1912950544,
				"element": "H" 
			},
			{
				"x": -1.6555187725,
				"y": 2.815810553,
				"z": 0.7010900857,
				"element": "H" 
			},
			{
				"x": -1.1530139999,
				"y": 2.9120018857,
				"z": 2.3935073714,
				"element": "H" 
			},
			{
				"x": -2.1829206662,
				"y": 1.5779876878,
				"z": 1.8409183401,
				"element": "H" 
			},
			{
				"x": 0.6762385397,
				"y": 3.3477508621,
				"z": 0.5609237574,
				"element": "H" 
			},
			{
				"x": 1.7975252013,
				"y": 2.0324141199,
				"z": 0.2470087757,
				"element": "H" 
			},
			{
				"x": 1.1638316812,
				"y": 3.1192073985,
				"z": 3.0280261797,
				"element": "H" 
			},
			{
				"x": 2.5811125186,
				"y": 3.5370131896,
				"z": 2.0908769841,
				"element": "H" 
			},
			{
				"x": 3.561326944,
				"y": 1.4010674426,
				"z": 2.3071215939,
				"element": "H" 
			},
			{
				"x": 2.8013998773,
				"y": 1.6340097377,
				"z": 3.8668990498,
				"element": "H" 
			},
			{
				"x": 3.0670374253,
				"y": -0.7656551683,
				"z": 4.1638038122,
				"element": "H" 
			},
			{
				"x": 1.5035767024,
				"y": -0.197942927,
				"z": 4.7693541415,
				"element": "H" 
			},
			{
				"x": 1.6161226338,
				"y": -1.7028702054,
				"z": 3.8222600843,
				"element": "H" 
			},
			{
				"x": 0.0542228007,
				"y": 1.0767060343,
				"z": 3.3479037123,
				"element": "H" 
			},
			{
				"x": -1.7011278909,
				"y": -0.3135984466,
				"z": 2.7000799188,
				"element": "H" 
			},
			{
				"x": -0.476140991,
				"y": -1.3542924353,
				"z": 3.3714686202,
				"element": "H" 
			},
			{
				"x": -1.6932084658,
				"y": -2.1324699652,
				"z": 1.2138525893,
				"element": "H" 
			},
			{
				"x": 0.0468137251,
				"y": -2.3138545028,
				"z": 1.2321319303,
				"element": "H" 
			},
			{
				"x": 3.2033718065,
				"y": -0.6743643173,
				"z": -0.1725459761,
				"element": "H" 
			}
		],
		 "valence_orbital": [ 
			{
				"type": "occ",
				"energy": -0.28465,
				"method": "rhf"
			},
			{
				"type": "occ",
				"energy": -0.27795,
				"method": "rhf"
			},
			{
				"type": "occ",
				"energy": -0.26926,
				"method": "rhf"
			},
			{
				"type": "occ",
				"energy": -0.25997,
				"method": "rhf"
			},
			{
				"type": "occ",
				"energy": -0.1895,
				"method": "rhf"
			},
			{
				"type": "unocc",
				"energy": -0.00456,
				"method": "rhf"
			},
			{
				"type": "unocc",
				"energy": 0.00986,
				"method": "rhf"
			},
			{
				"type": "unocc",
				"energy": 0.0681,
				"method": "rhf"
			},
			{
				"type": "unocc",
				"energy": 0.07935,
				"method": "rhf"
			},
			{
				"type": "unocc",
				"energy": 0.08215,
				"method": "rhf"
			}
		],
		"cosmo_sigma_profile": { 
			"-0.025": 0.0,
			"-0.024": 0.0,
			"-0.023": 0.0,
			"-0.022": 0.0,
			"-0.021": 0.0,
			"-0.02": 0.0,
			"-0.019": 0.0,
			"-0.018": 0.0207092498423,
			"-0.017": 1.16533380993,
			"-0.016": 0.583647961437,
			"-0.015": 0.595187692578,
			"-0.014": 0.669696065032,
			"-0.013": 1.01295185767,
			"-0.012": 0.292517475452,
			"-0.011": 0.998262460871,
			"-0.01": 0.676051486716,
			"-0.009": 0.778599415305,
			"-0.008": 0.188916987493,
			"-0.007": 0.666864967064,
			"-0.006": 1.03374590004,
			"-0.005": 0.681895916597,
			"-0.004": 4.54116747654,
			"-0.003": 35.1352959523,
			"-0.002": 55.0872653925,
			"-0.001": 61.8210165931,
			"0.0": 57.0399984495,
			"0.001": 54.6553581796,
			"0.002": 23.6723012095,
			"0.003": 8.97124700537,
			"0.004": 9.72685705699,
			"0.005": 7.9075842988,
			"0.006": 6.62774451781,
			"0.007": 4.28314736256,
			"0.008": 2.28335105014,
			"0.009": 1.51816937581,
			"0.01": 1.46991357227,
			"0.011": 2.077341426,
			"0.012": 3.74759421491,
			"0.013": 0.707190021182,
			"0.014": 0.0,
			"0.015": 0.0,
			"0.016": 0.0,
			"0.017": 0.0,
			"0.018": 0.0,
			"0.019": 0.0,
			"0.02": 0.0,
			"0.021": 0.0,
			"0.022": 0.0,
			"0.023": 0.0,
			"0.024": 0.0,
			"0.025": 0.0
		}
	}
}
