{
	 "smiles": "O=C1CC2=C(C=CC=C2)C(=O)N1", 
	 "Tm": 464.15, 
	 "num_atms": 19, 
	 "gaussian": { 
		 "optdone": 1, 
		 "sigma_profile": "yes", 
		 "theory": "DFT", 
		 "functional": "B3LYP", 
		 "basiset": "6-31G**", 
		 "properties": { 
			 "R2extent": 2378.8393, 
			 "electric_dipole_moment_norm": 3.78552401921, 
			 "electric_quadrupole_moment_norm": 6.63328976376, 
			 "total_energy": -552.415588023, 
			 "HOMO_LUMO_gap": 0.20444, 
			 "cosmo_polarized_energy": -12.87, 
			 "cosmo_cavitation_energy": 23.27, 
			 "cosmo_dispersion_energy": -17.54, 
			 "cosmo_repulsion_energy": 1.38, 
			 "cosmo_total_nonelectrostatic_energy": 7.12, 
			 "SMD_solvation_energy": 5.13 
		},
		"coords": [
			{
				"x": -4.0423866402,
				"y": -0.3623314367,
				"z": 1.4944549351,
				"element": "O" 
			},
			{
				"x": -2.9871441991,
				"y": 0.0369784295,
				"z": 1.0400502503,
				"element": "C" 
			},
			{
				"x": -2.2411292279,
				"y": -0.6996873686,
				"z": -0.0594295643,
				"element": "C" 
			},
			{
				"x": -0.9416147256,
				"y": -0.0911942714,
				"z": -0.5295018478,
				"element": "C" 
			},
			{
				"x": -0.4570782187,
				"y": 1.0998843061,
				"z": 0.0320835036,
				"element": "C" 
			},
			{
				"x": 0.7502758377,
				"y": 1.6595184831,
				"z": -0.4089648019,
				"element": "C" 
			},
			{
				"x": 1.4817285731,
				"y": 1.035569779,
				"z": -1.4120938366,
				"element": "C" 
			},
			{
				"x": 1.0052742416,
				"y": -0.1526784209,
				"z": -1.9773398431,
				"element": "C" 
			},
			{
				"x": -0.1948862251,
				"y": -0.7092291003,
				"z": -1.5391066302,
				"element": "C" 
			},
			{
				"x": -1.2033577265,
				"y": 1.8033536206,
				"z": 1.1067349221,
				"element": "C" 
			},
			{
				"x": -0.8326303895,
				"y": 2.8401904439,
				"z": 1.6323844536,
				"element": "O" 
			},
			{
				"x": -2.4000007745,
				"y": 1.2040068635,
				"z": 1.5095027038,
				"element": "N" 
			},
			{
				"x": -2.0806215444,
				"y": -1.7207946774,
				"z": 0.3079713448,
				"element": "H" 
			},
			{
				"x": -2.9454931023,
				"y": -0.8024061394,
				"z": -0.8941298736,
				"element": "H" 
			},
			{
				"x": 1.0861041194,
				"y": 2.5812585651,
				"z": 0.0537917864,
				"element": "H" 
			},
			{
				"x": 2.4168779044,
				"y": 1.4673066029,
				"z": -1.7550376312,
				"element": "H" 
			},
			{
				"x": 1.5714923557,
				"y": -0.6462599101,
				"z": -2.7619760173,
				"element": "H" 
			},
			{
				"x": -0.5576700919,
				"y": -1.6325167201,
				"z": -1.9836837413,
				"element": "H" 
			},
			{
				"x": -2.9055401663,
				"y": 1.6888309513,
				"z": 2.2437898877,
				"element": "H" 
			}
		],
		 "valence_orbital": [ 
			{
				"type": "occ",
				"energy": -0.28785,
				"method": "rhf"
			},
			{
				"type": "occ",
				"energy": -0.28653,
				"method": "rhf"
			},
			{
				"type": "occ",
				"energy": -0.27107,
				"method": "rhf"
			},
			{
				"type": "occ",
				"energy": -0.26445,
				"method": "rhf"
			},
			{
				"type": "occ",
				"energy": -0.26435,
				"method": "rhf"
			},
			{
				"type": "unocc",
				"energy": -0.05991,
				"method": "rhf"
			},
			{
				"type": "unocc",
				"energy": -0.02433,
				"method": "rhf"
			},
			{
				"type": "unocc",
				"energy": -0.00675,
				"method": "rhf"
			},
			{
				"type": "unocc",
				"energy": 0.06512,
				"method": "rhf"
			},
			{
				"type": "unocc",
				"energy": 0.08311,
				"method": "rhf"
			}
		],
		"cosmo_sigma_profile": { 
			"-0.025": 0.0,
			"-0.024": 0.0,
			"-0.023": 0.0,
			"-0.022": 0.0,
			"-0.021": 0.0,
			"-0.02": 0.0,
			"-0.019": 0.0,
			"-0.018": 0.0,
			"-0.017": 0.0,
			"-0.016": 0.0247270149509,
			"-0.015": 0.95749382778,
			"-0.014": 0.809190498699,
			"-0.013": 0.972563233649,
			"-0.012": 0.447922052162,
			"-0.011": 0.548476359447,
			"-0.01": 1.11466238542,
			"-0.009": 0.882087021371,
			"-0.008": 3.22402827824,
			"-0.007": 10.0770646013,
			"-0.006": 17.5575391091,
			"-0.005": 14.4841595989,
			"-0.004": 13.9010615289,
			"-0.003": 11.3066111893,
			"-0.002": 10.3219323329,
			"-0.001": 11.3978461836,
			"0.0": 8.8624926992,
			"0.001": 9.6934260942,
			"0.002": 12.211093839,
			"0.003": 12.9068605711,
			"0.004": 8.26416064731,
			"0.005": 3.47352573406,
			"0.006": 2.25648770606,
			"0.007": 2.30516812925,
			"0.008": 2.46198708747,
			"0.009": 3.02807693576,
			"0.01": 3.72511017653,
			"0.011": 6.03813983236,
			"0.012": 10.0737047451,
			"0.013": 3.03083084947,
			"0.014": 0.0311609145622,
			"0.015": 0.0,
			"0.016": 0.0,
			"0.017": 0.0,
			"0.018": 0.0,
			"0.019": 0.0,
			"0.02": 0.0,
			"0.021": 0.0,
			"0.022": 0.0,
			"0.023": 0.0,
			"0.024": 0.0,
			"0.025": 0.0
		}
	}
}
