{
	 "smiles": "CC1=CC(=CC=C1N=NC1=CC=C(C=C1)N=NC1=CC=CC=C1)[N+]([O-])=NC1=CC=C(C=C1)N=NC1=CC=CC=C1", 
	 "Tm": 466.15, 
	 "num_atms": 64, 
	 "gaussian": { 
		 "optdone": 1, 
		 "sigma_profile": "yes", 
		 "theory": "DFT", 
		 "functional": "B3LYP", 
		 "basiset": "6-31G**", 
		 "properties": { 
			 "R2extent": 25374.2851, 
			 "electric_dipole_moment_norm": 5.71162938836, 
			 "electric_quadrupole_moment_norm": 27.0511718966, 
			 "total_energy": -1708.75680778, 
			 "HOMO_LUMO_gap": 0.10769, 
			 "cosmo_polarized_energy": -22.44, 
			 "cosmo_cavitation_energy": 72.17, 
			 "cosmo_dispersion_energy": -44.11, 
			 "cosmo_repulsion_energy": 3.21, 
			 "cosmo_total_nonelectrostatic_energy": 31.28, 
			 "SMD_solvation_energy": 7.68 
		},
		"coords": [
			{
				"x": 4.4211930657,
				"y": -3.260643909,
				"z": -3.8182741305,
				"element": "C" 
			},
			{
				"x": 3.5910289517,
				"y": -2.0137512315,
				"z": -3.6499372109,
				"element": "C" 
			},
			{
				"x": 2.6095414019,
				"y": -1.6621708459,
				"z": -4.5765002743,
				"element": "C" 
			},
			{
				"x": 1.8554559841,
				"y": -0.5018630552,
				"z": -4.4066504519,
				"element": "C" 
			},
			{
				"x": 2.0820146305,
				"y": 0.3629171563,
				"z": -3.3370426534,
				"element": "C" 
			},
			{
				"x": 3.047449923,
				"y": 0.0191772432,
				"z": -2.3980722309,
				"element": "C" 
			},
			{
				"x": 3.7793380429,
				"y": -1.1699446358,
				"z": -2.5337859188,
				"element": "C" 
			},
			{
				"x": 4.89294446,
				"y": -1.43906255,
				"z": -1.6783658468,
				"element": "N" 
			},
			{
				"x": 4.8266498118,
				"y": -1.4770226553,
				"z": -0.4319215676,
				"element": "N" 
			},
			{
				"x": 3.5988949002,
				"y": -1.4995245836,
				"z": 0.299744403,
				"element": "C" 
			},
			{
				"x": 2.5298806993,
				"y": -2.3503269099,
				"z": -0.0216554366,
				"element": "C" 
			},
			{
				"x": 1.441152409,
				"y": -2.4363598766,
				"z": 0.8372753348,
				"element": "C" 
			},
			{
				"x": 1.3916975415,
				"y": -1.6693691663,
				"z": 2.0105941327,
				"element": "C" 
			},
			{
				"x": 2.4704369856,
				"y": -0.8255906856,
				"z": 2.3362575027,
				"element": "C" 
			},
			{
				"x": 3.5749417925,
				"y": -0.7679546489,
				"z": 1.5016168826,
				"element": "C" 
			},
			{
				"x": 0.2308482787,
				"y": -1.8431023909,
				"z": 2.8002761273,
				"element": "N" 
			},
			{
				"x": 0.2006058783,
				"y": -1.1501667153,
				"z": 3.8541216305,
				"element": "N" 
			},
			{
				"x": -0.9551678509,
				"y": -1.331916128,
				"z": 4.6523511399,
				"element": "C" 
			},
			{
				"x": -1.005901144,
				"y": -0.5591991275,
				"z": 5.8208758765,
				"element": "C" 
			},
			{
				"x": -2.0943965142,
				"y": -0.6647219535,
				"z": 6.6849172495,
				"element": "C" 
			},
			{
				"x": -3.1363518529,
				"y": -1.5447609495,
				"z": 6.3851310656,
				"element": "C" 
			},
			{
				"x": -3.0883778931,
				"y": -2.3180763395,
				"z": 5.2164753219,
				"element": "C" 
			},
			{
				"x": -2.0062168045,
				"y": -2.2165677131,
				"z": 4.3497108345,
				"element": "C" 
			},
			{
				"x": 0.8953464977,
				"y": -0.1663121772,
				"z": -5.4769096759,
				"element": "N" 
			},
			{
				"x": 1.3103771194,
				"y": -0.4097121069,
				"z": -6.6297654308,
				"element": "O" 
			},
			{
				"x": -0.2436237247,
				"y": 0.3977419853,
				"z": -5.2999997658,
				"element": "N" 
			},
			{
				"x": -0.8483269195,
				"y": 0.439835407,
				"z": -4.0340484913,
				"element": "C" 
			},
			{
				"x": -1.5163517591,
				"y": 1.6389877294,
				"z": -3.7064457744,
				"element": "C" 
			},
			{
				"x": -2.2035679281,
				"y": 1.7645578297,
				"z": -2.5111597639,
				"element": "C" 
			},
			{
				"x": -2.2671419735,
				"y": 0.6777588636,
				"z": -1.6188440521,
				"element": "C" 
			},
			{
				"x": -1.6427779215,
				"y": -0.5301897853,
				"z": -1.9634305982,
				"element": "C" 
			},
			{
				"x": -0.9460581831,
				"y": -0.6580358698,
				"z": -3.1584621586,
				"element": "C" 
			},
			{
				"x": -2.922971472,
				"y": 0.6966478648,
				"z": -0.36743465,
				"element": "N" 
			},
			{
				"x": -3.5460954731,
				"y": 1.7653155326,
				"z": -0.1147424855,
				"element": "N" 
			},
			{
				"x": -4.1714323511,
				"y": 1.8052613992,
				"z": 1.1549257427,
				"element": "C" 
			},
			{
				"x": -4.0043727716,
				"y": 0.8370462237,
				"z": 2.1610528426,
				"element": "C" 
			},
			{
				"x": -4.6578669568,
				"y": 0.9912672983,
				"z": 3.3781606567,
				"element": "C" 
			},
			{
				"x": -5.4829713483,
				"y": 2.1009805332,
				"z": 3.6037461583,
				"element": "C" 
			},
			{
				"x": -5.648424885,
				"y": 3.0645581709,
				"z": 2.6068129728,
				"element": "C" 
			},
			{
				"x": -4.9890169037,
				"y": 2.9203909442,
				"z": 1.3876341645,
				"element": "C" 
			},
			{
				"x": 4.1123815163,
				"y": -4.0490950668,
				"z": -3.1209175476,
				"element": "H" 
			},
			{
				"x": 4.3302989732,
				"y": -3.6581902135,
				"z": -4.8318015243,
				"element": "H" 
			},
			{
				"x": 5.4744837157,
				"y": -3.0503242858,
				"z": -3.6083472206,
				"element": "H" 
			},
			{
				"x": 2.4377334165,
				"y": -2.2717276299,
				"z": -5.456296332,
				"element": "H" 
			},
			{
				"x": 1.5243621865,
				"y": 1.2856576258,
				"z": -3.2364870202,
				"element": "H" 
			},
			{
				"x": 3.2518222075,
				"y": 0.6813075358,
				"z": -1.5638499051,
				"element": "H" 
			},
			{
				"x": 2.5651004208,
				"y": -2.9545575511,
				"z": -0.9209539091,
				"element": "H" 
			},
			{
				"x": 0.6080618995,
				"y": -3.0979997254,
				"z": 0.6229182048,
				"element": "H" 
			},
			{
				"x": 2.4261183892,
				"y": -0.2511703058,
				"z": 3.2540896046,
				"element": "H" 
			},
			{
				"x": 4.4363554405,
				"y": -0.1575676757,
				"z": 1.7546408049,
				"element": "H" 
			},
			{
				"x": -0.1799286895,
				"y": 0.1139350181,
				"z": 6.0270533961,
				"element": "H" 
			},
			{
				"x": -2.129284517,
				"y": -0.0651164249,
				"z": 7.5894774455,
				"element": "H" 
			},
			{
				"x": -3.9835548234,
				"y": -1.6342539453,
				"z": 7.0590592326,
				"element": "H" 
			},
			{
				"x": -3.8992005082,
				"y": -3.0042434879,
				"z": 4.9887581799,
				"element": "H" 
			},
			{
				"x": -1.9472553215,
				"y": -2.8086421068,
				"z": 3.4437840415,
				"element": "H" 
			},
			{
				"x": -1.4672874851,
				"y": 2.4624788359,
				"z": -4.4117982589,
				"element": "H" 
			},
			{
				"x": -2.7017997501,
				"y": 2.6890713942,
				"z": -2.2434022799,
				"element": "H" 
			},
			{
				"x": -1.7229153367,
				"y": -1.3623964419,
				"z": -1.2712356912,
				"element": "H" 
			},
			{
				"x": -0.4861732475,
				"y": -1.6041081865,
				"z": -3.4222161379,
				"element": "H" 
			},
			{
				"x": -3.3579748395,
				"y": -0.0119224,
				"z": 1.9705865986,
				"element": "H" 
			},
			{
				"x": -4.5190849462,
				"y": 0.2494267002,
				"z": 4.1591621813,
				"element": "H" 
			},
			{
				"x": -5.9894811072,
				"y": 2.2143774257,
				"z": 4.5581082679,
				"element": "H" 
			},
			{
				"x": -6.284926664,
				"y": 3.9271546941,
				"z": 2.7807355628,
				"element": "H" 
			},
			{
				"x": -5.0919366725,
				"y": 3.6550080462,
				"z": 0.5952008352,
				"element": "H" 
			}
		],
		 "valence_orbital": [ 
			{
				"type": "occ",
				"energy": -0.24839,
				"method": "rhf"
			},
			{
				"type": "occ",
				"energy": -0.23788,
				"method": "rhf"
			},
			{
				"type": "occ",
				"energy": -0.22685,
				"method": "rhf"
			},
			{
				"type": "occ",
				"energy": -0.22439,
				"method": "rhf"
			},
			{
				"type": "occ",
				"energy": -0.21477,
				"method": "rhf"
			},
			{
				"type": "unocc",
				"energy": -0.10708,
				"method": "rhf"
			},
			{
				"type": "unocc",
				"energy": -0.09108,
				"method": "rhf"
			},
			{
				"type": "unocc",
				"energy": -0.07506,
				"method": "rhf"
			},
			{
				"type": "unocc",
				"energy": -0.05883,
				"method": "rhf"
			},
			{
				"type": "unocc",
				"energy": -0.03065,
				"method": "rhf"
			}
		],
		"cosmo_sigma_profile": { 
			"-0.025": 0.0,
			"-0.024": 0.0,
			"-0.023": 0.0,
			"-0.022": 0.0,
			"-0.021": 0.0,
			"-0.02": 0.0,
			"-0.019": 0.0,
			"-0.018": 0.0,
			"-0.017": 0.0,
			"-0.016": 0.0,
			"-0.015": 0.0,
			"-0.014": 0.0,
			"-0.013": 0.0,
			"-0.012": 0.0,
			"-0.011": 0.0,
			"-0.01": 0.00363629840332,
			"-0.009": 0.320901549861,
			"-0.008": 4.4793575279,
			"-0.007": 19.2585815059,
			"-0.006": 37.3362168646,
			"-0.005": 42.0058822616,
			"-0.004": 40.0324171249,
			"-0.003": 34.9457219251,
			"-0.002": 36.7762109532,
			"-0.001": 42.8405288387,
			"0.0": 45.1651537446,
			"0.001": 63.2964997965,
			"0.002": 72.2342636349,
			"0.003": 47.0534428891,
			"0.004": 30.1387645013,
			"0.005": 12.7736166548,
			"0.006": 9.28523299048,
			"0.007": 9.62835416473,
			"0.008": 6.87464870147,
			"0.009": 6.93379181806,
			"0.01": 7.74061919001,
			"0.011": 5.77020792763,
			"0.012": 3.9939082334,
			"0.013": 2.36276459242,
			"0.014": 0.0460253974788,
			"0.015": 0.0,
			"0.016": 0.0,
			"0.017": 0.0,
			"0.018": 0.0,
			"0.019": 0.0,
			"0.02": 0.0,
			"0.021": 0.0,
			"0.022": 0.0,
			"0.023": 0.0,
			"0.024": 0.0,
			"0.025": 0.0
		}
	}
}
