{
	 "smiles": "ClC(=O)C1=CC=C(OC2=CC(Cl)=CC(Cl)=C2)O1", 
	 "Tm": 334.15, 
	 "num_atms": 22, 
	 "gaussian": { 
		 "optdone": 1, 
		 "sigma_profile": "yes", 
		 "theory": "DFT", 
		 "functional": "B3LYP", 
		 "basiset": "6-31G**", 
		 "properties": { 
			 "R2extent": 8966.7582, 
			 "electric_dipole_moment_norm": 4.90297218634, 
			 "electric_quadrupole_moment_norm": 26.1117775808, 
			 "total_energy": -2028.3965945, 
			 "HOMO_LUMO_gap": 0.17193, 
			 "cosmo_polarized_energy": -10.91, 
			 "cosmo_cavitation_energy": 34.5, 
			 "cosmo_dispersion_energy": -25.14, 
			 "cosmo_repulsion_energy": 1.98, 
			 "cosmo_total_nonelectrostatic_energy": 11.34, 
			 "SMD_solvation_energy": 6.97 
		},
		"coords": [
			{
				"x": 1.6932863927,
				"y": -5.292619948,
				"z": 3.7805568172,
				"element": "Cl" 
			},
			{
				"x": 0.3785078706,
				"y": -4.7452095738,
				"z": 2.6236008973,
				"element": "C" 
			},
			{
				"x": -0.6375249727,
				"y": -5.365067828,
				"z": 2.5170558334,
				"element": "O" 
			},
			{
				"x": 0.7544531134,
				"y": -3.5390413418,
				"z": 1.9267099901,
				"element": "C" 
			},
			{
				"x": 1.8609076036,
				"y": -2.7233887072,
				"z": 1.9211367749,
				"element": "C" 
			},
			{
				"x": 1.6117507642,
				"y": -1.6829416732,
				"z": 0.9904348361,
				"element": "C" 
			},
			{
				"x": 0.3542963306,
				"y": -1.9452493183,
				"z": 0.4938561468,
				"element": "C" 
			},
			{
				"x": -0.4309090542,
				"y": -1.3777171254,
				"z": -0.4331600912,
				"element": "O" 
			},
			{
				"x": -0.1762813926,
				"y": -0.0733743878,
				"z": -0.8428960952,
				"element": "C" 
			},
			{
				"x": -0.1743902949,
				"y": 0.1502577806,
				"z": -2.2171549783,
				"element": "C" 
			},
			{
				"x": -0.0003730398,
				"y": 1.4579246891,
				"z": -2.6675623864,
				"element": "C" 
			},
			{
				"x": 0.0073711911,
				"y": 1.7705525903,
				"z": -4.3892330664,
				"element": "Cl" 
			},
			{
				"x": 0.1748615829,
				"y": 2.5235399579,
				"z": -1.784665796,
				"element": "C" 
			},
			{
				"x": 0.1622800602,
				"y": 2.2512411036,
				"z": -0.4165496147,
				"element": "C" 
			},
			{
				"x": 0.3672634924,
				"y": 3.5727284206,
				"z": 0.713942416,
				"element": "Cl" 
			},
			{
				"x": -0.0180339804,
				"y": 0.960825041,
				"z": 0.0791417247,
				"element": "C" 
			},
			{
				"x": -0.1832533742,
				"y": -3.0432665384,
				"z": 1.0343311885,
				"element": "O" 
			},
			{
				"x": 2.7492143104,
				"y": -2.8668075897,
				"z": 2.5175575253,
				"element": "H" 
			},
			{
				"x": 2.2605770205,
				"y": -0.8665134495,
				"z": 0.7165994052,
				"element": "H" 
			},
			{
				"x": -0.3097482379,
				"y": -0.6758117032,
				"z": -2.903886934,
				"element": "H" 
			},
			{
				"x": 0.313211738,
				"y": 3.5330112701,
				"z": -2.1501200256,
				"element": "H" 
			},
			{
				"x": -0.0432671238,
				"y": 0.7712283311,
				"z": 1.1448054324,
				"element": "H" 
			}
		],
		 "valence_orbital": [ 
			{
				"type": "occ",
				"energy": -0.31616,
				"method": "rhf"
			},
			{
				"type": "occ",
				"energy": -0.29463,
				"method": "rhf"
			},
			{
				"type": "occ",
				"energy": -0.28478,
				"method": "rhf"
			},
			{
				"type": "occ",
				"energy": -0.27621,
				"method": "rhf"
			},
			{
				"type": "occ",
				"energy": -0.24717,
				"method": "rhf"
			},
			{
				"type": "unocc",
				"energy": -0.07524,
				"method": "rhf"
			},
			{
				"type": "unocc",
				"energy": -0.05023,
				"method": "rhf"
			},
			{
				"type": "unocc",
				"energy": -0.04508,
				"method": "rhf"
			},
			{
				"type": "unocc",
				"energy": -0.01585,
				"method": "rhf"
			},
			{
				"type": "unocc",
				"energy": 0.01555,
				"method": "rhf"
			}
		],
		"cosmo_sigma_profile": { 
			"-0.025": 0.0,
			"-0.024": 0.0,
			"-0.023": 0.0,
			"-0.022": 0.0,
			"-0.021": 0.0,
			"-0.02": 0.0,
			"-0.019": 0.0,
			"-0.018": 0.0,
			"-0.017": 0.0,
			"-0.016": 0.0,
			"-0.015": 0.0,
			"-0.014": 0.0,
			"-0.013": 0.0,
			"-0.012": 0.0,
			"-0.011": 0.0,
			"-0.01": 0.44093970818,
			"-0.009": 5.62877478152,
			"-0.008": 8.09743415565,
			"-0.007": 7.2511532207,
			"-0.006": 10.6083004955,
			"-0.005": 9.5116469036,
			"-0.004": 12.2697634891,
			"-0.003": 18.3102044975,
			"-0.002": 21.821200199,
			"-0.001": 29.0805306515,
			"0.0": 36.3798282102,
			"0.001": 24.8951210915,
			"0.002": 19.9870121844,
			"0.003": 25.8191403852,
			"0.004": 25.0767106639,
			"0.005": 11.1831472772,
			"0.006": 4.78556793707,
			"0.007": 3.41778365013,
			"0.008": 3.91894125858,
			"0.009": 5.89601098379,
			"0.01": 1.77166508072,
			"0.011": 0.0169498391225,
			"0.012": 0.0,
			"0.013": 0.0,
			"0.014": 0.0,
			"0.015": 0.0,
			"0.016": 0.0,
			"0.017": 0.0,
			"0.018": 0.0,
			"0.019": 0.0,
			"0.02": 0.0,
			"0.021": 0.0,
			"0.022": 0.0,
			"0.023": 0.0,
			"0.024": 0.0,
			"0.025": 0.0
		}
	}
}
