{
	 "smiles": "NC1=C(OC(F)F)C=CC(=C1)C(O)=O", 
	 "Tm": 429.15, 
	 "num_atms": 21, 
	 "gaussian": { 
		 "optdone": 1, 
		 "sigma_profile": "yes", 
		 "theory": "DFT", 
		 "functional": "B3LYP", 
		 "basiset": "6-31G**", 
		 "properties": { 
			 "R2extent": 4012.5976, 
			 "electric_dipole_moment_norm": 3.34505179183, 
			 "electric_quadrupole_moment_norm": 24.57312263, 
			 "total_energy": -789.178117763, 
			 "HOMO_LUMO_gap": 0.17579, 
			 "cosmo_polarized_energy": -17.95, 
			 "cosmo_cavitation_energy": 26.91, 
			 "cosmo_dispersion_energy": -19.58, 
			 "cosmo_repulsion_energy": 1.5, 
			 "cosmo_total_nonelectrostatic_energy": 8.83, 
			 "SMD_solvation_energy": 6.97 
		},
		"coords": [
			{
				"x": -1.3159094236,
				"y": -1.1543085305,
				"z": 0.4796386978,
				"element": "N" 
			},
			{
				"x": 0.0255903545,
				"y": -0.8818640806,
				"z": 0.2836465501,
				"element": "C" 
			},
			{
				"x": 0.6274808655,
				"y": 0.2118236837,
				"z": 0.9461793298,
				"element": "C" 
			},
			{
				"x": -0.1992101401,
				"y": 0.8786962751,
				"z": 1.8446144945,
				"element": "O" 
			},
			{
				"x": -0.0807086786,
				"y": 2.245637776,
				"z": 1.937630177,
				"element": "C" 
			},
			{
				"x": -1.2120601495,
				"y": 2.6958077807,
				"z": 2.5063597419,
				"element": "F" 
			},
			{
				"x": 0.9536693306,
				"y": 2.583087213,
				"z": 2.7607215664,
				"element": "F" 
			},
			{
				"x": 1.9623641337,
				"y": 0.5443659909,
				"z": 0.7463022529,
				"element": "C" 
			},
			{
				"x": 2.7309905853,
				"y": -0.1910244893,
				"z": -0.1579930735,
				"element": "C" 
			},
			{
				"x": 2.1557353464,
				"y": -1.2728453136,
				"z": -0.8368800744,
				"element": "C" 
			},
			{
				"x": 0.8215993584,
				"y": -1.6194521451,
				"z": -0.5994623263,
				"element": "C" 
			},
			{
				"x": 2.92003273,
				"y": -2.1264720398,
				"z": -1.8036313949,
				"element": "C" 
			},
			{
				"x": 4.040891019,
				"y": -1.5776745728,
				"z": -2.3449907954,
				"element": "O" 
			},
			{
				"x": 2.5865613059,
				"y": -3.2466069576,
				"z": -2.1129072302,
				"element": "O" 
			},
			{
				"x": -1.7251579317,
				"y": -0.7630598888,
				"z": 1.3154200113,
				"element": "H" 
			},
			{
				"x": -1.6154281617,
				"y": -2.0949675851,
				"z": 0.2704441169,
				"element": "H" 
			},
			{
				"x": 0.0800726146,
				"y": 2.7234618045,
				"z": 0.9642925429,
				"element": "H" 
			},
			{
				"x": 2.4030166648,
				"y": 1.3518286901,
				"z": 1.3187901624,
				"element": "H" 
			},
			{
				"x": 3.7837767297,
				"y": 0.0524090838,
				"z": -0.2675213074,
				"element": "H" 
			},
			{
				"x": 0.4081571589,
				"y": -2.4723182866,
				"z": -1.1281794079,
				"element": "H" 
			},
			{
				"x": 4.0814362882,
				"y": -0.6348244077,
				"z": -2.1328740338,
				"element": "H" 
			}
		],
		 "valence_orbital": [ 
			{
				"type": "occ",
				"energy": -0.33455,
				"method": "rhf"
			},
			{
				"type": "occ",
				"energy": -0.31432,
				"method": "rhf"
			},
			{
				"type": "occ",
				"energy": -0.27563,
				"method": "rhf"
			},
			{
				"type": "occ",
				"energy": -0.26142,
				"method": "rhf"
			},
			{
				"type": "occ",
				"energy": -0.2236,
				"method": "rhf"
			},
			{
				"type": "unocc",
				"energy": -0.04781,
				"method": "rhf"
			},
			{
				"type": "unocc",
				"energy": -0.01656,
				"method": "rhf"
			},
			{
				"type": "unocc",
				"energy": 0.05098,
				"method": "rhf"
			},
			{
				"type": "unocc",
				"energy": 0.0623,
				"method": "rhf"
			},
			{
				"type": "unocc",
				"energy": 0.07511,
				"method": "rhf"
			}
		],
		"cosmo_sigma_profile": { 
			"-0.025": 0.0,
			"-0.024": 0.0,
			"-0.023": 0.0,
			"-0.022": 0.0,
			"-0.021": 0.0,
			"-0.02": 0.0,
			"-0.019": 0.0689414884901,
			"-0.018": 0.569358872076,
			"-0.017": 0.985058359927,
			"-0.016": 0.7038511639,
			"-0.015": 0.930059846227,
			"-0.014": 1.49020209405,
			"-0.013": 2.53476122137,
			"-0.012": 2.65485423404,
			"-0.011": 4.49763137285,
			"-0.01": 6.23822887536,
			"-0.009": 6.14499291878,
			"-0.008": 5.94448574008,
			"-0.007": 6.14475122724,
			"-0.006": 9.12447156124,
			"-0.005": 7.93185021726,
			"-0.004": 5.85441749296,
			"-0.003": 7.32282447522,
			"-0.002": 8.53083683805,
			"-0.001": 9.58454538634,
			"0.0": 10.801763492,
			"0.001": 13.5001007903,
			"0.002": 16.0720007458,
			"0.003": 30.5009365789,
			"0.004": 19.1501334456,
			"0.005": 4.57101283941,
			"0.006": 3.48403118587,
			"0.007": 2.9523361794,
			"0.008": 3.35808628822,
			"0.009": 4.56232466282,
			"0.01": 5.09048336889,
			"0.011": 6.13720623474,
			"0.012": 5.42401550217,
			"0.013": 2.07115635248,
			"0.014": 0.139239018935,
			"0.015": 0.0,
			"0.016": 0.0,
			"0.017": 0.0,
			"0.018": 0.0,
			"0.019": 0.0,
			"0.02": 0.0,
			"0.021": 0.0,
			"0.022": 0.0,
			"0.023": 0.0,
			"0.024": 0.0,
			"0.025": 0.0
		}
	}
}
