{
	 "smiles": "CC(C)(C)OC(=O)N1CCCC1CC(O)=O", 
	 "Tm": 381.15, 
	 "num_atms": 35, 
	 "gaussian": { 
		 "optdone": 1, 
		 "sigma_profile": "yes", 
		 "theory": "DFT", 
		 "functional": "B3LYP", 
		 "basiset": "6-31G**", 
		 "properties": { 
			 "R2extent": 4479.0055, 
			 "electric_dipole_moment_norm": 1.799378715, 
			 "electric_quadrupole_moment_norm": 12.7339377292, 
			 "total_energy": -786.329855027, 
			 "HOMO_LUMO_gap": 0.24184, 
			 "cosmo_polarized_energy": -13.15, 
			 "cosmo_cavitation_energy": 36.34, 
			 "cosmo_dispersion_energy": -24.61, 
			 "cosmo_repulsion_energy": 1.95, 
			 "cosmo_total_nonelectrostatic_energy": 13.68, 
			 "SMD_solvation_energy": 7.41 
		},
		"coords": [
			{
				"x": 0.052080318,
				"y": 3.3086454783,
				"z": 0.7118603319,
				"element": "C" 
			},
			{
				"x": -0.5563615991,
				"y": 2.5068867474,
				"z": -0.4440784422,
				"element": "C" 
			},
			{
				"x": -0.0099645058,
				"y": 2.9981012507,
				"z": -1.7875051786,
				"element": "C" 
			},
			{
				"x": -2.0883554313,
				"y": 2.5448615331,
				"z": -0.4342511781,
				"element": "C" 
			},
			{
				"x": -0.0838889752,
				"y": 1.1139330273,
				"z": -0.3947697683,
				"element": "O" 
			},
			{
				"x": -0.3673866233,
				"y": 0.3210236058,
				"z": 0.6742763457,
				"element": "C" 
			},
			{
				"x": -1.0207581137,
				"y": 0.6543013412,
				"z": 1.6532455627,
				"element": "O" 
			},
			{
				"x": 0.1759380067,
				"y": -0.9235166827,
				"z": 0.5096297619,
				"element": "N" 
			},
			{
				"x": 0.1999751553,
				"y": -1.857042675,
				"z": 1.6447677573,
				"element": "C" 
			},
			{
				"x": 1.5661792087,
				"y": -2.5373612437,
				"z": 1.5026464627,
				"element": "C" 
			},
			{
				"x": 1.755730654,
				"y": -2.6105723791,
				"z": -0.0199055189,
				"element": "C" 
			},
			{
				"x": 1.1322231641,
				"y": -1.300309662,
				"z": -0.5540213411,
				"element": "C" 
			},
			{
				"x": 0.4448301978,
				"y": -1.4592320861,
				"z": -1.9153554171,
				"element": "C" 
			},
			{
				"x": 1.4218644344,
				"y": -1.7555104569,
				"z": -3.0291266312,
				"element": "C" 
			},
			{
				"x": 0.7829698655,
				"y": -2.0040251966,
				"z": -4.1979781016,
				"element": "O" 
			},
			{
				"x": 2.6314406725,
				"y": -1.7659922025,
				"z": -2.9367022264,
				"element": "O" 
			},
			{
				"x": -0.2116868021,
				"y": 4.3658881042,
				"z": 0.6045052284,
				"element": "H" 
			},
			{
				"x": -0.3161660827,
				"y": 2.9477616286,
				"z": 1.6721774849,
				"element": "H" 
			},
			{
				"x": 1.143784298,
				"y": 3.2282729397,
				"z": 0.6958576084,
				"element": "H" 
			},
			{
				"x": -0.2820754057,
				"y": 4.0464074255,
				"z": -1.942409562,
				"element": "H" 
			},
			{
				"x": -0.4222089503,
				"y": 2.4107381626,
				"z": -2.613625098,
				"element": "H" 
			},
			{
				"x": 1.0804850038,
				"y": 2.915717942,
				"z": -1.8150615631,
				"element": "H" 
			},
			{
				"x": -2.4810624189,
				"y": 2.1763432695,
				"z": 0.5133587165,
				"element": "H" 
			},
			{
				"x": -2.4311121578,
				"y": 3.5736999352,
				"z": -0.585776286,
				"element": "H" 
			},
			{
				"x": -2.4888647271,
				"y": 1.9313493722,
				"z": -1.2478197268,
				"element": "H" 
			},
			{
				"x": 0.0630358909,
				"y": -1.3037066973,
				"z": 2.5749810851,
				"element": "H" 
			},
			{
				"x": -0.6181288909,
				"y": -2.5861600263,
				"z": 1.5646147743,
				"element": "H" 
			},
			{
				"x": 2.3424201225,
				"y": -1.9093819336,
				"z": 1.954732371,
				"element": "H" 
			},
			{
				"x": 1.6033213363,
				"y": -3.5175569171,
				"z": 1.9861159752,
				"element": "H" 
			},
			{
				"x": 2.7951153499,
				"y": -2.712053235,
				"z": -0.3354030536,
				"element": "H" 
			},
			{
				"x": 1.2040828869,
				"y": -3.4707243464,
				"z": -0.4204448985,
				"element": "H" 
			},
			{
				"x": 1.900201056,
				"y": -0.5247593959,
				"z": -0.6457484105,
				"element": "H" 
			},
			{
				"x": -0.0878932451,
				"y": -0.5392156872,
				"z": -2.1756140193,
				"element": "H" 
			},
			{
				"x": -0.3081129963,
				"y": -2.2555220679,
				"z": -1.8840958875,
				"element": "H" 
			},
			{
				"x": 1.4798493043,
				"y": -2.1666888722,
				"z": -4.8560771571,
				"element": "H" 
			}
		],
		 "valence_orbital": [ 
			{
				"type": "occ",
				"energy": -0.32152,
				"method": "rhf"
			},
			{
				"type": "occ",
				"energy": -0.28477,
				"method": "rhf"
			},
			{
				"type": "occ",
				"energy": -0.27967,
				"method": "rhf"
			},
			{
				"type": "occ",
				"energy": -0.25655,
				"method": "rhf"
			},
			{
				"type": "occ",
				"energy": -0.23539,
				"method": "rhf"
			},
			{
				"type": "unocc",
				"energy": 0.00645,
				"method": "rhf"
			},
			{
				"type": "unocc",
				"energy": 0.05343,
				"method": "rhf"
			},
			{
				"type": "unocc",
				"energy": 0.0761,
				"method": "rhf"
			},
			{
				"type": "unocc",
				"energy": 0.07839,
				"method": "rhf"
			},
			{
				"type": "unocc",
				"energy": 0.09272,
				"method": "rhf"
			}
		],
		"cosmo_sigma_profile": { 
			"-0.025": 0.0,
			"-0.024": 0.0,
			"-0.023": 0.0,
			"-0.022": 0.0,
			"-0.021": 0.0,
			"-0.02": 0.0,
			"-0.019": 0.0,
			"-0.018": 0.524391632037,
			"-0.017": 1.13742140975,
			"-0.016": 0.495875978698,
			"-0.015": 0.899557728795,
			"-0.014": 0.989345162485,
			"-0.013": 0.519558406233,
			"-0.012": 0.357915423895,
			"-0.011": 1.02441016544,
			"-0.01": 1.17514432927,
			"-0.009": 0.232527151859,
			"-0.008": 0.174899338804,
			"-0.007": 0.762544039889,
			"-0.006": 4.02022743608,
			"-0.005": 6.66022642358,
			"-0.004": 24.5874979186,
			"-0.003": 38.6268129148,
			"-0.002": 36.5834955086,
			"-0.001": 32.3756116312,
			"0.0": 36.8044403981,
			"0.001": 26.1135993367,
			"0.002": 9.78398778927,
			"0.003": 8.62392112071,
			"0.004": 6.42791872931,
			"0.005": 5.80238601269,
			"0.006": 4.55209490445,
			"0.007": 4.48052629943,
			"0.008": 5.12596287282,
			"0.009": 4.36195336687,
			"0.01": 4.37607265801,
			"0.011": 4.5070464921,
			"0.012": 5.22487933185,
			"0.013": 2.58688816083,
			"0.014": 2.22553044507,
			"0.015": 0.000609248868114,
			"0.016": 0.0,
			"0.017": 0.0,
			"0.018": 0.0,
			"0.019": 0.0,
			"0.02": 0.0,
			"0.021": 0.0,
			"0.022": 0.0,
			"0.023": 0.0,
			"0.024": 0.0,
			"0.025": 0.0
		}
	}
}
