{
	 "smiles": "OC(=O)C(F)(F)C(F)(F)C(F)(F)C(F)(C(F)(F)F)C(F)(F)F", 
	 "Tm": 286.15, 
	 "num_atms": 23, 
	 "gaussian": { 
		 "optdone": 1, 
		 "sigma_profile": "yes", 
		 "theory": "DFT", 
		 "functional": "B3LYP", 
		 "basiset": "6-31G**", 
		 "properties": { 
			 "R2extent": 5754.8034, 
			 "electric_dipole_moment_norm": 2.81667441853, 
			 "electric_quadrupole_moment_norm": 15.0791733742, 
			 "total_energy": -1715.66736961, 
			 "HOMO_LUMO_gap": 0.26382, 
			 "cosmo_polarized_energy": -8.54, 
			 "cosmo_cavitation_energy": 31.65, 
			 "cosmo_dispersion_energy": -21.24, 
			 "cosmo_repulsion_energy": 1.38, 
			 "cosmo_total_nonelectrostatic_energy": 11.79, 
			 "SMD_solvation_energy": 10.57 
		},
		"coords": [
			{
				"x": 2.5222905057,
				"y": -2.2987689983,
				"z": -3.1705691056,
				"element": "O" 
			},
			{
				"x": 2.1058180301,
				"y": -1.058350485,
				"z": -2.8826990128,
				"element": "C" 
			},
			{
				"x": 1.3490180475,
				"y": -0.4263039271,
				"z": -3.5639015744,
				"element": "O" 
			},
			{
				"x": 2.6784732434,
				"y": -0.4851265976,
				"z": -1.5574453849,
				"element": "C" 
			},
			{
				"x": 3.920014087,
				"y": -1.0400784353,
				"z": -1.3433309855,
				"element": "F" 
			},
			{
				"x": 2.8160320433,
				"y": 0.8449446049,
				"z": -1.6507862007,
				"element": "F" 
			},
			{
				"x": 1.856291642,
				"y": -0.843061212,
				"z": -0.2852181504,
				"element": "C" 
			},
			{
				"x": 2.469385594,
				"y": -0.264677883,
				"z": 0.7716294542,
				"element": "F" 
			},
			{
				"x": 1.9227283515,
				"y": -2.1933837724,
				"z": -0.1526736734,
				"element": "F" 
			},
			{
				"x": 0.362464177,
				"y": -0.4192758354,
				"z": -0.3275150394,
				"element": "C" 
			},
			{
				"x": 0.2862112614,
				"y": 0.817508386,
				"z": -0.8658695562,
				"element": "F" 
			},
			{
				"x": -0.2573443148,
				"y": -1.2823113557,
				"z": -1.1721948433,
				"element": "F" 
			},
			{
				"x": -0.4702003221,
				"y": -0.3881642353,
				"z": 1.004069227,
				"element": "C" 
			},
			{
				"x": -1.7023116882,
				"y": 0.068067269,
				"z": 0.6019538822,
				"element": "F" 
			},
			{
				"x": 0.0386206265,
				"y": 0.6220539937,
				"z": 2.086040576,
				"element": "C" 
			},
			{
				"x": 0.9410536907,
				"y": 0.0464006511,
				"z": 2.8945365333,
				"element": "F" 
			},
			{
				"x": 0.5967931818,
				"y": 1.7037087129,
				"z": 1.5295047702,
				"element": "F" 
			},
			{
				"x": -0.9998958611,
				"y": 1.0209534101,
				"z": 2.8259567432,
				"element": "F" 
			},
			{
				"x": -0.7237813277,
				"y": -1.785203201,
				"z": 1.6374122087,
				"element": "C" 
			},
			{
				"x": 0.4292448406,
				"y": -2.3826173415,
				"z": 1.9726111126,
				"element": "F" 
			},
			{
				"x": -1.3874009761,
				"y": -2.5733396166,
				"z": 0.7882198017,
				"element": "F" 
			},
			{
				"x": -1.4666370128,
				"y": -1.6428897029,
				"z": 2.7444601769,
				"element": "F" 
			},
			{
				"x": 3.1828321803,
				"y": -2.5900844288,
				"z": -2.5219909597,
				"element": "H" 
			}
		],
		 "valence_orbital": [ 
			{
				"type": "occ",
				"energy": -0.40006,
				"method": "rhf"
			},
			{
				"type": "occ",
				"energy": -0.38709,
				"method": "rhf"
			},
			{
				"type": "occ",
				"energy": -0.36967,
				"method": "rhf"
			},
			{
				"type": "occ",
				"energy": -0.35163,
				"method": "rhf"
			},
			{
				"type": "occ",
				"energy": -0.31064,
				"method": "rhf"
			},
			{
				"type": "unocc",
				"energy": -0.04682,
				"method": "rhf"
			},
			{
				"type": "unocc",
				"energy": -0.00276,
				"method": "rhf"
			},
			{
				"type": "unocc",
				"energy": 0.02671,
				"method": "rhf"
			},
			{
				"type": "unocc",
				"energy": 0.04416,
				"method": "rhf"
			},
			{
				"type": "unocc",
				"energy": 0.06294,
				"method": "rhf"
			}
		],
		"cosmo_sigma_profile": { 
			"-0.025": 0.0,
			"-0.024": 0.0,
			"-0.023": 0.0,
			"-0.022": 0.0,
			"-0.021": 0.0,
			"-0.02": 0.177237395631,
			"-0.019": 0.576465340308,
			"-0.018": 0.926684479546,
			"-0.017": 0.486755899438,
			"-0.016": 0.494596635175,
			"-0.015": 0.493423514849,
			"-0.014": 1.34564271616,
			"-0.013": 0.854887297236,
			"-0.012": 0.669862219257,
			"-0.011": 1.03066768594,
			"-0.01": 1.36451899278,
			"-0.009": 1.92889790408,
			"-0.008": 1.82162491821,
			"-0.007": 1.32627116893,
			"-0.006": 1.93826623656,
			"-0.005": 2.87851988829,
			"-0.004": 5.09079584431,
			"-0.003": 8.05640049761,
			"-0.002": 15.047112686,
			"-0.001": 26.7869307599,
			"0.0": 65.0385118453,
			"0.001": 77.6647886778,
			"0.002": 7.50237575391,
			"0.003": 3.98290836897,
			"0.004": 3.83628173574,
			"0.005": 4.19731730639,
			"0.006": 4.0034263835,
			"0.007": 4.56679122626,
			"0.008": 4.13342907282,
			"0.009": 4.60252752204,
			"0.01": 1.60339914766,
			"0.011": 0.0365260415314,
			"0.012": 0.0,
			"0.013": 0.0,
			"0.014": 0.0,
			"0.015": 0.0,
			"0.016": 0.0,
			"0.017": 0.0,
			"0.018": 0.0,
			"0.019": 0.0,
			"0.02": 0.0,
			"0.021": 0.0,
			"0.022": 0.0,
			"0.023": 0.0,
			"0.024": 0.0,
			"0.025": 0.0
		}
	}
}
