{
	 "smiles": "OC(=O)C1CSC(N1)C1=CSC=C1", 
	 "Tm": 418.15, 
	 "num_atms": 22, 
	 "gaussian": { 
		 "optdone": 1, 
		 "sigma_profile": "yes", 
		 "theory": "DFT", 
		 "functional": "B3LYP", 
		 "basiset": "6-31G**", 
		 "properties": { 
			 "R2extent": 4588.0945, 
			 "electric_dipole_moment_norm": 2.09822606265, 
			 "electric_quadrupole_moment_norm": 12.4342259542, 
			 "total_energy": -1311.83718568, 
			 "HOMO_LUMO_gap": 0.21015, 
			 "cosmo_polarized_energy": -13.15, 
			 "cosmo_cavitation_energy": 28.65, 
			 "cosmo_dispersion_energy": -21.76, 
			 "cosmo_repulsion_energy": 1.63, 
			 "cosmo_total_nonelectrostatic_energy": 8.52, 
			 "SMD_solvation_energy": 2.78 
		},
		"coords": [
			{
				"x": -3.2953390425,
				"y": -0.9217997381,
				"z": -1.9990349137,
				"element": "O" 
			},
			{
				"x": -2.1623938719,
				"y": -0.7808192873,
				"z": -1.2798460616,
				"element": "C" 
			},
			{
				"x": -1.9965155009,
				"y": -1.3056702792,
				"z": -0.1996303851,
				"element": "O" 
			},
			{
				"x": -1.1557863877,
				"y": 0.1368261792,
				"z": -1.9742910736,
				"element": "C" 
			},
			{
				"x": -0.7375241765,
				"y": -0.4141588892,
				"z": -3.3634251397,
				"element": "C" 
			},
			{
				"x": 0.6967856043,
				"y": -1.4978386206,
				"z": -3.0429743658,
				"element": "S" 
			},
			{
				"x": 1.2429118435,
				"y": -0.2367443114,
				"z": -1.7451206477,
				"element": "C" 
			},
			{
				"x": 0.0296889649,
				"y": 0.2985341302,
				"z": -1.1363757802,
				"element": "N" 
			},
			{
				"x": 2.1822816699,
				"y": -0.8379760148,
				"z": -0.7417458896,
				"element": "C" 
			},
			{
				"x": 3.4897432774,
				"y": -0.4534279923,
				"z": -0.5975457137,
				"element": "C" 
			},
			{
				"x": 4.2934892691,
				"y": -1.3437317498,
				"z": 0.6512904479,
				"element": "S" 
			},
			{
				"x": 2.8511156478,
				"y": -2.2489293859,
				"z": 0.9924941272,
				"element": "C" 
			},
			{
				"x": 1.8193117784,
				"y": -1.8787639704,
				"z": 0.1796547263,
				"element": "C" 
			},
			{
				"x": -3.8782716254,
				"y": -1.508135033,
				"z": -1.4877330932,
				"element": "H" 
			},
			{
				"x": -1.6716777969,
				"y": 1.0953962768,
				"z": -2.1308901694,
				"element": "H" 
			},
			{
				"x": -1.5433493091,
				"y": -0.9740517457,
				"z": -3.8389115078,
				"element": "H" 
			},
			{
				"x": -0.4501035489,
				"y": 0.4117159243,
				"z": -4.0207650202,
				"element": "H" 
			},
			{
				"x": 1.7567891758,
				"y": 0.5495844119,
				"z": -2.3072856101,
				"element": "H" 
			},
			{
				"x": -0.1463906707,
				"y": -0.1651321493,
				"z": -0.2483477302,
				"element": "H" 
			},
			{
				"x": 4.0215073973,
				"y": 0.3064171271,
				"z": -1.153692948,
				"element": "H" 
			},
			{
				"x": 2.8563539266,
				"y": -3.003211606,
				"z": 1.7669083211,
				"element": "H" 
			},
			{
				"x": 0.8319733754,
				"y": -2.3252832763,
				"z": 0.2180684269,
				"element": "H" 
			}
		],
		 "valence_orbital": [ 
			{
				"type": "occ",
				"energy": -0.2956,
				"method": "rhf"
			},
			{
				"type": "occ",
				"energy": -0.25396,
				"method": "rhf"
			},
			{
				"type": "occ",
				"energy": -0.2405,
				"method": "rhf"
			},
			{
				"type": "occ",
				"energy": -0.23186,
				"method": "rhf"
			},
			{
				"type": "occ",
				"energy": -0.22482,
				"method": "rhf"
			},
			{
				"type": "unocc",
				"energy": -0.01467,
				"method": "rhf"
			},
			{
				"type": "unocc",
				"energy": -0.00991,
				"method": "rhf"
			},
			{
				"type": "unocc",
				"energy": 0.01407,
				"method": "rhf"
			},
			{
				"type": "unocc",
				"energy": 0.03205,
				"method": "rhf"
			},
			{
				"type": "unocc",
				"energy": 0.05094,
				"method": "rhf"
			}
		],
		"cosmo_sigma_profile": { 
			"-0.025": 0.0,
			"-0.024": 0.0,
			"-0.023": 0.0,
			"-0.022": 0.0,
			"-0.021": 0.0,
			"-0.02": 0.0,
			"-0.019": 0.419961531392,
			"-0.018": 1.32102284762,
			"-0.017": 0.712692511127,
			"-0.016": 0.667616549592,
			"-0.015": 0.700031591796,
			"-0.014": 0.337498271521,
			"-0.013": 0.715442551607,
			"-0.012": 1.3204365582,
			"-0.011": 0.788971416144,
			"-0.01": 0.710286559855,
			"-0.009": 1.14507152279,
			"-0.008": 5.2484487027,
			"-0.007": 9.79733548773,
			"-0.006": 14.8532345916,
			"-0.005": 14.8567729638,
			"-0.004": 13.0395903729,
			"-0.003": 14.0146779534,
			"-0.002": 13.0078485547,
			"-0.001": 12.2045698957,
			"0.0": 12.5547112161,
			"0.001": 11.9759798699,
			"0.002": 17.1745595838,
			"0.003": 17.6540893147,
			"0.004": 22.9082955684,
			"0.005": 11.913783196,
			"0.006": 6.16971204016,
			"0.007": 6.0283883162,
			"0.008": 4.82853800422,
			"0.009": 4.6369660949,
			"0.01": 3.77207257468,
			"0.011": 3.77897957674,
			"0.012": 0.986068340476,
			"0.013": 0.65529835814,
			"0.014": 0.409224117153,
			"0.015": 0.499710199284,
			"0.016": 0.0749777280543,
			"0.017": 0.0,
			"0.018": 0.0,
			"0.019": 0.0,
			"0.02": 0.0,
			"0.021": 0.0,
			"0.022": 0.0,
			"0.023": 0.0,
			"0.024": 0.0,
			"0.025": 0.0
		}
	}
}
