{
	 "smiles": "CC1=C(C=C(C=C1)C(O)=O)N1C(=O)C2CC=CCC2C1=O", 
	 "Tm": 495.15, 
	 "num_atms": 36, 
	 "gaussian": { 
		 "optdone": 1, 
		 "sigma_profile": "yes", 
		 "theory": "DFT", 
		 "functional": "B3LYP", 
		 "basiset": "6-31G**", 
		 "properties": { 
			 "R2extent": 6626.2583, 
			 "electric_dipole_moment_norm": 3.6084931301, 
			 "electric_quadrupole_moment_norm": 14.2886860628, 
			 "total_energy": -974.430065307, 
			 "HOMO_LUMO_gap": 0.20234, 
			 "cosmo_polarized_energy": -18.55, 
			 "cosmo_cavitation_energy": 39.33, 
			 "cosmo_dispersion_energy": -27.33, 
			 "cosmo_repulsion_energy": 2.09, 
			 "cosmo_total_nonelectrostatic_energy": 14.09, 
			 "SMD_solvation_energy": 8.8 
		},
		"coords": [
			{
				"x": 1.0382116209,
				"y": 2.393681075,
				"z": -2.3145627159,
				"element": "C" 
			},
			{
				"x": 1.751285691,
				"y": 1.3824036643,
				"z": -1.455843408,
				"element": "C" 
			},
			{
				"x": 1.0590318014,
				"y": 0.3934950826,
				"z": -0.7311479869,
				"element": "C" 
			},
			{
				"x": 1.7393412126,
				"y": -0.5490513756,
				"z": 0.0387518278,
				"element": "C" 
			},
			{
				"x": 3.1344670912,
				"y": -0.5172604626,
				"z": 0.1139330464,
				"element": "C" 
			},
			{
				"x": 3.8391305256,
				"y": 0.4696426777,
				"z": -0.5855504216,
				"element": "C" 
			},
			{
				"x": 3.1503271402,
				"y": 1.3992305176,
				"z": -1.3545434715,
				"element": "C" 
			},
			{
				"x": 3.9062344261,
				"y": -1.4976561929,
				"z": 0.9198852158,
				"element": "C" 
			},
			{
				"x": 3.1182270553,
				"y": -2.3929042111,
				"z": 1.566772235,
				"element": "O" 
			},
			{
				"x": 5.1179265544,
				"y": -1.5193417894,
				"z": 1.0114266706,
				"element": "O" 
			},
			{
				"x": -0.3709106181,
				"y": 0.3192394583,
				"z": -0.7837613304,
				"element": "N" 
			},
			{
				"x": -1.0744043827,
				"y": -0.8355897152,
				"z": -1.1962104587,
				"element": "C" 
			},
			{
				"x": -0.5628966225,
				"y": -1.8281499309,
				"z": -1.6625634861,
				"element": "O" 
			},
			{
				"x": -2.5446668295,
				"y": -0.6146499619,
				"z": -0.8571773592,
				"element": "C" 
			},
			{
				"x": -2.8602025515,
				"y": -1.3843236517,
				"z": 0.4517484417,
				"element": "C" 
			},
			{
				"x": -4.0329973327,
				"y": -0.8065372973,
				"z": 1.1982991278,
				"element": "C" 
			},
			{
				"x": -4.4159469758,
				"y": 0.4670710225,
				"z": 1.0907973468,
				"element": "C" 
			},
			{
				"x": -3.7595908899,
				"y": 1.4837602793,
				"z": 0.1972990676,
				"element": "C" 
			},
			{
				"x": -2.6546890179,
				"y": 0.9172780479,
				"z": -0.7130074199,
				"element": "C" 
			},
			{
				"x": -1.2329874554,
				"y": 1.3338116613,
				"z": -0.3333679777,
				"element": "C" 
			},
			{
				"x": -0.8811383479,
				"y": 2.3607639441,
				"z": 0.2063825184,
				"element": "O" 
			},
			{
				"x": 0.5469393022,
				"y": 3.1499703274,
				"z": -1.6936369087,
				"element": "H" 
			},
			{
				"x": 1.7404990863,
				"y": 2.8971451777,
				"z": -2.9830523071,
				"element": "H" 
			},
			{
				"x": 0.2637337118,
				"y": 1.9212158785,
				"z": -2.9280969927,
				"element": "H" 
			},
			{
				"x": 1.1853291831,
				"y": -1.3089185615,
				"z": 0.5754912966,
				"element": "H" 
			},
			{
				"x": 4.9214583833,
				"y": 0.4856557925,
				"z": -0.5177023244,
				"element": "H" 
			},
			{
				"x": 3.7031675414,
				"y": 2.1569747952,
				"z": -1.9024323846,
				"element": "H" 
			},
			{
				"x": 3.725261332,
				"y": -2.977276293,
				"z": 2.0495883717,
				"element": "H" 
			},
			{
				"x": -3.1715465594,
				"y": -1.0038312308,
				"z": -1.6626148705,
				"element": "H" 
			},
			{
				"x": -1.9790095946,
				"y": -1.3746773832,
				"z": 1.1112996536,
				"element": "H" 
			},
			{
				"x": -3.0279469708,
				"y": -2.437917974,
				"z": 0.2063850108,
				"element": "H" 
			},
			{
				"x": -4.5575598258,
				"y": -1.4721908133,
				"z": 1.8802817095,
				"element": "H" 
			},
			{
				"x": -5.2589985373,
				"y": 0.8242811551,
				"z": 1.6790273474,
				"element": "H" 
			},
			{
				"x": -4.5324771145,
				"y": 1.9632743464,
				"z": -0.4166529114,
				"element": "H" 
			},
			{
				"x": -3.3267188153,
				"y": 2.2934714274,
				"z": 0.8002167667,
				"element": "H" 
			},
			{
				"x": -2.7889832173,
				"y": 1.336310514,
				"z": -1.7197609189,
				"element": "H" 
			}
		],
		 "valence_orbital": [ 
			{
				"type": "occ",
				"energy": -0.27676,
				"method": "rhf"
			},
			{
				"type": "occ",
				"energy": -0.26508,
				"method": "rhf"
			},
			{
				"type": "occ",
				"energy": -0.2597,
				"method": "rhf"
			},
			{
				"type": "occ",
				"energy": -0.25418,
				"method": "rhf"
			},
			{
				"type": "occ",
				"energy": -0.25198,
				"method": "rhf"
			},
			{
				"type": "unocc",
				"energy": -0.04964,
				"method": "rhf"
			},
			{
				"type": "unocc",
				"energy": -0.02715,
				"method": "rhf"
			},
			{
				"type": "unocc",
				"energy": -0.02225,
				"method": "rhf"
			},
			{
				"type": "unocc",
				"energy": 0.01347,
				"method": "rhf"
			},
			{
				"type": "unocc",
				"energy": 0.0232,
				"method": "rhf"
			}
		],
		"cosmo_sigma_profile": { 
			"-0.025": 0.0,
			"-0.024": 0.0,
			"-0.023": 0.0,
			"-0.022": 0.0,
			"-0.021": 0.0,
			"-0.02": 0.0,
			"-0.019": 0.0145603031285,
			"-0.018": 0.833758008255,
			"-0.017": 1.07840283315,
			"-0.016": 0.839428453164,
			"-0.015": 0.64785545513,
			"-0.014": 0.708122686791,
			"-0.013": 0.212306644013,
			"-0.012": 0.731106724792,
			"-0.011": 1.36421318804,
			"-0.01": 0.854604203251,
			"-0.009": 0.645955929724,
			"-0.008": 3.4887025269,
			"-0.007": 10.4831528832,
			"-0.006": 17.9994750773,
			"-0.005": 21.4767699258,
			"-0.004": 24.5406444342,
			"-0.003": 26.4690017511,
			"-0.002": 26.8495777815,
			"-0.001": 27.0292713607,
			"0.0": 21.1159659941,
			"0.001": 18.451967726,
			"0.002": 18.600926526,
			"0.003": 15.8272348369,
			"0.004": 9.25791697105,
			"0.005": 8.31547230239,
			"0.006": 7.99523432998,
			"0.007": 7.28083395692,
			"0.008": 5.63900163329,
			"0.009": 5.06623685549,
			"0.01": 6.54985105261,
			"0.011": 12.4169419489,
			"0.012": 8.60138300013,
			"0.013": 0.347694274152,
			"0.014": 0.0,
			"0.015": 0.0,
			"0.016": 0.0,
			"0.017": 0.0,
			"0.018": 0.0,
			"0.019": 0.0,
			"0.02": 0.0,
			"0.021": 0.0,
			"0.022": 0.0,
			"0.023": 0.0,
			"0.024": 0.0,
			"0.025": 0.0
		}
	}
}
