{
	 "smiles": "CC(=O)OC1=CC=C(C=C)C=C1", 
	 "Tm": 280.65, 
	 "num_atms": 22, 
	 "gaussian": { 
		 "optdone": 1, 
		 "sigma_profile": "yes", 
		 "theory": "DFT", 
		 "functional": "B3LYP", 
		 "basiset": "6-31G**", 
		 "properties": { 
			 "R2extent": 2981.1405, 
			 "electric_dipole_moment_norm": 1.71901667822, 
			 "electric_quadrupole_moment_norm": 10.978049758, 
			 "total_energy": -537.529855822, 
			 "HOMO_LUMO_gap": 0.18308, 
			 "cosmo_polarized_energy": -7.86, 
			 "cosmo_cavitation_energy": 26.75, 
			 "cosmo_dispersion_energy": -19.34, 
			 "cosmo_repulsion_energy": 1.54, 
			 "cosmo_total_nonelectrostatic_energy": 8.94, 
			 "SMD_solvation_energy": 6.61 
		},
		"coords": [
			{
				"x": 1.6653451093,
				"y": -1.5068884449,
				"z": -2.8027175398,
				"element": "C" 
			},
			{
				"x": 1.5711071166,
				"y": -0.8181579764,
				"z": -1.4631332672,
				"element": "C" 
			},
			{
				"x": 2.4959263164,
				"y": -0.358839241,
				"z": -0.839061008,
				"element": "O" 
			},
			{
				"x": 0.2628365322,
				"y": -0.7903472946,
				"z": -1.0589775746,
				"element": "O" 
			},
			{
				"x": -0.1456300025,
				"y": -0.2023775243,
				"z": 0.1376458629,
				"element": "C" 
			},
			{
				"x": -1.422491898,
				"y": 0.3654888773,
				"z": 0.1073061656,
				"element": "C" 
			},
			{
				"x": -1.9618708644,
				"y": 0.9221541602,
				"z": 1.2592210285,
				"element": "C" 
			},
			{
				"x": -1.2414253115,
				"y": 0.9264847639,
				"z": 2.4683615451,
				"element": "C" 
			},
			{
				"x": -1.761615419,
				"y": 1.5044359348,
				"z": 3.7173081982,
				"element": "C" 
			},
			{
				"x": -2.9453633407,
				"y": 2.0991466023,
				"z": 3.9116659425,
				"element": "C" 
			},
			{
				"x": 0.0365098852,
				"y": 0.3438702867,
				"z": 2.4655653156,
				"element": "C" 
			},
			{
				"x": 0.5942470102,
				"y": -0.2221029146,
				"z": 1.3196700302,
				"element": "C" 
			},
			{
				"x": 1.2678694671,
				"y": -2.5235572382,
				"z": -2.7302779861,
				"element": "H" 
			},
			{
				"x": 2.7068696918,
				"y": -1.5348413634,
				"z": -3.1207456883,
				"element": "H" 
			},
			{
				"x": 1.0619357558,
				"y": -0.9732573297,
				"z": -3.5428949433,
				"element": "H" 
			},
			{
				"x": -1.977188461,
				"y": 0.3577591433,
				"z": -0.8252722535,
				"element": "H" 
			},
			{
				"x": -2.9548303768,
				"y": 1.3582172709,
				"z": 1.2159160171,
				"element": "H" 
			},
			{
				"x": -1.0833882969,
				"y": 1.4255436795,
				"z": 4.5665587218,
				"element": "H" 
			},
			{
				"x": -3.6808968892,
				"y": 2.2214418565,
				"z": 3.1219168712,
				"element": "H" 
			},
			{
				"x": -3.2185190441,
				"y": 2.4894200846,
				"z": 4.8864358141,
				"element": "H" 
			},
			{
				"x": 0.6131487966,
				"y": 0.3322143437,
				"z": 3.3869266908,
				"element": "H" 
			},
			{
				"x": 1.5845242229,
				"y": -0.6541076768,
				"z": 1.3434820572,
				"element": "H" 
			}
		],
		 "valence_orbital": [ 
			{
				"type": "occ",
				"energy": -0.33092,
				"method": "rhf"
			},
			{
				"type": "occ",
				"energy": -0.28831,
				"method": "rhf"
			},
			{
				"type": "occ",
				"energy": -0.27899,
				"method": "rhf"
			},
			{
				"type": "occ",
				"energy": -0.25526,
				"method": "rhf"
			},
			{
				"type": "occ",
				"energy": -0.21866,
				"method": "rhf"
			},
			{
				"type": "unocc",
				"energy": -0.03558,
				"method": "rhf"
			},
			{
				"type": "unocc",
				"energy": -0.00478,
				"method": "rhf"
			},
			{
				"type": "unocc",
				"energy": 0.00551,
				"method": "rhf"
			},
			{
				"type": "unocc",
				"energy": 0.06417,
				"method": "rhf"
			},
			{
				"type": "unocc",
				"energy": 0.09115,
				"method": "rhf"
			}
		],
		"cosmo_sigma_profile": { 
			"-0.025": 0.0,
			"-0.024": 0.0,
			"-0.023": 0.0,
			"-0.022": 0.0,
			"-0.021": 0.0,
			"-0.02": 0.0,
			"-0.019": 0.0,
			"-0.018": 0.0,
			"-0.017": 0.0,
			"-0.016": 0.0,
			"-0.015": 0.0,
			"-0.014": 0.0,
			"-0.013": 0.0,
			"-0.012": 0.0,
			"-0.011": 0.0,
			"-0.01": 0.0,
			"-0.009": 0.0,
			"-0.008": 0.0454573383979,
			"-0.007": 5.08070160803,
			"-0.006": 15.5886345302,
			"-0.005": 18.5069419939,
			"-0.004": 17.9315082382,
			"-0.003": 18.0892577544,
			"-0.002": 19.2467216419,
			"-0.001": 13.6815053435,
			"0.0": 12.9937047532,
			"0.001": 11.4551494036,
			"0.002": 13.4586011084,
			"0.003": 15.9387780302,
			"0.004": 20.6851106808,
			"0.005": 9.84233854872,
			"0.006": 6.28859392318,
			"0.007": 2.77691042675,
			"0.008": 2.06184539322,
			"0.009": 2.46981233301,
			"0.01": 2.2092945284,
			"0.011": 3.87559567661,
			"0.012": 1.61397801371,
			"0.013": 0.0701327124716,
			"0.014": 0.0,
			"0.015": 0.0,
			"0.016": 0.0,
			"0.017": 0.0,
			"0.018": 0.0,
			"0.019": 0.0,
			"0.02": 0.0,
			"0.021": 0.0,
			"0.022": 0.0,
			"0.023": 0.0,
			"0.024": 0.0,
			"0.025": 0.0
		}
	}
}
