{
	 "smiles": "OC(=O)C1=CC(=C(F)C=C1)C(F)(F)F", 
	 "Tm": 388.15, 
	 "num_atms": 18, 
	 "gaussian": { 
		 "optdone": 1, 
		 "sigma_profile": "yes", 
		 "theory": "DFT", 
		 "functional": "B3LYP", 
		 "basiset": "6-31G**", 
		 "properties": { 
			 "R2extent": 3034.597, 
			 "electric_dipole_moment_norm": 1.89588411302, 
			 "electric_quadrupole_moment_norm": 18.9263160224, 
			 "total_energy": -857.07507582, 
			 "HOMO_LUMO_gap": 0.21162, 
			 "cosmo_polarized_energy": -13.49, 
			 "cosmo_cavitation_energy": 25.12, 
			 "cosmo_dispersion_energy": -17.83, 
			 "cosmo_repulsion_energy": 1.32, 
			 "cosmo_total_nonelectrostatic_energy": 8.61, 
			 "SMD_solvation_energy": 7.12 
		},
		"coords": [
			{
				"x": 2.872732026,
				"y": 0.4431296277,
				"z": -2.8016097607,
				"element": "O" 
			},
			{
				"x": 2.3704206516,
				"y": -0.7246627472,
				"z": -2.3239916593,
				"element": "C" 
			},
			{
				"x": 2.769109097,
				"y": -1.7790152694,
				"z": -2.7584122835,
				"element": "O" 
			},
			{
				"x": 1.3222941496,
				"y": -0.631416429,
				"z": -1.2543979007,
				"element": "C" 
			},
			{
				"x": 1.1354014643,
				"y": 0.5066869005,
				"z": -0.4610331467,
				"element": "C" 
			},
			{
				"x": 0.1580746725,
				"y": 0.5314948288,
				"z": 0.5333736125,
				"element": "C" 
			},
			{
				"x": -0.6299004345,
				"y": -0.6068222916,
				"z": 0.7207164962,
				"element": "C" 
			},
			{
				"x": -1.5765863754,
				"y": -0.5937816938,
				"z": 1.669330382,
				"element": "F" 
			},
			{
				"x": -0.4553059004,
				"y": -1.7549755183,
				"z": -0.0439143745,
				"element": "C" 
			},
			{
				"x": 0.5296375003,
				"y": -1.7652421197,
				"z": -1.0249602526,
				"element": "C" 
			},
			{
				"x": -0.050843658,
				"y": 1.7451718447,
				"z": 1.4024790945,
				"element": "C" 
			},
			{
				"x": -1.3012662362,
				"y": 2.2326438879,
				"z": 1.2780976925,
				"element": "F" 
			},
			{
				"x": 0.143659857,
				"y": 1.46350427,
				"z": 2.7053319278,
				"element": "F" 
			},
			{
				"x": 0.8053244367,
				"y": 2.7373224565,
				"z": 1.0695162662,
				"element": "F" 
			},
			{
				"x": 2.3466147555,
				"y": 1.1947565698,
				"z": -2.4963047461,
				"element": "H" 
			},
			{
				"x": 1.7644387569,
				"y": 1.383851512,
				"z": -0.5714386146,
				"element": "H" 
			},
			{
				"x": -1.0865531069,
				"y": -2.6162111105,
				"z": 0.1440764909,
				"element": "H" 
			},
			{
				"x": 0.7043483439,
				"y": -2.6476347183,
				"z": -1.630559224,
				"element": "H" 
			}
		],
		 "valence_orbital": [ 
			{
				"type": "occ",
				"energy": -0.37673,
				"method": "rhf"
			},
			{
				"type": "occ",
				"energy": -0.3297,
				"method": "rhf"
			},
			{
				"type": "occ",
				"energy": -0.30105,
				"method": "rhf"
			},
			{
				"type": "occ",
				"energy": -0.29098,
				"method": "rhf"
			},
			{
				"type": "occ",
				"energy": -0.27939,
				"method": "rhf"
			},
			{
				"type": "unocc",
				"energy": -0.06777,
				"method": "rhf"
			},
			{
				"type": "unocc",
				"energy": -0.05533,
				"method": "rhf"
			},
			{
				"type": "unocc",
				"energy": 0.02832,
				"method": "rhf"
			},
			{
				"type": "unocc",
				"energy": 0.04438,
				"method": "rhf"
			},
			{
				"type": "unocc",
				"energy": 0.08167,
				"method": "rhf"
			}
		],
		"cosmo_sigma_profile": { 
			"-0.025": 0.0,
			"-0.024": 0.0,
			"-0.023": 0.0,
			"-0.022": 0.0,
			"-0.021": 0.0,
			"-0.02": 0.2090871841,
			"-0.019": 0.884329117405,
			"-0.018": 0.812865569761,
			"-0.017": 1.18447577152,
			"-0.016": 1.0408216235,
			"-0.015": 0.908876187044,
			"-0.014": 1.38677659186,
			"-0.013": 1.26910412998,
			"-0.012": 0.547204836259,
			"-0.011": 1.29787013237,
			"-0.01": 1.29998358826,
			"-0.009": 2.34083260105,
			"-0.008": 4.20998502985,
			"-0.007": 5.60280914734,
			"-0.006": 5.93356467491,
			"-0.005": 5.42915109998,
			"-0.004": 7.68313888532,
			"-0.003": 9.83565955518,
			"-0.002": 16.4651801988,
			"-0.001": 15.7573998249,
			"0.0": 17.0062699026,
			"0.001": 14.1153726182,
			"0.002": 33.040806584,
			"0.003": 24.873556975,
			"0.004": 1.68724304909,
			"0.005": 2.44271499716,
			"0.006": 1.96202540878,
			"0.007": 2.45990028991,
			"0.008": 2.49563137673,
			"0.009": 3.98238365079,
			"0.01": 5.2163154566,
			"0.011": 5.07734736674,
			"0.012": 3.52700220222,
			"0.013": 0.72620322467,
			"0.014": 0.0,
			"0.015": 0.0,
			"0.016": 0.0,
			"0.017": 0.0,
			"0.018": 0.0,
			"0.019": 0.0,
			"0.02": 0.0,
			"0.021": 0.0,
			"0.022": 0.0,
			"0.023": 0.0,
			"0.024": 0.0,
			"0.025": 0.0
		}
	}
}
