{
	 "smiles": "CC(C)CN1N=C(C)C(C(O)=O)=C1Cl", 
	 "Tm": 402.15, 
	 "num_atms": 27, 
	 "gaussian": { 
		 "optdone": 1, 
		 "sigma_profile": "yes", 
		 "theory": "DFT", 
		 "functional": "B3LYP", 
		 "basiset": "6-31G**", 
		 "properties": { 
			 "R2extent": 3725.2216, 
			 "electric_dipole_moment_norm": 2.67552252467, 
			 "electric_quadrupole_moment_norm": 5.38511819183, 
			 "total_energy": -1070.94959138, 
			 "HOMO_LUMO_gap": 0.22331, 
			 "cosmo_polarized_energy": -10.45, 
			 "cosmo_cavitation_energy": 31.78, 
			 "cosmo_dispersion_energy": -22.26, 
			 "cosmo_repulsion_energy": 1.77, 
			 "cosmo_total_nonelectrostatic_energy": 11.29, 
			 "SMD_solvation_energy": 5.72 
		},
		"coords": [
			{
				"x": -1.1195477077,
				"y": 0.4949927374,
				"z": 2.1035645388,
				"element": "C" 
			},
			{
				"x": -1.8953387078,
				"y": 0.9645349128,
				"z": 0.8651883797,
				"element": "C" 
			},
			{
				"x": -1.6595376973,
				"y": 2.4547229586,
				"z": 0.5806592138,
				"element": "C" 
			},
			{
				"x": -1.6289736655,
				"y": 0.0712867643,
				"z": -0.3671612264,
				"element": "C" 
			},
			{
				"x": -0.2274383298,
				"y": -0.0196821269,
				"z": -0.7761358604,
				"element": "N" 
			},
			{
				"x": 0.3344449104,
				"y": 1.011368094,
				"z": -1.4728308442,
				"element": "N" 
			},
			{
				"x": 1.5909388099,
				"y": 0.6546096695,
				"z": -1.7106022506,
				"element": "C" 
			},
			{
				"x": 2.5070606954,
				"y": 1.5642603143,
				"z": -2.4651052897,
				"element": "C" 
			},
			{
				"x": 1.8693051805,
				"y": -0.6364246892,
				"z": -1.1698360349,
				"element": "C" 
			},
			{
				"x": 3.1538484444,
				"y": -1.3276981282,
				"z": -1.262738069,
				"element": "C" 
			},
			{
				"x": 3.1654382155,
				"y": -2.546510244,
				"z": -0.6681205529,
				"element": "O" 
			},
			{
				"x": 4.1393034585,
				"y": -0.872176139,
				"z": -1.8164122516,
				"element": "O" 
			},
			{
				"x": 0.6625376929,
				"y": -1.0207895631,
				"z": -0.5833322152,
				"element": "C" 
			},
			{
				"x": 0.2325899013,
				"y": -2.4750523409,
				"z": 0.2340569612,
				"element": "Cl" 
			},
			{
				"x": -0.0393585224,
				"y": 0.6068358189,
				"z": 1.9599900232,
				"element": "H" 
			},
			{
				"x": -1.3209258285,
				"y": -0.5555621729,
				"z": 2.3366617257,
				"element": "H" 
			},
			{
				"x": -1.3981715443,
				"y": 1.0926558545,
				"z": 2.9772008304,
				"element": "H" 
			},
			{
				"x": -2.967986848,
				"y": 0.8269927404,
				"z": 1.0667304867,
				"element": "H" 
			},
			{
				"x": -2.2536819521,
				"y": 2.7969012115,
				"z": -0.2731722313,
				"element": "H" 
			},
			{
				"x": -1.9415395796,
				"y": 3.0559569001,
				"z": 1.4514489596,
				"element": "H" 
			},
			{
				"x": -0.6100358669,
				"y": 2.6539606894,
				"z": 0.3491222795,
				"element": "H" 
			},
			{
				"x": -2.1762710274,
				"y": 0.4531437299,
				"z": -1.2333384308,
				"element": "H" 
			},
			{
				"x": -1.9685760391,
				"y": -0.9476603108,
				"z": -0.1699446236,
				"element": "H" 
			},
			{
				"x": 1.9682436969,
				"y": 2.4741175809,
				"z": -2.7384263335,
				"element": "H" 
			},
			{
				"x": 2.8855351456,
				"y": 1.0784997665,
				"z": -3.3688240428,
				"element": "H" 
			},
			{
				"x": 3.3830736373,
				"y": 1.8253908873,
				"z": -1.8646504976,
				"element": "H" 
			},
			{
				"x": 4.0646635279,
				"y": -2.8893749153,
				"z": -0.8019926443,
				"element": "H" 
			}
		],
		 "valence_orbital": [ 
			{
				"type": "occ",
				"energy": -0.31434,
				"method": "rhf"
			},
			{
				"type": "occ",
				"energy": -0.2941,
				"method": "rhf"
			},
			{
				"type": "occ",
				"energy": -0.2738,
				"method": "rhf"
			},
			{
				"type": "occ",
				"energy": -0.25614,
				"method": "rhf"
			},
			{
				"type": "occ",
				"energy": -0.25079,
				"method": "rhf"
			},
			{
				"type": "unocc",
				"energy": -0.02748,
				"method": "rhf"
			},
			{
				"type": "unocc",
				"energy": 0.01432,
				"method": "rhf"
			},
			{
				"type": "unocc",
				"energy": 0.02377,
				"method": "rhf"
			},
			{
				"type": "unocc",
				"energy": 0.08004,
				"method": "rhf"
			},
			{
				"type": "unocc",
				"energy": 0.08595,
				"method": "rhf"
			}
		],
		"cosmo_sigma_profile": { 
			"-0.025": 0.0,
			"-0.024": 0.0,
			"-0.023": 0.0,
			"-0.022": 0.0,
			"-0.021": 0.0,
			"-0.02": 0.0,
			"-0.019": 0.00978981051823,
			"-0.018": 0.663325346099,
			"-0.017": 0.790189527984,
			"-0.016": 0.969241132012,
			"-0.015": 0.587504149234,
			"-0.014": 0.90994366941,
			"-0.013": 0.694457291007,
			"-0.012": 0.245382184133,
			"-0.011": 0.648241857135,
			"-0.01": 0.600066644301,
			"-0.009": 0.839925536971,
			"-0.008": 0.591124104252,
			"-0.007": 0.806125838951,
			"-0.006": 4.7211452135,
			"-0.005": 8.35943090725,
			"-0.004": 17.1171745696,
			"-0.003": 24.3589058485,
			"-0.002": 26.6047033084,
			"-0.001": 35.2123314522,
			"0.0": 32.8688664937,
			"0.001": 28.3274045733,
			"0.002": 15.3030104813,
			"0.003": 8.88041771612,
			"0.004": 5.99931967148,
			"0.005": 4.94410970458,
			"0.006": 4.78890330741,
			"0.007": 4.37245927918,
			"0.008": 5.38268913812,
			"0.009": 3.97361156998,
			"0.01": 2.64837115692,
			"0.011": 3.06690981468,
			"0.012": 4.77737516347,
			"0.013": 1.19602233162,
			"0.014": 0.38772181416,
			"0.015": 0.00109874749306,
			"0.016": 0.0,
			"0.017": 0.0,
			"0.018": 0.0,
			"0.019": 0.0,
			"0.02": 0.0,
			"0.021": 0.0,
			"0.022": 0.0,
			"0.023": 0.0,
			"0.024": 0.0,
			"0.025": 0.0
		}
	}
}
