{
	 "smiles": "OC(=O)C(CC1=CC=CC=C1)=CC1=CC=CC=C1", 
	 "Tm": 431.15, 
	 "num_atms": 32, 
	 "gaussian": { 
		 "optdone": 1, 
		 "sigma_profile": "yes", 
		 "theory": "DFT", 
		 "functional": "B3LYP", 
		 "basiset": "6-31G**", 
		 "properties": { 
			 "R2extent": 5479.7525, 
			 "electric_dipole_moment_norm": 4.65161311052, 
			 "electric_quadrupole_moment_norm": 13.6083451878, 
			 "total_energy": -768.584472402, 
			 "HOMO_LUMO_gap": 0.18355, 
			 "cosmo_polarized_energy": -15.31, 
			 "cosmo_cavitation_energy": 36.48, 
			 "cosmo_dispersion_energy": -24.97, 
			 "cosmo_repulsion_energy": 1.94, 
			 "cosmo_total_nonelectrostatic_energy": 13.45, 
			 "SMD_solvation_energy": 6.9 
		},
		"coords": [
			{
				"x": 1.6561367139,
				"y": 2.0238310469,
				"z": -2.4845333234,
				"element": "O" 
			},
			{
				"x": 0.3563255736,
				"y": 2.0332644794,
				"z": -2.0860875854,
				"element": "C" 
			},
			{
				"x": -0.393426591,
				"y": 2.8935313573,
				"z": -2.4876138609,
				"element": "O" 
			},
			{
				"x": -0.0956372555,
				"y": 0.9284652377,
				"z": -1.1687145795,
				"element": "C" 
			},
			{
				"x": -1.169678846,
				"y": 1.3452907165,
				"z": -0.1831154229,
				"element": "C" 
			},
			{
				"x": -0.6486915245,
				"y": 2.3501150945,
				"z": 0.8369563969,
				"element": "C" 
			},
			{
				"x": -0.8098628073,
				"y": 3.7286080428,
				"z": 0.6479359954,
				"element": "C" 
			},
			{
				"x": -0.3202264026,
				"y": 4.6357923708,
				"z": 1.5896834309,
				"element": "C" 
			},
			{
				"x": 0.3384196505,
				"y": 4.1776897207,
				"z": 2.7317574091,
				"element": "C" 
			},
			{
				"x": 0.5068999496,
				"y": 2.8051243774,
				"z": 2.9273458018,
				"element": "C" 
			},
			{
				"x": 0.0179440433,
				"y": 1.8999914164,
				"z": 1.9850908323,
				"element": "C" 
			},
			{
				"x": 0.4267253231,
				"y": -0.3070288575,
				"z": -1.3239719788,
				"element": "C" 
			},
			{
				"x": 0.0687030213,
				"y": -1.567425004,
				"z": -0.6420809453,
				"element": "C" 
			},
			{
				"x": 1.1005655427,
				"y": -2.4372187323,
				"z": -0.2450028846,
				"element": "C" 
			},
			{
				"x": 0.8172511695,
				"y": -3.6431277566,
				"z": 0.3925669332,
				"element": "C" 
			},
			{
				"x": -0.5079875091,
				"y": -4.0169307914,
				"z": 0.6264996472,
				"element": "C" 
			},
			{
				"x": -1.5441762092,
				"y": -3.1794684686,
				"z": 0.2097975371,
				"element": "C" 
			},
			{
				"x": -1.2607153199,
				"y": -1.9679807719,
				"z": -0.4202189621,
				"element": "C" 
			},
			{
				"x": 2.1502752624,
				"y": 1.3924480357,
				"z": -1.9428235435,
				"element": "H" 
			},
			{
				"x": -1.9962106824,
				"y": 1.7900352559,
				"z": -0.7466080735,
				"element": "H" 
			},
			{
				"x": -1.5530406849,
				"y": 0.4697573768,
				"z": 0.3416080573,
				"element": "H" 
			},
			{
				"x": -1.3099677708,
				"y": 4.0874791104,
				"z": -0.2463125261,
				"element": "H" 
			},
			{
				"x": -0.4551358145,
				"y": 5.7018266198,
				"z": 1.4295102762,
				"element": "H" 
			},
			{
				"x": 0.7164315089,
				"y": 4.8842232717,
				"z": 3.465247733,
				"element": "H" 
			},
			{
				"x": 1.0154964982,
				"y": 2.4390838521,
				"z": 3.8150380422,
				"element": "H" 
			},
			{
				"x": 0.14895252,
				"y": 0.831901679,
				"z": 2.1428261627,
				"element": "H" 
			},
			{
				"x": 1.2224607254,
				"y": -0.4234510247,
				"z": -2.0612661673,
				"element": "H" 
			},
			{
				"x": 2.1341522152,
				"y": -2.1556717384,
				"z": -0.4302258199,
				"element": "H" 
			},
			{
				"x": 1.6302859075,
				"y": -4.2938034643,
				"z": 0.7013039574,
				"element": "H" 
			},
			{
				"x": -0.7311955963,
				"y": -4.9597139142,
				"z": 1.1170937687,
				"element": "H" 
			},
			{
				"x": -2.5780816858,
				"y": -3.4737079748,
				"z": 0.3652923051,
				"element": "H" 
			},
			{
				"x": -2.0750909253,
				"y": -1.3452305631,
				"z": -0.7751786133,
				"element": "H" 
			}
		],
		 "valence_orbital": [ 
			{
				"type": "occ",
				"energy": -0.27173,
				"method": "rhf"
			},
			{
				"type": "occ",
				"energy": -0.264,
				"method": "rhf"
			},
			{
				"type": "occ",
				"energy": -0.24733,
				"method": "rhf"
			},
			{
				"type": "occ",
				"energy": -0.24369,
				"method": "rhf"
			},
			{
				"type": "occ",
				"energy": -0.23994,
				"method": "rhf"
			},
			{
				"type": "unocc",
				"energy": -0.05639,
				"method": "rhf"
			},
			{
				"type": "unocc",
				"energy": -0.01567,
				"method": "rhf"
			},
			{
				"type": "unocc",
				"energy": -0.00091,
				"method": "rhf"
			},
			{
				"type": "unocc",
				"energy": 0.00205,
				"method": "rhf"
			},
			{
				"type": "unocc",
				"energy": 0.00551,
				"method": "rhf"
			}
		],
		"cosmo_sigma_profile": { 
			"-0.025": 0.0,
			"-0.024": 0.0,
			"-0.023": 0.0,
			"-0.022": 0.0,
			"-0.021": 0.0,
			"-0.02": 0.0,
			"-0.019": 0.0,
			"-0.018": 0.652238008212,
			"-0.017": 0.814074447326,
			"-0.016": 1.22104086963,
			"-0.015": 0.760505504608,
			"-0.014": 0.847167398863,
			"-0.013": 0.565636046786,
			"-0.012": 1.3722900364,
			"-0.011": 1.4196671836,
			"-0.01": 0.926902739494,
			"-0.009": 0.977210455267,
			"-0.008": 1.89608093578,
			"-0.007": 2.59364929035,
			"-0.006": 12.9414277682,
			"-0.005": 21.0341930087,
			"-0.004": 26.0191971345,
			"-0.003": 29.3848877409,
			"-0.002": 20.5446591219,
			"-0.001": 18.4126406382,
			"0.0": 17.4564911661,
			"0.001": 20.386598975,
			"0.002": 19.3428740626,
			"0.003": 17.6523664883,
			"0.004": 19.6525289042,
			"0.005": 19.6096109512,
			"0.006": 11.4033648508,
			"0.007": 3.37252630667,
			"0.008": 2.52123463183,
			"0.009": 3.3359435969,
			"0.01": 4.37473569797,
			"0.011": 4.50316529757,
			"0.012": 3.95254688884,
			"0.013": 1.46901370775,
			"0.014": 0.067672910504,
			"0.015": 0.0,
			"0.016": 0.0,
			"0.017": 0.0,
			"0.018": 0.0,
			"0.019": 0.0,
			"0.02": 0.0,
			"0.021": 0.0,
			"0.022": 0.0,
			"0.023": 0.0,
			"0.024": 0.0,
			"0.025": 0.0
		}
	}
}
