{
	 "smiles": "OC(=O)CN1C=CC2=C1C=CC=C2", 
	 "Tm": 443.15, 
	 "num_atms": 22, 
	 "gaussian": { 
		 "optdone": 1, 
		 "sigma_profile": "yes", 
		 "theory": "DFT", 
		 "functional": "B3LYP", 
		 "basiset": "6-31G**", 
		 "properties": { 
			 "R2extent": 2875.1114, 
			 "electric_dipole_moment_norm": 3.40676094993, 
			 "electric_quadrupole_moment_norm": 16.3847122144, 
			 "total_energy": -591.692917038, 
			 "HOMO_LUMO_gap": 0.1943, 
			 "cosmo_polarized_energy": -14.45, 
			 "cosmo_cavitation_energy": 26.21, 
			 "cosmo_dispersion_energy": -18.86, 
			 "cosmo_repulsion_energy": 1.48, 
			 "cosmo_total_nonelectrostatic_energy": 8.83, 
			 "SMD_solvation_energy": 5.93 
		},
		"coords": [
			{
				"x": 2.4472712629,
				"y": -1.9634926062,
				"z": 1.2516062622,
				"element": "O" 
			},
			{
				"x": 2.7799842543,
				"y": -1.0368601239,
				"z": 2.1688910649,
				"element": "C" 
			},
			{
				"x": 3.5951400982,
				"y": -1.2458409997,
				"z": 3.031268104,
				"element": "O" 
			},
			{
				"x": 2.0731873906,
				"y": 0.3277414467,
				"z": 2.0552864189,
				"element": "C" 
			},
			{
				"x": 1.0665831875,
				"y": 0.4272970879,
				"z": 1.0204545751,
				"element": "N" 
			},
			{
				"x": 1.2309770847,
				"y": 1.0409956184,
				"z": -0.2202839328,
				"element": "C" 
			},
			{
				"x": 0.0538457023,
				"y": 1.0194588714,
				"z": -0.9140497919,
				"element": "C" 
			},
			{
				"x": -0.9214709865,
				"y": 0.3740718877,
				"z": -0.0771475935,
				"element": "C" 
			},
			{
				"x": -0.2612060823,
				"y": 0.0199161217,
				"z": 1.1311394778,
				"element": "C" 
			},
			{
				"x": -0.9183174704,
				"y": -0.6304488712,
				"z": 2.1820228996,
				"element": "C" 
			},
			{
				"x": -2.2672206946,
				"y": -0.9215506273,
				"z": 2.0081233261,
				"element": "C" 
			},
			{
				"x": -2.9425491101,
				"y": -0.5804117866,
				"z": 0.8187106808,
				"element": "C" 
			},
			{
				"x": -2.2840586483,
				"y": 0.0611875563,
				"z": -0.2224449566,
				"element": "C" 
			},
			{
				"x": 1.7652223518,
				"y": -1.6016421494,
				"z": 0.6616040048,
				"element": "H" 
			},
			{
				"x": 2.8487325027,
				"y": 1.0777356494,
				"z": 1.8779080222,
				"element": "H" 
			},
			{
				"x": 1.6376127264,
				"y": 0.5509207051,
				"z": 3.0338618458,
				"element": "H" 
			},
			{
				"x": 2.1964446561,
				"y": 1.4423038538,
				"z": -0.4960214793,
				"element": "H" 
			},
			{
				"x": -0.1043115247,
				"y": 1.4201589329,
				"z": -1.9051772094,
				"element": "H" 
			},
			{
				"x": -0.4028250675,
				"y": -0.9049869932,
				"z": 3.0974381192,
				"element": "H" 
			},
			{
				"x": -2.8084761209,
				"y": -1.4246979039,
				"z": 2.8036070006,
				"element": "H" 
			},
			{
				"x": -3.9953802768,
				"y": -0.8265427824,
				"z": 0.718108412,
				"element": "H" 
			},
			{
				"x": -2.8120852356,
				"y": 0.3196871125,
				"z": -1.1359052506,
				"element": "H" 
			}
		],
		 "valence_orbital": [ 
			{
				"type": "occ",
				"energy": -0.32002,
				"method": "rhf"
			},
			{
				"type": "occ",
				"energy": -0.29459,
				"method": "rhf"
			},
			{
				"type": "occ",
				"energy": -0.27591,
				"method": "rhf"
			},
			{
				"type": "occ",
				"energy": -0.23463,
				"method": "rhf"
			},
			{
				"type": "occ",
				"energy": -0.21773,
				"method": "rhf"
			},
			{
				"type": "unocc",
				"energy": -0.02343,
				"method": "rhf"
			},
			{
				"type": "unocc",
				"energy": 0.00112,
				"method": "rhf"
			},
			{
				"type": "unocc",
				"energy": 0.01142,
				"method": "rhf"
			},
			{
				"type": "unocc",
				"energy": 0.05351,
				"method": "rhf"
			},
			{
				"type": "unocc",
				"energy": 0.07091,
				"method": "rhf"
			}
		],
		"cosmo_sigma_profile": { 
			"-0.025": 0.0,
			"-0.024": 0.0,
			"-0.023": 0.0,
			"-0.022": 0.0,
			"-0.021": 0.0,
			"-0.02": 0.0,
			"-0.019": 0.0,
			"-0.018": 0.0,
			"-0.017": 0.0,
			"-0.016": 0.0,
			"-0.015": 0.225432683995,
			"-0.014": 0.592157631793,
			"-0.013": 0.493930209723,
			"-0.012": 0.921792554733,
			"-0.011": 0.862895780909,
			"-0.01": 4.20788122338,
			"-0.009": 7.13014737535,
			"-0.008": 9.03817157459,
			"-0.007": 8.16648661744,
			"-0.006": 9.42896552206,
			"-0.005": 13.5124811306,
			"-0.004": 14.161170968,
			"-0.003": 14.9029857883,
			"-0.002": 11.3532724776,
			"-0.001": 10.432026281,
			"0.0": 9.06110220319,
			"0.001": 9.0685294812,
			"0.002": 8.60871681501,
			"0.003": 10.6522235923,
			"0.004": 10.9558476951,
			"0.005": 14.5650451129,
			"0.006": 12.2291070582,
			"0.007": 6.41329430766,
			"0.008": 3.29273546472,
			"0.009": 3.81641065128,
			"0.01": 4.70406681259,
			"0.011": 4.76250505437,
			"0.012": 5.05920540502,
			"0.013": 1.15688012987,
			"0.014": 0.0,
			"0.015": 0.0,
			"0.016": 0.0,
			"0.017": 0.0,
			"0.018": 0.0,
			"0.019": 0.0,
			"0.02": 0.0,
			"0.021": 0.0,
			"0.022": 0.0,
			"0.023": 0.0,
			"0.024": 0.0,
			"0.025": 0.0
		}
	}
}
