{
	 "smiles": "CC(C)=CC(=O)C=C(C)C", 
	 "Tm": 301.15, 
	 "num_atms": 24, 
	 "gaussian": { 
		 "optdone": 1, 
		 "sigma_profile": "yes", 
		 "theory": "DFT", 
		 "functional": "B3LYP", 
		 "basiset": "6-31G**", 
		 "properties": { 
			 "R2extent": 2463.5067, 
			 "electric_dipole_moment_norm": 2.13217215534, 
			 "electric_quadrupole_moment_norm": 9.81555380557, 
			 "total_energy": -426.605685138, 
			 "HOMO_LUMO_gap": 0.16807, 
			 "cosmo_polarized_energy": -7.15, 
			 "cosmo_cavitation_energy": 26.86, 
			 "cosmo_dispersion_energy": -19.4, 
			 "cosmo_repulsion_energy": 1.59, 
			 "cosmo_total_nonelectrostatic_energy": 9.05, 
			 "SMD_solvation_energy": 5.82 
		},
		"coords": [
			{
				"x": 1.8069206135,
				"y": -1.740678037,
				"z": 0.2746167768,
				"element": "C" 
			},
			{
				"x": 1.8634593507,
				"y": -0.3332825628,
				"z": -0.2549593338,
				"element": "C" 
			},
			{
				"x": 3.2255582914,
				"y": 0.1140220038,
				"z": -0.7226432172,
				"element": "C" 
			},
			{
				"x": 0.8143496163,
				"y": 0.5161290598,
				"z": -0.3332538682,
				"element": "C" 
			},
			{
				"x": -0.596172181,
				"y": 0.2722655032,
				"z": 0.0702269678,
				"element": "C" 
			},
			{
				"x": -0.9871026835,
				"y": -0.7976557391,
				"z": 0.5480758442,
				"element": "O" 
			},
			{
				"x": -1.4916397579,
				"y": 1.4379597302,
				"z": -0.1560152697,
				"element": "C" 
			},
			{
				"x": -2.8156862265,
				"y": 1.5353524071,
				"z": 0.1002986593,
				"element": "C" 
			},
			{
				"x": -3.6721198877,
				"y": 0.4450260399,
				"z": 0.685205098,
				"element": "C" 
			},
			{
				"x": -3.5451099495,
				"y": 2.8192596676,
				"z": -0.2057132092,
				"element": "C" 
			},
			{
				"x": 2.5087008434,
				"y": -1.8499290725,
				"z": 1.1122780342,
				"element": "H" 
			},
			{
				"x": 2.1451241922,
				"y": -2.4419086054,
				"z": -0.4999994638,
				"element": "H" 
			},
			{
				"x": 0.8062515059,
				"y": -2.0131777026,
				"z": 0.5999886385,
				"element": "H" 
			},
			{
				"x": 3.5955648649,
				"y": -0.5457045743,
				"z": -1.5182214857,
				"element": "H" 
			},
			{
				"x": 3.9546825895,
				"y": 0.047934777,
				"z": 0.0953410669,
				"element": "H" 
			},
			{
				"x": 3.2218497681,
				"y": 1.1399882846,
				"z": -1.0992798534,
				"element": "H" 
			},
			{
				"x": 1.0100593947,
				"y": 1.5061703754,
				"z": -0.7402272237,
				"element": "H" 
			},
			{
				"x": -1.0055174804,
				"y": 2.3135577244,
				"z": -0.581605916,
				"element": "H" 
			},
			{
				"x": -4.1371925554,
				"y": 0.7980198729,
				"z": 1.6153952114,
				"element": "H" 
			},
			{
				"x": -4.4984199735,
				"y": 0.2146346878,
				"z": -0.0005412128,
				"element": "H" 
			},
			{
				"x": -3.1012507475,
				"y": -0.4582768526,
				"z": 0.8841943961,
				"element": "H" 
			},
			{
				"x": -4.0090168513,
				"y": 3.2247790533,
				"z": 0.7028192069,
				"element": "H" 
			},
			{
				"x": -2.8871496746,
				"y": 3.583253207,
				"z": -0.6274679734,
				"element": "H" 
			},
			{
				"x": -4.3638430617,
				"y": 2.6377607526,
				"z": -0.9141118734,
				"element": "H" 
			}
		],
		 "valence_orbital": [ 
			{
				"type": "occ",
				"energy": -0.35128,
				"method": "rhf"
			},
			{
				"type": "occ",
				"energy": -0.34754,
				"method": "rhf"
			},
			{
				"type": "occ",
				"energy": -0.25062,
				"method": "rhf"
			},
			{
				"type": "occ",
				"energy": -0.24611,
				"method": "rhf"
			},
			{
				"type": "occ",
				"energy": -0.22758,
				"method": "rhf"
			},
			{
				"type": "unocc",
				"energy": -0.05951,
				"method": "rhf"
			},
			{
				"type": "unocc",
				"energy": 0.02823,
				"method": "rhf"
			},
			{
				"type": "unocc",
				"energy": 0.0923,
				"method": "rhf"
			},
			{
				"type": "unocc",
				"energy": 0.10183,
				"method": "rhf"
			},
			{
				"type": "unocc",
				"energy": 0.11535,
				"method": "rhf"
			}
		],
		"cosmo_sigma_profile": { 
			"-0.025": 0.0,
			"-0.024": 0.0,
			"-0.023": 0.0,
			"-0.022": 0.0,
			"-0.021": 0.0,
			"-0.02": 0.0,
			"-0.019": 0.0,
			"-0.018": 0.0,
			"-0.017": 0.0,
			"-0.016": 0.0,
			"-0.015": 0.0,
			"-0.014": 0.0,
			"-0.013": 0.0,
			"-0.012": 0.0,
			"-0.011": 0.0,
			"-0.01": 0.0,
			"-0.009": 0.0,
			"-0.008": 0.0,
			"-0.007": 0.0,
			"-0.006": 0.89443164551,
			"-0.005": 10.2648661948,
			"-0.004": 29.6600968782,
			"-0.003": 21.9569244032,
			"-0.002": 21.690512307,
			"-0.001": 24.1428201543,
			"0.0": 26.1895051257,
			"0.001": 20.7949373068,
			"0.002": 11.1211587766,
			"0.003": 10.5854448999,
			"0.004": 10.7717473816,
			"0.005": 4.97368830706,
			"0.006": 3.01068043955,
			"0.007": 2.16485502174,
			"0.008": 2.56482788864,
			"0.009": 1.90029752438,
			"0.01": 1.82975953442,
			"0.011": 2.59906824308,
			"0.012": 2.64805724665,
			"0.013": 1.1440861399,
			"0.014": 0.0,
			"0.015": 0.0,
			"0.016": 0.0,
			"0.017": 0.0,
			"0.018": 0.0,
			"0.019": 0.0,
			"0.02": 0.0,
			"0.021": 0.0,
			"0.022": 0.0,
			"0.023": 0.0,
			"0.024": 0.0,
			"0.025": 0.0
		}
	}
}
