{
	 "smiles": "CS(=O)(=O)C1=CC(=CC=C1)S(Cl)(=O)=O", 
	 "Tm": 361.15, 
	 "num_atms": 21, 
	 "gaussian": { 
		 "optdone": 1, 
		 "sigma_profile": "yes", 
		 "theory": "DFT", 
		 "functional": "B3LYP", 
		 "basiset": "6-31G**", 
		 "properties": { 
			 "R2extent": 4769.229, 
			 "electric_dipole_moment_norm": 5.30024838946, 
			 "electric_quadrupole_moment_norm": 27.4462489546, 
			 "total_energy": -1828.28748506, 
			 "HOMO_LUMO_gap": 0.20202, 
			 "cosmo_polarized_energy": -19.01, 
			 "cosmo_cavitation_energy": 30.66, 
			 "cosmo_dispersion_energy": -22.79, 
			 "cosmo_repulsion_energy": 1.72, 
			 "cosmo_total_nonelectrostatic_energy": 9.59, 
			 "SMD_solvation_energy": 3.73 
		},
		"coords": [
			{
				"x": -3.1188095363,
				"y": 0.8304220207,
				"z": -0.5052603545,
				"element": "C" 
			},
			{
				"x": -1.5072154666,
				"y": 1.6473615044,
				"z": -0.4552942803,
				"element": "S" 
			},
			{
				"x": -1.5501314833,
				"y": 2.7852313195,
				"z": -1.3843741636,
				"element": "O" 
			},
			{
				"x": -1.1320501469,
				"y": 1.8138073097,
				"z": 0.9548371024,
				"element": "O" 
			},
			{
				"x": -0.3884334874,
				"y": 0.4180924222,
				"z": -1.1707264777,
				"element": "C" 
			},
			{
				"x": 0.1877608786,
				"y": -0.5382340259,
				"z": -0.3363343374,
				"element": "C" 
			},
			{
				"x": 1.0438450469,
				"y": -1.4680493065,
				"z": -0.9234216579,
				"element": "C" 
			},
			{
				"x": 1.3395570338,
				"y": -1.4603102012,
				"z": -2.2880055059,
				"element": "C" 
			},
			{
				"x": 0.7609510813,
				"y": -0.4794275996,
				"z": -3.0934085618,
				"element": "C" 
			},
			{
				"x": -0.1035305687,
				"y": 0.4656160074,
				"z": -2.5370149648,
				"element": "C" 
			},
			{
				"x": 1.7717530656,
				"y": -2.7386218241,
				"z": 0.1100638757,
				"element": "S" 
			},
			{
				"x": 3.5691271577,
				"y": -1.7922487963,
				"z": 0.7305509802,
				"element": "Cl" 
			},
			{
				"x": 2.1656048149,
				"y": -3.8617825104,
				"z": -0.7307552723,
				"element": "O" 
			},
			{
				"x": 0.9549580417,
				"y": -2.9031883811,
				"z": 1.3049742124,
				"element": "O" 
			},
			{
				"x": -3.0829446716,
				"y": -0.0761392191,
				"z": 0.100408876,
				"element": "H" 
			},
			{
				"x": -3.3783446625,
				"y": 0.6072995489,
				"z": -1.5410241984,
				"element": "H" 
			},
			{
				"x": -3.8301003318,
				"y": 1.5419817223,
				"z": -0.0804742564,
				"element": "H" 
			},
			{
				"x": -0.0154111361,
				"y": -0.5493979541,
				"z": 0.7290162749,
				"element": "H" 
			},
			{
				"x": 2.0048499341,
				"y": -2.2094085323,
				"z": -2.7025808688,
				"element": "H" 
			},
			{
				"x": 0.986541628,
				"y": -0.4509709578,
				"z": -4.1543952666,
				"element": "H" 
			},
			{
				"x": -0.5455771913,
				"y": 1.2482674535,
				"z": -3.1446811552,
				"element": "H" 
			}
		],
		 "valence_orbital": [ 
			{
				"type": "occ",
				"energy": -0.32329,
				"method": "rhf"
			},
			{
				"type": "occ",
				"energy": -0.31567,
				"method": "rhf"
			},
			{
				"type": "occ",
				"energy": -0.31389,
				"method": "rhf"
			},
			{
				"type": "occ",
				"energy": -0.30828,
				"method": "rhf"
			},
			{
				"type": "occ",
				"energy": -0.30369,
				"method": "rhf"
			},
			{
				"type": "unocc",
				"energy": -0.10167,
				"method": "rhf"
			},
			{
				"type": "unocc",
				"energy": -0.07171,
				"method": "rhf"
			},
			{
				"type": "unocc",
				"energy": -0.06073,
				"method": "rhf"
			},
			{
				"type": "unocc",
				"energy": 0.02834,
				"method": "rhf"
			},
			{
				"type": "unocc",
				"energy": 0.04491,
				"method": "rhf"
			}
		],
		"cosmo_sigma_profile": { 
			"-0.025": 0.0,
			"-0.024": 0.0,
			"-0.023": 0.0,
			"-0.022": 0.0,
			"-0.021": 0.0,
			"-0.02": 0.0,
			"-0.019": 0.0,
			"-0.018": 0.0,
			"-0.017": 0.0,
			"-0.016": 0.0,
			"-0.015": 0.0,
			"-0.014": 0.0,
			"-0.013": 0.0,
			"-0.012": 0.0,
			"-0.011": 0.0459071395135,
			"-0.01": 0.974841596194,
			"-0.009": 9.98738980923,
			"-0.008": 14.2280958821,
			"-0.007": 14.6075795598,
			"-0.006": 12.7923372892,
			"-0.005": 13.7445451614,
			"-0.004": 13.86742218,
			"-0.003": 12.8274346578,
			"-0.002": 17.4007774239,
			"-0.001": 19.6445654593,
			"0.0": 14.4489917549,
			"0.001": 10.4464710767,
			"0.002": 12.1809904047,
			"0.003": 16.4807464637,
			"0.004": 6.67086219023,
			"0.005": 4.98854818372,
			"0.006": 5.63369692604,
			"0.007": 9.67720944066,
			"0.008": 12.2377833949,
			"0.009": 5.60562960811,
			"0.01": 6.56493015217,
			"0.011": 9.47883823953,
			"0.012": 4.26215340123,
			"0.013": 0.0,
			"0.014": 0.0,
			"0.015": 0.0,
			"0.016": 0.0,
			"0.017": 0.0,
			"0.018": 0.0,
			"0.019": 0.0,
			"0.02": 0.0,
			"0.021": 0.0,
			"0.022": 0.0,
			"0.023": 0.0,
			"0.024": 0.0,
			"0.025": 0.0
		}
	}
}
