{
	 "smiles": "OCNC(=O)C1=CC=CN=C1", 
	 "Tm": 415.15, 
	 "num_atms": 19, 
	 "gaussian": { 
		 "optdone": 1, 
		 "sigma_profile": "yes", 
		 "theory": "DFT", 
		 "functional": "B3LYP", 
		 "basiset": "6-31G**", 
		 "properties": { 
			 "R2extent": 1860.3685, 
			 "electric_dipole_moment_norm": 4.52324884348, 
			 "electric_quadrupole_moment_norm": 12.1964715717, 
			 "total_energy": -531.511024884, 
			 "HOMO_LUMO_gap": 0.20417, 
			 "cosmo_polarized_energy": -16.67, 
			 "cosmo_cavitation_energy": 23.16, 
			 "cosmo_dispersion_energy": -17.21, 
			 "cosmo_repulsion_energy": 1.39, 
			 "cosmo_total_nonelectrostatic_energy": 7.34, 
			 "SMD_solvation_energy": 3.05 
		},
		"coords": [
			{
				"x": 1.7492544955,
				"y": -2.2752440798,
				"z": 1.7884216438,
				"element": "O" 
			},
			{
				"x": 1.7868006434,
				"y": -0.8709024518,
				"z": 1.9865808853,
				"element": "C" 
			},
			{
				"x": 2.2851773456,
				"y": -0.117732224,
				"z": 0.8595485422,
				"element": "N" 
			},
			{
				"x": 1.5967595845,
				"y": 0.4752789652,
				"z": -0.1865414175,
				"element": "C" 
			},
			{
				"x": 2.1671516675,
				"y": 1.2972858238,
				"z": -0.8942514585,
				"element": "O" 
			},
			{
				"x": 0.163214541,
				"y": 0.1105703291,
				"z": -0.4319523885,
				"element": "C" 
			},
			{
				"x": -0.4027006683,
				"y": -1.1499143725,
				"z": -0.2025395237,
				"element": "C" 
			},
			{
				"x": -1.739195213,
				"y": -1.351050079,
				"z": -0.5459579696,
				"element": "C" 
			},
			{
				"x": -2.4580220659,
				"y": -0.2918193699,
				"z": -1.098355752,
				"element": "C" 
			},
			{
				"x": -1.9323841871,
				"y": 0.9196463997,
				"z": -1.3327391227,
				"element": "N" 
			},
			{
				"x": -0.6491004263,
				"y": 1.0990251446,
				"z": -1.0140767141,
				"element": "C" 
			},
			{
				"x": 2.6314473588,
				"y": -2.5612881483,
				"z": 1.5146488722,
				"element": "H" 
			},
			{
				"x": 0.7581579197,
				"y": -0.5828240598,
				"z": 2.2111628305,
				"element": "H" 
			},
			{
				"x": 2.4157825638,
				"y": -0.6169196064,
				"z": 2.8497008539,
				"element": "H" 
			},
			{
				"x": 3.2342918218,
				"y": 0.2313004111,
				"z": 0.910265917,
				"element": "H" 
			},
			{
				"x": 0.1884794973,
				"y": -1.9549213132,
				"z": 0.2224994453,
				"element": "H" 
			},
			{
				"x": -2.2137302946,
				"y": -2.3151616383,
				"z": -0.3923639822,
				"element": "H" 
			},
			{
				"x": -3.5038055511,
				"y": -0.4200597857,
				"z": -1.3728031097,
				"element": "H" 
			},
			{
				"x": -0.2190790325,
				"y": 2.0750300553,
				"z": -1.2239475517,
				"element": "H" 
			}
		],
		 "valence_orbital": [ 
			{
				"type": "occ",
				"energy": -0.29147,
				"method": "rhf"
			},
			{
				"type": "occ",
				"energy": -0.27512,
				"method": "rhf"
			},
			{
				"type": "occ",
				"energy": -0.27228,
				"method": "rhf"
			},
			{
				"type": "occ",
				"energy": -0.25868,
				"method": "rhf"
			},
			{
				"type": "occ",
				"energy": -0.24987,
				"method": "rhf"
			},
			{
				"type": "unocc",
				"energy": -0.0457,
				"method": "rhf"
			},
			{
				"type": "unocc",
				"energy": -0.02447,
				"method": "rhf"
			},
			{
				"type": "unocc",
				"energy": 0.0393,
				"method": "rhf"
			},
			{
				"type": "unocc",
				"energy": 0.06241,
				"method": "rhf"
			},
			{
				"type": "unocc",
				"energy": 0.09015,
				"method": "rhf"
			}
		],
		"cosmo_sigma_profile": { 
			"-0.025": 0.0,
			"-0.024": 0.0,
			"-0.023": 0.0,
			"-0.022": 0.0,
			"-0.021": 0.0,
			"-0.02": 0.0,
			"-0.019": 0.0,
			"-0.018": 0.0,
			"-0.017": 0.124450691355,
			"-0.016": 0.844166460087,
			"-0.015": 1.21445997133,
			"-0.014": 2.06107674547,
			"-0.013": 2.05551265996,
			"-0.012": 2.93838341009,
			"-0.011": 2.21073229759,
			"-0.01": 1.92148766566,
			"-0.009": 1.90307780101,
			"-0.008": 1.87306517694,
			"-0.007": 7.91217233447,
			"-0.006": 11.252802926,
			"-0.005": 10.7419875706,
			"-0.004": 12.1171973799,
			"-0.003": 9.88065062747,
			"-0.002": 10.7205366611,
			"-0.001": 11.0750850803,
			"0.0": 12.6561044783,
			"0.001": 17.7252643278,
			"0.002": 11.5289344945,
			"0.003": 5.04873240975,
			"0.004": 5.51574386373,
			"0.005": 3.93799473105,
			"0.006": 3.37186252368,
			"0.007": 4.05055812407,
			"0.008": 3.36013148286,
			"0.009": 3.48285517762,
			"0.01": 3.26652240688,
			"0.011": 3.61374695016,
			"0.012": 4.30578796186,
			"0.013": 7.53483106452,
			"0.014": 2.59654926197,
			"0.015": 0.838100909925,
			"0.016": 0.628510152215,
			"0.017": 0.112487525793,
			"0.018": 0.0,
			"0.019": 0.0,
			"0.02": 0.0,
			"0.021": 0.0,
			"0.022": 0.0,
			"0.023": 0.0,
			"0.024": 0.0,
			"0.025": 0.0
		}
	}
}
