{
	 "smiles": "CC1=C(C)C2(C)C(C)=C(C)C12C", 
	 "Tm": 273.85, 
	 "num_atms": 30, 
	 "gaussian": { 
		 "optdone": 1, 
		 "sigma_profile": "yes", 
		 "theory": "DFT", 
		 "functional": "B3LYP", 
		 "basiset": "6-31G**", 
		 "properties": { 
			 "R2extent": 2162.7291, 
			 "electric_dipole_moment_norm": 0.285682708612, 
			 "electric_quadrupole_moment_norm": 1.5353405746, 
			 "total_energy": -468.056274112, 
			 "HOMO_LUMO_gap": 0.22207, 
			 "cosmo_polarized_energy": -2.22, 
			 "cosmo_cavitation_energy": 31.86, 
			 "cosmo_dispersion_energy": -20.63, 
			 "cosmo_repulsion_energy": 1.69, 
			 "cosmo_total_nonelectrostatic_energy": 12.91, 
			 "SMD_solvation_energy": 6.02 
		},
		"coords": [
			{
				"x": -0.4316402137,
				"y": -2.8123268655,
				"z": -1.5772643056,
				"element": "C" 
			},
			{
				"x": -0.2573273042,
				"y": -1.7553390926,
				"z": -0.537020815,
				"element": "C" 
			},
			{
				"x": -1.0926764587,
				"y": -1.0560436343,
				"z": 0.2523637147,
				"element": "C" 
			},
			{
				"x": -2.572836786,
				"y": -1.0199824891,
				"z": 0.4461901283,
				"element": "C" 
			},
			{
				"x": 0.0246436988,
				"y": -0.2038558316,
				"z": 0.8800349288,
				"element": "C" 
			},
			{
				"x": 0.1584401865,
				"y": -0.1654095583,
				"z": 2.3932832984,
				"element": "C" 
			},
			{
				"x": 0.4666564289,
				"y": 1.0222047847,
				"z": 0.0615817487,
				"element": "C" 
			},
			{
				"x": 0.0296333913,
				"y": 2.4485209892,
				"z": 0.1277874051,
				"element": "C" 
			},
			{
				"x": 1.301906403,
				"y": 0.3229489529,
				"z": -0.7279522535,
				"element": "C" 
			},
			{
				"x": 2.1704100875,
				"y": 0.6561307396,
				"z": -1.8960441093,
				"element": "C" 
			},
			{
				"x": 1.0058474632,
				"y": -1.0252343204,
				"z": -0.0473086812,
				"element": "C" 
			},
			{
				"x": 2.1640916635,
				"y": -1.8441065511,
				"z": 0.4978866518,
				"element": "C" 
			},
			{
				"x": -0.0977695273,
				"y": -2.4599813114,
				"z": -2.5625635761,
				"element": "H" 
			},
			{
				"x": 0.1615241281,
				"y": -3.7066281325,
				"z": -1.346334588,
				"element": "H" 
			},
			{
				"x": -1.4784464667,
				"y": -3.1203625341,
				"z": -1.6697899942,
				"element": "H" 
			},
			{
				"x": -2.8459709929,
				"y": -1.1891617668,
				"z": 1.4958200952,
				"element": "H" 
			},
			{
				"x": -3.0787224277,
				"y": -1.7807884212,
				"z": -0.1575644885,
				"element": "H" 
			},
			{
				"x": -2.9869820714,
				"y": -0.0415009783,
				"z": 0.1678331812,
				"element": "H" 
			},
			{
				"x": 0.0636258258,
				"y": -1.1672532874,
				"z": 2.8269769336,
				"element": "H" 
			},
			{
				"x": 1.1262035707,
				"y": 0.2491896014,
				"z": 2.6971273808,
				"element": "H" 
			},
			{
				"x": -0.6222387332,
				"y": 0.4614025144,
				"z": 2.8424101262,
				"element": "H" 
			},
			{
				"x": -1.0467167656,
				"y": 2.5446030922,
				"z": -0.0688436347,
				"element": "H" 
			},
			{
				"x": 0.2064423894,
				"y": 2.8783645116,
				"z": 1.1222376842,
				"element": "H" 
			},
			{
				"x": 0.5593589317,
				"y": 3.068439978,
				"z": -0.6032061018,
				"element": "H" 
			},
			{
				"x": 1.8423583811,
				"y": 0.1255586484,
				"z": -2.8000928227,
				"element": "H" 
			},
			{
				"x": 2.1591506825,
				"y": 1.7289069232,
				"z": -2.11576804,
				"element": "H" 
			},
			{
				"x": 3.2130001192,
				"y": 0.3611567329,
				"z": -1.7201191963,
				"element": "H" 
			},
			{
				"x": 1.8120034699,
				"y": -2.6302300676,
				"z": 1.1752484145,
				"element": "H" 
			},
			{
				"x": 2.8747439996,
				"y": -1.2140153204,
				"z": 1.0444414294,
				"element": "H" 
			},
			{
				"x": 2.7170869267,
				"y": -2.334007306,
				"z": -0.3134505141,
				"element": "H" 
			}
		],
		 "valence_orbital": [ 
			{
				"type": "occ",
				"energy": -0.30615,
				"method": "rhf"
			},
			{
				"type": "occ",
				"energy": -0.27142,
				"method": "rhf"
			},
			{
				"type": "occ",
				"energy": -0.27042,
				"method": "rhf"
			},
			{
				"type": "occ",
				"energy": -0.21914,
				"method": "rhf"
			},
			{
				"type": "occ",
				"energy": -0.20302,
				"method": "rhf"
			},
			{
				"type": "unocc",
				"energy": 0.01905,
				"method": "rhf"
			},
			{
				"type": "unocc",
				"energy": 0.06248,
				"method": "rhf"
			},
			{
				"type": "unocc",
				"energy": 0.07903,
				"method": "rhf"
			},
			{
				"type": "unocc",
				"energy": 0.11226,
				"method": "rhf"
			},
			{
				"type": "unocc",
				"energy": 0.1123,
				"method": "rhf"
			}
		],
		"cosmo_sigma_profile": { 
			"-0.025": 0.0,
			"-0.024": 0.0,
			"-0.023": 0.0,
			"-0.022": 0.0,
			"-0.021": 0.0,
			"-0.02": 0.0,
			"-0.019": 0.0,
			"-0.018": 0.0,
			"-0.017": 0.0,
			"-0.016": 0.0,
			"-0.015": 0.0,
			"-0.014": 0.0,
			"-0.013": 0.0,
			"-0.012": 0.0,
			"-0.011": 0.0,
			"-0.01": 0.0,
			"-0.009": 0.0,
			"-0.008": 0.0,
			"-0.007": 0.0,
			"-0.006": 0.0,
			"-0.005": 0.0,
			"-0.004": 4.46246621143,
			"-0.003": 26.3867392302,
			"-0.002": 31.2300994463,
			"-0.001": 40.2349491772,
			"0.0": 52.7306924679,
			"0.001": 49.3526161397,
			"0.002": 19.5962314059,
			"0.003": 7.49578338174,
			"0.004": 5.39416246253,
			"0.005": 3.85825944478,
			"0.006": 3.52094324946,
			"0.007": 2.27916190525,
			"0.008": 0.945260848149,
			"0.009": 0.232633240453,
			"0.01": 0.0,
			"0.011": 0.0,
			"0.012": 0.0,
			"0.013": 0.0,
			"0.014": 0.0,
			"0.015": 0.0,
			"0.016": 0.0,
			"0.017": 0.0,
			"0.018": 0.0,
			"0.019": 0.0,
			"0.02": 0.0,
			"0.021": 0.0,
			"0.022": 0.0,
			"0.023": 0.0,
			"0.024": 0.0,
			"0.025": 0.0
		}
	}
}
