{
	 "smiles": "CC1=C(C#N)C(=O)NC(=O)N1", 
	 "Tm": 625.15, 
	 "num_atms": 16, 
	 "gaussian": { 
		 "optdone": 1, 
		 "sigma_profile": "yes", 
		 "theory": "DFT", 
		 "functional": "B3LYP", 
		 "basiset": "6-31G**", 
		 "properties": { 
			 "R2extent": 1975.1198, 
			 "electric_dipole_moment_norm": 5.71205141696, 
			 "electric_quadrupole_moment_norm": 18.4370652149, 
			 "total_energy": -546.378365897, 
			 "HOMO_LUMO_gap": 0.19187, 
			 "cosmo_polarized_energy": -24.11, 
			 "cosmo_cavitation_energy": 22.1, 
			 "cosmo_dispersion_energy": -15.84, 
			 "cosmo_repulsion_energy": 1.28, 
			 "cosmo_total_nonelectrostatic_energy": 7.54, 
			 "SMD_solvation_energy": 6.92 
		},
		"coords": [
			{
				"x": 1.1492241077,
				"y": -1.0347834512,
				"z": -0.107108364,
				"element": "C" 
			},
			{
				"x": 0.0292212767,
				"y": -0.0995136348,
				"z": 0.2375323249,
				"element": "C" 
			},
			{
				"x": -0.5469163595,
				"y": 0.7835327769,
				"z": -0.6400228928,
				"element": "C" 
			},
			{
				"x": -0.1043971375,
				"y": 0.8770867688,
				"z": -1.990798419,
				"element": "C" 
			},
			{
				"x": 0.2781249635,
				"y": 0.9312234138,
				"z": -3.0883904688,
				"element": "N" 
			},
			{
				"x": -1.6465008464,
				"y": 1.665556901,
				"z": -0.2076309624,
				"element": "C" 
			},
			{
				"x": -2.2196021644,
				"y": 2.4781637126,
				"z": -0.9065218594,
				"element": "O" 
			},
			{
				"x": -2.0056181566,
				"y": 1.4935362916,
				"z": 1.1421999707,
				"element": "N" 
			},
			{
				"x": -1.4591551525,
				"y": 0.6221948518,
				"z": 2.0634276223,
				"element": "C" 
			},
			{
				"x": -1.8153378297,
				"y": 0.5209759825,
				"z": 3.2199120955,
				"element": "O" 
			},
			{
				"x": -0.426193481,
				"y": -0.1578630483,
				"z": 1.5289627538,
				"element": "N" 
			},
			{
				"x": 2.0184842861,
				"y": -0.8371535109,
				"z": 0.530345373,
				"element": "H" 
			},
			{
				"x": 1.4468887737,
				"y": -0.921170765,
				"z": -1.14888592,
				"element": "H" 
			},
			{
				"x": 0.8411932158,
				"y": -2.0732920527,
				"z": 0.0591377602,
				"element": "H" 
			},
			{
				"x": -2.7582615211,
				"y": 2.0815174075,
				"z": 1.4805951593,
				"element": "H" 
			},
			{
				"x": -0.0119539746,
				"y": -0.8034116436,
				"z": 2.1880458268,
				"element": "H" 
			}
		],
		 "valence_orbital": [ 
			{
				"type": "occ",
				"energy": -0.33936,
				"method": "rhf"
			},
			{
				"type": "occ",
				"energy": -0.31552,
				"method": "rhf"
			},
			{
				"type": "occ",
				"energy": -0.305,
				"method": "rhf"
			},
			{
				"type": "occ",
				"energy": -0.28381,
				"method": "rhf"
			},
			{
				"type": "occ",
				"energy": -0.26415,
				"method": "rhf"
			},
			{
				"type": "unocc",
				"energy": -0.07228,
				"method": "rhf"
			},
			{
				"type": "unocc",
				"energy": -0.02124,
				"method": "rhf"
			},
			{
				"type": "unocc",
				"energy": 0.02169,
				"method": "rhf"
			},
			{
				"type": "unocc",
				"energy": 0.04309,
				"method": "rhf"
			},
			{
				"type": "unocc",
				"energy": 0.04889,
				"method": "rhf"
			}
		],
		"cosmo_sigma_profile": { 
			"-0.025": 0.0,
			"-0.024": 0.0,
			"-0.023": 0.0,
			"-0.022": 0.0,
			"-0.021": 0.0,
			"-0.02": 0.0,
			"-0.019": 0.0,
			"-0.018": 0.487504367976,
			"-0.017": 1.78750271584,
			"-0.016": 2.18550365463,
			"-0.015": 2.46631719892,
			"-0.014": 1.78685387379,
			"-0.013": 1.1819576822,
			"-0.012": 2.27316782744,
			"-0.011": 2.34849673653,
			"-0.01": 2.18609962499,
			"-0.009": 2.96362790107,
			"-0.008": 6.09607055951,
			"-0.007": 7.12024145,
			"-0.006": 9.38607306922,
			"-0.005": 12.463727119,
			"-0.004": 17.8567591993,
			"-0.003": 13.3569259768,
			"-0.002": 8.78624357663,
			"-0.001": 4.44078233721,
			"0.0": 3.60766154028,
			"0.001": 3.85992973101,
			"0.002": 4.10689030849,
			"0.003": 3.36382260914,
			"0.004": 3.64357505186,
			"0.005": 4.56363016224,
			"0.006": 4.86800500744,
			"0.007": 5.84793422081,
			"0.008": 5.48422843551,
			"0.009": 6.4722623618,
			"0.01": 7.65302369288,
			"0.011": 11.5744511133,
			"0.012": 11.6699474818,
			"0.013": 1.91477170906,
			"0.014": 0.014074048392,
			"0.015": 0.0,
			"0.016": 0.0,
			"0.017": 0.0,
			"0.018": 0.0,
			"0.019": 0.0,
			"0.02": 0.0,
			"0.021": 0.0,
			"0.022": 0.0,
			"0.023": 0.0,
			"0.024": 0.0,
			"0.025": 0.0
		}
	}
}
