{
	 "smiles": "COC1=CC=C(C=C1)N1C(C)=C(C)C2=C1N=CN=C2N", 
	 "Tm": 505.15, 
	 "num_atms": 36, 
	 "gaussian": { 
		 "optdone": 1, 
		 "sigma_profile": "yes", 
		 "theory": "DFT", 
		 "functional": "B3LYP", 
		 "basiset": "6-31G**", 
		 "properties": { 
			 "R2extent": 6879.0252, 
			 "electric_dipole_moment_norm": 4.59092655354, 
			 "electric_quadrupole_moment_norm": 20.4721793942, 
			 "total_energy": -875.487045069, 
			 "HOMO_LUMO_gap": 0.18126, 
			 "cosmo_polarized_energy": -17.04, 
			 "cosmo_cavitation_energy": 39.07, 
			 "cosmo_dispersion_energy": -27.97, 
			 "cosmo_repulsion_energy": 2.14, 
			 "cosmo_total_nonelectrostatic_energy": 13.24, 
			 "SMD_solvation_energy": 4.64 
		},
		"coords": [
			{
				"x": 0.2539439493,
				"y": 1.1659716812,
				"z": -6.257663475,
				"element": "C" 
			},
			{
				"x": 0.924000816,
				"y": 0.2305824677,
				"z": -5.4279582775,
				"element": "O" 
			},
			{
				"x": 0.5700970603,
				"y": 0.1638632169,
				"z": -4.1124518718,
				"element": "C" 
			},
			{
				"x": 1.2818384751,
				"y": -0.7652896651,
				"z": -3.3372920717,
				"element": "C" 
			},
			{
				"x": 0.9933805719,
				"y": -0.9211391207,
				"z": -1.9894901455,
				"element": "C" 
			},
			{
				"x": -0.0057957687,
				"y": -0.1440000435,
				"z": -1.3864794203,
				"element": "C" 
			},
			{
				"x": -0.6981261936,
				"y": 0.7929304874,
				"z": -2.1529464259,
				"element": "C" 
			},
			{
				"x": -0.4259234103,
				"y": 0.9448626395,
				"z": -3.5149243963,
				"element": "C" 
			},
			{
				"x": -0.2956950817,
				"y": -0.3033689412,
				"z": 0.0020904968,
				"element": "N" 
			},
			{
				"x": -1.5250010183,
				"y": -0.6940154352,
				"z": 0.5646794081,
				"element": "C" 
			},
			{
				"x": -2.6910806077,
				"y": -1.0391074283,
				"z": -0.3057862931,
				"element": "C" 
			},
			{
				"x": -1.4111198435,
				"y": -0.7327210443,
				"z": 1.9373656153,
				"element": "C" 
			},
			{
				"x": -2.4777567506,
				"y": -1.1088054716,
				"z": 2.9251090627,
				"element": "C" 
			},
			{
				"x": -0.0548165343,
				"y": -0.3556728269,
				"z": 2.245091506,
				"element": "C" 
			},
			{
				"x": 0.607791337,
				"y": -0.1055323,
				"z": 1.0261479129,
				"element": "C" 
			},
			{
				"x": 1.8887420857,
				"y": 0.2603831508,
				"z": 0.8791118157,
				"element": "N" 
			},
			{
				"x": 2.5221027489,
				"y": 0.3756873746,
				"z": 2.0448629245,
				"element": "C" 
			},
			{
				"x": 2.0325763992,
				"y": 0.18155912,
				"z": 3.2808183293,
				"element": "N" 
			},
			{
				"x": 0.746714829,
				"y": -0.1854250085,
				"z": 3.3959718367,
				"element": "C" 
			},
			{
				"x": 0.2870844197,
				"y": -0.4189170186,
				"z": 4.6704020206,
				"element": "N" 
			},
			{
				"x": -0.8232656878,
				"y": 0.961223076,
				"z": -6.3122408657,
				"element": "H" 
			},
			{
				"x": 0.4055677088,
				"y": 2.1964071561,
				"z": -5.9111931791,
				"element": "H" 
			},
			{
				"x": 0.6901946446,
				"y": 1.0543273289,
				"z": -7.2514321209,
				"element": "H" 
			},
			{
				"x": 2.054867345,
				"y": -1.3557798285,
				"z": -3.8175216223,
				"element": "H" 
			},
			{
				"x": 1.5451635667,
				"y": -1.6367169399,
				"z": -1.3904917292,
				"element": "H" 
			},
			{
				"x": -1.4477596645,
				"y": 1.4210491784,
				"z": -1.6824406185,
				"element": "H" 
			},
			{
				"x": -0.9814389872,
				"y": 1.6781436188,
				"z": -4.0869515758,
				"element": "H" 
			},
			{
				"x": -2.3951064509,
				"y": -1.7085502089,
				"z": -1.1205790435,
				"element": "H" 
			},
			{
				"x": -3.1515676583,
				"y": -0.1574835506,
				"z": -0.7672135295,
				"element": "H" 
			},
			{
				"x": -3.462360794,
				"y": -1.5427887083,
				"z": 0.2803591797,
				"element": "H" 
			},
			{
				"x": -2.1336087384,
				"y": -1.8946304492,
				"z": 3.6081357499,
				"element": "H" 
			},
			{
				"x": -2.7905530753,
				"y": -0.2525040986,
				"z": 3.5388305418,
				"element": "H" 
			},
			{
				"x": -3.3773890473,
				"y": -1.4827149096,
				"z": 2.4296115209,
				"element": "H" 
			},
			{
				"x": 3.569118517,
				"y": 0.6698202053,
				"z": 1.996445976,
				"element": "H" 
			},
			{
				"x": 0.892572436,
				"y": -0.0715746704,
				"z": 5.4006324001,
				"element": "H" 
			},
			{
				"x": -0.702991598,
				"y": -0.3475730335,
				"z": 4.8428903646,
				"element": "H" 
			}
		],
		 "valence_orbital": [ 
			{
				"type": "occ",
				"energy": -0.25099,
				"method": "rhf"
			},
			{
				"type": "occ",
				"energy": -0.24441,
				"method": "rhf"
			},
			{
				"type": "occ",
				"energy": -0.23659,
				"method": "rhf"
			},
			{
				"type": "occ",
				"energy": -0.21577,
				"method": "rhf"
			},
			{
				"type": "occ",
				"energy": -0.1891,
				"method": "rhf"
			},
			{
				"type": "unocc",
				"energy": -0.00784,
				"method": "rhf"
			},
			{
				"type": "unocc",
				"energy": -0.00256,
				"method": "rhf"
			},
			{
				"type": "unocc",
				"energy": 0.00341,
				"method": "rhf"
			},
			{
				"type": "unocc",
				"energy": 0.0257,
				"method": "rhf"
			},
			{
				"type": "unocc",
				"energy": 0.0655,
				"method": "rhf"
			}
		],
		"cosmo_sigma_profile": { 
			"-0.025": 0.0,
			"-0.024": 0.0,
			"-0.023": 0.0,
			"-0.022": 0.0,
			"-0.021": 0.0,
			"-0.02": 0.0,
			"-0.019": 0.0,
			"-0.018": 0.0,
			"-0.017": 0.0,
			"-0.016": 0.0,
			"-0.015": 0.0,
			"-0.014": 0.0,
			"-0.013": 0.645110205393,
			"-0.012": 1.96379556351,
			"-0.011": 2.12293768994,
			"-0.01": 2.33815595214,
			"-0.009": 3.07622631333,
			"-0.008": 2.49168379128,
			"-0.007": 3.89904734477,
			"-0.006": 17.8938990985,
			"-0.005": 24.8012362751,
			"-0.004": 25.763315981,
			"-0.003": 25.4526701795,
			"-0.002": 22.0477706998,
			"-0.001": 22.5639567995,
			"0.0": 21.9818389743,
			"0.001": 19.853646496,
			"0.002": 21.8232568015,
			"0.003": 21.5589509194,
			"0.004": 20.0584198482,
			"0.005": 12.713412446,
			"0.006": 6.99665121798,
			"0.007": 4.8565788317,
			"0.008": 4.76699659609,
			"0.009": 5.65377250395,
			"0.01": 4.17918147774,
			"0.011": 2.3437135118,
			"0.012": 2.01056482758,
			"0.013": 2.49221616921,
			"0.014": 1.91019798442,
			"0.015": 1.61564611108,
			"0.016": 0.712584495725,
			"0.017": 0.0795334784869,
			"0.018": 0.0,
			"0.019": 0.0,
			"0.02": 0.0,
			"0.021": 0.0,
			"0.022": 0.0,
			"0.023": 0.0,
			"0.024": 0.0,
			"0.025": 0.0
		}
	}
}
