{
	 "smiles": "OC(=O)C1=C(C=CC=C1)C1=NC2=C(S1)C=CC=C2", 
	 "Tm": 464.15, 
	 "num_atms": 27, 
	 "gaussian": { 
		 "optdone": 1, 
		 "sigma_profile": "yes", 
		 "theory": "DFT", 
		 "functional": "B3LYP", 
		 "basiset": "6-31G**", 
		 "properties": { 
			 "R2extent": 5817.5053, 
			 "electric_dipole_moment_norm": 1.98453860129, 
			 "electric_quadrupole_moment_norm": 14.2728624389, 
			 "total_energy": -1142.32233362, 
			 "HOMO_LUMO_gap": 0.16533, 
			 "cosmo_polarized_energy": -13.8, 
			 "cosmo_cavitation_energy": 33.57, 
			 "cosmo_dispersion_energy": -24.79, 
			 "cosmo_repulsion_energy": 1.86, 
			 "cosmo_total_nonelectrostatic_energy": 10.63, 
			 "SMD_solvation_energy": 4.42 
		},
		"coords": [
			{
				"x": -1.571701706,
				"y": 4.0900416111,
				"z": 2.5927534708,
				"element": "O" 
			},
			{
				"x": -0.8786253437,
				"y": 3.2790740141,
				"z": 1.7519539792,
				"element": "C" 
			},
			{
				"x": -1.2182427253,
				"y": 3.1134797358,
				"z": 0.5989450225,
				"element": "O" 
			},
			{
				"x": 0.3278885589,
				"y": 2.6831431738,
				"z": 2.3961649486,
				"element": "C" 
			},
			{
				"x": 0.9873072836,
				"y": 1.5674319042,
				"z": 1.8308146066,
				"element": "C" 
			},
			{
				"x": 2.2108045735,
				"y": 1.1583922914,
				"z": 2.3807697868,
				"element": "C" 
			},
			{
				"x": 2.7634329614,
				"y": 1.8141280135,
				"z": 3.4789031857,
				"element": "C" 
			},
			{
				"x": 2.0920007316,
				"y": 2.8911434097,
				"z": 4.0580052535,
				"element": "C" 
			},
			{
				"x": 0.884168434,
				"y": 3.3211103617,
				"z": 3.5151805873,
				"element": "C" 
			},
			{
				"x": 0.4636322163,
				"y": 0.7463426403,
				"z": 0.7122817483,
				"element": "C" 
			},
			{
				"x": 1.1793978226,
				"y": 0.4314105914,
				"z": -0.321233661,
				"element": "N" 
			},
			{
				"x": 0.5084420958,
				"y": -0.4511148777,
				"z": -1.1510645486,
				"element": "C" 
			},
			{
				"x": -0.7747359741,
				"y": -0.8509475079,
				"z": -0.7019754137,
				"element": "C" 
			},
			{
				"x": -1.1206080304,
				"y": -0.0648908506,
				"z": 0.8207878336,
				"element": "S" 
			},
			{
				"x": -1.5573508489,
				"y": -1.7437452586,
				"z": -1.4396126802,
				"element": "C" 
			},
			{
				"x": -1.0412757672,
				"y": -2.2342432317,
				"z": -2.6361192349,
				"element": "C" 
			},
			{
				"x": 0.2302171463,
				"y": -1.8437016215,
				"z": -3.093049677,
				"element": "C" 
			},
			{
				"x": 1.008330943,
				"y": -0.9559639467,
				"z": -2.3608214662,
				"element": "C" 
			},
			{
				"x": -2.2961124219,
				"y": 4.4576157291,
				"z": 2.0599379999,
				"element": "H" 
			},
			{
				"x": 2.7160390918,
				"y": 0.3087735022,
				"z": 1.9347587665,
				"element": "H" 
			},
			{
				"x": 3.7124558991,
				"y": 1.4770451733,
				"z": 3.8852963041,
				"element": "H" 
			},
			{
				"x": 2.5105502945,
				"y": 3.4013100046,
				"z": 4.9201082392,
				"element": "H" 
			},
			{
				"x": 0.3683840704,
				"y": 4.1750501806,
				"z": 3.9379060655,
				"element": "H" 
			},
			{
				"x": -2.5403502342,
				"y": -2.0466672482,
				"z": -1.0935773377,
				"element": "H" 
			},
			{
				"x": -1.6328328627,
				"y": -2.9286566834,
				"z": -3.2254004072,
				"element": "H" 
			},
			{
				"x": 0.6057983352,
				"y": -2.2411690693,
				"z": -4.0311281116,
				"element": "H" 
			},
			{
				"x": 1.9902854565,
				"y": -0.6424920412,
				"z": -2.6995852602,
				"element": "H" 
			}
		],
		 "valence_orbital": [ 
			{
				"type": "occ",
				"energy": -0.27341,
				"method": "rhf"
			},
			{
				"type": "occ",
				"energy": -0.26989,
				"method": "rhf"
			},
			{
				"type": "occ",
				"energy": -0.26717,
				"method": "rhf"
			},
			{
				"type": "occ",
				"energy": -0.22984,
				"method": "rhf"
			},
			{
				"type": "occ",
				"energy": -0.22824,
				"method": "rhf"
			},
			{
				"type": "unocc",
				"energy": -0.06291,
				"method": "rhf"
			},
			{
				"type": "unocc",
				"energy": -0.03468,
				"method": "rhf"
			},
			{
				"type": "unocc",
				"energy": -0.00954,
				"method": "rhf"
			},
			{
				"type": "unocc",
				"energy": -0.00116,
				"method": "rhf"
			},
			{
				"type": "unocc",
				"energy": 0.01776,
				"method": "rhf"
			}
		],
		"cosmo_sigma_profile": { 
			"-0.025": 0.0,
			"-0.024": 0.0,
			"-0.023": 0.0,
			"-0.022": 0.0,
			"-0.021": 0.0,
			"-0.02": 0.0,
			"-0.019": 0.00806662586177,
			"-0.018": 0.963373114795,
			"-0.017": 0.786512854639,
			"-0.016": 1.0416646541,
			"-0.015": 0.756833829917,
			"-0.014": 0.534981476604,
			"-0.013": 0.520740799502,
			"-0.012": 0.720789202106,
			"-0.011": 0.990355178822,
			"-0.01": 0.863327492205,
			"-0.009": 0.406278482457,
			"-0.008": 1.21129731178,
			"-0.007": 10.1188706055,
			"-0.006": 16.7882374144,
			"-0.005": 18.7869471825,
			"-0.004": 17.4385561945,
			"-0.003": 15.3192738449,
			"-0.002": 16.255449067,
			"-0.001": 16.7496924907,
			"0.0": 17.3873301039,
			"0.001": 24.0465679395,
			"0.002": 28.0235651181,
			"0.003": 26.4774860667,
			"0.004": 16.4273376608,
			"0.005": 9.97908111866,
			"0.006": 5.86567868301,
			"0.007": 4.00974857588,
			"0.008": 4.10620635586,
			"0.009": 3.18694500243,
			"0.01": 3.76721439107,
			"0.011": 4.8099382104,
			"0.012": 2.99194482815,
			"0.013": 0.523224278597,
			"0.014": 0.660501942675,
			"0.015": 0.113732514989,
			"0.016": 0.0,
			"0.017": 0.0,
			"0.018": 0.0,
			"0.019": 0.0,
			"0.02": 0.0,
			"0.021": 0.0,
			"0.022": 0.0,
			"0.023": 0.0,
			"0.024": 0.0,
			"0.0": 0.0
		}
	}
}
