{
	 "smiles": "COC(=O)C1=C([C@@H]2C=C[C@H]1C1=CC=CC=C21)C(=O)C1=CC=CC=C1", 
	 "Tm": 400.5, 
	 "num_atms": 40, 
	 "gaussian": { 
		 "optdone": 1, 
		 "sigma_profile": "yes", 
		 "theory": "DFT", 
		 "functional": "B3LYP", 
		 "basiset": "6-31G**", 
		 "properties": { 
			 "R2extent": 7021.7545, 
			 "electric_dipole_moment_norm": 3.28236243428, 
			 "electric_quadrupole_moment_norm": 11.8355302522, 
			 "total_energy": -1035.50667767, 
			 "HOMO_LUMO_gap": 0.15921, 
			 "cosmo_polarized_energy": -15.11, 
			 "cosmo_cavitation_energy": 43.85, 
			 "cosmo_dispersion_energy": -29.25, 
			 "cosmo_repulsion_energy": 2.27, 
			 "cosmo_total_nonelectrostatic_energy": 16.87, 
			 "SMD_solvation_energy": 8.98 
		},
		"coords": [
			{
				"x": 1.5478120337,
				"y": 3.7082628148,
				"z": -1.8303214612,
				"element": "C" 
			},
			{
				"x": 1.378248177,
				"y": 2.2833665081,
				"z": -1.8842017447,
				"element": "O" 
			},
			{
				"x": 1.3616304758,
				"y": 1.6624444751,
				"z": -0.6791691312,
				"element": "C" 
			},
			{
				"x": 1.47659343,
				"y": 2.2589996339,
				"z": 0.3754702591,
				"element": "O" 
			},
			{
				"x": 1.1962296517,
				"y": 0.2012226017,
				"z": -0.8103676891,
				"element": "C" 
			},
			{
				"x": 1.0851526382,
				"y": -0.6239880516,
				"z": 0.2476702971,
				"element": "C" 
			},
			{
				"x": 0.9949794042,
				"y": -2.1090969772,
				"z": -0.152616911,
				"element": "C" 
			},
			{
				"x": 2.2161007335,
				"y": -2.3937384157,
				"z": -1.0397696052,
				"element": "C" 
			},
			{
				"x": 2.3132550917,
				"y": -1.5797929854,
				"z": -2.0895089049,
				"element": "C" 
			},
			{
				"x": 1.1888019742,
				"y": -0.536229793,
				"z": -2.162822134,
				"element": "C" 
			},
			{
				"x": -0.1182546701,
				"y": -1.3378062264,
				"z": -2.1788223831,
				"element": "C" 
			},
			{
				"x": -1.1295353516,
				"y": -1.2810148521,
				"z": -3.1274013659,
				"element": "C" 
			},
			{
				"x": -2.2616023693,
				"y": -2.0960146385,
				"z": -2.9681323933,
				"element": "C" 
			},
			{
				"x": -2.3697569866,
				"y": -2.9466759606,
				"z": -1.8699081091,
				"element": "C" 
			},
			{
				"x": -1.3471616577,
				"y": -2.9991725729,
				"z": -0.9095615002,
				"element": "C" 
			},
			{
				"x": -0.2266915897,
				"y": -2.1967614949,
				"z": -1.0742253074,
				"element": "C" 
			},
			{
				"x": 1.169362927,
				"y": -0.2952823121,
				"z": 1.7141090055,
				"element": "C" 
			},
			{
				"x": 2.1620458347,
				"y": -0.6799092236,
				"z": 2.3181637412,
				"element": "O" 
			},
			{
				"x": 0.0242042545,
				"y": 0.3614161254,
				"z": 2.4053822633,
				"element": "C" 
			},
			{
				"x": -1.1909969136,
				"y": 0.6230597736,
				"z": 1.7571580718,
				"element": "C" 
			},
			{
				"x": -2.2479577559,
				"y": 1.2011510924,
				"z": 2.4592204661,
				"element": "C" 
			},
			{
				"x": -2.0957877589,
				"y": 1.5259145472,
				"z": 3.8086714417,
				"element": "C" 
			},
			{
				"x": -0.8855828842,
				"y": 1.2658853321,
				"z": 4.4605778038,
				"element": "C" 
			},
			{
				"x": 0.1673655913,
				"y": 0.6816495712,
				"z": 3.7644568373,
				"element": "C" 
			},
			{
				"x": 1.5485560212,
				"y": 4.0441358544,
				"z": -2.8672896713,
				"element": "H" 
			},
			{
				"x": 0.7282851206,
				"y": 4.1726366385,
				"z": -1.2760595468,
				"element": "H" 
			},
			{
				"x": 2.4908367876,
				"y": 3.965111806,
				"z": -1.3413477566,
				"element": "H" 
			},
			{
				"x": 0.9296231837,
				"y": -2.7662719477,
				"z": 0.7146753496,
				"element": "H" 
			},
			{
				"x": 2.8982229282,
				"y": -3.1996211289,
				"z": -0.7956290556,
				"element": "H" 
			},
			{
				"x": 3.0870154063,
				"y": -1.6206229768,
				"z": -2.8476314338,
				"element": "H" 
			},
			{
				"x": 1.2806376796,
				"y": 0.1462988647,
				"z": -3.0052145814,
				"element": "H" 
			},
			{
				"x": -1.0474554266,
				"y": -0.61527918,
				"z": -3.9826622212,
				"element": "H" 
			},
			{
				"x": -3.0575034799,
				"y": -2.0606241456,
				"z": -3.7065541445,
				"element": "H" 
			},
			{
				"x": -3.2490314737,
				"y": -3.5737101441,
				"z": -1.7537541826,
				"element": "H" 
			},
			{
				"x": -1.4317774378,
				"y": -3.66190763,
				"z": -0.0521890437,
				"element": "H" 
			},
			{
				"x": -1.3103746412,
				"y": 0.3682775661,
				"z": 0.7090765512,
				"element": "H" 
			},
			{
				"x": -3.188895154,
				"y": 1.3985958351,
				"z": 1.9540485053,
				"element": "H" 
			},
			{
				"x": -2.9190106181,
				"y": 1.9796874301,
				"z": 4.3535026855,
				"element": "H" 
			},
			{
				"x": -0.7684739632,
				"y": 1.5186935093,
				"z": 5.5104135833,
				"element": "H" 
			},
			{
				"x": 1.1137907873,
				"y": 0.4638106776,
				"z": 4.2478634159,
				"element": "H" 
			}
		],
		 "valence_orbital": [ 
			{
				"type": "occ",
				"energy": -0.25417,
				"method": "rhf"
			},
			{
				"type": "occ",
				"energy": -0.25308,
				"method": "rhf"
			},
			{
				"type": "occ",
				"energy": -0.2501,
				"method": "rhf"
			},
			{
				"type": "occ",
				"energy": -0.24444,
				"method": "rhf"
			},
			{
				"type": "occ",
				"energy": -0.22206,
				"method": "rhf"
			},
			{
				"type": "unocc",
				"energy": -0.06285,
				"method": "rhf"
			},
			{
				"type": "unocc",
				"energy": -0.04105,
				"method": "rhf"
			},
			{
				"type": "unocc",
				"energy": -0.01013,
				"method": "rhf"
			},
			{
				"type": "unocc",
				"energy": -0.00283,
				"method": "rhf"
			},
			{
				"type": "unocc",
				"energy": 0.00149,
				"method": "rhf"
			}
		],
		"cosmo_sigma_profile": { 
			"-0.025": 0.0,
			"-0.024": 0.0,
			"-0.023": 0.0,
			"-0.022": 0.0,
			"-0.021": 0.0,
			"-0.02": 0.0,
			"-0.019": 0.0,
			"-0.018": 0.0,
			"-0.017": 0.0,
			"-0.016": 0.0,
			"-0.015": 0.0,
			"-0.014": 0.0,
			"-0.013": 0.0,
			"-0.012": 0.0,
			"-0.011": 0.0,
			"-0.01": 0.0,
			"-0.009": 0.0,
			"-0.008": 0.0,
			"-0.007": 4.47558982416,
			"-0.006": 23.9983392373,
			"-0.005": 36.5359343202,
			"-0.004": 35.8026676959,
			"-0.003": 31.8514975499,
			"-0.002": 27.470915628,
			"-0.001": 22.6486777755,
			"0.0": 19.4624369949,
			"0.001": 20.2151950165,
			"0.002": 21.4315334149,
			"0.003": 22.3165717322,
			"0.004": 24.8659932943,
			"0.005": 18.7860085965,
			"0.006": 12.5758018908,
			"0.007": 4.15136312912,
			"0.008": 3.61565429578,
			"0.009": 4.53427968438,
			"0.01": 4.42095773241,
			"0.011": 6.84866644469,
			"0.012": 4.64710763159,
			"0.013": 0.225657855116,
			"0.014": 0.0,
			"0.015": 0.0,
			"0.016": 0.0,
			"0.017": 0.0,
			"0.018": 0.0,
			"0.019": 0.0,
			"0.02": 0.0,
			"0.021": 0.0,
			"0.022": 0.0,
			"0.023": 0.0,
			"0.024": 0.0,
			"0.025": 0.0
		}
	}
}
