{
	 "smiles": "CSC(SC)=C[N+]([O-])=O", 
	 "Tm": 398.65, 
	 "num_atms": 16, 
	 "gaussian": { 
		 "optdone": 1, 
		 "sigma_profile": "yes", 
		 "theory": "DFT", 
		 "functional": "B3LYP", 
		 "basiset": "6-31G**", 
		 "properties": { 
			 "R2extent": 2048.4136, 
			 "electric_dipole_moment_norm": 6.05981593285, 
			 "electric_quadrupole_moment_norm": 11.1798448182, 
			 "total_energy": -1158.08762829, 
			 "HOMO_LUMO_gap": 0.15597, 
			 "cosmo_polarized_energy": -12.12, 
			 "cosmo_cavitation_energy": 23.34, 
			 "cosmo_dispersion_energy": -17.81, 
			 "cosmo_repulsion_energy": 1.38, 
			 "cosmo_total_nonelectrostatic_energy": 6.91, 
			 "SMD_solvation_energy": 7.07 
		},
		"coords": [
			{
				"x": 1.9001863688,
				"y": 1.4927581395,
				"z": -0.6337263938,
				"element": "C" 
			},
			{
				"x": 1.0991298952,
				"y": -0.0742458623,
				"z": -1.1536855268,
				"element": "S" 
			},
			{
				"x": 0.1993325625,
				"y": -0.4981298297,
				"z": 0.342147385,
				"element": "C" 
			},
			{
				"x": 1.0083028356,
				"y": -1.1784448781,
				"z": 1.7551647349,
				"element": "S" 
			},
			{
				"x": 2.7001170437,
				"y": -1.5305908876,
				"z": 1.1520245687,
				"element": "C" 
			},
			{
				"x": -1.1387554039,
				"y": -0.2852875161,
				"z": 0.2719548641,
				"element": "C" 
			},
			{
				"x": -2.0649882385,
				"y": -0.6059602791,
				"z": 1.3183583724,
				"element": "N" 
			},
			{
				"x": -3.2639818796,
				"y": -0.464349168,
				"z": 1.0592807223,
				"element": "O" 
			},
			{
				"x": -1.6172371571,
				"y": -0.9914199037,
				"z": 2.4081526501,
				"element": "O" 
			},
			{
				"x": 1.1459190036,
				"y": 2.2433669979,
				"z": -0.392794563,
				"element": "H" 
			},
			{
				"x": 2.5668943139,
				"y": 1.344806419,
				"z": 0.2173108306,
				"element": "H" 
			},
			{
				"x": 2.484044848,
				"y": 1.8268336798,
				"z": -1.4943632953,
				"element": "H" 
			},
			{
				"x": 3.2783637466,
				"y": -0.6283077928,
				"z": 0.950453499,
				"element": "H" 
			},
			{
				"x": 2.6884327346,
				"y": -2.1725363733,
				"z": 0.2715623806,
				"element": "H" 
			},
			{
				"x": 3.1633266618,
				"y": -2.0664317904,
				"z": 1.9845339957,
				"element": "H" 
			},
			{
				"x": -1.6211873352,
				"y": 0.1328390449,
				"z": -0.5989742243,
				"element": "H" 
			}
		],
		 "valence_orbital": [ 
			{
				"type": "occ",
				"energy": -0.30012,
				"method": "rhf"
			},
			{
				"type": "occ",
				"energy": -0.29633,
				"method": "rhf"
			},
			{
				"type": "occ",
				"energy": -0.27992,
				"method": "rhf"
			},
			{
				"type": "occ",
				"energy": -0.26013,
				"method": "rhf"
			},
			{
				"type": "occ",
				"energy": -0.2472,
				"method": "rhf"
			},
			{
				"type": "unocc",
				"energy": -0.09123,
				"method": "rhf"
			},
			{
				"type": "unocc",
				"energy": -0.00678,
				"method": "rhf"
			},
			{
				"type": "unocc",
				"energy": 0.00902,
				"method": "rhf"
			},
			{
				"type": "unocc",
				"energy": 0.04231,
				"method": "rhf"
			},
			{
				"type": "unocc",
				"energy": 0.04769,
				"method": "rhf"
			}
		],
		"cosmo_sigma_profile": { 
			"-0.025": 0.0,
			"-0.024": 0.0,
			"-0.023": 0.0,
			"-0.022": 0.0,
			"-0.021": 0.0,
			"-0.02": 0.0,
			"-0.019": 0.0,
			"-0.018": 0.0,
			"-0.017": 0.0,
			"-0.016": 0.0,
			"-0.015": 0.0,
			"-0.014": 0.0,
			"-0.013": 0.0,
			"-0.012": 0.0,
			"-0.011": 0.0,
			"-0.01": 0.0,
			"-0.009": 1.18338461155,
			"-0.008": 4.17018628176,
			"-0.007": 9.19571348345,
			"-0.006": 10.0131471296,
			"-0.005": 13.8857913999,
			"-0.004": 15.9156525374,
			"-0.003": 21.6394639568,
			"-0.002": 19.9981435954,
			"-0.001": 11.8617528652,
			"0.0": 8.01533767162,
			"0.001": 7.35045217742,
			"0.002": 6.53710119858,
			"0.003": 7.34056497681,
			"0.004": 7.11641556657,
			"0.005": 7.13525212207,
			"0.006": 6.06262561107,
			"0.007": 6.24757515352,
			"0.008": 8.94745906253,
			"0.009": 9.67562129267,
			"0.01": 4.7377738069,
			"0.011": 2.0787159503,
			"0.012": 0.00222349778414,
			"0.013": 0.0,
			"0.014": 0.0,
			"0.015": 0.0,
			"0.016": 0.0,
			"0.017": 0.0,
			"0.018": 0.0,
			"0.019": 0.0,
			"0.02": 0.0,
			"0.021": 0.0,
			"0.022": 0.0,
			"0.023": 0.0,
			"0.024": 0.0,
			"0.025": 0.0
		}
	}
}
