{
	 "smiles": "CC(N)CO", 
	 "Tm": 281.15, 
	 "num_atms": 14, 
	 "gaussian": { 
		 "optdone": 1, 
		 "sigma_profile": "yes", 
		 "theory": "DFT", 
		 "functional": "B3LYP", 
		 "basiset": "6-31G**", 
		 "properties": { 
			 "R2extent": 895.9477, 
			 "electric_dipole_moment_norm": 0.953182191399, 
			 "electric_quadrupole_moment_norm": 7.57471612339, 
			 "total_energy": -249.706147676, 
			 "HOMO_LUMO_gap": 0.31101, 
			 "cosmo_polarized_energy": -8.97, 
			 "cosmo_cavitation_energy": 16.31, 
			 "cosmo_dispersion_energy": -12.29, 
			 "cosmo_repulsion_energy": 1.11, 
			 "cosmo_total_nonelectrostatic_energy": 5.14, 
			 "SMD_solvation_energy": 2.13 
		},
		"coords": [
			{
				"x": -0.7813822349,
				"y": 0.9944968547,
				"z": 0.0111548849,
				"element": "C" 
			},
			{
				"x": -1.5788342765,
				"y": -0.0058808679,
				"z": -0.8246557923,
				"element": "C" 
			},
			{
				"x": -2.8395083628,
				"y": 0.609060115,
				"z": -1.2635585735,
				"element": "N" 
			},
			{
				"x": -1.9287068891,
				"y": -1.255397037,
				"z": -0.0141910677,
				"element": "C" 
			},
			{
				"x": -0.7191091348,
				"y": -1.9328018739,
				"z": 0.3042845969,
				"element": "O" 
			},
			{
				"x": 0.1074925121,
				"y": 0.5141367111,
				"z": 0.4263010808,
				"element": "H" 
			},
			{
				"x": -0.4600014311,
				"y": 1.8484820978,
				"z": -0.5964280359,
				"element": "H" 
			},
			{
				"x": -1.3975396743,
				"y": 1.374397906,
				"z": 0.8335870594,
				"element": "H" 
			},
			{
				"x": -0.9412346106,
				"y": -0.3394406878,
				"z": -1.6629639129,
				"element": "H" 
			},
			{
				"x": -2.6455334242,
				"y": 1.4983995417,
				"z": -1.7174063318,
				"element": "H" 
			},
			{
				"x": -3.287616903,
				"y": 0.0245012742,
				"z": -1.9662323556,
				"element": "H" 
			},
			{
				"x": -2.4813797564,
				"y": -0.9488011591,
				"z": 0.8869483775,
				"element": "H" 
			},
			{
				"x": -2.5993394226,
				"y": -1.898620157,
				"z": -0.6094004941,
				"element": "H" 
			},
			{
				"x": -0.9299063919,
				"y": -2.6589327179,
				"z": 0.9027605643,
				"element": "H" 
			}
		],
		 "valence_orbital": [ 
			{
				"type": "occ",
				"energy": -0.35704,
				"method": "rhf"
			},
			{
				"type": "occ",
				"energy": -0.34334,
				"method": "rhf"
			},
			{
				"type": "occ",
				"energy": -0.31671,
				"method": "rhf"
			},
			{
				"type": "occ",
				"energy": -0.26296,
				"method": "rhf"
			},
			{
				"type": "occ",
				"energy": -0.23227,
				"method": "rhf"
			},
			{
				"type": "unocc",
				"energy": 0.07874,
				"method": "rhf"
			},
			{
				"type": "unocc",
				"energy": 0.08304,
				"method": "rhf"
			},
			{
				"type": "unocc",
				"energy": 0.13897,
				"method": "rhf"
			},
			{
				"type": "unocc",
				"energy": 0.14822,
				"method": "rhf"
			},
			{
				"type": "unocc",
				"energy": 0.15139,
				"method": "rhf"
			}
		],
		"cosmo_sigma_profile": { 
			"-0.025": 0.0,
			"-0.024": 0.0,
			"-0.023": 0.0,
			"-0.022": 0.0,
			"-0.021": 0.0,
			"-0.02": 0.0,
			"-0.019": 0.0,
			"-0.018": 0.0,
			"-0.017": 0.0,
			"-0.016": 0.296611960497,
			"-0.015": 1.05726225469,
			"-0.014": 1.21397002404,
			"-0.013": 0.71747665319,
			"-0.012": 0.568739925918,
			"-0.011": 1.05605921161,
			"-0.01": 1.41113037674,
			"-0.009": 3.0617805471,
			"-0.008": 3.49777238795,
			"-0.007": 3.82805615369,
			"-0.006": 4.77636932783,
			"-0.005": 4.39255043726,
			"-0.004": 5.05835124744,
			"-0.003": 8.67266329359,
			"-0.002": 13.1223260807,
			"-0.001": 14.0706384908,
			"0.0": 10.6866653939,
			"0.001": 9.7637876828,
			"0.002": 6.61899944479,
			"0.003": 3.23386584454,
			"0.004": 2.92485744534,
			"0.005": 1.9425085064,
			"0.006": 2.52936426218,
			"0.007": 3.21567645226,
			"0.008": 1.76233438599,
			"0.009": 2.59101254368,
			"0.01": 1.87005071294,
			"0.011": 2.05312039476,
			"0.012": 1.89493384111,
			"0.013": 1.96577144685,
			"0.014": 2.18197219571,
			"0.015": 0.602169771073,
			"0.016": 0.380895304827,
			"0.017": 0.880515623983,
			"0.018": 0.384371470187,
			"0.019": 0.454302532825,
			"0.02": 0.187423722722,
			"0.021": 0.0,
			"0.022": 0.0,
			"0.023": 0.0,
			"0.024": 0.0,
			"0.025": 0.0
		}
	}
}
