{
	 "smiles": "O=CNC1CC=C/C[C@@H](CC=C/C1)NC=O", 
	 "Tm": 563.15, 
	 "num_atms": 34, 
	 "gaussian": { 
		 "optdone": 1, 
		 "sigma_profile": "yes", 
		 "theory": "DFT", 
		 "functional": "B3LYP", 
		 "basiset": "6-31G**", 
		 "properties": { 
			 "R2extent": 5038.9929, 
			 "electric_dipole_moment_norm": 7.65091391208, 
			 "electric_quadrupole_moment_norm": 13.2909661774, 
			 "total_energy": -728.054276714, 
			 "HOMO_LUMO_gap": 0.24126, 
			 "cosmo_polarized_energy": -21.29, 
			 "cosmo_cavitation_energy": 34.45, 
			 "cosmo_dispersion_energy": -24.24, 
			 "cosmo_repulsion_energy": 1.89, 
			 "cosmo_total_nonelectrostatic_energy": 12.1, 
			 "SMD_solvation_energy": 7.41 
		},
		"coords": [
			{
				"x": -2.1581004084,
				"y": 5.2171903114,
				"z": 1.6745550897,
				"element": "O" 
			},
			{
				"x": -1.0799692176,
				"y": 4.6514596802,
				"z": 1.7150652256,
				"element": "C" 
			},
			{
				"x": -0.8677147666,
				"y": 3.3450857028,
				"z": 1.3880385278,
				"element": "N" 
			},
			{
				"x": 0.4190943761,
				"y": 2.6595309731,
				"z": 1.4341401431,
				"element": "C" 
			},
			{
				"x": 0.4625387765,
				"y": 1.5856900596,
				"z": 2.5549368699,
				"element": "C" 
			},
			{
				"x": -0.5045969803,
				"y": 0.4498995571,
				"z": 2.3473001875,
				"element": "C" 
			},
			{
				"x": -0.2250542499,
				"y": -0.8374319444,
				"z": 2.101495035,
				"element": "C" 
			},
			{
				"x": 1.1391163956,
				"y": -1.4697765514,
				"z": 2.0093870882,
				"element": "C" 
			},
			{
				"x": 1.5379569081,
				"y": -2.0186593455,
				"z": 0.6112395718,
				"element": "C" 
			},
			{
				"x": 1.4793682648,
				"y": -0.9543574455,
				"z": -0.5101773089,
				"element": "C" 
			},
			{
				"x": 2.4353790264,
				"y": 0.1823701028,
				"z": -0.26157951,
				"element": "C" 
			},
			{
				"x": 2.1354264078,
				"y": 1.4677199374,
				"z": -0.032796589,
				"element": "C" 
			},
			{
				"x": 0.7676851848,
				"y": 2.0920788998,
				"z": 0.0355885022,
				"element": "C" 
			},
			{
				"x": 0.8054127901,
				"y": -3.2424529865,
				"z": 0.2427023821,
				"element": "N" 
			},
			{
				"x": -0.4573580072,
				"y": -3.3299409481,
				"z": -0.259251595,
				"element": "C" 
			},
			{
				"x": -1.2136350145,
				"y": -2.4005598211,
				"z": -0.4921912356,
				"element": "O" 
			},
			{
				"x": -0.1430017341,
				"y": 5.1574999537,
				"z": 2.0286548021,
				"element": "H" 
			},
			{
				"x": -1.6858871098,
				"y": 2.8328419248,
				"z": 1.0811843917,
				"element": "H" 
			},
			{
				"x": 1.1595775178,
				"y": 3.427705232,
				"z": 1.6920070014,
				"element": "H" 
			},
			{
				"x": 1.4900749953,
				"y": 1.2197619733,
				"z": 2.6296682696,
				"element": "H" 
			},
			{
				"x": 0.2312805064,
				"y": 2.094225138,
				"z": 3.5000268333,
				"element": "H" 
			},
			{
				"x": -1.5583504277,
				"y": 0.7251687557,
				"z": 2.4000243011,
				"element": "H" 
			},
			{
				"x": -1.0639800476,
				"y": -1.5113642297,
				"z": 1.9480538518,
				"element": "H" 
			},
			{
				"x": 1.9154193233,
				"y": -0.7597778956,
				"z": 2.3081102219,
				"element": "H" 
			},
			{
				"x": 1.1946646882,
				"y": -2.3101931989,
				"z": 2.7148532458,
				"element": "H" 
			},
			{
				"x": 2.581989162,
				"y": -2.3447990146,
				"z": 0.7013298812,
				"element": "H" 
			},
			{
				"x": 1.7510466251,
				"y": -1.4540669985,
				"z": -1.4494703817,
				"element": "H" 
			},
			{
				"x": 0.4502171544,
				"y": -0.6142455814,
				"z": -0.6202979696,
				"element": "H" 
			},
			{
				"x": 3.492265516,
				"y": -0.0906274335,
				"z": -0.272528372,
				"element": "H" 
			},
			{
				"x": 2.9659714522,
				"y": 2.1574253388,
				"z": 0.1261609912,
				"element": "H" 
			},
			{
				"x": -0.0043893359,
				"y": 1.3726340602,
				"z": -0.2519691941,
				"element": "H" 
			},
			{
				"x": 0.7094466524,
				"y": 2.9250382057,
				"z": -0.6769164536,
				"element": "H" 
			},
			{
				"x": 1.2738525871,
				"y": -4.1214539891,
				"z": 0.4103072832,
				"element": "H" 
			},
			{
				"x": -0.7408470107,
				"y": -4.3861184227,
				"z": -0.4486510875,
				"element": "H" 
			}
		],
		 "valence_orbital": [ 
			{
				"type": "occ",
				"energy": -0.26092,
				"method": "rhf"
			},
			{
				"type": "occ",
				"energy": -0.2574,
				"method": "rhf"
			},
			{
				"type": "occ",
				"energy": -0.25211,
				"method": "rhf"
			},
			{
				"type": "occ",
				"energy": -0.24533,
				"method": "rhf"
			},
			{
				"type": "occ",
				"energy": -0.23344,
				"method": "rhf"
			},
			{
				"type": "unocc",
				"energy": 0.00782,
				"method": "rhf"
			},
			{
				"type": "unocc",
				"energy": 0.01299,
				"method": "rhf"
			},
			{
				"type": "unocc",
				"energy": 0.02112,
				"method": "rhf"
			},
			{
				"type": "unocc",
				"energy": 0.03489,
				"method": "rhf"
			},
			{
				"type": "unocc",
				"energy": 0.05735,
				"method": "rhf"
			}
		],
		"cosmo_sigma_profile": { 
			"-0.025": 0.0,
			"-0.024": 0.0,
			"-0.023": 0.0,
			"-0.022": 0.0,
			"-0.021": 0.0,
			"-0.02": 0.0,
			"-0.019": 0.0,
			"-0.018": 0.0,
			"-0.017": 0.0,
			"-0.016": 0.0,
			"-0.015": 0.183290666067,
			"-0.014": 1.54640769737,
			"-0.013": 2.40837509088,
			"-0.012": 2.02792301193,
			"-0.011": 2.59823281149,
			"-0.01": 2.1480304926,
			"-0.009": 3.18251653012,
			"-0.008": 4.28870821878,
			"-0.007": 5.87017281503,
			"-0.006": 9.74993757112,
			"-0.005": 13.6914105637,
			"-0.004": 23.5810119682,
			"-0.003": 29.6486076532,
			"-0.002": 28.2892405431,
			"-0.001": 23.7829072319,
			"0.0": 20.2104387391,
			"0.001": 17.3078096978,
			"0.002": 11.3450781394,
			"0.003": 8.74359988733,
			"0.004": 7.0598090215,
			"0.005": 5.20880596884,
			"0.006": 5.74122872707,
			"0.007": 4.48377829042,
			"0.008": 2.56700205609,
			"0.009": 2.83695403812,
			"0.01": 3.34933284232,
			"0.011": 3.91618171467,
			"0.012": 3.64957796467,
			"0.013": 6.98779709465,
			"0.014": 9.11114789907,
			"0.015": 3.34076218226,
			"0.016": 0.0626950131443,
			"0.017": 0.0,
			"0.018": 0.0,
			"0.019": 0.0,
			"0.02": 0.0,
			"0.021": 0.0,
			"0.022": 0.0,
			"0.023": 0.0,
			"0.024": 0.0,
			"0.025": 0.0
		}
	}
}
