{
	 "smiles": "CC(NC(=O)COCCN1C(=O)C2=CC=CC=C2C1=O)[P+]([O-])(OC1=CC=CC=C1)OC1=CC=CC=C1", 
	 "Tm": 380.15, 
	 "num_atms": 61, 
	 "gaussian": { 
		 "optdone": 1, 
		 "sigma_profile": "yes", 
		 "theory": "DFT", 
		 "functional": "B3LYP", 
		 "basiset": "6-31G**", 
		 "properties": { 
			 "R2extent": 17166.1092, 
			 "electric_dipole_moment_norm": 5.91299172078, 
			 "electric_quadrupole_moment_norm": 34.7422452393, 
			 "total_energy": -1983.3460222, 
			 "HOMO_LUMO_gap": 0.14513, 
			 "cosmo_polarized_energy": -27.25, 
			 "cosmo_cavitation_energy": 67.21, 
			 "cosmo_dispersion_energy": -40.51, 
			 "cosmo_repulsion_energy": 2.97, 
			 "cosmo_total_nonelectrostatic_energy": 29.66, 
			 "SMD_solvation_energy": 13.46 
		},
		"coords": [
			{
				"x": 1.6566788302,
				"y": -4.3387158866,
				"z": -0.1480000889,
				"element": "C" 
			},
			{
				"x": 1.0431468556,
				"y": -2.9807698492,
				"z": -0.5381118463,
				"element": "C" 
			},
			{
				"x": 0.3162920391,
				"y": -3.0325494863,
				"z": -1.8026879235,
				"element": "N" 
			},
			{
				"x": -0.9956159662,
				"y": -3.3513489007,
				"z": -2.0309359397,
				"element": "C" 
			},
			{
				"x": -1.4249352685,
				"y": -3.5046975589,
				"z": -3.1667076137,
				"element": "O" 
			},
			{
				"x": -1.9298540946,
				"y": -3.5995642852,
				"z": -0.8424040473,
				"element": "C" 
			},
			{
				"x": -1.8519113706,
				"y": -2.5924425411,
				"z": 0.1543781134,
				"element": "O" 
			},
			{
				"x": -2.79817487,
				"y": -2.7970438755,
				"z": 1.1921175322,
				"element": "C" 
			},
			{
				"x": -2.7648489472,
				"y": -1.6016192869,
				"z": 2.1388315229,
				"element": "C" 
			},
			{
				"x": -3.110342697,
				"y": -0.353647051,
				"z": 1.4770514294,
				"element": "N" 
			},
			{
				"x": -2.190267694,
				"y": 0.6636819092,
				"z": 1.192874635,
				"element": "C" 
			},
			{
				"x": -1.0237763382,
				"y": 0.6735138604,
				"z": 1.5444072737,
				"element": "O" 
			},
			{
				"x": -2.9495905241,
				"y": 1.6974734479,
				"z": 0.4312804756,
				"element": "C" 
			},
			{
				"x": -2.5269842579,
				"y": 2.9004934918,
				"z": -0.1154510274,
				"element": "C" 
			},
			{
				"x": -3.4847468884,
				"y": 3.6752230697,
				"z": -0.7840816998,
				"element": "C" 
			},
			{
				"x": -4.8147707337,
				"y": 3.249660521,
				"z": -0.8907515171,
				"element": "C" 
			},
			{
				"x": -5.231211888,
				"y": 2.0315001812,
				"z": -0.3367945513,
				"element": "C" 
			},
			{
				"x": -4.2755473531,
				"y": 1.270717624,
				"z": 0.3198660467,
				"element": "C" 
			},
			{
				"x": -4.3957555026,
				"y": -0.057113574,
				"z": 0.9884605454,
				"element": "C" 
			},
			{
				"x": -5.3692614746,
				"y": -0.7737418869,
				"z": 1.114817986,
				"element": "O" 
			},
			{
				"x": 2.3808438808,
				"y": -1.7342513179,
				"z": -0.7704750821,
				"element": "P" 
			},
			{
				"x": 3.2205585069,
				"y": -1.9851337072,
				"z": -1.9664859431,
				"element": "O" 
			},
			{
				"x": 3.2896479364,
				"y": -1.7447859352,
				"z": 0.5799483589,
				"element": "O" 
			},
			{
				"x": 2.8823873825,
				"y": -1.6934225116,
				"z": 1.9129744155,
				"element": "C" 
			},
			{
				"x": 3.7396275342,
				"y": -2.314362933,
				"z": 2.8241858167,
				"element": "C" 
			},
			{
				"x": 3.4293699526,
				"y": -2.2885748585,
				"z": 4.1830519889,
				"element": "C" 
			},
			{
				"x": 2.2705475602,
				"y": -1.6490605369,
				"z": 4.6309446959,
				"element": "C" 
			},
			{
				"x": 1.4266272691,
				"y": -1.032215734,
				"z": 3.7072107352,
				"element": "C" 
			},
			{
				"x": 1.7223340967,
				"y": -1.0459990157,
				"z": 2.3412631629,
				"element": "C" 
			},
			{
				"x": 1.5454661013,
				"y": -0.3410093272,
				"z": -0.7427182209,
				"element": "O" 
			},
			{
				"x": 2.0915658489,
				"y": 0.9281587696,
				"z": -0.9902469931,
				"element": "C" 
			},
			{
				"x": 3.0315802999,
				"y": 1.1485436407,
				"z": -1.9978603316,
				"element": "C" 
			},
			{
				"x": 3.4937484551,
				"y": 2.4501508698,
				"z": -2.2056810868,
				"element": "C" 
			},
			{
				"x": 3.0208756,
				"y": 3.5097715978,
				"z": -1.4303422679,
				"element": "C" 
			},
			{
				"x": 2.0733450081,
				"y": 3.2655932697,
				"z": -0.4336499254,
				"element": "C" 
			},
			{
				"x": 1.6005944562,
				"y": 1.9723529977,
				"z": -0.2064555648,
				"element": "C" 
			},
			{
				"x": 2.1618453578,
				"y": -4.2840223909,
				"z": 0.8202683452,
				"element": "H" 
			},
			{
				"x": 2.3787772997,
				"y": -4.6684667917,
				"z": -0.90023997,
				"element": "H" 
			},
			{
				"x": 0.865321786,
				"y": -5.0909636858,
				"z": -0.0795536947,
				"element": "H" 
			},
			{
				"x": 0.3597006705,
				"y": -2.6298037944,
				"z": 0.2362533098,
				"element": "H" 
			},
			{
				"x": 0.8712132527,
				"y": -2.9996304325,
				"z": -2.6520211719,
				"element": "H" 
			},
			{
				"x": -1.6935681204,
				"y": -4.5891198232,
				"z": -0.4117942056,
				"element": "H" 
			},
			{
				"x": -2.9385971253,
				"y": -3.6541068571,
				"z": -1.2687557606,
				"element": "H" 
			},
			{
				"x": -3.8074000704,
				"y": -2.9113591314,
				"z": 0.7732273844,
				"element": "H" 
			},
			{
				"x": -2.5638761195,
				"y": -3.7101299962,
				"z": 1.7640060126,
				"element": "H" 
			},
			{
				"x": -3.4697509804,
				"y": -1.7804456347,
				"z": 2.9569986346,
				"element": "H" 
			},
			{
				"x": -1.7632813771,
				"y": -1.4705546321,
				"z": 2.5540778694,
				"element": "H" 
			},
			{
				"x": -1.492482137,
				"y": 3.2185605878,
				"z": -0.0394340644,
				"element": "H" 
			},
			{
				"x": -3.1913100047,
				"y": 4.6205185673,
				"z": -1.2303694224,
				"element": "H" 
			},
			{
				"x": -5.5323593256,
				"y": 3.8729165054,
				"z": -1.4157101634,
				"element": "H" 
			},
			{
				"x": -6.2576634732,
				"y": 1.6889786938,
				"z": -0.417777149,
				"element": "H" 
			},
			{
				"x": 4.6364226115,
				"y": -2.7999089701,
				"z": 2.4542893623,
				"element": "H" 
			},
			{
				"x": 4.0976768093,
				"y": -2.7691654594,
				"z": 4.8915649546,
				"element": "H" 
			},
			{
				"x": 2.0329341139,
				"y": -1.6277617559,
				"z": 5.6901415136,
				"element": "H" 
			},
			{
				"x": 0.5298607723,
				"y": -0.5163116053,
				"z": 4.0377705239,
				"element": "H" 
			},
			{
				"x": 1.0603273486,
				"y": -0.5478144632,
				"z": 1.6447657932,
				"element": "H" 
			},
			{
				"x": 3.3906551572,
				"y": 0.3191381596,
				"z": -2.5950936879,
				"element": "H" 
			},
			{
				"x": 4.2286005249,
				"y": 2.6308105544,
				"z": -2.9848044097,
				"element": "H" 
			},
			{
				"x": 3.3875667561,
				"y": 4.5175073568,
				"z": -1.600988129,
				"element": "H" 
			},
			{
				"x": 1.7023704897,
				"y": 4.0835906393,
				"z": 0.1778770161,
				"element": "H" 
			},
			{
				"x": 0.8591740382,
				"y": 1.7610791686,
				"z": 0.5565780456,
				"element": "H" 
			}
		],
		 "valence_orbital": [ 
			{
				"type": "occ",
				"energy": -0.25473,
				"method": "rhf"
			},
			{
				"type": "occ",
				"energy": -0.25114,
				"method": "rhf"
			},
			{
				"type": "occ",
				"energy": -0.24855,
				"method": "rhf"
			},
			{
				"type": "occ",
				"energy": -0.24206,
				"method": "rhf"
			},
			{
				"type": "occ",
				"energy": -0.236,
				"method": "rhf"
			},
			{
				"type": "unocc",
				"energy": -0.09087,
				"method": "rhf"
			},
			{
				"type": "unocc",
				"energy": -0.04732,
				"method": "rhf"
			},
			{
				"type": "unocc",
				"energy": -0.01226,
				"method": "rhf"
			},
			{
				"type": "unocc",
				"energy": -0.0051,
				"method": "rhf"
			},
			{
				"type": "unocc",
				"energy": -0.00263,
				"method": "rhf"
			}
		],
		"cosmo_sigma_profile": { 
			"-0.025": 0.0,
			"-0.024": 0.0,
			"-0.023": 0.0,
			"-0.022": 0.0,
			"-0.021": 0.0,
			"-0.02": 0.0,
			"-0.019": 0.0,
			"-0.018": 0.0,
			"-0.017": 0.0,
			"-0.016": 0.0,
			"-0.015": 0.0,
			"-0.014": 0.0,
			"-0.013": 0.0,
			"-0.012": 0.136144907737,
			"-0.011": 0.625013263342,
			"-0.01": 0.878728301931,
			"-0.009": 0.777704197881,
			"-0.008": 2.02158502212,
			"-0.007": 15.0128943136,
			"-0.006": 35.5555017904,
			"-0.005": 42.2675231014,
			"-0.004": 49.6522931488,
			"-0.003": 42.5354917675,
			"-0.002": 40.8585944068,
			"-0.001": 43.8696385775,
			"0.0": 38.795002855,
			"0.001": 37.1235848127,
			"0.002": 42.5958311614,
			"0.003": 31.1287198342,
			"0.004": 31.2820898254,
			"0.005": 23.8549987984,
			"0.006": 7.75185919652,
			"0.007": 5.17271834562,
			"0.008": 5.94377834425,
			"0.009": 4.5715356685,
			"0.01": 6.04701297234,
			"0.011": 7.17352044626,
			"0.012": 5.79322999473,
			"0.013": 8.69440594351,
			"0.014": 5.06567468536,
			"0.015": 0.116239920772,
			"0.016": 0.0,
			"0.017": 0.0,
			"0.018": 0.0,
			"0.019": 0.0,
			"0.02": 0.0,
			"0.021": 0.0,
			"0.022": 0.0,
			"0.023": 0.0,
			"0.024": 0.0,
			"0.025": 0.0
		}
	}
}
