{
	 "smiles": "OC(=O)CC1=CC=C(OC(F)F)C=C1", 
	 "Tm": 352.15, 
	 "num_atms": 22, 
	 "gaussian": { 
		 "optdone": 1, 
		 "sigma_profile": "yes", 
		 "theory": "DFT", 
		 "functional": "B3LYP", 
		 "basiset": "6-31G**", 
		 "properties": { 
			 "R2extent": 4927.6463, 
			 "electric_dipole_moment_norm": 3.20128201507, 
			 "electric_quadrupole_moment_norm": 3.95926172285, 
			 "total_energy": -773.140091362, 
			 "HOMO_LUMO_gap": 0.22483, 
			 "cosmo_polarized_energy": -12.05, 
			 "cosmo_cavitation_energy": 28.02, 
			 "cosmo_dispersion_energy": -20.16, 
			 "cosmo_repulsion_energy": 1.57, 
			 "cosmo_total_nonelectrostatic_energy": 9.43, 
			 "SMD_solvation_energy": 7.19 
		},
		"coords": [
			{
				"x": 4.4116916111,
				"y": -1.5135387173,
				"z": -1.9224109088,
				"element": "O" 
			},
			{
				"x": 3.5012797906,
				"y": -0.5103348798,
				"z": -1.9172205299,
				"element": "C" 
			},
			{
				"x": 3.8056655252,
				"y": 0.6474874467,
				"z": -2.0936162626,
				"element": "O" 
			},
			{
				"x": 2.0940287733,
				"y": -1.0536448772,
				"z": -1.7176061866,
				"element": "C" 
			},
			{
				"x": 1.1367430578,
				"y": -0.0881769838,
				"z": -1.0555786269,
				"element": "C" 
			},
			{
				"x": 0.8252499567,
				"y": 1.145199853,
				"z": -1.639735936,
				"element": "C" 
			},
			{
				"x": -0.0758224368,
				"y": 2.0237284043,
				"z": -1.0379678375,
				"element": "C" 
			},
			{
				"x": -0.6631694319,
				"y": 1.6694097503,
				"z": 0.1792101107,
				"element": "C" 
			},
			{
				"x": -1.5770739523,
				"y": 2.4729534075,
				"z": 0.8471408128,
				"element": "O" 
			},
			{
				"x": -1.4565086985,
				"y": 3.8330047152,
				"z": 0.7155375728,
				"element": "C" 
			},
			{
				"x": -2.151024822,
				"y": 4.385353419,
				"z": 1.7261385722,
				"element": "F" 
			},
			{
				"x": -2.0245342976,
				"y": 4.261248919,
				"z": -0.4510441311,
				"element": "F" 
			},
			{
				"x": -0.3719266619,
				"y": 0.4443904813,
				"z": 0.7781890499,
				"element": "C" 
			},
			{
				"x": 0.5206034767,
				"y": -0.4252144502,
				"z": 0.1562204569,
				"element": "C" 
			},
			{
				"x": 5.2722389918,
				"y": -1.0969875364,
				"z": -2.1001660309,
				"element": "H" 
			},
			{
				"x": 1.7369335578,
				"y": -1.3239759195,
				"z": -2.7219090386,
				"element": "H" 
			},
			{
				"x": 2.1586330312,
				"y": -1.9906352941,
				"z": -1.1590238329,
				"element": "H" 
			},
			{
				"x": 1.2940297332,
				"y": 1.428768899,
				"z": -2.5757287637,
				"element": "H" 
			},
			{
				"x": -0.3363658207,
				"y": 2.9562351443,
				"z": -1.5240094918,
				"element": "H" 
			},
			{
				"x": -0.4143604516,
				"y": 4.1738295532,
				"z": 0.7354109776,
				"element": "H" 
			},
			{
				"x": -0.8440618121,
				"y": 0.1922503637,
				"z": 1.7216146208,
				"element": "H" 
			},
			{
				"x": 0.7452508798,
				"y": -1.3788516982,
				"z": 0.6268554034,
				"element": "H" 
			}
		],
		 "valence_orbital": [ 
			{
				"type": "occ",
				"energy": -0.33449,
				"method": "rhf"
			},
			{
				"type": "occ",
				"energy": -0.32611,
				"method": "rhf"
			},
			{
				"type": "occ",
				"energy": -0.28505,
				"method": "rhf"
			},
			{
				"type": "occ",
				"energy": -0.26096,
				"method": "rhf"
			},
			{
				"type": "occ",
				"energy": -0.23962,
				"method": "rhf"
			},
			{
				"type": "unocc",
				"energy": -0.01479,
				"method": "rhf"
			},
			{
				"type": "unocc",
				"energy": -0.00728,
				"method": "rhf"
			},
			{
				"type": "unocc",
				"energy": 0.00492,
				"method": "rhf"
			},
			{
				"type": "unocc",
				"energy": 0.07314,
				"method": "rhf"
			},
			{
				"type": "unocc",
				"energy": 0.08424,
				"method": "rhf"
			}
		],
		"cosmo_sigma_profile": { 
			"-0.025": 0.0,
			"-0.024": 0.0,
			"-0.023": 0.0,
			"-0.022": 0.0,
			"-0.021": 0.0,
			"-0.02": 0.0,
			"-0.019": 0.0145507017279,
			"-0.018": 0.975487141854,
			"-0.017": 0.646924115828,
			"-0.016": 0.590420433573,
			"-0.015": 1.34043672865,
			"-0.014": 0.758264606403,
			"-0.013": 0.141989891612,
			"-0.012": 0.692640312451,
			"-0.011": 0.917195618882,
			"-0.01": 3.1155807397,
			"-0.009": 2.81288672133,
			"-0.008": 3.68686950023,
			"-0.007": 9.56584647071,
			"-0.006": 12.8619823242,
			"-0.005": 13.1550675496,
			"-0.004": 13.6965488405,
			"-0.003": 11.340511667,
			"-0.002": 11.3142883737,
			"-0.001": 10.2575789143,
			"0.0": 9.90121780171,
			"0.001": 11.9673734804,
			"0.002": 15.2759549113,
			"0.003": 25.837921353,
			"0.004": 27.1490951962,
			"0.005": 7.94977026407,
			"0.006": 5.30154822837,
			"0.007": 4.65235203786,
			"0.008": 4.25113182753,
			"0.009": 3.42218403785,
			"0.01": 3.00139781498,
			"0.011": 3.79203668762,
			"0.012": 3.0738426855,
			"0.013": 0.000887330408665,
			"0.014": 0.0,
			"0.015": 0.0,
			"0.016": 0.0,
			"0.017": 0.0,
			"0.018": 0.0,
			"0.019": 0.0,
			"0.02": 0.0,
			"0.021": 0.0,
			"0.022": 0.0,
			"0.023": 0.0,
			"0.024": 0.0,
			"0.025": 0.0
		}
	}
}
