{
	 "smiles": "OC(=O)CNC(=O)C1=CC=C(Br)S1", 
	 "Tm": 451.15, 
	 "num_atms": 19, 
	 "gaussian": { 
		 "optdone": 1, 
		 "sigma_profile": "yes", 
		 "theory": "DFT", 
		 "functional": "B3LYP", 
		 "basiset": "6-31G**", 
		 "properties": { 
			 "R2extent": 8114.1926, 
			 "electric_dipole_moment_norm": 3.12459734366, 
			 "electric_quadrupole_moment_norm": 21.0099407041, 
			 "total_energy": -3520.36774791, 
			 "HOMO_LUMO_gap": 0.17712, 
			 "cosmo_polarized_energy": -18.21, 
			 "cosmo_cavitation_energy": 28.08, 
			 "cosmo_dispersion_energy": -21.11, 
			 "cosmo_repulsion_energy": 1.65, 
			 "cosmo_total_nonelectrostatic_energy": 8.63, 
			 "SMD_solvation_energy": 5.57 
		},
		"coords": [
			{
				"x": -0.8474413642,
				"y": 3.1198991059,
				"z": 2.0437400844,
				"element": "O" 
			},
			{
				"x": -1.493620778,
				"y": 1.9970751841,
				"z": 1.6786761288,
				"element": "C" 
			},
			{
				"x": -2.6897650465,
				"y": 1.8737318332,
				"z": 1.7543115879,
				"element": "O" 
			},
			{
				"x": -0.5940516509,
				"y": 0.8762186334,
				"z": 1.1334799743,
				"element": "C" 
			},
			{
				"x": 0.8400706838,
				"y": 1.1401165451,
				"z": 1.2924370819,
				"element": "N" 
			},
			{
				"x": 1.7898575075,
				"y": 1.1268902563,
				"z": 0.2609982591,
				"element": "C" 
			},
			{
				"x": 2.9094934671,
				"y": 0.6831633076,
				"z": 0.4710883088,
				"element": "O" 
			},
			{
				"x": 1.4449380246,
				"y": 1.7134788937,
				"z": -1.0545552513,
				"element": "C" 
			},
			{
				"x": 2.1879777125,
				"y": 1.4832880904,
				"z": -2.1906957255,
				"element": "C" 
			},
			{
				"x": 1.7428410011,
				"y": 2.209285531,
				"z": -3.3250510625,
				"element": "C" 
			},
			{
				"x": 0.6671533536,
				"y": 3.0068823441,
				"z": -3.029517174,
				"element": "C" 
			},
			{
				"x": -0.2445492887,
				"y": 4.1524711201,
				"z": -4.2101158445,
				"element": "Br" 
			},
			{
				"x": 0.1741789971,
				"y": 2.8817702185,
				"z": -1.3711249853,
				"element": "S" 
			},
			{
				"x": 0.1078493734,
				"y": 2.9567222806,
				"z": 1.9234629062,
				"element": "H" 
			},
			{
				"x": -0.8444897049,
				"y": 0.7385547261,
				"z": 0.0792024016,
				"element": "H" 
			},
			{
				"x": -0.8752127247,
				"y": -0.0490612859,
				"z": 1.644980784,
				"element": "H" 
			},
			{
				"x": 1.2547841908,
				"y": 0.6986663331,
				"z": 2.1072658593,
				"element": "H" 
			},
			{
				"x": 3.0367676409,
				"y": 0.8103055252,
				"z": -2.1840645532,
				"element": "H" 
			},
			{
				"x": 2.1911186054,
				"y": 2.1556413574,
				"z": -4.30881878,
				"element": "H" 
			}
		],
		 "valence_orbital": [ 
			{
				"type": "occ",
				"energy": -0.31107,
				"method": "rhf"
			},
			{
				"type": "occ",
				"energy": -0.29214,
				"method": "rhf"
			},
			{
				"type": "occ",
				"energy": -0.28516,
				"method": "rhf"
			},
			{
				"type": "occ",
				"energy": -0.26558,
				"method": "rhf"
			},
			{
				"type": "occ",
				"energy": -0.25227,
				"method": "rhf"
			},
			{
				"type": "unocc",
				"energy": -0.07515,
				"method": "rhf"
			},
			{
				"type": "unocc",
				"energy": -0.02301,
				"method": "rhf"
			},
			{
				"type": "unocc",
				"energy": -0.0071,
				"method": "rhf"
			},
			{
				"type": "unocc",
				"energy": 0.00205,
				"method": "rhf"
			},
			{
				"type": "unocc",
				"energy": 0.00961,
				"method": "rhf"
			}
		],
		"cosmo_sigma_profile": { 
			"-0.025": 0.0,
			"-0.024": 0.0,
			"-0.023": 0.0,
			"-0.022": 0.0,
			"-0.021": 0.0,
			"-0.02": 0.0,
			"-0.019": 0.0,
			"-0.018": 0.0,
			"-0.017": 0.0,
			"-0.016": 0.0123571533073,
			"-0.015": 0.923517374804,
			"-0.014": 2.44451739513,
			"-0.013": 2.17259979288,
			"-0.012": 2.98922710793,
			"-0.011": 3.11011580012,
			"-0.01": 2.98038724022,
			"-0.009": 4.98439367227,
			"-0.008": 8.71926386692,
			"-0.007": 9.17223021613,
			"-0.006": 11.5904224949,
			"-0.005": 9.44181543592,
			"-0.004": 7.93157418777,
			"-0.003": 10.5644550326,
			"-0.002": 11.8828712982,
			"-0.001": 15.5631627337,
			"0.0": 19.4345455756,
			"0.001": 21.3072183196,
			"0.002": 19.8701718655,
			"0.003": 13.3242936358,
			"0.004": 3.59108383772,
			"0.005": 4.40553406479,
			"0.006": 4.16888547257,
			"0.007": 3.07303823127,
			"0.008": 3.87004088817,
			"0.009": 5.71767577245,
			"0.01": 6.40302486802,
			"0.011": 7.22983061219,
			"0.012": 10.6571156798,
			"0.013": 2.54156129971,
			"0.014": 0.0,
			"0.015": 0.0,
			"0.016": 0.0,
			"0.017": 0.0,
			"0.018": 0.0,
			"0.019": 0.0,
			"0.02": 0.0,
			"0.021": 0.0,
			"0.022": 0.0,
			"0.023": 0.0,
			"0.024": 0.0,
			"0.025": 0.0
		}
	}
}
