{
	 "smiles": "ClCC1=C2C=CC=CC2=CC=C1", 
	 "Tm": 305.15, 
	 "num_atms": 21, 
	 "gaussian": { 
		 "optdone": 1, 
		 "sigma_profile": "yes", 
		 "theory": "DFT", 
		 "functional": "B3LYP", 
		 "basiset": "6-31G**", 
		 "properties": { 
			 "R2extent": 3476.4429, 
			 "electric_dipole_moment_norm": 2.41458357693, 
			 "electric_quadrupole_moment_norm": 8.81532141672, 
			 "total_energy": -884.803646159, 
			 "HOMO_LUMO_gap": 0.16943, 
			 "cosmo_polarized_energy": -7.21, 
			 "cosmo_cavitation_energy": 25.86, 
			 "cosmo_dispersion_energy": -19.21, 
			 "cosmo_repulsion_energy": 1.51, 
			 "cosmo_total_nonelectrostatic_energy": 8.16, 
			 "SMD_solvation_energy": 3.74 
		},
		"coords": [
			{
				"x": 2.7533745816,
				"y": -2.8060259977,
				"z": -0.1482915922,
				"element": "Cl" 
			},
			{
				"x": 2.0731014657,
				"y": -2.0524452339,
				"z": 1.3896819943,
				"element": "C" 
			},
			{
				"x": 0.8474594939,
				"y": -1.224433965,
				"z": 1.151292671,
				"element": "C" 
			},
			{
				"x": -0.4352699155,
				"y": -1.8290914855,
				"z": 0.9357536625,
				"element": "C" 
			},
			{
				"x": -0.6316737483,
				"y": -3.2364358091,
				"z": 0.8875347543,
				"element": "C" 
			},
			{
				"x": -1.8859804653,
				"y": -3.7724872968,
				"z": 0.6922158497,
				"element": "C" 
			},
			{
				"x": -3.0114238094,
				"y": -2.9310448652,
				"z": 0.5306450477,
				"element": "C" 
			},
			{
				"x": -2.8562939793,
				"y": -1.5641946654,
				"z": 0.5632956112,
				"element": "C" 
			},
			{
				"x": -1.5774106159,
				"y": -0.9781473524,
				"z": 0.7624626719,
				"element": "C" 
			},
			{
				"x": -1.409392744,
				"y": 0.4327047462,
				"z": 0.7930385631,
				"element": "C" 
			},
			{
				"x": -0.16751392,
				"y": 0.9884022436,
				"z": 0.9894660339,
				"element": "C" 
			},
			{
				"x": 0.9586123679,
				"y": 0.1532677018,
				"z": 1.168919616,
				"element": "C" 
			},
			{
				"x": 1.8915040743,
				"y": -2.8936841598,
				"z": 2.0587573551,
				"element": "H" 
			},
			{
				"x": 2.8840684363,
				"y": -1.446953312,
				"z": 1.7922894843,
				"element": "H" 
			},
			{
				"x": 0.2202689025,
				"y": -3.9002628699,
				"z": 0.9846099693,
				"element": "H" 
			},
			{
				"x": -2.0116679612,
				"y": -4.850709338,
				"z": 0.656191075,
				"element": "H" 
			},
			{
				"x": -3.9941707488,
				"y": -3.3670341735,
				"z": 0.3770113561,
				"element": "H" 
			},
			{
				"x": -3.7138548983,
				"y": -0.9086153073,
				"z": 0.4354233058,
				"element": "H" 
			},
			{
				"x": -2.2829169967,
				"y": 1.0653406555,
				"z": 0.6582581364,
				"element": "H" 
			},
			{
				"x": -0.0440811003,
				"y": 2.0669348785,
				"z": 1.0113808866,
				"element": "H" 
			},
			{
				"x": 1.9342615808,
				"y": 0.6053156061,
				"z": 1.3277635481,
				"element": "H" 
			}
		],
		 "valence_orbital": [ 
			{
				"type": "occ",
				"energy": -0.29599,
				"method": "rhf"
			},
			{
				"type": "occ",
				"energy": -0.29116,
				"method": "rhf"
			},
			{
				"type": "occ",
				"energy": -0.28071,
				"method": "rhf"
			},
			{
				"type": "occ",
				"energy": -0.24872,
				"method": "rhf"
			},
			{
				"type": "occ",
				"energy": -0.22106,
				"method": "rhf"
			},
			{
				"type": "unocc",
				"energy": -0.05163,
				"method": "rhf"
			},
			{
				"type": "unocc",
				"energy": -0.01441,
				"method": "rhf"
			},
			{
				"type": "unocc",
				"energy": 0.00655,
				"method": "rhf"
			},
			{
				"type": "unocc",
				"energy": 0.05079,
				"method": "rhf"
			},
			{
				"type": "unocc",
				"energy": 0.08328,
				"method": "rhf"
			}
		],
		"cosmo_sigma_profile": { 
			"-0.025": 0.0,
			"-0.024": 0.0,
			"-0.023": 0.0,
			"-0.022": 0.0,
			"-0.021": 0.0,
			"-0.02": 0.0,
			"-0.019": 0.0,
			"-0.018": 0.0,
			"-0.017": 0.0,
			"-0.016": 0.0,
			"-0.015": 0.0,
			"-0.014": 0.0,
			"-0.013": 0.0,
			"-0.012": 0.0,
			"-0.011": 0.0,
			"-0.01": 0.0,
			"-0.009": 0.0,
			"-0.008": 2.78774913958,
			"-0.007": 6.68284870677,
			"-0.006": 16.21955038,
			"-0.005": 16.4600593714,
			"-0.004": 18.6728907639,
			"-0.003": 13.3426304844,
			"-0.002": 10.8689790699,
			"-0.001": 9.74580658337,
			"0.0": 10.2408217441,
			"0.001": 11.9401213182,
			"0.002": 12.8175303797,
			"0.003": 19.6349766811,
			"0.004": 26.1366126203,
			"0.005": 17.7718310823,
			"0.006": 9.12377071829,
			"0.007": 6.86462896027,
			"0.008": 0.0294435305904,
			"0.009": 0.0,
			"0.01": 0.0,
			"0.011": 0.0,
			"0.012": 0.0,
			"0.013": 0.0,
			"0.014": 0.0,
			"0.015": 0.0,
			"0.016": 0.0,
			"0.017": 0.0,
			"0.018": 0.0,
			"0.019": 0.0,
			"0.02": 0.0,
			"0.021": 0.0,
			"0.022": 0.0,
			"0.023": 0.0,
			"0.024": 0.0,
			"0.025": 0.0
		}
	}
}
