{
	 "smiles": "OC(=O)C1=CC=C(OC(F)(F)C(F)F)C=C1", 
	 "Tm": 449.15, 
	 "num_atms": 22, 
	 "gaussian": { 
		 "optdone": 1, 
		 "sigma_profile": "yes", 
		 "theory": "DFT", 
		 "functional": "B3LYP", 
		 "basiset": "6-31G**", 
		 "properties": { 
			 "R2extent": 5076.7819, 
			 "electric_dipole_moment_norm": 2.73272287289, 
			 "electric_quadrupole_moment_norm": 24.3275950081, 
			 "total_energy": -971.594010504, 
			 "HOMO_LUMO_gap": 0.20934, 
			 "cosmo_polarized_energy": -16.19, 
			 "cosmo_cavitation_energy": 29.11, 
			 "cosmo_dispersion_energy": -20.34, 
			 "cosmo_repulsion_energy": 1.5, 
			 "cosmo_total_nonelectrostatic_energy": 10.27, 
			 "SMD_solvation_energy": 7.82 
		},
		"coords": [
			{
				"x": 1.5071052532,
				"y": -2.5577841707,
				"z": 2.609537944,
				"element": "O" 
			},
			{
				"x": 0.5879992619,
				"y": -1.5626989894,
				"z": 2.722005305,
				"element": "C" 
			},
			{
				"x": 0.0173698604,
				"y": -1.3817740394,
				"z": 3.7712022659,
				"element": "O" 
			},
			{
				"x": 0.3361911103,
				"y": -0.7289480817,
				"z": 1.4998274887,
				"element": "C" 
			},
			{
				"x": 0.6446402007,
				"y": -1.1570017405,
				"z": 0.2005965774,
				"element": "C" 
			},
			{
				"x": 0.3681241281,
				"y": -0.3485082829,
				"z": -0.9005377077,
				"element": "C" 
			},
			{
				"x": -0.2143291945,
				"y": 0.9013415441,
				"z": -0.6883819578,
				"element": "C" 
			},
			{
				"x": -0.5720750934,
				"y": 1.7099528574,
				"z": -1.7669768418,
				"element": "O" 
			},
			{
				"x": 0.4161712376,
				"y": 2.3566337673,
				"z": -2.4686021511,
				"element": "C" 
			},
			{
				"x": 1.2497859879,
				"y": 1.464400233,
				"z": -3.0849745089,
				"element": "F" 
			},
			{
				"x": -0.203337405,
				"y": 3.0710540963,
				"z": -3.4181386558,
				"element": "F" 
			},
			{
				"x": 1.2986091737,
				"y": 3.2781401689,
				"z": -1.6056435879,
				"element": "C" 
			},
			{
				"x": 0.491827551,
				"y": 4.1171040621,
				"z": -0.9037120685,
				"element": "F" 
			},
			{
				"x": 2.0938909019,
				"y": 4.0084156388,
				"z": -2.4222861232,
				"element": "F" 
			},
			{
				"x": -0.54411335,
				"y": 1.3416384548,
				"z": 0.5946890727,
				"element": "C" 
			},
			{
				"x": -0.2761087506,
				"y": 0.5191004909,
				"z": 1.6834719765,
				"element": "C" 
			},
			{
				"x": 1.9957084308,
				"y": -2.4762057827,
				"z": 1.7791491957,
				"element": "H" 
			},
			{
				"x": 1.0614998176,
				"y": -2.1451807973,
				"z": 0.0229234703,
				"element": "H" 
			},
			{
				"x": 0.5811159237,
				"y": -0.6788318966,
				"z": -1.9097541063,
				"element": "H" 
			},
			{
				"x": 1.9189997289,
				"y": 2.7042357374,
				"z": -0.9098221044,
				"element": "H" 
			},
			{
				"x": -1.0022150385,
				"y": 2.3167430895,
				"z": 0.7164563672,
				"element": "H" 
			},
			{
				"x": -0.5326597356,
				"y": 0.8254736406,
				"z": 2.69157015,
				"element": "H" 
			}
		],
		 "valence_orbital": [ 
			{
				"type": "occ",
				"energy": -0.34071,
				"method": "rhf"
			},
			{
				"type": "occ",
				"energy": -0.32633,
				"method": "rhf"
			},
			{
				"type": "occ",
				"energy": -0.29116,
				"method": "rhf"
			},
			{
				"type": "occ",
				"energy": -0.28779,
				"method": "rhf"
			},
			{
				"type": "occ",
				"energy": -0.27537,
				"method": "rhf"
			},
			{
				"type": "unocc",
				"energy": -0.06603,
				"method": "rhf"
			},
			{
				"type": "unocc",
				"energy": -0.04196,
				"method": "rhf"
			},
			{
				"type": "unocc",
				"energy": 0.03254,
				"method": "rhf"
			},
			{
				"type": "unocc",
				"energy": 0.0469,
				"method": "rhf"
			},
			{
				"type": "unocc",
				"energy": 0.07756,
				"method": "rhf"
			}
		],
		"cosmo_sigma_profile": { 
			"-0.025": 0.0,
			"-0.024": 0.0,
			"-0.023": 0.0,
			"-0.022": 0.0,
			"-0.021": 0.0,
			"-0.02": 0.0,
			"-0.019": 0.368076358614,
			"-0.018": 1.21418344111,
			"-0.017": 0.951112498909,
			"-0.016": 1.1868331412,
			"-0.015": 0.647351060632,
			"-0.014": 1.07738535508,
			"-0.013": 1.34476509073,
			"-0.012": 1.11416760141,
			"-0.011": 2.57112290853,
			"-0.01": 3.35070308438,
			"-0.009": 3.33538158408,
			"-0.008": 5.26171299973,
			"-0.007": 8.82411330247,
			"-0.006": 8.22491874327,
			"-0.005": 7.65462493366,
			"-0.004": 8.56187425042,
			"-0.003": 9.64769652811,
			"-0.002": 11.3959301599,
			"-0.001": 11.3823893587,
			"0.0": 18.2722395791,
			"0.001": 25.2128379594,
			"0.002": 33.5647213444,
			"0.003": 29.407214552,
			"0.004": 6.34670516446,
			"0.005": 3.75777427597,
			"0.006": 3.54880274694,
			"0.007": 4.04708802341,
			"0.008": 2.58334119494,
			"0.009": 3.14372542904,
			"0.01": 5.33268756993,
			"0.011": 5.37468481601,
			"0.012": 3.9002306209,
			"0.013": 1.06259560853,
			"0.014": 0.0,
			"0.015": 0.0,
			"0.016": 0.0,
			"0.017": 0.0,
			"0.018": 0.0,
			"0.019": 0.0,
			"0.02": 0.0,
			"0.021": 0.0,
			"0.022": 0.0,
			"0.023": 0.0,
			"0.024": 0.0,
			"0.025": 0.0
		}
	}
}
