{
	 "smiles": "CC1=C(C(O)=O)C2=C(C=CC=C2)N=C1C1=CC=CC=C1", 
	 "Tm": 509.15, 
	 "num_atms": 33, 
	 "gaussian": { 
		 "optdone": 1, 
		 "sigma_profile": "yes", 
		 "theory": "DFT", 
		 "functional": "B3LYP", 
		 "basiset": "6-31G**", 
		 "properties": { 
			 "R2extent": 6928.8816, 
			 "electric_dipole_moment_norm": 3.09539421722, 
			 "electric_quadrupole_moment_norm": 14.2233205184, 
			 "total_energy": -860.862654139, 
			 "HOMO_LUMO_gap": 0.16227, 
			 "cosmo_polarized_energy": -16.39, 
			 "cosmo_cavitation_energy": 36.66, 
			 "cosmo_dispersion_energy": -26.32, 
			 "cosmo_repulsion_energy": 1.99, 
			 "cosmo_total_nonelectrostatic_energy": 12.33, 
			 "SMD_solvation_energy": 5.56 
		},
		"coords": [
			{
				"x": -1.2714540582,
				"y": -0.1583277847,
				"z": -0.2905252865,
				"element": "C" 
			},
			{
				"x": 0.2031040134,
				"y": 0.0647334252,
				"z": -0.5688949146,
				"element": "C" 
			},
			{
				"x": 0.8050975914,
				"y": 1.2894836837,
				"z": -0.3068330525,
				"element": "C" 
			},
			{
				"x": -0.0152072604,
				"y": 2.4647457635,
				"z": 0.1679346386,
				"element": "C" 
			},
			{
				"x": -1.0134100108,
				"y": 2.8549790957,
				"z": -0.6681663383,
				"element": "O" 
			},
			{
				"x": 0.1744693468,
				"y": 3.0559496745,
				"z": 1.2021442795,
				"element": "O" 
			},
			{
				"x": 2.2183846535,
				"y": 1.4528396935,
				"z": -0.431571419,
				"element": "C" 
			},
			{
				"x": 2.9592316148,
				"y": 0.3069444513,
				"z": -0.85383513,
				"element": "C" 
			},
			{
				"x": 4.3695524753,
				"y": 0.3996881964,
				"z": -0.9972001246,
				"element": "C" 
			},
			{
				"x": 5.0179754726,
				"y": 1.5839336191,
				"z": -0.7341571256,
				"element": "C" 
			},
			{
				"x": 4.2841602117,
				"y": 2.7207467167,
				"z": -0.3145775509,
				"element": "C" 
			},
			{
				"x": 2.9160909985,
				"y": 2.6621057469,
				"z": -0.1647878239,
				"element": "C" 
			},
			{
				"x": 2.3647464248,
				"y": -0.8823216691,
				"z": -1.134912902,
				"element": "N" 
			},
			{
				"x": 1.0534572827,
				"y": -1.0094514433,
				"z": -1.0183000873,
				"element": "C" 
			},
			{
				"x": 0.5252777783,
				"y": -2.3649548365,
				"z": -1.3602548266,
				"element": "C" 
			},
			{
				"x": -0.6043005702,
				"y": -2.5511290355,
				"z": -2.171873097,
				"element": "C" 
			},
			{
				"x": -1.0349868748,
				"y": -3.8343155904,
				"z": -2.5108939193,
				"element": "C" 
			},
			{
				"x": -0.3473625711,
				"y": -4.9524986338,
				"z": -2.037838983,
				"element": "C" 
			},
			{
				"x": 0.7841472591,
				"y": -4.7794644113,
				"z": -1.236812231,
				"element": "C" 
			},
			{
				"x": 1.2214707735,
				"y": -3.498209284,
				"z": -0.9090870552,
				"element": "C" 
			},
			{
				"x": -1.4488480212,
				"y": -1.1876261088,
				"z": 0.0260203875,
				"element": "H" 
			},
			{
				"x": -1.631328161,
				"y": 0.5047347976,
				"z": 0.4992864811,
				"element": "H" 
			},
			{
				"x": -1.9040449995,
				"y": 0.0110554479,
				"z": -1.1705074002,
				"element": "H" 
			},
			{
				"x": -0.9877378021,
				"y": 2.3197239278,
				"z": -1.4745712361,
				"element": "H" 
			},
			{
				"x": 4.8994628116,
				"y": -0.4898180562,
				"z": -1.3213330165,
				"element": "H" 
			},
			{
				"x": 6.096118212,
				"y": 1.6522292406,
				"z": -0.845840932,
				"element": "H" 
			},
			{
				"x": 4.8078456186,
				"y": 3.6483824909,
				"z": -0.1035244199,
				"element": "H" 
			},
			{
				"x": 2.3668551029,
				"y": 3.530153732,
				"z": 0.1804745482,
				"element": "H" 
			},
			{
				"x": -1.1349628673,
				"y": -1.6913648976,
				"z": -2.568152374,
				"element": "H" 
			},
			{
				"x": -1.9044693893,
				"y": -3.9583803177,
				"z": -3.1500587156,
				"element": "H" 
			},
			{
				"x": -0.6865478562,
				"y": -5.951453398,
				"z": -2.2963733609,
				"element": "H" 
			},
			{
				"x": 1.3288232641,
				"y": -5.6447201049,
				"z": -0.869881709,
				"element": "H" 
			},
			{
				"x": 2.1105895365,
				"y": -3.3559941314,
				"z": -0.3041953037,
				"element": "H" 
			}
		],
		 "valence_orbital": [ 
			{
				"type": "occ",
				"energy": -0.26957,
				"method": "rhf"
			},
			{
				"type": "occ",
				"energy": -0.2609,
				"method": "rhf"
			},
			{
				"type": "occ",
				"energy": -0.2539,
				"method": "rhf"
			},
			{
				"type": "occ",
				"energy": -0.24353,
				"method": "rhf"
			},
			{
				"type": "occ",
				"energy": -0.23257,
				"method": "rhf"
			},
			{
				"type": "unocc",
				"energy": -0.0703,
				"method": "rhf"
			},
			{
				"type": "unocc",
				"energy": -0.03795,
				"method": "rhf"
			},
			{
				"type": "unocc",
				"energy": -0.01013,
				"method": "rhf"
			},
			{
				"type": "unocc",
				"energy": -0.00611,
				"method": "rhf"
			},
			{
				"type": "unocc",
				"energy": 0.00412,
				"method": "rhf"
			}
		],
		"cosmo_sigma_profile": { 
			"-0.025": 0.0,
			"-0.024": 0.0,
			"-0.023": 0.0,
			"-0.022": 0.0,
			"-0.021": 0.0,
			"-0.02": 0.0111068591481,
			"-0.019": 0.467482607914,
			"-0.018": 0.894030958004,
			"-0.017": 0.596429699833,
			"-0.016": 0.570848715867,
			"-0.015": 1.07521561207,
			"-0.014": 1.16958265628,
			"-0.013": 0.879526245903,
			"-0.012": 1.41604008913,
			"-0.011": 1.02822517035,
			"-0.01": 0.630955406321,
			"-0.009": 1.33665596209,
			"-0.008": 0.807305986141,
			"-0.007": 5.03767945291,
			"-0.006": 15.849316275,
			"-0.005": 23.0125374659,
			"-0.004": 24.4374234918,
			"-0.003": 20.5962020542,
			"-0.002": 20.4233598154,
			"-0.001": 23.6086164777,
			"0.0": 19.3264407646,
			"0.001": 17.7499296191,
			"0.002": 18.7055237804,
			"0.003": 23.3863109529,
			"0.004": 19.9105122746,
			"0.005": 14.2867821494,
			"0.006": 6.21412535856,
			"0.007": 4.96563907833,
			"0.008": 4.20521717574,
			"0.009": 5.00222339776,
			"0.01": 6.25107990482,
			"0.011": 6.06396672453,
			"0.012": 2.84317634868,
			"0.013": 0.86463162328,
			"0.014": 0.46832024333,
			"0.015": 0.0403599193018,
			"0.016": 0.0,
			"0.017": 0.0,
			"0.018": 0.0,
			"0.019": 0.0,
			"0.02": 0.0,
			"0.021": 0.0,
			"0.022": 0.0,
			"0.023": 0.0,
			"0.024": 0.0,
			"0.0": 0.0
		}
	}
}
