{
	 "smiles": "C1CCC(CC1)NC1CCCCC1", 
	 "Tm": 272.1, 
	 "num_atms": 36, 
	 "gaussian": { 
		 "optdone": 1, 
		 "sigma_profile": "yes", 
		 "theory": "DFT", 
		 "functional": "B3LYP", 
		 "basiset": "6-31G**", 
		 "properties": { 
			 "R2extent": 3432.9157, 
			 "electric_dipole_moment_norm": 0.803734769685, 
			 "electric_quadrupole_moment_norm": 2.18165445018, 
			 "total_energy": -525.900676427, 
			 "HOMO_LUMO_gap": 0.27196, 
			 "cosmo_polarized_energy": -3.49, 
			 "cosmo_cavitation_energy": 32.99, 
			 "cosmo_dispersion_energy": -24.04, 
			 "cosmo_repulsion_energy": 1.92, 
			 "cosmo_total_nonelectrostatic_energy": 10.86, 
			 "SMD_solvation_energy": 2.38 
		},
		"coords": [
			{
				"x": 0.3358661079,
				"y": 1.8401502703,
				"z": 3.0354459848,
				"element": "C" 
			},
			{
				"x": -1.0863425881,
				"y": 1.5882108932,
				"z": 2.467489865,
				"element": "C" 
			},
			{
				"x": -1.3506895781,
				"y": 0.0943680155,
				"z": 2.1798129957,
				"element": "C" 
			},
			{
				"x": -0.1123705196,
				"y": -0.6299133905,
				"z": 1.6054589284,
				"element": "C" 
			},
			{
				"x": 1.0613362289,
				"y": -0.561446524,
				"z": 2.6273611754,
				"element": "C" 
			},
			{
				"x": 0.9172300852,
				"y": 0.5689060718,
				"z": 3.6680809866,
				"element": "C" 
			},
			{
				"x": 0.3543598769,
				"y": -0.132741835,
				"z": 0.2978291815,
				"element": "N" 
			},
			{
				"x": -0.5867426409,
				"y": -0.2115457803,
				"z": -0.8247550214,
				"element": "C" 
			},
			{
				"x": -0.9078236938,
				"y": -1.6893250907,
				"z": -1.1699858342,
				"element": "C" 
			},
			{
				"x": -1.2368112893,
				"y": -1.9007923705,
				"z": -2.6666787702,
				"element": "C" 
			},
			{
				"x": -1.9214900991,
				"y": -0.6671032936,
				"z": -3.268855185,
				"element": "C" 
			},
			{
				"x": -0.9833811868,
				"y": 0.5639681626,
				"z": -3.2193794254,
				"element": "C" 
			},
			{
				"x": 0.0213645411,
				"y": 0.4895885772,
				"z": -2.0472337893,
				"element": "C" 
			},
			{
				"x": 0.314617485,
				"y": 2.6589493183,
				"z": 3.7633550251,
				"element": "H" 
			},
			{
				"x": 1.0107874046,
				"y": 2.1717778241,
				"z": 2.234240864,
				"element": "H" 
			},
			{
				"x": -1.8416296205,
				"y": 1.9488528892,
				"z": 3.1752717588,
				"element": "H" 
			},
			{
				"x": -1.2286572146,
				"y": 2.1768999905,
				"z": 1.5536004731,
				"element": "H" 
			},
			{
				"x": -1.6349810154,
				"y": -0.4148340734,
				"z": 3.1098963323,
				"element": "H" 
			},
			{
				"x": -2.210263927,
				"y": -0.0118992829,
				"z": 1.5084558785,
				"element": "H" 
			},
			{
				"x": -0.3772107961,
				"y": -1.6821842809,
				"z": 1.4536421309,
				"element": "H" 
			},
			{
				"x": 1.9860101196,
				"y": -0.4291307009,
				"z": 2.0542222332,
				"element": "H" 
			},
			{
				"x": 1.1576647874,
				"y": -1.5215409524,
				"z": 3.147061153,
				"element": "H" 
			},
			{
				"x": 1.8916286898,
				"y": 0.777398435,
				"z": 4.1247617495,
				"element": "H" 
			},
			{
				"x": 0.261555239,
				"y": 0.2455116948,
				"z": 4.4874542455,
				"element": "H" 
			},
			{
				"x": 0.662103279,
				"y": 0.8322425895,
				"z": 0.3990716821,
				"element": "H" 
			},
			{
				"x": -1.5421133087,
				"y": 0.300328039,
				"z": -0.6003677102,
				"element": "H" 
			},
			{
				"x": -1.7488655522,
				"y": -2.0352634033,
				"z": -0.5571090077,
				"element": "H" 
			},
			{
				"x": -0.0392085153,
				"y": -2.2972264587,
				"z": -0.8918229996,
				"element": "H" 
			},
			{
				"x": -1.8645185281,
				"y": -2.7905794721,
				"z": -2.7894281023,
				"element": "H" 
			},
			{
				"x": -0.3134386064,
				"y": -2.1010539082,
				"z": -3.2254634114,
				"element": "H" 
			},
			{
				"x": -2.235552491,
				"y": -0.8625373446,
				"z": -4.3003691147,
				"element": "H" 
			},
			{
				"x": -2.8399256689,
				"y": -0.4601194343,
				"z": -2.7041006461,
				"element": "H" 
			},
			{
				"x": -0.4265347203,
				"y": 0.6472192231,
				"z": -4.160112656,
				"element": "H" 
			},
			{
				"x": -1.5847124209,
				"y": 1.4773683922,
				"z": -3.1388302755,
				"element": "H" 
			},
			{
				"x": 0.3531058492,
				"y": 1.5002468342,
				"z": -1.7759508235,
				"element": "H" 
			},
			{
				"x": 0.9240342874,
				"y": -0.0593496243,
				"z": -2.3419698712,
				"element": "H" 
			}
		],
		 "valence_orbital": [ 
			{
				"type": "occ",
				"energy": -0.29947,
				"method": "rhf"
			},
			{
				"type": "occ",
				"energy": -0.2931,
				"method": "rhf"
			},
			{
				"type": "occ",
				"energy": -0.29184,
				"method": "rhf"
			},
			{
				"type": "occ",
				"energy": -0.28501,
				"method": "rhf"
			},
			{
				"type": "occ",
				"energy": -0.20711,
				"method": "rhf"
			},
			{
				"type": "unocc",
				"energy": 0.06485,
				"method": "rhf"
			},
			{
				"type": "unocc",
				"energy": 0.08654,
				"method": "rhf"
			},
			{
				"type": "unocc",
				"energy": 0.09484,
				"method": "rhf"
			},
			{
				"type": "unocc",
				"energy": 0.10576,
				"method": "rhf"
			},
			{
				"type": "unocc",
				"energy": 0.12483,
				"method": "rhf"
			}
		],
		"cosmo_sigma_profile": { 
			"-0.025": 0.0,
			"-0.024": 0.0,
			"-0.023": 0.0,
			"-0.022": 0.0,
			"-0.021": 0.0,
			"-0.02": 0.0,
			"-0.019": 0.0,
			"-0.018": 0.0,
			"-0.017": 0.0,
			"-0.016": 0.0,
			"-0.015": 0.0,
			"-0.014": 0.0,
			"-0.013": 0.0,
			"-0.012": 0.0,
			"-0.011": 0.0,
			"-0.01": 0.0,
			"-0.009": 0.0,
			"-0.008": 0.0,
			"-0.007": 0.891064856202,
			"-0.006": 1.7828558003,
			"-0.005": 2.98897811999,
			"-0.004": 2.74691972453,
			"-0.003": 5.19908260134,
			"-0.002": 35.2557567959,
			"-0.001": 61.2322000854,
			"0.0": 62.1428446123,
			"0.001": 45.317989453,
			"0.002": 21.0281155564,
			"0.003": 1.77649194498,
			"0.004": 1.59072710647,
			"0.005": 1.70469386664,
			"0.006": 0.35818952241,
			"0.007": 0.573435885848,
			"0.008": 1.62828563177,
			"0.009": 0.580157471838,
			"0.01": 0.756668433623,
			"0.011": 0.901443028556,
			"0.012": 0.694789998318,
			"0.013": 0.465915127223,
			"0.014": 0.296026756356,
			"0.015": 0.327917904575,
			"0.016": 0.376404987601,
			"0.017": 0.471926310891,
			"0.018": 0.253416038602,
			"0.019": 0.0416720728644,
			"0.02": 0.0,
			"0.021": 0.0,
			"0.022": 0.0,
			"0.023": 0.0,
			"0.024": 0.0,
			"0.025": 0.0
		}
	}
}
