{
	 "smiles": "CN1C(=O)N(C)C(=O)C(=NNC2=CC=CC(C)=C2)C1=O", 
	 "Tm": 501.15, 
	 "num_atms": 34, 
	 "gaussian": { 
		 "optdone": 1, 
		 "sigma_profile": "yes", 
		 "theory": "DFT", 
		 "functional": "B3LYP", 
		 "basiset": "6-31G**", 
		 "properties": { 
			 "R2extent": 8389.2738, 
			 "electric_dipole_moment_norm": 3.10283240443, 
			 "electric_quadrupole_moment_norm": 9.87697026117, 
			 "total_energy": -948.534026758, 
			 "HOMO_LUMO_gap": 0.13585, 
			 "cosmo_polarized_energy": -15.13, 
			 "cosmo_cavitation_energy": 38.51, 
			 "cosmo_dispersion_energy": -27.98, 
			 "cosmo_repulsion_energy": 2.11, 
			 "cosmo_total_nonelectrostatic_energy": 12.64, 
			 "SMD_solvation_energy": 8.11 
		},
		"coords": [
			{
				"x": 2.0459480235,
				"y": 3.3836686195,
				"z": 0.453055661,
				"element": "C" 
			},
			{
				"x": 1.7085781446,
				"y": 1.9601038735,
				"z": 0.572715945,
				"element": "N" 
			},
			{
				"x": 2.7880982663,
				"y": 1.0651796943,
				"z": 0.5142282182,
				"element": "C" 
			},
			{
				"x": 3.9279939508,
				"y": 1.4751951622,
				"z": 0.3717795901,
				"element": "O" 
			},
			{
				"x": 2.5033207773,
				"y": -0.2907454171,
				"z": 0.6244868474,
				"element": "N" 
			},
			{
				"x": 3.6578935061,
				"y": -1.1943100644,
				"z": 0.5588322416,
				"element": "C" 
			},
			{
				"x": 1.218122281,
				"y": -0.8458431707,
				"z": 0.790736556,
				"element": "C" 
			},
			{
				"x": 1.0576427258,
				"y": -2.0511372084,
				"z": 0.8793782857,
				"element": "O" 
			},
			{
				"x": 0.1242594202,
				"y": 0.1455754731,
				"z": 0.8447637838,
				"element": "C" 
			},
			{
				"x": -1.0837528021,
				"y": -0.367607192,
				"z": 1.0001491699,
				"element": "N" 
			},
			{
				"x": -2.1341465547,
				"y": 0.3918242793,
				"z": 1.0636588913,
				"element": "N" 
			},
			{
				"x": -3.4211186522,
				"y": -0.1565911973,
				"z": 1.2292336562,
				"element": "C" 
			},
			{
				"x": -4.5031333869,
				"y": 0.7272817621,
				"z": 1.2885969931,
				"element": "C" 
			},
			{
				"x": -5.7876978659,
				"y": 0.2116780554,
				"z": 1.4548712711,
				"element": "C" 
			},
			{
				"x": -5.9889321146,
				"y": -1.1630720427,
				"z": 1.5596546129,
				"element": "C" 
			},
			{
				"x": -4.9035448152,
				"y": -2.0538797458,
				"z": 1.4984241494,
				"element": "C" 
			},
			{
				"x": -5.1297036381,
				"y": -3.5445461872,
				"z": 1.5950182916,
				"element": "C" 
			},
			{
				"x": -3.6166684793,
				"y": -1.5399448824,
				"z": 1.3339046606,
				"element": "C" 
			},
			{
				"x": 0.383107626,
				"y": 1.5796855045,
				"z": 0.7325693742,
				"element": "C" 
			},
			{
				"x": -0.5228177662,
				"y": 2.4277767742,
				"z": 0.7758213297,
				"element": "O" 
			},
			{
				"x": 1.1179913746,
				"y": 3.9465413093,
				"z": 0.5155192693,
				"element": "H" 
			},
			{
				"x": 2.7249268674,
				"y": 3.6725247045,
				"z": 1.257491332,
				"element": "H" 
			},
			{
				"x": 2.5430345679,
				"y": 3.5678289665,
				"z": -0.5011753988,
				"element": "H" 
			},
			{
				"x": 3.2776618088,
				"y": -2.2081560636,
				"z": 0.6575471227,
				"element": "H" 
			},
			{
				"x": 4.357232859,
				"y": -0.9657435803,
				"z": 1.3656044414,
				"element": "H" 
			},
			{
				"x": 4.1761953943,
				"y": -1.0690667036,
				"z": -0.3939737081,
				"element": "H" 
			},
			{
				"x": -1.9934642728,
				"y": 1.4083896464,
				"z": 0.9885422372,
				"element": "H" 
			},
			{
				"x": -4.3400427157,
				"y": 1.7984839325,
				"z": 1.2082012258,
				"element": "H" 
			},
			{
				"x": -6.6340362516,
				"y": 0.890213363,
				"z": 1.5047178833,
				"element": "H" 
			},
			{
				"x": -6.9948094377,
				"y": -1.5528622991,
				"z": 1.6913243176,
				"element": "H" 
			},
			{
				"x": -5.6207907084,
				"y": -3.9274247114,
				"z": 0.6923943169,
				"element": "H" 
			},
			{
				"x": -4.1875759766,
				"y": -4.085266976,
				"z": 1.7149349984,
				"element": "H" 
			},
			{
				"x": -5.7755662956,
				"y": -3.7942333723,
				"z": 2.4435003696,
				"element": "H" 
			},
			{
				"x": -2.7548058601,
				"y": -2.1961203057,
				"z": 1.2854920638,
				"element": "H" 
			}
		],
		 "valence_orbital": [ 
			{
				"type": "occ",
				"energy": -0.28213,
				"method": "rhf"
			},
			{
				"type": "occ",
				"energy": -0.27086,
				"method": "rhf"
			},
			{
				"type": "occ",
				"energy": -0.25678,
				"method": "rhf"
			},
			{
				"type": "occ",
				"energy": -0.25599,
				"method": "rhf"
			},
			{
				"type": "occ",
				"energy": -0.22397,
				"method": "rhf"
			},
			{
				"type": "unocc",
				"energy": -0.08812,
				"method": "rhf"
			},
			{
				"type": "unocc",
				"energy": -0.0103,
				"method": "rhf"
			},
			{
				"type": "unocc",
				"energy": -0.00137,
				"method": "rhf"
			},
			{
				"type": "unocc",
				"energy": 0.00466,
				"method": "rhf"
			},
			{
				"type": "unocc",
				"energy": 0.02385,
				"method": "rhf"
			}
		],
		"cosmo_sigma_profile": { 
			"-0.025": 0.0,
			"-0.024": 0.0,
			"-0.023": 0.0,
			"-0.022": 0.0,
			"-0.021": 0.0,
			"-0.02": 0.0,
			"-0.019": 0.0,
			"-0.018": 0.0,
			"-0.017": 0.0,
			"-0.016": 0.0,
			"-0.015": 0.0,
			"-0.014": 0.0,
			"-0.013": 0.0,
			"-0.012": 0.415847463121,
			"-0.011": 1.04796548169,
			"-0.01": 0.935354535499,
			"-0.009": 1.41685480627,
			"-0.008": 2.48970030384,
			"-0.007": 4.92852808095,
			"-0.006": 11.8986400342,
			"-0.005": 24.2697644871,
			"-0.004": 36.6071675002,
			"-0.003": 36.5350138165,
			"-0.002": 30.8508498821,
			"-0.001": 22.4103356563,
			"0.0": 20.4821797288,
			"0.001": 17.1513504589,
			"0.002": 13.4654105589,
			"0.003": 14.5494899696,
			"0.004": 14.3009177488,
			"0.005": 9.9474128022,
			"0.006": 4.54542515418,
			"0.007": 4.76398279088,
			"0.008": 4.69095586743,
			"0.009": 4.25893851755,
			"0.01": 5.61995606748,
			"0.011": 6.33931917396,
			"0.012": 8.98744199455,
			"0.013": 3.02797131043,
			"0.014": 1.51428207156,
			"0.015": 0.0,
			"0.016": 0.0,
			"0.017": 0.0,
			"0.018": 0.0,
			"0.019": 0.0,
			"0.02": 0.0,
			"0.021": 0.0,
			"0.022": 0.0,
			"0.023": 0.0,
			"0.024": 0.0,
			"0.025": 0.0
		}
	}
}
