{
	 "smiles": "CC1(C)[C@@H](C=C(/Cl)C(F)(F)F)[C@H]1C(O)=O", 
	 "Tm": 381.15, 
	 "num_atms": 25, 
	 "gaussian": { 
		 "optdone": 1, 
		 "sigma_profile": "yes", 
		 "theory": "DFT", 
		 "functional": "B3LYP", 
		 "basiset": "6-31G**", 
		 "properties": { 
			 "R2extent": 4918.175, 
			 "electric_dipole_moment_norm": 5.69387157126, 
			 "electric_quadrupole_moment_norm": 9.04106180269, 
			 "total_energy": -1259.11957346, 
			 "HOMO_LUMO_gap": 0.22597, 
			 "cosmo_polarized_energy": -14.38, 
			 "cosmo_cavitation_energy": 31.73, 
			 "cosmo_dispersion_energy": -21.64, 
			 "cosmo_repulsion_energy": 1.69, 
			 "cosmo_total_nonelectrostatic_energy": 11.78, 
			 "SMD_solvation_energy": 7.51 
		},
		"coords": [
			{
				"x": 0.6398535817,
				"y": 0.0170858221,
				"z": 2.9271916268,
				"element": "C" 
			},
			{
				"x": 0.2304637504,
				"y": 0.7780136532,
				"z": 1.6751064146,
				"element": "C" 
			},
			{
				"x": -0.3086076435,
				"y": 2.1693950452,
				"z": 1.9615663009,
				"element": "C" 
			},
			{
				"x": -0.3454505887,
				"y": -0.0567357658,
				"z": 0.5453439679,
				"element": "C" 
			},
			{
				"x": -1.4351421009,
				"y": 0.419456967,
				"z": -0.3230685398,
				"element": "C" 
			},
			{
				"x": -2.5219039907,
				"y": -0.2843457468,
				"z": -0.6534408575,
				"element": "C" 
			},
			{
				"x": -2.8390026673,
				"y": -1.9168904841,
				"z": -0.0974756741,
				"element": "Cl" 
			},
			{
				"x": -3.6069386736,
				"y": 0.2554538741,
				"z": -1.5513124885,
				"element": "C" 
			},
			{
				"x": -4.8002724313,
				"y": 0.2830923698,
				"z": -0.9239319474,
				"element": "F" 
			},
			{
				"x": -3.3247187216,
				"y": 1.5117809255,
				"z": -1.9487678551,
				"element": "F" 
			},
			{
				"x": -3.7570548683,
				"y": -0.5008244871,
				"z": -2.6569378125,
				"element": "F" 
			},
			{
				"x": 1.0837643224,
				"y": 0.5130914603,
				"z": 0.4332990038,
				"element": "C" 
			},
			{
				"x": 1.4209738798,
				"y": 1.5926739338,
				"z": -0.5445743179,
				"element": "C" 
			},
			{
				"x": 2.7021794129,
				"y": 1.5854135841,
				"z": -0.9967307098,
				"element": "O" 
			},
			{
				"x": 0.6611683315,
				"y": 2.449417419,
				"z": -0.9406092152,
				"element": "O" 
			},
			{
				"x": -0.2149970659,
				"y": -0.0897636648,
				"z": 3.6038430805,
				"element": "H" 
			},
			{
				"x": 1.4280105046,
				"y": 0.5547595978,
				"z": 3.4664270898,
				"element": "H" 
			},
			{
				"x": 1.010514386,
				"y": -0.9864549281,
				"z": 2.6951950184,
				"element": "H" 
			},
			{
				"x": -0.5031688311,
				"y": 2.7415077237,
				"z": 1.0554342354,
				"element": "H" 
			},
			{
				"x": -1.2367640919,
				"y": 2.0931120221,
				"z": 2.5381712136,
				"element": "H" 
			},
			{
				"x": 0.4128480072,
				"y": 2.7313227742,
				"z": 2.5650333711,
				"element": "H" 
			},
			{
				"x": -0.3660978318,
				"y": -1.1253299594,
				"z": 0.7375847661,
				"element": "H" 
			},
			{
				"x": -1.3485565127,
				"y": 1.4151413818,
				"z": -0.7436466523,
				"element": "H" 
			},
			{
				"x": 1.8601489676,
				"y": -0.2374470798,
				"z": 0.569406847,
				"element": "H" 
			},
			{
				"x": 3.2014508752,
				"y": 0.8582735623,
				"z": -0.6005068657,
				"element": "H" 
			}
		],
		 "valence_orbital": [ 
			{
				"type": "occ",
				"energy": -0.32633,
				"method": "rhf"
			},
			{
				"type": "occ",
				"energy": -0.32418,
				"method": "rhf"
			},
			{
				"type": "occ",
				"energy": -0.3075,
				"method": "rhf"
			},
			{
				"type": "occ",
				"energy": -0.28371,
				"method": "rhf"
			},
			{
				"type": "occ",
				"energy": -0.25871,
				"method": "rhf"
			},
			{
				"type": "unocc",
				"energy": -0.03274,
				"method": "rhf"
			},
			{
				"type": "unocc",
				"energy": -0.00378,
				"method": "rhf"
			},
			{
				"type": "unocc",
				"energy": 0.02054,
				"method": "rhf"
			},
			{
				"type": "unocc",
				"energy": 0.03996,
				"method": "rhf"
			},
			{
				"type": "unocc",
				"energy": 0.0771,
				"method": "rhf"
			}
		],
		"cosmo_sigma_profile": { 
			"-0.025": 0.0,
			"-0.024": 0.0,
			"-0.023": 0.0,
			"-0.022": 0.0,
			"-0.021": 0.0,
			"-0.02": 0.0788707867111,
			"-0.019": 0.90892199194,
			"-0.018": 1.48657161108,
			"-0.017": 0.950638589319,
			"-0.016": 0.98796176757,
			"-0.015": 1.15933934605,
			"-0.014": 0.837366204062,
			"-0.013": 0.933519016154,
			"-0.012": 1.15998113478,
			"-0.011": 1.34584539461,
			"-0.01": 1.26302592642,
			"-0.009": 0.631606591709,
			"-0.008": 2.00099510685,
			"-0.007": 4.09255961841,
			"-0.006": 4.3253865773,
			"-0.005": 3.61084526784,
			"-0.004": 12.0149249317,
			"-0.003": 20.7269840875,
			"-0.002": 22.3724909268,
			"-0.001": 25.2149222844,
			"0.0": 31.8219419292,
			"0.001": 21.8842316413,
			"0.002": 31.4746497886,
			"0.003": 29.8101653182,
			"0.004": 8.17604539756,
			"0.005": 1.83764209468,
			"0.006": 1.66533199866,
			"0.007": 3.29012385365,
			"0.008": 1.81247122651,
			"0.009": 3.44414995649,
			"0.01": 3.69731291344,
			"0.011": 4.1365877294,
			"0.012": 2.82678306727,
			"0.013": 1.39852262494,
			"0.014": 0.0399315439459,
			"0.015": 0.0,
			"0.016": 0.0,
			"0.017": 0.0,
			"0.018": 0.0,
			"0.019": 0.0,
			"0.02": 0.0,
			"0.021": 0.0,
			"0.022": 0.0,
			"0.023": 0.0,
			"0.024": 0.0,
			"0.025": 0.0
		}
	}
}
