{
	 "smiles": "CC1=CC=C2NC(C(C2=C1)C1=CC=CC=C1)C1=CC=CC=C1", 
	 "Tm": 428.15, 
	 "num_atms": 41, 
	 "gaussian": { 
		 "optdone": 1, 
		 "sigma_profile": "yes", 
		 "theory": "DFT", 
		 "functional": "B3LYP", 
		 "basiset": "6-31G**", 
		 "properties": { 
			 "R2extent": 7710.6526, 
			 "electric_dipole_moment_norm": 1.01486363616, 
			 "electric_quadrupole_moment_norm": 5.59871677976, 
			 "total_energy": -866.454128525, 
			 "HOMO_LUMO_gap": 0.18225, 
			 "cosmo_polarized_energy": -9.13, 
			 "cosmo_cavitation_energy": 43.53, 
			 "cosmo_dispersion_energy": -29.54, 
			 "cosmo_repulsion_energy": 2.27, 
			 "cosmo_total_nonelectrostatic_energy": 16.26, 
			 "SMD_solvation_energy": 6.27 
		},
		"coords": [
			{
				"x": 1.0919489852,
				"y": -0.8989220812,
				"z": -5.8395328142,
				"element": "C" 
			},
			{
				"x": 0.5999320922,
				"y": -1.0927987491,
				"z": -4.4232243027,
				"element": "C" 
			},
			{
				"x": 0.2418027981,
				"y": -2.3590095155,
				"z": -3.9461608538,
				"element": "C" 
			},
			{
				"x": -0.2103216074,
				"y": -2.5635390301,
				"z": -2.6360060291,
				"element": "C" 
			},
			{
				"x": -0.2980194186,
				"y": -1.4610171971,
				"z": -1.7902016382,
				"element": "C" 
			},
			{
				"x": -0.7622457955,
				"y": -1.4002020153,
				"z": -0.4682524897,
				"element": "N" 
			},
			{
				"x": -0.28985537,
				"y": -0.1351682808,
				"z": 0.1251832506,
				"element": "C" 
			},
			{
				"x": -0.1898112072,
				"y": 0.8174064175,
				"z": -1.1264162614,
				"element": "C" 
			},
			{
				"x": 0.0639905848,
				"y": -0.1821163113,
				"z": -2.2438651224,
				"element": "C" 
			},
			{
				"x": 0.4990712172,
				"y": 0.0049816278,
				"z": -3.5461403924,
				"element": "C" 
			},
			{
				"x": 0.8097197646,
				"y": 1.9430377501,
				"z": -0.9595709063,
				"element": "C" 
			},
			{
				"x": 0.3695873036,
				"y": 3.2476127344,
				"z": -0.701110194,
				"element": "C" 
			},
			{
				"x": 1.2805562562,
				"y": 4.2890097546,
				"z": -0.5133052582,
				"element": "C" 
			},
			{
				"x": 2.6516475665,
				"y": 4.0401943837,
				"z": -0.5820548437,
				"element": "C" 
			},
			{
				"x": 3.1039703186,
				"y": 2.7439427643,
				"z": -0.8407552441,
				"element": "C" 
			},
			{
				"x": 2.1913193136,
				"y": 1.7061855057,
				"z": -1.0282240725,
				"element": "C" 
			},
			{
				"x": -1.1809774355,
				"y": 0.3784774079,
				"z": 1.2363401481,
				"element": "C" 
			},
			{
				"x": -0.6274042444,
				"y": 1.1099802502,
				"z": 2.2948676969,
				"element": "C" 
			},
			{
				"x": -1.4399450251,
				"y": 1.6302494925,
				"z": 3.3035943078,
				"element": "C" 
			},
			{
				"x": -2.8192220026,
				"y": 1.4187889394,
				"z": 3.2698511583,
				"element": "C" 
			},
			{
				"x": -3.3790908539,
				"y": 0.6851964942,
				"z": 2.221216552,
				"element": "C" 
			},
			{
				"x": -2.5665863328,
				"y": 0.1699903776,
				"z": 1.2108938928,
				"element": "C" 
			},
			{
				"x": 2.1207894876,
				"y": -0.5191319365,
				"z": -5.862487365,
				"element": "H" 
			},
			{
				"x": 1.0753056928,
				"y": -1.839049063,
				"z": -6.3984790051,
				"element": "H" 
			},
			{
				"x": 0.4736978333,
				"y": -0.1774503931,
				"z": -6.3869488131,
				"element": "H" 
			},
			{
				"x": 0.3204898516,
				"y": -3.2149101319,
				"z": -4.612310224,
				"element": "H" 
			},
			{
				"x": -0.4814833499,
				"y": -3.558615328,
				"z": -2.2941364588,
				"element": "H" 
			},
			{
				"x": -0.6184170168,
				"y": -2.2246350183,
				"z": 0.1026518573,
				"element": "H" 
			},
			{
				"x": 0.7324604963,
				"y": -0.2536398148,
				"z": 0.5208975126,
				"element": "H" 
			},
			{
				"x": -1.1844852563,
				"y": 1.2614674975,
				"z": -1.2751757076,
				"element": "H" 
			},
			{
				"x": 0.7791971919,
				"y": 0.9989954479,
				"z": -3.8880104775,
				"element": "H" 
			},
			{
				"x": -0.6973895907,
				"y": 3.4470749157,
				"z": -0.6441914371,
				"element": "H" 
			},
			{
				"x": 0.9174594123,
				"y": 5.2936590364,
				"z": -0.3152028859,
				"element": "H" 
			},
			{
				"x": 3.3625881584,
				"y": 4.8490670949,
				"z": -0.4393307458,
				"element": "H" 
			},
			{
				"x": 4.1698043524,
				"y": 2.5414235492,
				"z": -0.9013951849,
				"element": "H" 
			},
			{
				"x": 2.5498568998,
				"y": 0.7033352978,
				"z": -1.2429003243,
				"element": "H" 
			},
			{
				"x": 0.446839385,
				"y": 1.2730226257,
				"z": 2.3276028732,
				"element": "H" 
			},
			{
				"x": -0.994295821,
				"y": 2.1948220409,
				"z": 4.1178808611,
				"element": "H" 
			},
			{
				"x": -3.4525704287,
				"y": 1.8173595803,
				"z": 4.0574019593,
				"element": "H" 
			},
			{
				"x": -4.4512815633,
				"y": 0.5109350305,
				"z": 2.1915715089,
				"element": "H" 
			},
			{
				"x": -2.9943326427,
				"y": -0.4113111507,
				"z": 0.4000354729,
				"element": "H" 
			}
		],
		 "valence_orbital": [ 
			{
				"type": "occ",
				"energy": -0.24837,
				"method": "rhf"
			},
			{
				"type": "occ",
				"energy": -0.24382,
				"method": "rhf"
			},
			{
				"type": "occ",
				"energy": -0.23893,
				"method": "rhf"
			},
			{
				"type": "occ",
				"energy": -0.23142,
				"method": "rhf"
			},
			{
				"type": "occ",
				"energy": -0.1888,
				"method": "rhf"
			},
			{
				"type": "unocc",
				"energy": -0.00655,
				"method": "rhf"
			},
			{
				"type": "unocc",
				"energy": -0.00184,
				"method": "rhf"
			},
			{
				"type": "unocc",
				"energy": 0.00239,
				"method": "rhf"
			},
			{
				"type": "unocc",
				"energy": 0.00427,
				"method": "rhf"
			},
			{
				"type": "unocc",
				"energy": 0.00644,
				"method": "rhf"
			}
		],
		"cosmo_sigma_profile": { 
			"-0.025": 0.0,
			"-0.024": 0.0,
			"-0.023": 0.0,
			"-0.022": 0.0,
			"-0.021": 0.0,
			"-0.02": 0.0,
			"-0.019": 0.0,
			"-0.018": 0.0,
			"-0.017": 0.0,
			"-0.016": 0.0,
			"-0.015": 0.0,
			"-0.014": 0.0,
			"-0.013": 0.187115370185,
			"-0.012": 1.2559024354,
			"-0.011": 1.33788584793,
			"-0.01": 0.72633662477,
			"-0.009": 1.45618933531,
			"-0.008": 1.23950864883,
			"-0.007": 1.71494596271,
			"-0.006": 6.11576509382,
			"-0.005": 22.5918604259,
			"-0.004": 32.8709889873,
			"-0.003": 40.0276808723,
			"-0.002": 28.9899937778,
			"-0.001": 31.1896586577,
			"0.0": 26.7675867376,
			"0.001": 24.5216744799,
			"0.002": 22.5314096112,
			"0.003": 22.0505017525,
			"0.004": 23.357442869,
			"0.005": 22.8847572022,
			"0.006": 22.0268785673,
			"0.007": 9.44857443865,
			"0.008": 1.71939706577,
			"0.009": 0.71753222511,
			"0.01": 0.273104122872,
			"0.011": 0.0,
			"0.012": 0.0,
			"0.013": 0.0,
			"0.014": 0.0,
			"0.015": 0.0,
			"0.016": 0.0,
			"0.017": 0.0,
			"0.018": 0.0,
			"0.019": 0.0,
			"0.02": 0.0,
			"0.021": 0.0,
			"0.022": 0.0,
			"0.023": 0.0,
			"0.024": 0.0,
			"0.025": 0.0
		}
	}
}
