{
	 "smiles": "CC1=CC=C(C=C1)C1=C(C#N)C(Cl)=NS1", 
	 "Tm": 355.65, 
	 "num_atms": 22, 
	 "gaussian": { 
		 "optdone": 1, 
		 "sigma_profile": "yes", 
		 "theory": "DFT", 
		 "functional": "B3LYP", 
		 "basiset": "6-31G**", 
		 "properties": { 
			 "R2extent": 6242.5626, 
			 "electric_dipole_moment_norm": 5.65747780111, 
			 "electric_quadrupole_moment_norm": 12.1276150166, 
			 "total_energy": -1391.24491504, 
			 "HOMO_LUMO_gap": 0.16684, 
			 "cosmo_polarized_energy": -9.62, 
			 "cosmo_cavitation_energy": 31.04, 
			 "cosmo_dispersion_energy": -22.67, 
			 "cosmo_repulsion_energy": 1.72, 
			 "cosmo_total_nonelectrostatic_energy": 10.09, 
			 "SMD_solvation_energy": 4.54 
		},
		"coords": [
			{
				"x": 3.5209770093,
				"y": -0.2096351467,
				"z": 1.752239176,
				"element": "C" 
			},
			{
				"x": 2.2513915975,
				"y": 0.2914729498,
				"z": 1.1095334227,
				"element": "C" 
			},
			{
				"x": 1.4757318665,
				"y": 1.2869771343,
				"z": 1.7209041949,
				"element": "C" 
			},
			{
				"x": 0.2925812512,
				"y": 1.7326980089,
				"z": 1.1430047012,
				"element": "C" 
			},
			{
				"x": -0.1595668709,
				"y": 1.1952887611,
				"z": -0.0767590269,
				"element": "C" 
			},
			{
				"x": 0.6162672434,
				"y": 0.197328788,
				"z": -0.6943274759,
				"element": "C" 
			},
			{
				"x": 1.7992682222,
				"y": -0.2389319247,
				"z": -0.1070102194,
				"element": "C" 
			},
			{
				"x": -1.4161318962,
				"y": 1.6614836888,
				"z": -0.6668007946,
				"element": "C" 
			},
			{
				"x": -1.8212305852,
				"y": 1.7361108327,
				"z": -1.9958067579,
				"element": "C" 
			},
			{
				"x": -1.0381191585,
				"y": 1.382840388,
				"z": -3.128231026,
				"element": "C" 
			},
			{
				"x": -0.4010126079,
				"y": 1.0890178377,
				"z": -4.0568954137,
				"element": "N" 
			},
			{
				"x": -3.1552448578,
				"y": 2.2724859407,
				"z": -2.0793653518,
				"element": "C" 
			},
			{
				"x": -3.9616740729,
				"y": 2.5131965264,
				"z": -3.5973852262,
				"element": "Cl" 
			},
			{
				"x": -3.7592911878,
				"y": 2.5880769681,
				"z": -0.969477761,
				"element": "N" 
			},
			{
				"x": -2.7313071685,
				"y": 2.2404178629,
				"z": 0.311033001,
				"element": "S" 
			},
			{
				"x": 4.2420774939,
				"y": -0.5483618289,
				"z": 1.002882763,
				"element": "H" 
			},
			{
				"x": 3.3147797911,
				"y": -1.0600131309,
				"z": 2.4142835902,
				"element": "H" 
			},
			{
				"x": 3.9965559487,
				"y": 0.5667328496,
				"z": 2.3584058079,
				"element": "H" 
			},
			{
				"x": 1.8089659216,
				"y": 1.7266969617,
				"z": 2.6570919383,
				"element": "H" 
			},
			{
				"x": -0.2696528319,
				"y": 2.5270698705,
				"z": 1.6260493496,
				"element": "H" 
			},
			{
				"x": 0.2917466439,
				"y": -0.244240129,
				"z": -1.6294238952,
				"element": "H" 
			},
			{
				"x": 2.3821882483,
				"y": -1.0098132092,
				"z": -0.6037449961,
				"element": "H" 
			}
		],
		 "valence_orbital": [ 
			{
				"type": "occ",
				"energy": -0.32079,
				"method": "rhf"
			},
			{
				"type": "occ",
				"energy": -0.30483,
				"method": "rhf"
			},
			{
				"type": "occ",
				"energy": -0.27566,
				"method": "rhf"
			},
			{
				"type": "occ",
				"energy": -0.27303,
				"method": "rhf"
			},
			{
				"type": "occ",
				"energy": -0.25158,
				"method": "rhf"
			},
			{
				"type": "unocc",
				"energy": -0.08474,
				"method": "rhf"
			},
			{
				"type": "unocc",
				"energy": -0.03362,
				"method": "rhf"
			},
			{
				"type": "unocc",
				"energy": -0.02018,
				"method": "rhf"
			},
			{
				"type": "unocc",
				"energy": -0.01359,
				"method": "rhf"
			},
			{
				"type": "unocc",
				"energy": -0.00527,
				"method": "rhf"
			}
		],
		"cosmo_sigma_profile": { 
			"-0.025": 0.0,
			"-0.024": 0.0,
			"-0.023": 0.0,
			"-0.022": 0.0,
			"-0.021": 0.0,
			"-0.02": 0.0,
			"-0.019": 0.0,
			"-0.018": 0.0,
			"-0.017": 0.0,
			"-0.016": 0.0,
			"-0.015": 0.0,
			"-0.014": 0.0,
			"-0.013": 0.0,
			"-0.012": 0.0,
			"-0.011": 0.0,
			"-0.01": 0.0,
			"-0.009": 0.0,
			"-0.008": 0.552108398583,
			"-0.007": 3.65216366593,
			"-0.006": 10.0337365797,
			"-0.005": 16.3651537706,
			"-0.004": 23.1523109008,
			"-0.003": 26.9530736055,
			"-0.002": 25.3757455414,
			"-0.001": 24.7791677058,
			"0.0": 24.6093147383,
			"0.001": 17.7911646112,
			"0.002": 19.6942450314,
			"0.003": 23.0720892863,
			"0.004": 9.59583465935,
			"0.005": 3.53021159421,
			"0.006": 4.40262909855,
			"0.007": 3.91003846547,
			"0.008": 3.6501571426,
			"0.009": 3.94099682752,
			"0.01": 4.29148104371,
			"0.011": 3.19336707907,
			"0.012": 2.72756403171,
			"0.013": 0.323687715301,
			"0.014": 0.0,
			"0.015": 0.0,
			"0.016": 0.0,
			"0.017": 0.0,
			"0.018": 0.0,
			"0.019": 0.0,
			"0.02": 0.0,
			"0.021": 0.0,
			"0.022": 0.0,
			"0.023": 0.0,
			"0.024": 0.0,
			"0.025": 0.0
		}
	}
}
