{
	 "smiles": "CC12CCC3C(CCC4=CC5=C(CC34C)C=NO5)C1CCC2(O)C#C", 
	 "Tm": 508.15, 
	 "num_atms": 52, 
	 "gaussian": { 
		 "optdone": 1, 
		 "sigma_profile": "yes", 
		 "theory": "DFT", 
		 "functional": "B3LYP", 
		 "basiset": "6-31G**", 
		 "properties": { 
			 "R2extent": 10544.2957, 
			 "electric_dipole_moment_norm": 3.86170211953, 
			 "electric_quadrupole_moment_norm": 40.7830593599, 
			 "total_energy": -1059.68372737, 
			 "HOMO_LUMO_gap": 0.17464, 
			 "cosmo_polarized_energy": -14.95, 
			 "cosmo_cavitation_energy": 47.58, 
			 "cosmo_dispersion_energy": -32.3, 
			 "cosmo_repulsion_energy": 2.34, 
			 "cosmo_total_nonelectrostatic_energy": 17.62, 
			 "SMD_solvation_energy": 8.1 
		},
		"coords": [
			{
				"x": -0.7212526555,
				"y": 0.8058468716,
				"z": -3.4044729376,
				"element": "C" 
			},
			{
				"x": -1.1714372541,
				"y": -0.0989848726,
				"z": -2.2401360365,
				"element": "C" 
			},
			{
				"x": -0.3176532081,
				"y": -1.3823182639,
				"z": -2.2254854836,
				"element": "C" 
			},
			{
				"x": 1.1077579398,
				"y": -1.1393117539,
				"z": -1.7065126803,
				"element": "C" 
			},
			{
				"x": 1.1491394282,
				"y": -0.465545819,
				"z": -0.2973892396,
				"element": "C" 
			},
			{
				"x": -0.2647261709,
				"y": -0.0853196082,
				"z": 0.2089941161,
				"element": "C" 
			},
			{
				"x": -0.1389422049,
				"y": 0.7379526989,
				"z": 1.4986180345,
				"element": "C" 
			},
			{
				"x": 0.6107546392,
				"y": -0.0448081445,
				"z": 2.5835119143,
				"element": "C" 
			},
			{
				"x": 1.9517476305,
				"y": -0.5639400446,
				"z": 2.1249850659,
				"element": "C" 
			},
			{
				"x": 3.0121157945,
				"y": -0.5401431081,
				"z": 2.9625314081,
				"element": "C" 
			},
			{
				"x": 4.2415459843,
				"y": -1.1571353138,
				"z": 2.5333865456,
				"element": "C" 
			},
			{
				"x": 4.4786288666,
				"y": -1.6000004569,
				"z": 1.2635846882,
				"element": "C" 
			},
			{
				"x": 3.4688102133,
				"y": -1.351434678,
				"z": 0.1864093372,
				"element": "C" 
			},
			{
				"x": 2.006545333,
				"y": -1.265589628,
				"z": 0.7483600894,
				"element": "C" 
			},
			{
				"x": 1.4711094393,
				"y": -2.7044432927,
				"z": 0.9755575099,
				"element": "C" 
			},
			{
				"x": 5.7897988459,
				"y": -2.1317479522,
				"z": 1.3509708121,
				"element": "C" 
			},
			{
				"x": 6.2971721898,
				"y": -2.0284253444,
				"z": 2.5638894556,
				"element": "N" 
			},
			{
				"x": 5.2998007692,
				"y": -1.3969012414,
				"z": 3.3301547339,
				"element": "O" 
			},
			{
				"x": -1.0464761085,
				"y": 0.6821615639,
				"z": -0.8772225723,
				"element": "C" 
			},
			{
				"x": -2.4968496049,
				"y": 1.0555929008,
				"z": -0.4531103936,
				"element": "C" 
			},
			{
				"x": -3.3573336002,
				"y": 0.8642072205,
				"z": -1.7056387224,
				"element": "C" 
			},
			{
				"x": -2.7310645986,
				"y": -0.3689743172,
				"z": -2.385788688,
				"element": "C" 
			},
			{
				"x": -3.1845862005,
				"y": -0.425042732,
				"z": -3.7386114121,
				"element": "O" 
			},
			{
				"x": -3.1642335175,
				"y": -1.5902373519,
				"z": -1.6783952165,
				"element": "C" 
			},
			{
				"x": -3.557264325,
				"y": -2.5910679608,
				"z": -1.1250831676,
				"element": "C" 
			},
			{
				"x": 0.3346744316,
				"y": 1.0702037018,
				"z": -3.2891605746,
				"element": "H" 
			},
			{
				"x": -0.8489299453,
				"y": 0.3095193861,
				"z": -4.3695928676,
				"element": "H" 
			},
			{
				"x": -1.2883325464,
				"y": 1.7402815462,
				"z": -3.4396863768,
				"element": "H" 
			},
			{
				"x": -0.799427562,
				"y": -2.1384279617,
				"z": -1.5987562734,
				"element": "H" 
			},
			{
				"x": -0.2686887935,
				"y": -1.8090041888,
				"z": -3.2363529103,
				"element": "H" 
			},
			{
				"x": 1.6306505843,
				"y": -2.0999342914,
				"z": -1.6968216016,
				"element": "H" 
			},
			{
				"x": 1.6589705226,
				"y": -0.5185690097,
				"z": -2.420883612,
				"element": "H" 
			},
			{
				"x": 1.6739289382,
				"y": 0.4946517869,
				"z": -0.4129923627,
				"element": "H" 
			},
			{
				"x": -0.8296865481,
				"y": -0.9992199523,
				"z": 0.4444371701,
				"element": "H" 
			},
			{
				"x": -1.1270789519,
				"y": 1.0227198414,
				"z": 1.8757593248,
				"element": "H" 
			},
			{
				"x": 0.3967872228,
				"y": 1.6721179749,
				"z": 1.2778280672,
				"element": "H" 
			},
			{
				"x": 0.7405585368,
				"y": 0.5619751822,
				"z": 3.4862690947,
				"element": "H" 
			},
			{
				"x": -0.0160733654,
				"y": -0.9002650102,
				"z": 2.8791887473,
				"element": "H" 
			},
			{
				"x": 2.9438776123,
				"y": -0.1071213879,
				"z": 3.9561134721,
				"element": "H" 
			},
			{
				"x": 3.5146845419,
				"y": -2.1252393524,
				"z": -0.5862998854,
				"element": "H" 
			},
			{
				"x": 3.7126077051,
				"y": -0.4031964249,
				"z": -0.3157429295,
				"element": "H" 
			},
			{
				"x": 0.469496304,
				"y": -2.7068599133,
				"z": 1.4135161001,
				"element": "H" 
			},
			{
				"x": 1.4260091817,
				"y": -3.2661460042,
				"z": 0.037200835,
				"element": "H" 
			},
			{
				"x": 2.1350899202,
				"y": -3.2465800481,
				"z": 1.655354762,
				"element": "H" 
			},
			{
				"x": 6.3945966676,
				"y": -2.5921371238,
				"z": 0.5788293237,
				"element": "H" 
			},
			{
				"x": -0.488515202,
				"y": 1.608289548,
				"z": -1.0732975083,
				"element": "H" 
			},
			{
				"x": -2.8446095294,
				"y": 0.3705905704,
				"z": 0.3293586277,
				"element": "H" 
			},
			{
				"x": -2.5688352533,
				"y": 2.0685305514,
				"z": -0.0469543641,
				"element": "H" 
			},
			{
				"x": -4.41944225,
				"y": 0.7186832135,
				"z": -1.4947752671,
				"element": "H" 
			},
			{
				"x": -3.2661176855,
				"y": 1.7092815052,
				"z": -2.3954443299,
				"element": "H" 
			},
			{
				"x": -2.9589119778,
				"y": -1.2960002095,
				"z": -4.0921134268,
				"element": "H" 
			},
			{
				"x": -3.9087901836,
				"y": -3.4709333015,
				"z": -0.6372883953,
				"element": "H" 
			}
		],
		 "valence_orbital": [ 
			{
				"type": "occ",
				"energy": -0.28437,
				"method": "rhf"
			},
			{
				"type": "occ",
				"energy": -0.28098,
				"method": "rhf"
			},
			{
				"type": "occ",
				"energy": -0.27607,
				"method": "rhf"
			},
			{
				"type": "occ",
				"energy": -0.26196,
				"method": "rhf"
			},
			{
				"type": "occ",
				"energy": -0.21119,
				"method": "rhf"
			},
			{
				"type": "unocc",
				"energy": -0.03655,
				"method": "rhf"
			},
			{
				"type": "unocc",
				"energy": 0.02478,
				"method": "rhf"
			},
			{
				"type": "unocc",
				"energy": 0.03354,
				"method": "rhf"
			},
			{
				"type": "unocc",
				"energy": 0.04389,
				"method": "rhf"
			},
			{
				"type": "unocc",
				"energy": 0.0658,
				"method": "rhf"
			}
		],
		"cosmo_sigma_profile": { 
			"-0.025": 0.0,
			"-0.024": 0.0,
			"-0.023": 0.0,
			"-0.022": 0.0,
			"-0.021": 0.0,
			"-0.02": 0.0,
			"-0.019": 0.0,
			"-0.018": 0.0,
			"-0.017": 0.0,
			"-0.016": 0.0599919122003,
			"-0.015": 0.528890709076,
			"-0.014": 0.76262731676,
			"-0.013": 0.964368690162,
			"-0.012": 0.823791394367,
			"-0.011": 1.92541353775,
			"-0.01": 1.99439322533,
			"-0.009": 2.25613159041,
			"-0.008": 4.77705332954,
			"-0.007": 4.00179923031,
			"-0.006": 4.72160190745,
			"-0.005": 9.6232076404,
			"-0.004": 21.3247483988,
			"-0.003": 31.6309840787,
			"-0.002": 54.2424459591,
			"-0.001": 51.3321990083,
			"0.0": 44.8461111824,
			"0.001": 36.756175977,
			"0.002": 22.6539744044,
			"0.003": 15.0176939021,
			"0.004": 10.8296809256,
			"0.005": 9.3461946731,
			"0.006": 7.81297960194,
			"0.007": 5.41121717009,
			"0.008": 5.46798517922,
			"0.009": 6.48492740968,
			"0.01": 2.76331624218,
			"0.011": 3.10814758059,
			"0.012": 3.19412101586,
			"0.013": 2.9519237453,
			"0.014": 2.20842753761,
			"0.015": 0.805433543903,
			"0.016": 0.0276938205215,
			"0.017": 0.0,
			"0.018": 0.0,
			"0.019": 0.0,
			"0.02": 0.0,
			"0.021": 0.0,
			"0.022": 0.0,
			"0.023": 0.0,
			"0.024": 0.0,
			"0.025": 0.0
		}
	}
}
