{
	 "smiles": "COC1=NC(Cl)=NC(C)=C1", 
	 "Tm": 309.15, 
	 "num_atms": 17, 
	 "gaussian": { 
		 "optdone": 1, 
		 "sigma_profile": "yes", 
		 "theory": "DFT", 
		 "functional": "B3LYP", 
		 "basiset": "6-31G**", 
		 "properties": { 
			 "R2extent": 2251.012, 
			 "electric_dipole_moment_norm": 3.33344003846, 
			 "electric_quadrupole_moment_norm": 11.1102286372, 
			 "total_energy": -877.780026459, 
			 "HOMO_LUMO_gap": 0.22083, 
			 "cosmo_polarized_energy": -7.73, 
			 "cosmo_cavitation_energy": 23.23, 
			 "cosmo_dispersion_energy": -17.47, 
			 "cosmo_repulsion_energy": 1.45, 
			 "cosmo_total_nonelectrostatic_energy": 7.22, 
			 "SMD_solvation_energy": 2.55 
		},
		"coords": [
			{
				"x": -1.6628945442,
				"y": -1.1224313091,
				"z": -2.2529981189,
				"element": "C" 
			},
			{
				"x": -1.5052256814,
				"y": -0.6118421917,
				"z": -0.9197234341,
				"element": "O" 
			},
			{
				"x": -0.3318861714,
				"y": -0.0490133619,
				"z": -0.6066275396,
				"element": "C" 
			},
			{
				"x": 0.6325967611,
				"y": 0.0169761207,
				"z": -1.5274547376,
				"element": "N" 
			},
			{
				"x": 1.7581587383,
				"y": 0.5925833019,
				"z": -1.1205619942,
				"element": "C" 
			},
			{
				"x": 3.0322190251,
				"y": 0.6829707258,
				"z": -2.3287249983,
				"element": "Cl" 
			},
			{
				"x": 2.0475685244,
				"y": 1.1033235943,
				"z": 0.0614694567,
				"element": "N" 
			},
			{
				"x": 1.0622938642,
				"y": 1.0309489121,
				"z": 0.9873543649,
				"element": "C" 
			},
			{
				"x": 1.3658749465,
				"y": 1.6063896856,
				"z": 2.3454572106,
				"element": "C" 
			},
			{
				"x": -0.1663703297,
				"y": 0.4529694097,
				"z": 0.6929953991,
				"element": "C" 
			},
			{
				"x": -1.5447408493,
				"y": -0.3260933891,
				"z": -2.99213078,
				"element": "H" 
			},
			{
				"x": -2.6743263025,
				"y": -1.5273253279,
				"z": -2.2848100637,
				"element": "H" 
			},
			{
				"x": -0.9291924101,
				"y": -1.9055413673,
				"z": -2.4600190308,
				"element": "H" 
			},
			{
				"x": 0.6631905575,
				"y": 2.4087552161,
				"z": 2.5949879314,
				"element": "H" 
			},
			{
				"x": 1.274210245,
				"y": 0.8402983632,
				"z": 3.1229682518,
				"element": "H" 
			},
			{
				"x": 2.3804006824,
				"y": 2.0059530152,
				"z": 2.3583395616,
				"element": "H" 
			},
			{
				"x": -0.9685770559,
				"y": 0.3841786023,
				"z": 1.4175785212,
				"element": "H" 
			}
		],
		 "valence_orbital": [ 
			{
				"type": "occ",
				"energy": -0.31964,
				"method": "rhf"
			},
			{
				"type": "occ",
				"energy": -0.31234,
				"method": "rhf"
			},
			{
				"type": "occ",
				"energy": -0.29411,
				"method": "rhf"
			},
			{
				"type": "occ",
				"energy": -0.26745,
				"method": "rhf"
			},
			{
				"type": "occ",
				"energy": -0.25736,
				"method": "rhf"
			},
			{
				"type": "unocc",
				"energy": -0.03653,
				"method": "rhf"
			},
			{
				"type": "unocc",
				"energy": -0.02303,
				"method": "rhf"
			},
			{
				"type": "unocc",
				"energy": 0.04224,
				"method": "rhf"
			},
			{
				"type": "unocc",
				"energy": 0.10742,
				"method": "rhf"
			},
			{
				"type": "unocc",
				"energy": 0.11027,
				"method": "rhf"
			}
		],
		"cosmo_sigma_profile": { 
			"-0.025": 0.0,
			"-0.024": 0.0,
			"-0.023": 0.0,
			"-0.022": 0.0,
			"-0.021": 0.0,
			"-0.02": 0.0,
			"-0.019": 0.0,
			"-0.018": 0.0,
			"-0.017": 0.0,
			"-0.016": 0.0,
			"-0.015": 0.0,
			"-0.014": 0.0,
			"-0.013": 0.0,
			"-0.012": 0.0,
			"-0.011": 0.0,
			"-0.01": 0.0,
			"-0.009": 0.0286702241942,
			"-0.008": 1.44017948656,
			"-0.007": 2.46620186283,
			"-0.006": 8.70434430757,
			"-0.005": 14.3306925331,
			"-0.004": 17.0187588726,
			"-0.003": 18.5644128382,
			"-0.002": 19.2229496152,
			"-0.001": 19.2291719266,
			"0.0": 15.3481552445,
			"0.001": 9.7247777643,
			"0.002": 8.60825783709,
			"0.003": 9.33362611181,
			"0.004": 13.0194502178,
			"0.005": 8.54574514868,
			"0.006": 5.40741517437,
			"0.007": 4.52628692211,
			"0.008": 4.01108599606,
			"0.009": 2.69918656415,
			"0.01": 1.7566406455,
			"0.011": 1.75931137773,
			"0.012": 0.758907037508,
			"0.013": 0.788800423361,
			"0.014": 0.474000138438,
			"0.015": 0.039040565649,
			"0.016": 0.0,
			"0.017": 0.0,
			"0.018": 0.0,
			"0.019": 0.0,
			"0.02": 0.0,
			"0.021": 0.0,
			"0.022": 0.0,
			"0.023": 0.0,
			"0.024": 0.0,
			"0.025": 0.0
		}
	}
}
