{
	 "smiles": "BrCBr", 
	 "Tm": 220.65, 
	 "num_atms": 5, 
	 "gaussian": { 
		 "optdone": 1, 
		 "sigma_profile": "yes", 
		 "theory": "DFT", 
		 "functional": "B3LYP", 
		 "basiset": "6-31G**", 
		 "properties": { 
			 "R2extent": 2161.584, 
			 "electric_dipole_moment_norm": 1.56409866057, 
			 "electric_quadrupole_moment_norm": 3.63624875249, 
			 "total_energy": -5182.11244511, 
			 "HOMO_LUMO_gap": 0.24295, 
			 "cosmo_polarized_energy": -4.35, 
			 "cosmo_cavitation_energy": 13.14, 
			 "cosmo_dispersion_energy": -10.96, 
			 "cosmo_repulsion_energy": 1.02, 
			 "cosmo_total_nonelectrostatic_energy": 3.2, 
			 "SMD_solvation_energy": 0.27 
		},
		"coords": [
			{
				"x": -0.0288456722,
				"y": -2.3851295495,
				"z": -2.1030754888,
				"element": "Br" 
			},
			{
				"x": 0.8673444226,
				"y": -0.7587948087,
				"z": -1.5044782391,
				"element": "C" 
			},
			{
				"x": 2.1119687269,
				"y": -1.0347294917,
				"z": -0.0276647541,
				"element": "Br" 
			},
			{
				"x": 0.1030342903,
				"y": -0.0674244647,
				"z": -1.1659522311,
				"element": "H" 
			},
			{
				"x": 1.4331982324,
				"y": -0.3671216854,
				"z": -2.3430292869,
				"element": "H" 
			}
		],
		 "valence_orbital": [ 
			{
				"type": "occ",
				"energy": -0.41276,
				"method": "rhf"
			},
			{
				"type": "occ",
				"energy": -0.30314,
				"method": "rhf"
			},
			{
				"type": "occ",
				"energy": -0.29775,
				"method": "rhf"
			},
			{
				"type": "occ",
				"energy": -0.28665,
				"method": "rhf"
			},
			{
				"type": "occ",
				"energy": -0.28341,
				"method": "rhf"
			},
			{
				"type": "unocc",
				"energy": -0.04046,
				"method": "rhf"
			},
			{
				"type": "unocc",
				"energy": 0.00895,
				"method": "rhf"
			},
			{
				"type": "unocc",
				"energy": 0.09837,
				"method": "rhf"
			},
			{
				"type": "unocc",
				"energy": 0.12228,
				"method": "rhf"
			},
			{
				"type": "unocc",
				"energy": 0.36382,
				"method": "rhf"
			}
		],
		"cosmo_sigma_profile": { 
			"-0.025": 0.0,
			"-0.024": 0.0,
			"-0.023": 0.0,
			"-0.022": 0.0,
			"-0.021": 0.0,
			"-0.02": 0.0,
			"-0.019": 0.0,
			"-0.018": 0.0,
			"-0.017": 0.0,
			"-0.016": 0.0,
			"-0.015": 0.0,
			"-0.014": 0.0,
			"-0.013": 0.0,
			"-0.012": 0.0,
			"-0.011": 0.18675660102,
			"-0.01": 4.17580885706,
			"-0.009": 3.55985291092,
			"-0.008": 3.94959520668,
			"-0.007": 3.62525366819,
			"-0.006": 4.00473851407,
			"-0.005": 2.63466100094,
			"-0.004": 4.90539956243,
			"-0.003": 5.27669545522,
			"-0.002": 5.64213294285,
			"-0.001": 5.46351146453,
			"0.0": 5.3923150601,
			"0.001": 7.31705576775,
			"0.002": 8.05347476485,
			"0.003": 10.6128450581,
			"0.004": 19.1679348872,
			"0.005": 17.3226335007,
			"0.006": 0.232144963417,
			"0.007": 0.0,
			"0.008": 0.0,
			"0.009": 0.0,
			"0.01": 0.0,
			"0.011": 0.0,
			"0.012": 0.0,
			"0.013": 0.0,
			"0.014": 0.0,
			"0.015": 0.0,
			"0.016": 0.0,
			"0.017": 0.0,
			"0.018": 0.0,
			"0.019": 0.0,
			"0.02": 0.0,
			"0.021": 0.0,
			"0.022": 0.0,
			"0.023": 0.0,
			"0.024": 0.0,
			"0.025": 0.0
		}
	}
}
