{
	 "smiles": "CCCCCCCCCCCCCCCC(=O)OC1CCC2(C)C3CCC4(C)C(CCC4C3CC=C2C1)C(C)CCCC(C)C", 
	 "Tm": 349.15, 
	 "num_atms": 121, 
	 "gaussian": { 
		 "optdone": 1, 
		 "sigma_profile": "yes", 
		 "theory": "DFT", 
		 "functional": "B3LYP", 
		 "basiset": "6-31G**", 
		 "properties": { 
			 "R2extent": 93302.0594, 
			 "electric_dipole_moment_norm": 2.12713974623, 
			 "electric_quadrupole_moment_norm": 13.6120701052, 
			 "total_energy": -1834.91435815, 
			 "HOMO_LUMO_gap": 0.24493, 
			 "cosmo_polarized_energy": -8.07, 
			 "cosmo_cavitation_energy": 106.23, 
			 "cosmo_dispersion_energy": -70.65, 
			 "cosmo_repulsion_energy": 5.37, 
			 "cosmo_total_nonelectrostatic_energy": 40.96, 
			 "SMD_solvation_energy": 14.59 
		},
		"coords": [
			{
				"x": 8.0750225569,
				"y": -9.2794416241,
				"z": -9.8389968873,
				"element": "C" 
			},
			{
				"x": 6.7376697415,
				"y": -9.9998635726,
				"z": -9.6398179289,
				"element": "C" 
			},
			{
				"x": 5.7473940033,
				"y": -9.211463857,
				"z": -8.7731476509,
				"element": "C" 
			},
			{
				"x": 4.4055937186,
				"y": -9.9257429325,
				"z": -8.5683728608,
				"element": "C" 
			},
			{
				"x": 3.4145588445,
				"y": -9.1365829373,
				"z": -7.7028051999,
				"element": "C" 
			},
			{
				"x": 2.0748062325,
				"y": -9.8596214038,
				"z": -7.5038639017,
				"element": "C" 
			},
			{
				"x": 1.0258771706,
				"y": -9.0685991751,
				"z": -6.7046212711,
				"element": "C" 
			},
			{
				"x": 1.3850043016,
				"y": -8.8270749048,
				"z": -5.2315769985,
				"element": "C" 
			},
			{
				"x": 0.2811788716,
				"y": -8.1019218531,
				"z": -4.4499348517,
				"element": "C" 
			},
			{
				"x": 0.6409733962,
				"y": -7.8590999909,
				"z": -2.9775924319,
				"element": "C" 
			},
			{
				"x": -0.4795367837,
				"y": -7.219437666,
				"z": -2.1383693252,
				"element": "C" 
			},
			{
				"x": -0.9191786148,
				"y": -5.8063719271,
				"z": -2.5612901399,
				"element": "C" 
			},
			{
				"x": 0.1740362615,
				"y": -4.7353272859,
				"z": -2.4426140052,
				"element": "C" 
			},
			{
				"x": -0.3321720785,
				"y": -3.3268596241,
				"z": -2.7778323168,
				"element": "C" 
			},
			{
				"x": 0.7703519714,
				"y": -2.255920634,
				"z": -2.6642558913,
				"element": "C" 
			},
			{
				"x": 0.2697832934,
				"y": -0.868399552,
				"z": -3.0121953418,
				"element": "C" 
			},
			{
				"x": 0.5690360548,
				"y": -0.2483888037,
				"z": -4.0113905154,
				"element": "O" 
			},
			{
				"x": -0.5885537206,
				"y": -0.4130272461,
				"z": -2.0683179161,
				"element": "O" 
			},
			{
				"x": -1.1974124222,
				"y": 0.896402417,
				"z": -2.2940350411,
				"element": "C" 
			},
			{
				"x": -0.2689332252,
				"y": 1.994912058,
				"z": -1.7841661799,
				"element": "C" 
			},
			{
				"x": -0.0141683259,
				"y": 1.8680824179,
				"z": -0.2756635759,
				"element": "C" 
			},
			{
				"x": -1.3233792688,
				"y": 1.7585607841,
				"z": 0.5985452873,
				"element": "C" 
			},
			{
				"x": -1.3074393259,
				"y": 0.3964078328,
				"z": 1.3363754734,
				"element": "C" 
			},
			{
				"x": -1.3826375002,
				"y": 2.962415603,
				"z": 1.5865020205,
				"element": "C" 
			},
			{
				"x": -0.325308666,
				"y": 2.9814851695,
				"z": 2.7011248808,
				"element": "C" 
			},
			{
				"x": -0.2487526938,
				"y": 4.3637663714,
				"z": 3.4037304713,
				"element": "C" 
			},
			{
				"x": -1.6369738359,
				"y": 5.0604428933,
				"z": 3.5748281358,
				"element": "C" 
			},
			{
				"x": -1.7802757935,
				"y": 6.1462274639,
				"z": 2.4765832433,
				"element": "C" 
			},
			{
				"x": -1.9785762678,
				"y": 5.7922037034,
				"z": 4.9417016606,
				"element": "C" 
			},
			{
				"x": -3.5225480829,
				"y": 5.5674105903,
				"z": 5.1275334789,
				"element": "C" 
			},
			{
				"x": -4.0240746674,
				"y": 4.7075530499,
				"z": 3.9458997055,
				"element": "C" 
			},
			{
				"x": -2.7551330103,
				"y": 3.9806964405,
				"z": 3.4895383177,
				"element": "C" 
			},
			{
				"x": -2.7954258027,
				"y": 3.1247288396,
				"z": 2.1989345408,
				"element": "C" 
			},
			{
				"x": -3.7612664794,
				"y": 3.5469563562,
				"z": 1.0854092811,
				"element": "C" 
			},
			{
				"x": -3.58506919,
				"y": 2.6526793616,
				"z": -0.1166660915,
				"element": "C" 
			},
			{
				"x": -2.5491155168,
				"y": 1.8252794993,
				"z": -0.3246072129,
				"element": "C" 
			},
			{
				"x": -2.5419225563,
				"y": 0.908836567,
				"z": -1.5341601091,
				"element": "C" 
			},
			{
				"x": -1.2114924724,
				"y": 5.4910441619,
				"z": 6.2676136528,
				"element": "C" 
			},
			{
				"x": -1.1715626268,
				"y": 4.0130346129,
				"z": 6.6988332711,
				"element": "C" 
			},
			{
				"x": 0.1781735034,
				"y": 6.1710089617,
				"z": 6.3118836311,
				"element": "C" 
			},
			{
				"x": 0.9102237832,
				"y": 6.1462930298,
				"z": 7.6680292442,
				"element": "C" 
			},
			{
				"x": 0.1793157768,
				"y": 6.8713864071,
				"z": 8.8073989605,
				"element": "C" 
			},
			{
				"x": 0.9247645429,
				"y": 6.8844181527,
				"z": 10.1582930077,
				"element": "C" 
			},
			{
				"x": 2.238434554,
				"y": 7.6795869047,
				"z": 10.1022101407,
				"element": "C" 
			},
			{
				"x": 0.0153012542,
				"y": 7.432185907,
				"z": 11.2687315916,
				"element": "C" 
			},
			{
				"x": 8.5729454097,
				"y": -9.0958003669,
				"z": -8.8799203514,
				"element": "H" 
			},
			{
				"x": 8.7587389769,
				"y": -9.8666920187,
				"z": -10.4609127021,
				"element": "H" 
			},
			{
				"x": 7.9331356225,
				"y": -8.308248018,
				"z": -10.3269356578,
				"element": "H" 
			},
			{
				"x": 6.2807754331,
				"y": -10.2009036929,
				"z": -10.6185006002,
				"element": "H" 
			},
			{
				"x": 6.9157137732,
				"y": -10.9825838395,
				"z": -9.1819966244,
				"element": "H" 
			},
			{
				"x": 6.2051596024,
				"y": -9.0095385068,
				"z": -7.7939124905,
				"element": "H" 
			},
			{
				"x": 5.5694990408,
				"y": -8.2277529766,
				"z": -9.2311945813,
				"element": "H" 
			},
			{
				"x": 3.9494888007,
				"y": -10.1290164258,
				"z": -9.5480007528,
				"element": "H" 
			},
			{
				"x": 4.5846325051,
				"y": -10.9088414609,
				"z": -8.1095208384,
				"element": "H" 
			},
			{
				"x": 3.8778344343,
				"y": -8.9299716402,
				"z": -6.7289739514,
				"element": "H" 
			},
			{
				"x": 3.2298356148,
				"y": -8.1559766715,
				"z": -8.1652469051,
				"element": "H" 
			},
			{
				"x": 2.2539848307,
				"y": -10.8253096223,
				"z": -7.0092850529,
				"element": "H" 
			},
			{
				"x": 1.656232345,
				"y": -10.1001559527,
				"z": -8.4907037576,
				"element": "H" 
			},
			{
				"x": 0.0699765949,
				"y": -9.6083472797,
				"z": -6.7485247898,
				"element": "H" 
			},
			{
				"x": 0.8488832086,
				"y": -8.101828654,
				"z": -7.1978117336,
				"element": "H" 
			},
			{
				"x": 1.5969872531,
				"y": -9.792275574,
				"z": -4.7487909589,
				"element": "H" 
			},
			{
				"x": 2.3127017169,
				"y": -8.2437202642,
				"z": -5.1625685452,
				"element": "H" 
			},
			{
				"x": -0.6474146674,
				"y": -8.6888358824,
				"z": -4.5034554421,
				"element": "H" 
			},
			{
				"x": 0.0632325339,
				"y": -7.146393177,
				"z": -4.9457890158,
				"element": "H" 
			},
			{
				"x": 0.9078429651,
				"y": -8.8201691236,
				"z": -2.517258737,
				"element": "H" 
			},
			{
				"x": 1.5487799377,
				"y": -7.2431790954,
				"z": -2.9229740177,
				"element": "H" 
			},
			{
				"x": -1.3571534814,
				"y": -7.8797277761,
				"z": -2.1635848022,
				"element": "H" 
			},
			{
				"x": -0.1570101281,
				"y": -7.1866115683,
				"z": -1.0885898904,
				"element": "H" 
			},
			{
				"x": -1.7720507532,
				"y": -5.509369246,
				"z": -1.9359488726,
				"element": "H" 
			},
			{
				"x": -1.2979311236,
				"y": -5.8240976175,
				"z": -3.5918038634,
				"element": "H" 
			},
			{
				"x": 1.0146444681,
				"y": -4.980828364,
				"z": -3.1047800455,
				"element": "H" 
			},
			{
				"x": 0.5792791876,
				"y": -4.7415088126,
				"z": -1.4203238326,
				"element": "H" 
			},
			{
				"x": -1.1588655074,
				"y": -3.059934743,
				"z": -2.109050924,
				"element": "H" 
			},
			{
				"x": -0.7383818038,
				"y": -3.3164169293,
				"z": -3.7978813367,
				"element": "H" 
			},
			{
				"x": 1.1601961761,
				"y": -2.2423183158,
				"z": -1.6395041739,
				"element": "H" 
			},
			{
				"x": 1.5966169792,
				"y": -2.4804094339,
				"z": -3.3438835611,
				"element": "H" 
			},
			{
				"x": -1.3446967902,
				"y": 0.9945856389,
				"z": -3.3716076528,
				"element": "H" 
			},
			{
				"x": 0.6728359298,
				"y": 1.9713457307,
				"z": -2.3407744355,
				"element": "H" 
			},
			{
				"x": -0.7494145362,
				"y": 2.9563851249,
				"z": -2.0064799991,
				"element": "H" 
			},
			{
				"x": 0.6135889918,
				"y": 0.9879309704,
				"z": -0.1027988623,
				"element": "H" 
			},
			{
				"x": 0.5761515368,
				"y": 2.7311317039,
				"z": 0.0494596564,
				"element": "H" 
			},
			{
				"x": -2.1970783512,
				"y": 0.2546410371,
				"z": 1.9576726432,
				"element": "H" 
			},
			{
				"x": -1.263813092,
				"y": -0.427950198,
				"z": 0.6189473976,
				"element": "H" 
			},
			{
				"x": -0.4253593383,
				"y": 0.3134408172,
				"z": 1.9798304078,
				"element": "H" 
			},
			{
				"x": -1.198050226,
				"y": 3.8443087947,
				"z": 0.9568110389,
				"element": "H" 
			},
			{
				"x": 0.6677911683,
				"y": 2.7295942696,
				"z": 2.3113287386,
				"element": "H" 
			},
			{
				"x": -0.563835994,
				"y": 2.2052845017,
				"z": 3.4395454339,
				"element": "H" 
			},
			{
				"x": 0.248930584,
				"y": 4.2230124023,
				"z": 4.3627742442,
				"element": "H" 
			},
			{
				"x": 0.410062951,
				"y": 5.0196945633,
				"z": 2.8211245863,
				"element": "H" 
			},
			{
				"x": -2.7457610528,
				"y": 6.6597845428,
				"z": 2.5236016862,
				"element": "H" 
			},
			{
				"x": -1.0033990329,
				"y": 6.9072746091,
				"z": 2.6140213955,
				"element": "H" 
			},
			{
				"x": -1.6657138311,
				"y": 5.7458955634,
				"z": 1.4666368342,
				"element": "H" 
			},
			{
				"x": -1.8108987434,
				"y": 6.8632096229,
				"z": 4.7766861892,
				"element": "H" 
			},
			{
				"x": -3.7086211045,
				"y": 5.0390093812,
				"z": 6.0689433468,
				"element": "H" 
			},
			{
				"x": -4.058952454,
				"y": 6.5188317585,
				"z": 5.2026994996,
				"element": "H" 
			},
			{
				"x": -4.8233401597,
				"y": 4.0192426168,
				"z": 4.2425074034,
				"element": "H" 
			},
			{
				"x": -4.4290790776,
				"y": 5.333751266,
				"z": 3.1438755183,
				"element": "H" 
			},
			{
				"x": -2.5132424461,
				"y": 3.2749351011,
				"z": 4.2964526335,
				"element": "H" 
			},
			{
				"x": -3.1295397743,
				"y": 2.1257818623,
				"z": 2.5125892035,
				"element": "H" 
			},
			{
				"x": -3.6078136423,
				"y": 4.5975324077,
				"z": 0.7974270653,
				"element": "H" 
			},
			{
				"x": -4.8021627338,
				"y": 3.4863666917,
				"z": 1.4304079077,
				"element": "H" 
			},
			{
				"x": -4.3884568893,
				"y": 2.67027673,
				"z": -0.8539667078,
				"element": "H" 
			},
			{
				"x": -3.3466956255,
				"y": 1.2067354172,
				"z": -2.2139738236,
				"element": "H" 
			},
			{
				"x": -2.7611030592,
				"y": -0.1235358749,
				"z": -1.2343312902,
				"element": "H" 
			},
			{
				"x": -1.820243564,
				"y": 6.0058517674,
				"z": 7.0257769363,
				"element": "H" 
			},
			{
				"x": -0.4972905746,
				"y": 3.4087486251,
				"z": 6.0849766505,
				"element": "H" 
			},
			{
				"x": -2.1636893698,
				"y": 3.5535156388,
				"z": 6.6479611213,
				"element": "H" 
			},
			{
				"x": -0.8330489893,
				"y": 3.9210549153,
				"z": 7.7357171683,
				"element": "H" 
			},
			{
				"x": 0.0503640784,
				"y": 7.2199142189,
				"z": 6.008531249,
				"element": "H" 
			},
			{
				"x": 0.8406824298,
				"y": 5.724960246,
				"z": 5.561860959,
				"element": "H" 
			},
			{
				"x": 1.8948618915,
				"y": 6.6053341539,
				"z": 7.517458979,
				"element": "H" 
			},
			{
				"x": 1.1101610082,
				"y": 5.1091386767,
				"z": 7.9691873988,
				"element": "H" 
			},
			{
				"x": -0.026913373,
				"y": 7.9094698943,
				"z": 8.5046333682,
				"element": "H" 
			},
			{
				"x": -0.8013560567,
				"y": 6.4039905035,
				"z": 8.9655786241,
				"element": "H" 
			},
			{
				"x": 1.1718522979,
				"y": 5.841863481,
				"z": 10.4113328552,
				"element": "H" 
			},
			{
				"x": 2.0481255845,
				"y": 8.7258094802,
				"z": 9.8314905036,
				"element": "H" 
			},
			{
				"x": 2.9411502684,
				"y": 7.2688755607,
				"z": 9.371017346,
				"element": "H" 
			},
			{
				"x": 2.7394144323,
				"y": 7.676503785,
				"z": 11.0764896029,
				"element": "H" 
			},
			{
				"x": 0.5185253818,
				"y": 7.4141094504,
				"z": 12.2416800668,
				"element": "H" 
			},
			{
				"x": -0.2699560173,
				"y": 8.4714578304,
				"z": 11.0633061017,
				"element": "H" 
			},
			{
				"x": -0.9065734863,
				"y": 6.8467072027,
				"z": 11.3569134667,
				"element": "H" 
			}
		],
		 "valence_orbital": [ 
			{
				"type": "occ",
				"energy": -0.27783,
				"method": "rhf"
			},
			{
				"type": "occ",
				"energy": -0.27413,
				"method": "rhf"
			},
			{
				"type": "occ",
				"energy": -0.26213,
				"method": "rhf"
			},
			{
				"type": "occ",
				"energy": -0.25939,
				"method": "rhf"
			},
			{
				"type": "occ",
				"energy": -0.22846,
				"method": "rhf"
			},
			{
				"type": "unocc",
				"energy": 0.01647,
				"method": "rhf"
			},
			{
				"type": "unocc",
				"energy": 0.02757,
				"method": "rhf"
			},
			{
				"type": "unocc",
				"energy": 0.06718,
				"method": "rhf"
			},
			{
				"type": "unocc",
				"energy": 0.07818,
				"method": "rhf"
			},
			{
				"type": "unocc",
				"energy": 0.08304,
				"method": "rhf"
			}
		],
		"cosmo_sigma_profile": { 
			"-0.025": 0.0,
			"-0.024": 0.0,
			"-0.023": 0.0,
			"-0.022": 0.0,
			"-0.021": 0.0,
			"-0.02": 0.0,
			"-0.019": 0.0,
			"-0.018": 0.0,
			"-0.017": 0.0,
			"-0.016": 0.0,
			"-0.015": 0.0,
			"-0.014": 0.0,
			"-0.013": 0.0,
			"-0.012": 0.0,
			"-0.011": 0.0,
			"-0.01": 0.0,
			"-0.009": 0.0,
			"-0.008": 0.0,
			"-0.007": 0.0,
			"-0.006": 0.00192891485705,
			"-0.005": 2.28349191133,
			"-0.004": 11.5959641755,
			"-0.003": 29.9978226644,
			"-0.002": 114.137377759,
			"-0.001": 196.565398316,
			"0.0": 191.065171757,
			"0.001": 141.935815841,
			"0.002": 78.6420243024,
			"0.003": 13.9220216518,
			"0.004": 7.29143769801,
			"0.005": 5.29590893451,
			"0.006": 3.01896538308,
			"0.007": 2.04058929721,
			"0.008": 1.47783919231,
			"0.009": 1.1392532864,
			"0.01": 1.63960922562,
			"0.011": 2.37506533325,
			"0.012": 3.91542142658,
			"0.013": 2.48651954746,
			"0.014": 0.294887637572,
			"0.015": 0.0,
			"0.016": 0.0,
			"0.017": 0.0,
			"0.018": 0.0,
			"0.019": 0.0,
			"0.02": 0.0,
			"0.021": 0.0,
			"0.022": 0.0,
			"0.023": 0.0,
			"0.024": 0.0,
			"0.025": 0.0
		}
	}
}
