{
	 "smiles": "COC1=CC=C(NS(=O)(=O)C2=C(C=CC(N)=C2)N2CCCCC2)C=C1", 
	 "Tm": 423.15, 
	 "num_atms": 48, 
	 "gaussian": { 
		 "optdone": 1, 
		 "sigma_profile": "yes", 
		 "theory": "DFT", 
		 "functional": "B3LYP", 
		 "basiset": "6-31G**", 
		 "properties": { 
			 "R2extent": 9546.8827, 
			 "electric_dipole_moment_norm": 7.54668217033, 
			 "electric_quadrupole_moment_norm": 28.9657474882, 
			 "total_energy": -1487.79764459, 
			 "HOMO_LUMO_gap": 0.15738, 
			 "cosmo_polarized_energy": -23.71, 
			 "cosmo_cavitation_energy": 49.19, 
			 "cosmo_dispersion_energy": -32.93, 
			 "cosmo_repulsion_energy": 2.45, 
			 "cosmo_total_nonelectrostatic_energy": 18.71, 
			 "SMD_solvation_energy": 7.48 
		},
		"coords": [
			{
				"x": -0.547981435,
				"y": -3.988618169,
				"z": 2.6427457337,
				"element": "C" 
			},
			{
				"x": -1.0689206967,
				"y": -3.7859283987,
				"z": 1.3395919296,
				"element": "O" 
			},
			{
				"x": -0.3557511826,
				"y": -3.0095716658,
				"z": 0.4726155169,
				"element": "C" 
			},
			{
				"x": -0.9142115936,
				"y": -2.8542552018,
				"z": -0.8068606973,
				"element": "C" 
			},
			{
				"x": -0.2625695611,
				"y": -2.1023536156,
				"z": -1.7733737392,
				"element": "C" 
			},
			{
				"x": 0.9533818246,
				"y": -1.4682384528,
				"z": -1.4740004286,
				"element": "C" 
			},
			{
				"x": 1.6542088497,
				"y": -0.7667783395,
				"z": -2.4977836471,
				"element": "N" 
			},
			{
				"x": 1.1676817029,
				"y": 0.7373454584,
				"z": -3.1300603059,
				"element": "S" 
			},
			{
				"x": -0.2555097405,
				"y": 0.6381182575,
				"z": -3.4421155536,
				"element": "O" 
			},
			{
				"x": 2.1539230241,
				"y": 0.9934795505,
				"z": -4.1844198643,
				"element": "O" 
			},
			{
				"x": 1.4885446185,
				"y": 1.9527433677,
				"z": -1.8191441706,
				"element": "C" 
			},
			{
				"x": 0.6167483436,
				"y": 2.2080291129,
				"z": -0.7321924256,
				"element": "C" 
			},
			{
				"x": 1.1368159019,
				"y": 3.0309564441,
				"z": 0.2844536,
				"element": "C" 
			},
			{
				"x": 2.4083679558,
				"y": 3.5886606964,
				"z": 0.2280331376,
				"element": "C" 
			},
			{
				"x": 3.2374983109,
				"y": 3.372828375,
				"z": -0.8827122353,
				"element": "C" 
			},
			{
				"x": 4.4758266839,
				"y": 4.0046318927,
				"z": -0.9988753862,
				"element": "N" 
			},
			{
				"x": 2.7559513482,
				"y": 2.538409627,
				"z": -1.899732921,
				"element": "C" 
			},
			{
				"x": -0.7068693879,
				"y": 1.6955956324,
				"z": -0.6873902247,
				"element": "N" 
			},
			{
				"x": -1.6843627259,
				"y": 2.431171189,
				"z": -1.5151878255,
				"element": "C" 
			},
			{
				"x": -2.879227223,
				"y": 1.5271684226,
				"z": -1.8826307249,
				"element": "C" 
			},
			{
				"x": -3.0924105624,
				"y": 0.4275599565,
				"z": -0.8247928598,
				"element": "C" 
			},
			{
				"x": -2.7277035694,
				"y": 0.9560603117,
				"z": 0.5647403764,
				"element": "C" 
			},
			{
				"x": -1.23901675,
				"y": 1.3715548218,
				"z": 0.6436107256,
				"element": "C" 
			},
			{
				"x": 1.4998813943,
				"y": -1.6122769918,
				"z": -0.1974967097,
				"element": "C" 
			},
			{
				"x": 0.8615862105,
				"y": -2.3891618325,
				"z": 0.7745480126,
				"element": "C" 
			},
			{
				"x": -0.4520882088,
				"y": -3.0434369407,
				"z": 3.19317942,
				"element": "H" 
			},
			{
				"x": -1.2635960915,
				"y": -4.6314058218,
				"z": 3.1576555188,
				"element": "H" 
			},
			{
				"x": 0.4297901732,
				"y": -4.4872302202,
				"z": 2.6159341073,
				"element": "H" 
			},
			{
				"x": -1.8531939327,
				"y": -3.3525308177,
				"z": -1.024125246,
				"element": "H" 
			},
			{
				"x": -0.6790813192,
				"y": -1.9964924834,
				"z": -2.7682900177,
				"element": "H" 
			},
			{
				"x": 2.6645470767,
				"y": -0.7648621331,
				"z": -2.3995917334,
				"element": "H" 
			},
			{
				"x": 0.5171761762,
				"y": 3.2585783769,
				"z": 1.14387922,
				"element": "H" 
			},
			{
				"x": 2.7511257194,
				"y": 4.2246583656,
				"z": 1.0409303582,
				"element": "H" 
			},
			{
				"x": 5.1283860683,
				"y": 3.5681871973,
				"z": -1.6350469979,
				"element": "H" 
			},
			{
				"x": 4.9121372956,
				"y": 4.2693377095,
				"z": -0.1269120733,
				"element": "H" 
			},
			{
				"x": 3.3662919558,
				"y": 2.3361599307,
				"z": -2.773422351,
				"element": "H" 
			},
			{
				"x": -2.0281292566,
				"y": 3.3321713302,
				"z": -0.9737815724,
				"element": "H" 
			},
			{
				"x": -1.1814912697,
				"y": 2.7738977566,
				"z": -2.4191671505,
				"element": "H" 
			},
			{
				"x": -3.7769095241,
				"y": 2.1524063446,
				"z": -1.9679613559,
				"element": "H" 
			},
			{
				"x": -2.7012011925,
				"y": 1.0709275666,
				"z": -2.8590435502,
				"element": "H" 
			},
			{
				"x": -2.4578211463,
				"y": -0.4318557545,
				"z": -1.058144754,
				"element": "H" 
			},
			{
				"x": -4.1302822926,
				"y": 0.0757309015,
				"z": -0.8399618982,
				"element": "H" 
			},
			{
				"x": -2.9299220805,
				"y": 0.2091525176,
				"z": 1.3401404079,
				"element": "H" 
			},
			{
				"x": -3.3638038795,
				"y": 1.8201348575,
				"z": 0.796356802,
				"element": "H" 
			},
			{
				"x": -1.163233875,
				"y": 2.2152780827,
				"z": 1.3516841419,
				"element": "H" 
			},
			{
				"x": -0.6314916129,
				"y": 0.5543236441,
				"z": 1.048425496,
				"element": "H" 
			},
			{
				"x": 2.4392869513,
				"y": -1.1219713575,
				"z": 0.0442574908,
				"element": "H" 
			},
			{
				"x": 1.3186225248,
				"y": -2.4957895012,
				"z": 1.7510364246,
				"element": "H" 
			}
		],
		 "valence_orbital": [ 
			{
				"type": "occ",
				"energy": -0.25928,
				"method": "rhf"
			},
			{
				"type": "occ",
				"energy": -0.254,
				"method": "rhf"
			},
			{
				"type": "occ",
				"energy": -0.22956,
				"method": "rhf"
			},
			{
				"type": "occ",
				"energy": -0.21319,
				"method": "rhf"
			},
			{
				"type": "occ",
				"energy": -0.18874,
				"method": "rhf"
			},
			{
				"type": "unocc",
				"energy": -0.03136,
				"method": "rhf"
			},
			{
				"type": "unocc",
				"energy": -0.00755,
				"method": "rhf"
			},
			{
				"type": "unocc",
				"energy": 0.00062,
				"method": "rhf"
			},
			{
				"type": "unocc",
				"energy": 0.00763,
				"method": "rhf"
			},
			{
				"type": "unocc",
				"energy": 0.06872,
				"method": "rhf"
			}
		],
		"cosmo_sigma_profile": { 
			"-0.025": 0.0,
			"-0.024": 0.0,
			"-0.023": 0.0,
			"-0.022": 0.0,
			"-0.021": 0.0,
			"-0.02": 0.0,
			"-0.019": 0.0,
			"-0.018": 0.0,
			"-0.017": 0.0,
			"-0.016": 0.0,
			"-0.015": 0.685595987239,
			"-0.014": 0.595503568302,
			"-0.013": 2.06807348721,
			"-0.012": 4.34251561798,
			"-0.011": 3.51771064683,
			"-0.01": 4.9345902532,
			"-0.009": 5.13860773487,
			"-0.008": 4.12732486136,
			"-0.007": 6.84805372357,
			"-0.006": 16.6295875271,
			"-0.005": 22.5548480686,
			"-0.004": 20.2111692633,
			"-0.003": 24.9406563324,
			"-0.002": 33.6319037578,
			"-0.001": 35.2247401234,
			"0.0": 33.6524786287,
			"0.001": 32.2423882081,
			"0.002": 26.5029389936,
			"0.003": 20.9913699237,
			"0.004": 24.0547545348,
			"0.005": 13.0597295091,
			"0.006": 7.08434569023,
			"0.007": 7.61904645143,
			"0.008": 7.43586051289,
			"0.009": 6.66005459372,
			"0.01": 7.3355769911,
			"0.011": 7.82543227816,
			"0.012": 5.71551491372,
			"0.013": 1.17820528171,
			"0.014": 0.681697305918,
			"0.015": 0.0432424140151,
			"0.016": 0.0,
			"0.017": 0.0,
			"0.018": 0.0,
			"0.019": 0.0,
			"0.02": 0.0,
			"0.021": 0.0,
			"0.022": 0.0,
			"0.023": 0.0,
			"0.024": 0.0,
			"0.025": 0.0
		}
	}
}
