{
	 "smiles": "ClC1=CC=C(S1)S(Cl)(=O)=O", 
	 "Tm": 299.65, 
	 "num_atms": 12, 
	 "gaussian": { 
		 "optdone": 1, 
		 "sigma_profile": "yes", 
		 "theory": "DFT", 
		 "functional": "B3LYP", 
		 "basiset": "6-31G**", 
		 "properties": { 
			 "R2extent": 3660.4634, 
			 "electric_dipole_moment_norm": 4.43893421668, 
			 "electric_quadrupole_moment_norm": 11.643923663, 
			 "total_energy": -2020.73614224, 
			 "HOMO_LUMO_gap": 0.17147, 
			 "cosmo_polarized_energy": -7.88, 
			 "cosmo_cavitation_energy": 23.92, 
			 "cosmo_dispersion_energy": -18.73, 
			 "cosmo_repulsion_energy": 1.44, 
			 "cosmo_total_nonelectrostatic_energy": 6.62, 
			 "SMD_solvation_energy": 2.29 
		},
		"coords": [
			{
				"x": -1.564153293,
				"y": 0.91425329,
				"z": 3.0037239169,
				"element": "Cl" 
			},
			{
				"x": -1.4881829764,
				"y": 0.6594805767,
				"z": 1.3006898154,
				"element": "C" 
			},
			{
				"x": -2.4008319401,
				"y": -0.0248331505,
				"z": 0.5361520011,
				"element": "C" 
			},
			{
				"x": -2.0240131265,
				"y": -0.0583872525,
				"z": -0.8315361993,
				"element": "C" 
			},
			{
				"x": -0.8353877105,
				"y": 0.5905178796,
				"z": -1.0580306243,
				"element": "C" 
			},
			{
				"x": -0.1404880293,
				"y": 1.2712676935,
				"z": 0.38726299,
				"element": "S" 
			},
			{
				"x": -0.0631155628,
				"y": 0.7639903988,
				"z": -2.6250910388,
				"element": "S" 
			},
			{
				"x": -0.8521725016,
				"y": 2.6164443555,
				"z": -3.3173004308,
				"element": "Cl" 
			},
			{
				"x": -0.5941024116,
				"y": -0.2561254412,
				"z": -3.5178376908,
				"element": "O" 
			},
			{
				"x": 1.361956216,
				"y": 0.9871662269,
				"z": -2.4236066614,
				"element": "O" 
			},
			{
				"x": -3.2932468535,
				"y": -0.4840638754,
				"z": 0.9415355242,
				"element": "H" 
			},
			{
				"x": -2.5924618108,
				"y": -0.5398107015,
				"z": -1.617861602,
				"element": "H" 
			}
		],
		 "valence_orbital": [ 
			{
				"type": "occ",
				"energy": -0.34536,
				"method": "rhf"
			},
			{
				"type": "occ",
				"energy": -0.33727,
				"method": "rhf"
			},
			{
				"type": "occ",
				"energy": -0.32022,
				"method": "rhf"
			},
			{
				"type": "occ",
				"energy": -0.30149,
				"method": "rhf"
			},
			{
				"type": "occ",
				"energy": -0.27436,
				"method": "rhf"
			},
			{
				"type": "unocc",
				"energy": -0.10289,
				"method": "rhf"
			},
			{
				"type": "unocc",
				"energy": -0.06132,
				"method": "rhf"
			},
			{
				"type": "unocc",
				"energy": -0.02372,
				"method": "rhf"
			},
			{
				"type": "unocc",
				"energy": -0.01006,
				"method": "rhf"
			},
			{
				"type": "unocc",
				"energy": 0.00988,
				"method": "rhf"
			}
		],
		"cosmo_sigma_profile": { 
			"-0.025": 0.0,
			"-0.024": 0.0,
			"-0.023": 0.0,
			"-0.022": 0.0,
			"-0.021": 0.0,
			"-0.02": 0.0,
			"-0.019": 0.0,
			"-0.018": 0.0,
			"-0.017": 0.0,
			"-0.016": 0.0,
			"-0.015": 0.0,
			"-0.014": 0.0,
			"-0.013": 0.0,
			"-0.012": 0.0,
			"-0.011": 0.040037219541,
			"-0.01": 2.29713395231,
			"-0.009": 3.65542923249,
			"-0.008": 3.67577140487,
			"-0.007": 4.43429809044,
			"-0.006": 4.0875787622,
			"-0.005": 7.59540098371,
			"-0.004": 9.28136809536,
			"-0.003": 12.1768025001,
			"-0.002": 21.2702149266,
			"-0.001": 24.1472562192,
			"0.0": 22.8347605429,
			"0.001": 17.320940616,
			"0.002": 18.7998067645,
			"0.003": 16.5924108023,
			"0.004": 6.50575856258,
			"0.005": 2.40745078278,
			"0.006": 3.84582056287,
			"0.007": 8.37257467592,
			"0.008": 9.04458793538,
			"0.009": 2.10974487593,
			"0.01": 0.0,
			"0.011": 0.0,
			"0.012": 0.0,
			"0.013": 0.0,
			"0.014": 0.0,
			"0.015": 0.0,
			"0.016": 0.0,
			"0.017": 0.0,
			"0.018": 0.0,
			"0.019": 0.0,
			"0.02": 0.0,
			"0.021": 0.0,
			"0.022": 0.0,
			"0.023": 0.0,
			"0.024": 0.0,
			"0.025": 0.0
		}
	}
}
