{
	 "smiles": "COC(=O)C1=C(NC(=S)NNC(=O)C(=O)C2=CNC3=C2C=CC=C3)C=CC=C1", 
	 "Tm": 556.15, 
	 "num_atms": 44, 
	 "gaussian": { 
		 "optdone": 1, 
		 "sigma_profile": "yes", 
		 "theory": "DFT", 
		 "functional": "B3LYP", 
		 "basiset": "6-31G**", 
		 "properties": { 
			 "R2extent": 17457.6313, 
			 "electric_dipole_moment_norm": 7.12990925749, 
			 "electric_quadrupole_moment_norm": 51.2423816423, 
			 "total_energy": -1651.76698079, 
			 "HOMO_LUMO_gap": 0.12744, 
			 "cosmo_polarized_energy": -24.16, 
			 "cosmo_cavitation_energy": 50.95, 
			 "cosmo_dispersion_energy": -36.54, 
			 "cosmo_repulsion_energy": 2.67, 
			 "cosmo_total_nonelectrostatic_energy": 17.07, 
			 "SMD_solvation_energy": 9.83 
		},
		"coords": [
			{
				"x": -3.4462726529,
				"y": -5.3154798728,
				"z": -6.0948823339,
				"element": "C" 
			},
			{
				"x": -2.3566009598,
				"y": -4.5211501082,
				"z": -5.5959009059,
				"element": "O" 
			},
			{
				"x": -2.2799482624,
				"y": -4.4214243047,
				"z": -4.2538661589,
				"element": "C" 
			},
			{
				"x": -3.098641968,
				"y": -4.9639482662,
				"z": -3.5211616132,
				"element": "O" 
			},
			{
				"x": -1.1197439243,
				"y": -3.6170164927,
				"z": -3.7977775156,
				"element": "C" 
			},
			{
				"x": -0.9598006369,
				"y": -3.2633841647,
				"z": -2.4244723739,
				"element": "C" 
			},
			{
				"x": -1.9262853787,
				"y": -3.6695871851,
				"z": -1.5010119358,
				"element": "N" 
			},
			{
				"x": -2.2557484483,
				"y": -3.2097763857,
				"z": -0.2472201603,
				"element": "C" 
			},
			{
				"x": -3.2975426896,
				"y": -4.0968635282,
				"z": 0.7397259248,
				"element": "S" 
			},
			{
				"x": -1.7327914222,
				"y": -2.018889787,
				"z": 0.1328000374,
				"element": "N" 
			},
			{
				"x": -2.092136842,
				"y": -1.4808601098,
				"z": 1.3581193152,
				"element": "N" 
			},
			{
				"x": -1.6088008768,
				"y": -0.3498550618,
				"z": 1.9414607481,
				"element": "C" 
			},
			{
				"x": -1.9867303074,
				"y": -0.0274330418,
				"z": 3.067204292,
				"element": "O" 
			},
			{
				"x": -0.6259745141,
				"y": 0.5069154587,
				"z": 1.1155331098,
				"element": "C" 
			},
			{
				"x": -0.4087617284,
				"y": 0.2212439498,
				"z": -0.0737554884,
				"element": "O" 
			},
			{
				"x": 0.0120494855,
				"y": 1.6307555584,
				"z": 1.754900752,
				"element": "C" 
			},
			{
				"x": -0.1299364129,
				"y": 2.0678424474,
				"z": 3.0709911524,
				"element": "C" 
			},
			{
				"x": 0.6567637616,
				"y": 3.1551618664,
				"z": 3.2713553602,
				"element": "N" 
			},
			{
				"x": 1.3426228349,
				"y": 3.4782072832,
				"z": 2.1018584202,
				"element": "C" 
			},
			{
				"x": 0.9589651928,
				"y": 2.5341807972,
				"z": 1.1195208061,
				"element": "C" 
			},
			{
				"x": 1.5092101623,
				"y": 2.6337556977,
				"z": -0.1672529419,
				"element": "C" 
			},
			{
				"x": 2.4140415958,
				"y": 3.6591163415,
				"z": -0.4270420119,
				"element": "C" 
			},
			{
				"x": 2.7808869122,
				"y": 4.5854040927,
				"z": 0.5672019171,
				"element": "C" 
			},
			{
				"x": 2.2488322686,
				"y": 4.5090346712,
				"z": 1.8512115787,
				"element": "C" 
			},
			{
				"x": 0.2027646559,
				"y": -2.5637386468,
				"z": -2.0487370761,
				"element": "C" 
			},
			{
				"x": 1.147408226,
				"y": -2.1850541198,
				"z": -2.9958446241,
				"element": "C" 
			},
			{
				"x": 0.9778338709,
				"y": -2.5016466242,
				"z": -4.345351929,
				"element": "C" 
			},
			{
				"x": -0.1454514089,
				"y": -3.2217320515,
				"z": -4.7292036869,
				"element": "C" 
			},
			{
				"x": -4.4036500093,
				"y": -4.8937370022,
				"z": -5.7802838413,
				"element": "H" 
			},
			{
				"x": -3.374228054,
				"y": -6.3416192984,
				"z": -5.7267454446,
				"element": "H" 
			},
			{
				"x": -3.3518223454,
				"y": -5.288186453,
				"z": -7.180106645,
				"element": "H" 
			},
			{
				"x": -2.5585850874,
				"y": -4.3903235317,
				"z": -1.8508906332,
				"element": "H" 
			},
			{
				"x": -1.2792156067,
				"y": -1.3309858112,
				"z": -0.4707868391,
				"element": "H" 
			},
			{
				"x": -2.7426844756,
				"y": -2.0795781978,
				"z": 1.8721797462,
				"element": "H" 
			},
			{
				"x": -0.7526099797,
				"y": 1.6541455688,
				"z": 3.8475569553,
				"element": "H" 
			},
			{
				"x": 0.7260157407,
				"y": 3.6575263169,
				"z": 4.1431757814,
				"element": "H" 
			},
			{
				"x": 1.2241420283,
				"y": 1.9220433836,
				"z": -0.9321063176,
				"element": "H" 
			},
			{
				"x": 2.8471493886,
				"y": 3.7493735129,
				"z": -1.4188603929,
				"element": "H" 
			},
			{
				"x": 3.4893787794,
				"y": 5.373247808,
				"z": 0.3300170743,
				"element": "H" 
			},
			{
				"x": 2.5274788646,
				"y": 5.2216632753,
				"z": 2.6219926098,
				"element": "H" 
			},
			{
				"x": 0.3874691198,
				"y": -2.3387224695,
				"z": -1.0072185761,
				"element": "H" 
			},
			{
				"x": 2.0314204633,
				"y": -1.6466782869,
				"z": -2.6669310666,
				"element": "H" 
			},
			{
				"x": 1.7164734151,
				"y": -2.2037889815,
				"z": -5.0820540551,
				"element": "H" 
			},
			{
				"x": -0.2889427743,
				"y": -3.4979582465,
				"z": -5.7666410138,
				"element": "H" 
			}
		],
		 "valence_orbital": [ 
			{
				"type": "occ",
				"energy": -0.24274,
				"method": "rhf"
			},
			{
				"type": "occ",
				"energy": -0.22883,
				"method": "rhf"
			},
			{
				"type": "occ",
				"energy": -0.22019,
				"method": "rhf"
			},
			{
				"type": "occ",
				"energy": -0.21551,
				"method": "rhf"
			},
			{
				"type": "occ",
				"energy": -0.20984,
				"method": "rhf"
			},
			{
				"type": "unocc",
				"energy": -0.0824,
				"method": "rhf"
			},
			{
				"type": "unocc",
				"energy": -0.05781,
				"method": "rhf"
			},
			{
				"type": "unocc",
				"energy": -0.02868,
				"method": "rhf"
			},
			{
				"type": "unocc",
				"energy": -0.02164,
				"method": "rhf"
			},
			{
				"type": "unocc",
				"energy": 0.01162,
				"method": "rhf"
			}
		],
		"cosmo_sigma_profile": { 
			"-0.025": 0.0,
			"-0.024": 0.0,
			"-0.023": 0.0,
			"-0.022": 0.0,
			"-0.021": 0.0,
			"-0.02": 0.0,
			"-0.019": 0.0,
			"-0.018": 0.0306404613963,
			"-0.017": 1.41525576952,
			"-0.016": 1.80810054493,
			"-0.015": 1.69916344166,
			"-0.014": 0.900409980821,
			"-0.013": 1.4304453006,
			"-0.012": 1.52948726129,
			"-0.011": 1.41448817304,
			"-0.01": 1.79310798832,
			"-0.009": 3.23161776275,
			"-0.008": 3.56810200797,
			"-0.007": 9.68215477936,
			"-0.006": 20.6083692323,
			"-0.005": 28.3994339961,
			"-0.004": 31.1655977749,
			"-0.003": 32.0303839227,
			"-0.002": 25.4184661891,
			"-0.001": 28.3069001301,
			"0.0": 28.8170838269,
			"0.001": 30.8114461814,
			"0.002": 29.3474535719,
			"0.003": 29.3553451484,
			"0.004": 23.7101138196,
			"0.005": 19.7784429385,
			"0.006": 12.805363457,
			"0.007": 8.56377395516,
			"0.008": 8.02534780502,
			"0.009": 8.82495080097,
			"0.01": 9.12427813129,
			"0.011": 5.37505114641,
			"0.012": 2.74678367083,
			"0.013": 1.204523595,
			"0.014": 0.0343846698816,
			"0.015": 0.0,
			"0.016": 0.0,
			"0.017": 0.0,
			"0.018": 0.0,
			"0.019": 0.0,
			"0.02": 0.0,
			"0.021": 0.0,
			"0.022": 0.0,
			"0.023": 0.0,
			"0.024": 0.0,
			"0.025": 0.0
		}
	}
}
