{
	 "smiles": "CC1(C)C2CCC1(C)C(=O)C2(CCCC1=CC=CC=C1)C1(CCCC2=CC=CC=C2)C2CCC(C)(C1=O)C2(C)C", 
	 "Tm": 523.15, 
	 "num_atms": 90, 
	 "gaussian": { 
		 "optdone": 1, 
		 "sigma_profile": "yes", 
		 "theory": "DFT", 
		 "functional": "B3LYP", 
		 "basiset": "6-31G**", 
		 "properties": { 
			 "R2extent": 21072.5612, 
			 "electric_dipole_moment_norm": 1.21020290034, 
			 "electric_quadrupole_moment_norm": 14.6929895089, 
			 "total_energy": -1628.58081378, 
			 "HOMO_LUMO_gap": 0.20421, 
			 "cosmo_polarized_energy": -14.25, 
			 "cosmo_cavitation_energy": 75.53, 
			 "cosmo_dispersion_energy": -46.91, 
			 "cosmo_repulsion_energy": 3.41, 
			 "cosmo_total_nonelectrostatic_energy": 32.03, 
			 "SMD_solvation_energy": 11.8 
		},
		"coords": [
			{
				"x": 1.7773529171,
				"y": 0.0684869362,
				"z": -3.8362148386,
				"element": "C" 
			},
			{
				"x": 0.9297784563,
				"y": -1.1184425426,
				"z": -3.3589810864,
				"element": "C" 
			},
			{
				"x": 0.4039067975,
				"y": -1.7487953071,
				"z": -4.673680526,
				"element": "C" 
			},
			{
				"x": -0.2153383781,
				"y": -0.878434564,
				"z": -2.2878145037,
				"element": "C" 
			},
			{
				"x": -0.7407637821,
				"y": -2.3337617124,
				"z": -2.1626646512,
				"element": "C" 
			},
			{
				"x": 0.580879313,
				"y": -3.1630413237,
				"z": -2.1269910737,
				"element": "C" 
			},
			{
				"x": 1.6984863313,
				"y": -2.1034286131,
				"z": -2.4232776805,
				"element": "C" 
			},
			{
				"x": 3.0187203997,
				"y": -2.7076876648,
				"z": -2.8752746693,
				"element": "C" 
			},
			{
				"x": 1.8485905716,
				"y": -1.2296946183,
				"z": -1.1505855882,
				"element": "C" 
			},
			{
				"x": 2.8034224718,
				"y": -1.2820476989,
				"z": -0.4000667127,
				"element": "O" 
			},
			{
				"x": 0.5079949555,
				"y": -0.4610514078,
				"z": -0.9134851063,
				"element": "C" 
			},
			{
				"x": -0.0548403926,
				"y": -1.281805265,
				"z": 0.3220451427,
				"element": "C" 
			},
			{
				"x": 0.5675695008,
				"y": -1.0971197708,
				"z": 1.7155253596,
				"element": "C" 
			},
			{
				"x": 0.1344646345,
				"y": -2.2205383015,
				"z": 2.6868342189,
				"element": "C" 
			},
			{
				"x": 0.5561047912,
				"y": -3.6206441832,
				"z": 2.2804667933,
				"element": "C" 
			},
			{
				"x": -0.3950133166,
				"y": -4.632681155,
				"z": 2.0930913988,
				"element": "C" 
			},
			{
				"x": -0.0128613036,
				"y": -5.9257599772,
				"z": 1.7275968453,
				"element": "C" 
			},
			{
				"x": 1.3356108634,
				"y": -6.2290039475,
				"z": 1.5392649443,
				"element": "C" 
			},
			{
				"x": 2.295784212,
				"y": -5.2299725286,
				"z": 1.720071321,
				"element": "C" 
			},
			{
				"x": 1.9094651633,
				"y": -3.9409503586,
				"z": 2.087057601,
				"element": "C" 
			},
			{
				"x": 0.3722482043,
				"y": 1.130386959,
				"z": -0.5858027378,
				"element": "C" 
			},
			{
				"x": -1.1841385843,
				"y": 1.411278466,
				"z": -0.3442905547,
				"element": "C" 
			},
			{
				"x": -1.907811118,
				"y": 1.1570685087,
				"z": 1.0025022987,
				"element": "C" 
			},
			{
				"x": -3.1275844264,
				"y": 2.0950279386,
				"z": 1.1565189303,
				"element": "C" 
			},
			{
				"x": -3.9209631526,
				"y": 1.8224562568,
				"z": 2.4161877943,
				"element": "C" 
			},
			{
				"x": -3.5928092727,
				"y": 2.4559005881,
				"z": 3.6229109753,
				"element": "C" 
			},
			{
				"x": -4.2969160724,
				"y": 2.1775859889,
				"z": 4.79520685,
				"element": "C" 
			},
			{
				"x": -5.3462390374,
				"y": 1.2567224447,
				"z": 4.7802776742,
				"element": "C" 
			},
			{
				"x": -5.6854642534,
				"y": 0.6195669862,
				"z": 3.5852606927,
				"element": "C" 
			},
			{
				"x": -4.9780624419,
				"y": 0.9018592244,
				"z": 2.4157821421,
				"element": "C" 
			},
			{
				"x": 1.3239927649,
				"y": 1.8078579851,
				"z": 0.5028067494,
				"element": "C" 
			},
			{
				"x": 0.6430018537,
				"y": 3.1297949516,
				"z": 0.9789271146,
				"element": "C" 
			},
			{
				"x": 0.7686342318,
				"y": 4.0588620457,
				"z": -0.2647212176,
				"element": "C" 
			},
			{
				"x": 1.643601743,
				"y": 3.2231043064,
				"z": -1.260260643,
				"element": "C" 
			},
			{
				"x": 2.2625213668,
				"y": 4.0319008452,
				"z": -2.3884136058,
				"element": "C" 
			},
			{
				"x": 0.6640156147,
				"y": 2.1350360238,
				"z": -1.752744293,
				"element": "C" 
			},
			{
				"x": 0.0691309197,
				"y": 2.1817347236,
				"z": -2.8109443064,
				"element": "O" 
			},
			{
				"x": 2.5556323201,
				"y": 2.4407052105,
				"z": -0.2645633995,
				"element": "C" 
			},
			{
				"x": 3.5720241934,
				"y": 1.5026593788,
				"z": -0.9236200018,
				"element": "C" 
			},
			{
				"x": 3.4298331254,
				"y": 3.343721844,
				"z": 0.6454464479,
				"element": "C" 
			},
			{
				"x": 2.6031872226,
				"y": -0.3054489674,
				"z": -4.4515101402,
				"element": "H" 
			},
			{
				"x": 1.1823677243,
				"y": 0.7527977631,
				"z": -4.4439481816,
				"element": "H" 
			},
			{
				"x": 2.2172832295,
				"y": 0.6582243008,
				"z": -3.0401884809,
				"element": "H" 
			},
			{
				"x": -0.3533149786,
				"y": -1.0922738664,
				"z": -5.1175172385,
				"element": "H" 
			},
			{
				"x": 1.2207930926,
				"y": -1.8319894467,
				"z": -5.3976540851,
				"element": "H" 
			},
			{
				"x": -0.0346960224,
				"y": -2.7410505894,
				"z": -4.5739991504,
				"element": "H" 
			},
			{
				"x": -0.9664790355,
				"y": -0.1620009486,
				"z": -2.6167392187,
				"element": "H" 
			},
			{
				"x": -1.3471921651,
				"y": -2.5864340418,
				"z": -3.0344674645,
				"element": "H" 
			},
			{
				"x": -1.3795009441,
				"y": -2.5040672532,
				"z": -1.2972661943,
				"element": "H" 
			},
			{
				"x": 0.7492627754,
				"y": -3.6851572323,
				"z": -1.1808961448,
				"element": "H" 
			},
			{
				"x": 0.6052304461,
				"y": -3.9301058353,
				"z": -2.9074854935,
				"element": "H" 
			},
			{
				"x": 3.4329830832,
				"y": -3.3450001551,
				"z": -2.0883807464,
				"element": "H" 
			},
			{
				"x": 2.8814338655,
				"y": -3.3168160361,
				"z": -3.7748442506,
				"element": "H" 
			},
			{
				"x": 3.7648921033,
				"y": -1.9374703738,
				"z": -3.0916528711,
				"element": "H" 
			},
			{
				"x": -1.1343041834,
				"y": -1.141233077,
				"z": 0.3807687659,
				"element": "H" 
			},
			{
				"x": 0.0772669405,
				"y": -2.3387741027,
				"z": 0.1023253403,
				"element": "H" 
			},
			{
				"x": 1.657671738,
				"y": -1.0900027146,
				"z": 1.6300425619,
				"element": "H" 
			},
			{
				"x": 0.2735847444,
				"y": -0.147347009,
				"z": 2.1667047594,
				"element": "H" 
			},
			{
				"x": -0.9557981828,
				"y": -2.1972193193,
				"z": 2.8082861714,
				"element": "H" 
			},
			{
				"x": 0.5535471303,
				"y": -1.9908226377,
				"z": 3.6756028619,
				"element": "H" 
			},
			{
				"x": -1.4484138851,
				"y": -4.4048828736,
				"z": 2.2391765968,
				"element": "H" 
			},
			{
				"x": -0.7694973203,
				"y": -6.6934720381,
				"z": 1.5900264989,
				"element": "H" 
			},
			{
				"x": 1.6372486594,
				"y": -7.233051955,
				"z": 1.2547140816,
				"element": "H" 
			},
			{
				"x": 3.3489441033,
				"y": -5.4550439144,
				"z": 1.5758743618,
				"element": "H" 
			},
			{
				"x": 2.6679227549,
				"y": -3.1739743941,
				"z": 2.2177228125,
				"element": "H" 
			},
			{
				"x": -1.3568388203,
				"y": 2.4620005179,
				"z": -0.5888609762,
				"element": "H" 
			},
			{
				"x": -1.7256951145,
				"y": 0.876007291,
				"z": -1.1270084292,
				"element": "H" 
			},
			{
				"x": -1.2496918816,
				"y": 1.2968323035,
				"z": 1.8639238347,
				"element": "H" 
			},
			{
				"x": -2.2760321045,
				"y": 0.1310869117,
				"z": 1.0732562613,
				"element": "H" 
			},
			{
				"x": -3.7759476721,
				"y": 1.9809593559,
				"z": 0.2785514899,
				"element": "H" 
			},
			{
				"x": -2.7853127048,
				"y": 3.1381312805,
				"z": 1.1539440797,
				"element": "H" 
			},
			{
				"x": -2.7805443156,
				"y": 3.1792650036,
				"z": 3.641596833,
				"element": "H" 
			},
			{
				"x": -4.0292641815,
				"y": 2.6832911585,
				"z": 5.7189274324,
				"element": "H" 
			},
			{
				"x": -5.8979104998,
				"y": 1.0413034619,
				"z": 5.6908441975,
				"element": "H" 
			},
			{
				"x": -6.504733945,
				"y": -0.0938075509,
				"z": 3.5619417144,
				"element": "H" 
			},
			{
				"x": -5.2526833309,
				"y": 0.4064362046,
				"z": 1.4871022156,
				"element": "H" 
			},
			{
				"x": 1.6165111196,
				"y": 1.1534085782,
				"z": 1.3190849477,
				"element": "H" 
			},
			{
				"x": 1.1828918328,
				"y": 3.5345812735,
				"z": 1.8369599054,
				"element": "H" 
			},
			{
				"x": -0.3860061042,
				"y": 3.0152627749,
				"z": 1.3043613237,
				"element": "H" 
			},
			{
				"x": -0.1976941675,
				"y": 4.3277216651,
				"z": -0.7026136578,
				"element": "H" 
			},
			{
				"x": 1.2776538772,
				"y": 4.9998232277,
				"z": -0.0341100549,
				"element": "H" 
			},
			{
				"x": 2.8929638986,
				"y": 3.4104694533,
				"z": -3.0318477666,
				"element": "H" 
			},
			{
				"x": 1.4791349638,
				"y": 4.4614910704,
				"z": -3.0197541106,
				"element": "H" 
			},
			{
				"x": 2.8767193048,
				"y": 4.848599072,
				"z": -1.9949444123,
				"element": "H" 
			},
			{
				"x": 4.3138470214,
				"y": 2.095896659,
				"z": -1.469644655,
				"element": "H" 
			},
			{
				"x": 4.0991186898,
				"y": 0.9124285212,
				"z": -0.1704410047,
				"element": "H" 
			},
			{
				"x": 3.1471829423,
				"y": 0.7965182829,
				"z": -1.6227780544,
				"element": "H" 
			},
			{
				"x": 3.8332086943,
				"y": 2.7492297276,
				"z": 1.4732817711,
				"element": "H" 
			},
			{
				"x": 4.2852255011,
				"y": 3.722280894,
				"z": 0.076977414,
				"element": "H" 
			},
			{
				"x": 2.9262119159,
				"y": 4.2085429071,
				"z": 1.0755704511,
				"element": "H" 
			}
		],
		 "valence_orbital": [ 
			{
				"type": "occ",
				"energy": -0.24463,
				"method": "rhf"
			},
			{
				"type": "occ",
				"energy": -0.24093,
				"method": "rhf"
			},
			{
				"type": "occ",
				"energy": -0.23623,
				"method": "rhf"
			},
			{
				"type": "occ",
				"energy": -0.22782,
				"method": "rhf"
			},
			{
				"type": "occ",
				"energy": -0.22534,
				"method": "rhf"
			},
			{
				"type": "unocc",
				"energy": -0.02113,
				"method": "rhf"
			},
			{
				"type": "unocc",
				"energy": -0.01144,
				"method": "rhf"
			},
			{
				"type": "unocc",
				"energy": -0.0003,
				"method": "rhf"
			},
			{
				"type": "unocc",
				"energy": 0.00061,
				"method": "rhf"
			},
			{
				"type": "unocc",
				"energy": 0.002,
				"method": "rhf"
			}
		],
		"cosmo_sigma_profile": { 
			"-0.025": 0.0,
			"-0.024": 0.0,
			"-0.023": 0.0,
			"-0.022": 0.0,
			"-0.021": 0.0,
			"-0.02": 0.0,
			"-0.019": 0.0,
			"-0.018": 0.0,
			"-0.017": 0.0,
			"-0.016": 0.0,
			"-0.015": 0.0,
			"-0.014": 0.0,
			"-0.013": 0.0,
			"-0.012": 0.0,
			"-0.011": 0.0,
			"-0.01": 0.0,
			"-0.009": 0.0,
			"-0.008": 0.0,
			"-0.007": 0.0,
			"-0.006": 2.31739722494,
			"-0.005": 18.8136675336,
			"-0.004": 42.0110101371,
			"-0.003": 75.1163492176,
			"-0.002": 86.938618454,
			"-0.001": 81.370805774,
			"0.0": 72.5782393899,
			"0.001": 63.219930114,
			"0.002": 32.0232056698,
			"0.003": 22.9237433614,
			"0.004": 23.5371599082,
			"0.005": 20.2116259251,
			"0.006": 17.5239320152,
			"0.007": 10.6233258976,
			"0.008": 3.76363835834,
			"0.009": 3.66639442226,
			"0.01": 2.43305652891,
			"0.011": 3.71549624285,
			"0.012": 3.55091879437,
			"0.013": 1.23968731681,
			"0.014": 0.0,
			"0.015": 0.0,
			"0.016": 0.0,
			"0.017": 0.0,
			"0.018": 0.0,
			"0.019": 0.0,
			"0.02": 0.0,
			"0.021": 0.0,
			"0.022": 0.0,
			"0.023": 0.0,
			"0.024": 0.0,
			"0.025": 0.0
		}
	}
}
