{
	 "smiles": "CN1C(=O)N(C)C2=C1C=C(Br)C(=C2)S(N)(=O)=O", 
	 "Tm": 588.15, 
	 "num_atms": 27, 
	 "gaussian": { 
		 "optdone": 1, 
		 "sigma_profile": "yes", 
		 "theory": "DFT", 
		 "functional": "B3LYP", 
		 "basiset": "6-31G**", 
		 "properties": { 
			 "R2extent": 7621.7907, 
			 "electric_dipole_moment_norm": 5.21635257819, 
			 "electric_quadrupole_moment_norm": 28.6992675663, 
			 "total_energy": -3708.46552201, 
			 "HOMO_LUMO_gap": 0.18725, 
			 "cosmo_polarized_energy": -22.98, 
			 "cosmo_cavitation_energy": 34.26, 
			 "cosmo_dispersion_energy": -25.71, 
			 "cosmo_repulsion_energy": 1.92, 
			 "cosmo_total_nonelectrostatic_energy": 10.47, 
			 "SMD_solvation_energy": 5.2 
		},
		"coords": [
			{
				"x": 1.1007631187,
				"y": -2.8509150422,
				"z": -0.0655978722,
				"element": "C" 
			},
			{
				"x": 0.9699243083,
				"y": -1.5061043414,
				"z": 0.4587862667,
				"element": "N" 
			},
			{
				"x": 2.0237002833,
				"y": -0.839009163,
				"z": 1.103381361,
				"element": "C" 
			},
			{
				"x": 3.1437904934,
				"y": -1.2706006417,
				"z": 1.3123979832,
				"element": "O" 
			},
			{
				"x": 1.517318942,
				"y": 0.4154966663,
				"z": 1.4524865631,
				"element": "N" 
			},
			{
				"x": 2.3075292786,
				"y": 1.4206063093,
				"z": 2.1360609338,
				"element": "C" 
			},
			{
				"x": 0.1994873483,
				"y": 0.5265022317,
				"z": 1.0388990137,
				"element": "C" 
			},
			{
				"x": -0.1434443271,
				"y": -0.6911776251,
				"z": 0.4096505516,
				"element": "C" 
			},
			{
				"x": -1.4119910184,
				"y": -0.8946725291,
				"z": -0.1161340133,
				"element": "C" 
			},
			{
				"x": -2.3366283186,
				"y": 0.1515011843,
				"z": -0.0091962801,
				"element": "C" 
			},
			{
				"x": -4.0747015223,
				"y": -0.1829281159,
				"z": -0.7415594635,
				"element": "Br" 
			},
			{
				"x": -2.0056651385,
				"y": 1.3615693366,
				"z": 0.6166033512,
				"element": "C" 
			},
			{
				"x": -0.7180587849,
				"y": 1.5559396127,
				"z": 1.1490942552,
				"element": "C" 
			},
			{
				"x": -3.1183201639,
				"y": 2.7867612622,
				"z": 0.7457410431,
				"element": "S" 
			},
			{
				"x": -4.4624983528,
				"y": 2.2938880152,
				"z": 1.6131734585,
				"element": "N" 
			},
			{
				"x": -3.5819885394,
				"y": 3.1302304706,
				"z": -0.593714082,
				"element": "O" 
			},
			{
				"x": -2.431777775,
				"y": 3.7541251862,
				"z": 1.6029249087,
				"element": "O" 
			},
			{
				"x": 0.9371159392,
				"y": -2.8655145203,
				"z": -1.1481193973,
				"element": "H" 
			},
			{
				"x": 2.1170539808,
				"y": -3.1823914997,
				"z": 0.1507079141,
				"element": "H" 
			},
			{
				"x": 0.3880875032,
				"y": -3.528837547,
				"z": 0.4155188662,
				"element": "H" 
			},
			{
				"x": 2.3973793966,
				"y": 2.3256861671,
				"z": 1.5268003486,
				"element": "H" 
			},
			{
				"x": 1.8580895297,
				"y": 1.6804012372,
				"z": 3.0999619957,
				"element": "H" 
			},
			{
				"x": 3.2979153278,
				"y": 0.9949373759,
				"z": 2.3012514088,
				"element": "H" 
			},
			{
				"x": -1.690632902,
				"y": -1.8236595622,
				"z": -0.5978200416,
				"element": "H" 
			},
			{
				"x": -0.4834362544,
				"y": 2.5007923144,
				"z": 1.6240227249,
				"element": "H" 
			},
			{
				"x": -4.9855162282,
				"y": 1.5623521029,
				"z": 1.1397081524,
				"element": "H" 
			},
			{
				"x": -4.2381961245,
				"y": 2.0722211149,
				"z": 2.5780700495,
				"element": "H" 
			}
		],
		 "valence_orbital": [ 
			{
				"type": "occ",
				"energy": -0.29936,
				"method": "rhf"
			},
			{
				"type": "occ",
				"energy": -0.29537,
				"method": "rhf"
			},
			{
				"type": "occ",
				"energy": -0.28947,
				"method": "rhf"
			},
			{
				"type": "occ",
				"energy": -0.25713,
				"method": "rhf"
			},
			{
				"type": "occ",
				"energy": -0.22747,
				"method": "rhf"
			},
			{
				"type": "unocc",
				"energy": -0.04022,
				"method": "rhf"
			},
			{
				"type": "unocc",
				"energy": -0.03246,
				"method": "rhf"
			},
			{
				"type": "unocc",
				"energy": -0.01951,
				"method": "rhf"
			},
			{
				"type": "unocc",
				"energy": 0.04668,
				"method": "rhf"
			},
			{
				"type": "unocc",
				"energy": 0.06239,
				"method": "rhf"
			}
		],
		"cosmo_sigma_profile": { 
			"-0.025": 0.0,
			"-0.024": 0.0,
			"-0.023": 0.0,
			"-0.022": 0.0,
			"-0.021": 0.0,
			"-0.02": 0.0,
			"-0.019": 0.0,
			"-0.018": 0.0,
			"-0.017": 0.0,
			"-0.016": 0.255490950817,
			"-0.015": 1.46850430129,
			"-0.014": 1.1413159104,
			"-0.013": 1.98471588485,
			"-0.012": 2.64586843497,
			"-0.011": 1.51116412287,
			"-0.01": 1.97645677756,
			"-0.009": 2.67586623087,
			"-0.008": 3.98174266371,
			"-0.007": 8.90653696697,
			"-0.006": 20.1313610431,
			"-0.005": 19.3350162208,
			"-0.004": 19.592206104,
			"-0.003": 25.9224213999,
			"-0.002": 22.1503543906,
			"-0.001": 16.7228496307,
			"0.0": 15.3686842848,
			"0.001": 19.6773307979,
			"0.002": 10.8213921285,
			"0.003": 10.5487484052,
			"0.004": 6.47646029314,
			"0.005": 5.22506898796,
			"0.006": 5.46668980751,
			"0.007": 6.27958656885,
			"0.008": 5.9752300727,
			"0.009": 6.10446072986,
			"0.01": 10.703411512,
			"0.011": 12.791951034,
			"0.012": 5.84593817687,
			"0.013": 4.94905400432,
			"0.014": 0.0,
			"0.015": 0.0,
			"0.016": 0.0,
			"0.017": 0.0,
			"0.018": 0.0,
			"0.019": 0.0,
			"0.02": 0.0,
			"0.021": 0.0,
			"0.022": 0.0,
			"0.023": 0.0,
			"0.024": 0.0,
			"0.025": 0.0
		}
	}
}
