{
	 "smiles": "CNC1=C2C=CC=NC2=CC=C1", 
	 "Tm": 399.15, 
	 "num_atms": 22, 
	 "gaussian": { 
		 "optdone": 1, 
		 "sigma_profile": "yes", 
		 "theory": "DFT", 
		 "functional": "B3LYP", 
		 "basiset": "6-31G**", 
		 "properties": { 
			 "R2extent": 2095.0774, 
			 "electric_dipole_moment_norm": 3.70009354747, 
			 "electric_quadrupole_moment_norm": 8.88164616611, 
			 "total_energy": -496.596684526, 
			 "HOMO_LUMO_gap": 0.15205, 
			 "cosmo_polarized_energy": -10.42, 
			 "cosmo_cavitation_energy": 24.97, 
			 "cosmo_dispersion_energy": -18.92, 
			 "cosmo_repulsion_energy": 1.47, 
			 "cosmo_total_nonelectrostatic_energy": 7.52, 
			 "SMD_solvation_energy": 2.01 
		},
		"coords": [
			{
				"x": -0.7984198739,
				"y": 0.9715359005,
				"z": -3.4457505869,
				"element": "C" 
			},
			{
				"x": -0.7678990176,
				"y": 0.8540353446,
				"z": -1.999606067,
				"element": "N" 
			},
			{
				"x": 0.0785552015,
				"y": -0.059717495,
				"z": -1.3752099117,
				"element": "C" 
			},
			{
				"x": 0.1691889119,
				"y": -0.0546066321,
				"z": 0.0634490075,
				"element": "C" 
			},
			{
				"x": -0.5901745675,
				"y": 0.8077954237,
				"z": 0.891088591,
				"element": "C" 
			},
			{
				"x": -0.4260336179,
				"y": 0.7664053063,
				"z": 2.2578614008,
				"element": "C" 
			},
			{
				"x": 0.5019712789,
				"y": -0.1534888474,
				"z": 2.7978936643,
				"element": "C" 
			},
			{
				"x": 1.2090278953,
				"y": -0.9981174039,
				"z": 2.0740397752,
				"element": "N" 
			},
			{
				"x": 1.0535015894,
				"y": -0.975071311,
				"z": 0.7170017214,
				"element": "C" 
			},
			{
				"x": 1.790975634,
				"y": -1.9126399298,
				"z": -0.0527792507,
				"element": "C" 
			},
			{
				"x": 1.6507441865,
				"y": -1.9240710044,
				"z": -1.4200186767,
				"element": "C" 
			},
			{
				"x": 0.810890135,
				"y": -1.001657331,
				"z": -2.0855666651,
				"element": "C" 
			},
			{
				"x": -1.4915820617,
				"y": 1.7709538196,
				"z": -3.7176299562,
				"element": "H" 
			},
			{
				"x": -1.1690696694,
				"y": 0.0434354174,
				"z": -3.8932287332,
				"element": "H" 
			},
			{
				"x": 0.1841824667,
				"y": 1.1944767349,
				"z": -3.8915519227,
				"element": "H" 
			},
			{
				"x": -0.8328729086,
				"y": 1.7419994981,
				"z": -1.5235460409,
				"element": "H" 
			},
			{
				"x": -1.325284466,
				"y": 1.4799966892,
				"z": 0.4582364895,
				"element": "H" 
			},
			{
				"x": -1.0000661498,
				"y": 1.4121625457,
				"z": 2.9147796397,
				"element": "H" 
			},
			{
				"x": 0.653474873,
				"y": -0.1962112215,
				"z": 3.8764619097,
				"element": "H" 
			},
			{
				"x": 2.4441707426,
				"y": -2.6004347327,
				"z": 0.4721075961,
				"element": "H" 
			},
			{
				"x": 2.2075205878,
				"y": -2.6416761059,
				"z": -2.0164448448,
				"element": "H" 
			},
			{
				"x": 0.7565988298,
				"y": -1.0299046656,
				"z": -3.1674871393,
				"element": "H" 
			}
		],
		 "valence_orbital": [ 
			{
				"type": "occ",
				"energy": -0.30634,
				"method": "rhf"
			},
			{
				"type": "occ",
				"energy": -0.26856,
				"method": "rhf"
			},
			{
				"type": "occ",
				"energy": -0.24595,
				"method": "rhf"
			},
			{
				"type": "occ",
				"energy": -0.24384,
				"method": "rhf"
			},
			{
				"type": "occ",
				"energy": -0.19403,
				"method": "rhf"
			},
			{
				"type": "unocc",
				"energy": -0.04198,
				"method": "rhf"
			},
			{
				"type": "unocc",
				"energy": -0.00872,
				"method": "rhf"
			},
			{
				"type": "unocc",
				"energy": 0.03871,
				"method": "rhf"
			},
			{
				"type": "unocc",
				"energy": 0.07429,
				"method": "rhf"
			},
			{
				"type": "unocc",
				"energy": 0.09858,
				"method": "rhf"
			}
		],
		"cosmo_sigma_profile": { 
			"-0.025": 0.0,
			"-0.024": 0.0,
			"-0.023": 0.0,
			"-0.022": 0.0,
			"-0.021": 0.0,
			"-0.02": 0.0,
			"-0.019": 0.0,
			"-0.018": 0.0,
			"-0.017": 0.0,
			"-0.016": 0.0,
			"-0.015": 0.0,
			"-0.014": 0.165019113521,
			"-0.013": 1.00391288167,
			"-0.012": 1.23022565215,
			"-0.011": 1.0686260113,
			"-0.01": 1.84918808192,
			"-0.009": 1.14729928542,
			"-0.008": 2.14485285148,
			"-0.007": 2.85475431729,
			"-0.006": 8.90855716266,
			"-0.005": 14.8289135625,
			"-0.004": 17.8221694295,
			"-0.003": 16.8241044623,
			"-0.002": 15.5804384541,
			"-0.001": 14.7796368263,
			"0.0": 9.6510082946,
			"0.001": 10.0811009472,
			"0.002": 14.3960962595,
			"0.003": 18.1282233455,
			"0.004": 13.0646891298,
			"0.005": 12.1550572207,
			"0.006": 7.56129700612,
			"0.007": 2.24204309296,
			"0.008": 2.62042336236,
			"0.009": 2.1820261652,
			"0.01": 0.72211900644,
			"0.011": 1.61194097987,
			"0.012": 1.09694267306,
			"0.013": 1.07063279833,
			"0.014": 0.783631233494,
			"0.015": 0.986505029137,
			"0.016": 0.427646938581,
			"0.017": 0.492629356009,
			"0.018": 0.0,
			"0.019": 0.0,
			"0.02": 0.0,
			"0.021": 0.0,
			"0.022": 0.0,
			"0.023": 0.0,
			"0.024": 0.0,
			"0.025": 0.0
		}
	}
}
