{
	 "smiles": "COC1=C(OC)C=C(CC2=NN=C(S)O2)C=C1", 
	 "Tm": 476.15, 
	 "num_atms": 29, 
	 "gaussian": { 
		 "optdone": 1, 
		 "sigma_profile": "yes", 
		 "theory": "DFT", 
		 "functional": "B3LYP", 
		 "basiset": "6-31G**", 
		 "properties": { 
			 "R2extent": 6402.0908, 
			 "electric_dipole_moment_norm": 5.54387596633, 
			 "electric_quadrupole_moment_norm": 21.0488046461, 
			 "total_energy": -1159.69208765, 
			 "HOMO_LUMO_gap": 0.19943, 
			 "cosmo_polarized_energy": -17.2, 
			 "cosmo_cavitation_energy": 36.04, 
			 "cosmo_dispersion_energy": -25.81, 
			 "cosmo_repulsion_energy": 2.01, 
			 "cosmo_total_nonelectrostatic_energy": 12.23, 
			 "SMD_solvation_energy": 5.43 
		},
		"coords": [
			{
				"x": -2.8353172659,
				"y": 2.8309997727,
				"z": -1.2408435819,
				"element": "C" 
			},
			{
				"x": -1.8268061255,
				"y": 3.0365998088,
				"z": -0.2484967139,
				"element": "O" 
			},
			{
				"x": -0.9764657732,
				"y": 1.9834064076,
				"z": -0.0236026881,
				"element": "C" 
			},
			{
				"x": -1.4192520744,
				"y": 0.7857514844,
				"z": 0.5819079922,
				"element": "C" 
			},
			{
				"x": -2.7494408241,
				"y": 0.7206844535,
				"z": 0.8841016322,
				"element": "O" 
			},
			{
				"x": -3.235169085,
				"y": -0.4404856154,
				"z": 1.5391518283,
				"element": "C" 
			},
			{
				"x": -0.4977698592,
				"y": -0.2336829436,
				"z": 0.8411404639,
				"element": "C" 
			},
			{
				"x": 0.8580755149,
				"y": -0.0749626241,
				"z": 0.5252461733,
				"element": "C" 
			},
			{
				"x": 1.8499181701,
				"y": -1.1900905989,
				"z": 0.8288968188,
				"element": "C" 
			},
			{
				"x": 2.4944292756,
				"y": -1.7528879274,
				"z": -0.3924294447,
				"element": "C" 
			},
			{
				"x": 3.725492149,
				"y": -1.6543094807,
				"z": -0.7769923509,
				"element": "N" 
			},
			{
				"x": 3.8191750284,
				"y": -2.3093811763,
				"z": -2.0137265697,
				"element": "N" 
			},
			{
				"x": 2.6314053746,
				"y": -2.7574999869,
				"z": -2.2613372243,
				"element": "C" 
			},
			{
				"x": 2.1451264374,
				"y": -3.7328067382,
				"z": -3.6395296714,
				"element": "S" 
			},
			{
				"x": 1.7251394831,
				"y": -2.4554672175,
				"z": -1.2884251905,
				"element": "O" 
			},
			{
				"x": 1.2911693998,
				"y": 1.115546514,
				"z": -0.0607578528,
				"element": "C" 
			},
			{
				"x": 0.37283872,
				"y": 2.130304376,
				"z": -0.3348023359,
				"element": "C" 
			},
			{
				"x": -3.5286970885,
				"y": 2.0358391543,
				"z": -0.9521932181,
				"element": "H" 
			},
			{
				"x": -2.3845676951,
				"y": 2.5900340566,
				"z": -2.2125374944,
				"element": "H" 
			},
			{
				"x": -3.3769457441,
				"y": 3.7756611775,
				"z": -1.3219074768,
				"element": "H" 
			},
			{
				"x": -2.7409510784,
				"y": -0.5937875167,
				"z": 2.5068390938,
				"element": "H" 
			},
			{
				"x": -4.3000194193,
				"y": -0.2693187831,
				"z": 1.7033683344,
				"element": "H" 
			},
			{
				"x": -3.1052043139,
				"y": -1.3397720035,
				"z": 0.9230508849,
				"element": "H" 
			},
			{
				"x": -0.826845647,
				"y": -1.157729403,
				"z": 1.3031777443,
				"element": "H" 
			},
			{
				"x": 2.6650238653,
				"y": -0.823097012,
				"z": 1.4600460658,
				"element": "H" 
			},
			{
				"x": 1.3505377324,
				"y": -1.9973456532,
				"z": 1.3758325929,
				"element": "H" 
			},
			{
				"x": 0.829590316,
				"y": -3.479247907,
				"z": -3.4968845125,
				"element": "H" 
			},
			{
				"x": 2.3398274203,
				"y": 1.2484418818,
				"z": -0.3109102932,
				"element": "H" 
			},
			{
				"x": 0.6879031065,
				"y": 3.0655035002,
				"z": -0.7865830058,
				"element": "H" 
			}
		],
		 "valence_orbital": [ 
			{
				"type": "occ",
				"energy": -0.282,
				"method": "rhf"
			},
			{
				"type": "occ",
				"energy": -0.27724,
				"method": "rhf"
			},
			{
				"type": "occ",
				"energy": -0.25037,
				"method": "rhf"
			},
			{
				"type": "occ",
				"energy": -0.24687,
				"method": "rhf"
			},
			{
				"type": "occ",
				"energy": -0.21885,
				"method": "rhf"
			},
			{
				"type": "unocc",
				"energy": -0.01942,
				"method": "rhf"
			},
			{
				"type": "unocc",
				"energy": -0.00642,
				"method": "rhf"
			},
			{
				"type": "unocc",
				"energy": 0.00072,
				"method": "rhf"
			},
			{
				"type": "unocc",
				"energy": 0.00534,
				"method": "rhf"
			},
			{
				"type": "unocc",
				"energy": 0.03219,
				"method": "rhf"
			}
		],
		"cosmo_sigma_profile": { 
			"-0.025": 0.0,
			"-0.024": 0.0,
			"-0.023": 0.0,
			"-0.022": 0.0,
			"-0.021": 0.0,
			"-0.02": 0.0,
			"-0.019": 0.0,
			"-0.018": 0.0,
			"-0.017": 0.0,
			"-0.016": 0.0,
			"-0.015": 0.0,
			"-0.014": 0.107598288617,
			"-0.013": 1.70349845688,
			"-0.012": 1.62026302902,
			"-0.011": 1.71364672982,
			"-0.01": 1.67681874608,
			"-0.009": 1.15755324871,
			"-0.008": 3.16309986725,
			"-0.007": 7.9198367453,
			"-0.006": 14.0509474922,
			"-0.005": 23.0085786822,
			"-0.004": 26.7491506922,
			"-0.003": 27.088506382,
			"-0.002": 21.6330655312,
			"-0.001": 21.6647203291,
			"0.0": 16.0206618258,
			"0.001": 16.0344125272,
			"0.002": 17.2202548225,
			"0.003": 18.072199657,
			"0.004": 17.7117780817,
			"0.005": 12.5911810349,
			"0.006": 5.94792207421,
			"0.007": 3.67169052978,
			"0.008": 4.65496759032,
			"0.009": 3.6401815623,
			"0.01": 5.60274217474,
			"0.011": 5.08363172263,
			"0.012": 4.78619784937,
			"0.013": 2.57047558822,
			"0.014": 2.08280355968,
			"0.015": 1.09841596596,
			"0.016": 0.0,
			"0.017": 0.0,
			"0.018": 0.0,
			"0.019": 0.0,
			"0.02": 0.0,
			"0.021": 0.0,
			"0.022": 0.0,
			"0.023": 0.0,
			"0.024": 0.0,
			"0.025": 0.0
		}
	}
}
