{
	 "smiles": "CC(=O)NC1=CC=C(C=C1OC(F)(F)F)C#N", 
	 "Tm": 392.15, 
	 "num_atms": 24, 
	 "gaussian": { 
		 "optdone": 1, 
		 "sigma_profile": "yes", 
		 "theory": "DFT", 
		 "functional": "B3LYP", 
		 "basiset": "6-31G**", 
		 "properties": { 
			 "R2extent": 4955.1058, 
			 "electric_dipole_moment_norm": 2.77822462375, 
			 "electric_quadrupole_moment_norm": 31.3892145426, 
			 "total_energy": -944.751477556, 
			 "HOMO_LUMO_gap": 0.17874, 
			 "cosmo_polarized_energy": -15.18, 
			 "cosmo_cavitation_energy": 31.63, 
			 "cosmo_dispersion_energy": -21.81, 
			 "cosmo_repulsion_energy": 1.64, 
			 "cosmo_total_nonelectrostatic_energy": 11.45, 
			 "SMD_solvation_energy": 9.17 
		},
		"coords": [
			{
				"x": 1.254298948,
				"y": -3.7062290884,
				"z": -0.0039353868,
				"element": "C" 
			},
			{
				"x": 0.4191820623,
				"y": -2.9206232873,
				"z": 0.9819640722,
				"element": "C" 
			},
			{
				"x": 0.2394943035,
				"y": -3.3037368404,
				"z": 2.1256079803,
				"element": "O" 
			},
			{
				"x": -0.1777295983,
				"y": -1.7157956867,
				"z": 0.6010316863,
				"element": "N" 
			},
			{
				"x": -0.2236556567,
				"y": -0.9510912691,
				"z": -0.5619856589,
				"element": "C" 
			},
			{
				"x": 0.4023675996,
				"y": -1.2529988919,
				"z": -1.7821576326,
				"element": "C" 
			},
			{
				"x": 0.2841718769,
				"y": -0.4081862155,
				"z": -2.8802034136,
				"element": "C" 
			},
			{
				"x": -0.4661046411,
				"y": 0.7703549176,
				"z": -2.7950989109,
				"element": "C" 
			},
			{
				"x": -1.1045862759,
				"y": 1.0990206713,
				"z": -1.5857347197,
				"element": "C" 
			},
			{
				"x": -0.9785393048,
				"y": 0.2495514784,
				"z": -0.5014151145,
				"element": "C" 
			},
			{
				"x": -1.5656233868,
				"y": 0.4718382267,
				"z": 0.7455254542,
				"element": "O" 
			},
			{
				"x": -2.3288045876,
				"y": 1.5733298209,
				"z": 0.9971935107,
				"element": "C" 
			},
			{
				"x": -3.4064285362,
				"y": 1.6350923901,
				"z": 0.1973572902,
				"element": "F" 
			},
			{
				"x": -1.637510824,
				"y": 2.7142102492,
				"z": 0.8381558215,
				"element": "F" 
			},
			{
				"x": -2.7327649113,
				"y": 1.48583828,
				"z": 2.2596717277,
				"element": "F" 
			},
			{
				"x": -0.5881569445,
				"y": 1.640300171,
				"z": -3.9250262939,
				"element": "C" 
			},
			{
				"x": -0.685145828,
				"y": 2.3451334791,
				"z": -4.8457589347,
				"element": "N" 
			},
			{
				"x": 2.1153018202,
				"y": -3.1267810327,
				"z": -0.3515002416,
				"element": "H" 
			},
			{
				"x": 0.6662195823,
				"y": -4.0092772948,
				"z": -0.8758327138,
				"element": "H" 
			},
			{
				"x": 1.6096753582,
				"y": -4.5969157788,
				"z": 0.5131837034,
				"element": "H" 
			},
			{
				"x": -0.6965974125,
				"y": -1.3267998735,
				"z": 1.38006439,
				"element": "H" 
			},
			{
				"x": 0.9892150992,
				"y": -2.1519367544,
				"z": -1.8870951826,
				"element": "H" 
			},
			{
				"x": 0.777957161,
				"y": -0.665274394,
				"z": -3.8105466638,
				"element": "H" 
			},
			{
				"x": -1.6845359034,
				"y": 2.0086767231,
				"z": -1.518064769,
				"element": "H" 
			}
		],
		 "valence_orbital": [ 
			{
				"type": "occ",
				"energy": -0.33856,
				"method": "rhf"
			},
			{
				"type": "occ",
				"energy": -0.32163,
				"method": "rhf"
			},
			{
				"type": "occ",
				"energy": -0.28536,
				"method": "rhf"
			},
			{
				"type": "occ",
				"energy": -0.27846,
				"method": "rhf"
			},
			{
				"type": "occ",
				"energy": -0.24421,
				"method": "rhf"
			},
			{
				"type": "unocc",
				"energy": -0.06547,
				"method": "rhf"
			},
			{
				"type": "unocc",
				"energy": -0.0391,
				"method": "rhf"
			},
			{
				"type": "unocc",
				"energy": 0.0038,
				"method": "rhf"
			},
			{
				"type": "unocc",
				"energy": 0.02715,
				"method": "rhf"
			},
			{
				"type": "unocc",
				"energy": 0.05824,
				"method": "rhf"
			}
		],
		"cosmo_sigma_profile": { 
			"-0.025": 0.0,
			"-0.024": 0.0,
			"-0.023": 0.0,
			"-0.022": 0.0,
			"-0.021": 0.0,
			"-0.02": 0.0,
			"-0.019": 0.0,
			"-0.018": 0.0,
			"-0.017": 0.0,
			"-0.016": 0.0,
			"-0.015": 0.0,
			"-0.014": 0.0,
			"-0.013": 0.0,
			"-0.012": 0.0,
			"-0.011": 0.134932944718,
			"-0.01": 0.818132045156,
			"-0.009": 3.65078274673,
			"-0.008": 9.30832564991,
			"-0.007": 12.7667888303,
			"-0.006": 10.3260984599,
			"-0.005": 11.2815553256,
			"-0.004": 11.6235948502,
			"-0.003": 16.3831135774,
			"-0.002": 25.617093409,
			"-0.001": 27.5812590008,
			"0.0": 27.0279100883,
			"0.001": 33.6410870777,
			"0.002": 16.0348921978,
			"0.003": 3.61011260435,
			"0.004": 2.85137407059,
			"0.005": 3.24629733134,
			"0.006": 4.2096026991,
			"0.007": 3.90633129517,
			"0.008": 4.20464354204,
			"0.009": 4.59051232964,
			"0.01": 5.10678528764,
			"0.011": 5.22861086932,
			"0.012": 7.46340822901,
			"0.013": 4.55977194991,
			"0.014": 0.354351376446,
			"0.015": 0.0,
			"0.016": 0.0,
			"0.017": 0.0,
			"0.018": 0.0,
			"0.019": 0.0,
			"0.02": 0.0,
			"0.021": 0.0,
			"0.022": 0.0,
			"0.023": 0.0,
			"0.024": 0.0,
			"0.025": 0.0
		}
	}
}
