{
	 "smiles": "OC(=O)C1CCN(CC1)C(=O)C1=CC=C(C=C1)C(F)(F)F", 
	 "Tm": 436.15, 
	 "num_atms": 35, 
	 "gaussian": { 
		 "optdone": 1, 
		 "sigma_profile": "yes", 
		 "theory": "DFT", 
		 "functional": "B3LYP", 
		 "basiset": "6-31G**", 
		 "properties": { 
			 "R2extent": 10225.1237, 
			 "electric_dipole_moment_norm": 5.2060370283, 
			 "electric_quadrupole_moment_norm": 29.4361372308, 
			 "total_energy": -1121.89831015, 
			 "HOMO_LUMO_gap": 0.19352, 
			 "cosmo_polarized_energy": -23.81, 
			 "cosmo_cavitation_energy": 39.54, 
			 "cosmo_dispersion_energy": -27.61, 
			 "cosmo_repulsion_energy": 2.04, 
			 "cosmo_total_nonelectrostatic_energy": 13.97, 
			 "SMD_solvation_energy": 8.17 
		},
		"coords": [
			{
				"x": -2.3880381433,
				"y": 4.3305661485,
				"z": 2.2325574763,
				"element": "O" 
			},
			{
				"x": -2.5150556953,
				"y": 3.0851527985,
				"z": 2.7668362153,
				"element": "C" 
			},
			{
				"x": -2.645731294,
				"y": 2.9563588207,
				"z": 3.9580233782,
				"element": "O" 
			},
			{
				"x": -2.465206051,
				"y": 1.9332496479,
				"z": 1.7584794173,
				"element": "C" 
			},
			{
				"x": -1.1388646566,
				"y": 1.9789866854,
				"z": 0.9428483621,
				"element": "C" 
			},
			{
				"x": -0.7497549598,
				"y": 0.5821111148,
				"z": 0.4439607616,
				"element": "C" 
			},
			{
				"x": -0.5051691721,
				"y": -0.3150543344,
				"z": 1.5792595227,
				"element": "N" 
			},
			{
				"x": -1.3018937182,
				"y": -0.0835942392,
				"z": 2.7997306293,
				"element": "C" 
			},
			{
				"x": -2.6403124837,
				"y": 0.5637048473,
				"z": 2.4499383859,
				"element": "C" 
			},
			{
				"x": 0.6006221396,
				"y": -1.1185970577,
				"z": 1.722787181,
				"element": "C" 
			},
			{
				"x": 0.9217532299,
				"y": -1.5726708386,
				"z": 2.8193784041,
				"element": "O" 
			},
			{
				"x": 1.4090464155,
				"y": -1.4798917489,
				"z": 0.5020023701,
				"element": "C" 
			},
			{
				"x": 0.8303588537,
				"y": -1.8509710806,
				"z": -0.7190986859,
				"element": "C" 
			},
			{
				"x": 1.6290162533,
				"y": -2.2708403609,
				"z": -1.7815142258,
				"element": "C" 
			},
			{
				"x": 3.0167265107,
				"y": -2.3147509928,
				"z": -1.6321522696,
				"element": "C" 
			},
			{
				"x": 3.6030819417,
				"y": -1.9608577849,
				"z": -0.4126425456,
				"element": "C" 
			},
			{
				"x": 2.8005842497,
				"y": -1.5611459002,
				"z": 0.6508516447,
				"element": "C" 
			},
			{
				"x": 3.8860718726,
				"y": -2.6976742518,
				"z": -2.8000904051,
				"element": "C" 
			},
			{
				"x": 3.2528060401,
				"y": -3.5411511623,
				"z": -3.6446085837,
				"element": "F" 
			},
			{
				"x": 5.0279905817,
				"y": -3.2985743132,
				"z": -2.4021800435,
				"element": "F" 
			},
			{
				"x": 4.245290958,
				"y": -1.6121141716,
				"z": -3.5255266193,
				"element": "F" 
			},
			{
				"x": -2.3094750155,
				"y": 4.2802207186,
				"z": 1.2695483912,
				"element": "H" 
			},
			{
				"x": -3.3040114695,
				"y": 2.0873883138,
				"z": 1.0650205054,
				"element": "H" 
			},
			{
				"x": -0.3225800681,
				"y": 2.3640946224,
				"z": 1.5644578138,
				"element": "H" 
			},
			{
				"x": -1.2249509297,
				"y": 2.6485097143,
				"z": 0.0786505547,
				"element": "H" 
			},
			{
				"x": -1.547432933,
				"y": 0.1910356998,
				"z": -0.2048145312,
				"element": "H" 
			},
			{
				"x": 0.154425993,
				"y": 0.6460359461,
				"z": -0.1625819305,
				"element": "H" 
			},
			{
				"x": -0.7448512117,
				"y": 0.5464891353,
				"z": 3.5053466099,
				"element": "H" 
			},
			{
				"x": -1.4462695257,
				"y": -1.0460582029,
				"z": 3.294573023,
				"element": "H" 
			},
			{
				"x": -3.2195143737,
				"y": 0.6950620304,
				"z": 3.3663786931,
				"element": "H" 
			},
			{
				"x": -3.2053856481,
				"y": -0.1067479031,
				"z": 1.7933857592,
				"element": "H" 
			},
			{
				"x": -0.2486824362,
				"y": -1.839690402,
				"z": -0.8351056871,
				"element": "H" 
			},
			{
				"x": 1.1772020505,
				"y": -2.5761442504,
				"z": -2.7190318503,
				"element": "H" 
			},
			{
				"x": 4.6799456164,
				"y": -2.0167472036,
				"z": -0.295757549,
				"element": "H" 
			},
			{
				"x": 3.236357079,
				"y": -1.3209900447,
				"z": 1.6145898276,
				"element": "H" 
			}
		],
		 "valence_orbital": [ 
			{
				"type": "occ",
				"energy": -0.28246,
				"method": "rhf"
			},
			{
				"type": "occ",
				"energy": -0.27974,
				"method": "rhf"
			},
			{
				"type": "occ",
				"energy": -0.27546,
				"method": "rhf"
			},
			{
				"type": "occ",
				"energy": -0.25549,
				"method": "rhf"
			},
			{
				"type": "occ",
				"energy": -0.24566,
				"method": "rhf"
			},
			{
				"type": "unocc",
				"energy": -0.05214,
				"method": "rhf"
			},
			{
				"type": "unocc",
				"energy": -0.02556,
				"method": "rhf"
			},
			{
				"type": "unocc",
				"energy": -0.002,
				"method": "rhf"
			},
			{
				"type": "unocc",
				"energy": 0.0292,
				"method": "rhf"
			},
			{
				"type": "unocc",
				"energy": 0.03873,
				"method": "rhf"
			}
		],
		"cosmo_sigma_profile": { 
			"-0.025": 0.0,
			"-0.024": 0.0,
			"-0.023": 0.0,
			"-0.022": 0.0,
			"-0.021": 0.0,
			"-0.02": 0.0,
			"-0.019": 0.219920799235,
			"-0.018": 0.820340903297,
			"-0.017": 0.551629010456,
			"-0.016": 2.05629475079,
			"-0.015": 0.746306545831,
			"-0.014": 0.853086745089,
			"-0.013": 1.17267170995,
			"-0.012": 1.38000839179,
			"-0.011": 0.661586499008,
			"-0.01": 1.32145069875,
			"-0.009": 1.2000182026,
			"-0.008": 2.61572765304,
			"-0.007": 8.81001834771,
			"-0.006": 16.741320728,
			"-0.005": 26.5206866964,
			"-0.004": 25.9824574647,
			"-0.003": 24.4720300126,
			"-0.002": 20.0207882852,
			"-0.001": 18.3953602942,
			"0.0": 17.5951208256,
			"0.001": 19.2797705633,
			"0.002": 32.9173179616,
			"0.003": 33.382774318,
			"0.004": 4.9553327887,
			"0.005": 4.59211286836,
			"0.006": 4.08222125175,
			"0.007": 3.99524529161,
			"0.008": 4.19300259765,
			"0.009": 4.0386908539,
			"0.01": 6.77490916297,
			"0.011": 6.68934048796,
			"0.012": 6.27622264903,
			"0.013": 5.03653370837,
			"0.014": 4.19671918014,
			"0.015": 0.362137375465,
			"0.016": 0.0,
			"0.017": 0.0,
			"0.018": 0.0,
			"0.019": 0.0,
			"0.02": 0.0,
			"0.021": 0.0,
			"0.022": 0.0,
			"0.023": 0.0,
			"0.024": 0.0,
			"0.025": 0.0
		}
	}
}
