{
	 "smiles": "BrC1=C2OCOC2=CC(C=O)=C1", 
	 "Tm": 391.15, 
	 "num_atms": 17, 
	 "gaussian": { 
		 "optdone": 1, 
		 "sigma_profile": "yes", 
		 "theory": "DFT", 
		 "functional": "B3LYP", 
		 "basiset": "6-31G**", 
		 "properties": { 
			 "R2extent": 4018.2085, 
			 "electric_dipole_moment_norm": 4.33302827824, 
			 "electric_quadrupole_moment_norm": 2.05980865859, 
			 "total_energy": -3104.8998682, 
			 "HOMO_LUMO_gap": 0.16526, 
			 "cosmo_polarized_energy": -10.1, 
			 "cosmo_cavitation_energy": 24.51, 
			 "cosmo_dispersion_energy": -18.68, 
			 "cosmo_repulsion_energy": 1.48, 
			 "cosmo_total_nonelectrostatic_energy": 7.31, 
			 "SMD_solvation_energy": 4.88 
		},
		"coords": [
			{
				"x": -3.2655625074,
				"y": -1.7753621208,
				"z": -1.6024494037,
				"element": "Br" 
			},
			{
				"x": -1.8236696303,
				"y": -0.7949888786,
				"z": -0.8540864755,
				"element": "C" 
			},
			{
				"x": -1.3061662129,
				"y": 0.3095332318,
				"z": -1.5141341144,
				"element": "C" 
			},
			{
				"x": -1.6944981796,
				"y": 0.8449922452,
				"z": -2.7021914605,
				"element": "O" 
			},
			{
				"x": -0.8365551977,
				"y": 1.9755566076,
				"z": -2.9325674277,
				"element": "C" 
			},
			{
				"x": 0.0677230007,
				"y": 2.0745559122,
				"z": -1.826163952,
				"element": "O" 
			},
			{
				"x": -0.2453225089,
				"y": 1.0428655716,
				"z": -0.9783211239,
				"element": "C" 
			},
			{
				"x": 0.3406545662,
				"y": 0.7136179935,
				"z": 0.2236470444,
				"element": "C" 
			},
			{
				"x": -0.1836441315,
				"y": -0.4109944627,
				"z": 0.899191908,
				"element": "C" 
			},
			{
				"x": 0.4030691602,
				"y": -0.8159033468,
				"z": 2.1954216391,
				"element": "C" 
			},
			{
				"x": 0.0308314677,
				"y": -1.7645093514,
				"z": 2.8594474371,
				"element": "O" 
			},
			{
				"x": -1.2478982672,
				"y": -1.1516814711,
				"z": 0.3678369548,
				"element": "C" 
			},
			{
				"x": -1.446176304,
				"y": 2.8841559335,
				"z": -2.9941335806,
				"element": "H" 
			},
			{
				"x": -0.2719590631,
				"y": 1.8169772658,
				"z": -3.8583520259,
				"element": "H" 
			},
			{
				"x": 1.1646205712,
				"y": 1.2882128118,
				"z": 0.6335756813,
				"element": "H" 
			},
			{
				"x": 1.242598746,
				"y": -0.171565101,
				"z": 2.5400956437,
				"element": "H" 
			},
			{
				"x": -1.6137455093,
				"y": -2.0061628404,
				"z": 0.9252832557,
				"element": "H" 
			}
		],
		 "valence_orbital": [ 
			{
				"type": "occ",
				"energy": -0.31355,
				"method": "rhf"
			},
			{
				"type": "occ",
				"energy": -0.29684,
				"method": "rhf"
			},
			{
				"type": "occ",
				"energy": -0.25925,
				"method": "rhf"
			},
			{
				"type": "occ",
				"energy": -0.25501,
				"method": "rhf"
			},
			{
				"type": "occ",
				"energy": -0.23092,
				"method": "rhf"
			},
			{
				"type": "unocc",
				"energy": -0.06566,
				"method": "rhf"
			},
			{
				"type": "unocc",
				"energy": -0.02272,
				"method": "rhf"
			},
			{
				"type": "unocc",
				"energy": -0.00247,
				"method": "rhf"
			},
			{
				"type": "unocc",
				"energy": 0.04027,
				"method": "rhf"
			},
			{
				"type": "unocc",
				"energy": 0.07985,
				"method": "rhf"
			}
		],
		"cosmo_sigma_profile": { 
			"-0.025": 0.0,
			"-0.024": 0.0,
			"-0.023": 0.0,
			"-0.022": 0.0,
			"-0.021": 0.0,
			"-0.02": 0.0,
			"-0.019": 0.0,
			"-0.018": 0.0,
			"-0.017": 0.0,
			"-0.016": 0.0,
			"-0.015": 0.0,
			"-0.014": 0.0,
			"-0.013": 0.0,
			"-0.012": 0.0,
			"-0.011": 0.0,
			"-0.01": 0.0,
			"-0.009": 3.0698029867,
			"-0.008": 11.9383772355,
			"-0.007": 10.8361587341,
			"-0.006": 10.0673517576,
			"-0.005": 8.71176983658,
			"-0.004": 9.39491849327,
			"-0.003": 9.48067362582,
			"-0.002": 12.2655110105,
			"-0.001": 12.7659585351,
			"0.0": 17.5629845291,
			"0.001": 22.0228174425,
			"0.002": 14.7726618434,
			"0.003": 12.9987386088,
			"0.004": 12.4020073612,
			"0.005": 5.12061418239,
			"0.006": 5.13960277143,
			"0.007": 4.75342888839,
			"0.008": 4.34739411615,
			"0.009": 3.349060742,
			"0.01": 2.44064817252,
			"0.011": 4.37026125337,
			"0.012": 2.35942465156,
			"0.013": 0.701652555032,
			"0.014": 0.0,
			"0.015": 0.0,
			"0.016": 0.0,
			"0.017": 0.0,
			"0.018": 0.0,
			"0.019": 0.0,
			"0.02": 0.0,
			"0.021": 0.0,
			"0.022": 0.0,
			"0.023": 0.0,
			"0.024": 0.0,
			"0.025": 0.0
		}
	}
}
