{
	 "smiles": "COC1=CC=CC=C1CC#N", 
	 "Tm": 341.05, 
	 "num_atms": 20, 
	 "gaussian": { 
		 "optdone": 1, 
		 "sigma_profile": "yes", 
		 "theory": "DFT", 
		 "functional": "B3LYP", 
		 "basiset": "6-31G**", 
		 "properties": { 
			 "R2extent": 1818.8576, 
			 "electric_dipole_moment_norm": 4.3845376096, 
			 "electric_quadrupole_moment_norm": 16.1545527403, 
			 "total_energy": -478.32865525, 
			 "HOMO_LUMO_gap": 0.21445, 
			 "cosmo_polarized_energy": -11.47, 
			 "cosmo_cavitation_energy": 24.73, 
			 "cosmo_dispersion_energy": -17.28, 
			 "cosmo_repulsion_energy": 1.4, 
			 "cosmo_total_nonelectrostatic_energy": 8.85, 
			 "SMD_solvation_energy": 6.42 
		},
		"coords": [
			{
				"x": -1.7652302949,
				"y": 0.168672769,
				"z": -1.8245987662,
				"element": "C" 
			},
			{
				"x": -0.7569452594,
				"y": 0.7308687333,
				"z": -0.996958211,
				"element": "O" 
			},
			{
				"x": -0.3001189652,
				"y": 0.0040356862,
				"z": 0.0630800233,
				"element": "C" 
			},
			{
				"x": -0.799965489,
				"y": -1.2451013324,
				"z": 0.4434564435,
				"element": "C" 
			},
			{
				"x": -0.2578388022,
				"y": -1.8984370112,
				"z": 1.5542245872,
				"element": "C" 
			},
			{
				"x": 0.7726991702,
				"y": -1.3168026405,
				"z": 2.2873984226,
				"element": "C" 
			},
			{
				"x": 1.2664072902,
				"y": -0.067699241,
				"z": 1.8999646414,
				"element": "C" 
			},
			{
				"x": 0.7445877753,
				"y": 0.6030745331,
				"z": 0.7963146952,
				"element": "C" 
			},
			{
				"x": 1.2725590333,
				"y": 1.9628800693,
				"z": 0.3725803633,
				"element": "C" 
			},
			{
				"x": 2.1099581426,
				"y": 1.9084693865,
				"z": -0.8349773686,
				"element": "C" 
			},
			{
				"x": 2.7814986843,
				"y": 1.8653018279,
				"z": -1.7805300063,
				"element": "N" 
			},
			{
				"x": -1.433846624,
				"y": -0.7753750467,
				"z": -2.2737798856,
				"element": "H" 
			},
			{
				"x": -2.69523619,
				"y": -0.0018756116,
				"z": -1.2676438929,
				"element": "H" 
			},
			{
				"x": -1.9465695882,
				"y": 0.8988811509,
				"z": -2.6141852658,
				"element": "H" 
			},
			{
				"x": -1.6025171619,
				"y": -1.7122205086,
				"z": -0.1146571939,
				"element": "H" 
			},
			{
				"x": -0.6519077338,
				"y": -2.8690659168,
				"z": 1.8411725664,
				"element": "H" 
			},
			{
				"x": 1.1916469358,
				"y": -1.8250893279,
				"z": 3.1498240306,
				"element": "H" 
			},
			{
				"x": 2.0729761248,
				"y": 0.3943649143,
				"z": 2.4635922063,
				"element": "H" 
			},
			{
				"x": 0.4426444941,
				"y": 2.6491308228,
				"z": 0.1702921479,
				"element": "H" 
			},
			{
				"x": 1.8702984578,
				"y": 2.3985867434,
				"z": 1.1801304627,
				"element": "H" 
			}
		],
		 "valence_orbital": [ 
			{
				"type": "occ",
				"energy": -0.32992,
				"method": "rhf"
			},
			{
				"type": "occ",
				"energy": -0.31241,
				"method": "rhf"
			},
			{
				"type": "occ",
				"energy": -0.31203,
				"method": "rhf"
			},
			{
				"type": "occ",
				"energy": -0.25893,
				"method": "rhf"
			},
			{
				"type": "occ",
				"energy": -0.22898,
				"method": "rhf"
			},
			{
				"type": "unocc",
				"energy": -0.01453,
				"method": "rhf"
			},
			{
				"type": "unocc",
				"energy": 0.00132,
				"method": "rhf"
			},
			{
				"type": "unocc",
				"energy": 0.04832,
				"method": "rhf"
			},
			{
				"type": "unocc",
				"energy": 0.05176,
				"method": "rhf"
			},
			{
				"type": "unocc",
				"energy": 0.08583,
				"method": "rhf"
			}
		],
		"cosmo_sigma_profile": { 
			"-0.025": 0.0,
			"-0.024": 0.0,
			"-0.023": 0.0,
			"-0.022": 0.0,
			"-0.021": 0.0,
			"-0.02": 0.0,
			"-0.019": 0.0,
			"-0.018": 0.0,
			"-0.017": 0.0,
			"-0.016": 0.0,
			"-0.015": 0.0,
			"-0.014": 0.0,
			"-0.013": 0.0,
			"-0.012": 0.0,
			"-0.011": 0.0,
			"-0.01": 0.0,
			"-0.009": 1.0966023724,
			"-0.008": 4.55124107791,
			"-0.007": 6.41414923094,
			"-0.006": 15.649445523,
			"-0.005": 20.3574985613,
			"-0.004": 19.2772571912,
			"-0.003": 16.7178003273,
			"-0.002": 10.8308459992,
			"-0.001": 8.55378292629,
			"0.0": 8.67056189081,
			"0.001": 8.686345093,
			"0.002": 11.04192622,
			"0.003": 10.8796281713,
			"0.004": 12.2900320207,
			"0.005": 12.032630002,
			"0.006": 8.30934605939,
			"0.007": 3.87443418299,
			"0.008": 3.16481749212,
			"0.009": 3.846407921,
			"0.01": 3.30530789082,
			"0.011": 3.14392605662,
			"0.012": 2.62281037478,
			"0.013": 2.04760293543,
			"0.014": 0.574466450474,
			"0.015": 0.0,
			"0.016": 0.0,
			"0.017": 0.0,
			"0.018": 0.0,
			"0.019": 0.0,
			"0.02": 0.0,
			"0.021": 0.0,
			"0.022": 0.0,
			"0.023": 0.0,
			"0.024": 0.0,
			"0.025": 0.0
		}
	}
}
