{
	 "smiles": "COC1=CC(OC)=C(C=C1)C(N)=NO", 
	 "Tm": 403.15, 
	 "num_atms": 26, 
	 "gaussian": { 
		 "optdone": 1, 
		 "sigma_profile": "yes", 
		 "theory": "DFT", 
		 "functional": "B3LYP", 
		 "basiset": "6-31G**", 
		 "properties": { 
			 "R2extent": 3748.8129, 
			 "electric_dipole_moment_norm": 1.83796356329, 
			 "electric_quadrupole_moment_norm": 13.6973102579, 
			 "total_energy": -685.283251552, 
			 "HOMO_LUMO_gap": 0.19142, 
			 "cosmo_polarized_energy": -14.55, 
			 "cosmo_cavitation_energy": 29.84, 
			 "cosmo_dispersion_energy": -21.82, 
			 "cosmo_repulsion_energy": 1.75, 
			 "cosmo_total_nonelectrostatic_energy": 9.78, 
			 "SMD_solvation_energy": 7.02 
		},
		"coords": [
			{
				"x": -3.5494921308,
				"y": -0.3050577891,
				"z": 1.4689809289,
				"element": "C" 
			},
			{
				"x": -2.1586317496,
				"y": -0.3821454766,
				"z": 1.740664031,
				"element": "O" 
			},
			{
				"x": -1.2991029655,
				"y": -0.4663501952,
				"z": 0.685868605,
				"element": "C" 
			},
			{
				"x": 0.0592941456,
				"y": -0.5512654597,
				"z": 1.0159393965,
				"element": "C" 
			},
			{
				"x": 1.0320283836,
				"y": -0.642795833,
				"z": 0.0243471716,
				"element": "C" 
			},
			{
				"x": 2.3388986046,
				"y": -0.8133196082,
				"z": 0.4071511002,
				"element": "O" 
			},
			{
				"x": 3.0471348621,
				"y": 0.3884964861,
				"z": 0.7211602352,
				"element": "C" 
			},
			{
				"x": 0.6628456294,
				"y": -0.6460140658,
				"z": -1.340923091,
				"element": "C" 
			},
			{
				"x": -0.7036972873,
				"y": -0.578207476,
				"z": -1.6453422285,
				"element": "C" 
			},
			{
				"x": -1.6855600448,
				"y": -0.4830009858,
				"z": -0.6597688,
				"element": "C" 
			},
			{
				"x": 1.6423644212,
				"y": -0.7557297898,
				"z": -2.4497705166,
				"element": "C" 
			},
			{
				"x": 1.2916611963,
				"y": -1.5710030887,
				"z": -3.5139145987,
				"element": "N" 
			},
			{
				"x": 2.7139917882,
				"y": -0.033432415,
				"z": -2.4215335624,
				"element": "N" 
			},
			{
				"x": 3.5007255406,
				"y": -0.3076036682,
				"z": -3.5822291329,
				"element": "O" 
			},
			{
				"x": -3.799127026,
				"y": 0.5893982711,
				"z": 0.8840354045,
				"element": "H" 
			},
			{
				"x": -3.9078042249,
				"y": -1.1942438064,
				"z": 0.9345404107,
				"element": "H" 
			},
			{
				"x": -4.0431076965,
				"y": -0.24744762,
				"z": 2.4402689556,
				"element": "H" 
			},
			{
				"x": 0.3524866324,
				"y": -0.5737215101,
				"z": 2.0597373314,
				"element": "H" 
			},
			{
				"x": 4.0335190806,
				"y": 0.0774285551,
				"z": 1.072224561,
				"element": "H" 
			},
			{
				"x": 2.5419303929,
				"y": 0.9502225883,
				"z": 1.518067566,
				"element": "H" 
			},
			{
				"x": 3.1533507722,
				"y": 1.0120655776,
				"z": -0.1715028986,
				"element": "H" 
			},
			{
				"x": -1.0011705938,
				"y": -0.5803602105,
				"z": -2.6893485362,
				"element": "H" 
			},
			{
				"x": -2.727496948,
				"y": -0.4207374351,
				"z": -0.948677807,
				"element": "H" 
			},
			{
				"x": 2.0507537324,
				"y": -1.7313947633,
				"z": -4.163095456,
				"element": "H" 
			},
			{
				"x": 0.7684754365,
				"y": -2.3986351673,
				"z": -3.2664608953,
				"element": "H" 
			},
			{
				"x": 4.2766300484,
				"y": 0.2438548856,
				"z": -3.4287181747,
				"element": "H" 
			}
		],
		 "valence_orbital": [ 
			{
				"type": "occ",
				"energy": -0.26611,
				"method": "rhf"
			},
			{
				"type": "occ",
				"energy": -0.26193,
				"method": "rhf"
			},
			{
				"type": "occ",
				"energy": -0.23899,
				"method": "rhf"
			},
			{
				"type": "occ",
				"energy": -0.22913,
				"method": "rhf"
			},
			{
				"type": "occ",
				"energy": -0.20038,
				"method": "rhf"
			},
			{
				"type": "unocc",
				"energy": -0.00896,
				"method": "rhf"
			},
			{
				"type": "unocc",
				"energy": 0.00159,
				"method": "rhf"
			},
			{
				"type": "unocc",
				"energy": 0.05886,
				"method": "rhf"
			},
			{
				"type": "unocc",
				"energy": 0.08366,
				"method": "rhf"
			},
			{
				"type": "unocc",
				"energy": 0.09391,
				"method": "rhf"
			}
		],
		"cosmo_sigma_profile": { 
			"-0.025": 0.0,
			"-0.024": 0.0,
			"-0.023": 0.0,
			"-0.022": 0.0,
			"-0.021": 0.0,
			"-0.02": 0.0,
			"-0.019": 0.0,
			"-0.018": 0.0,
			"-0.017": 0.24173199043,
			"-0.016": 0.806422883425,
			"-0.015": 1.01783475967,
			"-0.014": 1.06906909987,
			"-0.013": 1.47132455607,
			"-0.012": 1.61752517598,
			"-0.011": 2.43430694755,
			"-0.01": 2.31205974537,
			"-0.009": 3.33252969214,
			"-0.008": 2.23603635011,
			"-0.007": 3.49915993703,
			"-0.006": 10.9999448183,
			"-0.005": 18.8693020155,
			"-0.004": 19.1097614148,
			"-0.003": 21.1605218255,
			"-0.002": 18.3954381429,
			"-0.001": 11.5399677212,
			"0.0": 10.2508719926,
			"0.001": 9.07499615964,
			"0.002": 11.6346893543,
			"0.003": 16.9730604028,
			"0.004": 15.7074650351,
			"0.005": 9.05622287477,
			"0.006": 8.61001277444,
			"0.007": 6.99739265,
			"0.008": 6.73884209729,
			"0.009": 7.94948047477,
			"0.01": 5.19697361909,
			"0.011": 4.26173360185,
			"0.012": 2.89324564706,
			"0.013": 0.349673039459,
			"0.014": 0.0,
			"0.015": 0.0,
			"0.016": 0.0,
			"0.017": 0.0,
			"0.018": 0.0,
			"0.019": 0.0,
			"0.02": 0.0,
			"0.021": 0.0,
			"0.022": 0.0,
			"0.023": 0.0,
			"0.024": 0.0,
			"0.025": 0.0
		}
	}
}
