{
	 "smiles": "CC1(CCCCC1)C(=O)NC1=CC=C(O)C(Cl)=C1Cl", 
	 "Tm": 426.15, 
	 "num_atms": 36, 
	 "gaussian": { 
		 "optdone": 1, 
		 "sigma_profile": "yes", 
		 "theory": "DFT", 
		 "functional": "B3LYP", 
		 "basiset": "6-31G**", 
		 "properties": { 
			 "R2extent": 8589.5702, 
			 "electric_dipole_moment_norm": 1.38841375317, 
			 "electric_quadrupole_moment_norm": 21.6718834834, 
			 "total_energy": -1669.34234853, 
			 "HOMO_LUMO_gap": 0.19164, 
			 "cosmo_polarized_energy": -13.05, 
			 "cosmo_cavitation_energy": 39.29, 
			 "cosmo_dispersion_energy": -28.36, 
			 "cosmo_repulsion_energy": 2.15, 
			 "cosmo_total_nonelectrostatic_energy": 13.08, 
			 "SMD_solvation_energy": 6.05 
		},
		"coords": [
			{
				"x": -0.3964812842,
				"y": -3.3285302199,
				"z": -1.4525223632,
				"element": "C" 
			},
			{
				"x": -0.1885870311,
				"y": -2.2915685851,
				"z": -0.3307834155,
				"element": "C" 
			},
			{
				"x": 1.2557698489,
				"y": -1.7129102882,
				"z": -0.4660992149,
				"element": "C" 
			},
			{
				"x": 1.8480640183,
				"y": -1.0320342694,
				"z": 0.7794677283,
				"element": "C" 
			},
			{
				"x": 1.7136481348,
				"y": -1.916445298,
				"z": 2.0274444432,
				"element": "C" 
			},
			{
				"x": 0.2538060537,
				"y": -2.3253621002,
				"z": 2.2709621781,
				"element": "C" 
			},
			{
				"x": -0.3544400049,
				"y": -3.019977036,
				"z": 1.0407989614,
				"element": "C" 
			},
			{
				"x": -1.2750022537,
				"y": -1.2015013282,
				"z": -0.545837468,
				"element": "C" 
			},
			{
				"x": -2.0782658627,
				"y": -1.2776100313,
				"z": -1.468004798,
				"element": "O" 
			},
			{
				"x": -1.2852851423,
				"y": -0.1505829934,
				"z": 0.3523519276,
				"element": "N" 
			},
			{
				"x": -2.1527263504,
				"y": 0.9573167243,
				"z": 0.3851647558,
				"element": "C" 
			},
			{
				"x": -3.185388953,
				"y": 1.1582292999,
				"z": -0.5433284287,
				"element": "C" 
			},
			{
				"x": -4.0098531956,
				"y": 2.2736942825,
				"z": -0.4581458051,
				"element": "C" 
			},
			{
				"x": -3.8454985028,
				"y": 3.2296411451,
				"z": 0.5445770242,
				"element": "C" 
			},
			{
				"x": -4.6324149337,
				"y": 4.3333082,
				"z": 0.6596562752,
				"element": "O" 
			},
			{
				"x": -2.8185644618,
				"y": 3.048901382,
				"z": 1.4844650637,
				"element": "C" 
			},
			{
				"x": -2.6152121295,
				"y": 4.2427339187,
				"z": 2.7348858893,
				"element": "Cl" 
			},
			{
				"x": -1.9868584419,
				"y": 1.9254675097,
				"z": 1.4000932278,
				"element": "C" 
			},
			{
				"x": -0.708139272,
				"y": 1.7164706076,
				"z": 2.5845624295,
				"element": "Cl" 
			},
			{
				"x": 0.3441843541,
				"y": -4.1284284887,
				"z": -1.3548317984,
				"element": "H" 
			},
			{
				"x": -0.2900810492,
				"y": -2.8709329969,
				"z": -2.438898031,
				"element": "H" 
			},
			{
				"x": -1.3955158428,
				"y": -3.7681509063,
				"z": -1.4047186089,
				"element": "H" 
			},
			{
				"x": 1.9059381492,
				"y": -2.5621363786,
				"z": -0.7142087077,
				"element": "H" 
			},
			{
				"x": 1.2985477358,
				"y": -1.0383063832,
				"z": -1.3296724574,
				"element": "H" 
			},
			{
				"x": 1.3786082377,
				"y": -0.0563433681,
				"z": 0.9604519097,
				"element": "H" 
			},
			{
				"x": 2.9044251609,
				"y": -0.809737171,
				"z": 0.5875591705,
				"element": "H" 
			},
			{
				"x": 2.1162961368,
				"y": -1.3995088379,
				"z": 2.9060661793,
				"element": "H" 
			},
			{
				"x": 2.3211332583,
				"y": -2.8223831465,
				"z": 1.8912211104,
				"element": "H" 
			},
			{
				"x": 0.1919743221,
				"y": -3.0096901578,
				"z": 3.1253687433,
				"element": "H" 
			},
			{
				"x": -0.3363999136,
				"y": -1.4473722571,
				"z": 2.5640567579,
				"element": "H" 
			},
			{
				"x": 0.1436261334,
				"y": -3.9927553954,
				"z": 0.9353732158,
				"element": "H" 
			},
			{
				"x": -1.4151618852,
				"y": -3.2413401892,
				"z": 1.2097661702,
				"element": "H" 
			},
			{
				"x": -0.5906405046,
				"y": -0.1630073424,
				"z": 1.082432518,
				"element": "H" 
			},
			{
				"x": -3.3225720416,
				"y": 0.4253383014,
				"z": -1.3239150802,
				"element": "H" 
			},
			{
				"x": -4.8022676016,
				"y": 2.4036533947,
				"z": -1.191577474,
				"element": "H" 
			},
			{
				"x": -5.2884648859,
				"y": 4.3234604028,
				"z": -0.0492820283,
				"element": "H" 
			}
		],
		 "valence_orbital": [ 
			{
				"type": "occ",
				"energy": -0.30391,
				"method": "rhf"
			},
			{
				"type": "occ",
				"energy": -0.29418,
				"method": "rhf"
			},
			{
				"type": "occ",
				"energy": -0.25151,
				"method": "rhf"
			},
			{
				"type": "occ",
				"energy": -0.25073,
				"method": "rhf"
			},
			{
				"type": "occ",
				"energy": -0.21464,
				"method": "rhf"
			},
			{
				"type": "unocc",
				"energy": -0.023,
				"method": "rhf"
			},
			{
				"type": "unocc",
				"energy": -0.01553,
				"method": "rhf"
			},
			{
				"type": "unocc",
				"energy": -0.00328,
				"method": "rhf"
			},
			{
				"type": "unocc",
				"energy": 0.04067,
				"method": "rhf"
			},
			{
				"type": "unocc",
				"energy": 0.0591,
				"method": "rhf"
			}
		],
		"cosmo_sigma_profile": { 
			"-0.025": 0.0,
			"-0.024": 0.0,
			"-0.023": 0.0,
			"-0.022": 0.0,
			"-0.021": 0.0,
			"-0.02": 0.0,
			"-0.019": 0.496263662034,
			"-0.018": 1.1484865574,
			"-0.017": 1.00362620238,
			"-0.016": 1.6035885632,
			"-0.015": 0.960678404069,
			"-0.014": 0.576235559223,
			"-0.013": 0.500802854199,
			"-0.012": 1.2870414436,
			"-0.011": 1.26474721469,
			"-0.01": 1.56600195334,
			"-0.009": 1.27551809414,
			"-0.008": 1.26857475101,
			"-0.007": 2.44615137785,
			"-0.006": 3.00870083398,
			"-0.005": 4.45082728969,
			"-0.004": 7.79230770793,
			"-0.003": 30.4209361416,
			"-0.002": 41.4044595703,
			"-0.001": 40.7173287955,
			"0.0": 42.092055368,
			"0.001": 37.5743499563,
			"0.002": 21.6022293607,
			"0.003": 18.718041912,
			"0.004": 16.923611831,
			"0.005": 7.7869078057,
			"0.006": 3.95180031727,
			"0.007": 3.22886867175,
			"0.008": 3.4258736874,
			"0.009": 3.72512077791,
			"0.01": 3.62923456474,
			"0.011": 3.27888435474,
			"0.012": 2.12103858665,
			"0.013": 1.91173569057,
			"0.014": 0.255694971169,
			"0.015": 0.0,
			"0.016": 0.0,
			"0.017": 0.0,
			"0.018": 0.0,
			"0.019": 0.0,
			"0.02": 0.0,
			"0.021": 0.0,
			"0.022": 0.0,
			"0.023": 0.0,
			"0.024": 0.0,
			"0.025": 0.0
		}
	}
}
