{
	 "smiles": "COC1=CC=C(NS(=O)(=O)C2=CC(=C(NN)C=C2)[N+]([O-])=O)C=C1", 
	 "Tm": 478.15, 
	 "num_atms": 37, 
	 "gaussian": { 
		 "optdone": 1, 
		 "sigma_profile": "yes", 
		 "theory": "DFT", 
		 "functional": "B3LYP", 
		 "basiset": "6-31G**", 
		 "properties": { 
			 "R2extent": 9828.382, 
			 "electric_dipole_moment_norm": 9.34614106624, 
			 "electric_quadrupole_moment_norm": 18.79841607, 
			 "total_energy": -1496.90327073, 
			 "HOMO_LUMO_gap": 0.13724, 
			 "cosmo_polarized_energy": -29.65, 
			 "cosmo_cavitation_energy": 43.85, 
			 "cosmo_dispersion_energy": -30.57, 
			 "cosmo_repulsion_energy": 2.33, 
			 "cosmo_total_nonelectrostatic_energy": 15.61, 
			 "SMD_solvation_energy": 10.08 
		},
		"coords": [
			{
				"x": -1.27721884,
				"y": -0.4631464518,
				"z": 6.0276428448,
				"element": "C" 
			},
			{
				"x": -1.2359972203,
				"y": 0.4909877982,
				"z": 4.9779964577,
				"element": "O" 
			},
			{
				"x": -0.1947998036,
				"y": 0.4376643049,
				"z": 4.0976332192,
				"element": "C" 
			},
			{
				"x": -0.1923462093,
				"y": 1.4210242713,
				"z": 3.0971548886,
				"element": "C" 
			},
			{
				"x": 0.8162111257,
				"y": 1.4444216565,
				"z": 2.1432115614,
				"element": "C" 
			},
			{
				"x": 1.8602179645,
				"y": 0.5076060586,
				"z": 2.1862559681,
				"element": "C" 
			},
			{
				"x": 2.9284576832,
				"y": 0.5680324055,
				"z": 1.2419405875,
				"element": "N" 
			},
			{
				"x": 3.2003271654,
				"y": -0.6767602668,
				"z": 0.1172334964,
				"element": "S" 
			},
			{
				"x": 3.3250282809,
				"y": -1.9176520464,
				"z": 0.8816760225,
				"element": "O" 
			},
			{
				"x": 4.2691438685,
				"y": -0.1589743019,
				"z": -0.7371272922,
				"element": "O" 
			},
			{
				"x": 1.7196251676,
				"y": -0.8212592594,
				"z": -0.8765457877,
				"element": "C" 
			},
			{
				"x": 1.604321139,
				"y": -0.0810754792,
				"z": -2.0478486658,
				"element": "C" 
			},
			{
				"x": 0.4479349425,
				"y": -0.1830547719,
				"z": -2.8177482845,
				"element": "C" 
			},
			{
				"x": -0.6527853088,
				"y": -0.9672530877,
				"z": -2.3964105049,
				"element": "C" 
			},
			{
				"x": -1.8465121908,
				"y": -1.0283139348,
				"z": -3.0735705179,
				"element": "N" 
			},
			{
				"x": -2.3096967995,
				"y": 0.1018707084,
				"z": -3.7687706138,
				"element": "N" 
			},
			{
				"x": -0.486040712,
				"y": -1.7280747737,
				"z": -1.2179996826,
				"element": "C" 
			},
			{
				"x": 0.6790729169,
				"y": -1.6694058236,
				"z": -0.4726293717,
				"element": "C" 
			},
			{
				"x": 0.5005871569,
				"y": 0.4577922056,
				"z": -4.1388608168,
				"element": "N" 
			},
			{
				"x": 0.0303377241,
				"y": -0.1588774892,
				"z": -5.0942047668,
				"element": "O" 
			},
			{
				"x": 1.0872697998,
				"y": 1.5355438125,
				"z": -4.2183035317,
				"element": "O" 
			},
			{
				"x": 1.865989963,
				"y": -0.4605600822,
				"z": 3.1942275673,
				"element": "C" 
			},
			{
				"x": 0.8368292884,
				"y": -0.5088530781,
				"z": 4.136391794,
				"element": "C" 
			},
			{
				"x": -2.1737954028,
				"y": -0.2360328983,
				"z": 6.6063332624,
				"element": "H" 
			},
			{
				"x": -1.3476601342,
				"y": -1.4884168149,
				"z": 5.6416467588,
				"element": "H" 
			},
			{
				"x": -0.3979288085,
				"y": -0.386123776,
				"z": 6.6799110601,
				"element": "H" 
			},
			{
				"x": -0.9966305438,
				"y": 2.1489682935,
				"z": 3.0816108171,
				"element": "H" 
			},
			{
				"x": 0.7994882677,
				"y": 2.1989462267,
				"z": 1.3608207923,
				"element": "H" 
			},
			{
				"x": 3.047248676,
				"y": 1.4652236323,
				"z": 0.7811541215,
				"element": "H" 
			},
			{
				"x": 2.4213283637,
				"y": 0.5371503024,
				"z": -2.400537269,
				"element": "H" 
			},
			{
				"x": -2.5347621133,
				"y": -1.6656460706,
				"z": -2.6930493472,
				"element": "H" 
			},
			{
				"x": -2.4178536028,
				"y": -0.121265499,
				"z": -4.7544886943,
				"element": "H" 
			},
			{
				"x": -3.1956644603,
				"y": 0.4113846711,
				"z": -3.3789677901,
				"element": "H" 
			},
			{
				"x": -1.3099787139,
				"y": -2.3514293916,
				"z": -0.8805509255,
				"element": "H" 
			},
			{
				"x": 0.789070944,
				"y": -2.2654939241,
				"z": 0.4259534865,
				"element": "H" 
			},
			{
				"x": 2.6780070329,
				"y": -1.1768830376,
				"z": 3.2335763234,
				"element": "H" 
			},
			{
				"x": 0.8642733932,
				"y": -1.2728640884,
				"z": 4.904042833,
				"element": "H" 
			}
		],
		 "valence_orbital": [ 
			{
				"type": "occ",
				"energy": -0.28542,
				"method": "rhf"
			},
			{
				"type": "occ",
				"energy": -0.27283,
				"method": "rhf"
			},
			{
				"type": "occ",
				"energy": -0.26265,
				"method": "rhf"
			},
			{
				"type": "occ",
				"energy": -0.23666,
				"method": "rhf"
			},
			{
				"type": "occ",
				"energy": -0.21669,
				"method": "rhf"
			},
			{
				"type": "unocc",
				"energy": -0.07945,
				"method": "rhf"
			},
			{
				"type": "unocc",
				"energy": -0.03943,
				"method": "rhf"
			},
			{
				"type": "unocc",
				"energy": -0.02007,
				"method": "rhf"
			},
			{
				"type": "unocc",
				"energy": -0.01384,
				"method": "rhf"
			},
			{
				"type": "unocc",
				"energy": -0.00031,
				"method": "rhf"
			}
		],
		"cosmo_sigma_profile": { 
			"-0.025": 0.0,
			"-0.024": 0.0,
			"-0.023": 0.0,
			"-0.022": 0.0,
			"-0.021": 0.0,
			"-0.02": 0.0,
			"-0.019": 0.0,
			"-0.018": 0.0,
			"-0.017": 0.0,
			"-0.016": 0.16279049028,
			"-0.015": 2.19294335448,
			"-0.014": 3.34216221858,
			"-0.013": 4.99860700451,
			"-0.012": 5.1775257012,
			"-0.011": 4.31662368876,
			"-0.01": 6.61104586046,
			"-0.009": 5.31949738459,
			"-0.008": 6.90142345437,
			"-0.007": 8.75823893363,
			"-0.006": 18.3596896053,
			"-0.005": 22.7807180763,
			"-0.004": 18.9777984385,
			"-0.003": 19.640211109,
			"-0.002": 15.3538300185,
			"-0.001": 14.8961179683,
			"0.0": 21.7922095645,
			"0.001": 22.1422315395,
			"0.002": 19.7164011118,
			"0.003": 19.7172553233,
			"0.004": 22.340662931,
			"0.005": 12.7422853902,
			"0.006": 11.1013951868,
			"0.007": 13.02763237,
			"0.008": 14.7575098218,
			"0.009": 12.5208245284,
			"0.01": 11.952883794,
			"0.011": 8.26444769318,
			"0.012": 1.42474099594,
			"0.013": 0.0,
			"0.014": 0.0,
			"0.015": 0.0,
			"0.016": 0.0,
			"0.017": 0.0,
			"0.018": 0.0,
			"0.019": 0.0,
			"0.02": 0.0,
			"0.021": 0.0,
			"0.022": 0.0,
			"0.023": 0.0,
			"0.024": 0.0,
			"0.025": 0.0
		}
	}
}
