{
	 "smiles": "COC1=C(OC)C=C2C(=C)N(CCC2=C1)C(C)=O", 
	 "Tm": 381.15, 
	 "num_atms": 35, 
	 "gaussian": { 
		 "optdone": 1, 
		 "sigma_profile": "yes", 
		 "theory": "DFT", 
		 "functional": "B3LYP", 
		 "basiset": "6-31G**", 
		 "properties": { 
			 "R2extent": 6786.3024, 
			 "electric_dipole_moment_norm": 2.97828256047, 
			 "electric_quadrupole_moment_norm": 23.9974918537, 
			 "total_energy": -824.126092477, 
			 "HOMO_LUMO_gap": 0.17859, 
			 "cosmo_polarized_energy": -14.42, 
			 "cosmo_cavitation_energy": 36.83, 
			 "cosmo_dispersion_energy": -26.41, 
			 "cosmo_repulsion_energy": 2.02, 
			 "cosmo_total_nonelectrostatic_energy": 12.44, 
			 "SMD_solvation_energy": 8.36 
		},
		"coords": [
			{
				"x": -2.4060505131,
				"y": -4.012795339,
				"z": 0.4738597389,
				"element": "C" 
			},
			{
				"x": -1.1055694437,
				"y": -4.1027035458,
				"z": -0.1139611015,
				"element": "O" 
			},
			{
				"x": -0.602412128,
				"y": -2.9473201563,
				"z": -0.6564407057,
				"element": "C" 
			},
			{
				"x": -1.1703371509,
				"y": -2.3479253896,
				"z": -1.8054232154,
				"element": "C" 
			},
			{
				"x": -2.283280976,
				"y": -2.9570841472,
				"z": -2.3132798786,
				"element": "O" 
			},
			{
				"x": -2.8648636992,
				"y": -2.417543627,
				"z": -3.4901781829,
				"element": "C" 
			},
			{
				"x": -0.587221462,
				"y": -1.1992144386,
				"z": -2.3391980089,
				"element": "C" 
			},
			{
				"x": 0.5745957772,
				"y": -0.6457275724,
				"z": -1.7723810919,
				"element": "C" 
			},
			{
				"x": 1.2431982933,
				"y": 0.5338961055,
				"z": -2.3911502287,
				"element": "C" 
			},
			{
				"x": 1.2203930201,
				"y": 0.7084927476,
				"z": -3.7262981628,
				"element": "C" 
			},
			{
				"x": 1.9085198452,
				"y": 1.4152317804,
				"z": -1.472177288,
				"element": "N" 
			},
			{
				"x": 2.1367391617,
				"y": 0.9404006255,
				"z": -0.0921432098,
				"element": "C" 
			},
			{
				"x": 2.3402827583,
				"y": -0.5734834142,
				"z": -0.0448066816,
				"element": "C" 
			},
			{
				"x": 1.1304402535,
				"y": -1.2427140732,
				"z": -0.6343322688,
				"element": "C" 
			},
			{
				"x": 0.5332790955,
				"y": -2.3809036595,
				"z": -0.0870533798,
				"element": "C" 
			},
			{
				"x": 2.2203817813,
				"y": 2.7321967069,
				"z": -1.8008808171,
				"element": "C" 
			},
			{
				"x": 2.7595145405,
				"y": 3.6222510645,
				"z": -0.6836279167,
				"element": "C" 
			},
			{
				"x": 2.0793391312,
				"y": 3.197885344,
				"z": -2.9236105079,
				"element": "O" 
			},
			{
				"x": -2.6157809607,
				"y": -4.998187342,
				"z": 0.8951419439,
				"element": "H" 
			},
			{
				"x": -3.1679368394,
				"y": -3.7621827134,
				"z": -0.2692913011,
				"element": "H" 
			},
			{
				"x": -2.419866627,
				"y": -3.2666985105,
				"z": 1.2793484485,
				"element": "H" 
			},
			{
				"x": -3.7053062389,
				"y": -3.068656693,
				"z": -3.7352316135,
				"element": "H" 
			},
			{
				"x": -2.1535337419,
				"y": -2.4146880779,
				"z": -4.3256179074,
				"element": "H" 
			},
			{
				"x": -3.2336450468,
				"y": -1.3961558079,
				"z": -3.3303323105,
				"element": "H" 
			},
			{
				"x": -1.0340974564,
				"y": -0.7106452887,
				"z": -3.1952253214,
				"element": "H" 
			},
			{
				"x": 1.6747154405,
				"y": 1.5546715051,
				"z": -4.2124651505,
				"element": "H" 
			},
			{
				"x": 0.7286637359,
				"y": -0.0406262654,
				"z": -4.3353173099,
				"element": "H" 
			},
			{
				"x": 1.2873431883,
				"y": 1.2090710182,
				"z": 0.5520310877,
				"element": "H" 
			},
			{
				"x": 3.023371503,
				"y": 1.4357428374,
				"z": 0.3025089992,
				"element": "H" 
			},
			{
				"x": 2.498919829,
				"y": -0.8811005919,
				"z": 0.9939033962,
				"element": "H" 
			},
			{
				"x": 3.2502801727,
				"y": -0.8340407374,
				"z": -0.602977107,
				"element": "H" 
			},
			{
				"x": 0.9489094562,
				"y": -2.8588503778,
				"z": 0.7954206491,
				"element": "H" 
			},
			{
				"x": 2.789295312,
				"y": 4.6351445832,
				"z": -1.0839658316,
				"element": "H" 
			},
			{
				"x": 3.7767842638,
				"y": 3.3359747163,
				"z": -0.3939258591,
				"element": "H" 
			},
			{
				"x": 2.1379357246,
				"y": 3.6063887341,
				"z": 0.216578095,
				"element": "H" 
			}
		],
		 "valence_orbital": [ 
			{
				"type": "occ",
				"energy": -0.27387,
				"method": "rhf"
			},
			{
				"type": "occ",
				"energy": -0.24368,
				"method": "rhf"
			},
			{
				"type": "occ",
				"energy": -0.24209,
				"method": "rhf"
			},
			{
				"type": "occ",
				"energy": -0.22053,
				"method": "rhf"
			},
			{
				"type": "occ",
				"energy": -0.20119,
				"method": "rhf"
			},
			{
				"type": "unocc",
				"energy": -0.0226,
				"method": "rhf"
			},
			{
				"type": "unocc",
				"energy": 0.00626,
				"method": "rhf"
			},
			{
				"type": "unocc",
				"energy": 0.0213,
				"method": "rhf"
			},
			{
				"type": "unocc",
				"energy": 0.06818,
				"method": "rhf"
			},
			{
				"type": "unocc",
				"energy": 0.08399,
				"method": "rhf"
			}
		],
		"cosmo_sigma_profile": { 
			"-0.025": 0.0,
			"-0.024": 0.0,
			"-0.023": 0.0,
			"-0.022": 0.0,
			"-0.021": 0.0,
			"-0.02": 0.0,
			"-0.019": 0.0,
			"-0.018": 0.0,
			"-0.017": 0.0,
			"-0.016": 0.0,
			"-0.015": 0.0,
			"-0.014": 0.0,
			"-0.013": 0.0,
			"-0.012": 0.0,
			"-0.011": 0.0,
			"-0.01": 0.0,
			"-0.009": 0.0,
			"-0.008": 0.437469819467,
			"-0.007": 3.25563649266,
			"-0.006": 13.4691780295,
			"-0.005": 30.3465173539,
			"-0.004": 33.865479224,
			"-0.003": 32.9596735912,
			"-0.002": 26.9056003067,
			"-0.001": 22.0849873565,
			"0.0": 16.1219529026,
			"0.001": 14.9829733524,
			"0.002": 13.6051662494,
			"0.003": 17.5426556736,
			"0.004": 16.9724902875,
			"0.005": 11.5600605332,
			"0.006": 6.04692974735,
			"0.007": 5.78042195604,
			"0.008": 3.77412345448,
			"0.009": 3.19642274668,
			"0.01": 5.04315817239,
			"0.011": 4.36511928883,
			"0.012": 3.62303108833,
			"0.013": 3.03639690795,
			"0.014": 1.91980614378,
			"0.015": 0.275425612427,
			"0.016": 0.0,
			"0.017": 0.0,
			"0.018": 0.0,
			"0.019": 0.0,
			"0.02": 0.0,
			"0.021": 0.0,
			"0.022": 0.0,
			"0.023": 0.0,
			"0.024": 0.0,
			"0.025": 0.0
		}
	}
}
