{
	 "smiles": "CC1=C(Cl)C(NC(=O)CCl)=NC=C1Cl", 
	 "Tm": 542.15, 
	 "num_atms": 21, 
	 "gaussian": { 
		 "optdone": 1, 
		 "sigma_profile": "yes", 
		 "theory": "DFT", 
		 "functional": "B3LYP", 
		 "basiset": "6-31G**", 
		 "properties": { 
			 "R2extent": 5438.6546, 
			 "electric_dipole_moment_norm": 4.7630302151, 
			 "electric_quadrupole_moment_norm": 20.0947016484, 
			 "total_energy": -1874.37776255, 
			 "HOMO_LUMO_gap": 0.19603, 
			 "cosmo_polarized_energy": -13.85, 
			 "cosmo_cavitation_energy": 30.54, 
			 "cosmo_dispersion_energy": -22.19, 
			 "cosmo_repulsion_energy": 1.76, 
			 "cosmo_total_nonelectrostatic_energy": 10.11, 
			 "SMD_solvation_energy": 3.76 
		},
		"coords": [
			{
				"x": -1.4955561038,
				"y": -1.5261551009,
				"z": 1.9177764772,
				"element": "C" 
			},
			{
				"x": -1.8712085146,
				"y": -0.5278020835,
				"z": 0.8580420764,
				"element": "C" 
			},
			{
				"x": -1.5200584888,
				"y": -0.7294705668,
				"z": -0.4891942248,
				"element": "C" 
			},
			{
				"x": -0.7030645491,
				"y": -2.2105644238,
				"z": -0.9407587158,
				"element": "Cl" 
			},
			{
				"x": -1.8578816903,
				"y": 0.2176975647,
				"z": -1.4736016809,
				"element": "C" 
			},
			{
				"x": -1.5392033118,
				"y": 0.0514555281,
				"z": -2.8373011823,
				"element": "N" 
			},
			{
				"x": -0.3129459438,
				"y": -0.0040129538,
				"z": -3.4902856672,
				"element": "C" 
			},
			{
				"x": -0.2640352973,
				"y": -0.1123987451,
				"z": -4.6980350195,
				"element": "O" 
			},
			{
				"x": 0.9380078651,
				"y": 0.2104024676,
				"z": -2.6367782532,
				"element": "C" 
			},
			{
				"x": 2.2768976159,
				"y": -0.8857731397,
				"z": -3.116957049,
				"element": "Cl" 
			},
			{
				"x": -2.5924804091,
				"y": 1.2949765315,
				"z": -1.1809246926,
				"element": "N" 
			},
			{
				"x": -2.9725151861,
				"y": 1.4931966779,
				"z": 0.0781990639,
				"element": "C" 
			},
			{
				"x": -2.6134442951,
				"y": 0.6348533904,
				"z": 1.117919207,
				"element": "C" 
			},
			{
				"x": -3.1451109451,
				"y": 1.0451429944,
				"z": 2.7375337141,
				"element": "Cl" 
			},
			{
				"x": -1.7755862747,
				"y": -1.1764056134,
				"z": 2.9099491057,
				"element": "H" 
			},
			{
				"x": -1.9931407041,
				"y": -2.4837933434,
				"z": 1.7312504566,
				"element": "H" 
			},
			{
				"x": -0.418954784,
				"y": -1.7190018566,
				"z": 1.8991038605,
				"element": "H" 
			},
			{
				"x": -2.2983982137,
				"y": 0.2611282253,
				"z": -3.4759808681,
				"element": "H" 
			},
			{
				"x": 1.2781374125,
				"y": 1.2325247602,
				"z": -2.8215093337,
				"element": "H" 
			},
			{
				"x": 0.7701661163,
				"y": 0.0807027068,
				"z": -1.5708660825,
				"element": "H" 
			},
			{
				"x": -3.5795242983,
				"y": 2.3712969799,
				"z": 0.2808188081,
				"element": "H" 
			}
		],
		 "valence_orbital": [ 
			{
				"type": "occ",
				"energy": -0.29949,
				"method": "rhf"
			},
			{
				"type": "occ",
				"energy": -0.29804,
				"method": "rhf"
			},
			{
				"type": "occ",
				"energy": -0.29321,
				"method": "rhf"
			},
			{
				"type": "occ",
				"energy": -0.27275,
				"method": "rhf"
			},
			{
				"type": "occ",
				"energy": -0.25746,
				"method": "rhf"
			},
			{
				"type": "unocc",
				"energy": -0.06143,
				"method": "rhf"
			},
			{
				"type": "unocc",
				"energy": -0.05226,
				"method": "rhf"
			},
			{
				"type": "unocc",
				"energy": -0.01321,
				"method": "rhf"
			},
			{
				"type": "unocc",
				"energy": -0.0078,
				"method": "rhf"
			},
			{
				"type": "unocc",
				"energy": 0.02993,
				"method": "rhf"
			}
		],
		"cosmo_sigma_profile": { 
			"-0.025": 0.0,
			"-0.024": 0.0,
			"-0.023": 0.0,
			"-0.022": 0.0,
			"-0.021": 0.0,
			"-0.02": 0.0,
			"-0.019": 0.0,
			"-0.018": 0.0,
			"-0.017": 0.0,
			"-0.016": 0.171543014902,
			"-0.015": 0.775095143348,
			"-0.014": 0.688468396958,
			"-0.013": 1.15070816443,
			"-0.012": 0.878167015126,
			"-0.011": 0.351248024731,
			"-0.01": 2.52870799572,
			"-0.009": 4.37827991445,
			"-0.008": 6.29863038093,
			"-0.007": 7.29296249012,
			"-0.006": 8.47114133077,
			"-0.005": 10.2857391772,
			"-0.004": 14.192807027,
			"-0.003": 17.7061176789,
			"-0.002": 25.9373811032,
			"-0.001": 22.8520497998,
			"0.0": 17.7485406219,
			"0.001": 17.6607635312,
			"0.002": 17.261076895,
			"0.003": 18.9128965714,
			"0.004": 14.2636132543,
			"0.005": 9.80400666028,
			"0.006": 6.34023440733,
			"0.007": 3.62245038067,
			"0.008": 2.7296400656,
			"0.009": 2.35039838014,
			"0.01": 2.98221506756,
			"0.011": 4.26430100329,
			"0.012": 6.77943935725,
			"0.013": 1.98429718836,
			"0.014": 0.0317636231349,
			"0.015": 0.0,
			"0.016": 0.0,
			"0.017": 0.0,
			"0.018": 0.0,
			"0.019": 0.0,
			"0.02": 0.0,
			"0.021": 0.0,
			"0.022": 0.0,
			"0.023": 0.0,
			"0.024": 0.0,
			"0.025": 0.0
		}
	}
}
