{
	 "smiles": "CCCC(C)(COC(N)=O)COC(=O)NC(C)C", 
	 "Tm": 365.15, 
	 "num_atms": 42, 
	 "gaussian": { 
		 "optdone": 1, 
		 "sigma_profile": "yes", 
		 "theory": "DFT", 
		 "functional": "B3LYP", 
		 "basiset": "6-31G**", 
		 "properties": { 
			 "R2extent": 6586.5285, 
			 "electric_dipole_moment_norm": 3.10615321741, 
			 "electric_quadrupole_moment_norm": 13.1999597871, 
			 "total_energy": -882.209252989, 
			 "HOMO_LUMO_gap": 0.30525, 
			 "cosmo_polarized_energy": -17.93, 
			 "cosmo_cavitation_energy": 43.33, 
			 "cosmo_dispersion_energy": -28.09, 
			 "cosmo_repulsion_energy": 2.27, 
			 "cosmo_total_nonelectrostatic_energy": 17.51, 
			 "SMD_solvation_energy": 9.24 
		},
		"coords": [
			{
				"x": -3.5007204931,
				"y": -2.5132573035,
				"z": 0.1444122345,
				"element": "C" 
			},
			{
				"x": -2.866824209,
				"y": -1.6112375004,
				"z": -0.9211391334,
				"element": "C" 
			},
			{
				"x": -1.7411772856,
				"y": -0.7416466593,
				"z": -0.342175025,
				"element": "C" 
			},
			{
				"x": -0.9638399518,
				"y": 0.1503033417,
				"z": -1.3464005245,
				"element": "C" 
			},
			{
				"x": -0.1256557386,
				"y": -0.7000744699,
				"z": -2.3214096024,
				"element": "C" 
			},
			{
				"x": -1.9086394629,
				"y": 1.017376978,
				"z": -2.1927224877,
				"element": "C" 
			},
			{
				"x": -2.7654260091,
				"y": 1.7701777649,
				"z": -1.3143655777,
				"element": "O" 
			},
			{
				"x": -3.5715790535,
				"y": 2.6814385103,
				"z": -1.9245008215,
				"element": "C" 
			},
			{
				"x": -4.3635043593,
				"y": 3.2963786026,
				"z": -0.9951931566,
				"element": "N" 
			},
			{
				"x": -3.5957724977,
				"y": 2.8904759592,
				"z": -3.1217143901,
				"element": "O" 
			},
			{
				"x": -0.0441975821,
				"y": 1.1177123065,
				"z": -0.5715242315,
				"element": "C" 
			},
			{
				"x": 0.8954635204,
				"y": 0.4189311773,
				"z": 0.2714179874,
				"element": "O" 
			},
			{
				"x": 0.7260774544,
				"y": 0.5592311508,
				"z": 1.6190202626,
				"element": "C" 
			},
			{
				"x": -0.1878985211,
				"y": 1.1755905724,
				"z": 2.1418168335,
				"element": "O" 
			},
			{
				"x": 1.7013232223,
				"y": -0.0826376509,
				"z": 2.3250520116,
				"element": "N" 
			},
			{
				"x": 2.9252491664,
				"y": -0.751275159,
				"z": 1.8503563177,
				"element": "C" 
			},
			{
				"x": 3.8639046949,
				"y": 0.2027142877,
				"z": 1.0974164711,
				"element": "C" 
			},
			{
				"x": 2.6229577068,
				"y": -2.0266477075,
				"z": 1.0520134452,
				"element": "C" 
			},
			{
				"x": -3.9165461052,
				"y": -1.9205075396,
				"z": 0.9668854798,
				"element": "H" 
			},
			{
				"x": -2.761852626,
				"y": -3.1992950116,
				"z": 0.5742598093,
				"element": "H" 
			},
			{
				"x": -4.3120846281,
				"y": -3.1171848103,
				"z": -0.2749672164,
				"element": "H" 
			},
			{
				"x": -2.488302057,
				"y": -2.2367482516,
				"z": -1.7396270202,
				"element": "H" 
			},
			{
				"x": -3.64513747,
				"y": -0.9711939319,
				"z": -1.3539186076,
				"element": "H" 
			},
			{
				"x": -2.1589738225,
				"y": -0.0997737588,
				"z": 0.4408926755,
				"element": "H" 
			},
			{
				"x": -1.0120909202,
				"y": -1.3930150152,
				"z": 0.1558406734,
				"element": "H" 
			},
			{
				"x": -0.7516887887,
				"y": -1.380510321,
				"z": -2.9062562508,
				"element": "H" 
			},
			{
				"x": 0.4243563028,
				"y": -0.0667291628,
				"z": -3.0271917788,
				"element": "H" 
			},
			{
				"x": 0.6048234135,
				"y": -1.3014908219,
				"z": -1.7736914644,
				"element": "H" 
			},
			{
				"x": -2.5239410994,
				"y": 0.399221623,
				"z": -2.8533180334,
				"element": "H" 
			},
			{
				"x": -1.3473583183,
				"y": 1.711359213,
				"z": -2.8281448949,
				"element": "H" 
			},
			{
				"x": -4.1331538856,
				"y": 3.2088843746,
				"z": -0.0180077102,
				"element": "H" 
			},
			{
				"x": -4.8609152053,
				"y": 4.1159217197,
				"z": -1.3023749566,
				"element": "H" 
			},
			{
				"x": 0.5620986194,
				"y": 1.7000664255,
				"z": -1.2746109518,
				"element": "H" 
			},
			{
				"x": -0.6340608757,
				"y": 1.7926391109,
				"z": 0.0485100664,
				"element": "H" 
			},
			{
				"x": 1.5881223059,
				"y": 0.0433347287,
				"z": 3.3190153585,
				"element": "H" 
			},
			{
				"x": 3.430640185,
				"y": -1.0541088729,
				"z": 2.7751350785,
				"element": "H" 
			},
			{
				"x": 4.0923123601,
				"y": 1.0828357786,
				"z": 1.706236181,
				"element": "H" 
			},
			{
				"x": 3.4081766226,
				"y": 0.5373439442,
				"z": 0.1628077166,
				"element": "H" 
			},
			{
				"x": 4.8054124251,
				"y": -0.3036486009,
				"z": 0.8603352083,
				"element": "H" 
			},
			{
				"x": 3.5524618508,
				"y": -2.5614109136,
				"z": 0.8304450106,
				"element": "H" 
			},
			{
				"x": 2.131867734,
				"y": -1.7857858933,
				"z": 0.1068840523,
				"element": "H" 
			},
			{
				"x": 1.9697933812,
				"y": -2.6940582138,
				"z": 1.6220009617,
				"element": "H" 
			}
		],
		 "valence_orbital": [ 
			{
				"type": "occ",
				"energy": -0.28059,
				"method": "rhf"
			},
			{
				"type": "occ",
				"energy": -0.27234,
				"method": "rhf"
			},
			{
				"type": "occ",
				"energy": -0.26717,
				"method": "rhf"
			},
			{
				"type": "occ",
				"energy": -0.26614,
				"method": "rhf"
			},
			{
				"type": "occ",
				"energy": -0.25001,
				"method": "rhf"
			},
			{
				"type": "unocc",
				"energy": 0.05524,
				"method": "rhf"
			},
			{
				"type": "unocc",
				"energy": 0.05668,
				"method": "rhf"
			},
			{
				"type": "unocc",
				"energy": 0.06794,
				"method": "rhf"
			},
			{
				"type": "unocc",
				"energy": 0.07991,
				"method": "rhf"
			},
			{
				"type": "unocc",
				"energy": 0.08316,
				"method": "rhf"
			}
		],
		"cosmo_sigma_profile": { 
			"-0.025": 0.0,
			"-0.024": 0.0,
			"-0.023": 0.0,
			"-0.022": 0.0,
			"-0.021": 0.0,
			"-0.02": 0.0,
			"-0.019": 0.0,
			"-0.018": 0.0,
			"-0.017": 0.0,
			"-0.016": 0.0,
			"-0.015": 0.291629671684,
			"-0.014": 2.49937504836,
			"-0.013": 3.45727857081,
			"-0.012": 2.43518094034,
			"-0.011": 3.00436970369,
			"-0.01": 3.39812386289,
			"-0.009": 3.2376411133,
			"-0.008": 3.04391028731,
			"-0.007": 2.92742419531,
			"-0.006": 4.32583651318,
			"-0.005": 9.80357582604,
			"-0.004": 16.7981676751,
			"-0.003": 30.1933262553,
			"-0.002": 37.5097878179,
			"-0.001": 39.691859321,
			"0.0": 44.9016761451,
			"0.001": 43.307985611,
			"0.002": 19.9983199766,
			"0.003": 9.82487131677,
			"0.004": 8.60481220159,
			"0.005": 6.17116252711,
			"0.006": 4.31345841989,
			"0.007": 3.50950485804,
			"0.008": 4.02551939813,
			"0.009": 2.39988687763,
			"0.01": 3.0863867918,
			"0.011": 3.12959109805,
			"0.012": 3.56439569032,
			"0.013": 10.3101221336,
			"0.014": 5.31209440151,
			"0.015": 0.0781598085228,
			"0.016": 0.0,
			"0.017": 0.0,
			"0.018": 0.0,
			"0.019": 0.0,
			"0.02": 0.0,
			"0.021": 0.0,
			"0.022": 0.0,
			"0.023": 0.0,
			"0.024": 0.0,
			"0.025": 0.0
		}
	}
}
