{
	 "smiles": "CCCCCCC(O)CCCC", 
	 "Tm": 269.4, 
	 "num_atms": 36, 
	 "gaussian": { 
		 "optdone": 1, 
		 "sigma_profile": "yes", 
		 "theory": "DFT", 
		 "functional": "B3LYP", 
		 "basiset": "6-31G**", 
		 "properties": { 
			 "R2extent": 3998.5921, 
			 "electric_dipole_moment_norm": 1.25989886102, 
			 "electric_quadrupole_moment_norm": 2.67026944895, 
			 "total_energy": -508.876775827, 
			 "HOMO_LUMO_gap": 0.32227, 
			 "cosmo_polarized_energy": -5.33, 
			 "cosmo_cavitation_energy": 34.25, 
			 "cosmo_dispersion_energy": -24.16, 
			 "cosmo_repulsion_energy": 1.96, 
			 "cosmo_total_nonelectrostatic_energy": 12.05, 
			 "SMD_solvation_energy": 4.85 
		},
		"coords": [
			{
				"x": -2.3179188234,
				"y": 1.2474592925,
				"z": -4.1883732757,
				"element": "C" 
			},
			{
				"x": -1.4826300154,
				"y": 0.8368396126,
				"z": -2.9704913177,
				"element": "C" 
			},
			{
				"x": 0.0280241691,
				"y": 0.8559786478,
				"z": -3.2546158494,
				"element": "C" 
			},
			{
				"x": 0.9679849159,
				"y": 0.6052559638,
				"z": -2.0572306196,
				"element": "C" 
			},
			{
				"x": 1.1974394471,
				"y": -0.8650521899,
				"z": -1.6453549056,
				"element": "C" 
			},
			{
				"x": 0.0748917328,
				"y": -1.6149111198,
				"z": -0.9017117876,
				"element": "C" 
			},
			{
				"x": -0.3432379039,
				"y": -1.0873751227,
				"z": 0.4847687782,
				"element": "C" 
			},
			{
				"x": -0.9694802443,
				"y": 0.2013579821,
				"z": 0.4121993349,
				"element": "O" 
			},
			{
				"x": 0.8002686756,
				"y": -0.9140737342,
				"z": 1.49146988,
				"element": "C" 
			},
			{
				"x": 1.6395025185,
				"y": -2.1534439748,
				"z": 1.85449063,
				"element": "C" 
			},
			{
				"x": 0.9482209143,
				"y": -3.2450040589,
				"z": 2.6993504299,
				"element": "C" 
			},
			{
				"x": 0.1189530051,
				"y": -4.2751780484,
				"z": 1.921102737,
				"element": "C" 
			},
			{
				"x": -3.3901186826,
				"y": 1.2314098807,
				"z": -3.9661290472,
				"element": "H" 
			},
			{
				"x": -2.0615064074,
				"y": 2.2604892941,
				"z": -4.5187605637,
				"element": "H" 
			},
			{
				"x": -2.1434361392,
				"y": 0.5717964851,
				"z": -5.0335684344,
				"element": "H" 
			},
			{
				"x": -1.798216968,
				"y": -0.1631263832,
				"z": -2.6478831997,
				"element": "H" 
			},
			{
				"x": -1.6963605412,
				"y": 1.5183150555,
				"z": -2.1356517226,
				"element": "H" 
			},
			{
				"x": 0.2546022537,
				"y": 0.1363280556,
				"z": -4.0552783954,
				"element": "H" 
			},
			{
				"x": 0.268702824,
				"y": 1.8443735523,
				"z": -3.6703564626,
				"element": "H" 
			},
			{
				"x": 0.62375894,
				"y": 1.1818532867,
				"z": -1.192819926,
				"element": "H" 
			},
			{
				"x": 1.9515737865,
				"y": 1.0103326892,
				"z": -2.3292005814,
				"element": "H" 
			},
			{
				"x": 1.4418111294,
				"y": -1.4425442745,
				"z": -2.548230524,
				"element": "H" 
			},
			{
				"x": 2.1021230877,
				"y": -0.9024721195,
				"z": -1.0252272787,
				"element": "H" 
			},
			{
				"x": -0.8256115751,
				"y": -1.6678520121,
				"z": -1.5279031306,
				"element": "H" 
			},
			{
				"x": 0.3921044025,
				"y": -2.6583773838,
				"z": -0.7757766354,
				"element": "H" 
			},
			{
				"x": -1.0692161422,
				"y": -1.8063742807,
				"z": 0.8973153955,
				"element": "H" 
			},
			{
				"x": -1.6960033961,
				"y": 0.1426162108,
				"z": -0.2212953549,
				"element": "H" 
			},
			{
				"x": 0.3595469783,
				"y": -0.4977990948,
				"z": 2.4059039841,
				"element": "H" 
			},
			{
				"x": 1.468019067,
				"y": -0.1356729542,
				"z": 1.1032338742,
				"element": "H" 
			},
			{
				"x": 2.063389436,
				"y": -2.6085610189,
				"z": 0.9488547939,
				"element": "H" 
			},
			{
				"x": 2.5012693957,
				"y": -1.7859301666,
				"z": 2.4255485114,
				"element": "H" 
			},
			{
				"x": 0.3206854843,
				"y": -2.7658205361,
				"z": 3.4631918504,
				"element": "H" 
			},
			{
				"x": 1.7250631546,
				"y": -3.7890498957,
				"z": 3.2517311476,
				"element": "H" 
			},
			{
				"x": -0.7378728647,
				"y": -3.8250191947,
				"z": 1.4113484959,
				"element": "H" 
			},
			{
				"x": -0.2707168608,
				"y": -5.0482982332,
				"z": 2.592217435,
				"element": "H" 
			},
			{
				"x": 0.7298912459,
				"y": -4.7766702117,
				"z": 1.1613317344,
				"element": "H" 
			}
		],
		 "valence_orbital": [ 
			{
				"type": "occ",
				"energy": -0.31361,
				"method": "rhf"
			},
			{
				"type": "occ",
				"energy": -0.31081,
				"method": "rhf"
			},
			{
				"type": "occ",
				"energy": -0.30265,
				"method": "rhf"
			},
			{
				"type": "occ",
				"energy": -0.29341,
				"method": "rhf"
			},
			{
				"type": "occ",
				"energy": -0.25316,
				"method": "rhf"
			},
			{
				"type": "unocc",
				"energy": 0.06911,
				"method": "rhf"
			},
			{
				"type": "unocc",
				"energy": 0.08215,
				"method": "rhf"
			},
			{
				"type": "unocc",
				"energy": 0.09698,
				"method": "rhf"
			},
			{
				"type": "unocc",
				"energy": 0.10638,
				"method": "rhf"
			},
			{
				"type": "unocc",
				"energy": 0.11498,
				"method": "rhf"
			}
		],
		"cosmo_sigma_profile": { 
			"-0.025": 0.0,
			"-0.024": 0.0,
			"-0.023": 0.0,
			"-0.022": 0.0,
			"-0.021": 0.0,
			"-0.02": 0.0,
			"-0.019": 0.0,
			"-0.018": 0.0,
			"-0.017": 0.0,
			"-0.016": 0.0,
			"-0.015": 0.0,
			"-0.014": 0.0,
			"-0.013": 0.0199706460968,
			"-0.012": 0.450410052254,
			"-0.011": 1.38518145155,
			"-0.01": 1.25237547482,
			"-0.009": 1.236588618,
			"-0.008": 1.24430640526,
			"-0.007": 0.766697322424,
			"-0.006": 1.83793990924,
			"-0.005": 1.81121787182,
			"-0.004": 2.59243191644,
			"-0.003": 9.45913592532,
			"-0.002": 36.0327047386,
			"-0.001": 55.7973077031,
			"0.0": 57.0327269589,
			"0.001": 48.8243558754,
			"0.002": 23.5188264546,
			"0.003": 3.02239886769,
			"0.004": 1.90829322565,
			"0.005": 1.44382059816,
			"0.006": 1.32463449568,
			"0.007": 1.11454217012,
			"0.008": 1.54751749526,
			"0.009": 1.06785286549,
			"0.01": 1.17890964642,
			"0.011": 1.34415949113,
			"0.012": 0.760657622229,
			"0.013": 1.18647316079,
			"0.014": 1.37761320953,
			"0.015": 1.11180704827,
			"0.016": 0.00452454873446,
			"0.017": 0.0,
			"0.018": 0.0,
			"0.019": 0.0,
			"0.02": 0.0,
			"0.021": 0.0,
			"0.022": 0.0,
			"0.023": 0.0,
			"0.024": 0.0,
			"0.025": 0.0
		}
	}
}
