{
	 "smiles": "CN1C=CN=C1C(=O)C1=CC=C(N)C=C1", 
	 "Tm": 344.15, 
	 "num_atms": 26, 
	 "gaussian": { 
		 "optdone": 1, 
		 "sigma_profile": "yes", 
		 "theory": "DFT", 
		 "functional": "B3LYP", 
		 "basiset": "6-31G**", 
		 "properties": { 
			 "R2extent": 4201.2278, 
			 "electric_dipole_moment_norm": 1.12667994124, 
			 "electric_quadrupole_moment_norm": 31.9724130508, 
			 "total_energy": -665.283805661, 
			 "HOMO_LUMO_gap": 0.15196, 
			 "cosmo_polarized_energy": -15.76, 
			 "cosmo_cavitation_energy": 29.99, 
			 "cosmo_dispersion_energy": -22.31, 
			 "cosmo_repulsion_energy": 1.71, 
			 "cosmo_total_nonelectrostatic_energy": 9.39, 
			 "SMD_solvation_energy": 5.12 
		},
		"coords": [
			{
				"x": -0.7119376657,
				"y": -2.5430909279,
				"z": 3.0067364082,
				"element": "C" 
			},
			{
				"x": -0.4030348245,
				"y": -1.1593947489,
				"z": 2.6473951662,
				"element": "N" 
			},
			{
				"x": -0.5035836764,
				"y": -0.1033142813,
				"z": 3.5111989148,
				"element": "C" 
			},
			{
				"x": -0.1290491275,
				"y": 1.018808014,
				"z": 2.802374333,
				"element": "C" 
			},
			{
				"x": 0.1983279549,
				"y": 0.6772437753,
				"z": 1.528097708,
				"element": "N" 
			},
			{
				"x": 0.0312486998,
				"y": -0.6416800686,
				"z": 1.4385484252,
				"element": "C" 
			},
			{
				"x": 0.2514534597,
				"y": -1.5094089428,
				"z": 0.2550428205,
				"element": "C" 
			},
			{
				"x": 0.0204768867,
				"y": -2.719316549,
				"z": 0.3751787715,
				"element": "O" 
			},
			{
				"x": 0.7331163606,
				"y": -0.963576798,
				"z": -1.039931461,
				"element": "C" 
			},
			{
				"x": 0.8945419277,
				"y": -1.8903775299,
				"z": -2.0897492473,
				"element": "C" 
			},
			{
				"x": 1.3361796773,
				"y": -1.4980140417,
				"z": -3.3407913976,
				"element": "C" 
			},
			{
				"x": 1.6394438077,
				"y": -0.1448374905,
				"z": -3.5968510385,
				"element": "C" 
			},
			{
				"x": 2.1278073584,
				"y": 0.248334946,
				"z": -4.8315845387,
				"element": "N" 
			},
			{
				"x": 1.4816763353,
				"y": 0.7864588925,
				"z": -2.552989225,
				"element": "C" 
			},
			{
				"x": 1.0381925499,
				"y": 0.386713298,
				"z": -1.3002222646,
				"element": "C" 
			},
			{
				"x": -1.014487396,
				"y": -2.5558831169,
				"z": 4.0559967872,
				"element": "H" 
			},
			{
				"x": -1.5160113316,
				"y": -2.9312342891,
				"z": 2.3816484455,
				"element": "H" 
			},
			{
				"x": 0.1605025686,
				"y": -3.1801980307,
				"z": 2.8624859156,
				"element": "H" 
			},
			{
				"x": -0.825566049,
				"y": -0.2387159376,
				"z": 4.5328543124,
				"element": "H" 
			},
			{
				"x": -0.0818666833,
				"y": 2.0415874169,
				"z": 3.150148343,
				"element": "H" 
			},
			{
				"x": 0.6590250109,
				"y": -2.9302516952,
				"z": -1.8911588706,
				"element": "H" 
			},
			{
				"x": 1.4553048793,
				"y": -2.2325911876,
				"z": -4.1337460908,
				"element": "H" 
			},
			{
				"x": 1.9373723899,
				"y": -0.3649294568,
				"z": -5.6105139873,
				"element": "H" 
			},
			{
				"x": 2.0438869645,
				"y": 1.2278687728,
				"z": -5.06076644,
				"element": "H" 
			},
			{
				"x": 1.7146627897,
				"y": 1.8332487116,
				"z": -2.73340672,
				"element": "H" 
			},
			{
				"x": 0.9189171331,
				"y": 1.1162512653,
				"z": -0.5093950697,
				"element": "H" 
			}
		],
		 "valence_orbital": [ 
			{
				"type": "occ",
				"energy": -0.26963,
				"method": "rhf"
			},
			{
				"type": "occ",
				"energy": -0.2447,
				"method": "rhf"
			},
			{
				"type": "occ",
				"energy": -0.23959,
				"method": "rhf"
			},
			{
				"type": "occ",
				"energy": -0.22883,
				"method": "rhf"
			},
			{
				"type": "occ",
				"energy": -0.20328,
				"method": "rhf"
			},
			{
				"type": "unocc",
				"energy": -0.05132,
				"method": "rhf"
			},
			{
				"type": "unocc",
				"energy": 0.00855,
				"method": "rhf"
			},
			{
				"type": "unocc",
				"energy": 0.02317,
				"method": "rhf"
			},
			{
				"type": "unocc",
				"energy": 0.0585,
				"method": "rhf"
			},
			{
				"type": "unocc",
				"energy": 0.07723,
				"method": "rhf"
			}
		],
		"cosmo_sigma_profile": { 
			"-0.025": 0.0,
			"-0.024": 0.0,
			"-0.023": 0.0,
			"-0.022": 0.0,
			"-0.021": 0.0,
			"-0.02": 0.0,
			"-0.019": 0.0,
			"-0.018": 0.0,
			"-0.017": 0.0,
			"-0.016": 0.0,
			"-0.015": 0.0,
			"-0.014": 0.168711454038,
			"-0.013": 1.97967819617,
			"-0.012": 3.39225721366,
			"-0.011": 2.33595519834,
			"-0.01": 3.08396654733,
			"-0.009": 6.21841886421,
			"-0.008": 5.84317252947,
			"-0.007": 7.31949886136,
			"-0.006": 10.630216817,
			"-0.005": 11.8670459872,
			"-0.004": 15.4523892243,
			"-0.003": 16.101305117,
			"-0.002": 14.0184404249,
			"-0.001": 14.3268948282,
			"0.0": 11.8508781796,
			"0.001": 13.0208644505,
			"0.002": 14.2655483421,
			"0.003": 15.4610454579,
			"0.004": 19.5939798903,
			"0.005": 18.6542689577,
			"0.006": 8.65991012045,
			"0.007": 4.83149899675,
			"0.008": 4.7299575372,
			"0.009": 3.50889997095,
			"0.01": 4.264824094,
			"0.011": 3.65376257087,
			"0.012": 2.58078813065,
			"0.013": 1.91103719261,
			"0.014": 0.0533359221667,
			"0.015": 0.0,
			"0.016": 0.0,
			"0.017": 0.0,
			"0.018": 0.0,
			"0.019": 0.0,
			"0.02": 0.0,
			"0.021": 0.0,
			"0.022": 0.0,
			"0.023": 0.0,
			"0.024": 0.0,
			"0.025": 0.0
		}
	}
}
