{
	 "smiles": "COC1=CC=CC(=C1)C(=O)NN", 
	 "Tm": 366.15, 
	 "num_atms": 22, 
	 "gaussian": { 
		 "optdone": 1, 
		 "sigma_profile": "yes", 
		 "theory": "DFT", 
		 "functional": "B3LYP", 
		 "basiset": "6-31G**", 
		 "properties": { 
			 "R2extent": 2655.7405, 
			 "electric_dipole_moment_norm": 3.64482298198, 
			 "electric_quadrupole_moment_norm": 9.26006245497, 
			 "total_energy": -570.799821164, 
			 "HOMO_LUMO_gap": 0.19089, 
			 "cosmo_polarized_energy": -13.6, 
			 "cosmo_cavitation_energy": 26.22, 
			 "cosmo_dispersion_energy": -19.44, 
			 "cosmo_repulsion_energy": 1.56, 
			 "cosmo_total_nonelectrostatic_energy": 8.34, 
			 "SMD_solvation_energy": 6.35 
		},
		"coords": [
			{
				"x": -2.3921923226,
				"y": 3.1557741893,
				"z": -0.0145418409,
				"element": "C" 
			},
			{
				"x": -2.1375311748,
				"y": 1.7690622547,
				"z": 0.1479307185,
				"element": "O" 
			},
			{
				"x": -0.853330543,
				"y": 1.3273441661,
				"z": 0.0147395992,
				"element": "C" 
			},
			{
				"x": 0.2476584042,
				"y": 2.1465683376,
				"z": -0.2615855725,
				"element": "C" 
			},
			{
				"x": 1.5164820942,
				"y": 1.5712135029,
				"z": -0.3931437069,
				"element": "C" 
			},
			{
				"x": 1.7012702053,
				"y": 0.2015951279,
				"z": -0.2482729588,
				"element": "C" 
			},
			{
				"x": 0.5995445345,
				"y": -0.6163092653,
				"z": 0.0453658218,
				"element": "C" 
			},
			{
				"x": -0.6731634349,
				"y": -0.0548478066,
				"z": 0.1659134156,
				"element": "C" 
			},
			{
				"x": 0.8481228561,
				"y": -2.0878546046,
				"z": 0.197476687,
				"element": "C" 
			},
			{
				"x": 1.8369134995,
				"y": -2.6454620204,
				"z": -0.271232704,
				"element": "O" 
			},
			{
				"x": -0.0981837126,
				"y": -2.7892834855,
				"z": 0.9098678905,
				"element": "N" 
			},
			{
				"x": 0.1414384933,
				"y": -4.1414474001,
				"z": 1.2465528782,
				"element": "N" 
			},
			{
				"x": -1.8591065654,
				"y": 3.7564532113,
				"z": 0.7336932419,
				"element": "H" 
			},
			{
				"x": -2.114547116,
				"y": 3.5037314515,
				"z": -1.0177977153,
				"element": "H" 
			},
			{
				"x": -3.4668309841,
				"y": 3.2826098394,
				"z": 0.1242906446,
				"element": "H" 
			},
			{
				"x": 0.1295982795,
				"y": 3.2167716503,
				"z": -0.3828287499,
				"element": "H" 
			},
			{
				"x": 2.3655895461,
				"y": 2.2116298927,
				"z": -0.6139540143,
				"element": "H" 
			},
			{
				"x": 2.676791279,
				"y": -0.2576151028,
				"z": -0.3586616033,
				"element": "H" 
			},
			{
				"x": -1.5531696752,
				"y": -0.664776243,
				"z": 0.3411333397,
				"element": "H" 
			},
			{
				"x": -0.6563705614,
				"y": -2.2942137218,
				"z": 1.5909024678,
				"element": "H" 
			},
			{
				"x": 1.1568480155,
				"y": -4.2582491826,
				"z": 1.243856079,
				"element": "H" 
			},
			{
				"x": -0.1922311175,
				"y": -4.708194791,
				"z": 0.467196082,
				"element": "H" 
			}
		],
		 "valence_orbital": [ 
			{
				"type": "occ",
				"energy": -0.28754,
				"method": "rhf"
			},
			{
				"type": "occ",
				"energy": -0.263,
				"method": "rhf"
			},
			{
				"type": "occ",
				"energy": -0.2549,
				"method": "rhf"
			},
			{
				"type": "occ",
				"energy": -0.24796,
				"method": "rhf"
			},
			{
				"type": "occ",
				"energy": -0.22706,
				"method": "rhf"
			},
			{
				"type": "unocc",
				"energy": -0.03617,
				"method": "rhf"
			},
			{
				"type": "unocc",
				"energy": 0.00035,
				"method": "rhf"
			},
			{
				"type": "unocc",
				"energy": 0.05963,
				"method": "rhf"
			},
			{
				"type": "unocc",
				"energy": 0.086,
				"method": "rhf"
			},
			{
				"type": "unocc",
				"energy": 0.09607,
				"method": "rhf"
			}
		],
		"cosmo_sigma_profile": { 
			"-0.025": 0.0,
			"-0.024": 0.0,
			"-0.023": 0.0,
			"-0.022": 0.0,
			"-0.021": 0.0,
			"-0.02": 0.0,
			"-0.019": 0.0,
			"-0.018": 0.0,
			"-0.017": 0.0,
			"-0.016": 0.0,
			"-0.015": 0.0,
			"-0.014": 0.557397045042,
			"-0.013": 1.15200756153,
			"-0.012": 1.56079343103,
			"-0.011": 2.7886157353,
			"-0.01": 2.43015386479,
			"-0.009": 3.90559720148,
			"-0.008": 3.10224292031,
			"-0.007": 5.23536508313,
			"-0.006": 12.0818273193,
			"-0.005": 17.58660158,
			"-0.004": 17.3792099668,
			"-0.003": 15.3795325366,
			"-0.002": 10.7247875016,
			"-0.001": 9.89706738109,
			"0.0": 12.6115193858,
			"0.001": 11.2308164517,
			"0.002": 11.3607966551,
			"0.003": 13.7331711465,
			"0.004": 15.1621409519,
			"0.005": 8.93308009445,
			"0.006": 3.61381111246,
			"0.007": 2.98783992536,
			"0.008": 4.08097764661,
			"0.009": 2.46074957356,
			"0.01": 3.72992568081,
			"0.011": 2.54819498859,
			"0.012": 2.83266590399,
			"0.013": 5.71800471095,
			"0.014": 1.60163554829,
			"0.015": 0.406443197078,
			"0.016": 0.874452165736,
			"0.017": 0.212856972095,
			"0.018": 0.0,
			"0.019": 0.0,
			"0.02": 0.0,
			"0.021": 0.0,
			"0.022": 0.0,
			"0.023": 0.0,
			"0.024": 0.0,
			"0.025": 0.0
		}
	}
}
