{
	 "smiles": "CC(=O)NC1=CC=C(C=CC(=O)C2=CC=CC=C2)C=C1", 
	 "Tm": 452.15, 
	 "num_atms": 35, 
	 "gaussian": { 
		 "optdone": 1, 
		 "sigma_profile": "yes", 
		 "theory": "DFT", 
		 "functional": "B3LYP", 
		 "basiset": "6-31G**", 
		 "properties": { 
			 "R2extent": 10282.4404, 
			 "electric_dipole_moment_norm": 3.2912369544, 
			 "electric_quadrupole_moment_norm": 27.7681917207, 
			 "total_energy": -862.053492267, 
			 "HOMO_LUMO_gap": 0.14717, 
			 "cosmo_polarized_energy": -19.11, 
			 "cosmo_cavitation_energy": 40.22, 
			 "cosmo_dispersion_energy": -28.59, 
			 "cosmo_repulsion_energy": 2.18, 
			 "cosmo_total_nonelectrostatic_energy": 13.81, 
			 "SMD_solvation_energy": 8.11 
		},
		"coords": [
			{
				"x": -3.068599354,
				"y": 0.3045483446,
				"z": -4.7237085844,
				"element": "C" 
			},
			{
				"x": -2.5371707714,
				"y": -1.0270660495,
				"z": -5.2142813091,
				"element": "C" 
			},
			{
				"x": -2.9622190841,
				"y": -1.5606603467,
				"z": -6.2274052799,
				"element": "O" 
			},
			{
				"x": -1.5514644126,
				"y": -1.6766797242,
				"z": -4.4792059283,
				"element": "N" 
			},
			{
				"x": -0.8787608684,
				"y": -1.3594829475,
				"z": -3.2870301589,
				"element": "C" 
			},
			{
				"x": -0.5278171538,
				"y": -0.052451783,
				"z": -2.9169050548,
				"element": "C" 
			},
			{
				"x": 0.1535877604,
				"y": 0.1750541121,
				"z": -1.7253621803,
				"element": "C" 
			},
			{
				"x": 0.5380936433,
				"y": -0.874730901,
				"z": -0.8733931368,
				"element": "C" 
			},
			{
				"x": 1.2565734629,
				"y": -0.5616946733,
				"z": 0.3615296044,
				"element": "C" 
			},
			{
				"x": 1.74360084,
				"y": -1.4371323031,
				"z": 1.2661340066,
				"element": "C" 
			},
			{
				"x": 2.5716193988,
				"y": -1.093137524,
				"z": 2.4457559334,
				"element": "C" 
			},
			{
				"x": 3.3426159533,
				"y": -1.9389984407,
				"z": 2.8938110386,
				"element": "O" 
			},
			{
				"x": 2.4999590354,
				"y": 0.2654970233,
				"z": 3.0832825147,
				"element": "C" 
			},
			{
				"x": 3.652676587,
				"y": 0.7456554541,
				"z": 3.7250555668,
				"element": "C" 
			},
			{
				"x": 3.6406731411,
				"y": 1.9791078021,
				"z": 4.36960656,
				"element": "C" 
			},
			{
				"x": 2.4670517833,
				"y": 2.738767393,
				"z": 4.4054401866,
				"element": "C" 
			},
			{
				"x": 1.307683765,
				"y": 2.2573669918,
				"z": 3.7957270173,
				"element": "C" 
			},
			{
				"x": 1.3233736975,
				"y": 1.0288469409,
				"z": 3.1330878132,
				"element": "C" 
			},
			{
				"x": 0.2047402182,
				"y": -2.1850061178,
				"z": -1.2719661696,
				"element": "C" 
			},
			{
				"x": -0.4901541587,
				"y": -2.421443807,
				"z": -2.4466577007,
				"element": "C" 
			},
			{
				"x": -2.4341292986,
				"y": 1.1230748116,
				"z": -5.0802267373,
				"element": "H" 
			},
			{
				"x": -4.0596225836,
				"y": 0.4348829933,
				"z": -5.1592366316,
				"element": "H" 
			},
			{
				"x": -3.1251258662,
				"y": 0.3653646725,
				"z": -3.634532393,
				"element": "H" 
			},
			{
				"x": -1.3854982816,
				"y": -2.6049574661,
				"z": -4.8502963682,
				"element": "H" 
			},
			{
				"x": -0.7581417585,
				"y": 0.7830452325,
				"z": -3.5652759628,
				"element": "H" 
			},
			{
				"x": 0.415045349,
				"y": 1.1954835651,
				"z": -1.4573589212,
				"element": "H" 
			},
			{
				"x": 1.4214328499,
				"y": 0.4997318699,
				"z": 0.5345152006,
				"element": "H" 
			},
			{
				"x": 1.6680689771,
				"y": -2.5101264229,
				"z": 1.1083457512,
				"element": "H" 
			},
			{
				"x": 4.5463361742,
				"y": 0.1306464173,
				"z": 3.7067335871,
				"element": "H" 
			},
			{
				"x": 4.5418424328,
				"y": 2.3477772765,
				"z": 4.8511170115,
				"element": "H" 
			},
			{
				"x": 2.4552539745,
				"y": 3.6982368956,
				"z": 4.914808206,
				"element": "H" 
			},
			{
				"x": 0.388551316,
				"y": 2.8345227217,
				"z": 3.8406049221,
				"element": "H" 
			},
			{
				"x": 0.413011559,
				"y": 0.6482926148,
				"z": 2.6821096034,
				"element": "H" 
			},
			{
				"x": 0.4826468449,
				"y": -3.0294738354,
				"z": -0.6497096924,
				"element": "H" 
			},
			{
				"x": -0.752635172,
				"y": -3.4390607906,
				"z": -2.7235123143,
				"element": "H" 
			}
		],
		 "valence_orbital": [ 
			{
				"type": "occ",
				"energy": -0.26286,
				"method": "rhf"
			},
			{
				"type": "occ",
				"energy": -0.26003,
				"method": "rhf"
			},
			{
				"type": "occ",
				"energy": -0.25909,
				"method": "rhf"
			},
			{
				"type": "occ",
				"energy": -0.24333,
				"method": "rhf"
			},
			{
				"type": "occ",
				"energy": -0.22344,
				"method": "rhf"
			},
			{
				"type": "unocc",
				"energy": -0.07627,
				"method": "rhf"
			},
			{
				"type": "unocc",
				"energy": -0.03156,
				"method": "rhf"
			},
			{
				"type": "unocc",
				"energy": -0.023,
				"method": "rhf"
			},
			{
				"type": "unocc",
				"energy": -0.00927,
				"method": "rhf"
			},
			{
				"type": "unocc",
				"energy": 0.00527,
				"method": "rhf"
			}
		],
		"cosmo_sigma_profile": { 
			"-0.025": 0.0,
			"-0.024": 0.0,
			"-0.023": 0.0,
			"-0.022": 0.0,
			"-0.021": 0.0,
			"-0.02": 0.0,
			"-0.019": 0.0,
			"-0.018": 0.0,
			"-0.017": 0.0,
			"-0.016": 0.0,
			"-0.015": 0.128532775561,
			"-0.014": 0.846502915454,
			"-0.013": 1.31080069928,
			"-0.012": 1.11041096575,
			"-0.011": 0.904255471444,
			"-0.01": 1.07086448601,
			"-0.009": 1.74690998607,
			"-0.008": 5.3580859285,
			"-0.007": 12.1505571385,
			"-0.006": 18.2917085783,
			"-0.005": 25.5959672964,
			"-0.004": 25.7410809857,
			"-0.003": 23.336446083,
			"-0.002": 23.4183031371,
			"-0.001": 23.0797255457,
			"0.0": 21.5533512135,
			"0.001": 18.6352288249,
			"0.002": 24.0017756096,
			"0.003": 25.0373161427,
			"0.004": 22.8251933787,
			"0.005": 7.16551105649,
			"0.006": 2.66262189236,
			"0.007": 3.33597602802,
			"0.008": 2.87437336975,
			"0.009": 3.23791233904,
			"0.01": 2.8541417949,
			"0.011": 4.1735824957,
			"0.012": 6.62329439688,
			"0.013": 9.3116104186,
			"0.014": 3.36665405408,
			"0.015": 0.182043379974,
			"0.016": 0.0,
			"0.017": 0.0,
			"0.018": 0.0,
			"0.019": 0.0,
			"0.02": 0.0,
			"0.021": 0.0,
			"0.022": 0.0,
			"0.023": 0.0,
			"0.024": 0.0,
			"0.025": 0.0
		}
	}
}
