{
	 "smiles": "CC1=NC2=C(C=NN2C(C)=C1)C(=O)NCC(O)=O", 
	 "Tm": 518.15, 
	 "num_atms": 30, 
	 "gaussian": { 
		 "optdone": 1, 
		 "sigma_profile": "yes", 
		 "theory": "DFT", 
		 "functional": "B3LYP", 
		 "basiset": "6-31G**", 
		 "properties": { 
			 "R2extent": 5993.9443, 
			 "electric_dipole_moment_norm": 4.96181762361, 
			 "electric_quadrupole_moment_norm": 30.5115340791, 
			 "total_energy": -871.095480043, 
			 "HOMO_LUMO_gap": 0.16951, 
			 "cosmo_polarized_energy": -21.02, 
			 "cosmo_cavitation_energy": 35.04, 
			 "cosmo_dispersion_energy": -24.77, 
			 "cosmo_repulsion_energy": 1.92, 
			 "cosmo_total_nonelectrostatic_energy": 12.2, 
			 "SMD_solvation_energy": 6.03 
		},
		"coords": [
			{
				"x": 1.1929115212,
				"y": -3.0180554979,
				"z": 0.0260034053,
				"element": "C" 
			},
			{
				"x": 0.2717021791,
				"y": -2.015332028,
				"z": -0.6162028576,
				"element": "C" 
			},
			{
				"x": -0.5826823947,
				"y": -1.3745061216,
				"z": 0.1655196061,
				"element": "N" 
			},
			{
				"x": -1.4081804903,
				"y": -0.4692692792,
				"z": -0.4012463261,
				"element": "C" 
			},
			{
				"x": -2.4304819962,
				"y": 0.3591636677,
				"z": 0.091820084,
				"element": "C" 
			},
			{
				"x": -2.9197320634,
				"y": 1.018513568,
				"z": -1.0582075293,
				"element": "C" 
			},
			{
				"x": -2.2865801032,
				"y": 0.6962721955,
				"z": -2.1844625484,
				"element": "N" 
			},
			{
				"x": -1.3673251782,
				"y": -0.2203462898,
				"z": -1.7820888109,
				"element": "N" 
			},
			{
				"x": -0.4968189838,
				"y": -0.8671420401,
				"z": -2.6133717161,
				"element": "C" 
			},
			{
				"x": -0.5419993489,
				"y": -0.5250464025,
				"z": -4.0666999987,
				"element": "C" 
			},
			{
				"x": 0.3388192867,
				"y": -1.7826342972,
				"z": -2.021210276,
				"element": "C" 
			},
			{
				"x": -3.092468294,
				"y": 0.5423133851,
				"z": 1.408046855,
				"element": "C" 
			},
			{
				"x": -4.2568100418,
				"y": 0.9404190834,
				"z": 1.4444081993,
				"element": "O" 
			},
			{
				"x": -2.4238354398,
				"y": 0.26756353,
				"z": 2.577814153,
				"element": "N" 
			},
			{
				"x": -0.9879516763,
				"y": 0.2521619038,
				"z": 2.7900219561,
				"element": "C" 
			},
			{
				"x": -0.5924141684,
				"y": -0.1497868124,
				"z": 4.1963516088,
				"element": "C" 
			},
			{
				"x": -1.6278523984,
				"y": -0.1444064917,
				"z": 5.06894185,
				"element": "O" 
			},
			{
				"x": 0.5416774535,
				"y": -0.4154708833,
				"z": 4.5235514173,
				"element": "O" 
			},
			{
				"x": 2.2418836865,
				"y": -2.7446086327,
				"z": -0.1356722521,
				"element": "H" 
			},
			{
				"x": 1.0019523449,
				"y": -3.0678677584,
				"z": 1.0985244309,
				"element": "H" 
			},
			{
				"x": 1.048556416,
				"y": -4.0142123866,
				"z": -0.4077473785,
				"element": "H" 
			},
			{
				"x": -3.7337630326,
				"y": 1.7296562945,
				"z": -1.0776277161,
				"element": "H" 
			},
			{
				"x": -1.5385580428,
				"y": -0.7234853673,
				"z": -4.4735615571,
				"element": "H" 
			},
			{
				"x": 0.1997749299,
				"y": -1.1054278975,
				"z": -4.6175148723,
				"element": "H" 
			},
			{
				"x": -0.3542614148,
				"y": 0.5432208612,
				"z": -4.2135053095,
				"element": "H" 
			},
			{
				"x": 1.0493158973,
				"y": -2.3269202259,
				"z": -2.6324280931,
				"element": "H" 
			},
			{
				"x": -2.9903791192,
				"y": 0.4905482139,
				"z": 3.3866658612,
				"element": "H" 
			},
			{
				"x": -0.5230446795,
				"y": 1.2367319305,
				"z": 2.617319257,
				"element": "H" 
			},
			{
				"x": -0.5055642876,
				"y": -0.4574308935,
				"z": 2.1134913968,
				"element": "H" 
			},
			{
				"x": -1.2590905611,
				"y": -0.3947153281,
				"z": 5.9325671612,
				"element": "H" 
			}
		],
		 "valence_orbital": [ 
			{
				"type": "occ",
				"energy": -0.2745,
				"method": "rhf"
			},
			{
				"type": "occ",
				"energy": -0.26589,
				"method": "rhf"
			},
			{
				"type": "occ",
				"energy": -0.25041,
				"method": "rhf"
			},
			{
				"type": "occ",
				"energy": -0.23796,
				"method": "rhf"
			},
			{
				"type": "occ",
				"energy": -0.22689,
				"method": "rhf"
			},
			{
				"type": "unocc",
				"energy": -0.05738,
				"method": "rhf"
			},
			{
				"type": "unocc",
				"energy": -0.02523,
				"method": "rhf"
			},
			{
				"type": "unocc",
				"energy": 0.00417,
				"method": "rhf"
			},
			{
				"type": "unocc",
				"energy": 0.01229,
				"method": "rhf"
			},
			{
				"type": "unocc",
				"energy": 0.06786,
				"method": "rhf"
			}
		],
		"cosmo_sigma_profile": { 
			"-0.025": 0.0,
			"-0.024": 0.0,
			"-0.023": 0.0,
			"-0.022": 0.0,
			"-0.021": 0.0,
			"-0.02": 0.0,
			"-0.019": 0.617246101392,
			"-0.018": 0.812406187492,
			"-0.017": 0.777156884145,
			"-0.016": 0.911154408285,
			"-0.015": 0.822563381058,
			"-0.014": 0.494723051011,
			"-0.013": 0.569258725059,
			"-0.012": 0.794450999048,
			"-0.011": 0.939483351837,
			"-0.01": 0.850624627362,
			"-0.009": 1.36589458991,
			"-0.008": 5.2653059455,
			"-0.007": 10.4752493142,
			"-0.006": 14.9804059055,
			"-0.005": 19.1550233265,
			"-0.004": 19.8661922609,
			"-0.003": 24.4855022229,
			"-0.002": 27.4337811909,
			"-0.001": 23.62378521,
			"0.0": 18.9952123688,
			"0.001": 15.5564800014,
			"0.002": 13.2350653897,
			"0.003": 9.46655377774,
			"0.004": 9.31810947789,
			"0.005": 8.25870161627,
			"0.006": 7.09348276969,
			"0.007": 4.36670368938,
			"0.008": 4.52412941528,
			"0.009": 4.78133128924,
			"0.01": 5.03048010048,
			"0.011": 7.14200695704,
			"0.012": 6.25556267255,
			"0.013": 4.52825254428,
			"0.014": 5.58903472454,
			"0.015": 0.723895097752,
			"0.016": 0.0,
			"0.017": 0.0,
			"0.018": 0.0,
			"0.019": 0.0,
			"0.02": 0.0,
			"0.021": 0.0,
			"0.022": 0.0,
			"0.023": 0.0,
			"0.024": 0.0,
			"0.025": 0.0
		}
	}
}
