{
	 "smiles": "COC1=CC=C(C=CC(=O)OCCOC2=CC=C(C=CC(=O)C3=CC=CC=C3)C=C2)C=C1", 
	 "Tm": 415.15, 
	 "num_atms": 56, 
	 "gaussian": { 
		 "optdone": 1, 
		 "sigma_profile": "yes", 
		 "theory": "DFT", 
		 "functional": "B3LYP", 
		 "basiset": "6-31G**", 
		 "properties": { 
			 "R2extent": 19893.3622, 
			 "electric_dipole_moment_norm": 5.10915316956, 
			 "electric_quadrupole_moment_norm": 24.9636548194, 
			 "total_energy": -1419.40549456, 
			 "HOMO_LUMO_gap": 0.15054, 
			 "cosmo_polarized_energy": -22.03, 
			 "cosmo_cavitation_energy": 61.44, 
			 "cosmo_dispersion_energy": -40.1, 
			 "cosmo_repulsion_energy": 3.03, 
			 "cosmo_total_nonelectrostatic_energy": 24.37, 
			 "SMD_solvation_energy": 12.61 
		},
		"coords": [
			{
				"x": 1.9899666134,
				"y": -3.2727472704,
				"z": -3.9204496448,
				"element": "C" 
			},
			{
				"x": 3.3083894169,
				"y": -2.744272738,
				"z": -3.9495710724,
				"element": "O" 
			},
			{
				"x": 3.6173576328,
				"y": -1.7276132988,
				"z": -3.1004737482,
				"element": "C" 
			},
			{
				"x": 4.9392507725,
				"y": -1.2585144032,
				"z": -3.163300863,
				"element": "C" 
			},
			{
				"x": 5.3446580673,
				"y": -0.2285393967,
				"z": -2.3319062194,
				"element": "C" 
			},
			{
				"x": 4.4559614057,
				"y": 0.3964784481,
				"z": -1.4263661262,
				"element": "C" 
			},
			{
				"x": 5.0080052805,
				"y": 1.4653454477,
				"z": -0.5909982418,
				"element": "C" 
			},
			{
				"x": 4.5064854347,
				"y": 2.4942904951,
				"z": 0.1347624129,
				"element": "C" 
			},
			{
				"x": 3.1530069645,
				"y": 3.0435255242,
				"z": 0.3258093815,
				"element": "C" 
			},
			{
				"x": 2.9148054499,
				"y": 3.943915715,
				"z": 1.1113085754,
				"element": "O" 
			},
			{
				"x": 2.1903870435,
				"y": 2.5071711663,
				"z": -0.4705280949,
				"element": "O" 
			},
			{
				"x": 0.8699212633,
				"y": 3.0389572848,
				"z": -0.2947504614,
				"element": "C" 
			},
			{
				"x": -0.0794865654,
				"y": 2.1631456405,
				"z": -1.0947434701,
				"element": "C" 
			},
			{
				"x": -0.1802084644,
				"y": 0.8338407371,
				"z": -0.5847074329,
				"element": "O" 
			},
			{
				"x": -0.9839641307,
				"y": 0.5710713805,
				"z": 0.4900044996,
				"element": "C" 
			},
			{
				"x": -1.7875121259,
				"y": 1.5095490991,
				"z": 1.1499633436,
				"element": "C" 
			},
			{
				"x": -2.5737893228,
				"y": 1.1021365244,
				"z": 2.2271168401,
				"element": "C" 
			},
			{
				"x": -2.603701785,
				"y": -0.2305684906,
				"z": 2.666160662,
				"element": "C" 
			},
			{
				"x": -3.4551951659,
				"y": -0.5880818864,
				"z": 3.8080093977,
				"element": "C" 
			},
			{
				"x": -3.9933864992,
				"y": -1.7770682743,
				"z": 4.1435080888,
				"element": "C" 
			},
			{
				"x": -3.9101086554,
				"y": -3.0985591416,
				"z": 3.4429089891,
				"element": "C" 
			},
			{
				"x": -3.4950008869,
				"y": -4.0691762591,
				"z": 4.0680372896,
				"element": "O" 
			},
			{
				"x": -4.411670597,
				"y": -3.2557915807,
				"z": 2.0383450402,
				"element": "C" 
			},
			{
				"x": -4.1820208073,
				"y": -4.4810427592,
				"z": 1.3917840172,
				"element": "C" 
			},
			{
				"x": -4.6570698994,
				"y": -4.6962192983,
				"z": 0.101883339,
				"element": "C" 
			},
			{
				"x": -5.3790047938,
				"y": -3.69307203,
				"z": -0.5532245116,
				"element": "C" 
			},
			{
				"x": -5.6226765913,
				"y": -2.4765153586,
				"z": 0.0871263551,
				"element": "C" 
			},
			{
				"x": -5.1405017258,
				"y": -2.2565516026,
				"z": 1.3772118442,
				"element": "C" 
			},
			{
				"x": -1.7642259678,
				"y": -1.1505022634,
				"z": 2.004949659,
				"element": "C" 
			},
			{
				"x": -0.9717400311,
				"y": -0.7594943031,
				"z": 0.9374346211,
				"element": "C" 
			},
			{
				"x": 3.1429950508,
				"y": -0.1034781465,
				"z": -1.3677842275,
				"element": "C" 
			},
			{
				"x": 2.7242520085,
				"y": -1.1476881207,
				"z": -2.1889296322,
				"element": "C" 
			},
			{
				"x": 1.7467897433,
				"y": -3.6970463109,
				"z": -2.9383383742,
				"element": "H" 
			},
			{
				"x": 1.9676907426,
				"y": -4.0650443043,
				"z": -4.669969465,
				"element": "H" 
			},
			{
				"x": 1.2436652425,
				"y": -2.5106210861,
				"z": -4.1772392503,
				"element": "H" 
			},
			{
				"x": 5.6244977573,
				"y": -1.7249153187,
				"z": -3.8632621668,
				"element": "H" 
			},
			{
				"x": 6.3743420715,
				"y": 0.1162958969,
				"z": -2.3845226327,
				"element": "H" 
			},
			{
				"x": 6.0970770396,
				"y": 1.4171022475,
				"z": -0.5499736686,
				"element": "H" 
			},
			{
				"x": 5.2240812137,
				"y": 3.0903416588,
				"z": 0.690357876,
				"element": "H" 
			},
			{
				"x": 0.6194055144,
				"y": 3.0615326693,
				"z": 0.7688653959,
				"element": "H" 
			},
			{
				"x": 0.8325749795,
				"y": 4.0692805299,
				"z": -0.668862871,
				"element": "H" 
			},
			{
				"x": -1.0671457957,
				"y": 2.6362844375,
				"z": -1.1545060905,
				"element": "H" 
			},
			{
				"x": 0.3030216228,
				"y": 2.0445738867,
				"z": -2.1114945302,
				"element": "H" 
			},
			{
				"x": -1.8053746563,
				"y": 2.5502430221,
				"z": 0.8500164486,
				"element": "H" 
			},
			{
				"x": -3.1872860374,
				"y": 1.8418086983,
				"z": 2.7353374934,
				"element": "H" 
			},
			{
				"x": -3.6511696175,
				"y": 0.2370204694,
				"z": 4.4931856054,
				"element": "H" 
			},
			{
				"x": -4.4932948578,
				"y": -1.850633222,
				"z": 5.1074330526,
				"element": "H" 
			},
			{
				"x": -3.6315285359,
				"y": -5.2478980196,
				"z": 1.9267025877,
				"element": "H" 
			},
			{
				"x": -4.4715692339,
				"y": -5.6447828047,
				"z": -0.3939697809,
				"element": "H" 
			},
			{
				"x": -5.7543094505,
				"y": -3.8621140688,
				"z": -1.5587463363,
				"element": "H" 
			},
			{
				"x": -6.1904082548,
				"y": -1.6999695006,
				"z": -0.4172236252,
				"element": "H" 
			},
			{
				"x": -5.3348297758,
				"y": -1.3143628809,
				"z": 1.8775470732,
				"element": "H" 
			},
			{
				"x": -1.709413401,
				"y": -2.1766488048,
				"z": 2.3513955086,
				"element": "H" 
			},
			{
				"x": -0.3203412354,
				"y": -1.4679351103,
				"z": 0.4364645927,
				"element": "H" 
			},
			{
				"x": 2.4327523331,
				"y": 0.3192310184,
				"z": -0.6728534542,
				"element": "H" 
			},
			{
				"x": 1.7016942026,
				"y": -1.4963739437,
				"z": -2.1066339981,
				"element": "H" 
			}
		],
		 "valence_orbital": [ 
			{
				"type": "occ",
				"energy": -0.2558,
				"method": "rhf"
			},
			{
				"type": "occ",
				"energy": -0.25543,
				"method": "rhf"
			},
			{
				"type": "occ",
				"energy": -0.24707,
				"method": "rhf"
			},
			{
				"type": "occ",
				"energy": -0.21705,
				"method": "rhf"
			},
			{
				"type": "occ",
				"energy": -0.21442,
				"method": "rhf"
			},
			{
				"type": "unocc",
				"energy": -0.06388,
				"method": "rhf"
			},
			{
				"type": "unocc",
				"energy": -0.05774,
				"method": "rhf"
			},
			{
				"type": "unocc",
				"energy": -0.03014,
				"method": "rhf"
			},
			{
				"type": "unocc",
				"energy": -0.01347,
				"method": "rhf"
			},
			{
				"type": "unocc",
				"energy": -0.00486,
				"method": "rhf"
			}
		],
		"cosmo_sigma_profile": { 
			"-0.025": 0.0,
			"-0.024": 0.0,
			"-0.023": 0.0,
			"-0.022": 0.0,
			"-0.021": 0.0,
			"-0.02": 0.0,
			"-0.019": 0.0,
			"-0.018": 0.0,
			"-0.017": 0.0,
			"-0.016": 0.0,
			"-0.015": 0.0,
			"-0.014": 0.0,
			"-0.013": 0.0,
			"-0.012": 0.0,
			"-0.011": 0.0,
			"-0.01": 0.111566706424,
			"-0.009": 1.33136242849,
			"-0.008": 2.9723523813,
			"-0.007": 13.3634469572,
			"-0.006": 39.8236551909,
			"-0.005": 44.6855388921,
			"-0.004": 42.7695836602,
			"-0.003": 34.6637952527,
			"-0.002": 30.1200542043,
			"-0.001": 29.444735092,
			"0.0": 30.7185028739,
			"0.001": 29.1872702172,
			"0.002": 38.7619667939,
			"0.003": 40.7564929803,
			"0.004": 45.2525438412,
			"0.005": 21.2839231329,
			"0.006": 6.34381012045,
			"0.007": 6.93786101924,
			"0.008": 4.62764549711,
			"0.009": 4.06516397708,
			"0.01": 4.67019800033,
			"0.011": 5.27508787868,
			"0.012": 9.12198018257,
			"0.013": 4.3099721048,
			"0.014": 0.520156070639,
			"0.015": 0.0,
			"0.016": 0.0,
			"0.017": 0.0,
			"0.018": 0.0,
			"0.019": 0.0,
			"0.02": 0.0,
			"0.021": 0.0,
			"0.022": 0.0,
			"0.023": 0.0,
			"0.024": 0.0,
			"0.025": 0.0
		}
	}
}
