{
	 "smiles": "SC1=NN=C(N1C1=CC=CC=C1)N1CCCCC1", 
	 "Tm": 290.15, 
	 "num_atms": 34, 
	 "gaussian": { 
		 "optdone": 1, 
		 "sigma_profile": "yes", 
		 "theory": "DFT", 
		 "functional": "B3LYP", 
		 "basiset": "6-31G**", 
		 "properties": { 
			 "R2extent": 7048.3766, 
			 "electric_dipole_moment_norm": 5.08583331323, 
			 "electric_quadrupole_moment_norm": 17.0597151377, 
			 "total_energy": -1122.19654864, 
			 "HOMO_LUMO_gap": 0.17583, 
			 "cosmo_polarized_energy": -14.55, 
			 "cosmo_cavitation_energy": 37.26, 
			 "cosmo_dispersion_energy": -26.38, 
			 "cosmo_repulsion_energy": 2.02, 
			 "cosmo_total_nonelectrostatic_energy": 12.9, 
			 "SMD_solvation_energy": 2.87 
		},
		"coords": [
			{
				"x": -3.4092609553,
				"y": 3.4251511016,
				"z": -2.6974217351,
				"element": "S" 
			},
			{
				"x": -2.5153130047,
				"y": 2.8910717272,
				"z": -1.2658043313,
				"element": "C" 
			},
			{
				"x": -2.160112709,
				"y": 3.6475689765,
				"z": -0.2629851149,
				"element": "N" 
			},
			{
				"x": -1.4870493421,
				"y": 2.8376401908,
				"z": 0.6438005441,
				"element": "N" 
			},
			{
				"x": -1.479080397,
				"y": 1.617778839,
				"z": 0.1642158839,
				"element": "C" 
			},
			{
				"x": -2.1237586102,
				"y": 1.5780726145,
				"z": -1.0714337026,
				"element": "N" 
			},
			{
				"x": -2.4617422214,
				"y": 0.4393598385,
				"z": -1.8661076239,
				"element": "C" 
			},
			{
				"x": -3.2047438743,
				"y": -0.603322314,
				"z": -1.3011824205,
				"element": "C" 
			},
			{
				"x": -3.5389312098,
				"y": -1.7082360192,
				"z": -2.0825984422,
				"element": "C" 
			},
			{
				"x": -3.148757705,
				"y": -1.769715572,
				"z": -3.4229418491,
				"element": "C" 
			},
			{
				"x": -2.411089727,
				"y": -0.7248807554,
				"z": -3.9811657667,
				"element": "C" 
			},
			{
				"x": -2.0559828715,
				"y": 0.3784545095,
				"z": -3.2034614649,
				"element": "C" 
			},
			{
				"x": -0.9731014386,
				"y": 0.4843571703,
				"z": 0.7879712743,
				"element": "N" 
			},
			{
				"x": 0.1315015514,
				"y": -0.2022158335,
				"z": 0.0848264586,
				"element": "C" 
			},
			{
				"x": 0.3701440983,
				"y": -1.5851747467,
				"z": 0.6947649055,
				"element": "C" 
			},
			{
				"x": 0.6364511224,
				"y": -1.4836009181,
				"z": 2.2028031036,
				"element": "C" 
			},
			{
				"x": -0.4844214172,
				"y": -0.6936559597,
				"z": 2.8925664698,
				"element": "C" 
			},
			{
				"x": -0.6976144446,
				"y": 0.6670866468,
				"z": 2.2244752827,
				"element": "C" 
			},
			{
				"x": -3.5053182872,
				"y": 4.6836336842,
				"z": -2.2272320193,
				"element": "H" 
			},
			{
				"x": -3.5041518264,
				"y": -0.5413967285,
				"z": -0.2612927637,
				"element": "H" 
			},
			{
				"x": -4.1153044013,
				"y": -2.5180911093,
				"z": -1.645481457,
				"element": "H" 
			},
			{
				"x": -3.4187118758,
				"y": -2.6293656395,
				"z": -4.0288460195,
				"element": "H" 
			},
			{
				"x": -2.1022456761,
				"y": -0.7682960996,
				"z": -5.0211351883,
				"element": "H" 
			},
			{
				"x": -1.4674480811,
				"y": 1.1874306594,
				"z": -3.6237819366,
				"element": "H" 
			},
			{
				"x": 1.0529278534,
				"y": 0.4029411136,
				"z": 0.1515237065,
				"element": "H" 
			},
			{
				"x": -0.1244318645,
				"y": -0.2941008728,
				"z": -0.972834277,
				"element": "H" 
			},
			{
				"x": -0.5162259924,
				"y": -2.2059866065,
				"z": 0.5138272825,
				"element": "H" 
			},
			{
				"x": 1.2128153523,
				"y": -2.0628918664,
				"z": 0.1816136055,
				"element": "H" 
			},
			{
				"x": 1.5947982169,
				"y": -0.9711262093,
				"z": 2.3669237545,
				"element": "H" 
			},
			{
				"x": 0.7338642111,
				"y": -2.4819166446,
				"z": 2.6442723186,
				"element": "H" 
			},
			{
				"x": -0.2526664641,
				"y": -0.5383845365,
				"z": 3.9525955593,
				"element": "H" 
			},
			{
				"x": -1.4209325281,
				"y": -1.2638280771,
				"z": 2.8454289613,
				"element": "H" 
			},
			{
				"x": 0.1891165107,
				"y": 1.3058940447,
				"z": 2.3700064136,
				"element": "H" 
			},
			{
				"x": -1.5434219918,
				"y": 1.1983453921,
				"z": 2.6654905883,
				"element": "H" 
			}
		],
		 "valence_orbital": [ 
			{
				"type": "occ",
				"energy": -0.27105,
				"method": "rhf"
			},
			{
				"type": "occ",
				"energy": -0.26906,
				"method": "rhf"
			},
			{
				"type": "occ",
				"energy": -0.24959,
				"method": "rhf"
			},
			{
				"type": "occ",
				"energy": -0.24339,
				"method": "rhf"
			},
			{
				"type": "occ",
				"energy": -0.20379,
				"method": "rhf"
			},
			{
				"type": "unocc",
				"energy": -0.02796,
				"method": "rhf"
			},
			{
				"type": "unocc",
				"energy": -0.02298,
				"method": "rhf"
			},
			{
				"type": "unocc",
				"energy": 0.01946,
				"method": "rhf"
			},
			{
				"type": "unocc",
				"energy": 0.0333,
				"method": "rhf"
			},
			{
				"type": "unocc",
				"energy": 0.05578,
				"method": "rhf"
			}
		],
		"cosmo_sigma_profile": { 
			"-0.025": 0.0,
			"-0.024": 0.0,
			"-0.023": 0.0,
			"-0.022": 0.0,
			"-0.021": 0.0,
			"-0.02": 0.0,
			"-0.019": 0.0,
			"-0.018": 0.0,
			"-0.017": 0.0,
			"-0.016": 0.0,
			"-0.015": 0.0,
			"-0.014": 0.0,
			"-0.013": 0.0,
			"-0.012": 0.811705839048,
			"-0.011": 1.70598387155,
			"-0.01": 1.36156108745,
			"-0.009": 1.01381959901,
			"-0.008": 1.0036273131,
			"-0.007": 4.52851722701,
			"-0.006": 12.4734464971,
			"-0.005": 13.4324632775,
			"-0.004": 16.4639053239,
			"-0.003": 34.1315918506,
			"-0.002": 42.1049447904,
			"-0.001": 32.6666791117,
			"0.0": 29.811423406,
			"0.001": 20.9582313043,
			"0.002": 18.790355355,
			"0.003": 16.3611106581,
			"0.004": 13.4426565589,
			"0.005": 5.80828335309,
			"0.006": 4.75227758973,
			"0.007": 2.83989011982,
			"0.008": 1.86983179994,
			"0.009": 2.12925404975,
			"0.01": 1.3573803167,
			"0.011": 2.43348779287,
			"0.012": 2.06308246147,
			"0.013": 3.30308019419,
			"0.014": 3.8692590869,
			"0.015": 2.49564665433,
			"0.016": 2.159775108,
			"0.017": 0.598928769639,
			"0.018": 0.0,
			"0.019": 0.0,
			"0.02": 0.0,
			"0.021": 0.0,
			"0.022": 0.0,
			"0.023": 0.0,
			"0.024": 0.0,
			"0.025": 0.0
		}
	}
}
