{
	 "smiles": "NC(C#N)C1=CC=C(OCC2=CC=CC=C2)C=C1", 
	 "Tm": 385.15, 
	 "num_atms": 32, 
	 "gaussian": { 
		 "optdone": 1, 
		 "sigma_profile": "yes", 
		 "theory": "DFT", 
		 "functional": "B3LYP", 
		 "basiset": "6-31G**", 
		 "properties": { 
			 "R2extent": 6756.6461, 
			 "electric_dipole_moment_norm": 6.0432247989, 
			 "electric_quadrupole_moment_norm": 20.4049295363, 
			 "total_energy": -764.723959746, 
			 "HOMO_LUMO_gap": 0.20789, 
			 "cosmo_polarized_energy": -16.76, 
			 "cosmo_cavitation_energy": 37.17, 
			 "cosmo_dispersion_energy": -25.51, 
			 "cosmo_repulsion_energy": 2.0, 
			 "cosmo_total_nonelectrostatic_energy": 13.66, 
			 "SMD_solvation_energy": 6.46 
		},
		"coords": [
			{
				"x": 2.7512641443,
				"y": 0.0959603866,
				"z": 3.3678247288,
				"element": "N" 
			},
			{
				"x": 1.3828455737,
				"y": -0.1445999759,
				"z": 2.8707728018,
				"element": "C" 
			},
			{
				"x": 0.7872806172,
				"y": -1.2380210052,
				"z": 3.6661621272,
				"element": "C" 
			},
			{
				"x": 0.3271190092,
				"y": -2.1154275229,
				"z": 4.2702489748,
				"element": "N" 
			},
			{
				"x": 1.2602386408,
				"y": -0.4182422851,
				"z": 1.372957677,
				"element": "C" 
			},
			{
				"x": 0.9276974185,
				"y": 0.6200669342,
				"z": 0.5007389642,
				"element": "C" 
			},
			{
				"x": 0.884346062,
				"y": 0.4280399545,
				"z": -0.8825889098,
				"element": "C" 
			},
			{
				"x": 1.1815862283,
				"y": -0.8336596427,
				"z": -1.4097371526,
				"element": "C" 
			},
			{
				"x": 1.1846489069,
				"y": -1.1476508368,
				"z": -2.7399857018,
				"element": "O" 
			},
			{
				"x": 0.9924957892,
				"y": -0.1131210574,
				"z": -3.7043500258,
				"element": "C" 
			},
			{
				"x": -0.4504050552,
				"y": 0.3234949348,
				"z": -3.8717942127,
				"element": "C" 
			},
			{
				"x": -0.7431637501,
				"y": 1.6322041766,
				"z": -4.272947875,
				"element": "C" 
			},
			{
				"x": -2.0637598738,
				"y": 2.029281446,
				"z": -4.4900180838,
				"element": "C" 
			},
			{
				"x": -3.1063875931,
				"y": 1.1213415573,
				"z": -4.2983072942,
				"element": "C" 
			},
			{
				"x": -2.8207578336,
				"y": -0.1842283912,
				"z": -3.8924346337,
				"element": "C" 
			},
			{
				"x": -1.5002556585,
				"y": -0.5829993777,
				"z": -3.6843911063,
				"element": "C" 
			},
			{
				"x": 1.5058664634,
				"y": -1.8890789351,
				"z": -0.5428769085,
				"element": "C" 
			},
			{
				"x": 1.5428052955,
				"y": -1.6811077242,
				"z": 0.8288772379,
				"element": "C" 
			},
			{
				"x": 3.1384751681,
				"y": 0.885672814,
				"z": 2.8551574149,
				"element": "H" 
			},
			{
				"x": 3.3350514352,
				"y": -0.7055739749,
				"z": 3.1356943781,
				"element": "H" 
			},
			{
				"x": 0.8025394207,
				"y": 0.757769341,
				"z": 3.1012330385,
				"element": "H" 
			},
			{
				"x": 0.6859253147,
				"y": 1.6025758446,
				"z": 0.9003305557,
				"element": "H" 
			},
			{
				"x": 0.5912737406,
				"y": 1.2480571701,
				"z": -1.526127915,
				"element": "H" 
			},
			{
				"x": 1.6332660489,
				"y": 0.7483250975,
				"z": -3.4736270859,
				"element": "H" 
			},
			{
				"x": 1.3615769453,
				"y": -0.5536383012,
				"z": -4.6369486515,
				"element": "H" 
			},
			{
				"x": 0.0654146369,
				"y": 2.3459186644,
				"z": -4.4168349598,
				"element": "H" 
			},
			{
				"x": -2.2773643696,
				"y": 3.0482046157,
				"z": -4.8001986013,
				"element": "H" 
			},
			{
				"x": -4.1350839258,
				"y": 1.4298775052,
				"z": -4.4602122806,
				"element": "H" 
			},
			{
				"x": -3.6281135492,
				"y": -0.8943643039,
				"z": -3.7378033227,
				"element": "H" 
			},
			{
				"x": -1.2765286798,
				"y": -1.5963898682,
				"z": -3.3660389866,
				"element": "H" 
			},
			{
				"x": 1.7213216456,
				"y": -2.8627941746,
				"z": -0.9704051724,
				"element": "H" 
			},
			{
				"x": 1.7788817837,
				"y": -2.5132930653,
				"z": 1.487230981,
				"element": "H" 
			}
		],
		 "valence_orbital": [ 
			{
				"type": "occ",
				"energy": -0.26659,
				"method": "rhf"
			},
			{
				"type": "occ",
				"energy": -0.2628,
				"method": "rhf"
			},
			{
				"type": "occ",
				"energy": -0.25842,
				"method": "rhf"
			},
			{
				"type": "occ",
				"energy": -0.25222,
				"method": "rhf"
			},
			{
				"type": "occ",
				"energy": -0.22659,
				"method": "rhf"
			},
			{
				"type": "unocc",
				"energy": -0.0187,
				"method": "rhf"
			},
			{
				"type": "unocc",
				"energy": -0.01197,
				"method": "rhf"
			},
			{
				"type": "unocc",
				"energy": -0.00935,
				"method": "rhf"
			},
			{
				"type": "unocc",
				"energy": -0.0077,
				"method": "rhf"
			},
			{
				"type": "unocc",
				"energy": 0.02961,
				"method": "rhf"
			}
		],
		"cosmo_sigma_profile": { 
			"-0.025": 0.0,
			"-0.024": 0.0,
			"-0.023": 0.0,
			"-0.022": 0.0,
			"-0.021": 0.0,
			"-0.02": 0.0,
			"-0.019": 0.0,
			"-0.018": 0.0,
			"-0.017": 0.0,
			"-0.016": 0.0,
			"-0.015": 0.0,
			"-0.014": 0.0,
			"-0.013": 0.0,
			"-0.012": 0.0581429157322,
			"-0.011": 2.13983804718,
			"-0.01": 3.28215125918,
			"-0.009": 5.95088467217,
			"-0.008": 7.32029266811,
			"-0.007": 7.72837147655,
			"-0.006": 19.2101072312,
			"-0.005": 24.8775576351,
			"-0.004": 23.7046824027,
			"-0.003": 21.0363678655,
			"-0.002": 15.0474538173,
			"-0.001": 16.4441911876,
			"0.0": 13.8959605531,
			"0.001": 16.4092291048,
			"0.002": 17.2707761713,
			"0.003": 19.8552868432,
			"0.004": 21.7968959417,
			"0.005": 19.9098061875,
			"0.006": 10.2764386938,
			"0.007": 4.80891430948,
			"0.008": 5.37226879058,
			"0.009": 5.28503157074,
			"0.01": 4.10869311596,
			"0.011": 3.66568571801,
			"0.012": 2.42794199504,
			"0.013": 2.22962105802,
			"0.014": 0.743240187757,
			"0.015": 0.71447914631,
			"0.016": 0.603996109739,
			"0.017": 0.449256326756,
			"0.018": 0.15052258588,
			"0.019": 0.0,
			"0.02": 0.0,
			"0.021": 0.0,
			"0.022": 0.0,
			"0.023": 0.0,
			"0.024": 0.0,
			"0.025": 0.0
		}
	}
}
