{
	 "smiles": "COC(=O)CNC1=NC=C(Br)C=C1", 
	 "Tm": 379.15, 
	 "num_atms": 22, 
	 "gaussian": { 
		 "optdone": 1, 
		 "sigma_profile": "yes", 
		 "theory": "DFT", 
		 "functional": "B3LYP", 
		 "basiset": "6-31G**", 
		 "properties": { 
			 "R2extent": 8353.0975, 
			 "electric_dipole_moment_norm": 3.51218136348, 
			 "electric_quadrupole_moment_norm": 10.1315231782, 
			 "total_energy": -3141.63874119, 
			 "HOMO_LUMO_gap": 0.18243, 
			 "cosmo_polarized_energy": -10.05, 
			 "cosmo_cavitation_energy": 29.41, 
			 "cosmo_dispersion_energy": -22.16, 
			 "cosmo_repulsion_energy": 1.78, 
			 "cosmo_total_nonelectrostatic_energy": 9.03, 
			 "SMD_solvation_energy": 3.65 
		},
		"coords": [
			{
				"x": 0.9032770414,
				"y": 1.8655689034,
				"z": 3.8092267373,
				"element": "C" 
			},
			{
				"x": 1.2370002064,
				"y": 0.9284934986,
				"z": 2.7681028241,
				"element": "O" 
			},
			{
				"x": 0.2098024143,
				"y": 0.5135352676,
				"z": 2.0115844881,
				"element": "C" 
			},
			{
				"x": -0.9409994602,
				"y": 0.8716921354,
				"z": 2.1607268083,
				"element": "O" 
			},
			{
				"x": 0.6779178035,
				"y": -0.4552114732,
				"z": 0.9424755541,
				"element": "C" 
			},
			{
				"x": -0.4701375488,
				"y": -0.9257702191,
				"z": 0.2117527778,
				"element": "N" 
			},
			{
				"x": -0.3637006556,
				"y": -1.6712265515,
				"z": -0.9297642326,
				"element": "C" 
			},
			{
				"x": 0.8710478032,
				"y": -2.0617860068,
				"z": -1.2902091272,
				"element": "N" 
			},
			{
				"x": 1.0061109782,
				"y": -2.8054438171,
				"z": -2.3947459843,
				"element": "C" 
			},
			{
				"x": -0.0692564426,
				"y": -3.1898212952,
				"z": -3.1852988176,
				"element": "C" 
			},
			{
				"x": 0.2112210658,
				"y": -4.2517337734,
				"z": -4.746732256,
				"element": "Br" 
			},
			{
				"x": -1.3580556913,
				"y": -2.7850322435,
				"z": -2.8177048303,
				"element": "C" 
			},
			{
				"x": -1.5149203231,
				"y": -2.0173849128,
				"z": -1.6784597754,
				"element": "C" 
			},
			{
				"x": 0.4680612274,
				"y": 2.7724013398,
				"z": 3.3827488307,
				"element": "H" 
			},
			{
				"x": 0.1892738077,
				"y": 1.4227618617,
				"z": 4.5075792948,
				"element": "H" 
			},
			{
				"x": 1.8432061497,
				"y": 2.0904063317,
				"z": 4.3119608103,
				"element": "H" 
			},
			{
				"x": 1.4040094658,
				"y": 0.0542374335,
				"z": 0.2934022461,
				"element": "H" 
			},
			{
				"x": 1.2310007883,
				"y": -1.2752197168,
				"z": 1.4186821373,
				"element": "H" 
			},
			{
				"x": -1.3511039749,
				"y": -0.4997275915,
				"z": 0.4629684164,
				"element": "H" 
			},
			{
				"x": 2.0175189554,
				"y": -3.1052566499,
				"z": -2.6583444548,
				"element": "H" 
			},
			{
				"x": -2.2160487195,
				"y": -3.0693423817,
				"z": -3.4171891084,
				"element": "H" 
			},
			{
				"x": -2.499424891,
				"y": -1.6864401393,
				"z": -1.3615623385,
				"element": "H" 
			}
		],
		 "valence_orbital": [ 
			{
				"type": "occ",
				"energy": -0.28938,
				"method": "rhf"
			},
			{
				"type": "occ",
				"energy": -0.28717,
				"method": "rhf"
			},
			{
				"type": "occ",
				"energy": -0.2761,
				"method": "rhf"
			},
			{
				"type": "occ",
				"energy": -0.26099,
				"method": "rhf"
			},
			{
				"type": "occ",
				"energy": -0.20598,
				"method": "rhf"
			},
			{
				"type": "unocc",
				"energy": -0.02355,
				"method": "rhf"
			},
			{
				"type": "unocc",
				"energy": -0.00415,
				"method": "rhf"
			},
			{
				"type": "unocc",
				"energy": 0.00469,
				"method": "rhf"
			},
			{
				"type": "unocc",
				"energy": 0.01315,
				"method": "rhf"
			},
			{
				"type": "unocc",
				"energy": 0.096,
				"method": "rhf"
			}
		],
		"cosmo_sigma_profile": { 
			"-0.025": 0.0,
			"-0.024": 0.0,
			"-0.023": 0.0,
			"-0.022": 0.0,
			"-0.021": 0.0,
			"-0.02": 0.0,
			"-0.019": 0.0,
			"-0.018": 0.0,
			"-0.017": 0.0,
			"-0.016": 0.0,
			"-0.015": 0.0,
			"-0.014": 0.0,
			"-0.013": 0.0119141207846,
			"-0.012": 0.797357425846,
			"-0.011": 0.975932618655,
			"-0.01": 1.21313485901,
			"-0.009": 1.14825173205,
			"-0.008": 2.27861191196,
			"-0.007": 8.75229641444,
			"-0.006": 16.0061100184,
			"-0.005": 17.5043470794,
			"-0.004": 18.7347805451,
			"-0.003": 16.4723322012,
			"-0.002": 14.3029494472,
			"-0.001": 12.1456867929,
			"0.0": 13.6116200325,
			"0.001": 17.3532827464,
			"0.002": 23.9932689114,
			"0.003": 18.66750633,
			"0.004": 15.1605501707,
			"0.005": 14.2189862764,
			"0.006": 4.38471204672,
			"0.007": 3.10940631593,
			"0.008": 4.40175315029,
			"0.009": 2.7818351067,
			"0.01": 3.68037022031,
			"0.011": 4.35264307715,
			"0.012": 0.983999749658,
			"0.013": 0.697985205721,
			"0.014": 0.125665265264,
			"0.015": 0.0,
			"0.016": 0.0,
			"0.017": 0.0,
			"0.018": 0.0,
			"0.019": 0.0,
			"0.02": 0.0,
			"0.021": 0.0,
			"0.022": 0.0,
			"0.023": 0.0,
			"0.024": 0.0,
			"0.025": 0.0
		}
	}
}
