{
	 "smiles": "OCC1=CNC2=CC=CC=C12", 
	 "Tm": 370.95, 
	 "num_atms": 20, 
	 "gaussian": { 
		 "optdone": 1, 
		 "sigma_profile": "yes", 
		 "theory": "DFT", 
		 "functional": "B3LYP", 
		 "basiset": "6-31G**", 
		 "properties": { 
			 "R2extent": 1755.0372, 
			 "electric_dipole_moment_norm": 2.86432294443, 
			 "electric_quadrupole_moment_norm": 11.2306522874, 
			 "total_energy": -478.348127828, 
			 "HOMO_LUMO_gap": 0.19308, 
			 "cosmo_polarized_energy": -12.16, 
			 "cosmo_cavitation_energy": 23.66, 
			 "cosmo_dispersion_energy": -17.53, 
			 "cosmo_repulsion_energy": 1.41, 
			 "cosmo_total_nonelectrostatic_energy": 7.54, 
			 "SMD_solvation_energy": 3.88 
		},
		"coords": [
			{
				"x": -2.9308111247,
				"y": -0.1466055155,
				"z": -0.8897977345,
				"element": "O" 
			},
			{
				"x": -2.0528595727,
				"y": 0.9654690294,
				"z": -1.0929592294,
				"element": "C" 
			},
			{
				"x": -0.6006988415,
				"y": 0.6264611708,
				"z": -0.9445194395,
				"element": "C" 
			},
			{
				"x": 0.273570138,
				"y": 0.2826954333,
				"z": -1.9460857826,
				"element": "C" 
			},
			{
				"x": 1.5105596898,
				"y": -0.0202177016,
				"z": -1.4123871221,
				"element": "N" 
			},
			{
				"x": 1.4619842762,
				"y": 0.1206680366,
				"z": -0.0393313141,
				"element": "C" 
			},
			{
				"x": 2.4534177954,
				"y": -0.0676080379,
				"z": 0.9292971958,
				"element": "C" 
			},
			{
				"x": 2.1043875544,
				"y": 0.1565579033,
				"z": 2.2562982382,
				"element": "C" 
			},
			{
				"x": 0.8007035267,
				"y": 0.5610868474,
				"z": 2.6105981858,
				"element": "C" 
			},
			{
				"x": -0.1801359041,
				"y": 0.7475466908,
				"z": 1.6444825903,
				"element": "C" 
			},
			{
				"x": 0.1396209361,
				"y": 0.5264380103,
				"z": 0.2925522852,
				"element": "C" 
			},
			{
				"x": -2.6426060523,
				"y": -0.5924689303,
				"z": -0.0827334916,
				"element": "H" 
			},
			{
				"x": -2.2586834591,
				"y": 1.3179483203,
				"z": -2.10846464,
				"element": "H" 
			},
			{
				"x": -2.3108926223,
				"y": 1.7892613045,
				"z": -0.4082687889,
				"element": "H" 
			},
			{
				"x": 0.1063155271,
				"y": 0.229705172,
				"z": -3.0130314813,
				"element": "H" 
			},
			{
				"x": 2.3248883541,
				"y": -0.2813492539,
				"z": -1.9437461143,
				"element": "H" 
			},
			{
				"x": 3.4585874271,
				"y": -0.377577022,
				"z": 0.657064266,
				"element": "H" 
			},
			{
				"x": 2.8498156637,
				"y": 0.0187767827,
				"z": 3.033974272,
				"element": "H" 
			},
			{
				"x": 0.5636615023,
				"y": 0.7296346967,
				"z": 3.6569852865,
				"element": "H" 
			},
			{
				"x": -1.1801248143,
				"y": 1.0629770631,
				"z": 1.9313728185,
				"element": "H" 
			}
		],
		 "valence_orbital": [ 
			{
				"type": "occ",
				"energy": -0.31871,
				"method": "rhf"
			},
			{
				"type": "occ",
				"energy": -0.27395,
				"method": "rhf"
			},
			{
				"type": "occ",
				"energy": -0.25844,
				"method": "rhf"
			},
			{
				"type": "occ",
				"energy": -0.2227,
				"method": "rhf"
			},
			{
				"type": "occ",
				"energy": -0.20417,
				"method": "rhf"
			},
			{
				"type": "unocc",
				"energy": -0.01109,
				"method": "rhf"
			},
			{
				"type": "unocc",
				"energy": 0.02543,
				"method": "rhf"
			},
			{
				"type": "unocc",
				"energy": 0.05223,
				"method": "rhf"
			},
			{
				"type": "unocc",
				"energy": 0.0774,
				"method": "rhf"
			},
			{
				"type": "unocc",
				"energy": 0.0961,
				"method": "rhf"
			}
		],
		"cosmo_sigma_profile": { 
			"-0.025": 0.0,
			"-0.024": 0.0,
			"-0.023": 0.0,
			"-0.022": 0.0,
			"-0.021": 0.0,
			"-0.02": 0.0,
			"-0.019": 0.0,
			"-0.018": 0.0,
			"-0.017": 0.0,
			"-0.016": 0.41631616435,
			"-0.015": 1.74960804398,
			"-0.014": 1.41112015344,
			"-0.013": 1.77323354697,
			"-0.012": 2.11531692178,
			"-0.011": 1.73900529815,
			"-0.01": 2.07499783212,
			"-0.009": 2.75746071577,
			"-0.008": 4.08535380842,
			"-0.007": 5.05567983501,
			"-0.006": 5.88177689855,
			"-0.005": 11.7939776136,
			"-0.004": 12.9238390649,
			"-0.003": 14.6007526248,
			"-0.002": 12.9336007786,
			"-0.001": 11.5108622375,
			"0.0": 9.40867538858,
			"0.001": 8.55499594392,
			"0.002": 8.33978217049,
			"0.003": 8.68169294828,
			"0.004": 12.6165171065,
			"0.005": 13.6125759394,
			"0.006": 11.27042281,
			"0.007": 9.07310701575,
			"0.008": 2.55072225628,
			"0.009": 1.28323552265,
			"0.01": 1.25426271264,
			"0.011": 1.54457405714,
			"0.012": 0.922943850382,
			"0.013": 1.71063850034,
			"0.014": 2.40366309657,
			"0.015": 1.86218768556,
			"0.016": 0.0262740326664,
			"0.017": 0.0,
			"0.018": 0.0,
			"0.019": 0.0,
			"0.02": 0.0,
			"0.021": 0.0,
			"0.022": 0.0,
			"0.023": 0.0,
			"0.024": 0.0,
			"0.025": 0.0
		}
	}
}
