{
	 "smiles": "NC1=CC(C=CC(O)=O)=CC=C1", 
	 "Tm": 447.15, 
	 "num_atms": 21, 
	 "gaussian": { 
		 "optdone": 1, 
		 "sigma_profile": "yes", 
		 "theory": "DFT", 
		 "functional": "B3LYP", 
		 "basiset": "6-31G**", 
		 "properties": { 
			 "R2extent": 2811.4262, 
			 "electric_dipole_moment_norm": 3.41889283833, 
			 "electric_quadrupole_moment_norm": 20.2232941916, 
			 "total_energy": -553.57676814, 
			 "HOMO_LUMO_gap": 0.14541, 
			 "cosmo_polarized_energy": -14.64, 
			 "cosmo_cavitation_energy": 25.72, 
			 "cosmo_dispersion_energy": -18.69, 
			 "cosmo_repulsion_energy": 1.51, 
			 "cosmo_total_nonelectrostatic_energy": 8.53, 
			 "SMD_solvation_energy": 5.7 
		},
		"coords": [
			{
				"x": 1.2002580876,
				"y": 3.352105523,
				"z": 1.0209525125,
				"element": "N" 
			},
			{
				"x": 0.6423313537,
				"y": 2.0720900588,
				"z": 1.0400936537,
				"element": "C" 
			},
			{
				"x": 1.1646387822,
				"y": 1.0593698967,
				"z": 0.222676965,
				"element": "C" 
			},
			{
				"x": 0.6578453223,
				"y": -0.2465922462,
				"z": 0.2752822894,
				"element": "C" 
			},
			{
				"x": 1.1810567188,
				"y": -1.3679052462,
				"z": -0.5190314204,
				"element": "C" 
			},
			{
				"x": 1.7859875376,
				"y": -1.4818634352,
				"z": -1.7225199341,
				"element": "C" 
			},
			{
				"x": 2.0805156594,
				"y": -0.5182787539,
				"z": -2.7995830391,
				"element": "C" 
			},
			{
				"x": 1.5354547988,
				"y": 0.7199425045,
				"z": -2.6701640332,
				"element": "O" 
			},
			{
				"x": 2.7383252612,
				"y": -0.8163681757,
				"z": -3.7802003757,
				"element": "O" 
			},
			{
				"x": -0.372308694,
				"y": -0.5427089005,
				"z": 1.1905149168,
				"element": "C" 
			},
			{
				"x": -0.9045959736,
				"y": 0.4635445336,
				"z": 1.9914718643,
				"element": "C" 
			},
			{
				"x": -0.4075259133,
				"y": 1.7626374116,
				"z": 1.9230270773,
				"element": "C" 
			},
			{
				"x": 0.5899971205,
				"y": 4.0919075644,
				"z": 1.3398151092,
				"element": "H" 
			},
			{
				"x": 1.6750445406,
				"y": 3.5992623479,
				"z": 0.1636702457,
				"element": "H" 
			},
			{
				"x": 1.9762493849,
				"y": 1.2934040363,
				"z": -0.4543314085,
				"element": "H" 
			},
			{
				"x": 1.0426944647,
				"y": -2.3243645136,
				"z": -0.0137361704,
				"element": "H" 
			},
			{
				"x": 2.1091559872,
				"y": -2.4754658792,
				"z": -2.0174341772,
				"element": "H" 
			},
			{
				"x": 1.7934439899,
				"y": 1.1894308704,
				"z": -3.4812742312,
				"element": "H" 
			},
			{
				"x": -0.757326676,
				"y": -1.5559931607,
				"z": 1.2570191971,
				"element": "H" 
			},
			{
				"x": -1.7098564428,
				"y": 0.2354680272,
				"z": 2.6839373575,
				"element": "H" 
			},
			{
				"x": -0.8171853095,
				"y": 2.5398775368,
				"z": 2.5635136012,
				"element": "H" 
			}
		],
		 "valence_orbital": [ 
			{
				"type": "occ",
				"energy": -0.31271,
				"method": "rhf"
			},
			{
				"type": "occ",
				"energy": -0.28704,
				"method": "rhf"
			},
			{
				"type": "occ",
				"energy": -0.27047,
				"method": "rhf"
			},
			{
				"type": "occ",
				"energy": -0.23637,
				"method": "rhf"
			},
			{
				"type": "occ",
				"energy": -0.2068,
				"method": "rhf"
			},
			{
				"type": "unocc",
				"energy": -0.06139,
				"method": "rhf"
			},
			{
				"type": "unocc",
				"energy": 0.00898,
				"method": "rhf"
			},
			{
				"type": "unocc",
				"energy": 0.0212,
				"method": "rhf"
			},
			{
				"type": "unocc",
				"energy": 0.07474,
				"method": "rhf"
			},
			{
				"type": "unocc",
				"energy": 0.08219,
				"method": "rhf"
			}
		],
		"cosmo_sigma_profile": { 
			"-0.025": 0.0,
			"-0.024": 0.0,
			"-0.023": 0.0,
			"-0.022": 0.0,
			"-0.021": 0.0,
			"-0.02": 0.0,
			"-0.019": 0.0,
			"-0.018": 0.186480259585,
			"-0.017": 1.2003968559,
			"-0.016": 0.607540335518,
			"-0.015": 0.866081152536,
			"-0.014": 0.729343117954,
			"-0.013": 1.12611068185,
			"-0.012": 3.1976878577,
			"-0.011": 3.30878751711,
			"-0.01": 3.32534749269,
			"-0.009": 2.95502203893,
			"-0.008": 4.3641767354,
			"-0.007": 5.2126986847,
			"-0.006": 12.1468894909,
			"-0.005": 11.6707090565,
			"-0.004": 11.6860868334,
			"-0.003": 11.4390656417,
			"-0.002": 11.6118254977,
			"-0.001": 10.4052481011,
			"0.0": 11.0197172619,
			"0.001": 11.2685232483,
			"0.002": 11.8394675033,
			"0.003": 13.2927099871,
			"0.004": 9.8266009593,
			"0.005": 13.0673872781,
			"0.006": 11.8126276176,
			"0.007": 3.27388878025,
			"0.008": 3.14112877153,
			"0.009": 3.78939428272,
			"0.01": 3.52409686588,
			"0.011": 2.62237890514,
			"0.012": 5.97583244639,
			"0.013": 3.29341798928,
			"0.014": 0.54667932846,
			"0.015": 0.176444109678,
			"0.016": 0.0,
			"0.017": 0.0,
			"0.018": 0.0,
			"0.019": 0.0,
			"0.02": 0.0,
			"0.021": 0.0,
			"0.022": 0.0,
			"0.023": 0.0,
			"0.024": 0.0,
			"0.025": 0.0
		}
	}
}
