{
	 "smiles": "NC1=NC2=C(S1)C=C(OCC(F)(F)F)C=C2", 
	 "Tm": 408.15, 
	 "num_atms": 23, 
	 "gaussian": { 
		 "optdone": 1, 
		 "sigma_profile": "yes", 
		 "theory": "DFT", 
		 "functional": "B3LYP", 
		 "basiset": "6-31G**", 
		 "properties": { 
			 "R2extent": 6115.6903, 
			 "electric_dipole_moment_norm": 3.9747656346, 
			 "electric_quadrupole_moment_norm": 11.3684263779, 
			 "total_energy": -1229.61514392, 
			 "HOMO_LUMO_gap": 0.19261, 
			 "cosmo_polarized_energy": -14.02, 
			 "cosmo_cavitation_energy": 31.12, 
			 "cosmo_dispersion_energy": -23.01, 
			 "cosmo_repulsion_energy": 1.69, 
			 "cosmo_total_nonelectrostatic_energy": 9.8, 
			 "SMD_solvation_energy": 4.39 
		},
		"coords": [
			{
				"x": -2.3956509159,
				"y": -0.6367279104,
				"z": -4.6031570445,
				"element": "N" 
			},
			{
				"x": -1.746491071,
				"y": -0.4200146831,
				"z": -3.4134748974,
				"element": "C" 
			},
			{
				"x": -0.5130476137,
				"y": -0.7342293857,
				"z": -3.1850518297,
				"element": "N" 
			},
			{
				"x": -0.1713504578,
				"y": -0.4617206512,
				"z": -1.867452769,
				"element": "C" 
			},
			{
				"x": -1.1919024004,
				"y": 0.0958856133,
				"z": -1.0659594894,
				"element": "C" 
			},
			{
				"x": -2.6591189258,
				"y": 0.2576152085,
				"z": -2.0262037084,
				"element": "S" 
			},
			{
				"x": -0.9928121606,
				"y": 0.438205162,
				"z": 0.2737764311,
				"element": "C" 
			},
			{
				"x": 0.2729242214,
				"y": 0.2055869773,
				"z": 0.8174036163,
				"element": "C" 
			},
			{
				"x": 0.6143489662,
				"y": 0.4890822156,
				"z": 2.1181742379,
				"element": "O" 
			},
			{
				"x": -0.36830312,
				"y": 1.0440680405,
				"z": 2.9566560967,
				"element": "C" 
			},
			{
				"x": 0.2611660386,
				"y": 1.2566330478,
				"z": 4.3219889538,
				"element": "C" 
			},
			{
				"x": 0.6866312239,
				"y": 0.1027136351,
				"z": 4.863132092,
				"element": "F" 
			},
			{
				"x": 1.3052515067,
				"y": 2.1007323823,
				"z": 4.2666476854,
				"element": "F" 
			},
			{
				"x": -0.664741367,
				"y": 1.790572657,
				"z": 5.1499768626,
				"element": "F" 
			},
			{
				"x": 1.3037976632,
				"y": -0.3508066691,
				"z": 0.0385225454,
				"element": "C" 
			},
			{
				"x": 1.0881912878,
				"y": -0.6820175938,
				"z": -1.2908526143,
				"element": "C" 
			},
			{
				"x": -3.1479691678,
				"y": -0.0075347314,
				"z": -4.8431012306,
				"element": "H" 
			},
			{
				"x": -1.7693585309,
				"y": -0.8516581852,
				"z": -5.3679653412,
				"element": "H" 
			},
			{
				"x": -1.7980322631,
				"y": 0.8649104733,
				"z": 0.8589502143,
				"element": "H" 
			},
			{
				"x": -0.7227500277,
				"y": 2.0169496608,
				"z": 2.5911858896,
				"element": "H" 
			},
			{
				"x": -1.2313299391,
				"y": 0.3766451384,
				"z": 3.0806488709,
				"element": "H" 
			},
			{
				"x": 2.2681572,
				"y": -0.5119405809,
				"z": 0.5079126942,
				"element": "H" 
			},
			{
				"x": 1.8810898529,
				"y": -1.1104498211,
				"z": -1.8946572658,
				"element": "H" 
			}
		],
		 "valence_orbital": [ 
			{
				"type": "occ",
				"energy": -0.30232,
				"method": "rhf"
			},
			{
				"type": "occ",
				"energy": -0.2814,
				"method": "rhf"
			},
			{
				"type": "occ",
				"energy": -0.27803,
				"method": "rhf"
			},
			{
				"type": "occ",
				"energy": -0.2379,
				"method": "rhf"
			},
			{
				"type": "occ",
				"energy": -0.20502,
				"method": "rhf"
			},
			{
				"type": "unocc",
				"energy": -0.01241,
				"method": "rhf"
			},
			{
				"type": "unocc",
				"energy": -0.00918,
				"method": "rhf"
			},
			{
				"type": "unocc",
				"energy": -0.00217,
				"method": "rhf"
			},
			{
				"type": "unocc",
				"energy": 0.04746,
				"method": "rhf"
			},
			{
				"type": "unocc",
				"energy": 0.06433,
				"method": "rhf"
			}
		],
		"cosmo_sigma_profile": { 
			"-0.025": 0.0,
			"-0.024": 0.0,
			"-0.023": 0.0,
			"-0.022": 0.0,
			"-0.021": 0.0,
			"-0.02": 0.0,
			"-0.019": 0.0,
			"-0.018": 0.0,
			"-0.017": 0.0,
			"-0.016": 0.00377020548759,
			"-0.015": 0.894880367602,
			"-0.014": 2.37865821981,
			"-0.013": 2.62520184355,
			"-0.012": 2.14781491717,
			"-0.011": 3.42656939371,
			"-0.01": 1.81440634272,
			"-0.009": 3.9895755033,
			"-0.008": 12.8935012715,
			"-0.007": 8.50485103083,
			"-0.006": 8.82634608652,
			"-0.005": 8.21756436595,
			"-0.004": 8.899015704,
			"-0.003": 8.61795067483,
			"-0.002": 7.48515700269,
			"-0.001": 10.2846821035,
			"0.0": 11.8680973226,
			"0.001": 17.5209781825,
			"0.002": 34.0954352483,
			"0.003": 42.9990510012,
			"0.004": 22.656797427,
			"0.005": 11.8376782727,
			"0.006": 4.79926062156,
			"0.007": 4.41323748517,
			"0.008": 1.92982588008,
			"0.009": 1.606506102,
			"0.01": 1.57529887546,
			"0.011": 1.57655538267,
			"0.012": 1.05934313271,
			"0.013": 0.714041129497,
			"0.014": 0.947778689976,
			"0.015": 0.738265666729,
			"0.016": 0.100297718569,
			"0.017": 0.0,
			"0.018": 0.0,
			"0.019": 0.0,
			"0.02": 0.0,
			"0.021": 0.0,
			"0.022": 0.0,
			"0.023": 0.0,
			"0.024": 0.0,
			"0.025": 0.0
		}
	}
}
