{
	 "smiles": "CC1C2CC3OCC45C3C3(C2OC(C)(C)OC3CC4C(C)(C)CCC5=O)C1=O", 
	 "Tm": 525.15, 
	 "num_atms": 60, 
	 "gaussian": { 
		 "optdone": 1, 
		 "sigma_profile": "yes", 
		 "theory": "DFT", 
		 "functional": "B3LYP", 
		 "basiset": "6-31G**", 
		 "properties": { 
			 "R2extent": 9320.7947, 
			 "electric_dipole_moment_norm": 0.76476130263, 
			 "electric_quadrupole_moment_norm": 17.6004138508, 
			 "total_energy": -1271.83203205, 
			 "HOMO_LUMO_gap": 0.21112, 
			 "cosmo_polarized_energy": -16.6, 
			 "cosmo_cavitation_energy": 50.15, 
			 "cosmo_dispersion_energy": -34.53, 
			 "cosmo_repulsion_energy": 2.49, 
			 "cosmo_total_nonelectrostatic_energy": 18.12, 
			 "SMD_solvation_energy": 8.07 
		},
		"coords": [
			{
				"x": -2.8686245629,
				"y": 2.8987940592,
				"z": -0.0535280889,
				"element": "C" 
			},
			{
				"x": -1.9736713186,
				"y": 2.0390956444,
				"z": 0.8378182046,
				"element": "C" 
			},
			{
				"x": -0.843445671,
				"y": 2.7004648632,
				"z": 1.6687328854,
				"element": "C" 
			},
			{
				"x": 0.0563386107,
				"y": 3.677724542,
				"z": 0.8175818951,
				"element": "C" 
			},
			{
				"x": 0.5655745006,
				"y": 2.933623035,
				"z": -0.4249685023,
				"element": "C" 
			},
			{
				"x": 1.5702764577,
				"y": 3.5032463845,
				"z": -1.2621219029,
				"element": "O" 
			},
			{
				"x": 1.9229388952,
				"y": 2.3984617387,
				"z": -2.1089814909,
				"element": "C" 
			},
			{
				"x": 1.9622590174,
				"y": 1.087355743,
				"z": -1.1980010653,
				"element": "C" 
			},
			{
				"x": 1.2228331811,
				"y": 1.6495906075,
				"z": 0.0245514104,
				"element": "C" 
			},
			{
				"x": 0.1988258683,
				"y": 0.7795570843,
				"z": 0.7272619525,
				"element": "C" 
			},
			{
				"x": -0.0414665329,
				"y": 1.4338260306,
				"z": 2.0868313403,
				"element": "C" 
			},
			{
				"x": -0.8447989559,
				"y": 0.5490360896,
				"z": 2.8727883355,
				"element": "O" 
			},
			{
				"x": -0.3738398558,
				"y": -0.8174748888,
				"z": 2.9451678863,
				"element": "C" 
			},
			{
				"x": 0.8670599917,
				"y": -0.9053421999,
				"z": 3.8448334697,
				"element": "C" 
			},
			{
				"x": -1.5440662611,
				"y": -1.6068863995,
				"z": 3.5142085116,
				"element": "C" 
			},
			{
				"x": -0.1254736268,
				"y": -1.391500591,
				"z": 1.6534708575,
				"element": "O" 
			},
			{
				"x": 0.7480666512,
				"y": -0.6165167365,
				"z": 0.8260150957,
				"element": "C" 
			},
			{
				"x": 0.932255202,
				"y": -1.2386562851,
				"z": -0.5717473919,
				"element": "C" 
			},
			{
				"x": 1.2548059981,
				"y": -0.2139552438,
				"z": -1.7362288564,
				"element": "C" 
			},
			{
				"x": 2.0199415042,
				"y": -0.9113115975,
				"z": -2.9146069646,
				"element": "C" 
			},
			{
				"x": 1.3422015441,
				"y": -2.2488464495,
				"z": -3.2852437993,
				"element": "C" 
			},
			{
				"x": 1.99050336,
				"y": -0.0410809805,
				"z": -4.1918638646,
				"element": "C" 
			},
			{
				"x": 3.486117733,
				"y": -1.1833576656,
				"z": -2.5003275045,
				"element": "C" 
			},
			{
				"x": 4.2156101541,
				"y": 0.0688608233,
				"z": -1.9731725395,
				"element": "C" 
			},
			{
				"x": 3.4287458089,
				"y": 0.7493918235,
				"z": -0.8642767549,
				"element": "C" 
			},
			{
				"x": 3.9334895434,
				"y": 0.9871150025,
				"z": 0.2192259049,
				"element": "O" 
			},
			{
				"x": -1.2253381848,
				"y": 0.9116867863,
				"z": 0.1020432591,
				"element": "C" 
			},
			{
				"x": -1.6869081531,
				"y": 0.2617510298,
				"z": -0.81287791,
				"element": "O" 
			},
			{
				"x": -2.3011289744,
				"y": 3.5062148854,
				"z": -0.7649103102,
				"element": "H" 
			},
			{
				"x": -3.5355684886,
				"y": 2.252070339,
				"z": -0.6304638763,
				"element": "H" 
			},
			{
				"x": -3.4819587286,
				"y": 3.5756608203,
				"z": 0.5494454042,
				"element": "H" 
			},
			{
				"x": -2.6143458462,
				"y": 1.5120906583,
				"z": 1.5558201118,
				"element": "H" 
			},
			{
				"x": -1.2348735698,
				"y": 3.2390498345,
				"z": 2.5371417417,
				"element": "H" 
			},
			{
				"x": -0.5267071611,
				"y": 4.5646442996,
				"z": 0.5496491768,
				"element": "H" 
			},
			{
				"x": 0.9070470121,
				"y": 4.0164638333,
				"z": 1.4205327761,
				"element": "H" 
			},
			{
				"x": -0.2979669981,
				"y": 2.713356259,
				"z": -1.0739132355,
				"element": "H" 
			},
			{
				"x": 2.8749691123,
				"y": 2.6475617621,
				"z": -2.5829069934,
				"element": "H" 
			},
			{
				"x": 1.1592166321,
				"y": 2.2748010151,
				"z": -2.8896341214,
				"element": "H" 
			},
			{
				"x": 1.9959893681,
				"y": 1.9164435794,
				"z": 0.7542764117,
				"element": "H" 
			},
			{
				"x": 0.891027612,
				"y": 1.6816971185,
				"z": 2.610030677,
				"element": "H" 
			},
			{
				"x": 0.6225755314,
				"y": -0.5332181664,
				"z": 4.8432011424,
				"element": "H" 
			},
			{
				"x": 1.7071055357,
				"y": -0.3194763343,
				"z": 3.4653161499,
				"element": "H" 
			},
			{
				"x": 1.1904718545,
				"y": -1.9466246745,
				"z": 3.9243518791,
				"element": "H" 
			},
			{
				"x": -1.8261860073,
				"y": -1.2106538024,
				"z": 4.492502091,
				"element": "H" 
			},
			{
				"x": -1.270733245,
				"y": -2.6598030164,
				"z": 3.6162547661,
				"element": "H" 
			},
			{
				"x": -2.3960240181,
				"y": -1.5275290622,
				"z": 2.8356428266,
				"element": "H" 
			},
			{
				"x": 1.7366785311,
				"y": -0.546213253,
				"z": 1.3040390326,
				"element": "H" 
			},
			{
				"x": 0.002570837,
				"y": -1.7489741886,
				"z": -0.8302542447,
				"element": "H" 
			},
			{
				"x": 1.7128728642,
				"y": -2.0020863107,
				"z": -0.501940011,
				"element": "H" 
			},
			{
				"x": 0.2814937317,
				"y": 0.1024754017,
				"z": -2.1250162025,
				"element": "H" 
			},
			{
				"x": 1.8426963591,
				"y": -2.6953525444,
				"z": -4.1515557995,
				"element": "H" 
			},
			{
				"x": 0.2906479854,
				"y": -2.0953827909,
				"z": -3.5517126433,
				"element": "H" 
			},
			{
				"x": 1.3794050784,
				"y": -2.9793593843,
				"z": -2.4737171629,
				"element": "H" 
			},
			{
				"x": 2.4437100887,
				"y": -0.5888412985,
				"z": -5.0256028611,
				"element": "H" 
			},
			{
				"x": 0.960837702,
				"y": 0.1996519681,
				"z": -4.4773119119,
				"element": "H" 
			},
			{
				"x": 2.5367130514,
				"y": 0.8995477033,
				"z": -4.0960913617,
				"element": "H" 
			},
			{
				"x": 3.5098425614,
				"y": -1.9541116271,
				"z": -1.7205305032,
				"element": "H" 
			},
			{
				"x": 4.0399045585,
				"y": -1.5975745171,
				"z": -3.3516930111,
				"element": "H" 
			},
			{
				"x": 5.2057449712,
				"y": -0.1783198338,
				"z": -1.5819142617,
				"element": "H" 
			},
			{
				"x": 4.3572611605,
				"y": 0.7871390771,
				"z": -2.7908200479,
				"element": "H" 
			}
		],
		 "valence_orbital": [ 
			{
				"type": "occ",
				"energy": -0.26839,
				"method": "rhf"
			},
			{
				"type": "occ",
				"energy": -0.2632,
				"method": "rhf"
			},
			{
				"type": "occ",
				"energy": -0.25354,
				"method": "rhf"
			},
			{
				"type": "occ",
				"energy": -0.24428,
				"method": "rhf"
			},
			{
				"type": "occ",
				"energy": -0.23318,
				"method": "rhf"
			},
			{
				"type": "unocc",
				"energy": -0.02206,
				"method": "rhf"
			},
			{
				"type": "unocc",
				"energy": -0.01882,
				"method": "rhf"
			},
			{
				"type": "unocc",
				"energy": 0.07089,
				"method": "rhf"
			},
			{
				"type": "unocc",
				"energy": 0.07614,
				"method": "rhf"
			},
			{
				"type": "unocc",
				"energy": 0.07895,
				"method": "rhf"
			}
		],
		"cosmo_sigma_profile": { 
			"-0.025": 0.0,
			"-0.024": 0.0,
			"-0.023": 0.0,
			"-0.022": 0.0,
			"-0.021": 0.0,
			"-0.02": 0.0,
			"-0.019": 0.0,
			"-0.018": 0.0,
			"-0.017": 0.0,
			"-0.016": 0.0,
			"-0.015": 0.0,
			"-0.014": 0.0,
			"-0.013": 0.0,
			"-0.012": 0.0,
			"-0.011": 0.00452646825118,
			"-0.01": 0.36677847574,
			"-0.009": 0.825402194299,
			"-0.008": 2.11289119398,
			"-0.007": 3.24424564633,
			"-0.006": 6.44813292288,
			"-0.005": 19.3272682382,
			"-0.004": 40.3486903505,
			"-0.003": 55.2529390588,
			"-0.002": 53.7553596465,
			"-0.001": 45.7573726732,
			"0.0": 39.773717318,
			"0.001": 26.7645050658,
			"0.002": 11.698926329,
			"0.003": 8.32555270081,
			"0.004": 7.83664902273,
			"0.005": 8.82437755525,
			"0.006": 6.43971068462,
			"0.007": 7.52799789403,
			"0.008": 7.24576208285,
			"0.009": 6.87031614157,
			"0.01": 7.95986656651,
			"0.011": 7.87990306941,
			"0.012": 8.99360910143,
			"0.013": 2.57847150109,
			"0.014": 0.00936580905243,
			"0.015": 0.0,
			"0.016": 0.0,
			"0.017": 0.0,
			"0.018": 0.0,
			"0.019": 0.0,
			"0.02": 0.0,
			"0.021": 0.0,
			"0.022": 0.0,
			"0.023": 0.0,
			"0.024": 0.0,
			"0.025": 0.0
		}
	}
}
