{
	 "smiles": "OC(=O)C1=NN(CC2=CC=CC=C2)C(=O)C2=C1C=CC=C2", 
	 "Tm": 473.15, 
	 "num_atms": 33, 
	 "gaussian": { 
		 "optdone": 1, 
		 "sigma_profile": "yes", 
		 "theory": "DFT", 
		 "functional": "B3LYP", 
		 "basiset": "6-31G**", 
		 "properties": { 
			 "R2extent": 7389.5937, 
			 "electric_dipole_moment_norm": 2.33275183849, 
			 "electric_quadrupole_moment_norm": 27.6612931035, 
			 "total_energy": -952.126378809, 
			 "HOMO_LUMO_gap": 0.16408, 
			 "cosmo_polarized_energy": -14.37, 
			 "cosmo_cavitation_energy": 37.68, 
			 "cosmo_dispersion_energy": -26.85, 
			 "cosmo_repulsion_energy": 2.01, 
			 "cosmo_total_nonelectrostatic_energy": 12.83, 
			 "SMD_solvation_energy": 7.13 
		},
		"coords": [
			{
				"x": -2.8525809121,
				"y": -1.2988722764,
				"z": -3.7389863323,
				"element": "O" 
			},
			{
				"x": -3.1662540292,
				"y": -1.6409827342,
				"z": -2.4788929819,
				"element": "C" 
			},
			{
				"x": -4.213916787,
				"y": -2.1867127849,
				"z": -2.2097164976,
				"element": "O" 
			},
			{
				"x": -2.1098464152,
				"y": -1.2867863443,
				"z": -1.4568510631,
				"element": "C" 
			},
			{
				"x": -1.0550384277,
				"y": -0.7245242435,
				"z": -1.9844974653,
				"element": "N" 
			},
			{
				"x": -0.0204083277,
				"y": -0.3516621011,
				"z": -1.2214592778,
				"element": "N" 
			},
			{
				"x": 1.1022695682,
				"y": 0.294891178,
				"z": -1.9354498193,
				"element": "C" 
			},
			{
				"x": 0.8786572671,
				"y": 1.773236312,
				"z": -2.1767941651,
				"element": "C" 
			},
			{
				"x": 1.0882676927,
				"y": 2.6993672272,
				"z": -1.1448784073,
				"element": "C" 
			},
			{
				"x": 0.8678725599,
				"y": 4.0586055102,
				"z": -1.3655088592,
				"element": "C" 
			},
			{
				"x": 0.4393905516,
				"y": 4.5078079291,
				"z": -2.617301835,
				"element": "C" 
			},
			{
				"x": 0.2319247938,
				"y": 3.5918572934,
				"z": -3.6493657784,
				"element": "C" 
			},
			{
				"x": 0.4502290386,
				"y": 2.2307231152,
				"z": -3.4280250647,
				"element": "C" 
			},
			{
				"x": 0.0333749876,
				"y": -0.4804171392,
				"z": 0.1766332528,
				"element": "C" 
			},
			{
				"x": 1.0052502566,
				"y": -0.0709074849,
				"z": 0.8047068418,
				"element": "O" 
			},
			{
				"x": -1.1414593669,
				"y": -1.1307410617,
				"z": 0.7725648651,
				"element": "C" 
			},
			{
				"x": -2.2311861749,
				"y": -1.5395748865,
				"z": -0.033732725,
				"element": "C" 
			},
			{
				"x": -3.3429740411,
				"y": -2.1529849383,
				"z": 0.5828900291,
				"element": "C" 
			},
			{
				"x": -3.348243369,
				"y": -2.3449936342,
				"z": 1.9569381802,
				"element": "C" 
			},
			{
				"x": -2.2627841793,
				"y": -1.9369663631,
				"z": 2.7500851073,
				"element": "C" 
			},
			{
				"x": -1.1642534264,
				"y": -1.3304977313,
				"z": 2.1607949633,
				"element": "C" 
			},
			{
				"x": -1.9723934749,
				"y": -0.875485128,
				"z": -3.7092365056,
				"element": "H" 
			},
			{
				"x": 1.2154478021,
				"y": -0.2418554703,
				"z": -2.8793201655,
				"element": "H" 
			},
			{
				"x": 1.9841154503,
				"y": 0.1278768467,
				"z": -1.3165085084,
				"element": "H" 
			},
			{
				"x": 1.4186440825,
				"y": 2.3444166179,
				"z": -0.1731493096,
				"element": "H" 
			},
			{
				"x": 1.0347463853,
				"y": 4.7689498773,
				"z": -0.5607985565,
				"element": "H" 
			},
			{
				"x": 0.2716043385,
				"y": 5.5673455899,
				"z": -2.7878409278,
				"element": "H" 
			},
			{
				"x": -0.0971922436,
				"y": 3.9349019867,
				"z": -4.6260024012,
				"element": "H" 
			},
			{
				"x": 0.2927469495,
				"y": 1.5197882383,
				"z": -4.2354638814,
				"element": "H" 
			},
			{
				"x": -4.1759762536,
				"y": -2.4647057693,
				"z": -0.0323874545,
				"element": "H" 
			},
			{
				"x": -4.2071186814,
				"y": -2.8182683005,
				"z": 2.423624936,
				"element": "H" 
			},
			{
				"x": -2.2855881855,
				"y": -2.0960218382,
				"z": 3.8239557208,
				"element": "H" 
			},
			{
				"x": -0.309727429,
				"y": -1.0002074921,
				"z": 2.7408740864,
				"element": "H" 
			}
		],
		 "valence_orbital": [ 
			{
				"type": "occ",
				"energy": -0.27444,
				"method": "rhf"
			},
			{
				"type": "occ",
				"energy": -0.27138,
				"method": "rhf"
			},
			{
				"type": "occ",
				"energy": -0.2576,
				"method": "rhf"
			},
			{
				"type": "occ",
				"energy": -0.25498,
				"method": "rhf"
			},
			{
				"type": "occ",
				"energy": -0.24547,
				"method": "rhf"
			},
			{
				"type": "unocc",
				"energy": -0.08139,
				"method": "rhf"
			},
			{
				"type": "unocc",
				"energy": -0.05838,
				"method": "rhf"
			},
			{
				"type": "unocc",
				"energy": -0.01599,
				"method": "rhf"
			},
			{
				"type": "unocc",
				"energy": -0.01429,
				"method": "rhf"
			},
			{
				"type": "unocc",
				"energy": -0.00844,
				"method": "rhf"
			}
		],
		"cosmo_sigma_profile": { 
			"-0.025": 0.0,
			"-0.024": 0.0,
			"-0.023": 0.0,
			"-0.022": 0.0,
			"-0.021": 0.0,
			"-0.02": 0.0,
			"-0.019": 0.0,
			"-0.018": 0.0,
			"-0.017": 0.0,
			"-0.016": 0.0,
			"-0.015": 0.0,
			"-0.014": 0.0,
			"-0.013": 0.258716735681,
			"-0.012": 0.858796582235,
			"-0.011": 0.584034863285,
			"-0.01": 0.739839248942,
			"-0.009": 0.651978472852,
			"-0.008": 1.20808964164,
			"-0.007": 8.26532994419,
			"-0.006": 19.0692655573,
			"-0.005": 26.0268814218,
			"-0.004": 27.3797446895,
			"-0.003": 27.6121918962,
			"-0.002": 18.5764650618,
			"-0.001": 21.1784196849,
			"0.0": 21.554119224,
			"0.001": 23.9008357494,
			"0.002": 24.2431850754,
			"0.003": 15.6770827528,
			"0.004": 12.1896808282,
			"0.005": 12.8369594454,
			"0.006": 8.35961363176,
			"0.007": 3.88390259948,
			"0.008": 4.26296566147,
			"0.009": 5.26146178354,
			"0.01": 7.24350089515,
			"0.011": 5.12077979868,
			"0.012": 5.33885391529,
			"0.013": 1.08623740918,
			"0.014": 0.0,
			"0.015": 0.0,
			"0.016": 0.0,
			"0.017": 0.0,
			"0.018": 0.0,
			"0.019": 0.0,
			"0.02": 0.0,
			"0.021": 0.0,
			"0.022": 0.0,
			"0.023": 0.0,
			"0.024": 0.0,
			"0.0": 0.0
		}
	}
}
