{
	 "smiles": "FC(F)(F)C1=CC(Cl)=C(C(=O)CBr)C(Cl)=C1", 
	 "Tm": 320.15, 
	 "num_atms": 20, 
	 "gaussian": { 
		 "optdone": 1, 
		 "sigma_profile": "yes", 
		 "theory": "DFT", 
		 "functional": "B3LYP", 
		 "basiset": "6-31G**", 
		 "properties": { 
			 "R2extent": 7304.3453, 
			 "electric_dipole_moment_norm": 1.51460701504, 
			 "electric_quadrupole_moment_norm": 7.74998015933, 
			 "total_energy": -4211.88874935, 
			 "HOMO_LUMO_gap": 0.19603, 
			 "cosmo_polarized_energy": -7.86, 
			 "cosmo_cavitation_energy": 32.38, 
			 "cosmo_dispersion_energy": -22.59, 
			 "cosmo_repulsion_energy": 1.72, 
			 "cosmo_total_nonelectrostatic_energy": 11.51, 
			 "SMD_solvation_energy": 5.69 
		},
		"coords": [
			{
				"x": 1.8961165542,
				"y": 3.4182834541,
				"z": 2.6975155095,
				"element": "F" 
			},
			{
				"x": 0.8912170748,
				"y": 2.5191284846,
				"z": 2.6788768759,
				"element": "C" 
			},
			{
				"x": -0.2588774956,
				"y": 3.2010838766,
				"z": 2.865595608,
				"element": "F" 
			},
			{
				"x": 1.0476088976,
				"y": 1.7006069807,
				"z": 3.7395200571,
				"element": "F" 
			},
			{
				"x": 0.8631463481,
				"y": 1.7471741431,
				"z": 1.3821450128,
				"element": "C" 
			},
			{
				"x": 1.2636954237,
				"y": 2.3706438284,
				"z": 0.2015647434,
				"element": "C" 
			},
			{
				"x": 1.1811121225,
				"y": 1.6722222591,
				"z": -1.0001752244,
				"element": "C" 
			},
			{
				"x": 1.6925021268,
				"y": 2.4876295264,
				"z": -2.4592863086,
				"element": "Cl" 
			},
			{
				"x": 0.7224868518,
				"y": 0.34561399,
				"z": -1.0526286364,
				"element": "C" 
			},
			{
				"x": 0.5885278355,
				"y": -0.3867285822,
				"z": -2.3780887716,
				"element": "C" 
			},
			{
				"x": -0.257122242,
				"y": -0.0555802233,
				"z": -3.1785729325,
				"element": "O" 
			},
			{
				"x": 1.5226136773,
				"y": -1.5494983714,
				"z": -2.6788428147,
				"element": "C" 
			},
			{
				"x": 3.4166994216,
				"y": -1.0353736859,
				"z": -2.4889701223,
				"element": "Br" 
			},
			{
				"x": 0.3196675196,
				"y": -0.2402074806,
				"z": 0.1550544276,
				"element": "C" 
			},
			{
				"x": -0.3269425512,
				"y": -1.8750562931,
				"z": 0.167609578,
				"element": "Cl" 
			},
			{
				"x": 0.3839008313,
				"y": 0.4391361167,
				"z": 1.3683205407,
				"element": "C" 
			},
			{
				"x": 1.6423808118,
				"y": 3.3851291749,
				"z": 0.2127670166,
				"element": "H" 
			},
			{
				"x": 1.3679265731,
				"y": -2.37425912,
				"z": -1.9839724507,
				"element": "H" 
			},
			{
				"x": 1.3677508289,
				"y": -1.8693028167,
				"z": -3.7070926396,
				"element": "H" 
			},
			{
				"x": 0.0674893902,
				"y": -0.0465452613,
				"z": 2.2828605311,
				"element": "H" 
			}
		],
		 "valence_orbital": [ 
			{
				"type": "occ",
				"energy": -0.30678,
				"method": "rhf"
			},
			{
				"type": "occ",
				"energy": -0.29733,
				"method": "rhf"
			},
			{
				"type": "occ",
				"energy": -0.28748,
				"method": "rhf"
			},
			{
				"type": "occ",
				"energy": -0.27706,
				"method": "rhf"
			},
			{
				"type": "occ",
				"energy": -0.27553,
				"method": "rhf"
			},
			{
				"type": "unocc",
				"energy": -0.0795,
				"method": "rhf"
			},
			{
				"type": "unocc",
				"energy": -0.05369,
				"method": "rhf"
			},
			{
				"type": "unocc",
				"energy": -0.05025,
				"method": "rhf"
			},
			{
				"type": "unocc",
				"energy": -0.01424,
				"method": "rhf"
			},
			{
				"type": "unocc",
				"energy": 0.00169,
				"method": "rhf"
			}
		],
		"cosmo_sigma_profile": { 
			"-0.025": 0.0,
			"-0.024": 0.0,
			"-0.023": 0.0,
			"-0.022": 0.0,
			"-0.021": 0.0,
			"-0.02": 0.0,
			"-0.019": 0.0,
			"-0.018": 0.0,
			"-0.017": 0.0,
			"-0.016": 0.0,
			"-0.015": 0.0,
			"-0.014": 0.0,
			"-0.013": 0.0,
			"-0.012": 0.0,
			"-0.011": 0.0,
			"-0.01": 0.186089478045,
			"-0.009": 3.66793801295,
			"-0.008": 6.97237185594,
			"-0.007": 7.17068221174,
			"-0.006": 8.81365790086,
			"-0.005": 8.67783615611,
			"-0.004": 11.0396757827,
			"-0.003": 15.5913934952,
			"-0.002": 22.4363532324,
			"-0.001": 32.4145303634,
			"0.0": 20.3202589235,
			"0.001": 23.3673471373,
			"0.002": 42.4398624756,
			"0.003": 29.158724792,
			"0.004": 13.858506376,
			"0.005": 8.50210806331,
			"0.006": 2.00979803676,
			"0.007": 2.29715474767,
			"0.008": 2.58639113417,
			"0.009": 4.22008390122,
			"0.01": 2.32556489467,
			"0.011": 0.0326232715213,
			"0.012": 0.0,
			"0.013": 0.0,
			"0.014": 0.0,
			"0.015": 0.0,
			"0.016": 0.0,
			"0.017": 0.0,
			"0.018": 0.0,
			"0.019": 0.0,
			"0.02": 0.0,
			"0.021": 0.0,
			"0.022": 0.0,
			"0.023": 0.0,
			"0.024": 0.0,
			"0.025": 0.0
		}
	}
}
