{
	 "smiles": "CC(=O)O[C@H]1CCC2C3CC[C@H]4CC(CC[C@]4(C)C3CC[C@]12C)=C(C)C", 
	 "Tm": 381.15, 
	 "num_atms": 64, 
	 "gaussian": { 
		 "optdone": 1, 
		 "sigma_profile": "yes", 
		 "theory": "DFT", 
		 "functional": "B3LYP", 
		 "basiset": "6-31G**", 
		 "properties": { 
			 "R2extent": 14248.9575, 
			 "electric_dipole_moment_norm": 1.88248685786, 
			 "electric_quadrupole_moment_norm": 14.8598642968, 
			 "total_energy": -1087.93536022, 
			 "HOMO_LUMO_gap": 0.23057, 
			 "cosmo_polarized_energy": -7.63, 
			 "cosmo_cavitation_energy": 54.96, 
			 "cosmo_dispersion_energy": -37.76, 
			 "cosmo_repulsion_energy": 2.82, 
			 "cosmo_total_nonelectrostatic_energy": 20.02, 
			 "SMD_solvation_energy": 8.91 
		},
		"coords": [
			{
				"x": 0.018498959,
				"y": -4.2442411078,
				"z": -6.3111721248,
				"element": "C" 
			},
			{
				"x": -0.722100281,
				"y": -3.3173660233,
				"z": -5.3747243871,
				"element": "C" 
			},
			{
				"x": -1.6641798104,
				"y": -2.6193202917,
				"z": -5.6823155342,
				"element": "O" 
			},
			{
				"x": -0.18747403,
				"y": -3.368978355,
				"z": -4.1322904786,
				"element": "O" 
			},
			{
				"x": -0.7850707632,
				"y": -2.5228042825,
				"z": -3.1241272688,
				"element": "C" 
			},
			{
				"x": -2.0117520544,
				"y": -3.1424195829,
				"z": -2.4535761981,
				"element": "C" 
			},
			{
				"x": -2.1573162674,
				"y": -2.2514411043,
				"z": -1.2133934473,
				"element": "C" 
			},
			{
				"x": -0.7038480819,
				"y": -2.063418706,
				"z": -0.7091562118,
				"element": "C" 
			},
			{
				"x": -0.4290931742,
				"y": -0.8176854869,
				"z": 0.1786699024,
				"element": "C" 
			},
			{
				"x": -1.1162572992,
				"y": 0.5072311041,
				"z": -0.2130275244,
				"element": "C" 
			},
			{
				"x": -0.7993919738,
				"y": 1.6088144205,
				"z": 0.810058419,
				"element": "C" 
			},
			{
				"x": 0.7094495548,
				"y": 1.8050786305,
				"z": 1.0328465089,
				"element": "C" 
			},
			{
				"x": 0.970838314,
				"y": 2.9233713642,
				"z": 2.0663498279,
				"element": "C" 
			},
			{
				"x": 2.4245999237,
				"y": 3.0025271212,
				"z": 2.5278882931,
				"element": "C" 
			},
			{
				"x": 3.3556914273,
				"y": 2.2511015399,
				"z": 1.6031840244,
				"element": "C" 
			},
			{
				"x": 2.9843968019,
				"y": 0.7538967526,
				"z": 1.4768818977,
				"element": "C" 
			},
			{
				"x": 1.4415003486,
				"y": 0.4810597165,
				"z": 1.4072007006,
				"element": "C" 
			},
			{
				"x": 1.0060555873,
				"y": -0.0083226115,
				"z": 2.811197699,
				"element": "C" 
			},
			{
				"x": 1.1029467693,
				"y": -0.6231201792,
				"z": 0.3446547594,
				"element": "C" 
			},
			{
				"x": 1.8031040529,
				"y": -0.4115530905,
				"z": -1.0347305884,
				"element": "C" 
			},
			{
				"x": 1.0089304066,
				"y": -0.9271411476,
				"z": -2.2532473478,
				"element": "C" 
			},
			{
				"x": 0.2251164217,
				"y": -2.2226295879,
				"z": -1.9786933228,
				"element": "C" 
			},
			{
				"x": 1.1998234704,
				"y": -3.4012063158,
				"z": -1.7820261595,
				"element": "C" 
			},
			{
				"x": 2.8056572976,
				"y": 3.6766465282,
				"z": 3.6321652227,
				"element": "C" 
			},
			{
				"x": 1.8360417373,
				"y": 4.4482203297,
				"z": 4.5006750081,
				"element": "C" 
			},
			{
				"x": 4.2287385533,
				"y": 3.7738252861,
				"z": 4.134450162,
				"element": "C" 
			},
			{
				"x": -0.4240030405,
				"y": -4.1855043174,
				"z": -7.3050389183,
				"element": "H" 
			},
			{
				"x": -0.0336544847,
				"y": -5.2719828678,
				"z": -5.9396619212,
				"element": "H" 
			},
			{
				"x": 1.0761300423,
				"y": -3.9680448216,
				"z": -6.3557130815,
				"element": "H" 
			},
			{
				"x": -1.0860816625,
				"y": -1.5923321782,
				"z": -3.6158744736,
				"element": "H" 
			},
			{
				"x": -1.7952197033,
				"y": -4.1802705493,
				"z": -2.1717026062,
				"element": "H" 
			},
			{
				"x": -2.8862737272,
				"y": -3.1414308497,
				"z": -3.1090300636,
				"element": "H" 
			},
			{
				"x": -2.8132091602,
				"y": -2.6773351557,
				"z": -0.4473615295,
				"element": "H" 
			},
			{
				"x": -2.597268972,
				"y": -1.2944242261,
				"z": -1.514338391,
				"element": "H" 
			},
			{
				"x": -0.4826378684,
				"y": -2.9241502987,
				"z": -0.0643721427,
				"element": "H" 
			},
			{
				"x": -0.8358762453,
				"y": -1.0747118592,
				"z": 1.1656281983,
				"element": "H" 
			},
			{
				"x": -0.8038038455,
				"y": 0.8405925592,
				"z": -1.2093271221,
				"element": "H" 
			},
			{
				"x": -2.2022234946,
				"y": 0.3710555047,
				"z": -0.2633228321,
				"element": "H" 
			},
			{
				"x": -1.2841201218,
				"y": 1.3657790425,
				"z": 1.7653145978,
				"element": "H" 
			},
			{
				"x": -1.2420130243,
				"y": 2.5587110827,
				"z": 0.4829185366,
				"element": "H" 
			},
			{
				"x": 1.1259111325,
				"y": 2.1379608896,
				"z": 0.0714662644,
				"element": "H" 
			},
			{
				"x": 0.6605636832,
				"y": 3.8806460397,
				"z": 1.6213768695,
				"element": "H" 
			},
			{
				"x": 0.3071091995,
				"y": 2.7680542672,
				"z": 2.924388532,
				"element": "H" 
			},
			{
				"x": 4.4021942023,
				"y": 2.3376734216,
				"z": 1.9012647325,
				"element": "H" 
			},
			{
				"x": 3.2923430175,
				"y": 2.7130939108,
				"z": 0.6066601051,
				"element": "H" 
			},
			{
				"x": 3.4972381569,
				"y": 0.3537935732,
				"z": 0.5985937062,
				"element": "H" 
			},
			{
				"x": 3.397710082,
				"y": 0.21537985,
				"z": 2.3376925611,
				"element": "H" 
			},
			{
				"x": 1.4556258112,
				"y": -0.9859218129,
				"z": 3.0204620724,
				"element": "H" 
			},
			{
				"x": -0.0760046908,
				"y": -0.1142991258,
				"z": 2.9222850671,
				"element": "H" 
			},
			{
				"x": 1.3523601525,
				"y": 0.6799682978,
				"z": 3.5876184894,
				"element": "H" 
			},
			{
				"x": 1.4885579237,
				"y": -1.5683989356,
				"z": 0.7535743863,
				"element": "H" 
			},
			{
				"x": 2.0203845887,
				"y": 0.6495616689,
				"z": -1.1996478377,
				"element": "H" 
			},
			{
				"x": 2.7784332116,
				"y": -0.9087636936,
				"z": -1.0108601568,
				"element": "H" 
			},
			{
				"x": 0.303102165,
				"y": -0.1573197071,
				"z": -2.583027408,
				"element": "H" 
			},
			{
				"x": 1.6934057436,
				"y": -1.0818638567,
				"z": -3.0972133673,
				"element": "H" 
			},
			{
				"x": 0.6628522008,
				"y": -4.3429955813,
				"z": -1.6277226808,
				"element": "H" 
			},
			{
				"x": 1.8317726548,
				"y": -3.2367755467,
				"z": -0.9037591859,
				"element": "H" 
			},
			{
				"x": 1.8488768832,
				"y": -3.529207834,
				"z": -2.6525379913,
				"element": "H" 
			},
			{
				"x": 2.138702996,
				"y": 5.5021306324,
				"z": 4.5672679167,
				"element": "H" 
			},
			{
				"x": 0.8077031311,
				"y": 4.4257711729,
				"z": 4.1383740394,
				"element": "H" 
			},
			{
				"x": 1.8406027032,
				"y": 4.0636906306,
				"z": 5.5298427548,
				"element": "H" 
			},
			{
				"x": 4.9421433872,
				"y": 3.1736128085,
				"z": 3.5688544827,
				"element": "H" 
			},
			{
				"x": 4.2856324213,
				"y": 3.4546406875,
				"z": 5.1838125177,
				"element": "H" 
			},
			{
				"x": 4.5787286608,
				"y": 4.8150922574,
				"z": 4.1123740483,
				"element": "H" 
			}
		],
		 "valence_orbital": [ 
			{
				"type": "occ",
				"energy": -0.27907,
				"method": "rhf"
			},
			{
				"type": "occ",
				"energy": -0.2729,
				"method": "rhf"
			},
			{
				"type": "occ",
				"energy": -0.26852,
				"method": "rhf"
			},
			{
				"type": "occ",
				"energy": -0.2643,
				"method": "rhf"
			},
			{
				"type": "occ",
				"energy": -0.21332,
				"method": "rhf"
			},
			{
				"type": "unocc",
				"energy": 0.01725,
				"method": "rhf"
			},
			{
				"type": "unocc",
				"energy": 0.03095,
				"method": "rhf"
			},
			{
				"type": "unocc",
				"energy": 0.07102,
				"method": "rhf"
			},
			{
				"type": "unocc",
				"energy": 0.0809,
				"method": "rhf"
			},
			{
				"type": "unocc",
				"energy": 0.08711,
				"method": "rhf"
			}
		],
		"cosmo_sigma_profile": { 
			"-0.025": 0.0,
			"-0.024": 0.0,
			"-0.023": 0.0,
			"-0.022": 0.0,
			"-0.021": 0.0,
			"-0.02": 0.0,
			"-0.019": 0.0,
			"-0.018": 0.0,
			"-0.017": 0.0,
			"-0.016": 0.0,
			"-0.015": 0.0,
			"-0.014": 0.0,
			"-0.013": 0.0,
			"-0.012": 0.0,
			"-0.011": 0.0,
			"-0.01": 0.0,
			"-0.009": 0.0,
			"-0.008": 0.0,
			"-0.007": 0.385179297599,
			"-0.006": 4.09201543699,
			"-0.005": 6.0430237893,
			"-0.004": 10.344463859,
			"-0.003": 32.2357979811,
			"-0.002": 71.8821892356,
			"-0.001": 82.4647628284,
			"0.0": 74.978262166,
			"0.001": 62.6463258927,
			"0.002": 31.0544739031,
			"0.003": 9.70248313523,
			"0.004": 7.41175025429,
			"0.005": 6.76771572735,
			"0.006": 4.51909247814,
			"0.007": 2.94460403433,
			"0.008": 1.98163822232,
			"0.009": 2.07785931972,
			"0.01": 1.18162693455,
			"0.011": 2.53784159191,
			"0.012": 4.60235241988,
			"0.013": 1.99672591902,
			"0.014": 0.122825393495,
			"0.015": 0.0,
			"0.016": 0.0,
			"0.017": 0.0,
			"0.018": 0.0,
			"0.019": 0.0,
			"0.02": 0.0,
			"0.021": 0.0,
			"0.022": 0.0,
			"0.023": 0.0,
			"0.024": 0.0,
			"0.025": 0.0
		}
	}
}
