{
	 "smiles": "OC1C(OC2OC3(CCCCC3)OC12)C1COC2(CCCCC2)O1", 
	 "Tm": 405.15, 
	 "num_atms": 52, 
	 "gaussian": { 
		 "optdone": 1, 
		 "sigma_profile": "yes", 
		 "theory": "DFT", 
		 "functional": "B3LYP", 
		 "basiset": "6-31G**", 
		 "properties": { 
			 "R2extent": 7875.8472, 
			 "electric_dipole_moment_norm": 1.83532819136, 
			 "electric_quadrupole_moment_norm": 16.1488126251, 
			 "total_energy": -1154.11997291, 
			 "HOMO_LUMO_gap": 0.30758, 
			 "cosmo_polarized_energy": -14.49, 
			 "cosmo_cavitation_energy": 46.71, 
			 "cosmo_dispersion_energy": -32.04, 
			 "cosmo_repulsion_energy": 2.39, 
			 "cosmo_total_nonelectrostatic_energy": 17.06, 
			 "SMD_solvation_energy": 5.27 
		},
		"coords": [
			{
				"x": -2.5990270185,
				"y": 0.8466283438,
				"z": -0.4372856928,
				"element": "O" 
			},
			{
				"x": -2.2342621103,
				"y": 2.1665781903,
				"z": -0.76014719,
				"element": "C" 
			},
			{
				"x": -1.2718509862,
				"y": 2.8243334142,
				"z": 0.2510674556,
				"element": "C" 
			},
			{
				"x": 0.0668494498,
				"y": 2.5647322865,
				"z": -0.2279602737,
				"element": "O" 
			},
			{
				"x": 0.0409810916,
				"y": 2.1588872053,
				"z": -1.5660151578,
				"element": "C" 
			},
			{
				"x": 0.2827556319,
				"y": 0.7632559489,
				"z": -1.7065760178,
				"element": "O" 
			},
			{
				"x": -0.4518065778,
				"y": 0.3131906983,
				"z": -2.8541759569,
				"element": "C" 
			},
			{
				"x": -0.9558442368,
				"y": -1.1016000801,
				"z": -2.6019794313,
				"element": "C" 
			},
			{
				"x": 0.2046179466,
				"y": -2.1027187464,
				"z": -2.38318129,
				"element": "C" 
			},
			{
				"x": 1.4943597277,
				"y": -1.6905116846,
				"z": -3.1294632358,
				"element": "C" 
			},
			{
				"x": 1.160736955,
				"y": -0.9439660361,
				"z": -4.427747367,
				"element": "C" 
			},
			{
				"x": 0.4077766788,
				"y": 0.3762263002,
				"z": -4.138324718,
				"element": "C" 
			},
			{
				"x": -1.558361482,
				"y": 1.2307978332,
				"z": -2.9942227565,
				"element": "O" 
			},
			{
				"x": -1.3977607278,
				"y": 2.2811228789,
				"z": -2.0770918622,
				"element": "C" 
			},
			{
				"x": -1.3964162092,
				"y": 2.3632899567,
				"z": 1.7024720551,
				"element": "C" 
			},
			{
				"x": -0.3935249681,
				"y": 3.0366737889,
				"z": 2.6588754474,
				"element": "C" 
			},
			{
				"x": -0.0898692845,
				"y": 2.0103234406,
				"z": 3.5913685593,
				"element": "O" 
			},
			{
				"x": -0.1155593283,
				"y": 0.7803779101,
				"z": 2.8833512141,
				"element": "C" 
			},
			{
				"x": -0.60021747,
				"y": -0.3188894073,
				"z": 3.8257773079,
				"element": "C" 
			},
			{
				"x": -0.6092340204,
				"y": -1.6941064914,
				"z": 3.1403454122,
				"element": "C" 
			},
			{
				"x": 0.7635880809,
				"y": -2.0327666834,
				"z": 2.5390089259,
				"element": "C" 
			},
			{
				"x": 1.2426817451,
				"y": -0.930718857,
				"z": 1.5820195563,
				"element": "C" 
			},
			{
				"x": 1.2474132385,
				"y": 0.4478682632,
				"z": 2.2608957764,
				"element": "C" 
			},
			{
				"x": -1.1012354218,
				"y": 0.9712884744,
				"z": 1.8363373412,
				"element": "O" 
			},
			{
				"x": -1.92284758,
				"y": 0.4780167225,
				"z": 0.1538744254,
				"element": "H" 
			},
			{
				"x": -3.1615247232,
				"y": 2.7441399699,
				"z": -0.8441271063,
				"element": "H" 
			},
			{
				"x": -1.4324250435,
				"y": 3.9148422365,
				"z": 0.2387212097,
				"element": "H" 
			},
			{
				"x": 0.7982591856,
				"y": 2.7358734521,
				"z": -2.1119659307,
				"element": "H" 
			},
			{
				"x": -1.5392180024,
				"y": -1.3833864622,
				"z": -3.4862446053,
				"element": "H" 
			},
			{
				"x": -1.6495205505,
				"y": -1.0789124011,
				"z": -1.7599911072,
				"element": "H" 
			},
			{
				"x": 0.4186803928,
				"y": -2.1974305913,
				"z": -1.3141485782,
				"element": "H" 
			},
			{
				"x": -0.1224237615,
				"y": -3.0925405255,
				"z": -2.7226092416,
				"element": "H" 
			},
			{
				"x": 2.0914757625,
				"y": -1.0329347583,
				"z": -2.487454331,
				"element": "H" 
			},
			{
				"x": 2.1081235083,
				"y": -2.5736193399,
				"z": -3.3392751274,
				"element": "H" 
			},
			{
				"x": 2.0701009924,
				"y": -0.7342837353,
				"z": -5.0016065361,
				"element": "H" 
			},
			{
				"x": 0.5413102875,
				"y": -1.5903267815,
				"z": -5.0633727682,
				"element": "H" 
			},
			{
				"x": -0.2599252896,
				"y": 0.6244090105,
				"z": -4.9691582773,
				"element": "H" 
			},
			{
				"x": 1.1156192404,
				"y": 1.2063224985,
				"z": -4.0362814113,
				"element": "H" 
			},
			{
				"x": -1.598379243,
				"y": 3.2386174512,
				"z": -2.5719486912,
				"element": "H" 
			},
			{
				"x": -2.430299637,
				"y": 2.540751229,
				"z": 2.030096196,
				"element": "H" 
			},
			{
				"x": -0.8238743088,
				"y": 3.879884674,
				"z": 3.2050551267,
				"element": "H" 
			},
			{
				"x": 0.5003134581,
				"y": 3.3735067295,
				"z": 2.1188294036,
				"element": "H" 
			},
			{
				"x": 0.0743608865,
				"y": -0.3319232877,
				"z": 4.6908475906,
				"element": "H" 
			},
			{
				"x": -1.5953683112,
				"y": -0.0444220557,
				"z": 4.1892596443,
				"element": "H" 
			},
			{
				"x": -0.9138828545,
				"y": -2.462224241,
				"z": 3.8604353935,
				"element": "H" 
			},
			{
				"x": -1.366314598,
				"y": -1.6906385894,
				"z": 2.3460436847,
				"element": "H" 
			},
			{
				"x": 0.7192287307,
				"y": -2.9960810843,
				"z": 2.0170445845,
				"element": "H" 
			},
			{
				"x": 1.4949587959,
				"y": -2.1513385484,
				"z": 3.3516385211,
				"element": "H" 
			},
			{
				"x": 0.5887599832,
				"y": -0.8831725465,
				"z": 0.7033981232,
				"element": "H" 
			},
			{
				"x": 2.2476381487,
				"y": -1.1589296014,
				"z": 1.208537901,
				"element": "H" 
			},
			{
				"x": 1.5125617003,
				"y": 1.2252434508,
				"z": 1.5393008497,
				"element": "H" 
			},
			{
				"x": 1.9876221258,
				"y": 0.4691601775,
				"z": 3.0708529562,
				"element": "H" 
			}
		],
		 "valence_orbital": [ 
			{
				"type": "occ",
				"energy": -0.27941,
				"method": "rhf"
			},
			{
				"type": "occ",
				"energy": -0.26977,
				"method": "rhf"
			},
			{
				"type": "occ",
				"energy": -0.25728,
				"method": "rhf"
			},
			{
				"type": "occ",
				"energy": -0.25211,
				"method": "rhf"
			},
			{
				"type": "occ",
				"energy": -0.24319,
				"method": "rhf"
			},
			{
				"type": "unocc",
				"energy": 0.06439,
				"method": "rhf"
			},
			{
				"type": "unocc",
				"energy": 0.07638,
				"method": "rhf"
			},
			{
				"type": "unocc",
				"energy": 0.07891,
				"method": "rhf"
			},
			{
				"type": "unocc",
				"energy": 0.08231,
				"method": "rhf"
			},
			{
				"type": "unocc",
				"energy": 0.09819,
				"method": "rhf"
			}
		],
		"cosmo_sigma_profile": { 
			"-0.025": 0.0,
			"-0.024": 0.0,
			"-0.023": 0.0,
			"-0.022": 0.0,
			"-0.021": 0.0,
			"-0.02": 0.0,
			"-0.019": 0.0,
			"-0.018": 0.0,
			"-0.017": 0.0,
			"-0.016": 0.0,
			"-0.015": 0.0,
			"-0.014": 0.0,
			"-0.013": 0.0,
			"-0.012": 0.0,
			"-0.011": 0.0,
			"-0.01": 0.0,
			"-0.009": 0.0,
			"-0.008": 1.22153751157,
			"-0.007": 9.66831670537,
			"-0.006": 21.9757546746,
			"-0.005": 13.5270810761,
			"-0.004": 12.8714871727,
			"-0.003": 30.569444631,
			"-0.002": 47.1521486677,
			"-0.001": 52.6367591597,
			"0.0": 51.3623442364,
			"0.001": 35.3003792299,
			"0.002": 13.0431853512,
			"0.003": 9.35038673819,
			"0.004": 8.10781472094,
			"0.005": 8.37778324241,
			"0.006": 9.25148543509,
			"0.007": 7.99068506256,
			"0.008": 5.77644689881,
			"0.009": 5.25560387754,
			"0.01": 3.27005189249,
			"0.011": 4.0373052776,
			"0.012": 3.8356959365,
			"0.013": 2.43968954289,
			"0.014": 2.60206188622,
			"0.015": 0.406744756635,
			"0.016": 0.0,
			"0.017": 0.0,
			"0.018": 0.0,
			"0.019": 0.0,
			"0.02": 0.0,
			"0.021": 0.0,
			"0.022": 0.0,
			"0.023": 0.0,
			"0.024": 0.0,
			"0.025": 0.0
		}
	}
}
