{
	 "smiles": "ClC(C(Cl)(Cl)Cl)C(Cl)(Cl)Cl", 
	 "Tm": 284.15, 
	 "num_atms": 11, 
	 "gaussian": { 
		 "optdone": 1, 
		 "sigma_profile": "yes", 
		 "theory": "DFT", 
		 "functional": "B3LYP", 
		 "basiset": "6-31G**", 
		 "properties": { 
			 "R2extent": 3396.9501, 
			 "electric_dipole_moment_norm": 0.767912143412, 
			 "electric_quadrupole_moment_norm": 3.28891782202, 
			 "total_energy": -3336.20299594, 
			 "HOMO_LUMO_gap": 0.23591, 
			 "cosmo_polarized_energy": -4.59, 
			 "cosmo_cavitation_energy": 25.91, 
			 "cosmo_dispersion_energy": -19.55, 
			 "cosmo_repulsion_energy": 1.55, 
			 "cosmo_total_nonelectrostatic_energy": 7.91, 
			 "SMD_solvation_energy": 2.3 
		},
		"coords": [
			{
				"x": -0.0316792808,
				"y": -2.6775207381,
				"z": 0.735118955,
				"element": "Cl" 
			},
			{
				"x": -0.257142228,
				"y": -0.8896334035,
				"z": 0.7017617345,
				"element": "C" 
			},
			{
				"x": -0.3477164918,
				"y": -0.4371147883,
				"z": -0.8087850947,
				"element": "C" 
			},
			{
				"x": 1.1230164069,
				"y": -0.8071932194,
				"z": -1.7521349168,
				"element": "Cl" 
			},
			{
				"x": -0.7308939134,
				"y": 1.3094101779,
				"z": -0.9835524979,
				"element": "Cl" 
			},
			{
				"x": -1.751966596,
				"y": -1.3291944444,
				"z": -1.5361633852,
				"element": "Cl" 
			},
			{
				"x": 0.7678975267,
				"y": -0.2489059991,
				"z": 1.7183542368,
				"element": "C" 
			},
			{
				"x": 2.4751838492,
				"y": -0.5773641847,
				"z": 1.309528793,
				"element": "Cl" 
			},
			{
				"x": 0.5405478832,
				"y": 1.523848148,
				"z": 1.9012957238,
				"element": "Cl" 
			},
			{
				"x": 0.4049827177,
				"y": -0.9668883505,
				"z": 3.3460791004,
				"element": "Cl" 
			},
			{
				"x": -1.2438298737,
				"y": -0.6874431979,
				"z": 1.122297351,
				"element": "H" 
			}
		],
		 "valence_orbital": [ 
			{
				"type": "occ",
				"energy": -0.3323,
				"method": "rhf"
			},
			{
				"type": "occ",
				"energy": -0.32499,
				"method": "rhf"
			},
			{
				"type": "occ",
				"energy": -0.31913,
				"method": "rhf"
			},
			{
				"type": "occ",
				"energy": -0.318,
				"method": "rhf"
			},
			{
				"type": "occ",
				"energy": -0.30436,
				"method": "rhf"
			},
			{
				"type": "unocc",
				"energy": -0.06845,
				"method": "rhf"
			},
			{
				"type": "unocc",
				"energy": -0.05292,
				"method": "rhf"
			},
			{
				"type": "unocc",
				"energy": -0.05095,
				"method": "rhf"
			},
			{
				"type": "unocc",
				"energy": -0.02256,
				"method": "rhf"
			},
			{
				"type": "unocc",
				"energy": -0.01828,
				"method": "rhf"
			}
		],
		"cosmo_sigma_profile": { 
			"-0.025": 0.0,
			"-0.024": 0.0,
			"-0.023": 0.0,
			"-0.022": 0.0,
			"-0.021": 0.0,
			"-0.02": 0.0,
			"-0.019": 0.0,
			"-0.018": 0.0,
			"-0.017": 0.0,
			"-0.016": 0.0,
			"-0.015": 0.0,
			"-0.014": 0.0,
			"-0.013": 0.48978733549,
			"-0.012": 1.61330599947,
			"-0.011": 1.78059188086,
			"-0.01": 2.15872668924,
			"-0.009": 1.37887720615,
			"-0.008": 1.40539052067,
			"-0.007": 1.83887252852,
			"-0.006": 1.40060632278,
			"-0.005": 5.75593499949,
			"-0.004": 10.1237924174,
			"-0.003": 12.4401288307,
			"-0.002": 15.298212428,
			"-0.001": 16.5433587487,
			"0.0": 21.7973784544,
			"0.001": 30.0451539984,
			"0.002": 56.8214331751,
			"0.003": 33.6720610635,
			"0.004": 6.60553495105,
			"0.005": 0.0,
			"0.006": 0.0,
			"0.007": 0.0,
			"0.008": 0.0,
			"0.009": 0.0,
			"0.01": 0.0,
			"0.011": 0.0,
			"0.012": 0.0,
			"0.013": 0.0,
			"0.014": 0.0,
			"0.015": 0.0,
			"0.016": 0.0,
			"0.017": 0.0,
			"0.018": 0.0,
			"0.019": 0.0,
			"0.02": 0.0,
			"0.021": 0.0,
			"0.022": 0.0,
			"0.023": 0.0,
			"0.024": 0.0,
			"0.025": 0.0
		}
	}
}
