{
	 "smiles": "CN(C1=NC(=C/C2=CC=CC=C2)C(=O)N1C1=CC=CC=C1)C1=CC=CC=C1", 
	 "Tm": 480.15, 
	 "num_atms": 46, 
	 "gaussian": { 
		 "optdone": 1, 
		 "sigma_profile": "yes", 
		 "theory": "DFT", 
		 "functional": "B3LYP", 
		 "basiset": "6-31G**", 
		 "properties": { 
			 "R2extent": 11598.1592, 
			 "electric_dipole_moment_norm": 4.35571633718, 
			 "electric_quadrupole_moment_norm": 19.0290544639, 
			 "total_energy": -1127.38275461, 
			 "HOMO_LUMO_gap": 0.13054, 
			 "cosmo_polarized_energy": -15.23, 
			 "cosmo_cavitation_energy": 49.99, 
			 "cosmo_dispersion_energy": -33.26, 
			 "cosmo_repulsion_energy": 2.51, 
			 "cosmo_total_nonelectrostatic_energy": 19.24, 
			 "SMD_solvation_energy": 8.37 
		},
		"coords": [
			{
				"x": -1.6339932427,
				"y": 2.1980645982,
				"z": -0.770441498,
				"element": "C" 
			},
			{
				"x": -0.8206656099,
				"y": 1.07258817,
				"z": -1.2590935149,
				"element": "N" 
			},
			{
				"x": 0.1017365541,
				"y": 0.5851675556,
				"z": -0.3632766227,
				"element": "C" 
			},
			{
				"x": 0.1469124336,
				"y": 0.9592367611,
				"z": 0.8887067426,
				"element": "N" 
			},
			{
				"x": 1.2260031151,
				"y": 0.288203522,
				"z": 1.4621633687,
				"element": "C" 
			},
			{
				"x": 1.6838396689,
				"y": 0.3311033417,
				"z": 2.7396940847,
				"element": "C" 
			},
			{
				"x": 1.2035814927,
				"y": 1.1043503227,
				"z": 3.8732493739,
				"element": "C" 
			},
			{
				"x": 0.0921792246,
				"y": 1.9735871767,
				"z": 3.8082916191,
				"element": "C" 
			},
			{
				"x": -0.3118886693,
				"y": 2.683964029,
				"z": 4.9346035563,
				"element": "C" 
			},
			{
				"x": 0.3734655161,
				"y": 2.5500170034,
				"z": 6.1463473428,
				"element": "C" 
			},
			{
				"x": 1.4739911519,
				"y": 1.6933991426,
				"z": 6.2265482846,
				"element": "C" 
			},
			{
				"x": 1.882405844,
				"y": 0.979651782,
				"z": 5.1037895415,
				"element": "C" 
			},
			{
				"x": 1.8698304035,
				"y": -0.5810197795,
				"z": 0.4387695627,
				"element": "C" 
			},
			{
				"x": 2.8282126888,
				"y": -1.3260318818,
				"z": 0.5116312099,
				"element": "O" 
			},
			{
				"x": 1.0954585911,
				"y": -0.3370632933,
				"z": -0.7310618651,
				"element": "N" 
			},
			{
				"x": 1.5426000799,
				"y": -0.7118967237,
				"z": -2.0332117149,
				"element": "C" 
			},
			{
				"x": 1.7310918356,
				"y": 0.2530860349,
				"z": -3.0289044181,
				"element": "C" 
			},
			{
				"x": 2.2094301738,
				"y": -0.1306470001,
				"z": -4.280744671,
				"element": "C" 
			},
			{
				"x": 2.5238576182,
				"y": -1.4668429207,
				"z": -4.5363845333,
				"element": "C" 
			},
			{
				"x": 2.3532348978,
				"y": -2.4214706412,
				"z": -3.5324946672,
				"element": "C" 
			},
			{
				"x": 1.85882554,
				"y": -2.0508904305,
				"z": -2.2823773997,
				"element": "C" 
			},
			{
				"x": -1.4570145228,
				"y": 0.1992721132,
				"z": -2.2048995665,
				"element": "C" 
			},
			{
				"x": -1.777773779,
				"y": 0.6881552996,
				"z": -3.4772796065,
				"element": "C" 
			},
			{
				"x": -2.4418879448,
				"y": -0.126512322,
				"z": -4.3918623387,
				"element": "C" 
			},
			{
				"x": -2.7778196391,
				"y": -1.439353593,
				"z": -4.0523784851,
				"element": "C" 
			},
			{
				"x": -2.452898173,
				"y": -1.9284090528,
				"z": -2.7867195134,
				"element": "C" 
			},
			{
				"x": -1.8058893673,
				"y": -1.1114322833,
				"z": -1.8589579229,
				"element": "C" 
			},
			{
				"x": -0.9819253132,
				"y": 2.9437989109,
				"z": -0.3156017036,
				"element": "H" 
			},
			{
				"x": -2.1616612376,
				"y": 2.6360878139,
				"z": -1.6180091282,
				"element": "H" 
			},
			{
				"x": -2.3638765061,
				"y": 1.8717366968,
				"z": -0.020137935,
				"element": "H" 
			},
			{
				"x": 2.5393299277,
				"y": -0.3151303982,
				"z": 2.9261606705,
				"element": "H" 
			},
			{
				"x": -0.4377404864,
				"y": 2.0727651312,
				"z": 2.8685536154,
				"element": "H" 
			},
			{
				"x": -1.1693051499,
				"y": 3.3483570656,
				"z": 4.8694602649,
				"element": "H" 
			},
			{
				"x": 0.0515671388,
				"y": 3.1084350024,
				"z": 7.0208157358,
				"element": "H" 
			},
			{
				"x": 2.0123150595,
				"y": 1.582185357,
				"z": 7.1635331851,
				"element": "H" 
			},
			{
				"x": 2.7388622978,
				"y": 0.3132475824,
				"z": 5.1681998402,
				"element": "H" 
			},
			{
				"x": 1.5025066297,
				"y": 1.2924864381,
				"z": -2.8196672908,
				"element": "H" 
			},
			{
				"x": 2.3484896434,
				"y": 0.6200805008,
				"z": -5.0532348615,
				"element": "H" 
			},
			{
				"x": 2.9038628464,
				"y": -1.7607517385,
				"z": -5.5103073877,
				"element": "H" 
			},
			{
				"x": 2.6025747352,
				"y": -3.4614993791,
				"z": -3.7209859241,
				"element": "H" 
			},
			{
				"x": 1.7306890801,
				"y": -2.7846701166,
				"z": -1.4958050558,
				"element": "H" 
			},
			{
				"x": -1.4930233936,
				"y": 1.7003714248,
				"z": -3.7477941184,
				"element": "H" 
			},
			{
				"x": -2.6851004118,
				"y": 0.2611935515,
				"z": -5.3767780248,
				"element": "H" 
			},
			{
				"x": -3.2878202419,
				"y": -2.0753265667,
				"z": -4.7695175401,
				"element": "H" 
			},
			{
				"x": -2.7153035153,
				"y": -2.9456118879,
				"z": -2.5110753199,
				"element": "H" 
			},
			{
				"x": -1.5746669845,
				"y": -1.486032319,
				"z": -0.8668153706,
				"element": "H" 
			}
		],
		 "valence_orbital": [ 
			{
				"type": "occ",
				"energy": -0.24705,
				"method": "rhf"
			},
			{
				"type": "occ",
				"energy": -0.2452,
				"method": "rhf"
			},
			{
				"type": "occ",
				"energy": -0.24086,
				"method": "rhf"
			},
			{
				"type": "occ",
				"energy": -0.23448,
				"method": "rhf"
			},
			{
				"type": "occ",
				"energy": -0.19523,
				"method": "rhf"
			},
			{
				"type": "unocc",
				"energy": -0.06469,
				"method": "rhf"
			},
			{
				"type": "unocc",
				"energy": -0.01905,
				"method": "rhf"
			},
			{
				"type": "unocc",
				"energy": -0.01604,
				"method": "rhf"
			},
			{
				"type": "unocc",
				"energy": -0.00646,
				"method": "rhf"
			},
			{
				"type": "unocc",
				"energy": 0.00145,
				"method": "rhf"
			}
		],
		"cosmo_sigma_profile": { 
			"-0.025": 0.0,
			"-0.024": 0.0,
			"-0.023": 0.0,
			"-0.022": 0.0,
			"-0.021": 0.0,
			"-0.02": 0.0,
			"-0.019": 0.0,
			"-0.018": 0.0,
			"-0.017": 0.0,
			"-0.016": 0.0,
			"-0.015": 0.0,
			"-0.014": 0.0,
			"-0.013": 0.0,
			"-0.012": 0.0,
			"-0.011": 0.0,
			"-0.01": 0.0,
			"-0.009": 0.0,
			"-0.008": 0.0,
			"-0.007": 3.58210852897,
			"-0.006": 27.4333420972,
			"-0.005": 35.5285475401,
			"-0.004": 40.7407692119,
			"-0.003": 35.1136614858,
			"-0.002": 32.1306486067,
			"-0.001": 25.8864776065,
			"0.0": 24.8069365826,
			"0.001": 22.000428525,
			"0.002": 27.0475557853,
			"0.003": 28.9222534954,
			"0.004": 32.3548995134,
			"0.005": 33.5394161999,
			"0.006": 10.0361376905,
			"0.007": 4.18523587685,
			"0.008": 3.44069228051,
			"0.009": 2.55801393469,
			"0.01": 2.44580434184,
			"0.011": 3.03498645835,
			"0.012": 5.20192801139,
			"0.013": 0.847837027259,
			"0.014": 0.0,
			"0.015": 0.0,
			"0.016": 0.0,
			"0.017": 0.0,
			"0.018": 0.0,
			"0.019": 0.0,
			"0.02": 0.0,
			"0.021": 0.0,
			"0.022": 0.0,
			"0.023": 0.0,
			"0.024": 0.0,
			"0.025": 0.0
		}
	}
}
