{
	 "smiles": "OC(=O)C1CCN(CC1)C=CC(=O)C(F)(F)F", 
	 "Tm": 409.15, 
	 "num_atms": 29, 
	 "gaussian": { 
		 "optdone": 1, 
		 "sigma_profile": "yes", 
		 "theory": "DFT", 
		 "functional": "B3LYP", 
		 "basiset": "6-31G**", 
		 "properties": { 
			 "R2extent": 6756.284, 
			 "electric_dipole_moment_norm": 8.23577765484, 
			 "electric_quadrupole_moment_norm": 14.1649214512, 
			 "total_energy": -968.242007942, 
			 "HOMO_LUMO_gap": 0.17447, 
			 "cosmo_polarized_energy": -19.37, 
			 "cosmo_cavitation_energy": 34.27, 
			 "cosmo_dispersion_energy": -23.91, 
			 "cosmo_repulsion_energy": 1.81, 
			 "cosmo_total_nonelectrostatic_energy": 12.18, 
			 "SMD_solvation_energy": 8.01 
		},
		"coords": [
			{
				"x": -4.3343090596,
				"y": 1.7671533052,
				"z": 0.5358502219,
				"element": "O" 
			},
			{
				"x": -3.0685159001,
				"y": 2.1357567267,
				"z": 0.8438711394,
				"element": "C" 
			},
			{
				"x": -2.5768506826,
				"y": 3.1719730183,
				"z": 0.452711379,
				"element": "O" 
			},
			{
				"x": -2.3839773532,
				"y": 1.0918091739,
				"z": 1.7115187399,
				"element": "C" 
			},
			{
				"x": -2.3494632696,
				"y": -0.2864127943,
				"z": 0.9771738181,
				"element": "C" 
			},
			{
				"x": -1.0523951693,
				"y": -1.0385417359,
				"z": 1.287339463,
				"element": "C" 
			},
			{
				"x": 0.1043347569,
				"y": -0.2580297162,
				"z": 0.8400275231,
				"element": "N" 
			},
			{
				"x": 0.1012218282,
				"y": 1.1864634589,
				"z": 1.1121869823,
				"element": "C" 
			},
			{
				"x": -0.974375276,
				"y": 1.5495994964,
				"z": 2.1367187286,
				"element": "C" 
			},
			{
				"x": 1.0957430253,
				"y": -0.820896026,
				"z": 0.1245947714,
				"element": "C" 
			},
			{
				"x": 2.1936128434,
				"y": -0.203629308,
				"z": -0.4132572716,
				"element": "C" 
			},
			{
				"x": 3.1376460902,
				"y": -1.0180960627,
				"z": -1.1424115393,
				"element": "C" 
			},
			{
				"x": 3.0861348968,
				"y": -2.2324219063,
				"z": -1.3087796561,
				"element": "O" 
			},
			{
				"x": 4.2992426799,
				"y": -0.2491175381,
				"z": -1.8218403932,
				"element": "C" 
			},
			{
				"x": 3.9080079311,
				"y": 0.1931079275,
				"z": -3.0384834287,
				"element": "F" 
			},
			{
				"x": 4.6789820287,
				"y": 0.8378030879,
				"z": -1.1056721949,
				"element": "F" 
			},
			{
				"x": 5.3737986187,
				"y": -1.0277973605,
				"z": -1.9886711197,
				"element": "F" 
			},
			{
				"x": -4.6972149778,
				"y": 2.4716432189,
				"z": -0.0275047223,
				"element": "H" 
			},
			{
				"x": -3.00700371,
				"y": 0.9878928549,
				"z": 2.6080036298,
				"element": "H" 
			},
			{
				"x": -3.2132500764,
				"y": -0.8927261802,
				"z": 1.2622722136,
				"element": "H" 
			},
			{
				"x": -2.4088407473,
				"y": -0.1430433532,
				"z": -0.1070085367,
				"element": "H" 
			},
			{
				"x": -1.0358275561,
				"y": -1.999544767,
				"z": 0.7677408105,
				"element": "H" 
			},
			{
				"x": -0.9819138499,
				"y": -1.2506477648,
				"z": 2.3638090871,
				"element": "H" 
			},
			{
				"x": -0.0644378034,
				"y": 1.7395451993,
				"z": 0.1778513735,
				"element": "H" 
			},
			{
				"x": 1.0894893024,
				"y": 1.47442782,
				"z": 1.4886428437,
				"element": "H" 
			},
			{
				"x": -0.7236854192,
				"y": 1.0934118835,
				"z": 3.1000702346,
				"element": "H" 
			},
			{
				"x": -0.9658833174,
				"y": 2.632584421,
				"z": 2.2783439592,
				"element": "H" 
			},
			{
				"x": 1.0067945942,
				"y": -1.8933209631,
				"z": -0.0376300425,
				"element": "H" 
			},
			{
				"x": 2.3742355722,
				"y": 0.8589538839,
				"z": -0.3221680136,
				"element": "H" 
			}
		],
		 "valence_orbital": [ 
			{
				"type": "occ",
				"energy": -0.33887,
				"method": "rhf"
			},
			{
				"type": "occ",
				"energy": -0.32115,
				"method": "rhf"
			},
			{
				"type": "occ",
				"energy": -0.29323,
				"method": "rhf"
			},
			{
				"type": "occ",
				"energy": -0.24383,
				"method": "rhf"
			},
			{
				"type": "occ",
				"energy": -0.21745,
				"method": "rhf"
			},
			{
				"type": "unocc",
				"energy": -0.04298,
				"method": "rhf"
			},
			{
				"type": "unocc",
				"energy": -0.01121,
				"method": "rhf"
			},
			{
				"type": "unocc",
				"energy": 0.05519,
				"method": "rhf"
			},
			{
				"type": "unocc",
				"energy": 0.06144,
				"method": "rhf"
			},
			{
				"type": "unocc",
				"energy": 0.07199,
				"method": "rhf"
			}
		],
		"cosmo_sigma_profile": { 
			"-0.025": 0.0,
			"-0.024": 0.0,
			"-0.023": 0.0,
			"-0.022": 0.0,
			"-0.021": 0.0,
			"-0.02": 0.0,
			"-0.019": 0.0697096318085,
			"-0.018": 0.725487529321,
			"-0.017": 0.922708715659,
			"-0.016": 0.888847349432,
			"-0.015": 0.849053247444,
			"-0.014": 0.904273455021,
			"-0.013": 0.286316557333,
			"-0.012": 0.268849694618,
			"-0.011": 0.996907180278,
			"-0.01": 1.10858431439,
			"-0.009": 1.59406519376,
			"-0.008": 2.81759732837,
			"-0.007": 4.60276737854,
			"-0.006": 17.0762085839,
			"-0.005": 26.0283607987,
			"-0.004": 26.1347663802,
			"-0.003": 21.0749130792,
			"-0.002": 14.1432833596,
			"-0.001": 12.3134581165,
			"0.0": 10.5246857182,
			"0.001": 15.0203415295,
			"0.002": 24.1264751564,
			"0.003": 35.4829650766,
			"0.004": 7.74294373144,
			"0.005": 4.961152151,
			"0.006": 5.21241649454,
			"0.007": 4.27381204467,
			"0.008": 4.10197115792,
			"0.009": 4.66103966254,
			"0.01": 3.65870113244,
			"0.011": 5.91258831244,
			"0.012": 6.88378631502,
			"0.013": 4.3185446268,
			"0.014": 0.3637255384,
			"0.015": 0.0,
			"0.016": 0.0,
			"0.017": 0.0,
			"0.018": 0.0,
			"0.019": 0.0,
			"0.02": 0.0,
			"0.021": 0.0,
			"0.022": 0.0,
			"0.023": 0.0,
			"0.024": 0.0,
			"0.0": 0.0
		}
	}
}
