{
	 "smiles": "NS(=O)(=O)C1=C(Cl)N=C(Cl)C=C1", 
	 "Tm": 463.15, 
	 "num_atms": 16, 
	 "gaussian": { 
		 "optdone": 1, 
		 "sigma_profile": "yes", 
		 "theory": "DFT", 
		 "functional": "B3LYP", 
		 "basiset": "6-31G**", 
		 "properties": { 
			 "R2extent": 3889.4265, 
			 "electric_dipole_moment_norm": 5.72742913793, 
			 "electric_quadrupole_moment_norm": 8.46089120542, 
			 "total_energy": -1771.37856429, 
			 "HOMO_LUMO_gap": 0.2081, 
			 "cosmo_polarized_energy": -17.92, 
			 "cosmo_cavitation_energy": 25.87, 
			 "cosmo_dispersion_energy": -20.03, 
			 "cosmo_repulsion_energy": 1.56, 
			 "cosmo_total_nonelectrostatic_energy": 7.41, 
			 "SMD_solvation_energy": 2.32 
		},
		"coords": [
			{
				"x": 2.3258161526,
				"y": 0.2507185697,
				"z": 0.2318218207,
				"element": "N" 
			},
			{
				"x": 0.6821384456,
				"y": 0.6440021885,
				"z": 0.1505864565,
				"element": "S" 
			},
			{
				"x": 0.5180342816,
				"y": 1.606171195,
				"z": -0.9377419967,
				"element": "O" 
			},
			{
				"x": 0.2319184845,
				"y": 0.9168437879,
				"z": 1.5144170444,
				"element": "O" 
			},
			{
				"x": -0.0481938611,
				"y": -0.9222804385,
				"z": -0.3748872302,
				"element": "C" 
			},
			{
				"x": -1.4345286637,
				"y": -1.0549351805,
				"z": -0.57430864,
				"element": "C" 
			},
			{
				"x": -2.5197502481,
				"y": 0.2850189127,
				"z": -0.3248629654,
				"element": "Cl" 
			},
			{
				"x": -2.0022383356,
				"y": -2.1873970417,
				"z": -0.958767557,
				"element": "N" 
			},
			{
				"x": -1.2320789113,
				"y": -3.2433137206,
				"z": -1.1652302732,
				"element": "C" 
			},
			{
				"x": -2.0350815004,
				"y": -4.7136360986,
				"z": -1.6720430768,
				"element": "Cl" 
			},
			{
				"x": 0.1531424002,
				"y": -3.2441525601,
				"z": -1.0034252405,
				"element": "C" 
			},
			{
				"x": 0.7434366325,
				"y": -2.0509781309,
				"z": -0.5992554973,
				"element": "C" 
			},
			{
				"x": 2.8397773518,
				"y": 0.8331308785,
				"z": -0.4241931957,
				"element": "H" 
			},
			{
				"x": 2.6519163695,
				"y": 0.3806103976,
				"z": 1.1860228316,
				"element": "H" 
			},
			{
				"x": 0.7383728968,
				"y": -4.1366298709,
				"z": -1.1856060399,
				"element": "H" 
			},
			{
				"x": 1.8146185052,
				"y": -1.9801728879,
				"z": -0.4540264403,
				"element": "H" 
			}
		],
		 "valence_orbital": [ 
			{
				"type": "occ",
				"energy": -0.32242,
				"method": "rhf"
			},
			{
				"type": "occ",
				"energy": -0.31158,
				"method": "rhf"
			},
			{
				"type": "occ",
				"energy": -0.30809,
				"method": "rhf"
			},
			{
				"type": "occ",
				"energy": -0.30503,
				"method": "rhf"
			},
			{
				"type": "occ",
				"energy": -0.27486,
				"method": "rhf"
			},
			{
				"type": "unocc",
				"energy": -0.06676,
				"method": "rhf"
			},
			{
				"type": "unocc",
				"energy": -0.06072,
				"method": "rhf"
			},
			{
				"type": "unocc",
				"energy": 0.00254,
				"method": "rhf"
			},
			{
				"type": "unocc",
				"energy": 0.0253,
				"method": "rhf"
			},
			{
				"type": "unocc",
				"energy": 0.03821,
				"method": "rhf"
			}
		],
		"cosmo_sigma_profile": { 
			"-0.025": 0.0,
			"-0.024": 0.0,
			"-0.023": 0.0,
			"-0.022": 0.0,
			"-0.021": 0.0,
			"-0.02": 0.0,
			"-0.019": 0.0,
			"-0.018": 0.0,
			"-0.017": 0.0,
			"-0.016": 0.483051525251,
			"-0.015": 2.28401119543,
			"-0.014": 2.78949392254,
			"-0.013": 2.79048972225,
			"-0.012": 2.25453117749,
			"-0.011": 1.59882316089,
			"-0.01": 2.72046054363,
			"-0.009": 5.79529652094,
			"-0.008": 5.00353938334,
			"-0.007": 4.56839397832,
			"-0.006": 5.51590950474,
			"-0.005": 6.79602084077,
			"-0.004": 10.9200835911,
			"-0.003": 17.7962993308,
			"-0.002": 16.5552606789,
			"-0.001": 12.5818514609,
			"0.0": 10.6193987484,
			"0.001": 11.4491858994,
			"0.002": 14.7351547502,
			"0.003": 18.6338019472,
			"0.004": 10.1005693528,
			"0.005": 5.99570383291,
			"0.006": 6.42512364829,
			"0.007": 5.17295364224,
			"0.008": 3.61433994912,
			"0.009": 7.07867084828,
			"0.01": 13.3532336675,
			"0.011": 5.01997154759,
			"0.012": 0.0388629477942,
			"0.013": 0.0,
			"0.014": 0.0,
			"0.015": 0.0,
			"0.016": 0.0,
			"0.017": 0.0,
			"0.018": 0.0,
			"0.019": 0.0,
			"0.02": 0.0,
			"0.021": 0.0,
			"0.022": 0.0,
			"0.023": 0.0,
			"0.024": 0.0,
			"0.025": 0.0
		}
	}
}
