{
	 "smiles": "O=C1C2=C(CCCC2)NC2=C1C=C(OC1=CC=CC=C1)C=C2", 
	 "Tm": 593.15, 
	 "num_atms": 39, 
	 "gaussian": { 
		 "optdone": 1, 
		 "sigma_profile": "yes", 
		 "theory": "DFT", 
		 "functional": "B3LYP", 
		 "basiset": "6-31G**", 
		 "properties": { 
			 "R2extent": 9421.3582, 
			 "electric_dipole_moment_norm": 5.23472368803, 
			 "electric_quadrupole_moment_norm": 17.583720691, 
			 "total_energy": -939.493239995, 
			 "HOMO_LUMO_gap": 0.15723, 
			 "cosmo_polarized_energy": -19.86, 
			 "cosmo_cavitation_energy": 41.41, 
			 "cosmo_dispersion_energy": -30.26, 
			 "cosmo_repulsion_energy": 2.29, 
			 "cosmo_total_nonelectrostatic_energy": 13.44, 
			 "SMD_solvation_energy": 6.4 
		},
		"coords": [
			{
				"x": -2.0660094824,
				"y": -0.3193137691,
				"z": 0.0743409449,
				"element": "O" 
			},
			{
				"x": -1.0766549211,
				"y": -0.4853192372,
				"z": 0.7991785145,
				"element": "C" 
			},
			{
				"x": -0.8510919011,
				"y": -1.722410874,
				"z": 1.5454839436,
				"element": "C" 
			},
			{
				"x": 0.2493860561,
				"y": -1.8654303168,
				"z": 2.3461539324,
				"element": "C" 
			},
			{
				"x": 0.5465751482,
				"y": -3.1205226562,
				"z": 3.135085767,
				"element": "C" 
			},
			{
				"x": -0.6821561486,
				"y": -4.0314446562,
				"z": 3.2621338429,
				"element": "C" 
			},
			{
				"x": -1.383730783,
				"y": -4.1776620989,
				"z": 1.9063952037,
				"element": "C" 
			},
			{
				"x": -1.880901279,
				"y": -2.8181243115,
				"z": 1.4009329168,
				"element": "C" 
			},
			{
				"x": 1.1796237065,
				"y": -0.8599395472,
				"z": 2.462205961,
				"element": "N" 
			},
			{
				"x": 1.0709999355,
				"y": 0.3477472476,
				"z": 1.7949968016,
				"element": "C" 
			},
			{
				"x": -0.0408427179,
				"y": 0.5630456395,
				"z": 0.9573528518,
				"element": "C" 
			},
			{
				"x": -0.1713572891,
				"y": 1.7851752405,
				"z": 0.2776422205,
				"element": "C" 
			},
			{
				"x": 0.7976622032,
				"y": 2.7662831833,
				"z": 0.4206988406,
				"element": "C" 
			},
			{
				"x": 0.7202295086,
				"y": 4.0185432449,
				"z": -0.1540003258,
				"element": "O" 
			},
			{
				"x": 0.1383540448,
				"y": 4.2028438088,
				"z": -1.3954559304,
				"element": "C" 
			},
			{
				"x": -0.6079733302,
				"y": 5.3704890342,
				"z": -1.5655420198,
				"element": "C" 
			},
			{
				"x": -1.1525238094,
				"y": 5.6621333683,
				"z": -2.8159207487,
				"element": "C" 
			},
			{
				"x": -0.9611787928,
				"y": 4.7912544749,
				"z": -3.8906215096,
				"element": "C" 
			},
			{
				"x": -0.2122387335,
				"y": 3.626826253,
				"z": -3.707810198,
				"element": "C" 
			},
			{
				"x": 0.3461877753,
				"y": 3.32690174,
				"z": -2.4648607463,
				"element": "C" 
			},
			{
				"x": 1.9082276349,
				"y": 2.548355622,
				"z": 1.2579034308,
				"element": "C" 
			},
			{
				"x": 2.0437832093,
				"y": 1.3540995985,
				"z": 1.943262443,
				"element": "C" 
			},
			{
				"x": 0.9259459184,
				"y": -2.8461032192,
				"z": 4.1290435094,
				"element": "H" 
			},
			{
				"x": 1.3619197515,
				"y": -3.6644122009,
				"z": 2.6352884856,
				"element": "H" 
			},
			{
				"x": -1.3815192168,
				"y": -3.5996879886,
				"z": 3.9895772536,
				"element": "H" 
			},
			{
				"x": -0.3750302834,
				"y": -5.0063544888,
				"z": 3.6560610686,
				"element": "H" 
			},
			{
				"x": -0.6783529938,
				"y": -4.6069838457,
				"z": 1.1817614964,
				"element": "H" 
			},
			{
				"x": -2.2210387578,
				"y": -4.8799119168,
				"z": 1.9834962618,
				"element": "H" 
			},
			{
				"x": -2.1843042363,
				"y": -2.8700583702,
				"z": 0.3500399937,
				"element": "H" 
			},
			{
				"x": -2.7911823866,
				"y": -2.5254035889,
				"z": 1.944272322,
				"element": "H" 
			},
			{
				"x": 1.9703105187,
				"y": -1.0017169056,
				"z": 3.073451895,
				"element": "H" 
			},
			{
				"x": -1.0455417376,
				"y": 1.9199966534,
				"z": -0.3491805659,
				"element": "H" 
			},
			{
				"x": -0.7467445685,
				"y": 6.0317440013,
				"z": -0.7166167022,
				"element": "H" 
			},
			{
				"x": -1.7332639162,
				"y": 6.570731357,
				"z": -2.946538704,
				"element": "H" 
			},
			{
				"x": -1.3915946752,
				"y": 5.0170867191,
				"z": -4.8613870158,
				"element": "H" 
			},
			{
				"x": -0.054140041,
				"y": 2.9452621669,
				"z": -4.5386888519,
				"element": "H" 
			},
			{
				"x": 0.9333055237,
				"y": 2.4260823581,
				"z": -2.3240638844,
				"element": "H" 
			},
			{
				"x": 2.647775873,
				"y": 3.3360547857,
				"z": 1.3560117931,
				"element": "H" 
			},
			{
				"x": 2.9020851936,
				"y": 1.1905434946,
				"z": 2.5903155084,
				"element": "H" 
			}
		],
		 "valence_orbital": [ 
			{
				"type": "occ",
				"energy": -0.24895,
				"method": "rhf"
			},
			{
				"type": "occ",
				"energy": -0.24775,
				"method": "rhf"
			},
			{
				"type": "occ",
				"energy": -0.22497,
				"method": "rhf"
			},
			{
				"type": "occ",
				"energy": -0.22202,
				"method": "rhf"
			},
			{
				"type": "occ",
				"energy": -0.19676,
				"method": "rhf"
			},
			{
				"type": "unocc",
				"energy": -0.03953,
				"method": "rhf"
			},
			{
				"type": "unocc",
				"energy": -0.00696,
				"method": "rhf"
			},
			{
				"type": "unocc",
				"energy": 0.00059,
				"method": "rhf"
			},
			{
				"type": "unocc",
				"energy": 0.01038,
				"method": "rhf"
			},
			{
				"type": "unocc",
				"energy": 0.02207,
				"method": "rhf"
			}
		],
		"cosmo_sigma_profile": { 
			"-0.025": 0.0,
			"-0.024": 0.0,
			"-0.023": 0.0,
			"-0.022": 0.0,
			"-0.021": 0.0,
			"-0.02": 0.0,
			"-0.019": 0.0,
			"-0.018": 0.0,
			"-0.017": 0.0,
			"-0.016": 0.648167414937,
			"-0.015": 1.30049366189,
			"-0.014": 1.6718993865,
			"-0.013": 1.23447663146,
			"-0.012": 1.66507186548,
			"-0.011": 1.48226991554,
			"-0.01": 1.70675189259,
			"-0.009": 1.5034014451,
			"-0.008": 2.25590606774,
			"-0.007": 4.67897200446,
			"-0.006": 12.7668375601,
			"-0.005": 17.5296332979,
			"-0.004": 19.8186726741,
			"-0.003": 27.4164990238,
			"-0.002": 31.445541076,
			"-0.001": 30.8860821412,
			"0.0": 30.3294081554,
			"0.001": 27.3006764827,
			"0.002": 25.4972508524,
			"0.003": 27.6757616533,
			"0.004": 17.8637300013,
			"0.005": 12.7745874092,
			"0.006": 5.61221506928,
			"0.007": 2.69062546636,
			"0.008": 3.58728029698,
			"0.009": 2.36175331458,
			"0.01": 1.0723114447,
			"0.011": 1.95362994419,
			"0.012": 1.35063185186,
			"0.013": 2.04790858813,
			"0.014": 3.38302844088,
			"0.015": 4.92031809751,
			"0.016": 0.578660973518,
			"0.017": 0.0,
			"0.018": 0.0,
			"0.019": 0.0,
			"0.02": 0.0,
			"0.021": 0.0,
			"0.022": 0.0,
			"0.023": 0.0,
			"0.024": 0.0,
			"0.025": 0.0
		}
	}
}
