{
	 "smiles": "CCOC(=O)C1=CN=C(N)N=C1C", 
	 "Tm": 497.15, 
	 "num_atms": 24, 
	 "gaussian": { 
		 "optdone": 1, 
		 "sigma_profile": "yes", 
		 "theory": "DFT", 
		 "functional": "B3LYP", 
		 "basiset": "6-31G**", 
		 "properties": { 
			 "R2extent": 3434.2549, 
			 "electric_dipole_moment_norm": 2.3494488907, 
			 "electric_quadrupole_moment_norm": 20.3842807045, 
			 "total_energy": -626.221052656, 
			 "HOMO_LUMO_gap": 0.19554, 
			 "cosmo_polarized_energy": -11.9, 
			 "cosmo_cavitation_energy": 28.1, 
			 "cosmo_dispersion_energy": -20.52, 
			 "cosmo_repulsion_energy": 1.65, 
			 "cosmo_total_nonelectrostatic_energy": 9.23, 
			 "SMD_solvation_energy": 3.27 
		},
		"coords": [
			{
				"x": 3.9289256731,
				"y": 1.0311782164,
				"z": -2.2440650024,
				"element": "C" 
			},
			{
				"x": 3.9454164311,
				"y": 0.7961775953,
				"z": -0.741002949,
				"element": "C" 
			},
			{
				"x": 2.616098705,
				"y": 0.5319002911,
				"z": -0.2313276674,
				"element": "O" 
			},
			{
				"x": 1.8574177348,
				"y": 1.6168649921,
				"z": 0.0579559952,
				"element": "C" 
			},
			{
				"x": 2.2544072409,
				"y": 2.7598737159,
				"z": -0.0928720849,
				"element": "O" 
			},
			{
				"x": 0.5093367531,
				"y": 1.2824199603,
				"z": 0.5736314154,
				"element": "C" 
			},
			{
				"x": -0.3236393353,
				"y": 2.3746706757,
				"z": 0.8717346163,
				"element": "C" 
			},
			{
				"x": -1.5592831741,
				"y": 2.2680264499,
				"z": 1.3399215398,
				"element": "N" 
			},
			{
				"x": -1.9868181364,
				"y": 0.9990508447,
				"z": 1.5191738423,
				"element": "C" 
			},
			{
				"x": -3.2524416958,
				"y": 0.8429842338,
				"z": 1.9765926859,
				"element": "N" 
			},
			{
				"x": -1.2874194909,
				"y": -0.1278446384,
				"z": 1.280330278,
				"element": "N" 
			},
			{
				"x": -0.0431677871,
				"y": -0.0021732185,
				"z": 0.8088173349,
				"element": "C" 
			},
			{
				"x": 0.676158214,
				"y": -1.3039397948,
				"z": 0.5684044305,
				"element": "C" 
			},
			{
				"x": 3.4740896534,
				"y": 0.1844321389,
				"z": -2.7668592618,
				"element": "H" 
			},
			{
				"x": 3.3696537407,
				"y": 1.938591152,
				"z": -2.4831364876,
				"element": "H" 
			},
			{
				"x": 4.9534464935,
				"y": 1.1514104264,
				"z": -2.6120117754,
				"element": "H" 
			},
			{
				"x": 4.3601416561,
				"y": 1.6575907745,
				"z": -0.2128354534,
				"element": "H" 
			},
			{
				"x": 4.5157349931,
				"y": -0.0993553758,
				"z": -0.4821942495,
				"element": "H" 
			},
			{
				"x": 0.0624425139,
				"y": 3.3785884402,
				"z": 0.712322576,
				"element": "H" 
			},
			{
				"x": -3.5772677869,
				"y": -0.0802300423,
				"z": 2.209376008,
				"element": "H" 
			},
			{
				"x": -3.7735910976,
				"y": 1.6584710388,
				"z": 2.2518925738,
				"element": "H" 
			},
			{
				"x": 0.9707176742,
				"y": -1.4023680383,
				"z": -0.4798144512,
				"element": "H" 
			},
			{
				"x": 1.5982987819,
				"y": -1.3582059657,
				"z": 1.1532039356,
				"element": "H" 
			},
			{
				"x": 0.0128422453,
				"y": -2.1242138722,
				"z": 0.8450621509,
				"element": "H" 
			}
		],
		 "valence_orbital": [ 
			{
				"type": "occ",
				"energy": -0.30368,
				"method": "rhf"
			},
			{
				"type": "occ",
				"energy": -0.29452,
				"method": "rhf"
			},
			{
				"type": "occ",
				"energy": -0.26786,
				"method": "rhf"
			},
			{
				"type": "occ",
				"energy": -0.2469,
				"method": "rhf"
			},
			{
				"type": "occ",
				"energy": -0.23142,
				"method": "rhf"
			},
			{
				"type": "unocc",
				"energy": -0.03588,
				"method": "rhf"
			},
			{
				"type": "unocc",
				"energy": -0.02763,
				"method": "rhf"
			},
			{
				"type": "unocc",
				"energy": 0.05793,
				"method": "rhf"
			},
			{
				"type": "unocc",
				"energy": 0.08752,
				"method": "rhf"
			},
			{
				"type": "unocc",
				"energy": 0.10448,
				"method": "rhf"
			}
		],
		"cosmo_sigma_profile": { 
			"-0.025": 0.0,
			"-0.024": 0.0,
			"-0.023": 0.0,
			"-0.022": 0.0,
			"-0.021": 0.0,
			"-0.02": 0.0,
			"-0.019": 0.0,
			"-0.018": 0.0,
			"-0.017": 0.0,
			"-0.016": 0.0,
			"-0.015": 0.276832575743,
			"-0.014": 2.10814704807,
			"-0.013": 2.32106531719,
			"-0.012": 1.33155029273,
			"-0.011": 1.67181445956,
			"-0.01": 2.55609596183,
			"-0.009": 1.86863215527,
			"-0.008": 1.67552185238,
			"-0.007": 1.79592148366,
			"-0.006": 2.7318075379,
			"-0.005": 8.28378348454,
			"-0.004": 15.4385552902,
			"-0.003": 20.9505261699,
			"-0.002": 22.9141446871,
			"-0.001": 27.3985988244,
			"0.0": 28.4005622514,
			"0.001": 15.5663270574,
			"0.002": 10.4672431019,
			"0.003": 10.9729356459,
			"0.004": 6.44894126285,
			"0.005": 6.03250128143,
			"0.006": 4.02779052092,
			"0.007": 3.73401898046,
			"0.008": 3.66106467395,
			"0.009": 4.33499889623,
			"0.01": 2.92036509096,
			"0.011": 3.65842518053,
			"0.012": 5.33675315492,
			"0.013": 2.15503460137,
			"0.014": 1.04805486906,
			"0.015": 0.267391492294,
			"0.016": 0.0,
			"0.017": 0.0,
			"0.018": 0.0,
			"0.019": 0.0,
			"0.02": 0.0,
			"0.021": 0.0,
			"0.022": 0.0,
			"0.023": 0.0,
			"0.024": 0.0,
			"0.025": 0.0
		}
	}
}
