{
	 "smiles": "CC1=NN(C(=O)C1)C1=CC(Cl)=CC=C1", 
	 "Tm": 399.15, 
	 "num_atms": 23, 
	 "gaussian": { 
		 "optdone": 1, 
		 "sigma_profile": "yes", 
		 "theory": "DFT", 
		 "functional": "B3LYP", 
		 "basiset": "6-31G**", 
		 "properties": { 
			 "R2extent": 4988.5311, 
			 "electric_dipole_moment_norm": 5.38942322888, 
			 "electric_quadrupole_moment_norm": 11.7141710701, 
			 "total_energy": -1031.39692609, 
			 "HOMO_LUMO_gap": 0.18189, 
			 "cosmo_polarized_energy": -11.21, 
			 "cosmo_cavitation_energy": 29.06, 
			 "cosmo_dispersion_energy": -21.66, 
			 "cosmo_repulsion_energy": 1.71, 
			 "cosmo_total_nonelectrostatic_energy": 9.12, 
			 "SMD_solvation_energy": 4.76 
		},
		"coords": [
			{
				"x": -1.1159676558,
				"y": -2.3936837289,
				"z": 1.6017592382,
				"element": "C" 
			},
			{
				"x": -0.6912121302,
				"y": -1.1315481293,
				"z": 0.9280219127,
				"element": "C" 
			},
			{
				"x": 0.3601081066,
				"y": -1.0804388577,
				"z": 0.1870910297,
				"element": "N" 
			},
			{
				"x": 0.5013504581,
				"y": 0.2252194548,
				"z": -0.304090928,
				"element": "N" 
			},
			{
				"x": -0.5132559834,
				"y": 1.0762615808,
				"z": 0.1393836613,
				"element": "C" 
			},
			{
				"x": -0.6553267743,
				"y": 2.2566660216,
				"z": -0.118499082,
				"element": "O" 
			},
			{
				"x": -1.396178086,
				"y": 0.1906102383,
				"z": 1.0158327398,
				"element": "C" 
			},
			{
				"x": 1.5998508049,
				"y": 0.5158264681,
				"z": -1.1491998286,
				"element": "C" 
			},
			{
				"x": 1.7778100176,
				"y": 1.8104731832,
				"z": -1.6623400901,
				"element": "C" 
			},
			{
				"x": 2.871868216,
				"y": 2.0515480364,
				"z": -2.4892641543,
				"element": "C" 
			},
			{
				"x": 3.0952990289,
				"y": 3.674456472,
				"z": -3.1326356473,
				"element": "Cl" 
			},
			{
				"x": 3.7899953814,
				"y": 1.0581985253,
				"z": -2.8226300136,
				"element": "C" 
			},
			{
				"x": 3.5914448433,
				"y": -0.2201733508,
				"z": -2.3002329766,
				"element": "C" 
			},
			{
				"x": 2.5105974181,
				"y": -0.5028490736,
				"z": -1.4698570789,
				"element": "C" 
			},
			{
				"x": -0.4187447998,
				"y": -3.1992158106,
				"z": 1.3633492637,
				"element": "H" 
			},
			{
				"x": -1.1508211641,
				"y": -2.2641864301,
				"z": 2.6901109044,
				"element": "H" 
			},
			{
				"x": -2.1226475107,
				"y": -2.6886553643,
				"z": 1.2822660707,
				"element": "H" 
			},
			{
				"x": -2.420924925,
				"y": 0.1635077295,
				"z": 0.6283027971,
				"element": "H" 
			},
			{
				"x": -1.4494847825,
				"y": 0.5879840636,
				"z": 2.0357695399,
				"element": "H" 
			},
			{
				"x": 1.0798045425,
				"y": 2.5978621516,
				"z": -1.418565391,
				"element": "H" 
			},
			{
				"x": 4.6306641973,
				"y": 1.2807300483,
				"z": -3.4692691205,
				"element": "H" 
			},
			{
				"x": 4.2933882324,
				"y": -1.0118715246,
				"z": -2.5453716673,
				"element": "H" 
			},
			{
				"x": 2.3609825645,
				"y": -1.4953217036,
				"z": -1.0673311793,
				"element": "H" 
			}
		],
		 "valence_orbital": [ 
			{
				"type": "occ",
				"energy": -0.30511,
				"method": "rhf"
			},
			{
				"type": "occ",
				"energy": -0.28457,
				"method": "rhf"
			},
			{
				"type": "occ",
				"energy": -0.26402,
				"method": "rhf"
			},
			{
				"type": "occ",
				"energy": -0.24478,
				"method": "rhf"
			},
			{
				"type": "occ",
				"energy": -0.22027,
				"method": "rhf"
			},
			{
				"type": "unocc",
				"energy": -0.03838,
				"method": "rhf"
			},
			{
				"type": "unocc",
				"energy": -0.01887,
				"method": "rhf"
			},
			{
				"type": "unocc",
				"energy": -0.00627,
				"method": "rhf"
			},
			{
				"type": "unocc",
				"energy": 0.03658,
				"method": "rhf"
			},
			{
				"type": "unocc",
				"energy": 0.04812,
				"method": "rhf"
			}
		],
		"cosmo_sigma_profile": { 
			"-0.025": 0.0,
			"-0.024": 0.0,
			"-0.023": 0.0,
			"-0.022": 0.0,
			"-0.021": 0.0,
			"-0.02": 0.0,
			"-0.019": 0.0,
			"-0.018": 0.0,
			"-0.017": 0.0,
			"-0.016": 0.0,
			"-0.015": 0.0,
			"-0.014": 0.0,
			"-0.013": 0.0,
			"-0.012": 0.0,
			"-0.011": 0.0,
			"-0.01": 0.0,
			"-0.009": 2.24462989093,
			"-0.008": 6.50277123308,
			"-0.007": 8.5388392321,
			"-0.006": 15.3341982536,
			"-0.005": 16.0195060157,
			"-0.004": 14.8305297801,
			"-0.003": 13.0384753006,
			"-0.002": 16.0187483958,
			"-0.001": 17.1325948374,
			"0.0": 12.9878031816,
			"0.001": 16.3429852253,
			"0.002": 22.7488705278,
			"0.003": 22.4778514718,
			"0.004": 19.3521277996,
			"0.005": 11.1634813023,
			"0.006": 2.85668557712,
			"0.007": 2.93508853096,
			"0.008": 3.13704996909,
			"0.009": 2.41047865862,
			"0.01": 2.23632003846,
			"0.011": 2.8371921472,
			"0.012": 3.00716737191,
			"0.013": 1.0858077762,
			"0.014": 0.0061322576696,
			"0.015": 0.0,
			"0.016": 0.0,
			"0.017": 0.0,
			"0.018": 0.0,
			"0.019": 0.0,
			"0.02": 0.0,
			"0.021": 0.0,
			"0.022": 0.0,
			"0.023": 0.0,
			"0.024": 0.0,
			"0.025": 0.0
		}
	}
}
