{
	 "smiles": "OC(=O)C1CCCN2C=CN=C12", 
	 "Tm": 430.15, 
	 "num_atms": 22, 
	 "gaussian": { 
		 "optdone": 1, 
		 "sigma_profile": "yes", 
		 "theory": "DFT", 
		 "functional": "B3LYP", 
		 "basiset": "6-31G**", 
		 "properties": { 
			 "R2extent": 2092.0071, 
			 "electric_dipole_moment_norm": 6.07131008021, 
			 "electric_quadrupole_moment_norm": 6.23188865513, 
			 "total_energy": -570.851868481, 
			 "HOMO_LUMO_gap": 0.23782, 
			 "cosmo_polarized_energy": -14.02, 
			 "cosmo_cavitation_energy": 24.22, 
			 "cosmo_dispersion_energy": -18.34, 
			 "cosmo_repulsion_energy": 1.44, 
			 "cosmo_total_nonelectrostatic_energy": 7.33, 
			 "SMD_solvation_energy": 4.06 
		},
		"coords": [
			{
				"x": 0.4104300816,
				"y": 0.3876000836,
				"z": -2.7812080964,
				"element": "O" 
			},
			{
				"x": 1.1221927504,
				"y": 0.5216562215,
				"z": -1.6576194594,
				"element": "C" 
			},
			{
				"x": 1.7135143143,
				"y": 1.5412522342,
				"z": -1.3839301064,
				"element": "O" 
			},
			{
				"x": 1.2033867074,
				"y": -0.7509008758,
				"z": -0.7681347625,
				"element": "C" 
			},
			{
				"x": 1.7544065046,
				"y": -0.4576836999,
				"z": 0.6400514771,
				"element": "C" 
			},
			{
				"x": 0.6357532289,
				"y": -0.1297955913,
				"z": 1.6390338806,
				"element": "C" 
			},
			{
				"x": -0.3511280022,
				"y": -1.2945371973,
				"z": 1.7652206504,
				"element": "C" 
			},
			{
				"x": -0.8089022925,
				"y": -1.6878158022,
				"z": 0.4309849982,
				"element": "N" 
			},
			{
				"x": -1.9987418471,
				"y": -2.2964807436,
				"z": 0.0726066458,
				"element": "C" 
			},
			{
				"x": -1.9735065753,
				"y": -2.3885095024,
				"z": -1.2957381203,
				"element": "C" 
			},
			{
				"x": -0.7981248867,
				"y": -1.8621608975,
				"z": -1.7837987068,
				"element": "N" 
			},
			{
				"x": -0.11952785,
				"y": -1.4571180045,
				"z": -0.7204464385,
				"element": "C" 
			},
			{
				"x": -0.0831867051,
				"y": -0.4713236458,
				"z": -2.7719772081,
				"element": "H" 
			},
			{
				"x": 1.9088240738,
				"y": -1.4030935516,
				"z": -1.302401632,
				"element": "H" 
			},
			{
				"x": 2.313157938,
				"y": -1.330844161,
				"z": 0.9981536765,
				"element": "H" 
			},
			{
				"x": 2.4521988381,
				"y": 0.3784664372,
				"z": 0.56289844,
				"element": "H" 
			},
			{
				"x": 0.1010339614,
				"y": 0.7702249136,
				"z": 1.3133552423,
				"element": "H" 
			},
			{
				"x": 1.057897763,
				"y": 0.084225477,
				"z": 2.6260901865,
				"element": "H" 
			},
			{
				"x": 0.1264286292,
				"y": -2.1534944323,
				"z": 2.2539231116,
				"element": "H" 
			},
			{
				"x": -1.2261338089,
				"y": -1.0156372214,
				"z": 2.3592467785,
				"element": "H" 
			},
			{
				"x": -2.7295094721,
				"y": -2.5954627977,
				"z": 0.8081900043,
				"element": "H" 
			},
			{
				"x": -2.727163351,
				"y": -2.7983672429,
				"z": -1.9526005613,
				"element": "H" 
			}
		],
		 "valence_orbital": [ 
			{
				"type": "occ",
				"energy": -0.30099,
				"method": "rhf"
			},
			{
				"type": "occ",
				"energy": -0.29135,
				"method": "rhf"
			},
			{
				"type": "occ",
				"energy": -0.28456,
				"method": "rhf"
			},
			{
				"type": "occ",
				"energy": -0.2698,
				"method": "rhf"
			},
			{
				"type": "occ",
				"energy": -0.23144,
				"method": "rhf"
			},
			{
				"type": "unocc",
				"energy": 0.00638,
				"method": "rhf"
			},
			{
				"type": "unocc",
				"energy": 0.02505,
				"method": "rhf"
			},
			{
				"type": "unocc",
				"energy": 0.04649,
				"method": "rhf"
			},
			{
				"type": "unocc",
				"energy": 0.07438,
				"method": "rhf"
			},
			{
				"type": "unocc",
				"energy": 0.10309,
				"method": "rhf"
			}
		],
		"cosmo_sigma_profile": { 
			"-0.025": 0.0,
			"-0.024": 0.0,
			"-0.023": 0.0,
			"-0.022": 0.0,
			"-0.021": 0.0,
			"-0.02": 0.0,
			"-0.019": 0.0,
			"-0.018": 0.0,
			"-0.017": 0.0,
			"-0.016": 0.0,
			"-0.015": 0.0,
			"-0.014": 0.0,
			"-0.013": 0.0,
			"-0.012": 0.0,
			"-0.011": 0.0,
			"-0.01": 0.0,
			"-0.009": 0.625040104641,
			"-0.008": 5.16719678071,
			"-0.007": 7.63915893896,
			"-0.006": 12.0449393159,
			"-0.005": 19.4674672604,
			"-0.004": 22.8108395335,
			"-0.003": 16.9873323078,
			"-0.002": 14.2853914229,
			"-0.001": 13.7252867217,
			"0.0": 8.11708538302,
			"0.001": 7.20983997721,
			"0.002": 6.53243757074,
			"0.003": 6.200541225,
			"0.004": 6.76043577465,
			"0.005": 8.37847195464,
			"0.006": 4.35126944109,
			"0.007": 3.64817673077,
			"0.008": 3.29947995344,
			"0.009": 4.33507650072,
			"0.01": 4.55623654684,
			"0.011": 6.43067386814,
			"0.012": 6.05587720487,
			"0.013": 2.72795687375,
			"0.014": 0.265570363603,
			"0.015": 0.0,
			"0.016": 0.0,
			"0.017": 0.0,
			"0.018": 0.0,
			"0.019": 0.0,
			"0.02": 0.0,
			"0.021": 0.0,
			"0.022": 0.0,
			"0.023": 0.0,
			"0.024": 0.0,
			"0.025": 0.0
		}
	}
}
