{
	 "smiles": "COC(=O)C1=C(C)C(Br)=C(O)C(Br)=C1O", 
	 "Tm": 383.15, 
	 "num_atms": 23, 
	 "gaussian": { 
		 "optdone": 1, 
		 "sigma_profile": "yes", 
		 "theory": "DFT", 
		 "functional": "B3LYP", 
		 "basiset": "6-31G**", 
		 "properties": { 
			 "R2extent": 7533.6343, 
			 "electric_dipole_moment_norm": 2.81539741244, 
			 "electric_quadrupole_moment_norm": 15.0587054045, 
			 "total_energy": -5791.49582164, 
			 "HOMO_LUMO_gap": 0.17034, 
			 "cosmo_polarized_energy": -9.36, 
			 "cosmo_cavitation_energy": 30.74, 
			 "cosmo_dispersion_energy": -23.98, 
			 "cosmo_repulsion_energy": 1.85, 
			 "cosmo_total_nonelectrostatic_energy": 8.61, 
			 "SMD_solvation_energy": 5.42 
		},
		"coords": [
			{
				"x": 2.8566255014,
				"y": 0.9496311455,
				"z": 2.4951509008,
				"element": "C" 
			},
			{
				"x": 1.8005316279,
				"y": 0.6385992493,
				"z": 1.5662666848,
				"element": "O" 
			},
			{
				"x": 0.5806269335,
				"y": 0.4883681092,
				"z": 2.0987089661,
				"element": "C" 
			},
			{
				"x": 0.4212422405,
				"y": 0.6187954454,
				"z": 3.3210959444,
				"element": "O" 
			},
			{
				"x": -0.5162803978,
				"y": 0.1706320019,
				"z": 1.1663364806,
				"element": "C" 
			},
			{
				"x": -0.3714523617,
				"y": 0.0093136397,
				"z": -0.2493522152,
				"element": "C" 
			},
			{
				"x": 0.9678961618,
				"y": 0.1529960254,
				"z": -0.9345089189,
				"element": "C" 
			},
			{
				"x": -1.5084016072,
				"y": -0.2892461308,
				"z": -1.0014339081,
				"element": "C" 
			},
			{
				"x": -1.4544022766,
				"y": -0.5291888067,
				"z": -2.9012562667,
				"element": "Br" 
			},
			{
				"x": -2.7834680761,
				"y": -0.4355211796,
				"z": -0.410811313,
				"element": "C" 
			},
			{
				"x": -3.8322944786,
				"y": -0.7228633877,
				"z": -1.1963065192,
				"element": "O" 
			},
			{
				"x": -2.9075557738,
				"y": -0.2764873801,
				"z": 0.9675678476,
				"element": "C" 
			},
			{
				"x": -4.6299431255,
				"y": -0.4752791409,
				"z": 1.7612741121,
				"element": "Br" 
			},
			{
				"x": -1.8031509861,
				"y": 0.0236039467,
				"z": 1.7734221155,
				"element": "C" 
			},
			{
				"x": -2.0154818741,
				"y": 0.1576610189,
				"z": 3.0800886014,
				"element": "O" 
			},
			{
				"x": 2.9626520104,
				"y": 0.1537322004,
				"z": 3.2352798404,
				"element": "H" 
			},
			{
				"x": 2.6489371492,
				"y": 1.8896060279,
				"z": 3.0106741329,
				"element": "H" 
			},
			{
				"x": 3.756319426,
				"y": 1.033416669,
				"z": 1.88639207,
				"element": "H" 
			},
			{
				"x": 1.6898851304,
				"y": -0.5619958071,
				"z": -0.5337774468,
				"element": "H" 
			},
			{
				"x": 1.3865460747,
				"y": 1.1481690711,
				"z": -0.7682836069,
				"element": "H" 
			},
			{
				"x": 0.8712124608,
				"y": -0.0107950688,
				"z": -2.0047897614,
				"element": "H" 
			},
			{
				"x": -4.6244509557,
				"y": -0.7881529859,
				"z": -0.6337534692,
				"element": "H" 
			},
			{
				"x": -1.1281928035,
				"y": 0.3669053372,
				"z": 3.4882157288,
				"element": "H" 
			}
		],
		 "valence_orbital": [ 
			{
				"type": "occ",
				"energy": -0.29882,
				"method": "rhf"
			},
			{
				"type": "occ",
				"energy": -0.29408,
				"method": "rhf"
			},
			{
				"type": "occ",
				"energy": -0.28057,
				"method": "rhf"
			},
			{
				"type": "occ",
				"energy": -0.2435,
				"method": "rhf"
			},
			{
				"type": "occ",
				"energy": -0.22647,
				"method": "rhf"
			},
			{
				"type": "unocc",
				"energy": -0.05613,
				"method": "rhf"
			},
			{
				"type": "unocc",
				"energy": -0.01872,
				"method": "rhf"
			},
			{
				"type": "unocc",
				"energy": -0.01156,
				"method": "rhf"
			},
			{
				"type": "unocc",
				"energy": 0.02182,
				"method": "rhf"
			},
			{
				"type": "unocc",
				"energy": 0.04052,
				"method": "rhf"
			}
		],
		"cosmo_sigma_profile": { 
			"-0.025": 0.0,
			"-0.024": 0.0,
			"-0.023": 0.0,
			"-0.022": 0.0,
			"-0.021": 0.0,
			"-0.02": 0.0,
			"-0.019": 0.0,
			"-0.018": 0.0,
			"-0.017": 0.0,
			"-0.016": 0.0,
			"-0.015": 0.388799711464,
			"-0.014": 0.920972241221,
			"-0.013": 0.47357067004,
			"-0.012": 0.449683101932,
			"-0.011": 1.19824859695,
			"-0.01": 0.901921323829,
			"-0.009": 0.923093877471,
			"-0.008": 0.927657837205,
			"-0.007": 3.5697784346,
			"-0.006": 8.16258199375,
			"-0.005": 11.7495220345,
			"-0.004": 19.5478945388,
			"-0.003": 22.2327869336,
			"-0.002": 20.3903288602,
			"-0.001": 24.904578378,
			"0.0": 31.3274268524,
			"0.001": 23.4919604434,
			"0.002": 16.6664863465,
			"0.003": 15.1390733935,
			"0.004": 13.2240099168,
			"0.005": 9.12004690533,
			"0.006": 5.02029516996,
			"0.007": 5.22314105967,
			"0.008": 5.73593938096,
			"0.009": 5.34451553956,
			"0.01": 4.74316083233,
			"0.011": 0.420134166947,
			"0.012": 0.0,
			"0.013": 0.0,
			"0.014": 0.0,
			"0.015": 0.0,
			"0.016": 0.0,
			"0.017": 0.0,
			"0.018": 0.0,
			"0.019": 0.0,
			"0.02": 0.0,
			"0.021": 0.0,
			"0.022": 0.0,
			"0.023": 0.0,
			"0.024": 0.0,
			"0.025": 0.0
		}
	}
}
