{
	 "smiles": "OC1=CC2=C(C=C1)C1(OC(=O)C3=CC=CC=C13)C1=CC=C(O)C=C1O2", 
	 "Tm": 591.15, 
	 "num_atms": 37, 
	 "gaussian": { 
		 "optdone": 1, 
		 "sigma_profile": "yes", 
		 "theory": "DFT", 
		 "functional": "B3LYP", 
		 "basiset": "6-31G**", 
		 "properties": { 
			 "R2extent": 8230.9976, 
			 "electric_dipole_moment_norm": 5.15389612817, 
			 "electric_quadrupole_moment_norm": 34.1752995198, 
			 "total_energy": -1145.48705667, 
			 "HOMO_LUMO_gap": 0.17408, 
			 "cosmo_polarized_energy": -23.05, 
			 "cosmo_cavitation_energy": 41.9, 
			 "cosmo_dispersion_energy": -29.33, 
			 "cosmo_repulsion_energy": 2.2, 
			 "cosmo_total_nonelectrostatic_energy": 14.77, 
			 "SMD_solvation_energy": 8.76 
		},
		"coords": [
			{
				"x": 2.0013287765,
				"y": 1.0011577826,
				"z": 5.2531800338,
				"element": "O" 
			},
			{
				"x": 1.6629627537,
				"y": 0.4852649762,
				"z": 4.0382716452,
				"element": "C" 
			},
			{
				"x": 0.3120519284,
				"y": 0.4673914301,
				"z": 3.7035652688,
				"element": "C" 
			},
			{
				"x": -0.0795960336,
				"y": -0.0537429778,
				"z": 2.469273441,
				"element": "C" 
			},
			{
				"x": 0.8471772168,
				"y": -0.5527822265,
				"z": 1.5460589776,
				"element": "C" 
			},
			{
				"x": 2.2001357448,
				"y": -0.5196743945,
				"z": 1.9135922804,
				"element": "C" 
			},
			{
				"x": 2.6170164651,
				"y": -0.011845317,
				"z": 3.1354692015,
				"element": "C" 
			},
			{
				"x": 0.4078589168,
				"y": -1.1591720418,
				"z": 0.2307257327,
				"element": "C" 
			},
			{
				"x": 0.7213591811,
				"y": -2.6101798579,
				"z": 0.2639367401,
				"element": "O" 
			},
			{
				"x": 1.5916147165,
				"y": -2.9712039905,
				"z": -0.7297999876,
				"element": "C" 
			},
			{
				"x": 1.9816916787,
				"y": -4.103347315,
				"z": -0.8831599786,
				"element": "O" 
			},
			{
				"x": 1.9172996201,
				"y": -1.7518606392,
				"z": -1.507204049,
				"element": "C" 
			},
			{
				"x": 2.7546532274,
				"y": -1.6084749015,
				"z": -2.6129775062,
				"element": "C" 
			},
			{
				"x": 2.8869399053,
				"y": -0.3338937128,
				"z": -3.1622989098,
				"element": "C" 
			},
			{
				"x": 2.1945099428,
				"y": 0.7557734204,
				"z": -2.6094842028,
				"element": "C" 
			},
			{
				"x": 1.3583265119,
				"y": 0.5984637418,
				"z": -1.5008412779,
				"element": "C" 
			},
			{
				"x": 1.2308638826,
				"y": -0.6772687208,
				"z": -0.9572363527,
				"element": "C" 
			},
			{
				"x": -1.0827957294,
				"y": -1.0022715674,
				"z": 0.0265096491,
				"element": "C" 
			},
			{
				"x": -1.7047139743,
				"y": -1.4266386734,
				"z": -1.1605820588,
				"element": "C" 
			},
			{
				"x": -3.073353502,
				"y": -1.3342991784,
				"z": -1.3489943794,
				"element": "C" 
			},
			{
				"x": -3.8734834266,
				"y": -0.8014524244,
				"z": -0.3247460103,
				"element": "C" 
			},
			{
				"x": -5.2140646372,
				"y": -0.7266880863,
				"z": -0.5545418918,
				"element": "O" 
			},
			{
				"x": -3.2898866751,
				"y": -0.3712897276,
				"z": 0.8633050556,
				"element": "C" 
			},
			{
				"x": -1.90495436,
				"y": -0.4804529205,
				"z": 1.0280721459,
				"element": "C" 
			},
			{
				"x": -1.4282673768,
				"y": -0.0272252317,
				"z": 2.2293544798,
				"element": "O" 
			},
			{
				"x": 2.9586749237,
				"y": 0.9423664019,
				"z": 5.3678878635,
				"element": "H" 
			},
			{
				"x": -0.4325544663,
				"y": 0.8481188089,
				"z": 4.3923032674,
				"element": "H" 
			},
			{
				"x": 2.9416853918,
				"y": -0.9070504428,
				"z": 1.2219494966,
				"element": "H" 
			},
			{
				"x": 3.6730791716,
				"y": -0.0017151583,
				"z": 3.3934597331,
				"element": "H" 
			},
			{
				"x": 3.2773378338,
				"y": -2.4683276415,
				"z": -3.0200761677,
				"element": "H" 
			},
			{
				"x": 3.5285410193,
				"y": -0.1779210036,
				"z": -4.0243243968,
				"element": "H" 
			},
			{
				"x": 2.311412772,
				"y": 1.7402354035,
				"z": -3.0535640175,
				"element": "H" 
			},
			{
				"x": 0.8259151098,
				"y": 1.4460109978,
				"z": -1.0798542732,
				"element": "H" 
			},
			{
				"x": -1.0900545384,
				"y": -1.8436210857,
				"z": -1.9522753659,
				"element": "H" 
			},
			{
				"x": -3.54375026,
				"y": -1.6670955777,
				"z": -2.267233905,
				"element": "H" 
			},
			{
				"x": -5.6531469985,
				"y": -0.3590788759,
				"z": 0.2235774624,
				"element": "H" 
			},
			{
				"x": -3.879814712,
				"y": 0.0466907271,
				"z": 1.6738022566,
				"element": "H" 
			}
		],
		 "valence_orbital": [ 
			{
				"type": "occ",
				"energy": -0.26568,
				"method": "rhf"
			},
			{
				"type": "occ",
				"energy": -0.2636,
				"method": "rhf"
			},
			{
				"type": "occ",
				"energy": -0.23987,
				"method": "rhf"
			},
			{
				"type": "occ",
				"energy": -0.22749,
				"method": "rhf"
			},
			{
				"type": "occ",
				"energy": -0.22157,
				"method": "rhf"
			},
			{
				"type": "unocc",
				"energy": -0.04749,
				"method": "rhf"
			},
			{
				"type": "unocc",
				"energy": -0.02415,
				"method": "rhf"
			},
			{
				"type": "unocc",
				"energy": -0.02304,
				"method": "rhf"
			},
			{
				"type": "unocc",
				"energy": -0.01017,
				"method": "rhf"
			},
			{
				"type": "unocc",
				"energy": 0.00307,
				"method": "rhf"
			}
		],
		"cosmo_sigma_profile": { 
			"-0.025": 0.0,
			"-0.024": 0.0,
			"-0.023": 0.0,
			"-0.022": 0.0,
			"-0.021": 0.0,
			"-0.02": 0.0,
			"-0.019": 0.050773055922,
			"-0.018": 1.86644885654,
			"-0.017": 1.99332045788,
			"-0.016": 2.50597875657,
			"-0.015": 1.98180880138,
			"-0.014": 2.22307162452,
			"-0.013": 2.14791398749,
			"-0.012": 1.42137353703,
			"-0.011": 2.19795599234,
			"-0.01": 2.52833413509,
			"-0.009": 1.53129478025,
			"-0.008": 3.23296359527,
			"-0.007": 11.5030673018,
			"-0.006": 19.599849903,
			"-0.005": 22.7625862693,
			"-0.004": 19.6565047053,
			"-0.003": 14.2335729179,
			"-0.002": 17.4848120401,
			"-0.001": 14.5836133627,
			"0.0": 19.2400921209,
			"0.001": 24.6443128342,
			"0.002": 32.4345363652,
			"0.003": 39.6522928935,
			"0.004": 19.5585488094,
			"0.005": 9.48338512864,
			"0.006": 7.94593414987,
			"0.007": 5.16577311829,
			"0.008": 5.69703181425,
			"0.009": 7.18957375929,
			"0.01": 7.87028484432,
			"0.011": 7.47518548742,
			"0.012": 5.57309548284,
			"0.013": 1.48747706373,
			"0.014": 0.0362166628196,
			"0.015": 0.0,
			"0.016": 0.0,
			"0.017": 0.0,
			"0.018": 0.0,
			"0.019": 0.0,
			"0.02": 0.0,
			"0.021": 0.0,
			"0.022": 0.0,
			"0.023": 0.0,
			"0.024": 0.0,
			"0.025": 0.0
		}
	}
}
