{
	 "smiles": "NC(CSCC1=CC=CC=C1)C(=O)NC1=CC=C(C=C1)[N+]([O-])=O", 
	 "Tm": 374.15, 
	 "num_atms": 40, 
	 "gaussian": { 
		 "optdone": 1, 
		 "sigma_profile": "yes", 
		 "theory": "DFT", 
		 "functional": "B3LYP", 
		 "basiset": "6-31G**", 
		 "properties": { 
			 "R2extent": 9864.2962, 
			 "electric_dipole_moment_norm": 3.28067819361, 
			 "electric_quadrupole_moment_norm": 32.3768583368, 
			 "total_energy": -1407.96975515, 
			 "HOMO_LUMO_gap": 0.14807, 
			 "cosmo_polarized_energy": -20.07, 
			 "cosmo_cavitation_energy": 46.21, 
			 "cosmo_dispersion_energy": -30.95, 
			 "cosmo_repulsion_energy": 2.38, 
			 "cosmo_total_nonelectrostatic_energy": 17.63, 
			 "SMD_solvation_energy": 9.57 
		},
		"coords": [
			{
				"x": 3.412934502,
				"y": -0.1961252215,
				"z": -1.9016755307,
				"element": "N" 
			},
			{
				"x": 2.6345776411,
				"y": -1.3081029298,
				"z": -1.3412587187,
				"element": "C" 
			},
			{
				"x": 1.786522501,
				"y": -0.8464666303,
				"z": -0.1448783813,
				"element": "C" 
			},
			{
				"x": 2.8947846712,
				"y": -0.4275888348,
				"z": 1.2656883696,
				"element": "S" 
			},
			{
				"x": 1.7442268227,
				"y": 0.5769737393,
				"z": 2.3058659438,
				"element": "C" 
			},
			{
				"x": 0.5160424158,
				"y": -0.1566662134,
				"z": 2.7878335214,
				"element": "C" 
			},
			{
				"x": 0.6195844169,
				"y": -1.2100639221,
				"z": 3.708606284,
				"element": "C" 
			},
			{
				"x": -0.5195283874,
				"y": -1.8745254965,
				"z": 4.1577785137,
				"element": "C" 
			},
			{
				"x": -1.7830523619,
				"y": -1.49899518,
				"z": 3.6912923401,
				"element": "C" 
			},
			{
				"x": -1.8974599383,
				"y": -0.4551013692,
				"z": 2.7740096161,
				"element": "C" 
			},
			{
				"x": -0.753715904,
				"y": 0.2104768628,
				"z": 2.3255530572,
				"element": "C" 
			},
			{
				"x": 1.7849422651,
				"y": -1.9995547781,
				"z": -2.4258775366,
				"element": "C" 
			},
			{
				"x": 2.0573770359,
				"y": -3.1461537371,
				"z": -2.7524330398,
				"element": "O" 
			},
			{
				"x": 0.6703056414,
				"y": -1.4120719393,
				"z": -3.0195716908,
				"element": "N" 
			},
			{
				"x": 0.0325988635,
				"y": -0.1602696128,
				"z": -3.0043120002,
				"element": "C" 
			},
			{
				"x": -1.3410045521,
				"y": -0.1458122357,
				"z": -3.3217811562,
				"element": "C" 
			},
			{
				"x": -2.047119837,
				"y": 1.0466210543,
				"z": -3.3660314349,
				"element": "C" 
			},
			{
				"x": -1.3769554292,
				"y": 2.2377195797,
				"z": -3.0856788708,
				"element": "C" 
			},
			{
				"x": -0.0157558691,
				"y": 2.2487566876,
				"z": -2.7839399457,
				"element": "C" 
			},
			{
				"x": 0.6950100395,
				"y": 1.0542789347,
				"z": -2.752837056,
				"element": "C" 
			},
			{
				"x": -2.1176129767,
				"y": 3.4993876766,
				"z": -3.1174789825,
				"element": "N" 
			},
			{
				"x": -1.5021246931,
				"y": 4.5326788058,
				"z": -2.8493094303,
				"element": "O" 
			},
			{
				"x": -3.3144841457,
				"y": 3.4541722753,
				"z": -3.4083098478,
				"element": "O" 
			},
			{
				"x": 4.1166596261,
				"y": -0.5565363511,
				"z": -2.541419615,
				"element": "H" 
			},
			{
				"x": 3.907276042,
				"y": 0.26812293,
				"z": -1.1418204237,
				"element": "H" 
			},
			{
				"x": 3.2686377169,
				"y": -2.1381401184,
				"z": -0.9994001978,
				"element": "H" 
			},
			{
				"x": 1.1051296209,
				"y": -1.6446798399,
				"z": 0.1598826991,
				"element": "H" 
			},
			{
				"x": 1.1994266714,
				"y": 0.038411613,
				"z": -0.3996134222,
				"element": "H" 
			},
			{
				"x": 2.3730031631,
				"y": 0.8903735388,
				"z": 3.1453123176,
				"element": "H" 
			},
			{
				"x": 1.4668437311,
				"y": 1.4763907098,
				"z": 1.7486832121,
				"element": "H" 
			},
			{
				"x": 1.6005009655,
				"y": -1.5116953335,
				"z": 4.0664502809,
				"element": "H" 
			},
			{
				"x": -0.4233615537,
				"y": -2.6857031834,
				"z": 4.8738696887,
				"element": "H" 
			},
			{
				"x": -2.6704181984,
				"y": -2.0172526986,
				"z": 4.0428872392,
				"element": "H" 
			},
			{
				"x": -2.8746966932,
				"y": -0.1548159885,
				"z": 2.4068954078,
				"element": "H" 
			},
			{
				"x": -0.8499058741,
				"y": 1.0289380016,
				"z": 1.6160806599,
				"element": "H" 
			},
			{
				"x": 0.2025382196,
				"y": -2.1149973805,
				"z": -3.5815038571,
				"element": "H" 
			},
			{
				"x": -1.854534586,
				"y": -1.0820140758,
				"z": -3.5223807581,
				"element": "H" 
			},
			{
				"x": -3.103259919,
				"y": 1.0716674485,
				"z": -3.6031715993,
				"element": "H" 
			},
			{
				"x": 0.4758672329,
				"y": 3.1953892497,
				"z": -2.5960239619,
				"element": "H" 
			},
			{
				"x": 1.7632011132,
				"y": 1.0393739627,
				"z": -2.5569816936,
				"element": "H" 
			}
		],
		 "valence_orbital": [ 
			{
				"type": "occ",
				"energy": -0.26696,
				"method": "rhf"
			},
			{
				"type": "occ",
				"energy": -0.2594,
				"method": "rhf"
			},
			{
				"type": "occ",
				"energy": -0.2545,
				"method": "rhf"
			},
			{
				"type": "occ",
				"energy": -0.24478,
				"method": "rhf"
			},
			{
				"type": "occ",
				"energy": -0.23488,
				"method": "rhf"
			},
			{
				"type": "unocc",
				"energy": -0.08681,
				"method": "rhf"
			},
			{
				"type": "unocc",
				"energy": -0.03059,
				"method": "rhf"
			},
			{
				"type": "unocc",
				"energy": -0.02339,
				"method": "rhf"
			},
			{
				"type": "unocc",
				"energy": -0.01899,
				"method": "rhf"
			},
			{
				"type": "unocc",
				"energy": -0.0095,
				"method": "rhf"
			}
		],
		"cosmo_sigma_profile": { 
			"-0.025": 0.0,
			"-0.024": 0.0,
			"-0.023": 0.0,
			"-0.022": 0.0,
			"-0.021": 0.0,
			"-0.02": 0.0,
			"-0.019": 0.0,
			"-0.018": 0.0,
			"-0.017": 0.0,
			"-0.016": 0.0,
			"-0.015": 0.52704578013,
			"-0.014": 1.36581542903,
			"-0.013": 1.27205618551,
			"-0.012": 1.79651722991,
			"-0.011": 2.51268705045,
			"-0.01": 2.17614478324,
			"-0.009": 3.76913334581,
			"-0.008": 5.60609208624,
			"-0.007": 8.87386129831,
			"-0.006": 19.8873344984,
			"-0.005": 27.9863273426,
			"-0.004": 29.3701781136,
			"-0.003": 27.8594853119,
			"-0.002": 23.8361563496,
			"-0.001": 25.8057143483,
			"0.0": 26.8363438025,
			"0.001": 27.9299081962,
			"0.002": 22.84528362,
			"0.003": 14.3010841855,
			"0.004": 15.9580777947,
			"0.005": 16.6329589163,
			"0.006": 14.4809524559,
			"0.007": 9.18454743199,
			"0.008": 13.8622731824,
			"0.009": 7.12558208824,
			"0.01": 6.36831805216,
			"0.011": 2.97836965609,
			"0.012": 5.12655554176,
			"0.013": 2.82294574089,
			"0.014": 0.119956613509,
			"0.015": 0.0,
			"0.016": 0.0,
			"0.017": 0.0,
			"0.018": 0.0,
			"0.019": 0.0,
			"0.02": 0.0,
			"0.021": 0.0,
			"0.022": 0.0,
			"0.023": 0.0,
			"0.024": 0.0,
			"0.025": 0.0
		}
	}
}
