{
	 "smiles": "CC(C)(O)CCC(C)(C)O", 
	 "Tm": 363.65, 
	 "num_atms": 28, 
	 "gaussian": { 
		 "optdone": 1, 
		 "sigma_profile": "yes", 
		 "theory": "DFT", 
		 "functional": "B3LYP", 
		 "basiset": "6-31G**", 
		 "properties": { 
			 "R2extent": 1987.31, 
			 "electric_dipole_moment_norm": 1.96884200991, 
			 "electric_quadrupole_moment_norm": 10.6047337548, 
			 "total_energy": -466.156032924, 
			 "HOMO_LUMO_gap": 0.30652, 
			 "cosmo_polarized_energy": -10.05, 
			 "cosmo_cavitation_energy": 27.42, 
			 "cosmo_dispersion_energy": -19.36, 
			 "cosmo_repulsion_energy": 1.54, 
			 "cosmo_total_nonelectrostatic_energy": 9.6, 
			 "SMD_solvation_energy": 4.74 
		},
		"coords": [
			{
				"x": 1.0052728071,
				"y": -1.786910191,
				"z": 0.3324212725,
				"element": "C" 
			},
			{
				"x": 0.4421868206,
				"y": -1.1781344228,
				"z": 1.622878493,
				"element": "C" 
			},
			{
				"x": -1.059725609,
				"y": -1.4442845933,
				"z": 1.7437530929,
				"element": "C" 
			},
			{
				"x": 1.0179768609,
				"y": -1.873136185,
				"z": 2.7493277047,
				"element": "O" 
			},
			{
				"x": 0.7856115639,
				"y": 0.3281509152,
				"z": 1.7972933676,
				"element": "C" 
			},
			{
				"x": -0.0444431569,
				"y": 1.4314338142,
				"z": 1.1058789771,
				"element": "C" 
			},
			{
				"x": 0.0673532265,
				"y": 1.6753681212,
				"z": -0.4190238797,
				"element": "C" 
			},
			{
				"x": -0.6785604213,
				"y": 2.9739025618,
				"z": -0.7737239538,
				"element": "C" 
			},
			{
				"x": 1.5180773609,
				"y": 1.7565177467,
				"z": -0.9004457029,
				"element": "C" 
			},
			{
				"x": -0.5197161382,
				"y": 0.5940879467,
				"z": -1.1690906422,
				"element": "O" 
			},
			{
				"x": 2.0950080642,
				"y": -1.655866801,
				"z": 0.2927097802,
				"element": "H" 
			},
			{
				"x": 0.572796895,
				"y": -1.3151800639,
				"z": -0.5516149989,
				"element": "H" 
			},
			{
				"x": 0.7979508678,
				"y": -2.8615099412,
				"z": 0.3103814204,
				"element": "H" 
			},
			{
				"x": -1.2373610314,
				"y": -2.522577735,
				"z": 1.7841685788,
				"element": "H" 
			},
			{
				"x": -1.4621147938,
				"y": -1.0000599983,
				"z": 2.6598523908,
				"element": "H" 
			},
			{
				"x": -1.5991208796,
				"y": -1.0369813288,
				"z": 0.8852120975,
				"element": "H" 
			},
			{
				"x": 1.9786348875,
				"y": -1.7906498552,
				"z": 2.6773629252,
				"element": "H" 
			},
			{
				"x": 1.8504973823,
				"y": 0.4685248164,
				"z": 1.5645385772,
				"element": "H" 
			},
			{
				"x": 0.69208896,
				"y": 0.5070583849,
				"z": 2.87493587,
				"element": "H" 
			},
			{
				"x": -1.1077874879,
				"y": 1.2879412911,
				"z": 1.3427525211,
				"element": "H" 
			},
			{
				"x": 0.2309707985,
				"y": 2.3750016965,
				"z": 1.5956045249,
				"element": "H" 
			},
			{
				"x": -1.719250613,
				"y": 2.9339392699,
				"z": -0.4278399849,
				"element": "H" 
			},
			{
				"x": -0.6847217554,
				"y": 3.1162081656,
				"z": -1.8582474157,
				"element": "H" 
			},
			{
				"x": -0.2109166814,
				"y": 3.8489096937,
				"z": -0.310826083,
				"element": "H" 
			},
			{
				"x": 2.0613017517,
				"y": 2.5399346199,
				"z": -0.3626601717,
				"element": "H" 
			},
			{
				"x": 1.5439118577,
				"y": 1.9874004961,
				"z": -1.9692863806,
				"element": "H" 
			},
			{
				"x": 2.0374433598,
				"y": 0.8077767543,
				"z": -0.7494415679,
				"element": "H" 
			},
			{
				"x": -1.4634648964,
				"y": 0.5712348213,
				"z": -0.9610708128,
				"element": "H" 
			}
		],
		 "valence_orbital": [ 
			{
				"type": "occ",
				"energy": -0.32561,
				"method": "rhf"
			},
			{
				"type": "occ",
				"energy": -0.31302,
				"method": "rhf"
			},
			{
				"type": "occ",
				"energy": -0.30191,
				"method": "rhf"
			},
			{
				"type": "occ",
				"energy": -0.26455,
				"method": "rhf"
			},
			{
				"type": "occ",
				"energy": -0.25208,
				"method": "rhf"
			},
			{
				"type": "unocc",
				"energy": 0.05444,
				"method": "rhf"
			},
			{
				"type": "unocc",
				"energy": 0.08429,
				"method": "rhf"
			},
			{
				"type": "unocc",
				"energy": 0.09676,
				"method": "rhf"
			},
			{
				"type": "unocc",
				"energy": 0.11508,
				"method": "rhf"
			},
			{
				"type": "unocc",
				"energy": 0.12308,
				"method": "rhf"
			}
		],
		"cosmo_sigma_profile": { 
			"-0.025": 0.0,
			"-0.024": 0.0,
			"-0.023": 0.0,
			"-0.022": 0.0,
			"-0.021": 0.0,
			"-0.02": 0.0,
			"-0.019": 0.0,
			"-0.018": 0.0,
			"-0.017": 0.0,
			"-0.016": 0.0,
			"-0.015": 0.0742018067656,
			"-0.014": 0.817020263223,
			"-0.013": 2.51731384916,
			"-0.012": 0.854482934009,
			"-0.011": 1.15908422839,
			"-0.01": 2.69263915574,
			"-0.009": 2.54563304493,
			"-0.008": 2.67101284644,
			"-0.007": 1.94793736814,
			"-0.006": 3.47786108427,
			"-0.005": 3.47533380549,
			"-0.004": 4.92459015623,
			"-0.003": 18.6877164818,
			"-0.002": 27.6571137516,
			"-0.001": 29.2685582665,
			"0.0": 26.5498686392,
			"0.001": 28.2853313908,
			"0.002": 16.3185968559,
			"0.003": 5.38780958135,
			"0.004": 4.22412771682,
			"0.005": 2.08657844042,
			"0.006": 2.86967176469,
			"0.007": 2.76141425281,
			"0.008": 2.21475401592,
			"0.009": 2.14062431042,
			"0.01": 2.55882141023,
			"0.011": 2.0129645039,
			"0.012": 2.06520932756,
			"0.013": 2.57467861867,
			"0.014": 2.23966663674,
			"0.015": 2.27478897687,
			"0.016": 0.081439600051,
			"0.017": 0.0,
			"0.018": 0.0,
			"0.019": 0.0,
			"0.02": 0.0,
			"0.021": 0.0,
			"0.022": 0.0,
			"0.023": 0.0,
			"0.024": 0.0,
			"0.025": 0.0
		}
	}
}
