{
	 "smiles": "CCN(CC)S(=O)(=O)C1=CC2=C(C=C1)N=C(O)C=C2C(O)=O", 
	 "Tm": 584.15, 
	 "num_atms": 38, 
	 "gaussian": { 
		 "optdone": 1, 
		 "sigma_profile": "yes", 
		 "theory": "DFT", 
		 "functional": "B3LYP", 
		 "basiset": "6-31G**", 
		 "properties": { 
			 "R2extent": 9070.5726, 
			 "electric_dipole_moment_norm": 5.73162689033, 
			 "electric_quadrupole_moment_norm": 20.3567537616, 
			 "total_energy": -1426.88589105, 
			 "HOMO_LUMO_gap": 0.15461, 
			 "cosmo_polarized_energy": -29.6, 
			 "cosmo_cavitation_energy": 42.71, 
			 "cosmo_dispersion_energy": -29.75, 
			 "cosmo_repulsion_energy": 2.21, 
			 "cosmo_total_nonelectrostatic_energy": 15.17, 
			 "SMD_solvation_energy": 6.0 
		},
		"coords": [
			{
				"x": -0.9535763666,
				"y": -2.9702689195,
				"z": 2.143635095,
				"element": "C" 
			},
			{
				"x": -0.7499361229,
				"y": -1.7216731961,
				"z": 1.2842336978,
				"element": "C" 
			},
			{
				"x": 0.3629360266,
				"y": -1.8790804752,
				"z": 0.3339719548,
				"element": "N" 
			},
			{
				"x": 1.7369005748,
				"y": -1.9504144175,
				"z": 0.8787415942,
				"element": "C" 
			},
			{
				"x": 2.3905977331,
				"y": -3.3160051913,
				"z": 0.6717624078,
				"element": "C" 
			},
			{
				"x": 0.1779259604,
				"y": -1.2680226264,
				"z": -1.2164304834,
				"element": "S" 
			},
			{
				"x": 1.31400165,
				"y": -1.7684117039,
				"z": -1.9930387923,
				"element": "O" 
			},
			{
				"x": -1.2119268387,
				"y": -1.5151119715,
				"z": -1.6066025709,
				"element": "O" 
			},
			{
				"x": 0.380744416,
				"y": 0.520525161,
				"z": -1.1057624891,
				"element": "C" 
			},
			{
				"x": -0.7234543924,
				"y": 1.3072085939,
				"z": -0.8426445675,
				"element": "C" 
			},
			{
				"x": -0.5814695379,
				"y": 2.714517865,
				"z": -0.7183873473,
				"element": "C" 
			},
			{
				"x": 0.7151321644,
				"y": 3.2992095026,
				"z": -0.9226635389,
				"element": "C" 
			},
			{
				"x": 1.8202729633,
				"y": 2.4513477494,
				"z": -1.1995973747,
				"element": "C" 
			},
			{
				"x": 1.6640436515,
				"y": 1.0874678858,
				"z": -1.2883063496,
				"element": "C" 
			},
			{
				"x": 0.9445856123,
				"y": 4.6397269689,
				"z": -0.8896505869,
				"element": "N" 
			},
			{
				"x": -0.0756080666,
				"y": 5.4366080986,
				"z": -0.6911204665,
				"element": "C" 
			},
			{
				"x": 0.2077081066,
				"y": 6.7585049926,
				"z": -0.6909482481,
				"element": "O" 
			},
			{
				"x": -1.4056439461,
				"y": 4.9772816583,
				"z": -0.4676905365,
				"element": "C" 
			},
			{
				"x": -1.6563601376,
				"y": 3.62693394,
				"z": -0.4507930838,
				"element": "C" 
			},
			{
				"x": -3.0751583659,
				"y": 3.2251223002,
				"z": -0.1271880041,
				"element": "C" 
			},
			{
				"x": -3.2372892983,
				"y": 2.1095839478,
				"z": 0.6267592796,
				"element": "O" 
			},
			{
				"x": -4.0305961444,
				"y": 3.8759381732,
				"z": -0.4706278123,
				"element": "O" 
			},
			{
				"x": -1.7999374757,
				"y": -2.8178988541,
				"z": 2.8212860624,
				"element": "H" 
			},
			{
				"x": -0.0748055566,
				"y": -3.1939847941,
				"z": 2.7562731323,
				"element": "H" 
			},
			{
				"x": -1.164063979,
				"y": -3.8373616132,
				"z": 1.5121574544,
				"element": "H" 
			},
			{
				"x": -0.576797559,
				"y": -0.8438442347,
				"z": 1.9282819281,
				"element": "H" 
			},
			{
				"x": -1.6537487387,
				"y": -1.5419659103,
				"z": 0.6998312601,
				"element": "H" 
			},
			{
				"x": 2.359062067,
				"y": -1.1682300945,
				"z": 0.4306538231,
				"element": "H" 
			},
			{
				"x": 1.6685351112,
				"y": -1.7116530688,
				"z": 1.9458278151,
				"element": "H" 
			},
			{
				"x": 3.3937249281,
				"y": -3.3243574721,
				"z": 1.1124704351,
				"element": "H" 
			},
			{
				"x": 2.4746913673,
				"y": -3.5331903417,
				"z": -0.3949186777,
				"element": "H" 
			},
			{
				"x": 1.8011598687,
				"y": -4.108703805,
				"z": 1.1412965088,
				"element": "H" 
			},
			{
				"x": -1.7007958213,
				"y": 0.8383959887,
				"z": -0.803543024,
				"element": "H" 
			},
			{
				"x": 2.7825046138,
				"y": 2.9245706048,
				"z": -1.3622192744,
				"element": "H" 
			},
			{
				"x": 2.4978531065,
				"y": 0.442797261,
				"z": -1.5420384125,
				"element": "H" 
			},
			{
				"x": -0.6029224297,
				"y": 7.2666747453,
				"z": -0.5543762278,
				"element": "H" 
			},
			{
				"x": -2.2233272908,
				"y": 5.6702107504,
				"z": -0.2933182971,
				"element": "H" 
			},
			{
				"x": -2.377561853,
				"y": 1.7667525023,
				"z": 0.9115837166,
				"element": "H" 
			}
		],
		 "valence_orbital": [ 
			{
				"type": "occ",
				"energy": -0.29762,
				"method": "rhf"
			},
			{
				"type": "occ",
				"energy": -0.2874,
				"method": "rhf"
			},
			{
				"type": "occ",
				"energy": -0.27447,
				"method": "rhf"
			},
			{
				"type": "occ",
				"energy": -0.26844,
				"method": "rhf"
			},
			{
				"type": "occ",
				"energy": -0.24905,
				"method": "rhf"
			},
			{
				"type": "unocc",
				"energy": -0.09444,
				"method": "rhf"
			},
			{
				"type": "unocc",
				"energy": -0.05083,
				"method": "rhf"
			},
			{
				"type": "unocc",
				"energy": -0.03574,
				"method": "rhf"
			},
			{
				"type": "unocc",
				"energy": 0.02302,
				"method": "rhf"
			},
			{
				"type": "unocc",
				"energy": 0.04514,
				"method": "rhf"
			}
		],
		"cosmo_sigma_profile": { 
			"-0.025": 0.0,
			"-0.024": 0.0,
			"-0.023": 0.0,
			"-0.022": 0.0,
			"-0.021": 0.0,
			"-0.02": 0.299037268193,
			"-0.019": 1.29242603787,
			"-0.018": 1.57682808448,
			"-0.017": 1.97073952253,
			"-0.016": 1.24854847741,
			"-0.015": 2.10455328778,
			"-0.014": 2.06048376752,
			"-0.013": 1.83062721411,
			"-0.012": 2.83704764328,
			"-0.011": 2.33662918513,
			"-0.01": 2.0068437585,
			"-0.009": 2.6324227013,
			"-0.008": 4.33211706143,
			"-0.007": 8.1367757448,
			"-0.006": 11.9426555009,
			"-0.005": 18.1052854172,
			"-0.004": 23.8605882869,
			"-0.003": 33.6430303404,
			"-0.002": 27.4784357234,
			"-0.001": 27.4589584965,
			"0.0": 27.5173471258,
			"0.001": 23.0839216399,
			"0.002": 13.0711258929,
			"0.003": 8.23899617236,
			"0.004": 7.83514307466,
			"0.005": 10.0625824126,
			"0.006": 8.19932325349,
			"0.007": 8.59026521296,
			"0.008": 7.9402614392,
			"0.009": 11.2181315022,
			"0.01": 13.6036279802,
			"0.011": 14.6955195332,
			"0.012": 5.82787720234,
			"0.013": 0.901544374912,
			"0.014": 0.855157232951,
			"0.015": 0.471067579895,
			"0.016": 0.0,
			"0.017": 0.0,
			"0.018": 0.0,
			"0.019": 0.0,
			"0.02": 0.0,
			"0.021": 0.0,
			"0.022": 0.0,
			"0.023": 0.0,
			"0.024": 0.0,
			"0.0": 0.0
		}
	}
}
