{
	 "smiles": "CC(O)[C@@]1(O)CCC2C3CCC4(C)C[C@H](O)CCC4(C)C3CCC12C", 
	 "Tm": 527.15, 
	 "num_atms": 63, 
	 "gaussian": { 
		 "optdone": 1, 
		 "sigma_profile": "yes", 
		 "theory": "DFT", 
		 "functional": "B3LYP", 
		 "basiset": "6-31G**", 
		 "properties": { 
			 "R2extent": 11298.3166, 
			 "electric_dipole_moment_norm": 1.18251064266, 
			 "electric_quadrupole_moment_norm": 14.8227396371, 
			 "total_energy": -1086.90796607, 
			 "HOMO_LUMO_gap": 0.31452, 
			 "cosmo_polarized_energy": -13.35, 
			 "cosmo_cavitation_energy": 50.04, 
			 "cosmo_dispersion_energy": -35.57, 
			 "cosmo_repulsion_energy": 2.57, 
			 "cosmo_total_nonelectrostatic_energy": 17.04, 
			 "SMD_solvation_energy": 6.94 
		},
		"coords": [
			{
				"x": -3.6679139354,
				"y": -1.1288595076,
				"z": 2.2463852348,
				"element": "C" 
			},
			{
				"x": -2.4015150202,
				"y": -1.4635511584,
				"z": 3.0280741552,
				"element": "C" 
			},
			{
				"x": -2.8045148581,
				"y": -2.4483543511,
				"z": 3.9931131636,
				"element": "O" 
			},
			{
				"x": -1.1766850146,
				"y": -1.9977001796,
				"z": 2.2070730022,
				"element": "C" 
			},
			{
				"x": -0.4076820186,
				"y": -2.8326099025,
				"z": 3.0979828204,
				"element": "O" 
			},
			{
				"x": -1.5083055315,
				"y": -2.8233353639,
				"z": 0.9443507807,
				"element": "C" 
			},
			{
				"x": -0.2283559785,
				"y": -2.7723299517,
				"z": 0.0745115596,
				"element": "C" 
			},
			{
				"x": 0.7484439786,
				"y": -1.7709456067,
				"z": 0.7599981889,
				"element": "C" 
			},
			{
				"x": 1.6469710388,
				"y": -1.0264443687,
				"z": -0.2666077507,
				"element": "C" 
			},
			{
				"x": 3.0785208845,
				"y": -0.6708884419,
				"z": 0.2439418306,
				"element": "C" 
			},
			{
				"x": 3.4172074417,
				"y": 0.82664767,
				"z": 0.2754427849,
				"element": "C" 
			},
			{
				"x": 3.1130099754,
				"y": 1.6721957768,
				"z": -1.0085744739,
				"element": "C" 
			},
			{
				"x": 2.7517180681,
				"y": 3.0965311605,
				"z": -0.5060846641,
				"element": "C" 
			},
			{
				"x": 4.4029924955,
				"y": 1.9035767302,
				"z": -1.8581441021,
				"element": "C" 
			},
			{
				"x": 4.8602116049,
				"y": 0.7789306368,
				"z": -2.784412221,
				"element": "C" 
			},
			{
				"x": 5.9807957755,
				"y": 1.1832334957,
				"z": -3.5700515568,
				"element": "O" 
			},
			{
				"x": 3.7223443505,
				"y": 0.4384141058,
				"z": -3.7324393965,
				"element": "C" 
			},
			{
				"x": 2.5178365957,
				"y": -0.027782013,
				"z": -2.9125678019,
				"element": "C" 
			},
			{
				"x": 1.9502363677,
				"y": 0.994187005,
				"z": -1.8682938681,
				"element": "C" 
			},
			{
				"x": 1.1637249213,
				"y": 2.0484454463,
				"z": -2.680828858,
				"element": "C" 
			},
			{
				"x": 0.9500876414,
				"y": 0.1865160883,
				"z": -0.9545644763,
				"element": "C" 
			},
			{
				"x": 0.1365053098,
				"y": 1.0281881407,
				"z": 0.0532849371,
				"element": "C" 
			},
			{
				"x": -0.8585399757,
				"y": 0.1751024108,
				"z": 0.8527659394,
				"element": "C" 
			},
			{
				"x": -0.1593758149,
				"y": -0.9169851967,
				"z": 1.696676045,
				"element": "C" 
			},
			{
				"x": 0.619732708,
				"y": -0.2811183111,
				"z": 2.8614144865,
				"element": "C" 
			},
			{
				"x": -3.4831874958,
				"y": -0.4073492983,
				"z": 1.4483581896,
				"element": "H" 
			},
			{
				"x": -4.096824195,
				"y": -2.0344178543,
				"z": 1.8078505017,
				"element": "H" 
			},
			{
				"x": -4.4101308172,
				"y": -0.7071082951,
				"z": 2.929761834,
				"element": "H" 
			},
			{
				"x": -2.0706964372,
				"y": -0.5610971104,
				"z": 3.5633188691,
				"element": "H" 
			},
			{
				"x": -2.1080437917,
				"y": -2.4696778127,
				"z": 4.6627107589,
				"element": "H" 
			},
			{
				"x": -0.9880042414,
				"y": -3.5767157186,
				"z": 3.3116518348,
				"element": "H" 
			},
			{
				"x": -1.8010879782,
				"y": -3.8426603356,
				"z": 1.218836226,
				"element": "H" 
			},
			{
				"x": -2.3567602842,
				"y": -2.3964947713,
				"z": 0.4042272042,
				"element": "H" 
			},
			{
				"x": 0.2425461272,
				"y": -3.7551851264,
				"z": -0.0233126156,
				"element": "H" 
			},
			{
				"x": -0.473057541,
				"y": -2.4452961449,
				"z": -0.9420261737,
				"element": "H" 
			},
			{
				"x": 1.4081210799,
				"y": -2.3576146675,
				"z": 1.4072923201,
				"element": "H" 
			},
			{
				"x": 1.7957706979,
				"y": -1.7765717133,
				"z": -1.0495320694,
				"element": "H" 
			},
			{
				"x": 3.8136338266,
				"y": -1.1872934632,
				"z": -0.3853547913,
				"element": "H" 
			},
			{
				"x": 3.2267790984,
				"y": -1.0750101077,
				"z": 1.2519849556,
				"element": "H" 
			},
			{
				"x": 2.8724647259,
				"y": 1.2782373895,
				"z": 1.1120724868,
				"element": "H" 
			},
			{
				"x": 4.4772688782,
				"y": 0.9431290175,
				"z": 0.5345386328,
				"element": "H" 
			},
			{
				"x": 3.5690312944,
				"y": 3.4697512009,
				"z": 0.1226624272,
				"element": "H" 
			},
			{
				"x": 1.842649594,
				"y": 3.1211804875,
				"z": 0.0972001639,
				"element": "H" 
			},
			{
				"x": 2.628801786,
				"y": 3.8061712201,
				"z": -1.3283055319,
				"element": "H" 
			},
			{
				"x": 4.2545960225,
				"y": 2.7760521409,
				"z": -2.5077015006,
				"element": "H" 
			},
			{
				"x": 5.2158161953,
				"y": 2.1755674657,
				"z": -1.1689498907,
				"element": "H" 
			},
			{
				"x": 5.119044291,
				"y": -0.1205850883,
				"z": -2.1988938825,
				"element": "H" 
			},
			{
				"x": 6.6828148456,
				"y": 1.456730473,
				"z": -2.9651199319,
				"element": "H" 
			},
			{
				"x": 3.4963457461,
				"y": 1.3235923893,
				"z": -4.3396111496,
				"element": "H" 
			},
			{
				"x": 4.0340155663,
				"y": -0.3505931382,
				"z": -4.4261563457,
				"element": "H" 
			},
			{
				"x": 1.6962711297,
				"y": -0.3130968896,
				"z": -3.5814143834,
				"element": "H" 
			},
			{
				"x": 2.8253011098,
				"y": -0.9496501297,
				"z": -2.4146266069,
				"element": "H" 
			},
			{
				"x": 0.677739602,
				"y": 2.7989935623,
				"z": -2.0552269675,
				"element": "H" 
			},
			{
				"x": 0.3821123756,
				"y": 1.5564859756,
				"z": -3.2711039567,
				"element": "H" 
			},
			{
				"x": 1.8124756215,
				"y": 2.582299043,
				"z": -3.3823595941,
				"element": "H" 
			},
			{
				"x": 0.2043707992,
				"y": -0.2324499878,
				"z": -1.6487924038,
				"element": "H" 
			},
			{
				"x": 0.7924661656,
				"y": 1.5485621516,
				"z": 0.7536258972,
				"element": "H" 
			},
			{
				"x": -0.4222225144,
				"y": 1.8063585524,
				"z": -0.4773738756,
				"element": "H" 
			},
			{
				"x": -1.451364043,
				"y": 0.8302255874,
				"z": 1.5031978422,
				"element": "H" 
			},
			{
				"x": -1.5633752291,
				"y": -0.2819590921,
				"z": 0.1475591155,
				"element": "H" 
			},
			{
				"x": 1.4157238,
				"y": 0.375047501,
				"z": 2.5014172434,
				"element": "H" 
			},
			{
				"x": -0.0341872559,
				"y": 0.3291525095,
				"z": 3.495809033,
				"element": "H" 
			},
			{
				"x": 1.0735304351,
				"y": -1.0515742361,
				"z": 3.4867403754,
				"element": "H" 
			}
		],
		 "valence_orbital": [ 
			{
				"type": "occ",
				"energy": -0.27607,
				"method": "rhf"
			},
			{
				"type": "occ",
				"energy": -0.27289,
				"method": "rhf"
			},
			{
				"type": "occ",
				"energy": -0.26873,
				"method": "rhf"
			},
			{
				"type": "occ",
				"energy": -0.25566,
				"method": "rhf"
			},
			{
				"type": "occ",
				"energy": -0.25258,
				"method": "rhf"
			},
			{
				"type": "unocc",
				"energy": 0.06194,
				"method": "rhf"
			},
			{
				"type": "unocc",
				"energy": 0.06988,
				"method": "rhf"
			},
			{
				"type": "unocc",
				"energy": 0.07571,
				"method": "rhf"
			},
			{
				"type": "unocc",
				"energy": 0.08185,
				"method": "rhf"
			},
			{
				"type": "unocc",
				"energy": 0.08857,
				"method": "rhf"
			}
		],
		"cosmo_sigma_profile": { 
			"-0.025": 0.0,
			"-0.024": 0.0,
			"-0.023": 0.0,
			"-0.022": 0.0,
			"-0.021": 0.0,
			"-0.02": 0.0,
			"-0.019": 0.0,
			"-0.018": 0.0,
			"-0.017": 0.0,
			"-0.016": 0.0,
			"-0.015": 0.231573583795,
			"-0.014": 1.47536251018,
			"-0.013": 2.30987235466,
			"-0.012": 2.09448845945,
			"-0.011": 2.91536235029,
			"-0.01": 2.10185388406,
			"-0.009": 2.41308105039,
			"-0.008": 3.04998841171,
			"-0.007": 2.74961177146,
			"-0.006": 2.52168775508,
			"-0.005": 2.79632560702,
			"-0.004": 7.32618907016,
			"-0.003": 26.8484882043,
			"-0.002": 63.6034606146,
			"-0.001": 64.0946026178,
			"0.0": 61.9285009032,
			"0.001": 53.3001568677,
			"0.002": 27.9044039688,
			"0.003": 7.48190632496,
			"0.004": 5.18627020232,
			"0.005": 2.0746593047,
			"0.006": 4.24981217694,
			"0.007": 3.7022193141,
			"0.008": 3.85161790349,
			"0.009": 4.83792257074,
			"0.01": 3.46082989018,
			"0.011": 3.18669507005,
			"0.012": 3.65553973171,
			"0.013": 3.35444595005,
			"0.014": 3.70950752147,
			"0.015": 1.98329933066,
			"0.016": 0.0,
			"0.017": 0.0,
			"0.018": 0.0,
			"0.019": 0.0,
			"0.02": 0.0,
			"0.021": 0.0,
			"0.022": 0.0,
			"0.023": 0.0,
			"0.024": 0.0,
			"0.025": 0.0
		}
	}
}
