{
	 "smiles": "CCC=C(C)C", 
	 "Tm": 138.15, 
	 "num_atms": 18, 
	 "gaussian": { 
		 "optdone": 1, 
		 "sigma_profile": "yes", 
		 "theory": "DFT", 
		 "functional": "B3LYP", 
		 "basiset": "6-31G**", 
		 "properties": { 
			 "R2extent": 855.5878, 
			 "electric_dipole_moment_norm": 0.240708703623, 
			 "electric_quadrupole_moment_norm": 1.50985251929, 
			 "total_energy": -235.869172042, 
			 "HOMO_LUMO_gap": 0.26069, 
			 "cosmo_polarized_energy": -1.44, 
			 "cosmo_cavitation_energy": 20.0, 
			 "cosmo_dispersion_energy": -14.58, 
			 "cosmo_repulsion_energy": 1.28, 
			 "cosmo_total_nonelectrostatic_energy": 6.71, 
			 "SMD_solvation_energy": 3.9 
		},
		"coords": [
			{
				"x": -0.7414643183,
				"y": -2.1842413361,
				"z": 1.4227916412,
				"element": "C" 
			},
			{
				"x": 0.4922327404,
				"y": -1.3235655877,
				"z": 1.0969978413,
				"element": "C" 
			},
			{
				"x": 0.1222869881,
				"y": 0.0415293891,
				"z": 0.5808671028,
				"element": "C" 
			},
			{
				"x": 0.4065657994,
				"y": 0.5986373518,
				"z": -0.6066574026,
				"element": "C" 
			},
			{
				"x": 1.2033131341,
				"y": -0.0640663418,
				"z": -1.7041276732,
				"element": "C" 
			},
			{
				"x": -0.0698392019,
				"y": 1.9932189447,
				"z": -0.9392645746,
				"element": "C" 
			},
			{
				"x": -1.337127996,
				"y": -2.3711667339,
				"z": 0.5234199784,
				"element": "H" 
			},
			{
				"x": -1.3904166226,
				"y": -1.6843999327,
				"z": 2.1506316386,
				"element": "H" 
			},
			{
				"x": -0.4490142265,
				"y": -3.1514359876,
				"z": 1.8453329465,
				"element": "H" 
			},
			{
				"x": 1.1309120153,
				"y": -1.8571397198,
				"z": 0.3860804736,
				"element": "H" 
			},
			{
				"x": 1.0891626832,
				"y": -1.2076181274,
				"z": 2.0136022261,
				"element": "H" 
			},
			{
				"x": -0.4683067454,
				"y": 0.6378763789,
				"z": 1.2794622639,
				"element": "H" 
			},
			{
				"x": 2.0994250547,
				"y": 0.5246505003,
				"z": -1.9415506388,
				"element": "H" 
			},
			{
				"x": 1.525707067,
				"y": -1.0765302321,
				"z": -1.4548810344,
				"element": "H" 
			},
			{
				"x": 0.6151309254,
				"y": -0.1167352219,
				"z": -2.6298705225,
				"element": "H" 
			},
			{
				"x": -0.6415317477,
				"y": 2.4362423814,
				"z": -0.1190370391,
				"element": "H" 
			},
			{
				"x": -0.7053802782,
				"y": 1.9912050635,
				"z": -1.8351331129,
				"element": "H" 
			},
			{
				"x": 0.775744729,
				"y": 2.6579392114,
				"z": -1.1622641144,
				"element": "H" 
			}
		],
		 "valence_orbital": [ 
			{
				"type": "occ",
				"energy": -0.35945,
				"method": "rhf"
			},
			{
				"type": "occ",
				"energy": -0.35192,
				"method": "rhf"
			},
			{
				"type": "occ",
				"energy": -0.33271,
				"method": "rhf"
			},
			{
				"type": "occ",
				"energy": -0.31526,
				"method": "rhf"
			},
			{
				"type": "occ",
				"energy": -0.22597,
				"method": "rhf"
			},
			{
				"type": "unocc",
				"energy": 0.03472,
				"method": "rhf"
			},
			{
				"type": "unocc",
				"energy": 0.09728,
				"method": "rhf"
			},
			{
				"type": "unocc",
				"energy": 0.11872,
				"method": "rhf"
			},
			{
				"type": "unocc",
				"energy": 0.12491,
				"method": "rhf"
			},
			{
				"type": "unocc",
				"energy": 0.14502,
				"method": "rhf"
			}
		],
		"cosmo_sigma_profile": { 
			"-0.025": 0.0,
			"-0.024": 0.0,
			"-0.023": 0.0,
			"-0.022": 0.0,
			"-0.021": 0.0,
			"-0.02": 0.0,
			"-0.019": 0.0,
			"-0.018": 0.0,
			"-0.017": 0.0,
			"-0.016": 0.0,
			"-0.015": 0.0,
			"-0.014": 0.0,
			"-0.013": 0.0,
			"-0.012": 0.0,
			"-0.011": 0.0,
			"-0.01": 0.0,
			"-0.009": 0.0,
			"-0.008": 0.0,
			"-0.007": 0.0,
			"-0.006": 0.0,
			"-0.005": 0.157880876648,
			"-0.004": 2.99750368053,
			"-0.003": 16.395897352,
			"-0.002": 25.3301356734,
			"-0.001": 24.1152527876,
			"0.0": 27.3025504334,
			"0.001": 28.782695835,
			"0.002": 12.4788133174,
			"0.003": 4.96469656362,
			"0.004": 4.40331282613,
			"0.005": 3.34206250195,
			"0.006": 2.19812875982,
			"0.007": 2.40185766129,
			"0.008": 0.330500190296,
			"0.009": 0.0,
			"0.01": 0.0,
			"0.011": 0.0,
			"0.012": 0.0,
			"0.013": 0.0,
			"0.014": 0.0,
			"0.015": 0.0,
			"0.016": 0.0,
			"0.017": 0.0,
			"0.018": 0.0,
			"0.019": 0.0,
			"0.02": 0.0,
			"0.021": 0.0,
			"0.022": 0.0,
			"0.023": 0.0,
			"0.024": 0.0,
			"0.025": 0.0
		}
	}
}
