{
	 "smiles": "O=C1C2=C(SC(C#N)=C(S2)C#N)C(=O)C2=CC=CC=C12", 
	 "Tm": 498.15, 
	 "num_atms": 24, 
	 "gaussian": { 
		 "optdone": 1, 
		 "sigma_profile": "yes", 
		 "theory": "DFT", 
		 "functional": "B3LYP", 
		 "basiset": "6-31G**", 
		 "properties": { 
			 "R2extent": 6710.9407, 
			 "electric_dipole_moment_norm": 8.17380440737, 
			 "electric_quadrupole_moment_norm": 20.1472662922, 
			 "total_energy": -1592.13707903, 
			 "HOMO_LUMO_gap": 0.10203, 
			 "cosmo_polarized_energy": -15.64, 
			 "cosmo_cavitation_energy": 35.12, 
			 "cosmo_dispersion_energy": -25.29, 
			 "cosmo_repulsion_energy": 1.8, 
			 "cosmo_total_nonelectrostatic_energy": 11.63, 
			 "SMD_solvation_energy": 8.8 
		},
		"coords": [
			{
				"x": 0.8777798937,
				"y": -3.0512022277,
				"z": 0.2186209454,
				"element": "O" 
			},
			{
				"x": 0.4342823716,
				"y": -1.9541996338,
				"z": 0.5287390119,
				"element": "C" 
			},
			{
				"x": 0.0808633142,
				"y": -0.9655396172,
				"z": -0.5390935639,
				"element": "C" 
			},
			{
				"x": -0.3233790199,
				"y": 0.2882089653,
				"z": -0.2406272977,
				"element": "C" 
			},
			{
				"x": -0.6874385932,
				"y": 1.560203122,
				"z": -1.4305474772,
				"element": "S" 
			},
			{
				"x": -1.3204093045,
				"y": 0.5743778069,
				"z": -2.7749652694,
				"element": "C" 
			},
			{
				"x": -2.3455824031,
				"y": 1.223134446,
				"z": -3.525628823,
				"element": "C" 
			},
			{
				"x": -3.1643545298,
				"y": 1.7938284497,
				"z": -4.1247711793,
				"element": "N" 
			},
			{
				"x": -0.9136389178,
				"y": -0.6869192294,
				"z": -3.0752554971,
				"element": "C" 
			},
			{
				"x": 0.3314685199,
				"y": -1.5996169784,
				"z": -2.1827443147,
				"element": "S" 
			},
			{
				"x": -1.4937824126,
				"y": -1.4177681801,
				"z": -4.1544505364,
				"element": "C" 
			},
			{
				"x": -1.9278030142,
				"y": -2.0396638295,
				"z": -5.0375820222,
				"element": "N" 
			},
			{
				"x": -0.441192104,
				"y": 0.7615480325,
				"z": 1.1752519509,
				"element": "C" 
			},
			{
				"x": -0.7275577592,
				"y": 1.9285524191,
				"z": 1.4041028262,
				"element": "O" 
			},
			{
				"x": -0.160918183,
				"y": -0.2226495049,
				"z": 2.2523858703,
				"element": "C" 
			},
			{
				"x": -0.3021595251,
				"y": 0.1659964733,
				"z": 3.5877388369,
				"element": "C" 
			},
			{
				"x": -0.0348932765,
				"y": -0.7470419936,
				"z": 4.6073507682,
				"element": "C" 
			},
			{
				"x": 0.3835974684,
				"y": -2.0454238248,
				"z": 4.2982571695,
				"element": "C" 
			},
			{
				"x": 0.5365277961,
				"y": -2.435970053,
				"z": 2.9683093572,
				"element": "C" 
			},
			{
				"x": 0.2600311901,
				"y": -1.5285777105,
				"z": 1.9414925222,
				"element": "C" 
			},
			{
				"x": -0.6208460168,
				"y": 1.1800902346,
				"z": 3.8034499925,
				"element": "H" 
			},
			{
				"x": -0.15056794,
				"y": -0.4467469796,
				"z": 5.6442105662,
				"element": "H" 
			},
			{
				"x": 0.5925424229,
				"y": -2.7522485035,
				"z": 5.0953624022,
				"element": "H" 
			},
			{
				"x": 0.8667300227,
				"y": -3.4349716836,
				"z": 2.7047937616,
				"element": "H" 
			}
		],
		 "valence_orbital": [ 
			{
				"type": "occ",
				"energy": -0.30718,
				"method": "rhf"
			},
			{
				"type": "occ",
				"energy": -0.2999,
				"method": "rhf"
			},
			{
				"type": "occ",
				"energy": -0.29555,
				"method": "rhf"
			},
			{
				"type": "occ",
				"energy": -0.29254,
				"method": "rhf"
			},
			{
				"type": "occ",
				"energy": -0.24925,
				"method": "rhf"
			},
			{
				"type": "unocc",
				"energy": -0.14722,
				"method": "rhf"
			},
			{
				"type": "unocc",
				"energy": -0.11148,
				"method": "rhf"
			},
			{
				"type": "unocc",
				"energy": -0.06955,
				"method": "rhf"
			},
			{
				"type": "unocc",
				"energy": -0.05418,
				"method": "rhf"
			},
			{
				"type": "unocc",
				"energy": -0.04454,
				"method": "rhf"
			}
		],
		"cosmo_sigma_profile": { 
			"-0.025": 0.0,
			"-0.024": 0.0,
			"-0.023": 0.0,
			"-0.022": 0.0,
			"-0.021": 0.0,
			"-0.02": 0.0,
			"-0.019": 0.0,
			"-0.018": 0.0,
			"-0.017": 0.0,
			"-0.016": 0.0,
			"-0.015": 0.0,
			"-0.014": 0.0,
			"-0.013": 0.0,
			"-0.012": 0.0,
			"-0.011": 0.0,
			"-0.01": 0.0133328333042,
			"-0.009": 0.580110528973,
			"-0.008": 6.33255859156,
			"-0.007": 19.2625438634,
			"-0.006": 23.5038314657,
			"-0.005": 17.4892566092,
			"-0.004": 18.0702162716,
			"-0.003": 16.0246915499,
			"-0.002": 21.0459279898,
			"-0.001": 23.3883743229,
			"0.0": 25.4696558487,
			"0.001": 23.8036352143,
			"0.002": 16.0367150367,
			"0.003": 8.72859247425,
			"0.004": 9.06276736986,
			"0.005": 9.84845087114,
			"0.006": 8.49295474967,
			"0.007": 11.3235216767,
			"0.008": 9.09739760476,
			"0.009": 12.3980880853,
			"0.01": 9.01945400377,
			"0.011": 2.76796236148,
			"0.012": 0.0692624401298,
			"0.013": 0.0,
			"0.014": 0.0,
			"0.015": 0.0,
			"0.016": 0.0,
			"0.017": 0.0,
			"0.018": 0.0,
			"0.019": 0.0,
			"0.02": 0.0,
			"0.021": 0.0,
			"0.022": 0.0,
			"0.023": 0.0,
			"0.024": 0.0,
			"0.025": 0.0
		}
	}
}
