{
	 "smiles": "COC1=CC=C2C=C(C=CC2=C1)C1=CC=NN1", 
	 "Tm": 474.15, 
	 "num_atms": 29, 
	 "gaussian": { 
		 "optdone": 1, 
		 "sigma_profile": "yes", 
		 "theory": "DFT", 
		 "functional": "B3LYP", 
		 "basiset": "6-31G**", 
		 "properties": { 
			 "R2extent": 6248.7688, 
			 "electric_dipole_moment_norm": 3.82822809273, 
			 "electric_quadrupole_moment_norm": 8.83165445089, 
			 "total_energy": -725.432755804, 
			 "HOMO_LUMO_gap": 0.15854, 
			 "cosmo_polarized_energy": -13.2, 
			 "cosmo_cavitation_energy": 33.18, 
			 "cosmo_dispersion_energy": -24.48, 
			 "cosmo_repulsion_energy": 1.85, 
			 "cosmo_total_nonelectrostatic_energy": 10.55, 
			 "SMD_solvation_energy": 5.15 
		},
		"coords": [
			{
				"x": -4.5265040664,
				"y": -2.0368191762,
				"z": -2.208938288,
				"element": "C" 
			},
			{
				"x": -4.5251667716,
				"y": -1.8575749192,
				"z": -0.8011678813,
				"element": "O" 
			},
			{
				"x": -3.354204868,
				"y": -1.5029367396,
				"z": -0.201245457,
				"element": "C" 
			},
			{
				"x": -3.4397475433,
				"y": -1.3419422275,
				"z": 1.2104035604,
				"element": "C" 
			},
			{
				"x": -2.3327637127,
				"y": -0.986651486,
				"z": 1.9361797839,
				"element": "C" 
			},
			{
				"x": -1.0749329558,
				"y": -0.7726276192,
				"z": 1.3030938717,
				"element": "C" 
			},
			{
				"x": 0.082932374,
				"y": -0.4008438353,
				"z": 2.0277825204,
				"element": "C" 
			},
			{
				"x": 1.3023902206,
				"y": -0.197616306,
				"z": 1.3979365505,
				"element": "C" 
			},
			{
				"x": 1.3711491316,
				"y": -0.3567572805,
				"z": -0.01599287,
				"element": "C" 
			},
			{
				"x": 0.2607204364,
				"y": -0.7075419727,
				"z": -0.7456563694,
				"element": "C" 
			},
			{
				"x": -0.9943472393,
				"y": -0.9310300608,
				"z": -0.1168534295,
				"element": "C" 
			},
			{
				"x": -2.15286715,
				"y": -1.3003277422,
				"z": -0.8528155178,
				"element": "C" 
			},
			{
				"x": 2.5056400623,
				"y": 0.1739628141,
				"z": 2.1463015967,
				"element": "C" 
			},
			{
				"x": 3.6401293792,
				"y": 0.8921650257,
				"z": 1.7837713828,
				"element": "C" 
			},
			{
				"x": 4.4397254795,
				"y": 0.9275642449,
				"z": 2.945283855,
				"element": "C" 
			},
			{
				"x": 3.8729552209,
				"y": 0.2803392731,
				"z": 3.963747595,
				"element": "N" 
			},
			{
				"x": 2.7004706323,
				"y": -0.1571123135,
				"z": 3.4580332119,
				"element": "N" 
			},
			{
				"x": -3.8412527402,
				"y": -2.8383298904,
				"z": -2.5134166517,
				"element": "H" 
			},
			{
				"x": -4.2513116495,
				"y": -1.1123646807,
				"z": -2.7327091738,
				"element": "H" 
			},
			{
				"x": -5.546970898,
				"y": -2.3134152395,
				"z": -2.4777372925,
				"element": "H" 
			},
			{
				"x": -4.4018975086,
				"y": -1.5085201376,
				"z": 1.6835518499,
				"element": "H" 
			},
			{
				"x": -2.4067000553,
				"y": -0.8647962504,
				"z": 3.0136975956,
				"element": "H" 
			},
			{
				"x": -0.0116194974,
				"y": -0.2455964905,
				"z": 3.1000912691,
				"element": "H" 
			},
			{
				"x": 2.3251418831,
				"y": -0.2146773849,
				"z": -0.5141543578,
				"element": "H" 
			},
			{
				"x": 0.335981063,
				"y": -0.8282137109,
				"z": -1.8233161801,
				"element": "H" 
			},
			{
				"x": -2.0671730475,
				"y": -1.4155545049,
				"z": -1.9272745938,
				"element": "H" 
			},
			{
				"x": 3.8363237489,
				"y": 1.3532312069,
				"z": 0.8274963911,
				"element": "H" 
			},
			{
				"x": 5.4031048873,
				"y": 1.4002288305,
				"z": 3.0834224214,
				"element": "H" 
			},
			{
				"x": 2.1158951846,
				"y": -0.7510414268,
				"z": 4.0251846072,
				"element": "H" 
			}
		],
		 "valence_orbital": [ 
			{
				"type": "occ",
				"energy": -0.28125,
				"method": "rhf"
			},
			{
				"type": "occ",
				"energy": -0.25262,
				"method": "rhf"
			},
			{
				"type": "occ",
				"energy": -0.24745,
				"method": "rhf"
			},
			{
				"type": "occ",
				"energy": -0.23152,
				"method": "rhf"
			},
			{
				"type": "occ",
				"energy": -0.20247,
				"method": "rhf"
			},
			{
				"type": "unocc",
				"energy": -0.04393,
				"method": "rhf"
			},
			{
				"type": "unocc",
				"energy": -0.02136,
				"method": "rhf"
			},
			{
				"type": "unocc",
				"energy": 0.02521,
				"method": "rhf"
			},
			{
				"type": "unocc",
				"energy": 0.04151,
				"method": "rhf"
			},
			{
				"type": "unocc",
				"energy": 0.0723,
				"method": "rhf"
			}
		],
		"cosmo_sigma_profile": { 
			"-0.025": 0.0,
			"-0.024": 0.0,
			"-0.023": 0.0,
			"-0.022": 0.0,
			"-0.021": 0.0,
			"-0.02": 0.0,
			"-0.019": 0.0,
			"-0.018": 0.0,
			"-0.017": 0.0,
			"-0.016": 0.4861476986,
			"-0.015": 1.25578494164,
			"-0.014": 1.10535738436,
			"-0.013": 1.40294316883,
			"-0.012": 0.689088753672,
			"-0.011": 1.12544339675,
			"-0.01": 1.53796181251,
			"-0.009": 1.40723825746,
			"-0.008": 1.20624908674,
			"-0.007": 4.7465806235,
			"-0.006": 20.4383186376,
			"-0.005": 21.9306974086,
			"-0.004": 22.5715361673,
			"-0.003": 19.0478887823,
			"-0.002": 13.9855674759,
			"-0.001": 12.5541751709,
			"0.0": 12.346814305,
			"0.001": 12.2011904855,
			"0.002": 16.4346066889,
			"0.003": 24.0630043305,
			"0.004": 34.0994366929,
			"0.005": 15.8666202938,
			"0.006": 6.26541759733,
			"0.007": 3.26931301991,
			"0.008": 3.21155337892,
			"0.009": 3.09737321758,
			"0.01": 2.17500821664,
			"0.011": 1.11199544594,
			"0.012": 1.67759036055,
			"0.013": 1.19795174556,
			"0.014": 1.14739402653,
			"0.015": 1.03403608522,
			"0.016": 1.059418571,
			"0.017": 0.0951641294935,
			"0.018": 0.0,
			"0.019": 0.0,
			"0.02": 0.0,
			"0.021": 0.0,
			"0.022": 0.0,
			"0.023": 0.0,
			"0.024": 0.0,
			"0.025": 0.0
		}
	}
}
