{
	 "smiles": "NCC1=CC(=CC=C1)S(=O)(=O)N1CCCCC1", 
	 "Tm": 341.15, 
	 "num_atms": 35, 
	 "gaussian": { 
		 "optdone": 1, 
		 "sigma_profile": "yes", 
		 "theory": "DFT", 
		 "functional": "B3LYP", 
		 "basiset": "6-31G**", 
		 "properties": { 
			 "R2extent": 5609.3885, 
			 "electric_dipole_moment_norm": 4.49040904707, 
			 "electric_quadrupole_moment_norm": 20.1393893055, 
			 "total_energy": -1126.20047418, 
			 "HOMO_LUMO_gap": 0.20215, 
			 "cosmo_polarized_energy": -16.52, 
			 "cosmo_cavitation_energy": 37.53, 
			 "cosmo_dispersion_energy": -26.4, 
			 "cosmo_repulsion_energy": 2.05, 
			 "cosmo_total_nonelectrostatic_energy": 13.18, 
			 "SMD_solvation_energy": 2.59 
		},
		"coords": [
			{
				"x": 1.245238407,
				"y": 3.9811816992,
				"z": 0.5505836254,
				"element": "N" 
			},
			{
				"x": 0.8928951249,
				"y": 3.3543125103,
				"z": 1.8335627661,
				"element": "C" 
			},
			{
				"x": 0.777450049,
				"y": 1.8383954106,
				"z": 1.8095994598,
				"element": "C" 
			},
			{
				"x": -0.4398747541,
				"y": 1.2204712027,
				"z": 1.5065992939,
				"element": "C" 
			},
			{
				"x": -0.5148756102,
				"y": -0.1718931798,
				"z": 1.4313734386,
				"element": "C" 
			},
			{
				"x": 0.5976662972,
				"y": -0.9783155493,
				"z": 1.6681507117,
				"element": "C" 
			},
			{
				"x": 1.8136025933,
				"y": -0.3638661604,
				"z": 1.976443231,
				"element": "C" 
			},
			{
				"x": 1.8986117378,
				"y": 1.0261302293,
				"z": 2.0444173697,
				"element": "C" 
			},
			{
				"x": -2.1030886597,
				"y": -0.9438543052,
				"z": 1.0963789451,
				"element": "S" 
			},
			{
				"x": -3.1352787648,
				"y": -0.2616309752,
				"z": 1.8847469894,
				"element": "O" 
			},
			{
				"x": -1.9194443382,
				"y": -2.3987992792,
				"z": 1.2127947091,
				"element": "O" 
			},
			{
				"x": -2.3628005218,
				"y": -0.4823811448,
				"z": -0.5227773253,
				"element": "N" 
			},
			{
				"x": -1.5455887834,
				"y": -1.2315810253,
				"z": -1.4992599914,
				"element": "C" 
			},
			{
				"x": -1.6097507378,
				"y": -0.5309367743,
				"z": -2.860607965,
				"element": "C" 
			},
			{
				"x": -3.0606160169,
				"y": -0.3635778664,
				"z": -3.331732342,
				"element": "C" 
			},
			{
				"x": -3.8971211027,
				"y": 0.3374629797,
				"z": -2.2526785432,
				"element": "C" 
			},
			{
				"x": -3.7896099179,
				"y": -0.388597532,
				"z": -0.9086057649,
				"element": "C" 
			},
			{
				"x": 2.1267554582,
				"y": 3.5975335379,
				"z": 0.2153217463,
				"element": "H" 
			},
			{
				"x": 0.5503415899,
				"y": 3.731682178,
				"z": -0.1504673698,
				"element": "H" 
			},
			{
				"x": -0.0561459475,
				"y": 3.7884846466,
				"z": 2.1666136062,
				"element": "H" 
			},
			{
				"x": 1.6495991063,
				"y": 3.6519024312,
				"z": 2.5681322994,
				"element": "H" 
			},
			{
				"x": -1.3331006333,
				"y": 1.8157670487,
				"z": 1.3410821448,
				"element": "H" 
			},
			{
				"x": 0.4971846112,
				"y": -2.0569905382,
				"z": 1.624673325,
				"element": "H" 
			},
			{
				"x": 2.6908011107,
				"y": -0.9730147133,
				"z": 2.1733477032,
				"element": "H" 
			},
			{
				"x": 2.8483890957,
				"y": 1.4935393397,
				"z": 2.2950824142,
				"element": "H" 
			},
			{
				"x": -0.5134427703,
				"y": -1.2624268541,
				"z": -1.1386970305,
				"element": "H" 
			},
			{
				"x": -1.8980397714,
				"y": -2.2709453361,
				"z": -1.583093426,
				"element": "H" 
			},
			{
				"x": -1.1323225277,
				"y": 0.4530190991,
				"z": -2.7743227056,
				"element": "H" 
			},
			{
				"x": -1.0291013074,
				"y": -1.1123883631,
				"z": -3.5859899572,
				"element": "H" 
			},
			{
				"x": -3.0956261682,
				"y": 0.1982248141,
				"z": -4.2718162399,
				"element": "H" 
			},
			{
				"x": -3.4914298105,
				"y": -1.353095206,
				"z": -3.5389158614,
				"element": "H" 
			},
			{
				"x": -4.9521880168,
				"y": 0.3820752101,
				"z": -2.546315822,
				"element": "H" 
			},
			{
				"x": -3.5503774796,
				"y": 1.3704412394,
				"z": -2.1253798087,
				"element": "H" 
			},
			{
				"x": -4.2377569613,
				"y": -1.3925627603,
				"z": -0.9889617929,
				"element": "H" 
			},
			{
				"x": -4.3169545798,
				"y": 0.1530339863,
				"z": -0.1227818333,
				"element": "H" 
			}
		],
		 "valence_orbital": [ 
			{
				"type": "occ",
				"energy": -0.29355,
				"method": "rhf"
			},
			{
				"type": "occ",
				"energy": -0.27619,
				"method": "rhf"
			},
			{
				"type": "occ",
				"energy": -0.27131,
				"method": "rhf"
			},
			{
				"type": "occ",
				"energy": -0.24709,
				"method": "rhf"
			},
			{
				"type": "occ",
				"energy": -0.24124,
				"method": "rhf"
			},
			{
				"type": "unocc",
				"energy": -0.03909,
				"method": "rhf"
			},
			{
				"type": "unocc",
				"energy": -0.02179,
				"method": "rhf"
			},
			{
				"type": "unocc",
				"energy": 0.0598,
				"method": "rhf"
			},
			{
				"type": "unocc",
				"energy": 0.07734,
				"method": "rhf"
			},
			{
				"type": "unocc",
				"energy": 0.08544,
				"method": "rhf"
			}
		],
		"cosmo_sigma_profile": { 
			"-0.025": 0.0,
			"-0.024": 0.0,
			"-0.023": 0.0,
			"-0.022": 0.0,
			"-0.021": 0.0,
			"-0.02": 0.0,
			"-0.019": 0.0,
			"-0.018": 0.0,
			"-0.017": 0.0,
			"-0.016": 0.0,
			"-0.015": 0.0,
			"-0.014": 0.0,
			"-0.013": 0.0,
			"-0.012": 0.0,
			"-0.011": 0.0,
			"-0.01": 0.520437488386,
			"-0.009": 2.67364986843,
			"-0.008": 3.36401835227,
			"-0.007": 8.08624213771,
			"-0.006": 13.148171293,
			"-0.005": 14.8136559875,
			"-0.004": 24.0357225288,
			"-0.003": 38.0344226862,
			"-0.002": 36.7605848652,
			"-0.001": 29.5734495441,
			"0.0": 23.7256392784,
			"0.001": 13.688866956,
			"0.002": 14.1407561373,
			"0.003": 16.7957740302,
			"0.004": 7.04027506477,
			"0.005": 4.74941327448,
			"0.006": 3.42829817532,
			"0.007": 4.54230716831,
			"0.008": 3.85036232389,
			"0.009": 4.53549194706,
			"0.01": 6.40132028029,
			"0.011": 8.69224700565,
			"0.012": 6.34844393743,
			"0.013": 0.824546926092,
			"0.014": 0.526929763531,
			"0.015": 0.519539634369,
			"0.016": 0.695085407738,
			"0.017": 0.747367864753,
			"0.018": 0.645328728511,
			"0.019": 0.663863503527,
			"0.02": 0.131355267756,
			"0.021": 0.0,
			"0.022": 0.0,
			"0.023": 0.0,
			"0.024": 0.0,
			"0.025": 0.0
		}
	}
}
