{
	 "smiles": "OC1=C2N=CC=CC2=C(C=C1)[N+]([O-])=O", 
	 "Tm": 453.15, 
	 "num_atms": 20, 
	 "gaussian": { 
		 "optdone": 1, 
		 "sigma_profile": "yes", 
		 "theory": "DFT", 
		 "functional": "B3LYP", 
		 "basiset": "6-31G**", 
		 "properties": { 
			 "R2extent": 2608.0513, 
			 "electric_dipole_moment_norm": 3.9330100394, 
			 "electric_quadrupole_moment_norm": 15.347515469, 
			 "total_energy": -681.656404538, 
			 "HOMO_LUMO_gap": 0.14548, 
			 "cosmo_polarized_energy": -9.63, 
			 "cosmo_cavitation_energy": 24.71, 
			 "cosmo_dispersion_energy": -18.96, 
			 "cosmo_repulsion_energy": 1.45, 
			 "cosmo_total_nonelectrostatic_energy": 7.19, 
			 "SMD_solvation_energy": 5.82 
		},
		"coords": [
			{
				"x": 2.0038326457,
				"y": 1.2023029747,
				"z": 2.5110760984,
				"element": "O" 
			},
			{
				"x": 1.4954984326,
				"y": 1.1362548057,
				"z": 1.2771626441,
				"element": "C" 
			},
			{
				"x": 0.3950341629,
				"y": 0.2422034433,
				"z": 1.0459018573,
				"element": "C" 
			},
			{
				"x": -0.004130692,
				"y": -0.4465248342,
				"z": 2.1453229722,
				"element": "N" 
			},
			{
				"x": -1.009984746,
				"y": -1.2912967927,
				"z": 2.0233585237,
				"element": "C" 
			},
			{
				"x": -1.6773168994,
				"y": -1.4993161954,
				"z": 0.7976809172,
				"element": "C" 
			},
			{
				"x": -1.2831682214,
				"y": -0.8070165245,
				"z": -0.3276012358,
				"element": "C" 
			},
			{
				"x": -0.2023924742,
				"y": 0.1154930505,
				"z": -0.2442562522,
				"element": "C" 
			},
			{
				"x": 0.3556363567,
				"y": 0.9262047853,
				"z": -1.2881756486,
				"element": "C" 
			},
			{
				"x": 1.4187560062,
				"y": 1.78000292,
				"z": -1.0331565728,
				"element": "C" 
			},
			{
				"x": 1.9976027502,
				"y": 1.8969270929,
				"z": 0.2365260211,
				"element": "C" 
			},
			{
				"x": -0.144457707,
				"y": 0.9106468412,
				"z": -2.6615396241,
				"element": "N" 
			},
			{
				"x": -1.0928445723,
				"y": 0.1695052587,
				"z": -2.9430165599,
				"element": "O" 
			},
			{
				"x": 0.4063283364,
				"y": 1.6439366564,
				"z": -3.48592872,
				"element": "O" 
			},
			{
				"x": 1.4687969671,
				"y": 0.5703192658,
				"z": 3.0396623487,
				"element": "H" 
			},
			{
				"x": -1.3112280109,
				"y": -1.8312228359,
				"z": 2.918600603,
				"element": "H" 
			},
			{
				"x": -2.4999180774,
				"y": -2.2052065039,
				"z": 0.7465127011,
				"element": "H" 
			},
			{
				"x": -1.7817828457,
				"y": -0.9530728635,
				"z": -1.2736148756,
				"element": "H" 
			},
			{
				"x": 1.799138955,
				"y": 2.3677189414,
				"z": -1.8588997399,
				"element": "H" 
			},
			{
				"x": 2.8276996335,
				"y": 2.5713405143,
				"z": 0.4110845421,
				"element": "H" 
			}
		],
		 "valence_orbital": [ 
			{
				"type": "occ",
				"energy": -0.30324,
				"method": "rhf"
			},
			{
				"type": "occ",
				"energy": -0.29199,
				"method": "rhf"
			},
			{
				"type": "occ",
				"energy": -0.28388,
				"method": "rhf"
			},
			{
				"type": "occ",
				"energy": -0.2805,
				"method": "rhf"
			},
			{
				"type": "occ",
				"energy": -0.24127,
				"method": "rhf"
			},
			{
				"type": "unocc",
				"energy": -0.09579,
				"method": "rhf"
			},
			{
				"type": "unocc",
				"energy": -0.05494,
				"method": "rhf"
			},
			{
				"type": "unocc",
				"energy": -0.04114,
				"method": "rhf"
			},
			{
				"type": "unocc",
				"energy": 0.02302,
				"method": "rhf"
			},
			{
				"type": "unocc",
				"energy": 0.07107,
				"method": "rhf"
			}
		],
		"cosmo_sigma_profile": { 
			"-0.025": 0.0,
			"-0.024": 0.0,
			"-0.023": 0.0,
			"-0.022": 0.0,
			"-0.021": 0.0,
			"-0.02": 0.0,
			"-0.019": 0.0,
			"-0.018": 0.0,
			"-0.017": 0.0,
			"-0.016": 0.0,
			"-0.015": 0.0,
			"-0.014": 0.0,
			"-0.013": 0.253539204263,
			"-0.012": 0.301211146561,
			"-0.011": 1.03970764712,
			"-0.01": 0.743646949763,
			"-0.009": 0.236851664432,
			"-0.008": 5.21204407066,
			"-0.007": 10.2214267955,
			"-0.006": 9.45365947179,
			"-0.005": 10.1646818024,
			"-0.004": 10.3664848119,
			"-0.003": 9.86675969782,
			"-0.002": 15.9270868363,
			"-0.001": 24.4068722464,
			"0.0": 25.3109522512,
			"0.001": 18.3833004202,
			"0.002": 7.82721736031,
			"0.003": 4.55909369627,
			"0.004": 6.19696963812,
			"0.005": 6.03573039426,
			"0.006": 5.74083793981,
			"0.007": 5.45764182748,
			"0.008": 8.2121056408,
			"0.009": 6.65884464806,
			"0.01": 5.40188462822,
			"0.011": 1.83377180649,
			"0.012": 0.0,
			"0.013": 0.0,
			"0.014": 0.0,
			"0.015": 0.0,
			"0.016": 0.0,
			"0.017": 0.0,
			"0.018": 0.0,
			"0.019": 0.0,
			"0.02": 0.0,
			"0.021": 0.0,
			"0.022": 0.0,
			"0.023": 0.0,
			"0.024": 0.0,
			"0.025": 0.0
		}
	}
}
