{
	 "smiles": "NC1=NC=C(C=C1Br)[N+]([O-])=O", 
	 "Tm": 489.15, 
	 "num_atms": 15, 
	 "gaussian": { 
		 "optdone": 1, 
		 "sigma_profile": "yes", 
		 "theory": "DFT", 
		 "functional": "B3LYP", 
		 "basiset": "6-31G**", 
		 "properties": { 
			 "R2extent": 3850.3463, 
			 "electric_dipole_moment_norm": 3.51787581503, 
			 "electric_quadrupole_moment_norm": 13.3514585405, 
			 "total_energy": -3078.92788547, 
			 "HOMO_LUMO_gap": 0.17204, 
			 "cosmo_polarized_energy": -13.25, 
			 "cosmo_cavitation_energy": 22.93, 
			 "cosmo_dispersion_energy": -17.36, 
			 "cosmo_repulsion_energy": 1.39, 
			 "cosmo_total_nonelectrostatic_energy": 6.96, 
			 "SMD_solvation_energy": 3.64 
		},
		"coords": [
			{
				"x": -1.2831639484,
				"y": -1.4190445436,
				"z": -1.8378831594,
				"element": "N" 
			},
			{
				"x": -0.6727471279,
				"y": -1.5987337998,
				"z": -0.5653101593,
				"element": "C" 
			},
			{
				"x": 0.4003621608,
				"y": -2.3979088068,
				"z": -0.5338550919,
				"element": "N" 
			},
			{
				"x": 1.0305125205,
				"y": -2.6182878379,
				"z": 0.6208401067,
				"element": "C" 
			},
			{
				"x": 0.6055498591,
				"y": -2.0376782028,
				"z": 1.8137140045,
				"element": "C" 
			},
			{
				"x": -0.5049058846,
				"y": -1.2000999625,
				"z": 1.8291780079,
				"element": "C" 
			},
			{
				"x": -1.1457019145,
				"y": -0.9842316242,
				"z": 0.617878609,
				"element": "C" 
			},
			{
				"x": -2.6750589351,
				"y": 0.1534205577,
				"z": 0.5678909586,
				"element": "Br" 
			},
			{
				"x": 1.3266562247,
				"y": -2.3052991224,
				"z": 3.0646985747,
				"element": "N" 
			},
			{
				"x": 0.9062022539,
				"y": -1.7653090549,
				"z": 4.0864755927,
				"element": "O" 
			},
			{
				"x": 2.3016358482,
				"y": -3.0511144808,
				"z": 3.0044771275,
				"element": "O" 
			},
			{
				"x": -2.2594733077,
				"y": -1.7069262319,
				"z": -1.7976903231,
				"element": "H" 
			},
			{
				"x": -1.2997876811,
				"y": -0.4291243324,
				"z": -2.0775804629,
				"element": "H" 
			},
			{
				"x": 1.8967512569,
				"y": -3.2716946106,
				"z": 0.6086083519,
				"element": "H" 
			},
			{
				"x": -0.8381313248,
				"y": -0.747067947,
				"z": 2.7540578632,
				"element": "H" 
			}
		],
		 "valence_orbital": [ 
			{
				"type": "occ",
				"energy": -0.31946,
				"method": "rhf"
			},
			{
				"type": "occ",
				"energy": -0.30839,
				"method": "rhf"
			},
			{
				"type": "occ",
				"energy": -0.28637,
				"method": "rhf"
			},
			{
				"type": "occ",
				"energy": -0.28126,
				"method": "rhf"
			},
			{
				"type": "occ",
				"energy": -0.27965,
				"method": "rhf"
			},
			{
				"type": "unocc",
				"energy": -0.10761,
				"method": "rhf"
			},
			{
				"type": "unocc",
				"energy": -0.06129,
				"method": "rhf"
			},
			{
				"type": "unocc",
				"energy": -0.02399,
				"method": "rhf"
			},
			{
				"type": "unocc",
				"energy": -0.02272,
				"method": "rhf"
			},
			{
				"type": "unocc",
				"energy": 0.07398,
				"method": "rhf"
			}
		],
		"cosmo_sigma_profile": { 
			"-0.025": 0.0,
			"-0.024": 0.0,
			"-0.023": 0.0,
			"-0.022": 0.0,
			"-0.021": 0.0,
			"-0.02": 0.0,
			"-0.019": 0.0,
			"-0.018": 0.0,
			"-0.017": 0.0,
			"-0.016": 0.0,
			"-0.015": 0.0,
			"-0.014": 0.0,
			"-0.013": 0.319901697475,
			"-0.012": 2.14161585391,
			"-0.011": 2.56415532077,
			"-0.01": 3.10654038173,
			"-0.009": 4.58172271079,
			"-0.008": 6.55827524931,
			"-0.007": 6.32147978833,
			"-0.006": 7.37207371698,
			"-0.005": 10.2780066407,
			"-0.004": 14.860208981,
			"-0.003": 17.2922585992,
			"-0.002": 13.0527187871,
			"-0.001": 9.0132162366,
			"0.0": 10.7182748591,
			"0.001": 9.39284690435,
			"0.002": 9.70217090519,
			"0.003": 11.0590789749,
			"0.004": 4.8736021753,
			"0.005": 4.59960266756,
			"0.006": 6.95539018035,
			"0.007": 10.1838807975,
			"0.008": 6.81545833221,
			"0.009": 4.63148270672,
			"0.01": 1.34858973699,
			"0.011": 1.63656019086,
			"0.012": 1.08569549618,
			"0.013": 0.806923452752,
			"0.014": 1.6285118627,
			"0.015": 1.2918477864,
			"0.016": 1.40859398381,
			"0.017": 1.16380101227,
			"0.018": 0.681374705182,
			"0.019": 0.0586652327458,
			"0.02": 0.0,
			"0.021": 0.0,
			"0.022": 0.0,
			"0.023": 0.0,
			"0.024": 0.0,
			"0.025": 0.0
		}
	}
}
