{
	 "smiles": "NCC(=O)NC1=C2C=CC=NC2=CC=C1", 
	 "Tm": 402.15, 
	 "num_atms": 26, 
	 "gaussian": { 
		 "optdone": 1, 
		 "sigma_profile": "yes", 
		 "theory": "DFT", 
		 "functional": "B3LYP", 
		 "basiset": "6-31G**", 
		 "properties": { 
			 "R2extent": 4026.4238, 
			 "electric_dipole_moment_norm": 1.85018468538, 
			 "electric_quadrupole_moment_norm": 16.877271078, 
			 "total_energy": -665.290333642, 
			 "HOMO_LUMO_gap": 0.16413, 
			 "cosmo_polarized_energy": -16.31, 
			 "cosmo_cavitation_energy": 30.1, 
			 "cosmo_dispersion_energy": -21.73, 
			 "cosmo_repulsion_energy": 1.7, 
			 "cosmo_total_nonelectrostatic_energy": 10.06, 
			 "SMD_solvation_energy": 2.88 
		},
		"coords": [
			{
				"x": 2.2662483928,
				"y": 1.8623634397,
				"z": -2.5285353511,
				"element": "N" 
			},
			{
				"x": 1.1273650563,
				"y": 1.6059552616,
				"z": -1.6603837374,
				"element": "C" 
			},
			{
				"x": 1.0370231882,
				"y": 2.5712792689,
				"z": -0.467194145,
				"element": "C" 
			},
			{
				"x": 1.6529525514,
				"y": 3.6288484013,
				"z": -0.4586040728,
				"element": "O" 
			},
			{
				"x": 0.2485072019,
				"y": 2.2208786074,
				"z": 0.6118817382,
				"element": "N" 
			},
			{
				"x": -0.53568484,
				"y": 1.0554628877,
				"z": 0.8208452917,
				"element": "C" 
			},
			{
				"x": -0.3059767958,
				"y": 0.2651728739,
				"z": 1.9927959168,
				"element": "C" 
			},
			{
				"x": 0.7150349718,
				"y": 0.5388763487,
				"z": 2.9384784077,
				"element": "C" 
			},
			{
				"x": 0.8449096089,
				"y": -0.2697298289,
				"z": 4.0433043471,
				"element": "C" 
			},
			{
				"x": -0.0468723534,
				"y": -1.3593279088,
				"z": 4.200235753,
				"element": "C" 
			},
			{
				"x": -0.9960600563,
				"y": -1.6659372261,
				"z": 3.3394178258,
				"element": "N" 
			},
			{
				"x": -1.1374945258,
				"y": -0.876632077,
				"z": 2.2343804204,
				"element": "C" 
			},
			{
				"x": -2.1413648877,
				"y": -1.222927424,
				"z": 1.2915786788,
				"element": "C" 
			},
			{
				"x": -2.3242735905,
				"y": -0.4565941854,
				"z": 0.1643777262,
				"element": "C" 
			},
			{
				"x": -1.5364274753,
				"y": 0.6965057488,
				"z": -0.0613702904,
				"element": "C" 
			},
			{
				"x": 2.3099926486,
				"y": 2.8671510871,
				"z": -2.6918749756,
				"element": "H" 
			},
			{
				"x": 3.1217669449,
				"y": 1.6505662809,
				"z": -2.0189317266,
				"element": "H" 
			},
			{
				"x": 0.2057059544,
				"y": 1.7057054778,
				"z": -2.2481233995,
				"element": "H" 
			},
			{
				"x": 1.1488982588,
				"y": 0.5687221491,
				"z": -1.3108178868,
				"element": "H" 
			},
			{
				"x": 0.3024504369,
				"y": 2.8970812518,
				"z": 1.3651615545,
				"element": "H" 
			},
			{
				"x": 1.3938966268,
				"y": 1.3702999402,
				"z": 2.7770177614,
				"element": "H" 
			},
			{
				"x": 1.6175320244,
				"y": -0.0906333079,
				"z": 4.7841521141,
				"element": "H" 
			},
			{
				"x": 0.0401688812,
				"y": -2.0040006038,
				"z": 5.0742236361,
				"element": "H" 
			},
			{
				"x": -2.7459596682,
				"y": -2.0992672018,
				"z": 1.4985179092,
				"element": "H" 
			},
			{
				"x": -3.0959364041,
				"y": -0.7159810198,
				"z": -0.5540087744,
				"element": "H" 
			},
			{
				"x": -1.7327021501,
				"y": 1.3216617587,
				"z": -0.9258247215,
				"element": "H" 
			}
		],
		 "valence_orbital": [ 
			{
				"type": "occ",
				"energy": -0.26847,
				"method": "rhf"
			},
			{
				"type": "occ",
				"energy": -0.26403,
				"method": "rhf"
			},
			{
				"type": "occ",
				"energy": -0.26083,
				"method": "rhf"
			},
			{
				"type": "occ",
				"energy": -0.24334,
				"method": "rhf"
			},
			{
				"type": "occ",
				"energy": -0.23043,
				"method": "rhf"
			},
			{
				"type": "unocc",
				"energy": -0.0663,
				"method": "rhf"
			},
			{
				"type": "unocc",
				"energy": -0.02892,
				"method": "rhf"
			},
			{
				"type": "unocc",
				"energy": 0.00125,
				"method": "rhf"
			},
			{
				"type": "unocc",
				"energy": 0.02698,
				"method": "rhf"
			},
			{
				"type": "unocc",
				"energy": 0.07317,
				"method": "rhf"
			}
		],
		"cosmo_sigma_profile": { 
			"-0.025": 0.0,
			"-0.024": 0.0,
			"-0.023": 0.0,
			"-0.022": 0.0,
			"-0.021": 0.0,
			"-0.02": 0.0,
			"-0.019": 0.0,
			"-0.018": 0.0,
			"-0.017": 0.0,
			"-0.016": 0.0,
			"-0.015": 0.0,
			"-0.014": 0.737877241447,
			"-0.013": 1.14154106351,
			"-0.012": 1.41224712178,
			"-0.011": 1.58911851256,
			"-0.01": 1.89006924091,
			"-0.009": 2.78170434648,
			"-0.008": 5.29011994166,
			"-0.007": 11.3908828488,
			"-0.006": 17.8882620716,
			"-0.005": 19.9533551458,
			"-0.004": 16.53044374,
			"-0.003": 12.7313869953,
			"-0.002": 14.370585573,
			"-0.001": 12.7365014658,
			"0.0": 12.9456837674,
			"0.001": 20.4367680231,
			"0.002": 21.80365652,
			"0.003": 15.2883861036,
			"0.004": 7.43459436066,
			"0.005": 3.16866007752,
			"0.006": 3.84959028114,
			"0.007": 4.12229886755,
			"0.008": 3.27645620844,
			"0.009": 2.48081138158,
			"0.01": 2.29184610877,
			"0.011": 3.52340383191,
			"0.012": 4.21014698068,
			"0.013": 6.16454088623,
			"0.014": 3.798910262,
			"0.015": 1.53878163336,
			"0.016": 0.974081308438,
			"0.017": 0.566721608158,
			"0.018": 0.861871882219,
			"0.019": 0.533443217854,
			"0.02": 0.0214584326458,
			"0.021": 0.0,
			"0.022": 0.0,
			"0.023": 0.0,
			"0.024": 0.0,
			"0.025": 0.0
		}
	}
}
