{
	 "smiles": "NC1=NC=NC2=C1N=CN2CCCNC(=O)C1=CC(=CC(=C1)[N+]([O-])=O)[N+]([O-])=O", 
	 "Tm": 507.15, 
	 "num_atms": 42, 
	 "gaussian": { 
		 "optdone": 1, 
		 "sigma_profile": "yes", 
		 "theory": "DFT", 
		 "functional": "B3LYP", 
		 "basiset": "6-31G**", 
		 "properties": { 
			 "R2extent": 13758.6096, 
			 "electric_dipole_moment_norm": 7.93938030705, 
			 "electric_quadrupole_moment_norm": 22.2987848972, 
			 "total_energy": -1394.01448316, 
			 "HOMO_LUMO_gap": 0.12558, 
			 "cosmo_polarized_energy": -25.88, 
			 "cosmo_cavitation_energy": 48.3, 
			 "cosmo_dispersion_energy": -33.02, 
			 "cosmo_repulsion_energy": 2.41, 
			 "cosmo_total_nonelectrostatic_energy": 17.69, 
			 "SMD_solvation_energy": 9.21 
		},
		"coords": [
			{
				"x": -3.5897945644,
				"y": 3.7009587302,
				"z": -2.6666395704,
				"element": "N" 
			},
			{
				"x": -2.8897262497,
				"y": 2.9196127251,
				"z": -1.8171961605,
				"element": "C" 
			},
			{
				"x": -3.0392755394,
				"y": 1.5823120612,
				"z": -1.8922842565,
				"element": "N" 
			},
			{
				"x": -2.3261854687,
				"y": 0.8113936259,
				"z": -1.0645411792,
				"element": "C" 
			},
			{
				"x": -1.4447547826,
				"y": 1.1881750126,
				"z": -0.1245582569,
				"element": "N" 
			},
			{
				"x": -1.3294017055,
				"y": 2.5279439706,
				"z": -0.0550488426,
				"element": "C" 
			},
			{
				"x": -2.0010214397,
				"y": 3.4539785686,
				"z": -0.8590745391,
				"element": "C" 
			},
			{
				"x": -1.6586102969,
				"y": 4.7504586382,
				"z": -0.5246564821,
				"element": "N" 
			},
			{
				"x": -0.804336387,
				"y": 4.6028540775,
				"z": 0.4590827215,
				"element": "C" 
			},
			{
				"x": -0.5530217325,
				"y": 3.2848731082,
				"z": 0.7993958432,
				"element": "N" 
			},
			{
				"x": 0.2915629602,
				"y": 2.8000384211,
				"z": 1.8935058197,
				"element": "C" 
			},
			{
				"x": 1.7616240324,
				"y": 2.5691224222,
				"z": 1.5163753323,
				"element": "C" 
			},
			{
				"x": 1.978660278,
				"y": 1.5479311509,
				"z": 0.3865637351,
				"element": "C" 
			},
			{
				"x": 1.2927507313,
				"y": 0.2848422454,
				"z": 0.6143462975,
				"element": "N" 
			},
			{
				"x": 1.90556324,
				"y": -0.7620862545,
				"z": 1.2222523736,
				"element": "C" 
			},
			{
				"x": 3.0771231926,
				"y": -0.7406800337,
				"z": 1.5954097524,
				"element": "O" 
			},
			{
				"x": 1.0712881496,
				"y": -2.0126086698,
				"z": 1.4083215564,
				"element": "C" 
			},
			{
				"x": 1.7538364019,
				"y": -3.1593496908,
				"z": 1.8308324186,
				"element": "C" 
			},
			{
				"x": 1.0504724176,
				"y": -4.344667311,
				"z": 2.0139947123,
				"element": "C" 
			},
			{
				"x": -0.3199637531,
				"y": -4.4415535386,
				"z": 1.7977767587,
				"element": "C" 
			},
			{
				"x": -0.9724280358,
				"y": -3.2857144558,
				"z": 1.3865162674,
				"element": "C" 
			},
			{
				"x": -0.3100065076,
				"y": -2.0744501471,
				"z": 1.1937192361,
				"element": "C" 
			},
			{
				"x": -2.4265932725,
				"y": -3.3470213778,
				"z": 1.1404578667,
				"element": "N" 
			},
			{
				"x": -2.9732319024,
				"y": -2.3295797622,
				"z": 0.7157993756,
				"element": "O" 
			},
			{
				"x": -2.9960765183,
				"y": -4.4096275451,
				"z": 1.3721556216,
				"element": "O" 
			},
			{
				"x": 1.7792884072,
				"y": -5.5522549215,
				"z": 2.455292703,
				"element": "N" 
			},
			{
				"x": 1.1244434008,
				"y": -6.5812608307,
				"z": 2.6059451692,
				"element": "O" 
			},
			{
				"x": 2.9880164878,
				"y": -5.4456374422,
				"z": 2.6414771293,
				"element": "O" 
			},
			{
				"x": -4.2660640659,
				"y": 3.2696702028,
				"z": -3.2761031997,
				"element": "H" 
			},
			{
				"x": -3.5536240864,
				"y": 4.7028953019,
				"z": -2.5738650436,
				"element": "H" 
			},
			{
				"x": -2.4864401004,
				"y": -0.2598758606,
				"z": -1.1604920989,
				"element": "H" 
			},
			{
				"x": -0.3229216426,
				"y": 5.4127155685,
				"z": 0.9925143476,
				"element": "H" 
			},
			{
				"x": 0.2244778624,
				"y": 3.5261842832,
				"z": 2.7088505533,
				"element": "H" 
			},
			{
				"x": -0.1562710567,
				"y": 1.8685604297,
				"z": 2.2488726385,
				"element": "H" 
			},
			{
				"x": 2.2273492806,
				"y": 3.5192365651,
				"z": 1.2271461752,
				"element": "H" 
			},
			{
				"x": 2.2780833063,
				"y": 2.2179373047,
				"z": 2.4171074739,
				"element": "H" 
			},
			{
				"x": 3.0461406001,
				"y": 1.3394588442,
				"z": 0.2887405188,
				"element": "H" 
			},
			{
				"x": 1.6219399563,
				"y": 1.9552025602,
				"z": -0.5649987997,
				"element": "H" 
			},
			{
				"x": 0.3104165612,
				"y": 0.2586818819,
				"z": 0.3444863734,
				"element": "H" 
			},
			{
				"x": 2.820323231,
				"y": -3.1069931616,
				"z": 2.01107011,
				"element": "H" 
			},
			{
				"x": -0.8519020782,
				"y": -5.3714539909,
				"z": 1.943825173,
				"element": "H" 
			},
			{
				"x": -0.8964093108,
				"y": -1.2115227063,
				"z": 0.8980243753,
				"element": "H" 
			}
		],
		 "valence_orbital": [ 
			{
				"type": "occ",
				"energy": -0.27854,
				"method": "rhf"
			},
			{
				"type": "occ",
				"energy": -0.27365,
				"method": "rhf"
			},
			{
				"type": "occ",
				"energy": -0.26706,
				"method": "rhf"
			},
			{
				"type": "occ",
				"energy": -0.26448,
				"method": "rhf"
			},
			{
				"type": "occ",
				"energy": -0.23567,
				"method": "rhf"
			},
			{
				"type": "unocc",
				"energy": -0.11009,
				"method": "rhf"
			},
			{
				"type": "unocc",
				"energy": -0.10163,
				"method": "rhf"
			},
			{
				"type": "unocc",
				"energy": -0.05727,
				"method": "rhf"
			},
			{
				"type": "unocc",
				"energy": -0.03759,
				"method": "rhf"
			},
			{
				"type": "unocc",
				"energy": -0.00954,
				"method": "rhf"
			}
		],
		"cosmo_sigma_profile": { 
			"-0.025": 0.0,
			"-0.024": 0.0,
			"-0.023": 0.0,
			"-0.022": 0.0,
			"-0.021": 0.0,
			"-0.02": 0.0,
			"-0.019": 0.0,
			"-0.018": 0.0,
			"-0.017": 0.0,
			"-0.016": 0.0,
			"-0.015": 0.244062567475,
			"-0.014": 1.88055644891,
			"-0.013": 1.72073669405,
			"-0.012": 2.04084197317,
			"-0.011": 1.93746044648,
			"-0.01": 3.91090836163,
			"-0.009": 5.19555242755,
			"-0.008": 7.6829707192,
			"-0.007": 9.95462042482,
			"-0.006": 14.1939814667,
			"-0.005": 26.3857769196,
			"-0.004": 41.1512999164,
			"-0.003": 39.6081929164,
			"-0.002": 29.6961870117,
			"-0.001": 23.4896854288,
			"0.0": 20.3728979422,
			"0.001": 21.2967009853,
			"0.002": 18.1788522564,
			"0.003": 12.5561837856,
			"0.004": 13.9385368861,
			"0.005": 13.9890579323,
			"0.006": 16.0979534141,
			"0.007": 18.4774559118,
			"0.008": 12.6635685002,
			"0.009": 8.28954992208,
			"0.01": 4.58520518687,
			"0.011": 2.79553786742,
			"0.012": 5.25502870865,
			"0.013": 5.82575851612,
			"0.014": 2.37012331278,
			"0.015": 1.19413836359,
			"0.016": 0.44820018073,
			"0.017": 0.0,
			"0.018": 0.0,
			"0.019": 0.0,
			"0.02": 0.0,
			"0.021": 0.0,
			"0.022": 0.0,
			"0.023": 0.0,
			"0.024": 0.0,
			"0.025": 0.0
		}
	}
}
