{
	 "smiles": "NC1=CC2=C(C=C1)C1=C(C=C(N)C=C1)C(=N2)C1=CC=CC=C1", 
	 "Tm": 470.15, 
	 "num_atms": 37, 
	 "gaussian": { 
		 "optdone": 1, 
		 "sigma_profile": "yes", 
		 "theory": "DFT", 
		 "functional": "B3LYP", 
		 "basiset": "6-31G**", 
		 "properties": { 
			 "R2extent": 7374.1964, 
			 "electric_dipole_moment_norm": 2.14132009984, 
			 "electric_quadrupole_moment_norm": 25.4914624943, 
			 "total_energy": -897.350792121, 
			 "HOMO_LUMO_gap": 0.13442, 
			 "cosmo_polarized_energy": -19.4, 
			 "cosmo_cavitation_energy": 40.31, 
			 "cosmo_dispersion_energy": -29.42, 
			 "cosmo_repulsion_energy": 2.22, 
			 "cosmo_total_nonelectrostatic_energy": 13.11, 
			 "SMD_solvation_energy": 4.79 
		},
		"coords": [
			{
				"x": 4.1751507407,
				"y": 1.9747095877,
				"z": 2.8399730104,
				"element": "N" 
			},
			{
				"x": 3.0767576069,
				"y": 1.2047071763,
				"z": 2.4516055612,
				"element": "C" 
			},
			{
				"x": 2.3802049994,
				"y": 1.4663945943,
				"z": 1.2779206399,
				"element": "C" 
			},
			{
				"x": 1.3114954593,
				"y": 0.6445020428,
				"z": 0.8653691679,
				"element": "C" 
			},
			{
				"x": 0.9140474203,
				"y": -0.4711998972,
				"z": 1.6527440015,
				"element": "C" 
			},
			{
				"x": 1.6396467842,
				"y": -0.7227453978,
				"z": 2.8394799182,
				"element": "C" 
			},
			{
				"x": 2.6883029842,
				"y": 0.0847705104,
				"z": 3.23003192,
				"element": "C" 
			},
			{
				"x": -0.2182032438,
				"y": -1.2463510081,
				"z": 1.1990627978,
				"element": "C" 
			},
			{
				"x": -0.8557787103,
				"y": -0.8799496309,
				"z": -0.0218546495,
				"element": "C" 
			},
			{
				"x": -2.0154742684,
				"y": -1.5692748367,
				"z": -0.4404248477,
				"element": "C" 
			},
			{
				"x": -2.5352052572,
				"y": -2.6307377339,
				"z": 0.2923482801,
				"element": "C" 
			},
			{
				"x": -3.7182864179,
				"y": -3.2692490679,
				"z": -0.0854624188,
				"element": "N" 
			},
			{
				"x": -1.8724819072,
				"y": -3.0166091723,
				"z": 1.4827414412,
				"element": "C" 
			},
			{
				"x": -0.7551496697,
				"y": -2.3388462339,
				"z": 1.9200169264,
				"element": "C" 
			},
			{
				"x": -0.2941340872,
				"y": 0.2370748485,
				"z": -0.7704697814,
				"element": "C" 
			},
			{
				"x": 0.7012116264,
				"y": 0.963805594,
				"z": -0.3277017751,
				"element": "N" 
			},
			{
				"x": -0.828270121,
				"y": 0.6454594007,
				"z": -2.1059911994,
				"element": "C" 
			},
			{
				"x": -1.0298383597,
				"y": -0.2777546466,
				"z": -3.1445268376,
				"element": "C" 
			},
			{
				"x": -1.4711759987,
				"y": 0.146559456,
				"z": -4.3988683152,
				"element": "C" 
			},
			{
				"x": -1.7238821812,
				"y": 1.4987494471,
				"z": -4.6339498548,
				"element": "C" 
			},
			{
				"x": -1.5159437583,
				"y": 2.4272082092,
				"z": -3.6108324755,
				"element": "C" 
			},
			{
				"x": -1.0638076946,
				"y": 2.0052789873,
				"z": -2.362271901,
				"element": "C" 
			},
			{
				"x": 4.2091939096,
				"y": 2.9012132302,
				"z": 2.4372812098,
				"element": "H" 
			},
			{
				"x": 4.3584513582,
				"y": 1.9898603274,
				"z": 3.8338995556,
				"element": "H" 
			},
			{
				"x": 2.6443805675,
				"y": 2.3036179983,
				"z": 0.6386046085,
				"element": "H" 
			},
			{
				"x": 1.3755128914,
				"y": -1.5656156925,
				"z": 3.4700081811,
				"element": "H" 
			},
			{
				"x": 3.2319637772,
				"y": -0.1399213807,
				"z": 4.1445787942,
				"element": "H" 
			},
			{
				"x": -2.5260149181,
				"y": -1.2506371283,
				"z": -1.3421844276,
				"element": "H" 
			},
			{
				"x": -3.9653070338,
				"y": -3.1724718817,
				"z": -1.0607546944,
				"element": "H" 
			},
			{
				"x": -3.813503565,
				"y": -4.2233347739,
				"z": 0.234265376,
				"element": "H" 
			},
			{
				"x": -2.2671128997,
				"y": -3.8443997476,
				"z": 2.0673441514,
				"element": "H" 
			},
			{
				"x": -0.2897420018,
				"y": -2.6525798885,
				"z": 2.8481911183,
				"element": "H" 
			},
			{
				"x": -0.8141977203,
				"y": -1.3285580468,
				"z": -2.9774007121,
				"element": "H" 
			},
			{
				"x": -1.6091513994,
				"y": -0.5801502579,
				"z": -5.1947879055,
				"element": "H" 
			},
			{
				"x": -2.0727549662,
				"y": 1.8279959748,
				"z": -5.6086761263,
				"element": "H" 
			},
			{
				"x": -1.7028886142,
				"y": 3.4827676804,
				"z": -3.7879159622,
				"element": "H" 
			},
			{
				"x": -0.8796153318,
				"y": 2.7224113577,
				"z": -1.5692927755,
				"element": "H" 
			}
		],
		 "valence_orbital": [ 
			{
				"type": "occ",
				"energy": -0.24553,
				"method": "rhf"
			},
			{
				"type": "occ",
				"energy": -0.23681,
				"method": "rhf"
			},
			{
				"type": "occ",
				"energy": -0.22593,
				"method": "rhf"
			},
			{
				"type": "occ",
				"energy": -0.21094,
				"method": "rhf"
			},
			{
				"type": "occ",
				"energy": -0.17995,
				"method": "rhf"
			},
			{
				"type": "unocc",
				"energy": -0.04553,
				"method": "rhf"
			},
			{
				"type": "unocc",
				"energy": -0.01239,
				"method": "rhf"
			},
			{
				"type": "unocc",
				"energy": -0.00229,
				"method": "rhf"
			},
			{
				"type": "unocc",
				"energy": 0.00589,
				"method": "rhf"
			},
			{
				"type": "unocc",
				"energy": 0.01967,
				"method": "rhf"
			}
		],
		"cosmo_sigma_profile": { 
			"-0.025": 0.0,
			"-0.024": 0.0,
			"-0.023": 0.0,
			"-0.022": 0.0,
			"-0.021": 0.0,
			"-0.02": 0.0,
			"-0.019": 0.0,
			"-0.018": 0.0,
			"-0.017": 0.0,
			"-0.016": 0.0,
			"-0.015": 0.0,
			"-0.014": 0.0,
			"-0.013": 1.09528186799,
			"-0.012": 4.66943272513,
			"-0.011": 5.989967238,
			"-0.01": 6.1237892063,
			"-0.009": 6.07900274762,
			"-0.008": 6.27298941873,
			"-0.007": 9.39475042432,
			"-0.006": 13.9054307046,
			"-0.005": 19.2303743632,
			"-0.004": 20.9736135798,
			"-0.003": 19.3145480827,
			"-0.002": 16.3486646957,
			"-0.001": 15.2564624695,
			"0.0": 16.5818039883,
			"0.001": 16.3034890925,
			"0.002": 21.436454109,
			"0.003": 23.6523403187,
			"0.004": 28.6223331539,
			"0.005": 33.6948399092,
			"0.006": 14.9355857873,
			"0.007": 3.62123167688,
			"0.008": 3.86885635012,
			"0.009": 3.18707169358,
			"0.01": 2.47491545933,
			"0.011": 2.15717739399,
			"0.012": 2.67268243914,
			"0.013": 1.98806785137,
			"0.014": 1.75785098648,
			"0.015": 0.939989921747,
			"0.016": 0.0647921788893,
			"0.017": 0.0,
			"0.018": 0.0,
			"0.019": 0.0,
			"0.02": 0.0,
			"0.021": 0.0,
			"0.022": 0.0,
			"0.023": 0.0,
			"0.024": 0.0,
			"0.025": 0.0
		}
	}
}
