{
	 "smiles": "COC1=CC=C(NN=C2C(=O)NC(=S)NC2=O)C=C1", 
	 "Tm": 519.15, 
	 "num_atms": 29, 
	 "gaussian": { 
		 "optdone": 1, 
		 "sigma_profile": "yes", 
		 "theory": "DFT", 
		 "functional": "B3LYP", 
		 "basiset": "6-31G**", 
		 "properties": { 
			 "R2extent": 11594.31, 
			 "electric_dipole_moment_norm": 6.2625339552, 
			 "electric_quadrupole_moment_norm": 16.0104197737, 
			 "total_energy": -1268.06783042, 
			 "HOMO_LUMO_gap": 0.11712, 
			 "cosmo_polarized_energy": -20.78, 
			 "cosmo_cavitation_energy": 36.86, 
			 "cosmo_dispersion_energy": -27.59, 
			 "cosmo_repulsion_energy": 2.06, 
			 "cosmo_total_nonelectrostatic_energy": 11.33, 
			 "SMD_solvation_energy": 6.79 
		},
		"coords": [
			{
				"x": -1.6657723641,
				"y": -3.9994817057,
				"z": 2.2843423135,
				"element": "C" 
			},
			{
				"x": -0.303210571,
				"y": -3.6418869231,
				"z": 2.472649828,
				"element": "O" 
			},
			{
				"x": 0.1753293775,
				"y": -2.545803113,
				"z": 1.8254002866,
				"element": "C" 
			},
			{
				"x": 1.5282747498,
				"y": -2.2461556586,
				"z": 2.0525024137,
				"element": "C" 
			},
			{
				"x": 2.1133500291,
				"y": -1.1490954256,
				"z": 1.4397413838,
				"element": "C" 
			},
			{
				"x": 1.3532557176,
				"y": -0.3328672973,
				"z": 0.5886468813,
				"element": "C" 
			},
			{
				"x": 1.988777413,
				"y": 0.7703979214,
				"z": -0.0122035429,
				"element": "N" 
			},
			{
				"x": 1.3501285549,
				"y": 1.5665082323,
				"z": -0.8089362358,
				"element": "N" 
			},
			{
				"x": 1.968617839,
				"y": 2.6002206423,
				"z": -1.3647034512,
				"element": "C" 
			},
			{
				"x": 1.1463964905,
				"y": 3.4390960239,
				"z": -2.2538681939,
				"element": "C" 
			},
			{
				"x": -0.0286057675,
				"y": 3.2765633313,
				"z": -2.5228764293,
				"element": "O" 
			},
			{
				"x": 1.8506452909,
				"y": 4.5253031587,
				"z": -2.8201042989,
				"element": "N" 
			},
			{
				"x": 3.1614794658,
				"y": 4.8735109424,
				"z": -2.6424067558,
				"element": "C" 
			},
			{
				"x": 3.8690565981,
				"y": 6.1881072267,
				"z": -3.3747783365,
				"element": "S" 
			},
			{
				"x": 3.8600187702,
				"y": 4.0391536798,
				"z": -1.7971492272,
				"element": "N" 
			},
			{
				"x": 3.3718046622,
				"y": 2.9180791012,
				"z": -1.1340167038,
				"element": "C" 
			},
			{
				"x": 4.1267341723,
				"y": 2.2627928621,
				"z": -0.402088458,
				"element": "O" 
			},
			{
				"x": 0.0060260704,
				"y": -0.6243019224,
				"z": 0.3574597569,
				"element": "C" 
			},
			{
				"x": -0.5813320364,
				"y": -1.726581197,
				"z": 0.9733214985,
				"element": "C" 
			},
			{
				"x": -1.8807957794,
				"y": -4.2291540103,
				"z": 1.2332514862,
				"element": "H" 
			},
			{
				"x": -1.8267568356,
				"y": -4.8935927795,
				"z": 2.8877708191,
				"element": "H" 
			},
			{
				"x": -2.3418768283,
				"y": -3.2059588472,
				"z": 2.6263690637,
				"element": "H" 
			},
			{
				"x": 2.0989264871,
				"y": -2.8890839129,
				"z": 2.7136318036,
				"element": "H" 
			},
			{
				"x": 3.1608544996,
				"y": -0.922130501,
				"z": 1.6192370263,
				"element": "H" 
			},
			{
				"x": 2.9829123768,
				"y": 0.9700267848,
				"z": 0.1698605612,
				"element": "H" 
			},
			{
				"x": 1.3073079073,
				"y": 5.1183033031,
				"z": -3.4358490727,
				"element": "H" 
			},
			{
				"x": 4.8349979246,
				"y": 4.2660306605,
				"z": -1.6413925606,
				"element": "H" 
			},
			{
				"x": -0.5701052381,
				"y": 0.0141271888,
				"z": -0.3021151661,
				"element": "H" 
			},
			{
				"x": -1.626538976,
				"y": -1.937327766,
				"z": 0.7827033101,
				"element": "H" 
			}
		],
		 "valence_orbital": [ 
			{
				"type": "occ",
				"energy": -0.27882,
				"method": "rhf"
			},
			{
				"type": "occ",
				"energy": -0.27433,
				"method": "rhf"
			},
			{
				"type": "occ",
				"energy": -0.24686,
				"method": "rhf"
			},
			{
				"type": "occ",
				"energy": -0.23051,
				"method": "rhf"
			},
			{
				"type": "occ",
				"energy": -0.2182,
				"method": "rhf"
			},
			{
				"type": "unocc",
				"energy": -0.10108,
				"method": "rhf"
			},
			{
				"type": "unocc",
				"energy": -0.03105,
				"method": "rhf"
			},
			{
				"type": "unocc",
				"energy": -0.02247,
				"method": "rhf"
			},
			{
				"type": "unocc",
				"energy": -0.01044,
				"method": "rhf"
			},
			{
				"type": "unocc",
				"energy": 0.01195,
				"method": "rhf"
			}
		],
		"cosmo_sigma_profile": { 
			"-0.025": 0.0,
			"-0.024": 0.0,
			"-0.023": 0.0,
			"-0.022": 0.0,
			"-0.021": 0.0,
			"-0.02": 0.0,
			"-0.019": 0.0,
			"-0.018": 0.0,
			"-0.017": 0.242175407923,
			"-0.016": 1.15491534001,
			"-0.015": 1.62038166134,
			"-0.014": 1.56352514424,
			"-0.013": 1.69071683544,
			"-0.012": 2.35185256831,
			"-0.011": 3.01817715675,
			"-0.01": 1.87228451324,
			"-0.009": 3.88776133598,
			"-0.008": 4.94409746586,
			"-0.007": 9.4039066879,
			"-0.006": 20.1171587568,
			"-0.005": 23.0548251984,
			"-0.004": 22.9905413131,
			"-0.003": 22.4404299701,
			"-0.002": 16.6520607343,
			"-0.001": 13.9392274869,
			"0.0": 13.4200858117,
			"0.001": 14.1100524134,
			"0.002": 17.3560180797,
			"0.003": 21.5153370807,
			"0.004": 12.8277942897,
			"0.005": 7.26410646734,
			"0.006": 8.70493219029,
			"0.007": 10.1355877939,
			"0.008": 11.3002282503,
			"0.009": 8.8793018442,
			"0.01": 7.33908504334,
			"0.011": 5.78714479695,
			"0.012": 5.89650395068,
			"0.013": 1.83642269011,
			"0.014": 1.0287990605,
			"0.015": 0.432547352958,
			"0.016": 0.0130169026598,
			"0.017": 0.0,
			"0.018": 0.0,
			"0.019": 0.0,
			"0.02": 0.0,
			"0.021": 0.0,
			"0.022": 0.0,
			"0.023": 0.0,
			"0.024": 0.0,
			"0.025": 0.0
		}
	}
}
