{
	 "smiles": "[O-][N+](=O)C1=C(OC2=CC=CC=C2F)N=CC=C1", 
	 "Tm": 364.15, 
	 "num_atms": 24, 
	 "gaussian": { 
		 "optdone": 1, 
		 "sigma_profile": "yes", 
		 "theory": "DFT", 
		 "functional": "B3LYP", 
		 "basiset": "6-31G**", 
		 "properties": { 
			 "R2extent": 4461.5523, 
			 "electric_dipole_moment_norm": 4.54358667795, 
			 "electric_quadrupole_moment_norm": 15.7334471951, 
			 "total_energy": -858.27273209, 
			 "HOMO_LUMO_gap": 0.15472, 
			 "cosmo_polarized_energy": -12.06, 
			 "cosmo_cavitation_energy": 30.59, 
			 "cosmo_dispersion_energy": -21.73, 
			 "cosmo_repulsion_energy": 1.67, 
			 "cosmo_total_nonelectrostatic_energy": 10.54, 
			 "SMD_solvation_energy": 7.56 
		},
		"coords": [
			{
				"x": -1.7967277306,
				"y": -2.5733824805,
				"z": -1.4865973268,
				"element": "O" 
			},
			{
				"x": -0.9941573442,
				"y": -1.6527536945,
				"z": -1.660813458,
				"element": "N" 
			},
			{
				"x": -0.9143407226,
				"y": -0.9751122382,
				"z": -2.6800435907,
				"element": "O" 
			},
			{
				"x": -0.0574371138,
				"y": -1.379239353,
				"z": -0.5642485156,
				"element": "C" 
			},
			{
				"x": 0.6667283951,
				"y": -0.1707479127,
				"z": -0.4342404365,
				"element": "C" 
			},
			{
				"x": 0.4789603202,
				"y": 0.8163173278,
				"z": -1.3350028861,
				"element": "O" 
			},
			{
				"x": 1.0501651745,
				"y": 2.0650694807,
				"z": -1.1147480428,
				"element": "C" 
			},
			{
				"x": 1.958076694,
				"y": 2.5633319695,
				"z": -2.0419484512,
				"element": "C" 
			},
			{
				"x": 2.455038829,
				"y": 3.8606758417,
				"z": -1.8959811348,
				"element": "C" 
			},
			{
				"x": 2.0427015938,
				"y": 4.652091727,
				"z": -0.823216915,
				"element": "C" 
			},
			{
				"x": 1.1261411616,
				"y": 4.1548702475,
				"z": 0.1070330627,
				"element": "C" 
			},
			{
				"x": 0.6334847471,
				"y": 2.8679615357,
				"z": -0.0520344142,
				"element": "C" 
			},
			{
				"x": -0.2615256973,
				"y": 2.374490421,
				"z": 0.8235891372,
				"element": "F" 
			},
			{
				"x": 1.5253881378,
				"y": 0.0216081802,
				"z": 0.559308052,
				"element": "N" 
			},
			{
				"x": 1.7033614888,
				"y": -0.9462032664,
				"z": 1.4623265251,
				"element": "C" 
			},
			{
				"x": 1.0230373267,
				"y": -2.1626245186,
				"z": 1.4332649548,
				"element": "C" 
			},
			{
				"x": 0.1223581329,
				"y": -2.3722818846,
				"z": 0.3946951931,
				"element": "C" 
			},
			{
				"x": 2.2565557936,
				"y": 1.9285663822,
				"z": -2.8693873952,
				"element": "H" 
			},
			{
				"x": 3.16295723,
				"y": 4.2484865165,
				"z": -2.6212552798,
				"element": "H" 
			},
			{
				"x": 2.4283512669,
				"y": 5.6600194682,
				"z": -0.707328451,
				"element": "H" 
			},
			{
				"x": 0.782461123,
				"y": 4.7475455997,
				"z": 0.9479143767,
				"element": "H" 
			},
			{
				"x": 2.4269623735,
				"y": -0.7329205891,
				"z": 2.2463066127,
				"element": "H" 
			},
			{
				"x": 1.194613095,
				"y": -2.9172277865,
				"z": 2.1921211031,
				"element": "H" 
			},
			{
				"x": -0.4509542749,
				"y": -3.2863409736,
				"z": 0.2992872804,
				"element": "H" 
			}
		],
		 "valence_orbital": [ 
			{
				"type": "occ",
				"energy": -0.29263,
				"method": "rhf"
			},
			{
				"type": "occ",
				"energy": -0.28555,
				"method": "rhf"
			},
			{
				"type": "occ",
				"energy": -0.27273,
				"method": "rhf"
			},
			{
				"type": "occ",
				"energy": -0.26055,
				"method": "rhf"
			},
			{
				"type": "occ",
				"energy": -0.245,
				"method": "rhf"
			},
			{
				"type": "unocc",
				"energy": -0.09028,
				"method": "rhf"
			},
			{
				"type": "unocc",
				"energy": -0.03848,
				"method": "rhf"
			},
			{
				"type": "unocc",
				"energy": -0.01643,
				"method": "rhf"
			},
			{
				"type": "unocc",
				"energy": -0.00765,
				"method": "rhf"
			},
			{
				"type": "unocc",
				"energy": -0.00551,
				"method": "rhf"
			}
		],
		"cosmo_sigma_profile": { 
			"-0.025": 0.0,
			"-0.024": 0.0,
			"-0.023": 0.0,
			"-0.022": 0.0,
			"-0.021": 0.0,
			"-0.02": 0.0,
			"-0.019": 0.0,
			"-0.018": 0.0,
			"-0.017": 0.0,
			"-0.016": 0.0,
			"-0.015": 0.0,
			"-0.014": 0.0,
			"-0.013": 0.0,
			"-0.012": 0.0,
			"-0.011": 0.0,
			"-0.01": 0.0,
			"-0.009": 1.43648947095,
			"-0.008": 7.99741071604,
			"-0.007": 13.5001026242,
			"-0.006": 15.6662041144,
			"-0.005": 15.5444160143,
			"-0.004": 14.4833516244,
			"-0.003": 15.400567438,
			"-0.002": 15.5040939385,
			"-0.001": 18.3468997638,
			"0.0": 19.7502873581,
			"0.001": 16.4743203671,
			"0.002": 14.0935288512,
			"0.003": 17.7917925217,
			"0.004": 17.1836651315,
			"0.005": 6.84808176363,
			"0.006": 5.68217741777,
			"0.007": 8.67501337127,
			"0.008": 10.1813553348,
			"0.009": 6.76945566692,
			"0.01": 4.84095363642,
			"0.011": 1.04493326976,
			"0.012": 0.124245007196,
			"0.013": 0.0,
			"0.014": 0.0,
			"0.015": 0.0,
			"0.016": 0.0,
			"0.017": 0.0,
			"0.018": 0.0,
			"0.019": 0.0,
			"0.02": 0.0,
			"0.021": 0.0,
			"0.022": 0.0,
			"0.023": 0.0,
			"0.024": 0.0,
			"0.025": 0.0
		}
	}
}
