{
	 "smiles": "NC(=O)CNCC1=CC=C(OCC2=CC=CC=C2)C=C1", 
	 "Tm": 414.15, 
	 "num_atms": 38, 
	 "gaussian": { 
		 "optdone": 1, 
		 "sigma_profile": "yes", 
		 "theory": "DFT", 
		 "functional": "B3LYP", 
		 "basiset": "6-31G**", 
		 "properties": { 
			 "R2extent": 12336.0233, 
			 "electric_dipole_moment_norm": 4.52507676841, 
			 "electric_quadrupole_moment_norm": 27.8798346487, 
			 "total_energy": -880.507015239, 
			 "HOMO_LUMO_gap": 0.21101, 
			 "cosmo_polarized_energy": -17.96, 
			 "cosmo_cavitation_energy": 42.57, 
			 "cosmo_dispersion_energy": -30.35, 
			 "cosmo_repulsion_energy": 2.36, 
			 "cosmo_total_nonelectrostatic_energy": 14.58, 
			 "SMD_solvation_energy": 7.48 
		},
		"coords": [
			{
				"x": 3.0198510461,
				"y": 2.9127942439,
				"z": -4.1874753162,
				"element": "N" 
			},
			{
				"x": 4.2540147411,
				"y": 3.0071318746,
				"z": -3.624255139,
				"element": "C" 
			},
			{
				"x": 5.1084937581,
				"y": 3.8134970789,
				"z": -3.96291627,
				"element": "O" 
			},
			{
				"x": 4.5176640093,
				"y": 1.9755645084,
				"z": -2.520348794,
				"element": "C" 
			},
			{
				"x": 3.2952193427,
				"y": 1.4016607652,
				"z": -1.9607632051,
				"element": "N" 
			},
			{
				"x": 3.5276873289,
				"y": 0.2246146731,
				"z": -1.1119371626,
				"element": "C" 
			},
			{
				"x": 2.2357644752,
				"y": -0.2940118987,
				"z": -0.5212852838,
				"element": "C" 
			},
			{
				"x": 2.0646490897,
				"y": -0.413045388,
				"z": 0.8577955897,
				"element": "C" 
			},
			{
				"x": 0.8749004242,
				"y": -0.8983265842,
				"z": 1.4129205233,
				"element": "C" 
			},
			{
				"x": -0.1763110506,
				"y": -1.2682042907,
				"z": 0.5683849575,
				"element": "C" 
			},
			{
				"x": -1.381560132,
				"y": -1.753925233,
				"z": 0.9878893567,
				"element": "O" 
			},
			{
				"x": -1.6201688748,
				"y": -1.8636403315,
				"z": 2.3890644418,
				"element": "C" 
			},
			{
				"x": -3.0320608148,
				"y": -2.3497102682,
				"z": 2.6143626591,
				"element": "C" 
			},
			{
				"x": -3.3102068224,
				"y": -3.21979261,
				"z": 3.6738381619,
				"element": "C" 
			},
			{
				"x": -4.6193314181,
				"y": -3.6314471626,
				"z": 3.9300851313,
				"element": "C" 
			},
			{
				"x": -5.6632682266,
				"y": -3.1837470926,
				"z": 3.1196660156,
				"element": "C" 
			},
			{
				"x": -5.3908522547,
				"y": -2.3218134488,
				"z": 2.0546337657,
				"element": "C" 
			},
			{
				"x": -4.0841240831,
				"y": -1.9032147176,
				"z": 1.805269802,
				"element": "C" 
			},
			{
				"x": -0.0208497732,
				"y": -1.1507716489,
				"z": -0.8229135858,
				"element": "C" 
			},
			{
				"x": 1.1674956757,
				"y": -0.6712511524,
				"z": -1.353470936,
				"element": "C" 
			},
			{
				"x": 2.3903802521,
				"y": 2.1895202115,
				"z": -3.8708439406,
				"element": "H" 
			},
			{
				"x": 2.7859540437,
				"y": 3.5186017785,
				"z": -4.9580119831,
				"element": "H" 
			},
			{
				"x": 5.0972806649,
				"y": 1.1640252188,
				"z": -2.9797627749,
				"element": "H" 
			},
			{
				"x": 5.1824342101,
				"y": 2.4539860076,
				"z": -1.7848219992,
				"element": "H" 
			},
			{
				"x": 2.8111015649,
				"y": 2.1069795258,
				"z": -1.4085170377,
				"element": "H" 
			},
			{
				"x": 3.9902152422,
				"y": -0.5430873945,
				"z": -1.7479351672,
				"element": "H" 
			},
			{
				"x": 4.2457421922,
				"y": 0.4245623119,
				"z": -0.2974150231,
				"element": "H" 
			},
			{
				"x": 2.8746235707,
				"y": -0.1258686798,
				"z": 1.5242325104,
				"element": "H" 
			},
			{
				"x": 0.78552942,
				"y": -0.9795428063,
				"z": 2.4894951373,
				"element": "H" 
			},
			{
				"x": -1.4739343225,
				"y": -0.8796652764,
				"z": 2.8614164868,
				"element": "H" 
			},
			{
				"x": -0.9005337172,
				"y": -2.5572981974,
				"z": 2.8458324629,
				"element": "H" 
			},
			{
				"x": -2.4984902228,
				"y": -3.5812741638,
				"z": 4.300907695,
				"element": "H" 
			},
			{
				"x": -4.8204990417,
				"y": -4.3084951631,
				"z": 4.7553861137,
				"element": "H" 
			},
			{
				"x": -6.6818408195,
				"y": -3.5077663361,
				"z": 3.3129816105,
				"element": "H" 
			},
			{
				"x": -6.1985182066,
				"y": -1.9740383924,
				"z": 1.4166683365,
				"element": "H" 
			},
			{
				"x": -3.8693501388,
				"y": -1.2402168811,
				"z": 0.9735752188,
				"element": "H" 
			},
			{
				"x": -0.8471764278,
				"y": -1.4461996385,
				"z": -1.4614597946,
				"element": "H" 
			},
			{
				"x": 1.2764752958,
				"y": -0.5785834416,
				"z": -2.4302725637,
				"element": "H" 
			}
		],
		 "valence_orbital": [ 
			{
				"type": "occ",
				"energy": -0.25359,
				"method": "rhf"
			},
			{
				"type": "occ",
				"energy": -0.2494,
				"method": "rhf"
			},
			{
				"type": "occ",
				"energy": -0.24684,
				"method": "rhf"
			},
			{
				"type": "occ",
				"energy": -0.2325,
				"method": "rhf"
			},
			{
				"type": "occ",
				"energy": -0.22128,
				"method": "rhf"
			},
			{
				"type": "unocc",
				"energy": -0.01027,
				"method": "rhf"
			},
			{
				"type": "unocc",
				"energy": -0.00515,
				"method": "rhf"
			},
			{
				"type": "unocc",
				"energy": -0.00439,
				"method": "rhf"
			},
			{
				"type": "unocc",
				"energy": 0.00323,
				"method": "rhf"
			},
			{
				"type": "unocc",
				"energy": 0.03932,
				"method": "rhf"
			}
		],
		"cosmo_sigma_profile": { 
			"-0.025": 0.0,
			"-0.024": 0.0,
			"-0.023": 0.0,
			"-0.022": 0.0,
			"-0.021": 0.0,
			"-0.02": 0.0,
			"-0.019": 0.0,
			"-0.018": 0.0,
			"-0.017": 0.0,
			"-0.016": 0.0,
			"-0.015": 0.0,
			"-0.014": 0.419381530652,
			"-0.013": 1.24360167206,
			"-0.012": 0.878522528417,
			"-0.011": 1.76859898686,
			"-0.01": 3.23268545727,
			"-0.009": 2.94124630736,
			"-0.008": 2.68409197023,
			"-0.007": 4.16363617724,
			"-0.006": 18.008605975,
			"-0.005": 28.7493123036,
			"-0.004": 32.4179538189,
			"-0.003": 33.2629561591,
			"-0.002": 25.1107690381,
			"-0.001": 21.2537386879,
			"0.0": 16.8647510574,
			"0.001": 17.285717262,
			"0.002": 18.8453498916,
			"0.003": 18.034664225,
			"0.004": 23.7810995398,
			"0.005": 23.6096401332,
			"0.006": 17.7274347822,
			"0.007": 2.95130604707,
			"0.008": 2.010914961,
			"0.009": 2.49640928593,
			"0.01": 1.40752255446,
			"0.011": 1.4220661939,
			"0.012": 1.91226686071,
			"0.013": 2.18555883378,
			"0.014": 6.11805240521,
			"0.015": 3.77218285735,
			"0.016": 0.263551745638,
			"0.017": 0.0,
			"0.018": 0.0,
			"0.019": 0.0,
			"0.02": 0.0,
			"0.021": 0.0,
			"0.022": 0.0,
			"0.023": 0.0,
			"0.024": 0.0,
			"0.025": 0.0
		}
	}
}
