{
	 "smiles": "OC(=O)C1=CC(F)=C(OC2=CC=C(Br)C=C2)C=C1", 
	 "Tm": 525.15, 
	 "num_atms": 26, 
	 "gaussian": { 
		 "optdone": 1, 
		 "sigma_profile": "yes", 
		 "theory": "DFT", 
		 "functional": "B3LYP", 
		 "basiset": "6-31G**", 
		 "properties": { 
			 "R2extent": 10640.8977, 
			 "electric_dipole_moment_norm": 4.39370525866, 
			 "electric_quadrupole_moment_norm": 32.3135269961, 
			 "total_energy": -3397.1063593, 
			 "HOMO_LUMO_gap": 0.18551, 
			 "cosmo_polarized_energy": -16.84, 
			 "cosmo_cavitation_energy": 34.86, 
			 "cosmo_dispersion_energy": -25.33, 
			 "cosmo_repulsion_energy": 1.93, 
			 "cosmo_total_nonelectrostatic_energy": 11.46, 
			 "SMD_solvation_energy": 6.65 
		},
		"coords": [
			{
				"x": -4.1465957048,
				"y": -0.9364740958,
				"z": 4.1115092478,
				"element": "O" 
			},
			{
				"x": -4.2095940013,
				"y": -0.2468409668,
				"z": 2.9404696834,
				"element": "C" 
			},
			{
				"x": -5.2309661123,
				"y": 0.3173114174,
				"z": 2.6258794185,
				"element": "O" 
			},
			{
				"x": -2.9719539257,
				"y": -0.2336432529,
				"z": 2.0976315421,
				"element": "C" 
			},
			{
				"x": -3.1178755652,
				"y": 0.1167102932,
				"z": 0.7465343206,
				"element": "C" 
			},
			{
				"x": -2.0083515064,
				"y": 0.1565960785,
				"z": -0.0740029981,
				"element": "C" 
			},
			{
				"x": -2.1396741741,
				"y": 0.4772104148,
				"z": -1.3708436757,
				"element": "F" 
			},
			{
				"x": -0.7219878785,
				"y": -0.1286723861,
				"z": 0.415550742,
				"element": "C" 
			},
			{
				"x": 0.2909420986,
				"y": -0.1003469979,
				"z": -0.5016077978,
				"element": "O" 
			},
			{
				"x": 1.6066778822,
				"y": 0.0515606397,
				"z": -0.0908174466,
				"element": "C" 
			},
			{
				"x": 2.5322254019,
				"y": -0.8919889371,
				"z": -0.5335124208,
				"element": "C" 
			},
			{
				"x": 3.8826786755,
				"y": -0.7340782214,
				"z": -0.2215134238,
				"element": "C" 
			},
			{
				"x": 4.2863647577,
				"y": 0.3642472878,
				"z": 0.536287828,
				"element": "C" 
			},
			{
				"x": 6.1325992906,
				"y": 0.5790454214,
				"z": 0.9732262751,
				"element": "Br" 
			},
			{
				"x": 3.3621952136,
				"y": 1.31164147,
				"z": 0.978029444,
				"element": "C" 
			},
			{
				"x": 2.0139029341,
				"y": 1.157750869,
				"z": 0.6584689033,
				"element": "C" 
			},
			{
				"x": -0.5744147804,
				"y": -0.4629760137,
				"z": 1.7635136128,
				"element": "C" 
			},
			{
				"x": -1.6931655031,
				"y": -0.5114641037,
				"z": 2.5956099073,
				"element": "C" 
			},
			{
				"x": -3.3443530792,
				"y": -1.4755455555,
				"z": 4.140752038,
				"element": "H" 
			},
			{
				"x": -4.0978348683,
				"y": 0.3585054346,
				"z": 0.3517336636,
				"element": "H" 
			},
			{
				"x": 2.1898676394,
				"y": -1.7350841176,
				"z": -1.1238707733,
				"element": "H" 
			},
			{
				"x": 4.6116894748,
				"y": -1.46010088,
				"z": -0.5622758136,
				"element": "H" 
			},
			{
				"x": 3.6921592985,
				"y": 2.1664801344,
				"z": 1.5570207474,
				"element": "H" 
			},
			{
				"x": 1.285778138,
				"y": 1.8943672826,
				"z": 0.9813428132,
				"element": "H" 
			},
			{
				"x": 0.4124108203,
				"y": -0.676715008,
				"z": 2.1571173211,
				"element": "H" 
			},
			{
				"x": -1.5397245259,
				"y": -0.7348962071,
				"z": 3.6479668416,
				"element": "H" 
			}
		],
		 "valence_orbital": [ 
			{
				"type": "occ",
				"energy": -0.28435,
				"method": "rhf"
			},
			{
				"type": "occ",
				"energy": -0.28102,
				"method": "rhf"
			},
			{
				"type": "occ",
				"energy": -0.27356,
				"method": "rhf"
			},
			{
				"type": "occ",
				"energy": -0.26219,
				"method": "rhf"
			},
			{
				"type": "occ",
				"energy": -0.24175,
				"method": "rhf"
			},
			{
				"type": "unocc",
				"energy": -0.05624,
				"method": "rhf"
			},
			{
				"type": "unocc",
				"energy": -0.03751,
				"method": "rhf"
			},
			{
				"type": "unocc",
				"energy": -0.02665,
				"method": "rhf"
			},
			{
				"type": "unocc",
				"energy": -0.02428,
				"method": "rhf"
			},
			{
				"type": "unocc",
				"energy": -0.00454,
				"method": "rhf"
			}
		],
		"cosmo_sigma_profile": { 
			"-0.025": 0.0,
			"-0.024": 0.0,
			"-0.023": 0.0,
			"-0.022": 0.0,
			"-0.021": 0.0,
			"-0.02": 0.0,
			"-0.019": 0.340347260224,
			"-0.018": 1.04941812764,
			"-0.017": 0.888253669139,
			"-0.016": 0.968273655173,
			"-0.015": 0.514287756457,
			"-0.014": 1.65283642103,
			"-0.013": 1.01147915363,
			"-0.012": 0.994307702474,
			"-0.011": 1.35927010681,
			"-0.01": 1.2771529235,
			"-0.009": 1.4836746907,
			"-0.008": 5.55715803796,
			"-0.007": 13.1976016093,
			"-0.006": 12.8691824196,
			"-0.005": 12.5939416518,
			"-0.004": 13.1531651966,
			"-0.003": 14.4525705592,
			"-0.002": 17.4327692274,
			"-0.001": 19.8731565637,
			"0.0": 22.552028449,
			"0.001": 26.9802483224,
			"0.002": 31.0774047444,
			"0.003": 21.9310428909,
			"0.004": 20.6241936196,
			"0.005": 9.43794887523,
			"0.006": 3.99197268427,
			"0.007": 3.66138000849,
			"0.008": 3.94416113519,
			"0.009": 3.5755370155,
			"0.01": 4.89577733495,
			"0.011": 5.00986803268,
			"0.012": 4.53125804648,
			"0.013": 1.4922202463,
			"0.014": 0.01686396721,
			"0.015": 0.0,
			"0.016": 0.0,
			"0.017": 0.0,
			"0.018": 0.0,
			"0.019": 0.0,
			"0.02": 0.0,
			"0.021": 0.0,
			"0.022": 0.0,
			"0.023": 0.0,
			"0.024": 0.0,
			"0.025": 0.0
		}
	}
}
