{
	 "smiles": "CC1=NN(C(C)=C1CC(O)=O)C1=C(Cl)C=C(Cl)C=C1", 
	 "Tm": 460.15, 
	 "num_atms": 31, 
	 "gaussian": { 
		 "optdone": 1, 
		 "sigma_profile": "yes", 
		 "theory": "DFT", 
		 "functional": "B3LYP", 
		 "basiset": "6-31G**", 
		 "properties": { 
			 "R2extent": 8251.5409, 
			 "electric_dipole_moment_norm": 4.09030036672, 
			 "electric_quadrupole_moment_norm": 32.590579146, 
			 "total_energy": -1682.95259544, 
			 "HOMO_LUMO_gap": 0.19513, 
			 "cosmo_polarized_energy": -17.2, 
			 "cosmo_cavitation_energy": 39.18, 
			 "cosmo_dispersion_energy": -26.8, 
			 "cosmo_repulsion_energy": 2.09, 
			 "cosmo_total_nonelectrostatic_energy": 14.47, 
			 "SMD_solvation_energy": 6.51 
		},
		"coords": [
			{
				"x": 0.1806209466,
				"y": -2.3117576614,
				"z": -2.0258067785,
				"element": "C" 
			},
			{
				"x": 0.3029519653,
				"y": -1.0492897051,
				"z": -1.22813504,
				"element": "C" 
			},
			{
				"x": -0.3348864862,
				"y": -0.9135178892,
				"z": -0.0716524211,
				"element": "N" 
			},
			{
				"x": 0.0127193343,
				"y": 0.3286151832,
				"z": 0.3806869951,
				"element": "N" 
			},
			{
				"x": 0.8369137902,
				"y": 0.9945296071,
				"z": -0.490096386,
				"element": "C" 
			},
			{
				"x": 1.3239340743,
				"y": 2.3895601954,
				"z": -0.2596752444,
				"element": "C" 
			},
			{
				"x": 1.0579895978,
				"y": 0.1208282313,
				"z": -1.5482535811,
				"element": "C" 
			},
			{
				"x": 1.9120416882,
				"y": 0.341868472,
				"z": -2.7622150205,
				"element": "C" 
			},
			{
				"x": 1.1692506577,
				"y": 0.6255875213,
				"z": -4.0811166825,
				"element": "C" 
			},
			{
				"x": -0.1725431585,
				"y": 0.7748826504,
				"z": -3.9907744536,
				"element": "O" 
			},
			{
				"x": 1.7400038488,
				"y": 0.7185005895,
				"z": -5.1387748789,
				"element": "O" 
			},
			{
				"x": -0.5801022969,
				"y": 0.8040207757,
				"z": 1.5813862863,
				"element": "C" 
			},
			{
				"x": 0.1673794406,
				"y": 1.0570072497,
				"z": 2.7415495338,
				"element": "C" 
			},
			{
				"x": 1.8903910881,
				"y": 0.7596787519,
				"z": 2.7880427224,
				"element": "Cl" 
			},
			{
				"x": -0.4524248081,
				"y": 1.5184439299,
				"z": 3.9037035979,
				"element": "C" 
			},
			{
				"x": -1.8334145726,
				"y": 1.7013734281,
				"z": 3.9076204311,
				"element": "C" 
			},
			{
				"x": -2.6110718702,
				"y": 2.2766900919,
				"z": 5.3675375651,
				"element": "Cl" 
			},
			{
				"x": -2.6039433885,
				"y": 1.4269380719,
				"z": 2.7772021768,
				"element": "C" 
			},
			{
				"x": -1.9672117206,
				"y": 0.9825010129,
				"z": 1.6234333152,
				"element": "C" 
			},
			{
				"x": -0.2140275158,
				"y": -2.114203467,
				"z": -3.0288367103,
				"element": "H" 
			},
			{
				"x": 1.1537035612,
				"y": -2.8007780383,
				"z": -2.1499102675,
				"element": "H" 
			},
			{
				"x": -0.4911495914,
				"y": -3.0066782499,
				"z": -1.5182749713,
				"element": "H" 
			},
			{
				"x": 0.5436282874,
				"y": 3.0162758198,
				"z": 0.1830108885,
				"element": "H" 
			},
			{
				"x": 2.1870064678,
				"y": 2.4128563478,
				"z": 0.4138620162,
				"element": "H" 
			},
			{
				"x": 1.6223558155,
				"y": 2.8458607966,
				"z": -1.2062741166,
				"element": "H" 
			},
			{
				"x": 2.6000723424,
				"y": 1.1807955501,
				"z": -2.6139627859,
				"element": "H" 
			},
			{
				"x": 2.5503069567,
				"y": -0.5261762472,
				"z": -2.9607595481,
				"element": "H" 
			},
			{
				"x": -0.4287649965,
				"y": 0.6726115369,
				"z": -3.0577120179,
				"element": "H" 
			},
			{
				"x": 0.1348491635,
				"y": 1.712956171,
				"z": 4.7924159274,
				"element": "H" 
			},
			{
				"x": -3.6786025593,
				"y": 1.5641556484,
				"z": 2.8005386607,
				"element": "H" 
			},
			{
				"x": -2.5399760619,
				"y": 0.7569636252,
				"z": 0.7307407875,
				"element": "H" 
			}
		],
		 "valence_orbital": [ 
			{
				"type": "occ",
				"energy": -0.28722,
				"method": "rhf"
			},
			{
				"type": "occ",
				"energy": -0.28077,
				"method": "rhf"
			},
			{
				"type": "occ",
				"energy": -0.27124,
				"method": "rhf"
			},
			{
				"type": "occ",
				"energy": -0.2546,
				"method": "rhf"
			},
			{
				"type": "occ",
				"energy": -0.24418,
				"method": "rhf"
			},
			{
				"type": "unocc",
				"energy": -0.04905,
				"method": "rhf"
			},
			{
				"type": "unocc",
				"energy": -0.04404,
				"method": "rhf"
			},
			{
				"type": "unocc",
				"energy": -0.00992,
				"method": "rhf"
			},
			{
				"type": "unocc",
				"energy": 0.00108,
				"method": "rhf"
			},
			{
				"type": "unocc",
				"energy": 0.01582,
				"method": "rhf"
			}
		],
		"cosmo_sigma_profile": { 
			"-0.025": 0.0,
			"-0.024": 0.0,
			"-0.023": 0.0,
			"-0.022": 0.0,
			"-0.021": 0.0,
			"-0.02": 0.0,
			"-0.019": 0.0,
			"-0.018": 0.0,
			"-0.017": 0.0,
			"-0.016": 0.0,
			"-0.015": 0.0147865163426,
			"-0.014": 0.380755078768,
			"-0.013": 0.468592530929,
			"-0.012": 0.512833756145,
			"-0.011": 0.917461465261,
			"-0.01": 0.788612912079,
			"-0.009": 2.61133757031,
			"-0.008": 7.56670185786,
			"-0.007": 11.2220511199,
			"-0.006": 13.3589713752,
			"-0.005": 18.7490062195,
			"-0.004": 24.2569886854,
			"-0.003": 24.8842636777,
			"-0.002": 28.026863636,
			"-0.001": 27.0262268566,
			"0.0": 30.9178674639,
			"0.001": 24.6698858774,
			"0.002": 16.2578354819,
			"0.003": 22.2990238236,
			"0.004": 17.3944720987,
			"0.005": 4.51334627265,
			"0.006": 3.7721780331,
			"0.007": 3.67022916366,
			"0.008": 3.73913722802,
			"0.009": 4.24730438968,
			"0.01": 6.34205484274,
			"0.011": 5.20580698646,
			"0.012": 6.60663018942,
			"0.013": 4.46909053134,
			"0.014": 0.954463129481,
			"0.015": 0.835703225523,
			"0.016": 0.154795322496,
			"0.017": 0.0,
			"0.018": 0.0,
			"0.019": 0.0,
			"0.02": 0.0,
			"0.021": 0.0,
			"0.022": 0.0,
			"0.023": 0.0,
			"0.024": 0.0,
			"0.025": 0.0
		}
	}
}
