{
	 "smiles": "O=CN(C1=CC=CC=C1)C1=CC=CC=C1", 
	 "Tm": 346.65, 
	 "num_atms": 26, 
	 "gaussian": { 
		 "optdone": 1, 
		 "sigma_profile": "yes", 
		 "theory": "DFT", 
		 "functional": "B3LYP", 
		 "basiset": "6-31G**", 
		 "properties": { 
			 "R2extent": 3557.0048, 
			 "electric_dipole_moment_norm": 3.62130446939, 
			 "electric_quadrupole_moment_norm": 16.148162972, 
			 "total_energy": -631.990203765, 
			 "HOMO_LUMO_gap": 0.19874, 
			 "cosmo_polarized_energy": -10.05, 
			 "cosmo_cavitation_energy": 30.08, 
			 "cosmo_dispersion_energy": -21.36, 
			 "cosmo_repulsion_energy": 1.67, 
			 "cosmo_total_nonelectrostatic_energy": 10.38, 
			 "SMD_solvation_energy": 6.45 
		},
		"coords": [
			{
				"x": -3.5723371658,
				"y": -0.4942983279,
				"z": -0.452280123,
				"element": "O" 
			},
			{
				"x": -2.7414742749,
				"y": 0.0735480594,
				"z": -1.1339360909,
				"element": "C" 
			},
			{
				"x": -1.3868022258,
				"y": 0.1774341657,
				"z": -0.8506665134,
				"element": "N" 
			},
			{
				"x": -0.5587621688,
				"y": 0.9328368393,
				"z": -1.7433302195,
				"element": "C" 
			},
			{
				"x": -0.9179100865,
				"y": 2.2358297493,
				"z": -2.1079311068,
				"element": "C" 
			},
			{
				"x": -0.1314074609,
				"y": 2.9481617773,
				"z": -3.0161256612,
				"element": "C" 
			},
			{
				"x": 1.0265837573,
				"y": 2.3773851327,
				"z": -3.5431478425,
				"element": "C" 
			},
			{
				"x": 1.3943961291,
				"y": 1.0831389696,
				"z": -3.1628694782,
				"element": "C" 
			},
			{
				"x": 0.6045565479,
				"y": 0.3583415197,
				"z": -2.2738960183,
				"element": "C" 
			},
			{
				"x": -0.8049652393,
				"y": -0.4378400251,
				"z": 0.3066537106,
				"element": "C" 
			},
			{
				"x": 0.1936373701,
				"y": 0.2442819707,
				"z": 1.014908057,
				"element": "C" 
			},
			{
				"x": 0.7811129391,
				"y": -0.3419807384,
				"z": 2.134534895,
				"element": "C" 
			},
			{
				"x": 0.3728549206,
				"y": -1.6055812977,
				"z": 2.5648533402,
				"element": "C" 
			},
			{
				"x": -0.627341137,
				"y": -2.2790635641,
				"z": 1.8618282771,
				"element": "C" 
			},
			{
				"x": -1.2159543865,
				"y": -1.7071919723,
				"z": 0.7342761143,
				"element": "C" 
			},
			{
				"x": -2.9859453033,
				"y": 0.5745759444,
				"z": -2.0875932117,
				"element": "H" 
			},
			{
				"x": -1.7990950093,
				"y": 2.692622259,
				"z": -1.6684423849,
				"element": "H" 
			},
			{
				"x": -0.4197070796,
				"y": 3.9570269155,
				"z": -3.2962523247,
				"element": "H" 
			},
			{
				"x": 1.6421741359,
				"y": 2.9364987293,
				"z": -4.2412417143,
				"element": "H" 
			},
			{
				"x": 2.29418216,
				"y": 0.6311151183,
				"z": -3.5698127454,
				"element": "H" 
			},
			{
				"x": 0.8782682206,
				"y": -0.6516774028,
				"z": -1.9867565908,
				"element": "H" 
			},
			{
				"x": 0.5063314849,
				"y": 1.2299797882,
				"z": 0.686982075,
				"element": "H" 
			},
			{
				"x": 1.5547193313,
				"y": 0.1963985035,
				"z": 2.6743995646,
				"element": "H" 
			},
			{
				"x": 0.8282218058,
				"y": -2.0597159646,
				"z": 3.4398059429,
				"element": "H" 
			},
			{
				"x": -0.9536223862,
				"y": -3.2624958626,
				"z": 2.1876153396,
				"element": "H" 
			},
			{
				"x": -1.9985148787,
				"y": -2.2291302864,
				"z": 0.2001247093,
				"element": "H" 
			}
		],
		 "valence_orbital": [ 
			{
				"type": "occ",
				"energy": -0.27015,
				"method": "rhf"
			},
			{
				"type": "occ",
				"energy": -0.26485,
				"method": "rhf"
			},
			{
				"type": "occ",
				"energy": -0.25864,
				"method": "rhf"
			},
			{
				"type": "occ",
				"energy": -0.24879,
				"method": "rhf"
			},
			{
				"type": "occ",
				"energy": -0.21858,
				"method": "rhf"
			},
			{
				"type": "unocc",
				"energy": -0.01984,
				"method": "rhf"
			},
			{
				"type": "unocc",
				"energy": -0.01856,
				"method": "rhf"
			},
			{
				"type": "unocc",
				"energy": -0.014,
				"method": "rhf"
			},
			{
				"type": "unocc",
				"energy": 0.00057,
				"method": "rhf"
			},
			{
				"type": "unocc",
				"energy": 0.03735,
				"method": "rhf"
			}
		],
		"cosmo_sigma_profile": { 
			"-0.025": 0.0,
			"-0.024": 0.0,
			"-0.023": 0.0,
			"-0.022": 0.0,
			"-0.021": 0.0,
			"-0.02": 0.0,
			"-0.019": 0.0,
			"-0.018": 0.0,
			"-0.017": 0.0,
			"-0.016": 0.0,
			"-0.015": 0.0,
			"-0.014": 0.0,
			"-0.013": 0.0,
			"-0.012": 0.0,
			"-0.011": 0.0,
			"-0.01": 0.0,
			"-0.009": 0.0,
			"-0.008": 0.273265123398,
			"-0.007": 5.15342541007,
			"-0.006": 17.2240117584,
			"-0.005": 23.2848186556,
			"-0.004": 23.4484708053,
			"-0.003": 19.1512226441,
			"-0.002": 19.1668213291,
			"-0.001": 17.2304486502,
			"0.0": 12.9090150996,
			"0.001": 15.8006599651,
			"0.002": 15.7780097145,
			"0.003": 15.7348037929,
			"0.004": 18.5603079014,
			"0.005": 16.4757634803,
			"0.006": 3.31021172301,
			"0.007": 1.79455573423,
			"0.008": 1.78974925926,
			"0.009": 1.94997985275,
			"0.01": 1.41708951494,
			"0.011": 2.624054428,
			"0.012": 4.44030049596,
			"0.013": 3.1666954937,
			"0.014": 0.774094637381,
			"0.015": 0.0,
			"0.016": 0.0,
			"0.017": 0.0,
			"0.018": 0.0,
			"0.019": 0.0,
			"0.02": 0.0,
			"0.021": 0.0,
			"0.022": 0.0,
			"0.023": 0.0,
			"0.024": 0.0,
			"0.025": 0.0
		}
	}
}
