{
	 "smiles": "CC(=O)C1=C(C)NC(C(=O)CCl)=C1C", 
	 "Tm": 448.15, 
	 "num_atms": 26, 
	 "gaussian": { 
		 "optdone": 1, 
		 "sigma_profile": "yes", 
		 "theory": "DFT", 
		 "functional": "B3LYP", 
		 "basiset": "6-31G**", 
		 "properties": { 
			 "R2extent": 3891.1476, 
			 "electric_dipole_moment_norm": 1.73921538919, 
			 "electric_quadrupole_moment_norm": 17.3336009978, 
			 "total_energy": -1053.70356683, 
			 "HOMO_LUMO_gap": 0.16806, 
			 "cosmo_polarized_energy": -14.2, 
			 "cosmo_cavitation_energy": 30.8, 
			 "cosmo_dispersion_energy": -22.25, 
			 "cosmo_repulsion_energy": 1.75, 
			 "cosmo_total_nonelectrostatic_energy": 10.3, 
			 "SMD_solvation_energy": 5.98 
		},
		"coords": [
			{
				"x": 0.2061349315,
				"y": -3.4205689116,
				"z": -1.8326367775,
				"element": "C" 
			},
			{
				"x": 1.152247715,
				"y": -2.8008967721,
				"z": -0.8189356218,
				"element": "C" 
			},
			{
				"x": 2.2272515289,
				"y": -3.3471877508,
				"z": -0.5830907845,
				"element": "O" 
			},
			{
				"x": 0.7842852571,
				"y": -1.5499999717,
				"z": -0.1258683563,
				"element": "C" 
			},
			{
				"x": 1.6577505337,
				"y": -0.9413945649,
				"z": 0.8002089219,
				"element": "C" 
			},
			{
				"x": 3.0264628246,
				"y": -1.3247029545,
				"z": 1.2560991148,
				"element": "C" 
			},
			{
				"x": 1.0444049692,
				"y": 0.1619812397,
				"z": 1.2725018751,
				"element": "N" 
			},
			{
				"x": -0.2065625569,
				"y": 0.3337906274,
				"z": 0.6764625504,
				"element": "C" 
			},
			{
				"x": -1.1043737392,
				"y": 1.4174532306,
				"z": 1.0408749643,
				"element": "C" 
			},
			{
				"x": -2.1964111327,
				"y": 1.6091656983,
				"z": 0.512511051,
				"element": "O" 
			},
			{
				"x": -0.7445101204,
				"y": 2.3403139922,
				"z": 2.2199082866,
				"element": "C" 
			},
			{
				"x": 0.8261844892,
				"y": 3.2498498423,
				"z": 2.0286406849,
				"element": "Cl" 
			},
			{
				"x": -0.391611265,
				"y": -0.7374834173,
				"z": -0.2062416551,
				"element": "C" 
			},
			{
				"x": -1.6237025261,
				"y": -0.9554014723,
				"z": -1.036338626,
				"element": "C" 
			},
			{
				"x": -0.7469653815,
				"y": -3.6950117135,
				"z": -1.3687963171,
				"element": "H" 
			},
			{
				"x": -0.0189737672,
				"y": -2.7240145209,
				"z": -2.6465377176,
				"element": "H" 
			},
			{
				"x": 0.6805512698,
				"y": -4.3145459419,
				"z": -2.239152567,
				"element": "H" 
			},
			{
				"x": 3.4171970523,
				"y": -0.5929997032,
				"z": 1.9707276438,
				"element": "H" 
			},
			{
				"x": 3.0170480978,
				"y": -2.3132321375,
				"z": 1.7227020541,
				"element": "H" 
			},
			{
				"x": 3.711109411,
				"y": -1.4011138189,
				"z": 0.4075921863,
				"element": "H" 
			},
			{
				"x": 1.4922570501,
				"y": 0.8497758596,
				"z": 1.8628797198,
				"element": "H" 
			},
			{
				"x": -0.6617165895,
				"y": 1.7781288424,
				"z": 3.1535697937,
				"element": "H" 
			},
			{
				"x": -1.5320650668,
				"y": 3.0865023181,
				"z": 2.2994732207,
				"element": "H" 
			},
			{
				"x": -1.3881281332,
				"y": -0.9426695738,
				"z": -2.1061854934,
				"element": "H" 
			},
			{
				"x": -2.3509823881,
				"y": -0.1702965962,
				"z": -0.8380398907,
				"element": "H" 
			},
			{
				"x": -2.0854824637,
				"y": -1.9248418296,
				"z": -0.8215282605,
				"element": "H" 
			}
		],
		 "valence_orbital": [ 
			{
				"type": "occ",
				"energy": -0.32135,
				"method": "rhf"
			},
			{
				"type": "occ",
				"energy": -0.26084,
				"method": "rhf"
			},
			{
				"type": "occ",
				"energy": -0.25959,
				"method": "rhf"
			},
			{
				"type": "occ",
				"energy": -0.24288,
				"method": "rhf"
			},
			{
				"type": "occ",
				"energy": -0.23141,
				"method": "rhf"
			},
			{
				"type": "unocc",
				"energy": -0.06335,
				"method": "rhf"
			},
			{
				"type": "unocc",
				"energy": -0.03092,
				"method": "rhf"
			},
			{
				"type": "unocc",
				"energy": 0.0063,
				"method": "rhf"
			},
			{
				"type": "unocc",
				"energy": 0.06262,
				"method": "rhf"
			},
			{
				"type": "unocc",
				"energy": 0.07268,
				"method": "rhf"
			}
		],
		"cosmo_sigma_profile": { 
			"-0.025": 0.0,
			"-0.024": 0.0,
			"-0.023": 0.0,
			"-0.022": 0.0,
			"-0.021": 0.0,
			"-0.02": 0.0,
			"-0.019": 0.0,
			"-0.018": 0.0,
			"-0.017": 0.0,
			"-0.016": 0.0,
			"-0.015": 0.0,
			"-0.014": 0.0,
			"-0.013": 1.04184165862,
			"-0.012": 1.80101469914,
			"-0.011": 1.44119200148,
			"-0.01": 1.89095052755,
			"-0.009": 4.82953254189,
			"-0.008": 4.9162380517,
			"-0.007": 5.26320478097,
			"-0.006": 10.8198284299,
			"-0.005": 13.7702282142,
			"-0.004": 15.3220666898,
			"-0.003": 16.234327033,
			"-0.002": 20.0955593814,
			"-0.001": 25.7101265098,
			"0.0": 23.3093258978,
			"0.001": 18.542625154,
			"0.002": 16.6337239226,
			"0.003": 12.404272241,
			"0.004": 9.13727960218,
			"0.005": 10.1260205798,
			"0.006": 4.57580201846,
			"0.007": 3.71498318839,
			"0.008": 3.4997723386,
			"0.009": 3.08311254643,
			"0.01": 3.48726180178,
			"0.011": 4.79843566666,
			"0.012": 5.0763816083,
			"0.013": 3.04639538605,
			"0.014": 1.38759407103,
			"0.015": 0.17716049751,
			"0.016": 0.0,
			"0.017": 0.0,
			"0.018": 0.0,
			"0.019": 0.0,
			"0.02": 0.0,
			"0.021": 0.0,
			"0.022": 0.0,
			"0.023": 0.0,
			"0.024": 0.0,
			"0.025": 0.0
		}
	}
}
