{
	 "smiles": "ClC1=CC=C(CSC2=CC=C(Cl)C=C2)C=C1", 
	 "Tm": 348.15, 
	 "num_atms": 26, 
	 "gaussian": { 
		 "optdone": 1, 
		 "sigma_profile": "yes", 
		 "theory": "DFT", 
		 "functional": "B3LYP", 
		 "basiset": "6-31G**", 
		 "properties": { 
			 "R2extent": 7344.5125, 
			 "electric_dipole_moment_norm": 1.85087835095, 
			 "electric_quadrupole_moment_norm": 8.74006960384, 
			 "total_energy": -1819.98652151, 
			 "HOMO_LUMO_gap": 0.19566, 
			 "cosmo_polarized_energy": -7.87, 
			 "cosmo_cavitation_energy": 35.86, 
			 "cosmo_dispersion_energy": -25.17, 
			 "cosmo_repulsion_energy": 1.95, 
			 "cosmo_total_nonelectrostatic_energy": 12.65, 
			 "SMD_solvation_energy": 4.78 
		},
		"coords": [
			{
				"x": -4.6050968043,
				"y": 1.8396114238,
				"z": 2.5285950256,
				"element": "Cl" 
			},
			{
				"x": -3.0257531136,
				"y": 1.6282886776,
				"z": 1.7853749977,
				"element": "C" 
			},
			{
				"x": -2.0125999693,
				"y": 0.9881059819,
				"z": 2.4948661591,
				"element": "C" 
			},
			{
				"x": -0.7620525197,
				"y": 0.8281526674,
				"z": 1.8954118941,
				"element": "C" 
			},
			{
				"x": -0.5115156755,
				"y": 1.3001709489,
				"z": 0.6011332955,
				"element": "C" 
			},
			{
				"x": 0.8403211684,
				"y": 1.1198267694,
				"z": -0.0342319809,
				"element": "C" 
			},
			{
				"x": 0.9355519838,
				"y": -0.2239396628,
				"z": -1.3209162279,
				"element": "S" 
			},
			{
				"x": 0.689141669,
				"y": -1.6936100947,
				"z": -0.3239265946,
				"element": "C" 
			},
			{
				"x": 1.7898246101,
				"y": -2.3614688583,
				"z": 0.2311180768,
				"element": "C" 
			},
			{
				"x": 1.6130936096,
				"y": -3.5246004771,
				"z": 0.9797750961,
				"element": "C" 
			},
			{
				"x": 0.322675845,
				"y": -4.0207918562,
				"z": 1.1673726274,
				"element": "C" 
			},
			{
				"x": 0.0922757003,
				"y": -5.4869611684,
				"z": 2.107114829,
				"element": "Cl" 
			},
			{
				"x": -0.7865387885,
				"y": -3.3772890391,
				"z": 0.6193656915,
				"element": "C" 
			},
			{
				"x": -0.5972788066,
				"y": -2.2139424882,
				"z": -0.1269144893,
				"element": "C" 
			},
			{
				"x": -1.5528226904,
				"y": 1.9379254686,
				"z": -0.0892867985,
				"element": "C" 
			},
			{
				"x": -2.8065948433,
				"y": 2.1072527995,
				"z": 0.4923434347,
				"element": "C" 
			},
			{
				"x": -2.1974669477,
				"y": 0.6218256488,
				"z": 3.4986064654,
				"element": "H" 
			},
			{
				"x": 0.0297542235,
				"y": 0.3303698718,
				"z": 2.4483105002,
				"element": "H" 
			},
			{
				"x": 1.6086060469,
				"y": 0.9240454435,
				"z": 0.7175674841,
				"element": "H" 
			},
			{
				"x": 1.1380140172,
				"y": 2.0128738858,
				"z": -0.5921763988,
				"element": "H" 
			},
			{
				"x": 2.7899582076,
				"y": -1.9719175624,
				"z": 0.069329444,
				"element": "H" 
			},
			{
				"x": 2.4635208735,
				"y": -4.0436557164,
				"z": 1.4079309724,
				"element": "H" 
			},
			{
				"x": -1.7811948264,
				"y": -3.7808982689,
				"z": 0.7730003019,
				"element": "H" 
			},
			{
				"x": -1.4520452044,
				"y": -1.7069779164,
				"z": -0.5613772652,
				"element": "H" 
			},
			{
				"x": -1.3821379756,
				"y": 2.3040343448,
				"z": -1.0981975298,
				"element": "H" 
			},
			{
				"x": -3.6055397895,
				"y": 2.6061691772,
				"z": -0.0449890108,
				"element": "H" 
			}
		],
		 "valence_orbital": [ 
			{
				"type": "occ",
				"energy": -0.27321,
				"method": "rhf"
			},
			{
				"type": "occ",
				"energy": -0.26756,
				"method": "rhf"
			},
			{
				"type": "occ",
				"energy": -0.25568,
				"method": "rhf"
			},
			{
				"type": "occ",
				"energy": -0.2468,
				"method": "rhf"
			},
			{
				"type": "occ",
				"energy": -0.234,
				"method": "rhf"
			},
			{
				"type": "unocc",
				"energy": -0.03834,
				"method": "rhf"
			},
			{
				"type": "unocc",
				"energy": -0.02454,
				"method": "rhf"
			},
			{
				"type": "unocc",
				"energy": -0.0193,
				"method": "rhf"
			},
			{
				"type": "unocc",
				"energy": -0.01628,
				"method": "rhf"
			},
			{
				"type": "unocc",
				"energy": 0.02159,
				"method": "rhf"
			}
		],
		"cosmo_sigma_profile": { 
			"-0.025": 0.0,
			"-0.024": 0.0,
			"-0.023": 0.0,
			"-0.022": 0.0,
			"-0.021": 0.0,
			"-0.02": 0.0,
			"-0.019": 0.0,
			"-0.018": 0.0,
			"-0.017": 0.0,
			"-0.016": 0.0,
			"-0.015": 0.0,
			"-0.014": 0.0,
			"-0.013": 0.0,
			"-0.012": 0.0,
			"-0.011": 0.0,
			"-0.01": 0.0,
			"-0.009": 0.0,
			"-0.008": 1.18082987409,
			"-0.007": 11.7112695871,
			"-0.006": 21.5233081394,
			"-0.005": 19.0029826441,
			"-0.004": 15.1608961553,
			"-0.003": 16.5863348523,
			"-0.002": 15.9221704135,
			"-0.001": 17.4638271176,
			"0.0": 21.0295103711,
			"0.001": 27.2061246273,
			"0.002": 36.2374508056,
			"0.003": 36.7161861493,
			"0.004": 28.4369425657,
			"0.005": 16.3125045742,
			"0.006": 3.08012188821,
			"0.007": 2.38430943467,
			"0.008": 1.84409669558,
			"0.009": 1.73219453559,
			"0.01": 0.281839568317,
			"0.011": 0.0,
			"0.012": 0.0,
			"0.013": 0.0,
			"0.014": 0.0,
			"0.015": 0.0,
			"0.016": 0.0,
			"0.017": 0.0,
			"0.018": 0.0,
			"0.019": 0.0,
			"0.02": 0.0,
			"0.021": 0.0,
			"0.022": 0.0,
			"0.023": 0.0,
			"0.024": 0.0,
			"0.025": 0.0
		}
	}
}
