{
	 "smiles": "CC(C)C1=NC(C#N)=C(NN)O1", 
	 "Tm": 377.15, 
	 "num_atms": 22, 
	 "gaussian": { 
		 "optdone": 1, 
		 "sigma_profile": "yes", 
		 "theory": "DFT", 
		 "functional": "B3LYP", 
		 "basiset": "6-31G**", 
		 "properties": { 
			 "R2extent": 2563.3355, 
			 "electric_dipole_moment_norm": 6.39719338929, 
			 "electric_quadrupole_moment_norm": 16.557677322, 
			 "total_energy": -566.942792627, 
			 "HOMO_LUMO_gap": 0.20334, 
			 "cosmo_polarized_energy": -16.87, 
			 "cosmo_cavitation_energy": 27.62, 
			 "cosmo_dispersion_energy": -18.82, 
			 "cosmo_repulsion_energy": 1.56, 
			 "cosmo_total_nonelectrostatic_energy": 10.36, 
			 "SMD_solvation_energy": 5.18 
		},
		"coords": [
			{
				"x": -2.5630293553,
				"y": -1.368187461,
				"z": -0.2297436796,
				"element": "C" 
			},
			{
				"x": -1.1586960645,
				"y": -1.3451211874,
				"z": -0.8641757157,
				"element": "C" 
			},
			{
				"x": -1.1322467861,
				"y": -0.4919027625,
				"z": -2.1476436685,
				"element": "C" 
			},
			{
				"x": -0.1218187962,
				"y": -0.8930439587,
				"z": 0.1146020855,
				"element": "C" 
			},
			{
				"x": 0.9050700347,
				"y": -1.5187189575,
				"z": 0.5732854474,
				"element": "N" 
			},
			{
				"x": 1.5406257591,
				"y": -0.6149361155,
				"z": 1.4342760614,
				"element": "C" 
			},
			{
				"x": 2.7338759671,
				"y": -0.8760167867,
				"z": 2.1470622448,
				"element": "C" 
			},
			{
				"x": 3.716384995,
				"y": -1.0307901811,
				"z": 2.7548019711,
				"element": "N" 
			},
			{
				"x": 0.81250681,
				"y": 0.5559242629,
				"z": 1.4537213211,
				"element": "C" 
			},
			{
				"x": 0.9158051392,
				"y": 1.7212499139,
				"z": 2.1578334572,
				"element": "N" 
			},
			{
				"x": 0.38546694,
				"y": 2.9321106896,
				"z": 1.659382793,
				"element": "N" 
			},
			{
				"x": -0.2443463422,
				"y": 0.4051118152,
				"z": 0.6206935772,
				"element": "O" 
			},
			{
				"x": -3.2944605387,
				"y": -1.7524429436,
				"z": -0.9473821185,
				"element": "H" 
			},
			{
				"x": -2.5873154656,
				"y": -2.0073109386,
				"z": 0.6576901557,
				"element": "H" 
			},
			{
				"x": -2.8763873782,
				"y": -0.3616672017,
				"z": 0.0656987719,
				"element": "H" 
			},
			{
				"x": -0.8676231113,
				"y": -2.3702665673,
				"z": -1.1162282278,
				"element": "H" 
			},
			{
				"x": -1.3878324689,
				"y": 0.5504320651,
				"z": -1.9308227332,
				"element": "H" 
			},
			{
				"x": -1.8610838848,
				"y": -0.8738800264,
				"z": -2.8690610666,
				"element": "H" 
			},
			{
				"x": -0.1446162125,
				"y": -0.5117621647,
				"z": -2.6177502777,
				"element": "H" 
			},
			{
				"x": 1.7820359668,
				"y": 1.8425034901,
				"z": 2.6658484258,
				"element": "H" 
			},
			{
				"x": -0.6175739099,
				"y": 2.9300281624,
				"z": 1.8243750396,
				"element": "H" 
			},
			{
				"x": 0.5345587024,
				"y": 2.9951868537,
				"z": 0.6523361359,
				"element": "H" 
			}
		],
		 "valence_orbital": [ 
			{
				"type": "occ",
				"energy": -0.32923,
				"method": "rhf"
			},
			{
				"type": "occ",
				"energy": -0.31508,
				"method": "rhf"
			},
			{
				"type": "occ",
				"energy": -0.30972,
				"method": "rhf"
			},
			{
				"type": "occ",
				"energy": -0.29009,
				"method": "rhf"
			},
			{
				"type": "occ",
				"energy": -0.21925,
				"method": "rhf"
			},
			{
				"type": "unocc",
				"energy": -0.01591,
				"method": "rhf"
			},
			{
				"type": "unocc",
				"energy": 0.00567,
				"method": "rhf"
			},
			{
				"type": "unocc",
				"energy": 0.0237,
				"method": "rhf"
			},
			{
				"type": "unocc",
				"energy": 0.05642,
				"method": "rhf"
			},
			{
				"type": "unocc",
				"energy": 0.0793,
				"method": "rhf"
			}
		],
		"cosmo_sigma_profile": { 
			"-0.025": 0.0,
			"-0.024": 0.0,
			"-0.023": 0.0,
			"-0.022": 0.0,
			"-0.021": 0.0,
			"-0.02": 0.0,
			"-0.019": 0.0,
			"-0.018": 0.0,
			"-0.017": 0.0,
			"-0.016": 0.0174665753057,
			"-0.015": 0.729775790322,
			"-0.014": 1.06304967447,
			"-0.013": 1.19107674332,
			"-0.012": 3.55897349817,
			"-0.011": 3.83584113173,
			"-0.01": 4.86509094584,
			"-0.009": 3.50822849907,
			"-0.008": 2.97219941435,
			"-0.007": 3.05505665213,
			"-0.006": 4.20743981319,
			"-0.005": 5.25317504629,
			"-0.004": 14.8103258208,
			"-0.003": 23.4769519068,
			"-0.002": 21.2115496456,
			"-0.001": 18.7932529649,
			"0.0": 24.4979170827,
			"0.001": 15.7432371034,
			"0.002": 8.02230289986,
			"0.003": 7.93500065773,
			"0.004": 5.32184311054,
			"0.005": 4.85503194214,
			"0.006": 4.43123246559,
			"0.007": 4.11733199424,
			"0.008": 5.11379928583,
			"0.009": 5.13302802586,
			"0.01": 5.55630937692,
			"0.011": 4.71408118554,
			"0.012": 3.8301181846,
			"0.013": 3.74596295273,
			"0.014": 1.89004726816,
			"0.015": 1.08928438081,
			"0.016": 0.198155905146,
			"0.017": 0.0,
			"0.018": 0.0,
			"0.019": 0.0,
			"0.02": 0.0,
			"0.021": 0.0,
			"0.022": 0.0,
			"0.023": 0.0,
			"0.024": 0.0,
			"0.025": 0.0
		}
	}
}
