{
	 "smiles": "COC(=O)C1=CC=C(C=O)C=C1", 
	 "Tm": 333.65, 
	 "num_atms": 20, 
	 "gaussian": { 
		 "optdone": 1, 
		 "sigma_profile": "yes", 
		 "theory": "DFT", 
		 "functional": "B3LYP", 
		 "basiset": "6-31G**", 
		 "properties": { 
			 "R2extent": 3635.4915, 
			 "electric_dipole_moment_norm": 2.13986909413, 
			 "electric_quadrupole_moment_norm": 22.80017933, 
			 "total_energy": -573.452432366, 
			 "HOMO_LUMO_gap": 0.17774, 
			 "cosmo_polarized_energy": -10.19, 
			 "cosmo_cavitation_energy": 25.38, 
			 "cosmo_dispersion_energy": -18.4, 
			 "cosmo_repulsion_energy": 1.46, 
			 "cosmo_total_nonelectrostatic_energy": 8.43, 
			 "SMD_solvation_energy": 7.1 
		},
		"coords": [
			{
				"x": -0.9558236779,
				"y": -2.5385061511,
				"z": 1.0147121122,
				"element": "C" 
			},
			{
				"x": -0.4158028523,
				"y": -1.74774722,
				"z": -0.0566250649,
				"element": "O" 
			},
			{
				"x": -0.6656460463,
				"y": -0.4230537454,
				"z": 0.0229610444,
				"element": "C" 
			},
			{
				"x": -1.2991584669,
				"y": 0.0840903313,
				"z": 0.9276401728,
				"element": "O" 
			},
			{
				"x": -0.0761957433,
				"y": 0.3378420003,
				"z": -1.1198275149,
				"element": "C" 
			},
			{
				"x": 0.6502638386,
				"y": -0.2905651692,
				"z": -2.1451229377,
				"element": "C" 
			},
			{
				"x": 1.1763412525,
				"y": 0.4666699051,
				"z": -3.1840982932,
				"element": "C" 
			},
			{
				"x": 0.982376017,
				"y": 1.8562494959,
				"z": -3.2091665629,
				"element": "C" 
			},
			{
				"x": 1.5430017226,
				"y": 2.6671650396,
				"z": -4.3174464412,
				"element": "C" 
			},
			{
				"x": 2.183365161,
				"y": 2.2134273051,
				"z": -5.2458702256,
				"element": "O" 
			},
			{
				"x": 0.2573391149,
				"y": 2.4804616365,
				"z": -2.1851567326,
				"element": "C" 
			},
			{
				"x": -0.2708975079,
				"y": 1.725244944,
				"z": -1.1431696765,
				"element": "C" 
			},
			{
				"x": -2.0440415189,
				"y": -2.4450814169,
				"z": 1.0497524161,
				"element": "H" 
			},
			{
				"x": -0.6653326732,
				"y": -3.5658705992,
				"z": 0.7965656777,
				"element": "H" 
			},
			{
				"x": -0.5435486472,
				"y": -2.2171276071,
				"z": 1.9743541977,
				"element": "H" 
			},
			{
				"x": 0.7940259801,
				"y": -1.3642881195,
				"z": -2.1158552837,
				"element": "H" 
			},
			{
				"x": 1.7414593889,
				"y": 0.0077731301,
				"z": -3.9889856204,
				"element": "H" 
			},
			{
				"x": 1.3342152081,
				"y": 3.7576096776,
				"z": -4.2452463079,
				"element": "H" 
			},
			{
				"x": 0.1102467054,
				"y": 3.557609277,
				"z": -2.2099126254,
				"element": "H" 
			},
			{
				"x": -0.8355872553,
				"y": 2.183897286,
				"z": -0.338902334,
				"element": "H" 
			}
		],
		 "valence_orbital": [ 
			{
				"type": "occ",
				"energy": -0.31139,
				"method": "rhf"
			},
			{
				"type": "occ",
				"energy": -0.28414,
				"method": "rhf"
			},
			{
				"type": "occ",
				"energy": -0.27536,
				"method": "rhf"
			},
			{
				"type": "occ",
				"energy": -0.27154,
				"method": "rhf"
			},
			{
				"type": "occ",
				"energy": -0.2626,
				"method": "rhf"
			},
			{
				"type": "unocc",
				"energy": -0.08486,
				"method": "rhf"
			},
			{
				"type": "unocc",
				"energy": -0.02213,
				"method": "rhf"
			},
			{
				"type": "unocc",
				"energy": -0.00701,
				"method": "rhf"
			},
			{
				"type": "unocc",
				"energy": 0.06937,
				"method": "rhf"
			},
			{
				"type": "unocc",
				"energy": 0.09324,
				"method": "rhf"
			}
		],
		"cosmo_sigma_profile": { 
			"-0.025": 0.0,
			"-0.024": 0.0,
			"-0.023": 0.0,
			"-0.022": 0.0,
			"-0.021": 0.0,
			"-0.02": 0.0,
			"-0.019": 0.0,
			"-0.018": 0.0,
			"-0.017": 0.0,
			"-0.016": 0.0,
			"-0.015": 0.0,
			"-0.014": 0.0,
			"-0.013": 0.0,
			"-0.012": 0.0,
			"-0.011": 0.0,
			"-0.01": 0.0,
			"-0.009": 0.24250782514,
			"-0.008": 3.02304181823,
			"-0.007": 8.23684455545,
			"-0.006": 14.6586256641,
			"-0.005": 15.8238487317,
			"-0.004": 17.3034598739,
			"-0.003": 17.5724739232,
			"-0.002": 13.3566302417,
			"-0.001": 13.1344002771,
			"0.0": 16.6880393401,
			"0.001": 17.7827849332,
			"0.002": 18.3225813571,
			"0.003": 5.74922272467,
			"0.004": 5.40370537849,
			"0.005": 5.1367720393,
			"0.006": 3.22696240807,
			"0.007": 2.71851810886,
			"0.008": 3.56842355758,
			"0.009": 3.54834927254,
			"0.01": 5.13594366529,
			"0.011": 8.05596047081,
			"0.012": 4.43995941715,
			"0.013": 0.252754059403,
			"0.014": 0.0,
			"0.015": 0.0,
			"0.016": 0.0,
			"0.017": 0.0,
			"0.018": 0.0,
			"0.019": 0.0,
			"0.02": 0.0,
			"0.021": 0.0,
			"0.022": 0.0,
			"0.023": 0.0,
			"0.024": 0.0,
			"0.025": 0.0
		}
	}
}
