{
	 "smiles": "OC(=O)C1=C(Cl)C=CC(=C1)S(=O)(=O)NCCN1CCCC1", 
	 "Tm": 553.15, 
	 "num_atms": 38, 
	 "gaussian": { 
		 "optdone": 1, 
		 "sigma_profile": "yes", 
		 "theory": "DFT", 
		 "functional": "B3LYP", 
		 "basiset": "6-31G**", 
		 "properties": { 
			 "R2extent": 9768.0705, 
			 "electric_dipole_moment_norm": 4.01899996143, 
			 "electric_quadrupole_moment_norm": 26.7153027067, 
			 "total_energy": -1774.32714258, 
			 "HOMO_LUMO_gap": 0.14521, 
			 "cosmo_polarized_energy": -21.81, 
			 "cosmo_cavitation_energy": 44.05, 
			 "cosmo_dispersion_energy": -31.04, 
			 "cosmo_repulsion_energy": 2.38, 
			 "cosmo_total_nonelectrostatic_energy": 15.39, 
			 "SMD_solvation_energy": 3.91 
		},
		"coords": [
			{
				"x": -1.0382801993,
				"y": -5.200599399,
				"z": 0.002919135,
				"element": "O" 
			},
			{
				"x": -1.1676668822,
				"y": -3.863964781,
				"z": -0.0153695864,
				"element": "C" 
			},
			{
				"x": -1.8692597026,
				"y": -3.3112297481,
				"z": 0.8001993931,
				"element": "O" 
			},
			{
				"x": -0.4520879491,
				"y": -3.0576625301,
				"z": -1.0866493827,
				"element": "C" 
			},
			{
				"x": 0.6069236695,
				"y": -3.4460225455,
				"z": -1.9291478599,
				"element": "C" 
			},
			{
				"x": 1.3217489624,
				"y": -5.0627446863,
				"z": -1.8731685818,
				"element": "Cl" 
			},
			{
				"x": 1.177719142,
				"y": -2.5673393646,
				"z": -2.8505921234,
				"element": "C" 
			},
			{
				"x": 0.6949459173,
				"y": -1.2667484939,
				"z": -2.961073606,
				"element": "C" 
			},
			{
				"x": -0.3557532755,
				"y": -0.8645756436,
				"z": -2.1371852727,
				"element": "C" 
			},
			{
				"x": -0.9185723048,
				"y": -1.7402809378,
				"z": -1.2169893664,
				"element": "C" 
			},
			{
				"x": -1.0340892225,
				"y": 0.7903596927,
				"z": -2.344157873,
				"element": "S" 
			},
			{
				"x": -2.43158196,
				"y": 0.6861819727,
				"z": -2.7715600075,
				"element": "O" 
			},
			{
				"x": -0.0522358938,
				"y": 1.5384908276,
				"z": -3.1378600399,
				"element": "O" 
			},
			{
				"x": -1.1000375144,
				"y": 1.3378494664,
				"z": -0.7570256372,
				"element": "N" 
			},
			{
				"x": 0.0820642206,
				"y": 2.0093611743,
				"z": -0.1895378636,
				"element": "C" 
			},
			{
				"x": -0.1071429549,
				"y": 2.1831452795,
				"z": 1.3219959831,
				"element": "C" 
			},
			{
				"x": 1.0631151132,
				"y": 2.8430267863,
				"z": 1.9058456017,
				"element": "N" 
			},
			{
				"x": 2.1438993808,
				"y": 1.9042144581,
				"z": 2.2580268433,
				"element": "C" 
			},
			{
				"x": 1.8528718303,
				"y": 1.3923108013,
				"z": 3.699785573,
				"element": "C" 
			},
			{
				"x": 0.895615347,
				"y": 2.4591571989,
				"z": 4.2972261276,
				"element": "C" 
			},
			{
				"x": 0.7933985002,
				"y": 3.5292598348,
				"z": 3.1789777058,
				"element": "C" 
			},
			{
				"x": -0.4398059436,
				"y": -5.5165367831,
				"z": -0.6930400934,
				"element": "H" 
			},
			{
				"x": 1.9987948427,
				"y": -2.905126223,
				"z": -3.4724392142,
				"element": "H" 
			},
			{
				"x": 1.1265354046,
				"y": -0.5668726542,
				"z": -3.6678660998,
				"element": "H" 
			},
			{
				"x": -1.7201500989,
				"y": -1.4249669946,
				"z": -0.5595582391,
				"element": "H" 
			},
			{
				"x": -1.9726445268,
				"y": 1.8512330011,
				"z": -0.6515998954,
				"element": "H" 
			},
			{
				"x": 0.950755202,
				"y": 1.3741732076,
				"z": -0.3874955533,
				"element": "H" 
			},
			{
				"x": 0.2777014123,
				"y": 2.9817293837,
				"z": -0.6546503045,
				"element": "H" 
			},
			{
				"x": -0.3431246616,
				"y": 1.2020718834,
				"z": 1.7690803845,
				"element": "H" 
			},
			{
				"x": -0.9804697204,
				"y": 2.824839769,
				"z": 1.4916779963,
				"element": "H" 
			},
			{
				"x": 2.2184770659,
				"y": 1.0989056305,
				"z": 1.52199093,
				"element": "H" 
			},
			{
				"x": 3.0946509757,
				"y": 2.4506004405,
				"z": 2.237033575,
				"element": "H" 
			},
			{
				"x": 2.7765187178,
				"y": 1.2896418156,
				"z": 4.2768240436,
				"element": "H" 
			},
			{
				"x": 1.377767788,
				"y": 0.407021931,
				"z": 3.6811328738,
				"element": "H" 
			},
			{
				"x": -0.0870452968,
				"y": 2.0247461199,
				"z": 4.5066459708,
				"element": "H" 
			},
			{
				"x": 1.2665597863,
				"y": 2.8825964714,
				"z": 5.2352106817,
				"element": "H" 
			},
			{
				"x": -0.1705865818,
				"y": 4.0444515303,
				"z": 3.1469482019,
				"element": "H" 
			},
			{
				"x": 1.5685714107,
				"y": 4.2930021082,
				"z": 3.32274558,
				"element": "H" 
			}
		],
		 "valence_orbital": [ 
			{
				"type": "occ",
				"energy": -0.29791,
				"method": "rhf"
			},
			{
				"type": "occ",
				"energy": -0.29373,
				"method": "rhf"
			},
			{
				"type": "occ",
				"energy": -0.28679,
				"method": "rhf"
			},
			{
				"type": "occ",
				"energy": -0.27295,
				"method": "rhf"
			},
			{
				"type": "occ",
				"energy": -0.22245,
				"method": "rhf"
			},
			{
				"type": "unocc",
				"energy": -0.07724,
				"method": "rhf"
			},
			{
				"type": "unocc",
				"energy": -0.0585,
				"method": "rhf"
			},
			{
				"type": "unocc",
				"energy": -0.01269,
				"method": "rhf"
			},
			{
				"type": "unocc",
				"energy": 0.02155,
				"method": "rhf"
			},
			{
				"type": "unocc",
				"energy": 0.05275,
				"method": "rhf"
			}
		],
		"cosmo_sigma_profile": { 
			"-0.025": 0.0,
			"-0.024": 0.0,
			"-0.023": 0.0,
			"-0.022": 0.0,
			"-0.021": 0.0,
			"-0.02": 0.0,
			"-0.019": 0.0,
			"-0.018": 0.0,
			"-0.017": 0.0,
			"-0.016": 0.0,
			"-0.015": 0.325977631395,
			"-0.014": 1.43887313645,
			"-0.013": 2.23092899977,
			"-0.012": 2.24606647967,
			"-0.011": 2.752298778,
			"-0.01": 1.71892026771,
			"-0.009": 4.52508634279,
			"-0.008": 6.60845651361,
			"-0.007": 6.75282559149,
			"-0.006": 10.721723745,
			"-0.005": 15.4132772503,
			"-0.004": 20.2709006588,
			"-0.003": 31.4636442899,
			"-0.002": 46.0102830609,
			"-0.001": 45.0292581327,
			"0.0": 32.8564395258,
			"0.001": 22.024810909,
			"0.002": 15.5974685138,
			"0.003": 8.01452112925,
			"0.004": 6.85289454759,
			"0.005": 5.41874312446,
			"0.006": 4.63425254347,
			"0.007": 6.59853924595,
			"0.008": 7.15052959602,
			"0.009": 8.4315251806,
			"0.01": 13.9742830006,
			"0.011": 14.2772749634,
			"0.012": 4.79731901682,
			"0.013": 0.711478418295,
			"0.014": 0.526839409712,
			"0.015": 0.371398682719,
			"0.016": 0.371844199053,
			"0.017": 0.0,
			"0.018": 0.0,
			"0.019": 0.0,
			"0.02": 0.0,
			"0.021": 0.0,
			"0.022": 0.0,
			"0.023": 0.0,
			"0.024": 0.0,
			"0.025": 0.0
		}
	}
}
