{
	 "smiles": "CC(C)OC(=O)C(O)(C1=CC=C(Cl)C=C1)C1=CC=C(Cl)C=C1", 
	 "Tm": 346.15, 
	 "num_atms": 38, 
	 "gaussian": { 
		 "optdone": 1, 
		 "sigma_profile": "yes", 
		 "theory": "DFT", 
		 "functional": "B3LYP", 
		 "basiset": "6-31G**", 
		 "properties": { 
			 "R2extent": 10692.3441, 
			 "electric_dipole_moment_norm": 4.87828905355, 
			 "electric_quadrupole_moment_norm": 12.1232075541, 
			 "total_energy": -1803.52637337, 
			 "HOMO_LUMO_gap": 0.21097, 
			 "cosmo_polarized_energy": -10.89, 
			 "cosmo_cavitation_energy": 45.17, 
			 "cosmo_dispersion_energy": -30.97, 
			 "cosmo_repulsion_energy": 2.43, 
			 "cosmo_total_nonelectrostatic_energy": 16.63, 
			 "SMD_solvation_energy": 7.91 
		},
		"coords": [
			{
				"x": -0.9113335614,
				"y": 3.5418606136,
				"z": -1.6715055895,
				"element": "C" 
			},
			{
				"x": -1.0772316425,
				"y": 2.8630023432,
				"z": -0.3206210022,
				"element": "C" 
			},
			{
				"x": -2.4441628872,
				"y": 3.0776643242,
				"z": 0.3170321035,
				"element": "C" 
			},
			{
				"x": -0.8828865345,
				"y": 1.4291209348,
				"z": -0.5654252323,
				"element": "O" 
			},
			{
				"x": -0.41824659,
				"y": 0.6779080085,
				"z": 0.4512186351,
				"element": "C" 
			},
			{
				"x": -0.1476927868,
				"y": 1.1057053036,
				"z": 1.5518109811,
				"element": "O" 
			},
			{
				"x": -0.2131012113,
				"y": -0.7927569973,
				"z": -0.0020768706,
				"element": "C" 
			},
			{
				"x": -0.999941836,
				"y": -1.0615770156,
				"z": -1.1514094722,
				"element": "O" 
			},
			{
				"x": 1.2855247582,
				"y": -1.0033801265,
				"z": -0.3273133902,
				"element": "C" 
			},
			{
				"x": 1.6171269065,
				"y": -1.9432244084,
				"z": -1.3118955304,
				"element": "C" 
			},
			{
				"x": 2.9462842876,
				"y": -2.2015762919,
				"z": -1.6393174639,
				"element": "C" 
			},
			{
				"x": 3.9584651453,
				"y": -1.5079763768,
				"z": -0.9760924617,
				"element": "C" 
			},
			{
				"x": 5.6384402002,
				"y": -1.8224451437,
				"z": -1.3874985283,
				"element": "Cl" 
			},
			{
				"x": 3.655186803,
				"y": -0.5668575118,
				"z": 0.0043176465,
				"element": "C" 
			},
			{
				"x": 2.318805338,
				"y": -0.3191834901,
				"z": 0.3248325945,
				"element": "C" 
			},
			{
				"x": -0.6904007383,
				"y": -1.7401683879,
				"z": 1.1099306784,
				"element": "C" 
			},
			{
				"x": -1.8758943962,
				"y": -2.4646529325,
				"z": 0.9477812392,
				"element": "C" 
			},
			{
				"x": -2.3341856085,
				"y": -3.3211319724,
				"z": 1.9499297944,
				"element": "C" 
			},
			{
				"x": -1.6009632062,
				"y": -3.444911188,
				"z": 3.1269358206,
				"element": "C" 
			},
			{
				"x": -2.1705209489,
				"y": -4.5215303775,
				"z": 4.3963374781,
				"element": "Cl" 
			},
			{
				"x": -0.4189983759,
				"y": -2.7290278778,
				"z": 3.3130059504,
				"element": "C" 
			},
			{
				"x": 0.0303478237,
				"y": -1.8825355397,
				"z": 2.3018292528,
				"element": "C" 
			},
			{
				"x": 0.0734147072,
				"y": 3.3308742525,
				"z": -2.0974776133,
				"element": "H" 
			},
			{
				"x": -1.0108854397,
				"y": 4.6253766746,
				"z": -1.5563508244,
				"element": "H" 
			},
			{
				"x": -1.6765704005,
				"y": 3.201620619,
				"z": -2.3765435854,
				"element": "H" 
			},
			{
				"x": -0.2904461119,
				"y": 3.1733341961,
				"z": 0.3722860895,
				"element": "H" 
			},
			{
				"x": -3.239225172,
				"y": 2.7094573098,
				"z": -0.3390543904,
				"element": "H" 
			},
			{
				"x": -2.5073311502,
				"y": 2.561208026,
				"z": 1.2774988205,
				"element": "H" 
			},
			{
				"x": -2.6089315384,
				"y": 4.1456268594,
				"z": 0.4919085352,
				"element": "H" 
			},
			{
				"x": -0.9788255361,
				"y": -0.2648285878,
				"z": -1.6999395074,
				"element": "H" 
			},
			{
				"x": 0.8213224158,
				"y": -2.4687503011,
				"z": -1.8271847001,
				"element": "H" 
			},
			{
				"x": 3.1959768484,
				"y": -2.9316326075,
				"z": -2.4014374781,
				"element": "H" 
			},
			{
				"x": 4.4508298156,
				"y": -0.0306132127,
				"z": 0.5096639218,
				"element": "H" 
			},
			{
				"x": 2.0905620987,
				"y": 0.4180418478,
				"z": 1.0870139057,
				"element": "H" 
			},
			{
				"x": -2.4392005689,
				"y": -2.3612629956,
				"z": 0.0290295265,
				"element": "H" 
			},
			{
				"x": -3.2510010979,
				"y": -3.8848552769,
				"z": 1.8168017046,
				"element": "H" 
			},
			{
				"x": 0.1431285298,
				"y": -2.8349775358,
				"z": 4.2340999036,
				"element": "H" 
			},
			{
				"x": 0.9519616611,
				"y": -1.3331451578,
				"z": 2.4509790581,
				"element": "H" 
			}
		],
		 "valence_orbital": [ 
			{
				"type": "occ",
				"energy": -0.27979,
				"method": "rhf"
			},
			{
				"type": "occ",
				"energy": -0.26644,
				"method": "rhf"
			},
			{
				"type": "occ",
				"energy": -0.2584,
				"method": "rhf"
			},
			{
				"type": "occ",
				"energy": -0.24722,
				"method": "rhf"
			},
			{
				"type": "occ",
				"energy": -0.23777,
				"method": "rhf"
			},
			{
				"type": "unocc",
				"energy": -0.0268,
				"method": "rhf"
			},
			{
				"type": "unocc",
				"energy": -0.0236,
				"method": "rhf"
			},
			{
				"type": "unocc",
				"energy": -0.01117,
				"method": "rhf"
			},
			{
				"type": "unocc",
				"energy": -0.00588,
				"method": "rhf"
			},
			{
				"type": "unocc",
				"energy": 0.00326,
				"method": "rhf"
			}
		],
		"cosmo_sigma_profile": { 
			"-0.025": 0.0,
			"-0.024": 0.0,
			"-0.023": 0.0,
			"-0.022": 0.0,
			"-0.021": 0.0,
			"-0.02": 0.0,
			"-0.019": 0.0,
			"-0.018": 0.0,
			"-0.017": 0.0,
			"-0.016": 0.0,
			"-0.015": 0.0,
			"-0.014": 0.0343099639287,
			"-0.013": 0.573133073332,
			"-0.012": 0.446791724336,
			"-0.011": 0.426210550401,
			"-0.01": 1.31535702342,
			"-0.009": 0.496874989858,
			"-0.008": 1.07957680007,
			"-0.007": 7.40122716904,
			"-0.006": 12.0538483466,
			"-0.005": 20.3224134081,
			"-0.004": 27.4383724324,
			"-0.003": 30.486451666,
			"-0.002": 28.1839968101,
			"-0.001": 30.7493262127,
			"0.0": 35.1740653812,
			"0.001": 31.8440299984,
			"0.002": 33.9599802867,
			"0.003": 39.4432340529,
			"0.004": 28.4893747271,
			"0.005": 17.8246169595,
			"0.006": 3.22765872626,
			"0.007": 2.54396993388,
			"0.008": 2.55997841047,
			"0.009": 2.46757236078,
			"0.01": 2.6265801491,
			"0.011": 2.78651981407,
			"0.012": 0.100974024652,
			"0.013": 0.0,
			"0.014": 0.0,
			"0.015": 0.0,
			"0.016": 0.0,
			"0.017": 0.0,
			"0.018": 0.0,
			"0.019": 0.0,
			"0.02": 0.0,
			"0.021": 0.0,
			"0.022": 0.0,
			"0.023": 0.0,
			"0.024": 0.0,
			"0.025": 0.0
		}
	}
}
