{
	 "smiles": "CCOC(=O)CC1=CNC2=C1C=CC=C2", 
	 "Tm": 316.95, 
	 "num_atms": 28, 
	 "gaussian": { 
		 "optdone": 1, 
		 "sigma_profile": "yes", 
		 "theory": "DFT", 
		 "functional": "B3LYP", 
		 "basiset": "6-31G**", 
		 "properties": { 
			 "R2extent": 4022.7389, 
			 "electric_dipole_moment_norm": 1.53593600453, 
			 "electric_quadrupole_moment_norm": 19.9412870781, 
			 "total_energy": -670.333475594, 
			 "HOMO_LUMO_gap": 0.19097, 
			 "cosmo_polarized_energy": -12.99, 
			 "cosmo_cavitation_energy": 32.06, 
			 "cosmo_dispersion_energy": -22.37, 
			 "cosmo_repulsion_energy": 1.78, 
			 "cosmo_total_nonelectrostatic_energy": 11.47, 
			 "SMD_solvation_energy": 6.34 
		},
		"coords": [
			{
				"x": -0.515644169,
				"y": 0.3887089924,
				"z": 4.3261655604,
				"element": "C" 
			},
			{
				"x": -1.5795680591,
				"y": 0.329986119,
				"z": 3.2466352865,
				"element": "C" 
			},
			{
				"x": -1.233409355,
				"y": 1.3095149322,
				"z": 2.2401757644,
				"element": "O" 
			},
			{
				"x": -2.0478201299,
				"y": 1.3611053229,
				"z": 1.1623694978,
				"element": "C" 
			},
			{
				"x": -3.0400689617,
				"y": 0.6771931521,
				"z": 1.0362736517,
				"element": "O" 
			},
			{
				"x": -1.5351748686,
				"y": 2.3590518989,
				"z": 0.1317412137,
				"element": "C" 
			},
			{
				"x": -0.5162693611,
				"y": 1.7400167296,
				"z": -0.788923967,
				"element": "C" 
			},
			{
				"x": -0.7479882162,
				"y": 1.2984916384,
				"z": -2.0677958035,
				"element": "C" 
			},
			{
				"x": 0.4163229062,
				"y": 0.7868117091,
				"z": -2.607762718,
				"element": "N" 
			},
			{
				"x": 1.4320254796,
				"y": 0.8892121612,
				"z": -1.6784629078,
				"element": "C" 
			},
			{
				"x": 0.8766142325,
				"y": 1.4828795949,
				"z": -0.5111873693,
				"element": "C" 
			},
			{
				"x": 1.7093985413,
				"y": 1.7008161283,
				"z": 0.6010269334,
				"element": "C" 
			},
			{
				"x": 3.0476977069,
				"y": 1.3366381788,
				"z": 0.5215231322,
				"element": "C" 
			},
			{
				"x": 3.5772401172,
				"y": 0.7518237311,
				"z": -0.6476268659,
				"element": "C" 
			},
			{
				"x": 2.7786734999,
				"y": 0.518978685,
				"z": -1.7613783674,
				"element": "C" 
			},
			{
				"x": 0.4703500518,
				"y": 0.1565114132,
				"z": 3.9136249614,
				"element": "H" 
			},
			{
				"x": -0.741587547,
				"y": -0.3400586532,
				"z": 5.1109704743,
				"element": "H" 
			},
			{
				"x": -0.4741906338,
				"y": 1.3823437715,
				"z": 4.7820135126,
				"element": "H" 
			},
			{
				"x": -2.5758782616,
				"y": 0.5623886538,
				"z": 3.6364711288,
				"element": "H" 
			},
			{
				"x": -1.633434745,
				"y": -0.655858569,
				"z": 2.7745807972,
				"element": "H" 
			},
			{
				"x": -2.4024483947,
				"y": 2.6966488259,
				"z": -0.4406211339,
				"element": "H" 
			},
			{
				"x": -1.1050461005,
				"y": 3.2211206593,
				"z": 0.6527349118,
				"element": "H" 
			},
			{
				"x": -1.663857942,
				"y": 1.3111654911,
				"z": -2.6420117955,
				"element": "H" 
			},
			{
				"x": 0.5096763561,
				"y": 0.4118357124,
				"z": -3.5371965989,
				"element": "H" 
			},
			{
				"x": 1.3040386365,
				"y": 2.1338853445,
				"z": 1.5099192298,
				"element": "H" 
			},
			{
				"x": 3.7005008296,
				"y": 1.5006846941,
				"z": 1.3740605179,
				"element": "H" 
			},
			{
				"x": 4.6274768446,
				"y": 0.476566854,
				"z": -0.6782623901,
				"element": "H" 
			},
			{
				"x": 3.186171543,
				"y": 0.0670368284,
				"z": -2.6615566565,
				"element": "H" 
			}
		],
		 "valence_orbital": [ 
			{
				"type": "occ",
				"energy": -0.29334,
				"method": "rhf"
			},
			{
				"type": "occ",
				"energy": -0.27893,
				"method": "rhf"
			},
			{
				"type": "occ",
				"energy": -0.25674,
				"method": "rhf"
			},
			{
				"type": "occ",
				"energy": -0.21861,
				"method": "rhf"
			},
			{
				"type": "occ",
				"energy": -0.19924,
				"method": "rhf"
			},
			{
				"type": "unocc",
				"energy": -0.00827,
				"method": "rhf"
			},
			{
				"type": "unocc",
				"energy": 0.01886,
				"method": "rhf"
			},
			{
				"type": "unocc",
				"energy": 0.03052,
				"method": "rhf"
			},
			{
				"type": "unocc",
				"energy": 0.07316,
				"method": "rhf"
			},
			{
				"type": "unocc",
				"energy": 0.08176,
				"method": "rhf"
			}
		],
		"cosmo_sigma_profile": { 
			"-0.025": 0.0,
			"-0.024": 0.0,
			"-0.023": 0.0,
			"-0.022": 0.0,
			"-0.021": 0.0,
			"-0.02": 0.0,
			"-0.019": 0.0,
			"-0.018": 0.0,
			"-0.017": 0.0,
			"-0.016": 0.362746107656,
			"-0.015": 1.76402575977,
			"-0.014": 1.24950058559,
			"-0.013": 1.29986327336,
			"-0.012": 1.04513863309,
			"-0.011": 1.35613975896,
			"-0.01": 1.2202333814,
			"-0.009": 1.36322427059,
			"-0.008": 2.88931910554,
			"-0.007": 4.30201124195,
			"-0.006": 6.37978800859,
			"-0.005": 15.3499453612,
			"-0.004": 22.5341605859,
			"-0.003": 27.685482335,
			"-0.002": 23.1574375869,
			"-0.001": 17.6165387224,
			"0.0": 19.6216948504,
			"0.001": 11.8068652841,
			"0.002": 11.0922975212,
			"0.003": 12.5309247116,
			"0.004": 15.1347690763,
			"0.005": 17.1581250766,
			"0.006": 12.5030119311,
			"0.007": 9.33362069542,
			"0.008": 2.52305868457,
			"0.009": 1.6125005817,
			"0.01": 1.54219389993,
			"0.011": 3.03857942481,
			"0.012": 4.66328263547,
			"0.013": 1.98035704462,
			"0.014": 0.0634906793174,
			"0.015": 0.0,
			"0.016": 0.0,
			"0.017": 0.0,
			"0.018": 0.0,
			"0.019": 0.0,
			"0.02": 0.0,
			"0.021": 0.0,
			"0.022": 0.0,
			"0.023": 0.0,
			"0.024": 0.0,
			"0.025": 0.0
		}
	}
}
