{
	 "smiles": "CC1=CC=C(N)C=N1", 
	 "Tm": 370.15, 
	 "num_atms": 16, 
	 "gaussian": { 
		 "optdone": 1, 
		 "sigma_profile": "yes", 
		 "theory": "DFT", 
		 "functional": "B3LYP", 
		 "basiset": "6-31G**", 
		 "properties": { 
			 "R2extent": 1490.4969, 
			 "electric_dipole_moment_norm": 2.8669620437, 
			 "electric_quadrupole_moment_norm": 9.92652841279, 
			 "total_energy": -342.966149738, 
			 "HOMO_LUMO_gap": 0.19378, 
			 "cosmo_polarized_energy": -10.36, 
			 "cosmo_cavitation_energy": 19.53, 
			 "cosmo_dispersion_energy": -14.73, 
			 "cosmo_repulsion_energy": 1.23, 
			 "cosmo_total_nonelectrostatic_energy": 6.03, 
			 "SMD_solvation_energy": 2.18 
		},
		"coords": [
			{
				"x": -2.9467332645,
				"y": 0.9314176232,
				"z": 2.6980773014,
				"element": "C" 
			},
			{
				"x": -1.7212989033,
				"y": 0.9299664468,
				"z": 1.8158131517,
				"element": "C" 
			},
			{
				"x": -1.2229587759,
				"y": -0.2523288473,
				"z": 1.2491018432,
				"element": "C" 
			},
			{
				"x": -0.094578631,
				"y": -0.2124856855,
				"z": 0.4400598234,
				"element": "C" 
			},
			{
				"x": 0.5343362024,
				"y": 1.0190202384,
				"z": 0.2014873933,
				"element": "C" 
			},
			{
				"x": 1.635526782,
				"y": 1.1346645746,
				"z": -0.6484493757,
				"element": "N" 
			},
			{
				"x": -0.036991493,
				"y": 2.1460109213,
				"z": 0.8152612298,
				"element": "C" 
			},
			{
				"x": -1.1213454686,
				"y": 2.1092784882,
				"z": 1.5916386862,
				"element": "N" 
			},
			{
				"x": -3.8341281982,
				"y": 0.5840895908,
				"z": 2.1553480478,
				"element": "H" 
			},
			{
				"x": -2.8209660239,
				"y": 0.2730898111,
				"z": 3.5658257709,
				"element": "H" 
			},
			{
				"x": -3.1358385379,
				"y": 1.9451935572,
				"z": 3.0554012477,
				"element": "H" 
			},
			{
				"x": -1.71841009,
				"y": -1.1997120148,
				"z": 1.4439264405,
				"element": "H" 
			},
			{
				"x": 0.2980005503,
				"y": -1.1223510176,
				"z": -0.0082821689,
				"element": "H" 
			},
			{
				"x": 2.1987711946,
				"y": 1.9618943986,
				"z": -0.5033977604,
				"element": "H" 
			},
			{
				"x": 2.2069531129,
				"y": 0.3042364197,
				"z": -0.7258964617,
				"element": "H" 
			},
			{
				"x": 0.4147615442,
				"y": 3.1273154955,
				"z": 0.6622848307,
				"element": "H" 
			}
		],
		 "valence_orbital": [ 
			{
				"type": "occ",
				"energy": -0.35643,
				"method": "rhf"
			},
			{
				"type": "occ",
				"energy": -0.31773,
				"method": "rhf"
			},
			{
				"type": "occ",
				"energy": -0.26764,
				"method": "rhf"
			},
			{
				"type": "occ",
				"energy": -0.24119,
				"method": "rhf"
			},
			{
				"type": "occ",
				"energy": -0.20441,
				"method": "rhf"
			},
			{
				"type": "unocc",
				"energy": -0.01063,
				"method": "rhf"
			},
			{
				"type": "unocc",
				"energy": 0.0127,
				"method": "rhf"
			},
			{
				"type": "unocc",
				"energy": 0.07758,
				"method": "rhf"
			},
			{
				"type": "unocc",
				"energy": 0.10914,
				"method": "rhf"
			},
			{
				"type": "unocc",
				"energy": 0.12847,
				"method": "rhf"
			}
		],
		"cosmo_sigma_profile": { 
			"-0.025": 0.0,
			"-0.024": 0.0,
			"-0.023": 0.0,
			"-0.022": 0.0,
			"-0.021": 0.0,
			"-0.02": 0.0,
			"-0.019": 0.0,
			"-0.018": 0.0,
			"-0.017": 0.0,
			"-0.016": 0.0,
			"-0.015": 0.0,
			"-0.014": 0.0,
			"-0.013": 0.62503056939,
			"-0.012": 2.88518778567,
			"-0.011": 2.62268539486,
			"-0.01": 3.66044902654,
			"-0.009": 3.33187789594,
			"-0.008": 2.58370224677,
			"-0.007": 3.62772404055,
			"-0.006": 5.98403075815,
			"-0.005": 7.13883601114,
			"-0.004": 8.70088399808,
			"-0.003": 11.5374819699,
			"-0.002": 11.5255270554,
			"-0.001": 10.0909292418,
			"0.0": 12.1412407702,
			"0.001": 9.88315677754,
			"0.002": 7.63984274855,
			"0.003": 7.85217607498,
			"0.004": 13.5454778259,
			"0.005": 7.42660803371,
			"0.006": 3.76161004529,
			"0.007": 2.90965318356,
			"0.008": 1.95109977702,
			"0.009": 2.35833605921,
			"0.01": 2.08957548537,
			"0.011": 1.82450282303,
			"0.012": 1.61466682882,
			"0.013": 1.27333737346,
			"0.014": 1.62870119173,
			"0.015": 0.896807152592,
			"0.016": 0.660846747867,
			"0.017": 0.734660145249,
			"0.018": 0.000794839661254,
			"0.019": 0.0,
			"0.02": 0.0,
			"0.021": 0.0,
			"0.022": 0.0,
			"0.023": 0.0,
			"0.024": 0.0,
			"0.025": 0.0
		}
	}
}
