{
	 "smiles": "NC1=NC=NC2=C1N=CN2C=C=C", 
	 "Tm": 459.15, 
	 "num_atms": 20, 
	 "gaussian": { 
		 "optdone": 1, 
		 "sigma_profile": "yes", 
		 "theory": "DFT", 
		 "functional": "B3LYP", 
		 "basiset": "6-31G**", 
		 "properties": { 
			 "R2extent": 2497.2718, 
			 "electric_dipole_moment_norm": 1.97079410898, 
			 "electric_quadrupole_moment_norm": 10.8892150516, 
			 "total_energy": -582.77592711, 
			 "HOMO_LUMO_gap": 0.19272, 
			 "cosmo_polarized_energy": -14.91, 
			 "cosmo_cavitation_energy": 25.75, 
			 "cosmo_dispersion_energy": -18.81, 
			 "cosmo_repulsion_energy": 1.49, 
			 "cosmo_total_nonelectrostatic_energy": 8.43, 
			 "SMD_solvation_energy": 1.65 
		},
		"coords": [
			{
				"x": -2.6632531468,
				"y": 0.641862403,
				"z": 3.1788211758,
				"element": "N" 
			},
			{
				"x": -2.0103358162,
				"y": 0.8559924937,
				"z": 2.0095405975,
				"element": "C" 
			},
			{
				"x": -2.3327630295,
				"y": 1.9337483287,
				"z": 1.2726524431,
				"element": "N" 
			},
			{
				"x": -1.6976654853,
				"y": 2.1163708939,
				"z": 0.1032047897,
				"element": "C" 
			},
			{
				"x": -0.7507582225,
				"y": 1.3625422652,
				"z": -0.464637576,
				"element": "N" 
			},
			{
				"x": -0.4486791873,
				"y": 0.3041646891,
				"z": 0.2948768179,
				"element": "C" 
			},
			{
				"x": -1.0186864162,
				"y": -0.0250640896,
				"z": 1.5298329554,
				"element": "C" 
			},
			{
				"x": -0.4712449022,
				"y": -1.1843320222,
				"z": 2.0528484467,
				"element": "N" 
			},
			{
				"x": 0.4065843846,
				"y": -1.5471430646,
				"z": 1.1538255313,
				"element": "C" 
			},
			{
				"x": 0.4818669591,
				"y": -0.6985032619,
				"z": 0.056005418,
				"element": "N" 
			},
			{
				"x": 1.3533084842,
				"y": -0.8827314073,
				"z": -1.0409884905,
				"element": "C" 
			},
			{
				"x": 1.4573577419,
				"y": -0.1130711257,
				"z": -2.0978784416,
				"element": "C" 
			},
			{
				"x": 1.6321149754,
				"y": 0.589136398,
				"z": -3.1823474223,
				"element": "C" 
			},
			{
				"x": -2.3296261755,
				"y": -0.0726921812,
				"z": 3.8050937949,
				"element": "H" 
			},
			{
				"x": -3.2566883129,
				"y": 1.3761285514,
				"z": 3.5304807911,
				"element": "H" 
			},
			{
				"x": -1.9970295415,
				"y": 3.0017881521,
				"z": -0.4542424035,
				"element": "H" 
			},
			{
				"x": 1.0414786895,
				"y": -2.4218970717,
				"z": 1.2145757153,
				"element": "H" 
			},
			{
				"x": 1.9757762874,
				"y": -1.7687221358,
				"z": -0.9425496316,
				"element": "H" 
			},
			{
				"x": 2.3455429318,
				"y": 1.410228009,
				"z": -3.2209229052,
				"element": "H" 
			},
			{
				"x": 1.0487997819,
				"y": 0.4029941758,
				"z": -4.082191606,
				"element": "H" 
			}
		],
		 "valence_orbital": [ 
			{
				"type": "occ",
				"energy": -0.27934,
				"method": "rhf"
			},
			{
				"type": "occ",
				"energy": -0.27102,
				"method": "rhf"
			},
			{
				"type": "occ",
				"energy": -0.24338,
				"method": "rhf"
			},
			{
				"type": "occ",
				"energy": -0.23809,
				"method": "rhf"
			},
			{
				"type": "occ",
				"energy": -0.21696,
				"method": "rhf"
			},
			{
				"type": "unocc",
				"energy": -0.02424,
				"method": "rhf"
			},
			{
				"type": "unocc",
				"energy": -0.00691,
				"method": "rhf"
			},
			{
				"type": "unocc",
				"energy": -0.00275,
				"method": "rhf"
			},
			{
				"type": "unocc",
				"energy": 0.02444,
				"method": "rhf"
			},
			{
				"type": "unocc",
				"energy": 0.06371,
				"method": "rhf"
			}
		],
		"cosmo_sigma_profile": { 
			"-0.025": 0.0,
			"-0.024": 0.0,
			"-0.023": 0.0,
			"-0.022": 0.0,
			"-0.021": 0.0,
			"-0.02": 0.0,
			"-0.019": 0.0,
			"-0.018": 0.0,
			"-0.017": 0.0,
			"-0.016": 0.0,
			"-0.015": 0.0806165984277,
			"-0.014": 1.58548684574,
			"-0.013": 1.70391536196,
			"-0.012": 2.54022268257,
			"-0.011": 4.34998535623,
			"-0.01": 5.6813140816,
			"-0.009": 4.83617960502,
			"-0.008": 4.84956723211,
			"-0.007": 7.61588594684,
			"-0.006": 8.09811147112,
			"-0.005": 7.95827004726,
			"-0.004": 8.4511874649,
			"-0.003": 9.12258556271,
			"-0.002": 10.9992224546,
			"-0.001": 15.1159196966,
			"0.0": 18.2648685286,
			"0.001": 16.3004434152,
			"0.002": 16.3553248321,
			"0.003": 13.4026497544,
			"0.004": 8.58197273861,
			"0.005": 6.17416866543,
			"0.006": 6.00279109673,
			"0.007": 4.88284029526,
			"0.008": 3.64348190101,
			"0.009": 3.15367344689,
			"0.01": 4.12613960446,
			"0.011": 3.24605954983,
			"0.012": 3.21422212651,
			"0.013": 3.76956860076,
			"0.014": 2.18173817771,
			"0.015": 1.45073493744,
			"0.016": 0.233121019434,
			"0.017": 0.0,
			"0.018": 0.0,
			"0.019": 0.0,
			"0.02": 0.0,
			"0.021": 0.0,
			"0.022": 0.0,
			"0.023": 0.0,
			"0.024": 0.0,
			"0.025": 0.0
		}
	}
}
