{
	 "smiles": "[O-][N+](=O)C1=CC=C(C=C1)C(=O)C(=O)C1=CC=CC=C1", 
	 "Tm": 415.15, 
	 "num_atms": 28, 
	 "gaussian": { 
		 "optdone": 1, 
		 "sigma_profile": "yes", 
		 "theory": "DFT", 
		 "functional": "B3LYP", 
		 "basiset": "6-31G**", 
		 "properties": { 
			 "R2extent": 7523.4366, 
			 "electric_dipole_moment_norm": 5.10599997454, 
			 "electric_quadrupole_moment_norm": 20.5427975807, 
			 "total_energy": -894.447766777, 
			 "HOMO_LUMO_gap": 0.138, 
			 "cosmo_polarized_energy": -12.17, 
			 "cosmo_cavitation_energy": 34.61, 
			 "cosmo_dispersion_energy": -24.91, 
			 "cosmo_repulsion_energy": 1.88, 
			 "cosmo_total_nonelectrostatic_energy": 11.58, 
			 "SMD_solvation_energy": 9.08 
		},
		"coords": [
			{
				"x": -4.9549911487,
				"y": -1.6264653348,
				"z": 3.1563754912,
				"element": "O" 
			},
			{
				"x": -4.8696409765,
				"y": -1.4019502707,
				"z": 1.9504762555,
				"element": "N" 
			},
			{
				"x": -5.8246966632,
				"y": -1.3000029448,
				"z": 1.1829163044,
				"element": "O" 
			},
			{
				"x": -3.5168701644,
				"y": -1.2413092395,
				"z": 1.3817768046,
				"element": "C" 
			},
			{
				"x": -3.3880716034,
				"y": -0.9854688864,
				"z": 0.0191168531,
				"element": "C" 
			},
			{
				"x": -2.11150806,
				"y": -0.8332355053,
				"z": -0.515864369,
				"element": "C" 
			},
			{
				"x": -0.9819887692,
				"y": -0.9357664539,
				"z": 0.3131385037,
				"element": "C" 
			},
			{
				"x": -1.1463816538,
				"y": -1.193258019,
				"z": 1.6853021224,
				"element": "C" 
			},
			{
				"x": -2.4143259739,
				"y": -1.350329434,
				"z": 2.2291940722,
				"element": "C" 
			},
			{
				"x": 0.418435002,
				"y": -0.7390711589,
				"z": -0.1784728278,
				"element": "C" 
			},
			{
				"x": 1.3775662445,
				"y": -0.8045224047,
				"z": 0.5757752999,
				"element": "O" 
			},
			{
				"x": 0.6734065643,
				"y": -0.5350309564,
				"z": -1.6851361131,
				"element": "C" 
			},
			{
				"x": 0.1092982578,
				"y": -1.3015121353,
				"z": -2.4561277208,
				"element": "O" 
			},
			{
				"x": 1.6240299501,
				"y": 0.5105020268,
				"z": -2.1412147106,
				"element": "C" 
			},
			{
				"x": 1.8714755928,
				"y": 0.5980001192,
				"z": -3.5231436982,
				"element": "C" 
			},
			{
				"x": 2.7241374274,
				"y": 1.5750216432,
				"z": -4.0231275015,
				"element": "C" 
			},
			{
				"x": 3.3362828279,
				"y": 2.4798248915,
				"z": -3.14890487,
				"element": "C" 
			},
			{
				"x": 3.0940609709,
				"y": 2.4021756171,
				"z": -1.7759004044,
				"element": "C" 
			},
			{
				"x": 2.2426506524,
				"y": 1.422166916,
				"z": -1.2683918444,
				"element": "C" 
			},
			{
				"x": -4.275810612,
				"y": -0.9136872936,
				"z": -0.5962449765,
				"element": "H" 
			},
			{
				"x": -1.9950793274,
				"y": -0.6540874288,
				"z": -1.5768983558,
				"element": "H" 
			},
			{
				"x": -0.2610650409,
				"y": -1.2654306043,
				"z": 2.3073157208,
				"element": "H" 
			},
			{
				"x": -2.567293794,
				"y": -1.5509023768,
				"z": 3.2820360534,
				"element": "H" 
			},
			{
				"x": 1.3818513697,
				"y": -0.1125440276,
				"z": -4.1806443714,
				"element": "H" 
			},
			{
				"x": 2.9132922371,
				"y": 1.6363380179,
				"z": -5.0906297726,
				"element": "H" 
			},
			{
				"x": 4.0017128921,
				"y": 3.2446687967,
				"z": -3.5390941317,
				"element": "H" 
			},
			{
				"x": 3.5718949616,
				"y": 3.1033743473,
				"z": -1.0985587215,
				"element": "H" 
			},
			{
				"x": 2.072628837,
				"y": 1.3561020993,
				"z": -0.2008690919,
				"element": "H" 
			}
		],
		 "valence_orbital": [ 
			{
				"type": "occ",
				"energy": -0.29339,
				"method": "rhf"
			},
			{
				"type": "occ",
				"energy": -0.28819,
				"method": "rhf"
			},
			{
				"type": "occ",
				"energy": -0.27492,
				"method": "rhf"
			},
			{
				"type": "occ",
				"energy": -0.27178,
				"method": "rhf"
			},
			{
				"type": "occ",
				"energy": -0.25382,
				"method": "rhf"
			},
			{
				"type": "unocc",
				"energy": -0.11582,
				"method": "rhf"
			},
			{
				"type": "unocc",
				"energy": -0.08649,
				"method": "rhf"
			},
			{
				"type": "unocc",
				"energy": -0.05171,
				"method": "rhf"
			},
			{
				"type": "unocc",
				"energy": -0.03613,
				"method": "rhf"
			},
			{
				"type": "unocc",
				"energy": -0.02046,
				"method": "rhf"
			}
		],
		"cosmo_sigma_profile": { 
			"-0.025": 0.0,
			"-0.024": 0.0,
			"-0.023": 0.0,
			"-0.022": 0.0,
			"-0.021": 0.0,
			"-0.02": 0.0,
			"-0.019": 0.0,
			"-0.018": 0.0,
			"-0.017": 0.0,
			"-0.016": 0.0,
			"-0.015": 0.0,
			"-0.014": 0.0,
			"-0.013": 0.0,
			"-0.012": 0.0,
			"-0.011": 0.0,
			"-0.01": 0.0,
			"-0.009": 0.41520045468,
			"-0.008": 4.35690379105,
			"-0.007": 14.5843466448,
			"-0.006": 18.7173490172,
			"-0.005": 19.769898309,
			"-0.004": 17.5261098137,
			"-0.003": 18.079008412,
			"-0.002": 20.4051307428,
			"-0.001": 24.0527988795,
			"0.0": 25.5801169913,
			"0.001": 19.0348177528,
			"0.002": 16.2137166436,
			"0.003": 19.3495881532,
			"0.004": 9.68678095493,
			"0.005": 6.78559466061,
			"0.006": 7.82878457729,
			"0.007": 11.7900932102,
			"0.008": 9.5791921462,
			"0.009": 8.54097883884,
			"0.01": 6.55207048622,
			"0.011": 0.972938879265,
			"0.012": 0.0,
			"0.013": 0.0,
			"0.014": 0.0,
			"0.015": 0.0,
			"0.016": 0.0,
			"0.017": 0.0,
			"0.018": 0.0,
			"0.019": 0.0,
			"0.02": 0.0,
			"0.021": 0.0,
			"0.022": 0.0,
			"0.023": 0.0,
			"0.024": 0.0,
			"0.025": 0.0
		}
	}
}
