{
	 "smiles": "ClC1=CC(NN=C(C#N)C#N)=CC(Cl)=C1", 
	 "Tm": 466.15, 
	 "num_atms": 19, 
	 "gaussian": { 
		 "optdone": 1, 
		 "sigma_profile": "yes", 
		 "theory": "DFT", 
		 "functional": "B3LYP", 
		 "basiset": "6-31G**", 
		 "properties": { 
			 "R2extent": 6168.6023, 
			 "electric_dipole_moment_norm": 3.98628112907, 
			 "electric_quadrupole_moment_norm": 10.841805441, 
			 "total_energy": -1484.67144614, 
			 "HOMO_LUMO_gap": 0.14284, 
			 "cosmo_polarized_energy": -15.52, 
			 "cosmo_cavitation_energy": 31.35, 
			 "cosmo_dispersion_energy": -21.72, 
			 "cosmo_repulsion_energy": 1.73, 
			 "cosmo_total_nonelectrostatic_energy": 11.35, 
			 "SMD_solvation_energy": 7.12 
		},
		"coords": [
			{
				"x": -0.3420956768,
				"y": -3.7391671904,
				"z": 0.9749414588,
				"element": "Cl" 
			},
			{
				"x": -0.9758551937,
				"y": -2.1777674018,
				"z": 1.4476051468,
				"element": "C" 
			},
			{
				"x": -0.544911985,
				"y": -1.04362667,
				"z": 0.7668877057,
				"element": "C" 
			},
			{
				"x": -1.0625595376,
				"y": 0.1959424846,
				"z": 1.1587936977,
				"element": "C" 
			},
			{
				"x": -0.6704157515,
				"y": 1.382997702,
				"z": 0.5141686636,
				"element": "N" 
			},
			{
				"x": 0.1896623382,
				"y": 1.3759174309,
				"z": -0.4728897679,
				"element": "N" 
			},
			{
				"x": 0.5307987541,
				"y": 2.504384888,
				"z": -1.0496560964,
				"element": "C" 
			},
			{
				"x": -0.0129834104,
				"y": 3.7633887352,
				"z": -0.6312590345,
				"element": "C" 
			},
			{
				"x": -0.5267667899,
				"y": 4.7144345024,
				"z": -0.1969122178,
				"element": "N" 
			},
			{
				"x": 1.4717422149,
				"y": 2.463936035,
				"z": -2.1239047812,
				"element": "C" 
			},
			{
				"x": 2.2353827055,
				"y": 2.4641940203,
				"z": -3.0012066939,
				"element": "N" 
			},
			{
				"x": -1.9871437819,
				"y": 0.3005672769,
				"z": 2.2039405593,
				"element": "C" 
			},
			{
				"x": -2.3889055626,
				"y": -0.8624597936,
				"z": 2.8558353832,
				"element": "C" 
			},
			{
				"x": -3.5450070709,
				"y": -0.7437712711,
				"z": 4.1645517912,
				"element": "Cl" 
			},
			{
				"x": -1.8968692341,
				"y": -2.1157728152,
				"z": 2.4956283465,
				"element": "C" 
			},
			{
				"x": 0.1692045514,
				"y": -1.1103873789,
				"z": -0.0426886602,
				"element": "H" 
			},
			{
				"x": -1.0757135246,
				"y": 2.2635159352,
				"z": 0.8354330111,
				"element": "H" 
			},
			{
				"x": -2.387204913,
				"y": 1.2624974683,
				"z": 2.5061649896,
				"element": "H" 
			},
			{
				"x": -2.2179581322,
				"y": -3.011623958,
				"z": 3.0110664985,
				"element": "H" 
			}
		],
		 "valence_orbital": [ 
			{
				"type": "occ",
				"energy": -0.34307,
				"method": "rhf"
			},
			{
				"type": "occ",
				"energy": -0.33413,
				"method": "rhf"
			},
			{
				"type": "occ",
				"energy": -0.30637,
				"method": "rhf"
			},
			{
				"type": "occ",
				"energy": -0.27632,
				"method": "rhf"
			},
			{
				"type": "occ",
				"energy": -0.25601,
				"method": "rhf"
			},
			{
				"type": "unocc",
				"energy": -0.11317,
				"method": "rhf"
			},
			{
				"type": "unocc",
				"energy": -0.04945,
				"method": "rhf"
			},
			{
				"type": "unocc",
				"energy": -0.03334,
				"method": "rhf"
			},
			{
				"type": "unocc",
				"energy": -0.02982,
				"method": "rhf"
			},
			{
				"type": "unocc",
				"energy": -0.01306,
				"method": "rhf"
			}
		],
		"cosmo_sigma_profile": { 
			"-0.025": 0.0,
			"-0.024": 0.0,
			"-0.023": 0.0,
			"-0.022": 0.0,
			"-0.021": 0.0,
			"-0.02": 0.0,
			"-0.019": 0.0,
			"-0.018": 0.0601826636081,
			"-0.017": 1.14124995206,
			"-0.016": 1.41777082813,
			"-0.015": 1.17164630332,
			"-0.014": 1.30879340223,
			"-0.013": 1.37656469896,
			"-0.012": 1.70598750249,
			"-0.011": 1.62774256961,
			"-0.01": 2.2432767684,
			"-0.009": 3.68296511004,
			"-0.008": 4.59805894158,
			"-0.007": 5.19573451262,
			"-0.006": 8.90483028527,
			"-0.005": 10.5317272221,
			"-0.004": 12.2961025073,
			"-0.003": 14.1767358431,
			"-0.002": 17.5172832871,
			"-0.001": 19.1632291462,
			"0.0": 32.124272709,
			"0.001": 24.1360697243,
			"0.002": 16.0829936266,
			"0.003": 22.3621335625,
			"0.004": 19.7937396422,
			"0.005": 4.3486113459,
			"0.006": 5.77933725286,
			"0.007": 5.63100827076,
			"0.008": 6.21070003704,
			"0.009": 5.30976037639,
			"0.01": 5.22951094991,
			"0.011": 3.86973258527,
			"0.012": 1.49198481467,
			"0.013": 0.0141887155442,
			"0.014": 0.0,
			"0.015": 0.0,
			"0.016": 0.0,
			"0.017": 0.0,
			"0.018": 0.0,
			"0.019": 0.0,
			"0.02": 0.0,
			"0.021": 0.0,
			"0.022": 0.0,
			"0.023": 0.0,
			"0.024": 0.0,
			"0.025": 0.0
		}
	}
}
