{
	 "smiles": "ClCC1=CN2C=CC=CC2=C1C#N", 
	 "Tm": 417.15, 
	 "num_atms": 20, 
	 "gaussian": { 
		 "optdone": 1, 
		 "sigma_profile": "yes", 
		 "theory": "DFT", 
		 "functional": "B3LYP", 
		 "basiset": "6-31G**", 
		 "properties": { 
			 "R2extent": 3868.3381, 
			 "electric_dipole_moment_norm": 7.03589668841, 
			 "electric_quadrupole_moment_norm": 18.9366550708, 
			 "total_energy": -954.956847299, 
			 "HOMO_LUMO_gap": 0.15765, 
			 "cosmo_polarized_energy": -15.34, 
			 "cosmo_cavitation_energy": 27.37, 
			 "cosmo_dispersion_energy": -19.25, 
			 "cosmo_repulsion_energy": 1.52, 
			 "cosmo_total_nonelectrostatic_energy": 9.64, 
			 "SMD_solvation_energy": 6.08 
		},
		"coords": [
			{
				"x": 1.9439546979,
				"y": 0.093441423,
				"z": -4.3636729372,
				"element": "Cl" 
			},
			{
				"x": 2.34987594,
				"y": -0.4595904595,
				"z": -2.6596967271,
				"element": "C" 
			},
			{
				"x": 1.4330967693,
				"y": 0.1165827651,
				"z": -1.6399268943,
				"element": "C" 
			},
			{
				"x": 0.184865931,
				"y": -0.3653581995,
				"z": -1.2960701726,
				"element": "C" 
			},
			{
				"x": -0.3469257507,
				"y": 0.4505890119,
				"z": -0.3207206739,
				"element": "N" 
			},
			{
				"x": -1.5621753218,
				"y": 0.3598630994,
				"z": 0.3208985782,
				"element": "C" 
			},
			{
				"x": -1.8955388252,
				"y": 1.2781711848,
				"z": 1.2730299836,
				"element": "C" 
			},
			{
				"x": -0.9926023475,
				"y": 2.3296499269,
				"z": 1.6072069586,
				"element": "C" 
			},
			{
				"x": 0.2193467096,
				"y": 2.4230095307,
				"z": 0.9690967075,
				"element": "C" 
			},
			{
				"x": 0.5655103613,
				"y": 1.4745254554,
				"z": -0.0191612635,
				"element": "C" 
			},
			{
				"x": 1.6852335053,
				"y": 1.2751240063,
				"z": -0.8434962032,
				"element": "C" 
			},
			{
				"x": 2.8518540778,
				"y": 2.0747203424,
				"z": -0.8462082264,
				"element": "C" 
			},
			{
				"x": 3.8176299469,
				"y": 2.7279567863,
				"z": -0.8410678513,
				"element": "N" 
			},
			{
				"x": 2.296457269,
				"y": -1.5476330596,
				"z": -2.6896873288,
				"element": "H" 
			},
			{
				"x": 3.3803169177,
				"y": -0.1489819949,
				"z": -2.4895038828,
				"element": "H" 
			},
			{
				"x": -0.3700665662,
				"y": -1.2087474082,
				"z": -1.6784471234,
				"element": "H" 
			},
			{
				"x": -2.1989168013,
				"y": -0.4621823789,
				"z": 0.0176999531,
				"element": "H" 
			},
			{
				"x": -2.8556453717,
				"y": 1.1955997077,
				"z": 1.7689258864,
				"element": "H" 
			},
			{
				"x": -1.2694245393,
				"y": 3.0535288954,
				"z": 2.3658644692,
				"element": "H" 
			},
			{
				"x": 0.9293533981,
				"y": 3.2103313657,
				"z": 1.1974367479,
				"element": "H" 
			}
		],
		 "valence_orbital": [ 
			{
				"type": "occ",
				"energy": -0.30893,
				"method": "rhf"
			},
			{
				"type": "occ",
				"energy": -0.29877,
				"method": "rhf"
			},
			{
				"type": "occ",
				"energy": -0.2947,
				"method": "rhf"
			},
			{
				"type": "occ",
				"energy": -0.25848,
				"method": "rhf"
			},
			{
				"type": "occ",
				"energy": -0.21515,
				"method": "rhf"
			},
			{
				"type": "unocc",
				"energy": -0.0575,
				"method": "rhf"
			},
			{
				"type": "unocc",
				"energy": -0.02412,
				"method": "rhf"
			},
			{
				"type": "unocc",
				"energy": -0.00934,
				"method": "rhf"
			},
			{
				"type": "unocc",
				"energy": 0.03004,
				"method": "rhf"
			},
			{
				"type": "unocc",
				"energy": 0.04936,
				"method": "rhf"
			}
		],
		"cosmo_sigma_profile": { 
			"-0.025": 0.0,
			"-0.024": 0.0,
			"-0.023": 0.0,
			"-0.022": 0.0,
			"-0.021": 0.0,
			"-0.02": 0.0,
			"-0.019": 0.0,
			"-0.018": 0.0,
			"-0.017": 0.0,
			"-0.016": 0.0,
			"-0.015": 0.0,
			"-0.014": 0.0,
			"-0.013": 0.0,
			"-0.012": 0.0100709610313,
			"-0.011": 1.01764721085,
			"-0.01": 3.22298589523,
			"-0.009": 4.67981077475,
			"-0.008": 8.14992209124,
			"-0.007": 13.3856377601,
			"-0.006": 13.7656062031,
			"-0.005": 12.9711174908,
			"-0.004": 11.404092467,
			"-0.003": 8.89378444154,
			"-0.002": 10.803076096,
			"-0.001": 13.9450090802,
			"0.0": 15.7213194024,
			"0.001": 19.5928989623,
			"0.002": 19.1709100173,
			"0.003": 13.1122566251,
			"0.004": 7.33760610363,
			"0.005": 8.32393691414,
			"0.006": 11.3753637127,
			"0.007": 7.94246806709,
			"0.008": 1.87350978794,
			"0.009": 3.00708522467,
			"0.01": 3.60090862138,
			"0.011": 3.59280350344,
			"0.012": 2.7912189427,
			"0.013": 2.73682040126,
			"0.014": 1.22310089518,
			"0.015": 0.0,
			"0.016": 0.0,
			"0.017": 0.0,
			"0.018": 0.0,
			"0.019": 0.0,
			"0.02": 0.0,
			"0.021": 0.0,
			"0.022": 0.0,
			"0.023": 0.0,
			"0.024": 0.0,
			"0.025": 0.0
		}
	}
}
