{
	 "smiles": "N#CC1=NC(=NC(=N1)C#N)C#N", 
	 "Tm": 392.15, 
	 "num_atms": 12, 
	 "gaussian": { 
		 "optdone": 1, 
		 "sigma_profile": "yes", 
		 "theory": "DFT", 
		 "functional": "B3LYP", 
		 "basiset": "6-31G**", 
		 "properties": { 
			 "R2extent": 2406.1968, 
			 "electric_dipole_moment_norm": 0.000824621125124, 
			 "electric_quadrupole_moment_norm": 13.4639840593, 
			 "total_energy": -557.033904619, 
			 "HOMO_LUMO_gap": 0.19951, 
			 "cosmo_polarized_energy": -13.33, 
			 "cosmo_cavitation_energy": 22.44, 
			 "cosmo_dispersion_energy": -14.71, 
			 "cosmo_repulsion_energy": 1.18, 
			 "cosmo_total_nonelectrostatic_energy": 8.91, 
			 "SMD_solvation_energy": 3.86 
		},
		"coords": [
			{
				"x": 1.1817949956,
				"y": -2.3311837199,
				"z": 1.931442121,
				"element": "N" 
			},
			{
				"x": 1.0487520179,
				"y": -1.4866625718,
				"z": 1.1466860384,
				"element": "C" 
			},
			{
				"x": 0.8833366324,
				"y": -0.4346222739,
				"z": 0.16890614,
				"element": "C" 
			},
			{
				"x": -0.2574117202,
				"y": 0.2641385007,
				"z": 0.2174864261,
				"element": "N" 
			},
			{
				"x": -0.345897932,
				"y": 1.2213141262,
				"z": -0.7141323333,
				"element": "C" 
			},
			{
				"x": 0.5774143908,
				"y": 1.5107417717,
				"z": -1.6391473997,
				"element": "N" 
			},
			{
				"x": 1.6678938223,
				"y": 0.7369168026,
				"z": -1.5760506285,
				"element": "C" 
			},
			{
				"x": 1.8853594542,
				"y": -0.2512150562,
				"z": -0.6995615818,
				"element": "N" 
			},
			{
				"x": 2.7092458643,
				"y": 0.992825157,
				"z": -2.5457418915,
				"element": "C" 
			},
			{
				"x": 3.5451451385,
				"y": 1.1982458189,
				"z": -3.3240940587,
				"element": "N" 
			},
			{
				"x": -1.5525054253,
				"y": 2.0177088726,
				"z": -0.7219557141,
				"element": "C" 
			},
			{
				"x": -2.5210272384,
				"y": 2.656992572,
				"z": -0.7282371178,
				"element": "N" 
			}
		],
		 "valence_orbital": [ 
			{
				"type": "occ",
				"energy": -0.3855,
				"method": "rhf"
			},
			{
				"type": "occ",
				"energy": -0.36924,
				"method": "rhf"
			},
			{
				"type": "occ",
				"energy": -0.36924,
				"method": "rhf"
			},
			{
				"type": "occ",
				"energy": -0.35295,
				"method": "rhf"
			},
			{
				"type": "occ",
				"energy": -0.35295,
				"method": "rhf"
			},
			{
				"type": "unocc",
				"energy": -0.15344,
				"method": "rhf"
			},
			{
				"type": "unocc",
				"energy": -0.15344,
				"method": "rhf"
			},
			{
				"type": "unocc",
				"energy": -0.04985,
				"method": "rhf"
			},
			{
				"type": "unocc",
				"energy": -0.02653,
				"method": "rhf"
			},
			{
				"type": "unocc",
				"energy": -0.02652,
				"method": "rhf"
			}
		],
		"cosmo_sigma_profile": { 
			"-0.025": 0.0,
			"-0.024": 0.0,
			"-0.023": 0.0,
			"-0.022": 0.0,
			"-0.021": 0.0,
			"-0.02": 0.0,
			"-0.019": 0.0,
			"-0.018": 0.0,
			"-0.017": 0.0,
			"-0.016": 0.00073659270032,
			"-0.015": 0.456661101189,
			"-0.014": 1.22958824192,
			"-0.013": 1.37158663434,
			"-0.012": 2.61010148319,
			"-0.011": 2.92328561422,
			"-0.01": 5.92285831182,
			"-0.009": 5.97369412367,
			"-0.008": 6.66369975206,
			"-0.007": 4.60519628769,
			"-0.006": 6.09722874383,
			"-0.005": 7.86501101456,
			"-0.004": 5.963391187,
			"-0.003": 7.64483904175,
			"-0.002": 9.46923272939,
			"-0.001": 12.1086334744,
			"0.0": 14.0907153079,
			"0.001": 10.9005652176,
			"0.002": 10.6032214037,
			"0.003": 10.8579419185,
			"0.004": 10.8745926318,
			"0.005": 10.2117347391,
			"0.006": 11.4587887619,
			"0.007": 9.72404452852,
			"0.008": 7.79725411089,
			"0.009": 6.39633088811,
			"0.01": 3.62890891458,
			"0.011": 0.0482078867321,
			"0.012": 0.0,
			"0.013": 0.0,
			"0.014": 0.0,
			"0.015": 0.0,
			"0.016": 0.0,
			"0.017": 0.0,
			"0.018": 0.0,
			"0.019": 0.0,
			"0.02": 0.0,
			"0.021": 0.0,
			"0.022": 0.0,
			"0.023": 0.0,
			"0.024": 0.0,
			"0.025": 0.0
		}
	}
}
