{
	 "smiles": "COC(=O)C1=CC2=C(NCC2)C=C1", 
	 "Tm": 348.15, 
	 "num_atms": 24, 
	 "gaussian": { 
		 "optdone": 1, 
		 "sigma_profile": "yes", 
		 "theory": "DFT", 
		 "functional": "B3LYP", 
		 "basiset": "6-31G**", 
		 "properties": { 
			 "R2extent": 3309.5948, 
			 "electric_dipole_moment_norm": 3.36939326586, 
			 "electric_quadrupole_moment_norm": 14.3419572102, 
			 "total_energy": -592.908892843, 
			 "HOMO_LUMO_gap": 0.17613, 
			 "cosmo_polarized_energy": -11.35, 
			 "cosmo_cavitation_energy": 27.45, 
			 "cosmo_dispersion_energy": -20.62, 
			 "cosmo_repulsion_energy": 1.64, 
			 "cosmo_total_nonelectrostatic_energy": 8.48, 
			 "SMD_solvation_energy": 4.65 
		},
		"coords": [
			{
				"x": 1.298684029,
				"y": 0.7365072184,
				"z": -3.3645099622,
				"element": "C" 
			},
			{
				"x": 0.8020277895,
				"y": 1.046481494,
				"z": -2.0567735812,
				"element": "O" 
			},
			{
				"x": 0.3078302205,
				"y": -0.0128950439,
				"z": -1.3632312499,
				"element": "C" 
			},
			{
				"x": 0.2883729671,
				"y": -1.1416185985,
				"z": -1.822061391,
				"element": "O" 
			},
			{
				"x": -0.1886547538,
				"y": 0.3634218495,
				"z": -0.0210563351,
				"element": "C" 
			},
			{
				"x": -0.7236164162,
				"y": -0.6587373458,
				"z": 0.79156954,
				"element": "C" 
			},
			{
				"x": -1.2076259661,
				"y": -0.3466124191,
				"z": 2.0453160163,
				"element": "C" 
			},
			{
				"x": -1.1593950865,
				"y": 0.9826139744,
				"z": 2.5156233765,
				"element": "C" 
			},
			{
				"x": -1.6651115183,
				"y": 1.0591022819,
				"z": 3.8068081283,
				"element": "N" 
			},
			{
				"x": -2.4337356537,
				"y": -0.1679835809,
				"z": 4.087632522,
				"element": "C" 
			},
			{
				"x": -1.7950596476,
				"y": -1.2148153548,
				"z": 3.1400594207,
				"element": "C" 
			},
			{
				"x": -0.629368981,
				"y": 2.0072655159,
				"z": 1.7251968761,
				"element": "C" 
			},
			{
				"x": -0.1475816191,
				"y": 1.6824855039,
				"z": 0.4575903268,
				"element": "C" 
			},
			{
				"x": 2.1162939896,
				"y": 0.0128846982,
				"z": -3.3081476336,
				"element": "H" 
			},
			{
				"x": 0.506923584,
				"y": 0.3184442878,
				"z": -3.9919487748,
				"element": "H" 
			},
			{
				"x": 1.6535741901,
				"y": 1.681313348,
				"z": -3.7775464582,
				"element": "H" 
			},
			{
				"x": -0.7483356082,
				"y": -1.6712909266,
				"z": 0.4011095639,
				"element": "H" 
			},
			{
				"x": -2.0632277804,
				"y": 1.9385510666,
				"z": 4.1077566046,
				"element": "H" 
			},
			{
				"x": -2.3564603824,
				"y": -0.4443592029,
				"z": 5.1428927432,
				"element": "H" 
			},
			{
				"x": -3.4992092291,
				"y": -0.0328787267,
				"z": 3.8459136716,
				"element": "H" 
			},
			{
				"x": -2.5242956291,
				"y": -1.9463996058,
				"z": 2.7813286725,
				"element": "H" 
			},
			{
				"x": -1.0013306732,
				"y": -1.7686200338,
				"z": 3.6582653139,
				"element": "H" 
			},
			{
				"x": -0.5951623594,
				"y": 3.0316335303,
				"z": 2.0846870412,
				"element": "H" 
			},
			{
				"x": 0.2625645342,
				"y": 2.4598060701,
				"z": -0.1769744315,
				"element": "H" 
			}
		],
		 "valence_orbital": [ 
			{
				"type": "occ",
				"energy": -0.29476,
				"method": "rhf"
			},
			{
				"type": "occ",
				"energy": -0.28715,
				"method": "rhf"
			},
			{
				"type": "occ",
				"energy": -0.25842,
				"method": "rhf"
			},
			{
				"type": "occ",
				"energy": -0.24632,
				"method": "rhf"
			},
			{
				"type": "occ",
				"energy": -0.19984,
				"method": "rhf"
			},
			{
				"type": "unocc",
				"energy": -0.02371,
				"method": "rhf"
			},
			{
				"type": "unocc",
				"energy": -0.00044,
				"method": "rhf"
			},
			{
				"type": "unocc",
				"energy": 0.07349,
				"method": "rhf"
			},
			{
				"type": "unocc",
				"energy": 0.08402,
				"method": "rhf"
			},
			{
				"type": "unocc",
				"energy": 0.1101,
				"method": "rhf"
			}
		],
		"cosmo_sigma_profile": { 
			"-0.025": 0.0,
			"-0.024": 0.0,
			"-0.023": 0.0,
			"-0.022": 0.0,
			"-0.021": 0.0,
			"-0.02": 0.0,
			"-0.019": 0.0,
			"-0.018": 0.0,
			"-0.017": 0.0,
			"-0.016": 0.0,
			"-0.015": 0.0,
			"-0.014": 0.0396540775648,
			"-0.013": 1.25738975368,
			"-0.012": 1.34424653764,
			"-0.011": 1.34068050909,
			"-0.01": 0.954743372802,
			"-0.009": 1.60273737098,
			"-0.008": 1.39650793368,
			"-0.007": 2.06644136052,
			"-0.006": 5.88627949401,
			"-0.005": 14.3215112455,
			"-0.004": 23.0279432532,
			"-0.003": 27.9890279505,
			"-0.002": 20.4182611043,
			"-0.001": 16.7749877776,
			"0.0": 10.9849941126,
			"0.001": 9.48028839092,
			"0.002": 11.0818803929,
			"0.003": 14.0374878211,
			"0.004": 13.6649242252,
			"0.005": 14.4804036948,
			"0.006": 5.62414597379,
			"0.007": 3.32931436061,
			"0.008": 1.77611272533,
			"0.009": 2.39757238692,
			"0.01": 1.74400051664,
			"0.011": 3.07133985312,
			"0.012": 3.83067638319,
			"0.013": 3.63831626031,
			"0.014": 0.0286559504366,
			"0.015": 0.0,
			"0.016": 0.0,
			"0.017": 0.0,
			"0.018": 0.0,
			"0.019": 0.0,
			"0.02": 0.0,
			"0.021": 0.0,
			"0.022": 0.0,
			"0.023": 0.0,
			"0.024": 0.0,
			"0.025": 0.0
		}
	}
}
