{
	 "smiles": "OC(=O)C1=CC2=C(OCCO2)C(Cl)=C1", 
	 "Tm": 525.15, 
	 "num_atms": 21, 
	 "gaussian": { 
		 "optdone": 1, 
		 "sigma_profile": "yes", 
		 "theory": "DFT", 
		 "functional": "B3LYP", 
		 "basiset": "6-31G**", 
		 "properties": { 
			 "R2extent": 3986.3028, 
			 "electric_dipole_moment_norm": 5.37882959202, 
			 "electric_quadrupole_moment_norm": 15.6206009753, 
			 "total_energy": -1108.24972932, 
			 "HOMO_LUMO_gap": 0.19004, 
			 "cosmo_polarized_energy": -17.05, 
			 "cosmo_cavitation_energy": 27.1, 
			 "cosmo_dispersion_energy": -20.63, 
			 "cosmo_repulsion_energy": 1.62, 
			 "cosmo_total_nonelectrostatic_energy": 8.1, 
			 "SMD_solvation_energy": 5.9 
		},
		"coords": [
			{
				"x": -2.4701776088,
				"y": -2.1032374409,
				"z": 3.3372646993,
				"element": "O" 
			},
			{
				"x": -1.9832146908,
				"y": -0.9354707586,
				"z": 2.8371756452,
				"element": "C" 
			},
			{
				"x": -1.9566198821,
				"y": 0.0540985645,
				"z": 3.530336535,
				"element": "O" 
			},
			{
				"x": -1.4979875805,
				"y": -0.9594397174,
				"z": 1.420137479,
				"element": "C" 
			},
			{
				"x": -0.6304338699,
				"y": 0.0608617117,
				"z": 1.019158813,
				"element": "C" 
			},
			{
				"x": -0.1449258923,
				"y": 0.0965492699,
				"z": -0.2826918336,
				"element": "C" 
			},
			{
				"x": -0.5478622778,
				"y": -0.8743570678,
				"z": -1.2239663377,
				"element": "C" 
			},
			{
				"x": -0.1177329416,
				"y": -0.8548957214,
				"z": -2.5139012208,
				"element": "O" 
			},
			{
				"x": 0.4846390489,
				"y": 0.3805226748,
				"z": -2.9179624088,
				"element": "C" 
			},
			{
				"x": 1.4369830087,
				"y": 0.8696913407,
				"z": -1.8418137232,
				"element": "C" 
			},
			{
				"x": 0.7221738301,
				"y": 1.0986976985,
				"z": -0.6257934657,
				"element": "O" 
			},
			{
				"x": -1.4221748962,
				"y": -1.8886522513,
				"z": -0.8091671823,
				"element": "C" 
			},
			{
				"x": -1.9373676714,
				"y": -3.0908223487,
				"z": -1.9695946368,
				"element": "Cl" 
			},
			{
				"x": -1.8944531243,
				"y": -1.9389952183,
				"z": 0.4985490024,
				"element": "C" 
			},
			{
				"x": -2.261893032,
				"y": -2.8358425632,
				"z": 2.7412882415,
				"element": "H" 
			},
			{
				"x": -0.3274130539,
				"y": 0.822879301,
				"z": 1.7275895026,
				"element": "H" 
			},
			{
				"x": 1.0072037547,
				"y": 0.1714685935,
				"z": -3.853828903,
				"element": "H" 
			},
			{
				"x": -0.2985014462,
				"y": 1.1272264471,
				"z": -3.1000877691,
				"element": "H" 
			},
			{
				"x": 1.89185421,
				"y": 1.8240089415,
				"z": -2.1166773393,
				"element": "H" 
			},
			{
				"x": 2.2300234967,
				"y": 0.1289168114,
				"z": -1.6740076877,
				"element": "H" 
			},
			{
				"x": -2.6082193811,
				"y": -2.7145082671,
				"z": 0.7558925903,
				"element": "H" 
			}
		],
		 "valence_orbital": [ 
			{
				"type": "occ",
				"energy": -0.32147,
				"method": "rhf"
			},
			{
				"type": "occ",
				"energy": -0.31252,
				"method": "rhf"
			},
			{
				"type": "occ",
				"energy": -0.27452,
				"method": "rhf"
			},
			{
				"type": "occ",
				"energy": -0.2501,
				"method": "rhf"
			},
			{
				"type": "occ",
				"energy": -0.23882,
				"method": "rhf"
			},
			{
				"type": "unocc",
				"energy": -0.04878,
				"method": "rhf"
			},
			{
				"type": "unocc",
				"energy": -0.02478,
				"method": "rhf"
			},
			{
				"type": "unocc",
				"energy": 0.01503,
				"method": "rhf"
			},
			{
				"type": "unocc",
				"energy": 0.05014,
				"method": "rhf"
			},
			{
				"type": "unocc",
				"energy": 0.06882,
				"method": "rhf"
			}
		],
		"cosmo_sigma_profile": { 
			"-0.025": 0.0,
			"-0.024": 0.0,
			"-0.023": 0.0,
			"-0.022": 0.0,
			"-0.021": 0.0,
			"-0.02": 0.0,
			"-0.019": 0.507615556153,
			"-0.018": 0.696583254907,
			"-0.017": 0.981380935785,
			"-0.016": 1.3975565138,
			"-0.015": 0.689312454176,
			"-0.014": 1.16624902945,
			"-0.013": 0.998439540084,
			"-0.012": 1.05369662227,
			"-0.011": 1.10316189327,
			"-0.01": 1.7478683607,
			"-0.009": 0.759146341918,
			"-0.008": 5.56483335093,
			"-0.007": 13.6464004368,
			"-0.006": 15.3128039645,
			"-0.005": 11.6337627185,
			"-0.004": 9.72869231509,
			"-0.003": 9.08953368926,
			"-0.002": 10.1741088244,
			"-0.001": 12.0789899448,
			"0.0": 15.0120847693,
			"0.001": 19.9639310276,
			"0.002": 13.9365131782,
			"0.003": 11.3770908737,
			"0.004": 12.9259822715,
			"0.005": 7.23501299451,
			"0.006": 5.70435372257,
			"0.007": 4.58357913897,
			"0.008": 6.51601110603,
			"0.009": 6.60011031208,
			"0.01": 5.29230387889,
			"0.011": 5.50734329931,
			"0.012": 4.72027683063,
			"0.013": 1.33560136764,
			"0.014": 0.00719199238991,
			"0.015": 0.0,
			"0.016": 0.0,
			"0.017": 0.0,
			"0.018": 0.0,
			"0.019": 0.0,
			"0.02": 0.0,
			"0.021": 0.0,
			"0.022": 0.0,
			"0.023": 0.0,
			"0.024": 0.0,
			"0.025": 0.0
		}
	}
}
