{
	 "smiles": "CC1=CC(=C(O)C(CC2=C(O)C(=CC(C)=C2)C2(C)CCCCC2)=C1)C1(C)CCCCC1", 
	 "Tm": 408.15, 
	 "num_atms": 71, 
	 "gaussian": { 
		 "optdone": 1, 
		 "sigma_profile": "yes", 
		 "theory": "DFT", 
		 "functional": "B3LYP", 
		 "basiset": "6-31G**", 
		 "properties": { 
			 "R2extent": 19078.0194, 
			 "electric_dipole_moment_norm": 3.44324454403, 
			 "electric_quadrupole_moment_norm": 11.9786479245, 
			 "total_energy": -1279.67352647, 
			 "HOMO_LUMO_gap": 0.19567, 
			 "cosmo_polarized_energy": -9.38, 
			 "cosmo_cavitation_energy": 63.26, 
			 "cosmo_dispersion_energy": -42.94, 
			 "cosmo_repulsion_energy": 3.24, 
			 "cosmo_total_nonelectrostatic_energy": 23.56, 
			 "SMD_solvation_energy": 9.09 
		},
		"coords": [
			{
				"x": 3.1850766682,
				"y": -1.9997643725,
				"z": 0.9270377047,
				"element": "C" 
			},
			{
				"x": 2.1191611336,
				"y": -1.8532458043,
				"z": -0.1346434649,
				"element": "C" 
			},
			{
				"x": 2.4545953436,
				"y": -1.7192284663,
				"z": -1.4828581714,
				"element": "C" 
			},
			{
				"x": 1.5052872136,
				"y": -1.5759364938,
				"z": -2.5096510672,
				"element": "C" 
			},
			{
				"x": 0.1505169048,
				"y": -1.5677143218,
				"z": -2.1103208429,
				"element": "C" 
			},
			{
				"x": -0.9037138849,
				"y": -1.4416068643,
				"z": -2.9832648512,
				"element": "O" 
			},
			{
				"x": -0.2305576648,
				"y": -1.692504172,
				"z": -0.7567512256,
				"element": "C" 
			},
			{
				"x": -1.7173460168,
				"y": -1.6999838218,
				"z": -0.4063600012,
				"element": "C" 
			},
			{
				"x": -2.06683485,
				"y": -1.4106118539,
				"z": 1.039496302,
				"element": "C" 
			},
			{
				"x": -1.8115397012,
				"y": -0.1435872361,
				"z": 1.5923983906,
				"element": "C" 
			},
			{
				"x": -1.1855314422,
				"y": 0.8225099014,
				"z": 0.8390903886,
				"element": "O" 
			},
			{
				"x": -2.2089872807,
				"y": 0.1897268562,
				"z": 2.9076094973,
				"element": "C" 
			},
			{
				"x": -2.857005816,
				"y": -0.8118165298,
				"z": 3.6400100247,
				"element": "C" 
			},
			{
				"x": -3.1092770283,
				"y": -2.0940033626,
				"z": 3.1331071395,
				"element": "C" 
			},
			{
				"x": -3.7952790445,
				"y": -3.1369657119,
				"z": 3.9858623189,
				"element": "C" 
			},
			{
				"x": -2.7056212075,
				"y": -2.3725181091,
				"z": 1.8287022871,
				"element": "C" 
			},
			{
				"x": -1.914539045,
				"y": 1.5874522115,
				"z": 3.4937853017,
				"element": "C" 
			},
			{
				"x": -0.3758616985,
				"y": 1.7437769429,
				"z": 3.6184460188,
				"element": "C" 
			},
			{
				"x": -2.509159246,
				"y": 2.7068193933,
				"z": 2.5520239413,
				"element": "C" 
			},
			{
				"x": -3.2414910529,
				"y": 3.8420478228,
				"z": 3.2923214022,
				"element": "C" 
			},
			{
				"x": -2.4608146747,
				"y": 4.3044131228,
				"z": 4.5258563232,
				"element": "C" 
			},
			{
				"x": -2.2957211921,
				"y": 3.1416632399,
				"z": 5.5363046779,
				"element": "C" 
			},
			{
				"x": -2.5363629526,
				"y": 1.7534539513,
				"z": 4.9038322044,
				"element": "C" 
			},
			{
				"x": 0.7637965654,
				"y": -1.8393204095,
				"z": 0.2098646457,
				"element": "C" 
			},
			{
				"x": 1.920280629,
				"y": -1.3852123706,
				"z": -3.9938983977,
				"element": "C" 
			},
			{
				"x": 1.4927251153,
				"y": 0.0362287254,
				"z": -4.4458358979,
				"element": "C" 
			},
			{
				"x": 1.3078153559,
				"y": -2.4721968185,
				"z": -4.9275602979,
				"element": "C" 
			},
			{
				"x": 1.6609509667,
				"y": -3.9118640382,
				"z": -4.4986460909,
				"element": "C" 
			},
			{
				"x": 3.089554257,
				"y": -4.0231765012,
				"z": -3.9166667781,
				"element": "C" 
			},
			{
				"x": 4.0111225191,
				"y": -2.9205972192,
				"z": -4.4579853633,
				"element": "C" 
			},
			{
				"x": 3.4591875107,
				"y": -1.4833524874,
				"z": -4.2373411921,
				"element": "C" 
			},
			{
				"x": 4.1795980057,
				"y": -2.101862311,
				"z": 0.4831196179,
				"element": "H" 
			},
			{
				"x": 3.2087007263,
				"y": -1.1304767844,
				"z": 1.5952742192,
				"element": "H" 
			},
			{
				"x": 3.0079808061,
				"y": -2.8802401956,
				"z": 1.5549362064,
				"element": "H" 
			},
			{
				"x": 3.5076837829,
				"y": -1.7361856035,
				"z": -1.7371836183,
				"element": "H" 
			},
			{
				"x": -0.5741695932,
				"y": -1.352812834,
				"z": -3.8831316756,
				"element": "H" 
			},
			{
				"x": -2.1389432675,
				"y": -2.6735017851,
				"z": -0.6853622589,
				"element": "H" 
			},
			{
				"x": -2.2249446607,
				"y": -0.9767545327,
				"z": -1.056328641,
				"element": "H" 
			},
			{
				"x": -0.6903191752,
				"y": 0.3924502706,
				"z": 0.1264900079,
				"element": "H" 
			},
			{
				"x": -3.1819451003,
				"y": -0.5999938889,
				"z": 4.6523478321,
				"element": "H" 
			},
			{
				"x": -4.7268906561,
				"y": -2.7549356092,
				"z": 4.4187902556,
				"element": "H" 
			},
			{
				"x": -4.0414528502,
				"y": -4.0288685128,
				"z": 3.4021570502,
				"element": "H" 
			},
			{
				"x": -3.161261475,
				"y": -3.4562754749,
				"z": 4.8224867784,
				"element": "H" 
			},
			{
				"x": -2.9014828652,
				"y": -3.3537855657,
				"z": 1.401286975,
				"element": "H" 
			},
			{
				"x": -0.1071557643,
				"y": 2.7367747974,
				"z": 3.9919145087,
				"element": "H" 
			},
			{
				"x": 0.0307048273,
				"y": 1.001346809,
				"z": 4.3147639336,
				"element": "H" 
			},
			{
				"x": 0.1061709289,
				"y": 1.609124537,
				"z": 2.6490728627,
				"element": "H" 
			},
			{
				"x": -1.6945106133,
				"y": 3.1324185873,
				"z": 1.9579409539,
				"element": "H" 
			},
			{
				"x": -3.1969540225,
				"y": 2.2552720666,
				"z": 1.8312049461,
				"element": "H" 
			},
			{
				"x": -4.2424254789,
				"y": 3.5105796152,
				"z": 3.5998801838,
				"element": "H" 
			},
			{
				"x": -3.4003025513,
				"y": 4.6781255652,
				"z": 2.6005339236,
				"element": "H" 
			},
			{
				"x": -2.9564798964,
				"y": 5.1578507382,
				"z": 5.0025066633,
				"element": "H" 
			},
			{
				"x": -1.4765960908,
				"y": 4.6665381224,
				"z": 4.201635108,
				"element": "H" 
			},
			{
				"x": -3.005134111,
				"y": 3.2605475702,
				"z": 6.3638508453,
				"element": "H" 
			},
			{
				"x": -1.2993900563,
				"y": 3.1797573133,
				"z": 5.9901814724,
				"element": "H" 
			},
			{
				"x": -3.6164902066,
				"y": 1.5754431179,
				"z": 4.8374872099,
				"element": "H" 
			},
			{
				"x": -2.1403522138,
				"y": 0.9883739879,
				"z": 5.5812779794,
				"element": "H" 
			},
			{
				"x": 0.4680143746,
				"y": -1.9445517224,
				"z": 1.250266713,
				"element": "H" 
			},
			{
				"x": 2.0838001566,
				"y": 0.7914832986,
				"z": -3.9176425064,
				"element": "H" 
			},
			{
				"x": 0.4412613808,
				"y": 0.2623652647,
				"z": -4.242686763,
				"element": "H" 
			},
			{
				"x": 1.6611258812,
				"y": 0.1657526885,
				"z": -5.5206659295,
				"element": "H" 
			},
			{
				"x": 0.2191207033,
				"y": -2.3947970913,
				"z": -5.0400393468,
				"element": "H" 
			},
			{
				"x": 1.7045105796,
				"y": -2.2767244286,
				"z": -5.9323896864,
				"element": "H" 
			},
			{
				"x": 1.5518645513,
				"y": -4.5677759518,
				"z": -5.3704991641,
				"element": "H" 
			},
			{
				"x": 0.9364580487,
				"y": -4.2632320199,
				"z": -3.7561818596,
				"element": "H" 
			},
			{
				"x": 3.0455182535,
				"y": -3.9552731276,
				"z": -2.826111023,
				"element": "H" 
			},
			{
				"x": 3.5143754378,
				"y": -5.0067510871,
				"z": -4.146804926,
				"element": "H" 
			},
			{
				"x": 4.1556084364,
				"y": -3.0852054849,
				"z": -5.5332256929,
				"element": "H" 
			},
			{
				"x": 5.0060828921,
				"y": -3.0109141746,
				"z": -4.0077272589,
				"element": "H" 
			},
			{
				"x": 3.6676885477,
				"y": -0.8986736777,
				"z": -5.1403857529,
				"element": "H" 
			},
			{
				"x": 3.9986059433,
				"y": -0.9686976886,
				"z": -3.4380050698,
				"element": "H" 
			}
		],
		 "valence_orbital": [ 
			{
				"type": "occ",
				"energy": -0.27621,
				"method": "rhf"
			},
			{
				"type": "occ",
				"energy": -0.24023,
				"method": "rhf"
			},
			{
				"type": "occ",
				"energy": -0.22663,
				"method": "rhf"
			},
			{
				"type": "occ",
				"energy": -0.21202,
				"method": "rhf"
			},
			{
				"type": "occ",
				"energy": -0.19904,
				"method": "rhf"
			},
			{
				"type": "unocc",
				"energy": -0.00337,
				"method": "rhf"
			},
			{
				"type": "unocc",
				"energy": 0.0076,
				"method": "rhf"
			},
			{
				"type": "unocc",
				"energy": 0.01444,
				"method": "rhf"
			},
			{
				"type": "unocc",
				"energy": 0.02391,
				"method": "rhf"
			},
			{
				"type": "unocc",
				"energy": 0.05893,
				"method": "rhf"
			}
		],
		"cosmo_sigma_profile": { 
			"-0.025": 0.0,
			"-0.024": 0.0,
			"-0.023": 0.0,
			"-0.022": 0.0,
			"-0.021": 0.0,
			"-0.02": 0.0,
			"-0.019": 0.0,
			"-0.018": 0.0,
			"-0.017": 0.0,
			"-0.016": 0.0,
			"-0.015": 0.0714593908586,
			"-0.014": 0.552934436564,
			"-0.013": 0.382941396254,
			"-0.012": 0.808624081211,
			"-0.011": 0.716067897376,
			"-0.01": 1.25368492201,
			"-0.009": 1.42909467836,
			"-0.008": 1.66351877666,
			"-0.007": 1.94873533222,
			"-0.006": 2.24120879792,
			"-0.005": 6.20177155335,
			"-0.004": 15.7198558584,
			"-0.003": 38.4084475602,
			"-0.002": 70.0454301077,
			"-0.001": 78.837486972,
			"0.0": 85.4153710495,
			"0.001": 72.8075847703,
			"0.002": 38.3245904344,
			"0.003": 18.706499778,
			"0.004": 15.4519064539,
			"0.005": 12.0819261953,
			"0.006": 11.2264714338,
			"0.007": 7.77900613538,
			"0.008": 3.38754957219,
			"0.009": 2.43475678692,
			"0.01": 1.80798934852,
			"0.011": 0.475397517777,
			"0.012": 0.0,
			"0.013": 0.0,
			"0.014": 0.0,
			"0.015": 0.0,
			"0.016": 0.0,
			"0.017": 0.0,
			"0.018": 0.0,
			"0.019": 0.0,
			"0.02": 0.0,
			"0.021": 0.0,
			"0.022": 0.0,
			"0.023": 0.0,
			"0.024": 0.0,
			"0.025": 0.0
		}
	}
}
