{
	 "smiles": "OC(=O)C1=CC(=C2CCCC2=C1)S(Cl)(=O)=O", 
	 "Tm": 471.15, 
	 "num_atms": 25, 
	 "gaussian": { 
		 "optdone": 1, 
		 "sigma_profile": "yes", 
		 "theory": "DFT", 
		 "functional": "B3LYP", 
		 "basiset": "6-31G**", 
		 "properties": { 
			 "R2extent": 4802.6668, 
			 "electric_dipole_moment_norm": 7.72806916183, 
			 "electric_quadrupole_moment_norm": 12.662048283, 
			 "total_energy": -1545.71158387, 
			 "HOMO_LUMO_gap": 0.17938, 
			 "cosmo_polarized_energy": -19.19, 
			 "cosmo_cavitation_energy": 32.01, 
			 "cosmo_dispersion_energy": -23.83, 
			 "cosmo_repulsion_energy": 1.82, 
			 "cosmo_total_nonelectrostatic_energy": 10.01, 
			 "SMD_solvation_energy": 4.68 
		},
		"coords": [
			{
				"x": 0.8491476417,
				"y": 0.9057419701,
				"z": 3.7342105902,
				"element": "O" 
			},
			{
				"x": 1.4980211136,
				"y": 0.903323337,
				"z": 2.5405453312,
				"element": "C" 
			},
			{
				"x": 2.5484552253,
				"y": 1.4844639055,
				"z": 2.4171195959,
				"element": "O" 
			},
			{
				"x": 0.8448910783,
				"y": 0.1475869706,
				"z": 1.4178314286,
				"element": "C" 
			},
			{
				"x": 1.2393648967,
				"y": 0.4746812756,
				"z": 0.1154252259,
				"element": "C" 
			},
			{
				"x": 0.6784216024,
				"y": -0.2113002113,
				"z": -0.9607349763,
				"element": "C" 
			},
			{
				"x": -0.2533947475,
				"y": -1.2382026014,
				"z": -0.775848419,
				"element": "C" 
			},
			{
				"x": -0.9974756688,
				"y": -2.1022801384,
				"z": -1.7699782399,
				"element": "C" 
			},
			{
				"x": -1.5370954596,
				"y": -3.2606968581,
				"z": -0.8942170065,
				"element": "C" 
			},
			{
				"x": -1.6534340076,
				"y": -2.6767626689,
				"z": 0.5349030488,
				"element": "C" 
			},
			{
				"x": -0.6287639309,
				"y": -1.5621243586,
				"z": 0.537665482,
				"element": "C" 
			},
			{
				"x": -0.0900808078,
				"y": -0.8789253887,
				"z": 1.6241352731,
				"element": "C" 
			},
			{
				"x": 1.2402079353,
				"y": 0.2519068715,
				"z": -2.6008415416,
				"element": "S" 
			},
			{
				"x": -0.4898229634,
				"y": 1.2663154675,
				"z": -3.3417162885,
				"element": "Cl" 
			},
			{
				"x": 2.2901971557,
				"y": 1.2539485805,
				"z": -2.48798585,
				"element": "O" 
			},
			{
				"x": 1.3959607765,
				"y": -0.9366120945,
				"z": -3.4310617149,
				"element": "O" 
			},
			{
				"x": -0.0494790532,
				"y": 0.5626844115,
				"z": 3.6350072036,
				"element": "H" 
			},
			{
				"x": 1.9800349642,
				"y": 1.2504068286,
				"z": -0.0390722559,
				"element": "H" 
			},
			{
				"x": -0.3673658585,
				"y": -2.438200287,
				"z": -2.5950403175,
				"element": "H" 
			},
			{
				"x": -1.8149386055,
				"y": -1.5177935508,
				"z": -2.214414999,
				"element": "H" 
			},
			{
				"x": -2.482982037,
				"y": -3.6612909141,
				"z": -1.2661667455,
				"element": "H" 
			},
			{
				"x": -0.8104874962,
				"y": -4.0799001005,
				"z": -0.8938413125,
				"element": "H" 
			},
			{
				"x": -1.4765114234,
				"y": -3.4210732431,
				"z": 1.3177137125,
				"element": "H" 
			},
			{
				"x": -2.654546581,
				"y": -2.2598190399,
				"z": 0.71180307,
				"element": "H" 
			},
			{
				"x": -0.3721237495,
				"y": -1.1779781629,
				"z": 2.6313597052,
				"element": "H" 
			}
		],
		 "valence_orbital": [ 
			{
				"type": "occ",
				"energy": -0.33087,
				"method": "rhf"
			},
			{
				"type": "occ",
				"energy": -0.31885,
				"method": "rhf"
			},
			{
				"type": "occ",
				"energy": -0.29987,
				"method": "rhf"
			},
			{
				"type": "occ",
				"energy": -0.29181,
				"method": "rhf"
			},
			{
				"type": "occ",
				"energy": -0.27658,
				"method": "rhf"
			},
			{
				"type": "unocc",
				"energy": -0.0972,
				"method": "rhf"
			},
			{
				"type": "unocc",
				"energy": -0.07123,
				"method": "rhf"
			},
			{
				"type": "unocc",
				"energy": -0.05351,
				"method": "rhf"
			},
			{
				"type": "unocc",
				"energy": 0.01471,
				"method": "rhf"
			},
			{
				"type": "unocc",
				"energy": 0.0453,
				"method": "rhf"
			}
		],
		"cosmo_sigma_profile": { 
			"-0.025": 0.0,
			"-0.024": 0.0,
			"-0.023": 0.0,
			"-0.022": 0.0,
			"-0.021": 0.0,
			"-0.02": 0.120277724724,
			"-0.019": 0.877177211572,
			"-0.018": 1.19550421007,
			"-0.017": 0.815287804494,
			"-0.016": 0.523392421929,
			"-0.015": 0.965329196553,
			"-0.014": 1.72545853492,
			"-0.013": 1.174585712,
			"-0.012": 1.01235769762,
			"-0.011": 1.02219181019,
			"-0.01": 1.56070877075,
			"-0.009": 1.62529482724,
			"-0.008": 2.05045581785,
			"-0.007": 3.18273672336,
			"-0.006": 3.78391445589,
			"-0.005": 12.1305265476,
			"-0.004": 22.9970893748,
			"-0.003": 28.5077842725,
			"-0.002": 24.6583675705,
			"-0.001": 27.4214331425,
			"0.0": 22.1881435022,
			"0.001": 10.7205890611,
			"0.002": 11.2945500637,
			"0.003": 14.2182266819,
			"0.004": 9.78921003448,
			"0.005": 5.70014628902,
			"0.006": 6.24624827434,
			"0.007": 8.477409113,
			"0.008": 11.4319372014,
			"0.009": 6.16883411697,
			"0.01": 5.81352617885,
			"0.011": 5.12388235098,
			"0.012": 2.82269138184,
			"0.013": 0.581662688147,
			"0.014": 0.0,
			"0.015": 0.0,
			"0.016": 0.0,
			"0.017": 0.0,
			"0.018": 0.0,
			"0.019": 0.0,
			"0.02": 0.0,
			"0.021": 0.0,
			"0.022": 0.0,
			"0.023": 0.0,
			"0.024": 0.0,
			"0.025": 0.0
		}
	}
}
