{
	 "smiles": "CC(C)CC(=O)C1C(=O)C2=C(C=CC=C2)C1=O", 
	 "Tm": 341.65, 
	 "num_atms": 31, 
	 "gaussian": { 
		 "optdone": 1, 
		 "sigma_profile": "yes", 
		 "theory": "DFT", 
		 "functional": "B3LYP", 
		 "basiset": "6-31G**", 
		 "properties": { 
			 "R2extent": 4557.5717, 
			 "electric_dipole_moment_norm": 5.50123622289, 
			 "electric_quadrupole_moment_norm": 13.4340996807, 
			 "total_energy": -767.60524357, 
			 "HOMO_LUMO_gap": 0.16068, 
			 "cosmo_polarized_energy": -14.49, 
			 "cosmo_cavitation_energy": 35.31, 
			 "cosmo_dispersion_energy": -23.87, 
			 "cosmo_repulsion_energy": 1.87, 
			 "cosmo_total_nonelectrostatic_energy": 13.31, 
			 "SMD_solvation_energy": 7.45 
		},
		"coords": [
			{
				"x": -0.8063184637,
				"y": 2.7163778337,
				"z": -2.2086786356,
				"element": "C" 
			},
			{
				"x": -0.4674282475,
				"y": 1.373341656,
				"z": -2.8721859552,
				"element": "C" 
			},
			{
				"x": 0.7029102017,
				"y": 1.5180858167,
				"z": -3.854811033,
				"element": "C" 
			},
			{
				"x": -0.1585352934,
				"y": 0.2928376772,
				"z": -1.8241535133,
				"element": "C" 
			},
			{
				"x": -1.3581651351,
				"y": -0.1619872181,
				"z": -1.0086174252,
				"element": "C" 
			},
			{
				"x": -2.5051451325,
				"y": 0.0677837651,
				"z": -1.3273619346,
				"element": "O" 
			},
			{
				"x": -1.0608796452,
				"y": -0.9671510427,
				"z": 0.2709046059,
				"element": "C" 
			},
			{
				"x": -0.0615628629,
				"y": -2.1301212361,
				"z": 0.1073121798,
				"element": "C" 
			},
			{
				"x": -0.1033878982,
				"y": -2.9941605308,
				"z": -0.7458446697,
				"element": "O" 
			},
			{
				"x": 0.9641104376,
				"y": -1.9981541897,
				"z": 1.1778976688,
				"element": "C" 
			},
			{
				"x": 0.7412543677,
				"y": -0.8338071917,
				"z": 1.9216870478,
				"element": "C" 
			},
			{
				"x": 1.5799856252,
				"y": -0.480305679,
				"z": 2.9793881033,
				"element": "C" 
			},
			{
				"x": 2.6466180298,
				"y": -1.3290840652,
				"z": 3.2751752215,
				"element": "C" 
			},
			{
				"x": 2.8704259862,
				"y": -2.4998447484,
				"z": 2.527922043,
				"element": "C" 
			},
			{
				"x": 2.0326742502,
				"y": -2.8473631543,
				"z": 1.468245168,
				"element": "C" 
			},
			{
				"x": -0.451939301,
				"y": -0.1089893276,
				"z": 1.4038753588,
				"element": "C" 
			},
			{
				"x": -0.8682974479,
				"y": 0.9626522985,
				"z": 1.7921298749,
				"element": "O" 
			},
			{
				"x": -1.0619814711,
				"y": 3.4683698912,
				"z": -2.9626457783,
				"element": "H" 
			},
			{
				"x": -1.6561959372,
				"y": 2.6214563377,
				"z": -1.5278980398,
				"element": "H" 
			},
			{
				"x": 0.0490268063,
				"y": 3.0977345293,
				"z": -1.6368391448,
				"element": "H" 
			},
			{
				"x": -1.3513695677,
				"y": 1.0373302574,
				"z": -3.4275553597,
				"element": "H" 
			},
			{
				"x": 0.4799434262,
				"y": 2.2703359105,
				"z": -4.6187237575,
				"element": "H" 
			},
			{
				"x": 1.617744404,
				"y": 1.8345211446,
				"z": -3.3383897537,
				"element": "H" 
			},
			{
				"x": 0.9189381475,
				"y": 0.5741225999,
				"z": -4.367636954,
				"element": "H" 
			},
			{
				"x": 0.6373938651,
				"y": 0.6250060895,
				"z": -1.1416450305,
				"element": "H" 
			},
			{
				"x": 0.2315861449,
				"y": -0.6140159363,
				"z": -2.3105097116,
				"element": "H" 
			},
			{
				"x": -2.0246573431,
				"y": -1.3636550028,
				"z": 0.6106305135,
				"element": "H" 
			},
			{
				"x": 1.3962148862,
				"y": 0.4273668254,
				"z": 3.5453170108,
				"element": "H" 
			},
			{
				"x": 3.3179994428,
				"y": -1.0861918211,
				"z": 4.093568085,
				"element": "H" 
			},
			{
				"x": 3.7104903801,
				"y": -3.1390731498,
				"z": 2.783252495,
				"element": "H" 
			},
			{
				"x": 2.194747345,
				"y": -3.7455183391,
				"z": 0.8808913206,
				"element": "H" 
			}
		],
		 "valence_orbital": [ 
			{
				"type": "occ",
				"energy": -0.28969,
				"method": "rhf"
			},
			{
				"type": "occ",
				"energy": -0.2868,
				"method": "rhf"
			},
			{
				"type": "occ",
				"energy": -0.28666,
				"method": "rhf"
			},
			{
				"type": "occ",
				"energy": -0.25709,
				"method": "rhf"
			},
			{
				"type": "occ",
				"energy": -0.25138,
				"method": "rhf"
			},
			{
				"type": "unocc",
				"energy": -0.0907,
				"method": "rhf"
			},
			{
				"type": "unocc",
				"energy": -0.07243,
				"method": "rhf"
			},
			{
				"type": "unocc",
				"energy": -0.02426,
				"method": "rhf"
			},
			{
				"type": "unocc",
				"energy": 0.01483,
				"method": "rhf"
			},
			{
				"type": "unocc",
				"energy": 0.02238,
				"method": "rhf"
			}
		],
		"cosmo_sigma_profile": { 
			"-0.025": 0.0,
			"-0.024": 0.0,
			"-0.023": 0.0,
			"-0.022": 0.0,
			"-0.021": 0.0,
			"-0.02": 0.0,
			"-0.019": 0.0,
			"-0.018": 0.0,
			"-0.017": 0.0,
			"-0.016": 0.0,
			"-0.015": 0.0,
			"-0.014": 0.0,
			"-0.013": 0.0,
			"-0.012": 0.0,
			"-0.011": 0.013726021146,
			"-0.01": 0.863406394311,
			"-0.009": 3.54613266796,
			"-0.008": 6.60061012048,
			"-0.007": 11.3363622531,
			"-0.006": 13.5578200728,
			"-0.005": 12.4862553954,
			"-0.004": 15.2246079336,
			"-0.003": 21.8001268281,
			"-0.002": 26.4994652297,
			"-0.001": 29.5026076835,
			"0.0": 29.2527350028,
			"0.001": 34.4303943257,
			"0.002": 15.3668032531,
			"0.003": 5.74631031117,
			"0.004": 5.42458397972,
			"0.005": 4.77323721647,
			"0.006": 4.28607355789,
			"0.007": 4.1256271482,
			"0.008": 5.63370256566,
			"0.009": 6.25669653789,
			"0.01": 9.88664816972,
			"0.011": 11.1425033333,
			"0.012": 1.75204883233,
			"0.013": 0.0,
			"0.014": 0.0,
			"0.015": 0.0,
			"0.016": 0.0,
			"0.017": 0.0,
			"0.018": 0.0,
			"0.019": 0.0,
			"0.02": 0.0,
			"0.021": 0.0,
			"0.022": 0.0,
			"0.023": 0.0,
			"0.024": 0.0,
			"0.025": 0.0
		}
	}
}
