{
	 "smiles": "NC1=C(C=C(C=C1)N1C=CN=C1)C(F)(F)F", 
	 "Tm": 383.15, 
	 "num_atms": 24, 
	 "gaussian": { 
		 "optdone": 1, 
		 "sigma_profile": "yes", 
		 "theory": "DFT", 
		 "functional": "B3LYP", 
		 "basiset": "6-31G**", 
		 "properties": { 
			 "R2extent": 4739.3817, 
			 "electric_dipole_moment_norm": 4.72279717223, 
			 "electric_quadrupole_moment_norm": 19.16768754, 
			 "total_energy": -849.660973773, 
			 "HOMO_LUMO_gap": 0.17987, 
			 "cosmo_polarized_energy": -14.02, 
			 "cosmo_cavitation_energy": 29.71, 
			 "cosmo_dispersion_energy": -21.25, 
			 "cosmo_repulsion_energy": 1.56, 
			 "cosmo_total_nonelectrostatic_energy": 10.02, 
			 "SMD_solvation_energy": 5.16 
		},
		"coords": [
			{
				"x": -3.1571252086,
				"y": 1.9106068744,
				"z": -0.002608777,
				"element": "N" 
			},
			{
				"x": -2.3207497413,
				"y": 0.9181057065,
				"z": -0.4805427577,
				"element": "C" 
			},
			{
				"x": -1.6721333074,
				"y": -0.0014053249,
				"z": 0.3793599287,
				"element": "C" 
			},
			{
				"x": -0.7905986634,
				"y": -0.953783676,
				"z": -0.1327098299,
				"element": "C" 
			},
			{
				"x": -0.543991074,
				"y": -1.037361659,
				"z": -1.5022240664,
				"element": "C" 
			},
			{
				"x": -1.1859098089,
				"y": -0.1390727711,
				"z": -2.3632865725,
				"element": "C" 
			},
			{
				"x": -2.0476794781,
				"y": 0.8238237462,
				"z": -1.8586017797,
				"element": "C" 
			},
			{
				"x": 0.3478784302,
				"y": -2.0160236054,
				"z": -2.0162958899,
				"element": "N" 
			},
			{
				"x": 0.4422284819,
				"y": -3.3461292376,
				"z": -1.6345772872,
				"element": "C" 
			},
			{
				"x": 1.4472889458,
				"y": -3.8794592373,
				"z": -2.3999676959,
				"element": "C" 
			},
			{
				"x": 1.982183244,
				"y": -2.9262846319,
				"z": -3.2388893361,
				"element": "N" 
			},
			{
				"x": 1.3070833141,
				"y": -1.8285219724,
				"z": -2.9850662037,
				"element": "C" 
			},
			{
				"x": -1.881723346,
				"y": 0.0804292112,
				"z": 1.8643104481,
				"element": "C" 
			},
			{
				"x": -1.3923176915,
				"y": 1.2265653179,
				"z": 2.3878264339,
				"element": "F" 
			},
			{
				"x": -1.3082077353,
				"y": -0.9418407474,
				"z": 2.5262210612,
				"element": "F" 
			},
			{
				"x": -3.211183459,
				"y": 0.06189583,
				"z": 2.1858822602,
				"element": "F" 
			},
			{
				"x": -3.7586847422,
				"y": 2.3467669987,
				"z": -0.6854502437,
				"element": "H" 
			},
			{
				"x": -3.605366288,
				"y": 1.7449855814,
				"z": 0.8860468389,
				"element": "H" 
			},
			{
				"x": -0.2856107511,
				"y": -1.6278480918,
				"z": 0.5486337831,
				"element": "H" 
			},
			{
				"x": -1.02379937,
				"y": -0.2113776428,
				"z": -3.4339330195,
				"element": "H" 
			},
			{
				"x": -2.5390422028,
				"y": 1.5129353498,
				"z": -2.5400211916,
				"element": "H" 
			},
			{
				"x": -0.2239893435,
				"y": -3.7722456142,
				"z": -0.9009034982,
				"element": "H" 
			},
			{
				"x": 1.811369268,
				"y": -4.8976175958,
				"z": -2.3984189093,
				"element": "H" 
			},
			{
				"x": 1.4727805271,
				"y": -0.8600428086,
				"z": -3.4365836957,
				"element": "H" 
			}
		],
		 "valence_orbital": [ 
			{
				"type": "occ",
				"energy": -0.28194,
				"method": "rhf"
			},
			{
				"type": "occ",
				"energy": -0.27881,
				"method": "rhf"
			},
			{
				"type": "occ",
				"energy": -0.26368,
				"method": "rhf"
			},
			{
				"type": "occ",
				"energy": -0.23043,
				"method": "rhf"
			},
			{
				"type": "occ",
				"energy": -0.21619,
				"method": "rhf"
			},
			{
				"type": "unocc",
				"energy": -0.03632,
				"method": "rhf"
			},
			{
				"type": "unocc",
				"energy": -0.01878,
				"method": "rhf"
			},
			{
				"type": "unocc",
				"energy": 0.03526,
				"method": "rhf"
			},
			{
				"type": "unocc",
				"energy": 0.06732,
				"method": "rhf"
			},
			{
				"type": "unocc",
				"energy": 0.07149,
				"method": "rhf"
			}
		],
		"cosmo_sigma_profile": { 
			"-0.025": 0.0,
			"-0.024": 0.0,
			"-0.023": 0.0,
			"-0.022": 0.0,
			"-0.021": 0.0,
			"-0.02": 0.0,
			"-0.019": 0.0,
			"-0.018": 0.0,
			"-0.017": 0.0,
			"-0.016": 0.0,
			"-0.015": 0.0,
			"-0.014": 0.283685508587,
			"-0.013": 1.75265757887,
			"-0.012": 1.82923415099,
			"-0.011": 2.68984299317,
			"-0.01": 2.95509633736,
			"-0.009": 3.25955066482,
			"-0.008": 7.2139324077,
			"-0.007": 11.5588227709,
			"-0.006": 11.2419922333,
			"-0.005": 11.2465961619,
			"-0.004": 9.4589710334,
			"-0.003": 11.2614583643,
			"-0.002": 11.232226689,
			"-0.001": 12.0056575719,
			"0.0": 16.6979776399,
			"0.001": 19.5994356303,
			"0.002": 30.6847318196,
			"0.003": 33.1007237514,
			"0.004": 9.42486442196,
			"0.005": 7.16626923646,
			"0.006": 4.71793679256,
			"0.007": 2.4840541568,
			"0.008": 2.13368350891,
			"0.009": 3.17892508928,
			"0.01": 2.22157217068,
			"0.011": 1.42100526081,
			"0.012": 1.43011307219,
			"0.013": 1.38389228336,
			"0.014": 1.04792431859,
			"0.015": 1.05060147011,
			"0.016": 1.46812352546,
			"0.017": 0.835231205863,
			"0.018": 0.718756775429,
			"0.019": 0.0463043832406,
			"0.02": 0.0,
			"0.021": 0.0,
			"0.022": 0.0,
			"0.023": 0.0,
			"0.024": 0.0,
			"0.025": 0.0
		}
	}
}
