{
	 "smiles": "C1CC11C=CC2C3C=CC(C12)C31CC1", 
	 "Tm": 318.15, 
	 "num_atms": 30, 
	 "gaussian": { 
		 "optdone": 1, 
		 "sigma_profile": "yes", 
		 "theory": "DFT", 
		 "functional": "B3LYP", 
		 "basiset": "6-31G**", 
		 "properties": { 
			 "R2extent": 2438.2413, 
			 "electric_dipole_moment_norm": 0.154284704362, 
			 "electric_quadrupole_moment_norm": 3.15983810345, 
			 "total_energy": -543.009194959, 
			 "HOMO_LUMO_gap": 0.23759, 
			 "cosmo_polarized_energy": -3.89, 
			 "cosmo_cavitation_energy": 29.74, 
			 "cosmo_dispersion_energy": -21.2, 
			 "cosmo_repulsion_energy": 1.66, 
			 "cosmo_total_nonelectrostatic_energy": 10.2, 
			 "SMD_solvation_energy": 4.03 
		},
		"coords": [
			{
				"x": 0.12881571,
				"y": -0.0592834978,
				"z": 2.7981465366,
				"element": "C" 
			},
			{
				"x": 1.2424371125,
				"y": -1.0694729969,
				"z": 2.7420676072,
				"element": "C" 
			},
			{
				"x": 0.860354461,
				"y": -0.2969686373,
				"z": 1.4911829067,
				"element": "C" 
			},
			{
				"x": 1.7906439335,
				"y": 0.7202560395,
				"z": 0.9239349142,
				"element": "C" 
			},
			{
				"x": 1.8229316268,
				"y": 0.6968004199,
				"z": -0.4128611109,
				"element": "C" 
			},
			{
				"x": 0.8860547112,
				"y": -0.3333910836,
				"z": -0.9873023142,
				"element": "C" 
			},
			{
				"x": -0.3588151877,
				"y": 0.177068139,
				"z": -1.8200043885,
				"element": "C" 
			},
			{
				"x": -1.0155028198,
				"y": 1.2942046135,
				"z": -1.0251093219,
				"element": "C" 
			},
			{
				"x": -1.5832483733,
				"y": 0.7439408041,
				"z": 0.0565860097,
				"element": "C" 
			},
			{
				"x": -1.3190737663,
				"y": -0.7547221852,
				"z": 0.005468193,
				"element": "C" 
			},
			{
				"x": 0.2130499606,
				"y": -0.9894165893,
				"z": 0.2774024732,
				"element": "C" 
			},
			{
				"x": -1.3347073822,
				"y": -0.9698800778,
				"z": -1.5167119752,
				"element": "C" 
			},
			{
				"x": -2.5305991728,
				"y": -1.3389786128,
				"z": -2.3336816293,
				"element": "C" 
			},
			{
				"x": -1.3567807095,
				"y": -2.3004154002,
				"z": -2.2082489346,
				"element": "C" 
			},
			{
				"x": -0.8902769119,
				"y": -0.4266221829,
				"z": 2.8814657928,
				"element": "H" 
			},
			{
				"x": 0.3041787669,
				"y": 0.8784548191,
				"z": 3.3189026204,
				"element": "H" 
			},
			{
				"x": 2.1856407877,
				"y": -0.8293539379,
				"z": 3.2255684387,
				"element": "H" 
			},
			{
				"x": 0.9794080804,
				"y": -2.1238016147,
				"z": 2.7778535569,
				"element": "H" 
			},
			{
				"x": 2.3754566495,
				"y": 1.3834531191,
				"z": 1.5569400893,
				"element": "H" 
			},
			{
				"x": 2.4429683738,
				"y": 1.3404270818,
				"z": -1.030535764,
				"element": "H" 
			},
			{
				"x": 1.4208416784,
				"y": -1.0734259605,
				"z": -1.596456908,
				"element": "H" 
			},
			{
				"x": -0.1429316367,
				"y": 0.3833191866,
				"z": -2.8714296804,
				"element": "H" 
			},
			{
				"x": -0.9305246625,
				"y": 2.3510081006,
				"z": -1.2533296823,
				"element": "H" 
			},
			{
				"x": -2.0582807725,
				"y": 1.2626675195,
				"z": 0.8815654496,
				"element": "H" 
			},
			{
				"x": -1.9851815203,
				"y": -1.3873777902,
				"z": 0.5983132503,
				"element": "H" 
			},
			{
				"x": 0.400488716,
				"y": -2.0678919574,
				"z": 0.3018691905,
				"element": "H" 
			},
			{
				"x": -3.4529240914,
				"y": -1.5922152557,
				"z": -1.8174856868,
				"element": "H" 
			},
			{
				"x": -2.6802791197,
				"y": -0.8406219614,
				"z": -3.2878486185,
				"element": "H" 
			},
			{
				"x": -0.7226164438,
				"y": -2.4459995935,
				"z": -3.0795430232,
				"element": "H" 
			},
			{
				"x": -1.495427998,
				"y": -3.1972605076,
				"z": -1.6090179911,
				"element": "H" 
			}
		],
		 "valence_orbital": [ 
			{
				"type": "occ",
				"energy": -0.28536,
				"method": "rhf"
			},
			{
				"type": "occ",
				"energy": -0.2809,
				"method": "rhf"
			},
			{
				"type": "occ",
				"energy": -0.26727,
				"method": "rhf"
			},
			{
				"type": "occ",
				"energy": -0.22872,
				"method": "rhf"
			},
			{
				"type": "occ",
				"energy": -0.21479,
				"method": "rhf"
			},
			{
				"type": "unocc",
				"energy": 0.0228,
				"method": "rhf"
			},
			{
				"type": "unocc",
				"energy": 0.03219,
				"method": "rhf"
			},
			{
				"type": "unocc",
				"energy": 0.08495,
				"method": "rhf"
			},
			{
				"type": "unocc",
				"energy": 0.1059,
				"method": "rhf"
			},
			{
				"type": "unocc",
				"energy": 0.11164,
				"method": "rhf"
			}
		],
		"cosmo_sigma_profile": { 
			"-0.025": 0.0,
			"-0.024": 0.0,
			"-0.023": 0.0,
			"-0.022": 0.0,
			"-0.021": 0.0,
			"-0.02": 0.0,
			"-0.019": 0.0,
			"-0.018": 0.0,
			"-0.017": 0.0,
			"-0.016": 0.0,
			"-0.015": 0.0,
			"-0.014": 0.0,
			"-0.013": 0.0,
			"-0.012": 0.0,
			"-0.011": 0.0,
			"-0.01": 0.0,
			"-0.009": 0.0,
			"-0.008": 0.0,
			"-0.007": 0.0,
			"-0.006": 0.00630192007301,
			"-0.005": 3.84426077398,
			"-0.004": 18.5637816966,
			"-0.003": 30.3926245018,
			"-0.002": 34.2874002662,
			"-0.001": 31.8981681002,
			"0.0": 30.1547896161,
			"0.001": 20.8710583726,
			"0.002": 15.170838158,
			"0.003": 11.5103250109,
			"0.004": 9.40303206154,
			"0.005": 8.84743375786,
			"0.006": 8.87968913927,
			"0.007": 4.29551928749,
			"0.008": 2.78615538255,
			"0.009": 1.57511950696,
			"0.01": 0.17706179888,
			"0.011": 0.0,
			"0.012": 0.0,
			"0.013": 0.0,
			"0.014": 0.0,
			"0.015": 0.0,
			"0.016": 0.0,
			"0.017": 0.0,
			"0.018": 0.0,
			"0.019": 0.0,
			"0.02": 0.0,
			"0.021": 0.0,
			"0.022": 0.0,
			"0.023": 0.0,
			"0.024": 0.0,
			"0.025": 0.0
		}
	}
}
