{
	 "smiles": "OC1=CC=CC(C=CC(=O)C2=CC=CC=C2)=C1", 
	 "Tm": 430.15, 
	 "num_atms": 29, 
	 "gaussian": { 
		 "optdone": 1, 
		 "sigma_profile": "yes", 
		 "theory": "DFT", 
		 "functional": "B3LYP", 
		 "basiset": "6-31G**", 
		 "properties": { 
			 "R2extent": 6555.6528, 
			 "electric_dipole_moment_norm": 2.66667140458, 
			 "electric_quadrupole_moment_norm": 14.2812901987, 
			 "total_energy": -729.258964534, 
			 "HOMO_LUMO_gap": 0.15392, 
			 "cosmo_polarized_energy": -15.03, 
			 "cosmo_cavitation_energy": 34.14, 
			 "cosmo_dispersion_energy": -24.51, 
			 "cosmo_repulsion_energy": 1.89, 
			 "cosmo_total_nonelectrostatic_energy": 11.52, 
			 "SMD_solvation_energy": 6.62 
		},
		"coords": [
			{
				"x": -1.2868074867,
				"y": 1.2781232411,
				"z": -4.9820866966,
				"element": "O" 
			},
			{
				"x": -0.2902906022,
				"y": 0.782260924,
				"z": -4.192340851,
				"element": "C" 
			},
			{
				"x": 0.658721043,
				"y": -0.0463880923,
				"z": -4.8097644038,
				"element": "C" 
			},
			{
				"x": 1.6951992592,
				"y": -0.5790852044,
				"z": -4.0505578305,
				"element": "C" 
			},
			{
				"x": 1.7968966983,
				"y": -0.2970220645,
				"z": -2.687708488,
				"element": "C" 
			},
			{
				"x": 0.852026288,
				"y": 0.531914365,
				"z": -2.0597085961,
				"element": "C" 
			},
			{
				"x": 0.9975511475,
				"y": 0.7963412357,
				"z": -0.624937152,
				"element": "C" 
			},
			{
				"x": 0.221523636,
				"y": 1.5892174242,
				"z": 0.1419926434,
				"element": "C" 
			},
			{
				"x": 0.4676887759,
				"y": 1.9319517564,
				"z": 1.5632390809,
				"element": "C" 
			},
			{
				"x": 0.0292292652,
				"y": 2.9945634335,
				"z": 1.998123637,
				"element": "O" 
			},
			{
				"x": 1.2523471711,
				"y": 1.0213198627,
				"z": 2.4638747997,
				"element": "C" 
			},
			{
				"x": 1.9611808665,
				"y": 1.6069460569,
				"z": 3.5249829941,
				"element": "C" 
			},
			{
				"x": 2.6760270796,
				"y": 0.8154735691,
				"z": 4.4190596199,
				"element": "C" 
			},
			{
				"x": 2.6702625654,
				"y": -0.5762046234,
				"z": 4.2810986561,
				"element": "C" 
			},
			{
				"x": 1.9452827111,
				"y": -1.1701040074,
				"z": 3.2470348948,
				"element": "C" 
			},
			{
				"x": 1.2427595843,
				"y": -0.3764670364,
				"z": 2.3386788163,
				"element": "C" 
			},
			{
				"x": -0.195629286,
				"y": 1.0682633434,
				"z": -2.8319014338,
				"element": "C" 
			},
			{
				"x": -1.8692666068,
				"y": 1.8358219306,
				"z": -4.4499868769,
				"element": "H" 
			},
			{
				"x": 0.5628318688,
				"y": -0.2536366652,
				"z": -5.8702079418,
				"element": "H" 
			},
			{
				"x": 2.4315512984,
				"y": -1.2203214177,
				"z": -4.525908942,
				"element": "H" 
			},
			{
				"x": 2.6104358919,
				"y": -0.7167394055,
				"z": -2.1033370806,
				"element": "H" 
			},
			{
				"x": 1.8465328544,
				"y": 0.3018047624,
				"z": -0.1583923166,
				"element": "H" 
			},
			{
				"x": -0.5982021626,
				"y": 2.1603199487,
				"z": -0.2868215661,
				"element": "H" 
			},
			{
				"x": 1.9340252667,
				"y": 2.6866199546,
				"z": 3.6286810071,
				"element": "H" 
			},
			{
				"x": 3.2326988022,
				"y": 1.2793461847,
				"z": 5.2282685354,
				"element": "H" 
			},
			{
				"x": 3.2224105559,
				"y": -1.194815625,
				"z": 4.9829810543,
				"element": "H" 
			},
			{
				"x": 1.9211155969,
				"y": -2.25167127,
				"z": 3.1496391113,
				"element": "H" 
			},
			{
				"x": 0.6617786308,
				"y": -0.8446352465,
				"z": 1.551215618,
				"element": "H" 
			},
			{
				"x": -0.9405807128,
				"y": 1.7112026653,
				"z": -2.3699102925,
				"element": "H" 
			}
		],
		 "valence_orbital": [ 
			{
				"type": "occ",
				"energy": -0.25891,
				"method": "rhf"
			},
			{
				"type": "occ",
				"energy": -0.2579,
				"method": "rhf"
			},
			{
				"type": "occ",
				"energy": -0.24641,
				"method": "rhf"
			},
			{
				"type": "occ",
				"energy": -0.24112,
				"method": "rhf"
			},
			{
				"type": "occ",
				"energy": -0.22758,
				"method": "rhf"
			},
			{
				"type": "unocc",
				"energy": -0.07366,
				"method": "rhf"
			},
			{
				"type": "unocc",
				"energy": -0.02795,
				"method": "rhf"
			},
			{
				"type": "unocc",
				"energy": -0.00773,
				"method": "rhf"
			},
			{
				"type": "unocc",
				"energy": 0.00077,
				"method": "rhf"
			},
			{
				"type": "unocc",
				"energy": 0.02932,
				"method": "rhf"
			}
		],
		"cosmo_sigma_profile": { 
			"-0.025": 0.0,
			"-0.024": 0.0,
			"-0.023": 0.0,
			"-0.022": 0.0,
			"-0.021": 0.0,
			"-0.02": 0.0,
			"-0.019": 0.0,
			"-0.018": 0.382735166034,
			"-0.017": 1.2680509192,
			"-0.016": 1.19560933401,
			"-0.015": 1.27341805325,
			"-0.014": 1.24894158977,
			"-0.013": 0.315661787388,
			"-0.012": 0.574773046492,
			"-0.011": 1.60926571195,
			"-0.01": 1.45102298618,
			"-0.009": 1.48664804849,
			"-0.008": 2.68295500139,
			"-0.007": 5.58267476843,
			"-0.006": 16.3905486407,
			"-0.005": 20.2542012281,
			"-0.004": 21.0144028938,
			"-0.003": 16.8370496725,
			"-0.002": 16.6420073497,
			"-0.001": 16.8302641438,
			"0.0": 15.5678746502,
			"0.001": 18.2857156288,
			"0.002": 20.976210297,
			"0.003": 24.2893824601,
			"0.004": 27.2766794124,
			"0.005": 12.2812291435,
			"0.006": 2.75948134369,
			"0.007": 3.08114956562,
			"0.008": 2.77313691734,
			"0.009": 3.13212130614,
			"0.01": 3.84136176497,
			"0.011": 4.09656133137,
			"0.012": 4.23857051072,
			"0.013": 3.62122644608,
			"0.014": 0.586214445987,
			"0.015": 0.0,
			"0.016": 0.0,
			"0.017": 0.0,
			"0.018": 0.0,
			"0.019": 0.0,
			"0.02": 0.0,
			"0.021": 0.0,
			"0.022": 0.0,
			"0.023": 0.0,
			"0.024": 0.0,
			"0.025": 0.0
		}
	}
}
