{
	 "smiles": "OC(=O)C(=CC1=CNN=C1C1=CC(Br)=CC=C1)C#N", 
	 "Tm": 532.15, 
	 "num_atms": 27, 
	 "gaussian": { 
		 "optdone": 1, 
		 "sigma_profile": "yes", 
		 "theory": "DFT", 
		 "functional": "B3LYP", 
		 "basiset": "6-31G**", 
		 "properties": { 
			 "R2extent": 10896.7998, 
			 "electric_dipole_moment_norm": 3.01254498888, 
			 "electric_quadrupole_moment_norm": 35.0607943684, 
			 "total_energy": -3386.28027445, 
			 "HOMO_LUMO_gap": 0.1559, 
			 "cosmo_polarized_energy": -21.59, 
			 "cosmo_cavitation_energy": 36.54, 
			 "cosmo_dispersion_energy": -25.9, 
			 "cosmo_repulsion_energy": 2.01, 
			 "cosmo_total_nonelectrostatic_energy": 12.64, 
			 "SMD_solvation_energy": 6.78 
		},
		"coords": [
			{
				"x": 2.2194625232,
				"y": -1.0032649664,
				"z": 0.0931354942,
				"element": "O" 
			},
			{
				"x": 1.7218086048,
				"y": -1.9113439427,
				"z": -0.7846283348,
				"element": "C" 
			},
			{
				"x": 2.394412841,
				"y": -2.8018453444,
				"z": -1.2595889531,
				"element": "O" 
			},
			{
				"x": 0.2853659956,
				"y": -1.6940014195,
				"z": -1.087209295,
				"element": "C" 
			},
			{
				"x": -0.4296619672,
				"y": -0.6695821801,
				"z": -0.5346314041,
				"element": "C" 
			},
			{
				"x": -1.8066203181,
				"y": -0.3143272678,
				"z": -0.7350822246,
				"element": "C" 
			},
			{
				"x": -2.731998161,
				"y": -0.8149069874,
				"z": -1.6590925957,
				"element": "C" 
			},
			{
				"x": -3.8445361039,
				"y": -0.0776983124,
				"z": -1.5109935419,
				"element": "N" 
			},
			{
				"x": -3.7537935367,
				"y": 0.8738266109,
				"z": -0.5516091854,
				"element": "N" 
			},
			{
				"x": -2.5221384887,
				"y": 0.7441995863,
				"z": -0.0643620978,
				"element": "C" 
			},
			{
				"x": -2.0668541937,
				"y": 1.6383556829,
				"z": 1.0169886184,
				"element": "C" 
			},
			{
				"x": -2.4628660821,
				"y": 2.9862626156,
				"z": 0.9992499371,
				"element": "C" 
			},
			{
				"x": -2.0525327163,
				"y": 3.8359634556,
				"z": 2.020184433,
				"element": "C" 
			},
			{
				"x": -2.5916014471,
				"y": 5.669350741,
				"z": 1.9817556708,
				"element": "Br" 
			},
			{
				"x": -1.2517565544,
				"y": 3.3833132643,
				"z": 3.0692111438,
				"element": "C" 
			},
			{
				"x": -0.8699431343,
				"y": 2.0422016428,
				"z": 3.0898611023,
				"element": "C" 
			},
			{
				"x": -1.2749037404,
				"y": 1.171668037,
				"z": 2.0781407729,
				"element": "C" 
			},
			{
				"x": -0.2976797205,
				"y": -2.6271374061,
				"z": -1.9986371155,
				"element": "C" 
			},
			{
				"x": -0.833355754,
				"y": -3.3475246737,
				"z": -2.7398100305,
				"element": "N" 
			},
			{
				"x": 3.1541520103,
				"y": -1.2381834614,
				"z": 0.2112453041,
				"element": "H" 
			},
			{
				"x": 0.1261013252,
				"y": -0.0285419781,
				"z": 0.14163106,
				"element": "H" 
			},
			{
				"x": -2.6536914593,
				"y": -1.607560116,
				"z": -2.3871119866,
				"element": "H" 
			},
			{
				"x": -4.7137287937,
				"y": -0.1761083867,
				"z": -2.0147492878,
				"element": "H" 
			},
			{
				"x": -3.082885439,
				"y": 3.3520745594,
				"z": 0.1901710044,
				"element": "H" 
			},
			{
				"x": -0.9404762248,
				"y": 4.0642458208,
				"z": 3.8528795278,
				"element": "H" 
			},
			{
				"x": -0.261230141,
				"y": 1.6720774926,
				"z": 3.9092330073,
				"element": "H" 
			},
			{
				"x": -1.0037493237,
				"y": 0.1226869337,
				"z": 2.1324189765,
				"element": "H" 
			}
		],
		 "valence_orbital": [ 
			{
				"type": "occ",
				"energy": -0.29284,
				"method": "rhf"
			},
			{
				"type": "occ",
				"energy": -0.28913,
				"method": "rhf"
			},
			{
				"type": "occ",
				"energy": -0.26311,
				"method": "rhf"
			},
			{
				"type": "occ",
				"energy": -0.25477,
				"method": "rhf"
			},
			{
				"type": "occ",
				"energy": -0.247,
				"method": "rhf"
			},
			{
				"type": "unocc",
				"energy": -0.0911,
				"method": "rhf"
			},
			{
				"type": "unocc",
				"energy": -0.04187,
				"method": "rhf"
			},
			{
				"type": "unocc",
				"energy": -0.02601,
				"method": "rhf"
			},
			{
				"type": "unocc",
				"energy": -0.00171,
				"method": "rhf"
			},
			{
				"type": "unocc",
				"energy": 0.00597,
				"method": "rhf"
			}
		],
		"cosmo_sigma_profile": { 
			"-0.025": 0.0,
			"-0.024": 0.0,
			"-0.023": 0.0,
			"-0.022": 0.0,
			"-0.021": 0.0,
			"-0.02": 0.0,
			"-0.019": 0.462179871191,
			"-0.018": 2.33718606798,
			"-0.017": 2.91297720856,
			"-0.016": 2.22994893875,
			"-0.015": 1.88046287934,
			"-0.014": 2.11758504781,
			"-0.013": 1.03887900086,
			"-0.012": 1.57153704178,
			"-0.011": 2.04457488286,
			"-0.01": 2.47935478621,
			"-0.009": 2.31857693025,
			"-0.008": 2.33517499704,
			"-0.007": 9.10677134318,
			"-0.006": 11.4977546735,
			"-0.005": 12.521107169,
			"-0.004": 13.6849660262,
			"-0.003": 19.1595825925,
			"-0.002": 21.6932209235,
			"-0.001": 23.5984456407,
			"0.0": 22.4398331492,
			"0.001": 20.8227293147,
			"0.002": 23.4405512671,
			"0.003": 22.7962805076,
			"0.004": 16.7762391886,
			"0.005": 11.3279162534,
			"0.006": 8.30062247145,
			"0.007": 5.04515320244,
			"0.008": 5.72923711374,
			"0.009": 5.96480513765,
			"0.01": 6.24787732012,
			"0.011": 8.36332113328,
			"0.012": 4.8047739596,
			"0.013": 1.53067859975,
			"0.014": 0.356285325121,
			"0.015": 0.0,
			"0.016": 0.0,
			"0.017": 0.0,
			"0.018": 0.0,
			"0.019": 0.0,
			"0.02": 0.0,
			"0.021": 0.0,
			"0.022": 0.0,
			"0.023": 0.0,
			"0.024": 0.0,
			"0.025": 0.0
		}
	}
}
