{
	 "smiles": "CCOC(=O)C1=C(N)SC=C1", 
	 "Tm": 316.15, 
	 "num_atms": 20, 
	 "gaussian": { 
		 "optdone": 1, 
		 "sigma_profile": "yes", 
		 "theory": "DFT", 
		 "functional": "B3LYP", 
		 "basiset": "6-31G**", 
		 "properties": { 
			 "R2extent": 4139.0079, 
			 "electric_dipole_moment_norm": 0.756785610328, 
			 "electric_quadrupole_moment_norm": 11.983855184, 
			 "total_energy": -875.566536024, 
			 "HOMO_LUMO_gap": 0.18158, 
			 "cosmo_polarized_energy": -9.23, 
			 "cosmo_cavitation_energy": 25.54, 
			 "cosmo_dispersion_energy": -19.59, 
			 "cosmo_repulsion_energy": 1.55, 
			 "cosmo_total_nonelectrostatic_energy": 7.5, 
			 "SMD_solvation_energy": 5.33 
		},
		"coords": [
			{
				"x": 1.4166790555,
				"y": -2.2263013756,
				"z": -0.6760551014,
				"element": "C" 
			},
			{
				"x": 1.5711005277,
				"y": -0.8834319829,
				"z": -1.3652383308,
				"element": "C" 
			},
			{
				"x": 0.3111305506,
				"y": -0.1895639255,
				"z": -1.2458204794,
				"element": "O" 
			},
			{
				"x": 0.2520843372,
				"y": 1.035126392,
				"z": -1.8191586244,
				"element": "C" 
			},
			{
				"x": 1.2120867038,
				"y": 1.5329679256,
				"z": -2.4069328935,
				"element": "O" 
			},
			{
				"x": -1.0439936746,
				"y": 1.6762127103,
				"z": -1.6533324834,
				"element": "C" 
			},
			{
				"x": -1.2823352684,
				"y": 2.9513494009,
				"z": -2.1663675404,
				"element": "C" 
			},
			{
				"x": -0.4356345153,
				"y": 3.6958533484,
				"z": -2.9280338442,
				"element": "N" 
			},
			{
				"x": -2.9020536049,
				"y": 3.4898511822,
				"z": -1.7785906729,
				"element": "S" 
			},
			{
				"x": -3.2421192568,
				"y": 1.9939510538,
				"z": -0.9162541228,
				"element": "C" 
			},
			{
				"x": -2.1815432253,
				"y": 1.1502660956,
				"z": -0.9456033286,
				"element": "C" 
			},
			{
				"x": 2.3534980549,
				"y": -2.7883744159,
				"z": -0.742531656,
				"element": "H" 
			},
			{
				"x": 1.1673051372,
				"y": -2.0970558018,
				"z": 0.3811646951,
				"element": "H" 
			},
			{
				"x": 0.62612343,
				"y": -2.8183134174,
				"z": -1.1462535793,
				"element": "H" 
			},
			{
				"x": 2.3577868878,
				"y": -0.2753879842,
				"z": -0.9068602075,
				"element": "H" 
			},
			{
				"x": 1.8188198323,
				"y": -0.9924160762,
				"z": -2.425974282,
				"element": "H" 
			},
			{
				"x": 0.5070818665,
				"y": 3.3169169771,
				"z": -2.9720332321,
				"element": "H" 
			},
			{
				"x": -0.5522096125,
				"y": 4.6963412611,
				"z": -2.9624147252,
				"element": "H" 
			},
			{
				"x": -4.2078541685,
				"y": 1.8618390533,
				"z": -0.450974163,
				"element": "H" 
			},
			{
				"x": -2.1744530573,
				"y": 0.1747695792,
				"z": -0.4759354281,
				"element": "H" 
			}
		],
		 "valence_orbital": [ 
			{
				"type": "occ",
				"energy": -0.31613,
				"method": "rhf"
			},
			{
				"type": "occ",
				"energy": -0.29193,
				"method": "rhf"
			},
			{
				"type": "occ",
				"energy": -0.26899,
				"method": "rhf"
			},
			{
				"type": "occ",
				"energy": -0.25214,
				"method": "rhf"
			},
			{
				"type": "occ",
				"energy": -0.19831,
				"method": "rhf"
			},
			{
				"type": "unocc",
				"energy": -0.01673,
				"method": "rhf"
			},
			{
				"type": "unocc",
				"energy": 0.01406,
				"method": "rhf"
			},
			{
				"type": "unocc",
				"energy": 0.01702,
				"method": "rhf"
			},
			{
				"type": "unocc",
				"energy": 0.08999,
				"method": "rhf"
			},
			{
				"type": "unocc",
				"energy": 0.10388,
				"method": "rhf"
			}
		],
		"cosmo_sigma_profile": { 
			"-0.025": 0.0,
			"-0.024": 0.0,
			"-0.023": 0.0,
			"-0.022": 0.0,
			"-0.021": 0.0,
			"-0.02": 0.0,
			"-0.019": 0.0,
			"-0.018": 0.0,
			"-0.017": 0.0,
			"-0.016": 0.0,
			"-0.015": 0.454660988375,
			"-0.014": 1.52570803992,
			"-0.013": 0.883136174939,
			"-0.012": 1.91741243304,
			"-0.011": 1.14583348336,
			"-0.01": 1.7087913257,
			"-0.009": 2.40416735311,
			"-0.008": 3.94232630536,
			"-0.007": 3.26328481179,
			"-0.006": 4.07805029223,
			"-0.005": 8.46765916876,
			"-0.004": 15.2404514953,
			"-0.003": 17.0355179612,
			"-0.002": 16.0064671696,
			"-0.001": 15.3693035202,
			"0.0": 16.6516806187,
			"0.001": 14.1568111053,
			"0.002": 15.3010344554,
			"0.003": 16.8182545889,
			"0.004": 16.2606279317,
			"0.005": 10.8361750871,
			"0.006": 6.9631293158,
			"0.007": 3.46554338886,
			"0.008": 2.12306823585,
			"0.009": 2.11882067252,
			"0.01": 1.45767758683,
			"0.011": 2.19789770418,
			"0.012": 2.10268623229,
			"0.013": 1.03592562353,
			"0.014": 0.00933874218417,
			"0.015": 0.0,
			"0.016": 0.0,
			"0.017": 0.0,
			"0.018": 0.0,
			"0.019": 0.0,
			"0.02": 0.0,
			"0.021": 0.0,
			"0.022": 0.0,
			"0.023": 0.0,
			"0.024": 0.0,
			"0.025": 0.0
		}
	}
}
