{
	 "smiles": "CC1=CC(OC(=O)C(F)(F)F)=C(C)C=C1OC(=O)C(F)(F)F", 
	 "Tm": 362.15, 
	 "num_atms": 30, 
	 "gaussian": { 
		 "optdone": 1, 
		 "sigma_profile": "yes", 
		 "theory": "DFT", 
		 "functional": "B3LYP", 
		 "basiset": "6-31G**", 
		 "properties": { 
			 "R2extent": 10699.2151, 
			 "electric_dipole_moment_norm": 0.000173205080757, 
			 "electric_quadrupole_moment_norm": 17.9962720331, 
			 "total_energy": -1362.03503887, 
			 "HOMO_LUMO_gap": 0.2131, 
			 "cosmo_polarized_energy": -8.96, 
			 "cosmo_cavitation_energy": 39.83, 
			 "cosmo_dispersion_energy": -25.88, 
			 "cosmo_repulsion_energy": 1.87, 
			 "cosmo_total_nonelectrostatic_energy": 15.82, 
			 "SMD_solvation_energy": 11.33 
		},
		"coords": [
			{
				"x": -1.5580409111,
				"y": 2.872002413,
				"z": 0.8142233612,
				"element": "C" 
			},
			{
				"x": -0.7636459889,
				"y": 1.592127131,
				"z": 0.8445124139,
				"element": "C" 
			},
			{
				"x": -1.3462961905,
				"y": 0.3723029696,
				"z": 1.2033231983,
				"element": "C" 
			},
			{
				"x": -0.5968267808,
				"y": -0.7969870983,
				"z": 1.2209518405,
				"element": "C" 
			},
			{
				"x": -1.2831688752,
				"y": -1.9914864129,
				"z": 1.5186517761,
				"element": "O" 
			},
			{
				"x": -1.0681749828,
				"y": -2.5754406412,
				"z": 2.7136117955,
				"element": "C" 
			},
			{
				"x": -0.3636533293,
				"y": -2.1830849438,
				"z": 3.6026980698,
				"element": "O" 
			},
			{
				"x": -1.8705687117,
				"y": -3.8936004782,
				"z": 2.7674823281,
				"element": "C" 
			},
			{
				"x": -3.1737348732,
				"y": -3.6686557349,
				"z": 2.5328452903,
				"element": "F" 
			},
			{
				"x": -1.4100535562,
				"y": -4.7431204109,
				"z": 1.8301761484,
				"element": "F" 
			},
			{
				"x": -1.7399004411,
				"y": -4.4638698058,
				"z": 3.9656624777,
				"element": "F" 
			},
			{
				"x": 0.7597550406,
				"y": -0.8393255692,
				"z": 0.8850139577,
				"element": "C" 
			},
			{
				"x": 1.5541544433,
				"y": -2.1192012632,
				"z": 0.9151506081,
				"element": "C" 
			},
			{
				"x": 1.3424000559,
				"y": 0.3805034071,
				"z": 0.5262041869,
				"element": "C" 
			},
			{
				"x": 0.592936415,
				"y": 1.5497941157,
				"z": 0.5086140595,
				"element": "C" 
			},
			{
				"x": 1.2791898962,
				"y": 2.7443408377,
				"z": 0.2109069624,
				"element": "O" 
			},
			{
				"x": 1.0641986457,
				"y": 3.3281537587,
				"z": -0.9841234566,
				"element": "C" 
			},
			{
				"x": 0.3597357816,
				"y": 2.9356433653,
				"z": -1.8731851375,
				"element": "O" 
			},
			{
				"x": 1.8665587404,
				"y": 4.6463282056,
				"z": -1.0381351627,
				"element": "C" 
			},
			{
				"x": 1.7360184081,
				"y": 5.2163826975,
				"z": -2.2364308549,
				"element": "F" 
			},
			{
				"x": 1.4058816876,
				"y": 5.4959975896,
				"z": -0.1010411088,
				"element": "F" 
			},
			{
				"x": 3.1697045544,
				"y": 4.4214902092,
				"z": -0.8032877954,
				"element": "F" 
			},
			{
				"x": -2.4725068842,
				"y": 2.7765060621,
				"z": 1.4040782197,
				"element": "H" 
			},
			{
				"x": -0.977939534,
				"y": 3.7100139034,
				"z": 1.2124419262,
				"element": "H" 
			},
			{
				"x": -1.8416889644,
				"y": 3.1280464722,
				"z": -0.2128547051,
				"element": "H" 
			},
			{
				"x": -2.3969218987,
				"y": 0.3267105834,
				"z": 1.4713506608,
				"element": "H" 
			},
			{
				"x": 0.9740594144,
				"y": -2.9571663199,
				"z": 0.5168192127,
				"element": "H" 
			},
			{
				"x": 1.8377971279,
				"y": -2.3753678188,
				"z": 1.9421951829,
				"element": "H" 
			},
			{
				"x": 2.4686132176,
				"y": -2.0236275118,
				"z": 0.3252970143,
				"element": "H" 
			},
			{
				"x": 2.3930184934,
				"y": 0.426090288,
				"z": 0.2581475302,
				"element": "H" 
			}
		],
		 "valence_orbital": [ 
			{
				"type": "occ",
				"energy": -0.34367,
				"method": "rhf"
			},
			{
				"type": "occ",
				"energy": -0.31489,
				"method": "rhf"
			},
			{
				"type": "occ",
				"energy": -0.31412,
				"method": "rhf"
			},
			{
				"type": "occ",
				"energy": -0.27259,
				"method": "rhf"
			},
			{
				"type": "occ",
				"energy": -0.25919,
				"method": "rhf"
			},
			{
				"type": "unocc",
				"energy": -0.04609,
				"method": "rhf"
			},
			{
				"type": "unocc",
				"energy": -0.04206,
				"method": "rhf"
			},
			{
				"type": "unocc",
				"energy": -0.02679,
				"method": "rhf"
			},
			{
				"type": "unocc",
				"energy": -0.02133,
				"method": "rhf"
			},
			{
				"type": "unocc",
				"energy": 0.0737,
				"method": "rhf"
			}
		],
		"cosmo_sigma_profile": { 
			"-0.025": 0.0,
			"-0.024": 0.0,
			"-0.023": 0.0,
			"-0.022": 0.0,
			"-0.021": 0.0,
			"-0.02": 0.0,
			"-0.019": 0.0,
			"-0.018": 0.0,
			"-0.017": 0.0,
			"-0.016": 0.0,
			"-0.015": 0.0,
			"-0.014": 0.0,
			"-0.013": 0.0,
			"-0.012": 0.0,
			"-0.011": 0.0,
			"-0.01": 0.0,
			"-0.009": 0.0703327985189,
			"-0.008": 3.55358108471,
			"-0.007": 8.42837169376,
			"-0.006": 11.708988517,
			"-0.005": 16.301445484,
			"-0.004": 19.305002204,
			"-0.003": 23.114651932,
			"-0.002": 23.7920950655,
			"-0.001": 26.5338834318,
			"0.0": 27.2141820154,
			"0.001": 51.8416027579,
			"0.002": 57.6678703222,
			"0.003": 11.0606321786,
			"0.004": 8.14883600448,
			"0.005": 5.54811654318,
			"0.006": 4.05706194382,
			"0.007": 4.92839614148,
			"0.008": 5.38290542845,
			"0.009": 9.10647783728,
			"0.01": 1.33485826185,
			"0.011": 0.0,
			"0.012": 0.0,
			"0.013": 0.0,
			"0.014": 0.0,
			"0.015": 0.0,
			"0.016": 0.0,
			"0.017": 0.0,
			"0.018": 0.0,
			"0.019": 0.0,
			"0.02": 0.0,
			"0.021": 0.0,
			"0.022": 0.0,
			"0.023": 0.0,
			"0.024": 0.0,
			"0.025": 0.0
		}
	}
}
