{
	 "smiles": "COC1=CC=C(C=C1)C(=O)CC1=CC=C(F)C=C1", 
	 "Tm": 380.15, 
	 "num_atms": 31, 
	 "gaussian": { 
		 "optdone": 1, 
		 "sigma_profile": "yes", 
		 "theory": "DFT", 
		 "functional": "B3LYP", 
		 "basiset": "6-31G**", 
		 "properties": { 
			 "R2extent": 7079.3875, 
			 "electric_dipole_moment_norm": 4.46166836621, 
			 "electric_quadrupole_moment_norm": 9.16936883051, 
			 "total_energy": -829.706709366, 
			 "HOMO_LUMO_gap": 0.17861, 
			 "cosmo_polarized_energy": -11.92, 
			 "cosmo_cavitation_energy": 35.92, 
			 "cosmo_dispersion_energy": -25.31, 
			 "cosmo_repulsion_energy": 1.92, 
			 "cosmo_total_nonelectrostatic_energy": 12.53, 
			 "SMD_solvation_energy": 7.66 
		},
		"coords": [
			{
				"x": -0.4303863988,
				"y": 1.8480629493,
				"z": 3.6412285604,
				"element": "C" 
			},
			{
				"x": 0.8431911536,
				"y": 1.723201319,
				"z": 3.0227182191,
				"element": "O" 
			},
			{
				"x": 0.9044923259,
				"y": 1.2624796295,
				"z": 1.746797045,
				"element": "C" 
			},
			{
				"x": 2.1965221313,
				"y": 1.1594413065,
				"z": 1.1986758588,
				"element": "C" 
			},
			{
				"x": 2.3641934182,
				"y": 0.6993516234,
				"z": -0.0939375572,
				"element": "C" 
			},
			{
				"x": 1.2567004699,
				"y": 0.3343098374,
				"z": -0.8862466056,
				"element": "C" 
			},
			{
				"x": -0.0232106689,
				"y": 0.4413266095,
				"z": -0.3270579876,
				"element": "C" 
			},
			{
				"x": -0.2090496492,
				"y": 0.8974011021,
				"z": 0.9778330503,
				"element": "C" 
			},
			{
				"x": 1.5134808213,
				"y": -0.1506905274,
				"z": -2.2700102158,
				"element": "C" 
			},
			{
				"x": 2.6573183458,
				"y": -0.2986789554,
				"z": -2.6839389055,
				"element": "O" 
			},
			{
				"x": 0.3386487534,
				"y": -0.5010276826,
				"z": -3.1918841127,
				"element": "C" 
			},
			{
				"x": -0.1469658065,
				"y": -1.928130754,
				"z": -2.9859451693,
				"element": "C" 
			},
			{
				"x": -1.4984800631,
				"y": -2.2066241079,
				"z": -2.7488169804,
				"element": "C" 
			},
			{
				"x": -1.9485001705,
				"y": -3.5171353846,
				"z": -2.5775897409,
				"element": "C" 
			},
			{
				"x": -1.0239196332,
				"y": -4.5513790095,
				"z": -2.6441190973,
				"element": "C" 
			},
			{
				"x": -1.4478820266,
				"y": -5.822753617,
				"z": -2.4785785671,
				"element": "F" 
			},
			{
				"x": 0.3264732911,
				"y": -4.3137452774,
				"z": -2.8780000858,
				"element": "C" 
			},
			{
				"x": 0.7573250182,
				"y": -2.9994152836,
				"z": -3.0481811794,
				"element": "C" 
			},
			{
				"x": -0.239657438,
				"y": 2.2290572774,
				"z": 4.6452584688,
				"element": "H" 
			},
			{
				"x": -0.9401435082,
				"y": 0.879298563,
				"z": 3.7125431035,
				"element": "H" 
			},
			{
				"x": -1.0725170719,
				"y": 2.555322449,
				"z": 3.1017677455,
				"element": "H" 
			},
			{
				"x": 3.0424422657,
				"y": 1.4465223469,
				"z": 1.8145786237,
				"element": "H" 
			},
			{
				"x": 3.3537450378,
				"y": 0.6099844062,
				"z": -0.5292319952,
				"element": "H" 
			},
			{
				"x": -0.8974184196,
				"y": 0.1520649634,
				"z": -0.9000076668,
				"element": "H" 
			},
			{
				"x": -1.2120044013,
				"y": 0.9623795662,
				"z": 1.3819004538,
				"element": "H" 
			},
			{
				"x": 0.7185774471,
				"y": -0.3789458367,
				"z": -4.2111225507,
				"element": "H" 
			},
			{
				"x": -0.492171466,
				"y": 0.1981538381,
				"z": -3.0608322667,
				"element": "H" 
			},
			{
				"x": -2.216684503,
				"y": -1.391506929,
				"z": -2.7061730248,
				"element": "H" 
			},
			{
				"x": -2.9941223228,
				"y": -3.741783767,
				"z": -2.396605989,
				"element": "H" 
			},
			{
				"x": 1.0172624958,
				"y": -5.148807209,
				"z": -2.924248256,
				"element": "H" 
			},
			{
				"x": 1.8086405724,
				"y": -2.796333446,
				"z": -3.2292731749,
				"element": "H" 
			}
		],
		 "valence_orbital": [ 
			{
				"type": "occ",
				"energy": -0.26235,
				"method": "rhf"
			},
			{
				"type": "occ",
				"energy": -0.2598,
				"method": "rhf"
			},
			{
				"type": "occ",
				"energy": -0.25299,
				"method": "rhf"
			},
			{
				"type": "occ",
				"energy": -0.23385,
				"method": "rhf"
			},
			{
				"type": "occ",
				"energy": -0.22952,
				"method": "rhf"
			},
			{
				"type": "unocc",
				"energy": -0.05091,
				"method": "rhf"
			},
			{
				"type": "unocc",
				"energy": -0.01295,
				"method": "rhf"
			},
			{
				"type": "unocc",
				"energy": -0.00998,
				"method": "rhf"
			},
			{
				"type": "unocc",
				"energy": 0.00273,
				"method": "rhf"
			},
			{
				"type": "unocc",
				"energy": 0.04743,
				"method": "rhf"
			}
		],
		"cosmo_sigma_profile": { 
			"-0.025": 0.0,
			"-0.024": 0.0,
			"-0.023": 0.0,
			"-0.022": 0.0,
			"-0.021": 0.0,
			"-0.02": 0.0,
			"-0.019": 0.0,
			"-0.018": 0.0,
			"-0.017": 0.0,
			"-0.016": 0.0,
			"-0.015": 0.0,
			"-0.014": 0.0,
			"-0.013": 0.0,
			"-0.012": 0.0,
			"-0.011": 0.0,
			"-0.01": 0.0,
			"-0.009": 0.346968624024,
			"-0.008": 1.86743190698,
			"-0.007": 8.49195528991,
			"-0.006": 20.2811032225,
			"-0.005": 24.438756676,
			"-0.004": 24.1973709617,
			"-0.003": 21.1616808857,
			"-0.002": 18.1529262363,
			"-0.001": 13.8249774082,
			"0.0": 16.9150816809,
			"0.001": 23.016823677,
			"0.002": 24.8498388036,
			"0.003": 26.8951527383,
			"0.004": 31.5435144081,
			"0.005": 9.56410992364,
			"0.006": 3.04732178033,
			"0.007": 2.79721155044,
			"0.008": 2.95360950731,
			"0.009": 2.52303024952,
			"0.01": 2.87207292114,
			"0.011": 2.03560813144,
			"0.012": 3.7658021603,
			"0.013": 1.55960354715,
			"0.014": 0.111471287371,
			"0.015": 0.0,
			"0.016": 0.0,
			"0.017": 0.0,
			"0.018": 0.0,
			"0.019": 0.0,
			"0.02": 0.0,
			"0.021": 0.0,
			"0.022": 0.0,
			"0.023": 0.0,
			"0.024": 0.0,
			"0.025": 0.0
		}
	}
}
