{
	 "smiles": "NS(=O)(=O)C1=CC(=CS1)[N+]([O-])=O", 
	 "Tm": 439.15, 
	 "num_atms": 16, 
	 "gaussian": { 
		 "optdone": 1, 
		 "sigma_profile": "yes", 
		 "theory": "DFT", 
		 "functional": "B3LYP", 
		 "basiset": "6-31G**", 
		 "properties": { 
			 "R2extent": 4104.3354, 
			 "electric_dipole_moment_norm": 4.35576067869, 
			 "electric_quadrupole_moment_norm": 19.9869086154, 
			 "total_energy": -1361.40989, 
			 "HOMO_LUMO_gap": 0.18273, 
			 "cosmo_polarized_energy": -17.89, 
			 "cosmo_cavitation_energy": 25.06, 
			 "cosmo_dispersion_energy": -19.36, 
			 "cosmo_repulsion_energy": 1.46, 
			 "cosmo_total_nonelectrostatic_energy": 7.16, 
			 "SMD_solvation_energy": 6.27 
		},
		"coords": [
			{
				"x": -3.4611830933,
				"y": -2.5948947917,
				"z": 1.2432230582,
				"element": "N" 
			},
			{
				"x": -2.4082549281,
				"y": -2.6525065282,
				"z": -0.0722531778,
				"element": "S" 
			},
			{
				"x": -3.2026377149,
				"y": -3.1326738465,
				"z": -1.2020261979,
				"element": "O" 
			},
			{
				"x": -1.149214058,
				"y": -3.2704073294,
				"z": 0.341044719,
				"element": "O" 
			},
			{
				"x": -2.0427243993,
				"y": -0.9384666974,
				"z": -0.3624503841,
				"element": "C" 
			},
			{
				"x": -0.8827241825,
				"y": -0.3064432338,
				"z": -0.0130552952,
				"element": "C" 
			},
			{
				"x": -0.9231205101,
				"y": 1.0591668986,
				"z": -0.407010028,
				"element": "C" 
			},
			{
				"x": -2.0790828437,
				"y": 1.4392913833,
				"z": -1.0398272707,
				"element": "C" 
			},
			{
				"x": -3.1666042734,
				"y": 0.1188323444,
				"z": -1.1816036534,
				"element": "S" 
			},
			{
				"x": 0.1696501352,
				"y": 1.9861865928,
				"z": -0.1668220647,
				"element": "N" 
			},
			{
				"x": 1.1603433119,
				"y": 1.5423354682,
				"z": 0.4119641726,
				"element": "O" 
			},
			{
				"x": 0.0251368154,
				"y": 3.1445626511,
				"z": -0.5560009668,
				"element": "O" 
			},
			{
				"x": -4.263409891,
				"y": -3.1904203903,
				"z": 1.0542395976,
				"element": "H" 
			},
			{
				"x": -2.9838848253,
				"y": -2.8611016513,
				"z": 2.1005438654,
				"element": "H" 
			},
			{
				"x": -0.0471646847,
				"y": -0.779633799,
				"z": 0.4837229097,
				"element": "H" 
			},
			{
				"x": -2.3137248581,
				"y": 2.4198729292,
				"z": -1.4276892839,
				"element": "H" 
			}
		],
		 "valence_orbital": [ 
			{
				"type": "occ",
				"energy": -0.32081,
				"method": "rhf"
			},
			{
				"type": "occ",
				"energy": -0.31812,
				"method": "rhf"
			},
			{
				"type": "occ",
				"energy": -0.30432,
				"method": "rhf"
			},
			{
				"type": "occ",
				"energy": -0.30288,
				"method": "rhf"
			},
			{
				"type": "occ",
				"energy": -0.28398,
				"method": "rhf"
			},
			{
				"type": "unocc",
				"energy": -0.10125,
				"method": "rhf"
			},
			{
				"type": "unocc",
				"energy": -0.06511,
				"method": "rhf"
			},
			{
				"type": "unocc",
				"energy": -0.01395,
				"method": "rhf"
			},
			{
				"type": "unocc",
				"energy": 0.02682,
				"method": "rhf"
			},
			{
				"type": "unocc",
				"energy": 0.03725,
				"method": "rhf"
			}
		],
		"cosmo_sigma_profile": { 
			"-0.025": 0.0,
			"-0.024": 0.0,
			"-0.023": 0.0,
			"-0.022": 0.0,
			"-0.021": 0.0,
			"-0.02": 0.0,
			"-0.019": 0.0,
			"-0.018": 0.0,
			"-0.017": 0.0,
			"-0.016": 0.395939647945,
			"-0.015": 2.54727083786,
			"-0.014": 2.48002023082,
			"-0.013": 2.9038255306,
			"-0.012": 3.92222112432,
			"-0.011": 4.19818862121,
			"-0.01": 3.02107555975,
			"-0.009": 3.57040526102,
			"-0.008": 4.91098246277,
			"-0.007": 4.97273744656,
			"-0.006": 6.95551696404,
			"-0.005": 7.58826071,
			"-0.004": 9.65967849952,
			"-0.003": 14.5777919262,
			"-0.002": 19.5745361403,
			"-0.001": 14.2062591507,
			"0.0": 10.9062758369,
			"0.001": 6.46764594699,
			"0.002": 5.50989260602,
			"0.003": 5.63022370188,
			"0.004": 6.82168722988,
			"0.005": 6.00645098458,
			"0.006": 8.11077903112,
			"0.007": 13.9646701141,
			"0.008": 8.12671864945,
			"0.009": 10.4578207467,
			"0.01": 11.9136299312,
			"0.011": 3.99745985953,
			"0.012": 0.0,
			"0.013": 0.0,
			"0.014": 0.0,
			"0.015": 0.0,
			"0.016": 0.0,
			"0.017": 0.0,
			"0.018": 0.0,
			"0.019": 0.0,
			"0.02": 0.0,
			"0.021": 0.0,
			"0.022": 0.0,
			"0.023": 0.0,
			"0.024": 0.0,
			"0.025": 0.0
		}
	}
}
