{
	 "smiles": "OC1=C(C=C(F)C=C1)C(F)(F)F", 
	 "Tm": 325.15, 
	 "num_atms": 16, 
	 "gaussian": { 
		 "optdone": 1, 
		 "sigma_profile": "yes", 
		 "theory": "DFT", 
		 "functional": "B3LYP", 
		 "basiset": "6-31G**", 
		 "properties": { 
			 "R2extent": 2244.1521, 
			 "electric_dipole_moment_norm": 3.57161027129, 
			 "electric_quadrupole_moment_norm": 8.38591387208, 
			 "total_energy": -743.731386007, 
			 "HOMO_LUMO_gap": 0.20012, 
			 "cosmo_polarized_energy": -9.45, 
			 "cosmo_cavitation_energy": 22.4, 
			 "cosmo_dispersion_energy": -16.06, 
			 "cosmo_repulsion_energy": 1.2, 
			 "cosmo_total_nonelectrostatic_energy": 7.54, 
			 "SMD_solvation_energy": 5.93 
		},
		"coords": [
			{
				"x": 2.0052731529,
				"y": -0.5618629812,
				"z": -0.0793958816,
				"element": "O" 
			},
			{
				"x": 0.6670422804,
				"y": -0.4417215398,
				"z": -0.298889909,
				"element": "C" 
			},
			{
				"x": 0.1807320851,
				"y": 0.8052102152,
				"z": -0.7331709544,
				"element": "C" 
			},
			{
				"x": -1.1838950248,
				"y": 0.9734163234,
				"z": -0.9705497352,
				"element": "C" 
			},
			{
				"x": -2.0491462613,
				"y": -0.0946464777,
				"z": -0.7749699024,
				"element": "C" 
			},
			{
				"x": -3.3675046398,
				"y": 0.0773406142,
				"z": -1.0071087284,
				"element": "F" 
			},
			{
				"x": -1.5896294553,
				"y": -1.332917732,
				"z": -0.3468873768,
				"element": "C" 
			},
			{
				"x": -0.2261618993,
				"y": -1.5010418933,
				"z": -0.1096926808,
				"element": "C" 
			},
			{
				"x": 1.1320609968,
				"y": 1.9560408539,
				"z": -0.9415701995,
				"element": "C" 
			},
			{
				"x": 0.4790302884,
				"y": 3.0661902154,
				"z": -1.3575716572,
				"element": "F" 
			},
			{
				"x": 1.7841614273,
				"y": 2.2812080322,
				"z": 0.1939899636,
				"element": "F" 
			},
			{
				"x": 2.0668810963,
				"y": 1.6731626782,
				"z": -1.8724769624,
				"element": "F" 
			},
			{
				"x": 2.2043626797,
				"y": -1.4605938017,
				"z": 0.212729833,
				"element": "H" 
			},
			{
				"x": -1.5701597224,
				"y": 1.9279557856,
				"z": -1.3049452511,
				"element": "H" 
			},
			{
				"x": -2.2905047944,
				"y": -2.1478351026,
				"z": -0.2032737414,
				"element": "H" 
			},
			{
				"x": 0.1484577903,
				"y": -2.4651051899,
				"z": 0.2258831836,
				"element": "H" 
			}
		],
		 "valence_orbital": [ 
			{
				"type": "occ",
				"energy": -0.38202,
				"method": "rhf"
			},
			{
				"type": "occ",
				"energy": -0.35383,
				"method": "rhf"
			},
			{
				"type": "occ",
				"energy": -0.34433,
				"method": "rhf"
			},
			{
				"type": "occ",
				"energy": -0.2805,
				"method": "rhf"
			},
			{
				"type": "occ",
				"energy": -0.23567,
				"method": "rhf"
			},
			{
				"type": "unocc",
				"energy": -0.03555,
				"method": "rhf"
			},
			{
				"type": "unocc",
				"energy": -0.00353,
				"method": "rhf"
			},
			{
				"type": "unocc",
				"energy": 0.05313,
				"method": "rhf"
			},
			{
				"type": "unocc",
				"energy": 0.08056,
				"method": "rhf"
			},
			{
				"type": "unocc",
				"energy": 0.12707,
				"method": "rhf"
			}
		],
		"cosmo_sigma_profile": { 
			"-0.025": 0.0,
			"-0.024": 0.0,
			"-0.023": 0.0,
			"-0.022": 0.0,
			"-0.021": 0.0,
			"-0.02": 0.0,
			"-0.019": 0.386664708555,
			"-0.018": 1.38458595416,
			"-0.017": 0.920610699543,
			"-0.016": 1.48436745975,
			"-0.015": 0.875427709187,
			"-0.014": 0.986190737515,
			"-0.013": 1.13917912978,
			"-0.012": 0.382777547717,
			"-0.011": 1.34468677133,
			"-0.01": 1.38344046581,
			"-0.009": 1.08312592364,
			"-0.008": 4.00295679466,
			"-0.007": 5.31236170855,
			"-0.006": 5.61190432605,
			"-0.005": 4.00984483399,
			"-0.004": 3.74339584772,
			"-0.003": 6.30864906101,
			"-0.002": 7.66962918136,
			"-0.001": 8.09931092771,
			"0.0": 13.0970203833,
			"0.001": 22.9445561921,
			"0.002": 24.8880045311,
			"0.003": 31.7943396331,
			"0.004": 15.1121393674,
			"0.005": 5.75849708677,
			"0.006": 2.4010707556,
			"0.007": 2.46525283633,
			"0.008": 2.86530521225,
			"0.009": 2.45173399446,
			"0.01": 0.1625276996,
			"0.011": 0.0,
			"0.012": 0.0,
			"0.013": 0.0,
			"0.014": 0.0,
			"0.015": 0.0,
			"0.016": 0.0,
			"0.017": 0.0,
			"0.018": 0.0,
			"0.019": 0.0,
			"0.02": 0.0,
			"0.021": 0.0,
			"0.022": 0.0,
			"0.023": 0.0,
			"0.024": 0.0,
			"0.025": 0.0
		}
	}
}
