{
	 "smiles": "COC1=CC=C(CN2N=CC(Cl)=C(Cl)C2=O)C=C1", 
	 "Tm": 391.15, 
	 "num_atms": 28, 
	 "gaussian": { 
		 "optdone": 1, 
		 "sigma_profile": "yes", 
		 "theory": "DFT", 
		 "functional": "B3LYP", 
		 "basiset": "6-31G**", 
		 "properties": { 
			 "R2extent": 9445.1955, 
			 "electric_dipole_moment_norm": 4.13721347044, 
			 "electric_quadrupole_moment_norm": 7.70524727897, 
			 "total_energy": -1643.5979193, 
			 "HOMO_LUMO_gap": 0.14421, 
			 "cosmo_polarized_energy": -11.89, 
			 "cosmo_cavitation_energy": 36.42, 
			 "cosmo_dispersion_energy": -26.38, 
			 "cosmo_repulsion_energy": 2.03, 
			 "cosmo_total_nonelectrostatic_energy": 12.08, 
			 "SMD_solvation_energy": 6.12 
		},
		"coords": [
			{
				"x": -2.0813228835,
				"y": -0.0514632494,
				"z": -3.9702984758,
				"element": "C" 
			},
			{
				"x": -0.9081191029,
				"y": 0.4947448722,
				"z": -3.3888211408,
				"element": "O" 
			},
			{
				"x": -0.5556043625,
				"y": 0.0856440499,
				"z": -2.1366138903,
				"element": "C" 
			},
			{
				"x": -1.2681878095,
				"y": -0.8472377244,
				"z": -1.3737145126,
				"element": "C" 
			},
			{
				"x": -0.80519791,
				"y": -1.1905871549,
				"z": -0.1008009391,
				"element": "C" 
			},
			{
				"x": 0.3565583402,
				"y": -0.6246961344,
				"z": 0.4283975031,
				"element": "C" 
			},
			{
				"x": 0.8349849582,
				"y": -1.0026938441,
				"z": 1.8118595074,
				"element": "C" 
			},
			{
				"x": 0.3359443058,
				"y": -0.0894292642,
				"z": 2.8693347463,
				"element": "N" 
			},
			{
				"x": -0.8501805937,
				"y": -0.4143225469,
				"z": 3.3938326608,
				"element": "N" 
			},
			{
				"x": -1.3591360837,
				"y": 0.3653734561,
				"z": 4.3069958237,
				"element": "C" 
			},
			{
				"x": -0.704079395,
				"y": 1.5476090061,
				"z": 4.7674763106,
				"element": "C" 
			},
			{
				"x": -1.4948753745,
				"y": 2.4903378369,
				"z": 5.9938849562,
				"element": "Cl" 
			},
			{
				"x": 0.5072647737,
				"y": 1.8843071652,
				"z": 4.2319169469,
				"element": "C" 
			},
			{
				"x": 1.4020903847,
				"y": 3.2784827091,
				"z": 4.699871058,
				"element": "Cl" 
			},
			{
				"x": 1.1079946242,
				"y": 1.0443370214,
				"z": 3.1868921017,
				"element": "C" 
			},
			{
				"x": 2.1736096668,
				"y": 1.269644815,
				"z": 2.6286286297,
				"element": "O" 
			},
			{
				"x": 1.0603206005,
				"y": 0.3113149239,
				"z": -0.3483509408,
				"element": "C" 
			},
			{
				"x": 0.6124218037,
				"y": 0.6632602934,
				"z": -1.6140117387,
				"element": "C" 
			},
			{
				"x": -2.0065179376,
				"y": -1.1402733021,
				"z": -4.0879754816,
				"element": "H" 
			},
			{
				"x": -2.9749086984,
				"y": 0.1839871998,
				"z": -3.3778728578,
				"element": "H" 
			},
			{
				"x": -2.172520377,
				"y": 0.40969579,
				"z": -4.9548676819,
				"element": "H" 
			},
			{
				"x": -2.1704712097,
				"y": -1.3101932576,
				"z": -1.755084196,
				"element": "H" 
			},
			{
				"x": -1.3648935919,
				"y": -1.9141710752,
				"z": 0.4862986294,
				"element": "H" 
			},
			{
				"x": 1.9231996493,
				"y": -0.9734461271,
				"z": 1.8736039081,
				"element": "H" 
			},
			{
				"x": 0.4786608173,
				"y": -1.9947196952,
				"z": 2.0928909633,
				"element": "H" 
			},
			{
				"x": -2.3192173919,
				"y": 0.0738992214,
				"z": 4.7176285006,
				"element": "H" 
			},
			{
				"x": 1.9573081408,
				"y": 0.7696879753,
				"z": 0.0563734357,
				"element": "H" 
			},
			{
				"x": 1.1499746564,
				"y": 1.3833070396,
				"z": -2.2222738259,
				"element": "H" 
			}
		],
		 "valence_orbital": [ 
			{
				"type": "occ",
				"energy": -0.28996,
				"method": "rhf"
			},
			{
				"type": "occ",
				"energy": -0.27016,
				"method": "rhf"
			},
			{
				"type": "occ",
				"energy": -0.25347,
				"method": "rhf"
			},
			{
				"type": "occ",
				"energy": -0.24657,
				"method": "rhf"
			},
			{
				"type": "occ",
				"energy": -0.22154,
				"method": "rhf"
			},
			{
				"type": "unocc",
				"energy": -0.07733,
				"method": "rhf"
			},
			{
				"type": "unocc",
				"energy": -0.01839,
				"method": "rhf"
			},
			{
				"type": "unocc",
				"energy": -0.01009,
				"method": "rhf"
			},
			{
				"type": "unocc",
				"energy": -0.00439,
				"method": "rhf"
			},
			{
				"type": "unocc",
				"energy": 0.00328,
				"method": "rhf"
			}
		],
		"cosmo_sigma_profile": { 
			"-0.025": 0.0,
			"-0.024": 0.0,
			"-0.023": 0.0,
			"-0.022": 0.0,
			"-0.021": 0.0,
			"-0.02": 0.0,
			"-0.019": 0.0,
			"-0.018": 0.0,
			"-0.017": 0.0,
			"-0.016": 0.0,
			"-0.015": 0.0,
			"-0.014": 0.0,
			"-0.013": 0.0,
			"-0.012": 0.0,
			"-0.011": 0.0,
			"-0.01": 0.904832999658,
			"-0.009": 1.39703101756,
			"-0.008": 1.75537411093,
			"-0.007": 3.84656173101,
			"-0.006": 14.6272870569,
			"-0.005": 23.1037567778,
			"-0.004": 28.669143994,
			"-0.003": 32.9382414361,
			"-0.002": 22.8662507876,
			"-0.001": 17.7142621866,
			"0.0": 18.410330359,
			"0.001": 18.696397001,
			"0.002": 24.4842976378,
			"0.003": 27.5808674725,
			"0.004": 16.5464207621,
			"0.005": 14.3548634138,
			"0.006": 5.26977083144,
			"0.007": 4.46163604335,
			"0.008": 4.14817449378,
			"0.009": 3.07044683095,
			"0.01": 3.6497868026,
			"0.011": 2.75136269719,
			"0.012": 3.10664339209,
			"0.013": 1.99065481791,
			"0.014": 0.0876767963064,
			"0.015": 0.0,
			"0.016": 0.0,
			"0.017": 0.0,
			"0.018": 0.0,
			"0.019": 0.0,
			"0.02": 0.0,
			"0.021": 0.0,
			"0.022": 0.0,
			"0.023": 0.0,
			"0.024": 0.0,
			"0.025": 0.0
		}
	}
}
