{
	 "smiles": "CCC1=C(C=NN1C)C(O)=O", 
	 "Tm": 418.15, 
	 "num_atms": 21, 
	 "gaussian": { 
		 "optdone": 1, 
		 "sigma_profile": "yes", 
		 "theory": "DFT", 
		 "functional": "B3LYP", 
		 "basiset": "6-31G**", 
		 "properties": { 
			 "R2extent": 1896.4695, 
			 "electric_dipole_moment_norm": 4.40571844538, 
			 "electric_quadrupole_moment_norm": 6.02765369858, 
			 "total_energy": -532.730733377, 
			 "HOMO_LUMO_gap": 0.22678, 
			 "cosmo_polarized_energy": -12.93, 
			 "cosmo_cavitation_energy": 24.86, 
			 "cosmo_dispersion_energy": -17.78, 
			 "cosmo_repulsion_energy": 1.43, 
			 "cosmo_total_nonelectrostatic_energy": 8.51, 
			 "SMD_solvation_energy": 4.78 
		},
		"coords": [
			{
				"x": 1.8918777079,
				"y": 0.6974774444,
				"z": -1.9658477362,
				"element": "C" 
			},
			{
				"x": 1.3353029212,
				"y": 0.7943138012,
				"z": -0.5323166246,
				"element": "C" 
			},
			{
				"x": 0.3572162147,
				"y": -0.2960318897,
				"z": -0.2063378328,
				"element": "C" 
			},
			{
				"x": -1.0177697551,
				"y": -0.4167770743,
				"z": -0.4428709493,
				"element": "C" 
			},
			{
				"x": -1.3680078109,
				"y": -1.6881218236,
				"z": 0.0757384991,
				"element": "C" 
			},
			{
				"x": -0.3219825473,
				"y": -2.3159065981,
				"z": 0.5872337891,
				"element": "N" 
			},
			{
				"x": 0.7203951451,
				"y": -1.4539285808,
				"z": 0.4034219306,
				"element": "N" 
			},
			{
				"x": 2.035624992,
				"y": -1.842332779,
				"z": 0.885188949,
				"element": "C" 
			},
			{
				"x": -1.9589887338,
				"y": 0.5031755685,
				"z": -1.073579093,
				"element": "C" 
			},
			{
				"x": -1.3763371884,
				"y": 1.6507390393,
				"z": -1.5313509628,
				"element": "O" 
			},
			{
				"x": -3.1519504876,
				"y": 0.3022907811,
				"z": -1.2024319431,
				"element": "O" 
			},
			{
				"x": 2.4042128294,
				"y": -0.2550148905,
				"z": -2.1364429894,
				"element": "H" 
			},
			{
				"x": 2.6065563541,
				"y": 1.5050770286,
				"z": -2.1527005563,
				"element": "H" 
			},
			{
				"x": 1.0808215698,
				"y": 0.7828099708,
				"z": -2.6932106767,
				"element": "H" 
			},
			{
				"x": 0.829066397,
				"y": 1.7545304619,
				"z": -0.4114714972,
				"element": "H" 
			},
			{
				"x": 2.1601444198,
				"y": 0.7722288183,
				"z": 0.188848515,
				"element": "H" 
			},
			{
				"x": -2.3474693461,
				"y": -2.1453505812,
				"z": 0.0821756109,
				"element": "H" 
			},
			{
				"x": 2.7747548935,
				"y": -1.8056807198,
				"z": 0.0801535737,
				"element": "H" 
			},
			{
				"x": 2.3642621724,
				"y": -1.194829069,
				"z": 1.7043039709,
				"element": "H" 
			},
			{
				"x": 1.9472522593,
				"y": -2.8647652076,
				"z": 1.2493855509,
				"element": "H" 
			},
			{
				"x": -2.1025820069,
				"y": 2.1676962993,
				"z": -1.9177895278,
				"element": "H" 
			}
		],
		 "valence_orbital": [ 
			{
				"type": "occ",
				"energy": -0.3124,
				"method": "rhf"
			},
			{
				"type": "occ",
				"energy": -0.291,
				"method": "rhf"
			},
			{
				"type": "occ",
				"energy": -0.26964,
				"method": "rhf"
			},
			{
				"type": "occ",
				"energy": -0.25569,
				"method": "rhf"
			},
			{
				"type": "occ",
				"energy": -0.24662,
				"method": "rhf"
			},
			{
				"type": "unocc",
				"energy": -0.01984,
				"method": "rhf"
			},
			{
				"type": "unocc",
				"energy": 0.02095,
				"method": "rhf"
			},
			{
				"type": "unocc",
				"energy": 0.07234,
				"method": "rhf"
			},
			{
				"type": "unocc",
				"energy": 0.08591,
				"method": "rhf"
			},
			{
				"type": "unocc",
				"energy": 0.11146,
				"method": "rhf"
			}
		],
		"cosmo_sigma_profile": { 
			"-0.025": 0.0,
			"-0.024": 0.0,
			"-0.023": 0.0,
			"-0.022": 0.0,
			"-0.021": 0.0,
			"-0.02": 0.0,
			"-0.019": 0.0,
			"-0.018": 0.3222037131,
			"-0.017": 0.84735858109,
			"-0.016": 0.905306656258,
			"-0.015": 0.948448448539,
			"-0.014": 0.552953927559,
			"-0.013": 0.504969386032,
			"-0.012": 0.755901374199,
			"-0.011": 0.540229003722,
			"-0.01": 1.09772259889,
			"-0.009": 0.752580050903,
			"-0.008": 0.793064115744,
			"-0.007": 4.52661416994,
			"-0.006": 10.564416055,
			"-0.005": 13.8262159195,
			"-0.004": 13.8113659699,
			"-0.003": 17.2394029707,
			"-0.002": 16.899983124,
			"-0.001": 16.5569837422,
			"0.0": 17.0389836278,
			"0.001": 13.8417857158,
			"0.002": 10.7972445142,
			"0.003": 10.1715064149,
			"0.004": 6.44455159108,
			"0.005": 6.32164271534,
			"0.006": 4.79468006737,
			"0.007": 2.87162038685,
			"0.008": 1.78807262342,
			"0.009": 2.74918236764,
			"0.01": 3.27513803851,
			"0.011": 3.66933092887,
			"0.012": 6.31766568322,
			"0.013": 2.93310917104,
			"0.014": 1.27386805683,
			"0.015": 0.596667376869,
			"0.016": 0.0,
			"0.017": 0.0,
			"0.018": 0.0,
			"0.019": 0.0,
			"0.02": 0.0,
			"0.021": 0.0,
			"0.022": 0.0,
			"0.023": 0.0,
			"0.024": 0.0,
			"0.025": 0.0
		}
	}
}
