{
	 "smiles": "NC1=C(C=NC=C1)C(F)(F)F", 
	 "Tm": 373.15, 
	 "num_atms": 16, 
	 "gaussian": { 
		 "optdone": 1, 
		 "sigma_profile": "yes", 
		 "theory": "DFT", 
		 "functional": "B3LYP", 
		 "basiset": "6-31G**", 
		 "properties": { 
			 "R2extent": 2552.4232, 
			 "electric_dipole_moment_norm": 3.71919322703, 
			 "electric_quadrupole_moment_norm": 9.04950810597, 
			 "total_energy": -640.682943105, 
			 "HOMO_LUMO_gap": 0.21228, 
			 "cosmo_polarized_energy": -10.07, 
			 "cosmo_cavitation_energy": 21.23, 
			 "cosmo_dispersion_energy": -15.62, 
			 "cosmo_repulsion_energy": 1.19, 
			 "cosmo_total_nonelectrostatic_energy": 6.8, 
			 "SMD_solvation_energy": 3.3 
		},
		"coords": [
			{
				"x": 0.7167692981,
				"y": 0.0837681151,
				"z": -0.5522513416,
				"element": "N" 
			},
			{
				"x": 0.1417892831,
				"y": 1.3200788745,
				"z": -0.4052304766,
				"element": "C" 
			},
			{
				"x": -0.1549351344,
				"y": 1.8783418801,
				"z": 0.8625216599,
				"element": "C" 
			},
			{
				"x": -0.7095939963,
				"y": 3.1582224483,
				"z": 0.9221402804,
				"element": "C" 
			},
			{
				"x": -0.9884834212,
				"y": 3.9183958917,
				"z": -0.1397805107,
				"element": "N" 
			},
			{
				"x": -0.6980189612,
				"y": 3.3839183197,
				"z": -1.336483423,
				"element": "C" 
			},
			{
				"x": -0.1492466492,
				"y": 2.1238214428,
				"z": -1.5235765079,
				"element": "C" 
			},
			{
				"x": 0.1626114362,
				"y": 1.1328919434,
				"z": 2.1214292362,
				"element": "C" 
			},
			{
				"x": -0.3438917751,
				"y": -0.1386376761,
				"z": 2.0968608249,
				"element": "F" 
			},
			{
				"x": 1.4960572585,
				"y": 0.989432619,
				"z": 2.3093367338,
				"element": "F" 
			},
			{
				"x": -0.3359149472,
				"y": 1.7305959919,
				"z": 3.2185420678,
				"element": "F" 
			},
			{
				"x": 0.7060719412,
				"y": -0.3251503338,
				"z": -1.4736978442,
				"element": "H" 
			},
			{
				"x": 0.6461081531,
				"y": -0.5704357862,
				"z": 0.2115744357,
				"element": "H" 
			},
			{
				"x": -0.9410415599,
				"y": 3.5844454428,
				"z": 1.8946980129,
				"element": "H" 
			},
			{
				"x": -0.92361982,
				"y": 4.0031281216,
				"z": -2.2031971958,
				"element": "H" 
			},
			{
				"x": 0.0552388942,
				"y": 1.7569827052,
				"z": -2.5253859519,
				"element": "H" 
			}
		],
		 "valence_orbital": [ 
			{
				"type": "occ",
				"energy": -0.36739,
				"method": "rhf"
			},
			{
				"type": "occ",
				"energy": -0.35262,
				"method": "rhf"
			},
			{
				"type": "occ",
				"energy": -0.27323,
				"method": "rhf"
			},
			{
				"type": "occ",
				"energy": -0.25819,
				"method": "rhf"
			},
			{
				"type": "occ",
				"energy": -0.23924,
				"method": "rhf"
			},
			{
				"type": "unocc",
				"energy": -0.02696,
				"method": "rhf"
			},
			{
				"type": "unocc",
				"energy": -0.01311,
				"method": "rhf"
			},
			{
				"type": "unocc",
				"energy": 0.07166,
				"method": "rhf"
			},
			{
				"type": "unocc",
				"energy": 0.10137,
				"method": "rhf"
			},
			{
				"type": "unocc",
				"energy": 0.11848,
				"method": "rhf"
			}
		],
		"cosmo_sigma_profile": { 
			"-0.025": 0.0,
			"-0.024": 0.0,
			"-0.023": 0.0,
			"-0.022": 0.0,
			"-0.021": 0.0,
			"-0.02": 0.0,
			"-0.019": 0.0,
			"-0.018": 0.0,
			"-0.017": 0.0,
			"-0.016": 0.0,
			"-0.015": 0.241428420969,
			"-0.014": 1.34208779986,
			"-0.013": 1.62623196926,
			"-0.012": 2.45778461165,
			"-0.011": 3.02615227026,
			"-0.01": 2.256204694,
			"-0.009": 2.07115607522,
			"-0.008": 2.78396665547,
			"-0.007": 4.58101993555,
			"-0.006": 6.53085633214,
			"-0.005": 6.1838526212,
			"-0.004": 6.6379153691,
			"-0.003": 6.95829461988,
			"-0.002": 9.08656701174,
			"-0.001": 7.84994254248,
			"0.0": 12.9607402246,
			"0.001": 17.5528856763,
			"0.002": 27.7613332467,
			"0.003": 25.300300877,
			"0.004": 4.69724828408,
			"0.005": 3.08493526952,
			"0.006": 2.27631878798,
			"0.007": 1.36360953659,
			"0.008": 2.25183466132,
			"0.009": 1.9684752514,
			"0.01": 1.13973029715,
			"0.011": 1.0904162729,
			"0.012": 0.774682013273,
			"0.013": 0.931657259989,
			"0.014": 0.941785745688,
			"0.015": 1.11095988347,
			"0.016": 0.799350525728,
			"0.017": 0.677515985609,
			"0.018": 0.0544585718304,
			"0.019": 0.0,
			"0.02": 0.0,
			"0.021": 0.0,
			"0.022": 0.0,
			"0.023": 0.0,
			"0.024": 0.0,
			"0.025": 0.0
		}
	}
}
