{
	 "smiles": "ClC1=CC2=NC=CC(Cl)=C2C=C1", 
	 "Tm": 366.15, 
	 "num_atms": 17, 
	 "gaussian": { 
		 "optdone": 1, 
		 "sigma_profile": "yes", 
		 "theory": "DFT", 
		 "functional": "B3LYP", 
		 "basiset": "6-31G**", 
		 "properties": { 
			 "R2extent": 3429.6664, 
			 "electric_dipole_moment_norm": 1.77135264417, 
			 "electric_quadrupole_moment_norm": 6.03052403527, 
			 "total_energy": -1321.11295793, 
			 "HOMO_LUMO_gap": 0.17361, 
			 "cosmo_polarized_energy": -5.69, 
			 "cosmo_cavitation_energy": 24.9, 
			 "cosmo_dispersion_energy": -19.02, 
			 "cosmo_repulsion_energy": 1.49, 
			 "cosmo_total_nonelectrostatic_energy": 7.37, 
			 "SMD_solvation_energy": 2.11 
		},
		"coords": [
			{
				"x": -3.8802500851,
				"y": -0.3283242977,
				"z": -2.0393731824,
				"element": "Cl" 
			},
			{
				"x": -2.1614451236,
				"y": -0.3064018456,
				"z": -1.6871132764,
				"element": "C" 
			},
			{
				"x": -1.7049529176,
				"y": -0.75239606,
				"z": -0.4705883686,
				"element": "C" 
			},
			{
				"x": -0.312953801,
				"y": -0.7332641362,
				"z": -0.1890464064,
				"element": "C" 
			},
			{
				"x": 0.0888171045,
				"y": -1.1865797846,
				"z": 1.0324262197,
				"element": "N" 
			},
			{
				"x": 1.3791128309,
				"y": -1.1690981953,
				"z": 1.2936843974,
				"element": "C" 
			},
			{
				"x": 2.373621357,
				"y": -0.71283358,
				"z": 0.3947481459,
				"element": "C" 
			},
			{
				"x": 1.9731704582,
				"y": -0.2549919592,
				"z": -0.8375636084,
				"element": "C" 
			},
			{
				"x": 3.1788394353,
				"y": 0.3171279361,
				"z": -1.9745178214,
				"element": "Cl" 
			},
			{
				"x": 0.5954498236,
				"y": -0.2448811891,
				"z": -1.1881837754,
				"element": "C" 
			},
			{
				"x": 0.0765166414,
				"y": 0.2051515326,
				"z": -2.4293962105,
				"element": "C" 
			},
			{
				"x": -1.2755972158,
				"y": 0.1772809683,
				"z": -2.6798295078,
				"element": "C" 
			},
			{
				"x": -2.3749116569,
				"y": -1.1242315396,
				"z": 0.295141933,
				"element": "H" 
			},
			{
				"x": 1.6834501649,
				"y": -1.5344435605,
				"z": 2.2734976896,
				"element": "H" 
			},
			{
				"x": 3.4201606239,
				"y": -0.7262336361,
				"z": 0.6752833344,
				"element": "H" 
			},
			{
				"x": 0.7593027981,
				"y": 0.5744698413,
				"z": -3.1860078156,
				"element": "H" 
			},
			{
				"x": -1.6721304379,
				"y": 0.5211495055,
				"z": -3.628361747,
				"element": "H" 
			}
		],
		 "valence_orbital": [ 
			{
				"type": "occ",
				"energy": -0.32014,
				"method": "rhf"
			},
			{
				"type": "occ",
				"energy": -0.29789,
				"method": "rhf"
			},
			{
				"type": "occ",
				"energy": -0.2722,
				"method": "rhf"
			},
			{
				"type": "occ",
				"energy": -0.26352,
				"method": "rhf"
			},
			{
				"type": "occ",
				"energy": -0.24588,
				"method": "rhf"
			},
			{
				"type": "unocc",
				"energy": -0.07227,
				"method": "rhf"
			},
			{
				"type": "unocc",
				"energy": -0.03636,
				"method": "rhf"
			},
			{
				"type": "unocc",
				"energy": 0.00281,
				"method": "rhf"
			},
			{
				"type": "unocc",
				"energy": 0.01573,
				"method": "rhf"
			},
			{
				"type": "unocc",
				"energy": 0.02313,
				"method": "rhf"
			}
		],
		"cosmo_sigma_profile": { 
			"-0.025": 0.0,
			"-0.024": 0.0,
			"-0.023": 0.0,
			"-0.022": 0.0,
			"-0.021": 0.0,
			"-0.02": 0.0,
			"-0.019": 0.0,
			"-0.018": 0.0,
			"-0.017": 0.0,
			"-0.016": 0.0,
			"-0.015": 0.0,
			"-0.014": 0.0,
			"-0.013": 0.0,
			"-0.012": 0.0,
			"-0.011": 0.0,
			"-0.01": 0.0,
			"-0.009": 0.392397328017,
			"-0.008": 4.15997601361,
			"-0.007": 9.38822182062,
			"-0.006": 8.6238815396,
			"-0.005": 7.66175963255,
			"-0.004": 7.40632457608,
			"-0.003": 9.2159190463,
			"-0.002": 11.9059027036,
			"-0.001": 21.8596657299,
			"0.0": 30.6850379895,
			"0.001": 29.1661077737,
			"0.002": 20.4286945725,
			"0.003": 16.5724239327,
			"0.004": 15.5757253436,
			"0.005": 3.49658283464,
			"0.006": 1.38498837462,
			"0.007": 0.867931301109,
			"0.008": 1.18774388868,
			"0.009": 1.22340942333,
			"0.01": 1.2875665027,
			"0.011": 0.564796284074,
			"0.012": 0.788247998625,
			"0.013": 1.00868154577,
			"0.014": 0.515890875604,
			"0.015": 0.66404904819,
			"0.016": 0.0172988743277,
			"0.017": 0.0,
			"0.018": 0.0,
			"0.019": 0.0,
			"0.02": 0.0,
			"0.021": 0.0,
			"0.022": 0.0,
			"0.023": 0.0,
			"0.024": 0.0,
			"0.025": 0.0
		}
	}
}
