{
	 "smiles": "CC(C)N1C=C(C2=C1C=CC=C2)C1=CC=C(F)C=C1", 
	 "Tm": 370.15, 
	 "num_atms": 35, 
	 "gaussian": { 
		 "optdone": 1, 
		 "sigma_profile": "yes", 
		 "theory": "DFT", 
		 "functional": "B3LYP", 
		 "basiset": "6-31G**", 
		 "properties": { 
			 "R2extent": 6541.8657, 
			 "electric_dipole_moment_norm": 3.82616040045, 
			 "electric_quadrupole_moment_norm": 12.5117835871, 
			 "total_energy": -812.059049287, 
			 "HOMO_LUMO_gap": 0.17539, 
			 "cosmo_polarized_energy": -8.61, 
			 "cosmo_cavitation_energy": 37.85, 
			 "cosmo_dispersion_energy": -26.72, 
			 "cosmo_repulsion_energy": 2.01, 
			 "cosmo_total_nonelectrostatic_energy": 13.15, 
			 "SMD_solvation_energy": 6.85 
		},
		"coords": [
			{
				"x": -1.7307508332,
				"y": -3.2940605785,
				"z": 1.075127311,
				"element": "C" 
			},
			{
				"x": -0.5089566088,
				"y": -2.5963542405,
				"z": 1.6903555105,
				"element": "C" 
			},
			{
				"x": 0.6872591585,
				"y": -3.5401889319,
				"z": 1.8823168214,
				"element": "C" 
			},
			{
				"x": -0.1372715295,
				"y": -1.3839381022,
				"z": 0.9475493578,
				"element": "N" 
			},
			{
				"x": -0.1969421139,
				"y": -0.1125569045,
				"z": 1.4842141311,
				"element": "C" 
			},
			{
				"x": 0.1806080807,
				"y": 0.8384162162,
				"z": 0.5632800007,
				"element": "C" 
			},
			{
				"x": 0.5061489046,
				"y": 0.1086963309,
				"z": -0.6412654363,
				"element": "C" 
			},
			{
				"x": 0.2956334645,
				"y": -1.274595723,
				"z": -0.3678464711,
				"element": "C" 
			},
			{
				"x": 0.535042054,
				"y": -2.2566465047,
				"z": -1.3411152858,
				"element": "C" 
			},
			{
				"x": 0.9951697059,
				"y": -1.8442397983,
				"z": -2.5860081248,
				"element": "C" 
			},
			{
				"x": 1.2272918542,
				"y": -0.483338967,
				"z": -2.8655006457,
				"element": "C" 
			},
			{
				"x": 0.9907896739,
				"y": 0.4906414726,
				"z": -1.9049777537,
				"element": "C" 
			},
			{
				"x": 0.2264332912,
				"y": 2.2905792121,
				"z": 0.7937879795,
				"element": "C" 
			},
			{
				"x": -0.1704767466,
				"y": 3.2027582819,
				"z": -0.2017721014,
				"element": "C" 
			},
			{
				"x": -0.1438610557,
				"y": 4.5784615083,
				"z": 0.0219755771,
				"element": "C" 
			},
			{
				"x": 0.274637419,
				"y": 5.0488513139,
				"z": 1.2608497711,
				"element": "C" 
			},
			{
				"x": 0.3006711036,
				"y": 6.3814251985,
				"z": 1.4855738146,
				"element": "F" 
			},
			{
				"x": 0.6696893889,
				"y": 4.183414604,
				"z": 2.2743680499,
				"element": "C" 
			},
			{
				"x": 0.6505206569,
				"y": 2.8116266741,
				"z": 2.0304025889,
				"element": "C" 
			},
			{
				"x": -2.5690456541,
				"y": -2.5971200121,
				"z": 0.9885571902,
				"element": "H" 
			},
			{
				"x": -1.5155735484,
				"y": -3.6894841966,
				"z": 0.0791860034,
				"element": "H" 
			},
			{
				"x": -2.0412673521,
				"y": -4.1303739924,
				"z": 1.7094695391,
				"element": "H" 
			},
			{
				"x": -0.8021189263,
				"y": -2.2311195116,
				"z": 2.6808935849,
				"element": "H" 
			},
			{
				"x": 1.0373726876,
				"y": -3.953424465,
				"z": 0.9330185425,
				"element": "H" 
			},
			{
				"x": 0.402143031,
				"y": -4.3765033755,
				"z": 2.5285107406,
				"element": "H" 
			},
			{
				"x": 1.5230560116,
				"y": -3.0123330183,
				"z": 2.3500571395,
				"element": "H" 
			},
			{
				"x": -0.5434664595,
				"y": 0.0258285042,
				"z": 2.499331662,
				"element": "H" 
			},
			{
				"x": 0.3745630978,
				"y": -3.3098554109,
				"z": -1.1416373209,
				"element": "H" 
			},
			{
				"x": 1.185062205,
				"y": -2.5884301126,
				"z": -3.354018515,
				"element": "H" 
			},
			{
				"x": 1.6007347733,
				"y": -0.1954106109,
				"z": -3.8438564263,
				"element": "H" 
			},
			{
				"x": 1.1892301722,
				"y": 1.5354497656,
				"z": -2.1222909791,
				"element": "H" 
			},
			{
				"x": -0.5288334615,
				"y": 2.828236199,
				"z": -1.1549511267,
				"element": "H" 
			},
			{
				"x": -0.4529975698,
				"y": 5.2836327252,
				"z": -0.7423036151,
				"element": "H" 
			},
			{
				"x": 0.9994927003,
				"y": 4.5870872202,
				"z": 3.2258086116,
				"element": "H" 
			},
			{
				"x": 0.9887124247,
				"y": 2.1292692299,
				"z": 2.8046098743,
				"element": "H" 
			}
		],
		 "valence_orbital": [ 
			{
				"type": "occ",
				"energy": -0.27733,
				"method": "rhf"
			},
			{
				"type": "occ",
				"energy": -0.25339,
				"method": "rhf"
			},
			{
				"type": "occ",
				"energy": -0.23896,
				"method": "rhf"
			},
			{
				"type": "occ",
				"energy": -0.21859,
				"method": "rhf"
			},
			{
				"type": "occ",
				"energy": -0.18907,
				"method": "rhf"
			},
			{
				"type": "unocc",
				"energy": -0.01368,
				"method": "rhf"
			},
			{
				"type": "unocc",
				"energy": -0.00468,
				"method": "rhf"
			},
			{
				"type": "unocc",
				"energy": 0.00497,
				"method": "rhf"
			},
			{
				"type": "unocc",
				"energy": 0.02723,
				"method": "rhf"
			},
			{
				"type": "unocc",
				"energy": 0.07387,
				"method": "rhf"
			}
		],
		"cosmo_sigma_profile": { 
			"-0.025": 0.0,
			"-0.024": 0.0,
			"-0.023": 0.0,
			"-0.022": 0.0,
			"-0.021": 0.0,
			"-0.02": 0.0,
			"-0.019": 0.0,
			"-0.018": 0.0,
			"-0.017": 0.0,
			"-0.016": 0.0,
			"-0.015": 0.0,
			"-0.014": 0.0,
			"-0.013": 0.0,
			"-0.012": 0.0,
			"-0.011": 0.0,
			"-0.01": 0.0,
			"-0.009": 0.0,
			"-0.008": 1.56978546188,
			"-0.007": 6.18703802652,
			"-0.006": 10.8779757609,
			"-0.005": 17.9664798375,
			"-0.004": 28.3700774331,
			"-0.003": 27.5673221027,
			"-0.002": 25.7258077811,
			"-0.001": 21.969108827,
			"0.0": 26.9447441464,
			"0.001": 24.246439832,
			"0.002": 19.2344987544,
			"0.003": 17.8871081063,
			"0.004": 30.3505393717,
			"0.005": 24.9730805974,
			"0.006": 10.4940964144,
			"0.007": 6.76254643249,
			"0.008": 0.529624199224,
			"0.009": 0.0,
			"0.01": 0.0,
			"0.011": 0.0,
			"0.012": 0.0,
			"0.013": 0.0,
			"0.014": 0.0,
			"0.015": 0.0,
			"0.016": 0.0,
			"0.017": 0.0,
			"0.018": 0.0,
			"0.019": 0.0,
			"0.02": 0.0,
			"0.021": 0.0,
			"0.022": 0.0,
			"0.023": 0.0,
			"0.024": 0.0,
			"0.025": 0.0
		}
	}
}
