{
	 "smiles": "N#CC1=C2OCCOC2=CS1", 
	 "Tm": 343.15, 
	 "num_atms": 16, 
	 "gaussian": { 
		 "optdone": 1, 
		 "sigma_profile": "yes", 
		 "theory": "DFT", 
		 "functional": "B3LYP", 
		 "basiset": "6-31G**", 
		 "properties": { 
			 "R2extent": 1962.3085, 
			 "electric_dipole_moment_norm": 5.92385564561, 
			 "electric_quadrupole_moment_norm": 17.8813693709, 
			 "total_energy": -873.079078251, 
			 "HOMO_LUMO_gap": 0.1847, 
			 "cosmo_polarized_energy": -12.39, 
			 "cosmo_cavitation_energy": 22.62, 
			 "cosmo_dispersion_energy": -17.32, 
			 "cosmo_repulsion_energy": 1.35, 
			 "cosmo_total_nonelectrostatic_energy": 6.65, 
			 "SMD_solvation_energy": 5.73 
		},
		"coords": [
			{
				"x": -3.6515926698,
				"y": 0.4041561036,
				"z": 0.7255491545,
				"element": "N" 
			},
			{
				"x": -2.5123552375,
				"y": 0.2679626104,
				"z": 0.9313452128,
				"element": "C" 
			},
			{
				"x": -1.1363198363,
				"y": 0.1030104329,
				"z": 1.1941447202,
				"element": "C" 
			},
			{
				"x": -0.0985974664,
				"y": 0.1463480316,
				"z": 0.2846025536,
				"element": "C" 
			},
			{
				"x": -0.2591208785,
				"y": 0.3451758768,
				"z": -1.0453654007,
				"element": "O" 
			},
			{
				"x": 0.9717762057,
				"y": 0.6669379667,
				"z": -1.7170499971,
				"element": "C" 
			},
			{
				"x": 2.1013569076,
				"y": -0.2321157996,
				"z": -1.2375848375,
				"element": "C" 
			},
			{
				"x": 2.3388585106,
				"y": -0.0474076108,
				"z": 0.1654920694,
				"element": "O" 
			},
			{
				"x": 1.1827733504,
				"y": -0.0553647681,
				"z": 0.8914476908,
				"element": "C" 
			},
			{
				"x": 1.109229205,
				"y": -0.2408052689,
				"z": 2.2442667707,
				"element": "C" 
			},
			{
				"x": -0.5245021133,
				"y": -0.178172703,
				"z": 2.8163826725,
				"element": "S" 
			},
			{
				"x": 0.779795308,
				"y": 0.5227399821,
				"z": -2.7822131331,
				"element": "H" 
			},
			{
				"x": 1.2200114349,
				"y": 1.7198662964,
				"z": -1.5339099911,
				"element": "H" 
			},
			{
				"x": 3.0370307782,
				"y": 0.0196759443,
				"z": -1.7414978581,
				"element": "H" 
			},
			{
				"x": 1.8575197198,
				"y": -1.2840746916,
				"z": -1.4366761682,
				"element": "H" 
			},
			{
				"x": 1.9284367816,
				"y": -0.415132403,
				"z": 2.9261665413,
				"element": "H" 
			}
		],
		 "valence_orbital": [ 
			{
				"type": "occ",
				"energy": -0.33643,
				"method": "rhf"
			},
			{
				"type": "occ",
				"energy": -0.32692,
				"method": "rhf"
			},
			{
				"type": "occ",
				"energy": -0.32069,
				"method": "rhf"
			},
			{
				"type": "occ",
				"energy": -0.23792,
				"method": "rhf"
			},
			{
				"type": "occ",
				"energy": -0.23616,
				"method": "rhf"
			},
			{
				"type": "unocc",
				"energy": -0.05146,
				"method": "rhf"
			},
			{
				"type": "unocc",
				"energy": -0.00327,
				"method": "rhf"
			},
			{
				"type": "unocc",
				"energy": 0.01815,
				"method": "rhf"
			},
			{
				"type": "unocc",
				"energy": 0.04596,
				"method": "rhf"
			},
			{
				"type": "unocc",
				"energy": 0.06351,
				"method": "rhf"
			}
		],
		"cosmo_sigma_profile": { 
			"-0.025": 0.0,
			"-0.024": 0.0,
			"-0.023": 0.0,
			"-0.022": 0.0,
			"-0.021": 0.0,
			"-0.02": 0.0,
			"-0.019": 0.0,
			"-0.018": 0.0,
			"-0.017": 0.0,
			"-0.016": 0.0,
			"-0.015": 0.0,
			"-0.014": 0.0,
			"-0.013": 0.0,
			"-0.012": 0.0,
			"-0.011": 0.0790921638306,
			"-0.01": 1.90637048184,
			"-0.009": 2.09922484329,
			"-0.008": 7.85197951074,
			"-0.007": 13.7683025155,
			"-0.006": 12.7208260888,
			"-0.005": 10.4790473169,
			"-0.004": 9.38683989472,
			"-0.003": 7.95056065361,
			"-0.002": 7.80209006941,
			"-0.001": 10.812863415,
			"0.0": 17.0438612823,
			"0.001": 14.9122365117,
			"0.002": 13.579611216,
			"0.003": 9.77914925594,
			"0.004": 7.00661862795,
			"0.005": 4.53189115536,
			"0.006": 5.74417910702,
			"0.007": 5.44639821591,
			"0.008": 6.19731214311,
			"0.009": 4.42569750977,
			"0.01": 4.20924545367,
			"0.011": 2.76142531918,
			"0.012": 2.63707786553,
			"0.013": 1.6746904288,
			"0.014": 0.0605341422022,
			"0.015": 0.0,
			"0.016": 0.0,
			"0.017": 0.0,
			"0.018": 0.0,
			"0.019": 0.0,
			"0.02": 0.0,
			"0.021": 0.0,
			"0.022": 0.0,
			"0.023": 0.0,
			"0.024": 0.0,
			"0.025": 0.0
		}
	}
}
