{
	 "smiles": "CC1=NC2=C(N=NC3=CC=CC=C3Cl)C(N)=NN2C(=C1)C(F)(F)F", 
	 "Tm": 511.15, 
	 "num_atms": 34, 
	 "gaussian": { 
		 "optdone": 1, 
		 "sigma_profile": "yes", 
		 "theory": "DFT", 
		 "functional": "B3LYP", 
		 "basiset": "6-31G**", 
		 "properties": { 
			 "R2extent": 12274.4937, 
			 "electric_dipole_moment_norm": 2.62857594526, 
			 "electric_quadrupole_moment_norm": 15.0223744395, 
			 "total_energy": -1627.68937386, 
			 "HOMO_LUMO_gap": 0.12897, 
			 "cosmo_polarized_energy": -13.77, 
			 "cosmo_cavitation_energy": 42.82, 
			 "cosmo_dispersion_energy": -30.57, 
			 "cosmo_repulsion_energy": 2.26, 
			 "cosmo_total_nonelectrostatic_energy": 14.5, 
			 "SMD_solvation_energy": 4.81 
		},
		"coords": [
			{
				"x": 4.0388959688,
				"y": 0.3300149031,
				"z": 1.2677987123,
				"element": "C" 
			},
			{
				"x": 3.1722278613,
				"y": -0.0991240008,
				"z": 0.1150049551,
				"element": "C" 
			},
			{
				"x": 1.8578126185,
				"y": 0.0475524206,
				"z": 0.2426854725,
				"element": "N" 
			},
			{
				"x": 1.0808188146,
				"y": -0.3318025411,
				"z": -0.7781672592,
				"element": "C" 
			},
			{
				"x": -0.3143179501,
				"y": -0.3178245153,
				"z": -0.976200323,
				"element": "C" 
			},
			{
				"x": -1.2232319975,
				"y": 0.1336254857,
				"z": -0.0645502059,
				"element": "N" 
			},
			{
				"x": -2.4407112706,
				"y": 0.0577956719,
				"z": -0.4451780072,
				"element": "N" 
			},
			{
				"x": -3.3786636026,
				"y": 0.5234632772,
				"z": 0.4959540443,
				"element": "C" 
			},
			{
				"x": -3.0391273681,
				"y": 1.0356630268,
				"z": 1.762994398,
				"element": "C" 
			},
			{
				"x": -4.0191986318,
				"y": 1.4773063079,
				"z": 2.6411907929,
				"element": "C" 
			},
			{
				"x": -5.3689190632,
				"y": 1.4190356806,
				"z": 2.2762100946,
				"element": "C" 
			},
			{
				"x": -5.7310583059,
				"y": 0.9163835537,
				"z": 1.0277422303,
				"element": "C" 
			},
			{
				"x": -4.7425058721,
				"y": 0.4742903798,
				"z": 0.1500177679,
				"element": "C" 
			},
			{
				"x": -5.2430755343,
				"y": -0.1529783715,
				"z": -1.4162670437,
				"element": "Cl" 
			},
			{
				"x": -0.5014472101,
				"y": -0.8656370808,
				"z": -2.2960372637,
				"element": "C" 
			},
			{
				"x": -1.6867871055,
				"y": -1.0407637879,
				"z": -2.904218691,
				"element": "N" 
			},
			{
				"x": 0.6589291115,
				"y": -1.1982089837,
				"z": -2.8862645587,
				"element": "N" 
			},
			{
				"x": 1.6068044315,
				"y": -0.87217403,
				"z": -1.9621754236,
				"element": "N" 
			},
			{
				"x": 2.9452094436,
				"y": -1.0262701721,
				"z": -2.1035373352,
				"element": "C" 
			},
			{
				"x": 3.7573252933,
				"y": -0.6404368148,
				"z": -1.0617120266,
				"element": "C" 
			},
			{
				"x": 3.4729114569,
				"y": -1.6124366644,
				"z": -3.395561609,
				"element": "C" 
			},
			{
				"x": 4.8199357537,
				"y": -1.6859781053,
				"z": -3.3470429691,
				"element": "F" 
			},
			{
				"x": 3.1421367341,
				"y": -0.8530410035,
				"z": -4.4514502838,
				"element": "F" 
			},
			{
				"x": 3.002393528,
				"y": -2.8522717877,
				"z": -3.601551271,
				"element": "F" 
			},
			{
				"x": 4.6309056301,
				"y": -0.5105325377,
				"z": 1.6476763608,
				"element": "H" 
			},
			{
				"x": 3.4139503809,
				"y": 0.7166392349,
				"z": 2.0734071027,
				"element": "H" 
			},
			{
				"x": 4.7451384166,
				"y": 1.1091631726,
				"z": 0.9588787027,
				"element": "H" 
			},
			{
				"x": -1.987125619,
				"y": 1.070519278,
				"z": 2.0225602359,
				"element": "H" 
			},
			{
				"x": -3.734993441,
				"y": 1.8686316732,
				"z": 3.6135431293,
				"element": "H" 
			},
			{
				"x": -6.1393068444,
				"y": 1.7631934461,
				"z": 2.9595014152,
				"element": "H" 
			},
			{
				"x": -6.7717402027,
				"y": 0.8636726347,
				"z": 0.7278101682,
				"element": "H" 
			},
			{
				"x": -1.7221672776,
				"y": -1.4320617836,
				"z": -3.8314327912,
				"element": "H" 
			},
			{
				"x": -2.5163864655,
				"y": -0.7644389054,
				"z": -2.3925922505,
				"element": "H" 
			},
			{
				"x": 4.8287683185,
				"y": -0.7550690611,
				"z": -1.1544362701,
				"element": "H" 
			}
		],
		 "valence_orbital": [ 
			{
				"type": "occ",
				"energy": -0.27215,
				"method": "rhf"
			},
			{
				"type": "occ",
				"energy": -0.24816,
				"method": "rhf"
			},
			{
				"type": "occ",
				"energy": -0.23203,
				"method": "rhf"
			},
			{
				"type": "occ",
				"energy": -0.22884,
				"method": "rhf"
			},
			{
				"type": "occ",
				"energy": -0.20818,
				"method": "rhf"
			},
			{
				"type": "unocc",
				"energy": -0.07921,
				"method": "rhf"
			},
			{
				"type": "unocc",
				"energy": -0.06775,
				"method": "rhf"
			},
			{
				"type": "unocc",
				"energy": -0.01467,
				"method": "rhf"
			},
			{
				"type": "unocc",
				"energy": -0.00811,
				"method": "rhf"
			},
			{
				"type": "unocc",
				"energy": 0.02458,
				"method": "rhf"
			}
		],
		"cosmo_sigma_profile": { 
			"-0.025": 0.0,
			"-0.024": 0.0,
			"-0.023": 0.0,
			"-0.022": 0.0,
			"-0.021": 0.0,
			"-0.02": 0.0,
			"-0.019": 0.0,
			"-0.018": 0.0,
			"-0.017": 0.0,
			"-0.016": 0.0,
			"-0.015": 0.409012770162,
			"-0.014": 1.22304634898,
			"-0.013": 0.92283950666,
			"-0.012": 0.875862020502,
			"-0.011": 1.35823575269,
			"-0.01": 0.816717712658,
			"-0.009": 1.82358215841,
			"-0.008": 2.67080192113,
			"-0.007": 7.00245906233,
			"-0.006": 16.1503594018,
			"-0.005": 22.4852999118,
			"-0.004": 23.5157399047,
			"-0.003": 20.9391421424,
			"-0.002": 25.6378006825,
			"-0.001": 23.2963704086,
			"0.0": 22.0025618948,
			"0.001": 34.6464612802,
			"0.002": 51.6288083309,
			"0.003": 31.0475104982,
			"0.004": 24.5994116818,
			"0.005": 10.7875020038,
			"0.006": 3.74575749107,
			"0.007": 3.46017594192,
			"0.008": 3.02535433669,
			"0.009": 3.90905908436,
			"0.01": 3.28770363459,
			"0.011": 2.69292869653,
			"0.012": 1.60717528534,
			"0.013": 1.02177658551,
			"0.014": 0.674470212606,
			"0.015": 0.0793920674012,
			"0.016": 0.0,
			"0.017": 0.0,
			"0.018": 0.0,
			"0.019": 0.0,
			"0.02": 0.0,
			"0.021": 0.0,
			"0.022": 0.0,
			"0.023": 0.0,
			"0.024": 0.0,
			"0.025": 0.0
		}
	}
}
