{
	 "smiles": "CC1=C(NC2=NN=C(S)S2)C=CC=C1", 
	 "Tm": 504.15, 
	 "num_atms": 23, 
	 "gaussian": { 
		 "optdone": 1, 
		 "sigma_profile": "yes", 
		 "theory": "DFT", 
		 "functional": "B3LYP", 
		 "basiset": "6-31G**", 
		 "properties": { 
			 "R2extent": 4502.1399, 
			 "electric_dipole_moment_norm": 4.39101076519, 
			 "electric_quadrupole_moment_norm": 15.8035219556, 
			 "total_energy": -1308.97648446, 
			 "HOMO_LUMO_gap": 0.17068, 
			 "cosmo_polarized_energy": -13.86, 
			 "cosmo_cavitation_energy": 30.52, 
			 "cosmo_dispersion_energy": -23.45, 
			 "cosmo_repulsion_energy": 1.75, 
			 "cosmo_total_nonelectrostatic_energy": 8.82, 
			 "SMD_solvation_energy": 2.56 
		},
		"coords": [
			{
				"x": 3.3521636533,
				"y": 1.80890217,
				"z": 0.5517261258,
				"element": "C" 
			},
			{
				"x": 1.9110211189,
				"y": 2.2319592796,
				"z": 0.7046462523,
				"element": "C" 
			},
			{
				"x": 0.8704439493,
				"y": 1.2748584197,
				"z": 0.7357076356,
				"element": "C" 
			},
			{
				"x": 1.2253611657,
				"y": -0.0848383546,
				"z": 0.6329816666,
				"element": "N" 
			},
			{
				"x": 0.4991351593,
				"y": -1.1632995832,
				"z": 0.2170772962,
				"element": "C" 
			},
			{
				"x": 0.9512904826,
				"y": -2.3834578654,
				"z": 0.4158817599,
				"element": "N" 
			},
			{
				"x": 0.1873336605,
				"y": -3.3383199088,
				"z": -0.1834832525,
				"element": "N" 
			},
			{
				"x": -0.8459511186,
				"y": -2.8688687532,
				"z": -0.8117732379,
				"element": "C" 
			},
			{
				"x": -2.082583929,
				"y": -3.9059679513,
				"z": -1.5365343124,
				"element": "S" 
			},
			{
				"x": -0.991842158,
				"y": -1.1013003896,
				"z": -0.7189008289,
				"element": "S" 
			},
			{
				"x": -0.4604743418,
				"y": 1.6851107552,
				"z": 0.889229882,
				"element": "C" 
			},
			{
				"x": -0.7715645364,
				"y": 3.0413040658,
				"z": 0.97895755,
				"element": "C" 
			},
			{
				"x": 0.241472913,
				"y": 3.996923296,
				"z": 0.9417260055,
				"element": "C" 
			},
			{
				"x": 1.568087002,
				"y": 3.5817081338,
				"z": 0.8143733022,
				"element": "C" 
			},
			{
				"x": 3.4997653536,
				"y": 1.1849132013,
				"z": -0.3376056614,
				"element": "H" 
			},
			{
				"x": 3.7110685638,
				"y": 1.2329744671,
				"z": 1.4163590588,
				"element": "H" 
			},
			{
				"x": 4.0030901304,
				"y": 2.6813735671,
				"z": 0.4601010799,
				"element": "H" 
			},
			{
				"x": 2.1452394136,
				"y": -0.3535408093,
				"z": 0.9570497363,
				"element": "H" 
			},
			{
				"x": -2.0542956018,
				"y": -3.3541173486,
				"z": -2.7686218768,
				"element": "H" 
			},
			{
				"x": -1.2517857745,
				"y": 0.9486902128,
				"z": 0.9691286626,
				"element": "H" 
			},
			{
				"x": -1.8084188165,
				"y": 3.3423896286,
				"z": 1.09441215,
				"element": "H" 
			},
			{
				"x": 0.0058032912,
				"y": 5.0539833789,
				"z": 1.0147497785,
				"element": "H" 
			},
			{
				"x": 2.3632404195,
				"y": 4.3223203878,
				"z": 0.7885112278,
				"element": "H" 
			}
		],
		 "valence_orbital": [ 
			{
				"type": "occ",
				"energy": -0.28625,
				"method": "rhf"
			},
			{
				"type": "occ",
				"energy": -0.26461,
				"method": "rhf"
			},
			{
				"type": "occ",
				"energy": -0.26003,
				"method": "rhf"
			},
			{
				"type": "occ",
				"energy": -0.25483,
				"method": "rhf"
			},
			{
				"type": "occ",
				"energy": -0.21357,
				"method": "rhf"
			},
			{
				"type": "unocc",
				"energy": -0.04289,
				"method": "rhf"
			},
			{
				"type": "unocc",
				"energy": -0.01908,
				"method": "rhf"
			},
			{
				"type": "unocc",
				"energy": -0.00496,
				"method": "rhf"
			},
			{
				"type": "unocc",
				"energy": 0.00484,
				"method": "rhf"
			},
			{
				"type": "unocc",
				"energy": 0.01904,
				"method": "rhf"
			}
		],
		"cosmo_sigma_profile": { 
			"-0.025": 0.0,
			"-0.024": 0.0,
			"-0.023": 0.0,
			"-0.022": 0.0,
			"-0.021": 0.0,
			"-0.02": 0.0,
			"-0.019": 0.0,
			"-0.018": 0.0,
			"-0.017": 0.0,
			"-0.016": 0.0,
			"-0.015": 0.0,
			"-0.014": 0.487841759365,
			"-0.013": 1.13752162871,
			"-0.012": 1.73129902866,
			"-0.011": 4.64622134373,
			"-0.01": 3.06082709024,
			"-0.009": 3.06934064273,
			"-0.008": 2.86601802344,
			"-0.007": 2.13886252764,
			"-0.006": 9.00300449962,
			"-0.005": 16.5621675401,
			"-0.004": 16.770864496,
			"-0.003": 16.136351617,
			"-0.002": 18.9546095546,
			"-0.001": 24.4179538739,
			"0.0": 24.8362637314,
			"0.001": 17.6437226696,
			"0.002": 15.3291947877,
			"0.003": 12.8247108907,
			"0.004": 12.1696123754,
			"0.005": 13.3317342385,
			"0.006": 7.31061605657,
			"0.007": 4.62598464133,
			"0.008": 3.44753660326,
			"0.009": 2.40705528909,
			"0.01": 2.21317755673,
			"0.011": 3.36880756026,
			"0.012": 3.4672870777,
			"0.013": 2.34667488252,
			"0.014": 2.38236619633,
			"0.015": 0.407102966329,
			"0.016": 0.0,
			"0.017": 0.0,
			"0.018": 0.0,
			"0.019": 0.0,
			"0.02": 0.0,
			"0.021": 0.0,
			"0.022": 0.0,
			"0.023": 0.0,
			"0.024": 0.0,
			"0.025": 0.0
		}
	}
}
