{
	 "smiles": "CC1=C(C)N=C2C=C(C=CC2=N1)C(O)=O", 
	 "Tm": 503.15, 
	 "num_atms": 25, 
	 "gaussian": { 
		 "optdone": 1, 
		 "sigma_profile": "yes", 
		 "theory": "DFT", 
		 "functional": "B3LYP", 
		 "basiset": "6-31G**", 
		 "properties": { 
			 "R2extent": 4567.0924, 
			 "electric_dipole_moment_norm": 5.83779181797, 
			 "electric_quadrupole_moment_norm": 20.0440584451, 
			 "total_energy": -685.174519314, 
			 "HOMO_LUMO_gap": 0.17297, 
			 "cosmo_polarized_energy": -16.09, 
			 "cosmo_cavitation_energy": 29.53, 
			 "cosmo_dispersion_energy": -21.8, 
			 "cosmo_repulsion_energy": 1.68, 
			 "cosmo_total_nonelectrostatic_energy": 9.4, 
			 "SMD_solvation_energy": 3.28 
		},
		"coords": [
			{
				"x": 1.2945746878,
				"y": -1.3339540047,
				"z": 2.4669298801,
				"element": "C" 
			},
			{
				"x": 0.4854505344,
				"y": -0.7578583791,
				"z": 1.335657462,
				"element": "C" 
			},
			{
				"x": -0.0526135443,
				"y": 0.5827287994,
				"z": 1.4161182214,
				"element": "C" 
			},
			{
				"x": 0.1789461208,
				"y": 1.4373907716,
				"z": 2.6338251429,
				"element": "C" 
			},
			{
				"x": -0.7597661325,
				"y": 1.0992494293,
				"z": 0.4330162391,
				"element": "N" 
			},
			{
				"x": -0.9682462757,
				"y": 0.3229558608,
				"z": -0.6705641067,
				"element": "C" 
			},
			{
				"x": -1.7197132232,
				"y": 0.8392599092,
				"z": -1.7526635823,
				"element": "C" 
			},
			{
				"x": -1.9434097229,
				"y": 0.0662096559,
				"z": -2.8789953008,
				"element": "C" 
			},
			{
				"x": -1.4369752535,
				"y": -1.2613641688,
				"z": -2.9404341115,
				"element": "C" 
			},
			{
				"x": -0.6962944451,
				"y": -1.7799948724,
				"z": -1.9048001795,
				"element": "C" 
			},
			{
				"x": -0.4445312543,
				"y": -0.9980169705,
				"z": -0.7485146775,
				"element": "C" 
			},
			{
				"x": 0.2882045652,
				"y": -1.518370659,
				"z": 0.278532708,
				"element": "N" 
			},
			{
				"x": -2.7509549605,
				"y": 0.5465147043,
				"z": -4.0493047787,
				"element": "C" 
			},
			{
				"x": -2.9048881234,
				"y": 1.8898026413,
				"z": -4.1811027835,
				"element": "O" 
			},
			{
				"x": -3.2537253565,
				"y": -0.202703475,
				"z": -4.8535536244,
				"element": "O" 
			},
			{
				"x": 2.1871655928,
				"y": -0.7300537492,
				"z": 2.668436503,
				"element": "H" 
			},
			{
				"x": 0.7154242781,
				"y": -1.3650569781,
				"z": 3.3973044844,
				"element": "H" 
			},
			{
				"x": 1.6038498093,
				"y": -2.3474284171,
				"z": 2.2087975953,
				"element": "H" 
			},
			{
				"x": -0.3075729191,
				"y": 2.4034814053,
				"z": 2.4939090302,
				"element": "H" 
			},
			{
				"x": -0.224322894,
				"y": 0.9645953362,
				"z": 3.5369966976,
				"element": "H" 
			},
			{
				"x": 1.2484458775,
				"y": 1.6007172359,
				"z": 2.8110861831,
				"element": "H" 
			},
			{
				"x": -2.1287519986,
				"y": 1.8388128007,
				"z": -1.6300840802,
				"element": "H" 
			},
			{
				"x": -1.6545195126,
				"y": -1.8451502679,
				"z": -3.8278690305,
				"element": "H" 
			},
			{
				"x": -0.2933100843,
				"y": -2.7869820929,
				"z": -1.9377685751,
				"element": "H" 
			},
			{
				"x": -2.3262657654,
				"y": 2.3556154849,
				"z": -3.5616553163,
				"element": "H" 
			}
		],
		 "valence_orbital": [ 
			{
				"type": "occ",
				"energy": -0.31172,
				"method": "rhf"
			},
			{
				"type": "occ",
				"energy": -0.27758,
				"method": "rhf"
			},
			{
				"type": "occ",
				"energy": -0.26114,
				"method": "rhf"
			},
			{
				"type": "occ",
				"energy": -0.25837,
				"method": "rhf"
			},
			{
				"type": "occ",
				"energy": -0.25538,
				"method": "rhf"
			},
			{
				"type": "unocc",
				"energy": -0.08241,
				"method": "rhf"
			},
			{
				"type": "unocc",
				"energy": -0.04839,
				"method": "rhf"
			},
			{
				"type": "unocc",
				"energy": -0.01045,
				"method": "rhf"
			},
			{
				"type": "unocc",
				"energy": 0.02567,
				"method": "rhf"
			},
			{
				"type": "unocc",
				"energy": 0.06145,
				"method": "rhf"
			}
		],
		"cosmo_sigma_profile": { 
			"-0.025": 0.0,
			"-0.024": 0.0,
			"-0.023": 0.0,
			"-0.022": 0.0,
			"-0.021": 0.0,
			"-0.02": 0.0,
			"-0.019": 0.295710962701,
			"-0.018": 1.2245105316,
			"-0.017": 0.775793109702,
			"-0.016": 1.38860768752,
			"-0.015": 0.532881688053,
			"-0.014": 0.643255296632,
			"-0.013": 1.51999235995,
			"-0.012": 1.29947710261,
			"-0.011": 0.857698892963,
			"-0.01": 1.164386245,
			"-0.009": 1.10098015539,
			"-0.008": 1.36399180073,
			"-0.007": 3.56744890507,
			"-0.006": 12.3092237641,
			"-0.005": 15.7858146061,
			"-0.004": 15.1395580311,
			"-0.003": 20.254201721,
			"-0.002": 20.3500626041,
			"-0.001": 23.1565571861,
			"0.0": 21.0688582877,
			"0.001": 17.2102707054,
			"0.002": 13.4676059571,
			"0.003": 8.00093059993,
			"0.004": 6.10500254967,
			"0.005": 6.0098175303,
			"0.006": 4.41635461272,
			"0.007": 4.00888954025,
			"0.008": 5.34365297045,
			"0.009": 5.58622157873,
			"0.01": 6.78738383679,
			"0.011": 6.1790139307,
			"0.012": 6.006221843,
			"0.013": 2.49235115931,
			"0.014": 0.508160889031,
			"0.015": 0.0163628384407,
			"0.016": 0.0,
			"0.017": 0.0,
			"0.018": 0.0,
			"0.019": 0.0,
			"0.02": 0.0,
			"0.021": 0.0,
			"0.022": 0.0,
			"0.023": 0.0,
			"0.024": 0.0,
			"0.025": 0.0
		}
	}
}
