{
	 "smiles": "COCCNC1=CC=C(C=C1)C#N", 
	 "Tm": 340.15, 
	 "num_atms": 25, 
	 "gaussian": { 
		 "optdone": 1, 
		 "sigma_profile": "yes", 
		 "theory": "DFT", 
		 "functional": "B3LYP", 
		 "basiset": "6-31G**", 
		 "properties": { 
			 "R2extent": 4107.1394, 
			 "electric_dipole_moment_norm": 7.64291621634, 
			 "electric_quadrupole_moment_norm": 29.9686440414, 
			 "total_energy": -572.995072689, 
			 "HOMO_LUMO_gap": 0.18402, 
			 "cosmo_polarized_energy": -14.28, 
			 "cosmo_cavitation_energy": 29.69, 
			 "cosmo_dispersion_energy": -20.91, 
			 "cosmo_repulsion_energy": 1.67, 
			 "cosmo_total_nonelectrostatic_energy": 10.45, 
			 "SMD_solvation_energy": 6.03 
		},
		"coords": [
			{
				"x": -1.0788825745,
				"y": -3.1396394874,
				"z": 2.0538118489,
				"element": "C" 
			},
			{
				"x": -1.8852031701,
				"y": -2.0561230327,
				"z": 1.6194931488,
				"element": "O" 
			},
			{
				"x": -1.5241253038,
				"y": -0.7992674201,
				"z": 2.1727102733,
				"element": "C" 
			},
			{
				"x": -0.2807648941,
				"y": -0.1983884697,
				"z": 1.5103115587,
				"element": "C" 
			},
			{
				"x": -0.475460182,
				"y": -0.1892412403,
				"z": 0.0742393859,
				"element": "N" 
			},
			{
				"x": 0.4656024954,
				"y": 0.2670627128,
				"z": -0.8210385161,
				"element": "C" 
			},
			{
				"x": 0.3030562921,
				"y": -0.0017494936,
				"z": -2.2001528376,
				"element": "C" 
			},
			{
				"x": 1.2126362219,
				"y": 0.4687999747,
				"z": -3.1296329761,
				"element": "C" 
			},
			{
				"x": 2.3263628016,
				"y": 1.2298494896,
				"z": -2.7211623019,
				"element": "C" 
			},
			{
				"x": 2.4938647889,
				"y": 1.4989579968,
				"z": -1.3525525213,
				"element": "C" 
			},
			{
				"x": 1.5846531262,
				"y": 1.026044172,
				"z": -0.4156864718,
				"element": "C" 
			},
			{
				"x": 3.2683633629,
				"y": 1.7152720228,
				"z": -3.6803453234,
				"element": "C" 
			},
			{
				"x": 4.0361192207,
				"y": 2.1098925459,
				"z": -4.4622560842,
				"element": "N" 
			},
			{
				"x": -1.5087905253,
				"y": -4.0463970874,
				"z": 1.6226943016,
				"element": "H" 
			},
			{
				"x": -1.086776473,
				"y": -3.2282523371,
				"z": 3.1502256179,
				"element": "H" 
			},
			{
				"x": -0.0359145925,
				"y": -3.0527915223,
				"z": 1.7182435396,
				"element": "H" 
			},
			{
				"x": -1.3647375232,
				"y": -0.8764102974,
				"z": 3.2587193088,
				"element": "H" 
			},
			{
				"x": -2.3823851159,
				"y": -0.1440139837,
				"z": 1.9944188085,
				"element": "H" 
			},
			{
				"x": 0.6246534138,
				"y": -0.7579497863,
				"z": 1.7987076789,
				"element": "H" 
			},
			{
				"x": -0.1538780433,
				"y": 0.8247050467,
				"z": 1.8870541455,
				"element": "H" 
			},
			{
				"x": -1.0802561312,
				"y": -0.9333916623,
				"z": -0.2497020349,
				"element": "H" 
			},
			{
				"x": -0.5542032648,
				"y": -0.5832766457,
				"z": -2.5291571498,
				"element": "H" 
			},
			{
				"x": 1.071801506,
				"y": 0.2517914613,
				"z": -4.1835156344,
				"element": "H" 
			},
			{
				"x": 3.3493697828,
				"y": 2.0810472905,
				"z": -1.0252608436,
				"element": "H" 
			},
			{
				"x": 1.7431947817,
				"y": 1.2468697528,
				"z": 0.6336330788,
				"element": "H" 
			}
		],
		 "valence_orbital": [ 
			{
				"type": "occ",
				"energy": -0.31284,
				"method": "rhf"
			},
			{
				"type": "occ",
				"energy": -0.29517,
				"method": "rhf"
			},
			{
				"type": "occ",
				"energy": -0.28005,
				"method": "rhf"
			},
			{
				"type": "occ",
				"energy": -0.26553,
				"method": "rhf"
			},
			{
				"type": "occ",
				"energy": -0.2101,
				"method": "rhf"
			},
			{
				"type": "unocc",
				"energy": -0.02608,
				"method": "rhf"
			},
			{
				"type": "unocc",
				"energy": -0.01266,
				"method": "rhf"
			},
			{
				"type": "unocc",
				"energy": 0.05187,
				"method": "rhf"
			},
			{
				"type": "unocc",
				"energy": 0.06627,
				"method": "rhf"
			},
			{
				"type": "unocc",
				"energy": 0.08587,
				"method": "rhf"
			}
		],
		"cosmo_sigma_profile": { 
			"-0.025": 0.0,
			"-0.024": 0.0,
			"-0.023": 0.0,
			"-0.022": 0.0,
			"-0.021": 0.0,
			"-0.02": 0.0,
			"-0.019": 0.0,
			"-0.018": 0.0,
			"-0.017": 0.0,
			"-0.016": 0.0,
			"-0.015": 0.0,
			"-0.014": 0.0,
			"-0.013": 0.0,
			"-0.012": 0.0045217732446,
			"-0.011": 0.860114129492,
			"-0.01": 1.06638993515,
			"-0.009": 1.03929506284,
			"-0.008": 2.16289018985,
			"-0.007": 5.95990102656,
			"-0.006": 9.80585224513,
			"-0.005": 23.5696990497,
			"-0.004": 29.4788082122,
			"-0.003": 22.4842749011,
			"-0.002": 21.1674835358,
			"-0.001": 12.9226787211,
			"0.0": 11.6562290731,
			"0.001": 12.6386904531,
			"0.002": 11.2255983714,
			"0.003": 14.0343761411,
			"0.004": 15.7126444021,
			"0.005": 5.60682743743,
			"0.006": 4.15865228304,
			"0.007": 4.22922957549,
			"0.008": 4.35628054119,
			"0.009": 4.45914179001,
			"0.01": 4.27555464033,
			"0.011": 4.74701560369,
			"0.012": 3.56152018478,
			"0.013": 3.40478022516,
			"0.014": 1.5310004009,
			"0.015": 0.0,
			"0.016": 0.0,
			"0.017": 0.0,
			"0.018": 0.0,
			"0.019": 0.0,
			"0.02": 0.0,
			"0.021": 0.0,
			"0.022": 0.0,
			"0.023": 0.0,
			"0.024": 0.0,
			"0.025": 0.0
		}
	}
}
