{
	 "smiles": "FC1=CC=C(C=C1)C(=O)C(=O)C1=CC=C(F)C=C1", 
	 "Tm": 394.15, 
	 "num_atms": 26, 
	 "gaussian": { 
		 "optdone": 1, 
		 "sigma_profile": "yes", 
		 "theory": "DFT", 
		 "functional": "B3LYP", 
		 "basiset": "6-31G**", 
		 "properties": { 
			 "R2extent": 7206.5812, 
			 "electric_dipole_moment_norm": 1.75278501249, 
			 "electric_quadrupole_moment_norm": 6.07158011888, 
			 "total_energy": -888.418487365, 
			 "HOMO_LUMO_gap": 0.15212, 
			 "cosmo_polarized_energy": -8.85, 
			 "cosmo_cavitation_energy": 32.86, 
			 "cosmo_dispersion_energy": -23.41, 
			 "cosmo_repulsion_energy": 1.73, 
			 "cosmo_total_nonelectrostatic_energy": 11.18, 
			 "SMD_solvation_energy": 7.52 
		},
		"coords": [
			{
				"x": -3.3542261959,
				"y": 5.9887451423,
				"z": -0.7858200036,
				"element": "F" 
			},
			{
				"x": -2.7214701601,
				"y": 4.809168913,
				"z": -0.9081433914,
				"element": "C" 
			},
			{
				"x": -2.3075154031,
				"y": 4.1458059377,
				"z": 0.2428374398,
				"element": "C" 
			},
			{
				"x": -1.6528854613,
				"y": 2.9241619637,
				"z": 0.1135405662,
				"element": "C" 
			},
			{
				"x": -1.4150282536,
				"y": 2.375542695,
				"z": -1.159529447,
				"element": "C" 
			},
			{
				"x": -1.8462407221,
				"y": 3.0763039584,
				"z": -2.3014191937,
				"element": "C" 
			},
			{
				"x": -2.5025287119,
				"y": 4.2938542387,
				"z": -2.1847472686,
				"element": "C" 
			},
			{
				"x": -0.6888710656,
				"y": 1.0982949544,
				"z": -1.3808524368,
				"element": "C" 
			},
			{
				"x": -0.4732787449,
				"y": 0.6546461141,
				"z": -2.5024505041,
				"element": "O" 
			},
			{
				"x": -0.2462009404,
				"y": 0.252615399,
				"z": -0.1692525693,
				"element": "C" 
			},
			{
				"x": -1.0580373852,
				"y": 0.0642395152,
				"z": 0.7289255872,
				"element": "O" 
			},
			{
				"x": 1.1078612066,
				"y": -0.3589021515,
				"z": -0.1551502207,
				"element": "C" 
			},
			{
				"x": 2.0705951962,
				"y": -0.1394276654,
				"z": -1.1567746276,
				"element": "C" 
			},
			{
				"x": 3.3338118836,
				"y": -0.7157756549,
				"z": -1.0578200978,
				"element": "C" 
			},
			{
				"x": 3.6225465653,
				"y": -1.5113796403,
				"z": 0.0466297425,
				"element": "C" 
			},
			{
				"x": 4.841513503,
				"y": -2.0693596715,
				"z": 0.1441964386,
				"element": "F" 
			},
			{
				"x": 2.6920302265,
				"y": -1.7500497612,
				"z": 1.0567691177,
				"element": "C" 
			},
			{
				"x": 1.4366184011,
				"y": -1.1677968808,
				"z": 0.9487163277,
				"element": "C" 
			},
			{
				"x": -2.5044703322,
				"y": 4.5861525563,
				"z": 1.2139480263,
				"element": "H" 
			},
			{
				"x": -1.3435589914,
				"y": 2.3889454336,
				"z": 1.0022094737,
				"element": "H" 
			},
			{
				"x": -1.6524975231,
				"y": 2.6405816704,
				"z": -3.2756547972,
				"element": "H" 
			},
			{
				"x": -2.843792453,
				"y": 4.8481550757,
				"z": -3.0521529518,
				"element": "H" 
			},
			{
				"x": 1.8272669954,
				"y": 0.4653894178,
				"z": -2.0209799461,
				"element": "H" 
			},
			{
				"x": 4.0904627905,
				"y": -0.5630408538,
				"z": -1.8193317079,
				"element": "H" 
			},
			{
				"x": 2.9639682521,
				"y": -2.3774546015,
				"z": 1.8984971943,
				"element": "H" 
			},
			{
				"x": 0.6836273236,
				"y": -1.3247161045,
				"z": 1.7135092496,
				"element": "H" 
			}
		],
		 "valence_orbital": [ 
			{
				"type": "occ",
				"energy": -0.27685,
				"method": "rhf"
			},
			{
				"type": "occ",
				"energy": -0.27585,
				"method": "rhf"
			},
			{
				"type": "occ",
				"energy": -0.2635,
				"method": "rhf"
			},
			{
				"type": "occ",
				"energy": -0.26066,
				"method": "rhf"
			},
			{
				"type": "occ",
				"energy": -0.24283,
				"method": "rhf"
			},
			{
				"type": "unocc",
				"energy": -0.09071,
				"method": "rhf"
			},
			{
				"type": "unocc",
				"energy": -0.05568,
				"method": "rhf"
			},
			{
				"type": "unocc",
				"energy": -0.02368,
				"method": "rhf"
			},
			{
				"type": "unocc",
				"energy": -0.02363,
				"method": "rhf"
			},
			{
				"type": "unocc",
				"energy": 0.01643,
				"method": "rhf"
			}
		],
		"cosmo_sigma_profile": { 
			"-0.025": 0.0,
			"-0.024": 0.0,
			"-0.023": 0.0,
			"-0.022": 0.0,
			"-0.021": 0.0,
			"-0.02": 0.0,
			"-0.019": 0.0,
			"-0.018": 0.0,
			"-0.017": 0.0,
			"-0.016": 0.0,
			"-0.015": 0.0,
			"-0.014": 0.0,
			"-0.013": 0.0,
			"-0.012": 0.0,
			"-0.011": 0.0,
			"-0.01": 0.0,
			"-0.009": 0.121915729487,
			"-0.008": 5.88861006807,
			"-0.007": 10.284132864,
			"-0.006": 16.8974312277,
			"-0.005": 15.3186950483,
			"-0.004": 12.4839392459,
			"-0.003": 11.8159948646,
			"-0.002": 14.3710831872,
			"-0.001": 24.3367632591,
			"0.0": 28.5711198832,
			"0.001": 32.6931231184,
			"0.002": 30.3605256493,
			"0.003": 20.7383848763,
			"0.004": 15.6129472334,
			"0.005": 3.83734626646,
			"0.006": 2.98264746482,
			"0.007": 3.16733452416,
			"0.008": 3.42283324543,
			"0.009": 3.64085865447,
			"0.01": 6.42117927414,
			"0.011": 3.1564209677,
			"0.012": 0.0,
			"0.013": 0.0,
			"0.014": 0.0,
			"0.015": 0.0,
			"0.016": 0.0,
			"0.017": 0.0,
			"0.018": 0.0,
			"0.019": 0.0,
			"0.02": 0.0,
			"0.021": 0.0,
			"0.022": 0.0,
			"0.023": 0.0,
			"0.024": 0.0,
			"0.025": 0.0
		}
	}
}
