{
	 "smiles": "S=C(NCC(C1=CC=CC=C1)C1=CC=CC=C1)NC1=CC=CC=C1", 
	 "Tm": 444.15, 
	 "num_atms": 44, 
	 "gaussian": { 
		 "optdone": 1, 
		 "sigma_profile": "yes", 
		 "theory": "DFT", 
		 "functional": "B3LYP", 
		 "basiset": "6-31G**", 
		 "properties": { 
			 "R2extent": 8469.891, 
			 "electric_dipole_moment_norm": 5.3982442831, 
			 "electric_quadrupole_moment_norm": 21.5813576755, 
			 "total_energy": -1320.00073888, 
			 "HOMO_LUMO_gap": 0.17191, 
			 "cosmo_polarized_energy": -17.0, 
			 "cosmo_cavitation_energy": 48.34, 
			 "cosmo_dispersion_energy": -31.61, 
			 "cosmo_repulsion_energy": 2.38, 
			 "cosmo_total_nonelectrostatic_energy": 19.11, 
			 "SMD_solvation_energy": 6.6 
		},
		"coords": [
			{
				"x": -3.5510870415,
				"y": 2.3058354605,
				"z": 1.0261080807,
				"element": "S" 
			},
			{
				"x": -2.2531664151,
				"y": 1.8240876407,
				"z": 0.0628498856,
				"element": "C" 
			},
			{
				"x": -1.1912292421,
				"y": 1.1148209738,
				"z": 0.5143621588,
				"element": "N" 
			},
			{
				"x": -1.0027537438,
				"y": 0.7449792635,
				"z": 1.9108992738,
				"element": "C" 
			},
			{
				"x": -0.0142618707,
				"y": -0.4312032894,
				"z": 2.0852492547,
				"element": "C" 
			},
			{
				"x": -0.5219831791,
				"y": -1.7842208944,
				"z": 1.5816002098,
				"element": "C" 
			},
			{
				"x": 0.2972433738,
				"y": -2.9140779918,
				"z": 1.7433212354,
				"element": "C" 
			},
			{
				"x": -0.1330005714,
				"y": -4.1799239273,
				"z": 1.3515815364,
				"element": "C" 
			},
			{
				"x": -1.3990948881,
				"y": -4.3460695669,
				"z": 0.7842604233,
				"element": "C" 
			},
			{
				"x": -2.224536259,
				"y": -3.2353652503,
				"z": 0.6209663205,
				"element": "C" 
			},
			{
				"x": -1.7917566198,
				"y": -1.9655292706,
				"z": 1.0172039623,
				"element": "C" 
			},
			{
				"x": 1.3707117507,
				"y": -0.0523357026,
				"z": 1.5543267031,
				"element": "C" 
			},
			{
				"x": 2.2523985186,
				"y": 0.6670268779,
				"z": 2.374663177,
				"element": "C" 
			},
			{
				"x": 3.4951318804,
				"y": 1.0873795627,
				"z": 1.9012810824,
				"element": "C" 
			},
			{
				"x": 3.8804667204,
				"y": 0.7974933351,
				"z": 0.5906104722,
				"element": "C" 
			},
			{
				"x": 3.0156286712,
				"y": 0.0801162083,
				"z": -0.2360318315,
				"element": "C" 
			},
			{
				"x": 1.7739020852,
				"y": -0.3447359886,
				"z": 0.2429465741,
				"element": "C" 
			},
			{
				"x": -2.2386365953,
				"y": 2.1664597196,
				"z": -1.2699521517,
				"element": "N" 
			},
			{
				"x": -1.3833799595,
				"y": 1.738879682,
				"z": -2.3146008563,
				"element": "C" 
			},
			{
				"x": -0.9942139505,
				"y": 2.6756789474,
				"z": -3.2841431745,
				"element": "C" 
			},
			{
				"x": -0.2047375875,
				"y": 2.2838736884,
				"z": -4.3631018735,
				"element": "C" 
			},
			{
				"x": 0.222428915,
				"y": 0.9593880883,
				"z": -4.4816473894,
				"element": "C" 
			},
			{
				"x": -0.1655854018,
				"y": 0.0257930945,
				"z": -3.5193466616,
				"element": "C" 
			},
			{
				"x": -0.974024599,
				"y": 0.4019194041,
				"z": -2.4459944135,
				"element": "C" 
			},
			{
				"x": -0.3710858215,
				"y": 1.0613014449,
				"z": -0.0787290672,
				"element": "H" 
			},
			{
				"x": -0.6275051759,
				"y": 1.6050342735,
				"z": 2.4807656028,
				"element": "H" 
			},
			{
				"x": -1.9806867115,
				"y": 0.4974494218,
				"z": 2.3281310109,
				"element": "H" 
			},
			{
				"x": 0.090277023,
				"y": -0.526356493,
				"z": 3.1750942937,
				"element": "H" 
			},
			{
				"x": 1.2851586825,
				"y": -2.796015263,
				"z": 2.1807068729,
				"element": "H" 
			},
			{
				"x": 0.51942492,
				"y": -5.037429244,
				"z": 1.491322776,
				"element": "H" 
			},
			{
				"x": -1.737375754,
				"y": -5.3314928129,
				"z": 0.4771239078,
				"element": "H" 
			},
			{
				"x": -3.213932328,
				"y": -3.349549661,
				"z": 0.1870288542,
				"element": "H" 
			},
			{
				"x": -2.4601551403,
				"y": -1.1219653996,
				"z": 0.885682248,
				"element": "H" 
			},
			{
				"x": 1.9614343655,
				"y": 0.8972405455,
				"z": 3.3971199544,
				"element": "H" 
			},
			{
				"x": 4.1636962326,
				"y": 1.6378663847,
				"z": 2.5571552457,
				"element": "H" 
			},
			{
				"x": 4.8480104882,
				"y": 1.1231644104,
				"z": 0.2200261908,
				"element": "H" 
			},
			{
				"x": 3.3056925925,
				"y": -0.1551616517,
				"z": -1.2561009403,
				"element": "H" 
			},
			{
				"x": 1.1221442424,
				"y": -0.9267771223,
				"z": -0.4016109412,
				"element": "H" 
			},
			{
				"x": -2.9762069016,
				"y": 2.814380726,
				"z": -1.5092743061,
				"element": "H" 
			},
			{
				"x": -1.3107057201,
				"y": 3.7098406764,
				"z": -3.1806912701,
				"element": "H" 
			},
			{
				"x": 0.085765173,
				"y": 3.0196961423,
				"z": -5.10728778,
				"element": "H" 
			},
			{
				"x": 0.8440809553,
				"y": 0.6573321145,
				"z": -5.318823275,
				"element": "H" 
			},
			{
				"x": 0.1418487452,
				"y": -1.0119308968,
				"z": -3.6125060864,
				"element": "H" 
			},
			{
				"x": -1.3082438581,
				"y": -0.3405976607,
				"z": -1.729445289,
				"element": "H" 
			}
		],
		 "valence_orbital": [ 
			{
				"type": "occ",
				"energy": -0.25149,
				"method": "rhf"
			},
			{
				"type": "occ",
				"energy": -0.24026,
				"method": "rhf"
			},
			{
				"type": "occ",
				"energy": -0.23497,
				"method": "rhf"
			},
			{
				"type": "occ",
				"energy": -0.20834,
				"method": "rhf"
			},
			{
				"type": "occ",
				"energy": -0.1997,
				"method": "rhf"
			},
			{
				"type": "unocc",
				"energy": -0.02779,
				"method": "rhf"
			},
			{
				"type": "unocc",
				"energy": -0.01907,
				"method": "rhf"
			},
			{
				"type": "unocc",
				"energy": -0.01352,
				"method": "rhf"
			},
			{
				"type": "unocc",
				"energy": -0.01093,
				"method": "rhf"
			},
			{
				"type": "unocc",
				"energy": -0.00437,
				"method": "rhf"
			}
		],
		"cosmo_sigma_profile": { 
			"-0.025": 0.0,
			"-0.024": 0.0,
			"-0.023": 0.0,
			"-0.022": 0.0,
			"-0.021": 0.0,
			"-0.02": 0.0,
			"-0.019": 0.0,
			"-0.018": 0.0,
			"-0.017": 0.0,
			"-0.016": 0.0,
			"-0.015": 0.108126832364,
			"-0.014": 0.633607476054,
			"-0.013": 0.781692759445,
			"-0.012": 1.14246139528,
			"-0.011": 0.594518118857,
			"-0.01": 1.49915243245,
			"-0.009": 1.32013487897,
			"-0.008": 1.62574567222,
			"-0.007": 3.34340663534,
			"-0.006": 19.3798933587,
			"-0.005": 31.858592947,
			"-0.004": 39.6805335003,
			"-0.003": 38.6882391441,
			"-0.002": 33.3729286072,
			"-0.001": 24.1726926957,
			"0.0": 23.3462376997,
			"0.001": 24.6457611675,
			"0.002": 22.9294194751,
			"0.003": 25.3622303923,
			"0.004": 25.9372758293,
			"0.005": 23.9779147939,
			"0.006": 15.049027001,
			"0.007": 3.4058652807,
			"0.008": 3.74953318372,
			"0.009": 4.51996762641,
			"0.01": 5.79254208525,
			"0.011": 7.04331882343,
			"0.012": 4.18137048515,
			"0.013": 0.330574795637,
			"0.014": 0.0,
			"0.015": 0.0,
			"0.016": 0.0,
			"0.017": 0.0,
			"0.018": 0.0,
			"0.019": 0.0,
			"0.02": 0.0,
			"0.021": 0.0,
			"0.022": 0.0,
			"0.023": 0.0,
			"0.024": 0.0,
			"0.025": 0.0
		}
	}
}
