{
	 "smiles": "COC(=O)C1=C(C)NC=C1NC(=O)OC(C)(C)C", 
	 "Tm": 383.15, 
	 "num_atms": 36, 
	 "gaussian": { 
		 "optdone": 1, 
		 "sigma_profile": "yes", 
		 "theory": "DFT", 
		 "functional": "B3LYP", 
		 "basiset": "6-31G**", 
		 "properties": { 
			 "R2extent": 6514.631, 
			 "electric_dipole_moment_norm": 3.10834080982, 
			 "electric_quadrupole_moment_norm": 15.4882339674, 
			 "total_energy": -878.583766051, 
			 "HOMO_LUMO_gap": 0.17989, 
			 "cosmo_polarized_energy": -14.9, 
			 "cosmo_cavitation_energy": 38.92, 
			 "cosmo_dispersion_energy": -27.69, 
			 "cosmo_repulsion_energy": 2.17, 
			 "cosmo_total_nonelectrostatic_energy": 13.4, 
			 "SMD_solvation_energy": 9.14 
		},
		"coords": [
			{
				"x": 2.3071140321,
				"y": -0.4011534698,
				"z": 4.0821135942,
				"element": "C" 
			},
			{
				"x": 1.2164390234,
				"y": 0.3654693823,
				"z": 3.5517828378,
				"element": "O" 
			},
			{
				"x": 0.9749931734,
				"y": 0.1876493823,
				"z": 2.2271805718,
				"element": "C" 
			},
			{
				"x": 1.6486420953,
				"y": -0.5773896365,
				"z": 1.5427469787,
				"element": "O" 
			},
			{
				"x": -0.134530118,
				"y": 0.979754876,
				"z": 1.728995413,
				"element": "C" 
			},
			{
				"x": -0.9587630898,
				"y": 1.8735205632,
				"z": 2.4223733336,
				"element": "C" 
			},
			{
				"x": -0.9805300344,
				"y": 2.3030619986,
				"z": 3.8544099533,
				"element": "C" 
			},
			{
				"x": -1.8462823326,
				"y": 2.3610338942,
				"z": 1.5161941814,
				"element": "N" 
			},
			{
				"x": -1.642762339,
				"y": 1.8258785506,
				"z": 0.250743988,
				"element": "C" 
			},
			{
				"x": -0.5792334295,
				"y": 0.9605665146,
				"z": 0.3575948159,
				"element": "C" 
			},
			{
				"x": 0.0224317831,
				"y": 0.1725537959,
				"z": -0.6202806794,
				"element": "N" 
			},
			{
				"x": -0.3696905786,
				"y": 0.1275549511,
				"z": -1.9298733509,
				"element": "C" 
			},
			{
				"x": -1.2951091398,
				"y": 0.7720722965,
				"z": -2.4021098496,
				"element": "O" 
			},
			{
				"x": 0.4315544518,
				"y": -0.7385896459,
				"z": -2.5969328852,
				"element": "O" 
			},
			{
				"x": 0.2422407227,
				"y": -0.9911417853,
				"z": -4.0312856102,
				"element": "C" 
			},
			{
				"x": -1.1427653325,
				"y": -1.5986790298,
				"z": -4.2810705009,
				"element": "C" 
			},
			{
				"x": 1.3442333112,
				"y": -2.0093967368,
				"z": -4.3369764236,
				"element": "C" 
			},
			{
				"x": 0.4609325866,
				"y": 0.3008923968,
				"z": -4.8266364784,
				"element": "C" 
			},
			{
				"x": 2.1253878735,
				"y": -1.4719214616,
				"z": 3.9592319738,
				"element": "H" 
			},
			{
				"x": 3.2427929972,
				"y": -0.1456015283,
				"z": 3.5782421107,
				"element": "H" 
			},
			{
				"x": 2.3605237477,
				"y": -0.1422524581,
				"z": 5.1399582326,
				"element": "H" 
			},
			{
				"x": -1.7802519427,
				"y": 3.0303952325,
				"z": 4.0276172349,
				"element": "H" 
			},
			{
				"x": -1.1399851011,
				"y": 1.4521768368,
				"z": 4.5235126208,
				"element": "H" 
			},
			{
				"x": -0.031079187,
				"y": 2.7608382364,
				"z": 4.147686912,
				"element": "H" 
			},
			{
				"x": -2.5658250521,
				"y": 3.0314652436,
				"z": 1.7374144297,
				"element": "H" 
			},
			{
				"x": -2.2460619922,
				"y": 2.0905329732,
				"z": -0.5988647007,
				"element": "H" 
			},
			{
				"x": 0.8029084084,
				"y": -0.3952291217,
				"z": -0.3041672747,
				"element": "H" 
			},
			{
				"x": -1.9311287526,
				"y": -0.8837376365,
				"z": -4.044530136,
				"element": "H" 
			},
			{
				"x": -1.2323771114,
				"y": -1.8904845367,
				"z": -5.332673176,
				"element": "H" 
			},
			{
				"x": -1.279882315,
				"y": -2.4944400762,
				"z": -3.6670164037,
				"element": "H" 
			},
			{
				"x": 1.2119628388,
				"y": -2.9129361194,
				"z": -3.7348273813,
				"element": "H" 
			},
			{
				"x": 1.3156689842,
				"y": -2.2888666998,
				"z": -5.394471337,
				"element": "H" 
			},
			{
				"x": 2.32948439,
				"y": -1.5894241013,
				"z": -4.1148048825,
				"element": "H" 
			},
			{
				"x": 0.4319773362,
				"y": 0.0822873036,
				"z": -5.8992100517,
				"element": "H" 
			},
			{
				"x": -0.3095924568,
				"y": 1.0367550055,
				"z": -4.5953872536,
				"element": "H" 
			},
			{
				"x": 1.4413625496,
				"y": 0.7280846098,
				"z": -4.5931808068,
				"element": "H" 
			}
		],
		 "valence_orbital": [ 
			{
				"type": "occ",
				"energy": -0.27923,
				"method": "rhf"
			},
			{
				"type": "occ",
				"energy": -0.27344,
				"method": "rhf"
			},
			{
				"type": "occ",
				"energy": -0.25475,
				"method": "rhf"
			},
			{
				"type": "occ",
				"energy": -0.22999,
				"method": "rhf"
			},
			{
				"type": "occ",
				"energy": -0.19254,
				"method": "rhf"
			},
			{
				"type": "unocc",
				"energy": -0.01265,
				"method": "rhf"
			},
			{
				"type": "unocc",
				"energy": 0.03721,
				"method": "rhf"
			},
			{
				"type": "unocc",
				"energy": 0.07101,
				"method": "rhf"
			},
			{
				"type": "unocc",
				"energy": 0.08236,
				"method": "rhf"
			},
			{
				"type": "unocc",
				"energy": 0.09449,
				"method": "rhf"
			}
		],
		"cosmo_sigma_profile": { 
			"-0.025": 0.0,
			"-0.024": 0.0,
			"-0.023": 0.0,
			"-0.022": 0.0,
			"-0.021": 0.0,
			"-0.02": 0.0,
			"-0.019": 0.0,
			"-0.018": 0.0,
			"-0.017": 0.0,
			"-0.016": 0.864108035893,
			"-0.015": 1.45779941617,
			"-0.014": 1.49752299815,
			"-0.013": 1.50008453544,
			"-0.012": 1.14923744478,
			"-0.011": 1.42112017111,
			"-0.01": 1.71021139427,
			"-0.009": 0.874250805539,
			"-0.008": 1.10603582698,
			"-0.007": 2.59312577495,
			"-0.006": 6.62466882032,
			"-0.005": 10.1923152136,
			"-0.004": 24.6104951978,
			"-0.003": 31.7448056226,
			"-0.002": 25.2607661727,
			"-0.001": 32.3697020616,
			"0.0": 37.001702144,
			"0.001": 30.7741891267,
			"0.002": 16.1967219927,
			"0.003": 14.869829892,
			"0.004": 14.1608714136,
			"0.005": 15.2890966777,
			"0.006": 7.72356212089,
			"0.007": 5.22697973633,
			"0.008": 4.06378160839,
			"0.009": 2.71732055897,
			"0.01": 4.04086183743,
			"0.011": 3.05487621543,
			"0.012": 4.43145247183,
			"0.013": 1.28791448629,
			"0.014": 0.0,
			"0.015": 0.0,
			"0.016": 0.0,
			"0.017": 0.0,
			"0.018": 0.0,
			"0.019": 0.0,
			"0.02": 0.0,
			"0.021": 0.0,
			"0.022": 0.0,
			"0.023": 0.0,
			"0.024": 0.0,
			"0.025": 0.0
		}
	}
}
