{
	 "smiles": "CN1N=C(C)C(O)=C1C", 
	 "Tm": 460.15, 
	 "num_atms": 19, 
	 "gaussian": { 
		 "optdone": 1, 
		 "sigma_profile": "yes", 
		 "theory": "DFT", 
		 "functional": "B3LYP", 
		 "basiset": "6-31G**", 
		 "properties": { 
			 "R2extent": 1839.3833, 
			 "electric_dipole_moment_norm": 0.813678001423, 
			 "electric_quadrupole_moment_norm": 8.91686870936, 
			 "total_energy": -419.371792813, 
			 "HOMO_LUMO_gap": 0.22981, 
			 "cosmo_polarized_energy": -10.58, 
			 "cosmo_cavitation_energy": 22.3, 
			 "cosmo_dispersion_energy": -16.38, 
			 "cosmo_repulsion_energy": 1.36, 
			 "cosmo_total_nonelectrostatic_energy": 7.28, 
			 "SMD_solvation_energy": 3.45 
		},
		"coords": [
			{
				"x": 0.1751969718,
				"y": -0.8106325914,
				"z": -0.8654277433,
				"element": "C" 
			},
			{
				"x": 0.0798931043,
				"y": -0.1629246499,
				"z": 0.4252378228,
				"element": "N" 
			},
			{
				"x": -1.1118429933,
				"y": 0.3123018507,
				"z": 0.8469498707,
				"element": "N" 
			},
			{
				"x": -0.878278543,
				"y": 0.8433933207,
				"z": 2.0518898403,
				"element": "C" 
			},
			{
				"x": -1.9741633033,
				"y": 1.47964638,
				"z": 2.8507120299,
				"element": "C" 
			},
			{
				"x": 0.4870419127,
				"y": 0.6984159639,
				"z": 2.3926814954,
				"element": "C" 
			},
			{
				"x": 1.1479314559,
				"y": 1.09774465,
				"z": 3.5261633167,
				"element": "O" 
			},
			{
				"x": 1.0884268106,
				"y": 0.0465678709,
				"z": 1.3300080011,
				"element": "C" 
			},
			{
				"x": 2.5063824738,
				"y": -0.3734383794,
				"z": 1.1286523927,
				"element": "C" 
			},
			{
				"x": 0.5118882815,
				"y": -1.8486540934,
				"z": -0.766076762,
				"element": "H" 
			},
			{
				"x": -0.8223723289,
				"y": -0.7971867327,
				"z": -1.3034369867,
				"element": "H" 
			},
			{
				"x": 0.867439418,
				"y": -0.2787890041,
				"z": -1.5277517829,
				"element": "H" 
			},
			{
				"x": -2.1275919933,
				"y": 0.9776789125,
				"z": 3.8149111966,
				"element": "H" 
			},
			{
				"x": -2.9110376948,
				"y": 1.4217740169,
				"z": 2.2921945193,
				"element": "H" 
			},
			{
				"x": -1.7728964014,
				"y": 2.5387251853,
				"z": 3.058155776,
				"element": "H" 
			},
			{
				"x": 0.5139436789,
				"y": 1.5264662179,
				"z": 4.1135390583,
				"element": "H" 
			},
			{
				"x": 2.605040936,
				"y": -1.4590626666,
				"z": 1.0044016924,
				"element": "H" 
			},
			{
				"x": 3.092378652,
				"y": -0.0830116116,
				"z": 2.0035611843,
				"element": "H" 
			},
			{
				"x": 2.9598195626,
				"y": 0.1004853601,
				"z": 0.2491350786,
				"element": "H" 
			}
		],
		 "valence_orbital": [ 
			{
				"type": "occ",
				"energy": -0.34955,
				"method": "rhf"
			},
			{
				"type": "occ",
				"energy": -0.34713,
				"method": "rhf"
			},
			{
				"type": "occ",
				"energy": -0.27116,
				"method": "rhf"
			},
			{
				"type": "occ",
				"energy": -0.22365,
				"method": "rhf"
			},
			{
				"type": "occ",
				"energy": -0.19623,
				"method": "rhf"
			},
			{
				"type": "unocc",
				"energy": 0.03358,
				"method": "rhf"
			},
			{
				"type": "unocc",
				"energy": 0.06503,
				"method": "rhf"
			},
			{
				"type": "unocc",
				"energy": 0.09359,
				"method": "rhf"
			},
			{
				"type": "unocc",
				"energy": 0.09544,
				"method": "rhf"
			},
			{
				"type": "unocc",
				"energy": 0.12702,
				"method": "rhf"
			}
		],
		"cosmo_sigma_profile": { 
			"-0.025": 0.0,
			"-0.024": 0.0,
			"-0.023": 0.0,
			"-0.022": 0.0,
			"-0.021": 0.0,
			"-0.02": 0.0,
			"-0.019": 0.0,
			"-0.018": 0.0,
			"-0.017": 0.0504009475148,
			"-0.016": 0.654975228941,
			"-0.015": 0.952086898652,
			"-0.014": 0.753543071102,
			"-0.013": 1.05448025365,
			"-0.012": 0.731243537814,
			"-0.011": 0.714443285772,
			"-0.01": 1.36563779583,
			"-0.009": 1.6498829141,
			"-0.008": 1.16293591557,
			"-0.007": 0.938680026874,
			"-0.006": 3.63469438503,
			"-0.005": 14.1066891289,
			"-0.004": 19.0734816934,
			"-0.003": 18.369775807,
			"-0.002": 18.1498705631,
			"-0.001": 14.6987837903,
			"0.0": 13.6367679039,
			"0.001": 6.91158180722,
			"0.002": 5.55160296714,
			"0.003": 5.9203994185,
			"0.004": 6.51106739104,
			"0.005": 8.75005630245,
			"0.006": 6.57014505794,
			"0.007": 3.67535923377,
			"0.008": 3.37982241254,
			"0.009": 3.57737799421,
			"0.01": 3.16319914614,
			"0.011": 3.63423730051,
			"0.012": 1.76965738928,
			"0.013": 0.999280729758,
			"0.014": 1.12875994759,
			"0.015": 1.04423009884,
			"0.016": 0.769436292154,
			"0.017": 0.168089430503,
			"0.018": 0.0,
			"0.019": 0.0,
			"0.02": 0.0,
			"0.021": 0.0,
			"0.022": 0.0,
			"0.023": 0.0,
			"0.024": 0.0,
			"0.025": 0.0
		}
	}
}
