{
	 "smiles": "NC(=O)OCC(COC(N)=O)C1=CC=CC=C1", 
	 "Tm": 424.15, 
	 "num_atms": 31, 
	 "gaussian": { 
		 "optdone": 1, 
		 "sigma_profile": "yes", 
		 "theory": "DFT", 
		 "functional": "B3LYP", 
		 "basiset": "6-31G**", 
		 "properties": { 
			 "R2extent": 4875.3332, 
			 "electric_dipole_moment_norm": 2.51926064352, 
			 "electric_quadrupole_moment_norm": 25.7744562744, 
			 "total_energy": -838.056546218, 
			 "HOMO_LUMO_gap": 0.24023, 
			 "cosmo_polarized_energy": -20.15, 
			 "cosmo_cavitation_energy": 35.03, 
			 "cosmo_dispersion_energy": -24.15, 
			 "cosmo_repulsion_energy": 1.91, 
			 "cosmo_total_nonelectrostatic_energy": 12.78, 
			 "SMD_solvation_energy": 8.13 
		},
		"coords": [
			{
				"x": -3.1824479382,
				"y": 1.5696197787,
				"z": -0.8484749683,
				"element": "N" 
			},
			{
				"x": -2.3242151632,
				"y": 0.8526673825,
				"z": -0.0400472277,
				"element": "C" 
			},
			{
				"x": -2.1548152612,
				"y": 1.058967209,
				"z": 1.1449372975,
				"element": "O" 
			},
			{
				"x": -1.6798254405,
				"y": -0.0862432912,
				"z": -0.7740877217,
				"element": "O" 
			},
			{
				"x": -0.6469331059,
				"y": -0.8242866309,
				"z": -0.0887421766,
				"element": "C" 
			},
			{
				"x": 0.6531589863,
				"y": -0.025721309,
				"z": 0.1271549129,
				"element": "C" 
			},
			{
				"x": 1.2461902074,
				"y": 0.5524847085,
				"z": -1.1666321491,
				"element": "C" 
			},
			{
				"x": 0.4048969487,
				"y": 1.6186925173,
				"z": -1.6367811813,
				"element": "O" 
			},
			{
				"x": 0.0398752739,
				"y": 1.5840634018,
				"z": -2.9471726837,
				"element": "C" 
			},
			{
				"x": -0.8749407474,
				"y": 2.5738746297,
				"z": -3.1917037899,
				"element": "N" 
			},
			{
				"x": 0.485556516,
				"y": 0.8186771154,
				"z": -3.7806232601,
				"element": "O" 
			},
			{
				"x": 1.6613303736,
				"y": -0.914310439,
				"z": 0.842051117,
				"element": "C" 
			},
			{
				"x": 1.9829955085,
				"y": -0.6788413291,
				"z": 2.1856267586,
				"element": "C" 
			},
			{
				"x": 2.8946570574,
				"y": -1.4935607259,
				"z": 2.8582694905,
				"element": "C" 
			},
			{
				"x": 3.5021077069,
				"y": -2.561161991,
				"z": 2.1952937306,
				"element": "C" 
			},
			{
				"x": 3.1899853294,
				"y": -2.8084084471,
				"z": 0.8574493387,
				"element": "C" 
			},
			{
				"x": 2.276175123,
				"y": -1.9932113219,
				"z": 0.1879518198,
				"element": "C" 
			},
			{
				"x": -3.8939684222,
				"y": 2.0795394436,
				"z": -0.3457824474,
				"element": "H" 
			},
			{
				"x": -3.47319491,
				"y": 1.124082785,
				"z": -1.7071398878,
				"element": "H" 
			},
			{
				"x": -0.4696975424,
				"y": -1.6915707996,
				"z": -0.7293372735,
				"element": "H" 
			},
			{
				"x": -1.0298255898,
				"y": -1.1614431664,
				"z": 0.8778619056,
				"element": "H" 
			},
			{
				"x": 0.4108507832,
				"y": 0.8156660172,
				"z": 0.7835220487,
				"element": "H" 
			},
			{
				"x": 1.3471072119,
				"y": -0.1934155308,
				"z": -1.9587071322,
				"element": "H" 
			},
			{
				"x": 2.2353131827,
				"y": 0.9746079503,
				"z": -0.9611989679,
				"element": "H" 
			},
			{
				"x": -1.3236883727,
				"y": 2.5246284893,
				"z": -4.0926223521,
				"element": "H" 
			},
			{
				"x": -1.4266900388,
				"y": 2.9010793941,
				"z": -2.4110020362,
				"element": "H" 
			},
			{
				"x": 1.5124912028,
				"y": 0.1508086167,
				"z": 2.7069975967,
				"element": "H" 
			},
			{
				"x": 3.1307566821,
				"y": -1.2927352771,
				"z": 3.8994708244,
				"element": "H" 
			},
			{
				"x": 4.213350043,
				"y": -3.1953526413,
				"z": 2.7165843608,
				"element": "H" 
			},
			{
				"x": 3.6580182966,
				"y": -3.6364434812,
				"z": 0.3325774424,
				"element": "H" 
			},
			{
				"x": 2.0457260988,
				"y": -2.2006530575,
				"z": -0.8537933885,
				"element": "H" 
			}
		],
		 "valence_orbital": [ 
			{
				"type": "occ",
				"energy": -0.27738,
				"method": "rhf"
			},
			{
				"type": "occ",
				"energy": -0.27289,
				"method": "rhf"
			},
			{
				"type": "occ",
				"energy": -0.26267,
				"method": "rhf"
			},
			{
				"type": "occ",
				"energy": -0.25272,
				"method": "rhf"
			},
			{
				"type": "occ",
				"energy": -0.24664,
				"method": "rhf"
			},
			{
				"type": "unocc",
				"energy": -0.00641,
				"method": "rhf"
			},
			{
				"type": "unocc",
				"energy": -0.00481,
				"method": "rhf"
			},
			{
				"type": "unocc",
				"energy": 0.04061,
				"method": "rhf"
			},
			{
				"type": "unocc",
				"energy": 0.05518,
				"method": "rhf"
			},
			{
				"type": "unocc",
				"energy": 0.06842,
				"method": "rhf"
			}
		],
		"cosmo_sigma_profile": { 
			"-0.025": 0.0,
			"-0.024": 0.0,
			"-0.023": 0.0,
			"-0.022": 0.0,
			"-0.021": 0.0,
			"-0.02": 0.0,
			"-0.019": 0.0,
			"-0.018": 0.0,
			"-0.017": 0.0,
			"-0.016": 0.0,
			"-0.015": 0.0881788538657,
			"-0.014": 2.90974779022,
			"-0.013": 3.46697627195,
			"-0.012": 3.31106223753,
			"-0.011": 3.03205838235,
			"-0.01": 3.80516114488,
			"-0.009": 4.14991469759,
			"-0.008": 4.53096442983,
			"-0.007": 5.12483577075,
			"-0.006": 11.5317239476,
			"-0.005": 20.1405559115,
			"-0.004": 21.6787138945,
			"-0.003": 22.4354984151,
			"-0.002": 18.8811597834,
			"-0.001": 16.9479128558,
			"0.0": 13.5294612996,
			"0.001": 13.8586129465,
			"0.002": 13.9902807787,
			"0.003": 14.8354662797,
			"0.004": 14.5303192104,
			"0.005": 14.3773180978,
			"0.006": 11.3844175392,
			"0.007": 5.25076173006,
			"0.008": 4.90204478194,
			"0.009": 3.1973184773,
			"0.01": 3.46853318566,
			"0.011": 3.2455181378,
			"0.012": 5.21195902409,
			"0.013": 10.5042659318,
			"0.014": 1.87791299148,
			"0.015": 0.0,
			"0.016": 0.0,
			"0.017": 0.0,
			"0.018": 0.0,
			"0.019": 0.0,
			"0.02": 0.0,
			"0.021": 0.0,
			"0.022": 0.0,
			"0.023": 0.0,
			"0.024": 0.0,
			"0.025": 0.0
		}
	}
}
