{
	 "smiles": "NC1=C(NC(=O)N2CCCC2)C=CC=C1", 
	 "Tm": 401.15, 
	 "num_atms": 30, 
	 "gaussian": { 
		 "optdone": 1, 
		 "sigma_profile": "yes", 
		 "theory": "DFT", 
		 "functional": "B3LYP", 
		 "basiset": "6-31G**", 
		 "properties": { 
			 "R2extent": 3487.7301, 
			 "electric_dipole_moment_norm": 3.4668948066, 
			 "electric_quadrupole_moment_norm": 12.8607285482, 
			 "total_energy": -667.716108434, 
			 "HOMO_LUMO_gap": 0.20073, 
			 "cosmo_polarized_energy": -14.02, 
			 "cosmo_cavitation_energy": 31.75, 
			 "cosmo_dispersion_energy": -22.76, 
			 "cosmo_repulsion_energy": 1.81, 
			 "cosmo_total_nonelectrostatic_energy": 10.8, 
			 "SMD_solvation_energy": 5.12 
		},
		"coords": [
			{
				"x": -0.4457643773,
				"y": 0.2232428945,
				"z": 3.0619803618,
				"element": "N" 
			},
			{
				"x": -1.0904106264,
				"y": -0.5653696813,
				"z": 2.1164897161,
				"element": "C" 
			},
			{
				"x": -0.4896911767,
				"y": -0.7857568929,
				"z": 0.8568129234,
				"element": "C" 
			},
			{
				"x": 0.8439746371,
				"y": -0.2849566019,
				"z": 0.6462271132,
				"element": "N" 
			},
			{
				"x": 1.2194348252,
				"y": 0.5053664743,
				"z": -0.4620160719,
				"element": "C" 
			},
			{
				"x": 2.2963963678,
				"y": 0.312812626,
				"z": -1.0229734382,
				"element": "O" 
			},
			{
				"x": 0.3574193099,
				"y": 1.4945499139,
				"z": -0.8456164329,
				"element": "N" 
			},
			{
				"x": -0.7202083612,
				"y": 2.0941588031,
				"z": -0.0386475823,
				"element": "C" 
			},
			{
				"x": -0.7693361477,
				"y": 3.5469786894,
				"z": -0.5382656887,
				"element": "C" 
			},
			{
				"x": -0.3449454369,
				"y": 3.4236385577,
				"z": -2.0107248245,
				"element": "C" 
			},
			{
				"x": 0.7599388573,
				"y": 2.3601855305,
				"z": -1.9661210595,
				"element": "C" 
			},
			{
				"x": -1.1709243681,
				"y": -1.5082893619,
				"z": -0.1257343833,
				"element": "C" 
			},
			{
				"x": -2.444640505,
				"y": -2.0224988099,
				"z": 0.1149954036,
				"element": "C" 
			},
			{
				"x": -3.0331307535,
				"y": -1.8196072173,
				"z": 1.3664330353,
				"element": "C" 
			},
			{
				"x": -2.3680604367,
				"y": -1.1013845837,
				"z": 2.3557327769,
				"element": "C" 
			},
			{
				"x": -0.6796827521,
				"y": 0.0444092865,
				"z": 4.027712967,
				"element": "H" 
			},
			{
				"x": 0.5424756984,
				"y": 0.3488664548,
				"z": 2.8888960982,
				"element": "H" 
			},
			{
				"x": 1.5687921256,
				"y": -0.9863942098,
				"z": 0.7645151946,
				"element": "H" 
			},
			{
				"x": -0.5014020104,
				"y": 2.0178622575,
				"z": 1.0298075904,
				"element": "H" 
			},
			{
				"x": -1.6742882993,
				"y": 1.5837985485,
				"z": -0.2205651191,
				"element": "H" 
			},
			{
				"x": -1.7563729873,
				"y": 3.9985038718,
				"z": -0.4050028229,
				"element": "H" 
			},
			{
				"x": -0.0432331059,
				"y": 4.1570953575,
				"z": 0.0115924124,
				"element": "H" 
			},
			{
				"x": 0.0040956169,
				"y": 4.3658483033,
				"z": -2.4417567662,
				"element": "H" 
			},
			{
				"x": -1.1877820933,
				"y": 3.0704108182,
				"z": -2.6162753965,
				"element": "H" 
			},
			{
				"x": 1.7456804908,
				"y": 2.7996431356,
				"z": -1.7678856658,
				"element": "H" 
			},
			{
				"x": 0.8455710322,
				"y": 1.7812949921,
				"z": -2.890360532,
				"element": "H" 
			},
			{
				"x": -0.6840016145,
				"y": -1.6660946814,
				"z": -1.0842281352,
				"element": "H" 
			},
			{
				"x": -2.9642640412,
				"y": -2.5815092869,
				"z": -0.6565578827,
				"element": "H" 
			},
			{
				"x": -4.0206722667,
				"y": -2.2218905303,
				"z": 1.5748178317,
				"element": "H" 
			},
			{
				"x": -2.838867601,
				"y": -0.936714658,
				"z": 3.3218183773,
				"element": "H" 
			}
		],
		 "valence_orbital": [ 
			{
				"type": "occ",
				"energy": -0.26816,
				"method": "rhf"
			},
			{
				"type": "occ",
				"energy": -0.2447,
				"method": "rhf"
			},
			{
				"type": "occ",
				"energy": -0.23745,
				"method": "rhf"
			},
			{
				"type": "occ",
				"energy": -0.22363,
				"method": "rhf"
			},
			{
				"type": "occ",
				"energy": -0.20503,
				"method": "rhf"
			},
			{
				"type": "unocc",
				"energy": -0.0043,
				"method": "rhf"
			},
			{
				"type": "unocc",
				"energy": 0.01428,
				"method": "rhf"
			},
			{
				"type": "unocc",
				"energy": 0.05613,
				"method": "rhf"
			},
			{
				"type": "unocc",
				"energy": 0.08073,
				"method": "rhf"
			},
			{
				"type": "unocc",
				"energy": 0.0937,
				"method": "rhf"
			}
		],
		"cosmo_sigma_profile": { 
			"-0.025": 0.0,
			"-0.024": 0.0,
			"-0.023": 0.0,
			"-0.022": 0.0,
			"-0.021": 0.0,
			"-0.02": 0.0,
			"-0.019": 0.0,
			"-0.018": 0.0,
			"-0.017": 0.0,
			"-0.016": 0.0,
			"-0.015": 0.0,
			"-0.014": 0.0,
			"-0.013": 0.664465342205,
			"-0.012": 2.21648351319,
			"-0.011": 2.33033585962,
			"-0.01": 2.60962878794,
			"-0.009": 4.08040848701,
			"-0.008": 3.24322454146,
			"-0.007": 3.2155238561,
			"-0.006": 5.62820562217,
			"-0.005": 10.0263628811,
			"-0.004": 17.3685228039,
			"-0.003": 29.9559231236,
			"-0.002": 32.4448331596,
			"-0.001": 24.7909219095,
			"0.0": 19.9276819816,
			"0.001": 12.1687101696,
			"0.002": 11.9833074791,
			"0.003": 11.9374501147,
			"0.004": 9.81808358517,
			"0.005": 10.2789420117,
			"0.006": 9.22166593113,
			"0.007": 4.82961715543,
			"0.008": 1.18815784303,
			"0.009": 2.24991489932,
			"0.01": 2.13413200142,
			"0.011": 1.80707677172,
			"0.012": 1.81340097719,
			"0.013": 1.66465023852,
			"0.014": 3.92099685727,
			"0.015": 5.47796591744,
			"0.016": 0.147897303181,
			"0.017": 0.0,
			"0.018": 0.0,
			"0.019": 0.0,
			"0.02": 0.0,
			"0.021": 0.0,
			"0.022": 0.0,
			"0.023": 0.0,
			"0.024": 0.0,
			"0.025": 0.0
		}
	}
}
