{
	 "smiles": "NCC1=CC=C(NC(=O)C2=CN=CC=C2)C=C1", 
	 "Tm": 411.15, 
	 "num_atms": 30, 
	 "gaussian": { 
		 "optdone": 1, 
		 "sigma_profile": "yes", 
		 "theory": "DFT", 
		 "functional": "B3LYP", 
		 "basiset": "6-31G**", 
		 "properties": { 
			 "R2extent": 7291.0259, 
			 "electric_dipole_moment_norm": 2.14502444974, 
			 "electric_quadrupole_moment_norm": 8.09500061458, 
			 "total_energy": -742.706144553, 
			 "HOMO_LUMO_gap": 0.16056, 
			 "cosmo_polarized_energy": -17.65, 
			 "cosmo_cavitation_energy": 34.61, 
			 "cosmo_dispersion_energy": -25.16, 
			 "cosmo_repulsion_energy": 1.93, 
			 "cosmo_total_nonelectrostatic_energy": 11.38, 
			 "SMD_solvation_energy": 3.31 
		},
		"coords": [
			{
				"x": -0.2973586069,
				"y": -2.9317603554,
				"z": -4.2530272959,
				"element": "N" 
			},
			{
				"x": 0.63263944,
				"y": -1.8118284561,
				"z": -4.0255802689,
				"element": "C" 
			},
			{
				"x": 0.6785653115,
				"y": -1.2732081242,
				"z": -2.6068333095,
				"element": "C" 
			},
			{
				"x": -0.1706838536,
				"y": -0.2366052587,
				"z": -2.1969953749,
				"element": "C" 
			},
			{
				"x": -0.1707427668,
				"y": 0.2163793901,
				"z": -0.881973322,
				"element": "C" 
			},
			{
				"x": 0.6885081437,
				"y": -0.3563580619,
				"z": 0.0690655305,
				"element": "C" 
			},
			{
				"x": 0.6270641121,
				"y": 0.1533098673,
				"z": 1.3843200721,
				"element": "N" 
			},
			{
				"x": 1.3817505392,
				"y": -0.1954052171,
				"z": 2.4804213212,
				"element": "C" 
			},
			{
				"x": 2.2881145129,
				"y": -1.0218072179,
				"z": 2.4575973083,
				"element": "O" 
			},
			{
				"x": 1.0332542012,
				"y": 0.5300479887,
				"z": 3.7511815876,
				"element": "C" 
			},
			{
				"x": -0.2117659208,
				"y": 1.1157388343,
				"z": 4.0195257558,
				"element": "C" 
			},
			{
				"x": -0.5120092654,
				"y": 1.749198283,
				"z": 5.158024777,
				"element": "N" 
			},
			{
				"x": 0.4427090565,
				"y": 1.8142889627,
				"z": 6.0938773129,
				"element": "C" 
			},
			{
				"x": 1.7090214619,
				"y": 1.2419994574,
				"z": 5.9460185811,
				"element": "C" 
			},
			{
				"x": 2.0050896351,
				"y": 0.5841189145,
				"z": 4.7579882286,
				"element": "C" 
			},
			{
				"x": 1.5517979439,
				"y": -1.3910516603,
				"z": -0.323208541,
				"element": "C" 
			},
			{
				"x": 1.5332382297,
				"y": -1.829143251,
				"z": -1.6464769977,
				"element": "C" 
			},
			{
				"x": -0.0541179113,
				"y": -3.698348697,
				"z": -3.6280410778,
				"element": "H" 
			},
			{
				"x": -1.2356910878,
				"y": -2.6465304108,
				"z": -3.9779766699,
				"element": "H" 
			},
			{
				"x": 1.6320265181,
				"y": -2.1488045821,
				"z": -4.3238116857,
				"element": "H" 
			},
			{
				"x": 0.3547910079,
				"y": -1.0072084454,
				"z": -4.7162341975,
				"element": "H" 
			},
			{
				"x": -0.8398222594,
				"y": 0.228300013,
				"z": -2.9176853128,
				"element": "H" 
			},
			{
				"x": -0.8378560053,
				"y": 1.0247787395,
				"z": -0.5892388735,
				"element": "H" 
			},
			{
				"x": -0.0096311811,
				"y": 0.9267809185,
				"z": 1.5077800865,
				"element": "H" 
			},
			{
				"x": -1.0274823614,
				"y": 1.0486786859,
				"z": 3.2998223026,
				"element": "H" 
			},
			{
				"x": 0.1799736395,
				"y": 2.3423873114,
				"z": 7.008658025,
				"element": "H" 
			},
			{
				"x": 2.4392045197,
				"y": 1.3126537019,
				"z": 6.7459105195,
				"element": "H" 
			},
			{
				"x": 2.9640974372,
				"y": 0.1076285365,
				"z": 4.5838502188,
				"element": "H" 
			},
			{
				"x": 2.2252449875,
				"y": -1.8253827197,
				"z": 0.4014547871,
				"element": "H" 
			},
			{
				"x": 2.213870522,
				"y": -2.6263471471,
				"z": -1.9383134876,
				"element": "H" 
			}
		],
		 "valence_orbital": [ 
			{
				"type": "occ",
				"energy": -0.27319,
				"method": "rhf"
			},
			{
				"type": "occ",
				"energy": -0.25832,
				"method": "rhf"
			},
			{
				"type": "occ",
				"energy": -0.2557,
				"method": "rhf"
			},
			{
				"type": "occ",
				"energy": -0.24298,
				"method": "rhf"
			},
			{
				"type": "occ",
				"energy": -0.21723,
				"method": "rhf"
			},
			{
				"type": "unocc",
				"energy": -0.05667,
				"method": "rhf"
			},
			{
				"type": "unocc",
				"energy": -0.0354,
				"method": "rhf"
			},
			{
				"type": "unocc",
				"energy": -0.00741,
				"method": "rhf"
			},
			{
				"type": "unocc",
				"energy": -0.00161,
				"method": "rhf"
			},
			{
				"type": "unocc",
				"energy": 0.05164,
				"method": "rhf"
			}
		],
		"cosmo_sigma_profile": { 
			"-0.025": 0.0,
			"-0.024": 0.0,
			"-0.023": 0.0,
			"-0.022": 0.0,
			"-0.021": 0.0,
			"-0.02": 0.0,
			"-0.019": 0.0,
			"-0.018": 0.0,
			"-0.017": 0.0,
			"-0.016": 0.14145936897,
			"-0.015": 1.2479993364,
			"-0.014": 1.11008974417,
			"-0.013": 1.74304909675,
			"-0.012": 0.998110991044,
			"-0.011": 1.81273785593,
			"-0.01": 2.04210491707,
			"-0.009": 4.03803635711,
			"-0.008": 5.10078659442,
			"-0.007": 10.2744900557,
			"-0.006": 15.4653897429,
			"-0.005": 19.338400187,
			"-0.004": 20.0444384831,
			"-0.003": 17.5119959928,
			"-0.002": 17.191262694,
			"-0.001": 16.740673798,
			"0.0": 19.4423786875,
			"0.001": 22.7605410091,
			"0.002": 18.6959533374,
			"0.003": 13.5879531513,
			"0.004": 14.1051624978,
			"0.005": 13.2156692437,
			"0.006": 7.38271481077,
			"0.007": 4.45124734394,
			"0.008": 3.19950068762,
			"0.009": 2.97514130441,
			"0.01": 4.02506310225,
			"0.011": 3.47865875702,
			"0.012": 3.99787503132,
			"0.013": 3.55025250175,
			"0.014": 1.33538667619,
			"0.015": 1.59551256349,
			"0.016": 1.24676581412,
			"0.017": 0.697507009829,
			"0.018": 0.542772002991,
			"0.019": 0.83052577289,
			"0.02": 0.265305344119,
			"0.021": 0.0,
			"0.022": 0.0,
			"0.023": 0.0,
			"0.024": 0.0,
			"0.025": 0.0
		}
	}
}
