{
	 "smiles": "OC(=O)C1=NOC(C1)C1=CC=CC=C1", 
	 "Tm": 376.15, 
	 "num_atms": 23, 
	 "gaussian": { 
		 "optdone": 1, 
		 "sigma_profile": "yes", 
		 "theory": "DFT", 
		 "functional": "B3LYP", 
		 "basiset": "6-31G**", 
		 "properties": { 
			 "R2extent": 3694.155, 
			 "electric_dipole_moment_norm": 2.05503751061, 
			 "electric_quadrupole_moment_norm": 18.8996924631, 
			 "total_energy": -666.859987246, 
			 "HOMO_LUMO_gap": 0.18976, 
			 "cosmo_polarized_energy": -14.42, 
			 "cosmo_cavitation_energy": 28.15, 
			 "cosmo_dispersion_energy": -20.34, 
			 "cosmo_repulsion_energy": 1.61, 
			 "cosmo_total_nonelectrostatic_energy": 9.42, 
			 "SMD_solvation_energy": 5.56 
		},
		"coords": [
			{
				"x": -0.2829145071,
				"y": -2.4031917262,
				"z": -2.77721518,
				"element": "O" 
			},
			{
				"x": -0.8434975033,
				"y": -1.3892021563,
				"z": -2.0898072632,
				"element": "C" 
			},
			{
				"x": -2.0435435496,
				"y": -1.2039944323,
				"z": -2.0205040391,
				"element": "O" 
			},
			{
				"x": 0.1303541334,
				"y": -0.503706561,
				"z": -1.4182129515,
				"element": "C" 
			},
			{
				"x": 1.3986259735,
				"y": -0.7167384836,
				"z": -1.4525670322,
				"element": "N" 
			},
			{
				"x": 2.0568713493,
				"y": 0.2433773312,
				"z": -0.7272994345,
				"element": "O" 
			},
			{
				"x": 1.1087749761,
				"y": 1.2611595426,
				"z": -0.2291891921,
				"element": "C" 
			},
			{
				"x": -0.2779806498,
				"y": 0.6840253778,
				"z": -0.5886893354,
				"element": "C" 
			},
			{
				"x": 1.3582415971,
				"y": 1.5154862938,
				"z": 1.2371479013,
				"element": "C" 
			},
			{
				"x": 1.6124339292,
				"y": 0.4550036696,
				"z": 2.1166371628,
				"element": "C" 
			},
			{
				"x": 1.7962816895,
				"y": 0.6990867174,
				"z": 3.4769201137,
				"element": "C" 
			},
			{
				"x": 1.7248107811,
				"y": 2.0029682471,
				"z": 3.9739909676,
				"element": "C" 
			},
			{
				"x": 1.4770894997,
				"y": 3.0637148784,
				"z": 3.1020062989,
				"element": "C" 
			},
			{
				"x": 1.3007887311,
				"y": 2.8201266954,
				"z": 1.7387700358,
				"element": "C" 
			},
			{
				"x": -1.0219300148,
				"y": -2.9014833638,
				"z": -3.1645639047,
				"element": "H" 
			},
			{
				"x": 1.3122598722,
				"y": 2.1706053725,
				"z": -0.8052355827,
				"element": "H" 
			},
			{
				"x": -0.849143051,
				"y": 0.3702012406,
				"z": 0.2916062236,
				"element": "H" 
			},
			{
				"x": -0.9017941452,
				"y": 1.3847687216,
				"z": -1.149113202,
				"element": "H" 
			},
			{
				"x": 1.6864746333,
				"y": -0.5560057096,
				"z": 1.72800466,
				"element": "H" 
			},
			{
				"x": 2.0000085952,
				"y": -0.1290263166,
				"z": 4.1496601338,
				"element": "H" 
			},
			{
				"x": 1.8688832744,
				"y": 2.190793596,
				"z": 5.0339900586,
				"element": "H" 
			},
			{
				"x": 1.4290911272,
				"y": 4.0811024749,
				"z": 3.4792909246,
				"element": "H" 
			},
			{
				"x": 1.1187132584,
				"y": 3.6502285906,
				"z": 1.0602726369,
				"element": "H" 
			}
		],
		 "valence_orbital": [ 
			{
				"type": "occ",
				"energy": -0.3099,
				"method": "rhf"
			},
			{
				"type": "occ",
				"energy": -0.2884,
				"method": "rhf"
			},
			{
				"type": "occ",
				"energy": -0.26292,
				"method": "rhf"
			},
			{
				"type": "occ",
				"energy": -0.25873,
				"method": "rhf"
			},
			{
				"type": "occ",
				"energy": -0.25046,
				"method": "rhf"
			},
			{
				"type": "unocc",
				"energy": -0.0607,
				"method": "rhf"
			},
			{
				"type": "unocc",
				"energy": -0.01572,
				"method": "rhf"
			},
			{
				"type": "unocc",
				"energy": -0.01003,
				"method": "rhf"
			},
			{
				"type": "unocc",
				"energy": 0.06149,
				"method": "rhf"
			},
			{
				"type": "unocc",
				"energy": 0.0735,
				"method": "rhf"
			}
		],
		"cosmo_sigma_profile": { 
			"-0.025": 0.0,
			"-0.024": 0.0,
			"-0.023": 0.0,
			"-0.022": 0.0,
			"-0.021": 0.0,
			"-0.02": 0.0,
			"-0.019": 0.379486868937,
			"-0.018": 1.10602531871,
			"-0.017": 0.816961174506,
			"-0.016": 0.965711581153,
			"-0.015": 0.651090271549,
			"-0.014": 0.976329794455,
			"-0.013": 0.594965118326,
			"-0.012": 0.426582554257,
			"-0.011": 0.777959982212,
			"-0.01": 0.806569522179,
			"-0.009": 0.57950803636,
			"-0.008": 1.31758838831,
			"-0.007": 10.1024313688,
			"-0.006": 16.5882862008,
			"-0.005": 20.0608043405,
			"-0.004": 19.0818576645,
			"-0.003": 16.1747068031,
			"-0.002": 12.0571053778,
			"-0.001": 11.2040176166,
			"0.0": 10.4869666841,
			"0.001": 9.1649471617,
			"0.002": 10.9424860039,
			"0.003": 11.4569732016,
			"0.004": 11.9059409169,
			"0.005": 13.5761848217,
			"0.006": 7.01859494191,
			"0.007": 5.8027290874,
			"0.008": 5.70609686369,
			"0.009": 6.79769113884,
			"0.01": 6.69447885631,
			"0.011": 7.35752844865,
			"0.012": 2.62640450365,
			"0.013": 0.375803924538,
			"0.014": 0.0,
			"0.015": 0.0,
			"0.016": 0.0,
			"0.017": 0.0,
			"0.018": 0.0,
			"0.019": 0.0,
			"0.02": 0.0,
			"0.021": 0.0,
			"0.022": 0.0,
			"0.023": 0.0,
			"0.024": 0.0,
			"0.025": 0.0
		}
	}
}
