{
	 "smiles": "CC1=C(C=C(Cl)C=C1)N1CC(CC1=O)C(O)=O", 
	 "Tm": 403.15, 
	 "num_atms": 29, 
	 "gaussian": { 
		 "optdone": 1, 
		 "sigma_profile": "yes", 
		 "theory": "DFT", 
		 "functional": "B3LYP", 
		 "basiset": "6-31G**", 
		 "properties": { 
			 "R2extent": 5755.3546, 
			 "electric_dipole_moment_norm": 3.64153241507, 
			 "electric_quadrupole_moment_norm": 21.119492822, 
			 "total_energy": -1205.1465312, 
			 "HOMO_LUMO_gap": 0.21453, 
			 "cosmo_polarized_energy": -23.85, 
			 "cosmo_cavitation_energy": 34.67, 
			 "cosmo_dispersion_energy": -24.26, 
			 "cosmo_repulsion_energy": 1.9, 
			 "cosmo_total_nonelectrostatic_energy": 12.31, 
			 "SMD_solvation_energy": 7.23 
		},
		"coords": [
			{
				"x": -2.2367481717,
				"y": 1.3860369883,
				"z": 0.6942838481,
				"element": "C" 
			},
			{
				"x": -2.0121335985,
				"y": -0.1063258443,
				"z": 0.7304530034,
				"element": "C" 
			},
			{
				"x": -0.7234410828,
				"y": -0.6708636549,
				"z": 0.7854123148,
				"element": "C" 
			},
			{
				"x": -0.548791067,
				"y": -2.0568129895,
				"z": 0.8803620258,
				"element": "C" 
			},
			{
				"x": -1.6628365225,
				"y": -2.8884249454,
				"z": 0.9036157335,
				"element": "C" 
			},
			{
				"x": -1.4379604556,
				"y": -4.6265245965,
				"z": 1.0210673233,
				"element": "Cl" 
			},
			{
				"x": -2.9509335373,
				"y": -2.363147532,
				"z": 0.8230003719,
				"element": "C" 
			},
			{
				"x": -3.1059203448,
				"y": -0.9815495756,
				"z": 0.7390748496,
				"element": "C" 
			},
			{
				"x": 0.4432380963,
				"y": 0.1510049521,
				"z": 0.7455704272,
				"element": "N" 
			},
			{
				"x": 0.7835050754,
				"y": 0.9935504125,
				"z": -0.4028064145,
				"element": "C" 
			},
			{
				"x": 2.3105233716,
				"y": 1.2339563687,
				"z": -0.2448270805,
				"element": "C" 
			},
			{
				"x": 2.5442846359,
				"y": 1.0637785871,
				"z": 1.2688695082,
				"element": "C" 
			},
			{
				"x": 1.4327310635,
				"y": 0.1121305902,
				"z": 1.71777406,
				"element": "C" 
			},
			{
				"x": 1.4067310816,
				"y": -0.5414295735,
				"z": 2.7411665863,
				"element": "O" 
			},
			{
				"x": 2.7906087853,
				"y": 2.5482287314,
				"z": -0.8519230244,
				"element": "C" 
			},
			{
				"x": 2.2881278513,
				"y": 3.6906441679,
				"z": -0.3051589289,
				"element": "O" 
			},
			{
				"x": 3.5632684546,
				"y": 2.6118558776,
				"z": -1.7732071718,
				"element": "O" 
			},
			{
				"x": -1.5494840306,
				"y": 1.9071898477,
				"z": 1.3682194858,
				"element": "H" 
			},
			{
				"x": -3.2568014098,
				"y": 1.6279607505,
				"z": 1.0029645828,
				"element": "H" 
			},
			{
				"x": -2.0958535878,
				"y": 1.8033541269,
				"z": -0.3105066086,
				"element": "H" 
			},
			{
				"x": 0.4489891044,
				"y": -2.472136447,
				"z": 0.9441671232,
				"element": "H" 
			},
			{
				"x": -3.8127312446,
				"y": -3.0206849039,
				"z": 0.8376616625,
				"element": "H" 
			},
			{
				"x": -4.1091720215,
				"y": -0.56648289,
				"z": 0.6961360627,
				"element": "H" 
			},
			{
				"x": 0.547680183,
				"y": 0.4848055461,
				"z": -1.3418648111,
				"element": "H" 
			},
			{
				"x": 0.2231932202,
				"y": 1.9381633766,
				"z": -0.3907068906,
				"element": "H" 
			},
			{
				"x": 2.848698232,
				"y": 0.4502312064,
				"z": -0.7813711947,
				"element": "H" 
			},
			{
				"x": 3.5233354154,
				"y": 0.6515207094,
				"z": 1.5179715176,
				"element": "H" 
			},
			{
				"x": 2.441609701,
				"y": 2.0026174587,
				"z": 1.8294862669,
				"element": "H" 
			},
			{
				"x": 1.6989828028,
				"y": 3.4925532544,
				"z": 0.4363153715,
				"element": "H" 
			}
		],
		 "valence_orbital": [ 
			{
				"type": "occ",
				"energy": -0.2911,
				"method": "rhf"
			},
			{
				"type": "occ",
				"energy": -0.28911,
				"method": "rhf"
			},
			{
				"type": "occ",
				"energy": -0.26536,
				"method": "rhf"
			},
			{
				"type": "occ",
				"energy": -0.25559,
				"method": "rhf"
			},
			{
				"type": "occ",
				"energy": -0.24542,
				"method": "rhf"
			},
			{
				"type": "unocc",
				"energy": -0.03089,
				"method": "rhf"
			},
			{
				"type": "unocc",
				"energy": -0.02153,
				"method": "rhf"
			},
			{
				"type": "unocc",
				"energy": -0.01313,
				"method": "rhf"
			},
			{
				"type": "unocc",
				"energy": 0.01209,
				"method": "rhf"
			},
			{
				"type": "unocc",
				"energy": 0.02387,
				"method": "rhf"
			}
		],
		"cosmo_sigma_profile": { 
			"-0.025": 0.0,
			"-0.024": 0.0,
			"-0.023": 0.0,
			"-0.022": 0.0,
			"-0.021": 0.0,
			"-0.02": 0.0233178910658,
			"-0.019": 0.719178063519,
			"-0.018": 1.33481600587,
			"-0.017": 0.876422418252,
			"-0.016": 1.31358780985,
			"-0.015": 0.960789702201,
			"-0.014": 0.906574950855,
			"-0.013": 1.10815354843,
			"-0.012": 0.832846309221,
			"-0.011": 1.51698222672,
			"-0.01": 1.02855627267,
			"-0.009": 1.67881075544,
			"-0.008": 2.24009519617,
			"-0.007": 14.167439781,
			"-0.006": 24.6727233748,
			"-0.005": 22.9753646521,
			"-0.004": 17.9908671336,
			"-0.003": 14.9713707678,
			"-0.002": 14.385342407,
			"-0.001": 15.6346622709,
			"0.0": 15.0438100895,
			"0.001": 13.5055261091,
			"0.002": 16.1097685773,
			"0.003": 19.3798714873,
			"0.004": 16.4008832331,
			"0.005": 10.1369912758,
			"0.006": 3.24905839203,
			"0.007": 4.01617933331,
			"0.008": 4.81755048967,
			"0.009": 4.83535668084,
			"0.01": 6.83500934378,
			"0.011": 7.83390644875,
			"0.012": 7.73601660399,
			"0.013": 6.57439094947,
			"0.014": 1.52435097946,
			"0.015": 0.013651941008,
			"0.016": 0.0,
			"0.017": 0.0,
			"0.018": 0.0,
			"0.019": 0.0,
			"0.02": 0.0,
			"0.021": 0.0,
			"0.022": 0.0,
			"0.023": 0.0,
			"0.024": 0.0,
			"0.025": 0.0
		}
	}
}
