{
	 "smiles": "OC1COC2C(O)COC12", 
	 "Tm": 361.15, 
	 "num_atms": 20, 
	 "gaussian": { 
		 "optdone": 1, 
		 "sigma_profile": "yes", 
		 "theory": "DFT", 
		 "functional": "B3LYP", 
		 "basiset": "6-31G**", 
		 "properties": { 
			 "R2extent": 1754.5358, 
			 "electric_dipole_moment_norm": 2.41524044766, 
			 "electric_quadrupole_moment_norm": 7.06436318078, 
			 "total_energy": -535.510529607, 
			 "HOMO_LUMO_gap": 0.31228, 
			 "cosmo_polarized_energy": -13.89, 
			 "cosmo_cavitation_energy": 21.51, 
			 "cosmo_dispersion_energy": -16.71, 
			 "cosmo_repulsion_energy": 1.36, 
			 "cosmo_total_nonelectrostatic_energy": 6.16, 
			 "SMD_solvation_energy": 3.22 
		},
		"coords": [
			{
				"x": -1.7201637829,
				"y": -3.2385877982,
				"z": 1.0782077229,
				"element": "O" 
			},
			{
				"x": -1.9209412268,
				"y": -1.8309524238,
				"z": 1.0739955052,
				"element": "C" 
			},
			{
				"x": -0.8524503517,
				"y": -1.0749176749,
				"z": 1.867127062,
				"element": "C" 
			},
			{
				"x": 0.2882231765,
				"y": -0.9786580629,
				"z": 1.0139346534,
				"element": "O" 
			},
			{
				"x": -0.0997040947,
				"y": -1.1298314237,
				"z": -0.3567526733,
				"element": "C" 
			},
			{
				"x": 0.0382245526,
				"y": 0.1993260958,
				"z": -1.1224776941,
				"element": "C" 
			},
			{
				"x": 0.078028041,
				"y": -0.0163900514,
				"z": -2.5258582942,
				"element": "O" 
			},
			{
				"x": -1.2368285211,
				"y": 0.9165420343,
				"z": -0.6853742504,
				"element": "C" 
			},
			{
				"x": -2.2388400159,
				"y": -0.1150232954,
				"z": -0.6700467729,
				"element": "O" 
			},
			{
				"x": -1.6238624787,
				"y": -1.3744988613,
				"z": -0.3592806093,
				"element": "C" 
			},
			{
				"x": -1.7344770559,
				"y": -3.5464575856,
				"z": 1.9930397267,
				"element": "H" 
			},
			{
				"x": -2.9412154762,
				"y": -1.5588282276,
				"z": 1.3766157707,
				"element": "H" 
			},
			{
				"x": -1.2218140133,
				"y": -0.0757842074,
				"z": 2.1455024562,
				"element": "H" 
			},
			{
				"x": -0.5549233994,
				"y": -1.5948944276,
				"z": 2.785594488,
				"element": "H" 
			},
			{
				"x": 0.4907115877,
				"y": -1.9263929221,
				"z": -0.8172128485,
				"element": "H" 
			},
			{
				"x": 0.9539250752,
				"y": 0.7289388425,
				"z": -0.8510056117,
				"element": "H" 
			},
			{
				"x": -0.804531862,
				"y": -0.3024098751,
				"z": -2.800477558,
				"element": "H" 
			},
			{
				"x": -1.5545085863,
				"y": 1.6878010439,
				"z": -1.3921946413,
				"element": "H" 
			},
			{
				"x": -1.1174854239,
				"y": 1.370014752,
				"z": 0.3087492846,
				"element": "H" 
			},
			{
				"x": -1.9675661444,
				"y": -2.1250959316,
				"z": -1.076585716,
				"element": "H" 
			}
		],
		 "valence_orbital": [ 
			{
				"type": "occ",
				"energy": -0.31532,
				"method": "rhf"
			},
			{
				"type": "occ",
				"energy": -0.28911,
				"method": "rhf"
			},
			{
				"type": "occ",
				"energy": -0.27846,
				"method": "rhf"
			},
			{
				"type": "occ",
				"energy": -0.26348,
				"method": "rhf"
			},
			{
				"type": "occ",
				"energy": -0.24744,
				"method": "rhf"
			},
			{
				"type": "unocc",
				"energy": 0.06484,
				"method": "rhf"
			},
			{
				"type": "unocc",
				"energy": 0.07069,
				"method": "rhf"
			},
			{
				"type": "unocc",
				"energy": 0.09698,
				"method": "rhf"
			},
			{
				"type": "unocc",
				"energy": 0.1056,
				"method": "rhf"
			},
			{
				"type": "unocc",
				"energy": 0.11475,
				"method": "rhf"
			}
		],
		"cosmo_sigma_profile": { 
			"-0.025": 0.0,
			"-0.024": 0.0,
			"-0.023": 0.0,
			"-0.022": 0.0,
			"-0.021": 0.0,
			"-0.02": 0.0,
			"-0.019": 0.0,
			"-0.018": 0.0,
			"-0.017": 0.0427845438938,
			"-0.016": 0.692494441247,
			"-0.015": 1.27755914432,
			"-0.014": 2.01539846473,
			"-0.013": 2.22538115734,
			"-0.012": 1.40037957787,
			"-0.011": 1.16392592798,
			"-0.01": 2.09281735663,
			"-0.009": 2.81573726002,
			"-0.008": 2.07861982842,
			"-0.007": 2.86707777732,
			"-0.006": 7.3170847571,
			"-0.005": 18.1121670029,
			"-0.004": 18.8762405463,
			"-0.003": 14.2954765906,
			"-0.002": 9.50654061316,
			"-0.001": 8.90145179288,
			"0.0": 6.72473009661,
			"0.001": 4.82537525715,
			"0.002": 4.3913263221,
			"0.003": 5.01689523045,
			"0.004": 4.47153157951,
			"0.005": 3.99366425587,
			"0.006": 4.75185317681,
			"0.007": 4.41909097065,
			"0.008": 4.8047536643,
			"0.009": 5.40222357711,
			"0.01": 3.55158426711,
			"0.011": 4.37407814697,
			"0.012": 6.46789408234,
			"0.013": 5.92929198605,
			"0.014": 1.95784728226,
			"0.015": 0.0,
			"0.016": 0.0,
			"0.017": 0.0,
			"0.018": 0.0,
			"0.019": 0.0,
			"0.02": 0.0,
			"0.021": 0.0,
			"0.022": 0.0,
			"0.023": 0.0,
			"0.024": 0.0,
			"0.025": 0.0
		}
	}
}
