{
	 "smiles": "NC1=CC(Cl)=C(C=C1)C(=O)N1CCCCC1", 
	 "Tm": 422.15, 
	 "num_atms": 31, 
	 "gaussian": { 
		 "optdone": 1, 
		 "sigma_profile": "yes", 
		 "theory": "DFT", 
		 "functional": "B3LYP", 
		 "basiset": "6-31G**", 
		 "properties": { 
			 "R2extent": 5343.909, 
			 "electric_dipole_moment_norm": 3.7236801259, 
			 "electric_quadrupole_moment_norm": 25.3428494787, 
			 "total_energy": -1111.25496969, 
			 "HOMO_LUMO_gap": 0.19934, 
			 "cosmo_polarized_energy": -16.12, 
			 "cosmo_cavitation_energy": 34.3, 
			 "cosmo_dispersion_energy": -24.66, 
			 "cosmo_repulsion_energy": 1.94, 
			 "cosmo_total_nonelectrostatic_energy": 11.59, 
			 "SMD_solvation_energy": 4.92 
		},
		"coords": [
			{
				"x": -2.1025689065,
				"y": -3.9284705688,
				"z": 0.633474052,
				"element": "N" 
			},
			{
				"x": -1.1473367829,
				"y": -2.9529619237,
				"z": 0.3694741406,
				"element": "C" 
			},
			{
				"x": 0.0042444542,
				"y": -2.8466685267,
				"z": 1.165451892,
				"element": "C" 
			},
			{
				"x": 0.9222288207,
				"y": -1.825600881,
				"z": 0.9341091099,
				"element": "C" 
			},
			{
				"x": 2.3696363791,
				"y": -1.8114620935,
				"z": 1.9438337208,
				"element": "Cl" 
			},
			{
				"x": 0.7466857036,
				"y": -0.8764125963,
				"z": -0.0808754957,
				"element": "C" 
			},
			{
				"x": -0.391759931,
				"y": -1.0272337742,
				"z": -0.8902749174,
				"element": "C" 
			},
			{
				"x": -1.3305569973,
				"y": -2.0237794959,
				"z": -0.6711903457,
				"element": "C" 
			},
			{
				"x": 1.7318851817,
				"y": 0.1975366765,
				"z": -0.4743484874,
				"element": "C" 
			},
			{
				"x": 2.2004114545,
				"y": 0.2021154372,
				"z": -1.6132350902,
				"element": "O" 
			},
			{
				"x": 2.0528498707,
				"y": 1.1684859875,
				"z": 0.4332887313,
				"element": "N" 
			},
			{
				"x": 3.0400715077,
				"y": 2.1708729568,
				"z": -0.0036188528,
				"element": "C" 
			},
			{
				"x": 3.5060401596,
				"y": 3.0126069342,
				"z": 1.1842064832,
				"element": "C" 
			},
			{
				"x": 2.3358894808,
				"y": 3.7585263199,
				"z": 1.85973269,
				"element": "C" 
			},
			{
				"x": 1.0411657676,
				"y": 2.9071269092,
				"z": 1.8494368389,
				"element": "C" 
			},
			{
				"x": 1.3484103749,
				"y": 1.4123677796,
				"z": 1.6971910909,
				"element": "C" 
			},
			{
				"x": -1.7767421554,
				"y": -4.7377533225,
				"z": 1.1429199212,
				"element": "H" 
			},
			{
				"x": -2.6993033467,
				"y": -4.1764550965,
				"z": -0.1430840081,
				"element": "H" 
			},
			{
				"x": 0.1902126971,
				"y": -3.5632377985,
				"z": 1.9587810413,
				"element": "H" 
			},
			{
				"x": -0.5222994989,
				"y": -0.3361560067,
				"z": -1.7170394314,
				"element": "H" 
			},
			{
				"x": -2.2071413425,
				"y": -2.095659432,
				"z": -1.3093538162,
				"element": "H" 
			},
			{
				"x": 3.8739639046,
				"y": 1.6441381486,
				"z": -0.4745815233,
				"element": "H" 
			},
			{
				"x": 2.6008543339,
				"y": 2.8099549639,
				"z": -0.7832664615,
				"element": "H" 
			},
			{
				"x": 3.9999874906,
				"y": 2.3545596129,
				"z": 1.9091567032,
				"element": "H" 
			},
			{
				"x": 4.267759761,
				"y": 3.7211693706,
				"z": 0.8423786291,
				"element": "H" 
			},
			{
				"x": 2.6164428689,
				"y": 4.0156150354,
				"z": 2.8871848455,
				"element": "H" 
			},
			{
				"x": 2.1510601765,
				"y": 4.7076360489,
				"z": 1.3440889539,
				"element": "H" 
			},
			{
				"x": 0.4634009737,
				"y": 3.0640230297,
				"z": 2.7667535215,
				"element": "H" 
			},
			{
				"x": 0.3961407964,
				"y": 3.2099449264,
				"z": 1.0164321782,
				"element": "H" 
			},
			{
				"x": 1.9488986871,
				"y": 1.060978587,
				"z": 2.5465463633,
				"element": "H" 
			},
			{
				"x": 0.4253681164,
				"y": 0.8304927923,
				"z": 1.6966275232,
				"element": "H" 
			}
		],
		 "valence_orbital": [ 
			{
				"type": "occ",
				"energy": -0.30481,
				"method": "rhf"
			},
			{
				"type": "occ",
				"energy": -0.24877,
				"method": "rhf"
			},
			{
				"type": "occ",
				"energy": -0.24077,
				"method": "rhf"
			},
			{
				"type": "occ",
				"energy": -0.22463,
				"method": "rhf"
			},
			{
				"type": "occ",
				"energy": -0.20991,
				"method": "rhf"
			},
			{
				"type": "unocc",
				"energy": -0.01057,
				"method": "rhf"
			},
			{
				"type": "unocc",
				"energy": -0.00741,
				"method": "rhf"
			},
			{
				"type": "unocc",
				"energy": 0.03113,
				"method": "rhf"
			},
			{
				"type": "unocc",
				"energy": 0.04996,
				"method": "rhf"
			},
			{
				"type": "unocc",
				"energy": 0.07282,
				"method": "rhf"
			}
		],
		"cosmo_sigma_profile": { 
			"-0.025": 0.0,
			"-0.024": 0.0,
			"-0.023": 0.0,
			"-0.022": 0.0,
			"-0.021": 0.0,
			"-0.02": 0.0,
			"-0.019": 0.0,
			"-0.018": 0.0,
			"-0.017": 0.0,
			"-0.016": 0.0,
			"-0.015": 0.0,
			"-0.014": 0.0310804711382,
			"-0.013": 2.09913575836,
			"-0.012": 3.14013837843,
			"-0.011": 2.95376395768,
			"-0.01": 3.39545427866,
			"-0.009": 2.83373599171,
			"-0.008": 4.24032832398,
			"-0.007": 3.49310064149,
			"-0.006": 5.49466052304,
			"-0.005": 6.42884443377,
			"-0.004": 12.9184152366,
			"-0.003": 29.7376514314,
			"-0.002": 39.8158146885,
			"-0.001": 27.1750579911,
			"0.0": 21.0473916412,
			"0.001": 18.0730835356,
			"0.002": 15.4406822687,
			"0.003": 14.9124651493,
			"0.004": 19.609496438,
			"0.005": 10.9945003258,
			"0.006": 2.89255728629,
			"0.007": 1.99168943176,
			"0.008": 2.74483029362,
			"0.009": 2.37939703844,
			"0.01": 2.27059871432,
			"0.011": 1.83675480774,
			"0.012": 2.25729983109,
			"0.013": 2.92976903686,
			"0.014": 5.27135825626,
			"0.015": 2.62269931831,
			"0.016": 0.239303057746,
			"0.017": 0.0,
			"0.018": 0.0,
			"0.019": 0.0,
			"0.02": 0.0,
			"0.021": 0.0,
			"0.022": 0.0,
			"0.023": 0.0,
			"0.024": 0.0,
			"0.025": 0.0
		}
	}
}
