{
	 "smiles": "CC(C=C(C)C#CC1=CC=CC=C1)=N/NC1=C(C=C(C=C1)[N+]([O-])=O)[N+]([O-])=O", 
	 "Tm": 484.15, 
	 "num_atms": 43, 
	 "gaussian": { 
		 "optdone": 1, 
		 "sigma_profile": "yes", 
		 "theory": "DFT", 
		 "functional": "B3LYP", 
		 "basiset": "6-31G**", 
		 "properties": { 
			 "R2extent": 21631.5555, 
			 "electric_dipole_moment_norm": 9.16607325576, 
			 "electric_quadrupole_moment_norm": 36.9719154605, 
			 "total_energy": -1253.28427479, 
			 "HOMO_LUMO_gap": 0.10753, 
			 "cosmo_polarized_energy": -16.12, 
			 "cosmo_cavitation_energy": 51.13, 
			 "cosmo_dispersion_energy": -35.43, 
			 "cosmo_repulsion_energy": 2.66, 
			 "cosmo_total_nonelectrostatic_energy": 18.36, 
			 "SMD_solvation_energy": 12.63 
		},
		"coords": [
			{
				"x": -0.3477208093,
				"y": -0.1109103105,
				"z": 0.7018779441,
				"element": "C" 
			},
			{
				"x": -0.1515067612,
				"y": -1.2930081327,
				"z": -0.2139603654,
				"element": "C" 
			},
			{
				"x": 0.9373304208,
				"y": -1.4165537168,
				"z": -1.1677087849,
				"element": "C" 
			},
			{
				"x": 1.9796447556,
				"y": -0.5913165108,
				"z": -1.4707422488,
				"element": "C" 
			},
			{
				"x": 2.9748282573,
				"y": -1.0085032671,
				"z": -2.539341134,
				"element": "C" 
			},
			{
				"x": 2.2639768123,
				"y": 0.6692867421,
				"z": -0.8828729791,
				"element": "C" 
			},
			{
				"x": 2.637672189,
				"y": 1.7573975054,
				"z": -0.4776377213,
				"element": "C" 
			},
			{
				"x": 3.0486010033,
				"y": 3.028129999,
				"z": 0.0160662132,
				"element": "C" 
			},
			{
				"x": 4.1985359964,
				"y": 3.6555123832,
				"z": -0.5069134903,
				"element": "C" 
			},
			{
				"x": 4.6018331126,
				"y": 4.8975175799,
				"z": -0.0256767166,
				"element": "C" 
			},
			{
				"x": 3.870713565,
				"y": 5.5345630385,
				"z": 0.9805632288,
				"element": "C" 
			},
			{
				"x": 2.7298167281,
				"y": 4.9220121691,
				"z": 1.5058933461,
				"element": "C" 
			},
			{
				"x": 2.318333018,
				"y": 3.6800682488,
				"z": 1.0313199136,
				"element": "C" 
			},
			{
				"x": -0.9604067881,
				"y": -2.3197830398,
				"z": -0.223747638,
				"element": "N" 
			},
			{
				"x": -2.0077756763,
				"y": -2.2893377932,
				"z": 0.6373211826,
				"element": "N" 
			},
			{
				"x": -2.8952778338,
				"y": -3.3204836125,
				"z": 0.6885939426,
				"element": "C" 
			},
			{
				"x": -4.011152493,
				"y": -3.3244251232,
				"z": 1.5835377331,
				"element": "C" 
			},
			{
				"x": -4.9057031888,
				"y": -4.396107934,
				"z": 1.6147533862,
				"element": "C" 
			},
			{
				"x": -4.7095070412,
				"y": -5.4692157635,
				"z": 0.7677072166,
				"element": "C" 
			},
			{
				"x": -3.624169197,
				"y": -5.50056932,
				"z": -0.1255596794,
				"element": "C" 
			},
			{
				"x": -2.738718973,
				"y": -4.4483552759,
				"z": -0.1619350247,
				"element": "C" 
			},
			{
				"x": -5.6471567764,
				"y": -6.5879948104,
				"z": 0.8035474422,
				"element": "N" 
			},
			{
				"x": -5.4378336433,
				"y": -7.5269309898,
				"z": 0.0323194198,
				"element": "O" 
			},
			{
				"x": -6.5862011903,
				"y": -6.5269262235,
				"z": 1.5980721198,
				"element": "O" 
			},
			{
				"x": -4.2803704064,
				"y": -2.2318659549,
				"z": 2.501775311,
				"element": "N" 
			},
			{
				"x": -3.505945654,
				"y": -1.2522729478,
				"z": 2.5085760613,
				"element": "O" 
			},
			{
				"x": -5.2590715956,
				"y": -2.3088740688,
				"z": 3.2390119348,
				"element": "O" 
			},
			{
				"x": -1.3206640834,
				"y": 0.3632737281,
				"z": 0.5203460426,
				"element": "H" 
			},
			{
				"x": 0.4251121394,
				"y": 0.6394996942,
				"z": 0.5600324978,
				"element": "H" 
			},
			{
				"x": -0.3276912369,
				"y": -0.4264266355,
				"z": 1.7528177296,
				"element": "H" 
			},
			{
				"x": 0.8842955668,
				"y": -2.3472400074,
				"z": -1.7261309278,
				"element": "H" 
			},
			{
				"x": 3.0032249012,
				"y": -0.2706318292,
				"z": -3.3486921312,
				"element": "H" 
			},
			{
				"x": 3.9864403184,
				"y": -1.0657641635,
				"z": -2.1225658377,
				"element": "H" 
			},
			{
				"x": 2.7166173361,
				"y": -1.9817220387,
				"z": -2.9633989131,
				"element": "H" 
			},
			{
				"x": 4.7633067105,
				"y": 3.15727426,
				"z": -1.2882209636,
				"element": "H" 
			},
			{
				"x": 5.4889866002,
				"y": 5.3705711521,
				"z": -0.4362620057,
				"element": "H" 
			},
			{
				"x": 4.1884078256,
				"y": 6.5036547103,
				"z": 1.353618571,
				"element": "H" 
			},
			{
				"x": 2.1592378335,
				"y": 5.4141520396,
				"z": 2.2879453078,
				"element": "H" 
			},
			{
				"x": 1.4324979262,
				"y": 3.2033571919,
				"z": 1.4385904314,
				"element": "H" 
			},
			{
				"x": -2.1888240249,
				"y": -1.5180861353,
				"z": 1.278467189,
				"element": "H" 
			},
			{
				"x": -5.7420402073,
				"y": -4.3771051433,
				"z": 2.2997174288,
				"element": "H" 
			},
			{
				"x": -3.5024695678,
				"y": -6.3588061091,
				"z": -0.7747967957,
				"element": "H" 
			},
			{
				"x": -1.8960058683,
				"y": -4.4479535851,
				"z": -0.8396082364,
				"element": "H" 
			}
		],
		 "valence_orbital": [ 
			{
				"type": "occ",
				"energy": -0.28672,
				"method": "rhf"
			},
			{
				"type": "occ",
				"energy": -0.27986,
				"method": "rhf"
			},
			{
				"type": "occ",
				"energy": -0.26872,
				"method": "rhf"
			},
			{
				"type": "occ",
				"energy": -0.25033,
				"method": "rhf"
			},
			{
				"type": "occ",
				"energy": -0.21189,
				"method": "rhf"
			},
			{
				"type": "unocc",
				"energy": -0.10436,
				"method": "rhf"
			},
			{
				"type": "unocc",
				"energy": -0.09281,
				"method": "rhf"
			},
			{
				"type": "unocc",
				"energy": -0.06928,
				"method": "rhf"
			},
			{
				"type": "unocc",
				"energy": -0.02823,
				"method": "rhf"
			},
			{
				"type": "unocc",
				"energy": -0.01717,
				"method": "rhf"
			}
		],
		"cosmo_sigma_profile": { 
			"-0.025": 0.0,
			"-0.024": 0.0,
			"-0.023": 0.0,
			"-0.022": 0.0,
			"-0.021": 0.0,
			"-0.02": 0.0,
			"-0.019": 0.0,
			"-0.018": 0.0,
			"-0.017": 0.0,
			"-0.016": 0.0,
			"-0.015": 0.0,
			"-0.014": 0.0,
			"-0.013": 0.0,
			"-0.012": 0.0,
			"-0.011": 0.0,
			"-0.01": 0.0,
			"-0.009": 0.708445545341,
			"-0.008": 3.31289768657,
			"-0.007": 8.75025075986,
			"-0.006": 24.3433338965,
			"-0.005": 29.3981871489,
			"-0.004": 33.7380255959,
			"-0.003": 32.9142074148,
			"-0.002": 40.1514038863,
			"-0.001": 36.979440966,
			"0.0": 30.2293389665,
			"0.001": 25.9841140003,
			"0.002": 25.9356220014,
			"0.003": 28.5855978214,
			"0.004": 24.5618256204,
			"0.005": 15.1779993997,
			"0.006": 8.55259640801,
			"0.007": 13.8789091761,
			"0.008": 13.5571467367,
			"0.009": 8.63110627087,
			"0.01": 5.64109253692,
			"0.011": 0.545565677332,
			"0.012": 0.0,
			"0.013": 0.0,
			"0.014": 0.0,
			"0.015": 0.0,
			"0.016": 0.0,
			"0.017": 0.0,
			"0.018": 0.0,
			"0.019": 0.0,
			"0.02": 0.0,
			"0.021": 0.0,
			"0.022": 0.0,
			"0.023": 0.0,
			"0.024": 0.0,
			"0.025": 0.0
		}
	}
}
