{
	 "smiles": "S=C(NC1=CC=CC=C1)C#N", 
	 "Tm": 350.65, 
	 "num_atms": 17, 
	 "gaussian": { 
		 "optdone": 1, 
		 "sigma_profile": "yes", 
		 "theory": "DFT", 
		 "functional": "B3LYP", 
		 "basiset": "6-31G**", 
		 "properties": { 
			 "R2extent": 3555.0229, 
			 "electric_dipole_moment_norm": 5.54679364318, 
			 "electric_quadrupole_moment_norm": 15.9413817729, 
			 "total_energy": -816.128170922, 
			 "HOMO_LUMO_gap": 0.13489, 
			 "cosmo_polarized_energy": -12.26, 
			 "cosmo_cavitation_energy": 24.34, 
			 "cosmo_dispersion_energy": -17.89, 
			 "cosmo_repulsion_energy": 1.38, 
			 "cosmo_total_nonelectrostatic_energy": 7.83, 
			 "SMD_solvation_energy": 4.41 
		},
		"coords": [
			{
				"x": -2.9288261119,
				"y": 0.3067284825,
				"z": -3.8612117802,
				"element": "S" 
			},
			{
				"x": -1.9535019888,
				"y": 1.0796017051,
				"z": -2.7521176587,
				"element": "C" 
			},
			{
				"x": -1.1690649341,
				"y": 0.4109803015,
				"z": -1.8723102167,
				"element": "N" 
			},
			{
				"x": -0.2661211336,
				"y": 0.7873303659,
				"z": -0.848399962,
				"element": "C" 
			},
			{
				"x": 0.0380571963,
				"y": 2.1087830149,
				"z": -0.4916504601,
				"element": "C" 
			},
			{
				"x": 0.9480403834,
				"y": 2.3446555912,
				"z": 0.5387024748,
				"element": "C" 
			},
			{
				"x": 1.5601798596,
				"y": 1.2922315692,
				"z": 1.2198136931,
				"element": "C" 
			},
			{
				"x": 1.2543999879,
				"y": -0.0220869163,
				"z": 0.8613825762,
				"element": "C" 
			},
			{
				"x": 0.3493070886,
				"y": -0.2748902742,
				"z": -0.1636046478,
				"element": "C" 
			},
			{
				"x": -1.9596303474,
				"y": 2.5194043683,
				"z": -2.744687504,
				"element": "C" 
			},
			{
				"x": -2.0142636127,
				"y": 3.6810714699,
				"z": -2.7948842989,
				"element": "N" 
			},
			{
				"x": -1.2675648278,
				"y": -0.5923838412,
				"z": -1.993510973,
				"element": "H" 
			},
			{
				"x": -0.4175217059,
				"y": 2.9475655733,
				"z": -0.9980512191,
				"element": "H" 
			},
			{
				"x": 1.1762580499,
				"y": 3.3717975782,
				"z": 0.8067055009,
				"element": "H" 
			},
			{
				"x": 2.2660719568,
				"y": 1.4929070081,
				"z": 2.0192433653,
				"element": "H" 
			},
			{
				"x": 1.7197701947,
				"y": -0.8553524295,
				"z": 1.3788800827,
				"element": "H" 
			},
			{
				"x": 0.114309945,
				"y": -1.300143567,
				"z": -0.4391989724,
				"element": "H" 
			}
		],
		 "valence_orbital": [ 
			{
				"type": "occ",
				"energy": -0.34732,
				"method": "rhf"
			},
			{
				"type": "occ",
				"energy": -0.29524,
				"method": "rhf"
			},
			{
				"type": "occ",
				"energy": -0.27723,
				"method": "rhf"
			},
			{
				"type": "occ",
				"energy": -0.24288,
				"method": "rhf"
			},
			{
				"type": "occ",
				"energy": -0.23807,
				"method": "rhf"
			},
			{
				"type": "unocc",
				"energy": -0.10318,
				"method": "rhf"
			},
			{
				"type": "unocc",
				"energy": -0.02713,
				"method": "rhf"
			},
			{
				"type": "unocc",
				"energy": -0.01128,
				"method": "rhf"
			},
			{
				"type": "unocc",
				"energy": 0.00154,
				"method": "rhf"
			},
			{
				"type": "unocc",
				"energy": 0.05267,
				"method": "rhf"
			}
		],
		"cosmo_sigma_profile": { 
			"-0.025": 0.0,
			"-0.024": 0.0,
			"-0.023": 0.0,
			"-0.022": 0.0,
			"-0.021": 0.0,
			"-0.02": 0.0,
			"-0.019": 0.0,
			"-0.018": 0.0,
			"-0.017": 0.411304309075,
			"-0.016": 1.02357058357,
			"-0.015": 1.30194601551,
			"-0.014": 1.3443624296,
			"-0.013": 1.03486452424,
			"-0.012": 1.11118920801,
			"-0.011": 0.819994011903,
			"-0.01": 0.783422636171,
			"-0.009": 1.03666717094,
			"-0.008": 2.66940218946,
			"-0.007": 5.96157448131,
			"-0.006": 12.5837976291,
			"-0.005": 12.9192301599,
			"-0.004": 12.4776932866,
			"-0.003": 13.6170149053,
			"-0.002": 10.8180386746,
			"-0.001": 9.19605361219,
			"0.0": 11.190675709,
			"0.001": 13.1755300931,
			"0.002": 13.243771074,
			"0.003": 16.5211363889,
			"0.004": 17.0373246856,
			"0.005": 10.5033054131,
			"0.006": 8.18725373471,
			"0.007": 7.26491680695,
			"0.008": 6.11222927899,
			"0.009": 3.86555835679,
			"0.01": 2.40612995986,
			"0.011": 1.57144394147,
			"0.012": 0.0469812239922,
			"0.013": 0.0,
			"0.014": 0.0,
			"0.015": 0.0,
			"0.016": 0.0,
			"0.017": 0.0,
			"0.018": 0.0,
			"0.019": 0.0,
			"0.02": 0.0,
			"0.021": 0.0,
			"0.022": 0.0,
			"0.023": 0.0,
			"0.024": 0.0,
			"0.025": 0.0
		}
	}
}
