{
	 "smiles": "ClC1=CC=C(C=C1)C1=C(C=O)C2=C(N1)C=CC=C2", 
	 "Tm": 531.15, 
	 "num_atms": 28, 
	 "gaussian": { 
		 "optdone": 1, 
		 "sigma_profile": "yes", 
		 "theory": "DFT", 
		 "functional": "B3LYP", 
		 "basiset": "6-31G**", 
		 "properties": { 
			 "R2extent": 6638.1056, 
			 "electric_dipole_moment_norm": 4.77068310622, 
			 "electric_quadrupole_moment_norm": 14.7855160137, 
			 "total_energy": -1167.80156382, 
			 "HOMO_LUMO_gap": 0.15315, 
			 "cosmo_polarized_energy": -16.2, 
			 "cosmo_cavitation_energy": 34.54, 
			 "cosmo_dispersion_energy": -25.21, 
			 "cosmo_repulsion_energy": 1.92, 
			 "cosmo_total_nonelectrostatic_energy": 11.25, 
			 "SMD_solvation_energy": 5.89 
		},
		"coords": [
			{
				"x": 3.8961421741,
				"y": 3.726425719,
				"z": 0.6556766919,
				"element": "Cl" 
			},
			{
				"x": 2.6295004649,
				"y": 2.5221748804,
				"z": 0.5085553813,
				"element": "C" 
			},
			{
				"x": 2.8003665275,
				"y": 1.2678798266,
				"z": 1.0949804309,
				"element": "C" 
			},
			{
				"x": 1.7890553395,
				"y": 0.317321053,
				"z": 0.9812816232,
				"element": "C" 
			},
			{
				"x": 0.6064582488,
				"y": 0.5990372528,
				"z": 0.2746112453,
				"element": "C" 
			},
			{
				"x": 0.4617227858,
				"y": 1.8731129571,
				"z": -0.3043971763,
				"element": "C" 
			},
			{
				"x": 1.462745196,
				"y": 2.8339592673,
				"z": -0.1902083764,
				"element": "C" 
			},
			{
				"x": -0.4676127955,
				"y": -0.3949958071,
				"z": 0.1609706473,
				"element": "C" 
			},
			{
				"x": -0.4318321934,
				"y": -1.7738254752,
				"z": -0.0655377502,
				"element": "C" 
			},
			{
				"x": 0.7422646062,
				"y": -2.5735667454,
				"z": -0.3750741828,
				"element": "C" 
			},
			{
				"x": 0.725350717,
				"y": -3.7857618136,
				"z": -0.5458108146,
				"element": "O" 
			},
			{
				"x": -1.8013833163,
				"y": -2.2398187301,
				"z": -0.0612930341,
				"element": "C" 
			},
			{
				"x": -2.6227093565,
				"y": -1.1083419437,
				"z": 0.161050314,
				"element": "C" 
			},
			{
				"x": -1.7840436019,
				"y": -0.0077021213,
				"z": 0.2728216571,
				"element": "N" 
			},
			{
				"x": -4.0154386501,
				"y": -1.1908098416,
				"z": 0.2338698984,
				"element": "C" 
			},
			{
				"x": -4.5833022133,
				"y": -2.4500025027,
				"z": 0.0679534871,
				"element": "C" 
			},
			{
				"x": -3.7846325647,
				"y": -3.5877600891,
				"z": -0.1665508078,
				"element": "C" 
			},
			{
				"x": -2.3990411359,
				"y": -3.4984520653,
				"z": -0.2355997863,
				"element": "C" 
			},
			{
				"x": 3.7072669586,
				"y": 1.0443329217,
				"z": 1.6455488472,
				"element": "H" 
			},
			{
				"x": 1.9049990806,
				"y": -0.6439623089,
				"z": 1.4697900498,
				"element": "H" 
			},
			{
				"x": -0.4304848019,
				"y": 2.1048595521,
				"z": -0.8789484611,
				"element": "H" 
			},
			{
				"x": 1.3473785358,
				"y": 3.8101776958,
				"z": -0.647786822,
				"element": "H" 
			},
			{
				"x": 1.6935609078,
				"y": -2.0089933724,
				"z": -0.4711054797,
				"element": "H" 
			},
			{
				"x": -2.073069308,
				"y": 0.9144070991,
				"z": 0.5618020575,
				"element": "H" 
			},
			{
				"x": -4.6298332259,
				"y": -0.3123555344,
				"z": 0.4088340244,
				"element": "H" 
			},
			{
				"x": -5.6628503492,
				"y": -2.556828535,
				"z": 0.1177165591,
				"element": "H" 
			},
			{
				"x": -4.2653871119,
				"y": -4.5531603544,
				"z": -0.2940348033,
				"element": "H" 
			},
			{
				"x": -1.775590918,
				"y": -4.3662509846,
				"z": -0.41431542,
				"element": "H" 
			}
		],
		 "valence_orbital": [ 
			{
				"type": "occ",
				"energy": -0.28235,
				"method": "rhf"
			},
			{
				"type": "occ",
				"energy": -0.26915,
				"method": "rhf"
			},
			{
				"type": "occ",
				"energy": -0.23982,
				"method": "rhf"
			},
			{
				"type": "occ",
				"energy": -0.2301,
				"method": "rhf"
			},
			{
				"type": "occ",
				"energy": -0.21618,
				"method": "rhf"
			},
			{
				"type": "unocc",
				"energy": -0.06303,
				"method": "rhf"
			},
			{
				"type": "unocc",
				"energy": -0.03316,
				"method": "rhf"
			},
			{
				"type": "unocc",
				"energy": -0.0167,
				"method": "rhf"
			},
			{
				"type": "unocc",
				"energy": -0.00309,
				"method": "rhf"
			},
			{
				"type": "unocc",
				"energy": 0.01727,
				"method": "rhf"
			}
		],
		"cosmo_sigma_profile": { 
			"-0.025": 0.0,
			"-0.024": 0.0,
			"-0.023": 0.0,
			"-0.022": 0.0,
			"-0.021": 0.0,
			"-0.02": 0.0,
			"-0.019": 0.0,
			"-0.018": 0.0,
			"-0.017": 0.143439705039,
			"-0.016": 1.20835431968,
			"-0.015": 1.33861069343,
			"-0.014": 1.26808707419,
			"-0.013": 0.863112881008,
			"-0.012": 1.36369105758,
			"-0.011": 1.6601985302,
			"-0.01": 1.61756525943,
			"-0.009": 1.28501187981,
			"-0.008": 4.7862468402,
			"-0.007": 10.6520579388,
			"-0.006": 12.136301472,
			"-0.005": 15.6789682744,
			"-0.004": 16.5616647061,
			"-0.003": 16.3903771225,
			"-0.002": 16.219136878,
			"-0.001": 17.2737770321,
			"0.0": 20.5849278287,
			"0.001": 23.143201106,
			"0.002": 28.7046901204,
			"0.003": 23.5091979237,
			"0.004": 22.6591940855,
			"0.005": 14.8550395641,
			"0.006": 8.62805195907,
			"0.007": 2.9327336067,
			"0.008": 1.24802778368,
			"0.009": 1.87323020329,
			"0.01": 2.32800856195,
			"0.011": 2.39305430073,
			"0.012": 3.10602641574,
			"0.013": 2.8517268791,
			"0.014": 1.28298373247,
			"0.015": 0.108829612476,
			"0.016": 0.0,
			"0.017": 0.0,
			"0.018": 0.0,
			"0.019": 0.0,
			"0.02": 0.0,
			"0.021": 0.0,
			"0.022": 0.0,
			"0.023": 0.0,
			"0.024": 0.0,
			"0.025": 0.0
		}
	}
}
