{
	 "smiles": "CN1C(=O)C=C(NN)C2=CC=CC=C12", 
	 "Tm": 489.15, 
	 "num_atms": 25, 
	 "gaussian": { 
		 "optdone": 1, 
		 "sigma_profile": "yes", 
		 "theory": "DFT", 
		 "functional": "B3LYP", 
		 "basiset": "6-31G**", 
		 "properties": { 
			 "R2extent": 2771.3382, 
			 "electric_dipole_moment_norm": 4.70551622673, 
			 "electric_quadrupole_moment_norm": 17.2322469931, 
			 "total_energy": -627.153039375, 
			 "HOMO_LUMO_gap": 0.16682, 
			 "cosmo_polarized_energy": -18.5, 
			 "cosmo_cavitation_energy": 27.8, 
			 "cosmo_dispersion_energy": -20.97, 
			 "cosmo_repulsion_energy": 1.61, 
			 "cosmo_total_nonelectrostatic_energy": 8.44, 
			 "SMD_solvation_energy": 5.58 
		},
		"coords": [
			{
				"x": -1.6789538441,
				"y": -0.6731287438,
				"z": -2.0893311784,
				"element": "C" 
			},
			{
				"x": -0.8950639622,
				"y": -0.0368113735,
				"z": -1.0344002981,
				"element": "N" 
			},
			{
				"x": -1.0661184396,
				"y": 1.3589234586,
				"z": -0.8646410797,
				"element": "C" 
			},
			{
				"x": -1.8433446031,
				"y": 1.9876261178,
				"z": -1.5824474682,
				"element": "O" 
			},
			{
				"x": -0.2584400601,
				"y": 1.9765829072,
				"z": 0.1659073497,
				"element": "C" 
			},
			{
				"x": 0.5984688498,
				"y": 1.2708331412,
				"z": 0.9580408661,
				"element": "C" 
			},
			{
				"x": 1.3444165524,
				"y": 1.8532282813,
				"z": 1.9814556485,
				"element": "N" 
			},
			{
				"x": 1.3364287408,
				"y": 3.3059605277,
				"z": 2.0025314318,
				"element": "N" 
			},
			{
				"x": 0.7115367515,
				"y": -0.1726253236,
				"z": 0.7938394544,
				"element": "C" 
			},
			{
				"x": 1.5196849943,
				"y": -0.9710070226,
				"z": 1.62318524,
				"element": "C" 
			},
			{
				"x": 1.6359677826,
				"y": -2.3390797962,
				"z": 1.424053027,
				"element": "C" 
			},
			{
				"x": 0.9215676322,
				"y": -2.9383331815,
				"z": 0.3807491102,
				"element": "C" 
			},
			{
				"x": 0.0912467293,
				"y": -2.1823333042,
				"z": -0.4356991675,
				"element": "C" 
			},
			{
				"x": -0.0408790429,
				"y": -0.7911542993,
				"z": -0.2416524541,
				"element": "C" 
			},
			{
				"x": -1.025896627,
				"y": -1.1366596916,
				"z": -2.8361368381,
				"element": "H" 
			},
			{
				"x": -2.2687676365,
				"y": 0.1122647964,
				"z": -2.5577099973,
				"element": "H" 
			},
			{
				"x": -2.3461912413,
				"y": -1.43626474,
				"z": -1.6750982733,
				"element": "H" 
			},
			{
				"x": -0.3413284496,
				"y": 3.052632374,
				"z": 0.2275621466,
				"element": "H" 
			},
			{
				"x": 2.3102814219,
				"y": 1.5414970125,
				"z": 1.9632893449,
				"element": "H" 
			},
			{
				"x": 1.8847162894,
				"y": 3.5450906009,
				"z": 2.8293653707,
				"element": "H" 
			},
			{
				"x": 0.3812132429,
				"y": 3.5530990083,
				"z": 2.2693466286,
				"element": "H" 
			},
			{
				"x": 2.0388187548,
				"y": -0.5099296562,
				"z": 2.4570817727,
				"element": "H" 
			},
			{
				"x": 2.2648781409,
				"y": -2.9357242538,
				"z": 2.076848059,
				"element": "H" 
			},
			{
				"x": 1.0021559724,
				"y": -4.0077719058,
				"z": 0.2089058189,
				"element": "H" 
			},
			{
				"x": -0.4626979488,
				"y": -2.6730149337,
				"z": -1.2253445144,
				"element": "H" 
			}
		],
		 "valence_orbital": [ 
			{
				"type": "occ",
				"energy": -0.29862,
				"method": "rhf"
			},
			{
				"type": "occ",
				"energy": -0.24604,
				"method": "rhf"
			},
			{
				"type": "occ",
				"energy": -0.24013,
				"method": "rhf"
			},
			{
				"type": "occ",
				"energy": -0.21232,
				"method": "rhf"
			},
			{
				"type": "occ",
				"energy": -0.20819,
				"method": "rhf"
			},
			{
				"type": "unocc",
				"energy": -0.04137,
				"method": "rhf"
			},
			{
				"type": "unocc",
				"energy": -0.00305,
				"method": "rhf"
			},
			{
				"type": "unocc",
				"energy": 0.02751,
				"method": "rhf"
			},
			{
				"type": "unocc",
				"energy": 0.06449,
				"method": "rhf"
			},
			{
				"type": "unocc",
				"energy": 0.07719,
				"method": "rhf"
			}
		],
		"cosmo_sigma_profile": { 
			"-0.025": 0.0,
			"-0.024": 0.0,
			"-0.023": 0.0,
			"-0.022": 0.0,
			"-0.021": 0.0,
			"-0.02": 0.0,
			"-0.019": 0.0,
			"-0.018": 0.0,
			"-0.017": 0.0,
			"-0.016": 0.0,
			"-0.015": 0.311469923298,
			"-0.014": 1.36040700911,
			"-0.013": 1.66513786765,
			"-0.012": 4.58595998757,
			"-0.011": 3.78661937815,
			"-0.01": 4.50414626656,
			"-0.009": 4.0215506119,
			"-0.008": 2.85475816298,
			"-0.007": 3.9929828286,
			"-0.006": 11.3779137785,
			"-0.005": 16.2329064283,
			"-0.004": 15.7836789915,
			"-0.003": 11.9706643252,
			"-0.002": 13.9331139292,
			"-0.001": 10.4861065482,
			"0.0": 12.9012641354,
			"0.001": 14.4321956982,
			"0.002": 13.4991900471,
			"0.003": 15.1776844394,
			"0.004": 15.6301501429,
			"0.005": 10.2021607996,
			"0.006": 3.31318180878,
			"0.007": 2.50549279917,
			"0.008": 3.40768740165,
			"0.009": 3.23827293589,
			"0.01": 2.09664414627,
			"0.011": 2.10061789072,
			"0.012": 2.40892668933,
			"0.013": 2.73153659024,
			"0.014": 4.91051045914,
			"0.015": 4.24299840749,
			"0.016": 0.964498231908,
			"0.017": 0.407540610209,
			"0.018": 0.0,
			"0.019": 0.0,
			"0.02": 0.0,
			"0.021": 0.0,
			"0.022": 0.0,
			"0.023": 0.0,
			"0.024": 0.0,
			"0.025": 0.0
		}
	}
}
