{
	 "smiles": "CC1=NN(C2=C1C(N)=NN2)C1=CC=C(F)C=C1", 
	 "Tm": 442.15, 
	 "num_atms": 27, 
	 "gaussian": { 
		 "optdone": 1, 
		 "sigma_profile": "yes", 
		 "theory": "DFT", 
		 "functional": "B3LYP", 
		 "basiset": "6-31G**", 
		 "properties": { 
			 "R2extent": 5190.5427, 
			 "electric_dipole_moment_norm": 1.52772595056, 
			 "electric_quadrupole_moment_norm": 10.3604436864, 
			 "total_energy": -798.738032633, 
			 "HOMO_LUMO_gap": 0.17991, 
			 "cosmo_polarized_energy": -15.77, 
			 "cosmo_cavitation_energy": 32.28, 
			 "cosmo_dispersion_energy": -23.51, 
			 "cosmo_repulsion_energy": 1.79, 
			 "cosmo_total_nonelectrostatic_energy": 10.57, 
			 "SMD_solvation_energy": 4.1 
		},
		"coords": [
			{
				"x": 1.3667431271,
				"y": -0.3092354132,
				"z": 3.1003596249,
				"element": "C" 
			},
			{
				"x": 1.2198463625,
				"y": -0.1899012834,
				"z": 1.6161480957,
				"element": "C" 
			},
			{
				"x": 0.1605372216,
				"y": 0.4178910563,
				"z": 1.0974512842,
				"element": "N" 
			},
			{
				"x": 0.29525902,
				"y": 0.3695175708,
				"z": -0.2850172926,
				"element": "N" 
			},
			{
				"x": 1.4614104952,
				"y": -0.2639927782,
				"z": -0.595248204,
				"element": "C" 
			},
			{
				"x": 2.0890233771,
				"y": -0.6515441402,
				"z": 0.5790940384,
				"element": "C" 
			},
			{
				"x": 3.3022587375,
				"y": -1.269214295,
				"z": 0.1259439712,
				"element": "C" 
			},
			{
				"x": 4.3397889928,
				"y": -1.7670320475,
				"z": 0.9045462119,
				"element": "N" 
			},
			{
				"x": 3.3836087311,
				"y": -1.2602090903,
				"z": -1.1972138465,
				"element": "N" 
			},
			{
				"x": 2.2019149014,
				"y": -0.6727404806,
				"z": -1.6609481067,
				"element": "N" 
			},
			{
				"x": -0.6753466878,
				"y": 0.9421999932,
				"z": -1.1311010245,
				"element": "C" 
			},
			{
				"x": -1.5637755011,
				"y": 1.9011025722,
				"z": -0.6261973821,
				"element": "C" 
			},
			{
				"x": -2.5162900668,
				"y": 2.472121063,
				"z": -1.4651076684,
				"element": "C" 
			},
			{
				"x": -2.5661169771,
				"y": 2.0869615707,
				"z": -2.8012771033,
				"element": "C" 
			},
			{
				"x": -3.4843725445,
				"y": 2.6501447338,
				"z": -3.6149537523,
				"element": "F" 
			},
			{
				"x": -1.6988865257,
				"y": 1.132596555,
				"z": -3.3177371969,
				"element": "C" 
			},
			{
				"x": -0.7533871594,
				"y": 0.5504804496,
				"z": -2.4740236946,
				"element": "C" 
			},
			{
				"x": 1.3667847209,
				"y": -1.358784773,
				"z": 3.4173330932,
				"element": "H" 
			},
			{
				"x": 2.3084786751,
				"y": 0.1359002885,
				"z": 3.4401476207,
				"element": "H" 
			},
			{
				"x": 0.5388013396,
				"y": 0.1997749605,
				"z": 3.5977012766,
				"element": "H" 
			},
			{
				"x": 4.0339473837,
				"y": -2.2932527029,
				"z": 1.7126937352,
				"element": "H" 
			},
			{
				"x": 5.0117528175,
				"y": -2.288049783,
				"z": 0.3539931378,
				"element": "H" 
			},
			{
				"x": 2.2287302387,
				"y": -0.2537781031,
				"z": -2.5774433117,
				"element": "H" 
			},
			{
				"x": -1.4971079078,
				"y": 2.1792008198,
				"z": 0.4181146224,
				"element": "H" 
			},
			{
				"x": -3.2140397379,
				"y": 3.2162639958,
				"z": -1.0967309279,
				"element": "H" 
			},
			{
				"x": -1.7775461005,
				"y": 0.8422285804,
				"z": -4.3595709059,
				"element": "H" 
			},
			{
				"x": -0.1068169332,
				"y": -0.2334493191,
				"z": -2.8544562948,
				"element": "H" 
			}
		],
		 "valence_orbital": [ 
			{
				"type": "occ",
				"energy": -0.27292,
				"method": "rhf"
			},
			{
				"type": "occ",
				"energy": -0.26818,
				"method": "rhf"
			},
			{
				"type": "occ",
				"energy": -0.2388,
				"method": "rhf"
			},
			{
				"type": "occ",
				"energy": -0.22967,
				"method": "rhf"
			},
			{
				"type": "occ",
				"energy": -0.19964,
				"method": "rhf"
			},
			{
				"type": "unocc",
				"energy": -0.01973,
				"method": "rhf"
			},
			{
				"type": "unocc",
				"energy": -0.01601,
				"method": "rhf"
			},
			{
				"type": "unocc",
				"energy": 0.01557,
				"method": "rhf"
			},
			{
				"type": "unocc",
				"energy": 0.05462,
				"method": "rhf"
			},
			{
				"type": "unocc",
				"energy": 0.06054,
				"method": "rhf"
			}
		],
		"cosmo_sigma_profile": { 
			"-0.025": 0.0,
			"-0.024": 0.0,
			"-0.023": 0.0,
			"-0.022": 0.0,
			"-0.021": 0.0,
			"-0.02": 0.0,
			"-0.019": 0.0,
			"-0.018": 0.0,
			"-0.017": 0.00471876394966,
			"-0.016": 0.691792412738,
			"-0.015": 1.0061432718,
			"-0.014": 1.35096670183,
			"-0.013": 1.37017617982,
			"-0.012": 4.09296250314,
			"-0.011": 3.52120252926,
			"-0.01": 3.83461358496,
			"-0.009": 4.02857402716,
			"-0.008": 4.7739561295,
			"-0.007": 8.00226298087,
			"-0.006": 8.92251436109,
			"-0.005": 14.5127061409,
			"-0.004": 13.8866358675,
			"-0.003": 13.250594001,
			"-0.002": 13.7777359604,
			"-0.001": 16.8455456549,
			"0.0": 15.8026338179,
			"0.001": 21.191449206,
			"0.002": 22.0568397151,
			"0.003": 24.3297225746,
			"0.004": 18.8889977702,
			"0.005": 9.22226479793,
			"0.006": 5.11048556671,
			"0.007": 4.89892376227,
			"0.008": 4.1251609531,
			"0.009": 3.30898681158,
			"0.01": 3.46636283983,
			"0.011": 3.50539298367,
			"0.012": 2.39935403545,
			"0.013": 2.32692988216,
			"0.014": 1.27633008766,
			"0.015": 1.7388738123,
			"0.016": 0.974293720045,
			"0.017": 0.0584964307913,
			"0.018": 0.0,
			"0.019": 0.0,
			"0.02": 0.0,
			"0.021": 0.0,
			"0.022": 0.0,
			"0.023": 0.0,
			"0.024": 0.0,
			"0.025": 0.0
		}
	}
}
