{
	 "smiles": "COC(=O)C1=CSC(=C1)[N+]([O-])=O", 
	 "Tm": 351.15, 
	 "num_atms": 17, 
	 "gaussian": { 
		 "optdone": 1, 
		 "sigma_profile": "yes", 
		 "theory": "DFT", 
		 "functional": "B3LYP", 
		 "basiset": "6-31G**", 
		 "properties": { 
			 "R2extent": 3809.2556, 
			 "electric_dipole_moment_norm": 3.55541473952, 
			 "electric_quadrupole_moment_norm": 17.5082220391, 
			 "total_energy": -985.370879461, 
			 "HOMO_LUMO_gap": 0.17519, 
			 "cosmo_polarized_energy": -10.73, 
			 "cosmo_cavitation_energy": 24.94, 
			 "cosmo_dispersion_energy": -18.67, 
			 "cosmo_repulsion_energy": 1.45, 
			 "cosmo_total_nonelectrostatic_energy": 7.71, 
			 "SMD_solvation_energy": 8.38 
		},
		"coords": [
			{
				"x": 0.7032427115,
				"y": 2.8579452068,
				"z": 0.6402637705,
				"element": "C" 
			},
			{
				"x": 0.8865323121,
				"y": 1.4805626912,
				"z": 0.267058082,
				"element": "O" 
			},
			{
				"x": 0.6320402382,
				"y": 0.5816696972,
				"z": 1.2399367811,
				"element": "C" 
			},
			{
				"x": 0.2723352167,
				"y": 0.8733584136,
				"z": 2.3623941364,
				"element": "O" 
			},
			{
				"x": 0.8465020261,
				"y": -0.8080571567,
				"z": 0.7671554656,
				"element": "C" 
			},
			{
				"x": 0.6423709908,
				"y": -1.8851052136,
				"z": 1.6050685758,
				"element": "C" 
			},
			{
				"x": 0.9514166864,
				"y": -3.3936060884,
				"z": 0.8437456647,
				"element": "S" 
			},
			{
				"x": 1.3630840475,
				"y": -2.5625445266,
				"z": -0.6295798549,
				"element": "C" 
			},
			{
				"x": 1.2666888764,
				"y": -1.2010431265,
				"z": -0.5360107884,
				"element": "C" 
			},
			{
				"x": 1.756730791,
				"y": -3.3164011555,
				"z": -1.7883577518,
				"element": "N" 
			},
			{
				"x": 2.0381662336,
				"y": -2.6841731394,
				"z": -2.8057171805,
				"element": "O" 
			},
			{
				"x": 1.7821850797,
				"y": -4.5451964771,
				"z": -1.6727898036,
				"element": "O" 
			},
			{
				"x": 0.9481758514,
				"y": 3.4371151449,
				"z": -0.2493565277,
				"element": "H" 
			},
			{
				"x": 1.3670441962,
				"y": 3.121344378,
				"z": 1.4671378238,
				"element": "H" 
			},
			{
				"x": -0.3306673966,
				"y": 3.0369338043,
				"z": 0.9447656419,
				"element": "H" 
			},
			{
				"x": 0.3224928172,
				"y": -1.8340148737,
				"z": 2.6370570479,
				"element": "H" 
			},
			{
				"x": 1.484459322,
				"y": -0.5277875787,
				"z": -1.3531710829,
				"element": "H" 
			}
		],
		 "valence_orbital": [ 
			{
				"type": "occ",
				"energy": -0.31861,
				"method": "rhf"
			},
			{
				"type": "occ",
				"energy": -0.30186,
				"method": "rhf"
			},
			{
				"type": "occ",
				"energy": -0.29306,
				"method": "rhf"
			},
			{
				"type": "occ",
				"energy": -0.29276,
				"method": "rhf"
			},
			{
				"type": "occ",
				"energy": -0.27938,
				"method": "rhf"
			},
			{
				"type": "unocc",
				"energy": -0.10419,
				"method": "rhf"
			},
			{
				"type": "unocc",
				"energy": -0.05678,
				"method": "rhf"
			},
			{
				"type": "unocc",
				"energy": -0.00268,
				"method": "rhf"
			},
			{
				"type": "unocc",
				"energy": 0.00885,
				"method": "rhf"
			},
			{
				"type": "unocc",
				"energy": 0.07282,
				"method": "rhf"
			}
		],
		"cosmo_sigma_profile": { 
			"-0.025": 0.0,
			"-0.024": 0.0,
			"-0.023": 0.0,
			"-0.022": 0.0,
			"-0.021": 0.0,
			"-0.02": 0.0,
			"-0.019": 0.0,
			"-0.018": 0.0,
			"-0.017": 0.0,
			"-0.016": 0.0,
			"-0.015": 0.0,
			"-0.014": 0.0,
			"-0.013": 0.0,
			"-0.012": 0.0739292599592,
			"-0.011": 1.69036003464,
			"-0.01": 1.68507657941,
			"-0.009": 2.22297847146,
			"-0.008": 2.3697740315,
			"-0.007": 5.24794427896,
			"-0.006": 10.6426476196,
			"-0.005": 12.3858129236,
			"-0.004": 15.9926237127,
			"-0.003": 18.5838526532,
			"-0.002": 21.692481012,
			"-0.001": 22.7978704591,
			"0.0": 14.4691401644,
			"0.001": 8.71613842327,
			"0.002": 6.30034451816,
			"0.003": 4.87332596497,
			"0.004": 6.33711987763,
			"0.005": 5.73399636166,
			"0.006": 6.17533900903,
			"0.007": 11.6170582658,
			"0.008": 7.96782206135,
			"0.009": 5.04421296661,
			"0.01": 3.67845820069,
			"0.011": 4.33544362419,
			"0.012": 1.84683024305,
			"0.013": 0.0,
			"0.014": 0.0,
			"0.015": 0.0,
			"0.016": 0.0,
			"0.017": 0.0,
			"0.018": 0.0,
			"0.019": 0.0,
			"0.02": 0.0,
			"0.021": 0.0,
			"0.022": 0.0,
			"0.023": 0.0,
			"0.024": 0.0,
			"0.025": 0.0
		}
	}
}
