{
	 "smiles": "CC1=C(C)C(=O)C2=C(C=CC=C2)C1=O", 
	 "Tm": 400.15, 
	 "num_atms": 24, 
	 "gaussian": { 
		 "optdone": 1, 
		 "sigma_profile": "yes", 
		 "theory": "DFT", 
		 "functional": "B3LYP", 
		 "basiset": "6-31G**", 
		 "properties": { 
			 "R2extent": 2711.8573, 
			 "electric_dipole_moment_norm": 0.501305675212, 
			 "electric_quadrupole_moment_norm": 13.8765351562, 
			 "total_energy": -613.758862498, 
			 "HOMO_LUMO_gap": 0.14818, 
			 "cosmo_polarized_energy": -8.78, 
			 "cosmo_cavitation_energy": 27.57, 
			 "cosmo_dispersion_energy": -20.32, 
			 "cosmo_repulsion_energy": 1.55, 
			 "cosmo_total_nonelectrostatic_energy": 8.8, 
			 "SMD_solvation_energy": 5.65 
		},
		"coords": [
			{
				"x": -0.2115810346,
				"y": 3.3754528677,
				"z": 1.2742543197,
				"element": "C" 
			},
			{
				"x": -0.1597373387,
				"y": 1.9461594393,
				"z": 0.8084000796,
				"element": "C" 
			},
			{
				"x": -1.1116199243,
				"y": 1.0031043816,
				"z": 1.0385412013,
				"element": "C" 
			},
			{
				"x": -2.3903895469,
				"y": 1.2166669292,
				"z": 1.80125681,
				"element": "C" 
			},
			{
				"x": -0.9498469235,
				"y": -0.3932697682,
				"z": 0.5207165824,
				"element": "C" 
			},
			{
				"x": -1.8199422717,
				"y": -1.231954499,
				"z": 0.7374807262,
				"element": "O" 
			},
			{
				"x": 0.2727196258,
				"y": -0.7409437688,
				"z": -0.25352928,
				"element": "C" 
			},
			{
				"x": 1.2555427665,
				"y": 0.2321307713,
				"z": -0.4902907625,
				"element": "C" 
			},
			{
				"x": 2.4038544074,
				"y": -0.0966274723,
				"z": -1.2178002911,
				"element": "C" 
			},
			{
				"x": 2.5680948665,
				"y": -1.3916739209,
				"z": -1.7058359828,
				"element": "C" 
			},
			{
				"x": 1.5875161078,
				"y": -2.3624737432,
				"z": -1.4696886671,
				"element": "C" 
			},
			{
				"x": 0.4416765159,
				"y": -2.03928979,
				"z": -0.745183516,
				"element": "C" 
			},
			{
				"x": 1.0776077703,
				"y": 1.6144306246,
				"z": 0.0318132056,
				"element": "C" 
			},
			{
				"x": 1.9271859221,
				"y": 2.4784858527,
				"z": -0.1658574563,
				"element": "O" 
			},
			{
				"x": -1.1137303676,
				"y": 3.6069218684,
				"z": 1.8381958275,
				"element": "H" 
			},
			{
				"x": -0.148004045,
				"y": 4.0521943862,
				"z": 0.415944137,
				"element": "H" 
			},
			{
				"x": 0.6614871535,
				"y": 3.5995451534,
				"z": 1.8956924415,
				"element": "H" 
			},
			{
				"x": -2.4500216371,
				"y": 0.5130419774,
				"z": 2.63777616,
				"element": "H" 
			},
			{
				"x": -3.2506656103,
				"y": 0.9930113204,
				"z": 1.1618306988,
				"element": "H" 
			},
			{
				"x": -2.4926203532,
				"y": 2.2302308872,
				"z": 2.1856056335,
				"element": "H" 
			},
			{
				"x": 3.1481409302,
				"y": 0.6742982386,
				"z": -1.38660797,
				"element": "H" 
			},
			{
				"x": 3.4594853254,
				"y": -1.6479651243,
				"z": -2.270919438,
				"element": "H" 
			},
			{
				"x": 1.7196432726,
				"y": -3.3704453472,
				"z": -1.8519408581,
				"element": "H" 
			},
			{
				"x": -0.3331956109,
				"y": -2.7724312642,
				"z": -0.548053601,
				"element": "H" 
			}
		],
		 "valence_orbital": [ 
			{
				"type": "occ",
				"energy": -0.27747,
				"method": "rhf"
			},
			{
				"type": "occ",
				"energy": -0.26835,
				"method": "rhf"
			},
			{
				"type": "occ",
				"energy": -0.26691,
				"method": "rhf"
			},
			{
				"type": "occ",
				"energy": -0.26308,
				"method": "rhf"
			},
			{
				"type": "occ",
				"energy": -0.25486,
				"method": "rhf"
			},
			{
				"type": "unocc",
				"energy": -0.10668,
				"method": "rhf"
			},
			{
				"type": "unocc",
				"energy": -0.03967,
				"method": "rhf"
			},
			{
				"type": "unocc",
				"energy": -0.01426,
				"method": "rhf"
			},
			{
				"type": "unocc",
				"energy": 0.04418,
				"method": "rhf"
			},
			{
				"type": "unocc",
				"energy": 0.08414,
				"method": "rhf"
			}
		],
		"cosmo_sigma_profile": { 
			"-0.025": 0.0,
			"-0.024": 0.0,
			"-0.023": 0.0,
			"-0.022": 0.0,
			"-0.021": 0.0,
			"-0.02": 0.0,
			"-0.019": 0.0,
			"-0.018": 0.0,
			"-0.017": 0.0,
			"-0.016": 0.0,
			"-0.015": 0.0,
			"-0.014": 0.0,
			"-0.013": 0.0,
			"-0.012": 0.0,
			"-0.011": 0.0,
			"-0.01": 0.0,
			"-0.009": 0.0,
			"-0.008": 0.127500518012,
			"-0.007": 4.95664792019,
			"-0.006": 9.41106883701,
			"-0.005": 15.0376173863,
			"-0.004": 18.9865706246,
			"-0.003": 23.1787798417,
			"-0.002": 20.4989803486,
			"-0.001": 26.2118864041,
			"0.0": 23.3343038396,
			"0.001": 15.9100569787,
			"0.002": 16.6337384322,
			"0.003": 10.0050906401,
			"0.004": 4.56420780479,
			"0.005": 3.72844120724,
			"0.006": 1.82123880455,
			"0.007": 3.10433774809,
			"0.008": 4.26750723112,
			"0.009": 3.50054524411,
			"0.01": 4.40844016962,
			"0.011": 7.3845094581,
			"0.012": 3.46069447263,
			"0.013": 0.0227763005405,
			"0.014": 0.0,
			"0.015": 0.0,
			"0.016": 0.0,
			"0.017": 0.0,
			"0.018": 0.0,
			"0.019": 0.0,
			"0.02": 0.0,
			"0.021": 0.0,
			"0.022": 0.0,
			"0.023": 0.0,
			"0.024": 0.0,
			"0.025": 0.0
		}
	}
}
