{
	 "smiles": "CN(C)C1=CC=C(C=O)C=C1", 
	 "Tm": 347.65, 
	 "num_atms": 22, 
	 "gaussian": { 
		 "optdone": 1, 
		 "sigma_profile": "yes", 
		 "theory": "DFT", 
		 "functional": "B3LYP", 
		 "basiset": "6-31G**", 
		 "properties": { 
			 "R2extent": 2273.7772, 
			 "electric_dipole_moment_norm": 6.30836788876, 
			 "electric_quadrupole_moment_norm": 11.1390260925, 
			 "total_energy": -479.551339806, 
			 "HOMO_LUMO_gap": 0.16255, 
			 "cosmo_polarized_energy": -11.25, 
			 "cosmo_cavitation_energy": 25.23, 
			 "cosmo_dispersion_energy": -18.49, 
			 "cosmo_repulsion_energy": 1.46, 
			 "cosmo_total_nonelectrostatic_energy": 8.19, 
			 "SMD_solvation_energy": 5.27 
		},
		"coords": [
			{
				"x": -2.3654045773,
				"y": -1.1397887286,
				"z": -2.221735727,
				"element": "C" 
			},
			{
				"x": -1.0323678944,
				"y": -0.5585484818,
				"z": -2.2221912916,
				"element": "N" 
			},
			{
				"x": -0.2628073428,
				"y": -0.5299765228,
				"z": -3.4551619454,
				"element": "C" 
			},
			{
				"x": -0.5040667097,
				"y": -0.0321441526,
				"z": -1.0642429455,
				"element": "C" 
			},
			{
				"x": -1.2409135718,
				"y": -0.0473756858,
				"z": 0.1515001884,
				"element": "C" 
			},
			{
				"x": -0.705277239,
				"y": 0.4821384151,
				"z": 1.311130687,
				"element": "C" 
			},
			{
				"x": 0.580118196,
				"y": 1.0507072065,
				"z": 1.3259610293,
				"element": "C" 
			},
			{
				"x": 1.1438284944,
				"y": 1.6113704378,
				"z": 2.5590558773,
				"element": "C" 
			},
			{
				"x": 0.580828118,
				"y": 1.638612154,
				"z": 3.6417392221,
				"element": "O" 
			},
			{
				"x": 1.3115766135,
				"y": 1.0687028099,
				"z": 0.1296174817,
				"element": "C" 
			},
			{
				"x": 0.7924703232,
				"y": 0.5430185606,
				"z": -1.0436458408,
				"element": "C" 
			},
			{
				"x": -3.1317748891,
				"y": -0.4065457775,
				"z": -1.937195307,
				"element": "H" 
			},
			{
				"x": -2.4398064037,
				"y": -1.9920706761,
				"z": -1.5333305386,
				"element": "H" 
			},
			{
				"x": -2.6004038806,
				"y": -1.4979282902,
				"z": -3.224375501,
				"element": "H" 
			},
			{
				"x": -0.8453889971,
				"y": -0.9914196585,
				"z": -4.2529105889,
				"element": "H" 
			},
			{
				"x": 0.6799332094,
				"y": -1.0854857529,
				"z": -3.3613749934,
				"element": "H" 
			},
			{
				"x": -0.021659937,
				"y": 0.4962536298,
				"z": -3.7635482433,
				"element": "H" 
			},
			{
				"x": -2.2346573004,
				"y": -0.4767498081,
				"z": 0.1799937909,
				"element": "H" 
			},
			{
				"x": -1.2715467416,
				"y": 0.468376495,
				"z": 2.2375429571,
				"element": "H" 
			},
			{
				"x": 2.1693887782,
				"y": 2.0330239677,
				"z": 2.4437988798,
				"element": "H" 
			},
			{
				"x": 2.3085285493,
				"y": 1.5048921996,
				"z": 0.1212626718,
				"element": "H" 
			},
			{
				"x": 1.3900032025,
				"y": 0.5770376589,
				"z": -1.9458898629,
				"element": "H" 
			}
		],
		 "valence_orbital": [ 
			{
				"type": "occ",
				"energy": -0.33802,
				"method": "rhf"
			},
			{
				"type": "occ",
				"energy": -0.28967,
				"method": "rhf"
			},
			{
				"type": "occ",
				"energy": -0.25536,
				"method": "rhf"
			},
			{
				"type": "occ",
				"energy": -0.2349,
				"method": "rhf"
			},
			{
				"type": "occ",
				"energy": -0.20177,
				"method": "rhf"
			},
			{
				"type": "unocc",
				"energy": -0.03922,
				"method": "rhf"
			},
			{
				"type": "unocc",
				"energy": -0.00238,
				"method": "rhf"
			},
			{
				"type": "unocc",
				"energy": 0.0619,
				"method": "rhf"
			},
			{
				"type": "unocc",
				"energy": 0.07683,
				"method": "rhf"
			},
			{
				"type": "unocc",
				"energy": 0.09531,
				"method": "rhf"
			}
		],
		"cosmo_sigma_profile": { 
			"-0.025": 0.0,
			"-0.024": 0.0,
			"-0.023": 0.0,
			"-0.022": 0.0,
			"-0.021": 0.0,
			"-0.02": 0.0,
			"-0.019": 0.0,
			"-0.018": 0.0,
			"-0.017": 0.0,
			"-0.016": 0.0,
			"-0.015": 0.0,
			"-0.014": 0.0,
			"-0.013": 0.0,
			"-0.012": 0.0,
			"-0.011": 0.0,
			"-0.01": 0.0,
			"-0.009": 0.0,
			"-0.008": 0.291405807711,
			"-0.007": 2.5071231977,
			"-0.006": 9.94927860922,
			"-0.005": 19.6731121872,
			"-0.004": 24.0181878709,
			"-0.003": 21.9860379267,
			"-0.002": 22.1330840883,
			"-0.001": 13.2458699971,
			"0.0": 9.55508907053,
			"0.001": 10.1416035644,
			"0.002": 10.1536751964,
			"0.003": 11.3147451807,
			"0.004": 10.4527558397,
			"0.005": 13.0128075077,
			"0.006": 2.81692339384,
			"0.007": 2.0565221558,
			"0.008": 1.4660771412,
			"0.009": 1.16722221721,
			"0.01": 1.89211537369,
			"0.011": 2.74163906719,
			"0.012": 3.95008950069,
			"0.013": 4.16058870185,
			"0.014": 1.34649289567,
			"0.015": 0.0577785966047,
			"0.016": 0.0,
			"0.017": 0.0,
			"0.018": 0.0,
			"0.019": 0.0,
			"0.02": 0.0,
			"0.021": 0.0,
			"0.022": 0.0,
			"0.023": 0.0,
			"0.024": 0.0,
			"0.025": 0.0
		}
	}
}
