{
	 "smiles": "NC1CCCS(=O)(=O)C2=C1C=CC=C2", 
	 "Tm": 389.15, 
	 "num_atms": 27, 
	 "gaussian": { 
		 "optdone": 1, 
		 "sigma_profile": "yes", 
		 "theory": "DFT", 
		 "functional": "B3LYP", 
		 "basiset": "6-31G**", 
		 "properties": { 
			 "R2extent": 3094.3954, 
			 "electric_dipole_moment_norm": 4.96348850004, 
			 "electric_quadrupole_moment_norm": 16.2194763322, 
			 "total_energy": -992.216984888, 
			 "HOMO_LUMO_gap": 0.1967, 
			 "cosmo_polarized_energy": -16.08, 
			 "cosmo_cavitation_energy": 28.67, 
			 "cosmo_dispersion_energy": -22.0, 
			 "cosmo_repulsion_energy": 1.66, 
			 "cosmo_total_nonelectrostatic_energy": 8.33, 
			 "SMD_solvation_energy": 2.59 
		},
		"coords": [
			{
				"x": 1.2157307207,
				"y": 0.1072809387,
				"z": 2.5976126693,
				"element": "N" 
			},
			{
				"x": -0.0699139941,
				"y": -0.2225217328,
				"z": 1.9672916543,
				"element": "C" 
			},
			{
				"x": -0.6272759955,
				"y": -1.6398556768,
				"z": 2.341192304,
				"element": "C" 
			},
			{
				"x": -1.4245123548,
				"y": -2.3788950127,
				"z": 1.2513045332,
				"element": "C" 
			},
			{
				"x": -0.5576802086,
				"y": -3.2179056852,
				"z": 0.2998481784,
				"element": "C" 
			},
			{
				"x": 0.9748943055,
				"y": -2.3999490392,
				"z": -0.2508073017,
				"element": "S" 
			},
			{
				"x": 1.3753815198,
				"y": -3.0098634327,
				"z": -1.5295560923,
				"element": "O" 
			},
			{
				"x": 1.9239615977,
				"y": -2.3993361318,
				"z": 0.8832223818,
				"element": "O" 
			},
			{
				"x": 0.465397132,
				"y": -0.7029454551,
				"z": -0.5603410353,
				"element": "C" 
			},
			{
				"x": 0.0241010163,
				"y": 0.1374246795,
				"z": 0.4790808886,
				"element": "C" 
			},
			{
				"x": -0.3164785182,
				"y": 1.4488271338,
				"z": 0.1157332176,
				"element": "C" 
			},
			{
				"x": -0.2216651523,
				"y": 1.9021437413,
				"z": -1.1987524872,
				"element": "C" 
			},
			{
				"x": 0.2163704837,
				"y": 1.0436811599,
				"z": -2.207459678,
				"element": "C" 
			},
			{
				"x": 0.5583932942,
				"y": -0.2667959244,
				"z": -1.8852684935,
				"element": "C" 
			},
			{
				"x": 1.9108070877,
				"y": -0.5634422616,
				"z": 2.2716444148,
				"element": "H" 
			},
			{
				"x": 1.1365184697,
				"y": -0.0141797306,
				"z": 3.6054910689,
				"element": "H" 
			},
			{
				"x": -0.7928478483,
				"y": 0.4977736054,
				"z": 2.3687243545,
				"element": "H" 
			},
			{
				"x": -1.2723334458,
				"y": -1.5065349078,
				"z": 3.2170207114,
				"element": "H" 
			},
			{
				"x": 0.2079486138,
				"y": -2.2674524524,
				"z": 2.663668293,
				"element": "H" 
			},
			{
				"x": -2.1369441994,
				"y": -3.0700353352,
				"z": 1.7158314978,
				"element": "H" 
			},
			{
				"x": -2.0237268999,
				"y": -1.6682315649,
				"z": 0.6714590037,
				"element": "H" 
			},
			{
				"x": -1.0907975622,
				"y": -3.4988601206,
				"z": -0.6115634539,
				"element": "H" 
			},
			{
				"x": -0.1877671127,
				"y": -4.126659578,
				"z": 0.785732171,
				"element": "H" 
			},
			{
				"x": -0.6509848098,
				"y": 2.12967701,
				"z": 0.8933033323,
				"element": "H" 
			},
			{
				"x": -0.4922383977,
				"y": 2.927481306,
				"z": -1.4337278898,
				"element": "H" 
			},
			{
				"x": 0.2914149359,
				"y": 1.3888608456,
				"z": -3.2339437762,
				"element": "H" 
			},
			{
				"x": 0.9061473221,
				"y": -0.9636863784,
				"z": -2.6399404665,
				"element": "H" 
			}
		],
		 "valence_orbital": [ 
			{
				"type": "occ",
				"energy": -0.29456,
				"method": "rhf"
			},
			{
				"type": "occ",
				"energy": -0.28278,
				"method": "rhf"
			},
			{
				"type": "occ",
				"energy": -0.26949,
				"method": "rhf"
			},
			{
				"type": "occ",
				"energy": -0.26336,
				"method": "rhf"
			},
			{
				"type": "occ",
				"energy": -0.23296,
				"method": "rhf"
			},
			{
				"type": "unocc",
				"energy": -0.03626,
				"method": "rhf"
			},
			{
				"type": "unocc",
				"energy": -0.01902,
				"method": "rhf"
			},
			{
				"type": "unocc",
				"energy": 0.06312,
				"method": "rhf"
			},
			{
				"type": "unocc",
				"energy": 0.06821,
				"method": "rhf"
			},
			{
				"type": "unocc",
				"energy": 0.08373,
				"method": "rhf"
			}
		],
		"cosmo_sigma_profile": { 
			"-0.025": 0.0,
			"-0.024": 0.0,
			"-0.023": 0.0,
			"-0.022": 0.0,
			"-0.021": 0.0,
			"-0.02": 0.0,
			"-0.019": 0.0,
			"-0.018": 0.0,
			"-0.017": 0.0,
			"-0.016": 0.0,
			"-0.015": 0.0,
			"-0.014": 0.0,
			"-0.013": 0.0,
			"-0.012": 0.0,
			"-0.011": 0.0,
			"-0.01": 0.617997968239,
			"-0.009": 1.20965426225,
			"-0.008": 4.05468720903,
			"-0.007": 9.0605004121,
			"-0.006": 16.1536043229,
			"-0.005": 21.6503841864,
			"-0.004": 25.8379140142,
			"-0.003": 19.9433928005,
			"-0.002": 17.4136432218,
			"-0.001": 13.1367558718,
			"0.0": 11.474652542,
			"0.001": 10.1408087313,
			"0.002": 11.8682454021,
			"0.003": 13.1901862709,
			"0.004": 8.07695463523,
			"0.005": 3.57816659526,
			"0.006": 2.18066436507,
			"0.007": 3.56025180026,
			"0.008": 3.51015697498,
			"0.009": 3.95686434947,
			"0.01": 4.41011437282,
			"0.011": 7.42444100731,
			"0.012": 7.98776134139,
			"0.013": 1.771428115,
			"0.014": 0.855393560916,
			"0.015": 0.65380952815,
			"0.016": 0.395979480618,
			"0.017": 0.76909150661,
			"0.018": 0.615484144179,
			"0.019": 0.268972227718,
			"0.02": 0.0148414274756,
			"0.021": 0.0,
			"0.022": 0.0,
			"0.023": 0.0,
			"0.024": 0.0,
			"0.025": 0.0
		}
	}
}
