{
	 "smiles": "OC1=C2C=NN(C(=O)C3=CC=CC=C3)C2=NC=N1", 
	 "Tm": 544.15, 
	 "num_atms": 26, 
	 "gaussian": { 
		 "optdone": 1, 
		 "sigma_profile": "yes", 
		 "theory": "DFT", 
		 "functional": "B3LYP", 
		 "basiset": "6-31G**", 
		 "properties": { 
			 "R2extent": 5673.2788, 
			 "electric_dipole_moment_norm": 1.99328530823, 
			 "electric_quadrupole_moment_norm": 30.3469030201, 
			 "total_energy": -831.528131375, 
			 "HOMO_LUMO_gap": 0.18737, 
			 "cosmo_polarized_energy": -21.4, 
			 "cosmo_cavitation_energy": 31.74, 
			 "cosmo_dispersion_energy": -22.98, 
			 "cosmo_repulsion_energy": 1.75, 
			 "cosmo_total_nonelectrostatic_energy": 10.52, 
			 "SMD_solvation_energy": 3.44 
		},
		"coords": [
			{
				"x": 1.1270918087,
				"y": 5.4311846159,
				"z": -1.5787024695,
				"element": "O" 
			},
			{
				"x": 0.5715469688,
				"y": 4.2207570294,
				"z": -1.3847554216,
				"element": "C" 
			},
			{
				"x": 0.1343008119,
				"y": 3.7563260542,
				"z": -0.1272172061,
				"element": "C" 
			},
			{
				"x": 0.0267393786,
				"y": 4.1979992158,
				"z": 1.228795881,
				"element": "C" 
			},
			{
				"x": -0.5312149691,
				"y": 3.2838066269,
				"z": 1.987379235,
				"element": "N" 
			},
			{
				"x": -0.7799433269,
				"y": 2.1950734922,
				"z": 1.182453873,
				"element": "N" 
			},
			{
				"x": -1.580117225,
				"y": 1.1224247167,
				"z": 1.7352592731,
				"element": "C" 
			},
			{
				"x": -2.4061097589,
				"y": 1.3880140748,
				"z": 2.5782403425,
				"element": "O" 
			},
			{
				"x": -1.3041198251,
				"y": -0.2559804681,
				"z": 1.2576810192,
				"element": "C" 
			},
			{
				"x": -2.3289997385,
				"y": -1.2022832456,
				"z": 1.4170275545,
				"element": "C" 
			},
			{
				"x": -2.1175491748,
				"y": -2.5293248039,
				"z": 1.057043947,
				"element": "C" 
			},
			{
				"x": -0.8735745446,
				"y": -2.9267337114,
				"z": 0.5581496789,
				"element": "C" 
			},
			{
				"x": 0.1563073839,
				"y": -1.9939583465,
				"z": 0.4184734148,
				"element": "C" 
			},
			{
				"x": -0.057260651,
				"y": -0.660238481,
				"z": 0.7598416385,
				"element": "C" 
			},
			{
				"x": -0.4095394896,
				"y": 2.4555285386,
				"z": -0.1249780299,
				"element": "C" 
			},
			{
				"x": -0.5542622486,
				"y": 1.6723784702,
				"z": -1.199651416,
				"element": "N" 
			},
			{
				"x": -0.1059446626,
				"y": 2.2465084972,
				"z": -2.3153562287,
				"element": "C" 
			},
			{
				"x": 0.4492098837,
				"y": 3.4637134304,
				"z": -2.4648322208,
				"element": "N" 
			},
			{
				"x": 1.1725922268,
				"y": 5.9091085389,
				"z": -0.7394894038,
				"element": "H" 
			},
			{
				"x": 0.3338171454,
				"y": 5.1359541061,
				"z": 1.6749135489,
				"element": "H" 
			},
			{
				"x": -3.2797209146,
				"y": -0.8763020503,
				"z": 1.8249006438,
				"element": "H" 
			},
			{
				"x": -2.9172801223,
				"y": -3.2550336898,
				"z": 1.1695515684,
				"element": "H" 
			},
			{
				"x": -0.7057779343,
				"y": -3.9640645391,
				"z": 0.2829084863,
				"element": "H" 
			},
			{
				"x": 1.1262830659,
				"y": -2.3052650006,
				"z": 0.0429910556,
				"element": "H" 
			},
			{
				"x": 0.747338189,
				"y": 0.0581816504,
				"z": 0.6560600882,
				"element": "H" 
			},
			{
				"x": -0.198812277,
				"y": 1.6594252787,
				"z": -3.2260888518,
				"element": "H" 
			}
		],
		 "valence_orbital": [ 
			{
				"type": "occ",
				"energy": -0.28332,
				"method": "rhf"
			},
			{
				"type": "occ",
				"energy": -0.27605,
				"method": "rhf"
			},
			{
				"type": "occ",
				"energy": -0.26323,
				"method": "rhf"
			},
			{
				"type": "occ",
				"energy": -0.26174,
				"method": "rhf"
			},
			{
				"type": "occ",
				"energy": -0.25731,
				"method": "rhf"
			},
			{
				"type": "unocc",
				"energy": -0.06994,
				"method": "rhf"
			},
			{
				"type": "unocc",
				"energy": -0.05211,
				"method": "rhf"
			},
			{
				"type": "unocc",
				"energy": -0.01924,
				"method": "rhf"
			},
			{
				"type": "unocc",
				"energy": -0.01266,
				"method": "rhf"
			},
			{
				"type": "unocc",
				"energy": 0.01672,
				"method": "rhf"
			}
		],
		"cosmo_sigma_profile": { 
			"-0.025": 0.0,
			"-0.024": 0.0,
			"-0.023": 0.0,
			"-0.022": 0.0,
			"-0.021": 0.0,
			"-0.02": 0.182336654861,
			"-0.019": 1.55174554445,
			"-0.018": 1.25995222092,
			"-0.017": 1.38088114092,
			"-0.016": 1.1044178712,
			"-0.015": 0.843711212052,
			"-0.014": 1.10686145518,
			"-0.013": 1.69470473215,
			"-0.012": 1.55004741249,
			"-0.011": 0.962398329345,
			"-0.01": 1.70961428116,
			"-0.009": 2.41110687387,
			"-0.008": 3.60188184242,
			"-0.007": 9.36208571233,
			"-0.006": 13.7725739917,
			"-0.005": 16.7961073952,
			"-0.004": 18.3290525622,
			"-0.003": 18.798938466,
			"-0.002": 18.2063158329,
			"-0.001": 16.1061165637,
			"0.0": 13.3772272026,
			"0.001": 13.4351335906,
			"0.002": 13.2344503086,
			"0.003": 17.5404775182,
			"0.004": 10.9239040786,
			"0.005": 8.03640608559,
			"0.006": 4.47277210506,
			"0.007": 4.96989724164,
			"0.008": 6.60795078725,
			"0.009": 6.79003948334,
			"0.01": 9.50666293315,
			"0.011": 6.31949649038,
			"0.012": 4.18932149558,
			"0.013": 2.92931587522,
			"0.014": 2.73228126918,
			"0.015": 0.969617476909,
			"0.016": 0.0,
			"0.017": 0.0,
			"0.018": 0.0,
			"0.019": 0.0,
			"0.02": 0.0,
			"0.021": 0.0,
			"0.022": 0.0,
			"0.023": 0.0,
			"0.024": 0.0,
			"0.025": 0.0
		}
	}
}
