{
	 "smiles": "CN1CCN(CC1)C1CCNCC1", 
	 "Tm": 327.65, 
	 "num_atms": 34, 
	 "gaussian": { 
		 "optdone": 1, 
		 "sigma_profile": "yes", 
		 "theory": "DFT", 
		 "functional": "B3LYP", 
		 "basiset": "6-31G**", 
		 "properties": { 
			 "R2extent": 2843.167, 
			 "electric_dipole_moment_norm": 0.995756014293, 
			 "electric_quadrupole_moment_norm": 8.24277619798, 
			 "total_energy": -557.94303134, 
			 "HOMO_LUMO_gap": 0.25817, 
			 "cosmo_polarized_energy": -6.62, 
			 "cosmo_cavitation_energy": 30.81, 
			 "cosmo_dispersion_energy": -23.07, 
			 "cosmo_repulsion_energy": 1.81, 
			 "cosmo_total_nonelectrostatic_energy": 9.55, 
			 "SMD_solvation_energy": -1.59 
		},
		"coords": [
			{
				"x": -1.7151949407,
				"y": 0.5164574117,
				"z": -3.276861218,
				"element": "C" 
			},
			{
				"x": -1.5372381949,
				"y": 0.6426571672,
				"z": -1.8400983919,
				"element": "N" 
			},
			{
				"x": -1.1459479083,
				"y": -0.624582348,
				"z": -1.2233271523,
				"element": "C" 
			},
			{
				"x": -1.0452082887,
				"y": -0.4687600941,
				"z": 0.3038740603,
				"element": "C" 
			},
			{
				"x": -0.1705132889,
				"y": 0.6163964499,
				"z": 0.7347152593,
				"element": "N" 
			},
			{
				"x": -0.5072104636,
				"y": 1.8497156199,
				"z": 0.0332214709,
				"element": "C" 
			},
			{
				"x": -0.5923585454,
				"y": 1.7034164286,
				"z": -1.4943149272,
				"element": "C" 
			},
			{
				"x": 1.229745508,
				"y": 0.4048078142,
				"z": 1.1263889833,
				"element": "C" 
			},
			{
				"x": 2.2169644089,
				"y": -0.2246001713,
				"z": 0.0967086918,
				"element": "C" 
			},
			{
				"x": 2.2460712734,
				"y": -1.7578961091,
				"z": 0.1062264537,
				"element": "C" 
			},
			{
				"x": 2.5348075401,
				"y": -2.2307830405,
				"z": 1.4616484301,
				"element": "N" 
			},
			{
				"x": 1.4749310746,
				"y": -1.859995992,
				"z": 2.400151995,
				"element": "C" 
			},
			{
				"x": 1.3751307223,
				"y": -0.3306375508,
				"z": 2.4872001857,
				"element": "C" 
			},
			{
				"x": -2.4735962666,
				"y": -0.2442482013,
				"z": -3.4913716573,
				"element": "H" 
			},
			{
				"x": -0.787289781,
				"y": 0.2307780005,
				"z": -3.8108903625,
				"element": "H" 
			},
			{
				"x": -2.0621880982,
				"y": 1.468675107,
				"z": -3.692371844,
				"element": "H" 
			},
			{
				"x": -1.9096133569,
				"y": -1.3763814126,
				"z": -1.461021567,
				"element": "H" 
			},
			{
				"x": -0.1851682478,
				"y": -0.9958217532,
				"z": -1.6336693673,
				"element": "H" 
			},
			{
				"x": -0.7262113621,
				"y": -1.4109957933,
				"z": 0.7511094974,
				"element": "H" 
			},
			{
				"x": -2.0598905816,
				"y": -0.2600453556,
				"z": 0.6766462133,
				"element": "H" 
			},
			{
				"x": -1.494908622,
				"y": 2.1891487602,
				"z": 0.3820669171,
				"element": "H" 
			},
			{
				"x": 0.2177471128,
				"y": 2.6277311401,
				"z": 0.2930479389,
				"element": "H" 
			},
			{
				"x": -0.949378042,
				"y": 2.6440649823,
				"z": -1.9330113891,
				"element": "H" 
			},
			{
				"x": 0.4149066602,
				"y": 1.5090041802,
				"z": -1.9167494946,
				"element": "H" 
			},
			{
				"x": 1.5928165086,
				"y": 1.4235541714,
				"z": 1.304205561,
				"element": "H" 
			},
			{
				"x": 3.2265517466,
				"y": 0.1165656747,
				"z": 0.3592207367,
				"element": "H" 
			},
			{
				"x": 2.0027343899,
				"y": 0.1460966544,
				"z": -0.9105661761,
				"element": "H" 
			},
			{
				"x": 3.040429283,
				"y": -2.1113901165,
				"z": -0.5614107041,
				"element": "H" 
			},
			{
				"x": 1.2953738492,
				"y": -2.1607865341,
				"z": -0.2915133336,
				"element": "H" 
			},
			{
				"x": 2.6532739642,
				"y": -3.2400110718,
				"z": 1.4568879605,
				"element": "H" 
			},
			{
				"x": 0.4948922771,
				"y": -2.2962586706,
				"z": 2.1292671187,
				"element": "H" 
			},
			{
				"x": 1.7295493462,
				"y": -2.260668173,
				"z": 3.3884398475,
				"element": "H" 
			},
			{
				"x": 0.5457188276,
				"y": -0.0370833712,
				"z": 3.1383196372,
				"element": "H" 
			},
			{
				"x": 2.304171496,
				"y": 0.0216761969,
				"z": 2.9518306265,
				"element": "H" 
			}
		],
		 "valence_orbital": [ 
			{
				"type": "occ",
				"energy": -0.30843,
				"method": "rhf"
			},
			{
				"type": "occ",
				"energy": -0.30039,
				"method": "rhf"
			},
			{
				"type": "occ",
				"energy": -0.2173,
				"method": "rhf"
			},
			{
				"type": "occ",
				"energy": -0.20894,
				"method": "rhf"
			},
			{
				"type": "occ",
				"energy": -0.18509,
				"method": "rhf"
			},
			{
				"type": "unocc",
				"energy": 0.07308,
				"method": "rhf"
			},
			{
				"type": "unocc",
				"energy": 0.09334,
				"method": "rhf"
			},
			{
				"type": "unocc",
				"energy": 0.09767,
				"method": "rhf"
			},
			{
				"type": "unocc",
				"energy": 0.11315,
				"method": "rhf"
			},
			{
				"type": "unocc",
				"energy": 0.11851,
				"method": "rhf"
			}
		],
		"cosmo_sigma_profile": { 
			"-0.025": 0.0,
			"-0.024": 0.0,
			"-0.023": 0.0,
			"-0.022": 0.0,
			"-0.021": 0.0,
			"-0.02": 0.0,
			"-0.019": 0.0,
			"-0.018": 0.0,
			"-0.017": 0.0,
			"-0.016": 0.0,
			"-0.015": 0.0,
			"-0.014": 0.0,
			"-0.013": 0.0,
			"-0.012": 0.0,
			"-0.011": 0.0,
			"-0.01": 0.50824734679,
			"-0.009": 1.42990001862,
			"-0.008": 0.695837319251,
			"-0.007": 1.34371642097,
			"-0.006": 1.58200235598,
			"-0.005": 1.47503502333,
			"-0.004": 8.62718980873,
			"-0.003": 25.2543302519,
			"-0.002": 40.7505048652,
			"-0.001": 50.1799421173,
			"0.0": 43.9576710135,
			"0.001": 22.1031625762,
			"0.002": 6.87941292709,
			"0.003": 4.15939828045,
			"0.004": 3.56316147507,
			"0.005": 3.03443096285,
			"0.006": 2.43011318196,
			"0.007": 3.00604221142,
			"0.008": 2.54643551224,
			"0.009": 1.75985309316,
			"0.01": 1.80704894609,
			"0.011": 1.59440017421,
			"0.012": 2.00769537936,
			"0.013": 1.36546746459,
			"0.014": 0.698822114761,
			"0.015": 1.32048997021,
			"0.016": 0.421750836376,
			"0.017": 0.923652216958,
			"0.018": 0.521237449128,
			"0.019": 0.12184247322,
			"0.02": 0.0,
			"0.021": 0.0,
			"0.022": 0.0,
			"0.023": 0.0,
			"0.024": 0.0,
			"0.025": 0.0
		}
	}
}
