{
	 "smiles": "COC1=C(C=CC=C1)C1=CNC=C1C(O)=O", 
	 "Tm": 469.15, 
	 "num_atms": 27, 
	 "gaussian": { 
		 "optdone": 1, 
		 "sigma_profile": "yes", 
		 "theory": "DFT", 
		 "functional": "B3LYP", 
		 "basiset": "6-31G**", 
		 "properties": { 
			 "R2extent": 4256.5128, 
			 "electric_dipole_moment_norm": 4.21442210866, 
			 "electric_quadrupole_moment_norm": 16.1815320616, 
			 "total_energy": -744.326698659, 
			 "HOMO_LUMO_gap": 0.18106, 
			 "cosmo_polarized_energy": -18.35, 
			 "cosmo_cavitation_energy": 31.07, 
			 "cosmo_dispersion_energy": -22.67, 
			 "cosmo_repulsion_energy": 1.77, 
			 "cosmo_total_nonelectrostatic_energy": 10.17, 
			 "SMD_solvation_energy": 7.29 
		},
		"coords": [
			{
				"x": 3.7352126572,
				"y": 1.4440893121,
				"z": 1.0515405018,
				"element": "C" 
			},
			{
				"x": 2.3404905189,
				"y": 1.2229234455,
				"z": 0.9376107458,
				"element": "O" 
			},
			{
				"x": 1.8384505123,
				"y": 0.8098923549,
				"z": -0.2701108696,
				"element": "C" 
			},
			{
				"x": 0.4270176624,
				"y": 0.7144617794,
				"z": -0.3730338453,
				"element": "C" 
			},
			{
				"x": -0.1046736068,
				"y": 0.2765746715,
				"z": -1.5932991141,
				"element": "C" 
			},
			{
				"x": 0.7066525914,
				"y": -0.0468446325,
				"z": -2.6804973021,
				"element": "C" 
			},
			{
				"x": 2.0884776779,
				"y": 0.0640534744,
				"z": -2.5622735115,
				"element": "C" 
			},
			{
				"x": 2.6553232536,
				"y": 0.4922860693,
				"z": -1.3601506791,
				"element": "C" 
			},
			{
				"x": -0.4554666744,
				"y": 1.0256085368,
				"z": 0.7726511867,
				"element": "C" 
			},
			{
				"x": -0.1953131887,
				"y": 0.6800506346,
				"z": 2.0840989962,
				"element": "C" 
			},
			{
				"x": -1.2519070496,
				"y": 1.0824535454,
				"z": 2.8696306126,
				"element": "N" 
			},
			{
				"x": -2.1944418538,
				"y": 1.6933947801,
				"z": 2.103871693,
				"element": "C" 
			},
			{
				"x": -1.7482698532,
				"y": 1.6842566587,
				"z": 0.7899018706,
				"element": "C" 
			},
			{
				"x": -2.4896577792,
				"y": 2.3310297144,
				"z": -0.2950279151,
				"element": "C" 
			},
			{
				"x": -3.6554450836,
				"y": 2.8913920215,
				"z": 0.1525948934,
				"element": "O" 
			},
			{
				"x": -2.1742056444,
				"y": 2.410425822,
				"z": -1.4679298833,
				"element": "O" 
			},
			{
				"x": 3.8987990079,
				"y": 1.8184622836,
				"z": 2.0638843625,
				"element": "H" 
			},
			{
				"x": 4.0881321106,
				"y": 2.1920343977,
				"z": 0.3299851916,
				"element": "H" 
			},
			{
				"x": 4.3098498567,
				"y": 0.5183836503,
				"z": 0.914634008,
				"element": "H" 
			},
			{
				"x": -1.1800440606,
				"y": 0.2040641792,
				"z": -1.6904110844,
				"element": "H" 
			},
			{
				"x": 0.2565573592,
				"y": -0.3801558326,
				"z": -3.6104019727,
				"element": "H" 
			},
			{
				"x": 2.736370484,
				"y": -0.1816814009,
				"z": -3.3990165683,
				"element": "H" 
			},
			{
				"x": 3.7325849184,
				"y": 0.5728141275,
				"z": -1.2797696999,
				"element": "H" 
			},
			{
				"x": 0.6616497162,
				"y": 0.183774076,
				"z": 2.5081504753,
				"element": "H" 
			},
			{
				"x": -1.311957375,
				"y": 0.9510621656,
				"z": 3.8668259,
				"element": "H" 
			},
			{
				"x": -3.1005875942,
				"y": 2.1036361608,
				"z": 2.520125463,
				"element": "H" 
			},
			{
				"x": -4.056798563,
				"y": 3.2921580048,
				"z": -0.6351834551,
				"element": "H" 
			}
		],
		 "valence_orbital": [ 
			{
				"type": "occ",
				"energy": -0.2685,
				"method": "rhf"
			},
			{
				"type": "occ",
				"energy": -0.25723,
				"method": "rhf"
			},
			{
				"type": "occ",
				"energy": -0.23258,
				"method": "rhf"
			},
			{
				"type": "occ",
				"energy": -0.2181,
				"method": "rhf"
			},
			{
				"type": "occ",
				"energy": -0.19643,
				"method": "rhf"
			},
			{
				"type": "unocc",
				"energy": -0.01537,
				"method": "rhf"
			},
			{
				"type": "unocc",
				"energy": 0.00666,
				"method": "rhf"
			},
			{
				"type": "unocc",
				"energy": 0.02502,
				"method": "rhf"
			},
			{
				"type": "unocc",
				"energy": 0.05803,
				"method": "rhf"
			},
			{
				"type": "unocc",
				"energy": 0.07014,
				"method": "rhf"
			}
		],
		"cosmo_sigma_profile": { 
			"-0.025": 0.0,
			"-0.024": 0.0,
			"-0.023": 0.0,
			"-0.022": 0.0,
			"-0.021": 0.0,
			"-0.02": 0.0,
			"-0.019": 0.0,
			"-0.018": 0.0608896439871,
			"-0.017": 1.31855525801,
			"-0.016": 2.45205973369,
			"-0.015": 2.34937003036,
			"-0.014": 2.43332251989,
			"-0.013": 1.62861609584,
			"-0.012": 1.37658657308,
			"-0.011": 2.04562111518,
			"-0.01": 1.66507977923,
			"-0.009": 2.75443640413,
			"-0.008": 4.09272211742,
			"-0.007": 4.02183719015,
			"-0.006": 8.29050133348,
			"-0.005": 17.9378211786,
			"-0.004": 17.0198739954,
			"-0.003": 19.3531451892,
			"-0.002": 13.8363860325,
			"-0.001": 12.4474797142,
			"0.0": 12.628344606,
			"0.001": 12.1841863476,
			"0.002": 14.8401934136,
			"0.003": 17.3236712009,
			"0.004": 16.6141116449,
			"0.005": 17.0341342531,
			"0.006": 12.3396638995,
			"0.007": 7.71755687475,
			"0.008": 5.37022848142,
			"0.009": 3.60468729358,
			"0.01": 2.83019675807,
			"0.011": 3.57079855187,
			"0.012": 3.63572377932,
			"0.013": 3.12445452836,
			"0.014": 0.0327276276907,
			"0.015": 0.0,
			"0.016": 0.0,
			"0.017": 0.0,
			"0.018": 0.0,
			"0.019": 0.0,
			"0.02": 0.0,
			"0.021": 0.0,
			"0.022": 0.0,
			"0.023": 0.0,
			"0.024": 0.0,
			"0.025": 0.0
		}
	}
}
