{
	 "smiles": "CCC(C)(C)O", 
	 "Tm": 263.15, 
	 "num_atms": 18, 
	 "gaussian": { 
		 "optdone": 1, 
		 "sigma_profile": "yes", 
		 "theory": "DFT", 
		 "functional": "B3LYP", 
		 "basiset": "6-31G**", 
		 "properties": { 
			 "R2extent": 918.8295, 
			 "electric_dipole_moment_norm": 1.4282866309, 
			 "electric_quadrupole_moment_norm": 4.42280186646, 
			 "total_energy": -272.998615189, 
			 "HOMO_LUMO_gap": 0.32955, 
			 "cosmo_polarized_energy": -5.71, 
			 "cosmo_cavitation_energy": 19.29, 
			 "cosmo_dispersion_energy": -14.04, 
			 "cosmo_repulsion_energy": 1.2, 
			 "cosmo_total_nonelectrostatic_energy": 6.44, 
			 "SMD_solvation_energy": 3.56 
		},
		"coords": [
			{
				"x": -1.3726164753,
				"y": 1.481887631,
				"z": -1.7345069162,
				"element": "C" 
			},
			{
				"x": -1.188892337,
				"y": -0.0282492143,
				"z": -1.556045034,
				"element": "C" 
			},
			{
				"x": 0.1986365792,
				"y": -0.4953353848,
				"z": -1.0747885398,
				"element": "C" 
			},
			{
				"x": 0.5350246062,
				"y": 0.0477234027,
				"z": 0.3226337748,
				"element": "C" 
			},
			{
				"x": 1.3050524515,
				"y": -0.1416019555,
				"z": -2.0805372664,
				"element": "C" 
			},
			{
				"x": 0.0635176045,
				"y": -1.9255348333,
				"z": -1.0053933295,
				"element": "O" 
			},
			{
				"x": -0.6831138689,
				"y": 1.8950299918,
				"z": -2.4780262051,
				"element": "H" 
			},
			{
				"x": -1.2204991778,
				"y": 2.0282851113,
				"z": -0.797883245,
				"element": "H" 
			},
			{
				"x": -2.3888239683,
				"y": 1.7017245014,
				"z": -2.0769867347,
				"element": "H" 
			},
			{
				"x": -1.9251442273,
				"y": -0.4096443135,
				"z": -0.8384948956,
				"element": "H" 
			},
			{
				"x": -1.3920413049,
				"y": -0.5414770265,
				"z": -2.5035396882,
				"element": "H" 
			},
			{
				"x": -0.2440751713,
				"y": -0.2347525462,
				"z": 1.0371723027,
				"element": "H" 
			},
			{
				"x": 1.4865339929,
				"y": -0.3689872462,
				"z": 0.6754397993,
				"element": "H" 
			},
			{
				"x": 0.6355959323,
				"y": 1.1375305833,
				"z": 0.3282383661,
				"element": "H" 
			},
			{
				"x": 1.0702765013,
				"y": -0.5577236261,
				"z": -3.0649509315,
				"element": "H" 
			},
			{
				"x": 2.2652239226,
				"y": -0.5606691726,
				"z": -1.7550301435,
				"element": "H" 
			},
			{
				"x": 1.4400598766,
				"y": 0.9397726574,
				"z": -2.1815594856,
				"element": "H" 
			},
			{
				"x": 0.9097850637,
				"y": -2.2840785598,
				"z": -0.7057418279,
				"element": "H" 
			}
		],
		 "valence_orbital": [ 
			{
				"type": "occ",
				"energy": -0.35134,
				"method": "rhf"
			},
			{
				"type": "occ",
				"energy": -0.34123,
				"method": "rhf"
			},
			{
				"type": "occ",
				"energy": -0.32762,
				"method": "rhf"
			},
			{
				"type": "occ",
				"energy": -0.30348,
				"method": "rhf"
			},
			{
				"type": "occ",
				"energy": -0.25927,
				"method": "rhf"
			},
			{
				"type": "unocc",
				"energy": 0.07028,
				"method": "rhf"
			},
			{
				"type": "unocc",
				"energy": 0.10579,
				"method": "rhf"
			},
			{
				"type": "unocc",
				"energy": 0.12645,
				"method": "rhf"
			},
			{
				"type": "unocc",
				"energy": 0.13524,
				"method": "rhf"
			},
			{
				"type": "unocc",
				"energy": 0.14497,
				"method": "rhf"
			}
		],
		"cosmo_sigma_profile": { 
			"-0.025": 0.0,
			"-0.024": 0.0,
			"-0.023": 0.0,
			"-0.022": 0.0,
			"-0.021": 0.0,
			"-0.02": 0.0,
			"-0.019": 0.0,
			"-0.018": 0.0,
			"-0.017": 0.0,
			"-0.016": 0.0,
			"-0.015": 0.0514824302425,
			"-0.014": 0.826597255215,
			"-0.013": 0.979502146356,
			"-0.012": 0.901411507706,
			"-0.011": 0.750104895501,
			"-0.01": 0.999105593295,
			"-0.009": 1.16818765741,
			"-0.008": 0.696131869882,
			"-0.007": 1.08750369455,
			"-0.006": 1.70444971165,
			"-0.005": 1.5420292123,
			"-0.004": 2.36511742117,
			"-0.003": 13.668496931,
			"-0.002": 21.4569865808,
			"-0.001": 22.7392060609,
			"0.0": 23.6610184512,
			"0.001": 25.3914988668,
			"0.002": 9.12440259059,
			"0.003": 1.48624597772,
			"0.004": 1.38387573355,
			"0.005": 2.08976045919,
			"0.006": 1.40803642415,
			"0.007": 1.10838151508,
			"0.008": 1.51600795239,
			"0.009": 1.01542388724,
			"0.01": 1.19332463664,
			"0.011": 1.72843995325,
			"0.012": 0.861114899118,
			"0.013": 1.24585488726,
			"0.014": 1.99436059269,
			"0.015": 1.62217051282,
			"0.016": 0.00590698534194,
			"0.017": 0.0,
			"0.018": 0.0,
			"0.019": 0.0,
			"0.02": 0.0,
			"0.021": 0.0,
			"0.022": 0.0,
			"0.023": 0.0,
			"0.024": 0.0,
			"0.025": 0.0
		}
	}
}
