{
	 "smiles": "CCF", 
	 "Tm": 130.15, 
	 "num_atms": 8, 
	 "gaussian": { 
		 "optdone": 1, 
		 "sigma_profile": "yes", 
		 "theory": "DFT", 
		 "functional": "B3LYP", 
		 "basiset": "6-31G**", 
		 "properties": { 
			 "R2extent": 459.3208, 
			 "electric_dipole_moment_norm": 1.71143909912, 
			 "electric_quadrupole_moment_norm": 3.27220066927, 
			 "total_energy": -179.060863996, 
			 "HOMO_LUMO_gap": 0.42326, 
			 "cosmo_polarized_energy": -2.68, 
			 "cosmo_cavitation_energy": 11.09, 
			 "cosmo_dispersion_energy": -8.28, 
			 "cosmo_repulsion_energy": 0.79, 
			 "cosmo_total_nonelectrostatic_energy": 3.6, 
			 "SMD_solvation_energy": 2.91 
		},
		"coords": [
			{
				"x": 1.959593626,
				"y": -1.2513409369,
				"z": -0.944654535,
				"element": "C" 
			},
			{
				"x": 1.3634136795,
				"y": 0.131130874,
				"z": -1.1235357178,
				"element": "C" 
			},
			{
				"x": 0.0746174095,
				"y": 0.0268306377,
				"z": -1.6407878822,
				"element": "F" 
			},
			{
				"x": 2.9738711368,
				"y": -1.1785288528,
				"z": -0.5379445319,
				"element": "H" 
			},
			{
				"x": 1.3529286346,
				"y": -1.8458786866,
				"z": -0.2555475544,
				"element": "H" 
			},
			{
				"x": 2.008533651,
				"y": -1.7763212779,
				"z": -1.9029790582,
				"element": "H" 
			},
			{
				"x": 1.3040648608,
				"y": 0.6656500175,
				"z": -0.1667063771,
				"element": "H" 
			},
			{
				"x": 1.9611770019,
				"y": 0.735358225,
				"z": -1.8180443433,
				"element": "H" 
			}
		],
		 "valence_orbital": [ 
			{
				"type": "occ",
				"energy": -0.43921,
				"method": "rhf"
			},
			{
				"type": "occ",
				"energy": -0.39018,
				"method": "rhf"
			},
			{
				"type": "occ",
				"energy": -0.38847,
				"method": "rhf"
			},
			{
				"type": "occ",
				"energy": -0.32568,
				"method": "rhf"
			},
			{
				"type": "occ",
				"energy": -0.32102,
				"method": "rhf"
			},
			{
				"type": "unocc",
				"energy": 0.10224,
				"method": "rhf"
			},
			{
				"type": "unocc",
				"energy": 0.1263,
				"method": "rhf"
			},
			{
				"type": "unocc",
				"energy": 0.14754,
				"method": "rhf"
			},
			{
				"type": "unocc",
				"energy": 0.15444,
				"method": "rhf"
			},
			{
				"type": "unocc",
				"energy": 0.17806,
				"method": "rhf"
			}
		],
		"cosmo_sigma_profile": { 
			"-0.025": 0.0,
			"-0.024": 0.0,
			"-0.023": 0.0,
			"-0.022": 0.0,
			"-0.021": 0.0,
			"-0.02": 0.0,
			"-0.019": 0.0,
			"-0.018": 0.0,
			"-0.017": 0.0,
			"-0.016": 0.0,
			"-0.015": 0.0,
			"-0.014": 0.0,
			"-0.013": 0.0,
			"-0.012": 0.0,
			"-0.011": 0.0,
			"-0.01": 0.0,
			"-0.009": 0.0,
			"-0.008": 0.0,
			"-0.007": 0.0,
			"-0.006": 0.0107917811562,
			"-0.005": 4.99621510662,
			"-0.004": 13.0831447793,
			"-0.003": 13.3713572019,
			"-0.002": 9.89989383176,
			"-0.001": 7.27357835616,
			"0.0": 8.66223382799,
			"0.001": 4.79130287853,
			"0.002": 2.01134020973,
			"0.003": 2.12070873006,
			"0.004": 2.04381405233,
			"0.005": 2.06101160927,
			"0.006": 5.05555905322,
			"0.007": 9.85102014381,
			"0.008": 1.41849185809,
			"0.009": 0.0,
			"0.01": 0.0,
			"0.011": 0.0,
			"0.012": 0.0,
			"0.013": 0.0,
			"0.014": 0.0,
			"0.015": 0.0,
			"0.016": 0.0,
			"0.017": 0.0,
			"0.018": 0.0,
			"0.019": 0.0,
			"0.02": 0.0,
			"0.021": 0.0,
			"0.022": 0.0,
			"0.023": 0.0,
			"0.024": 0.0,
			"0.025": 0.0
		}
	}
}
