{
	 "smiles": "CS(=O)(=O)CC1=NC2=C(C=CC=C2)N1CC(O)=O", 
	 "Tm": 523.15, 
	 "num_atms": 30, 
	 "gaussian": { 
		 "optdone": 1, 
		 "sigma_profile": "yes", 
		 "theory": "DFT", 
		 "functional": "B3LYP", 
		 "basiset": "6-31G**", 
		 "properties": { 
			 "R2extent": 5134.2306, 
			 "electric_dipole_moment_norm": 4.18742779042, 
			 "electric_quadrupole_moment_norm": 19.1014896699, 
			 "total_energy": -1234.94647894, 
			 "HOMO_LUMO_gap": 0.19675, 
			 "cosmo_polarized_energy": -28.31, 
			 "cosmo_cavitation_energy": 35.25, 
			 "cosmo_dispersion_energy": -25.17, 
			 "cosmo_repulsion_energy": 1.9, 
			 "cosmo_total_nonelectrostatic_energy": 11.98, 
			 "SMD_solvation_energy": 4.9 
		},
		"coords": [
			{
				"x": 0.6609837602,
				"y": 3.2436153642,
				"z": 1.3742860452,
				"element": "C" 
			},
			{
				"x": -0.2276088371,
				"y": 1.9327213748,
				"z": 2.2387352211,
				"element": "S" 
			},
			{
				"x": -0.2628289409,
				"y": 2.2421705813,
				"z": 3.674616965,
				"element": "O" 
			},
			{
				"x": -1.4857030742,
				"y": 1.6774378012,
				"z": 1.5050351061,
				"element": "O" 
			},
			{
				"x": 0.8454296025,
				"y": 0.4578942513,
				"z": 2.0207656083,
				"element": "C" 
			},
			{
				"x": 0.9855670646,
				"y": 0.0097316703,
				"z": 0.6087532062,
				"element": "C" 
			},
			{
				"x": 2.0090781518,
				"y": 0.3397316809,
				"z": -0.1460981266,
				"element": "N" 
			},
			{
				"x": 1.7784803049,
				"y": -0.2815338356,
				"z": -1.3623535981,
				"element": "C" 
			},
			{
				"x": 0.5633030794,
				"y": -1.0040922541,
				"z": -1.3184800167,
				"element": "C" 
			},
			{
				"x": 0.0877628413,
				"y": -1.7313625899,
				"z": -2.4125108802,
				"element": "C" 
			},
			{
				"x": 0.8687626572,
				"y": -1.7127326427,
				"z": -3.5649217926,
				"element": "C" 
			},
			{
				"x": 2.0818452072,
				"y": -0.9964007909,
				"z": -3.6247955877,
				"element": "C" 
			},
			{
				"x": 2.5501785647,
				"y": -0.2767392604,
				"z": -2.5317206269,
				"element": "C" 
			},
			{
				"x": 0.0599232969,
				"y": -0.7901186496,
				"z": -0.0419443166,
				"element": "N" 
			},
			{
				"x": -1.1969765618,
				"y": -1.2838657256,
				"z": 0.472662317,
				"element": "C" 
			},
			{
				"x": -1.0323989297,
				"y": -2.4478200426,
				"z": 1.4574520903,
				"element": "C" 
			},
			{
				"x": -2.1834194535,
				"y": -3.0868572317,
				"z": 1.7735618922,
				"element": "O" 
			},
			{
				"x": 0.0120652252,
				"y": -2.7609974,
				"z": 1.9664074425,
				"element": "O" 
			},
			{
				"x": -0.018664331,
				"y": 4.0966181829,
				"z": 1.33592352,
				"element": "H" 
			},
			{
				"x": 1.5582814741,
				"y": 3.4919875113,
				"z": 1.9423125089,
				"element": "H" 
			},
			{
				"x": 0.9169783861,
				"y": 2.9007182556,
				"z": 0.3710995628,
				"element": "H" 
			},
			{
				"x": 0.4022255825,
				"y": -0.3008747564,
				"z": 2.67055771,
				"element": "H" 
			},
			{
				"x": 1.8277759913,
				"y": 0.7243528315,
				"z": 2.4142182392,
				"element": "H" 
			},
			{
				"x": -0.8395639118,
				"y": -2.2951703008,
				"z": -2.3779911163,
				"element": "H" 
			},
			{
				"x": 0.5367040113,
				"y": -2.2674658474,
				"z": -4.4372762425,
				"element": "H" 
			},
			{
				"x": 2.6591138019,
				"y": -1.0125598006,
				"z": -4.5441984798,
				"element": "H" 
			},
			{
				"x": 3.4840117317,
				"y": 0.2747005497,
				"z": -2.5670778945,
				"element": "H" 
			},
			{
				"x": -1.7271992553,
				"y": -0.4647358134,
				"z": 0.9757935574,
				"element": "H" 
			},
			{
				"x": -1.8160765066,
				"y": -1.5926295689,
				"z": -0.3753166247,
				"element": "H" 
			},
			{
				"x": -2.9379309329,
				"y": -2.7073235444,
				"z": 1.2994043109,
				"element": "H" 
			}
		],
		 "valence_orbital": [ 
			{
				"type": "occ",
				"energy": -0.30024,
				"method": "rhf"
			},
			{
				"type": "occ",
				"energy": -0.29264,
				"method": "rhf"
			},
			{
				"type": "occ",
				"energy": -0.28677,
				"method": "rhf"
			},
			{
				"type": "occ",
				"energy": -0.23709,
				"method": "rhf"
			},
			{
				"type": "occ",
				"energy": -0.23432,
				"method": "rhf"
			},
			{
				"type": "unocc",
				"energy": -0.03757,
				"method": "rhf"
			},
			{
				"type": "unocc",
				"energy": -0.01225,
				"method": "rhf"
			},
			{
				"type": "unocc",
				"energy": 0.00782,
				"method": "rhf"
			},
			{
				"type": "unocc",
				"energy": 0.02539,
				"method": "rhf"
			},
			{
				"type": "unocc",
				"energy": 0.03427,
				"method": "rhf"
			}
		],
		"cosmo_sigma_profile": { 
			"-0.025": 0.0,
			"-0.024": 0.0,
			"-0.023": 0.0,
			"-0.022": 0.0,
			"-0.021": 0.0653020499483,
			"-0.02": 1.3566450485,
			"-0.019": 1.30833798426,
			"-0.018": 1.32677853192,
			"-0.017": 1.12480423884,
			"-0.016": 1.23176120072,
			"-0.015": 1.15835682689,
			"-0.014": 1.27464741391,
			"-0.013": 1.38145697931,
			"-0.012": 2.19866500154,
			"-0.011": 4.3645237459,
			"-0.01": 6.41004598094,
			"-0.009": 8.63152317242,
			"-0.008": 9.4173343844,
			"-0.007": 10.2493462423,
			"-0.006": 14.3753179376,
			"-0.005": 16.721298822,
			"-0.004": 17.0857779836,
			"-0.003": 13.5467406769,
			"-0.002": 11.1613154322,
			"-0.001": 9.92072752358,
			"0.0": 12.2313391691,
			"0.001": 11.3313262117,
			"0.002": 13.8404068438,
			"0.003": 13.622441291,
			"0.004": 16.4452601668,
			"0.005": 13.8049900115,
			"0.006": 9.20657890033,
			"0.007": 5.62789068757,
			"0.008": 6.62184669244,
			"0.009": 9.07607192666,
			"0.01": 9.94445123388,
			"0.011": 14.4992444553,
			"0.012": 8.00274930767,
			"0.013": 1.0634879271,
			"0.014": 0.723471078005,
			"0.015": 0.396968518262,
			"0.016": 0.593338142276,
			"0.017": 0.0662832941477,
			"0.018": 0.0,
			"0.019": 0.0,
			"0.02": 0.0,
			"0.021": 0.0,
			"0.022": 0.0,
			"0.023": 0.0,
			"0.024": 0.0,
			"0.025": 0.0
		}
	}
}
