{
	 "smiles": "FC(F)(F)OC(F)(I)C(F)(F)F", 
	 "Tm": 317.15, 
	 "num_atms": 12, 
	 "gaussian": { 
		 "optdone": 1, 
		 "sigma_profile": "no", 
		 "theory": "DFT", 
		 "functional": "B3LYP", 
		 "basiset": "6-31G**", 
		 "properties": { 
			 "R2extent": 2103.4822, 
			 "electric_dipole_moment_norm": 0.343146761605, 
			 "electric_quadrupole_moment_norm": 2.73330885741, 
			 "total_energy": -899.79129059, 
			 "HOMO_LUMO_gap": 0.20319, 
			 "cosmo_polarized_energy": -80759.05, 
			 "cosmo_cavitation_energy": 23.17, 
			 "cosmo_dispersion_energy": -16.92, 
			 "cosmo_repulsion_energy": 1.2, 
			 "cosmo_total_nonelectrostatic_energy": 7.46, 
			 "SMD_solvation_energy": 6.04 
		},
		"coords": [
			{
				"x": 0.594398699,
				"y": -1.9752877561,
				"z": 0.9766046438,
				"element": "F" 
			},
			{
				"x": 0.1605434648,
				"y": -0.723787862,
				"z": 0.8932161938,
				"element": "C" 
			},
			{
				"x": -0.9244395852,
				"y": -0.5855558138,
				"z": 1.6584825948,
				"element": "F" 
			},
			{
				"x": 1.1048954279,
				"y": 0.1061874694,
				"z": 1.3443541861,
				"element": "F" 
			},
			{
				"x": -0.1367773677,
				"y": -0.5038214064,
				"z": -0.4405655471,
				"element": "O" 
			},
			{
				"x": -0.3569085865,
				"y": 0.7770174206,
				"z": -0.9127436379,
				"element": "C" 
			},
			{
				"x": -0.9449999702,
				"y": 1.5624234244,
				"z": 0.018248523,
				"element": "F" 
			},
			{
				"x": 1.5074655048,
				"y": 1.7557277086,
				"z": -1.5778923568,
				"element": "I" 
			},
			{
				"x": -1.3464547403,
				"y": 0.6314504691,
				"z": -2.1004747837,
				"element": "C" 
			},
			{
				"x": -0.8427212498,
				"y": -0.1659319601,
				"z": -3.0452407603,
				"element": "F" 
			},
			{
				"x": -1.6179401853,
				"y": 1.8290918167,
				"z": -2.6260909231,
				"element": "F" 
			},
			{
				"x": -2.4869614114,
				"y": 0.0977864896,
				"z": -1.6420981326,
				"element": "F" 
			}
		],
		 "valence_orbital": [ 
			{
				"type": "occ",
				"energy": -0.41871,
				"method": "rhf"
			},
			{
				"type": "occ",
				"energy": -0.41281,
				"method": "rhf"
			},
			{
				"type": "occ",
				"energy": -0.34593,
				"method": "rhf"
			},
			{
				"type": "occ",
				"energy": -0.29049,
				"method": "rhf"
			},
			{
				"type": "occ",
				"energy": -0.28929,
				"method": "rhf"
			},
			{
				"type": "unocc",
				"energy": -0.0861,
				"method": "rhf"
			},
			{
				"type": "unocc",
				"energy": 0.04334,
				"method": "rhf"
			},
			{
				"type": "unocc",
				"energy": 0.04484,
				"method": "rhf"
			},
			{
				"type": "unocc",
				"energy": 0.04833,
				"method": "rhf"
			},
			{
				"type": "unocc",
				"energy": 0.05581,
				"method": "rhf"
			}
		],
		"cosmo_sigma_profile": { 
			"0.0": 0.0,
			"0.0": 0.0,
			"0.0": 0.0,
			"0.0": 0.0,
			"0.0": 0.0,
			"0.0": 0.0,
			"0.0": 0.0,
			"0.0": 0.0,
			"0.0": 0.0,
			"0.0": 0.0,
			"0.0": 0.0,
			"0.0": 0.0,
			"0.0": 0.0,
			"0.0": 0.0,
			"0.0": 0.0,
			"0.0": 0.0,
			"0.0": 0.0,
			"0.0": 0.0,
			"0.0": 0.0,
			"0.0": 0.0,
			"0.0": 0.0,
			"0.0": 0.0,
			"0.0": 0.0,
			"0.0": 0.0,
			"0.0": 0.0,
			"0.0": 0.0,
			"0.0": 0.0,
			"0.0": 0.0,
			"0.0": 0.0,
			"0.0": 0.0,
			"0.0": 0.0,
			"0.0": 0.0,
			"0.0": 0.0,
			"0.0": 0.0,
			"0.0": 0.0,
			"0.0": 0.0,
			"0.0": 0.0,
			"0.0": 0.0,
			"0.0": 0.0,
			"0.0": 0.0,
			"0.0": 0.0,
			"0.0": 0.0,
			"0.0": 0.0,
			"0.0": 0.0,
			"0.0": 0.0,
			"0.0": 0.0,
			"0.0": 0.0,
			"0.0": 0.0,
			"0.0": 0.0,
			"0.0": 0.0,
			"0.0": 0.0
		}
	}
}
