{
	 "smiles": "CN(CC(O)=O)C(=O)C1=CC=CC=C1", 
	 "Tm": 376.15, 
	 "num_atms": 25, 
	 "gaussian": { 
		 "optdone": 1, 
		 "sigma_profile": "yes", 
		 "theory": "DFT", 
		 "functional": "B3LYP", 
		 "basiset": "6-31G**", 
		 "properties": { 
			 "R2extent": 3405.7536, 
			 "electric_dipole_moment_norm": 1.7826844589, 
			 "electric_quadrupole_moment_norm": 17.5087483822, 
			 "total_energy": -668.134492362, 
			 "HOMO_LUMO_gap": 0.20878, 
			 "cosmo_polarized_energy": -16.35, 
			 "cosmo_cavitation_energy": 29.35, 
			 "cosmo_dispersion_energy": -20.49, 
			 "cosmo_repulsion_energy": 1.64, 
			 "cosmo_total_nonelectrostatic_energy": 10.51, 
			 "SMD_solvation_energy": 6.57 
		},
		"coords": [
			{
				"x": 3.413200026,
				"y": -1.3269376484,
				"z": 1.2542715005,
				"element": "C" 
			},
			{
				"x": 2.2878425765,
				"y": -1.192462034,
				"z": 0.3308457126,
				"element": "N" 
			},
			{
				"x": 2.4185490877,
				"y": -0.1496724513,
				"z": -0.6689397556,
				"element": "C" 
			},
			{
				"x": 2.4381686509,
				"y": 1.284811052,
				"z": -0.1380429786,
				"element": "C" 
			},
			{
				"x": 1.7604755545,
				"y": 1.4198299252,
				"z": 1.0222122605,
				"element": "O" 
			},
			{
				"x": 2.9639713545,
				"y": 2.2081333421,
				"z": -0.7162890283,
				"element": "O" 
			},
			{
				"x": 1.0655034865,
				"y": -1.6857924348,
				"z": 0.7624798706,
				"element": "C" 
			},
			{
				"x": 0.934719892,
				"y": -2.1845480065,
				"z": 1.8746414514,
				"element": "O" 
			},
			{
				"x": -0.0960781135,
				"y": -1.662213451,
				"z": -0.1950088998,
				"element": "C" 
			},
			{
				"x": -1.3516139727,
				"y": -1.2946107967,
				"z": 0.3066594812,
				"element": "C" 
			},
			{
				"x": -2.4757240381,
				"y": -1.3301958082,
				"z": -0.5160555009,
				"element": "C" 
			},
			{
				"x": -2.3622510615,
				"y": -1.7610282056,
				"z": -1.8405768774,
				"element": "C" 
			},
			{
				"x": -1.1201588942,
				"y": -2.1585286979,
				"z": -2.3384500172,
				"element": "C" 
			},
			{
				"x": 0.0100488728,
				"y": -2.1061466734,
				"z": -1.5210196496,
				"element": "C" 
			},
			{
				"x": 4.3442474414,
				"y": -1.3540089847,
				"z": 0.6799190907,
				"element": "H" 
			},
			{
				"x": 3.2975294139,
				"y": -2.2515390462,
				"z": 1.8173495296,
				"element": "H" 
			},
			{
				"x": 3.4551218753,
				"y": -0.494760783,
				"z": 1.9678415566,
				"element": "H" 
			},
			{
				"x": 3.3406394198,
				"y": -0.281284776,
				"z": -1.2434421665,
				"element": "H" 
			},
			{
				"x": 1.5876846841,
				"y": -0.2002200914,
				"z": -1.3757648195,
				"element": "H" 
			},
			{
				"x": 1.8016749638,
				"y": 2.3627583635,
				"z": 1.255621405,
				"element": "H" 
			},
			{
				"x": -1.4310728344,
				"y": -0.9905372524,
				"z": 1.345204185,
				"element": "H" 
			},
			{
				"x": -3.4428326077,
				"y": -1.0311193443,
				"z": -0.1223911899,
				"element": "H" 
			},
			{
				"x": -3.2404095033,
				"y": -1.7961879251,
				"z": -2.478864943,
				"element": "H" 
			},
			{
				"x": -1.0308780147,
				"y": -2.5153985758,
				"z": -3.3604199061,
				"element": "H" 
			},
			{
				"x": 0.9716417405,
				"y": -2.4360396961,
				"z": -1.9042803113,
				"element": "H" 
			}
		],
		 "valence_orbital": [ 
			{
				"type": "occ",
				"energy": -0.29753,
				"method": "rhf"
			},
			{
				"type": "occ",
				"energy": -0.26817,
				"method": "rhf"
			},
			{
				"type": "occ",
				"energy": -0.25989,
				"method": "rhf"
			},
			{
				"type": "occ",
				"energy": -0.24778,
				"method": "rhf"
			},
			{
				"type": "occ",
				"energy": -0.24005,
				"method": "rhf"
			},
			{
				"type": "unocc",
				"energy": -0.03127,
				"method": "rhf"
			},
			{
				"type": "unocc",
				"energy": -0.0139,
				"method": "rhf"
			},
			{
				"type": "unocc",
				"energy": 0.00134,
				"method": "rhf"
			},
			{
				"type": "unocc",
				"energy": 0.04217,
				"method": "rhf"
			},
			{
				"type": "unocc",
				"energy": 0.06437,
				"method": "rhf"
			}
		],
		"cosmo_sigma_profile": { 
			"-0.025": 0.0,
			"-0.024": 0.0,
			"-0.023": 0.0,
			"-0.022": 0.0,
			"-0.021": 0.0,
			"-0.02": 0.0,
			"-0.019": 0.36940045458,
			"-0.018": 0.937374588172,
			"-0.017": 0.951733094548,
			"-0.016": 1.02881754042,
			"-0.015": 0.573246269284,
			"-0.014": 0.237751633123,
			"-0.013": 0.689062460543,
			"-0.012": 0.661363466512,
			"-0.011": 1.14690516404,
			"-0.01": 0.857624675526,
			"-0.009": 0.488148482752,
			"-0.008": 2.5313888202,
			"-0.007": 6.70325967604,
			"-0.006": 16.274881342,
			"-0.005": 20.3636730833,
			"-0.004": 20.9584075184,
			"-0.003": 17.0764725083,
			"-0.002": 18.1710819527,
			"-0.001": 13.5531240012,
			"0.0": 11.6058221147,
			"0.001": 11.9760943235,
			"0.002": 11.3653567194,
			"0.003": 11.8867033179,
			"0.004": 14.8086157021,
			"0.005": 9.28345703849,
			"0.006": 4.04924659842,
			"0.007": 4.51765889032,
			"0.008": 3.0370947163,
			"0.009": 4.02741492621,
			"0.01": 3.95592123371,
			"0.011": 6.54010974748,
			"0.012": 5.04902823696,
			"0.013": 5.29957165653,
			"0.014": 1.95800068767,
			"0.015": 0.138231080853,
			"0.016": 0.0,
			"0.017": 0.0,
			"0.018": 0.0,
			"0.019": 0.0,
			"0.02": 0.0,
			"0.021": 0.0,
			"0.022": 0.0,
			"0.023": 0.0,
			"0.024": 0.0,
			"0.025": 0.0
		}
	}
}
