{
	 "smiles": "CC(C)(C)OC(=O)NC(CC#N)C1=CC=CC=C1", 
	 "Tm": 378.15, 
	 "num_atms": 36, 
	 "gaussian": { 
		 "optdone": 1, 
		 "sigma_profile": "yes", 
		 "theory": "DFT", 
		 "functional": "B3LYP", 
		 "basiset": "6-31G**", 
		 "properties": { 
			 "R2extent": 4696.9241, 
			 "electric_dipole_moment_norm": 5.22342179897, 
			 "electric_quadrupole_moment_norm": 15.106908464, 
			 "total_energy": -804.307791359, 
			 "HOMO_LUMO_gap": 0.23278, 
			 "cosmo_polarized_energy": -17.35, 
			 "cosmo_cavitation_energy": 39.43, 
			 "cosmo_dispersion_energy": -24.77, 
			 "cosmo_repulsion_energy": 1.93, 
			 "cosmo_total_nonelectrostatic_energy": 16.59, 
			 "SMD_solvation_energy": 9.14 
		},
		"coords": [
			{
				"x": -1.0680459698,
				"y": -0.4308878344,
				"z": 2.9170792699,
				"element": "C" 
			},
			{
				"x": -1.5799294608,
				"y": 0.0896944453,
				"z": 1.5702821372,
				"element": "C" 
			},
			{
				"x": -2.2483706136,
				"y": 1.4626807912,
				"z": 1.6899399789,
				"element": "C" 
			},
			{
				"x": -2.5248220402,
				"y": -0.9241053416,
				"z": 0.9204396819,
				"element": "C" 
			},
			{
				"x": -0.4646182807,
				"y": 0.1544608704,
				"z": 0.6051202884,
				"element": "O" 
			},
			{
				"x": 0.6182031057,
				"y": 0.9253098068,
				"z": 0.8514217193,
				"element": "C" 
			},
			{
				"x": 0.7607073651,
				"y": 1.7051441856,
				"z": 1.7766401673,
				"element": "O" 
			},
			{
				"x": 1.5911345129,
				"y": 0.7238883062,
				"z": -0.1016222432,
				"element": "N" 
			},
			{
				"x": 1.5412732487,
				"y": -0.1629450425,
				"z": -1.2620681122,
				"element": "C" 
			},
			{
				"x": 0.507108496,
				"y": 0.31195218,
				"z": -2.3175448655,
				"element": "C" 
			},
			{
				"x": 0.7811464852,
				"y": 1.6800806297,
				"z": -2.7594438037,
				"element": "C" 
			},
			{
				"x": 1.0192270297,
				"y": 2.7603001715,
				"z": -3.1108434883,
				"element": "N" 
			},
			{
				"x": 1.390063121,
				"y": -1.6357499172,
				"z": -0.8682339893,
				"element": "C" 
			},
			{
				"x": 2.2776911046,
				"y": -2.1588866968,
				"z": 0.0834215477,
				"element": "C" 
			},
			{
				"x": 2.2189149121,
				"y": -3.4994398547,
				"z": 0.4573136528,
				"element": "C" 
			},
			{
				"x": 1.268365476,
				"y": -4.3472439103,
				"z": -0.1173546173,
				"element": "C" 
			},
			{
				"x": 0.3821211972,
				"y": -3.8387799658,
				"z": -1.0649863826,
				"element": "C" 
			},
			{
				"x": 0.443275212,
				"y": -2.4927022011,
				"z": -1.4381660545,
				"element": "C" 
			},
			{
				"x": -0.5547716039,
				"y": -1.3881892177,
				"z": 2.7829532641,
				"element": "H" 
			},
			{
				"x": -1.9142296184,
				"y": -0.5887570091,
				"z": 3.593485264,
				"element": "H" 
			},
			{
				"x": -0.3803373739,
				"y": 0.2802348587,
				"z": 3.3755404437,
				"element": "H" 
			},
			{
				"x": -1.5690910712,
				"y": 2.1905448844,
				"z": 2.1334059915,
				"element": "H" 
			},
			{
				"x": -2.5588513178,
				"y": 1.8227257833,
				"z": 0.7038652917,
				"element": "H" 
			},
			{
				"x": -3.1420157293,
				"y": 1.3806523968,
				"z": 2.3173119836,
				"element": "H" 
			},
			{
				"x": -2.8732220904,
				"y": -0.5622971865,
				"z": -0.0519539596,
				"element": "H" 
			},
			{
				"x": -2.0207160893,
				"y": -1.8832358461,
				"z": 0.7733726699,
				"element": "H" 
			},
			{
				"x": -3.3988993445,
				"y": -1.082203943,
				"z": 1.5590854838,
				"element": "H" 
			},
			{
				"x": 2.3448384811,
				"y": 1.3910773073,
				"z": -0.038440253,
				"element": "H" 
			},
			{
				"x": 2.5291844441,
				"y": -0.0590201047,
				"z": -1.7261048384,
				"element": "H" 
			},
			{
				"x": 0.5354429406,
				"y": -0.3426572567,
				"z": -3.1949046248,
				"element": "H" 
			},
			{
				"x": -0.4992762829,
				"y": 0.2666190564,
				"z": -1.8916829869,
				"element": "H" 
			},
			{
				"x": 3.0114776296,
				"y": -1.5021434542,
				"z": 0.542022117,
				"element": "H" 
			},
			{
				"x": 2.9160558519,
				"y": -3.8829803225,
				"z": 1.1967991946,
				"element": "H" 
			},
			{
				"x": 1.2206828937,
				"y": -5.3929445939,
				"z": 0.1719148132,
				"element": "H" 
			},
			{
				"x": -0.3632976818,
				"y": -4.4861562327,
				"z": -1.5179966756,
				"element": "H" 
			},
			{
				"x": -0.2664189385,
				"y": -2.1256397421,
				"z": -2.1716680658,
				"element": "H" 
			}
		],
		 "valence_orbital": [ 
			{
				"type": "occ",
				"energy": -0.29411,
				"method": "rhf"
			},
			{
				"type": "occ",
				"energy": -0.27063,
				"method": "rhf"
			},
			{
				"type": "occ",
				"energy": -0.26666,
				"method": "rhf"
			},
			{
				"type": "occ",
				"energy": -0.26138,
				"method": "rhf"
			},
			{
				"type": "occ",
				"energy": -0.25066,
				"method": "rhf"
			},
			{
				"type": "unocc",
				"energy": -0.01788,
				"method": "rhf"
			},
			{
				"type": "unocc",
				"energy": -0.01248,
				"method": "rhf"
			},
			{
				"type": "unocc",
				"energy": 0.03138,
				"method": "rhf"
			},
			{
				"type": "unocc",
				"energy": 0.0391,
				"method": "rhf"
			},
			{
				"type": "unocc",
				"energy": 0.0457,
				"method": "rhf"
			}
		],
		"cosmo_sigma_profile": { 
			"-0.025": 0.0,
			"-0.024": 0.0,
			"-0.023": 0.0,
			"-0.022": 0.0,
			"-0.021": 0.0,
			"-0.02": 0.0,
			"-0.019": 0.0,
			"-0.018": 0.0,
			"-0.017": 0.0,
			"-0.016": 0.0,
			"-0.015": 0.0700642371137,
			"-0.014": 1.02652336712,
			"-0.013": 1.55876635413,
			"-0.012": 0.767431123768,
			"-0.011": 1.23963453761,
			"-0.01": 1.35613666699,
			"-0.009": 2.85423461406,
			"-0.008": 8.22999375594,
			"-0.007": 8.35807684242,
			"-0.006": 10.5169293496,
			"-0.005": 16.9838893024,
			"-0.004": 24.3418329402,
			"-0.003": 25.6950963024,
			"-0.002": 24.1338180923,
			"-0.001": 27.0035965686,
			"0.0": 32.8369022137,
			"0.001": 27.5936560309,
			"0.002": 15.3866812091,
			"0.003": 12.5703423177,
			"0.004": 12.7223387,
			"0.005": 13.1224138243,
			"0.006": 8.07223069321,
			"0.007": 4.43817649145,
			"0.008": 4.82466344155,
			"0.009": 4.18719187597,
			"0.01": 4.8089638395,
			"0.011": 4.71458111319,
			"0.012": 4.2289298803,
			"0.013": 5.71971029922,
			"0.014": 1.72992843935,
			"0.015": 0.0,
			"0.016": 0.0,
			"0.017": 0.0,
			"0.018": 0.0,
			"0.019": 0.0,
			"0.02": 0.0,
			"0.021": 0.0,
			"0.022": 0.0,
			"0.023": 0.0,
			"0.024": 0.0,
			"0.025": 0.0
		}
	}
}
