{
	 "smiles": "OC(=O)C1=CC(Br)=C(C=C1)[N+]([O-])=O", 
	 "Tm": 475.15, 
	 "num_atms": 17, 
	 "gaussian": { 
		 "optdone": 1, 
		 "sigma_profile": "yes", 
		 "theory": "DFT", 
		 "functional": "B3LYP", 
		 "basiset": "6-31G**", 
		 "properties": { 
			 "R2extent": 4434.9366, 
			 "electric_dipole_moment_norm": 3.04517531351, 
			 "electric_quadrupole_moment_norm": 21.6928382728, 
			 "total_energy": -3196.0948559, 
			 "HOMO_LUMO_gap": 0.16865, 
			 "cosmo_polarized_energy": -18.09, 
			 "cosmo_cavitation_energy": 25.43, 
			 "cosmo_dispersion_energy": -19.01, 
			 "cosmo_repulsion_energy": 1.5, 
			 "cosmo_total_nonelectrostatic_energy": 7.91, 
			 "SMD_solvation_energy": 6.8 
		},
		"coords": [
			{
				"x": 0.3340638202,
				"y": 3.9220898083,
				"z": -2.8431399303,
				"element": "O" 
			},
			{
				"x": -0.285130356,
				"y": 2.7431400677,
				"z": -3.0981669402,
				"element": "C" 
			},
			{
				"x": -0.9207716811,
				"y": 2.5907797795,
				"z": -4.1122714446,
				"element": "O" 
			},
			{
				"x": -0.1382957614,
				"y": 1.6624905562,
				"z": -2.0600399478,
				"element": "C" 
			},
			{
				"x": -0.3576808871,
				"y": 0.3467448821,
				"z": -2.4769558546,
				"element": "C" 
			},
			{
				"x": -0.2625910675,
				"y": -0.7177844922,
				"z": -1.5809865935,
				"element": "C" 
			},
			{
				"x": -0.5055244636,
				"y": -2.4627021958,
				"z": -2.279102094,
				"element": "Br" 
			},
			{
				"x": 0.0567746294,
				"y": -0.4406428912,
				"z": -0.2430844561,
				"element": "C" 
			},
			{
				"x": 0.2782491679,
				"y": 0.8703264549,
				"z": 0.1810452587,
				"element": "C" 
			},
			{
				"x": 0.172253411,
				"y": 1.9229485452,
				"z": -0.7187985894,
				"element": "C" 
			},
			{
				"x": 0.1648153309,
				"y": -1.480523076,
				"z": 0.79930165,
				"element": "N" 
			},
			{
				"x": 0.990432017,
				"y": -1.27926692,
				"z": 1.6892155654,
				"element": "O" 
			},
			{
				"x": -0.5850398057,
				"y": -2.4464086129,
				"z": 0.7287040062,
				"element": "O" 
			},
			{
				"x": 0.9359709904,
				"y": 3.8402063353,
				"z": -2.0904401028,
				"element": "H" 
			},
			{
				"x": -0.6040312807,
				"y": 0.1624420587,
				"z": -3.5155565799,
				"element": "H" 
			},
			{
				"x": 0.5267291327,
				"y": 1.0392472185,
				"z": 1.2216429634,
				"element": "H" 
			},
			{
				"x": 0.2987768037,
				"y": 2.9385124815,
				"z": -0.3551669106,
				"element": "H" 
			}
		],
		 "valence_orbital": [ 
			{
				"type": "occ",
				"energy": -0.32366,
				"method": "rhf"
			},
			{
				"type": "occ",
				"energy": -0.30646,
				"method": "rhf"
			},
			{
				"type": "occ",
				"energy": -0.29474,
				"method": "rhf"
			},
			{
				"type": "occ",
				"energy": -0.29197,
				"method": "rhf"
			},
			{
				"type": "occ",
				"energy": -0.28101,
				"method": "rhf"
			},
			{
				"type": "unocc",
				"energy": -0.11236,
				"method": "rhf"
			},
			{
				"type": "unocc",
				"energy": -0.059,
				"method": "rhf"
			},
			{
				"type": "unocc",
				"energy": -0.05723,
				"method": "rhf"
			},
			{
				"type": "unocc",
				"energy": -0.02298,
				"method": "rhf"
			},
			{
				"type": "unocc",
				"energy": 0.02118,
				"method": "rhf"
			}
		],
		"cosmo_sigma_profile": { 
			"-0.025": 0.0,
			"-0.024": 0.0,
			"-0.023": 0.0,
			"-0.022": 0.0,
			"-0.021": 0.0,
			"-0.02": 0.291322628266,
			"-0.019": 0.8628550544,
			"-0.018": 1.31218864538,
			"-0.017": 1.35049393927,
			"-0.016": 0.848554537474,
			"-0.015": 0.713860446271,
			"-0.014": 1.2974176975,
			"-0.013": 1.58629762297,
			"-0.012": 1.25534174294,
			"-0.011": 1.31209035606,
			"-0.01": 1.59740133266,
			"-0.009": 4.75608955515,
			"-0.008": 5.89267221803,
			"-0.007": 7.54014821446,
			"-0.006": 6.43434382348,
			"-0.005": 9.40378129281,
			"-0.004": 10.0918810145,
			"-0.003": 12.5685523078,
			"-0.002": 16.5450742073,
			"-0.001": 17.6333643114,
			"0.0": 10.881574142,
			"0.001": 9.12028804067,
			"0.002": 11.1780798552,
			"0.003": 11.8355404012,
			"0.004": 4.94269385643,
			"0.005": 6.47788386217,
			"0.006": 9.2114152599,
			"0.007": 13.5822207258,
			"0.008": 8.38880571547,
			"0.009": 7.35667676293,
			"0.01": 5.15831560422,
			"0.011": 4.91029411384,
			"0.012": 1.75519183128,
			"0.013": 0.102104323781,
			"0.014": 0.0,
			"0.015": 0.0,
			"0.016": 0.0,
			"0.017": 0.0,
			"0.018": 0.0,
			"0.019": 0.0,
			"0.02": 0.0,
			"0.021": 0.0,
			"0.022": 0.0,
			"0.023": 0.0,
			"0.024": 0.0,
			"0.025": 0.0
		}
	}
}
