{
	 "smiles": "CC1(C)CCC=CC1", 
	 "Tm": 198.95, 
	 "num_atms": 22, 
	 "gaussian": { 
		 "optdone": 1, 
		 "sigma_profile": "yes", 
		 "theory": "DFT", 
		 "functional": "B3LYP", 
		 "basiset": "6-31G**", 
		 "properties": { 
			 "R2extent": 1014.9601, 
			 "electric_dipole_moment_norm": 0.147339777385, 
			 "electric_quadrupole_moment_norm": 1.39316590541, 
			 "total_energy": -313.290163036, 
			 "HOMO_LUMO_gap": 0.26718, 
			 "cosmo_polarized_energy": -1.32, 
			 "cosmo_cavitation_energy": 22.04, 
			 "cosmo_dispersion_energy": -16.34, 
			 "cosmo_repulsion_energy": 1.34, 
			 "cosmo_total_nonelectrostatic_energy": 7.04, 
			 "SMD_solvation_energy": 3.45 
		},
		"coords": [
			{
				"x": -0.6961421892,
				"y": 1.2588737813,
				"z": -0.748868272,
				"element": "C" 
			},
			{
				"x": 0.3884503219,
				"y": 0.7233005017,
				"z": 0.2076506636,
				"element": "C" 
			},
			{
				"x": 1.6040236816,
				"y": 1.6641414933,
				"z": 0.163155191,
				"element": "C" 
			},
			{
				"x": 0.8241822363,
				"y": -0.7020622345,
				"z": -0.2070105767,
				"element": "C" 
			},
			{
				"x": -0.3219630906,
				"y": -1.7249663044,
				"z": -0.1549767919,
				"element": "C" 
			},
			{
				"x": -1.1539627752,
				"y": -1.5794460803,
				"z": 1.0931823013,
				"element": "C" 
			},
			{
				"x": -1.0817745495,
				"y": -0.5150825605,
				"z": 1.8984615922,
				"element": "C" 
			},
			{
				"x": -0.1672578643,
				"y": 0.66038362,
				"z": 1.6523914205,
				"element": "C" 
			},
			{
				"x": -1.6193548899,
				"y": 0.6758232213,
				"z": -0.6851963404,
				"element": "H" 
			},
			{
				"x": -0.9448059064,
				"y": 2.2983994435,
				"z": -0.5064033927,
				"element": "H" 
			},
			{
				"x": -0.3488412839,
				"y": 1.234460019,
				"z": -1.7884055736,
				"element": "H" 
			},
			{
				"x": 1.994747084,
				"y": 1.7560150201,
				"z": -0.8569243212,
				"element": "H" 
			},
			{
				"x": 1.3380762662,
				"y": 2.6699822347,
				"z": 0.5090207023,
				"element": "H" 
			},
			{
				"x": 2.4159624907,
				"y": 1.2952358999,
				"z": 0.8004695938,
				"element": "H" 
			},
			{
				"x": 1.262486267,
				"y": -0.6786876304,
				"z": -1.2129234899,
				"element": "H" 
			},
			{
				"x": 1.6215125879,
				"y": -1.029306795,
				"z": 0.4737659607,
				"element": "H" 
			},
			{
				"x": 0.0865560948,
				"y": -2.7427644642,
				"z": -0.2130899329,
				"element": "H" 
			},
			{
				"x": -0.9687907721,
				"y": -1.6240871365,
				"z": -1.0396637921,
				"element": "H" 
			},
			{
				"x": -1.845492371,
				"y": -2.3870178008,
				"z": 1.3289187276,
				"element": "H" 
			},
			{
				"x": -1.7035098065,
				"y": -0.4758172293,
				"z": 2.7918225031,
				"element": "H" 
			},
			{
				"x": -0.6960124065,
				"y": 1.5958534661,
				"z": 1.8837968241,
				"element": "H" 
			},
			{
				"x": 0.6705108747,
				"y": 0.617969535,
				"z": 2.3660270034,
				"element": "H" 
			}
		],
		 "valence_orbital": [ 
			{
				"type": "occ",
				"energy": -0.34537,
				"method": "rhf"
			},
			{
				"type": "occ",
				"energy": -0.31054,
				"method": "rhf"
			},
			{
				"type": "occ",
				"energy": -0.29915,
				"method": "rhf"
			},
			{
				"type": "occ",
				"energy": -0.29364,
				"method": "rhf"
			},
			{
				"type": "occ",
				"energy": -0.2342,
				"method": "rhf"
			},
			{
				"type": "unocc",
				"energy": 0.03298,
				"method": "rhf"
			},
			{
				"type": "unocc",
				"energy": 0.08034,
				"method": "rhf"
			},
			{
				"type": "unocc",
				"energy": 0.12321,
				"method": "rhf"
			},
			{
				"type": "unocc",
				"energy": 0.12954,
				"method": "rhf"
			},
			{
				"type": "unocc",
				"energy": 0.13439,
				"method": "rhf"
			}
		],
		"cosmo_sigma_profile": { 
			"-0.025": 0.0,
			"-0.024": 0.0,
			"-0.023": 0.0,
			"-0.022": 0.0,
			"-0.021": 0.0,
			"-0.02": 0.0,
			"-0.019": 0.0,
			"-0.018": 0.0,
			"-0.017": 0.0,
			"-0.016": 0.0,
			"-0.015": 0.0,
			"-0.014": 0.0,
			"-0.013": 0.0,
			"-0.012": 0.0,
			"-0.011": 0.0,
			"-0.01": 0.0,
			"-0.009": 0.0,
			"-0.008": 0.0,
			"-0.007": 0.0,
			"-0.006": 0.0,
			"-0.005": 0.0251074825057,
			"-0.004": 2.4973923424,
			"-0.003": 8.74010179716,
			"-0.002": 29.5843961436,
			"-0.001": 38.311864508,
			"0.0": 30.7396430661,
			"0.001": 26.3942691542,
			"0.002": 17.4640413394,
			"0.003": 5.21439916475,
			"0.004": 3.49630040192,
			"0.005": 2.22916611256,
			"0.006": 2.60973904851,
			"0.007": 1.91218091337,
			"0.008": 0.437866827412,
			"0.009": 0.0,
			"0.01": 0.0,
			"0.011": 0.0,
			"0.012": 0.0,
			"0.013": 0.0,
			"0.014": 0.0,
			"0.015": 0.0,
			"0.016": 0.0,
			"0.017": 0.0,
			"0.018": 0.0,
			"0.019": 0.0,
			"0.02": 0.0,
			"0.021": 0.0,
			"0.022": 0.0,
			"0.023": 0.0,
			"0.024": 0.0,
			"0.025": 0.0
		}
	}
}
