{
	 "smiles": "CC1=CC(O)=CN=C1", 
	 "Tm": 411.15, 
	 "num_atms": 15, 
	 "gaussian": { 
		 "optdone": 1, 
		 "sigma_profile": "yes", 
		 "theory": "DFT", 
		 "functional": "B3LYP", 
		 "basiset": "6-31G**", 
		 "properties": { 
			 "R2extent": 1553.8833, 
			 "electric_dipole_moment_norm": 1.33132273322, 
			 "electric_quadrupole_moment_norm": 8.36801892445, 
			 "total_energy": -362.826511493, 
			 "HOMO_LUMO_gap": 0.20984, 
			 "cosmo_polarized_energy": -9.83, 
			 "cosmo_cavitation_energy": 18.82, 
			 "cosmo_dispersion_energy": -14.17, 
			 "cosmo_repulsion_energy": 1.17, 
			 "cosmo_total_nonelectrostatic_energy": 5.83, 
			 "SMD_solvation_energy": 2.4 
		},
		"coords": [
			{
				"x": 0.1452814288,
				"y": 2.1796180322,
				"z": 0.3812185048,
				"element": "C" 
			},
			{
				"x": -0.3661637872,
				"y": 0.8494582412,
				"z": 0.876401122,
				"element": "C" 
			},
			{
				"x": -1.510282403,
				"y": 0.7616726926,
				"z": 1.673255102,
				"element": "C" 
			},
			{
				"x": -1.9427936191,
				"y": -0.4918006764,
				"z": 2.1056550655,
				"element": "C" 
			},
			{
				"x": -3.0614211944,
				"y": -0.5612438677,
				"z": 2.8828870966,
				"element": "O" 
			},
			{
				"x": -1.2092933909,
				"y": -1.6223182768,
				"z": 1.7224852922,
				"element": "C" 
			},
			{
				"x": -0.1158124814,
				"y": -1.5542025519,
				"z": 0.9626668485,
				"element": "N" 
			},
			{
				"x": 0.2894143454,
				"y": -0.3473350227,
				"z": 0.5539668379,
				"element": "C" 
			},
			{
				"x": 1.0468877928,
				"y": 2.0558764339,
				"z": -0.2246924081,
				"element": "H" 
			},
			{
				"x": 0.3901717779,
				"y": 2.8475423879,
				"z": 1.2147042962,
				"element": "H" 
			},
			{
				"x": -0.6043154169,
				"y": 2.6908461479,
				"z": -0.233239859,
				"element": "H" 
			},
			{
				"x": -2.0706591837,
				"y": 1.6458719744,
				"z": 1.9638883753,
				"element": "H" 
			},
			{
				"x": -3.2367594887,
				"y": -1.4859848054,
				"z": 3.1030224004,
				"element": "H" 
			},
			{
				"x": -1.5253033378,
				"y": -2.615897668,
				"z": 2.0468246129,
				"element": "H" 
			},
			{
				"x": 1.1851489584,
				"y": -0.324803041,
				"z": -0.0648432872,
				"element": "H" 
			}
		],
		 "valence_orbital": [ 
			{
				"type": "occ",
				"energy": -0.36812,
				"method": "rhf"
			},
			{
				"type": "occ",
				"energy": -0.35584,
				"method": "rhf"
			},
			{
				"type": "occ",
				"energy": -0.26797,
				"method": "rhf"
			},
			{
				"type": "occ",
				"energy": -0.25038,
				"method": "rhf"
			},
			{
				"type": "occ",
				"energy": -0.23069,
				"method": "rhf"
			},
			{
				"type": "unocc",
				"energy": -0.02085,
				"method": "rhf"
			},
			{
				"type": "unocc",
				"energy": 0.00742,
				"method": "rhf"
			},
			{
				"type": "unocc",
				"energy": 0.0654,
				"method": "rhf"
			},
			{
				"type": "unocc",
				"energy": 0.10406,
				"method": "rhf"
			},
			{
				"type": "unocc",
				"energy": 0.12664,
				"method": "rhf"
			}
		],
		"cosmo_sigma_profile": { 
			"-0.025": 0.0,
			"-0.024": 0.0,
			"-0.023": 0.0,
			"-0.022": 0.0,
			"-0.021": 0.0,
			"-0.02": 0.0,
			"-0.019": 0.0190240745256,
			"-0.018": 0.858464295566,
			"-0.017": 1.0816860015,
			"-0.016": 0.86882023239,
			"-0.015": 1.19062477825,
			"-0.014": 1.50799089831,
			"-0.013": 0.787608038231,
			"-0.012": 0.385524664823,
			"-0.011": 0.884067128872,
			"-0.01": 1.40547439317,
			"-0.009": 1.3600240409,
			"-0.008": 1.1699826306,
			"-0.007": 1.95634878594,
			"-0.006": 4.04349482398,
			"-0.005": 8.62761369979,
			"-0.004": 11.7847278409,
			"-0.003": 10.9968713477,
			"-0.002": 10.8745511327,
			"-0.001": 11.5519327864,
			"0.0": 12.1933456943,
			"0.001": 8.37541628228,
			"0.002": 12.0930030283,
			"0.003": 12.8134825795,
			"0.004": 5.79213469896,
			"0.005": 4.30478046597,
			"0.006": 3.05650190637,
			"0.007": 2.12792529603,
			"0.008": 3.23974571993,
			"0.009": 3.64127248784,
			"0.01": 2.36050413326,
			"0.011": 2.50825332117,
			"0.012": 1.33389835085,
			"0.013": 1.21822887204,
			"0.014": 0.691761739044,
			"0.015": 1.07856885116,
			"0.016": 0.822678766593,
			"0.017": 0.518493284359,
			"0.018": 0.0099990075026,
			"0.019": 0.0,
			"0.02": 0.0,
			"0.021": 0.0,
			"0.022": 0.0,
			"0.023": 0.0,
			"0.024": 0.0,
			"0.025": 0.0
		}
	}
}
