{
	 "smiles": "CCOC1=CC=C(OC(C)(C)C(O)=O)C=C1", 
	 "Tm": 340.15, 
	 "num_atms": 32, 
	 "gaussian": { 
		 "optdone": 1, 
		 "sigma_profile": "yes", 
		 "theory": "DFT", 
		 "functional": "B3LYP", 
		 "basiset": "6-31G**", 
		 "properties": { 
			 "R2extent": 5416.1717, 
			 "electric_dipole_moment_norm": 3.5120903932, 
			 "electric_quadrupole_moment_norm": 24.9454104927, 
			 "total_energy": -767.808008094, 
			 "HOMO_LUMO_gap": 0.20693, 
			 "cosmo_polarized_energy": -17.67, 
			 "cosmo_cavitation_energy": 34.8, 
			 "cosmo_dispersion_energy": -24.72, 
			 "cosmo_repulsion_energy": 1.94, 
			 "cosmo_total_nonelectrostatic_energy": 12.02, 
			 "SMD_solvation_energy": 7.4 
		},
		"coords": [
			{
				"x": -1.6356503077,
				"y": 0.8987535795,
				"z": -5.1223343612,
				"element": "C" 
			},
			{
				"x": -1.1112372184,
				"y": 0.2884890013,
				"z": -3.8340747118,
				"element": "C" 
			},
			{
				"x": -1.4783103366,
				"y": 1.1583183359,
				"z": -2.7654174682,
				"element": "O" 
			},
			{
				"x": -1.1207991401,
				"y": 0.8182438492,
				"z": -1.4915612845,
				"element": "C" 
			},
			{
				"x": -0.3974650227,
				"y": -0.3287743223,
				"z": -1.143214503,
				"element": "C" 
			},
			{
				"x": -0.0848342499,
				"y": -0.5833577532,
				"z": 0.1962049252,
				"element": "C" 
			},
			{
				"x": -0.4804432333,
				"y": 0.3107888943,
				"z": 1.1902017498,
				"element": "C" 
			},
			{
				"x": -0.2590889178,
				"y": 0.0618160006,
				"z": 2.5402391762,
				"element": "O" 
			},
			{
				"x": 1.0219908084,
				"y": 0.2972954389,
				"z": 3.1256512476,
				"element": "C" 
			},
			{
				"x": 1.6805504997,
				"y": 1.5773581431,
				"z": 2.5796349092,
				"element": "C" 
			},
			{
				"x": 0.725174194,
				"y": 0.4197388663,
				"z": 4.6314558588,
				"element": "C" 
			},
			{
				"x": 1.9375673866,
				"y": -0.9411816768,
				"z": 2.9154467507,
				"element": "C" 
			},
			{
				"x": 3.2067749468,
				"y": -0.8171745253,
				"z": 3.3933304407,
				"element": "O" 
			},
			{
				"x": 1.592943118,
				"y": -1.9777166828,
				"z": 2.4106191765,
				"element": "O" 
			},
			{
				"x": -1.2145702766,
				"y": 1.4518035671,
				"z": 0.8426609644,
				"element": "C" 
			},
			{
				"x": -1.5331288571,
				"y": 1.7051890516,
				"z": -0.4855165456,
				"element": "C" 
			},
			{
				"x": -1.3754298014,
				"y": 0.2624732608,
				"z": -5.9738125534,
				"element": "H" 
			},
			{
				"x": -2.7237699925,
				"y": 1.001248124,
				"z": -5.0848850432,
				"element": "H" 
			},
			{
				"x": -1.2020776643,
				"y": 1.8897041804,
				"z": -5.2837753768,
				"element": "H" 
			},
			{
				"x": -1.5419589042,
				"y": -0.7097163177,
				"z": -3.6703918034,
				"element": "H" 
			},
			{
				"x": -0.0177347614,
				"y": 0.1786266638,
				"z": -3.8703126477,
				"element": "H" 
			},
			{
				"x": -0.0801829896,
				"y": -1.0381938068,
				"z": -1.8982179229,
				"element": "H" 
			},
			{
				"x": 0.4533031757,
				"y": -1.4800169079,
				"z": 0.4774007596,
				"element": "H" 
			},
			{
				"x": 1.9443562703,
				"y": 1.4789399003,
				"z": 1.5242604379,
				"element": "H" 
			},
			{
				"x": 2.5856084636,
				"y": 1.8416255888,
				"z": 3.1371241388,
				"element": "H" 
			},
			{
				"x": 0.9832019496,
				"y": 2.4127874749,
				"z": 2.6819262384,
				"element": "H" 
			},
			{
				"x": 1.6383599093,
				"y": 0.5290727744,
				"z": 5.2240407154,
				"element": "H" 
			},
			{
				"x": 0.0895820151,
				"y": 1.2922046452,
				"z": 4.8031335571,
				"element": "H" 
			},
			{
				"x": 0.1921932483,
				"y": -0.4705478092,
				"z": 4.9738810563,
				"element": "H" 
			},
			{
				"x": 3.3502409532,
				"y": 0.0646318812,
				"z": 3.7629035737,
				"element": "H" 
			},
			{
				"x": -1.5437799333,
				"y": 2.1255929971,
				"z": 1.627638644,
				"element": "H" 
			},
			{
				"x": -2.1043853317,
				"y": 2.5829775832,
				"z": -0.7695400987,
				"element": "H" 
			}
		],
		 "valence_orbital": [ 
			{
				"type": "occ",
				"energy": -0.30264,
				"method": "rhf"
			},
			{
				"type": "occ",
				"energy": -0.28408,
				"method": "rhf"
			},
			{
				"type": "occ",
				"energy": -0.26414,
				"method": "rhf"
			},
			{
				"type": "occ",
				"energy": -0.2486,
				"method": "rhf"
			},
			{
				"type": "occ",
				"energy": -0.2086,
				"method": "rhf"
			},
			{
				"type": "unocc",
				"energy": -0.00167,
				"method": "rhf"
			},
			{
				"type": "unocc",
				"energy": 0.00641,
				"method": "rhf"
			},
			{
				"type": "unocc",
				"energy": 0.01808,
				"method": "rhf"
			},
			{
				"type": "unocc",
				"energy": 0.03859,
				"method": "rhf"
			},
			{
				"type": "unocc",
				"energy": 0.08928,
				"method": "rhf"
			}
		],
		"cosmo_sigma_profile": { 
			"-0.025": 0.0,
			"-0.024": 0.0,
			"-0.023": 0.0,
			"-0.022": 0.0,
			"-0.021": 0.0,
			"-0.02": 0.0,
			"-0.019": 0.195245069494,
			"-0.018": 0.89846324241,
			"-0.017": 0.834011993587,
			"-0.016": 1.39564590328,
			"-0.015": 0.965030382015,
			"-0.014": 0.918170585983,
			"-0.013": 0.664295759486,
			"-0.012": 0.941820710073,
			"-0.011": 1.47566311434,
			"-0.01": 1.28349471235,
			"-0.009": 0.965876505664,
			"-0.008": 1.17916311776,
			"-0.007": 1.80078776634,
			"-0.006": 7.04605585586,
			"-0.005": 19.0210925988,
			"-0.004": 29.3247052031,
			"-0.003": 29.5542787604,
			"-0.002": 26.730236036,
			"-0.001": 23.5222290088,
			"0.0": 19.209760451,
			"0.001": 12.6501395061,
			"0.002": 9.19762228475,
			"0.003": 11.8484794371,
			"0.004": 15.7039050631,
			"0.005": 15.7262180906,
			"0.006": 5.09743931159,
			"0.007": 4.55041554942,
			"0.008": 6.12075524031,
			"0.009": 5.89679144274,
			"0.01": 8.02699695195,
			"0.011": 6.80996033816,
			"0.012": 3.45911685333,
			"0.013": 0.842927355102,
			"0.014": 0.0,
			"0.015": 0.0,
			"0.016": 0.0,
			"0.017": 0.0,
			"0.018": 0.0,
			"0.019": 0.0,
			"0.02": 0.0,
			"0.021": 0.0,
			"0.022": 0.0,
			"0.023": 0.0,
			"0.024": 0.0,
			"0.025": 0.0
		}
	}
}
