{
	 "smiles": "FC(F)(F)COC(=O)NC1=NN=C(S1)C1=NC=CC=C1", 
	 "Tm": 520.15, 
	 "num_atms": 27, 
	 "gaussian": { 
		 "optdone": 1, 
		 "sigma_profile": "yes", 
		 "theory": "DFT", 
		 "functional": "B3LYP", 
		 "basiset": "6-31G**", 
		 "properties": { 
			 "R2extent": 8821.6078, 
			 "electric_dipole_moment_norm": 4.60776358986, 
			 "electric_quadrupole_moment_norm": 13.0940530372, 
			 "total_energy": -1452.42581693, 
			 "HOMO_LUMO_gap": 0.17242, 
			 "cosmo_polarized_energy": -20.67, 
			 "cosmo_cavitation_energy": 36.64, 
			 "cosmo_dispersion_energy": -26.06, 
			 "cosmo_repulsion_energy": 1.9, 
			 "cosmo_total_nonelectrostatic_energy": 12.48, 
			 "SMD_solvation_energy": 5.32 
		},
		"coords": [
			{
				"x": -3.9462863352,
				"y": 0.4868867614,
				"z": -3.3845215876,
				"element": "F" 
			},
			{
				"x": -2.9445997995,
				"y": 0.046858793,
				"z": -4.1663984838,
				"element": "C" 
			},
			{
				"x": -3.4698719897,
				"y": -0.3998165721,
				"z": -5.3242518752,
				"element": "F" 
			},
			{
				"x": -2.361157015,
				"y": -0.9944054843,
				"z": -3.5416830685,
				"element": "F" 
			},
			{
				"x": -1.9452422717,
				"y": 1.1527884794,
				"z": -4.4589897047,
				"element": "C" 
			},
			{
				"x": -1.3792535901,
				"y": 1.5958428374,
				"z": -3.2276285955,
				"element": "O" 
			},
			{
				"x": -1.761923466,
				"y": 2.8273105721,
				"z": -2.7898158867,
				"element": "C" 
			},
			{
				"x": -2.4199246746,
				"y": 3.6246794078,
				"z": -3.4190187742,
				"element": "O" 
			},
			{
				"x": -1.2768452453,
				"y": 3.0666002054,
				"z": -1.5259896832,
				"element": "N" 
			},
			{
				"x": -0.5711841469,
				"y": 2.2572488795,
				"z": -0.6488991804,
				"element": "C" 
			},
			{
				"x": -0.1802439999,
				"y": 2.754527237,
				"z": 0.4964401827,
				"element": "N" 
			},
			{
				"x": 0.4738917858,
				"y": 1.8467345067,
				"z": 1.2697699267,
				"element": "N" 
			},
			{
				"x": 0.5775537602,
				"y": 0.6691251368,
				"z": 0.7214783685,
				"element": "C" 
			},
			{
				"x": -0.1578375395,
				"y": 0.5777147777,
				"z": -0.8898446848,
				"element": "S" 
			},
			{
				"x": 1.2433265132,
				"y": -0.4912009701,
				"z": 1.347952686,
				"element": "C" 
			},
			{
				"x": 2.0689198572,
				"y": -0.2210762268,
				"z": 2.3737128979,
				"element": "N" 
			},
			{
				"x": 2.6796810717,
				"y": -1.247344302,
				"z": 2.9666655213,
				"element": "C" 
			},
			{
				"x": 2.5195742727,
				"y": -2.5808767391,
				"z": 2.5785986454,
				"element": "C" 
			},
			{
				"x": 1.6638044506,
				"y": -2.8552047674,
				"z": 1.5142075164,
				"element": "C" 
			},
			{
				"x": 1.0093941227,
				"y": -1.7970068561,
				"z": 0.8885113811,
				"element": "C" 
			},
			{
				"x": -1.1388087056,
				"y": 0.7532250782,
				"z": -5.0762869308,
				"element": "H" 
			},
			{
				"x": -2.4472307377,
				"y": 1.977934951,
				"z": -4.9662565156,
				"element": "H" 
			},
			{
				"x": -1.4780470153,
				"y": 3.9904755646,
				"z": -1.1625415214,
				"element": "H" 
			},
			{
				"x": 3.3385464599,
				"y": -0.9921365949,
				"z": 3.7949234824,
				"element": "H" 
			},
			{
				"x": 3.0495248768,
				"y": -3.3727831649,
				"z": 3.0978674115,
				"element": "H" 
			},
			{
				"x": 1.500438392,
				"y": -3.874954341,
				"z": 1.1786287577,
				"element": "H" 
			},
			{
				"x": 0.3202009692,
				"y": -1.9847471694,
				"z": 0.070969715,
				"element": "H" 
			}
		],
		 "valence_orbital": [ 
			{
				"type": "occ",
				"energy": -0.30015,
				"method": "rhf"
			},
			{
				"type": "occ",
				"energy": -0.28467,
				"method": "rhf"
			},
			{
				"type": "occ",
				"energy": -0.27207,
				"method": "rhf"
			},
			{
				"type": "occ",
				"energy": -0.2591,
				"method": "rhf"
			},
			{
				"type": "occ",
				"energy": -0.24067,
				"method": "rhf"
			},
			{
				"type": "unocc",
				"energy": -0.06825,
				"method": "rhf"
			},
			{
				"type": "unocc",
				"energy": -0.03395,
				"method": "rhf"
			},
			{
				"type": "unocc",
				"energy": -0.01589,
				"method": "rhf"
			},
			{
				"type": "unocc",
				"energy": 0.00109,
				"method": "rhf"
			},
			{
				"type": "unocc",
				"energy": 0.03082,
				"method": "rhf"
			}
		],
		"cosmo_sigma_profile": { 
			"-0.025": 0.0,
			"-0.024": 0.0,
			"-0.023": 0.0,
			"-0.022": 0.0,
			"-0.021": 0.0,
			"-0.02": 0.0,
			"-0.019": 0.0,
			"-0.018": 0.0,
			"-0.017": 0.447489814722,
			"-0.016": 1.3044455187,
			"-0.015": 0.695777098615,
			"-0.014": 0.627463820809,
			"-0.013": 0.408377406918,
			"-0.012": 1.39303708786,
			"-0.011": 0.739998093578,
			"-0.01": 2.87375126703,
			"-0.009": 5.04294668359,
			"-0.008": 7.71473200747,
			"-0.007": 14.163672994,
			"-0.006": 15.2002172501,
			"-0.005": 15.032417739,
			"-0.004": 16.2264227329,
			"-0.003": 18.7238056875,
			"-0.002": 16.7410122768,
			"-0.001": 18.6616014712,
			"0.0": 20.6279358468,
			"0.001": 32.3557044169,
			"0.002": 40.8466745126,
			"0.003": 16.8168811693,
			"0.004": 4.49939472358,
			"0.005": 2.68108875261,
			"0.006": 3.4316319881,
			"0.007": 4.78233248923,
			"0.008": 4.5197095401,
			"0.009": 4.14371278363,
			"0.01": 6.86119502698,
			"0.011": 6.9670151981,
			"0.012": 3.69238135007,
			"0.013": 2.41279353721,
			"0.014": 1.97327201061,
			"0.015": 1.89241187864,
			"0.016": 0.97071201831,
			"0.017": 1.29822722481,
			"0.018": 0.694573482718,
			"0.019": 0.0,
			"0.02": 0.0,
			"0.021": 0.0,
			"0.022": 0.0,
			"0.023": 0.0,
			"0.024": 0.0,
			"0.025": 0.0
		}
	}
}
