{
	 "smiles": "COC1=NC(=CC=C1)N(C)C(=S)OC1=CC(=CC=C1)C(C)(C)C", 
	 "Tm": 359.15, 
	 "num_atms": 45, 
	 "gaussian": { 
		 "optdone": 1, 
		 "sigma_profile": "yes", 
		 "theory": "DFT", 
		 "functional": "B3LYP", 
		 "basiset": "6-31G**", 
		 "properties": { 
			 "R2extent": 11789.0828, 
			 "electric_dipole_moment_norm": 3.01722403046, 
			 "electric_quadrupole_moment_norm": 20.817447014, 
			 "total_energy": -1357.31896108, 
			 "HOMO_LUMO_gap": 0.17062, 
			 "cosmo_polarized_energy": -12.93, 
			 "cosmo_cavitation_energy": 49.2, 
			 "cosmo_dispersion_energy": -33.21, 
			 "cosmo_repulsion_energy": 2.53, 
			 "cosmo_total_nonelectrostatic_energy": 18.53, 
			 "SMD_solvation_energy": 8.34 
		},
		"coords": [
			{
				"x": -2.8103089988,
				"y": -0.2051530474,
				"z": -5.8839405089,
				"element": "C" 
			},
			{
				"x": -1.6179557631,
				"y": 0.5440891487,
				"z": -6.1308746848,
				"element": "O" 
			},
			{
				"x": -0.5253480548,
				"y": 0.2322483743,
				"z": -5.4005900455,
				"element": "C" 
			},
			{
				"x": -0.5968831516,
				"y": -0.7455261797,
				"z": -4.5041921795,
				"element": "N" 
			},
			{
				"x": 0.4999033781,
				"y": -1.0379958042,
				"z": -3.7908369973,
				"element": "C" 
			},
			{
				"x": 1.7148231722,
				"y": -0.3758922081,
				"z": -3.9603921476,
				"element": "C" 
			},
			{
				"x": 1.7633700404,
				"y": 0.6579128027,
				"z": -4.9010876421,
				"element": "C" 
			},
			{
				"x": 0.6372467134,
				"y": 0.9839224252,
				"z": -5.6405677805,
				"element": "C" 
			},
			{
				"x": 0.3489292587,
				"y": -2.1383442134,
				"z": -2.8848308786,
				"element": "N" 
			},
			{
				"x": -0.4150017617,
				"y": -3.3027218652,
				"z": -3.355606907,
				"element": "C" 
			},
			{
				"x": 0.7634084411,
				"y": -2.1203861119,
				"z": -1.5829955457,
				"element": "C" 
			},
			{
				"x": 0.5755898378,
				"y": -3.3800674929,
				"z": -0.5126809934,
				"element": "S" 
			},
			{
				"x": 1.3252719276,
				"y": -0.9226280227,
				"z": -1.272886423,
				"element": "O" 
			},
			{
				"x": 1.8363508048,
				"y": -0.6740824337,
				"z": 0.0065889071,
				"element": "C" 
			},
			{
				"x": 1.0677250936,
				"y": 0.0827622135,
				"z": 0.8791547377,
				"element": "C" 
			},
			{
				"x": 1.5733723857,
				"y": 0.4574477345,
				"z": 2.1354703329,
				"element": "C" 
			},
			{
				"x": 2.8720730299,
				"y": 0.0423948083,
				"z": 2.4600446467,
				"element": "C" 
			},
			{
				"x": 3.6370221813,
				"y": -0.7157826615,
				"z": 1.5684689448,
				"element": "C" 
			},
			{
				"x": 3.1277918604,
				"y": -1.0823927281,
				"z": 0.3264412257,
				"element": "C" 
			},
			{
				"x": 0.6961336892,
				"y": 1.2921541574,
				"z": 3.086622389,
				"element": "C" 
			},
			{
				"x": 0.3250404494,
				"y": 2.6302228772,
				"z": 2.404039078,
				"element": "C" 
			},
			{
				"x": 1.413195286,
				"y": 1.6115316952,
				"z": 4.4119703225,
				"element": "C" 
			},
			{
				"x": -0.5963678437,
				"y": 0.506613436,
				"z": 3.4132550773,
				"element": "C" 
			},
			{
				"x": -3.5620021099,
				"y": 0.2206509539,
				"z": -6.5497377179,
				"element": "H" 
			},
			{
				"x": -3.1281119428,
				"y": -0.1110497715,
				"z": -4.8416163829,
				"element": "H" 
			},
			{
				"x": -2.6649607661,
				"y": -1.2659991018,
				"z": -6.109127846,
				"element": "H" 
			},
			{
				"x": 2.5853425371,
				"y": -0.6527512119,
				"z": -3.3828134948,
				"element": "H" 
			},
			{
				"x": 2.6923967708,
				"y": 1.1976663186,
				"z": -5.0590194901,
				"element": "H" 
			},
			{
				"x": 0.6291651909,
				"y": 1.7727185925,
				"z": -6.383034941,
				"element": "H" 
			},
			{
				"x": 0.1705428977,
				"y": -4.2102366557,
				"z": -3.1970921815,
				"element": "H" 
			},
			{
				"x": -1.3539576561,
				"y": -3.3995045392,
				"z": -2.8047975058,
				"element": "H" 
			},
			{
				"x": -0.6264863496,
				"y": -3.1627447245,
				"z": -4.4132165,
				"element": "H" 
			},
			{
				"x": 0.0720416898,
				"y": 0.3735853249,
				"z": 0.5626449864,
				"element": "H" 
			},
			{
				"x": 3.3058418269,
				"y": 0.3078074571,
				"z": 3.4167386671,
				"element": "H" 
			},
			{
				"x": 4.6405150456,
				"y": -1.0223446291,
				"z": 1.848902105,
				"element": "H" 
			},
			{
				"x": 3.7041017018,
				"y": -1.6738836447,
				"z": -0.3762010687,
				"element": "H" 
			},
			{
				"x": -0.3047997908,
				"y": 3.2335939732,
				"z": 3.0674371512,
				"element": "H" 
			},
			{
				"x": 1.222103867,
				"y": 3.2113728156,
				"z": 2.1660301275,
				"element": "H" 
			},
			{
				"x": -0.2280930968,
				"y": 2.4737720318,
				"z": 1.4731927543,
				"element": "H" 
			},
			{
				"x": 0.7530810496,
				"y": 2.2042615122,
				"z": 5.0534111816,
				"element": "H" 
			},
			{
				"x": 1.6773429935,
				"y": 0.7024040347,
				"z": 4.9619631654,
				"element": "H" 
			},
			{
				"x": 2.3268173786,
				"y": 2.1936221602,
				"z": 4.251978063,
				"element": "H" 
			},
			{
				"x": -1.2347306092,
				"y": 1.0888028098,
				"z": 4.0874851531,
				"element": "H" 
			},
			{
				"x": -0.3633281228,
				"y": -0.4451933063,
				"z": 3.9011620202,
				"element": "H" 
			},
			{
				"x": -1.1772044809,
				"y": 0.2844226963,
				"z": 2.5133388264,
				"element": "H" 
			}
		],
		 "valence_orbital": [ 
			{
				"type": "occ",
				"energy": -0.24815,
				"method": "rhf"
			},
			{
				"type": "occ",
				"energy": -0.24636,
				"method": "rhf"
			},
			{
				"type": "occ",
				"energy": -0.23637,
				"method": "rhf"
			},
			{
				"type": "occ",
				"energy": -0.2177,
				"method": "rhf"
			},
			{
				"type": "occ",
				"energy": -0.20803,
				"method": "rhf"
			},
			{
				"type": "unocc",
				"energy": -0.03741,
				"method": "rhf"
			},
			{
				"type": "unocc",
				"energy": -0.01104,
				"method": "rhf"
			},
			{
				"type": "unocc",
				"energy": -0.0035,
				"method": "rhf"
			},
			{
				"type": "unocc",
				"energy": 0.00215,
				"method": "rhf"
			},
			{
				"type": "unocc",
				"energy": 0.01145,
				"method": "rhf"
			}
		],
		"cosmo_sigma_profile": { 
			"-0.025": 0.0,
			"-0.024": 0.0,
			"-0.023": 0.0,
			"-0.022": 0.0,
			"-0.021": 0.0,
			"-0.02": 0.0,
			"-0.019": 0.0,
			"-0.018": 0.0,
			"-0.017": 0.0,
			"-0.016": 0.0,
			"-0.015": 0.0,
			"-0.014": 0.0,
			"-0.013": 0.0,
			"-0.012": 0.0,
			"-0.011": 0.0,
			"-0.01": 0.0,
			"-0.009": 0.0,
			"-0.008": 0.423257239003,
			"-0.007": 5.55726900171,
			"-0.006": 14.6810115935,
			"-0.005": 24.7420953731,
			"-0.004": 29.1477903271,
			"-0.003": 42.9286780458,
			"-0.002": 42.2874271634,
			"-0.001": 35.257085827,
			"0.0": 32.6904976642,
			"0.001": 42.098319506,
			"0.002": 29.3237231958,
			"0.003": 21.1432835438,
			"0.004": 15.0921025044,
			"0.005": 13.4268888006,
			"0.006": 10.469366864,
			"0.007": 7.62438685717,
			"0.008": 10.3013215505,
			"0.009": 9.43708369464,
			"0.01": 3.14354603666,
			"0.011": 1.54085768983,
			"0.012": 0.014254291685,
			"0.013": 0.0,
			"0.014": 0.0,
			"0.015": 0.0,
			"0.016": 0.0,
			"0.017": 0.0,
			"0.018": 0.0,
			"0.019": 0.0,
			"0.02": 0.0,
			"0.021": 0.0,
			"0.022": 0.0,
			"0.023": 0.0,
			"0.024": 0.0,
			"0.025": 0.0
		}
	}
}
