{
	 "smiles": "CC1=NC=C(C)C(N)=C1", 
	 "Tm": 419.15, 
	 "num_atms": 19, 
	 "gaussian": { 
		 "optdone": 1, 
		 "sigma_profile": "yes", 
		 "theory": "DFT", 
		 "functional": "B3LYP", 
		 "basiset": "6-31G**", 
		 "properties": { 
			 "R2extent": 1509.903, 
			 "electric_dipole_moment_norm": 3.62473920441, 
			 "electric_quadrupole_moment_norm": 6.94184965913, 
			 "total_energy": -382.292049792, 
			 "HOMO_LUMO_gap": 0.22303, 
			 "cosmo_polarized_energy": -11.25, 
			 "cosmo_cavitation_energy": 21.97, 
			 "cosmo_dispersion_energy": -16.45, 
			 "cosmo_repulsion_energy": 1.35, 
			 "cosmo_total_nonelectrostatic_energy": 6.87, 
			 "SMD_solvation_energy": 2.45 
		},
		"coords": [
			{
				"x": -3.3387981402,
				"y": 1.1951899481,
				"z": -1.4373066878,
				"element": "C" 
			},
			{
				"x": -2.1487465378,
				"y": 0.7952999669,
				"z": -0.5995411884,
				"element": "C" 
			},
			{
				"x": -1.4076036359,
				"y": 1.8005095528,
				"z": -0.1000333886,
				"element": "N" 
			},
			{
				"x": -0.3483604466,
				"y": 1.4625727683,
				"z": 0.6420062341,
				"element": "C" 
			},
			{
				"x": 0.0558267365,
				"y": 0.1622295615,
				"z": 0.9450696692,
				"element": "C" 
			},
			{
				"x": 1.2763881169,
				"y": -0.1132755686,
				"z": 1.7833260865,
				"element": "C" 
			},
			{
				"x": -0.7310013837,
				"y": -0.8853267989,
				"z": 0.4192023921,
				"element": "C" 
			},
			{
				"x": -0.3819597321,
				"y": -2.2111416596,
				"z": 0.624777152,
				"element": "N" 
			},
			{
				"x": -1.846618779,
				"y": -0.5450424445,
				"z": -0.3623121606,
				"element": "C" 
			},
			{
				"x": -3.9004792565,
				"y": 0.3267383801,
				"z": -1.7920391081,
				"element": "H" 
			},
			{
				"x": -4.0123401872,
				"y": 1.8361241223,
				"z": -0.8590022127,
				"element": "H" 
			},
			{
				"x": -3.0129849625,
				"y": 1.7781330255,
				"z": -2.3052335334,
				"element": "H" 
			},
			{
				"x": 0.2384003404,
				"y": 2.2939545024,
				"z": 1.0355939949,
				"element": "H" 
			},
			{
				"x": 1.7676140712,
				"y": 0.819704159,
				"z": 2.0722484807,
				"element": "H" 
			},
			{
				"x": 1.031010831,
				"y": -0.6491080188,
				"z": 2.7116523062,
				"element": "H" 
			},
			{
				"x": 2.0110918431,
				"y": -0.7239183398,
				"z": 1.2430554153,
				"element": "H" 
			},
			{
				"x": -1.1085542797,
				"y": -2.8928480057,
				"z": 0.4604604208,
				"element": "H" 
			},
			{
				"x": 0.1754892548,
				"y": -2.4127283835,
				"z": 1.4415998482,
				"element": "H" 
			},
			{
				"x": -2.4711738528,
				"y": -1.3289667677,
				"z": -0.7837237205,
				"element": "H" 
			}
		],
		 "valence_orbital": [ 
			{
				"type": "occ",
				"energy": -0.34109,
				"method": "rhf"
			},
			{
				"type": "occ",
				"energy": -0.32467,
				"method": "rhf"
			},
			{
				"type": "occ",
				"energy": -0.23618,
				"method": "rhf"
			},
			{
				"type": "occ",
				"energy": -0.23552,
				"method": "rhf"
			},
			{
				"type": "occ",
				"energy": -0.21621,
				"method": "rhf"
			},
			{
				"type": "unocc",
				"energy": 0.00682,
				"method": "rhf"
			},
			{
				"type": "unocc",
				"energy": 0.00978,
				"method": "rhf"
			},
			{
				"type": "unocc",
				"energy": 0.07022,
				"method": "rhf"
			},
			{
				"type": "unocc",
				"energy": 0.10483,
				"method": "rhf"
			},
			{
				"type": "unocc",
				"energy": 0.12258,
				"method": "rhf"
			}
		],
		"cosmo_sigma_profile": { 
			"-0.025": 0.0,
			"-0.024": 0.0,
			"-0.023": 0.0,
			"-0.022": 0.0,
			"-0.021": 0.0,
			"-0.02": 0.0,
			"-0.019": 0.0,
			"-0.018": 0.0,
			"-0.017": 0.0,
			"-0.016": 0.0,
			"-0.015": 0.0,
			"-0.014": 0.0,
			"-0.013": 0.977321510466,
			"-0.012": 2.32750342058,
			"-0.011": 2.81595492448,
			"-0.01": 2.97321666164,
			"-0.009": 3.11347560834,
			"-0.008": 2.69971973916,
			"-0.007": 2.33417217146,
			"-0.006": 3.79881622567,
			"-0.005": 7.5310751937,
			"-0.004": 14.8085387454,
			"-0.003": 13.006729813,
			"-0.002": 14.384006752,
			"-0.001": 15.0717091955,
			"0.0": 16.265668788,
			"0.001": 13.2543880069,
			"0.002": 7.66662839843,
			"0.003": 7.16226430772,
			"0.004": 11.1452732718,
			"0.005": 9.87190403172,
			"0.006": 3.64383644892,
			"0.007": 2.99717635379,
			"0.008": 1.9864097523,
			"0.009": 1.86736721024,
			"0.01": 2.34571750923,
			"0.011": 1.99626897581,
			"0.012": 1.24091891362,
			"0.013": 1.27486524861,
			"0.014": 0.86927864379,
			"0.015": 1.00151661062,
			"0.016": 0.841846891578,
			"0.017": 0.868408717633,
			"0.018": 0.675201579797,
			"0.019": 0.130863913063,
			"0.02": 0.0,
			"0.021": 0.0,
			"0.022": 0.0,
			"0.023": 0.0,
			"0.024": 0.0,
			"0.025": 0.0
		}
	}
}
