{
	 "smiles": "OC(=O)C1=CC=CO1", 
	 "Tm": 405.15, 
	 "num_atms": 12, 
	 "gaussian": { 
		 "optdone": 1, 
		 "sigma_profile": "yes", 
		 "theory": "DFT", 
		 "functional": "B3LYP", 
		 "basiset": "6-31G**", 
		 "properties": { 
			 "R2extent": 1023.3116, 
			 "electric_dipole_moment_norm": 5.02330249736, 
			 "electric_quadrupole_moment_norm": 6.78636457538, 
			 "total_energy": -418.592715744, 
			 "HOMO_LUMO_gap": 0.20405, 
			 "cosmo_polarized_energy": -12.05, 
			 "cosmo_cavitation_energy": 17.08, 
			 "cosmo_dispersion_energy": -12.85, 
			 "cosmo_repulsion_energy": 1.07, 
			 "cosmo_total_nonelectrostatic_energy": 5.3, 
			 "SMD_solvation_energy": 5.38 
		},
		"coords": [
			{
				"x": -0.6454995701,
				"y": -2.2595090645,
				"z": 1.3805714604,
				"element": "O" 
			},
			{
				"x": -0.0140429723,
				"y": -1.5007690786,
				"z": 0.4511466132,
				"element": "C" 
			},
			{
				"x": 0.5243188132,
				"y": -1.9919271478,
				"z": -0.5135169537,
				"element": "O" 
			},
			{
				"x": -0.030761798,
				"y": -0.0499043975,
				"z": 0.6992900675,
				"element": "C" 
			},
			{
				"x": 0.4900252416,
				"y": 1.0005370175,
				"z": -0.0021786574,
				"element": "C" 
			},
			{
				"x": 0.1557472073,
				"y": 2.1797910068,
				"z": 0.7301514093,
				"element": "C" 
			},
			{
				"x": -0.5449941503,
				"y": 1.7651124703,
				"z": 1.8251652097,
				"element": "C" 
			},
			{
				"x": -0.6702064021,
				"y": 0.410412791,
				"z": 1.8265048907,
				"element": "O" 
			},
			{
				"x": -1.0125097563,
				"y": -1.689478685,
				"z": 2.0743537466,
				"element": "H" 
			},
			{
				"x": 1.0419847236,
				"y": 0.9220386571,
				"z": -0.9267011202,
				"element": "H" 
			},
			{
				"x": 0.4023882453,
				"y": 3.2008392702,
				"z": 0.477852249,
				"element": "H" 
			},
			{
				"x": -1.000049582,
				"y": 2.2819571603,
				"z": 2.655961085,
				"element": "H" 
			}
		],
		 "valence_orbital": [ 
			{
				"type": "occ",
				"energy": -0.38373,
				"method": "rhf"
			},
			{
				"type": "occ",
				"energy": -0.31836,
				"method": "rhf"
			},
			{
				"type": "occ",
				"energy": -0.3035,
				"method": "rhf"
			},
			{
				"type": "occ",
				"energy": -0.2777,
				"method": "rhf"
			},
			{
				"type": "occ",
				"energy": -0.25418,
				"method": "rhf"
			},
			{
				"type": "unocc",
				"energy": -0.05013,
				"method": "rhf"
			},
			{
				"type": "unocc",
				"energy": 0.02907,
				"method": "rhf"
			},
			{
				"type": "unocc",
				"energy": 0.07747,
				"method": "rhf"
			},
			{
				"type": "unocc",
				"energy": 0.10375,
				"method": "rhf"
			},
			{
				"type": "unocc",
				"energy": 0.10775,
				"method": "rhf"
			}
		],
		"cosmo_sigma_profile": { 
			"-0.025": 0.0,
			"-0.024": 0.0,
			"-0.023": 0.0,
			"-0.022": 0.0,
			"-0.021": 0.0,
			"-0.02": 0.0,
			"-0.019": 0.0,
			"-0.018": 0.0,
			"-0.017": 0.263973486278,
			"-0.016": 0.649983104059,
			"-0.015": 0.754807417529,
			"-0.014": 0.083966901343,
			"-0.013": 0.777996365345,
			"-0.012": 1.09539741761,
			"-0.011": 1.0040904539,
			"-0.01": 2.78578128519,
			"-0.009": 3.709773275,
			"-0.008": 5.97671046195,
			"-0.007": 5.82739850684,
			"-0.006": 6.56672714203,
			"-0.005": 6.79840058112,
			"-0.004": 6.25846118846,
			"-0.003": 6.83706301439,
			"-0.002": 7.3122797853,
			"-0.001": 7.1141707425,
			"0.0": 11.818563387,
			"0.001": 11.0216081668,
			"0.002": 10.7573559692,
			"0.003": 7.45709775974,
			"0.004": 2.59935812398,
			"0.005": 1.97643673706,
			"0.006": 2.37990961124,
			"0.007": 2.58117377086,
			"0.008": 2.90921326986,
			"0.009": 3.57191505165,
			"0.01": 4.8727301518,
			"0.011": 4.82376659566,
			"0.012": 5.38402955378,
			"0.013": 1.61584255518,
			"0.014": 0.0738149732301,
			"0.015": 0.0,
			"0.016": 0.0,
			"0.017": 0.0,
			"0.018": 0.0,
			"0.019": 0.0,
			"0.02": 0.0,
			"0.021": 0.0,
			"0.022": 0.0,
			"0.023": 0.0,
			"0.024": 0.0,
			"0.025": 0.0
		}
	}
}
