{
	 "smiles": "CN1C(=O)N(C)C(=O)C(=NNC2=C(Br)C=C(Br)C=C2Br)C1=O", 
	 "Tm": 438.15, 
	 "num_atms": 31, 
	 "gaussian": { 
		 "optdone": 1, 
		 "sigma_profile": "yes", 
		 "theory": "DFT", 
		 "functional": "B3LYP", 
		 "basiset": "6-31G**", 
		 "properties": { 
			 "R2extent": 15859.0112, 
			 "electric_dipole_moment_norm": 2.1420965081, 
			 "electric_quadrupole_moment_norm": 5.11085095165, 
			 "total_energy": -8621.59816362, 
			 "HOMO_LUMO_gap": 0.1442, 
			 "cosmo_polarized_energy": -15.58, 
			 "cosmo_cavitation_energy": 43.32, 
			 "cosmo_dispersion_energy": -31.69, 
			 "cosmo_repulsion_energy": 2.39, 
			 "cosmo_total_nonelectrostatic_energy": 14.02, 
			 "SMD_solvation_energy": 5.73 
		},
		"coords": [
			{
				"x": 0.9412746304,
				"y": 4.5076053124,
				"z": 2.0668958752,
				"element": "C" 
			},
			{
				"x": 0.1875531408,
				"y": 3.5694500471,
				"z": 1.2256319791,
				"element": "N" 
			},
			{
				"x": -0.8118526287,
				"y": 4.1306397543,
				"z": 0.438947249,
				"element": "C" 
			},
			{
				"x": -1.044894632,
				"y": 5.3269740984,
				"z": 0.4496463247,
				"element": "O" 
			},
			{
				"x": -1.55718138,
				"y": 3.2653338698,
				"z": -0.3791341503,
				"element": "N" 
			},
			{
				"x": -2.6079354113,
				"y": 3.8934096744,
				"z": -1.1905473891,
				"element": "C" 
			},
			{
				"x": -1.3628857299,
				"y": 1.895176669,
				"z": -0.4516603576,
				"element": "C" 
			},
			{
				"x": -2.0641109224,
				"y": 1.1866647182,
				"z": -1.1883943153,
				"element": "O" 
			},
			{
				"x": -0.2933644993,
				"y": 1.339523873,
				"z": 0.3843734719,
				"element": "C" 
			},
			{
				"x": 0.0199536279,
				"y": 0.062415735,
				"z": 0.4130554746,
				"element": "N" 
			},
			{
				"x": -0.6230779436,
				"y": -0.8008733865,
				"z": -0.3267737018,
				"element": "N" 
			},
			{
				"x": -0.2976517887,
				"y": -2.1673451282,
				"z": -0.2892767857,
				"element": "C" 
			},
			{
				"x": 1.0198005173,
				"y": -2.6647653197,
				"z": -0.2073589535,
				"element": "C" 
			},
			{
				"x": 2.5468610022,
				"y": -1.5333949036,
				"z": -0.2168083873,
				"element": "Br" 
			},
			{
				"x": 1.2668653299,
				"y": -4.0367283773,
				"z": -0.1740775655,
				"element": "C" 
			},
			{
				"x": 0.2062868526,
				"y": -4.9333024354,
				"z": -0.2538619995,
				"element": "C" 
			},
			{
				"x": 0.5534921884,
				"y": -6.803592481,
				"z": -0.2158622387,
				"element": "Br" 
			},
			{
				"x": -1.1045807971,
				"y": -4.4819253564,
				"z": -0.3744248632,
				"element": "C" 
			},
			{
				"x": -1.3391812794,
				"y": -3.1119359099,
				"z": -0.386516709,
				"element": "C" 
			},
			{
				"x": -3.1482001934,
				"y": -2.5236767396,
				"z": -0.5336544867,
				"element": "Br" 
			},
			{
				"x": 0.5237468628,
				"y": 2.2022059124,
				"z": 1.270053148,
				"element": "C" 
			},
			{
				"x": 1.4192676975,
				"y": 1.7933013428,
				"z": 1.986190509,
				"element": "O" 
			},
			{
				"x": 1.6761177545,
				"y": 3.9257669795,
				"z": 2.6178365335,
				"element": "H" 
			},
			{
				"x": 1.4334124007,
				"y": 5.2558218051,
				"z": 1.4424225687,
				"element": "H" 
			},
			{
				"x": 0.2636633456,
				"y": 5.0198845083,
				"z": 2.7526626712,
				"element": "H" 
			},
			{
				"x": -3.3277735208,
				"y": 4.3942310784,
				"z": -0.5406518287,
				"element": "H" 
			},
			{
				"x": -3.0930327775,
				"y": 3.1075856163,
				"z": -1.7640555346,
				"element": "H" 
			},
			{
				"x": -2.1659324291,
				"y": 4.6373766161,
				"z": -1.8556241999,
				"element": "H" 
			},
			{
				"x": -1.4266576494,
				"y": -0.4620041699,
				"z": -0.8750518316,
				"element": "H" 
			},
			{
				"x": 2.2860052217,
				"y": -4.3937093487,
				"z": -0.1067509053,
				"element": "H" 
			},
			{
				"x": -1.9303869897,
				"y": -5.1772140542,
				"z": -0.4454296018,
				"element": "H" 
			}
		],
		 "valence_orbital": [ 
			{
				"type": "occ",
				"energy": -0.28122,
				"method": "rhf"
			},
			{
				"type": "occ",
				"energy": -0.27672,
				"method": "rhf"
			},
			{
				"type": "occ",
				"energy": -0.26487,
				"method": "rhf"
			},
			{
				"type": "occ",
				"energy": -0.26092,
				"method": "rhf"
			},
			{
				"type": "occ",
				"energy": -0.24058,
				"method": "rhf"
			},
			{
				"type": "unocc",
				"energy": -0.09638,
				"method": "rhf"
			},
			{
				"type": "unocc",
				"energy": -0.04953,
				"method": "rhf"
			},
			{
				"type": "unocc",
				"energy": -0.04404,
				"method": "rhf"
			},
			{
				"type": "unocc",
				"energy": -0.03416,
				"method": "rhf"
			},
			{
				"type": "unocc",
				"energy": -0.00443,
				"method": "rhf"
			}
		],
		"cosmo_sigma_profile": { 
			"-0.025": 0.0,
			"-0.024": 0.0,
			"-0.023": 0.0,
			"-0.022": 0.0,
			"-0.021": 0.0,
			"-0.02": 0.0,
			"-0.019": 0.0,
			"-0.018": 0.0,
			"-0.017": 0.0,
			"-0.016": 0.0,
			"-0.015": 0.0,
			"-0.014": 0.0,
			"-0.013": 0.0,
			"-0.012": 0.0,
			"-0.011": 0.0679383367614,
			"-0.01": 0.744175771123,
			"-0.009": 2.95600917068,
			"-0.008": 5.45563263501,
			"-0.007": 4.81559279972,
			"-0.006": 15.1230865864,
			"-0.005": 26.1773440142,
			"-0.004": 30.1792180905,
			"-0.003": 33.9655396478,
			"-0.002": 34.425044624,
			"-0.001": 33.4805581508,
			"0.0": 29.8843712706,
			"0.001": 22.8710579677,
			"0.002": 26.5187838345,
			"0.003": 29.0237313503,
			"0.004": 13.1434942423,
			"0.005": 6.10312464328,
			"0.006": 4.93031365205,
			"0.007": 4.17641745792,
			"0.008": 5.11001750429,
			"0.009": 6.15048781176,
			"0.01": 6.15444047594,
			"0.011": 7.36659447194,
			"0.012": 6.79147715316,
			"0.013": 1.67785051016,
			"0.014": 0.934078142454,
			"0.015": 0.0927628085381,
			"0.016": 0.0,
			"0.017": 0.0,
			"0.018": 0.0,
			"0.019": 0.0,
			"0.02": 0.0,
			"0.021": 0.0,
			"0.022": 0.0,
			"0.023": 0.0,
			"0.024": 0.0,
			"0.025": 0.0
		}
	}
}
