{
	 "smiles": "CC(C)(C)NCC(O)CO", 
	 "Tm": 360.15, 
	 "num_atms": 27, 
	 "gaussian": { 
		 "optdone": 1, 
		 "sigma_profile": "yes", 
		 "theory": "DFT", 
		 "functional": "B3LYP", 
		 "basiset": "6-31G**", 
		 "properties": { 
			 "R2extent": 2433.5951, 
			 "electric_dipole_moment_norm": 2.74124589557, 
			 "electric_quadrupole_moment_norm": 13.6014502778, 
			 "total_energy": -482.18013125, 
			 "HOMO_LUMO_gap": 0.26203, 
			 "cosmo_polarized_energy": -10.43, 
			 "cosmo_cavitation_energy": 27.73, 
			 "cosmo_dispersion_energy": -19.72, 
			 "cosmo_repulsion_energy": 1.63, 
			 "cosmo_total_nonelectrostatic_energy": 9.64, 
			 "SMD_solvation_energy": 3.42 
		},
		"coords": [
			{
				"x": 0.2359391443,
				"y": -0.4531487039,
				"z": -2.1941331119,
				"element": "C" 
			},
			{
				"x": 0.1631583623,
				"y": 0.963818563,
				"z": -1.5787359994,
				"element": "C" 
			},
			{
				"x": 1.533719454,
				"y": 1.3497535865,
				"z": -0.9952940122,
				"element": "C" 
			},
			{
				"x": -0.2226574391,
				"y": 1.9724664112,
				"z": -2.6746464799,
				"element": "C" 
			},
			{
				"x": -0.866772287,
				"y": 1.0904310212,
				"z": -0.5272539059,
				"element": "N" 
			},
			{
				"x": -0.7586324822,
				"y": 0.2434942815,
				"z": 0.6549469808,
				"element": "C" 
			},
			{
				"x": -2.0399949217,
				"y": 0.3982348374,
				"z": 1.4855873028,
				"element": "C" 
			},
			{
				"x": -3.1897422953,
				"y": 0.0485123028,
				"z": 0.7165824454,
				"element": "O" 
			},
			{
				"x": -2.0208664377,
				"y": -0.4307429159,
				"z": 2.7683247495,
				"element": "C" 
			},
			{
				"x": -2.0722607418,
				"y": -1.8041533622,
				"z": 2.3724608195,
				"element": "O" 
			},
			{
				"x": 0.9803947112,
				"y": -0.4967566483,
				"z": -2.9970138614,
				"element": "H" 
			},
			{
				"x": 0.5131573211,
				"y": -1.2055175478,
				"z": -1.4489238912,
				"element": "H" 
			},
			{
				"x": -0.7325261743,
				"y": -0.7404157204,
				"z": -2.6200440129,
				"element": "H" 
			},
			{
				"x": 1.8771419356,
				"y": 0.6257409231,
				"z": -0.249087555,
				"element": "H" 
			},
			{
				"x": 2.289833456,
				"y": 1.3880098738,
				"z": -1.7862166838,
				"element": "H" 
			},
			{
				"x": 1.4795646156,
				"y": 2.3333160281,
				"z": -0.5183462624,
				"element": "H" 
			},
			{
				"x": -1.2047454811,
				"y": 1.7304447702,
				"z": -3.0985393791,
				"element": "H" 
			},
			{
				"x": 0.504573427,
				"y": 1.9633487893,
				"z": -3.4931518684,
				"element": "H" 
			},
			{
				"x": -0.2747631519,
				"y": 2.9833145443,
				"z": -2.2600264831,
				"element": "H" 
			},
			{
				"x": -1.7829532718,
				"y": 0.9131480978,
				"z": -0.9356425425,
				"element": "H" 
			},
			{
				"x": 0.0941756352,
				"y": 0.5661435958,
				"z": 1.2660644884,
				"element": "H" 
			},
			{
				"x": -0.6122312905,
				"y": -0.8297929303,
				"z": 0.4412476363,
				"element": "H" 
			},
			{
				"x": -2.1568939915,
				"y": 1.4568948999,
				"z": 1.7446379828,
				"element": "H" 
			},
			{
				"x": -3.218428498,
				"y": -0.9210387799,
				"z": 0.7382145939,
				"element": "H" 
			},
			{
				"x": -1.1149062904,
				"y": -0.2163486549,
				"z": 3.3550526723,
				"element": "H" 
			},
			{
				"x": -2.8981380857,
				"y": -0.1663959318,
				"z": 3.3747756835,
				"element": "H" 
			},
			{
				"x": -2.3144452225,
				"y": -2.3382613303,
				"z": 3.1376606939,
				"element": "H" 
			}
		],
		 "valence_orbital": [ 
			{
				"type": "occ",
				"energy": -0.31986,
				"method": "rhf"
			},
			{
				"type": "occ",
				"energy": -0.3097,
				"method": "rhf"
			},
			{
				"type": "occ",
				"energy": -0.28482,
				"method": "rhf"
			},
			{
				"type": "occ",
				"energy": -0.26394,
				"method": "rhf"
			},
			{
				"type": "occ",
				"energy": -0.20387,
				"method": "rhf"
			},
			{
				"type": "unocc",
				"energy": 0.05816,
				"method": "rhf"
			},
			{
				"type": "unocc",
				"energy": 0.08599,
				"method": "rhf"
			},
			{
				"type": "unocc",
				"energy": 0.11258,
				"method": "rhf"
			},
			{
				"type": "unocc",
				"energy": 0.12353,
				"method": "rhf"
			},
			{
				"type": "unocc",
				"energy": 0.12981,
				"method": "rhf"
			}
		],
		"cosmo_sigma_profile": { 
			"-0.025": 0.0,
			"-0.024": 0.0,
			"-0.023": 0.0,
			"-0.022": 0.0,
			"-0.021": 0.0,
			"-0.02": 0.0,
			"-0.019": 0.0,
			"-0.018": 0.0,
			"-0.017": 0.0467051518811,
			"-0.016": 0.916553923379,
			"-0.015": 1.23035919119,
			"-0.014": 0.786890126224,
			"-0.013": 0.953836088342,
			"-0.012": 0.896994497834,
			"-0.011": 1.39316360439,
			"-0.01": 1.187137752,
			"-0.009": 1.64585318596,
			"-0.008": 1.11713792388,
			"-0.007": 1.61652105677,
			"-0.006": 2.40397620719,
			"-0.005": 4.59006409522,
			"-0.004": 14.4588539033,
			"-0.003": 21.3920611707,
			"-0.002": 30.4166606528,
			"-0.001": 23.2552533763,
			"0.0": 21.5322290131,
			"0.001": 25.7472628782,
			"0.002": 18.5902083824,
			"0.003": 4.14506431149,
			"0.004": 4.32796309418,
			"0.005": 3.95117406336,
			"0.006": 2.93166030123,
			"0.007": 3.24767784071,
			"0.008": 2.78185058753,
			"0.009": 3.01587423014,
			"0.01": 2.79447127581,
			"0.011": 2.50583992889,
			"0.012": 2.59982817787,
			"0.013": 2.0408035339,
			"0.014": 1.8114733385,
			"0.015": 1.03056867747,
			"0.016": 0.251924647397,
			"0.017": 0.591145730982,
			"0.018": 0.129936487391,
			"0.019": 0.0,
			"0.02": 0.0,
			"0.021": 0.0,
			"0.022": 0.0,
			"0.023": 0.0,
			"0.024": 0.0,
			"0.025": 0.0
		}
	}
}
