{
	 "smiles": "COC1=CC(N)=NC=C1", 
	 "Tm": 373.15, 
	 "num_atms": 17, 
	 "gaussian": { 
		 "optdone": 1, 
		 "sigma_profile": "yes", 
		 "theory": "DFT", 
		 "functional": "B3LYP", 
		 "basiset": "6-31G**", 
		 "properties": { 
			 "R2extent": 1431.1721, 
			 "electric_dipole_moment_norm": 3.2034939129, 
			 "electric_quadrupole_moment_norm": 6.66717391404, 
			 "total_energy": -418.180998433, 
			 "HOMO_LUMO_gap": 0.21267, 
			 "cosmo_polarized_energy": -11.24, 
			 "cosmo_cavitation_energy": 20.74, 
			 "cosmo_dispersion_energy": -15.73, 
			 "cosmo_repulsion_energy": 1.3, 
			 "cosmo_total_nonelectrostatic_energy": 6.3, 
			 "SMD_solvation_energy": 3.08 
		},
		"coords": [
			{
				"x": 1.1268221773,
				"y": 1.2096313468,
				"z": 1.4421318438,
				"element": "C" 
			},
			{
				"x": 1.2182717234,
				"y": -0.1912627773,
				"z": 1.2249045574,
				"element": "O" 
			},
			{
				"x": 0.3642688626,
				"y": -0.7641536093,
				"z": 0.3375976355,
				"element": "C" 
			},
			{
				"x": -0.6037944236,
				"y": -0.0752763381,
				"z": -0.3886415417,
				"element": "C" 
			},
			{
				"x": -1.4154742466,
				"y": -0.814472866,
				"z": -1.2755819528,
				"element": "C" 
			},
			{
				"x": -2.4268623527,
				"y": -0.1891139223,
				"z": -1.9866597156,
				"element": "N" 
			},
			{
				"x": -1.3028254125,
				"y": -2.1370089192,
				"z": -1.4554436946,
				"element": "N" 
			},
			{
				"x": -0.3644114284,
				"y": -2.770056621,
				"z": -0.7335400032,
				"element": "C" 
			},
			{
				"x": 0.4910964353,
				"y": -2.1542245055,
				"z": 0.1647291302,
				"element": "C" 
			},
			{
				"x": 0.142590431,
				"y": 1.4929408561,
				"z": 1.835379628,
				"element": "H" 
			},
			{
				"x": 1.8923845472,
				"y": 1.4500215578,
				"z": 2.1812169121,
				"element": "H" 
			},
			{
				"x": 1.3231401316,
				"y": 1.7738993915,
				"z": 0.5218308874,
				"element": "H" 
			},
			{
				"x": -0.753337933,
				"y": 0.9922208114,
				"z": -0.2812302084,
				"element": "H" 
			},
			{
				"x": -2.7843746083,
				"y": -0.7504100901,
				"z": -2.747370874,
				"element": "H" 
			},
			{
				"x": -2.2949863568,
				"y": 0.7858889437,
				"z": -2.2114238208,
				"element": "H" 
			},
			{
				"x": -0.2942343952,
				"y": -3.8446292203,
				"z": -0.894859953,
				"element": "H" 
			},
			{
				"x": 1.2390268489,
				"y": -2.7053940381,
				"z": 0.7219611698,
				"element": "H" 
			}
		],
		 "valence_orbital": [ 
			{
				"type": "occ",
				"energy": -0.33536,
				"method": "rhf"
			},
			{
				"type": "occ",
				"energy": -0.29884,
				"method": "rhf"
			},
			{
				"type": "occ",
				"energy": -0.24935,
				"method": "rhf"
			},
			{
				"type": "occ",
				"energy": -0.24026,
				"method": "rhf"
			},
			{
				"type": "occ",
				"energy": -0.20826,
				"method": "rhf"
			},
			{
				"type": "unocc",
				"energy": 0.00441,
				"method": "rhf"
			},
			{
				"type": "unocc",
				"energy": 0.01772,
				"method": "rhf"
			},
			{
				"type": "unocc",
				"energy": 0.08593,
				"method": "rhf"
			},
			{
				"type": "unocc",
				"energy": 0.10088,
				"method": "rhf"
			},
			{
				"type": "unocc",
				"energy": 0.11075,
				"method": "rhf"
			}
		],
		"cosmo_sigma_profile": { 
			"-0.025": 0.0,
			"-0.024": 0.0,
			"-0.023": 0.0,
			"-0.022": 0.0,
			"-0.021": 0.0,
			"-0.02": 0.0,
			"-0.019": 0.0,
			"-0.018": 0.0,
			"-0.017": 0.0,
			"-0.016": 0.0,
			"-0.015": 0.0,
			"-0.014": 0.0,
			"-0.013": 1.05274508539,
			"-0.012": 1.89545279545,
			"-0.011": 2.60518457573,
			"-0.01": 2.56461322032,
			"-0.009": 2.93558611101,
			"-0.008": 2.11876946022,
			"-0.007": 3.61099043788,
			"-0.006": 9.97964331499,
			"-0.005": 14.5190880828,
			"-0.004": 13.9158502662,
			"-0.003": 13.7762688265,
			"-0.002": 7.32828176727,
			"-0.001": 6.354023165,
			"0.0": 6.17353381317,
			"0.001": 6.17997149773,
			"0.002": 8.47932301645,
			"0.003": 11.2601913939,
			"0.004": 14.7561666406,
			"0.005": 8.52420986237,
			"0.006": 4.31393116265,
			"0.007": 3.67169142866,
			"0.008": 3.34186454742,
			"0.009": 4.15056947386,
			"0.01": 3.33513470802,
			"0.011": 1.85434550154,
			"0.012": 1.39990544452,
			"0.013": 1.59816006632,
			"0.014": 0.799539787511,
			"0.015": 0.807033832157,
			"0.016": 0.966097985522,
			"0.017": 0.174242576767,
			"0.018": 0.0,
			"0.019": 0.0,
			"0.02": 0.0,
			"0.021": 0.0,
			"0.022": 0.0,
			"0.023": 0.0,
			"0.024": 0.0,
			"0.025": 0.0
		}
	}
}
