{
	 "smiles": "CCOC(=O)C(Cl)(CC1=CC(CC(Cl)(C(=O)OCC)C(=O)OCC)=C(C=C1[N+]([O-])=O)[N+]([O-])=O)C(=O)OCC", 
	 "Tm": 419.15, 
	 "num_atms": 64, 
	 "gaussian": { 
		 "optdone": 1, 
		 "sigma_profile": "yes", 
		 "theory": "DFT", 
		 "functional": "B3LYP", 
		 "basiset": "6-31G**", 
		 "properties": { 
			 "R2extent": 23620.8752, 
			 "electric_dipole_moment_norm": 5.12973555946, 
			 "electric_quadrupole_moment_norm": 42.302157355, 
			 "total_energy": -2786.41187515, 
			 "HOMO_LUMO_gap": 0.16915, 
			 "cosmo_polarized_energy": -26.36, 
			 "cosmo_cavitation_energy": 71.54, 
			 "cosmo_dispersion_energy": -42.11, 
			 "cosmo_repulsion_energy": 3.25, 
			 "cosmo_total_nonelectrostatic_energy": 32.68, 
			 "SMD_solvation_energy": 18.4 
		},
		"coords": [
			{
				"x": 3.3497653856,
				"y": -3.8738031726,
				"z": 3.3320395456,
				"element": "C" 
			},
			{
				"x": 4.3981392464,
				"y": -2.8028936825,
				"z": 3.5543555453,
				"element": "C" 
			},
			{
				"x": 3.8292104483,
				"y": -1.532182842,
				"z": 3.1193218038,
				"element": "O" 
			},
			{
				"x": 4.6050837783,
				"y": -0.450588033,
				"z": 3.3305347053,
				"element": "C" 
			},
			{
				"x": 5.7137980006,
				"y": -0.4766480323,
				"z": 3.7954132233,
				"element": "O" 
			},
			{
				"x": 3.8306312781,
				"y": 0.8152811085,
				"z": 2.8936861231,
				"element": "C" 
			},
			{
				"x": 4.771450171,
				"y": 2.2710703306,
				"z": 3.4523772525,
				"element": "Cl" 
			},
			{
				"x": 3.6589038519,
				"y": 0.984872998,
				"z": 1.3560799709,
				"element": "C" 
			},
			{
				"x": 2.8288088481,
				"y": -0.037771115,
				"z": 0.593105383,
				"element": "C" 
			},
			{
				"x": 1.5082719593,
				"y": 0.3142259258,
				"z": 0.2707195155,
				"element": "C" 
			},
			{
				"x": 0.6305594986,
				"y": -0.4805955815,
				"z": -0.4792139158,
				"element": "C" 
			},
			{
				"x": -0.7704130393,
				"y": -0.0178971513,
				"z": -0.8446572207,
				"element": "C" 
			},
			{
				"x": -1.0597038062,
				"y": 1.4980027283,
				"z": -0.8392688223,
				"element": "C" 
			},
			{
				"x": -1.2597661393,
				"y": 2.1345143574,
				"z": 0.8543677108,
				"element": "Cl" 
			},
			{
				"x": -2.4070551959,
				"y": 1.8082308595,
				"z": -1.534265696,
				"element": "C" 
			},
			{
				"x": -2.5819443516,
				"y": 2.7862572841,
				"z": -2.2251321092,
				"element": "O" 
			},
			{
				"x": -3.3280868892,
				"y": 0.883360473,
				"z": -1.2449855357,
				"element": "O" 
			},
			{
				"x": -4.6596015638,
				"y": 1.0901413556,
				"z": -1.7959994542,
				"element": "C" 
			},
			{
				"x": -4.7630397636,
				"y": 0.5234476265,
				"z": -3.2022696185,
				"element": "C" 
			},
			{
				"x": 0.0254722951,
				"y": 2.3142629931,
				"z": -1.5809306197,
				"element": "C" 
			},
			{
				"x": 0.6383800473,
				"y": 3.2519183226,
				"z": -1.1369541099,
				"element": "O" 
			},
			{
				"x": 0.1829069894,
				"y": 1.7806922166,
				"z": -2.8037805687,
				"element": "O" 
			},
			{
				"x": 1.0889032774,
				"y": 2.4761389463,
				"z": -3.7061635808,
				"element": "C" 
			},
			{
				"x": 0.3742653797,
				"y": 3.6108690737,
				"z": -4.4208780254,
				"element": "C" 
			},
			{
				"x": 1.140619704,
				"y": -1.7278505346,
				"z": -0.8975047166,
				"element": "C" 
			},
			{
				"x": 2.4401846708,
				"y": -2.1226484605,
				"z": -0.61378344,
				"element": "C" 
			},
			{
				"x": 3.2732213202,
				"y": -1.2841698311,
				"z": 0.115089072,
				"element": "C" 
			},
			{
				"x": 4.6384247321,
				"y": -1.7963868148,
				"z": 0.3341665363,
				"element": "N" 
			},
			{
				"x": 4.7978058333,
				"y": -3.0157850927,
				"z": 0.2803389836,
				"element": "O" 
			},
			{
				"x": 5.5437964562,
				"y": -0.9904704972,
				"z": 0.5407226658,
				"element": "O" 
			},
			{
				"x": 0.3383960716,
				"y": -2.7041429573,
				"z": -1.6587804829,
				"element": "N" 
			},
			{
				"x": 0.9439542068,
				"y": -3.524241502,
				"z": -2.3449987657,
				"element": "O" 
			},
			{
				"x": -0.8874513781,
				"y": -2.6565878487,
				"z": -1.546368256,
				"element": "O" 
			},
			{
				"x": 2.4799707007,
				"y": 0.9047242997,
				"z": 3.6346860788,
				"element": "C" 
			},
			{
				"x": 1.4626271627,
				"y": 1.3248942963,
				"z": 3.1304892192,
				"element": "O" 
			},
			{
				"x": 2.6067813652,
				"y": 0.5022718728,
				"z": 4.9033227368,
				"element": "O" 
			},
			{
				"x": 1.4280648444,
				"y": 0.6076117116,
				"z": 5.7480180491,
				"element": "C" 
			},
			{
				"x": 0.5405334034,
				"y": -0.6184865075,
				"z": 5.6087907736,
				"element": "C" 
			},
			{
				"x": 3.7358741107,
				"y": -4.8371343701,
				"z": 3.6791371714,
				"element": "H" 
			},
			{
				"x": 2.4334968179,
				"y": -3.6504878605,
				"z": 3.8863091125,
				"element": "H" 
			},
			{
				"x": 3.1090636613,
				"y": -3.9679642427,
				"z": 2.2703073757,
				"element": "H" 
			},
			{
				"x": 5.3054962307,
				"y": -2.9872688717,
				"z": 2.973328212,
				"element": "H" 
			},
			{
				"x": 4.6796822903,
				"y": -2.7033349572,
				"z": 4.6061195061,
				"element": "H" 
			},
			{
				"x": 3.1745243579,
				"y": 1.9536519493,
				"z": 1.2253276621,
				"element": "H" 
			},
			{
				"x": 4.6587393122,
				"y": 1.0415894002,
				"z": 0.9308778097,
				"element": "H" 
			},
			{
				"x": 1.1590126767,
				"y": 1.2655624364,
				"z": 0.6455194787,
				"element": "H" 
			},
			{
				"x": -1.5036153219,
				"y": -0.5071160942,
				"z": -0.1998609714,
				"element": "H" 
			},
			{
				"x": -1.0008751783,
				"y": -0.3712741847,
				"z": -1.8507627245,
				"element": "H" 
			},
			{
				"x": -4.8790207021,
				"y": 2.1597157218,
				"z": -1.7759652125,
				"element": "H" 
			},
			{
				"x": -5.3169649075,
				"y": 0.5677443171,
				"z": -1.0982941993,
				"element": "H" 
			},
			{
				"x": -5.7925221764,
				"y": 0.6213850435,
				"z": -3.561877428,
				"element": "H" 
			},
			{
				"x": -4.4937352344,
				"y": -0.5364685176,
				"z": -3.2170545727,
				"element": "H" 
			},
			{
				"x": -4.1088809998,
				"y": 1.0675411718,
				"z": -3.8879191407,
				"element": "H" 
			},
			{
				"x": 1.9423226277,
				"y": 2.8377666611,
				"z": -3.1284114104,
				"element": "H" 
			},
			{
				"x": 1.4196004946,
				"y": 1.700629505,
				"z": -4.4002364918,
				"element": "H" 
			},
			{
				"x": 1.0552447185,
				"y": 4.0760317589,
				"z": -5.1412002051,
				"element": "H" 
			},
			{
				"x": -0.5022854151,
				"y": 3.2412005149,
				"z": -4.9594011235,
				"element": "H" 
			},
			{
				"x": 0.0504572067,
				"y": 4.3731805385,
				"z": -3.7087755226,
				"element": "H" 
			},
			{
				"x": 2.8028151377,
				"y": -3.0773725683,
				"z": -0.9674622849,
				"element": "H" 
			},
			{
				"x": 1.834576555,
				"y": 0.7022131748,
				"z": 6.7567627126,
				"element": "H" 
			},
			{
				"x": 0.8925635516,
				"y": 1.5217242902,
				"z": 5.4825726655,
				"element": "H" 
			},
			{
				"x": -0.2964902675,
				"y": -0.5470893458,
				"z": 6.3109807504,
				"element": "H" 
			},
			{
				"x": 0.13357446,
				"y": -0.688791948,
				"z": 4.5972430743,
				"element": "H" 
			},
			{
				"x": 1.099177194,
				"y": -1.5317726461,
				"z": 5.8329457999,
				"element": "H" 
			}
		],
		 "valence_orbital": [ 
			{
				"type": "occ",
				"energy": -0.29646,
				"method": "rhf"
			},
			{
				"type": "occ",
				"energy": -0.29098,
				"method": "rhf"
			},
			{
				"type": "occ",
				"energy": -0.28927,
				"method": "rhf"
			},
			{
				"type": "occ",
				"energy": -0.28635,
				"method": "rhf"
			},
			{
				"type": "occ",
				"energy": -0.28108,
				"method": "rhf"
			},
			{
				"type": "unocc",
				"energy": -0.11193,
				"method": "rhf"
			},
			{
				"type": "unocc",
				"energy": -0.10098,
				"method": "rhf"
			},
			{
				"type": "unocc",
				"energy": -0.04478,
				"method": "rhf"
			},
			{
				"type": "unocc",
				"energy": -0.0389,
				"method": "rhf"
			},
			{
				"type": "unocc",
				"energy": -0.03109,
				"method": "rhf"
			}
		],
		"cosmo_sigma_profile": { 
			"-0.025": 0.0,
			"-0.024": 0.0,
			"-0.023": 0.0,
			"-0.022": 0.0,
			"-0.021": 0.0,
			"-0.02": 0.0,
			"-0.019": 0.0,
			"-0.018": 0.0,
			"-0.017": 0.0,
			"-0.016": 0.0,
			"-0.015": 0.0,
			"-0.014": 0.0,
			"-0.013": 0.0,
			"-0.012": 0.0,
			"-0.011": 0.318553587996,
			"-0.01": 0.717413363133,
			"-0.009": 1.06357567957,
			"-0.008": 3.40408656158,
			"-0.007": 8.92581779576,
			"-0.006": 24.008760209,
			"-0.005": 43.9299858149,
			"-0.004": 61.7584403466,
			"-0.003": 59.9687223063,
			"-0.002": 51.4631449515,
			"-0.001": 50.4124296238,
			"0.0": 43.3018514838,
			"0.001": 29.6749599804,
			"0.002": 25.3531435243,
			"0.003": 30.3886373394,
			"0.004": 26.6171922349,
			"0.005": 22.3981250195,
			"0.006": 20.3272411643,
			"0.007": 20.5026736303,
			"0.008": 16.0578384364,
			"0.009": 11.128164596,
			"0.01": 11.5822513074,
			"0.011": 5.15171659648,
			"0.012": 0.531920178652,
			"0.013": 0.0,
			"0.014": 0.0,
			"0.015": 0.0,
			"0.016": 0.0,
			"0.017": 0.0,
			"0.018": 0.0,
			"0.019": 0.0,
			"0.02": 0.0,
			"0.021": 0.0,
			"0.022": 0.0,
			"0.023": 0.0,
			"0.024": 0.0,
			"0.025": 0.0
		}
	}
}
