{
	 "smiles": "[O-][N+](=O)C1=CC(CCNC(=O)C2=CC=CC=C2)=CC(=C1CCNC(=O)C1=CC=CC=C1)[N+]([O-])=O", 
	 "Tm": 490.15, 
	 "num_atms": 56, 
	 "gaussian": { 
		 "optdone": 1, 
		 "sigma_profile": "yes", 
		 "theory": "DFT", 
		 "functional": "B3LYP", 
		 "basiset": "6-31G**", 
		 "properties": { 
			 "R2extent": 18395.8707, 
			 "electric_dipole_moment_norm": 2.00199332666, 
			 "electric_quadrupole_moment_norm": 53.4062546538, 
			 "total_energy": -1597.98007248, 
			 "HOMO_LUMO_gap": 0.13145, 
			 "cosmo_polarized_energy": -33.38, 
			 "cosmo_cavitation_energy": 60.7, 
			 "cosmo_dispersion_energy": -38.63, 
			 "cosmo_repulsion_energy": 2.86, 
			 "cosmo_total_nonelectrostatic_energy": 24.94, 
			 "SMD_solvation_energy": 13.79 
		},
		"coords": [
			{
				"x": -2.7560460126,
				"y": 3.546997217,
				"z": -0.9142505879,
				"element": "O" 
			},
			{
				"x": -1.5776462581,
				"y": 3.2107101179,
				"z": -0.8358624225,
				"element": "N" 
			},
			{
				"x": -0.6364418806,
				"y": 3.8516832694,
				"z": -1.3043484497,
				"element": "O" 
			},
			{
				"x": -1.2818403841,
				"y": 1.9639354741,
				"z": -0.0946197888,
				"element": "C" 
			},
			{
				"x": -2.1680038928,
				"y": 1.6870075245,
				"z": 0.9469625279,
				"element": "C" 
			},
			{
				"x": -1.977598324,
				"y": 0.5753557616,
				"z": 1.7662379412,
				"element": "C" 
			},
			{
				"x": -2.9384952685,
				"y": 0.2305469325,
				"z": 2.8793532884,
				"element": "C" 
			},
			{
				"x": -4.032676924,
				"y": -0.7759584825,
				"z": 2.4593552848,
				"element": "C" 
			},
			{
				"x": -4.9614336658,
				"y": -0.2170318183,
				"z": 1.4803747564,
				"element": "N" 
			},
			{
				"x": -5.6215127978,
				"y": -0.9222878717,
				"z": 0.4804810317,
				"element": "C" 
			},
			{
				"x": -6.7596804363,
				"y": -0.608240998,
				"z": 0.1547841635,
				"element": "O" 
			},
			{
				"x": -4.890206466,
				"y": -2.0288944035,
				"z": -0.2221471945,
				"element": "C" 
			},
			{
				"x": -5.6303975459,
				"y": -3.1468021871,
				"z": -0.6310572606,
				"element": "C" 
			},
			{
				"x": -5.0121805754,
				"y": -4.178593556,
				"z": -1.3342771185,
				"element": "C" 
			},
			{
				"x": -3.6557628062,
				"y": -4.0915819857,
				"z": -1.6609069217,
				"element": "C" 
			},
			{
				"x": -2.9193997372,
				"y": -2.9663463074,
				"z": -1.2855161328,
				"element": "C" 
			},
			{
				"x": -3.533954051,
				"y": -1.9410582416,
				"z": -0.5655738252,
				"element": "C" 
			},
			{
				"x": -0.891356452,
				"y": -0.2518991138,
				"z": 1.4786875357,
				"element": "C" 
			},
			{
				"x": -0.0635551387,
				"y": 0.0058677189,
				"z": 0.3870917708,
				"element": "C" 
			},
			{
				"x": -0.1963455041,
				"y": 1.1343582196,
				"z": -0.4499094014,
				"element": "C" 
			},
			{
				"x": 0.7519342246,
				"y": 1.4316194888,
				"z": -1.592135034,
				"element": "C" 
			},
			{
				"x": 1.9973016487,
				"y": 2.2648718069,
				"z": -1.1802928632,
				"element": "C" 
			},
			{
				"x": 2.8835845706,
				"y": 1.620104406,
				"z": -0.221977864,
				"element": "N" 
			},
			{
				"x": 3.7948252202,
				"y": 0.6068123859,
				"z": -0.4493821077,
				"element": "C" 
			},
			{
				"x": 4.1778531475,
				"y": -0.1030463326,
				"z": 0.4726621976,
				"element": "O" 
			},
			{
				"x": 4.3203249287,
				"y": 0.4204121809,
				"z": -1.8452217486,
				"element": "C" 
			},
			{
				"x": 4.3557935729,
				"y": -0.8806628763,
				"z": -2.3649179787,
				"element": "C" 
			},
			{
				"x": 4.895700214,
				"y": -1.1144249205,
				"z": -3.6283972877,
				"element": "C" 
			},
			{
				"x": 5.4303447402,
				"y": -0.0575993447,
				"z": -4.369983925,
				"element": "C" 
			},
			{
				"x": 5.4215251842,
				"y": 1.2362560502,
				"z": -3.8455158529,
				"element": "C" 
			},
			{
				"x": 4.8630470302,
				"y": 1.4771319991,
				"z": -2.5893081539,
				"element": "C" 
			},
			{
				"x": 0.9513401059,
				"y": -1.0503587023,
				"z": 0.1480327662,
				"element": "N" 
			},
			{
				"x": 1.1474935466,
				"y": -1.4176984157,
				"z": -1.0118357398,
				"element": "O" 
			},
			{
				"x": 1.4852081467,
				"y": -1.5352899049,
				"z": 1.1378210182,
				"element": "O" 
			},
			{
				"x": -3.0021974507,
				"y": 2.3596039347,
				"z": 1.1033962558,
				"element": "H" 
			},
			{
				"x": -2.3873454941,
				"y": -0.2048870561,
				"z": 3.7206842595,
				"element": "H" 
			},
			{
				"x": -3.4160586025,
				"y": 1.1427186544,
				"z": 3.2553400273,
				"element": "H" 
			},
			{
				"x": -4.5730809563,
				"y": -1.0909595192,
				"z": 3.3636167006,
				"element": "H" 
			},
			{
				"x": -3.5757969897,
				"y": -1.6713434949,
				"z": 2.0344271261,
				"element": "H" 
			},
			{
				"x": -5.5866450688,
				"y": 0.4918526847,
				"z": 1.8510064321,
				"element": "H" 
			},
			{
				"x": -6.6886547252,
				"y": -3.1872702172,
				"z": -0.3948589718,
				"element": "H" 
			},
			{
				"x": -5.5893040139,
				"y": -5.0475337661,
				"z": -1.6366449257,
				"element": "H" 
			},
			{
				"x": -3.1773067432,
				"y": -4.8936614837,
				"z": -2.2154155156,
				"element": "H" 
			},
			{
				"x": -1.8705519624,
				"y": -2.8809613664,
				"z": -1.5559103544,
				"element": "H" 
			},
			{
				"x": -2.969456499,
				"y": -1.0554050739,
				"z": -0.2975636765,
				"element": "H" 
			},
			{
				"x": -0.684087236,
				"y": -1.1283266705,
				"z": 2.0825560559,
				"element": "H" 
			},
			{
				"x": 0.2283960229,
				"y": 1.9959621825,
				"z": -2.3647459281,
				"element": "H" 
			},
			{
				"x": 1.0844323655,
				"y": 0.4930703257,
				"z": -2.0306296085,
				"element": "H" 
			},
			{
				"x": 1.673354972,
				"y": 3.2179933551,
				"z": -0.7591512124,
				"element": "H" 
			},
			{
				"x": 2.5521189664,
				"y": 2.4841261715,
				"z": -2.0931554968,
				"element": "H" 
			},
			{
				"x": 2.61676224,
				"y": 1.6608422276,
				"z": 0.7546450182,
				"element": "H" 
			},
			{
				"x": 3.948844256,
				"y": -1.6927766087,
				"z": -1.771713494,
				"element": "H" 
			},
			{
				"x": 4.9073122686,
				"y": -2.1227555251,
				"z": -4.0318971836,
				"element": "H" 
			},
			{
				"x": 5.8590152548,
				"y": -0.2431484906,
				"z": -5.3507026524,
				"element": "H" 
			},
			{
				"x": 5.8533504141,
				"y": 2.0570420157,
				"z": -4.4108931218,
				"element": "H" 
			},
			{
				"x": 4.8759568217,
				"y": 2.4807226299,
				"z": -2.1734963569,
				"element": "H" 
			}
		],
		 "valence_orbital": [ 
			{
				"type": "occ",
				"energy": -0.26339,
				"method": "rhf"
			},
			{
				"type": "occ",
				"energy": -0.25611,
				"method": "rhf"
			},
			{
				"type": "occ",
				"energy": -0.25476,
				"method": "rhf"
			},
			{
				"type": "occ",
				"energy": -0.24862,
				"method": "rhf"
			},
			{
				"type": "occ",
				"energy": -0.23984,
				"method": "rhf"
			},
			{
				"type": "unocc",
				"energy": -0.10839,
				"method": "rhf"
			},
			{
				"type": "unocc",
				"energy": -0.10012,
				"method": "rhf"
			},
			{
				"type": "unocc",
				"energy": -0.0444,
				"method": "rhf"
			},
			{
				"type": "unocc",
				"energy": -0.04035,
				"method": "rhf"
			},
			{
				"type": "unocc",
				"energy": -0.03112,
				"method": "rhf"
			}
		],
		"cosmo_sigma_profile": { 
			"-0.025": 0.0,
			"-0.024": 0.0,
			"-0.023": 0.0,
			"-0.022": 0.0,
			"-0.021": 0.0,
			"-0.02": 0.0,
			"-0.019": 0.0,
			"-0.018": 0.0,
			"-0.017": 0.0,
			"-0.016": 0.0,
			"-0.015": 0.0,
			"-0.014": 0.0440566993935,
			"-0.013": 1.40796559301,
			"-0.012": 2.7130619593,
			"-0.011": 1.75121498378,
			"-0.01": 3.36759245763,
			"-0.009": 4.69478929712,
			"-0.008": 8.9562819603,
			"-0.007": 13.2376434526,
			"-0.006": 28.0811124198,
			"-0.005": 40.946406345,
			"-0.004": 45.2520951758,
			"-0.003": 41.9013616341,
			"-0.002": 36.62308619,
			"-0.001": 27.3319363315,
			"0.0": 25.8291977412,
			"0.001": 22.2381882958,
			"0.002": 25.2430480509,
			"0.003": 27.226550979,
			"0.004": 28.4798174555,
			"0.005": 21.222235117,
			"0.006": 11.1743405643,
			"0.007": 16.1943261499,
			"0.008": 11.0532451535,
			"0.009": 8.39091820933,
			"0.01": 5.22926878053,
			"0.011": 3.77885857837,
			"0.012": 4.81190584349,
			"0.013": 10.0365437713,
			"0.014": 6.23373327839,
			"0.015": 0.477473003819,
			"0.016": 0.0,
			"0.017": 0.0,
			"0.018": 0.0,
			"0.019": 0.0,
			"0.02": 0.0,
			"0.021": 0.0,
			"0.022": 0.0,
			"0.023": 0.0,
			"0.024": 0.0,
			"0.025": 0.0
		}
	}
}
