{
	 "smiles": "NC1=NC2=C(O1)C=CC(=C2)S(=O)(=O)N1CCCC1", 
	 "Tm": 514.15, 
	 "num_atms": 31, 
	 "gaussian": { 
		 "optdone": 1, 
		 "sigma_profile": "yes", 
		 "theory": "DFT", 
		 "functional": "B3LYP", 
		 "basiset": "6-31G**", 
		 "properties": { 
			 "R2extent": 6261.5918, 
			 "electric_dipole_moment_norm": 8.19139366286, 
			 "electric_quadrupole_moment_norm": 24.5013537461, 
			 "total_energy": -1215.05455297, 
			 "HOMO_LUMO_gap": 0.19908, 
			 "cosmo_polarized_energy": -21.69, 
			 "cosmo_cavitation_energy": 35.17, 
			 "cosmo_dispersion_energy": -26.18, 
			 "cosmo_repulsion_energy": 1.99, 
			 "cosmo_total_nonelectrostatic_energy": 10.98, 
			 "SMD_solvation_energy": 2.09 
		},
		"coords": [
			{
				"x": 4.1354405536,
				"y": -2.3029839403,
				"z": 4.5593702401,
				"element": "N" 
			},
			{
				"x": 3.5062964705,
				"y": -1.6430189578,
				"z": 3.5527045947,
				"element": "C" 
			},
			{
				"x": 2.2798970096,
				"y": -1.2160984333,
				"z": 3.5215975487,
				"element": "N" 
			},
			{
				"x": 2.1961351077,
				"y": -0.5599086808,
				"z": 2.2928435196,
				"element": "C" 
			},
			{
				"x": 3.4341829154,
				"y": -0.6480261721,
				"z": 1.6335331441,
				"element": "C" 
			},
			{
				"x": 4.2869962706,
				"y": -1.3545541288,
				"z": 2.4578274706,
				"element": "O" 
			},
			{
				"x": 3.7033087641,
				"y": -0.0950204582,
				"z": 0.3957610129,
				"element": "C" 
			},
			{
				"x": 2.6417130355,
				"y": 0.5820850887,
				"z": -0.2159999275,
				"element": "C" 
			},
			{
				"x": 1.3940094172,
				"y": 0.6751737358,
				"z": 0.4227007399,
				"element": "C" 
			},
			{
				"x": 1.1424873528,
				"y": 0.1188173449,
				"z": 1.6840935559,
				"element": "C" 
			},
			{
				"x": 0.0472454045,
				"y": 1.5046585167,
				"z": -0.4356356018,
				"element": "S" 
			},
			{
				"x": -0.8756179557,
				"y": 2.0094012038,
				"z": 0.5835777384,
				"element": "O" 
			},
			{
				"x": 0.6490862859,
				"y": 2.3715029823,
				"z": -1.4517604343,
				"element": "O" 
			},
			{
				"x": -0.7825365172,
				"y": 0.321610863,
				"z": -1.2673049277,
				"element": "N" 
			},
			{
				"x": -0.1813980468,
				"y": -0.302302563,
				"z": -2.4702619956,
				"element": "C" 
			},
			{
				"x": -0.8814585434,
				"y": -1.6756613575,
				"z": -2.5576707964,
				"element": "C" 
			},
			{
				"x": -2.1449805895,
				"y": -1.5202992308,
				"z": -1.6914161376,
				"element": "C" 
			},
			{
				"x": -1.669942081,
				"y": -0.6132061379,
				"z": -0.552145198,
				"element": "C" 
			},
			{
				"x": 4.95771249,
				"y": -2.8357211286,
				"z": 4.3200000139,
				"element": "H" 
			},
			{
				"x": 3.5283990806,
				"y": -2.6967657717,
				"z": 5.2619924007,
				"element": "H" 
			},
			{
				"x": 4.6800613531,
				"y": -0.1678114481,
				"z": -0.069043634,
				"element": "H" 
			},
			{
				"x": 2.7816103764,
				"y": 1.0741939889,
				"z": -1.1712149604,
				"element": "H" 
			},
			{
				"x": 0.1840586558,
				"y": 0.2438436845,
				"z": 2.1732271977,
				"element": "H" 
			},
			{
				"x": -0.3795390465,
				"y": 0.3296827645,
				"z": -3.3405955782,
				"element": "H" 
			},
			{
				"x": 0.905306738,
				"y": -0.4108906428,
				"z": -2.3750355634,
				"element": "H" 
			},
			{
				"x": -1.1014848676,
				"y": -1.9593924444,
				"z": -3.5901758406,
				"element": "H" 
			},
			{
				"x": -0.2345114426,
				"y": -2.450799702,
				"z": -2.1325546943,
				"element": "H" 
			},
			{
				"x": -2.5355848049,
				"y": -2.4747761339,
				"z": -1.3282135703,
				"element": "H" 
			},
			{
				"x": -2.9381774867,
				"y": -1.0182989685,
				"z": -2.2553572936,
				"element": "H" 
			},
			{
				"x": -1.1258550023,
				"y": -1.1966951902,
				"z": 0.2077009949,
				"element": "H" 
			},
			{
				"x": -2.471860897,
				"y": -0.0622386824,
				"z": -0.0586440187,
				"element": "H" 
			}
		],
		 "valence_orbital": [ 
			{
				"type": "occ",
				"energy": -0.29106,
				"method": "rhf"
			},
			{
				"type": "occ",
				"energy": -0.28875,
				"method": "rhf"
			},
			{
				"type": "occ",
				"energy": -0.26401,
				"method": "rhf"
			},
			{
				"type": "occ",
				"energy": -0.2411,
				"method": "rhf"
			},
			{
				"type": "occ",
				"energy": -0.22626,
				"method": "rhf"
			},
			{
				"type": "unocc",
				"energy": -0.02718,
				"method": "rhf"
			},
			{
				"type": "unocc",
				"energy": -0.01787,
				"method": "rhf"
			},
			{
				"type": "unocc",
				"energy": 0.04038,
				"method": "rhf"
			},
			{
				"type": "unocc",
				"energy": 0.05954,
				"method": "rhf"
			},
			{
				"type": "unocc",
				"energy": 0.07115,
				"method": "rhf"
			}
		],
		"cosmo_sigma_profile": { 
			"-0.025": 0.0,
			"-0.024": 0.0,
			"-0.023": 0.0,
			"-0.022": 0.0,
			"-0.021": 0.0,
			"-0.02": 0.0,
			"-0.019": 0.0,
			"-0.018": 0.0,
			"-0.017": 0.0,
			"-0.016": 0.521380898055,
			"-0.015": 2.74947504972,
			"-0.014": 2.17046569136,
			"-0.013": 2.76523896231,
			"-0.012": 1.7631342537,
			"-0.011": 1.86406398867,
			"-0.01": 2.20863679573,
			"-0.009": 2.20210188544,
			"-0.008": 3.91286654614,
			"-0.007": 4.30164693191,
			"-0.006": 6.46736338242,
			"-0.005": 10.5814664774,
			"-0.004": 27.0293045994,
			"-0.003": 34.1171289314,
			"-0.002": 28.5764510315,
			"-0.001": 20.715295849,
			"0.0": 16.9569317158,
			"0.001": 14.9140590054,
			"0.002": 16.8822757839,
			"0.003": 11.7419289619,
			"0.004": 7.39823184501,
			"0.005": 7.92466627115,
			"0.006": 8.28907401581,
			"0.007": 5.93890831834,
			"0.008": 4.75112956942,
			"0.009": 5.80668346767,
			"0.01": 6.14938637888,
			"0.011": 9.16385900255,
			"0.012": 7.41073826884,
			"0.013": 1.38452254995,
			"0.014": 1.10424162963,
			"0.015": 0.727683088713,
			"0.016": 0.58327470892,
			"0.017": 0.0,
			"0.018": 0.0,
			"0.019": 0.0,
			"0.02": 0.0,
			"0.021": 0.0,
			"0.022": 0.0,
			"0.023": 0.0,
			"0.024": 0.0,
			"0.025": 0.0
		}
	}
}
