{
	 "smiles": "CC(C)CN1CCCCC1C(O)=O", 
	 "Tm": 472.15, 
	 "num_atms": 32, 
	 "gaussian": { 
		 "optdone": 1, 
		 "sigma_profile": "yes", 
		 "theory": "DFT", 
		 "functional": "B3LYP", 
		 "basiset": "6-31G**", 
		 "properties": { 
			 "R2extent": 3459.7604, 
			 "electric_dipole_moment_norm": 1.07021259103, 
			 "electric_quadrupole_moment_norm": 4.74069849178, 
			 "total_energy": -597.738850668, 
			 "HOMO_LUMO_gap": 0.21043, 
			 "cosmo_polarized_energy": -8.05, 
			 "cosmo_cavitation_energy": 31.42, 
			 "cosmo_dispersion_energy": -22.01, 
			 "cosmo_repulsion_energy": 1.75, 
			 "cosmo_total_nonelectrostatic_energy": 11.16, 
			 "SMD_solvation_energy": 5.17 
		},
		"coords": [
			{
				"x": 2.478524254,
				"y": -3.2736430446,
				"z": 2.5946182658,
				"element": "C" 
			},
			{
				"x": 1.1443103781,
				"y": -2.5619189399,
				"z": 2.8565833969,
				"element": "C" 
			},
			{
				"x": -0.0235262588,
				"y": -3.3413605931,
				"z": 2.2366903073,
				"element": "C" 
			},
			{
				"x": 1.1631005196,
				"y": -1.0922139615,
				"z": 2.3809888258,
				"element": "C" 
			},
			{
				"x": 1.3665270657,
				"y": -0.941280239,
				"z": 0.93224665,
				"element": "N" 
			},
			{
				"x": 2.6814391687,
				"y": -0.4055943918,
				"z": 0.5508966661,
				"element": "C" 
			},
			{
				"x": 2.9311758635,
				"y": -0.5758669806,
				"z": -0.9505678708,
				"element": "C" 
			},
			{
				"x": 1.7982254146,
				"y": 0.0565747307,
				"z": -1.768127406,
				"element": "C" 
			},
			{
				"x": 0.4458139482,
				"y": -0.5098664226,
				"z": -1.3190128113,
				"element": "C" 
			},
			{
				"x": 0.2486631091,
				"y": -0.3598958299,
				"z": 0.2070583945,
				"element": "C" 
			},
			{
				"x": -0.0481595182,
				"y": 1.1044723755,
				"z": 0.5819608976,
				"element": "C" 
			},
			{
				"x": -1.188917328,
				"y": 1.5456934286,
				"z": -0.0092632578,
				"element": "O" 
			},
			{
				"x": 0.6047188433,
				"y": 1.8080484365,
				"z": 1.322041516,
				"element": "O" 
			},
			{
				"x": 2.6823446461,
				"y": -3.3242906526,
				"z": 1.5197285126,
				"element": "H" 
			},
			{
				"x": 3.3144218182,
				"y": -2.753171924,
				"z": 3.0762486274,
				"element": "H" 
			},
			{
				"x": 2.4595521206,
				"y": -4.2991180266,
				"z": 2.9794957692,
				"element": "H" 
			},
			{
				"x": 0.9886148827,
				"y": -2.5226966386,
				"z": 3.9455390513,
				"element": "H" 
			},
			{
				"x": -0.9883467656,
				"y": -2.8784486921,
				"z": 2.4757286612,
				"element": "H" 
			},
			{
				"x": 0.0776840464,
				"y": -3.3753884443,
				"z": 1.146569575,
				"element": "H" 
			},
			{
				"x": -0.0507662264,
				"y": -4.3731555514,
				"z": 2.6034729041,
				"element": "H" 
			},
			{
				"x": 0.2172237645,
				"y": -0.6189090525,
				"z": 2.6738674784,
				"element": "H" 
			},
			{
				"x": 1.9441091542,
				"y": -0.5437001381,
				"z": 2.9242585563,
				"element": "H" 
			},
			{
				"x": 2.780907006,
				"y": 0.6566370568,
				"z": 0.8284139372,
				"element": "H" 
			},
			{
				"x": 3.4402978635,
				"y": -0.9589988849,
				"z": 1.111838853,
				"element": "H" 
			},
			{
				"x": 2.9936536273,
				"y": -1.6466236367,
				"z": -1.1841402341,
				"element": "H" 
			},
			{
				"x": 3.8966168079,
				"y": -0.1271228551,
				"z": -1.2121537604,
				"element": "H" 
			},
			{
				"x": 1.8097155751,
				"y": 1.146862613,
				"z": -1.629748554,
				"element": "H" 
			},
			{
				"x": 1.943179384,
				"y": -0.124012278,
				"z": -2.8394193062,
				"element": "H" 
			},
			{
				"x": -0.3836662889,
				"y": -0.0271493088,
				"z": -1.8433810185,
				"element": "H" 
			},
			{
				"x": 0.4060714292,
				"y": -1.581244167,
				"z": -1.5467053222,
				"element": "H" 
			},
			{
				"x": -0.6599775169,
				"y": -0.9125418264,
				"z": 0.4766980395,
				"element": "H" 
			},
			{
				"x": -1.3069307877,
				"y": 2.4647238389,
				"z": 0.2857746562,
				"element": "H" 
			}
		],
		 "valence_orbital": [ 
			{
				"type": "occ",
				"energy": -0.31583,
				"method": "rhf"
			},
			{
				"type": "occ",
				"energy": -0.31184,
				"method": "rhf"
			},
			{
				"type": "occ",
				"energy": -0.30181,
				"method": "rhf"
			},
			{
				"type": "occ",
				"energy": -0.2761,
				"method": "rhf"
			},
			{
				"type": "occ",
				"energy": -0.20339,
				"method": "rhf"
			},
			{
				"type": "unocc",
				"energy": 0.00704,
				"method": "rhf"
			},
			{
				"type": "unocc",
				"energy": 0.07407,
				"method": "rhf"
			},
			{
				"type": "unocc",
				"energy": 0.07672,
				"method": "rhf"
			},
			{
				"type": "unocc",
				"energy": 0.10415,
				"method": "rhf"
			},
			{
				"type": "unocc",
				"energy": 0.11736,
				"method": "rhf"
			}
		],
		"cosmo_sigma_profile": { 
			"-0.025": 0.0,
			"-0.024": 0.0,
			"-0.023": 0.0,
			"-0.022": 0.0,
			"-0.021": 0.0,
			"-0.02": 0.0,
			"-0.019": 0.0,
			"-0.018": 0.353431190744,
			"-0.017": 0.861116931712,
			"-0.016": 1.12612081473,
			"-0.015": 0.532641876598,
			"-0.014": 0.831274564565,
			"-0.013": 1.04219756478,
			"-0.012": 0.26815792102,
			"-0.011": 0.625531609546,
			"-0.01": 1.11960058311,
			"-0.009": 0.487667256369,
			"-0.008": 0.277727683641,
			"-0.007": 0.849895312019,
			"-0.006": 1.89563411043,
			"-0.005": 3.59345184293,
			"-0.004": 4.30647697691,
			"-0.003": 17.2773452608,
			"-0.002": 39.2873105349,
			"-0.001": 45.9876114633,
			"0.0": 40.2834752333,
			"0.001": 26.0794206642,
			"0.002": 16.7313935863,
			"0.003": 5.97718888404,
			"0.004": 3.63476815945,
			"0.005": 4.31279877232,
			"0.006": 3.1331262078,
			"0.007": 3.29155293908,
			"0.008": 3.97714274657,
			"0.009": 3.84797296283,
			"0.01": 2.4646528677,
			"0.011": 2.59317062662,
			"0.012": 4.22116992142,
			"0.013": 0.252007197229,
			"0.014": 0.0,
			"0.015": 0.0,
			"0.016": 0.0,
			"0.017": 0.0,
			"0.018": 0.0,
			"0.019": 0.0,
			"0.02": 0.0,
			"0.021": 0.0,
			"0.022": 0.0,
			"0.023": 0.0,
			"0.024": 0.0,
			"0.025": 0.0
		}
	}
}
