{
	 "smiles": "OC(=O)C1(CCCC1)C1=C(F)C=CC=C1", 
	 "Tm": 380.15, 
	 "num_atms": 28, 
	 "gaussian": { 
		 "optdone": 1, 
		 "sigma_profile": "yes", 
		 "theory": "DFT", 
		 "functional": "B3LYP", 
		 "basiset": "6-31G**", 
		 "properties": { 
			 "R2extent": 3346.4589, 
			 "electric_dipole_moment_norm": 2.49472634772, 
			 "electric_quadrupole_moment_norm": 5.11492240704, 
			 "total_energy": -715.413988975, 
			 "HOMO_LUMO_gap": 0.22932, 
			 "cosmo_polarized_energy": -10.14, 
			 "cosmo_cavitation_energy": 29.79, 
			 "cosmo_dispersion_energy": -21.31, 
			 "cosmo_repulsion_energy": 1.65, 
			 "cosmo_total_nonelectrostatic_energy": 10.13, 
			 "SMD_solvation_energy": 5.99 
		},
		"coords": [
			{
				"x": 1.3907425993,
				"y": 1.5193620889,
				"z": -2.068186759,
				"element": "O" 
			},
			{
				"x": 0.8262462505,
				"y": 0.3240763363,
				"z": -1.775504646,
				"element": "C" 
			},
			{
				"x": 0.9536823197,
				"y": -0.6413164387,
				"z": -2.4965760147,
				"element": "O" 
			},
			{
				"x": 0.1240232296,
				"y": 0.3240986094,
				"z": -0.4150605849,
				"element": "C" 
			},
			{
				"x": 1.1817468886,
				"y": -0.0635059531,
				"z": 0.6662948521,
				"element": "C" 
			},
			{
				"x": 0.3982620642,
				"y": -0.7782703846,
				"z": 1.800997626,
				"element": "C" 
			},
			{
				"x": -1.0045799923,
				"y": -1.096061448,
				"z": 1.2148609479,
				"element": "C" 
			},
			{
				"x": -0.871028229,
				"y": -0.8627120734,
				"z": -0.2986156757,
				"element": "C" 
			},
			{
				"x": -0.5814384349,
				"y": 1.6536722539,
				"z": -0.1453241586,
				"element": "C" 
			},
			{
				"x": -1.4972248832,
				"y": 2.1449353256,
				"z": -1.0833542315,
				"element": "C" 
			},
			{
				"x": -1.6830742209,
				"y": 1.4363434696,
				"z": -2.2264120843,
				"element": "F" 
			},
			{
				"x": -2.2174557339,
				"y": 3.3175175006,
				"z": -0.9171370168,
				"element": "C" 
			},
			{
				"x": -2.0332351211,
				"y": 4.0556839936,
				"z": 0.2535410217,
				"element": "C" 
			},
			{
				"x": -1.1347978388,
				"y": 3.6038799468,
				"z": 1.218403246,
				"element": "C" 
			},
			{
				"x": -0.4212159273,
				"y": 2.418884074,
				"z": 1.0159707812,
				"element": "C" 
			},
			{
				"x": 1.8407184441,
				"y": 1.3970949593,
				"z": -2.9212141288,
				"element": "H" 
			},
			{
				"x": 1.8816920613,
				"y": -0.7674592693,
				"z": 0.2054895614,
				"element": "H" 
			},
			{
				"x": 1.7716146552,
				"y": 0.7923748869,
				"z": 1.0034255277,
				"element": "H" 
			},
			{
				"x": 0.3186055182,
				"y": -0.151355181,
				"z": 2.6944766684,
				"element": "H" 
			},
			{
				"x": 0.9231418172,
				"y": -1.6889586877,
				"z": 2.1049371075,
				"element": "H" 
			},
			{
				"x": -1.3361807393,
				"y": -2.1128732616,
				"z": 1.4448828266,
				"element": "H" 
			},
			{
				"x": -1.7506434428,
				"y": -0.4133348673,
				"z": 1.634765535,
				"element": "H" 
			},
			{
				"x": -1.8207893639,
				"y": -0.6592986539,
				"z": -0.7981720269,
				"element": "H" 
			},
			{
				"x": -0.4178668396,
				"y": -1.727390049,
				"z": -0.7927001967,
				"element": "H" 
			},
			{
				"x": -2.9026843729,
				"y": 3.6323015786,
				"z": -1.6967984622,
				"element": "H" 
			},
			{
				"x": -2.5887565817,
				"y": 4.9762309948,
				"z": 0.404256341,
				"element": "H" 
			},
			{
				"x": -0.9841818666,
				"y": 4.170670489,
				"z": 2.1320450071,
				"element": "H" 
			},
			{
				"x": 0.2732777401,
				"y": 2.0904097603,
				"z": 1.7809089365,
				"element": "H" 
			}
		],
		 "valence_orbital": [ 
			{
				"type": "occ",
				"energy": -0.31857,
				"method": "rhf"
			},
			{
				"type": "occ",
				"energy": -0.31157,
				"method": "rhf"
			},
			{
				"type": "occ",
				"energy": -0.27446,
				"method": "rhf"
			},
			{
				"type": "occ",
				"energy": -0.2539,
				"method": "rhf"
			},
			{
				"type": "occ",
				"energy": -0.24047,
				"method": "rhf"
			},
			{
				"type": "unocc",
				"energy": -0.01115,
				"method": "rhf"
			},
			{
				"type": "unocc",
				"energy": -0.00121,
				"method": "rhf"
			},
			{
				"type": "unocc",
				"energy": 0.0159,
				"method": "rhf"
			},
			{
				"type": "unocc",
				"energy": 0.07638,
				"method": "rhf"
			},
			{
				"type": "unocc",
				"energy": 0.0815,
				"method": "rhf"
			}
		],
		"cosmo_sigma_profile": { 
			"-0.025": 0.0,
			"-0.024": 0.0,
			"-0.023": 0.0,
			"-0.022": 0.0,
			"-0.021": 0.0,
			"-0.02": 0.0,
			"-0.019": 0.00260699055954,
			"-0.018": 0.5274487231,
			"-0.017": 1.28915143697,
			"-0.016": 0.764276628105,
			"-0.015": 0.38419580632,
			"-0.014": 0.813743521751,
			"-0.013": 0.788675292235,
			"-0.012": 0.409218516427,
			"-0.011": 1.41778893088,
			"-0.01": 0.692894971866,
			"-0.009": 0.468321549888,
			"-0.008": 0.409408258315,
			"-0.007": 2.76396751192,
			"-0.006": 8.80226804581,
			"-0.005": 10.1901179881,
			"-0.004": 14.8565373211,
			"-0.003": 19.0681182181,
			"-0.002": 25.2228440529,
			"-0.001": 25.2394274534,
			"0.0": 22.8674064812,
			"0.001": 20.1040400882,
			"0.002": 11.9546583257,
			"0.003": 13.7309578778,
			"0.004": 18.3910546438,
			"0.005": 10.2019822122,
			"0.006": 3.86461841487,
			"0.007": 2.51879322611,
			"0.008": 2.85728348101,
			"0.009": 3.6045075307,
			"0.01": 2.33656897924,
			"0.011": 3.64617963198,
			"0.012": 4.2232150446,
			"0.013": 0.158787609815,
			"0.014": 0.0,
			"0.015": 0.0,
			"0.016": 0.0,
			"0.017": 0.0,
			"0.018": 0.0,
			"0.019": 0.0,
			"0.02": 0.0,
			"0.021": 0.0,
			"0.022": 0.0,
			"0.023": 0.0,
			"0.024": 0.0,
			"0.025": 0.0
		}
	}
}
