{
	 "smiles": "ClC1=CC=C(C=CC(=O)C2=CC=CC=C2)C=C1", 
	 "Tm": 388.15, 
	 "num_atms": 28, 
	 "gaussian": { 
		 "optdone": 1, 
		 "sigma_profile": "yes", 
		 "theory": "DFT", 
		 "functional": "B3LYP", 
		 "basiset": "6-31G**", 
		 "properties": { 
			 "R2extent": 8498.7579, 
			 "electric_dipole_moment_norm": 2.98177161097, 
			 "electric_quadrupole_moment_norm": 10.6169742055, 
			 "total_energy": -1113.63015259, 
			 "HOMO_LUMO_gap": 0.15761, 
			 "cosmo_polarized_energy": -11.27, 
			 "cosmo_cavitation_energy": 35.04, 
			 "cosmo_dispersion_energy": -25.24, 
			 "cosmo_repulsion_energy": 1.95, 
			 "cosmo_total_nonelectrostatic_energy": 11.75, 
			 "SMD_solvation_energy": 6.12 
		},
		"coords": [
			{
				"x": -1.5350370734,
				"y": -0.1492334394,
				"z": -7.1850858449,
				"element": "Cl" 
			},
			{
				"x": -1.3956951239,
				"y": -0.0539672294,
				"z": -5.4389343568,
				"element": "C" 
			},
			{
				"x": -2.5517968157,
				"y": -0.088834732,
				"z": -4.6544912689,
				"element": "C" 
			},
			{
				"x": -2.4396139962,
				"y": -0.0136089895,
				"z": -3.2713668391,
				"element": "C" 
			},
			{
				"x": -1.1824643561,
				"y": 0.097232423,
				"z": -2.6461508848,
				"element": "C" 
			},
			{
				"x": -1.008901515,
				"y": 0.1755657361,
				"z": -1.1930206243,
				"element": "C" 
			},
			{
				"x": -1.9806823264,
				"y": 0.2194143583,
				"z": -0.2591139881,
				"element": "C" 
			},
			{
				"x": -1.7741415129,
				"y": 0.4235234487,
				"z": 1.1959451662,
				"element": "C" 
			},
			{
				"x": -2.675146853,
				"y": 0.9424081347,
				"z": 1.8503456285,
				"element": "O" 
			},
			{
				"x": -0.4892532291,
				"y": 0.0309462156,
				"z": 1.8665535105,
				"element": "C" 
			},
			{
				"x": 0.2894539436,
				"y": -1.0611236411,
				"z": 1.4532899982,
				"element": "C" 
			},
			{
				"x": 1.4425615966,
				"y": -1.4108218565,
				"z": 2.1578660251,
				"element": "C" 
			},
			{
				"x": 1.83319781,
				"y": -0.6689214045,
				"z": 3.2735250875,
				"element": "C" 
			},
			{
				"x": 1.0568127134,
				"y": 0.4140889766,
				"z": 3.6979727472,
				"element": "C" 
			},
			{
				"x": -0.1029582574,
				"y": 0.7527054555,
				"z": 3.0073026707,
				"element": "C" 
			},
			{
				"x": -0.0401772083,
				"y": 0.1277927178,
				"z": -3.4663369037,
				"element": "C" 
			},
			{
				"x": -0.1353119476,
				"y": 0.0543063179,
				"z": -4.8536244827,
				"element": "C" 
			},
			{
				"x": -3.5241648865,
				"y": -0.1744604483,
				"z": -5.1266331218,
				"element": "H" 
			},
			{
				"x": -3.3439424821,
				"y": -0.0436372599,
				"z": -2.6725198389,
				"element": "H" 
			},
			{
				"x": 0.0258330223,
				"y": 0.2250726918,
				"z": -0.8609067246,
				"element": "H" 
			},
			{
				"x": -3.0309484559,
				"y": 0.243412132,
				"z": -0.5387983826,
				"element": "H" 
			},
			{
				"x": -0.0225828898,
				"y": -1.6563085418,
				"z": 0.6016479279,
				"element": "H" 
			},
			{
				"x": 2.0314840096,
				"y": -2.2658296293,
				"z": 1.838581312,
				"element": "H" 
			},
			{
				"x": 2.7347279536,
				"y": -0.9379632005,
				"z": 3.8166524209,
				"element": "H" 
			},
			{
				"x": 1.3545506761,
				"y": 0.9874287211,
				"z": 4.5711455803,
				"element": "H" 
			},
			{
				"x": -0.7311674725,
				"y": 1.5747567663,
				"z": 3.3340160177,
				"element": "H" 
			},
			{
				"x": 0.9411834581,
				"y": 0.2127818749,
				"z": -3.0072980051,
				"element": "H" 
			},
			{
				"x": 0.7534812186,
				"y": 0.0802744017,
				"z": -5.4740628263,
				"element": "H" 
			}
		],
		 "valence_orbital": [ 
			{
				"type": "occ",
				"energy": -0.27574,
				"method": "rhf"
			},
			{
				"type": "occ",
				"energy": -0.26178,
				"method": "rhf"
			},
			{
				"type": "occ",
				"energy": -0.2606,
				"method": "rhf"
			},
			{
				"type": "occ",
				"energy": -0.24699,
				"method": "rhf"
			},
			{
				"type": "occ",
				"energy": -0.23672,
				"method": "rhf"
			},
			{
				"type": "unocc",
				"energy": -0.07911,
				"method": "rhf"
			},
			{
				"type": "unocc",
				"energy": -0.03315,
				"method": "rhf"
			},
			{
				"type": "unocc",
				"energy": -0.02382,
				"method": "rhf"
			},
			{
				"type": "unocc",
				"energy": -0.01055,
				"method": "rhf"
			},
			{
				"type": "unocc",
				"energy": 0.01803,
				"method": "rhf"
			}
		],
		"cosmo_sigma_profile": { 
			"-0.025": 0.0,
			"-0.024": 0.0,
			"-0.023": 0.0,
			"-0.022": 0.0,
			"-0.021": 0.0,
			"-0.02": 0.0,
			"-0.019": 0.0,
			"-0.018": 0.0,
			"-0.017": 0.0,
			"-0.016": 0.0,
			"-0.015": 0.0,
			"-0.014": 0.0,
			"-0.013": 0.0,
			"-0.012": 0.0,
			"-0.011": 0.0,
			"-0.01": 0.0,
			"-0.009": 0.708543659107,
			"-0.008": 4.48303179411,
			"-0.007": 10.5723996604,
			"-0.006": 18.2274852174,
			"-0.005": 18.5523668214,
			"-0.004": 20.4179217105,
			"-0.003": 17.2770985589,
			"-0.002": 17.9569775657,
			"-0.001": 19.1017527933,
			"0.0": 21.3651910364,
			"0.001": 25.6246957978,
			"0.002": 30.4184889921,
			"0.003": 28.4012417268,
			"0.004": 23.9941630695,
			"0.005": 8.20795311318,
			"0.006": 1.59244873858,
			"0.007": 2.03065947946,
			"0.008": 2.06350722083,
			"0.009": 1.30900749207,
			"0.01": 1.84593620476,
			"0.011": 2.58829524522,
			"0.012": 3.93680389863,
			"0.013": 3.29081158274,
			"0.014": 0.409102453238,
			"0.015": 0.0,
			"0.016": 0.0,
			"0.017": 0.0,
			"0.018": 0.0,
			"0.019": 0.0,
			"0.02": 0.0,
			"0.021": 0.0,
			"0.022": 0.0,
			"0.023": 0.0,
			"0.024": 0.0,
			"0.025": 0.0
		}
	}
}
