{
	 "smiles": "CC(C)(C1=CC=CC=C1)C1=CC=CC=C1", 
	 "Tm": 302.15, 
	 "num_atms": 31, 
	 "gaussian": { 
		 "optdone": 1, 
		 "sigma_profile": "yes", 
		 "theory": "DFT", 
		 "functional": "B3LYP", 
		 "basiset": "6-31G**", 
		 "properties": { 
			 "R2extent": 3491.3402, 
			 "electric_dipole_moment_norm": 0.243324844601, 
			 "electric_quadrupole_moment_norm": 3.47720198435, 
			 "total_energy": -581.247920554, 
			 "HOMO_LUMO_gap": 0.22782, 
			 "cosmo_polarized_energy": -5.22, 
			 "cosmo_cavitation_energy": 32.42, 
			 "cosmo_dispersion_energy": -22.7, 
			 "cosmo_repulsion_energy": 1.76, 
			 "cosmo_total_nonelectrostatic_energy": 11.49, 
			 "SMD_solvation_energy": 5.56 
		},
		"coords": [
			{
				"x": 0.8860091028,
				"y": -0.5145224952,
				"z": 1.6171797398,
				"element": "C" 
			},
			{
				"x": 0.2243928278,
				"y": 0.675733468,
				"z": 0.8813730169,
				"element": "C" 
			},
			{
				"x": 0.5809459336,
				"y": 1.9618356013,
				"z": 1.6653968168,
				"element": "C" 
			},
			{
				"x": -1.2948901276,
				"y": 0.4099400109,
				"z": 0.8460333681,
				"element": "C" 
			},
			{
				"x": -2.2106883037,
				"y": 1.1147387603,
				"z": 1.6373584639,
				"element": "C" 
			},
			{
				"x": -3.5748137223,
				"y": 0.8068523222,
				"z": 1.6116765634,
				"element": "C" 
			},
			{
				"x": -4.0514806068,
				"y": -0.2155974278,
				"z": 0.7944431445,
				"element": "C" 
			},
			{
				"x": -3.1507987984,
				"y": -0.9275805159,
				"z": -0.0021127909,
				"element": "C" 
			},
			{
				"x": -1.7936399786,
				"y": -0.6155112592,
				"z": 0.0243189582,
				"element": "C" 
			},
			{
				"x": 0.7568960011,
				"y": 0.8485631141,
				"z": -0.556207186,
				"element": "C" 
			},
			{
				"x": 0.131115893,
				"y": 1.7694715468,
				"z": -1.4140324332,
				"element": "C" 
			},
			{
				"x": 0.6070455524,
				"y": 1.9985002303,
				"z": -2.7028224405,
				"element": "C" 
			},
			{
				"x": 1.7259915898,
				"y": 1.3056324184,
				"z": -3.1724350574,
				"element": "C" 
			},
			{
				"x": 2.3558862812,
				"y": 0.386016537,
				"z": -2.3369592929,
				"element": "C" 
			},
			{
				"x": 1.8763729876,
				"y": 0.1614725556,
				"z": -1.0423688195,
				"element": "C" 
			},
			{
				"x": 1.9620320909,
				"y": -0.3574057454,
				"z": 1.7461776945,
				"element": "H" 
			},
			{
				"x": 0.7360901617,
				"y": -1.4582850838,
				"z": 1.0852417963,
				"element": "H" 
			},
			{
				"x": 0.4433084058,
				"y": -0.6200707856,
				"z": 2.6119373492,
				"element": "H" 
			},
			{
				"x": 1.6614083106,
				"y": 2.1274476112,
				"z": 1.6224910833,
				"element": "H" 
			},
			{
				"x": 0.2980130713,
				"y": 1.8793069317,
				"z": 2.7200371802,
				"element": "H" 
			},
			{
				"x": 0.0926103105,
				"y": 2.8455143523,
				"z": 1.2449678532,
				"element": "H" 
			},
			{
				"x": -1.8711370829,
				"y": 1.915990961,
				"z": 2.2843747617,
				"element": "H" 
			},
			{
				"x": -4.2623962962,
				"y": 1.3729778604,
				"z": 2.2342721822,
				"element": "H" 
			},
			{
				"x": -5.110942037,
				"y": -0.4544310409,
				"z": 0.7737922015,
				"element": "H" 
			},
			{
				"x": -3.5068941047,
				"y": -1.724710538,
				"z": -0.6490649301,
				"element": "H" 
			},
			{
				"x": -1.107855046,
				"y": -1.1665849468,
				"z": -0.6132069388,
				"element": "H" 
			},
			{
				"x": -0.7500087147,
				"y": 2.3032798499,
				"z": -1.0689232766,
				"element": "H" 
			},
			{
				"x": 0.1009662529,
				"y": 2.7155000677,
				"z": -3.3435728148,
				"element": "H" 
			},
			{
				"x": 2.0977944798,
				"y": 1.4796675577,
				"z": -4.1781193661,
				"element": "H" 
			},
			{
				"x": 3.2247462859,
				"y": -0.1641490365,
				"z": -2.6880905439,
				"element": "H" 
			},
			{
				"x": 2.38901928,
				"y": -0.5606928818,
				"z": -0.4165562831,
				"element": "H" 
			}
		],
		 "valence_orbital": [ 
			{
				"type": "occ",
				"energy": -0.31213,
				"method": "rhf"
			},
			{
				"type": "occ",
				"energy": -0.24761,
				"method": "rhf"
			},
			{
				"type": "occ",
				"energy": -0.24441,
				"method": "rhf"
			},
			{
				"type": "occ",
				"energy": -0.24377,
				"method": "rhf"
			},
			{
				"type": "occ",
				"energy": -0.22859,
				"method": "rhf"
			},
			{
				"type": "unocc",
				"energy": -0.00077,
				"method": "rhf"
			},
			{
				"type": "unocc",
				"energy": 8e-05,
				"method": "rhf"
			},
			{
				"type": "unocc",
				"energy": 0.00403,
				"method": "rhf"
			},
			{
				"type": "unocc",
				"energy": 0.01195,
				"method": "rhf"
			},
			{
				"type": "unocc",
				"energy": 0.09072,
				"method": "rhf"
			}
		],
		"cosmo_sigma_profile": { 
			"-0.025": 0.0,
			"-0.024": 0.0,
			"-0.023": 0.0,
			"-0.022": 0.0,
			"-0.021": 0.0,
			"-0.02": 0.0,
			"-0.019": 0.0,
			"-0.018": 0.0,
			"-0.017": 0.0,
			"-0.016": 0.0,
			"-0.015": 0.0,
			"-0.014": 0.0,
			"-0.013": 0.0,
			"-0.012": 0.0,
			"-0.011": 0.0,
			"-0.01": 0.0,
			"-0.009": 0.0,
			"-0.008": 0.0,
			"-0.007": 0.0,
			"-0.006": 2.01556899983,
			"-0.005": 14.3048455614,
			"-0.004": 23.890080162,
			"-0.003": 36.1815567331,
			"-0.002": 29.3661048834,
			"-0.001": 24.8011182551,
			"0.0": 21.2214754765,
			"0.001": 22.5533550358,
			"0.002": 15.2716792679,
			"0.003": 13.9754986758,
			"0.004": 15.4450047619,
			"0.005": 15.7749702848,
			"0.006": 15.8578657367,
			"0.007": 5.7314712377,
			"0.008": 0.0,
			"0.009": 0.0,
			"0.01": 0.0,
			"0.011": 0.0,
			"0.012": 0.0,
			"0.013": 0.0,
			"0.014": 0.0,
			"0.015": 0.0,
			"0.016": 0.0,
			"0.017": 0.0,
			"0.018": 0.0,
			"0.019": 0.0,
			"0.02": 0.0,
			"0.021": 0.0,
			"0.022": 0.0,
			"0.023": 0.0,
			"0.024": 0.0,
			"0.025": 0.0
		}
	}
}
