{
	 "smiles": "CN1CCN(CC1)C(=O)C1=C(N)C=CC=C1", 
	 "Tm": 348.15, 
	 "num_atms": 33, 
	 "gaussian": { 
		 "optdone": 1, 
		 "sigma_profile": "yes", 
		 "theory": "DFT", 
		 "functional": "B3LYP", 
		 "basiset": "6-31G**", 
		 "properties": { 
			 "R2extent": 4516.8342, 
			 "electric_dipole_moment_norm": 1.83318857186, 
			 "electric_quadrupole_moment_norm": 13.7327805444, 
			 "total_energy": -707.014546174, 
			 "HOMO_LUMO_gap": 0.17472, 
			 "cosmo_polarized_energy": -11.6, 
			 "cosmo_cavitation_energy": 33.82, 
			 "cosmo_dispersion_energy": -24.72, 
			 "cosmo_repulsion_energy": 1.92, 
			 "cosmo_total_nonelectrostatic_energy": 11.02, 
			 "SMD_solvation_energy": 2.79 
		},
		"coords": [
			{
				"x": -1.4880666077,
				"y": -4.5113328666,
				"z": -1.5381728181,
				"element": "C" 
			},
			{
				"x": -1.6044640958,
				"y": -3.3153972217,
				"z": -0.7176661708,
				"element": "N" 
			},
			{
				"x": -0.5790113921,
				"y": -3.2638678551,
				"z": 0.3237857857,
				"element": "C" 
			},
			{
				"x": -0.7812445364,
				"y": -2.0509863659,
				"z": 1.2317908214,
				"element": "C" 
			},
			{
				"x": -0.7928571275,
				"y": -0.8292335981,
				"z": 0.4251271288,
				"element": "N" 
			},
			{
				"x": -1.8029403426,
				"y": -0.8700265944,
				"z": -0.6360325729,
				"element": "C" 
			},
			{
				"x": -1.5868332638,
				"y": -2.0962957819,
				"z": -1.5223333214,
				"element": "C" 
			},
			{
				"x": -0.2585904354,
				"y": 0.3178390997,
				"z": 0.972047177,
				"element": "C" 
			},
			{
				"x": 0.1549239233,
				"y": 0.3259241842,
				"z": 2.1394359828,
				"element": "O" 
			},
			{
				"x": -0.1358356167,
				"y": 1.5346204334,
				"z": 0.1077777071,
				"element": "C" 
			},
			{
				"x": -0.3332625216,
				"y": 2.8211005035,
				"z": 0.6809912205,
				"element": "C" 
			},
			{
				"x": -0.7184085933,
				"y": 2.9650868746,
				"z": 2.0000320691,
				"element": "N" 
			},
			{
				"x": -0.1814758613,
				"y": 3.9515574019,
				"z": -0.1474429633,
				"element": "C" 
			},
			{
				"x": 0.2041826491,
				"y": 3.8251165964,
				"z": -1.4755255265,
				"element": "C" 
			},
			{
				"x": 0.4564346488,
				"y": 2.5645583185,
				"z": -2.0269472075,
				"element": "C" 
			},
			{
				"x": 0.281153448,
				"y": 1.4383891611,
				"z": -1.2289314524,
				"element": "C" 
			},
			{
				"x": -2.3049576854,
				"y": -4.5412775131,
				"z": -2.2666742607,
				"element": "H" 
			},
			{
				"x": -0.5324882196,
				"y": -4.5702818421,
				"z": -2.0943182248,
				"element": "H" 
			},
			{
				"x": -1.5654399547,
				"y": -5.4017800207,
				"z": -0.9058769923,
				"element": "H" 
			},
			{
				"x": 0.4412559574,
				"y": -3.2251592975,
				"z": -0.1079723858,
				"element": "H" 
			},
			{
				"x": -0.6458843833,
				"y": -4.1772685431,
				"z": 0.9259557525,
				"element": "H" 
			},
			{
				"x": 0.0195156333,
				"y": -1.9679388098,
				"z": 1.9660974151,
				"element": "H" 
			},
			{
				"x": -1.7325958982,
				"y": -2.1512174295,
				"z": 1.7743835898,
				"element": "H" 
			},
			{
				"x": -1.7673348152,
				"y": 0.0441299611,
				"z": -1.2251004748,
				"element": "H" 
			},
			{
				"x": -2.7999833109,
				"y": -0.941890254,
				"z": -0.1757206266,
				"element": "H" 
			},
			{
				"x": -0.633632292,
				"y": -1.9826043271,
				"z": -2.0782980425,
				"element": "H" 
			},
			{
				"x": -2.3940693057,
				"y": -2.1511809782,
				"z": -2.2619972498,
				"element": "H" 
			},
			{
				"x": -0.5897280497,
				"y": 3.8859417929,
				"z": 2.3927994153,
				"element": "H" 
			},
			{
				"x": -0.4240045682,
				"y": 2.2011583056,
				"z": 2.5982062693,
				"element": "H" 
			},
			{
				"x": -0.3556400437,
				"y": 4.9372095214,
				"z": 0.2775723667,
				"element": "H" 
			},
			{
				"x": 0.3257882741,
				"y": 4.719114725,
				"z": -2.0812401173,
				"element": "H" 
			},
			{
				"x": 0.7878636943,
				"y": 2.4642800208,
				"z": -3.0553193123,
				"element": "H" 
			},
			{
				"x": 0.4943306924,
				"y": 0.4537123988,
				"z": -1.6348329815,
				"element": "H" 
			}
		],
		 "valence_orbital": [ 
			{
				"type": "occ",
				"energy": -0.25854,
				"method": "rhf"
			},
			{
				"type": "occ",
				"energy": -0.24309,
				"method": "rhf"
			},
			{
				"type": "occ",
				"energy": -0.23569,
				"method": "rhf"
			},
			{
				"type": "occ",
				"energy": -0.21943,
				"method": "rhf"
			},
			{
				"type": "occ",
				"energy": -0.19882,
				"method": "rhf"
			},
			{
				"type": "unocc",
				"energy": -0.0241,
				"method": "rhf"
			},
			{
				"type": "unocc",
				"energy": 0.01415,
				"method": "rhf"
			},
			{
				"type": "unocc",
				"energy": 0.0505,
				"method": "rhf"
			},
			{
				"type": "unocc",
				"energy": 0.08321,
				"method": "rhf"
			},
			{
				"type": "unocc",
				"energy": 0.09809,
				"method": "rhf"
			}
		],
		"cosmo_sigma_profile": { 
			"-0.025": 0.0,
			"-0.024": 0.0,
			"-0.023": 0.0,
			"-0.022": 0.0,
			"-0.021": 0.0,
			"-0.02": 0.0,
			"-0.019": 0.0,
			"-0.018": 0.0,
			"-0.017": 0.0,
			"-0.016": 0.0,
			"-0.015": 0.0,
			"-0.014": 0.0,
			"-0.013": 0.327157092834,
			"-0.012": 1.17762917047,
			"-0.011": 1.67232630444,
			"-0.01": 1.19367466885,
			"-0.009": 1.37690861371,
			"-0.008": 2.17433310011,
			"-0.007": 2.64004369882,
			"-0.006": 4.02151157646,
			"-0.005": 10.6922426785,
			"-0.004": 30.7776215403,
			"-0.003": 32.1912736921,
			"-0.002": 33.0154756616,
			"-0.001": 31.7753155791,
			"0.0": 21.1580956797,
			"0.001": 11.1358010225,
			"0.002": 11.7197465152,
			"0.003": 9.98349320655,
			"0.004": 10.8714929603,
			"0.005": 12.0887561746,
			"0.006": 10.5763118327,
			"0.007": 3.94689237199,
			"0.008": 2.94901934091,
			"0.009": 2.30980459806,
			"0.01": 2.52471881596,
			"0.011": 3.66887709733,
			"0.012": 2.93865210248,
			"0.013": 4.26402158976,
			"0.014": 1.43663826634,
			"0.015": 0.397990296308,
			"0.016": 0.184135361028,
			"0.017": 0.0,
			"0.018": 0.0,
			"0.019": 0.0,
			"0.02": 0.0,
			"0.021": 0.0,
			"0.022": 0.0,
			"0.023": 0.0,
			"0.024": 0.0,
			"0.025": 0.0
		}
	}
}
