{
	 "smiles": "O=P(N(N=CC1=CC=CC=C1)C1=CC=CC=C1)(N1CC1)N1CC1", 
	 "Tm": 387.15, 
	 "num_atms": 42, 
	 "gaussian": { 
		 "optdone": 1, 
		 "sigma_profile": "yes", 
		 "theory": "DFT", 
		 "functional": "B3LYP", 
		 "basiset": "6-31G**", 
		 "properties": { 
			 "R2extent": 8456.6532, 
			 "electric_dipole_moment_norm": 4.24781149299, 
			 "electric_quadrupole_moment_norm": 14.3257861013, 
			 "total_energy": -1294.75745454, 
			 "HOMO_LUMO_gap": 0.14471, 
			 "cosmo_polarized_energy": -17.01, 
			 "cosmo_cavitation_energy": 46.46, 
			 "cosmo_dispersion_energy": -30.81, 
			 "cosmo_repulsion_energy": 2.33, 
			 "cosmo_total_nonelectrostatic_energy": 17.97, 
			 "SMD_solvation_energy": 5.27 
		},
		"coords": [
			{
				"x": -0.3212635692,
				"y": -0.8947299965,
				"z": 3.4875606424,
				"element": "O" 
			},
			{
				"x": 0.1470509365,
				"y": -0.3211480471,
				"z": 2.1949964074,
				"element": "P" 
			},
			{
				"x": -0.5978792335,
				"y": -1.0252927575,
				"z": 0.8120774278,
				"element": "N" 
			},
			{
				"x": 0.0228580577,
				"y": -0.7439812765,
				"z": -0.4515264693,
				"element": "N" 
			},
			{
				"x": 0.9780784276,
				"y": -1.5561664573,
				"z": -0.7260242263,
				"element": "C" 
			},
			{
				"x": 1.7657400645,
				"y": -1.4260030492,
				"z": -1.9577249849,
				"element": "C" 
			},
			{
				"x": 1.5661384134,
				"y": -0.3663061542,
				"z": -2.8611281365,
				"element": "C" 
			},
			{
				"x": 2.3231698276,
				"y": -0.2887769245,
				"z": -4.0250697033,
				"element": "C" 
			},
			{
				"x": 3.2917712358,
				"y": -1.2605153773,
				"z": -4.3031948204,
				"element": "C" 
			},
			{
				"x": 3.5004417969,
				"y": -2.3123914006,
				"z": -3.4100107736,
				"element": "C" 
			},
			{
				"x": 2.741745762,
				"y": -2.3938304752,
				"z": -2.2426789881,
				"element": "C" 
			},
			{
				"x": -2.0341547938,
				"y": -1.0070859748,
				"z": 0.7486136722,
				"element": "C" 
			},
			{
				"x": -2.7056851175,
				"y": -0.494070845,
				"z": -0.3707219847,
				"element": "C" 
			},
			{
				"x": -4.0996826338,
				"y": -0.5212656953,
				"z": -0.4180904523,
				"element": "C" 
			},
			{
				"x": -4.8409301105,
				"y": -1.0495793767,
				"z": 0.6393573796,
				"element": "C" 
			},
			{
				"x": -4.1675674792,
				"y": -1.5665472834,
				"z": 1.7481533558,
				"element": "C" 
			},
			{
				"x": -2.7745788088,
				"y": -1.5612837671,
				"z": 1.8063261707,
				"element": "C" 
			},
			{
				"x": -0.0922330529,
				"y": 1.3636787653,
				"z": 2.0164062613,
				"element": "N" 
			},
			{
				"x": -1.4009866446,
				"y": 1.952644141,
				"z": 2.3478117229,
				"element": "C" 
			},
			{
				"x": -0.2344377074,
				"y": 2.1948962687,
				"z": 3.2311836267,
				"element": "C" 
			},
			{
				"x": 1.7908020901,
				"y": -0.5705873934,
				"z": 1.8956311093,
				"element": "N" 
			},
			{
				"x": 2.803946472,
				"y": 0.0254324001,
				"z": 2.7745238553,
				"element": "C" 
			},
			{
				"x": 2.7072971586,
				"y": 0.4362071943,
				"z": 1.3477020789,
				"element": "C" 
			},
			{
				"x": 1.2384668927,
				"y": -2.3698426279,
				"z": -0.0447888187,
				"element": "H" 
			},
			{
				"x": 0.8171753184,
				"y": 0.3832513086,
				"z": -2.6291574657,
				"element": "H" 
			},
			{
				"x": 2.1637269244,
				"y": 0.5314018861,
				"z": -4.7191623425,
				"element": "H" 
			},
			{
				"x": 3.8822917954,
				"y": -1.1941733477,
				"z": -5.2124843178,
				"element": "H" 
			},
			{
				"x": 4.2516863042,
				"y": -3.067528294,
				"z": -3.6216364164,
				"element": "H" 
			},
			{
				"x": 2.9001891222,
				"y": -3.2129092974,
				"z": -1.5457026264,
				"element": "H" 
			},
			{
				"x": -2.1315857346,
				"y": -0.0877601958,
				"z": -1.1931282954,
				"element": "H" 
			},
			{
				"x": -4.6065437432,
				"y": -0.1221697006,
				"z": -1.2926784043,
				"element": "H" 
			},
			{
				"x": -5.9258648998,
				"y": -1.0688429345,
				"z": 0.5957169182,
				"element": "H" 
			},
			{
				"x": -4.7276100027,
				"y": -1.9956391461,
				"z": 2.5744902133,
				"element": "H" 
			},
			{
				"x": -2.2536524457,
				"y": -1.9725247867,
				"z": 2.662030086,
				"element": "H" 
			},
			{
				"x": -2.1806198922,
				"y": 1.2928922423,
				"z": 2.7195913895,
				"element": "H" 
			},
			{
				"x": -1.7339362179,
				"y": 2.7218682515,
				"z": 1.6560160773,
				"element": "H" 
			},
			{
				"x": -0.2283529386,
				"y": 1.6842508711,
				"z": 4.1914971717,
				"element": "H" 
			},
			{
				"x": 0.2910439109,
				"y": 3.1460503728,
				"z": 3.1931479056,
				"element": "H" 
			},
			{
				"x": 2.4822201073,
				"y": 0.7372588208,
				"z": 3.5317946506,
				"element": "H" 
			},
			{
				"x": 3.5828269425,
				"y": -0.660156564,
				"z": 3.0990403281,
				"element": "H" 
			},
			{
				"x": 2.2974718451,
				"y": 1.418260965,
				"z": 1.1274735953,
				"element": "H" 
			},
			{
				"x": 3.4185256202,
				"y": 0.0493156589,
				"z": 0.6217671809,
				"element": "H" 
			}
		],
		 "valence_orbital": [ 
			{
				"type": "occ",
				"energy": -0.25873,
				"method": "rhf"
			},
			{
				"type": "occ",
				"energy": -0.25089,
				"method": "rhf"
			},
			{
				"type": "occ",
				"energy": -0.24575,
				"method": "rhf"
			},
			{
				"type": "occ",
				"energy": -0.23828,
				"method": "rhf"
			},
			{
				"type": "occ",
				"energy": -0.20019,
				"method": "rhf"
			},
			{
				"type": "unocc",
				"energy": -0.05548,
				"method": "rhf"
			},
			{
				"type": "unocc",
				"energy": -0.01055,
				"method": "rhf"
			},
			{
				"type": "unocc",
				"energy": 0.00946,
				"method": "rhf"
			},
			{
				"type": "unocc",
				"energy": 0.01196,
				"method": "rhf"
			},
			{
				"type": "unocc",
				"energy": 0.0423,
				"method": "rhf"
			}
		],
		"cosmo_sigma_profile": { 
			"-0.025": 0.0,
			"-0.024": 0.0,
			"-0.023": 0.0,
			"-0.022": 0.0,
			"-0.021": 0.0,
			"-0.02": 0.0,
			"-0.019": 0.0,
			"-0.018": 0.0,
			"-0.017": 0.0,
			"-0.016": 0.0,
			"-0.015": 0.0,
			"-0.014": 0.0,
			"-0.013": 0.0,
			"-0.012": 0.0,
			"-0.011": 0.0,
			"-0.01": 0.0,
			"-0.009": 0.0130665204627,
			"-0.008": 1.16312945854,
			"-0.007": 6.59886507594,
			"-0.006": 23.8641368999,
			"-0.005": 31.6928178321,
			"-0.004": 35.3139477824,
			"-0.003": 36.3478670819,
			"-0.002": 27.0591856125,
			"-0.001": 26.3937993731,
			"0.0": 24.1480494059,
			"0.001": 24.241824285,
			"0.002": 23.883611252,
			"0.003": 26.1611195177,
			"0.004": 27.3914374999,
			"0.005": 17.0827637654,
			"0.006": 10.2051931968,
			"0.007": 4.81294986163,
			"0.008": 3.95466611548,
			"0.009": 3.68029785824,
			"0.01": 3.40620702562,
			"0.011": 1.58327079081,
			"0.012": 1.79396925177,
			"0.013": 2.32925672082,
			"0.014": 2.99432433587,
			"0.015": 2.69896149528,
			"0.016": 0.319455207798,
			"0.017": 0.0,
			"0.018": 0.0,
			"0.019": 0.0,
			"0.02": 0.0,
			"0.021": 0.0,
			"0.022": 0.0,
			"0.023": 0.0,
			"0.024": 0.0,
			"0.025": 0.0
		}
	}
}
