{
	 "smiles": "CC1=NC(Cl)=C(C(O)=O)C(C)=C1", 
	 "Tm": 353.15, 
	 "num_atms": 20, 
	 "gaussian": { 
		 "optdone": 1, 
		 "sigma_profile": "yes", 
		 "theory": "DFT", 
		 "functional": "B3LYP", 
		 "basiset": "6-31G**", 
		 "properties": { 
			 "R2extent": 3447.3654, 
			 "electric_dipole_moment_norm": 4.33448436264, 
			 "electric_quadrupole_moment_norm": 9.87985613357, 
			 "total_energy": -975.081266326, 
			 "HOMO_LUMO_gap": 0.20563, 
			 "cosmo_polarized_energy": -11.68, 
			 "cosmo_cavitation_energy": 25.61, 
			 "cosmo_dispersion_energy": -19.15, 
			 "cosmo_repulsion_energy": 1.53, 
			 "cosmo_total_nonelectrostatic_energy": 7.99, 
			 "SMD_solvation_energy": 4.03 
		},
		"coords": [
			{
				"x": 1.5958121365,
				"y": 2.0517982918,
				"z": 0.4002836546,
				"element": "C" 
			},
			{
				"x": 0.8420077971,
				"y": 0.9604174508,
				"z": -0.3096575445,
				"element": "C" 
			},
			{
				"x": 0.6622755045,
				"y": 1.119665404,
				"z": -1.6327391797,
				"element": "N" 
			},
			{
				"x": 0.0177084658,
				"y": 0.1831133129,
				"z": -2.2893238333,
				"element": "C" 
			},
			{
				"x": -0.1517272316,
				"y": 0.5347816712,
				"z": -4.0294971833,
				"element": "Cl" 
			},
			{
				"x": -0.5324275832,
				"y": -0.9916995123,
				"z": -1.7396363753,
				"element": "C" 
			},
			{
				"x": -1.3147103224,
				"y": -2.0392251972,
				"z": -2.4972386781,
				"element": "C" 
			},
			{
				"x": -0.9250253733,
				"y": -2.3547090564,
				"z": -3.7479535251,
				"element": "O" 
			},
			{
				"x": -2.2402717664,
				"y": -2.6321997104,
				"z": -1.99119605,
				"element": "O" 
			},
			{
				"x": -0.3560575546,
				"y": -1.1538054783,
				"z": -0.342101059,
				"element": "C" 
			},
			{
				"x": -0.8836775316,
				"y": -2.3398816337,
				"z": 0.4260799619,
				"element": "C" 
			},
			{
				"x": 0.3481583382,
				"y": -0.1635998521,
				"z": 0.3501282524,
				"element": "C" 
			},
			{
				"x": 1.0776657735,
				"y": 3.008490481,
				"z": 0.2787334605,
				"element": "H" 
			},
			{
				"x": 2.5917465358,
				"y": 2.1703826634,
				"z": -0.0384657434,
				"element": "H" 
			},
			{
				"x": 1.7023815006,
				"y": 1.8414447792,
				"z": 1.4668013201,
				"element": "H" 
			},
			{
				"x": -0.2451818021,
				"y": -1.7420708204,
				"z": -4.0704425469,
				"element": "H" 
			},
			{
				"x": -0.4628070984,
				"y": -2.3505689458,
				"z": 1.4343807619,
				"element": "H" 
			},
			{
				"x": -1.9736013345,
				"y": -2.3001198044,
				"z": 0.4920754115,
				"element": "H" 
			},
			{
				"x": -0.6464016575,
				"y": -3.2849677997,
				"z": -0.0682305048,
				"element": "H" 
			},
			{
				"x": 0.5069332036,
				"y": -0.2720462436,
				"z": 1.4182994005,
				"element": "H" 
			}
		],
		 "valence_orbital": [ 
			{
				"type": "occ",
				"energy": -0.31541,
				"method": "rhf"
			},
			{
				"type": "occ",
				"energy": -0.30029,
				"method": "rhf"
			},
			{
				"type": "occ",
				"energy": -0.29287,
				"method": "rhf"
			},
			{
				"type": "occ",
				"energy": -0.276,
				"method": "rhf"
			},
			{
				"type": "occ",
				"energy": -0.26797,
				"method": "rhf"
			},
			{
				"type": "unocc",
				"energy": -0.06234,
				"method": "rhf"
			},
			{
				"type": "unocc",
				"energy": -0.04156,
				"method": "rhf"
			},
			{
				"type": "unocc",
				"energy": 0.00949,
				"method": "rhf"
			},
			{
				"type": "unocc",
				"energy": 0.02771,
				"method": "rhf"
			},
			{
				"type": "unocc",
				"energy": 0.08951,
				"method": "rhf"
			}
		],
		"cosmo_sigma_profile": { 
			"-0.025": 0.0,
			"-0.024": 0.0,
			"-0.023": 0.0,
			"-0.022": 0.0,
			"-0.021": 0.0,
			"-0.02": 0.0,
			"-0.019": 0.0,
			"-0.018": 0.0,
			"-0.017": 0.0,
			"-0.016": 0.0246498529792,
			"-0.015": 0.694105010864,
			"-0.014": 0.872949326974,
			"-0.013": 0.789195065309,
			"-0.012": 1.17066415876,
			"-0.011": 0.713543127957,
			"-0.01": 0.521465367054,
			"-0.009": 1.01282919448,
			"-0.008": 1.93362562112,
			"-0.007": 4.77138725399,
			"-0.006": 7.47892974346,
			"-0.005": 13.1679802231,
			"-0.004": 13.516799957,
			"-0.003": 18.2928272506,
			"-0.002": 22.5191461676,
			"-0.001": 29.4250609188,
			"0.0": 17.6290973203,
			"0.001": 11.0019327925,
			"0.002": 7.42797487404,
			"0.003": 7.97241155202,
			"0.004": 7.62078267837,
			"0.005": 5.27373336169,
			"0.006": 3.86769119685,
			"0.007": 3.1179620959,
			"0.008": 4.70426482027,
			"0.009": 4.56292762201,
			"0.01": 6.19876805762,
			"0.011": 5.19130785971,
			"0.012": 3.43217355614,
			"0.013": 1.27342246109,
			"0.014": 0.140633058398,
			"0.015": 0.0,
			"0.016": 0.0,
			"0.017": 0.0,
			"0.018": 0.0,
			"0.019": 0.0,
			"0.02": 0.0,
			"0.021": 0.0,
			"0.022": 0.0,
			"0.023": 0.0,
			"0.024": 0.0,
			"0.025": 0.0
		}
	}
}
