{
	 "smiles": "CNC1=C(C=C(C=N1)[N+]([O-])=O)C#N", 
	 "Tm": 455.15, 
	 "num_atms": 19, 
	 "gaussian": { 
		 "optdone": 1, 
		 "sigma_profile": "yes", 
		 "theory": "DFT", 
		 "functional": "B3LYP", 
		 "basiset": "6-31G**", 
		 "properties": { 
			 "R2extent": 3413.2987, 
			 "electric_dipole_moment_norm": 5.02440050155, 
			 "electric_quadrupole_moment_norm": 19.2710804886, 
			 "total_energy": -639.70055868, 
			 "HOMO_LUMO_gap": 0.1579, 
			 "cosmo_polarized_energy": -14.68, 
			 "cosmo_cavitation_energy": 25.63, 
			 "cosmo_dispersion_energy": -18.27, 
			 "cosmo_repulsion_energy": 1.45, 
			 "cosmo_total_nonelectrostatic_energy": 8.81, 
			 "SMD_solvation_energy": 6.6 
		},
		"coords": [
			{
				"x": -1.1548076296,
				"y": -1.4017734299,
				"z": 4.5028844934,
				"element": "C" 
			},
			{
				"x": -1.1000013937,
				"y": -2.1248736918,
				"z": 3.2402915496,
				"element": "N" 
			},
			{
				"x": -0.5942231565,
				"y": -1.597858439,
				"z": 2.1077149618,
				"element": "C" 
			},
			{
				"x": -0.5657672903,
				"y": -2.3601684491,
				"z": 0.8873724244,
				"element": "C" 
			},
			{
				"x": -0.0343352942,
				"y": -1.7716948105,
				"z": -0.2520972954,
				"element": "C" 
			},
			{
				"x": 0.4468718554,
				"y": -0.4670125774,
				"z": -0.1568976448,
				"element": "C" 
			},
			{
				"x": 0.3835350073,
				"y": 0.2076202036,
				"z": 1.0661750147,
				"element": "C" 
			},
			{
				"x": -0.1203037365,
				"y": -0.3356956305,
				"z": 2.1680569667,
				"element": "N" 
			},
			{
				"x": 1.0117597268,
				"y": 0.187142911,
				"z": -1.3256788665,
				"element": "N" 
			},
			{
				"x": 1.0426772395,
				"y": -0.4542457897,
				"z": -2.3777546012,
				"element": "O" 
			},
			{
				"x": 1.4235017262,
				"y": 1.3407609858,
				"z": -1.1899333748,
				"element": "O" 
			},
			{
				"x": -1.0815081712,
				"y": -3.6899002206,
				"z": 0.8852275603,
				"element": "C" 
			},
			{
				"x": -1.5208972387,
				"y": -4.7656190276,
				"z": 0.9666172226,
				"element": "N" 
			},
			{
				"x": -1.7538481529,
				"y": -0.4915141718,
				"z": 4.4086081219,
				"element": "H" 
			},
			{
				"x": -1.6082175347,
				"y": -2.0550198035,
				"z": 5.2496410474,
				"element": "H" 
			},
			{
				"x": -0.1530110329,
				"y": -1.1149396634,
				"z": 4.8352852681,
				"element": "H" 
			},
			{
				"x": -1.4560268577,
				"y": -3.0688667428,
				"z": 3.2017409644,
				"element": "H" 
			},
			{
				"x": 0.0112721209,
				"y": -2.3006954991,
				"z": -1.1961184795,
				"element": "H" 
			},
			{
				"x": 0.7595298128,
				"y": 1.2238538463,
				"z": 1.1357646669,
				"element": "H" 
			}
		],
		 "valence_orbital": [ 
			{
				"type": "occ",
				"energy": -0.31846,
				"method": "rhf"
			},
			{
				"type": "occ",
				"energy": -0.31114,
				"method": "rhf"
			},
			{
				"type": "occ",
				"energy": -0.29763,
				"method": "rhf"
			},
			{
				"type": "occ",
				"energy": -0.29414,
				"method": "rhf"
			},
			{
				"type": "occ",
				"energy": -0.25164,
				"method": "rhf"
			},
			{
				"type": "unocc",
				"energy": -0.09374,
				"method": "rhf"
			},
			{
				"type": "unocc",
				"energy": -0.07871,
				"method": "rhf"
			},
			{
				"type": "unocc",
				"energy": -0.01606,
				"method": "rhf"
			},
			{
				"type": "unocc",
				"energy": 0.00521,
				"method": "rhf"
			},
			{
				"type": "unocc",
				"energy": 0.05956,
				"method": "rhf"
			}
		],
		"cosmo_sigma_profile": { 
			"-0.025": 0.0,
			"-0.024": 0.0,
			"-0.023": 0.0,
			"-0.022": 0.0,
			"-0.021": 0.0,
			"-0.02": 0.0,
			"-0.019": 0.0,
			"-0.018": 0.0,
			"-0.017": 0.0,
			"-0.016": 0.0,
			"-0.015": 0.610740224884,
			"-0.014": 0.81133297632,
			"-0.013": 1.08302437001,
			"-0.012": 0.949937868349,
			"-0.011": 1.33989641845,
			"-0.01": 1.87926720595,
			"-0.009": 4.24353549634,
			"-0.008": 4.60617416755,
			"-0.007": 5.52507729093,
			"-0.006": 8.75489619609,
			"-0.005": 13.0652578311,
			"-0.004": 18.6856112412,
			"-0.003": 25.2010493945,
			"-0.002": 22.1568906125,
			"-0.001": 10.2727709067,
			"0.0": 7.10826320346,
			"0.001": 6.57712870924,
			"0.002": 5.72032171215,
			"0.003": 5.68477203598,
			"0.004": 5.78905245984,
			"0.005": 5.48787423231,
			"0.006": 6.52731615524,
			"0.007": 11.6009588032,
			"0.008": 11.7450186045,
			"0.009": 8.94792461993,
			"0.01": 6.484541386,
			"0.011": 3.42462893757,
			"0.012": 2.36727513626,
			"0.013": 0.186645607553,
			"0.014": 0.0,
			"0.015": 0.0,
			"0.016": 0.0,
			"0.017": 0.0,
			"0.018": 0.0,
			"0.019": 0.0,
			"0.02": 0.0,
			"0.021": 0.0,
			"0.022": 0.0,
			"0.023": 0.0,
			"0.024": 0.0,
			"0.025": 0.0
		}
	}
}
