{
	 "smiles": "CCCCOC(=O)C=CC(=O)OCCCC", 
	 "Tm": 188.15, 
	 "num_atms": 36, 
	 "gaussian": { 
		 "optdone": 1, 
		 "sigma_profile": "yes", 
		 "theory": "DFT", 
		 "functional": "B3LYP", 
		 "basiset": "6-31G**", 
		 "properties": { 
			 "R2extent": 8466.2644, 
			 "electric_dipole_moment_norm": 0.294758986292, 
			 "electric_quadrupole_moment_norm": 19.7746075875, 
			 "total_energy": -770.248258825, 
			 "HOMO_LUMO_gap": 0.19073, 
			 "cosmo_polarized_energy": -10.0, 
			 "cosmo_cavitation_energy": 40.2, 
			 "cosmo_dispersion_energy": -27.77, 
			 "cosmo_repulsion_energy": 2.27, 
			 "cosmo_total_nonelectrostatic_energy": 14.7, 
			 "SMD_solvation_energy": 8.81 
		},
		"coords": [
			{
				"x": 3.0182114199,
				"y": 3.6170957739,
				"z": 4.061415435,
				"element": "C" 
			},
			{
				"x": 3.6077879188,
				"y": 3.138324686,
				"z": 2.7285447262,
				"element": "C" 
			},
			{
				"x": 2.930481402,
				"y": 1.8884507369,
				"z": 2.141851334,
				"element": "C" 
			},
			{
				"x": 1.4853859193,
				"y": 2.1258736557,
				"z": 1.7288979998,
				"element": "C" 
			},
			{
				"x": 0.9975465442,
				"y": 0.9007867289,
				"z": 1.134403853,
				"element": "O" 
			},
			{
				"x": -0.2919130912,
				"y": 0.911887482,
				"z": 0.7389989891,
				"element": "C" 
			},
			{
				"x": -1.0312360923,
				"y": 1.8699691888,
				"z": 0.8566398981,
				"element": "O" 
			},
			{
				"x": -0.7283092982,
				"y": -0.3748135031,
				"z": 0.1381455771,
				"element": "C" 
			},
			{
				"x": 0.0601656548,
				"y": -1.4472967931,
				"z": -0.0090821945,
				"element": "C" 
			},
			{
				"x": -0.3732408696,
				"y": -2.7324379323,
				"z": -0.6153788226,
				"element": "C" 
			},
			{
				"x": 0.3765581325,
				"y": -3.6780972681,
				"z": -0.762836223,
				"element": "O" 
			},
			{
				"x": -1.6716326581,
				"y": -2.7351159587,
				"z": -0.981337554,
				"element": "O" 
			},
			{
				"x": -2.1550009078,
				"y": -3.956657274,
				"z": -1.59012209,
				"element": "C" 
			},
			{
				"x": -3.6468443583,
				"y": -3.7948642418,
				"z": -1.8430211158,
				"element": "C" 
			},
			{
				"x": -4.5051641599,
				"y": -3.6202113114,
				"z": -0.5787819736,
				"element": "C" 
			},
			{
				"x": -4.5319656756,
				"y": -4.8462832757,
				"z": 0.3411713654,
				"element": "C" 
			},
			{
				"x": 3.5862612334,
				"y": 4.4649080267,
				"z": 4.4573261907,
				"element": "H" 
			},
			{
				"x": 3.0445314722,
				"y": 2.8198620943,
				"z": 4.8131767013,
				"element": "H" 
			},
			{
				"x": 1.9776356151,
				"y": 3.9422883235,
				"z": 3.9598189292,
				"element": "H" 
			},
			{
				"x": 4.6719419996,
				"y": 2.9142500374,
				"z": 2.8683945437,
				"element": "H" 
			},
			{
				"x": 3.5657278914,
				"y": 3.9535158794,
				"z": 1.9935163544,
				"element": "H" 
			},
			{
				"x": 3.488614418,
				"y": 1.54843104,
				"z": 1.2614796853,
				"element": "H" 
			},
			{
				"x": 2.9632827804,
				"y": 1.0689123849,
				"z": 2.870956315,
				"element": "H" 
			},
			{
				"x": 1.4006903046,
				"y": 2.9333674305,
				"z": 0.9928104627,
				"element": "H" 
			},
			{
				"x": 0.8408928968,
				"y": 2.383399804,
				"z": 2.5742306264,
				"element": "H" 
			},
			{
				"x": -1.7629940151,
				"y": -0.3866385308,
				"z": -0.18600059,
				"element": "H" 
			},
			{
				"x": 1.0959068127,
				"y": -1.4329335825,
				"z": 0.3117448653,
				"element": "H" 
			},
			{
				"x": -1.6050768175,
				"y": -4.1227802652,
				"z": -2.522186586,
				"element": "H" 
			},
			{
				"x": -1.928145994,
				"y": -4.7937513075,
				"z": -0.9235225672,
				"element": "H" 
			},
			{
				"x": -3.7940782263,
				"y": -2.936249511,
				"z": -2.5092388837,
				"element": "H" 
			},
			{
				"x": -3.9809544325,
				"y": -4.6817361969,
				"z": -2.3983367265,
				"element": "H" 
			},
			{
				"x": -5.5294452415,
				"y": -3.3831855019,
				"z": -0.8911423084,
				"element": "H" 
			},
			{
				"x": -4.1454625239,
				"y": -2.7475076455,
				"z": -0.0213654644,
				"element": "H" 
			},
			{
				"x": -3.5405048111,
				"y": -5.0811562119,
				"z": 0.7426168479,
				"element": "H" 
			},
			{
				"x": -4.8934484217,
				"y": -5.7343204826,
				"z": -0.1904833618,
				"element": "H" 
			},
			{
				"x": -5.1954048208,
				"y": -4.6787864786,
				"z": 1.1955957617,
				"element": "H" 
			}
		],
		 "valence_orbital": [ 
			{
				"type": "occ",
				"energy": -0.30349,
				"method": "rhf"
			},
			{
				"type": "occ",
				"energy": -0.30261,
				"method": "rhf"
			},
			{
				"type": "occ",
				"energy": -0.29121,
				"method": "rhf"
			},
			{
				"type": "occ",
				"energy": -0.287,
				"method": "rhf"
			},
			{
				"type": "occ",
				"energy": -0.27,
				"method": "rhf"
			},
			{
				"type": "unocc",
				"energy": -0.07927,
				"method": "rhf"
			},
			{
				"type": "unocc",
				"energy": 0.03753,
				"method": "rhf"
			},
			{
				"type": "unocc",
				"energy": 0.07755,
				"method": "rhf"
			},
			{
				"type": "unocc",
				"energy": 0.08166,
				"method": "rhf"
			},
			{
				"type": "unocc",
				"energy": 0.09855,
				"method": "rhf"
			}
		],
		"cosmo_sigma_profile": { 
			"-0.025": 0.0,
			"-0.024": 0.0,
			"-0.023": 0.0,
			"-0.022": 0.0,
			"-0.021": 0.0,
			"-0.02": 0.0,
			"-0.019": 0.0,
			"-0.018": 0.0,
			"-0.017": 0.0,
			"-0.016": 0.0,
			"-0.015": 0.0,
			"-0.014": 0.0,
			"-0.013": 0.0,
			"-0.012": 0.0,
			"-0.011": 0.0,
			"-0.01": 0.0,
			"-0.009": 0.0,
			"-0.008": 0.110406823256,
			"-0.007": 1.7523572602,
			"-0.006": 3.08670622585,
			"-0.005": 10.8066826198,
			"-0.004": 20.5421269091,
			"-0.003": 45.426519418,
			"-0.002": 47.2719442068,
			"-0.001": 45.8037998843,
			"0.0": 42.9613151488,
			"0.001": 31.2647691783,
			"0.002": 13.9157144011,
			"0.003": 7.59830661107,
			"0.004": 6.97783751859,
			"0.005": 4.80366036696,
			"0.006": 2.06934163545,
			"0.007": 3.2325195773,
			"0.008": 2.96388056918,
			"0.009": 2.58282538442,
			"0.01": 4.86197005489,
			"0.011": 7.10576381909,
			"0.012": 7.83527151067,
			"0.013": 0.863371966899,
			"0.014": 0.0,
			"0.015": 0.0,
			"0.016": 0.0,
			"0.017": 0.0,
			"0.018": 0.0,
			"0.019": 0.0,
			"0.02": 0.0,
			"0.021": 0.0,
			"0.022": 0.0,
			"0.023": 0.0,
			"0.024": 0.0,
			"0.025": 0.0
		}
	}
}
