{
	 "smiles": "CC1=C(N)C=C(C=C1)C1=NC=CO1", 
	 "Tm": 363.15, 
	 "num_atms": 23, 
	 "gaussian": { 
		 "optdone": 1, 
		 "sigma_profile": "yes", 
		 "theory": "DFT", 
		 "functional": "B3LYP", 
		 "basiset": "6-31G**", 
		 "properties": { 
			 "R2extent": 3629.4594, 
			 "electric_dipole_moment_norm": 2.80203539235, 
			 "electric_quadrupole_moment_norm": 14.5424457915, 
			 "total_energy": -571.815547167, 
			 "HOMO_LUMO_gap": 0.16768, 
			 "cosmo_polarized_energy": -11.84, 
			 "cosmo_cavitation_energy": 27.02, 
			 "cosmo_dispersion_energy": -20.15, 
			 "cosmo_repulsion_energy": 1.57, 
			 "cosmo_total_nonelectrostatic_energy": 8.44, 
			 "SMD_solvation_energy": 4.03 
		},
		"coords": [
			{
				"x": -0.9042647611,
				"y": 2.9136565473,
				"z": 0.2615643943,
				"element": "C" 
			},
			{
				"x": -0.370885227,
				"y": 1.5798915873,
				"z": 0.718888618,
				"element": "C" 
			},
			{
				"x": -0.0341499898,
				"y": 0.5846357348,
				"z": -0.2286198109,
				"element": "C" 
			},
			{
				"x": -0.2372612697,
				"y": 0.8171435797,
				"z": -1.5930458323,
				"element": "N" 
			},
			{
				"x": 0.4451390856,
				"y": -0.656042844,
				"z": 0.209876537,
				"element": "C" 
			},
			{
				"x": 0.5946734082,
				"y": -0.9263956772,
				"z": 1.575707141,
				"element": "C" 
			},
			{
				"x": 0.2677665002,
				"y": 0.0579714395,
				"z": 2.5193844934,
				"element": "C" 
			},
			{
				"x": -0.2069539885,
				"y": 1.288529016,
				"z": 2.0766212519,
				"element": "C" 
			},
			{
				"x": 1.0930648975,
				"y": -2.219459045,
				"z": 2.0350780301,
				"element": "C" 
			},
			{
				"x": 1.2934907522,
				"y": -2.6194043882,
				"z": 3.2616180011,
				"element": "N" 
			},
			{
				"x": 1.7675965165,
				"y": -3.9145553944,
				"z": 3.1395390968,
				"element": "C" 
			},
			{
				"x": 1.8346499725,
				"y": -4.2474563095,
				"z": 1.8257998631,
				"element": "C" 
			},
			{
				"x": 1.4047191001,
				"y": -3.1679338414,
				"z": 1.1004842278,
				"element": "O" 
			},
			{
				"x": -0.1682468914,
				"y": 3.4703037107,
				"z": -0.3368364241,
				"element": "H" 
			},
			{
				"x": -1.1684107972,
				"y": 3.5444182243,
				"z": 1.1138780095,
				"element": "H" 
			},
			{
				"x": -1.7989765458,
				"y": 2.7948597392,
				"z": -0.3624249741,
				"element": "H" 
			},
			{
				"x": 0.2629602692,
				"y": 0.1877416687,
				"z": -2.2058745258,
				"element": "H" 
			},
			{
				"x": -0.1408293668,
				"y": 1.7786374496,
				"z": -1.8886846695,
				"element": "H" 
			},
			{
				"x": 0.7006789104,
				"y": -1.4195082228,
				"z": -0.5188673944,
				"element": "H" 
			},
			{
				"x": 0.3877877468,
				"y": -0.1542557207,
				"z": 3.575333481,
				"element": "H" 
			},
			{
				"x": -0.4638590555,
				"y": 2.0528633266,
				"z": 2.8059169455,
				"element": "H" 
			},
			{
				"x": 2.0249049069,
				"y": -4.5111355883,
				"z": 4.0027924739,
				"element": "H" 
			},
			{
				"x": 2.1332058268,
				"y": -5.1202049921,
				"z": 1.2685710668,
				"element": "H" 
			}
		],
		 "valence_orbital": [ 
			{
				"type": "occ",
				"energy": -0.3063,
				"method": "rhf"
			},
			{
				"type": "occ",
				"energy": -0.27957,
				"method": "rhf"
			},
			{
				"type": "occ",
				"energy": -0.26545,
				"method": "rhf"
			},
			{
				"type": "occ",
				"energy": -0.21991,
				"method": "rhf"
			},
			{
				"type": "occ",
				"energy": -0.19897,
				"method": "rhf"
			},
			{
				"type": "unocc",
				"energy": -0.03129,
				"method": "rhf"
			},
			{
				"type": "unocc",
				"energy": 0.0149,
				"method": "rhf"
			},
			{
				"type": "unocc",
				"energy": 0.04075,
				"method": "rhf"
			},
			{
				"type": "unocc",
				"energy": 0.07359,
				"method": "rhf"
			},
			{
				"type": "unocc",
				"energy": 0.08399,
				"method": "rhf"
			}
		],
		"cosmo_sigma_profile": { 
			"-0.025": 0.0,
			"-0.024": 0.0,
			"-0.023": 0.0,
			"-0.022": 0.0,
			"-0.021": 0.0,
			"-0.02": 0.0,
			"-0.019": 0.0,
			"-0.018": 0.0,
			"-0.017": 0.0,
			"-0.016": 0.0,
			"-0.015": 0.0,
			"-0.014": 0.0,
			"-0.013": 0.178443620259,
			"-0.012": 1.65805019054,
			"-0.011": 2.90842839031,
			"-0.01": 4.01220164073,
			"-0.009": 4.98983862893,
			"-0.008": 6.08571427302,
			"-0.007": 6.58353902385,
			"-0.006": 5.38393750988,
			"-0.005": 11.4734198303,
			"-0.004": 13.4116000336,
			"-0.003": 12.4591283885,
			"-0.002": 12.3991839086,
			"-0.001": 13.4516207045,
			"0.0": 18.2309941759,
			"0.001": 16.9898377193,
			"0.002": 14.6163593289,
			"0.003": 15.6865311608,
			"0.004": 14.8438795205,
			"0.005": 14.4080563051,
			"0.006": 9.6656279226,
			"0.007": 3.25699265384,
			"0.008": 1.41673596529,
			"0.009": 2.0775974877,
			"0.01": 2.11476647327,
			"0.011": 1.87271676893,
			"0.012": 2.16148147256,
			"0.013": 1.15554397761,
			"0.014": 1.54780403563,
			"0.015": 0.683582449946,
			"0.016": 0.0,
			"0.017": 0.0,
			"0.018": 0.0,
			"0.019": 0.0,
			"0.02": 0.0,
			"0.021": 0.0,
			"0.022": 0.0,
			"0.023": 0.0,
			"0.024": 0.0,
			"0.025": 0.0
		}
	}
}
