{
	 "smiles": "FC1=CC=C(I)C=C1", 
	 "Tm": 253.15, 
	 "num_atms": 12, 
	 "gaussian": { 
		 "optdone": 1, 
		 "sigma_profile": "no", 
		 "theory": "DFT", 
		 "functional": "B3LYP", 
		 "basiset": "6-31G**", 
		 "properties": { 
			 "R2extent": 1260.4512, 
			 "electric_dipole_moment_norm": 0.428203818292, 
			 "electric_quadrupole_moment_norm": 6.76923674944, 
			 "total_energy": -342.26620301, 
			 "HOMO_LUMO_gap": 0.19692, 
			 "cosmo_polarized_energy": -97730.32, 
			 "cosmo_cavitation_energy": 19.84, 
			 "cosmo_dispersion_energy": -16.13, 
			 "cosmo_repulsion_energy": 1.27, 
			 "cosmo_total_nonelectrostatic_energy": 4.99, 
			 "SMD_solvation_energy": 3.1 
		},
		"coords": [
			{
				"x": 1.1339030148,
				"y": -0.2883624397,
				"z": -2.2080453345,
				"element": "F" 
			},
			{
				"x": 1.0593145369,
				"y": -0.0519963132,
				"z": -0.8837531422,
				"element": "C" 
			},
			{
				"x": 1.7354696475,
				"y": 1.0413974124,
				"z": -0.3546021704,
				"element": "C" 
			},
			{
				"x": 1.657780155,
				"y": 1.2857084369,
				"z": 1.0173829013,
				"element": "C" 
			},
			{
				"x": 0.9065432192,
				"y": 0.4322155625,
				"z": 1.8289485952,
				"element": "C" 
			},
			{
				"x": 0.7890325657,
				"y": 0.8041674228,
				"z": 3.9128516277,
				"element": "I" 
			},
			{
				"x": 0.2316673078,
				"y": -0.6632479154,
				"z": 1.2849333769,
				"element": "C" 
			},
			{
				"x": 0.308490106,
				"y": -0.9087146826,
				"z": -0.0868888689,
				"element": "C" 
			},
			{
				"x": 2.3109631229,
				"y": 1.6867489575,
				"z": -1.009244874,
				"element": "H" 
			},
			{
				"x": 2.1800761435,
				"y": 2.134794541,
				"z": 1.4432470924,
				"element": "H" 
			},
			{
				"x": -0.3502514835,
				"y": -1.3233027384,
				"z": 1.9180103877,
				"element": "H" 
			},
			{
				"x": -0.2047883358,
				"y": -1.7513082438,
				"z": -0.5372395912,
				"element": "H" 
			}
		],
		 "valence_orbital": [ 
			{
				"type": "occ",
				"energy": -0.35752,
				"method": "rhf"
			},
			{
				"type": "occ",
				"energy": -0.29479,
				"method": "rhf"
			},
			{
				"type": "occ",
				"energy": -0.27544,
				"method": "rhf"
			},
			{
				"type": "occ",
				"energy": -0.27216,
				"method": "rhf"
			},
			{
				"type": "occ",
				"energy": -0.23949,
				"method": "rhf"
			},
			{
				"type": "unocc",
				"energy": -0.04257,
				"method": "rhf"
			},
			{
				"type": "unocc",
				"energy": -0.02586,
				"method": "rhf"
			},
			{
				"type": "unocc",
				"energy": -0.01714,
				"method": "rhf"
			},
			{
				"type": "unocc",
				"energy": 0.04051,
				"method": "rhf"
			},
			{
				"type": "unocc",
				"energy": 0.0491,
				"method": "rhf"
			}
		],
		"cosmo_sigma_profile": { 
			"0.0": 0.0,
			"0.0": 0.0,
			"0.0": 0.0,
			"0.0": 0.0,
			"0.0": 0.0,
			"0.0": 0.0,
			"0.0": 0.0,
			"0.0": 0.0,
			"0.0": 0.0,
			"0.0": 0.0,
			"0.0": 0.0,
			"0.0": 0.0,
			"0.0": 0.0,
			"0.0": 0.0,
			"0.0": 0.0,
			"0.0": 0.0,
			"0.0": 0.0,
			"0.0": 0.0,
			"0.0": 0.0,
			"0.0": 0.0,
			"0.0": 0.0,
			"0.0": 0.0,
			"0.0": 0.0,
			"0.0": 0.0,
			"0.0": 0.0,
			"0.0": 0.0,
			"0.0": 0.0,
			"0.0": 0.0,
			"0.0": 0.0,
			"0.0": 0.0,
			"0.0": 0.0,
			"0.0": 0.0,
			"0.0": 0.0,
			"0.0": 0.0,
			"0.0": 0.0,
			"0.0": 0.0,
			"0.0": 0.0,
			"0.0": 0.0,
			"0.0": 0.0,
			"0.0": 0.0,
			"0.0": 0.0,
			"0.0": 0.0,
			"0.0": 0.0,
			"0.0": 0.0,
			"0.0": 0.0,
			"0.0": 0.0,
			"0.0": 0.0,
			"0.0": 0.0,
			"0.0": 0.0,
			"0.0": 0.0,
			"0.0": 0.0
		}
	}
}
