{
	 "smiles": "CN1N=C(C(=C1N)C1=CC=C(F)C=C1)C1=NC=CC=C1", 
	 "Tm": 438.15, 
	 "num_atms": 33, 
	 "gaussian": { 
		 "optdone": 1, 
		 "sigma_profile": "yes", 
		 "theory": "DFT", 
		 "functional": "B3LYP", 
		 "basiset": "6-31G**", 
		 "properties": { 
			 "R2extent": 6622.6146, 
			 "electric_dipole_moment_norm": 3.38382470882, 
			 "electric_quadrupole_moment_norm": 19.6872599942, 
			 "total_energy": -898.259284613, 
			 "HOMO_LUMO_gap": 0.17429, 
			 "cosmo_polarized_energy": -15.01, 
			 "cosmo_cavitation_energy": 37.65, 
			 "cosmo_dispersion_energy": -26.57, 
			 "cosmo_repulsion_energy": 2.02, 
			 "cosmo_total_nonelectrostatic_energy": 13.1, 
			 "SMD_solvation_energy": 5.4 
		},
		"coords": [
			{
				"x": -0.0017852989,
				"y": -0.0187497967,
				"z": 4.6201360583,
				"element": "C" 
			},
			{
				"x": -0.2461331437,
				"y": 0.1099439105,
				"z": 3.1991834737,
				"element": "N" 
			},
			{
				"x": 0.1733873522,
				"y": -0.8478076432,
				"z": 2.3418281717,
				"element": "N" 
			},
			{
				"x": -0.211454161,
				"y": -0.4344403681,
				"z": 1.1294519509,
				"element": "C" 
			},
			{
				"x": -0.9128292048,
				"y": 0.8126105805,
				"z": 1.1991663304,
				"element": "C" 
			},
			{
				"x": -0.910657998,
				"y": 1.1123026192,
				"z": 2.5622440319,
				"element": "C" 
			},
			{
				"x": -1.40639062,
				"y": 2.2117339575,
				"z": 3.2681950063,
				"element": "N" 
			},
			{
				"x": -1.5475841493,
				"y": 1.6717673548,
				"z": 0.1781123603,
				"element": "C" 
			},
			{
				"x": -2.5154712335,
				"y": 1.1790406243,
				"z": -0.7160475994,
				"element": "C" 
			},
			{
				"x": -3.1560840073,
				"y": 2.0197057549,
				"z": -1.6207839653,
				"element": "C" 
			},
			{
				"x": -2.8315101915,
				"y": 3.3735369763,
				"z": -1.6310930178,
				"element": "C" 
			},
			{
				"x": -3.4571209251,
				"y": 4.1913249501,
				"z": -2.5068421174,
				"element": "F" 
			},
			{
				"x": -1.8829914521,
				"y": 3.9031931181,
				"z": -0.7686288232,
				"element": "C" 
			},
			{
				"x": -1.2440824675,
				"y": 3.0438400917,
				"z": 0.1293848131,
				"element": "C" 
			},
			{
				"x": 0.1606847354,
				"y": -1.2563655784,
				"z": -0.03830257,
				"element": "C" 
			},
			{
				"x": -0.2376906778,
				"y": -0.8391480058,
				"z": -1.2518400784,
				"element": "N" 
			},
			{
				"x": 0.1059555939,
				"y": -1.5707019317,
				"z": -2.3171327458,
				"element": "C" 
			},
			{
				"x": 0.8521103769,
				"y": -2.7454593513,
				"z": -2.2437127811,
				"element": "C" 
			},
			{
				"x": 1.2626942168,
				"y": -3.1795916379,
				"z": -0.9807723722,
				"element": "C" 
			},
			{
				"x": 0.9172213613,
				"y": -2.4305538963,
				"z": 0.1365713395,
				"element": "C" 
			},
			{
				"x": -0.8518748274,
				"y": -0.4766203577,
				"z": 5.1410315528,
				"element": "H" 
			},
			{
				"x": 0.1904234436,
				"y": 0.9701450759,
				"z": 5.0442827691,
				"element": "H" 
			},
			{
				"x": 0.8744396122,
				"y": -0.6535931884,
				"z": 4.7518951205,
				"element": "H" 
			},
			{
				"x": -2.0304133949,
				"y": 1.955316816,
				"z": 4.0272256909,
				"element": "H" 
			},
			{
				"x": -1.8803922122,
				"y": 2.8556701957,
				"z": 2.6441892705,
				"element": "H" 
			},
			{
				"x": -2.7569559696,
				"y": 0.1230377319,
				"z": -0.7029422188,
				"element": "H" 
			},
			{
				"x": -3.9028359965,
				"y": 1.6446269055,
				"z": -2.3126592399,
				"element": "H" 
			},
			{
				"x": -1.6440998341,
				"y": 4.9604093631,
				"z": -0.8129920829,
				"element": "H" 
			},
			{
				"x": -0.4738673417,
				"y": 3.4419425498,
				"z": 0.7846691789,
				"element": "H" 
			},
			{
				"x": -0.2359675995,
				"y": -1.1949373837,
				"z": -3.2805980627,
				"element": "H" 
			},
			{
				"x": 1.1011786711,
				"y": -3.2989945769,
				"z": -3.1435385116,
				"element": "H" 
			},
			{
				"x": 1.8463866709,
				"y": -4.0894770814,
				"z": -0.8705824049,
				"element": "H" 
			},
			{
				"x": 1.2161106721,
				"y": -2.7242077781,
				"z": 1.1357014723,
				"element": "H" 
			}
		],
		 "valence_orbital": [ 
			{
				"type": "occ",
				"energy": -0.25797,
				"method": "rhf"
			},
			{
				"type": "occ",
				"energy": -0.25003,
				"method": "rhf"
			},
			{
				"type": "occ",
				"energy": -0.23676,
				"method": "rhf"
			},
			{
				"type": "occ",
				"energy": -0.2125,
				"method": "rhf"
			},
			{
				"type": "occ",
				"energy": -0.20136,
				"method": "rhf"
			},
			{
				"type": "unocc",
				"energy": -0.02707,
				"method": "rhf"
			},
			{
				"type": "unocc",
				"energy": -0.00974,
				"method": "rhf"
			},
			{
				"type": "unocc",
				"energy": -0.00219,
				"method": "rhf"
			},
			{
				"type": "unocc",
				"energy": 0.00576,
				"method": "rhf"
			},
			{
				"type": "unocc",
				"energy": 0.04443,
				"method": "rhf"
			}
		],
		"cosmo_sigma_profile": { 
			"-0.025": 0.0,
			"-0.024": 0.0,
			"-0.023": 0.0,
			"-0.022": 0.0,
			"-0.021": 0.0,
			"-0.02": 0.0,
			"-0.019": 0.0,
			"-0.018": 0.0,
			"-0.017": 0.0,
			"-0.016": 0.0,
			"-0.015": 0.0,
			"-0.014": 0.0808164946902,
			"-0.013": 1.2071230593,
			"-0.012": 1.53625930156,
			"-0.011": 2.58033076686,
			"-0.01": 2.89881687531,
			"-0.009": 2.18618277817,
			"-0.008": 2.18816917572,
			"-0.007": 7.31845661843,
			"-0.006": 19.6288841867,
			"-0.005": 22.1182273713,
			"-0.004": 23.9527032799,
			"-0.003": 21.5251965468,
			"-0.002": 14.3662254893,
			"-0.001": 13.8366969923,
			"0.0": 14.2676299271,
			"0.001": 19.8528321197,
			"0.002": 25.6921552087,
			"0.003": 34.421758778,
			"0.004": 28.9058348136,
			"0.005": 14.8457215203,
			"0.006": 5.71072278867,
			"0.007": 4.70843373293,
			"0.008": 4.07208679585,
			"0.009": 4.14481689592,
			"0.01": 3.01431589826,
			"0.011": 1.8751339356,
			"0.012": 2.393976131,
			"0.013": 2.06257111306,
			"0.014": 0.330537827016,
			"0.015": 0.0,
			"0.016": 0.0,
			"0.017": 0.0,
			"0.018": 0.0,
			"0.019": 0.0,
			"0.02": 0.0,
			"0.021": 0.0,
			"0.022": 0.0,
			"0.023": 0.0,
			"0.024": 0.0,
			"0.025": 0.0
		}
	}
}
