{
	 "smiles": "C(OC1=CC=CC=C1)C#CC#CCOC1=CC=CC=C1", 
	 "Tm": 355.15, 
	 "num_atms": 34, 
	 "gaussian": { 
		 "optdone": 1, 
		 "sigma_profile": "yes", 
		 "theory": "DFT", 
		 "functional": "B3LYP", 
		 "basiset": "6-31G**", 
		 "properties": { 
			 "R2extent": 9519.1285, 
			 "electric_dipole_moment_norm": 0.355351178414, 
			 "electric_quadrupole_moment_norm": 7.08765994599, 
			 "total_energy": -844.645511742, 
			 "HOMO_LUMO_gap": 0.19044, 
			 "cosmo_polarized_energy": -11.29, 
			 "cosmo_cavitation_energy": 41.26, 
			 "cosmo_dispersion_energy": -28.88, 
			 "cosmo_repulsion_energy": 2.29, 
			 "cosmo_total_nonelectrostatic_energy": 14.67, 
			 "SMD_solvation_energy": 7.97 
		},
		"coords": [
			{
				"x": -3.4980263364,
				"y": 0.0668755781,
				"z": -2.0542789327,
				"element": "C" 
			},
			{
				"x": -4.0381182018,
				"y": -0.705250443,
				"z": -0.9859531342,
				"element": "O" 
			},
			{
				"x": -3.7672904929,
				"y": -0.3289155825,
				"z": 0.3080203377,
				"element": "C" 
			},
			{
				"x": -4.4506436054,
				"y": -1.0559199863,
				"z": 1.2923613516,
				"element": "C" 
			},
			{
				"x": -4.2616089551,
				"y": -0.7508617231,
				"z": 2.6360870831,
				"element": "C" 
			},
			{
				"x": -3.393357314,
				"y": 0.2784478267,
				"z": 3.0152971182,
				"element": "C" 
			},
			{
				"x": -2.7139222533,
				"y": 0.9926218823,
				"z": 2.0310505699,
				"element": "C" 
			},
			{
				"x": -2.8908484265,
				"y": 0.6972730044,
				"z": 0.6751849934,
				"element": "C" 
			},
			{
				"x": -2.0759105083,
				"y": -0.1707256389,
				"z": -2.3069912329,
				"element": "C" 
			},
			{
				"x": -0.8982457451,
				"y": -0.3833321235,
				"z": -2.5233755936,
				"element": "C" 
			},
			{
				"x": 0.42418142,
				"y": -0.6132712489,
				"z": -2.771959719,
				"element": "C" 
			},
			{
				"x": 1.6004218102,
				"y": -0.8270622912,
				"z": -2.9948245345,
				"element": "C" 
			},
			{
				"x": 3.015933604,
				"y": -1.0701071314,
				"z": -3.2776585583,
				"element": "C" 
			},
			{
				"x": 3.8822835936,
				"y": -0.0156349282,
				"z": -2.8693408924,
				"element": "O" 
			},
			{
				"x": 4.1919977097,
				"y": 0.1103470807,
				"z": -1.5361014932,
				"element": "C" 
			},
			{
				"x": 5.1579219265,
				"y": 1.0821345713,
				"z": -1.2410445049,
				"element": "C" 
			},
			{
				"x": 5.5568586909,
				"y": 1.2857656957,
				"z": 0.0756824183,
				"element": "C" 
			},
			{
				"x": 5.001479618,
				"y": 0.5268500017,
				"z": 1.1114105729,
				"element": "C" 
			},
			{
				"x": 4.0381427553,
				"y": -0.4332333302,
				"z": 0.8103173995,
				"element": "C" 
			},
			{
				"x": 3.6239988933,
				"y": -0.6492655721,
				"z": -0.5082942828,
				"element": "C" 
			},
			{
				"x": -4.0799778503,
				"y": -0.2277888824,
				"z": -2.9339032982,
				"element": "H" 
			},
			{
				"x": -3.6769596373,
				"y": 1.1384442881,
				"z": -1.8844642279,
				"element": "H" 
			},
			{
				"x": -5.1229352434,
				"y": -1.8478635666,
				"z": 0.9788155449,
				"element": "H" 
			},
			{
				"x": -4.7973477029,
				"y": -1.3185532216,
				"z": 3.3916701814,
				"element": "H" 
			},
			{
				"x": -3.2474852429,
				"y": 0.5151130975,
				"z": 4.0646382089,
				"element": "H" 
			},
			{
				"x": -2.0295805541,
				"y": 1.7888335895,
				"z": 2.3101136749,
				"element": "H" 
			},
			{
				"x": -2.3299843201,
				"y": 1.2504162933,
				"z": -0.0686278427,
				"element": "H" 
			},
			{
				"x": 3.1641466992,
				"y": -1.1502613366,
				"z": -4.3597111657,
				"element": "H" 
			},
			{
				"x": 3.3315771968,
				"y": -2.0236328496,
				"z": -2.8301494844,
				"element": "H" 
			},
			{
				"x": 5.580243733,
				"y": 1.6580162826,
				"z": -2.0580295616,
				"element": "H" 
			},
			{
				"x": 6.3077495218,
				"y": 2.0398267556,
				"z": 0.294200718,
				"element": "H" 
			},
			{
				"x": 5.314469989,
				"y": 0.6871902383,
				"z": 2.1384122727,
				"element": "H" 
			},
			{
				"x": 3.5911413537,
				"y": -1.0243094723,
				"z": 1.6046540878,
				"element": "H" 
			},
			{
				"x": 2.8538938749,
				"y": -1.3836668573,
				"z": -0.7118080743,
				"element": "H" 
			}
		],
		 "valence_orbital": [ 
			{
				"type": "occ",
				"energy": -0.25316,
				"method": "rhf"
			},
			{
				"type": "occ",
				"energy": -0.24905,
				"method": "rhf"
			},
			{
				"type": "occ",
				"energy": -0.24584,
				"method": "rhf"
			},
			{
				"type": "occ",
				"energy": -0.2221,
				"method": "rhf"
			},
			{
				"type": "occ",
				"energy": -0.22142,
				"method": "rhf"
			},
			{
				"type": "unocc",
				"energy": -0.03098,
				"method": "rhf"
			},
			{
				"type": "unocc",
				"energy": -0.02898,
				"method": "rhf"
			},
			{
				"type": "unocc",
				"energy": 0.00018,
				"method": "rhf"
			},
			{
				"type": "unocc",
				"energy": 0.00112,
				"method": "rhf"
			},
			{
				"type": "unocc",
				"energy": 0.01317,
				"method": "rhf"
			}
		],
		"cosmo_sigma_profile": { 
			"-0.025": 0.0,
			"-0.024": 0.0,
			"-0.023": 0.0,
			"-0.022": 0.0,
			"-0.021": 0.0,
			"-0.02": 0.0,
			"-0.019": 0.0,
			"-0.018": 0.0,
			"-0.017": 0.0,
			"-0.016": 0.0,
			"-0.015": 0.0,
			"-0.014": 0.0,
			"-0.013": 0.0,
			"-0.012": 0.0,
			"-0.011": 0.0,
			"-0.01": 0.0,
			"-0.009": 2.20620874041,
			"-0.008": 9.49538392467,
			"-0.007": 11.1259444197,
			"-0.006": 19.6995627139,
			"-0.005": 26.08712876,
			"-0.004": 24.0799633961,
			"-0.003": 22.2883759112,
			"-0.002": 17.269720563,
			"-0.001": 14.8314811388,
			"0.0": 15.2524524307,
			"0.001": 16.2380595029,
			"0.002": 26.5848382188,
			"0.003": 44.033514474,
			"0.004": 34.6756287809,
			"0.005": 23.1512262802,
			"0.006": 16.3819771618,
			"0.007": 3.01153412925,
			"0.008": 2.53454301478,
			"0.009": 3.2659210899,
			"0.01": 0.751628826875,
			"0.011": 0.0,
			"0.012": 0.0,
			"0.013": 0.0,
			"0.014": 0.0,
			"0.015": 0.0,
			"0.016": 0.0,
			"0.017": 0.0,
			"0.018": 0.0,
			"0.019": 0.0,
			"0.02": 0.0,
			"0.021": 0.0,
			"0.022": 0.0,
			"0.023": 0.0,
			"0.024": 0.0,
			"0.025": 0.0
		}
	}
}
