{
	 "smiles": "CC(O)C1=NNC=C1", 
	 "Tm": 332.15, 
	 "num_atms": 16, 
	 "gaussian": { 
		 "optdone": 1, 
		 "sigma_profile": "yes", 
		 "theory": "DFT", 
		 "functional": "B3LYP", 
		 "basiset": "6-31G**", 
		 "properties": { 
			 "R2extent": 1534.3471, 
			 "electric_dipole_moment_norm": 4.06472027451, 
			 "electric_quadrupole_moment_norm": 11.2686733261, 
			 "total_energy": -380.052635441, 
			 "HOMO_LUMO_gap": 0.25551, 
			 "cosmo_polarized_energy": -11.1, 
			 "cosmo_cavitation_energy": 19.25, 
			 "cosmo_dispersion_energy": -14.66, 
			 "cosmo_repulsion_energy": 1.24, 
			 "cosmo_total_nonelectrostatic_energy": 5.83, 
			 "SMD_solvation_energy": 3.02 
		},
		"coords": [
			{
				"x": -1.1510033022,
				"y": 0.3737658487,
				"z": -0.9672525209,
				"element": "C" 
			},
			{
				"x": -1.1421966431,
				"y": -1.1511131214,
				"z": -0.8290911234,
				"element": "C" 
			},
			{
				"x": -2.0835142094,
				"y": -1.5253678224,
				"z": 0.1636048737,
				"element": "O" 
			},
			{
				"x": 0.2328521909,
				"y": -1.6900048751,
				"z": -0.5023036916,
				"element": "C" 
			},
			{
				"x": 0.3685190543,
				"y": -2.4999462312,
				"z": 0.5467021976,
				"element": "N" 
			},
			{
				"x": 1.6781432357,
				"y": -2.8269463632,
				"z": 0.5679204722,
				"element": "N" 
			},
			{
				"x": 2.3782633372,
				"y": -2.2476134712,
				"z": -0.4411820679,
				"element": "C" 
			},
			{
				"x": 1.4721564252,
				"y": -1.4982143318,
				"z": -1.1642455307,
				"element": "C" 
			},
			{
				"x": -0.4964786785,
				"y": 0.7036657797,
				"z": -1.7808961593,
				"element": "H" 
			},
			{
				"x": -2.1678658057,
				"y": 0.7146189885,
				"z": -1.1810341892,
				"element": "H" 
			},
			{
				"x": -0.8180224924,
				"y": 0.838543912,
				"z": -0.034715362,
				"element": "H" 
			},
			{
				"x": -1.448839483,
				"y": -1.5845855934,
				"z": -1.7974950059,
				"element": "H" 
			},
			{
				"x": -1.6453994298,
				"y": -2.1751936289,
				"z": 0.734617879,
				"element": "H" 
			},
			{
				"x": 2.0211179204,
				"y": -3.439746182,
				"z": 1.2904965346,
				"element": "H" 
			},
			{
				"x": 3.4401107355,
				"y": -2.4063191042,
				"z": -0.5623381581,
				"element": "H" 
			},
			{
				"x": 1.6754571451,
				"y": -0.900543804,
				"z": -2.0398881479,
				"element": "H" 
			}
		],
		 "valence_orbital": [ 
			{
				"type": "occ",
				"energy": -0.31715,
				"method": "rhf"
			},
			{
				"type": "occ",
				"energy": -0.30061,
				"method": "rhf"
			},
			{
				"type": "occ",
				"energy": -0.2639,
				"method": "rhf"
			},
			{
				"type": "occ",
				"energy": -0.25449,
				"method": "rhf"
			},
			{
				"type": "occ",
				"energy": -0.24168,
				"method": "rhf"
			},
			{
				"type": "unocc",
				"energy": 0.01383,
				"method": "rhf"
			},
			{
				"type": "unocc",
				"energy": 0.06315,
				"method": "rhf"
			},
			{
				"type": "unocc",
				"energy": 0.07355,
				"method": "rhf"
			},
			{
				"type": "unocc",
				"energy": 0.11005,
				"method": "rhf"
			},
			{
				"type": "unocc",
				"energy": 0.12611,
				"method": "rhf"
			}
		],
		"cosmo_sigma_profile": { 
			"-0.025": 0.0,
			"-0.024": 0.0,
			"-0.023": 0.0,
			"-0.022": 0.0,
			"-0.021": 0.0,
			"-0.02": 0.0,
			"-0.019": 0.0,
			"-0.018": 0.0,
			"-0.017": 0.366268547263,
			"-0.016": 2.03313152869,
			"-0.015": 1.11027353163,
			"-0.014": 1.2743526107,
			"-0.013": 0.84733222498,
			"-0.012": 0.78319627393,
			"-0.011": 1.3497227889,
			"-0.01": 1.19752225804,
			"-0.009": 2.97708879591,
			"-0.008": 2.97929833882,
			"-0.007": 3.68356931907,
			"-0.006": 5.07860102347,
			"-0.005": 4.76639859596,
			"-0.004": 8.65991973968,
			"-0.003": 12.8596431161,
			"-0.002": 10.1371209477,
			"-0.001": 12.0430950811,
			"0.0": 11.9620188869,
			"0.001": 11.716590683,
			"0.002": 7.47646784023,
			"0.003": 6.87853577638,
			"0.004": 8.6260886627,
			"0.005": 8.08392608043,
			"0.006": 5.59407549449,
			"0.007": 2.65336553498,
			"0.008": 2.71682523886,
			"0.009": 3.27550095956,
			"0.01": 3.10308004875,
			"0.011": 1.26408729706,
			"0.012": 1.33089029665,
			"0.013": 1.69648013619,
			"0.014": 1.76093865358,
			"0.015": 1.47078352218,
			"0.016": 0.00171809717388,
			"0.017": 0.0,
			"0.018": 0.0,
			"0.019": 0.0,
			"0.02": 0.0,
			"0.021": 0.0,
			"0.022": 0.0,
			"0.023": 0.0,
			"0.024": 0.0,
			"0.025": 0.0
		}
	}
}
