{
	 "smiles": "BrC1=CC2=C(C=C1)C1=CC=CC=C1C2", 
	 "Tm": 386.15, 
	 "num_atms": 23, 
	 "gaussian": { 
		 "optdone": 1, 
		 "sigma_profile": "yes", 
		 "theory": "DFT", 
		 "functional": "B3LYP", 
		 "basiset": "6-31G**", 
		 "properties": { 
			 "R2extent": 8386.6047, 
			 "electric_dipole_moment_norm": 2.11160974377, 
			 "electric_quadrupole_moment_norm": 11.5700215631, 
			 "total_energy": -3072.23013058, 
			 "HOMO_LUMO_gap": 0.17855, 
			 "cosmo_polarized_energy": -5.72, 
			 "cosmo_cavitation_energy": 28.9, 
			 "cosmo_dispersion_energy": -21.9, 
			 "cosmo_repulsion_energy": 1.69, 
			 "cosmo_total_nonelectrostatic_energy": 8.69, 
			 "SMD_solvation_energy": 2.98 
		},
		"coords": [
			{
				"x": 0.4755228571,
				"y": -5.2489298186,
				"z": -3.7976515301,
				"element": "Br" 
			},
			{
				"x": -0.1586542648,
				"y": -3.6569526954,
				"z": -2.945013916,
				"element": "C" 
			},
			{
				"x": 0.4775444771,
				"y": -3.210474845,
				"z": -1.7838452373,
				"element": "C" 
			},
			{
				"x": 0.0005558169,
				"y": -2.0524922646,
				"z": -1.1815387906,
				"element": "C" 
			},
			{
				"x": -1.0939426153,
				"y": -1.349878928,
				"z": -1.7279722611,
				"element": "C" 
			},
			{
				"x": -1.7158363968,
				"y": -1.813088961,
				"z": -2.8894494204,
				"element": "C" 
			},
			{
				"x": -1.2435907314,
				"y": -2.9754537181,
				"z": -3.5014726229,
				"element": "C" 
			},
			{
				"x": -1.3681899539,
				"y": -0.1796847457,
				"z": -0.8840019169,
				"element": "C" 
			},
			{
				"x": -2.3362370483,
				"y": 0.8216356546,
				"z": -0.9924152488,
				"element": "C" 
			},
			{
				"x": -2.3687151314,
				"y": 1.8335472154,
				"z": -0.0308865569,
				"element": "C" 
			},
			{
				"x": -1.4486914775,
				"y": 1.846298651,
				"z": 1.0236383057,
				"element": "C" 
			},
			{
				"x": -0.4781546362,
				"y": 0.8439496906,
				"z": 1.1339278563,
				"element": "C" 
			},
			{
				"x": -0.4409885517,
				"y": -0.1662630289,
				"z": 0.179350029,
				"element": "C" 
			},
			{
				"x": 0.4953102139,
				"y": -1.3533097414,
				"z": 0.0686479213,
				"element": "C" 
			},
			{
				"x": 1.3181178974,
				"y": -3.761023412,
				"z": -1.3749881989,
				"element": "H" 
			},
			{
				"x": -2.5595817107,
				"y": -1.2833022454,
				"z": -3.3223939005,
				"element": "H" 
			},
			{
				"x": -1.7115824698,
				"y": -3.3524928186,
				"z": -4.403581845,
				"element": "H" 
			},
			{
				"x": -3.0535222052,
				"y": 0.817692264,
				"z": -1.8085428815,
				"element": "H" 
			},
			{
				"x": -3.1156895546,
				"y": 2.6190005137,
				"z": -0.1019228322,
				"element": "H" 
			},
			{
				"x": -1.48823404,
				"y": 2.6410466768,
				"z": 1.7629161498,
				"element": "H" 
			},
			{
				"x": 0.2335436441,
				"y": 0.859676526,
				"z": 1.95547669,
				"element": "H" 
			},
			{
				"x": 1.544678437,
				"y": -1.0436374706,
				"z": -0.0241844158,
				"element": "H" 
			},
			{
				"x": 0.440737444,
				"y": -2.0052624991,
				"z": 0.9505046229,
				"element": "H" 
			}
		],
		 "valence_orbital": [ 
			{
				"type": "occ",
				"energy": -0.28409,
				"method": "rhf"
			},
			{
				"type": "occ",
				"energy": -0.26892,
				"method": "rhf"
			},
			{
				"type": "occ",
				"energy": -0.2591,
				"method": "rhf"
			},
			{
				"type": "occ",
				"energy": -0.24822,
				"method": "rhf"
			},
			{
				"type": "occ",
				"energy": -0.21573,
				"method": "rhf"
			},
			{
				"type": "unocc",
				"energy": -0.03718,
				"method": "rhf"
			},
			{
				"type": "unocc",
				"energy": -0.01876,
				"method": "rhf"
			},
			{
				"type": "unocc",
				"energy": 0.00238,
				"method": "rhf"
			},
			{
				"type": "unocc",
				"energy": 0.01008,
				"method": "rhf"
			},
			{
				"type": "unocc",
				"energy": 0.03299,
				"method": "rhf"
			}
		],
		"cosmo_sigma_profile": { 
			"-0.025": 0.0,
			"-0.024": 0.0,
			"-0.023": 0.0,
			"-0.022": 0.0,
			"-0.021": 0.0,
			"-0.02": 0.0,
			"-0.019": 0.0,
			"-0.018": 0.0,
			"-0.017": 0.0,
			"-0.016": 0.0,
			"-0.015": 0.0,
			"-0.014": 0.0,
			"-0.013": 0.0,
			"-0.012": 0.0,
			"-0.011": 0.0,
			"-0.01": 0.0,
			"-0.009": 0.0,
			"-0.008": 0.0,
			"-0.007": 2.43984613225,
			"-0.006": 13.4087623038,
			"-0.005": 18.4379698371,
			"-0.004": 20.9053388032,
			"-0.003": 20.7011809088,
			"-0.002": 16.0984758872,
			"-0.001": 13.4538074615,
			"0.0": 13.9526026171,
			"0.001": 15.4802174648,
			"0.002": 21.9240840028,
			"0.003": 26.0918536051,
			"0.004": 27.7857607903,
			"0.005": 18.7508328765,
			"0.006": 6.04666754985,
			"0.007": 0.0592040056587,
			"0.008": 0.0,
			"0.009": 0.0,
			"0.01": 0.0,
			"0.011": 0.0,
			"0.012": 0.0,
			"0.013": 0.0,
			"0.014": 0.0,
			"0.015": 0.0,
			"0.016": 0.0,
			"0.017": 0.0,
			"0.018": 0.0,
			"0.019": 0.0,
			"0.02": 0.0,
			"0.021": 0.0,
			"0.022": 0.0,
			"0.023": 0.0,
			"0.024": 0.0,
			"0.025": 0.0
		}
	}
}
