{
	 "smiles": "COC1=C(OC)C(OC1=O)=CCN=[N+]=[N-]", 
	 "Tm": 329.15, 
	 "num_atms": 24, 
	 "gaussian": { 
		 "optdone": 1, 
		 "sigma_profile": "yes", 
		 "theory": "DFT", 
		 "functional": "B3LYP", 
		 "basiset": "6-31G**", 
		 "properties": { 
			 "R2extent": 4868.49, 
			 "electric_dipole_moment_norm": 4.75499640904, 
			 "electric_quadrupole_moment_norm": 11.6469290425, 
			 "total_energy": -775.295171482, 
			 "HOMO_LUMO_gap": 0.16329, 
			 "cosmo_polarized_energy": -12.12, 
			 "cosmo_cavitation_energy": 30.92, 
			 "cosmo_dispersion_energy": -21.81, 
			 "cosmo_repulsion_energy": 1.76, 
			 "cosmo_total_nonelectrostatic_energy": 10.87, 
			 "SMD_solvation_energy": 4.9 
		},
		"coords": [
			{
				"x": -2.8421496493,
				"y": 1.6212709306,
				"z": 0.1560471727,
				"element": "C" 
			},
			{
				"x": -2.1099143215,
				"y": 0.7751684509,
				"z": 1.0617708699,
				"element": "O" 
			},
			{
				"x": -0.8242476127,
				"y": 0.5035925983,
				"z": 0.7253164916,
				"element": "C" 
			},
			{
				"x": -0.1703857656,
				"y": -0.6883756825,
				"z": 0.8181199276,
				"element": "C" 
			},
			{
				"x": -0.5387599194,
				"y": -1.9211305276,
				"z": 1.1836152317,
				"element": "O" 
			},
			{
				"x": -1.9318314431,
				"y": -2.1664403129,
				"z": 1.4305798686,
				"element": "C" 
			},
			{
				"x": 1.223398739,
				"y": -0.4657534782,
				"z": 0.4361738585,
				"element": "C" 
			},
			{
				"x": 1.3812472867,
				"y": 0.8713114413,
				"z": 0.1182878066,
				"element": "O" 
			},
			{
				"x": 0.1555256961,
				"y": 1.5166206187,
				"z": 0.2957423816,
				"element": "C" 
			},
			{
				"x": 0.0324369652,
				"y": 2.7011232031,
				"z": 0.1016397876,
				"element": "O" 
			},
			{
				"x": 2.2253535438,
				"y": -1.3491705478,
				"z": 0.3715014194,
				"element": "C" 
			},
			{
				"x": 3.6255920511,
				"y": -1.002208084,
				"z": -0.0240475916,
				"element": "C" 
			},
			{
				"x": 4.0968938136,
				"y": -2.0044660639,
				"z": -1.0170511956,
				"element": "N" 
			},
			{
				"x": 5.2789150362,
				"y": -1.8931663673,
				"z": -1.3579903188,
				"element": "N" 
			},
			{
				"x": 6.351767407,
				"y": -1.896756881,
				"z": -1.7520824393,
				"element": "N" 
			},
			{
				"x": -2.9335862816,
				"y": 1.144029481,
				"z": -0.8273272645,
				"element": "H" 
			},
			{
				"x": -2.3569584133,
				"y": 2.5930190777,
				"z": 0.0512419434,
				"element": "H" 
			},
			{
				"x": -3.8322656524,
				"y": 1.7370287676,
				"z": 0.5987079543,
				"element": "H" 
			},
			{
				"x": -2.3094626295,
				"y": -1.5169451065,
				"z": 2.2230521484,
				"element": "H" 
			},
			{
				"x": -2.5187060876,
				"y": -2.0084223773,
				"z": 0.5207525867,
				"element": "H" 
			},
			{
				"x": -1.9927095052,
				"y": -3.2117192589,
				"z": 1.7339844351,
				"element": "H" 
			},
			{
				"x": 2.008409157,
				"y": -2.3792607731,
				"z": 0.6330307973,
				"element": "H" 
			},
			{
				"x": 4.2812288596,
				"y": -1.0279232736,
				"z": 0.8600315272,
				"element": "H" 
			},
			{
				"x": 3.6678087259,
				"y": 0.0097741651,
				"z": -0.4415973986,
				"element": "H" 
			}
		],
		 "valence_orbital": [ 
			{
				"type": "occ",
				"energy": -0.3067,
				"method": "rhf"
			},
			{
				"type": "occ",
				"energy": -0.2773,
				"method": "rhf"
			},
			{
				"type": "occ",
				"energy": -0.26674,
				"method": "rhf"
			},
			{
				"type": "occ",
				"energy": -0.255,
				"method": "rhf"
			},
			{
				"type": "occ",
				"energy": -0.22966,
				"method": "rhf"
			},
			{
				"type": "unocc",
				"energy": -0.06637,
				"method": "rhf"
			},
			{
				"type": "unocc",
				"energy": -0.02892,
				"method": "rhf"
			},
			{
				"type": "unocc",
				"energy": 0.01098,
				"method": "rhf"
			},
			{
				"type": "unocc",
				"energy": 0.04796,
				"method": "rhf"
			},
			{
				"type": "unocc",
				"energy": 0.06385,
				"method": "rhf"
			}
		],
		"cosmo_sigma_profile": { 
			"-0.025": 0.0,
			"-0.024": 0.0,
			"-0.023": 0.0,
			"-0.022": 0.0,
			"-0.021": 0.0,
			"-0.02": 0.0,
			"-0.019": 0.0,
			"-0.018": 0.0,
			"-0.017": 0.0,
			"-0.016": 0.0,
			"-0.015": 0.0,
			"-0.014": 0.0,
			"-0.013": 0.0,
			"-0.012": 0.0,
			"-0.011": 0.0,
			"-0.01": 0.0,
			"-0.009": 0.304825320183,
			"-0.008": 3.59323470096,
			"-0.007": 8.7401817554,
			"-0.006": 14.3570029008,
			"-0.005": 19.2707912158,
			"-0.004": 25.8078257116,
			"-0.003": 25.3004481579,
			"-0.002": 17.9799848969,
			"-0.001": 18.7424061362,
			"0.0": 14.1424010743,
			"0.001": 13.4128139516,
			"0.002": 12.7243622586,
			"0.003": 11.3210905811,
			"0.004": 9.36775361715,
			"0.005": 10.0783787043,
			"0.006": 10.051624923,
			"0.007": 9.20891748398,
			"0.008": 7.63961576577,
			"0.009": 4.59014659186,
			"0.01": 4.41951738157,
			"0.011": 4.65314615702,
			"0.012": 1.96336310777,
			"0.013": 0.105988843123,
			"0.014": 0.0,
			"0.015": 0.0,
			"0.016": 0.0,
			"0.017": 0.0,
			"0.018": 0.0,
			"0.019": 0.0,
			"0.02": 0.0,
			"0.021": 0.0,
			"0.022": 0.0,
			"0.023": 0.0,
			"0.024": 0.0,
			"0.025": 0.0
		}
	}
}
