{
	 "smiles": "CC1=CC(=CC(C)=C1F)C(O)=O", 
	 "Tm": 439.15, 
	 "num_atms": 21, 
	 "gaussian": { 
		 "optdone": 1, 
		 "sigma_profile": "yes", 
		 "theory": "DFT", 
		 "functional": "B3LYP", 
		 "basiset": "6-31G**", 
		 "properties": { 
			 "R2extent": 2405.818, 
			 "electric_dipole_moment_norm": 1.54653853816, 
			 "electric_quadrupole_moment_norm": 7.88095630492, 
			 "total_energy": -598.701583663, 
			 "HOMO_LUMO_gap": 0.20309, 
			 "cosmo_polarized_energy": -8.48, 
			 "cosmo_cavitation_energy": 25.65, 
			 "cosmo_dispersion_energy": -18.57, 
			 "cosmo_repulsion_energy": 1.47, 
			 "cosmo_total_nonelectrostatic_energy": 8.55, 
			 "SMD_solvation_energy": 6.17 
		},
		"coords": [
			{
				"x": -2.2490380431,
				"y": -1.414067473,
				"z": -1.7611330428,
				"element": "C" 
			},
			{
				"x": -1.0906246706,
				"y": -0.6845264038,
				"z": -1.1305929651,
				"element": "C" 
			},
			{
				"x": -0.9548454111,
				"y": 0.7029282525,
				"z": -1.1700758499,
				"element": "C" 
			},
			{
				"x": 0.139622212,
				"y": 1.3388502817,
				"z": -0.5695009459,
				"element": "C" 
			},
			{
				"x": 1.1201010117,
				"y": 0.5804524866,
				"z": 0.084249136,
				"element": "C" 
			},
			{
				"x": 1.0232688903,
				"y": -0.8110826958,
				"z": 0.1473843625,
				"element": "C" 
			},
			{
				"x": 2.0497948696,
				"y": -1.6725650507,
				"z": 0.8374911861,
				"element": "C" 
			},
			{
				"x": -0.0867858345,
				"y": -1.3942952217,
				"z": -0.4671126407,
				"element": "C" 
			},
			{
				"x": -0.1978339666,
				"y": -2.7434325387,
				"z": -0.4160759997,
				"element": "F" 
			},
			{
				"x": 0.2125841417,
				"y": 2.818552733,
				"z": -0.6547402345,
				"element": "C" 
			},
			{
				"x": 1.3091892512,
				"y": 3.33604573,
				"z": -0.0421577664,
				"element": "O" 
			},
			{
				"x": -0.606430964,
				"y": 3.5273201961,
				"z": -1.2077332251,
				"element": "O" 
			},
			{
				"x": -2.9366878668,
				"y": -0.7108473016,
				"z": -2.2362623498,
				"element": "H" 
			},
			{
				"x": -1.9054365033,
				"y": -2.1246685409,
				"z": -2.5204728627,
				"element": "H" 
			},
			{
				"x": -2.8079281801,
				"y": -1.9912624345,
				"z": -1.0167528483,
				"element": "H" 
			},
			{
				"x": -1.6996029316,
				"y": 1.3138668496,
				"z": -1.6697223373,
				"element": "H" 
			},
			{
				"x": 1.9642804944,
				"y": 1.0798713218,
				"z": 0.5467157102,
				"element": "H" 
			},
			{
				"x": 1.5987232893,
				"y": -2.2595137484,
				"z": 1.6446963698,
				"element": "H" 
			},
			{
				"x": 2.8466585068,
				"y": -1.0592216269,
				"z": 1.2644396105,
				"element": "H" 
			},
			{
				"x": 2.5025125489,
				"y": -2.3867952727,
				"z": 0.1413724866,
				"element": "H" 
			},
			{
				"x": 1.2458791558,
				"y": 4.2973904574,
				"z": -0.1640157938,
				"element": "H" 
			}
		],
		 "valence_orbital": [ 
			{
				"type": "occ",
				"energy": -0.34445,
				"method": "rhf"
			},
			{
				"type": "occ",
				"energy": -0.31598,
				"method": "rhf"
			},
			{
				"type": "occ",
				"energy": -0.27491,
				"method": "rhf"
			},
			{
				"type": "occ",
				"energy": -0.2535,
				"method": "rhf"
			},
			{
				"type": "occ",
				"energy": -0.24719,
				"method": "rhf"
			},
			{
				"type": "unocc",
				"energy": -0.0441,
				"method": "rhf"
			},
			{
				"type": "unocc",
				"energy": -0.00924,
				"method": "rhf"
			},
			{
				"type": "unocc",
				"energy": 0.05631,
				"method": "rhf"
			},
			{
				"type": "unocc",
				"energy": 0.07865,
				"method": "rhf"
			},
			{
				"type": "unocc",
				"energy": 0.10247,
				"method": "rhf"
			}
		],
		"cosmo_sigma_profile": { 
			"-0.025": 0.0,
			"-0.024": 0.0,
			"-0.023": 0.0,
			"-0.022": 0.0,
			"-0.021": 0.0,
			"-0.02": 0.0,
			"-0.019": 0.0416834429942,
			"-0.018": 0.666098265798,
			"-0.017": 0.770338927683,
			"-0.016": 0.805385241124,
			"-0.015": 1.13116516476,
			"-0.014": 0.531552468864,
			"-0.013": 0.445216355451,
			"-0.012": 0.538811788529,
			"-0.011": 0.998213009692,
			"-0.01": 0.907486498509,
			"-0.009": 0.269462342591,
			"-0.008": 0.352914680451,
			"-0.007": 1.35683983425,
			"-0.006": 5.08322818017,
			"-0.005": 10.3500059386,
			"-0.004": 13.455805375,
			"-0.003": 14.729139719,
			"-0.002": 18.444512986,
			"-0.001": 24.0162415722,
			"0.0": 24.1826655938,
			"0.001": 16.5639116863,
			"0.002": 16.8129916975,
			"0.003": 16.1661037265,
			"0.004": 11.0611666635,
			"0.005": 3.66222143481,
			"0.006": 2.97931196675,
			"0.007": 2.94918493702,
			"0.008": 2.43451152132,
			"0.009": 1.69344350132,
			"0.01": 1.93052472486,
			"0.011": 3.13971185483,
			"0.012": 4.79258802061,
			"0.013": 0.332580631367,
			"0.014": 0.0,
			"0.015": 0.0,
			"0.016": 0.0,
			"0.017": 0.0,
			"0.018": 0.0,
			"0.019": 0.0,
			"0.02": 0.0,
			"0.021": 0.0,
			"0.022": 0.0,
			"0.023": 0.0,
			"0.024": 0.0,
			"0.025": 0.0
		}
	}
}
