{
	 "smiles": "COC1=C(N)C=C(C=C1)S(=O)(=O)NC1=C(Cl)C=CC=C1", 
	 "Tm": 367.15, 
	 "num_atms": 33, 
	 "gaussian": { 
		 "optdone": 1, 
		 "sigma_profile": "yes", 
		 "theory": "DFT", 
		 "functional": "B3LYP", 
		 "basiset": "6-31G**", 
		 "properties": { 
			 "R2extent": 8637.1901, 
			 "electric_dipole_moment_norm": 6.57109313509, 
			 "electric_quadrupole_moment_norm": 23.4733094691, 
			 "total_energy": -1696.69523768, 
			 "HOMO_LUMO_gap": 0.18425, 
			 "cosmo_polarized_energy": -18.37, 
			 "cosmo_cavitation_energy": 40.06, 
			 "cosmo_dispersion_energy": -29.03, 
			 "cosmo_repulsion_energy": 2.21, 
			 "cosmo_total_nonelectrostatic_energy": 13.23, 
			 "SMD_solvation_energy": 6.33 
		},
		"coords": [
			{
				"x": 3.6678318851,
				"y": 1.0362636988,
				"z": -3.4971275919,
				"element": "C" 
			},
			{
				"x": 2.5206134227,
				"y": 1.5981768269,
				"z": -2.8749383453,
				"element": "O" 
			},
			{
				"x": 2.1047524616,
				"y": 1.0764957927,
				"z": -1.68241933,
				"element": "C" 
			},
			{
				"x": 0.9650444929,
				"y": 1.720124941,
				"z": -1.1339552626,
				"element": "C" 
			},
			{
				"x": 0.3522994207,
				"y": 2.7386086643,
				"z": -1.8501429211,
				"element": "N" 
			},
			{
				"x": 0.4734517853,
				"y": 1.2661284278,
				"z": 0.0923379059,
				"element": "C" 
			},
			{
				"x": 1.0975813876,
				"y": 0.1978911708,
				"z": 0.74339084,
				"element": "C" 
			},
			{
				"x": 2.2184511061,
				"y": -0.4314147894,
				"z": 0.2105749621,
				"element": "C" 
			},
			{
				"x": 2.7175681432,
				"y": 0.0165063083,
				"z": -1.0150200322,
				"element": "C" 
			},
			{
				"x": 0.4729509992,
				"y": -0.3097125095,
				"z": 2.3381352112,
				"element": "S" 
			},
			{
				"x": -0.7167175676,
				"y": 0.4932157809,
				"z": 2.627984359,
				"element": "O" 
			},
			{
				"x": 1.5856892048,
				"y": -0.4071746515,
				"z": 3.2860136142,
				"element": "O" 
			},
			{
				"x": 0.0481800896,
				"y": -1.9459534321,
				"z": 2.1011594908,
				"element": "N" 
			},
			{
				"x": -1.2149792077,
				"y": -2.395963336,
				"z": 1.6762881567,
				"element": "C" 
			},
			{
				"x": -1.7352323257,
				"y": -3.606978745,
				"z": 2.1692055322,
				"element": "C" 
			},
			{
				"x": -0.8225620239,
				"y": -4.523490083,
				"z": 3.3693050105,
				"element": "Cl" 
			},
			{
				"x": -2.9557246969,
				"y": -4.1115200575,
				"z": 1.7284263733,
				"element": "C" 
			},
			{
				"x": -3.6962987412,
				"y": -3.4039304743,
				"z": 0.7836586918,
				"element": "C" 
			},
			{
				"x": -3.1969706094,
				"y": -2.2006989771,
				"z": 0.2833291916,
				"element": "C" 
			},
			{
				"x": -1.9702947919,
				"y": -1.7057083523,
				"z": 0.7152835397,
				"element": "C" 
			},
			{
				"x": 3.5119824859,
				"y": -0.0215966794,
				"z": -3.7412608165,
				"element": "H" 
			},
			{
				"x": 4.5571040793,
				"y": 1.1342786322,
				"z": -2.8622472025,
				"element": "H" 
			},
			{
				"x": 3.8178188037,
				"y": 1.6001062562,
				"z": -4.4186958959,
				"element": "H" 
			},
			{
				"x": -0.187648353,
				"y": 3.3945518555,
				"z": -1.304488711,
				"element": "H" 
			},
			{
				"x": 0.9395139903,
				"y": 3.174224772,
				"z": -2.5470662281,
				"element": "H" 
			},
			{
				"x": -0.3898361375,
				"y": 1.7398017066,
				"z": 0.5478705892,
				"element": "H" 
			},
			{
				"x": 2.6978006395,
				"y": -1.250494394,
				"z": 0.7334692319,
				"element": "H" 
			},
			{
				"x": 3.5905060558,
				"y": -0.4648577593,
				"z": -1.4392001548,
				"element": "H" 
			},
			{
				"x": 0.4781864248,
				"y": -2.4968982838,
				"z": 2.8387741583,
				"element": "H" 
			},
			{
				"x": -3.316562399,
				"y": -5.0502608185,
				"z": 2.1340987077,
				"element": "H" 
			},
			{
				"x": -4.6508175263,
				"y": -3.7925743499,
				"z": 0.4440221344,
				"element": "H" 
			},
			{
				"x": -3.7613333086,
				"y": -1.6412517665,
				"z": -0.4563833689,
				"element": "H" 
			},
			{
				"x": -1.5892491895,
				"y": -0.777795375,
				"z": 0.3074181603,
				"element": "H" 
			}
		],
		 "valence_orbital": [ 
			{
				"type": "occ",
				"energy": -0.29868,
				"method": "rhf"
			},
			{
				"type": "occ",
				"energy": -0.2543,
				"method": "rhf"
			},
			{
				"type": "occ",
				"energy": -0.25118,
				"method": "rhf"
			},
			{
				"type": "occ",
				"energy": -0.22637,
				"method": "rhf"
			},
			{
				"type": "occ",
				"energy": -0.20943,
				"method": "rhf"
			},
			{
				"type": "unocc",
				"energy": -0.02518,
				"method": "rhf"
			},
			{
				"type": "unocc",
				"energy": -0.01111,
				"method": "rhf"
			},
			{
				"type": "unocc",
				"energy": -0.00879,
				"method": "rhf"
			},
			{
				"type": "unocc",
				"energy": -0.00465,
				"method": "rhf"
			},
			{
				"type": "unocc",
				"energy": 0.02411,
				"method": "rhf"
			}
		],
		"cosmo_sigma_profile": { 
			"-0.025": 0.0,
			"-0.024": 0.0,
			"-0.023": 0.0,
			"-0.022": 0.0,
			"-0.021": 0.0,
			"-0.02": 0.0,
			"-0.019": 0.0,
			"-0.018": 0.0,
			"-0.017": 0.0,
			"-0.016": 0.0,
			"-0.015": 0.0,
			"-0.014": 0.00160439438125,
			"-0.013": 1.11912710248,
			"-0.012": 1.596262625,
			"-0.011": 2.83160753411,
			"-0.01": 3.42206049869,
			"-0.009": 3.83776792338,
			"-0.008": 4.33617543558,
			"-0.007": 10.9606046595,
			"-0.006": 20.6293762795,
			"-0.005": 23.9588214551,
			"-0.004": 21.6525254088,
			"-0.003": 20.4557154588,
			"-0.002": 16.8102499856,
			"-0.001": 16.1160247435,
			"0.0": 20.8699582836,
			"0.001": 21.6726470064,
			"0.002": 25.8152525212,
			"0.003": 29.8278290082,
			"0.004": 26.7013370916,
			"0.005": 9.26898268277,
			"0.006": 6.31683514874,
			"0.007": 4.18638307073,
			"0.008": 4.75838743778,
			"0.009": 5.07364083037,
			"0.01": 9.79293985819,
			"0.011": 8.11002179521,
			"0.012": 1.55414759501,
			"0.013": 0.673452410761,
			"0.014": 0.124131540984,
			"0.015": 0.0,
			"0.016": 0.0,
			"0.017": 0.0,
			"0.018": 0.0,
			"0.019": 0.0,
			"0.02": 0.0,
			"0.021": 0.0,
			"0.022": 0.0,
			"0.023": 0.0,
			"0.024": 0.0,
			"0.025": 0.0
		}
	}
}
