{
	 "smiles": "CCCCCCCCN", 
	 "Tm": 272.65, 
	 "num_atms": 28, 
	 "gaussian": { 
		 "optdone": 1, 
		 "sigma_profile": "yes", 
		 "theory": "DFT", 
		 "functional": "B3LYP", 
		 "basiset": "6-31G**", 
		 "properties": { 
			 "R2extent": 2687.4111, 
			 "electric_dipole_moment_norm": 1.42473363826, 
			 "electric_quadrupole_moment_norm": 7.46339595962, 
			 "total_energy": -371.071661076, 
			 "HOMO_LUMO_gap": 0.29902, 
			 "cosmo_polarized_energy": -5.02, 
			 "cosmo_cavitation_energy": 28.46, 
			 "cosmo_dispersion_energy": -20.31, 
			 "cosmo_repulsion_energy": 1.72, 
			 "cosmo_total_nonelectrostatic_energy": 9.87, 
			 "SMD_solvation_energy": 2.79 
		},
		"coords": [
			{
				"x": 4.0773055968,
				"y": -0.6034102071,
				"z": 0.8187946337,
				"element": "C" 
			},
			{
				"x": 3.7774946914,
				"y": 0.9002262135,
				"z": 0.7870512407,
				"element": "C" 
			},
			{
				"x": 2.2943342771,
				"y": 1.2585257602,
				"z": 0.9809123911,
				"element": "C" 
			},
			{
				"x": 1.3754768923,
				"y": 0.7910110447,
				"z": -0.1583957879,
				"element": "C" 
			},
			{
				"x": -0.0817140204,
				"y": 1.2717130232,
				"z": -0.0433461904,
				"element": "C" 
			},
			{
				"x": -0.8579112752,
				"y": 0.6780146968,
				"z": 1.1423271273,
				"element": "C" 
			},
			{
				"x": -2.3183951049,
				"y": 1.1497207509,
				"z": 1.2455100935,
				"element": "C" 
			},
			{
				"x": -3.2525360497,
				"y": 0.6688664456,
				"z": 0.1165962812,
				"element": "C" 
			},
			{
				"x": -3.4346472218,
				"y": -0.7795525152,
				"z": -0.017362903,
				"element": "N" 
			},
			{
				"x": 3.7386518905,
				"y": -1.0528488467,
				"z": 1.7598499218,
				"element": "H" 
			},
			{
				"x": 3.5822480897,
				"y": -1.1369055558,
				"z": 0.0009258299,
				"element": "H" 
			},
			{
				"x": 5.1521450467,
				"y": -0.7927762909,
				"z": 0.7294262685,
				"element": "H" 
			},
			{
				"x": 4.3631871488,
				"y": 1.3954642771,
				"z": 1.5721637842,
				"element": "H" 
			},
			{
				"x": 4.1288902905,
				"y": 1.3226122969,
				"z": -0.1645745662,
				"element": "H" 
			},
			{
				"x": 1.9511632271,
				"y": 0.8403753133,
				"z": 1.9367403411,
				"element": "H" 
			},
			{
				"x": 2.2046030663,
				"y": 2.3496578788,
				"z": 1.0767308222,
				"element": "H" 
			},
			{
				"x": 1.7897795705,
				"y": 1.1518499744,
				"z": -1.1100901632,
				"element": "H" 
			},
			{
				"x": 1.3847719025,
				"y": -0.3054702252,
				"z": -0.2212069735,
				"element": "H" 
			},
			{
				"x": -0.096619621,
				"y": 2.3688450462,
				"z": 0.0308730843,
				"element": "H" 
			},
			{
				"x": -0.6009962995,
				"y": 1.0270753662,
				"z": -0.9787705847,
				"element": "H" 
			},
			{
				"x": -0.3460241479,
				"y": 0.9310961898,
				"z": 2.0782993407,
				"element": "H" 
			},
			{
				"x": -0.8328080354,
				"y": -0.4198689317,
				"z": 1.0789662397,
				"element": "H" 
			},
			{
				"x": -2.3421955322,
				"y": 2.2485273523,
				"z": 1.2780911792,
				"element": "H" 
			},
			{
				"x": -2.7346022742,
				"y": 0.8091529977,
				"z": 2.2045021574,
				"element": "H" 
			},
			{
				"x": -2.9018883127,
				"y": 1.0479311739,
				"z": -0.8508230894,
				"element": "H" 
			},
			{
				"x": -4.2430106841,
				"y": 1.1147646829,
				"z": 0.27092925,
				"element": "H" 
			},
			{
				"x": -3.7363500641,
				"y": -1.1738201014,
				"z": 0.8716842275,
				"element": "H" 
			},
			{
				"x": -2.5488530469,
				"y": -1.2273778104,
				"z": -0.2392039557,
				"element": "H" 
			}
		],
		 "valence_orbital": [ 
			{
				"type": "occ",
				"energy": -0.32607,
				"method": "rhf"
			},
			{
				"type": "occ",
				"energy": -0.31389,
				"method": "rhf"
			},
			{
				"type": "occ",
				"energy": -0.30581,
				"method": "rhf"
			},
			{
				"type": "occ",
				"energy": -0.30338,
				"method": "rhf"
			},
			{
				"type": "occ",
				"energy": -0.22764,
				"method": "rhf"
			},
			{
				"type": "unocc",
				"energy": 0.07138,
				"method": "rhf"
			},
			{
				"type": "unocc",
				"energy": 0.09241,
				"method": "rhf"
			},
			{
				"type": "unocc",
				"energy": 0.10776,
				"method": "rhf"
			},
			{
				"type": "unocc",
				"energy": 0.11135,
				"method": "rhf"
			},
			{
				"type": "unocc",
				"energy": 0.12531,
				"method": "rhf"
			}
		],
		"cosmo_sigma_profile": { 
			"-0.025": 0.0,
			"-0.024": 0.0,
			"-0.023": 0.0,
			"-0.022": 0.0,
			"-0.021": 0.0,
			"-0.02": 0.0,
			"-0.019": 0.0,
			"-0.018": 0.0,
			"-0.017": 0.0,
			"-0.016": 0.0,
			"-0.015": 0.0,
			"-0.014": 0.0,
			"-0.013": 0.0,
			"-0.012": 0.0,
			"-0.011": 0.0,
			"-0.01": 0.0,
			"-0.009": 1.05557813327,
			"-0.008": 2.79047607768,
			"-0.007": 1.77498542675,
			"-0.006": 3.46623564158,
			"-0.005": 4.24628074681,
			"-0.004": 3.33512031816,
			"-0.003": 8.40557456045,
			"-0.002": 28.5994673234,
			"-0.001": 41.4181152284,
			"0.0": 48.0296821259,
			"0.001": 43.5848633094,
			"0.002": 16.6003432286,
			"0.003": 1.48699527054,
			"0.004": 1.22987372967,
			"0.005": 0.983174637825,
			"0.006": 0.725754283777,
			"0.007": 0.515054519456,
			"0.008": 1.02630210792,
			"0.009": 0.97280147104,
			"0.01": 0.487628033665,
			"0.011": 0.199818378188,
			"0.012": 1.00504432869,
			"0.013": 0.944388015063,
			"0.014": 0.329416445762,
			"0.015": 0.81139753474,
			"0.016": 1.09628407304,
			"0.017": 0.312617514711,
			"0.018": 0.611353675602,
			"0.019": 0.678947934154,
			"0.02": 0.585776053591,
			"0.021": 0.0425899992016,
			"0.022": 0.0,
			"0.023": 0.0,
			"0.024": 0.0,
			"0.025": 0.0
		}
	}
}
