{
	 "smiles": "OC(=O)CNC1=C2C=CC=CC2=NC=N1", 
	 "Tm": 493.15, 
	 "num_atms": 24, 
	 "gaussian": { 
		 "optdone": 1, 
		 "sigma_profile": "yes", 
		 "theory": "DFT", 
		 "functional": "B3LYP", 
		 "basiset": "6-31G**", 
		 "properties": { 
			 "R2extent": 4318.6834, 
			 "electric_dipole_moment_norm": 3.53079816189, 
			 "electric_quadrupole_moment_norm": 17.4538243775, 
			 "total_energy": -701.221672594, 
			 "HOMO_LUMO_gap": 0.17413, 
			 "cosmo_polarized_energy": -15.53, 
			 "cosmo_cavitation_energy": 28.85, 
			 "cosmo_dispersion_energy": -21.52, 
			 "cosmo_repulsion_energy": 1.67, 
			 "cosmo_total_nonelectrostatic_energy": 9.0, 
			 "SMD_solvation_energy": 2.7 
		},
		"coords": [
			{
				"x": 4.9027031122,
				"y": 2.3486359007,
				"z": 1.8924308161,
				"element": "O" 
			},
			{
				"x": 3.839400171,
				"y": 2.1066825593,
				"z": 1.1050053744,
				"element": "C" 
			},
			{
				"x": 3.7632873896,
				"y": 2.4672762847,
				"z": -0.0510065748,
				"element": "O" 
			},
			{
				"x": 2.765418188,
				"y": 1.3359707765,
				"z": 1.8414247405,
				"element": "C" 
			},
			{
				"x": 1.6613519846,
				"y": 1.1123755233,
				"z": 0.9425279695,
				"element": "N" 
			},
			{
				"x": 0.5411162764,
				"y": 0.444533495,
				"z": 1.3177128904,
				"element": "C" 
			},
			{
				"x": -0.5510253969,
				"y": 0.2352253137,
				"z": 0.3951420005,
				"element": "C" 
			},
			{
				"x": -0.5804105324,
				"y": 0.6810038977,
				"z": -0.9467730562,
				"element": "C" 
			},
			{
				"x": -1.6792348165,
				"y": 0.4252665444,
				"z": -1.742930225,
				"element": "C" 
			},
			{
				"x": -2.7836068582,
				"y": -0.284845418,
				"z": -1.2211598172,
				"element": "C" 
			},
			{
				"x": -2.7772197455,
				"y": -0.7292316737,
				"z": 0.0842276321,
				"element": "C" 
			},
			{
				"x": -1.6626287164,
				"y": -0.4807381144,
				"z": 0.923577255,
				"element": "C" 
			},
			{
				"x": -1.6920623729,
				"y": -0.9380974125,
				"z": 2.2163062964,
				"element": "N" 
			},
			{
				"x": -0.626617799,
				"y": -0.6724438708,
				"z": 2.9364834095,
				"element": "C" 
			},
			{
				"x": 0.4944588161,
				"y": -0.0067543744,
				"z": 2.5683444121,
				"element": "N" 
			},
			{
				"x": 5.54420973,
				"y": 2.8427841063,
				"z": 1.3545334146,
				"element": "H" 
			},
			{
				"x": 2.4625360349,
				"y": 1.900223437,
				"z": 2.7330430399,
				"element": "H" 
			},
			{
				"x": 3.1883671472,
				"y": 0.3947941169,
				"z": 2.2161046479,
				"element": "H" 
			},
			{
				"x": 1.7720239402,
				"y": 1.4856015514,
				"z": 0.011336911,
				"element": "H" 
			},
			{
				"x": 0.2581967996,
				"y": 1.228722705,
				"z": -1.3679601171,
				"element": "H" 
			},
			{
				"x": -1.6954221198,
				"y": 0.770255801,
				"z": -2.7722633944,
				"element": "H" 
			},
			{
				"x": -3.6427123049,
				"y": -0.4803199767,
				"z": -1.8566289134,
				"element": "H" 
			},
			{
				"x": -3.6122946499,
				"y": -1.2765296017,
				"z": 0.5088280353,
				"element": "H" 
			},
			{
				"x": -0.6308342773,
				"y": -1.0276915709,
				"z": 3.9664932527,
				"element": "H" 
			}
		],
		 "valence_orbital": [ 
			{
				"type": "occ",
				"energy": -0.28553,
				"method": "rhf"
			},
			{
				"type": "occ",
				"energy": -0.26988,
				"method": "rhf"
			},
			{
				"type": "occ",
				"energy": -0.25797,
				"method": "rhf"
			},
			{
				"type": "occ",
				"energy": -0.24181,
				"method": "rhf"
			},
			{
				"type": "occ",
				"energy": -0.21768,
				"method": "rhf"
			},
			{
				"type": "unocc",
				"energy": -0.04355,
				"method": "rhf"
			},
			{
				"type": "unocc",
				"energy": -0.01969,
				"method": "rhf"
			},
			{
				"type": "unocc",
				"energy": -0.01105,
				"method": "rhf"
			},
			{
				"type": "unocc",
				"energy": 0.03088,
				"method": "rhf"
			},
			{
				"type": "unocc",
				"energy": 0.0596,
				"method": "rhf"
			}
		],
		"cosmo_sigma_profile": { 
			"-0.025": 0.0,
			"-0.024": 0.0,
			"-0.023": 0.0,
			"-0.022": 0.0,
			"-0.021": 0.0,
			"-0.02": 0.0,
			"-0.019": 0.640552528628,
			"-0.018": 1.13550158907,
			"-0.017": 0.992974163676,
			"-0.016": 0.584062372259,
			"-0.015": 0.388540321843,
			"-0.014": 0.687230190892,
			"-0.013": 1.24552654343,
			"-0.012": 2.04703371011,
			"-0.011": 1.94993205386,
			"-0.01": 1.3070404498,
			"-0.009": 1.67582002179,
			"-0.008": 4.0402658353,
			"-0.007": 8.65227122474,
			"-0.006": 13.2750392854,
			"-0.005": 15.6583185394,
			"-0.004": 13.5611222088,
			"-0.003": 13.4306892473,
			"-0.002": 11.2696010446,
			"-0.001": 14.9971081307,
			"0.0": 15.5247753642,
			"0.001": 15.0390913411,
			"0.002": 16.6396801461,
			"0.003": 18.3888764016,
			"0.004": 14.8886259251,
			"0.005": 5.60696569113,
			"0.006": 5.10315472934,
			"0.007": 5.81554607891,
			"0.008": 5.41669254518,
			"0.009": 4.96871404026,
			"0.01": 4.70567181867,
			"0.011": 4.89168707149,
			"0.012": 1.94165297077,
			"0.013": 1.83913399486,
			"0.014": 0.844329124379,
			"0.015": 0.744065818445,
			"0.016": 1.04067930789,
			"0.017": 0.311715059025,
			"0.018": 0.0,
			"0.019": 0.0,
			"0.02": 0.0,
			"0.021": 0.0,
			"0.022": 0.0,
			"0.023": 0.0,
			"0.024": 0.0,
			"0.025": 0.0
		}
	}
}
