{
	 "smiles": "NC1=NC(=CS1)C1=CC(Br)=CC=C1", 
	 "Tm": 396.15, 
	 "num_atms": 20, 
	 "gaussian": { 
		 "optdone": 1, 
		 "sigma_profile": "yes", 
		 "theory": "DFT", 
		 "functional": "B3LYP", 
		 "basiset": "6-31G**", 
		 "properties": { 
			 "R2extent": 5382.8782, 
			 "electric_dipole_moment_norm": 3.1652207348, 
			 "electric_quadrupole_moment_norm": 20.500816933, 
			 "total_energy": -3426.27288741, 
			 "HOMO_LUMO_gap": 0.16949, 
			 "cosmo_polarized_energy": -11.68, 
			 "cosmo_cavitation_energy": 28.56, 
			 "cosmo_dispersion_energy": -22.24, 
			 "cosmo_repulsion_energy": 1.71, 
			 "cosmo_total_nonelectrostatic_energy": 8.04, 
			 "SMD_solvation_energy": 2.33 
		},
		"coords": [
			{
				"x": -3.9390689207,
				"y": 0.7849976182,
				"z": -0.8428541362,
				"element": "N" 
			},
			{
				"x": -2.5853352193,
				"y": 1.0094165342,
				"z": -0.75245687,
				"element": "C" 
			},
			{
				"x": -1.7358044283,
				"y": 0.153716499,
				"z": -0.2705639718,
				"element": "N" 
			},
			{
				"x": -0.4517558733,
				"y": 0.6804112716,
				"z": -0.2294328465,
				"element": "C" 
			},
			{
				"x": -0.3341472683,
				"y": 1.9597132949,
				"z": -0.7016171218,
				"element": "C" 
			},
			{
				"x": -1.886308055,
				"y": 2.5709914145,
				"z": -1.2095250013,
				"element": "S" 
			},
			{
				"x": 0.6418370436,
				"y": -0.1629718292,
				"z": 0.2913826612,
				"element": "C" 
			},
			{
				"x": 0.3539292645,
				"y": -1.4719655964,
				"z": 0.711990133,
				"element": "C" 
			},
			{
				"x": 1.3746779778,
				"y": -2.278523623,
				"z": 1.2032153993,
				"element": "C" 
			},
			{
				"x": 0.9611305251,
				"y": -4.0607017128,
				"z": 1.7706423716,
				"element": "Br" 
			},
			{
				"x": 2.6891340405,
				"y": -1.8267337326,
				"z": 1.2939526183,
				"element": "C" 
			},
			{
				"x": 2.972081421,
				"y": -0.524061557,
				"z": 0.8760910323,
				"element": "C" 
			},
			{
				"x": 1.9654762189,
				"y": 0.2998597059,
				"z": 0.3813779134,
				"element": "C" 
			},
			{
				"x": -4.4340732455,
				"y": 1.2523340752,
				"z": -1.5886901645,
				"element": "H" 
			},
			{
				"x": -4.1871977864,
				"y": -0.1892651026,
				"z": -0.7297537461,
				"element": "H" 
			},
			{
				"x": 0.5456837597,
				"y": 2.5778653306,
				"z": -0.7937197723,
				"element": "H" 
			},
			{
				"x": -0.6632205118,
				"y": -1.8356762382,
				"z": 0.6478086699,
				"element": "H" 
			},
			{
				"x": 3.468795053,
				"y": -2.4727082811,
				"z": 1.680370567,
				"element": "H" 
			},
			{
				"x": 3.9907055898,
				"y": -0.1527674521,
				"z": 0.9404345801,
				"element": "H" 
			},
			{
				"x": 2.2132604147,
				"y": 1.3084693809,
				"z": 0.0668476842,
				"element": "H" 
			}
		],
		 "valence_orbital": [ 
			{
				"type": "occ",
				"energy": -0.28036,
				"method": "rhf"
			},
			{
				"type": "occ",
				"energy": -0.27855,
				"method": "rhf"
			},
			{
				"type": "occ",
				"energy": -0.25491,
				"method": "rhf"
			},
			{
				"type": "occ",
				"energy": -0.23982,
				"method": "rhf"
			},
			{
				"type": "occ",
				"energy": -0.20721,
				"method": "rhf"
			},
			{
				"type": "unocc",
				"energy": -0.03772,
				"method": "rhf"
			},
			{
				"type": "unocc",
				"energy": -0.00858,
				"method": "rhf"
			},
			{
				"type": "unocc",
				"energy": 0.00202,
				"method": "rhf"
			},
			{
				"type": "unocc",
				"energy": 0.01054,
				"method": "rhf"
			},
			{
				"type": "unocc",
				"energy": 0.01719,
				"method": "rhf"
			}
		],
		"cosmo_sigma_profile": { 
			"-0.025": 0.0,
			"-0.024": 0.0,
			"-0.023": 0.0,
			"-0.022": 0.0,
			"-0.021": 0.0,
			"-0.02": 0.0,
			"-0.019": 0.0,
			"-0.018": 0.0,
			"-0.017": 0.0,
			"-0.016": 0.0,
			"-0.015": 0.5813568844,
			"-0.014": 2.13046131382,
			"-0.013": 2.43645631145,
			"-0.012": 3.38338734979,
			"-0.011": 2.1525760761,
			"-0.01": 1.94009249923,
			"-0.009": 4.40079936395,
			"-0.008": 4.79745541511,
			"-0.007": 6.3790254232,
			"-0.006": 8.96794673154,
			"-0.005": 8.53983442253,
			"-0.004": 9.68824417469,
			"-0.003": 10.4393599882,
			"-0.002": 9.96301414856,
			"-0.001": 11.1897216381,
			"0.0": 13.7189926803,
			"0.001": 16.4117619839,
			"0.002": 27.0841138516,
			"0.003": 34.5753397482,
			"0.004": 29.5233919939,
			"0.005": 13.4263269631,
			"0.006": 2.81304258058,
			"0.007": 2.59180656831,
			"0.008": 2.04090405868,
			"0.009": 2.0821752515,
			"0.01": 2.55770737255,
			"0.011": 1.20523166524,
			"0.012": 0.112637341489,
			"0.013": 0.0,
			"0.014": 0.0,
			"0.015": 0.0,
			"0.016": 0.0,
			"0.017": 0.0,
			"0.018": 0.0,
			"0.019": 0.0,
			"0.02": 0.0,
			"0.021": 0.0,
			"0.022": 0.0,
			"0.023": 0.0,
			"0.024": 0.0,
			"0.025": 0.0
		}
	}
}
