{
	 "smiles": "ClC1=CC=CC=C1NC(=S)C(=O)C1=CC=CC=C1", 
	 "Tm": 392.15, 
	 "num_atms": 28, 
	 "gaussian": { 
		 "optdone": 1, 
		 "sigma_profile": "yes", 
		 "theory": "DFT", 
		 "functional": "B3LYP", 
		 "basiset": "6-31G**", 
		 "properties": { 
			 "R2extent": 6008.686, 
			 "electric_dipole_moment_norm": 5.25118911676, 
			 "electric_quadrupole_moment_norm": 19.6644762051, 
			 "total_energy": -1527.86630875, 
			 "HOMO_LUMO_gap": 0.15013, 
			 "cosmo_polarized_energy": -13.3, 
			 "cosmo_cavitation_energy": 36.6, 
			 "cosmo_dispersion_energy": -25.37, 
			 "cosmo_repulsion_energy": 1.94, 
			 "cosmo_total_nonelectrostatic_energy": 13.17, 
			 "SMD_solvation_energy": 5.2 
		},
		"coords": [
			{
				"x": 2.4807241433,
				"y": -2.0150253523,
				"z": -1.280990564,
				"element": "Cl" 
			},
			{
				"x": 2.8854031144,
				"y": -1.1519924503,
				"z": 0.1966041139,
				"element": "C" 
			},
			{
				"x": 3.5274724102,
				"y": -1.8380295235,
				"z": 1.2238078457,
				"element": "C" 
			},
			{
				"x": 3.8514407723,
				"y": -1.1674635205,
				"z": 2.4029421506,
				"element": "C" 
			},
			{
				"x": 3.5484924646,
				"y": 0.1876849555,
				"z": 2.5370351454,
				"element": "C" 
			},
			{
				"x": 2.9241334809,
				"y": 0.879109706,
				"z": 1.5013101551,
				"element": "C" 
			},
			{
				"x": 2.5624512243,
				"y": 0.2119374866,
				"z": 0.3220925401,
				"element": "C" 
			},
			{
				"x": 1.9509196823,
				"y": 0.8783961634,
				"z": -0.7682141909,
				"element": "N" 
			},
			{
				"x": 0.9623702774,
				"y": 1.8010358029,
				"z": -0.791572669,
				"element": "C" 
			},
			{
				"x": 0.4118395154,
				"y": 2.5052995574,
				"z": -2.1890531709,
				"element": "S" 
			},
			{
				"x": 0.3083058685,
				"y": 2.2423197733,
				"z": 0.5138793157,
				"element": "C" 
			},
			{
				"x": 0.8258359042,
				"y": 3.1438068179,
				"z": 1.1591205447,
				"element": "O" 
			},
			{
				"x": -0.9608719138,
				"y": 1.5843403901,
				"z": 0.9251608384,
				"element": "C" 
			},
			{
				"x": -1.5197733034,
				"y": 0.5096563572,
				"z": 0.216429339,
				"element": "C" 
			},
			{
				"x": -2.6897655918,
				"y": -0.0939248154,
				"z": 0.6735597959,
				"element": "C" 
			},
			{
				"x": -3.3094848069,
				"y": 0.3722300906,
				"z": 1.8352440971,
				"element": "C" 
			},
			{
				"x": -2.7572311214,
				"y": 1.4434991318,
				"z": 2.5452144983,
				"element": "C" 
			},
			{
				"x": -1.5870115244,
				"y": 2.0452246004,
				"z": 2.0951290666,
				"element": "C" 
			},
			{
				"x": 3.7609786421,
				"y": -2.8890134588,
				"z": 1.0953693709,
				"element": "H" 
			},
			{
				"x": 4.3460416823,
				"y": -1.70409216,
				"z": 3.2062784735,
				"element": "H" 
			},
			{
				"x": 3.8156160537,
				"y": 0.720524579,
				"z": 3.4440342672,
				"element": "H" 
			},
			{
				"x": 2.7203357059,
				"y": 1.9389800894,
				"z": 1.5885361924,
				"element": "H" 
			},
			{
				"x": 2.2579330262,
				"y": 0.5918486967,
				"z": -1.6938789862,
				"element": "H" 
			},
			{
				"x": -1.0495017253,
				"y": 0.1535862779,
				"z": -0.6942586324,
				"element": "H" 
			},
			{
				"x": -3.1201642599,
				"y": -0.9240521547,
				"z": 0.1217856898,
				"element": "H" 
			},
			{
				"x": -4.2233360625,
				"y": -0.0978562458,
				"z": 2.1873417335,
				"element": "H" 
			},
			{
				"x": -3.2412615396,
				"y": 1.8055392421,
				"z": 3.4474107897,
				"element": "H" 
			},
			{
				"x": -1.136492119,
				"y": 2.8752299631,
				"z": 2.6288822501,
				"element": "H" 
			}
		],
		 "valence_orbital": [ 
			{
				"type": "occ",
				"energy": -0.26865,
				"method": "rhf"
			},
			{
				"type": "occ",
				"energy": -0.26579,
				"method": "rhf"
			},
			{
				"type": "occ",
				"energy": -0.26437,
				"method": "rhf"
			},
			{
				"type": "occ",
				"energy": -0.23368,
				"method": "rhf"
			},
			{
				"type": "occ",
				"energy": -0.22157,
				"method": "rhf"
			},
			{
				"type": "unocc",
				"energy": -0.07144,
				"method": "rhf"
			},
			{
				"type": "unocc",
				"energy": -0.06188,
				"method": "rhf"
			},
			{
				"type": "unocc",
				"energy": -0.02893,
				"method": "rhf"
			},
			{
				"type": "unocc",
				"energy": -0.01552,
				"method": "rhf"
			},
			{
				"type": "unocc",
				"energy": -0.01172,
				"method": "rhf"
			}
		],
		"cosmo_sigma_profile": { 
			"-0.025": 0.0,
			"-0.024": 0.0,
			"-0.023": 0.0,
			"-0.022": 0.0,
			"-0.021": 0.0,
			"-0.02": 0.0,
			"-0.019": 0.0,
			"-0.018": 0.0,
			"-0.017": 0.0,
			"-0.016": 0.0,
			"-0.015": 0.051583622384,
			"-0.014": 0.870722495101,
			"-0.013": 0.708264735207,
			"-0.012": 0.776252874091,
			"-0.011": 0.652630074254,
			"-0.01": 0.780964663577,
			"-0.009": 1.02279648386,
			"-0.008": 2.13594057361,
			"-0.007": 10.6217837378,
			"-0.006": 19.7552223173,
			"-0.005": 21.0966452578,
			"-0.004": 18.4864453184,
			"-0.003": 18.2345057233,
			"-0.002": 16.6289220674,
			"-0.001": 19.1540785702,
			"0.0": 22.4723189702,
			"0.001": 28.1656999372,
			"0.002": 27.5507270729,
			"0.003": 34.0031827514,
			"0.004": 15.9700556467,
			"0.005": 6.99410284713,
			"0.006": 8.50146209591,
			"0.007": 7.68058623556,
			"0.008": 6.09460593045,
			"0.009": 5.30768773235,
			"0.01": 4.55383805594,
			"0.011": 1.64872337515,
			"0.012": 0.0426920039581,
			"0.013": 0.0,
			"0.014": 0.0,
			"0.015": 0.0,
			"0.016": 0.0,
			"0.017": 0.0,
			"0.018": 0.0,
			"0.019": 0.0,
			"0.02": 0.0,
			"0.021": 0.0,
			"0.022": 0.0,
			"0.023": 0.0,
			"0.024": 0.0,
			"0.025": 0.0
		}
	}
}
