{
	 "smiles": "CCCC(C)=CC", 
	 "Tm": 154.15, 
	 "num_atms": 21, 
	 "gaussian": { 
		 "optdone": 1, 
		 "sigma_profile": "yes", 
		 "theory": "DFT", 
		 "functional": "B3LYP", 
		 "basiset": "6-31G**", 
		 "properties": { 
			 "R2extent": 1632.781, 
			 "electric_dipole_moment_norm": 0.188254110181, 
			 "electric_quadrupole_moment_norm": 1.58220012325, 
			 "total_energy": -275.183852962, 
			 "HOMO_LUMO_gap": 0.26013, 
			 "cosmo_polarized_energy": -1.49, 
			 "cosmo_cavitation_energy": 22.71, 
			 "cosmo_dispersion_energy": -16.21, 
			 "cosmo_repulsion_energy": 1.4, 
			 "cosmo_total_nonelectrostatic_energy": 7.9, 
			 "SMD_solvation_energy": 4.24 
		},
		"coords": [
			{
				"x": -0.3264371161,
				"y": -0.1725158745,
				"z": 1.7954445812,
				"element": "C" 
			},
			{
				"x": -0.096611064,
				"y": -0.8100158898,
				"z": 0.4217384566,
				"element": "C" 
			},
			{
				"x": -1.3395181363,
				"y": -0.7317898836,
				"z": -0.4895216148,
				"element": "C" 
			},
			{
				"x": -1.1535272742,
				"y": -1.4107146215,
				"z": -1.8322993697,
				"element": "C" 
			},
			{
				"x": -1.3167498913,
				"y": -2.9133821895,
				"z": -1.8241226703,
				"element": "C" 
			},
			{
				"x": -0.8532432435,
				"y": -0.7635694031,
				"z": -2.9694473883,
				"element": "C" 
			},
			{
				"x": -0.6481465242,
				"y": 0.7112423614,
				"z": -3.1749875319,
				"element": "C" 
			},
			{
				"x": -1.1401260111,
				"y": -0.6722506709,
				"z": 2.3336754224,
				"element": "H" 
			},
			{
				"x": 0.5712868685,
				"y": -0.2329764478,
				"z": 2.4195155897,
				"element": "H" 
			},
			{
				"x": -0.5954795864,
				"y": 0.8860003449,
				"z": 1.7018358809,
				"element": "H" 
			},
			{
				"x": 0.2001386772,
				"y": -1.8585288735,
				"z": 0.5509496909,
				"element": "H" 
			},
			{
				"x": 0.7435027694,
				"y": -0.3163283123,
				"z": -0.0824096199,
				"element": "H" 
			},
			{
				"x": -1.6122667121,
				"y": 0.3211279541,
				"z": -0.6196392359,
				"element": "H" 
			},
			{
				"x": -2.1852875526,
				"y": -1.2016470292,
				"z": 0.0331294571,
				"element": "H" 
			},
			{
				"x": -0.6314384176,
				"y": -3.3905712952,
				"z": -1.1116846882,
				"element": "H" 
			},
			{
				"x": -1.1297234766,
				"y": -3.3482765857,
				"z": -2.8100314006,
				"element": "H" 
			},
			{
				"x": -2.3315729667,
				"y": -3.1971921439,
				"z": -1.5142023844,
				"element": "H" 
			},
			{
				"x": -0.735331571,
				"y": -1.3670802035,
				"z": -3.870682719,
				"element": "H" 
			},
			{
				"x": -0.7946876775,
				"y": 1.2966854181,
				"z": -2.2642466694,
				"element": "H" 
			},
			{
				"x": -1.334858405,
				"y": 1.1003535676,
				"z": -3.9380442118,
				"element": "H" 
			},
			{
				"x": 0.3670773111,
				"y": 0.9167297776,
				"z": -3.5391695747,
				"element": "H" 
			}
		],
		 "valence_orbital": [ 
			{
				"type": "occ",
				"energy": -0.34757,
				"method": "rhf"
			},
			{
				"type": "occ",
				"energy": -0.33564,
				"method": "rhf"
			},
			{
				"type": "occ",
				"energy": -0.32246,
				"method": "rhf"
			},
			{
				"type": "occ",
				"energy": -0.31061,
				"method": "rhf"
			},
			{
				"type": "occ",
				"energy": -0.22443,
				"method": "rhf"
			},
			{
				"type": "unocc",
				"energy": 0.0357,
				"method": "rhf"
			},
			{
				"type": "unocc",
				"energy": 0.08901,
				"method": "rhf"
			},
			{
				"type": "unocc",
				"energy": 0.111,
				"method": "rhf"
			},
			{
				"type": "unocc",
				"energy": 0.1237,
				"method": "rhf"
			},
			{
				"type": "unocc",
				"energy": 0.13531,
				"method": "rhf"
			}
		],
		"cosmo_sigma_profile": { 
			"-0.025": 0.0,
			"-0.024": 0.0,
			"-0.023": 0.0,
			"-0.022": 0.0,
			"-0.021": 0.0,
			"-0.02": 0.0,
			"-0.019": 0.0,
			"-0.018": 0.0,
			"-0.017": 0.0,
			"-0.016": 0.0,
			"-0.015": 0.0,
			"-0.014": 0.0,
			"-0.013": 0.0,
			"-0.012": 0.0,
			"-0.011": 0.0,
			"-0.01": 0.0,
			"-0.009": 0.0,
			"-0.008": 0.0,
			"-0.007": 0.0,
			"-0.006": 0.0,
			"-0.005": 0.0,
			"-0.004": 2.20039647456,
			"-0.003": 16.9328458569,
			"-0.002": 27.195168658,
			"-0.001": 31.367212306,
			"0.0": 32.3607920724,
			"0.001": 33.6001365197,
			"0.002": 14.9648212309,
			"0.003": 4.79043176417,
			"0.004": 4.21990583181,
			"0.005": 3.2207475416,
			"0.006": 2.24995580814,
			"0.007": 2.07653609782,
			"0.008": 0.59308619398,
			"0.009": 0.0,
			"0.01": 0.0,
			"0.011": 0.0,
			"0.012": 0.0,
			"0.013": 0.0,
			"0.014": 0.0,
			"0.015": 0.0,
			"0.016": 0.0,
			"0.017": 0.0,
			"0.018": 0.0,
			"0.019": 0.0,
			"0.02": 0.0,
			"0.021": 0.0,
			"0.022": 0.0,
			"0.023": 0.0,
			"0.024": 0.0,
			"0.025": 0.0
		}
	}
}
