{
	 "smiles": "OC1=C(C=CC2=CC=CC=C2)C=CC=C1", 
	 "Tm": 420.15, 
	 "num_atms": 27, 
	 "gaussian": { 
		 "optdone": 1, 
		 "sigma_profile": "yes", 
		 "theory": "DFT", 
		 "functional": "B3LYP", 
		 "basiset": "6-31G**", 
		 "properties": { 
			 "R2extent": 4856.4312, 
			 "electric_dipole_moment_norm": 1.43056194903, 
			 "electric_quadrupole_moment_norm": 6.9564113586, 
			 "total_energy": -615.936410953, 
			 "HOMO_LUMO_gap": 0.15413, 
			 "cosmo_polarized_energy": -8.3, 
			 "cosmo_cavitation_energy": 30.98, 
			 "cosmo_dispersion_energy": -22.79, 
			 "cosmo_repulsion_energy": 1.75, 
			 "cosmo_total_nonelectrostatic_energy": 9.94, 
			 "SMD_solvation_energy": 5.27 
		},
		"coords": [
			{
				"x": 1.7821679713,
				"y": 0.9941587067,
				"z": 1.0709987414,
				"element": "O" 
			},
			{
				"x": 0.8696605062,
				"y": 1.5486933932,
				"z": 1.9210069733,
				"element": "C" 
			},
			{
				"x": -0.5242004199,
				"y": 1.335310142,
				"z": 1.7916308577,
				"element": "C" 
			},
			{
				"x": -1.1210215876,
				"y": 0.4671736488,
				"z": 0.7704092048,
				"element": "C" 
			},
			{
				"x": -0.5931141289,
				"y": -0.6541241017,
				"z": 0.2262858939,
				"element": "C" 
			},
			{
				"x": -1.2217345346,
				"y": -1.5049303746,
				"z": -0.7917456834,
				"element": "C" 
			},
			{
				"x": -2.3176028499,
				"y": -1.0908596203,
				"z": -1.5735861301,
				"element": "C" 
			},
			{
				"x": -2.886401018,
				"y": -1.9444032124,
				"z": -2.5144542957,
				"element": "C" 
			},
			{
				"x": -2.3707875031,
				"y": -3.2294166367,
				"z": -2.7083836009,
				"element": "C" 
			},
			{
				"x": -1.275288887,
				"y": -3.6504668164,
				"z": -1.9529482362,
				"element": "C" 
			},
			{
				"x": -0.7068231452,
				"y": -2.7963527697,
				"z": -1.0100378524,
				"element": "C" 
			},
			{
				"x": -1.3732135677,
				"y": 2.024668177,
				"z": 2.6797497935,
				"element": "C" 
			},
			{
				"x": -0.8766697284,
				"y": 2.8392952648,
				"z": 3.6907553763,
				"element": "C" 
			},
			{
				"x": 0.5062112609,
				"y": 3.0035717999,
				"z": 3.8206819644,
				"element": "C" 
			},
			{
				"x": 1.3721856014,
				"y": 2.3725883567,
				"z": 2.9326155667,
				"element": "C" 
			},
			{
				"x": 1.3114995693,
				"y": 0.6534483372,
				"z": 0.2953132273,
				"element": "H" 
			},
			{
				"x": -2.1260947378,
				"y": 0.7582450214,
				"z": 0.4666894026,
				"element": "H" 
			},
			{
				"x": 0.3555324644,
				"y": -1.0295645187,
				"z": 0.6078943179,
				"element": "H" 
			},
			{
				"x": -2.7160477273,
				"y": -0.0875233838,
				"z": -1.4570142422,
				"element": "H" 
			},
			{
				"x": -3.7300720533,
				"y": -1.6028869331,
				"z": -3.1076741353,
				"element": "H" 
			},
			{
				"x": -2.8141538376,
				"y": -3.8908405181,
				"z": -3.4468725991,
				"element": "H" 
			},
			{
				"x": -0.8617266381,
				"y": -4.6443899421,
				"z": -2.0983505675,
				"element": "H" 
			},
			{
				"x": 0.1443699826,
				"y": -3.1319720395,
				"z": -0.4226597339,
				"element": "H" 
			},
			{
				"x": -2.4467200136,
				"y": 1.8888722663,
				"z": 2.5736451893,
				"element": "H" 
			},
			{
				"x": -1.5576173265,
				"y": 3.3428630273,
				"z": 4.3696352395,
				"element": "H" 
			},
			{
				"x": 0.9107453605,
				"y": 3.6372381664,
				"z": 4.6046423314,
				"element": "H" 
			},
			{
				"x": 2.4468169878,
				"y": 2.5100045593,
				"z": 2.9937729966,
				"element": "H" 
			}
		],
		 "valence_orbital": [ 
			{
				"type": "occ",
				"energy": -0.30995,
				"method": "rhf"
			},
			{
				"type": "occ",
				"energy": -0.26215,
				"method": "rhf"
			},
			{
				"type": "occ",
				"energy": -0.25412,
				"method": "rhf"
			},
			{
				"type": "occ",
				"energy": -0.23027,
				"method": "rhf"
			},
			{
				"type": "occ",
				"energy": -0.20551,
				"method": "rhf"
			},
			{
				"type": "unocc",
				"energy": -0.05138,
				"method": "rhf"
			},
			{
				"type": "unocc",
				"energy": -0.00389,
				"method": "rhf"
			},
			{
				"type": "unocc",
				"energy": 0.00569,
				"method": "rhf"
			},
			{
				"type": "unocc",
				"energy": 0.01532,
				"method": "rhf"
			},
			{
				"type": "unocc",
				"energy": 0.0562,
				"method": "rhf"
			}
		],
		"cosmo_sigma_profile": { 
			"-0.025": 0.0,
			"-0.024": 0.0,
			"-0.023": 0.0,
			"-0.022": 0.0,
			"-0.021": 0.0,
			"-0.02": 0.0,
			"-0.019": 0.0,
			"-0.018": 0.0,
			"-0.017": 0.0,
			"-0.016": 0.0,
			"-0.015": 0.0,
			"-0.014": 0.0537476551881,
			"-0.013": 0.464932243873,
			"-0.012": 0.91889417771,
			"-0.011": 0.700756368081,
			"-0.01": 1.14835234822,
			"-0.009": 0.890255928406,
			"-0.008": 1.28168101705,
			"-0.007": 3.27766612491,
			"-0.006": 15.3875098127,
			"-0.005": 21.2693366631,
			"-0.004": 21.3801206402,
			"-0.003": 20.1975682583,
			"-0.002": 15.1971197327,
			"-0.001": 13.8410434073,
			"0.0": 14.1651033689,
			"0.001": 14.9115064595,
			"0.002": 16.8032542752,
			"0.003": 19.8959803228,
			"0.004": 23.446972862,
			"0.005": 22.9061550108,
			"0.006": 12.4849539389,
			"0.007": 0.927155343087,
			"0.008": 1.28318036167,
			"0.009": 1.85058300634,
			"0.01": 1.14233527929,
			"0.011": 2.10546164176,
			"0.012": 0.386573606036,
			"0.013": 0.0,
			"0.014": 0.0,
			"0.015": 0.0,
			"0.016": 0.0,
			"0.017": 0.0,
			"0.018": 0.0,
			"0.019": 0.0,
			"0.02": 0.0,
			"0.021": 0.0,
			"0.022": 0.0,
			"0.023": 0.0,
			"0.024": 0.0,
			"0.025": 0.0
		}
	}
}
