{
	 "smiles": "NC1=C(OC2=CC=NC=C2)C=CC=C1", 
	 "Tm": 372.15, 
	 "num_atms": 24, 
	 "gaussian": { 
		 "optdone": 1, 
		 "sigma_profile": "yes", 
		 "theory": "DFT", 
		 "functional": "B3LYP", 
		 "basiset": "6-31G**", 
		 "properties": { 
			 "R2extent": 3210.9598, 
			 "electric_dipole_moment_norm": 3.41193830396, 
			 "electric_quadrupole_moment_norm": 15.4800278449, 
			 "total_energy": -609.912532965, 
			 "HOMO_LUMO_gap": 0.19848, 
			 "cosmo_polarized_energy": -11.18, 
			 "cosmo_cavitation_energy": 28.39, 
			 "cosmo_dispersion_energy": -20.5, 
			 "cosmo_repulsion_energy": 1.62, 
			 "cosmo_total_nonelectrostatic_energy": 9.51, 
			 "SMD_solvation_energy": 3.59 
		},
		"coords": [
			{
				"x": 0.5809723025,
				"y": -0.8490518177,
				"z": 2.9975289188,
				"element": "N" 
			},
			{
				"x": 0.8196560023,
				"y": 0.2263287031,
				"z": 2.1500180165,
				"element": "C" 
			},
			{
				"x": 0.083367992,
				"y": 0.3615596477,
				"z": 0.9580152846,
				"element": "C" 
			},
			{
				"x": -0.9654139824,
				"y": -0.5374211736,
				"z": 0.7436510125,
				"element": "O" 
			},
			{
				"x": -0.7996979276,
				"y": -1.5768021917,
				"z": -0.1362403515,
				"element": "C" 
			},
			{
				"x": -1.9259348705,
				"y": -2.3662995872,
				"z": -0.3886128309,
				"element": "C" 
			},
			{
				"x": -1.7933608878,
				"y": -3.4368142911,
				"z": -1.2673659158,
				"element": "C" 
			},
			{
				"x": -0.6528479695,
				"y": -3.7649534818,
				"z": -1.8922691497,
				"element": "N" 
			},
			{
				"x": 0.4092196549,
				"y": -2.993664015,
				"z": -1.6320162012,
				"element": "C" 
			},
			{
				"x": 0.4022099857,
				"y": -1.8941121482,
				"z": -0.772344571,
				"element": "C" 
			},
			{
				"x": 0.3180825285,
				"y": 1.4006820445,
				"z": 0.0647712401,
				"element": "C" 
			},
			{
				"x": 1.3173537533,
				"y": 2.337458907,
				"z": 0.3340103624,
				"element": "C" 
			},
			{
				"x": 2.0623583885,
				"y": 2.2187257136,
				"z": 1.5097685396,
				"element": "C" 
			},
			{
				"x": 1.8170008977,
				"y": 1.1822829864,
				"z": 2.4078993698,
				"element": "C" 
			},
			{
				"x": -0.3384393272,
				"y": -1.2584631527,
				"z": 2.9029652202,
				"element": "H" 
			},
			{
				"x": 0.8554990079,
				"y": -0.7111771313,
				"z": 3.9596944102,
				"element": "H" 
			},
			{
				"x": -2.8707193755,
				"y": -2.135963696,
				"z": 0.0917845658,
				"element": "H" 
			},
			{
				"x": -2.6557657055,
				"y": -4.0657321136,
				"z": -1.4821479202,
				"element": "H" 
			},
			{
				"x": 1.3337944284,
				"y": -3.2652413957,
				"z": -2.139145085,
				"element": "H" 
			},
			{
				"x": 1.3000135682,
				"y": -1.3117364208,
				"z": -0.6050986125,
				"element": "H" 
			},
			{
				"x": -0.2920239553,
				"y": 1.466740588,
				"z": -0.830758993,
				"element": "H" 
			},
			{
				"x": 1.5049426048,
				"y": 3.1490739815,
				"z": -0.3611305962,
				"element": "H" 
			},
			{
				"x": 2.8397945229,
				"y": 2.9428006248,
				"z": 1.7355991325,
				"element": "H" 
			},
			{
				"x": 2.4018383636,
				"y": 1.0995794202,
				"z": 3.320524154,
				"element": "H" 
			}
		],
		 "valence_orbital": [ 
			{
				"type": "occ",
				"energy": -0.26009,
				"method": "rhf"
			},
			{
				"type": "occ",
				"energy": -0.25587,
				"method": "rhf"
			},
			{
				"type": "occ",
				"energy": -0.24996,
				"method": "rhf"
			},
			{
				"type": "occ",
				"energy": -0.24437,
				"method": "rhf"
			},
			{
				"type": "occ",
				"energy": -0.2098,
				"method": "rhf"
			},
			{
				"type": "unocc",
				"energy": -0.01132,
				"method": "rhf"
			},
			{
				"type": "unocc",
				"energy": -0.007,
				"method": "rhf"
			},
			{
				"type": "unocc",
				"energy": -0.00205,
				"method": "rhf"
			},
			{
				"type": "unocc",
				"energy": 0.01071,
				"method": "rhf"
			},
			{
				"type": "unocc",
				"energy": 0.07882,
				"method": "rhf"
			}
		],
		"cosmo_sigma_profile": { 
			"-0.025": 0.0,
			"-0.024": 0.0,
			"-0.023": 0.0,
			"-0.022": 0.0,
			"-0.021": 0.0,
			"-0.02": 0.0,
			"-0.019": 0.0,
			"-0.018": 0.0,
			"-0.017": 0.0,
			"-0.016": 0.0,
			"-0.015": 0.0,
			"-0.014": 0.000281711171573,
			"-0.013": 0.677749739212,
			"-0.012": 1.73763906766,
			"-0.011": 2.02769459344,
			"-0.01": 2.36328437885,
			"-0.009": 2.72282400204,
			"-0.008": 3.00132940345,
			"-0.007": 5.34778342784,
			"-0.006": 14.0471319309,
			"-0.005": 15.8227626163,
			"-0.004": 16.4732350602,
			"-0.003": 15.0689296634,
			"-0.002": 14.4829566387,
			"-0.001": 11.3907077958,
			"0.0": 15.1894195086,
			"0.001": 14.9101208855,
			"0.002": 21.3264522716,
			"0.003": 19.3235795698,
			"0.004": 12.1281508694,
			"0.005": 12.1007714093,
			"0.006": 8.5189659891,
			"0.007": 2.63771688252,
			"0.008": 3.91817214014,
			"0.009": 2.30615432036,
			"0.01": 1.4218477731,
			"0.011": 1.61079473114,
			"0.012": 1.73490322608,
			"0.013": 1.56151380033,
			"0.014": 1.07128928547,
			"0.015": 0.807644590262,
			"0.016": 1.00789867288,
			"0.017": 0.665434390956,
			"0.018": 0.0122697946076,
			"0.019": 0.0,
			"0.02": 0.0,
			"0.021": 0.0,
			"0.022": 0.0,
			"0.023": 0.0,
			"0.024": 0.0,
			"0.025": 0.0
		}
	}
}
