{
	 "smiles": "COC(=O)C(=O)CC(=O)C1=CC=C(OC)C=C1", 
	 "Tm": 378.15, 
	 "num_atms": 29, 
	 "gaussian": { 
		 "optdone": 1, 
		 "sigma_profile": "yes", 
		 "theory": "DFT", 
		 "functional": "B3LYP", 
		 "basiset": "6-31G**", 
		 "properties": { 
			 "R2extent": 6524.1394, 
			 "electric_dipole_moment_norm": 3.40347497861, 
			 "electric_quadrupole_moment_norm": 16.3327245253, 
			 "total_energy": -840.605548403, 
			 "HOMO_LUMO_gap": 0.1527, 
			 "cosmo_polarized_energy": -15.6, 
			 "cosmo_cavitation_energy": 34.8, 
			 "cosmo_dispersion_energy": -24.52, 
			 "cosmo_repulsion_energy": 1.92, 
			 "cosmo_total_nonelectrostatic_energy": 12.19, 
			 "SMD_solvation_energy": 9.6 
		},
		"coords": [
			{
				"x": 3.4054772396,
				"y": 0.8434103119,
				"z": -4.2790369607,
				"element": "C" 
			},
			{
				"x": 3.1219569338,
				"y": 0.314573475,
				"z": -2.9697268274,
				"element": "O" 
			},
			{
				"x": 2.3238427967,
				"y": 1.0712954946,
				"z": -2.2125745263,
				"element": "C" 
			},
			{
				"x": 1.8441240592,
				"y": 2.1353569891,
				"z": -2.5394590746,
				"element": "O" 
			},
			{
				"x": 2.0988505502,
				"y": 0.4398121433,
				"z": -0.8200222203,
				"element": "C" 
			},
			{
				"x": 2.8748575475,
				"y": -0.3810500198,
				"z": -0.3793240254,
				"element": "O" 
			},
			{
				"x": 0.8735891748,
				"y": 0.9432093891,
				"z": -0.0808248959,
				"element": "C" 
			},
			{
				"x": -0.3702583888,
				"y": 0.0720969474,
				"z": -0.3916166099,
				"element": "C" 
			},
			{
				"x": -1.157807035,
				"y": 0.4523870769,
				"z": -1.2432520677,
				"element": "O" 
			},
			{
				"x": -0.5744553826,
				"y": -1.1910266803,
				"z": 0.3609594642,
				"element": "C" 
			},
			{
				"x": -1.7886748121,
				"y": -1.8832315459,
				"z": 0.1689367883,
				"element": "C" 
			},
			{
				"x": -2.0475590299,
				"y": -3.06387371,
				"z": 0.8381472661,
				"element": "C" 
			},
			{
				"x": -1.0874721648,
				"y": -3.5983858931,
				"z": 1.7183294442,
				"element": "C" 
			},
			{
				"x": -1.4341399186,
				"y": -4.7605174523,
				"z": 2.3271439689,
				"element": "O" 
			},
			{
				"x": -0.5093856165,
				"y": -5.3624571484,
				"z": 3.2241853074,
				"element": "C" 
			},
			{
				"x": 0.1298348599,
				"y": -2.9308127259,
				"z": 1.9112304847,
				"element": "C" 
			},
			{
				"x": 0.3749901006,
				"y": -1.7346151991,
				"z": 1.2379665773,
				"element": "C" 
			},
			{
				"x": 4.0359246673,
				"y": 0.0993875799,
				"z": -4.7639292937,
				"element": "H" 
			},
			{
				"x": 2.4786478164,
				"y": 0.991537146,
				"z": -4.8384494807,
				"element": "H" 
			},
			{
				"x": 3.9282312601,
				"y": 1.7994774595,
				"z": -4.1973136088,
				"element": "H" 
			},
			{
				"x": 0.6335363027,
				"y": 1.9503599905,
				"z": -0.4211810686,
				"element": "H" 
			},
			{
				"x": 1.0926813192,
				"y": 0.9357374416,
				"z": 0.9887525429,
				"element": "H" 
			},
			{
				"x": -2.5159797969,
				"y": -1.4620911297,
				"z": -0.5168903089,
				"element": "H" 
			},
			{
				"x": -2.9805355147,
				"y": -3.601175071,
				"z": 0.7038320359,
				"element": "H" 
			},
			{
				"x": -0.9927924026,
				"y": -6.2701598436,
				"z": 3.5873210511,
				"element": "H" 
			},
			{
				"x": 0.4269182349,
				"y": -5.6278881064,
				"z": 2.7183055098,
				"element": "H" 
			},
			{
				"x": -0.2875352154,
				"y": -4.7052114975,
				"z": 4.073893454,
				"element": "H" 
			},
			{
				"x": 0.8873626733,
				"y": -3.3314365906,
				"z": 2.5736953078,
				"element": "H" 
			},
			{
				"x": 1.3352697419,
				"y": -1.2503088311,
				"z": 1.376001766,
				"element": "H" 
			}
		],
		 "valence_orbital": [ 
			{
				"type": "occ",
				"energy": -0.3153,
				"method": "rhf"
			},
			{
				"type": "occ",
				"energy": -0.26294,
				"method": "rhf"
			},
			{
				"type": "occ",
				"energy": -0.26049,
				"method": "rhf"
			},
			{
				"type": "occ",
				"energy": -0.24991,
				"method": "rhf"
			},
			{
				"type": "occ",
				"energy": -0.23307,
				"method": "rhf"
			},
			{
				"type": "unocc",
				"energy": -0.08037,
				"method": "rhf"
			},
			{
				"type": "unocc",
				"energy": -0.05002,
				"method": "rhf"
			},
			{
				"type": "unocc",
				"energy": -0.01077,
				"method": "rhf"
			},
			{
				"type": "unocc",
				"energy": 0.03798,
				"method": "rhf"
			},
			{
				"type": "unocc",
				"energy": 0.05804,
				"method": "rhf"
			}
		],
		"cosmo_sigma_profile": { 
			"-0.025": 0.0,
			"-0.024": 0.0,
			"-0.023": 0.0,
			"-0.022": 0.0,
			"-0.021": 0.0,
			"-0.02": 0.0,
			"-0.019": 0.0,
			"-0.018": 0.0,
			"-0.017": 0.0,
			"-0.016": 0.0,
			"-0.015": 0.0,
			"-0.014": 0.0,
			"-0.013": 0.0,
			"-0.012": 0.0,
			"-0.011": 0.0,
			"-0.01": 0.0,
			"-0.009": 0.345212447732,
			"-0.008": 2.83521256788,
			"-0.007": 11.7655597161,
			"-0.006": 26.5577421978,
			"-0.005": 29.9118796346,
			"-0.004": 29.7194681165,
			"-0.003": 19.1610544479,
			"-0.002": 12.8884613775,
			"-0.001": 12.1486112665,
			"0.0": 11.7260062278,
			"0.001": 13.9789252012,
			"0.002": 16.9754397712,
			"0.003": 20.5726389245,
			"0.004": 12.3446497047,
			"0.005": 6.62751139333,
			"0.006": 7.45550380211,
			"0.007": 6.36484438653,
			"0.008": 7.71932189194,
			"0.009": 9.66635570002,
			"0.01": 9.0722558591,
			"0.011": 6.74687645072,
			"0.012": 2.82845151838,
			"0.013": 0.182354975946,
			"0.014": 0.0,
			"0.015": 0.0,
			"0.016": 0.0,
			"0.017": 0.0,
			"0.018": 0.0,
			"0.019": 0.0,
			"0.02": 0.0,
			"0.021": 0.0,
			"0.022": 0.0,
			"0.023": 0.0,
			"0.024": 0.0,
			"0.025": 0.0
		}
	}
}
