{
	 "smiles": "OC(=O)C1=CC(NC(=O)C2CCCCC2)=CC=C1", 
	 "Tm": 502.15, 
	 "num_atms": 35, 
	 "gaussian": { 
		 "optdone": 1, 
		 "sigma_profile": "yes", 
		 "theory": "DFT", 
		 "functional": "B3LYP", 
		 "basiset": "6-31G**", 
		 "properties": { 
			 "R2extent": 5851.163, 
			 "electric_dipole_moment_norm": 2.96435402744, 
			 "electric_quadrupole_moment_norm": 37.9059082429, 
			 "total_energy": -824.190342833, 
			 "HOMO_LUMO_gap": 0.18395, 
			 "cosmo_polarized_energy": -21.03, 
			 "cosmo_cavitation_energy": 37.12, 
			 "cosmo_dispersion_energy": -25.68, 
			 "cosmo_repulsion_energy": 1.97, 
			 "cosmo_total_nonelectrostatic_energy": 13.41, 
			 "SMD_solvation_energy": 6.91 
		},
		"coords": [
			{
				"x": 4.1767339138,
				"y": 0.0265698845,
				"z": 0.6574063989,
				"element": "O" 
			},
			{
				"x": 4.0932084999,
				"y": -0.6204066728,
				"z": 1.8512219896,
				"element": "C" 
			},
			{
				"x": 5.0983381235,
				"y": -0.9019405478,
				"z": 2.458936919,
				"element": "O" 
			},
			{
				"x": 2.7137951588,
				"y": -0.9518621312,
				"z": 2.3429730202,
				"element": "C" 
			},
			{
				"x": 1.5810672055,
				"y": -0.2442125359,
				"z": 1.9191793061,
				"element": "C" 
			},
			{
				"x": 0.3094778569,
				"y": -0.5848349616,
				"z": 2.4004386843,
				"element": "C" 
			},
			{
				"x": -0.856159849,
				"y": 0.1171833126,
				"z": 2.0246017712,
				"element": "N" 
			},
			{
				"x": -1.3310195444,
				"y": 0.56475089,
				"z": 0.7972531387,
				"element": "C" 
			},
			{
				"x": -2.4042396631,
				"y": 1.1514855555,
				"z": 0.7660189293,
				"element": "O" 
			},
			{
				"x": -0.5165568517,
				"y": 0.3093432758,
				"z": -0.4661107108,
				"element": "C" 
			},
			{
				"x": -1.4369648115,
				"y": -0.2380095586,
				"z": -1.5925370572,
				"element": "C" 
			},
			{
				"x": -0.9213241572,
				"y": 0.1183506651,
				"z": -3.0061017916,
				"element": "C" 
			},
			{
				"x": 0.6092517743,
				"y": 0.216479811,
				"z": -3.0383173091,
				"element": "C" 
			},
			{
				"x": 1.1039931412,
				"y": 1.3654641649,
				"z": -2.1276266949,
				"element": "C" 
			},
			{
				"x": 0.1550361678,
				"y": 1.6209477325,
				"z": -0.934611321,
				"element": "C" 
			},
			{
				"x": 0.1969369793,
				"y": -1.6170793314,
				"z": 3.345152126,
				"element": "C" 
			},
			{
				"x": 1.3300825909,
				"y": -2.2922574019,
				"z": 3.7953153808,
				"element": "C" 
			},
			{
				"x": 2.5898714328,
				"y": -1.96802316,
				"z": 3.2971248741,
				"element": "C" 
			},
			{
				"x": 3.3163553371,
				"y": 0.0247328532,
				"z": 0.2151612904,
				"element": "H" 
			},
			{
				"x": 1.6815090811,
				"y": 0.6169424974,
				"z": 1.2676468274,
				"element": "H" 
			},
			{
				"x": -1.5510051931,
				"y": 0.2534870683,
				"z": 2.7497893295,
				"element": "H" 
			},
			{
				"x": 0.2646435192,
				"y": -0.42766907,
				"z": -0.2550673322,
				"element": "H" 
			},
			{
				"x": -2.4401508108,
				"y": 0.1708132674,
				"z": -1.4462418563,
				"element": "H" 
			},
			{
				"x": -1.5125675708,
				"y": -1.326574707,
				"z": -1.4852108164,
				"element": "H" 
			},
			{
				"x": -1.3457403169,
				"y": 1.0783481564,
				"z": -3.3265162124,
				"element": "H" 
			},
			{
				"x": -1.2763381871,
				"y": -0.626297516,
				"z": -3.726617514,
				"element": "H" 
			},
			{
				"x": 1.0340422586,
				"y": -0.7389516906,
				"z": -2.7026648304,
				"element": "H" 
			},
			{
				"x": 0.9698393642,
				"y": 0.3658082207,
				"z": -4.0616281431,
				"element": "H" 
			},
			{
				"x": 2.1156954965,
				"y": 1.1380498828,
				"z": -1.7649730734,
				"element": "H" 
			},
			{
				"x": 1.1978896406,
				"y": 2.290888115,
				"z": -2.7072899835,
				"element": "H" 
			},
			{
				"x": -0.6425970001,
				"y": 2.3172003574,
				"z": -1.2155440825,
				"element": "H" 
			},
			{
				"x": 0.6973282377,
				"y": 2.1076637858,
				"z": -0.1147699542,
				"element": "H" 
			},
			{
				"x": -0.7863054539,
				"y": -1.8857287282,
				"z": 3.7212622683,
				"element": "H" 
			},
			{
				"x": 1.224368993,
				"y": -3.0827964364,
				"z": 4.5319473676,
				"element": "H" 
			},
			{
				"x": 3.4843046368,
				"y": -2.4800650469,
				"z": 3.6330990617,
				"element": "H" 
			}
		],
		 "valence_orbital": [ 
			{
				"type": "occ",
				"energy": -0.30742,
				"method": "rhf"
			},
			{
				"type": "occ",
				"energy": -0.28428,
				"method": "rhf"
			},
			{
				"type": "occ",
				"energy": -0.27504,
				"method": "rhf"
			},
			{
				"type": "occ",
				"energy": -0.26332,
				"method": "rhf"
			},
			{
				"type": "occ",
				"energy": -0.24406,
				"method": "rhf"
			},
			{
				"type": "unocc",
				"energy": -0.06011,
				"method": "rhf"
			},
			{
				"type": "unocc",
				"energy": -0.03474,
				"method": "rhf"
			},
			{
				"type": "unocc",
				"energy": 0.01231,
				"method": "rhf"
			},
			{
				"type": "unocc",
				"energy": 0.02399,
				"method": "rhf"
			},
			{
				"type": "unocc",
				"energy": 0.04514,
				"method": "rhf"
			}
		],
		"cosmo_sigma_profile": { 
			"-0.025": 0.0,
			"-0.024": 0.0,
			"-0.023": 0.0,
			"-0.022": 0.0,
			"-0.021": 0.0,
			"-0.02": 0.0,
			"-0.019": 0.0,
			"-0.018": 0.0,
			"-0.017": 0.0,
			"-0.016": 0.0,
			"-0.015": 0.130278754081,
			"-0.014": 1.07776757085,
			"-0.013": 2.02414348533,
			"-0.012": 3.02765484475,
			"-0.011": 3.32974749445,
			"-0.01": 4.24050575483,
			"-0.009": 4.68197008306,
			"-0.008": 5.0243679369,
			"-0.007": 8.03549690213,
			"-0.006": 10.8487273909,
			"-0.005": 9.88778247778,
			"-0.004": 10.4954020483,
			"-0.003": 22.0153368739,
			"-0.002": 31.1342055973,
			"-0.001": 31.8029323102,
			"0.0": 32.9897606015,
			"0.001": 27.1907066231,
			"0.002": 16.8969489656,
			"0.003": 12.2445905995,
			"0.004": 5.6025576396,
			"0.005": 2.97017428102,
			"0.006": 4.49202409382,
			"0.007": 3.75991943435,
			"0.008": 4.06619031962,
			"0.009": 4.719461533,
			"0.01": 6.45497169054,
			"0.011": 6.98663238048,
			"0.012": 6.785001461,
			"0.013": 5.86669328772,
			"0.014": 2.93947143755,
			"0.015": 0.0517225967585,
			"0.016": 0.0,
			"0.017": 0.0,
			"0.018": 0.0,
			"0.019": 0.0,
			"0.02": 0.0,
			"0.021": 0.0,
			"0.022": 0.0,
			"0.023": 0.0,
			"0.024": 0.0,
			"0.025": 0.0
		}
	}
}
