{
	 "smiles": "ClP1OC(=O)C2=CC=CC=C2O1", 
	 "Tm": 311.15, 
	 "num_atms": 16, 
	 "gaussian": { 
		 "optdone": 1, 
		 "sigma_profile": "yes", 
		 "theory": "DFT", 
		 "functional": "B3LYP", 
		 "basiset": "6-31G**", 
		 "properties": { 
			 "R2extent": 2811.3245, 
			 "electric_dipole_moment_norm": 4.20996624927, 
			 "electric_quadrupole_moment_norm": 7.33929604594, 
			 "total_energy": -1296.43134065, 
			 "HOMO_LUMO_gap": 0.19241, 
			 "cosmo_polarized_energy": -8.49, 
			 "cosmo_cavitation_energy": 23.72, 
			 "cosmo_dispersion_energy": -19.19, 
			 "cosmo_repulsion_energy": 1.78, 
			 "cosmo_total_nonelectrostatic_energy": 6.31, 
			 "SMD_solvation_energy": 5.18 
		},
		"coords": [
			{
				"x": 1.7049814109,
				"y": -2.9012819658,
				"z": 1.9468119401,
				"element": "Cl" 
			},
			{
				"x": 1.5380819301,
				"y": -2.6618296942,
				"z": -0.1592648601,
				"element": "P" 
			},
			{
				"x": 2.3142114972,
				"y": -1.2136911221,
				"z": -0.3480104414,
				"element": "O" 
			},
			{
				"x": 1.8479752821,
				"y": 0.0485124212,
				"z": 0.0386546478,
				"element": "C" 
			},
			{
				"x": 2.6244706155,
				"y": 0.9651485015,
				"z": 0.0567957329,
				"element": "O" 
			},
			{
				"x": 0.4051200597,
				"y": 0.1359084969,
				"z": 0.3447205745,
				"element": "C" 
			},
			{
				"x": -0.1124516725,
				"y": 1.3646506253,
				"z": 0.7865965135,
				"element": "C" 
			},
			{
				"x": -1.468768269,
				"y": 1.5090044972,
				"z": 1.0462848215,
				"element": "C" 
			},
			{
				"x": -2.3303668513,
				"y": 0.420413775,
				"z": 0.8608461324,
				"element": "C" 
			},
			{
				"x": -1.8403742965,
				"y": -0.8074854277,
				"z": 0.4241233003,
				"element": "C" 
			},
			{
				"x": -0.4766175115,
				"y": -0.9459459684,
				"z": 0.1724454672,
				"element": "C" 
			},
			{
				"x": -0.0397620524,
				"y": -2.1738525224,
				"z": -0.2815782071,
				"element": "O" 
			},
			{
				"x": 0.5794475101,
				"y": 2.190545008,
				"z": 0.9102126186,
				"element": "H" 
			},
			{
				"x": -1.8590756901,
				"y": 2.4619017607,
				"z": 1.3879667914,
				"element": "H" 
			},
			{
				"x": -3.39208191,
				"y": 0.5280136633,
				"z": 1.0614613644,
				"element": "H" 
			},
			{
				"x": -2.4893900521,
				"y": -1.6638120485,
				"z": 0.2788336041,
				"element": "H" 
			}
		],
		 "valence_orbital": [ 
			{
				"type": "occ",
				"energy": -0.32601,
				"method": "rhf"
			},
			{
				"type": "occ",
				"energy": -0.31866,
				"method": "rhf"
			},
			{
				"type": "occ",
				"energy": -0.28743,
				"method": "rhf"
			},
			{
				"type": "occ",
				"energy": -0.28514,
				"method": "rhf"
			},
			{
				"type": "occ",
				"energy": -0.26688,
				"method": "rhf"
			},
			{
				"type": "unocc",
				"energy": -0.07447,
				"method": "rhf"
			},
			{
				"type": "unocc",
				"energy": -0.04239,
				"method": "rhf"
			},
			{
				"type": "unocc",
				"energy": -0.02694,
				"method": "rhf"
			},
			{
				"type": "unocc",
				"energy": -0.01308,
				"method": "rhf"
			},
			{
				"type": "unocc",
				"energy": 0.03544,
				"method": "rhf"
			}
		],
		"cosmo_sigma_profile": { 
			"-0.025": 0.0,
			"-0.024": 0.0,
			"-0.023": 0.0,
			"-0.022": 0.0,
			"-0.021": 0.0,
			"-0.02": 0.0,
			"-0.019": 0.0,
			"-0.018": 0.0,
			"-0.017": 0.0,
			"-0.016": 0.0,
			"-0.015": 0.0,
			"-0.014": 0.0,
			"-0.013": 0.0,
			"-0.012": 0.0,
			"-0.011": 0.0,
			"-0.01": 0.120732978254,
			"-0.009": 0.676014156237,
			"-0.008": 4.08982469353,
			"-0.007": 10.2454318142,
			"-0.006": 12.4909809657,
			"-0.005": 11.0891644176,
			"-0.004": 10.0871828666,
			"-0.003": 12.8865882463,
			"-0.002": 12.0658620811,
			"-0.001": 13.4810238206,
			"0.0": 18.4051593808,
			"0.001": 20.1510233073,
			"0.002": 18.6388499539,
			"0.003": 11.0175414711,
			"0.004": 11.6995645962,
			"0.005": 9.91341385934,
			"0.006": 3.46931532293,
			"0.007": 2.2553569378,
			"0.008": 3.45777143407,
			"0.009": 3.81468102091,
			"0.01": 5.0159357753,
			"0.011": 1.8732101388,
			"0.012": 0.0766102512771,
			"0.013": 0.0,
			"0.014": 0.0,
			"0.015": 0.0,
			"0.016": 0.0,
			"0.017": 0.0,
			"0.018": 0.0,
			"0.019": 0.0,
			"0.02": 0.0,
			"0.021": 0.0,
			"0.022": 0.0,
			"0.023": 0.0,
			"0.024": 0.0,
			"0.025": 0.0
		}
	}
}
