{
	 "smiles": "CC1CC(CC(=O)N1)C(O)=O", 
	 "Tm": 433.15, 
	 "num_atms": 22, 
	 "gaussian": { 
		 "optdone": 1, 
		 "sigma_profile": "yes", 
		 "theory": "DFT", 
		 "functional": "B3LYP", 
		 "basiset": "6-31G**", 
		 "properties": { 
			 "R2extent": 1889.938, 
			 "electric_dipole_moment_norm": 5.15513685948, 
			 "electric_quadrupole_moment_norm": 15.9715524355, 
			 "total_energy": -553.835491226, 
			 "HOMO_LUMO_gap": 0.23194, 
			 "cosmo_polarized_energy": -18.21, 
			 "cosmo_cavitation_energy": 24.27, 
			 "cosmo_dispersion_energy": -17.66, 
			 "cosmo_repulsion_energy": 1.43, 
			 "cosmo_total_nonelectrostatic_energy": 8.04, 
			 "SMD_solvation_energy": 5.04 
		},
		"coords": [
			{
				"x": -0.759194661,
				"y": 1.0452918662,
				"z": -0.5994138266,
				"element": "C" 
			},
			{
				"x": -0.8194389267,
				"y": 0.4055686624,
				"z": 0.7988714044,
				"element": "C" 
			},
			{
				"x": -0.743427366,
				"y": -1.1309097901,
				"z": 0.8019130333,
				"element": "C" 
			},
			{
				"x": 0.6922417145,
				"y": -1.6791657742,
				"z": 0.6522657111,
				"element": "C" 
			},
			{
				"x": 1.602694048,
				"y": -1.0933429184,
				"z": 1.739284223,
				"element": "C" 
			},
			{
				"x": 1.4144825564,
				"y": 0.3914604161,
				"z": 2.0363251044,
				"element": "C" 
			},
			{
				"x": 2.265799122,
				"y": 1.0320211389,
				"z": 2.6377963878,
				"element": "O" 
			},
			{
				"x": 0.2163540107,
				"y": 0.9552321817,
				"z": 1.6770837115,
				"element": "N" 
			},
			{
				"x": 1.2644823323,
				"y": -1.4694681221,
				"z": -0.7419943381,
				"element": "C" 
			},
			{
				"x": 0.5021998823,
				"y": -2.0776989775,
				"z": -1.6857331589,
				"element": "O" 
			},
			{
				"x": 2.2769450365,
				"y": -0.8647188441,
				"z": -1.0187602647,
				"element": "O" 
			},
			{
				"x": -0.9088758581,
				"y": 2.1275968375,
				"z": -0.5230894129,
				"element": "H" 
			},
			{
				"x": -1.5460712444,
				"y": 0.6435839931,
				"z": -1.2464689711,
				"element": "H" 
			},
			{
				"x": 0.210877887,
				"y": 0.8837176191,
				"z": -1.0753859122,
				"element": "H" 
			},
			{
				"x": -1.7904975247,
				"y": 0.6731666428,
				"z": 1.2377789045,
				"element": "H" 
			},
			{
				"x": -1.3901258945,
				"y": -1.5294101013,
				"z": 0.0160434655,
				"element": "H" 
			},
			{
				"x": -1.1315659901,
				"y": -1.4953669419,
				"z": 1.7597258894,
				"element": "H" 
			},
			{
				"x": 0.6371790944,
				"y": -2.7690820905,
				"z": 0.7712937589,
				"element": "H" 
			},
			{
				"x": 2.6571603312,
				"y": -1.2331481607,
				"z": 1.4966100957,
				"element": "H" 
			},
			{
				"x": 1.4166262891,
				"y": -1.6184033978,
				"z": 2.6840409111,
				"element": "H" 
			},
			{
				"x": 0.1757201429,
				"y": 1.9463765067,
				"z": 1.8824412756,
				"element": "H" 
			},
			{
				"x": 0.9405350181,
				"y": -1.9091007459,
				"z": -2.5368279917,
				"element": "H" 
			}
		],
		 "valence_orbital": [ 
			{
				"type": "occ",
				"energy": -0.33932,
				"method": "rhf"
			},
			{
				"type": "occ",
				"energy": -0.32683,
				"method": "rhf"
			},
			{
				"type": "occ",
				"energy": -0.28227,
				"method": "rhf"
			},
			{
				"type": "occ",
				"energy": -0.24461,
				"method": "rhf"
			},
			{
				"type": "occ",
				"energy": -0.23607,
				"method": "rhf"
			},
			{
				"type": "unocc",
				"energy": -0.00413,
				"method": "rhf"
			},
			{
				"type": "unocc",
				"energy": 0.03599,
				"method": "rhf"
			},
			{
				"type": "unocc",
				"energy": 0.05986,
				"method": "rhf"
			},
			{
				"type": "unocc",
				"energy": 0.07449,
				"method": "rhf"
			},
			{
				"type": "unocc",
				"energy": 0.10828,
				"method": "rhf"
			}
		],
		"cosmo_sigma_profile": { 
			"-0.025": 0.0,
			"-0.024": 0.0,
			"-0.023": 0.0,
			"-0.022": 0.0,
			"-0.021": 0.0,
			"-0.02": 0.0,
			"-0.019": 0.0405440061491,
			"-0.018": 0.820641277555,
			"-0.017": 0.827559204241,
			"-0.016": 0.712445659692,
			"-0.015": 1.23821785061,
			"-0.014": 0.268456043744,
			"-0.013": 1.33669739358,
			"-0.012": 1.70826071229,
			"-0.011": 2.2482576019,
			"-0.01": 1.45263213337,
			"-0.009": 1.44643869167,
			"-0.008": 1.45710055242,
			"-0.007": 4.52595649629,
			"-0.006": 9.68473416652,
			"-0.005": 15.1723345344,
			"-0.004": 19.802056064,
			"-0.003": 16.7963556607,
			"-0.002": 15.517335459,
			"-0.001": 12.8503796705,
			"0.0": 11.9665568141,
			"0.001": 7.96785150176,
			"0.002": 6.30907608732,
			"0.003": 4.96110374262,
			"0.004": 5.43869258857,
			"0.005": 3.87694999565,
			"0.006": 4.73047201484,
			"0.007": 3.52855356487,
			"0.008": 3.3791752481,
			"0.009": 4.41732589549,
			"0.01": 2.71976686078,
			"0.011": 5.48639104499,
			"0.012": 4.02489976816,
			"0.013": 1.79787150946,
			"0.014": 6.47696918791,
			"0.015": 3.54006289903,
			"0.016": 0.348941879611,
			"0.017": 0.0,
			"0.018": 0.0,
			"0.019": 0.0,
			"0.02": 0.0,
			"0.021": 0.0,
			"0.022": 0.0,
			"0.023": 0.0,
			"0.024": 0.0,
			"0.025": 0.0
		}
	}
}
