{
	 "smiles": "CC(C(O)=O)C1=CC2=C(OCCO2)C=C1", 
	 "Tm": 351.15, 
	 "num_atms": 27, 
	 "gaussian": { 
		 "optdone": 1, 
		 "sigma_profile": "yes", 
		 "theory": "DFT", 
		 "functional": "B3LYP", 
		 "basiset": "6-31G**", 
		 "properties": { 
			 "R2extent": 3799.557, 
			 "electric_dipole_moment_norm": 5.76530332333, 
			 "electric_quadrupole_moment_norm": 13.3030857266, 
			 "total_energy": -727.293802986, 
			 "HOMO_LUMO_gap": 0.20556, 
			 "cosmo_polarized_energy": -15.52, 
			 "cosmo_cavitation_energy": 30.15, 
			 "cosmo_dispersion_energy": -22.06, 
			 "cosmo_repulsion_energy": 1.74, 
			 "cosmo_total_nonelectrostatic_energy": 9.83, 
			 "SMD_solvation_energy": 6.59 
		},
		"coords": [
			{
				"x": -1.9269390107,
				"y": 0.7071114578,
				"z": 2.8150110544,
				"element": "C" 
			},
			{
				"x": -2.0230959594,
				"y": -0.2027562123,
				"z": 1.5829333017,
				"element": "C" 
			},
			{
				"x": -2.8841280453,
				"y": 0.4580004249,
				"z": 0.4868865886,
				"element": "C" 
			},
			{
				"x": -2.8153196597,
				"y": -0.1220790718,
				"z": -0.7362433289,
				"element": "O" 
			},
			{
				"x": -3.6188825753,
				"y": 1.3952392053,
				"z": 0.6795325195,
				"element": "O" 
			},
			{
				"x": -0.6744901676,
				"y": -0.6706847065,
				"z": 1.0516243251,
				"element": "C" 
			},
			{
				"x": 0.2969946792,
				"y": 0.2567913513,
				"z": 0.6486974512,
				"element": "C" 
			},
			{
				"x": 1.5310255254,
				"y": -0.1648067139,
				"z": 0.1596215472,
				"element": "C" 
			},
			{
				"x": 1.8100489236,
				"y": -1.5407096079,
				"z": 0.0451945226,
				"element": "C" 
			},
			{
				"x": 3.0037442956,
				"y": -1.9990227222,
				"z": -0.4504356656,
				"element": "O" 
			},
			{
				"x": 3.7592133475,
				"y": -1.0085258576,
				"z": -1.1506719862,
				"element": "C" 
			},
			{
				"x": 3.774687792,
				"y": 0.2911601779,
				"z": -0.3634993268,
				"element": "C" 
			},
			{
				"x": 2.4444447676,
				"y": 0.7891770673,
				"z": -0.209214718,
				"element": "O" 
			},
			{
				"x": 0.8527967645,
				"y": -2.4688644011,
				"z": 0.4486548114,
				"element": "C" 
			},
			{
				"x": -0.3757157312,
				"y": -2.03795658,
				"z": 0.9506357481,
				"element": "C" 
			},
			{
				"x": -1.3793463637,
				"y": 1.6256922233,
				"z": 2.5871080045,
				"element": "H" 
			},
			{
				"x": -2.9255511004,
				"y": 0.9951511805,
				"z": 3.1487761506,
				"element": "H" 
			},
			{
				"x": -1.4091335291,
				"y": 0.1903587557,
				"z": 3.6275761371,
				"element": "H" 
			},
			{
				"x": -2.5870059263,
				"y": -1.1033268489,
				"z": 1.8674946191,
				"element": "H" 
			},
			{
				"x": -2.1183234042,
				"y": -0.7980314968,
				"z": -0.7283521694,
				"element": "H" 
			},
			{
				"x": 0.1173004185,
				"y": 1.3258250385,
				"z": 0.7113655073,
				"element": "H" 
			},
			{
				"x": 3.3219781987,
				"y": -0.8398428631,
				"z": -2.1440882986,
				"element": "H" 
			},
			{
				"x": 4.7669062287,
				"y": -1.4142356792,
				"z": -1.2689029114,
				"element": "H" 
			},
			{
				"x": 4.2276045642,
				"y": 0.1263260505,
				"z": 0.6235030364,
				"element": "H" 
			},
			{
				"x": 4.3364903947,
				"y": 1.0675557651,
				"z": -0.8884226499,
				"element": "H" 
			},
			{
				"x": 1.0884791162,
				"y": -3.5244379958,
				"z": 0.3600093849,
				"element": "H" 
			},
			{
				"x": -1.1068835436,
				"y": -2.7748079409,
				"z": 1.2723063452,
				"element": "H" 
			}
		],
		 "valence_orbital": [ 
			{
				"type": "occ",
				"energy": -0.31507,
				"method": "rhf"
			},
			{
				"type": "occ",
				"energy": -0.30598,
				"method": "rhf"
			},
			{
				"type": "occ",
				"energy": -0.26556,
				"method": "rhf"
			},
			{
				"type": "occ",
				"energy": -0.24551,
				"method": "rhf"
			},
			{
				"type": "occ",
				"energy": -0.22256,
				"method": "rhf"
			},
			{
				"type": "unocc",
				"energy": -0.017,
				"method": "rhf"
			},
			{
				"type": "unocc",
				"energy": -0.00414,
				"method": "rhf"
			},
			{
				"type": "unocc",
				"energy": 0.01898,
				"method": "rhf"
			},
			{
				"type": "unocc",
				"energy": 0.07471,
				"method": "rhf"
			},
			{
				"type": "unocc",
				"energy": 0.08818,
				"method": "rhf"
			}
		],
		"cosmo_sigma_profile": { 
			"-0.025": 0.0,
			"-0.024": 0.0,
			"-0.023": 0.0,
			"-0.022": 0.0,
			"-0.021": 0.0,
			"-0.02": 0.0,
			"-0.019": 0.0,
			"-0.018": 0.0,
			"-0.017": 0.0,
			"-0.016": 0.0,
			"-0.015": 0.0830745645187,
			"-0.014": 0.310914129567,
			"-0.013": 0.781532609411,
			"-0.012": 0.578487234829,
			"-0.011": 1.32083493142,
			"-0.01": 1.28198799892,
			"-0.009": 1.50745020003,
			"-0.008": 2.60025922341,
			"-0.007": 13.5290625912,
			"-0.006": 21.1022416855,
			"-0.005": 17.7981111437,
			"-0.004": 18.038520556,
			"-0.003": 16.2330125579,
			"-0.002": 15.3337719242,
			"-0.001": 12.7332960891,
			"0.0": 15.1014879785,
			"0.001": 14.1555760558,
			"0.002": 11.3198464397,
			"0.003": 13.0799466787,
			"0.004": 10.6495782852,
			"0.005": 8.44580669075,
			"0.006": 5.64059566816,
			"0.007": 4.55072744273,
			"0.008": 4.33619757914,
			"0.009": 6.4934874312,
			"0.01": 8.11754798609,
			"0.011": 5.48399594106,
			"0.012": 5.66510241229,
			"0.013": 1.9172282822,
			"0.014": 0.10975010482,
			"0.015": 0.0,
			"0.016": 0.0,
			"0.017": 0.0,
			"0.018": 0.0,
			"0.019": 0.0,
			"0.02": 0.0,
			"0.021": 0.0,
			"0.022": 0.0,
			"0.023": 0.0,
			"0.024": 0.0,
			"0.025": 0.0
		}
	}
}
