{
	 "smiles": "CC(N)(C(O)=O)C1=CC=C(Cl)C=C1", 
	 "Tm": 571.15, 
	 "num_atms": 23, 
	 "gaussian": { 
		 "optdone": 1, 
		 "sigma_profile": "yes", 
		 "theory": "DFT", 
		 "functional": "B3LYP", 
		 "basiset": "6-31G**", 
		 "properties": { 
			 "R2extent": 3306.2234, 
			 "electric_dipole_moment_norm": 1.69064503962, 
			 "electric_quadrupole_moment_norm": 12.2867089861, 
			 "total_energy": -1014.3894714, 
			 "HOMO_LUMO_gap": 0.22127, 
			 "cosmo_polarized_energy": -12.83, 
			 "cosmo_cavitation_energy": 28.39, 
			 "cosmo_dispersion_energy": -20.39, 
			 "cosmo_repulsion_energy": 1.62, 
			 "cosmo_total_nonelectrostatic_energy": 9.62, 
			 "SMD_solvation_energy": 4.98 
		},
		"coords": [
			{
				"x": -2.5810590806,
				"y": 1.7679878889,
				"z": -1.0252147835,
				"element": "C" 
			},
			{
				"x": -2.1866548757,
				"y": 0.4651349722,
				"z": -0.307231138,
				"element": "C" 
			},
			{
				"x": -3.0751070201,
				"y": 0.2996296339,
				"z": 0.8430290585,
				"element": "N" 
			},
			{
				"x": -2.4268902421,
				"y": -0.7230806314,
				"z": -1.2548093144,
				"element": "C" 
			},
			{
				"x": -2.5560798025,
				"y": -1.8889856787,
				"z": -0.582043294,
				"element": "O" 
			},
			{
				"x": -2.4511119539,
				"y": -0.6625670396,
				"z": -2.464204494,
				"element": "O" 
			},
			{
				"x": -0.6679181047,
				"y": 0.4766448365,
				"z": 0.00766156,
				"element": "C" 
			},
			{
				"x": 0.2708335059,
				"y": 0.4956495865,
				"z": -1.0359057593,
				"element": "C" 
			},
			{
				"x": 1.6388970097,
				"y": 0.5362394293,
				"z": -0.7765022135,
				"element": "C" 
			},
			{
				"x": 2.0804940121,
				"y": 0.559893822,
				"z": 0.5466743233,
				"element": "C" 
			},
			{
				"x": 3.8048081813,
				"y": 0.6142455029,
				"z": 0.8849675852,
				"element": "Cl" 
			},
			{
				"x": 1.1726819348,
				"y": 0.5366332656,
				"z": 1.6017738126,
				"element": "C" 
			},
			{
				"x": -0.1947767859,
				"y": 0.4911210728,
				"z": 1.3224860215,
				"element": "C" 
			},
			{
				"x": -2.3683188488,
				"y": 2.6224120845,
				"z": -0.37487007,
				"element": "H" 
			},
			{
				"x": -2.0252789833,
				"y": 1.892920497,
				"z": -1.9547278508,
				"element": "H" 
			},
			{
				"x": -3.6493400473,
				"y": 1.7541783402,
				"z": -1.2532401421,
				"element": "H" 
			},
			{
				"x": -2.8630054584,
				"y": -0.5530806098,
				"z": 1.3521203364,
				"element": "H" 
			},
			{
				"x": -2.9787601977,
				"y": 1.0857559511,
				"z": 1.4793230195,
				"element": "H" 
			},
			{
				"x": -2.6741578157,
				"y": -2.5806507619,
				"z": -1.2545055871,
				"element": "H" 
			},
			{
				"x": -0.0687684928,
				"y": 0.4658264873,
				"z": -2.0669292241,
				"element": "H" 
			},
			{
				"x": 2.356152538,
				"y": 0.5483261436,
				"z": -1.5898504387,
				"element": "H" 
			},
			{
				"x": 1.5275391088,
				"y": 0.550587362,
				"z": 2.6264918738,
				"element": "H" 
			},
			{
				"x": -0.8959785811,
				"y": 0.4659778449,
				"z": 2.1501067187,
				"element": "H" 
			}
		],
		 "valence_orbital": [ 
			{
				"type": "occ",
				"energy": -0.31388,
				"method": "rhf"
			},
			{
				"type": "occ",
				"energy": -0.28703,
				"method": "rhf"
			},
			{
				"type": "occ",
				"energy": -0.26721,
				"method": "rhf"
			},
			{
				"type": "occ",
				"energy": -0.2524,
				"method": "rhf"
			},
			{
				"type": "occ",
				"energy": -0.24405,
				"method": "rhf"
			},
			{
				"type": "unocc",
				"energy": -0.02278,
				"method": "rhf"
			},
			{
				"type": "unocc",
				"energy": -0.02004,
				"method": "rhf"
			},
			{
				"type": "unocc",
				"energy": 0.01136,
				"method": "rhf"
			},
			{
				"type": "unocc",
				"energy": 0.0281,
				"method": "rhf"
			},
			{
				"type": "unocc",
				"energy": 0.0663,
				"method": "rhf"
			}
		],
		"cosmo_sigma_profile": { 
			"-0.025": 0.0,
			"-0.024": 0.0,
			"-0.023": 0.0,
			"-0.022": 0.0,
			"-0.021": 0.0,
			"-0.02": 0.0,
			"-0.019": 0.233053948944,
			"-0.018": 0.974520198202,
			"-0.017": 0.764534067515,
			"-0.016": 1.08955076973,
			"-0.015": 0.924915360168,
			"-0.014": 0.314257208081,
			"-0.013": 0.371960065782,
			"-0.012": 0.935272169516,
			"-0.011": 1.46338121963,
			"-0.01": 2.44604651474,
			"-0.009": 3.81959898656,
			"-0.008": 5.14855145899,
			"-0.007": 8.47516647954,
			"-0.006": 9.05690496948,
			"-0.005": 9.95325365862,
			"-0.004": 11.3645443563,
			"-0.003": 11.8200899483,
			"-0.002": 13.8261445982,
			"-0.001": 15.3813378389,
			"0.0": 18.1762942768,
			"0.001": 15.9384904342,
			"0.002": 19.0487162269,
			"0.003": 19.4771987739,
			"0.004": 19.5554582602,
			"0.005": 11.2252165961,
			"0.006": 3.67651440202,
			"0.007": 3.57707929873,
			"0.008": 2.7490279382,
			"0.009": 2.43038417407,
			"0.01": 2.05527849834,
			"0.011": 4.96981854145,
			"0.012": 2.80826043931,
			"0.013": 0.815771231795,
			"0.014": 0.34524384041,
			"0.015": 0.678435927617,
			"0.016": 0.418864930786,
			"0.017": 0.433418173534,
			"0.018": 0.022362880388,
			"0.019": 0.0,
			"0.02": 0.0,
			"0.021": 0.0,
			"0.022": 0.0,
			"0.023": 0.0,
			"0.024": 0.0,
			"0.025": 0.0
		}
	}
}
