{
	 "smiles": "O=C1OC(=O)C2=CC3=C(C=C12)C(=O)OC3=O", 
	 "Tm": 558.15, 
	 "num_atms": 18, 
	 "gaussian": { 
		 "optdone": 1, 
		 "sigma_profile": "yes", 
		 "theory": "DFT", 
		 "functional": "B3LYP", 
		 "basiset": "6-31G**", 
		 "properties": { 
			 "R2extent": 3607.5681, 
			 "electric_dipole_moment_norm": 0.000848528137424, 
			 "electric_quadrupole_moment_norm": 22.0261331842, 
			 "total_energy": -833.632862786, 
			 "HOMO_LUMO_gap": 0.17067, 
			 "cosmo_polarized_energy": -16.89, 
			 "cosmo_cavitation_energy": 25.95, 
			 "cosmo_dispersion_energy": -18.94, 
			 "cosmo_repulsion_energy": 1.43, 
			 "cosmo_total_nonelectrostatic_energy": 8.44, 
			 "SMD_solvation_energy": 8.33 
		},
		"coords": [
			{
				"x": 3.5078687099,
				"y": -0.9253100873,
				"z": -1.0465039745,
				"element": "O" 
			},
			{
				"x": 2.8526419536,
				"y": -0.1190381734,
				"z": -0.4525374601,
				"element": "C" 
			},
			{
				"x": 3.3665126647,
				"y": 1.1077334811,
				"z": -0.0263827913,
				"element": "O" 
			},
			{
				"x": 2.3857579313,
				"y": 1.847277581,
				"z": 0.6383263126,
				"element": "C" 
			},
			{
				"x": 2.5914568441,
				"y": 2.9342642656,
				"z": 1.0947696436,
				"element": "O" 
			},
			{
				"x": 1.1423827128,
				"y": 1.0276458519,
				"z": 0.63780799,
				"element": "C" 
			},
			{
				"x": -0.1112202089,
				"y": 1.3154700039,
				"z": 1.1718268346,
				"element": "C" 
			},
			{
				"x": -1.0579003911,
				"y": 0.310576135,
				"z": 0.9887121012,
				"element": "C" 
			},
			{
				"x": -0.7736727704,
				"y": -0.8864884908,
				"z": 0.3246177452,
				"element": "C" 
			},
			{
				"x": 0.4799243682,
				"y": -1.1743029875,
				"z": -0.2094187537,
				"element": "C" 
			},
			{
				"x": 1.4266106856,
				"y": -0.1694187212,
				"z": -0.0262861433,
				"element": "C" 
			},
			{
				"x": -2.0170527366,
				"y": -1.7061182044,
				"z": 0.3240987475,
				"element": "C" 
			},
			{
				"x": -2.2228000413,
				"y": -2.7930138282,
				"z": -0.1325462278,
				"element": "O" 
			},
			{
				"x": -2.9978543281,
				"y": -0.966502823,
				"z": 0.9886283917,
				"element": "O" 
			},
			{
				"x": -2.4839283858,
				"y": 0.2601986724,
				"z": 1.4149618392,
				"element": "C" 
			},
			{
				"x": -3.1392278965,
				"y": 1.06655468,
				"z": 2.008729285,
				"element": "O" 
			},
			{
				"x": -0.3316770565,
				"y": 2.2441010479,
				"z": 1.6869866131,
				"element": "H" 
			},
			{
				"x": 0.700377945,
				"y": -2.1029284028,
				"z": -0.7245901531,
				"element": "H" 
			}
		],
		 "valence_orbital": [ 
			{
				"type": "occ",
				"energy": -0.33782,
				"method": "rhf"
			},
			{
				"type": "occ",
				"energy": -0.33212,
				"method": "rhf"
			},
			{
				"type": "occ",
				"energy": -0.33158,
				"method": "rhf"
			},
			{
				"type": "occ",
				"energy": -0.31936,
				"method": "rhf"
			},
			{
				"type": "occ",
				"energy": -0.31506,
				"method": "rhf"
			},
			{
				"type": "unocc",
				"energy": -0.14439,
				"method": "rhf"
			},
			{
				"type": "unocc",
				"energy": -0.11055,
				"method": "rhf"
			},
			{
				"type": "unocc",
				"energy": -0.08095,
				"method": "rhf"
			},
			{
				"type": "unocc",
				"energy": 0.01496,
				"method": "rhf"
			},
			{
				"type": "unocc",
				"energy": 0.02997,
				"method": "rhf"
			}
		],
		"cosmo_sigma_profile": { 
			"-0.025": 0.0,
			"-0.024": 0.0,
			"-0.023": 0.0,
			"-0.022": 0.0,
			"-0.021": 0.0,
			"-0.02": 0.0,
			"-0.019": 0.0,
			"-0.018": 0.0,
			"-0.017": 0.0,
			"-0.016": 0.0,
			"-0.015": 0.0,
			"-0.014": 0.0,
			"-0.013": 0.0,
			"-0.012": 0.351923932725,
			"-0.011": 4.38742061998,
			"-0.01": 6.25939496981,
			"-0.009": 6.20095830173,
			"-0.008": 8.12345387838,
			"-0.007": 10.1885695009,
			"-0.006": 14.479111144,
			"-0.005": 21.2510391084,
			"-0.004": 15.0513029699,
			"-0.003": 9.05549072413,
			"-0.002": 6.56126274173,
			"-0.001": 4.751501774,
			"0.0": 5.49545221851,
			"0.001": 7.40582226857,
			"0.002": 5.19820034484,
			"0.003": 6.47529731405,
			"0.004": 8.88562639677,
			"0.005": 11.2899304515,
			"0.006": 11.7569569791,
			"0.007": 12.8852821759,
			"0.008": 15.6152311647,
			"0.009": 18.0367037252,
			"0.01": 2.63306195304,
			"0.011": 0.0,
			"0.012": 0.0,
			"0.013": 0.0,
			"0.014": 0.0,
			"0.015": 0.0,
			"0.016": 0.0,
			"0.017": 0.0,
			"0.018": 0.0,
			"0.019": 0.0,
			"0.02": 0.0,
			"0.021": 0.0,
			"0.022": 0.0,
			"0.023": 0.0,
			"0.024": 0.0,
			"0.025": 0.0
		}
	}
}
