{
	 "smiles": "CC1=C(C)C=C(C=C1)C(=O)C(=O)C1=CC=CC=C1", 
	 "Tm": 337.15, 
	 "num_atms": 32, 
	 "gaussian": { 
		 "optdone": 1, 
		 "sigma_profile": "yes", 
		 "theory": "DFT", 
		 "functional": "B3LYP", 
		 "basiset": "6-31G**", 
		 "properties": { 
			 "R2extent": 6723.765, 
			 "electric_dipole_moment_norm": 3.19951271446, 
			 "electric_quadrupole_moment_norm": 22.8045131123, 
			 "total_energy": -768.595022098, 
			 "HOMO_LUMO_gap": 0.15171, 
			 "cosmo_polarized_energy": -10.34, 
			 "cosmo_cavitation_energy": 36.31, 
			 "cosmo_dispersion_energy": -25.85, 
			 "cosmo_repulsion_energy": 1.98, 
			 "cosmo_total_nonelectrostatic_energy": 12.43, 
			 "SMD_solvation_energy": 7.07 
		},
		"coords": [
			{
				"x": 4.3017202433,
				"y": -1.8752067595,
				"z": -2.1100389303,
				"element": "C" 
			},
			{
				"x": 3.0284020779,
				"y": -1.0694287408,
				"z": -2.0454156789,
				"element": "C" 
			},
			{
				"x": 2.7265641352,
				"y": -0.284383428,
				"z": -0.91025527,
				"element": "C" 
			},
			{
				"x": 3.672267029,
				"y": -0.229121718,
				"z": 0.2661582514,
				"element": "C" 
			},
			{
				"x": 1.5389063136,
				"y": 0.449813683,
				"z": -0.8869706578,
				"element": "C" 
			},
			{
				"x": 0.6395417334,
				"y": 0.4246143331,
				"z": -1.9655772299,
				"element": "C" 
			},
			{
				"x": 0.9465504023,
				"y": -0.3596750178,
				"z": -3.0876538505,
				"element": "C" 
			},
			{
				"x": 2.1262440236,
				"y": -1.0909543364,
				"z": -3.1193291299,
				"element": "C" 
			},
			{
				"x": -0.6524482249,
				"y": 1.1566477898,
				"z": -1.9688926712,
				"element": "C" 
			},
			{
				"x": -1.4360961535,
				"y": 1.1069752601,
				"z": -2.909918564,
				"element": "O" 
			},
			{
				"x": -1.0132326092,
				"y": 2.077166263,
				"z": -0.7860651054,
				"element": "C" 
			},
			{
				"x": -0.1789921199,
				"y": 2.8938840253,
				"z": -0.4164063734,
				"element": "O" 
			},
			{
				"x": -2.3722524574,
				"y": 1.9994163664,
				"z": -0.1810460169,
				"element": "C" 
			},
			{
				"x": -2.6687343267,
				"y": 2.8996200803,
				"z": 0.8573146323,
				"element": "C" 
			},
			{
				"x": -3.9052123558,
				"y": 2.8597902816,
				"z": 1.4916384141,
				"element": "C" 
			},
			{
				"x": -4.8602638939,
				"y": 1.9161820498,
				"z": 1.0984549862,
				"element": "C" 
			},
			{
				"x": -4.5736491417,
				"y": 1.016850592,
				"z": 0.0695513785,
				"element": "C" 
			},
			{
				"x": -3.3360995093,
				"y": 1.054860641,
				"z": -0.5716213382,
				"element": "C" 
			},
			{
				"x": 4.359427669,
				"y": -2.6030934561,
				"z": -1.2916681134,
				"element": "H" 
			},
			{
				"x": 5.1873666497,
				"y": -1.2343631717,
				"z": -2.0217367714,
				"element": "H" 
			},
			{
				"x": 4.3765863475,
				"y": -2.4230210686,
				"z": -3.0526096082,
				"element": "H" 
			},
			{
				"x": 4.6588193955,
				"y": 0.1509085687,
				"z": -0.0254326221,
				"element": "H" 
			},
			{
				"x": 3.2837118192,
				"y": 0.4235500365,
				"z": 1.0517132484,
				"element": "H" 
			},
			{
				"x": 3.833534314,
				"y": -1.2217168276,
				"z": 0.7039756498,
				"element": "H" 
			},
			{
				"x": 1.3206927787,
				"y": 1.065575792,
				"z": -0.0221414892,
				"element": "H" 
			},
			{
				"x": 0.2475955796,
				"y": -0.3791204542,
				"z": -3.9169887979,
				"element": "H" 
			},
			{
				"x": 2.3601622694,
				"y": -1.6955947474,
				"z": -3.9918570678,
				"element": "H" 
			},
			{
				"x": -1.9097440441,
				"y": 3.6191787433,
				"z": 1.1458339009,
				"element": "H" 
			},
			{
				"x": -4.1282187041,
				"y": 3.5594539629,
				"z": 2.2918231305,
				"element": "H" 
			},
			{
				"x": -5.8265206398,
				"y": 1.8832360297,
				"z": 1.594036049,
				"element": "H" 
			},
			{
				"x": -5.3166876978,
				"y": 0.2869651218,
				"z": -0.2376640572,
				"element": "H" 
			},
			{
				"x": -3.1255409026,
				"y": 0.3681901061,
				"z": -1.3822102973,
				"element": "H" 
			}
		],
		 "valence_orbital": [ 
			{
				"type": "occ",
				"energy": -0.26253,
				"method": "rhf"
			},
			{
				"type": "occ",
				"energy": -0.25941,
				"method": "rhf"
			},
			{
				"type": "occ",
				"energy": -0.25435,
				"method": "rhf"
			},
			{
				"type": "occ",
				"energy": -0.24508,
				"method": "rhf"
			},
			{
				"type": "occ",
				"energy": -0.23194,
				"method": "rhf"
			},
			{
				"type": "unocc",
				"energy": -0.08023,
				"method": "rhf"
			},
			{
				"type": "unocc",
				"energy": -0.04873,
				"method": "rhf"
			},
			{
				"type": "unocc",
				"energy": -0.00852,
				"method": "rhf"
			},
			{
				"type": "unocc",
				"energy": -0.00347,
				"method": "rhf"
			},
			{
				"type": "unocc",
				"energy": 0.02293,
				"method": "rhf"
			}
		],
		"cosmo_sigma_profile": { 
			"-0.025": 0.0,
			"-0.024": 0.0,
			"-0.023": 0.0,
			"-0.022": 0.0,
			"-0.021": 0.0,
			"-0.02": 0.0,
			"-0.019": 0.0,
			"-0.018": 0.0,
			"-0.017": 0.0,
			"-0.016": 0.0,
			"-0.015": 0.0,
			"-0.014": 0.0,
			"-0.013": 0.0,
			"-0.012": 0.0,
			"-0.011": 0.0,
			"-0.01": 0.0,
			"-0.009": 0.0,
			"-0.008": 0.0,
			"-0.007": 2.34259357716,
			"-0.006": 12.888772298,
			"-0.005": 25.0116516343,
			"-0.004": 30.112644259,
			"-0.003": 22.5007227053,
			"-0.002": 22.2302763935,
			"-0.001": 27.8966681181,
			"0.0": 27.0827191215,
			"0.001": 22.0908135102,
			"0.002": 21.0939471278,
			"0.003": 25.6822301763,
			"0.004": 21.3316613657,
			"0.005": 4.14205914637,
			"0.006": 3.43203983895,
			"0.007": 2.83216810319,
			"0.008": 4.02662081391,
			"0.009": 3.13386321237,
			"0.01": 6.03015809336,
			"0.011": 5.87692286354,
			"0.012": 0.372772149426,
			"0.013": 0.0,
			"0.014": 0.0,
			"0.015": 0.0,
			"0.016": 0.0,
			"0.017": 0.0,
			"0.018": 0.0,
			"0.019": 0.0,
			"0.02": 0.0,
			"0.021": 0.0,
			"0.022": 0.0,
			"0.023": 0.0,
			"0.024": 0.0,
			"0.025": 0.0
		}
	}
}
