{
	 "smiles": "O=C1OC(=O)C2CC12", 
	 "Tm": 330.15, 
	 "num_atms": 12, 
	 "gaussian": { 
		 "optdone": 1, 
		 "sigma_profile": "yes", 
		 "theory": "DFT", 
		 "functional": "B3LYP", 
		 "basiset": "6-31G**", 
		 "properties": { 
			 "R2extent": 1691.9363, 
			 "electric_dipole_moment_norm": 4.73714641636, 
			 "electric_quadrupole_moment_norm": 11.9247200701, 
			 "total_energy": -418.591883227, 
			 "HOMO_LUMO_gap": 0.24222, 
			 "cosmo_polarized_energy": -12.52, 
			 "cosmo_cavitation_energy": 16.62, 
			 "cosmo_dispersion_energy": -12.63, 
			 "cosmo_repulsion_energy": 1.07, 
			 "cosmo_total_nonelectrostatic_energy": 5.07, 
			 "SMD_solvation_energy": 4.46 
		},
		"coords": [
			{
				"x": -3.1501745759,
				"y": -1.495170639,
				"z": 1.7237879326,
				"element": "O" 
			},
			{
				"x": -2.2373355048,
				"y": -1.5206196238,
				"z": 0.9505830757,
				"element": "C" 
			},
			{
				"x": -2.3841128725,
				"y": -2.0188052284,
				"z": -0.3479827682,
				"element": "O" 
			},
			{
				"x": -1.1388844119,
				"y": -2.1959370838,
				"z": -0.9595634951,
				"element": "C" 
			},
			{
				"x": -1.0189781842,
				"y": -2.805299489,
				"z": -1.9823395567,
				"element": "O" 
			},
			{
				"x": -0.0980794027,
				"y": -1.5269260057,
				"z": -0.1203296805,
				"element": "C" 
			},
			{
				"x": -0.357167038,
				"y": -0.0579263447,
				"z": 0.1243892901,
				"element": "C" 
			},
			{
				"x": -0.8194638379,
				"y": -1.0834281224,
				"z": 1.1341330647,
				"element": "C" 
			},
			{
				"x": 0.9120248292,
				"y": -1.9161596659,
				"z": -0.1436588299,
				"element": "H" 
			},
			{
				"x": -1.0928195733,
				"y": 0.4609451408,
				"z": -0.4820715359,
				"element": "H" 
			},
			{
				"x": 0.502637174,
				"y": 0.5397040099,
				"z": 0.4075636333,
				"element": "H" 
			},
			{
				"x": -0.3954466018,
				"y": -1.1123769481,
				"z": 2.1299888699,
				"element": "H" 
			}
		],
		 "valence_orbital": [ 
			{
				"type": "occ",
				"energy": -0.35604,
				"method": "rhf"
			},
			{
				"type": "occ",
				"energy": -0.34861,
				"method": "rhf"
			},
			{
				"type": "occ",
				"energy": -0.33545,
				"method": "rhf"
			},
			{
				"type": "occ",
				"energy": -0.30776,
				"method": "rhf"
			},
			{
				"type": "occ",
				"energy": -0.28654,
				"method": "rhf"
			},
			{
				"type": "unocc",
				"energy": -0.04432,
				"method": "rhf"
			},
			{
				"type": "unocc",
				"energy": -0.00084,
				"method": "rhf"
			},
			{
				"type": "unocc",
				"energy": 0.07252,
				"method": "rhf"
			},
			{
				"type": "unocc",
				"energy": 0.09647,
				"method": "rhf"
			},
			{
				"type": "unocc",
				"energy": 0.10727,
				"method": "rhf"
			}
		],
		"cosmo_sigma_profile": { 
			"-0.025": 0.0,
			"-0.024": 0.0,
			"-0.023": 0.0,
			"-0.022": 0.0,
			"-0.021": 0.0,
			"-0.02": 0.0,
			"-0.019": 0.0,
			"-0.018": 0.0,
			"-0.017": 0.0,
			"-0.016": 0.0,
			"-0.015": 0.0,
			"-0.014": 0.0,
			"-0.013": 0.0,
			"-0.012": 0.0,
			"-0.011": 0.0,
			"-0.01": 0.909349162075,
			"-0.009": 8.41023913182,
			"-0.008": 11.5636190536,
			"-0.007": 8.9472902874,
			"-0.006": 8.6667125854,
			"-0.005": 7.5638840049,
			"-0.004": 7.05500189409,
			"-0.003": 6.57210853371,
			"-0.002": 6.20621983386,
			"-0.001": 6.60712528711,
			"0.0": 5.10949559583,
			"0.001": 2.49669975058,
			"0.002": 2.77995044251,
			"0.003": 3.27392524304,
			"0.004": 3.24401701222,
			"0.005": 4.28008880088,
			"0.006": 4.56322556108,
			"0.007": 6.44349136942,
			"0.008": 6.84756101284,
			"0.009": 7.32064182503,
			"0.01": 11.220949294,
			"0.011": 3.33232145957,
			"0.012": 0.0,
			"0.013": 0.0,
			"0.014": 0.0,
			"0.015": 0.0,
			"0.016": 0.0,
			"0.017": 0.0,
			"0.018": 0.0,
			"0.019": 0.0,
			"0.02": 0.0,
			"0.021": 0.0,
			"0.022": 0.0,
			"0.023": 0.0,
			"0.024": 0.0,
			"0.025": 0.0
		}
	}
}
