{
	 "smiles": "CN1N=C(CCC1=O)C(O)=O", 
	 "Tm": 430.15, 
	 "num_atms": 19, 
	 "gaussian": { 
		 "optdone": 1, 
		 "sigma_profile": "yes", 
		 "theory": "DFT", 
		 "functional": "B3LYP", 
		 "basiset": "6-31G**", 
		 "properties": { 
			 "R2extent": 2247.3971, 
			 "electric_dipole_moment_norm": 2.35851730967, 
			 "electric_quadrupole_moment_norm": 14.8529157552, 
			 "total_energy": -568.624075037, 
			 "HOMO_LUMO_gap": 0.1768, 
			 "cosmo_polarized_energy": -15.58, 
			 "cosmo_cavitation_energy": 23.29, 
			 "cosmo_dispersion_energy": -17.34, 
			 "cosmo_repulsion_energy": 1.43, 
			 "cosmo_total_nonelectrostatic_energy": 7.38, 
			 "SMD_solvation_energy": 5.33 
		},
		"coords": [
			{
				"x": -0.9381621833,
				"y": 1.0187287045,
				"z": 1.8093818247,
				"element": "C" 
			},
			{
				"x": -0.4044342146,
				"y": -0.0137856654,
				"z": 0.9211882451,
				"element": "N" 
			},
			{
				"x": 0.9559517652,
				"y": -0.0935023581,
				"z": 0.9126854814,
				"element": "N" 
			},
			{
				"x": 1.5273705913,
				"y": -1.0760628225,
				"z": 0.3023528806,
				"element": "C" 
			},
			{
				"x": 0.7590386436,
				"y": -2.1696486612,
				"z": -0.3942305519,
				"element": "C" 
			},
			{
				"x": -0.5390921461,
				"y": -1.5859448062,
				"z": -0.956219255,
				"element": "C" 
			},
			{
				"x": -1.2535740677,
				"y": -0.7064647762,
				"z": 0.0519561143,
				"element": "C" 
			},
			{
				"x": -2.4629096491,
				"y": -0.5536249225,
				"z": 0.0809279466,
				"element": "O" 
			},
			{
				"x": 3.0196243303,
				"y": -1.0844731525,
				"z": 0.3880517914,
				"element": "C" 
			},
			{
				"x": 3.5323693159,
				"y": -2.196517628,
				"z": -0.2066530965,
				"element": "O" 
			},
			{
				"x": 3.7159303122,
				"y": -0.2430919632,
				"z": 0.9087066823,
				"element": "O" 
			},
			{
				"x": -2.0115596535,
				"y": 1.0803734777,
				"z": 1.6417709476,
				"element": "H" 
			},
			{
				"x": -0.4594526689,
				"y": 1.9750425928,
				"z": 1.5853752106,
				"element": "H" 
			},
			{
				"x": -0.7381942911,
				"y": 0.7557321371,
				"z": 2.8513885561,
				"element": "H" 
			},
			{
				"x": 0.5361002326,
				"y": -2.960013062,
				"z": 0.3379126385,
				"element": "H" 
			},
			{
				"x": 1.3608555591,
				"y": -2.6343054757,
				"z": -1.1766937356,
				"element": "H" 
			},
			{
				"x": -0.3227464483,
				"y": -0.9556573986,
				"z": -1.829763532,
				"element": "H" 
			},
			{
				"x": -1.2397204942,
				"y": -2.3571820242,
				"z": -1.2810944523,
				"element": "H" 
			},
			{
				"x": 4.4957050665,
				"y": -2.1302021958,
				"z": -0.1003436958,
				"element": "H" 
			}
		],
		 "valence_orbital": [ 
			{
				"type": "occ",
				"energy": -0.32403,
				"method": "rhf"
			},
			{
				"type": "occ",
				"energy": -0.31434,
				"method": "rhf"
			},
			{
				"type": "occ",
				"energy": -0.2799,
				"method": "rhf"
			},
			{
				"type": "occ",
				"energy": -0.25998,
				"method": "rhf"
			},
			{
				"type": "occ",
				"energy": -0.24538,
				"method": "rhf"
			},
			{
				"type": "unocc",
				"energy": -0.06858,
				"method": "rhf"
			},
			{
				"type": "unocc",
				"energy": 0.01146,
				"method": "rhf"
			},
			{
				"type": "unocc",
				"energy": 0.06389,
				"method": "rhf"
			},
			{
				"type": "unocc",
				"energy": 0.07266,
				"method": "rhf"
			},
			{
				"type": "unocc",
				"energy": 0.10219,
				"method": "rhf"
			}
		],
		"cosmo_sigma_profile": { 
			"-0.025": 0.0,
			"-0.024": 0.0,
			"-0.023": 0.0,
			"-0.022": 0.0,
			"-0.021": 0.0,
			"-0.02": 0.0,
			"-0.019": 0.18419142291,
			"-0.018": 1.11475089295,
			"-0.017": 0.532986269017,
			"-0.016": 1.24844255494,
			"-0.015": 0.617122690114,
			"-0.014": 0.558917942075,
			"-0.013": 0.460289462602,
			"-0.012": 0.901608753341,
			"-0.011": 0.924319771673,
			"-0.01": 0.54451009742,
			"-0.009": 0.20729393332,
			"-0.008": 1.28744595689,
			"-0.007": 6.82616783537,
			"-0.006": 14.2755346698,
			"-0.005": 17.9260280232,
			"-0.004": 17.7257119436,
			"-0.003": 18.8118686972,
			"-0.002": 16.5081246205,
			"-0.001": 7.95188714444,
			"0.0": 7.60249663969,
			"0.001": 6.02857792566,
			"0.002": 5.47526318761,
			"0.003": 3.99044194194,
			"0.004": 4.3846992492,
			"0.005": 5.5750117771,
			"0.006": 4.98426790447,
			"0.007": 4.24227294299,
			"0.008": 3.38589110068,
			"0.009": 3.48842114828,
			"0.01": 4.20662962814,
			"0.011": 7.80678583091,
			"0.012": 8.31978430897,
			"0.013": 3.21960878535,
			"0.014": 1.80284077834,
			"0.015": 0.982305271866,
			"0.016": 0.241532940369,
			"0.017": 0.0,
			"0.018": 0.0,
			"0.019": 0.0,
			"0.02": 0.0,
			"0.021": 0.0,
			"0.022": 0.0,
			"0.023": 0.0,
			"0.024": 0.0,
			"0.025": 0.0
		}
	}
}
