{
	 "smiles": "CC1=CC2=C(NC=C2C=O)C=C1", 
	 "Tm": 416.15, 
	 "num_atms": 21, 
	 "gaussian": { 
		 "optdone": 1, 
		 "sigma_profile": "yes", 
		 "theory": "DFT", 
		 "functional": "B3LYP", 
		 "basiset": "6-31G**", 
		 "properties": { 
			 "R2extent": 2173.7338, 
			 "electric_dipole_moment_norm": 5.20882739299, 
			 "electric_quadrupole_moment_norm": 16.6934417254, 
			 "total_energy": -516.469450023, 
			 "HOMO_LUMO_gap": 0.17846, 
			 "cosmo_polarized_energy": -15.3, 
			 "cosmo_cavitation_energy": 25.1, 
			 "cosmo_dispersion_energy": -18.49, 
			 "cosmo_repulsion_energy": 1.46, 
			 "cosmo_total_nonelectrostatic_energy": 8.08, 
			 "SMD_solvation_energy": 5.25 
		},
		"coords": [
			{
				"x": 2.0672613723,
				"y": -2.6178421504,
				"z": -1.1966604622,
				"element": "C" 
			},
			{
				"x": 1.5293146067,
				"y": -1.2200714991,
				"z": -0.9894311073,
				"element": "C" 
			},
			{
				"x": 0.854105657,
				"y": -0.8807295859,
				"z": 0.1810694851,
				"element": "C" 
			},
			{
				"x": 0.3669998113,
				"y": 0.4257328463,
				"z": 0.342954845,
				"element": "C" 
			},
			{
				"x": 0.5698190156,
				"y": 1.3759257854,
				"z": -0.6848962597,
				"element": "C" 
			},
			{
				"x": -0.0076150418,
				"y": 2.5708175794,
				"z": -0.2652826873,
				"element": "N" 
			},
			{
				"x": -0.5580302287,
				"y": 2.403046075,
				"z": 0.973898155,
				"element": "C" 
			},
			{
				"x": -0.3574670028,
				"y": 1.1005761266,
				"z": 1.3988273692,
				"element": "C" 
			},
			{
				"x": -0.8064902795,
				"y": 0.561083556,
				"z": 2.6692561128,
				"element": "C" 
			},
			{
				"x": -0.6292975473,
				"y": -0.5891362651,
				"z": 3.0445366083,
				"element": "O" 
			},
			{
				"x": 1.2440266015,
				"y": 1.0577979034,
				"z": -1.8668028444,
				"element": "C" 
			},
			{
				"x": 1.7142573091,
				"y": -0.2427661682,
				"z": -1.9979711338,
				"element": "C" 
			},
			{
				"x": 1.8487652824,
				"y": -3.2576935564,
				"z": -0.337745237,
				"element": "H" 
			},
			{
				"x": 3.154207305,
				"y": -2.6118866517,
				"z": -1.3410467378,
				"element": "H" 
			},
			{
				"x": 1.6286722884,
				"y": -3.0887863156,
				"z": -2.0844382178,
				"element": "H" 
			},
			{
				"x": 0.6968179878,
				"y": -1.6067679662,
				"z": 0.9712802434,
				"element": "H" 
			},
			{
				"x": -0.0199428735,
				"y": 3.4285012571,
				"z": -0.7941296977,
				"element": "H" 
			},
			{
				"x": -1.0579262665,
				"y": 3.21934732,
				"z": 1.4772158437,
				"element": "H" 
			},
			{
				"x": -1.3484952655,
				"y": 1.2892415408,
				"z": 3.3156284451,
				"element": "H" 
			},
			{
				"x": 1.3968337796,
				"y": 1.7918957583,
				"z": -2.6528777539,
				"element": "H" 
			},
			{
				"x": 2.2429834891,
				"y": -0.5215855896,
				"z": -2.9060849683,
				"element": "H" 
			}
		],
		 "valence_orbital": [ 
			{
				"type": "occ",
				"energy": -0.33,
				"method": "rhf"
			},
			{
				"type": "occ",
				"energy": -0.27826,
				"method": "rhf"
			},
			{
				"type": "occ",
				"energy": -0.23772,
				"method": "rhf"
			},
			{
				"type": "occ",
				"energy": -0.22459,
				"method": "rhf"
			},
			{
				"type": "occ",
				"energy": -0.21566,
				"method": "rhf"
			},
			{
				"type": "unocc",
				"energy": -0.0372,
				"method": "rhf"
			},
			{
				"type": "unocc",
				"energy": -0.00446,
				"method": "rhf"
			},
			{
				"type": "unocc",
				"energy": 0.02294,
				"method": "rhf"
			},
			{
				"type": "unocc",
				"energy": 0.06639,
				"method": "rhf"
			},
			{
				"type": "unocc",
				"energy": 0.10015,
				"method": "rhf"
			}
		],
		"cosmo_sigma_profile": { 
			"-0.025": 0.0,
			"-0.024": 0.0,
			"-0.023": 0.0,
			"-0.022": 0.0,
			"-0.021": 0.0,
			"-0.02": 0.0,
			"-0.019": 0.0,
			"-0.018": 0.0,
			"-0.017": 0.525989421526,
			"-0.016": 1.70828371205,
			"-0.015": 1.55460439715,
			"-0.014": 1.38321827997,
			"-0.013": 1.33272833425,
			"-0.012": 1.1146908631,
			"-0.011": 1.53313498215,
			"-0.01": 2.02127791676,
			"-0.009": 3.85899151914,
			"-0.008": 4.18231144888,
			"-0.007": 4.17199445881,
			"-0.006": 5.51816207202,
			"-0.005": 7.6664082299,
			"-0.004": 12.5369334155,
			"-0.003": 15.0244261763,
			"-0.002": 13.954039933,
			"-0.001": 14.131368282,
			"0.0": 16.1016755944,
			"0.001": 12.0378703652,
			"0.002": 13.4841323767,
			"0.003": 12.9907421521,
			"0.004": 12.1839725923,
			"0.005": 12.164415107,
			"0.006": 10.3100210334,
			"0.007": 2.86482312184,
			"0.008": 1.63343172773,
			"0.009": 2.08838242546,
			"0.01": 1.47294452732,
			"0.011": 2.69704588172,
			"0.012": 3.61199994335,
			"0.013": 2.9820159485,
			"0.014": 1.5814340531,
			"0.015": 0.11634097425,
			"0.016": 0.0,
			"0.017": 0.0,
			"0.018": 0.0,
			"0.019": 0.0,
			"0.02": 0.0,
			"0.021": 0.0,
			"0.022": 0.0,
			"0.023": 0.0,
			"0.024": 0.0,
			"0.025": 0.0
		}
	}
}
