{
	 "smiles": "OC(=O)C1=CC=C(OC2=CN=CC=C2)C=C1", 
	 "Tm": 478.15, 
	 "num_atms": 25, 
	 "gaussian": { 
		 "optdone": 1, 
		 "sigma_profile": "yes", 
		 "theory": "DFT", 
		 "functional": "B3LYP", 
		 "basiset": "6-31G**", 
		 "properties": { 
			 "R2extent": 5925.9526, 
			 "electric_dipole_moment_norm": 2.446677678, 
			 "electric_quadrupole_moment_norm": 14.54170395, 
			 "total_energy": -743.125169773, 
			 "HOMO_LUMO_gap": 0.19002, 
			 "cosmo_polarized_energy": -13.24, 
			 "cosmo_cavitation_energy": 30.71, 
			 "cosmo_dispersion_energy": -22.31, 
			 "cosmo_repulsion_energy": 1.73, 
			 "cosmo_total_nonelectrostatic_energy": 10.12, 
			 "SMD_solvation_energy": 5.4 
		},
		"coords": [
			{
				"x": 1.6634508201,
				"y": -4.1959551988,
				"z": -0.2945248036,
				"element": "O" 
			},
			{
				"x": 2.2818567398,
				"y": -3.0552200872,
				"z": -0.6969123356,
				"element": "C" 
			},
			{
				"x": 3.4936402902,
				"y": -2.9618763468,
				"z": -0.7391749859,
				"element": "O" 
			},
			{
				"x": 1.3331582297,
				"y": -1.977300411,
				"z": -1.0643046634,
				"element": "C" 
			},
			{
				"x": 1.8597470865,
				"y": -0.7497708401,
				"z": -1.4949946822,
				"element": "C" 
			},
			{
				"x": 1.0164454163,
				"y": 0.294392492,
				"z": -1.8463301229,
				"element": "C" 
			},
			{
				"x": -0.3706798611,
				"y": 0.1166384855,
				"z": -1.7713860184,
				"element": "C" 
			},
			{
				"x": -1.1341661528,
				"y": 1.1836289981,
				"z": -2.1849127035,
				"element": "O" 
			},
			{
				"x": -2.4398232627,
				"y": 1.3308454431,
				"z": -1.7602767901,
				"element": "C" 
			},
			{
				"x": -3.4164691312,
				"y": 1.5708423728,
				"z": -2.7303186525,
				"element": "C" 
			},
			{
				"x": -4.6953347312,
				"y": 1.8142955095,
				"z": -2.4297498807,
				"element": "N" 
			},
			{
				"x": -5.0405318159,
				"y": 1.8182662408,
				"z": -1.1363457388,
				"element": "C" 
			},
			{
				"x": -4.1338770775,
				"y": 1.5903139802,
				"z": -0.0986262267,
				"element": "C" 
			},
			{
				"x": -2.7987183832,
				"y": 1.3447601599,
				"z": -0.4120259147,
				"element": "C" 
			},
			{
				"x": -0.9130622245,
				"y": -1.1039798672,
				"z": -1.3528147254,
				"element": "C" 
			},
			{
				"x": -0.0568777268,
				"y": -2.1434567099,
				"z": -0.999445281,
				"element": "C" 
			},
			{
				"x": 2.3774463543,
				"y": -4.8202298788,
				"z": -0.085903256,
				"element": "H" 
			},
			{
				"x": 2.9372836271,
				"y": -0.6351164242,
				"z": -1.5423871077,
				"element": "H" 
			},
			{
				"x": 1.4042599373,
				"y": 1.2507150762,
				"z": -2.1802709022,
				"element": "H" 
			},
			{
				"x": -3.1340799937,
				"y": 1.5716842649,
				"z": -3.7809914175,
				"element": "H" 
			},
			{
				"x": -6.0884102017,
				"y": 2.0140533412,
				"z": -0.9187247068,
				"element": "H" 
			},
			{
				"x": -4.4648536803,
				"y": 1.613383981,
				"z": 0.9349627163,
				"element": "H" 
			},
			{
				"x": -2.0546304397,
				"y": 1.1727929028,
				"z": 0.3589731902,
				"element": "H" 
			},
			{
				"x": -1.9874950319,
				"y": -1.2410007182,
				"z": -1.3128615078,
				"element": "H" 
			},
			{
				"x": -0.4677787873,
				"y": -3.0936067658,
				"z": -0.6776534831,
				"element": "H" 
			}
		],
		 "valence_orbital": [ 
			{
				"type": "occ",
				"energy": -0.27731,
				"method": "rhf"
			},
			{
				"type": "occ",
				"energy": -0.26975,
				"method": "rhf"
			},
			{
				"type": "occ",
				"energy": -0.26846,
				"method": "rhf"
			},
			{
				"type": "occ",
				"energy": -0.26476,
				"method": "rhf"
			},
			{
				"type": "occ",
				"energy": -0.23839,
				"method": "rhf"
			},
			{
				"type": "unocc",
				"energy": -0.04837,
				"method": "rhf"
			},
			{
				"type": "unocc",
				"energy": -0.03765,
				"method": "rhf"
			},
			{
				"type": "unocc",
				"energy": -0.01708,
				"method": "rhf"
			},
			{
				"type": "unocc",
				"energy": -0.01578,
				"method": "rhf"
			},
			{
				"type": "unocc",
				"energy": 0.05744,
				"method": "rhf"
			}
		],
		"cosmo_sigma_profile": { 
			"-0.025": 0.0,
			"-0.024": 0.0,
			"-0.023": 0.0,
			"-0.022": 0.0,
			"-0.021": 0.0,
			"-0.02": 0.0,
			"-0.019": 0.0,
			"-0.018": 0.538862770363,
			"-0.017": 0.949062848691,
			"-0.016": 0.71344228096,
			"-0.015": 1.07702463255,
			"-0.014": 0.800694238512,
			"-0.013": 0.702507072845,
			"-0.012": 0.500941022851,
			"-0.011": 0.304817084617,
			"-0.01": 1.10115342564,
			"-0.009": 0.830340916049,
			"-0.008": 2.43468483167,
			"-0.007": 10.9992664532,
			"-0.006": 17.5848736414,
			"-0.005": 13.4395302887,
			"-0.004": 12.8227719322,
			"-0.003": 14.6059745057,
			"-0.002": 15.6087283645,
			"-0.001": 15.4629760586,
			"0.0": 20.3605981979,
			"0.001": 26.0761967198,
			"0.002": 25.4644149369,
			"0.003": 17.251199083,
			"0.004": 7.04716213351,
			"0.005": 6.9176455636,
			"0.006": 4.29489060257,
			"0.007": 6.21135024243,
			"0.008": 3.91474121881,
			"0.009": 2.86672936535,
			"0.01": 3.10107077432,
			"0.011": 3.84948806842,
			"0.012": 5.54844105895,
			"0.013": 0.993913357714,
			"0.014": 0.899288379694,
			"0.015": 0.985164527394,
			"0.016": 0.668265476253,
			"0.017": 0.126165894234,
			"0.018": 0.0,
			"0.019": 0.0,
			"0.02": 0.0,
			"0.021": 0.0,
			"0.022": 0.0,
			"0.023": 0.0,
			"0.024": 0.0,
			"0.025": 0.0
		}
	}
}
