{
	 "smiles": "CC1=C(Br)C=C(O)C=C1Br", 
	 "Tm": 381.15, 
	 "num_atms": 16, 
	 "gaussian": { 
		 "optdone": 1, 
		 "sigma_profile": "yes", 
		 "theory": "DFT", 
		 "functional": "B3LYP", 
		 "basiset": "6-31G**", 
		 "properties": { 
			 "R2extent": 7344.9172, 
			 "electric_dipole_moment_norm": 1.76377951853, 
			 "electric_quadrupole_moment_norm": 4.94499888574, 
			 "total_energy": -5488.39263021, 
			 "HOMO_LUMO_gap": 0.20838, 
			 "cosmo_polarized_energy": -7.84, 
			 "cosmo_cavitation_energy": 24.22, 
			 "cosmo_dispersion_energy": -18.86, 
			 "cosmo_repulsion_energy": 1.52, 
			 "cosmo_total_nonelectrostatic_energy": 6.87, 
			 "SMD_solvation_energy": 2.47 
		},
		"coords": [
			{
				"x": -0.2113846707,
				"y": -3.7503095392,
				"z": 3.0607669967,
				"element": "C" 
			},
			{
				"x": -0.584601739,
				"y": -2.486549282,
				"z": 2.3315128392,
				"element": "C" 
			},
			{
				"x": -0.1740585681,
				"y": -1.2212595343,
				"z": 2.7958155276,
				"element": "C" 
			},
			{
				"x": 0.8830671864,
				"y": -1.1054744835,
				"z": 4.3904484107,
				"element": "Br" 
			},
			{
				"x": -0.4871407888,
				"y": -0.0238566347,
				"z": 2.1669001115,
				"element": "C" 
			},
			{
				"x": -1.2556513178,
				"y": -0.0539221233,
				"z": 1.0004256526,
				"element": "C" 
			},
			{
				"x": -1.5442596017,
				"y": 1.1389442712,
				"z": 0.4093933976,
				"element": "O" 
			},
			{
				"x": -1.6915354383,
				"y": -1.2775505673,
				"z": 0.4920548023,
				"element": "C" 
			},
			{
				"x": -1.3528437318,
				"y": -2.4555423946,
				"z": 1.1574949778,
				"element": "C" 
			},
			{
				"x": -2.0084744125,
				"y": -4.0768782933,
				"z": 0.3646030115,
				"element": "Br" 
			},
			{
				"x": -0.5884303344,
				"y": -3.7313798616,
				"z": 4.0884849694,
				"element": "H" 
			},
			{
				"x": -0.6156295377,
				"y": -4.6289494889,
				"z": 2.5605763687,
				"element": "H" 
			},
			{
				"x": 0.8766155279,
				"y": -3.8559368348,
				"z": 3.1230740598,
				"element": "H" 
			},
			{
				"x": -0.148345942,
				"y": 0.9252183156,
				"z": 2.562250113,
				"element": "H" 
			},
			{
				"x": -2.0768968941,
				"y": 0.9859846757,
				"z": -0.3819652463,
				"element": "H" 
			},
			{
				"x": -2.2891297375,
				"y": -1.3216382248,
				"z": -0.4124359919,
				"element": "H" 
			}
		],
		 "valence_orbital": [ 
			{
				"type": "occ",
				"energy": -0.29624,
				"method": "rhf"
			},
			{
				"type": "occ",
				"energy": -0.28834,
				"method": "rhf"
			},
			{
				"type": "occ",
				"energy": -0.28595,
				"method": "rhf"
			},
			{
				"type": "occ",
				"energy": -0.24687,
				"method": "rhf"
			},
			{
				"type": "occ",
				"energy": -0.23357,
				"method": "rhf"
			},
			{
				"type": "unocc",
				"energy": -0.02519,
				"method": "rhf"
			},
			{
				"type": "unocc",
				"energy": -0.01822,
				"method": "rhf"
			},
			{
				"type": "unocc",
				"energy": -0.00764,
				"method": "rhf"
			},
			{
				"type": "unocc",
				"energy": 0.02523,
				"method": "rhf"
			},
			{
				"type": "unocc",
				"energy": 0.06034,
				"method": "rhf"
			}
		],
		"cosmo_sigma_profile": { 
			"-0.025": 0.0,
			"-0.024": 0.0,
			"-0.023": 0.0,
			"-0.022": 0.0,
			"-0.021": 0.0,
			"-0.02": 0.0,
			"-0.019": 0.152654171216,
			"-0.018": 1.11369586479,
			"-0.017": 1.39433088536,
			"-0.016": 1.24762536598,
			"-0.015": 0.836863442554,
			"-0.014": 1.12680790564,
			"-0.013": 1.15074885858,
			"-0.012": 0.849340932279,
			"-0.011": 0.908602619247,
			"-0.01": 1.00404765037,
			"-0.009": 1.34513357982,
			"-0.008": 1.66066414892,
			"-0.007": 2.66233004036,
			"-0.006": 2.97834950913,
			"-0.005": 4.23903012991,
			"-0.004": 8.48562486674,
			"-0.003": 10.9044026357,
			"-0.002": 12.4781644844,
			"-0.001": 17.1875429147,
			"0.0": 20.3377789785,
			"0.001": 19.300538085,
			"0.002": 33.4002106002,
			"0.003": 20.8457024636,
			"0.004": 19.356088508,
			"0.005": 6.52890301077,
			"0.006": 1.32756324218,
			"0.007": 1.53486946861,
			"0.008": 1.22372659031,
			"0.009": 1.09858262904,
			"0.01": 2.17812440006,
			"0.011": 0.900177344065,
			"0.012": 0.0,
			"0.013": 0.0,
			"0.014": 0.0,
			"0.015": 0.0,
			"0.016": 0.0,
			"0.017": 0.0,
			"0.018": 0.0,
			"0.019": 0.0,
			"0.02": 0.0,
			"0.021": 0.0,
			"0.022": 0.0,
			"0.023": 0.0,
			"0.024": 0.0,
			"0.025": 0.0
		}
	}
}
