{
	 "smiles": "CC(C)OC(=O)C1(CCC1)S(=O)(=O)C1=CC=C(C=C1)N(=O)=O", 
	 "Tm": 338.65, 
	 "num_atms": 39, 
	 "gaussian": { 
		 "optdone": 1, 
		 "sigma_profile": "yes", 
		 "theory": "DFT", 
		 "functional": "B3LYP", 
		 "basiset": "6-31G**", 
		 "properties": { 
			 "R2extent": 9625.1959, 
			 "electric_dipole_moment_norm": 5.08450961352, 
			 "electric_quadrupole_moment_norm": 23.8349165885, 
			 "total_energy": -1447.84521845, 
			 "HOMO_LUMO_gap": 0.18002, 
			 "cosmo_polarized_energy": -16.79, 
			 "cosmo_cavitation_energy": 43.85, 
			 "cosmo_dispersion_energy": -29.62, 
			 "cosmo_repulsion_energy": 2.24, 
			 "cosmo_total_nonelectrostatic_energy": 16.47, 
			 "SMD_solvation_energy": 9.46 
		},
		"coords": [
			{
				"x": -1.5334638386,
				"y": 0.0810718509,
				"z": -3.5893379127,
				"element": "C" 
			},
			{
				"x": -0.0816560222,
				"y": 0.24565435,
				"z": -3.1563300812,
				"element": "C" 
			},
			{
				"x": 0.7612632311,
				"y": 1.0823417956,
				"z": -4.1064973714,
				"element": "C" 
			},
			{
				"x": -0.0420908202,
				"y": 0.9483535701,
				"z": -1.8707818512,
				"element": "O" 
			},
			{
				"x": -0.1146664498,
				"y": 0.2123359877,
				"z": -0.7597892236,
				"element": "C" 
			},
			{
				"x": -0.2963851566,
				"y": -0.9900932892,
				"z": -0.7244497815,
				"element": "O" 
			},
			{
				"x": 0.0954474077,
				"y": 1.0519743424,
				"z": 0.4963713868,
				"element": "C" 
			},
			{
				"x": -0.9146701591,
				"y": 0.7461105252,
				"z": 1.6332855078,
				"element": "C" 
			},
			{
				"x": -1.6744643194,
				"y": 2.0436047355,
				"z": 1.2441344979,
				"element": "C" 
			},
			{
				"x": -0.4219489825,
				"y": 2.5174338769,
				"z": 0.4584911323,
				"element": "C" 
			},
			{
				"x": 1.8940777035,
				"y": 0.90578122,
				"z": 0.956001804,
				"element": "S" 
			},
			{
				"x": 2.1561767252,
				"y": 1.9529089369,
				"z": 1.9586339462,
				"element": "O" 
			},
			{
				"x": 2.6828381691,
				"y": 0.8217893371,
				"z": -0.284057026,
				"element": "O" 
			},
			{
				"x": 2.045640962,
				"y": -0.6798718508,
				"z": 1.8160904572,
				"element": "C" 
			},
			{
				"x": 2.1475482562,
				"y": -1.8617209961,
				"z": 1.0769778367,
				"element": "C" 
			},
			{
				"x": 2.3005334908,
				"y": -3.0700435805,
				"z": 1.7517151292,
				"element": "C" 
			},
			{
				"x": 2.3535577651,
				"y": -3.0571282514,
				"z": 3.1442654677,
				"element": "C" 
			},
			{
				"x": 2.266693909,
				"y": -1.8834310102,
				"z": 3.8891055009,
				"element": "C" 
			},
			{
				"x": 2.1113507467,
				"y": -0.6760464055,
				"z": 3.2115086899,
				"element": "C" 
			},
			{
				"x": 2.5152431619,
				"y": -4.3392899174,
				"z": 3.8597130527,
				"element": "N" 
			},
			{
				"x": 2.6006684245,
				"y": -5.3606075305,
				"z": 3.1813848018,
				"element": "O" 
			},
			{
				"x": 2.5526305001,
				"y": -4.3023910897,
				"z": 5.0879135685,
				"element": "O" 
			},
			{
				"x": -2.0861128233,
				"y": -0.5248602606,
				"z": -2.8671209406,
				"element": "H" 
			},
			{
				"x": -1.5779508754,
				"y": -0.4214045548,
				"z": -4.5608237659,
				"element": "H" 
			},
			{
				"x": -2.0212669409,
				"y": 1.0564395973,
				"z": -3.6852181764,
				"element": "H" 
			},
			{
				"x": 0.371327566,
				"y": -0.736403272,
				"z": -2.9963715558,
				"element": "H" 
			},
			{
				"x": 0.3228487002,
				"y": 2.0756733438,
				"z": -4.2452017834,
				"element": "H" 
			},
			{
				"x": 0.8185164523,
				"y": 0.5920978766,
				"z": -5.0832232698,
				"element": "H" 
			},
			{
				"x": 1.7746214689,
				"y": 1.201604033,
				"z": -3.714867728,
				"element": "H" 
			},
			{
				"x": -0.4500452885,
				"y": 0.8303731575,
				"z": 2.6186616233,
				"element": "H" 
			},
			{
				"x": -1.4299139342,
				"y": -0.2125940384,
				"z": 1.554824438,
				"element": "H" 
			},
			{
				"x": -2.5238870367,
				"y": 1.840480915,
				"z": 0.5860446592,
				"element": "H" 
			},
			{
				"x": -2.0103750168,
				"y": 2.6806281051,
				"z": 2.0653605787,
				"element": "H" 
			},
			{
				"x": 0.2185173171,
				"y": 3.1675543929,
				"z": 1.0578836301,
				"element": "H" 
			},
			{
				"x": -0.5583884619,
				"y": 2.9443207822,
				"z": -0.5345193233,
				"element": "H" 
			},
			{
				"x": 2.1085221085,
				"y": -1.8371249927,
				"z": -0.0043443514,
				"element": "H" 
			},
			{
				"x": 2.3813761438,
				"y": -4.010841822,
				"z": 1.222437742,
				"element": "H" 
			},
			{
				"x": 2.3262780121,
				"y": -1.9290818939,
				"z": 4.9690803678,
				"element": "H" 
			},
			{
				"x": 2.0637079043,
				"y": 0.2645020241,
				"z": 3.7483483239,
				"element": "H" 
			}
		],
		 "valence_orbital": [ 
			{
				"type": "occ",
				"energy": -0.30153,
				"method": "rhf"
			},
			{
				"type": "occ",
				"energy": -0.30048,
				"method": "rhf"
			},
			{
				"type": "occ",
				"energy": -0.29407,
				"method": "rhf"
			},
			{
				"type": "occ",
				"energy": -0.28978,
				"method": "rhf"
			},
			{
				"type": "occ",
				"energy": -0.28499,
				"method": "rhf"
			},
			{
				"type": "unocc",
				"energy": -0.10497,
				"method": "rhf"
			},
			{
				"type": "unocc",
				"energy": -0.04194,
				"method": "rhf"
			},
			{
				"type": "unocc",
				"energy": -0.03395,
				"method": "rhf"
			},
			{
				"type": "unocc",
				"energy": -0.02363,
				"method": "rhf"
			},
			{
				"type": "unocc",
				"energy": 0.04706,
				"method": "rhf"
			}
		],
		"cosmo_sigma_profile": { 
			"-0.025": 0.0,
			"-0.024": 0.0,
			"-0.023": 0.0,
			"-0.022": 0.0,
			"-0.021": 0.0,
			"-0.02": 0.0,
			"-0.019": 0.0,
			"-0.018": 0.0,
			"-0.017": 0.0,
			"-0.016": 0.0,
			"-0.015": 0.0,
			"-0.014": 0.0,
			"-0.013": 0.0,
			"-0.012": 0.0,
			"-0.011": 0.0,
			"-0.01": 0.0111395783775,
			"-0.009": 1.63919050877,
			"-0.008": 6.68024883599,
			"-0.007": 8.13597858553,
			"-0.006": 9.01228697372,
			"-0.005": 18.9000050376,
			"-0.004": 33.9367654259,
			"-0.003": 37.9940341382,
			"-0.002": 42.323673827,
			"-0.001": 43.2137614407,
			"0.0": 32.9400639975,
			"0.001": 12.7713993628,
			"0.002": 10.5985952993,
			"0.003": 8.7199997348,
			"0.004": 9.01323456887,
			"0.005": 8.07069255213,
			"0.006": 11.3714023834,
			"0.007": 14.6132205774,
			"0.008": 9.9090603475,
			"0.009": 9.48916396424,
			"0.01": 8.41325791113,
			"0.011": 8.27786679729,
			"0.012": 1.08679305484,
			"0.013": 0.0,
			"0.014": 0.0,
			"0.015": 0.0,
			"0.016": 0.0,
			"0.017": 0.0,
			"0.018": 0.0,
			"0.019": 0.0,
			"0.02": 0.0,
			"0.021": 0.0,
			"0.022": 0.0,
			"0.023": 0.0,
			"0.024": 0.0,
			"0.025": 0.0
		}
	}
}
