{
	 "smiles": "COC(=O)C1=CC(Br)=C(N)S1", 
	 "Tm": 362.15, 
	 "num_atms": 17, 
	 "gaussian": { 
		 "optdone": 1, 
		 "sigma_profile": "yes", 
		 "theory": "DFT", 
		 "functional": "B3LYP", 
		 "basiset": "6-31G**", 
		 "properties": { 
			 "R2extent": 4479.3093, 
			 "electric_dipole_moment_norm": 3.51850571692, 
			 "electric_quadrupole_moment_norm": 12.7324123072, 
			 "total_energy": -3407.03882785, 
			 "HOMO_LUMO_gap": 0.1645, 
			 "cosmo_polarized_energy": -12.2, 
			 "cosmo_cavitation_energy": 25.82, 
			 "cosmo_dispersion_energy": -19.97, 
			 "cosmo_repulsion_energy": 1.58, 
			 "cosmo_total_nonelectrostatic_energy": 7.43, 
			 "SMD_solvation_energy": 4.67 
		},
		"coords": [
			{
				"x": -3.3843604746,
				"y": -0.9263676838,
				"z": 1.9686239738,
				"element": "C" 
			},
			{
				"x": -2.0609749022,
				"y": -0.3840129854,
				"z": 1.8530433388,
				"element": "O" 
			},
			{
				"x": -1.8151330073,
				"y": 0.3024321295,
				"z": 0.707421128,
				"element": "C" 
			},
			{
				"x": -2.6378934721,
				"y": 0.4616438249,
				"z": -0.1747778332,
				"element": "O" 
			},
			{
				"x": -0.4490896682,
				"y": 0.8195946235,
				"z": 0.6731491921,
				"element": "C" 
			},
			{
				"x": 0.1082466561,
				"y": 1.5475659878,
				"z": -0.3477576388,
				"element": "C" 
			},
			{
				"x": 1.4570327437,
				"y": 1.892050848,
				"z": -0.1009401489,
				"element": "C" 
			},
			{
				"x": 2.5432483465,
				"y": 2.878861895,
				"z": -1.3098935193,
				"element": "Br" 
			},
			{
				"x": 1.9451684607,
				"y": 1.4361453647,
				"z": 1.1094652947,
				"element": "C" 
			},
			{
				"x": 3.1846614487,
				"y": 1.6634524277,
				"z": 1.656753832,
				"element": "N" 
			},
			{
				"x": 0.704140249,
				"y": 0.5641097491,
				"z": 1.9789139853,
				"element": "S" 
			},
			{
				"x": -4.1315920305,
				"y": -0.1293436196,
				"z": 1.93645496,
				"element": "H" 
			},
			{
				"x": -3.5851073164,
				"y": -1.6296266548,
				"z": 1.1563265033,
				"element": "H" 
			},
			{
				"x": -3.4102898606,
				"y": -1.4364444648,
				"z": 2.9315131828,
				"element": "H" 
			},
			{
				"x": -0.4404332379,
				"y": 1.8096681417,
				"z": -1.2431736499,
				"element": "H" 
			},
			{
				"x": 3.5434683081,
				"y": 0.9631562501,
				"z": 2.2899035148,
				"element": "H" 
			},
			{
				"x": 3.8713077569,
				"y": 2.0095141666,
				"z": 0.9980738843,
				"element": "H" 
			}
		],
		 "valence_orbital": [ 
			{
				"type": "occ",
				"energy": -0.29989,
				"method": "rhf"
			},
			{
				"type": "occ",
				"energy": -0.29936,
				"method": "rhf"
			},
			{
				"type": "occ",
				"energy": -0.27286,
				"method": "rhf"
			},
			{
				"type": "occ",
				"energy": -0.25526,
				"method": "rhf"
			},
			{
				"type": "occ",
				"energy": -0.21085,
				"method": "rhf"
			},
			{
				"type": "unocc",
				"energy": -0.04635,
				"method": "rhf"
			},
			{
				"type": "unocc",
				"energy": -0.00876,
				"method": "rhf"
			},
			{
				"type": "unocc",
				"energy": 0.01947,
				"method": "rhf"
			},
			{
				"type": "unocc",
				"energy": 0.03706,
				"method": "rhf"
			},
			{
				"type": "unocc",
				"energy": 0.07023,
				"method": "rhf"
			}
		],
		"cosmo_sigma_profile": { 
			"-0.025": 0.0,
			"-0.024": 0.0,
			"-0.023": 0.0,
			"-0.022": 0.0,
			"-0.021": 0.0,
			"-0.02": 0.0,
			"-0.019": 0.0,
			"-0.018": 0.0,
			"-0.017": 0.0,
			"-0.016": 0.000586414449245,
			"-0.015": 0.993773980337,
			"-0.014": 1.80875223323,
			"-0.013": 2.14960110158,
			"-0.012": 2.8349814786,
			"-0.011": 2.43706252094,
			"-0.01": 2.54995097204,
			"-0.009": 1.54065631149,
			"-0.008": 2.85176328286,
			"-0.007": 4.12623191813,
			"-0.006": 7.1265142573,
			"-0.005": 10.8530599906,
			"-0.004": 12.2979421901,
			"-0.003": 13.2797514595,
			"-0.002": 11.0498845413,
			"-0.001": 11.9703650439,
			"0.0": 13.1073634439,
			"0.001": 19.9492477492,
			"0.002": 25.9929707102,
			"0.003": 21.4339153244,
			"0.004": 14.4992399176,
			"0.005": 6.51890736404,
			"0.006": 4.28257665571,
			"0.007": 2.38688425572,
			"0.008": 2.48578556713,
			"0.009": 1.85395365574,
			"0.01": 1.89085220787,
			"0.011": 2.71936287491,
			"0.012": 5.08968674537,
			"0.013": 1.59396893684,
			"0.014": 0.0,
			"0.015": 0.0,
			"0.016": 0.0,
			"0.017": 0.0,
			"0.018": 0.0,
			"0.019": 0.0,
			"0.02": 0.0,
			"0.021": 0.0,
			"0.022": 0.0,
			"0.023": 0.0,
			"0.024": 0.0,
			"0.025": 0.0
		}
	}
}
