{
	 "smiles": "COC1=CC=CC=C1", 
	 "Tm": 235.95, 
	 "num_atms": 16, 
	 "gaussian": { 
		 "optdone": 1, 
		 "sigma_profile": "yes", 
		 "theory": "DFT", 
		 "functional": "B3LYP", 
		 "basiset": "6-31G**", 
		 "properties": { 
			 "R2extent": 1103.944, 
			 "electric_dipole_moment_norm": 1.31533344061, 
			 "electric_quadrupole_moment_norm": 7.15982739946, 
			 "total_energy": -346.776569446, 
			 "HOMO_LUMO_gap": 0.21848, 
			 "cosmo_polarized_energy": -5.06, 
			 "cosmo_cavitation_energy": 19.3, 
			 "cosmo_dispersion_energy": -14.61, 
			 "cosmo_repulsion_energy": 1.21, 
			 "cosmo_total_nonelectrostatic_energy": 5.9, 
			 "SMD_solvation_energy": 4.18 
		},
		"coords": [
			{
				"x": -0.3780319202,
				"y": 2.0890581148,
				"z": 1.9812610682,
				"element": "C" 
			},
			{
				"x": -0.7502660224,
				"y": 0.7247875467,
				"z": 1.8812670086,
				"element": "O" 
			},
			{
				"x": -0.0537665829,
				"y": -0.073697606,
				"z": 1.0182289322,
				"element": "C" 
			},
			{
				"x": 1.0102246555,
				"y": 0.3591190377,
				"z": 0.2178243188,
				"element": "C" 
			},
			{
				"x": 1.6483151891,
				"y": -0.5530974193,
				"z": -0.6295386954,
				"element": "C" 
			},
			{
				"x": 1.2405689639,
				"y": -1.883575073,
				"z": -0.687865834,
				"element": "C" 
			},
			{
				"x": 0.1759565664,
				"y": -2.3068360261,
				"z": 0.1161288559,
				"element": "C" 
			},
			{
				"x": -0.4687671165,
				"y": -1.4130840859,
				"z": 0.9635278442,
				"element": "C" 
			},
			{
				"x": 0.6569464454,
				"y": 2.2038435065,
				"z": 2.3292921186,
				"element": "H" 
			},
			{
				"x": -0.4919965355,
				"y": 2.6130588948,
				"z": 1.0231825928,
				"element": "H" 
			},
			{
				"x": -1.0531934195,
				"y": 2.5333825216,
				"z": 2.7143875715,
				"element": "H" 
			},
			{
				"x": 1.3462961715,
				"y": 1.388937969,
				"z": 0.24504197,
				"element": "H" 
			},
			{
				"x": 2.4733052164,
				"y": -0.2093117554,
				"z": -1.2475535888,
				"element": "H" 
			},
			{
				"x": 1.7422478765,
				"y": -2.5836399417,
				"z": -1.3486578755,
				"element": "H" 
			},
			{
				"x": -0.1542202407,
				"y": -3.3414018246,
				"z": 0.0823339293,
				"element": "H" 
			},
			{
				"x": -1.2958192469,
				"y": -1.7235438591,
				"z": 1.5938397837,
				"element": "H" 
			}
		],
		 "valence_orbital": [ 
			{
				"type": "occ",
				"energy": -0.35217,
				"method": "rhf"
			},
			{
				"type": "occ",
				"energy": -0.3217,
				"method": "rhf"
			},
			{
				"type": "occ",
				"energy": -0.31494,
				"method": "rhf"
			},
			{
				"type": "occ",
				"energy": -0.24641,
				"method": "rhf"
			},
			{
				"type": "occ",
				"energy": -0.21536,
				"method": "rhf"
			},
			{
				"type": "unocc",
				"energy": 0.00312,
				"method": "rhf"
			},
			{
				"type": "unocc",
				"energy": 0.01733,
				"method": "rhf"
			},
			{
				"type": "unocc",
				"energy": 0.09196,
				"method": "rhf"
			},
			{
				"type": "unocc",
				"energy": 0.10851,
				"method": "rhf"
			},
			{
				"type": "unocc",
				"energy": 0.13304,
				"method": "rhf"
			}
		],
		"cosmo_sigma_profile": { 
			"-0.025": 0.0,
			"-0.024": 0.0,
			"-0.023": 0.0,
			"-0.022": 0.0,
			"-0.021": 0.0,
			"-0.02": 0.0,
			"-0.019": 0.0,
			"-0.018": 0.0,
			"-0.017": 0.0,
			"-0.016": 0.0,
			"-0.015": 0.0,
			"-0.014": 0.0,
			"-0.013": 0.0,
			"-0.012": 0.0,
			"-0.011": 0.0,
			"-0.01": 0.0,
			"-0.009": 0.0,
			"-0.008": 0.0,
			"-0.007": 0.0634078816372,
			"-0.006": 5.83840339079,
			"-0.005": 18.4420376387,
			"-0.004": 17.7028082907,
			"-0.003": 18.8714813585,
			"-0.002": 11.4753485721,
			"-0.001": 8.02546124425,
			"0.0": 7.9643574827,
			"0.001": 7.96283192395,
			"0.002": 6.56052229943,
			"0.003": 9.38588607898,
			"0.004": 11.2186009685,
			"0.005": 10.5519832918,
			"0.006": 10.6813600288,
			"0.007": 3.8770799692,
			"0.008": 1.18490693555,
			"0.009": 1.92573436925,
			"0.01": 1.08448590399,
			"0.011": 0.841866798291,
			"0.012": 0.0,
			"0.013": 0.0,
			"0.014": 0.0,
			"0.015": 0.0,
			"0.016": 0.0,
			"0.017": 0.0,
			"0.018": 0.0,
			"0.019": 0.0,
			"0.02": 0.0,
			"0.021": 0.0,
			"0.022": 0.0,
			"0.023": 0.0,
			"0.024": 0.0,
			"0.025": 0.0
		}
	}
}
