{
	 "smiles": "CC(=O)CC(=O)C1=CC=C(Br)C=C1", 
	 "Tm": 366.15, 
	 "num_atms": 22, 
	 "gaussian": { 
		 "optdone": 1, 
		 "sigma_profile": "yes", 
		 "theory": "DFT", 
		 "functional": "B3LYP", 
		 "basiset": "6-31G**", 
		 "properties": { 
			 "R2extent": 5947.7263, 
			 "electric_dipole_moment_norm": 1.40743225414, 
			 "electric_quadrupole_moment_norm": 5.89321304892, 
			 "total_energy": -3108.34105008, 
			 "HOMO_LUMO_gap": 0.17857, 
			 "cosmo_polarized_energy": -9.76, 
			 "cosmo_cavitation_energy": 29.0, 
			 "cosmo_dispersion_energy": -21.07, 
			 "cosmo_repulsion_energy": 1.67, 
			 "cosmo_total_nonelectrostatic_energy": 9.59, 
			 "SMD_solvation_energy": 5.02 
		},
		"coords": [
			{
				"x": -1.5945196831,
				"y": -0.550893186,
				"z": -3.2161769369,
				"element": "C" 
			},
			{
				"x": -1.5441430537,
				"y": -0.3068091936,
				"z": -1.724700885,
				"element": "C" 
			},
			{
				"x": -1.8767641782,
				"y": -1.1408110297,
				"z": -0.9048875148,
				"element": "O" 
			},
			{
				"x": -1.0215333625,
				"y": 1.0700072693,
				"z": -1.285131093,
				"element": "C" 
			},
			{
				"x": 0.5139393136,
				"y": 1.1028878074,
				"z": -1.3128046,
				"element": "C" 
			},
			{
				"x": 1.0895834418,
				"y": 1.5076296821,
				"z": -2.3120561175,
				"element": "O" 
			},
			{
				"x": 1.2718420751,
				"y": 0.6266754082,
				"z": -0.1181841557,
				"element": "C" 
			},
			{
				"x": 0.667706119,
				"y": -0.0697714867,
				"z": 0.9407072603,
				"element": "C" 
			},
			{
				"x": 1.4291933418,
				"y": -0.5035216535,
				"z": 2.0248389796,
				"element": "C" 
			},
			{
				"x": 2.7954608913,
				"y": -0.2264713769,
				"z": 2.0516743025,
				"element": "C" 
			},
			{
				"x": 3.836831858,
				"y": -0.8018604789,
				"z": 3.5423458726,
				"element": "Br" 
			},
			{
				"x": 3.4189895515,
				"y": 0.4612129653,
				"z": 1.0073298636,
				"element": "C" 
			},
			{
				"x": 2.6537102557,
				"y": 0.876676675,
				"z": -0.0755188842,
				"element": "C" 
			},
			{
				"x": -0.663674471,
				"y": -0.2185792139,
				"z": -3.6878967823,
				"element": "H" 
			},
			{
				"x": -2.4026949993,
				"y": 0.0469618854,
				"z": -3.6553613032,
				"element": "H" 
			},
			{
				"x": -1.7771361538,
				"y": -1.6068848259,
				"z": -3.4189617997,
				"element": "H" 
			},
			{
				"x": -1.4109360439,
				"y": 1.2848430574,
				"z": -0.2886878367,
				"element": "H" 
			},
			{
				"x": -1.3531716838,
				"y": 1.8362780839,
				"z": -1.9899751722,
				"element": "H" 
			},
			{
				"x": -0.3887556022,
				"y": -0.3147287039,
				"z": 0.9075022842,
				"element": "H" 
			},
			{
				"x": 0.9678629419,
				"y": -1.0516436086,
				"z": 2.8380623889,
				"element": "H" 
			},
			{
				"x": 4.4833516234,
				"y": 0.6625585328,
				"z": 1.0463660959,
				"element": "H" 
			},
			{
				"x": 3.1096578183,
				"y": 1.4042433908,
				"z": -0.9065839663,
				"element": "H" 
			}
		],
		 "valence_orbital": [ 
			{
				"type": "occ",
				"energy": -0.29591,
				"method": "rhf"
			},
			{
				"type": "occ",
				"energy": -0.27511,
				"method": "rhf"
			},
			{
				"type": "occ",
				"energy": -0.27104,
				"method": "rhf"
			},
			{
				"type": "occ",
				"energy": -0.25643,
				"method": "rhf"
			},
			{
				"type": "occ",
				"energy": -0.25432,
				"method": "rhf"
			},
			{
				"type": "unocc",
				"energy": -0.07575,
				"method": "rhf"
			},
			{
				"type": "unocc",
				"energy": -0.02613,
				"method": "rhf"
			},
			{
				"type": "unocc",
				"energy": -0.02394,
				"method": "rhf"
			},
			{
				"type": "unocc",
				"energy": -0.00041,
				"method": "rhf"
			},
			{
				"type": "unocc",
				"energy": 0.02587,
				"method": "rhf"
			}
		],
		"cosmo_sigma_profile": { 
			"-0.025": 0.0,
			"-0.024": 0.0,
			"-0.023": 0.0,
			"-0.022": 0.0,
			"-0.021": 0.0,
			"-0.02": 0.0,
			"-0.019": 0.0,
			"-0.018": 0.0,
			"-0.017": 0.0,
			"-0.016": 0.0,
			"-0.015": 0.0,
			"-0.014": 0.0,
			"-0.013": 0.0,
			"-0.012": 0.0,
			"-0.011": 0.0,
			"-0.01": 0.0,
			"-0.009": 0.0,
			"-0.008": 2.0522664756,
			"-0.007": 11.5137727725,
			"-0.006": 14.425287503,
			"-0.005": 16.9071365978,
			"-0.004": 18.6665266417,
			"-0.003": 18.6032968203,
			"-0.002": 16.4751589813,
			"-0.001": 15.0026657868,
			"0.0": 16.7973218389,
			"0.001": 21.8232110212,
			"0.002": 24.1199554064,
			"0.003": 13.0967646895,
			"0.004": 13.6694395755,
			"0.005": 4.87522168718,
			"0.006": 3.0601665517,
			"0.007": 2.29985922941,
			"0.008": 2.47484527827,
			"0.009": 4.01096089571,
			"0.01": 4.74752097715,
			"0.011": 7.08891970481,
			"0.012": 3.11898580194,
			"0.013": 0.269201042444,
			"0.014": 0.0,
			"0.015": 0.0,
			"0.016": 0.0,
			"0.017": 0.0,
			"0.018": 0.0,
			"0.019": 0.0,
			"0.02": 0.0,
			"0.021": 0.0,
			"0.022": 0.0,
			"0.023": 0.0,
			"0.024": 0.0,
			"0.025": 0.0
		}
	}
}
