{
	 "smiles": "FC1=CC=C(CCN2C(=O)C=CC2=O)C=C1", 
	 "Tm": 353.15, 
	 "num_atms": 26, 
	 "gaussian": { 
		 "optdone": 1, 
		 "sigma_profile": "yes", 
		 "theory": "DFT", 
		 "functional": "B3LYP", 
		 "basiset": "6-31G**", 
		 "properties": { 
			 "R2extent": 3864.113, 
			 "electric_dipole_moment_norm": 1.36708282485, 
			 "electric_quadrupole_moment_norm": 15.809423127, 
			 "total_energy": -768.344230733, 
			 "HOMO_LUMO_gap": 0.14118, 
			 "cosmo_polarized_energy": -11.66, 
			 "cosmo_cavitation_energy": 31.66, 
			 "cosmo_dispersion_energy": -21.11, 
			 "cosmo_repulsion_energy": 1.63, 
			 "cosmo_total_nonelectrostatic_energy": 12.17, 
			 "SMD_solvation_energy": 7.22 
		},
		"coords": [
			{
				"x": 1.2696517605,
				"y": 2.3941384022,
				"z": 3.3311536163,
				"element": "F" 
			},
			{
				"x": 0.7550834379,
				"y": 2.2481337746,
				"z": 2.0912328124,
				"element": "C" 
			},
			{
				"x": 1.4761020043,
				"y": 1.5387460212,
				"z": 1.1392587216,
				"element": "C" 
			},
			{
				"x": 0.9351288965,
				"y": 1.3969823542,
				"z": -0.1398422433,
				"element": "C" 
			},
			{
				"x": -0.3072715622,
				"y": 1.953660586,
				"z": -0.4714885729,
				"element": "C" 
			},
			{
				"x": -0.8895691658,
				"y": 1.7736464687,
				"z": -1.8567090017,
				"element": "C" 
			},
			{
				"x": -2.0215797599,
				"y": 0.7286727438,
				"z": -1.9337058103,
				"element": "C" 
			},
			{
				"x": -1.624198818,
				"y": -0.5957756699,
				"z": -1.4734427661,
				"element": "N" 
			},
			{
				"x": -2.1479860728,
				"y": -1.2263298972,
				"z": -0.3366038849,
				"element": "C" 
			},
			{
				"x": -2.998102835,
				"y": -0.7707779305,
				"z": 0.3996461957,
				"element": "O" 
			},
			{
				"x": -1.4576449529,
				"y": -2.558364443,
				"z": -0.2459993079,
				"element": "C" 
			},
			{
				"x": -0.6074240097,
				"y": -2.6697136653,
				"z": -1.2707688534,
				"element": "C" 
			},
			{
				"x": -0.6808086152,
				"y": -1.4145316127,
				"z": -2.0957324867,
				"element": "C" 
			},
			{
				"x": -0.0568169916,
				"y": -1.1422444549,
				"z": -3.1033638289,
				"element": "O" 
			},
			{
				"x": -1.0026065068,
				"y": 2.6634335366,
				"z": 0.5186332177,
				"element": "C" 
			},
			{
				"x": -0.4808174351,
				"y": 2.8165128806,
				"z": 1.8020087184,
				"element": "C" 
			},
			{
				"x": 2.4394293043,
				"y": 1.1145984688,
				"z": 1.4014713105,
				"element": "H" 
			},
			{
				"x": 1.4925919583,
				"y": 0.8491669442,
				"z": -0.8951866278,
				"element": "H" 
			},
			{
				"x": -0.1031225765,
				"y": 1.4829926924,
				"z": -2.5586464053,
				"element": "H" 
			},
			{
				"x": -1.3063542933,
				"y": 2.7214967321,
				"z": -2.219409465,
				"element": "H" 
			},
			{
				"x": -2.3741118051,
				"y": 0.6501225936,
				"z": -2.9676068776,
				"element": "H" 
			},
			{
				"x": -2.8655342808,
				"y": 1.0182396494,
				"z": -1.3025946194,
				"element": "H" 
			},
			{
				"x": -1.6732805152,
				"y": -3.2592325235,
				"z": 0.549589928,
				"element": "H" 
			},
			{
				"x": 0.0540592128,
				"y": -3.4854339998,
				"z": -1.5311915259,
				"element": "H" 
			},
			{
				"x": -1.9673084416,
				"y": 3.1070453842,
				"z": 0.2852242247,
				"element": "H" 
			},
			{
				"x": -1.0118079374,
				"y": 3.3657149644,
				"z": 2.5719735321,
				"element": "H" 
			}
		],
		 "valence_orbital": [ 
			{
				"type": "occ",
				"energy": -0.29712,
				"method": "rhf"
			},
			{
				"type": "occ",
				"energy": -0.27801,
				"method": "rhf"
			},
			{
				"type": "occ",
				"energy": -0.27217,
				"method": "rhf"
			},
			{
				"type": "occ",
				"energy": -0.25931,
				"method": "rhf"
			},
			{
				"type": "occ",
				"energy": -0.23837,
				"method": "rhf"
			},
			{
				"type": "unocc",
				"energy": -0.09719,
				"method": "rhf"
			},
			{
				"type": "unocc",
				"energy": -0.01155,
				"method": "rhf"
			},
			{
				"type": "unocc",
				"energy": 0.00011,
				"method": "rhf"
			},
			{
				"type": "unocc",
				"energy": 0.0517,
				"method": "rhf"
			},
			{
				"type": "unocc",
				"energy": 0.06434,
				"method": "rhf"
			}
		],
		"cosmo_sigma_profile": { 
			"-0.025": 0.0,
			"-0.024": 0.0,
			"-0.023": 0.0,
			"-0.022": 0.0,
			"-0.021": 0.0,
			"-0.02": 0.0,
			"-0.019": 0.0,
			"-0.018": 0.0,
			"-0.017": 0.0,
			"-0.016": 0.0,
			"-0.015": 0.0,
			"-0.014": 0.0,
			"-0.013": 0.0,
			"-0.012": 0.0,
			"-0.011": 0.0,
			"-0.01": 1.2335288381,
			"-0.009": 4.09948930926,
			"-0.008": 2.61395767446,
			"-0.007": 6.67178142762,
			"-0.006": 11.8900603146,
			"-0.005": 21.4229511595,
			"-0.004": 22.025307639,
			"-0.003": 25.5312303774,
			"-0.002": 19.8813771718,
			"-0.001": 16.2103067193,
			"0.0": 13.6815012273,
			"0.001": 15.9555210386,
			"0.002": 14.5177454133,
			"0.003": 14.9820659647,
			"0.004": 20.2731978309,
			"0.005": 12.6434089677,
			"0.006": 3.36510518121,
			"0.007": 2.39167397979,
			"0.008": 3.19133565797,
			"0.009": 3.47357014518,
			"0.01": 6.20427976866,
			"0.011": 8.47590749589,
			"0.012": 2.69347966916,
			"0.013": 0.0449928314656,
			"0.014": 0.0,
			"0.015": 0.0,
			"0.016": 0.0,
			"0.017": 0.0,
			"0.018": 0.0,
			"0.019": 0.0,
			"0.02": 0.0,
			"0.021": 0.0,
			"0.022": 0.0,
			"0.023": 0.0,
			"0.024": 0.0,
			"0.025": 0.0
		}
	}
}
