{
	 "smiles": "OC(=O)C1=C(I)C=C(C=C1)[N+]([O-])=O", 
	 "Tm": 413.15, 
	 "num_atms": 17, 
	 "gaussian": { 
		 "optdone": 1, 
		 "sigma_profile": "yes", 
		 "theory": "DFT", 
		 "functional": "B3LYP", 
		 "basiset": "6-31G**", 
		 "properties": { 
			 "R2extent": 3495.1281, 
			 "electric_dipole_moment_norm": 2.07602216992, 
			 "electric_quadrupole_moment_norm": 20.5743632752, 
			 "total_energy": -636.082045783, 
			 "HOMO_LUMO_gap": 0.16518, 
			 "cosmo_polarized_energy": -13.94, 
			 "cosmo_cavitation_energy": 25.95, 
			 "cosmo_dispersion_energy": -20.41, 
			 "cosmo_repulsion_energy": 1.57, 
			 "cosmo_total_nonelectrostatic_energy": 7.1, 
			 "SMD_solvation_energy": 7.13 
		},
		"coords": [
			{
				"x": -3.3517374383,
				"y": 1.9733623136,
				"z": 1.848696251,
				"element": "O" 
			},
			{
				"x": -3.4181292371,
				"y": 0.6809514183,
				"z": 1.4827523648,
				"element": "C" 
			},
			{
				"x": -4.3607257096,
				"y": 0.0016843736,
				"z": 1.8135935777,
				"element": "O" 
			},
			{
				"x": -2.3333511666,
				"y": 0.1100647751,
				"z": 0.5858955644,
				"element": "C" 
			},
			{
				"x": -0.9646026269,
				"y": 0.4395135343,
				"z": 0.5483391266,
				"element": "C" 
			},
			{
				"x": -0.0390420838,
				"y": 1.8574070807,
				"z": 1.8423987572,
				"element": "I" 
			},
			{
				"x": -0.0983131675,
				"y": -0.2022496455,
				"z": -0.3386429297,
				"element": "C" 
			},
			{
				"x": -0.6103744177,
				"y": -1.1710964114,
				"z": -1.1936327255,
				"element": "C" 
			},
			{
				"x": -1.9522722035,
				"y": -1.5369005023,
				"z": -1.1820823499,
				"element": "C" 
			},
			{
				"x": -2.7937514314,
				"y": -0.8969768332,
				"z": -0.2831830251,
				"element": "C" 
			},
			{
				"x": 0.3120860551,
				"y": -1.8355314099,
				"z": -2.1370512935,
				"element": "N" 
			},
			{
				"x": 1.4914842417,
				"y": -1.4914040825,
				"z": -2.1150040407,
				"element": "O" 
			},
			{
				"x": -0.1650204196,
				"y": -2.6878222445,
				"z": -2.8816459326,
				"element": "O" 
			},
			{
				"x": -2.5378762522,
				"y": 2.4020453872,
				"z": 1.538555761,
				"element": "H" 
			},
			{
				"x": 0.957607332,
				"y": 0.0292483178,
				"z": -0.3772595831,
				"element": "H" 
			},
			{
				"x": -2.3106002028,
				"y": -2.3033536714,
				"z": -1.857187417,
				"element": "H" 
			},
			{
				"x": -3.8419812718,
				"y": -1.1655423999,
				"z": -0.2218421056,
				"element": "H" 
			}
		],
		 "valence_orbital": [ 
			{
				"type": "occ",
				"energy": -0.31353,
				"method": "rhf"
			},
			{
				"type": "occ",
				"energy": -0.31202,
				"method": "rhf"
			},
			{
				"type": "occ",
				"energy": -0.30569,
				"method": "rhf"
			},
			{
				"type": "occ",
				"energy": -0.29168,
				"method": "rhf"
			},
			{
				"type": "occ",
				"energy": -0.28289,
				"method": "rhf"
			},
			{
				"type": "unocc",
				"energy": -0.11771,
				"method": "rhf"
			},
			{
				"type": "unocc",
				"energy": -0.07923,
				"method": "rhf"
			},
			{
				"type": "unocc",
				"energy": -0.06113,
				"method": "rhf"
			},
			{
				"type": "unocc",
				"energy": -0.04846,
				"method": "rhf"
			},
			{
				"type": "unocc",
				"energy": 0.02192,
				"method": "rhf"
			}
		],
		"cosmo_sigma_profile": { 
			"-0.025": 0.0,
			"-0.024": 0.0,
			"-0.023": 0.0,
			"-0.022": 0.0,
			"-0.021": 0.0,
			"-0.02": 0.0,
			"-0.019": 0.0,
			"-0.018": 0.0,
			"-0.017": 0.0,
			"-0.016": 0.137778657851,
			"-0.015": 0.879462801085,
			"-0.014": 0.918227344467,
			"-0.013": 0.887862884458,
			"-0.012": 0.890557292352,
			"-0.011": 0.990768178436,
			"-0.01": 0.850594490738,
			"-0.009": 2.66567476128,
			"-0.008": 7.39185612072,
			"-0.007": 9.21711614978,
			"-0.006": 9.39260410921,
			"-0.005": 12.63156711,
			"-0.004": 11.1224620536,
			"-0.003": 16.277206997,
			"-0.002": 21.2352806973,
			"-0.001": 19.3843386176,
			"0.0": 12.8294333636,
			"0.001": 11.1000612632,
			"0.002": 11.1968665884,
			"0.003": 6.77152571893,
			"0.004": 5.21832769201,
			"0.005": 5.6485203432,
			"0.006": 8.01893502423,
			"0.007": 11.5204384181,
			"0.008": 7.63806509276,
			"0.009": 7.8749431114,
			"0.01": 5.23205399017,
			"0.011": 4.67110771685,
			"0.012": 1.69994810136,
			"0.013": 0.0774514690264,
			"0.014": 0.0,
			"0.015": 0.0,
			"0.016": 0.0,
			"0.017": 0.0,
			"0.018": 0.0,
			"0.019": 0.0,
			"0.02": 0.0,
			"0.021": 0.0,
			"0.022": 0.0,
			"0.023": 0.0,
			"0.024": 0.0,
			"0.025": 0.0
		}
	}
}
