{
	 "smiles": "OC(=O)C1CC1C1=CC=C(OC(F)(F)F)C=C1", 
	 "Tm": 370.15, 
	 "num_atms": 26, 
	 "gaussian": { 
		 "optdone": 1, 
		 "sigma_profile": "yes", 
		 "theory": "DFT", 
		 "functional": "B3LYP", 
		 "basiset": "6-31G**", 
		 "properties": { 
			 "R2extent": 5526.2351, 
			 "electric_dipole_moment_norm": 2.16974356549, 
			 "electric_quadrupole_moment_norm": 14.5070339074, 
			 "total_energy": -949.775960832, 
			 "HOMO_LUMO_gap": 0.22091, 
			 "cosmo_polarized_energy": -10.99, 
			 "cosmo_cavitation_energy": 32.18, 
			 "cosmo_dispersion_energy": -22.41, 
			 "cosmo_repulsion_energy": 1.71, 
			 "cosmo_total_nonelectrostatic_energy": 11.48, 
			 "SMD_solvation_energy": 7.82 
		},
		"coords": [
			{
				"x": 1.1085013539,
				"y": -0.2165928674,
				"z": -2.9425677291,
				"element": "O" 
			},
			{
				"x": 2.1050773692,
				"y": 0.7001261451,
				"z": -3.0275171844,
				"element": "C" 
			},
			{
				"x": 3.1942044583,
				"y": 0.4331838902,
				"z": -3.4917418676,
				"element": "O" 
			},
			{
				"x": 1.7294268179,
				"y": 2.0372141353,
				"z": -2.4991559513,
				"element": "C" 
			},
			{
				"x": 0.2809595722,
				"y": 2.4519540425,
				"z": -2.3333222407,
				"element": "C" 
			},
			{
				"x": 1.0967976184,
				"y": 2.2088876165,
				"z": -1.1040810184,
				"element": "C" 
			},
			{
				"x": 0.8645656163,
				"y": 1.0680264584,
				"z": -0.161036472,
				"element": "C" 
			},
			{
				"x": -0.4002901788,
				"y": 0.5055157412,
				"z": 0.0293399485,
				"element": "C" 
			},
			{
				"x": -0.6158775519,
				"y": -0.5276559113,
				"z": 0.9442182014,
				"element": "C" 
			},
			{
				"x": 0.4648465799,
				"y": -1.0017453285,
				"z": 1.6847950394,
				"element": "C" 
			},
			{
				"x": 0.3982421539,
				"y": -2.0266938025,
				"z": 2.63328451,
				"element": "O" 
			},
			{
				"x": -0.7628699788,
				"y": -2.6724348826,
				"z": 2.8928141896,
				"element": "C" 
			},
			{
				"x": -0.5084350589,
				"y": -3.5910051348,
				"z": 3.8233459595,
				"element": "F" 
			},
			{
				"x": -1.7225557345,
				"y": -1.847755328,
				"z": 3.3589191648,
				"element": "F" 
			},
			{
				"x": -1.2656602127,
				"y": -3.2926827096,
				"z": 1.8064542651,
				"element": "F" 
			},
			{
				"x": 1.7386669634,
				"y": -0.4567523609,
				"z": 1.5216239167,
				"element": "C" 
			},
			{
				"x": 1.9302252918,
				"y": 0.5713552874,
				"z": 0.605537304,
				"element": "C" 
			},
			{
				"x": 1.4840819114,
				"y": -1.0482762465,
				"z": -3.2756824681,
				"element": "H" 
			},
			{
				"x": 2.4538015268,
				"y": 2.79263039,
				"z": -2.7821792438,
				"element": "H" 
			},
			{
				"x": -0.4581079835,
				"y": 1.707481429,
				"z": -2.6085395081,
				"element": "H" 
			},
			{
				"x": 0.0199376073,
				"y": 3.4727146275,
				"z": -2.5939958578,
				"element": "H" 
			},
			{
				"x": 1.4661601872,
				"y": 3.1059709746,
				"z": -0.6092294655,
				"element": "H" 
			},
			{
				"x": -1.2440006627,
				"y": 0.8787367198,
				"z": -0.5422888572,
				"element": "H" 
			},
			{
				"x": -1.6084836546,
				"y": -0.9397328967,
				"z": 1.0671244284,
				"element": "H" 
			},
			{
				"x": 2.5591054187,
				"y": -0.8476717701,
				"z": 2.1136831107,
				"element": "H" 
			},
			{
				"x": 2.9242805699,
				"y": 0.9914017814,
				"z": 0.4786978258,
				"element": "H" 
			}
		],
		 "valence_orbital": [ 
			{
				"type": "occ",
				"energy": -0.32386,
				"method": "rhf"
			},
			{
				"type": "occ",
				"energy": -0.30505,
				"method": "rhf"
			},
			{
				"type": "occ",
				"energy": -0.27026,
				"method": "rhf"
			},
			{
				"type": "occ",
				"energy": -0.26546,
				"method": "rhf"
			},
			{
				"type": "occ",
				"energy": -0.24043,
				"method": "rhf"
			},
			{
				"type": "unocc",
				"energy": -0.01952,
				"method": "rhf"
			},
			{
				"type": "unocc",
				"energy": -0.01297,
				"method": "rhf"
			},
			{
				"type": "unocc",
				"energy": 0.00833,
				"method": "rhf"
			},
			{
				"type": "unocc",
				"energy": 0.07431,
				"method": "rhf"
			},
			{
				"type": "unocc",
				"energy": 0.08322,
				"method": "rhf"
			}
		],
		"cosmo_sigma_profile": { 
			"-0.025": 0.0,
			"-0.024": 0.0,
			"-0.023": 0.0,
			"-0.022": 0.0,
			"-0.021": 0.0,
			"-0.02": 0.0,
			"-0.019": 0.0,
			"-0.018": 0.570275153297,
			"-0.017": 0.810768319269,
			"-0.016": 0.696371841836,
			"-0.015": 1.30699270023,
			"-0.014": 0.721178629982,
			"-0.013": 0.658919027198,
			"-0.012": 0.342626523965,
			"-0.011": 0.484259953512,
			"-0.01": 0.945522793634,
			"-0.009": 1.00009526382,
			"-0.008": 0.551930329602,
			"-0.007": 5.29163305172,
			"-0.006": 16.3187065219,
			"-0.005": 15.4791633945,
			"-0.004": 13.8351436924,
			"-0.003": 12.4263790438,
			"-0.002": 14.3461625359,
			"-0.001": 19.0494884335,
			"0.0": 22.8128768068,
			"0.001": 32.9980267441,
			"0.002": 41.2493502841,
			"0.003": 14.1178680022,
			"0.004": 11.0429523122,
			"0.005": 5.40792021746,
			"0.006": 5.19656913779,
			"0.007": 3.51704998731,
			"0.008": 1.96416275192,
			"0.009": 1.33053543972,
			"0.01": 1.78207566554,
			"0.011": 2.78943880559,
			"0.012": 5.72207966888,
			"0.013": 1.98678341965,
			"0.014": 0.126962187732,
			"0.015": 0.0,
			"0.016": 0.0,
			"0.017": 0.0,
			"0.018": 0.0,
			"0.019": 0.0,
			"0.02": 0.0,
			"0.021": 0.0,
			"0.022": 0.0,
			"0.023": 0.0,
			"0.024": 0.0,
			"0.025": 0.0
		}
	}
}
