{
	 "smiles": "S=C=NC1=CC=C(OC2=CC=CC=C2)N=C1", 
	 "Tm": 314.65, 
	 "num_atms": 24, 
	 "gaussian": { 
		 "optdone": 1, 
		 "sigma_profile": "yes", 
		 "theory": "DFT", 
		 "functional": "B3LYP", 
		 "basiset": "6-31G**", 
		 "properties": { 
			 "R2extent": 7416.0311, 
			 "electric_dipole_moment_norm": 4.97462987769, 
			 "electric_quadrupole_moment_norm": 21.1631875562, 
			 "total_energy": -1044.99295109, 
			 "HOMO_LUMO_gap": 0.17799, 
			 "cosmo_polarized_energy": -10.66, 
			 "cosmo_cavitation_energy": 32.74, 
			 "cosmo_dispersion_energy": -23.93, 
			 "cosmo_repulsion_energy": 1.84, 
			 "cosmo_total_nonelectrostatic_energy": 10.64, 
			 "SMD_solvation_energy": 4.96 
		},
		"coords": [
			{
				"x": -7.1817680257,
				"y": 0.9883684665,
				"z": -0.9012420212,
				"element": "S" 
			},
			{
				"x": -5.6683887621,
				"y": 0.5414001845,
				"z": -0.6774309256,
				"element": "C" 
			},
			{
				"x": -4.5406771699,
				"y": 0.2089462147,
				"z": -0.5118584805,
				"element": "N" 
			},
			{
				"x": -3.2414638672,
				"y": -0.1762983488,
				"z": -0.3211950287,
				"element": "C" 
			},
			{
				"x": -2.2725402095,
				"y": -0.0084157145,
				"z": -1.3240361194,
				"element": "C" 
			},
			{
				"x": -0.9698663559,
				"y": -0.4160282879,
				"z": -1.0797730741,
				"element": "C" 
			},
			{
				"x": -0.6800800083,
				"y": -0.9832921469,
				"z": 0.172827517,
				"element": "C" 
			},
			{
				"x": 0.5618028897,
				"y": -1.4210960528,
				"z": 0.5300742133,
				"element": "O" 
			},
			{
				"x": 1.6188686039,
				"y": -1.3205549255,
				"z": -0.3697306958,
				"element": "C" 
			},
			{
				"x": 2.4312726065,
				"y": -0.1873134031,
				"z": -0.3438814568,
				"element": "C" 
			},
			{
				"x": 3.5363393258,
				"y": -0.1245674458,
				"z": -1.1945671428,
				"element": "C" 
			},
			{
				"x": 3.8219110541,
				"y": -1.1845717827,
				"z": -2.0582704377,
				"element": "C" 
			},
			{
				"x": 3.0014131468,
				"y": -2.3149316525,
				"z": -2.0689310166,
				"element": "C" 
			},
			{
				"x": 1.8935994872,
				"y": -2.3891243511,
				"z": -1.2227003165,
				"element": "C" 
			},
			{
				"x": -1.5879067766,
				"y": -1.1480724381,
				"z": 1.1319267161,
				"element": "N" 
			},
			{
				"x": -2.8359670393,
				"y": -0.7555112211,
				"z": 0.8930230311,
				"element": "C" 
			},
			{
				"x": -2.5491149782,
				"y": 0.4354990985,
				"z": -2.2745840193,
				"element": "H" 
			},
			{
				"x": -0.2007089117,
				"y": -0.2998807491,
				"z": -1.8326865262,
				"element": "H" 
			},
			{
				"x": 2.1984292899,
				"y": 0.6195817092,
				"z": 0.3433462533,
				"element": "H" 
			},
			{
				"x": 4.1762874736,
				"y": 0.7526269082,
				"z": -1.1778223624,
				"element": "H" 
			},
			{
				"x": 4.6840974458,
				"y": -1.132537419,
				"z": -2.7160466468,
				"element": "H" 
			},
			{
				"x": 3.2245686949,
				"y": -3.1444300471,
				"z": -2.7333309658,
				"element": "H" 
			},
			{
				"x": 1.2504868524,
				"y": -3.2630354238,
				"z": -1.206361337,
				"element": "H" 
			},
			{
				"x": -3.5619947663,
				"y": -0.8993611718,
				"z": 1.6901508424,
				"element": "H" 
			}
		],
		 "valence_orbital": [ 
			{
				"type": "occ",
				"energy": -0.28207,
				"method": "rhf"
			},
			{
				"type": "occ",
				"energy": -0.26915,
				"method": "rhf"
			},
			{
				"type": "occ",
				"energy": -0.25973,
				"method": "rhf"
			},
			{
				"type": "occ",
				"energy": -0.25135,
				"method": "rhf"
			},
			{
				"type": "occ",
				"energy": -0.2272,
				"method": "rhf"
			},
			{
				"type": "unocc",
				"energy": -0.04921,
				"method": "rhf"
			},
			{
				"type": "unocc",
				"energy": -0.04139,
				"method": "rhf"
			},
			{
				"type": "unocc",
				"energy": -0.0181,
				"method": "rhf"
			},
			{
				"type": "unocc",
				"energy": -0.01628,
				"method": "rhf"
			},
			{
				"type": "unocc",
				"energy": 0.00137,
				"method": "rhf"
			}
		],
		"cosmo_sigma_profile": { 
			"-0.025": 0.0,
			"-0.024": 0.0,
			"-0.023": 0.0,
			"-0.022": 0.0,
			"-0.021": 0.0,
			"-0.02": 0.0,
			"-0.019": 0.0,
			"-0.018": 0.0,
			"-0.017": 0.0,
			"-0.016": 0.0,
			"-0.015": 0.0,
			"-0.014": 0.0,
			"-0.013": 0.0,
			"-0.012": 0.0,
			"-0.011": 0.0,
			"-0.01": 0.0,
			"-0.009": 1.46274603733,
			"-0.008": 4.45153116603,
			"-0.007": 9.84572315466,
			"-0.006": 14.902095684,
			"-0.005": 16.7556724791,
			"-0.004": 17.9334541954,
			"-0.003": 15.8054139711,
			"-0.002": 23.6011682256,
			"-0.001": 28.692786078,
			"0.0": 22.0496755632,
			"0.001": 18.2828162521,
			"0.002": 16.8984014002,
			"0.003": 17.2548769471,
			"0.004": 16.52597251,
			"0.005": 14.2316469591,
			"0.006": 14.6854369728,
			"0.007": 3.0827353859,
			"0.008": 1.43932628792,
			"0.009": 1.81171916965,
			"0.01": 2.57297558052,
			"0.011": 1.78262335394,
			"0.012": 1.64433483133,
			"0.013": 1.07117987592,
			"0.014": 1.00662006534,
			"0.015": 0.767272213735,
			"0.016": 0.0,
			"0.017": 0.0,
			"0.018": 0.0,
			"0.019": 0.0,
			"0.02": 0.0,
			"0.021": 0.0,
			"0.022": 0.0,
			"0.023": 0.0,
			"0.024": 0.0,
			"0.025": 0.0
		}
	}
}
