{
	 "smiles": "CC1=C(N)C=C(C=C1)S(=O)(=O)N1CCOCC1", 
	 "Tm": 404.15, 
	 "num_atms": 33, 
	 "gaussian": { 
		 "optdone": 1, 
		 "sigma_profile": "yes", 
		 "theory": "DFT", 
		 "functional": "B3LYP", 
		 "basiset": "6-31G**", 
		 "properties": { 
			 "R2extent": 5045.9477, 
			 "electric_dipole_moment_norm": 5.39467640642, 
			 "electric_quadrupole_moment_norm": 24.017027712, 
			 "total_energy": -1162.10292645, 
			 "HOMO_LUMO_gap": 0.19, 
			 "cosmo_polarized_energy": -19.19, 
			 "cosmo_cavitation_energy": 35.62, 
			 "cosmo_dispersion_energy": -26.19, 
			 "cosmo_repulsion_energy": 1.99, 
			 "cosmo_total_nonelectrostatic_energy": 11.43, 
			 "SMD_solvation_energy": 3.79 
		},
		"coords": [
			{
				"x": 3.0767221749,
				"y": -1.2473232634,
				"z": -3.2656757313,
				"element": "C" 
			},
			{
				"x": 2.1495284444,
				"y": -0.6811937134,
				"z": -2.220655555,
				"element": "C" 
			},
			{
				"x": 2.5805901797,
				"y": -0.5724354205,
				"z": -0.8755556441,
				"element": "C" 
			},
			{
				"x": 3.8461502814,
				"y": -1.0234327698,
				"z": -0.5035338256,
				"element": "N" 
			},
			{
				"x": 1.7038391114,
				"y": -0.0575626796,
				"z": 0.0910404691,
				"element": "C" 
			},
			{
				"x": 0.4223576671,
				"y": 0.3483248551,
				"z": -0.2780761312,
				"element": "C" 
			},
			{
				"x": -0.0178010192,
				"y": 0.2639346986,
				"z": -1.5996073904,
				"element": "C" 
			},
			{
				"x": 0.8618117885,
				"y": -0.2530241807,
				"z": -2.5513539785,
				"element": "C" 
			},
			{
				"x": -0.6941220473,
				"y": 0.95329313,
				"z": 0.9917818955,
				"element": "S" 
			},
			{
				"x": -1.6749791487,
				"y": 1.8262632012,
				"z": 0.3430225645,
				"element": "O" 
			},
			{
				"x": 0.1214307695,
				"y": 1.4004924526,
				"z": 2.12447571,
				"element": "O" 
			},
			{
				"x": -1.5675279032,
				"y": -0.384004529,
				"z": 1.5538665042,
				"element": "N" 
			},
			{
				"x": -2.5463088822,
				"y": -0.9786409926,
				"z": 0.6305858079,
				"element": "C" 
			},
			{
				"x": -3.4807171303,
				"y": -1.8770816785,
				"z": 1.4416714326,
				"element": "C" 
			},
			{
				"x": -2.7553149358,
				"y": -2.865533589,
				"z": 2.1594002804,
				"element": "O" 
			},
			{
				"x": -1.8411412602,
				"y": -2.2653993748,
				"z": 3.0660197278,
				"element": "C" 
			},
			{
				"x": -0.8260605611,
				"y": -1.3862210196,
				"z": 2.3346559983,
				"element": "C" 
			},
			{
				"x": 2.5805316683,
				"y": -1.3178046738,
				"z": -4.2363452638,
				"element": "H" 
			},
			{
				"x": 3.9705505098,
				"y": -0.6221697882,
				"z": -3.4030334808,
				"element": "H" 
			},
			{
				"x": 3.4253642111,
				"y": -2.2498667866,
				"z": -2.9886698135,
				"element": "H" 
			},
			{
				"x": 4.5597076516,
				"y": -0.976684375,
				"z": -1.2169988641,
				"element": "H" 
			},
			{
				"x": 4.1781454849,
				"y": -0.6806801544,
				"z": 0.3874062354,
				"element": "H" 
			},
			{
				"x": 2.0268835506,
				"y": 0.05788809,
				"z": 1.1207667834,
				"element": "H" 
			},
			{
				"x": -1.0026186307,
				"y": 0.6212080952,
				"z": -1.8753275323,
				"element": "H" 
			},
			{
				"x": 0.5412951575,
				"y": -0.3228053421,
				"z": -3.5876575787,
				"element": "H" 
			},
			{
				"x": -3.1117789845,
				"y": -0.1736783366,
				"z": 0.1570773465,
				"element": "H" 
			},
			{
				"x": -2.0477657933,
				"y": -1.5768326403,
				"z": -0.1488330178,
				"element": "H" 
			},
			{
				"x": -4.1625298008,
				"y": -2.4110417707,
				"z": 0.7736614458,
				"element": "H" 
			},
			{
				"x": -4.0726739178,
				"y": -1.2579526969,
				"z": 2.1339018534,
				"element": "H" 
			},
			{
				"x": -1.3284357551,
				"y": -3.0822155205,
				"z": 3.5819977977,
				"element": "H" 
			},
			{
				"x": -2.3811635263,
				"y": -1.6580745429,
				"z": 3.80932283,
				"element": "H" 
			},
			{
				"x": -0.1892477961,
				"y": -0.8662306701,
				"z": 3.0530049123,
				"element": "H" 
			},
			{
				"x": -0.1980215577,
				"y": -2.0154140136,
				"z": 1.6837642123,
				"element": "H" 
			}
		],
		 "valence_orbital": [ 
			{
				"type": "occ",
				"energy": -0.29435,
				"method": "rhf"
			},
			{
				"type": "occ",
				"energy": -0.27578,
				"method": "rhf"
			},
			{
				"type": "occ",
				"energy": -0.26005,
				"method": "rhf"
			},
			{
				"type": "occ",
				"energy": -0.24532,
				"method": "rhf"
			},
			{
				"type": "occ",
				"energy": -0.21858,
				"method": "rhf"
			},
			{
				"type": "unocc",
				"energy": -0.02858,
				"method": "rhf"
			},
			{
				"type": "unocc",
				"energy": -0.00362,
				"method": "rhf"
			},
			{
				"type": "unocc",
				"energy": 0.06063,
				"method": "rhf"
			},
			{
				"type": "unocc",
				"energy": 0.06476,
				"method": "rhf"
			},
			{
				"type": "unocc",
				"energy": 0.09388,
				"method": "rhf"
			}
		],
		"cosmo_sigma_profile": { 
			"-0.025": 0.0,
			"-0.024": 0.0,
			"-0.023": 0.0,
			"-0.022": 0.0,
			"-0.021": 0.0,
			"-0.02": 0.0,
			"-0.019": 0.0,
			"-0.018": 0.0,
			"-0.017": 0.0,
			"-0.016": 0.0,
			"-0.015": 0.0,
			"-0.014": 0.0,
			"-0.013": 0.9193829668,
			"-0.012": 2.26844423638,
			"-0.011": 3.28445365885,
			"-0.01": 3.26067263035,
			"-0.009": 3.33627460514,
			"-0.008": 2.93487057452,
			"-0.007": 2.86007287029,
			"-0.006": 13.6476695233,
			"-0.005": 22.9953858913,
			"-0.004": 34.4713381019,
			"-0.003": 26.5642898484,
			"-0.002": 20.6364428158,
			"-0.001": 17.9107133672,
			"0.0": 15.5992154096,
			"0.001": 11.0682543711,
			"0.002": 11.2272664544,
			"0.003": 12.563684872,
			"0.004": 15.0774646065,
			"0.005": 8.11653471376,
			"0.006": 6.0365661291,
			"0.007": 6.52185455643,
			"0.008": 6.46481462623,
			"0.009": 5.53257185946,
			"0.01": 7.06772655324,
			"0.011": 9.87551503491,
			"0.012": 7.78154526896,
			"0.013": 1.69085809284,
			"0.014": 0.207006225238,
			"0.015": 0.0,
			"0.016": 0.0,
			"0.017": 0.0,
			"0.018": 0.0,
			"0.019": 0.0,
			"0.02": 0.0,
			"0.021": 0.0,
			"0.022": 0.0,
			"0.023": 0.0,
			"0.024": 0.0,
			"0.025": 0.0
		}
	}
}
