{
	 "smiles": "N#CC(=NNC1=CC=CC2=CC=CC=C12)C1=NC2=C(S1)C=CC=C2", 
	 "Tm": 527.15, 
	 "num_atms": 36, 
	 "gaussian": { 
		 "optdone": 1, 
		 "sigma_profile": "yes", 
		 "theory": "DFT", 
		 "functional": "B3LYP", 
		 "basiset": "6-31G**", 
		 "properties": { 
			 "R2extent": 10630.364, 
			 "electric_dipole_moment_norm": 6.09256382568, 
			 "electric_quadrupole_moment_norm": 28.7984343566, 
			 "total_energy": -1348.42074414, 
			 "HOMO_LUMO_gap": 0.11584, 
			 "cosmo_polarized_energy": -12.36, 
			 "cosmo_cavitation_energy": 43.57, 
			 "cosmo_dispersion_energy": -30.95, 
			 "cosmo_repulsion_energy": 2.22, 
			 "cosmo_total_nonelectrostatic_energy": 14.84, 
			 "SMD_solvation_energy": 6.32 
		},
		"coords": [
			{
				"x": -2.7339162779,
				"y": 4.4755915143,
				"z": 2.1922007638,
				"element": "N" 
			},
			{
				"x": -2.3184133729,
				"y": 3.517223947,
				"z": 1.6785005036,
				"element": "C" 
			},
			{
				"x": -1.8369257293,
				"y": 2.3052452102,
				"z": 1.0838637255,
				"element": "C" 
			},
			{
				"x": -1.0404707851,
				"y": 2.4593737084,
				"z": 0.0423359378,
				"element": "N" 
			},
			{
				"x": -0.5434143224,
				"y": 1.4087122267,
				"z": -0.5632367738,
				"element": "N" 
			},
			{
				"x": 0.2589864929,
				"y": 1.54981922,
				"z": -1.7088023235,
				"element": "C" 
			},
			{
				"x": 0.3792291159,
				"y": 2.7731970482,
				"z": -2.3446613154,
				"element": "C" 
			},
			{
				"x": 1.1675443367,
				"y": 2.8938218466,
				"z": -3.5060480909,
				"element": "C" 
			},
			{
				"x": 1.8172916496,
				"y": 1.8000844992,
				"z": -4.0331555802,
				"element": "C" 
			},
			{
				"x": 1.7206336351,
				"y": 0.5324280439,
				"z": -3.4016239386,
				"element": "C" 
			},
			{
				"x": 2.3912162423,
				"y": -0.6066303271,
				"z": -3.9243383801,
				"element": "C" 
			},
			{
				"x": 2.3137489686,
				"y": -1.8289484623,
				"z": -3.2983975761,
				"element": "C" 
			},
			{
				"x": 1.5641157457,
				"y": -1.9641029403,
				"z": -2.1067238335,
				"element": "C" 
			},
			{
				"x": 0.8964483231,
				"y": -0.8835759264,
				"z": -1.5726586221,
				"element": "C" 
			},
			{
				"x": 0.9409627312,
				"y": 0.3895037598,
				"z": -2.2050954925,
				"element": "C" 
			},
			{
				"x": -2.2562724914,
				"y": 1.0384936844,
				"z": 1.6626985803,
				"element": "C" 
			},
			{
				"x": -1.8756406179,
				"y": -0.1297298994,
				"z": 1.2017374642,
				"element": "N" 
			},
			{
				"x": -2.4262960413,
				"y": -1.1688620443,
				"z": 1.9284239631,
				"element": "C" 
			},
			{
				"x": -3.264175984,
				"y": -0.7687124419,
				"z": 2.9981927311,
				"element": "C" 
			},
			{
				"x": -3.3460430492,
				"y": 0.9794359929,
				"z": 3.065444681,
				"element": "S" 
			},
			{
				"x": -3.8892089378,
				"y": -1.7085951772,
				"z": 3.821600081,
				"element": "C" 
			},
			{
				"x": -3.6678099411,
				"y": -3.0582981562,
				"z": 3.5618542754,
				"element": "C" 
			},
			{
				"x": -2.839681702,
				"y": -3.4669223822,
				"z": 2.5009093371,
				"element": "C" 
			},
			{
				"x": -2.2168700876,
				"y": -2.5347246867,
				"z": 1.6816665362,
				"element": "C" 
			},
			{
				"x": -0.8142978713,
				"y": 0.4835652743,
				"z": -0.2094548725,
				"element": "H" 
			},
			{
				"x": -0.1473436153,
				"y": 3.6293783048,
				"z": -1.9410772863,
				"element": "H" 
			},
			{
				"x": 1.2459538512,
				"y": 3.8624438656,
				"z": -3.9903036033,
				"element": "H" 
			},
			{
				"x": 2.4140565585,
				"y": 1.8916037453,
				"z": -4.9361486143,
				"element": "H" 
			},
			{
				"x": 2.9747747009,
				"y": -0.4897386698,
				"z": -4.8336834725,
				"element": "H" 
			},
			{
				"x": 2.8330815929,
				"y": -2.6890925695,
				"z": -3.7102831113,
				"element": "H" 
			},
			{
				"x": 1.5204801526,
				"y": -2.9260244725,
				"z": -1.6045302537,
				"element": "H" 
			},
			{
				"x": 0.352766692,
				"y": -1.0177623872,
				"z": -0.642681344,
				"element": "H" 
			},
			{
				"x": -4.5299264292,
				"y": -1.3980548318,
				"z": 4.6403822947,
				"element": "H" 
			},
			{
				"x": -4.1438520418,
				"y": -3.8058454641,
				"z": 4.1888903138,
				"element": "H" 
			},
			{
				"x": -2.6867737627,
				"y": -4.5265087394,
				"z": 2.3208889564,
				"element": "H" 
			},
			{
				"x": -1.5786577288,
				"y": -2.8385923134,
				"z": 0.8584143393,
				"element": "H" 
			}
		],
		 "valence_orbital": [ 
			{
				"type": "occ",
				"energy": -0.27271,
				"method": "rhf"
			},
			{
				"type": "occ",
				"energy": -0.25467,
				"method": "rhf"
			},
			{
				"type": "occ",
				"energy": -0.25061,
				"method": "rhf"
			},
			{
				"type": "occ",
				"energy": -0.24409,
				"method": "rhf"
			},
			{
				"type": "occ",
				"energy": -0.20608,
				"method": "rhf"
			},
			{
				"type": "unocc",
				"energy": -0.09024,
				"method": "rhf"
			},
			{
				"type": "unocc",
				"energy": -0.04276,
				"method": "rhf"
			},
			{
				"type": "unocc",
				"energy": -0.02117,
				"method": "rhf"
			},
			{
				"type": "unocc",
				"energy": -0.02039,
				"method": "rhf"
			},
			{
				"type": "unocc",
				"energy": -0.01717,
				"method": "rhf"
			}
		],
		"cosmo_sigma_profile": { 
			"-0.025": 0.0,
			"-0.024": 0.0,
			"-0.023": 0.0,
			"-0.022": 0.0,
			"-0.021": 0.0,
			"-0.02": 0.0,
			"-0.019": 0.0,
			"-0.018": 0.0,
			"-0.017": 0.0,
			"-0.016": 0.0,
			"-0.015": 0.0,
			"-0.014": 0.0,
			"-0.013": 0.0,
			"-0.012": 0.0,
			"-0.011": 0.0,
			"-0.01": 0.0,
			"-0.009": 0.0,
			"-0.008": 1.6401472714,
			"-0.007": 6.75504759784,
			"-0.006": 22.34147964,
			"-0.005": 26.178880997,
			"-0.004": 28.0605845004,
			"-0.003": 23.6114225662,
			"-0.002": 27.8797644845,
			"-0.001": 23.0355790544,
			"0.0": 27.0496876874,
			"0.001": 33.2184300194,
			"0.002": 34.4624306234,
			"0.003": 39.4770077958,
			"0.004": 31.0456339963,
			"0.005": 10.3984630855,
			"0.006": 3.07839314956,
			"0.007": 3.24051020171,
			"0.008": 2.83589115831,
			"0.009": 3.16997697853,
			"0.01": 2.97049865162,
			"0.011": 2.63735787115,
			"0.012": 2.21946501219,
			"0.013": 0.741144753259,
			"0.014": 0.0,
			"0.015": 0.0,
			"0.016": 0.0,
			"0.017": 0.0,
			"0.018": 0.0,
			"0.019": 0.0,
			"0.02": 0.0,
			"0.021": 0.0,
			"0.022": 0.0,
			"0.023": 0.0,
			"0.024": 0.0,
			"0.025": 0.0
		}
	}
}
