{
	 "smiles": "CCO[Si](C1=CC=CC=C1)(C1=CC=CC=C1)C1=CC=CC=C1", 
	 "Tm": 338.15, 
	 "num_atms": 42, 
	 "gaussian": { 
		 "optdone": 1, 
		 "sigma_profile": "yes", 
		 "theory": "DFT", 
		 "functional": "B3LYP", 
		 "basiset": "6-31G**", 
		 "properties": { 
			 "R2extent": 8002.5007, 
			 "electric_dipole_moment_norm": 1.09506084306, 
			 "electric_quadrupole_moment_norm": 4.13494750269, 
			 "total_energy": -1138.96897455, 
			 "HOMO_LUMO_gap": 0.2219, 
			 "cosmo_polarized_energy": -8.58, 
			 "cosmo_cavitation_energy": 46.72, 
			 "cosmo_dispersion_energy": -29.41, 
			 "cosmo_repulsion_energy": 2.38, 
			 "cosmo_total_nonelectrostatic_energy": 19.69, 
			 "SMD_solvation_energy": 8.16 
		},
		"coords": [
			{
				"x": -3.5844932988,
				"y": 0.9531042274,
				"z": 0.6937106713,
				"element": "C" 
			},
			{
				"x": -2.7271461378,
				"y": -0.1822988893,
				"z": 0.1564314938,
				"element": "C" 
			},
			{
				"x": -1.3899330625,
				"y": -0.018250176,
				"z": 0.6276614402,
				"element": "O" 
			},
			{
				"x": -0.0964307753,
				"y": -0.9869132856,
				"z": 0.1949087226,
				"element": "Si" 
			},
			{
				"x": 1.3952191962,
				"y": -0.0934740872,
				"z": 0.9061985972,
				"element": "C" 
			},
			{
				"x": 2.587008851,
				"y": -0.7832988369,
				"z": 1.1943045576,
				"element": "C" 
			},
			{
				"x": 3.7065616611,
				"y": -0.1149506663,
				"z": 1.6915537202,
				"element": "C" 
			},
			{
				"x": 3.6540030236,
				"y": 1.2624346289,
				"z": 1.915616996,
				"element": "C" 
			},
			{
				"x": 2.4786185138,
				"y": 1.9652051634,
				"z": 1.6438468043,
				"element": "C" 
			},
			{
				"x": 1.361471671,
				"y": 1.2928810321,
				"z": 1.1444336235,
				"element": "C" 
			},
			{
				"x": 0.0350982268,
				"y": -1.1400625315,
				"z": -1.6820424305,
				"element": "C" 
			},
			{
				"x": 0.8946299322,
				"y": -0.3013465478,
				"z": -2.4165408618,
				"element": "C" 
			},
			{
				"x": 0.9603449699,
				"y": -0.3705828439,
				"z": -3.8091996942,
				"element": "C" 
			},
			{
				"x": 0.163165844,
				"y": -1.2837740662,
				"z": -4.5017192277,
				"element": "C" 
			},
			{
				"x": -0.6972933785,
				"y": -2.1272499859,
				"z": -3.7961895597,
				"element": "C" 
			},
			{
				"x": -0.7572281588,
				"y": -2.0549311654,
				"z": -2.4033908649,
				"element": "C" 
			},
			{
				"x": -0.3094117955,
				"y": -2.6931563692,
				"z": 0.9668671991,
				"element": "C" 
			},
			{
				"x": -1.0280039287,
				"y": -2.824203649,
				"z": 2.1708475428,
				"element": "C" 
			},
			{
				"x": -1.1666297176,
				"y": -4.0617212483,
				"z": 2.8004982749,
				"element": "C" 
			},
			{
				"x": -0.5827481363,
				"y": -5.1996716262,
				"z": 2.2393169056,
				"element": "C" 
			},
			{
				"x": 0.1349418412,
				"y": -5.0942831122,
				"z": 1.0466874523,
				"element": "C" 
			},
			{
				"x": 0.2654951,
				"y": -3.8542137781,
				"z": 0.4174333874,
				"element": "C" 
			},
			{
				"x": -3.2027318498,
				"y": 1.9184229753,
				"z": 0.3480454151,
				"element": "H" 
			},
			{
				"x": -4.6194927859,
				"y": 0.8464284697,
				"z": 0.3517724375,
				"element": "H" 
			},
			{
				"x": -3.5786719021,
				"y": 0.9552406876,
				"z": 1.7878253647,
				"element": "H" 
			},
			{
				"x": -2.7418698515,
				"y": -0.184065103,
				"z": -0.9423614447,
				"element": "H" 
			},
			{
				"x": -3.1254595587,
				"y": -1.1506924346,
				"z": 0.4925972,
				"element": "H" 
			},
			{
				"x": 2.6401890218,
				"y": -1.8587389776,
				"z": 1.0405934675,
				"element": "H" 
			},
			{
				"x": 4.6163315354,
				"y": -0.6678757953,
				"z": 1.9093474282,
				"element": "H" 
			},
			{
				"x": 4.5237429504,
				"y": 1.7845183528,
				"z": 2.3053347761,
				"element": "H" 
			},
			{
				"x": 2.4309042006,
				"y": 3.0358781684,
				"z": 1.8240853697,
				"element": "H" 
			},
			{
				"x": 0.4461134508,
				"y": 1.8440677202,
				"z": 0.949004867,
				"element": "H" 
			},
			{
				"x": 1.524236948,
				"y": 0.4124134233,
				"z": -1.8918041546,
				"element": "H" 
			},
			{
				"x": 1.634476168,
				"y": 0.2854893692,
				"z": -4.3532264598,
				"element": "H" 
			},
			{
				"x": 0.2140482034,
				"y": -1.3401825873,
				"z": -5.5857002965,
				"element": "H" 
			},
			{
				"x": -1.317999207,
				"y": -2.8421408606,
				"z": -4.3296762963,
				"element": "H" 
			},
			{
				"x": -1.4235494174,
				"y": -2.7294391007,
				"z": -1.8707684617,
				"element": "H" 
			},
			{
				"x": -1.4837746301,
				"y": -1.9443156264,
				"z": 2.6182677744,
				"element": "H" 
			},
			{
				"x": -1.7281601728,
				"y": -4.1393886559,
				"z": 3.7276521895,
				"element": "H" 
			},
			{
				"x": -0.6882613307,
				"y": -6.1641715583,
				"z": 2.7285540977,
				"element": "H" 
			},
			{
				"x": 0.5885953695,
				"y": -5.9772377336,
				"z": 0.6044641796,
				"element": "H" 
			},
			{
				"x": 0.8150924168,
				"y": -3.7934529204,
				"z": -0.5187422031,
				"element": "H" 
			}
		],
		 "valence_orbital": [ 
			{
				"type": "occ",
				"energy": -0.25004,
				"method": "rhf"
			},
			{
				"type": "occ",
				"energy": -0.24823,
				"method": "rhf"
			},
			{
				"type": "occ",
				"energy": -0.2468,
				"method": "rhf"
			},
			{
				"type": "occ",
				"energy": -0.24382,
				"method": "rhf"
			},
			{
				"type": "occ",
				"energy": -0.24089,
				"method": "rhf"
			},
			{
				"type": "unocc",
				"energy": -0.01899,
				"method": "rhf"
			},
			{
				"type": "unocc",
				"energy": -0.01555,
				"method": "rhf"
			},
			{
				"type": "unocc",
				"energy": -0.00454,
				"method": "rhf"
			},
			{
				"type": "unocc",
				"energy": -0.00367,
				"method": "rhf"
			},
			{
				"type": "unocc",
				"energy": 0.00324,
				"method": "rhf"
			}
		],
		"cosmo_sigma_profile": { 
			"-0.025": 0.0,
			"-0.024": 0.0,
			"-0.023": 0.0,
			"-0.022": 0.0,
			"-0.021": 0.0,
			"-0.02": 0.0,
			"-0.019": 0.0,
			"-0.018": 0.0,
			"-0.017": 0.0,
			"-0.016": 0.0,
			"-0.015": 0.0,
			"-0.014": 0.0,
			"-0.013": 0.0,
			"-0.012": 0.0,
			"-0.011": 0.0,
			"-0.01": 0.0,
			"-0.009": 0.0,
			"-0.008": 0.0,
			"-0.007": 0.0144318498368,
			"-0.006": 9.07155838357,
			"-0.005": 22.3515785441,
			"-0.004": 36.0075467212,
			"-0.003": 44.4806550387,
			"-0.002": 33.9479108947,
			"-0.001": 36.4846361584,
			"0.0": 30.5708681467,
			"0.001": 29.4690111963,
			"0.002": 24.0701130089,
			"0.003": 25.6727756528,
			"0.004": 25.3248060634,
			"0.005": 26.7315061115,
			"0.006": 18.7163272808,
			"0.007": 1.95523264346,
			"0.008": 1.17383765508,
			"0.009": 0.58444348811,
			"0.01": 1.21686388721,
			"0.011": 0.475041285536,
			"0.012": 0.155579462649,
			"0.013": 0.0,
			"0.014": 0.0,
			"0.015": 0.0,
			"0.016": 0.0,
			"0.017": 0.0,
			"0.018": 0.0,
			"0.019": 0.0,
			"0.02": 0.0,
			"0.021": 0.0,
			"0.022": 0.0,
			"0.023": 0.0,
			"0.024": 0.0,
			"0.025": 0.0
		}
	}
}
