{
	 "smiles": "CCCN1CCN(CC1)C1=C(Cl)C=C(N)C=C1", 
	 "Tm": 553.15, 
	 "num_atms": 37, 
	 "gaussian": { 
		 "optdone": 1, 
		 "sigma_profile": "yes", 
		 "theory": "DFT", 
		 "functional": "B3LYP", 
		 "basiset": "6-31G**", 
		 "properties": { 
			 "R2extent": 6696.8543, 
			 "electric_dipole_moment_norm": 2.97453594532, 
			 "electric_quadrupole_moment_norm": 17.3531191095, 
			 "total_energy": -1131.86132728, 
			 "HOMO_LUMO_gap": 0.17666, 
			 "cosmo_polarized_energy": -12.14, 
			 "cosmo_cavitation_energy": 38.66, 
			 "cosmo_dispersion_energy": -27.73, 
			 "cosmo_repulsion_energy": 2.17, 
			 "cosmo_total_nonelectrostatic_energy": 13.1, 
			 "SMD_solvation_energy": 3.2 
		},
		"coords": [
			{
				"x": -0.2162019994,
				"y": 1.5083070776,
				"z": 4.7160745255,
				"element": "C" 
			},
			{
				"x": 1.2188365746,
				"y": 1.5279616662,
				"z": 4.1781143494,
				"element": "C" 
			},
			{
				"x": 1.357067268,
				"y": 1.8837821064,
				"z": 2.6795784667,
				"element": "C" 
			},
			{
				"x": 0.8810578032,
				"y": 0.9375460275,
				"z": 1.6850012913,
				"element": "N" 
			},
			{
				"x": -0.5376898759,
				"y": 0.8256228342,
				"z": 1.4127134227,
				"element": "C" 
			},
			{
				"x": -0.7468735701,
				"y": 0.3807343259,
				"z": -0.0474406844,
				"element": "C" 
			},
			{
				"x": 0.2635481619,
				"y": -0.6278376503,
				"z": -0.4341561748,
				"element": "N" 
			},
			{
				"x": 0.8423266648,
				"y": -1.3238736047,
				"z": 0.707165896,
				"element": "C" 
			},
			{
				"x": 1.6043161928,
				"y": -0.3241695115,
				"z": 1.5950803115,
				"element": "C" 
			},
			{
				"x": -0.0427820883,
				"y": -1.3986069473,
				"z": -1.5806559544,
				"element": "C" 
			},
			{
				"x": 0.0180015572,
				"y": -0.8536233591,
				"z": -2.8789872645,
				"element": "C" 
			},
			{
				"x": 0.5325685773,
				"y": 0.8126048363,
				"z": -3.1200882222,
				"element": "Cl" 
			},
			{
				"x": -0.288667506,
				"y": -1.5958467997,
				"z": -4.0156751448,
				"element": "C" 
			},
			{
				"x": -0.6460797014,
				"y": -2.9484536681,
				"z": -3.9100546534,
				"element": "C" 
			},
			{
				"x": -0.8801023269,
				"y": -3.7159008868,
				"z": -5.0560430987,
				"element": "N" 
			},
			{
				"x": -0.6921301221,
				"y": -3.5200389357,
				"z": -2.6299312008,
				"element": "C" 
			},
			{
				"x": -0.4105648251,
				"y": -2.7538482583,
				"z": -1.5036443082,
				"element": "C" 
			},
			{
				"x": -0.8103625584,
				"y": 0.7065425084,
				"z": 4.2677756209,
				"element": "H" 
			},
			{
				"x": -0.7293958677,
				"y": 2.4553048164,
				"z": 4.5102259211,
				"element": "H" 
			},
			{
				"x": -0.2276122149,
				"y": 1.3567662147,
				"z": 5.8007644048,
				"element": "H" 
			},
			{
				"x": 1.7007870414,
				"y": 0.5615814016,
				"z": 4.3745110096,
				"element": "H" 
			},
			{
				"x": 1.8024704644,
				"y": 2.2695646503,
				"z": 4.7407035034,
				"element": "H" 
			},
			{
				"x": 0.850414718,
				"y": 2.8414258054,
				"z": 2.4964418191,
				"element": "H" 
			},
			{
				"x": 2.4234955169,
				"y": 2.0560141942,
				"z": 2.4728693987,
				"element": "H" 
			},
			{
				"x": -1.0697030117,
				"y": 0.1331253654,
				"z": 2.0919410256,
				"element": "H" 
			},
			{
				"x": -1.0049319764,
				"y": 1.8061178916,
				"z": 1.5513886891,
				"element": "H" 
			},
			{
				"x": -0.653398284,
				"y": 1.2441572743,
				"z": -0.712071835,
				"element": "H" 
			},
			{
				"x": -1.7684796104,
				"y": -0.0203177843,
				"z": -0.15582124,
				"element": "H" 
			},
			{
				"x": 1.5407022147,
				"y": -2.0814719811,
				"z": 0.3416995451,
				"element": "H" 
			},
			{
				"x": 0.0867735514,
				"y": -1.855696079,
				"z": 1.3148481267,
				"element": "H" 
			},
			{
				"x": 2.5982868815,
				"y": -0.1304208372,
				"z": 1.1673320716,
				"element": "H" 
			},
			{
				"x": 1.763738183,
				"y": -0.8059609841,
				"z": 2.5780515074,
				"element": "H" 
			},
			{
				"x": -0.2189220243,
				"y": -1.1232526015,
				"z": -4.9902262386,
				"element": "H" 
			},
			{
				"x": -1.1790909059,
				"y": -3.1894425807,
				"z": -5.8657292047,
				"element": "H" 
			},
			{
				"x": -1.4644994699,
				"y": -4.5274844778,
				"z": -4.9073726232,
				"element": "H" 
			},
			{
				"x": -0.9595633225,
				"y": -4.5676241654,
				"z": -2.5163482441,
				"element": "H" 
			},
			{
				"x": -0.4827401095,
				"y": -3.2193878838,
				"z": -0.5258348141,
				"element": "H" 
			}
		],
		 "valence_orbital": [ 
			{
				"type": "occ",
				"energy": -0.29272,
				"method": "rhf"
			},
			{
				"type": "occ",
				"energy": -0.23789,
				"method": "rhf"
			},
			{
				"type": "occ",
				"energy": -0.22925,
				"method": "rhf"
			},
			{
				"type": "occ",
				"energy": -0.1927,
				"method": "rhf"
			},
			{
				"type": "occ",
				"energy": -0.1793,
				"method": "rhf"
			},
			{
				"type": "unocc",
				"energy": -0.00264,
				"method": "rhf"
			},
			{
				"type": "unocc",
				"energy": 0.01683,
				"method": "rhf"
			},
			{
				"type": "unocc",
				"energy": 0.0435,
				"method": "rhf"
			},
			{
				"type": "unocc",
				"energy": 0.07765,
				"method": "rhf"
			},
			{
				"type": "unocc",
				"energy": 0.08043,
				"method": "rhf"
			}
		],
		"cosmo_sigma_profile": { 
			"-0.025": 0.0,
			"-0.024": 0.0,
			"-0.023": 0.0,
			"-0.022": 0.0,
			"-0.021": 0.0,
			"-0.02": 0.0,
			"-0.019": 0.0,
			"-0.018": 0.0,
			"-0.017": 0.0,
			"-0.016": 0.0,
			"-0.015": 0.0,
			"-0.014": 0.0,
			"-0.013": 0.267056490187,
			"-0.012": 2.83960073176,
			"-0.011": 2.76523531172,
			"-0.01": 2.97460382165,
			"-0.009": 3.44873729034,
			"-0.008": 3.36092618544,
			"-0.007": 3.33903203927,
			"-0.006": 4.62131210395,
			"-0.005": 7.40211237912,
			"-0.004": 11.3523206953,
			"-0.003": 23.6250547268,
			"-0.002": 46.8630282002,
			"-0.001": 41.4292290573,
			"0.0": 32.4075449763,
			"0.001": 25.3726495736,
			"0.002": 18.397130207,
			"0.003": 12.8952856312,
			"0.004": 14.8817464232,
			"0.005": 18.3727635909,
			"0.006": 9.32246416136,
			"0.007": 2.70547967964,
			"0.008": 1.72631932126,
			"0.009": 2.75630953097,
			"0.01": 2.4629310415,
			"0.011": 1.68163284087,
			"0.012": 1.50746230163,
			"0.013": 1.65303134996,
			"0.014": 2.04702465138,
			"0.015": 0.939855296039,
			"0.016": 0.0176591021048,
			"0.017": 0.0,
			"0.018": 0.0,
			"0.019": 0.0,
			"0.02": 0.0,
			"0.021": 0.0,
			"0.022": 0.0,
			"0.023": 0.0,
			"0.024": 0.0,
			"0.025": 0.0
		}
	}
}
