{
	 "smiles": "CCCCC1=CC=C(NC(=O)C2=CC=C(CC)C=C2)C=C1", 
	 "Tm": 390.15, 
	 "num_atms": 44, 
	 "gaussian": { 
		 "optdone": 1, 
		 "sigma_profile": "yes", 
		 "theory": "DFT", 
		 "functional": "B3LYP", 
		 "basiset": "6-31G**", 
		 "properties": { 
			 "R2extent": 14121.4021, 
			 "electric_dipole_moment_norm": 3.51926217978, 
			 "electric_quadrupole_moment_norm": 15.4888957947, 
			 "total_energy": -867.911454561, 
			 "HOMO_LUMO_gap": 0.16952, 
			 "cosmo_polarized_energy": -13.05, 
			 "cosmo_cavitation_energy": 46.81, 
			 "cosmo_dispersion_energy": -33.12, 
			 "cosmo_repulsion_energy": 2.55, 
			 "cosmo_total_nonelectrostatic_energy": 16.24, 
			 "SMD_solvation_energy": 7.74 
		},
		"coords": [
			{
				"x": 5.6734634922,
				"y": 1.6372635946,
				"z": -5.7303471789,
				"element": "C" 
			},
			{
				"x": 4.7856289292,
				"y": 2.676279332,
				"z": -5.034688425,
				"element": "C" 
			},
			{
				"x": 3.8340401652,
				"y": 2.0972142537,
				"z": -3.9754148528,
				"element": "C" 
			},
			{
				"x": 2.7405396653,
				"y": 1.1665688212,
				"z": -4.5415864766,
				"element": "C" 
			},
			{
				"x": 1.7879273547,
				"y": 0.6625505392,
				"z": -3.479484557,
				"element": "C" 
			},
			{
				"x": 2.0360732755,
				"y": -0.5302292925,
				"z": -2.7874691178,
				"element": "C" 
			},
			{
				"x": 1.1801093889,
				"y": -0.9735749666,
				"z": -1.7845000328,
				"element": "C" 
			},
			{
				"x": 0.0381607248,
				"y": -0.233344284,
				"z": -1.4403002495,
				"element": "C" 
			},
			{
				"x": -0.7781082272,
				"y": -0.7435608008,
				"z": -0.4087396766,
				"element": "N" 
			},
			{
				"x": -1.9730245752,
				"y": -0.2533849645,
				"z": 0.0728417863,
				"element": "C" 
			},
			{
				"x": -2.5375250342,
				"y": 0.7359704414,
				"z": -0.3841268332,
				"element": "O" 
			},
			{
				"x": -2.5680428165,
				"y": -1.0377456843,
				"z": 1.2091009122,
				"element": "C" 
			},
			{
				"x": -1.8235108396,
				"y": -1.8392890891,
				"z": 2.0863690246,
				"element": "C" 
			},
			{
				"x": -2.4518434401,
				"y": -2.5220734806,
				"z": 3.1265906307,
				"element": "C" 
			},
			{
				"x": -3.8359886661,
				"y": -2.4272691891,
				"z": 3.3228800369,
				"element": "C" 
			},
			{
				"x": -4.521668223,
				"y": -3.205724157,
				"z": 4.424527387,
				"element": "C" 
			},
			{
				"x": -4.9995411174,
				"y": -4.5949453121,
				"z": 3.9630736378,
				"element": "C" 
			},
			{
				"x": -4.5710135149,
				"y": -1.6097483268,
				"z": 2.4512618142,
				"element": "C" 
			},
			{
				"x": -3.949119151,
				"y": -0.9193406432,
				"z": 1.4161408372,
				"element": "C" 
			},
			{
				"x": -0.2293058505,
				"y": 0.9625433369,
				"z": -2.1241705877,
				"element": "C" 
			},
			{
				"x": 0.6436992082,
				"y": 1.3880135663,
				"z": -3.1243856049,
				"element": "C" 
			},
			{
				"x": 5.0854505432,
				"y": 0.9097949559,
				"z": -6.2994728206,
				"element": "H" 
			},
			{
				"x": 6.365143807,
				"y": 2.1165284724,
				"z": -6.4309970137,
				"element": "H" 
			},
			{
				"x": 6.2734246765,
				"y": 1.0802122885,
				"z": -5.0010445988,
				"element": "H" 
			},
			{
				"x": 5.4265326285,
				"y": 3.4257116853,
				"z": -4.5529082766,
				"element": "H" 
			},
			{
				"x": 4.199188916,
				"y": 3.2198705437,
				"z": -5.7883744574,
				"element": "H" 
			},
			{
				"x": 3.3447646205,
				"y": 2.9216625174,
				"z": -3.4415253202,
				"element": "H" 
			},
			{
				"x": 4.4138745991,
				"y": 1.5492149699,
				"z": -3.2200046602,
				"element": "H" 
			},
			{
				"x": 3.2081823837,
				"y": 0.3120732336,
				"z": -5.044478177,
				"element": "H" 
			},
			{
				"x": 2.1778734703,
				"y": 1.7105674905,
				"z": -5.3115959739,
				"element": "H" 
			},
			{
				"x": 2.9111463514,
				"y": -1.1251559664,
				"z": -3.0383522135,
				"element": "H" 
			},
			{
				"x": 1.3956447662,
				"y": -1.905325687,
				"z": -1.265006661,
				"element": "H" 
			},
			{
				"x": -0.4829572008,
				"y": -1.6339430595,
				"z": -0.0367651579,
				"element": "H" 
			},
			{
				"x": -0.7420286087,
				"y": -1.9036998994,
				"z": 1.9972320178,
				"element": "H" 
			},
			{
				"x": -1.8557631069,
				"y": -3.1266523891,
				"z": 3.8058789907,
				"element": "H" 
			},
			{
				"x": -5.3804949481,
				"y": -2.6337228074,
				"z": 4.7950616513,
				"element": "H" 
			},
			{
				"x": -3.8352547589,
				"y": -3.3228396263,
				"z": 5.2714246014,
				"element": "H" 
			},
			{
				"x": -5.711227261,
				"y": -4.5103128686,
				"z": 3.1355592592,
				"element": "H" 
			},
			{
				"x": -5.491998007,
				"y": -5.1299962215,
				"z": 4.7815895716,
				"element": "H" 
			},
			{
				"x": -4.1585766593,
				"y": -5.2040366113,
				"z": 3.6160706952,
				"element": "H" 
			},
			{
				"x": -5.6444624801,
				"y": -1.5092566658,
				"z": 2.5930526125,
				"element": "H" 
			},
			{
				"x": -4.5139160457,
				"y": -0.2725639933,
				"z": 0.7532984588,
				"element": "H" 
			},
			{
				"x": -1.11329376,
				"y": 1.5308607717,
				"z": -1.873325622,
				"element": "H" 
			},
			{
				"x": 0.4192953257,
				"y": 2.3144351723,
				"z": -3.6483893801,
				"element": "H" 
			}
		],
		 "valence_orbital": [ 
			{
				"type": "occ",
				"energy": -0.25891,
				"method": "rhf"
			},
			{
				"type": "occ",
				"energy": -0.25611,
				"method": "rhf"
			},
			{
				"type": "occ",
				"energy": -0.2461,
				"method": "rhf"
			},
			{
				"type": "occ",
				"energy": -0.24347,
				"method": "rhf"
			},
			{
				"type": "occ",
				"energy": -0.20903,
				"method": "rhf"
			},
			{
				"type": "unocc",
				"energy": -0.03951,
				"method": "rhf"
			},
			{
				"type": "unocc",
				"energy": -0.0103,
				"method": "rhf"
			},
			{
				"type": "unocc",
				"energy": 0.00319,
				"method": "rhf"
			},
			{
				"type": "unocc",
				"energy": 0.01224,
				"method": "rhf"
			},
			{
				"type": "unocc",
				"energy": 0.06465,
				"method": "rhf"
			}
		],
		"cosmo_sigma_profile": { 
			"-0.025": 0.0,
			"-0.024": 0.0,
			"-0.023": 0.0,
			"-0.022": 0.0,
			"-0.021": 0.0,
			"-0.02": 0.0,
			"-0.019": 0.0,
			"-0.018": 0.0,
			"-0.017": 0.0,
			"-0.016": 0.0,
			"-0.015": 0.259623260106,
			"-0.014": 0.864392034848,
			"-0.013": 1.49368827709,
			"-0.012": 1.37791045939,
			"-0.011": 1.6913890923,
			"-0.01": 1.39809174616,
			"-0.009": 1.54936170905,
			"-0.008": 1.88751111771,
			"-0.007": 3.09049970588,
			"-0.006": 5.28989660608,
			"-0.005": 13.5698161293,
			"-0.004": 19.4436260859,
			"-0.003": 32.2317695333,
			"-0.002": 42.4879683744,
			"-0.001": 46.6371707503,
			"0.0": 46.7752529376,
			"0.001": 41.8666230581,
			"0.002": 23.5640305531,
			"0.003": 19.2144903918,
			"0.004": 21.7850742082,
			"0.005": 16.8246280698,
			"0.006": 9.59322314534,
			"0.007": 2.61922512641,
			"0.008": 1.33767544549,
			"0.009": 2.01645068668,
			"0.01": 2.1884610861,
			"0.011": 1.65266983326,
			"0.012": 2.54555934069,
			"0.013": 2.81044276801,
			"0.014": 0.610151579817,
			"0.015": 0.0,
			"0.016": 0.0,
			"0.017": 0.0,
			"0.018": 0.0,
			"0.019": 0.0,
			"0.02": 0.0,
			"0.021": 0.0,
			"0.022": 0.0,
			"0.023": 0.0,
			"0.024": 0.0,
			"0.025": 0.0
		}
	}
}
