{
	 "smiles": "CC1=C(OCCCC(=O)NC2=CC=C(CN)C=C2)C=CC=C1", 
	 "Tm": 356.15, 
	 "num_atms": 44, 
	 "gaussian": { 
		 "optdone": 1, 
		 "sigma_profile": "yes", 
		 "theory": "DFT", 
		 "functional": "B3LYP", 
		 "basiset": "6-31G**", 
		 "properties": { 
			 "R2extent": 9037.7792, 
			 "electric_dipole_moment_norm": 2.19132722112, 
			 "electric_quadrupole_moment_norm": 16.8000357012, 
			 "total_energy": -959.136560798, 
			 "HOMO_LUMO_gap": 0.20553, 
			 "cosmo_polarized_energy": -17.15, 
			 "cosmo_cavitation_energy": 46.86, 
			 "cosmo_dispersion_energy": -30.83, 
			 "cosmo_repulsion_energy": 2.38, 
			 "cosmo_total_nonelectrostatic_energy": 18.41, 
			 "SMD_solvation_energy": 6.56 
		},
		"coords": [
			{
				"x": 0.3359434031,
				"y": -3.427290304,
				"z": -1.9770455203,
				"element": "C" 
			},
			{
				"x": 1.2926194505,
				"y": -3.5421158068,
				"z": -0.815336471,
				"element": "C" 
			},
			{
				"x": 1.0665985772,
				"y": -2.8267312115,
				"z": 0.3725672924,
				"element": "C" 
			},
			{
				"x": -0.0315121174,
				"y": -1.9809268826,
				"z": 0.4389129855,
				"element": "O" 
			},
			{
				"x": -1.1408490437,
				"y": -2.4665358556,
				"z": 1.2099541952,
				"element": "C" 
			},
			{
				"x": -2.1156466027,
				"y": -1.3113712562,
				"z": 1.4180027974,
				"element": "C" 
			},
			{
				"x": -1.7408167425,
				"y": -0.3400083047,
				"z": 2.56128695,
				"element": "C" 
			},
			{
				"x": -0.2835642947,
				"y": 0.1052277943,
				"z": 2.5480806838,
				"element": "C" 
			},
			{
				"x": 0.5553694464,
				"y": -0.4351637436,
				"z": 3.2607977753,
				"element": "O" 
			},
			{
				"x": 0.0788487478,
				"y": 1.1358200911,
				"z": 1.707573555,
				"element": "N" 
			},
			{
				"x": -0.7134681756,
				"y": 1.7844839625,
				"z": 0.7133627612,
				"element": "C" 
			},
			{
				"x": -0.5174254082,
				"y": 1.4924799956,
				"z": -0.6425391667,
				"element": "C" 
			},
			{
				"x": -1.261602614,
				"y": 2.1585444632,
				"z": -1.6147687676,
				"element": "C" 
			},
			{
				"x": -2.2245654418,
				"y": 3.115724551,
				"z": -1.2638775688,
				"element": "C" 
			},
			{
				"x": -2.9924130971,
				"y": 3.8768536227,
				"z": -2.3315190422,
				"element": "C" 
			},
			{
				"x": -2.3435677634,
				"y": 5.1017867162,
				"z": -2.8270538542,
				"element": "N" 
			},
			{
				"x": -2.418810591,
				"y": 3.3891018862,
				"z": 0.0967181977,
				"element": "C" 
			},
			{
				"x": -1.6640960889,
				"y": 2.7449862328,
				"z": 1.0768173152,
				"element": "C" 
			},
			{
				"x": 1.9476840659,
				"y": -2.9052751251,
				"z": 1.4532142785,
				"element": "C" 
			},
			{
				"x": 3.076350437,
				"y": -3.7212584947,
				"z": 1.3625624503,
				"element": "C" 
			},
			{
				"x": 3.3211185502,
				"y": -4.4447335022,
				"z": 0.1946143921,
				"element": "C" 
			},
			{
				"x": 2.4370887778,
				"y": -4.3463564022,
				"z": -0.8814525159,
				"element": "C" 
			},
			{
				"x": 0.1802122537,
				"y": -2.3824898,
				"z": -2.2640586421,
				"element": "H" 
			},
			{
				"x": -0.6516630076,
				"y": -3.8347655983,
				"z": -1.7311275321,
				"element": "H" 
			},
			{
				"x": 0.7128770588,
				"y": -3.9716070637,
				"z": -2.8472417636,
				"element": "H" 
			},
			{
				"x": -1.6317053398,
				"y": -3.286210037,
				"z": 0.665213583,
				"element": "H" 
			},
			{
				"x": -0.7850893564,
				"y": -2.8625471399,
				"z": 2.1696255694,
				"element": "H" 
			},
			{
				"x": -3.1056532863,
				"y": -1.7250772421,
				"z": 1.6429631265,
				"element": "H" 
			},
			{
				"x": -2.2063397594,
				"y": -0.7722943275,
				"z": 0.469410567,
				"element": "H" 
			},
			{
				"x": -2.4154956507,
				"y": 0.5204413589,
				"z": 2.5284397424,
				"element": "H" 
			},
			{
				"x": -1.8772667156,
				"y": -0.8394307016,
				"z": 3.5239815056,
				"element": "H" 
			},
			{
				"x": 1.0849440321,
				"y": 1.2359282977,
				"z": 1.6406090808,
				"element": "H" 
			},
			{
				"x": 0.1983781411,
				"y": 0.723960388,
				"z": -0.9172841605,
				"element": "H" 
			},
			{
				"x": -1.1042013732,
				"y": 1.9181335458,
				"z": -2.6640916265,
				"element": "H" 
			},
			{
				"x": -3.1678932022,
				"y": 3.2240991974,
				"z": -3.1942653658,
				"element": "H" 
			},
			{
				"x": -3.9786884414,
				"y": 4.1577758665,
				"z": -1.9450344372,
				"element": "H" 
			},
			{
				"x": -2.1664432949,
				"y": 5.7282777566,
				"z": -2.0439810093,
				"element": "H" 
			},
			{
				"x": -1.426255276,
				"y": 4.8680151706,
				"z": -3.2024350323,
				"element": "H" 
			},
			{
				"x": -3.1626492189,
				"y": 4.1250917082,
				"z": 0.3939790926,
				"element": "H" 
			},
			{
				"x": -1.7990656482,
				"y": 2.9862783693,
				"z": 2.1269379376,
				"element": "H" 
			},
			{
				"x": 1.7444760386,
				"y": -2.3085107548,
				"z": 2.3373943999,
				"element": "H" 
			},
			{
				"x": 3.76524158,
				"y": -3.7826571999,
				"z": 2.2002951265,
				"element": "H" 
			},
			{
				"x": 4.20010288,
				"y": -5.0781847499,
				"z": 0.1165335767,
				"element": "H" 
			},
			{
				"x": 2.6337941118,
				"y": -4.9046694705,
				"z": -1.7937364615,
				"element": "H" 
			}
		],
		 "valence_orbital": [ 
			{
				"type": "occ",
				"energy": -0.2514,
				"method": "rhf"
			},
			{
				"type": "occ",
				"energy": -0.24485,
				"method": "rhf"
			},
			{
				"type": "occ",
				"energy": -0.23549,
				"method": "rhf"
			},
			{
				"type": "occ",
				"energy": -0.2295,
				"method": "rhf"
			},
			{
				"type": "occ",
				"energy": -0.22376,
				"method": "rhf"
			},
			{
				"type": "unocc",
				"energy": -0.01823,
				"method": "rhf"
			},
			{
				"type": "unocc",
				"energy": -0.01553,
				"method": "rhf"
			},
			{
				"type": "unocc",
				"energy": 0.00995,
				"method": "rhf"
			},
			{
				"type": "unocc",
				"energy": 0.01115,
				"method": "rhf"
			},
			{
				"type": "unocc",
				"energy": 0.02546,
				"method": "rhf"
			}
		],
		"cosmo_sigma_profile": { 
			"-0.025": 0.0,
			"-0.024": 0.0,
			"-0.023": 0.0,
			"-0.022": 0.0,
			"-0.021": 0.0,
			"-0.02": 0.0,
			"-0.019": 0.0,
			"-0.018": 0.0,
			"-0.017": 0.0,
			"-0.016": 0.0,
			"-0.015": 0.0,
			"-0.014": 0.476300941935,
			"-0.013": 0.984937734389,
			"-0.012": 0.628167803344,
			"-0.011": 0.856717413815,
			"-0.01": 0.91156669509,
			"-0.009": 4.08678005604,
			"-0.008": 3.27694674751,
			"-0.007": 4.57781644851,
			"-0.006": 9.53214003842,
			"-0.005": 25.1356814173,
			"-0.004": 41.7639622139,
			"-0.003": 38.6184264665,
			"-0.002": 33.3188738691,
			"-0.001": 31.2767923198,
			"0.0": 27.1902390648,
			"0.001": 22.9774221961,
			"0.002": 19.6717685987,
			"0.003": 18.7943820958,
			"0.004": 23.0247337242,
			"0.005": 20.6608047799,
			"0.006": 14.4234511408,
			"0.007": 4.80482093146,
			"0.008": 1.5611640892,
			"0.009": 2.74749117137,
			"0.01": 2.39185397308,
			"0.011": 1.42568446646,
			"0.012": 2.63253091644,
			"0.013": 3.65196769053,
			"0.014": 3.3147609762,
			"0.015": 0.817245427727,
			"0.016": 0.610129092218,
			"0.017": 1.06667949068,
			"0.018": 0.600120486769,
			"0.019": 0.534445275961,
			"0.02": 0.323347952872,
			"0.021": 0.0,
			"0.022": 0.0,
			"0.023": 0.0,
			"0.024": 0.0,
			"0.025": 0.0
		}
	}
}
