{
	 "smiles": "ClCC(=O)NC1=C(C#N)C(=C(O1)C1=CC=CC=C1)C1=CC=CC=C1", 
	 "Tm": 429.15, 
	 "num_atms": 37, 
	 "gaussian": { 
		 "optdone": 1, 
		 "sigma_profile": "yes", 
		 "theory": "DFT", 
		 "functional": "B3LYP", 
		 "basiset": "6-31G**", 
		 "properties": { 
			 "R2extent": 10582.3846, 
			 "electric_dipole_moment_norm": 4.66556351688, 
			 "electric_quadrupole_moment_norm": 17.5272835234, 
			 "total_energy": -1451.98539347, 
			 "HOMO_LUMO_gap": 0.15994, 
			 "cosmo_polarized_energy": -19.44, 
			 "cosmo_cavitation_energy": 45.09, 
			 "cosmo_dispersion_energy": -30.8, 
			 "cosmo_repulsion_energy": 2.38, 
			 "cosmo_total_nonelectrostatic_energy": 16.67, 
			 "SMD_solvation_energy": 9.03 
		},
		"coords": [
			{
				"x": -3.3096886405,
				"y": -3.2128736814,
				"z": 4.7912574927,
				"element": "Cl" 
			},
			{
				"x": -1.5767391786,
				"y": -3.7075807864,
				"z": 4.5856372095,
				"element": "C" 
			},
			{
				"x": -0.7921049332,
				"y": -3.0057236496,
				"z": 3.4771306715,
				"element": "C" 
			},
			{
				"x": 0.3080296125,
				"y": -3.4302486013,
				"z": 3.1850157403,
				"element": "O" 
			},
			{
				"x": -1.3801055772,
				"y": -1.8972659388,
				"z": 2.9058238215,
				"element": "N" 
			},
			{
				"x": -0.8107636639,
				"y": -1.1473219262,
				"z": 1.8924941587,
				"element": "C" 
			},
			{
				"x": 0.4617606716,
				"y": -0.7068807326,
				"z": 1.6210075009,
				"element": "C" 
			},
			{
				"x": 1.6130361436,
				"y": -0.8549990039,
				"z": 2.4365717654,
				"element": "C" 
			},
			{
				"x": 2.5670198291,
				"y": -0.9271430476,
				"z": 3.0988192428,
				"element": "N" 
			},
			{
				"x": 0.368375889,
				"y": 0.0647691894,
				"z": 0.3921474635,
				"element": "C" 
			},
			{
				"x": -0.9543835514,
				"y": 0.0285169697,
				"z": 0.0192744947,
				"element": "C" 
			},
			{
				"x": -1.6695793224,
				"y": -0.7153220734,
				"z": 0.9465845979,
				"element": "O" 
			},
			{
				"x": -1.7399759017,
				"y": 0.5410285377,
				"z": -1.1026629384,
				"element": "C" 
			},
			{
				"x": -3.1208889093,
				"y": 0.7653603979,
				"z": -0.9518230674,
				"element": "C" 
			},
			{
				"x": -3.882041873,
				"y": 1.2363608169,
				"z": -2.0190335257,
				"element": "C" 
			},
			{
				"x": -3.2825799843,
				"y": 1.4928141816,
				"z": -3.2536396417,
				"element": "C" 
			},
			{
				"x": -1.9138075711,
				"y": 1.2649679866,
				"z": -3.414788135,
				"element": "C" 
			},
			{
				"x": -1.1472007005,
				"y": 0.7885278657,
				"z": -2.3543608987,
				"element": "C" 
			},
			{
				"x": 1.4950945733,
				"y": 0.7839145292,
				"z": -0.2370096857,
				"element": "C" 
			},
			{
				"x": 2.7211287216,
				"y": 0.1336142279,
				"z": -0.4521478128,
				"element": "C" 
			},
			{
				"x": 3.7950739886,
				"y": 0.8174928712,
				"z": -1.0214975854,
				"element": "C" 
			},
			{
				"x": 3.6624848621,
				"y": 2.1590672764,
				"z": -1.3823012602,
				"element": "C" 
			},
			{
				"x": 2.4492854598,
				"y": 2.8169976236,
				"z": -1.1659979304,
				"element": "C" 
			},
			{
				"x": 1.3754467615,
				"y": 2.1378393581,
				"z": -0.594089885,
				"element": "C" 
			},
			{
				"x": -1.5615294087,
				"y": -4.7774915557,
				"z": 4.3813617195,
				"element": "H" 
			},
			{
				"x": -1.0744620193,
				"y": -3.5201231307,
				"z": 5.5361680471,
				"element": "H" 
			},
			{
				"x": -2.3502413243,
				"y": -1.7065294204,
				"z": 3.1287826118,
				"element": "H" 
			},
			{
				"x": -3.5917525344,
				"y": 0.570075039,
				"z": 0.0056714666,
				"element": "H" 
			},
			{
				"x": -4.9462765924,
				"y": 1.4063478554,
				"z": -1.8839024395,
				"element": "H" 
			},
			{
				"x": -3.8770380948,
				"y": 1.861756353,
				"z": -4.0841586138,
				"element": "H" 
			},
			{
				"x": -1.440670908,
				"y": 1.4480762052,
				"z": -4.3751201897,
				"element": "H" 
			},
			{
				"x": -0.0899932883,
				"y": 0.5965878778,
				"z": -2.4960848211,
				"element": "H" 
			},
			{
				"x": 2.831481547,
				"y": -0.9101016535,
				"z": -0.1753269677,
				"element": "H" 
			},
			{
				"x": 4.7361071484,
				"y": 0.2995904988,
				"z": -1.1812967098,
				"element": "H" 
			},
			{
				"x": 4.5003822607,
				"y": 2.690940371,
				"z": -1.8234940437,
				"element": "H" 
			},
			{
				"x": 2.3415687845,
				"y": 3.8642423845,
				"z": -1.4334167658,
				"element": "H" 
			},
			{
				"x": 0.438847724,
				"y": 2.6559167847,
				"z": -0.413495087,
				"element": "H" 
			}
		],
		 "valence_orbital": [ 
			{
				"type": "occ",
				"energy": -0.27544,
				"method": "rhf"
			},
			{
				"type": "occ",
				"energy": -0.26256,
				"method": "rhf"
			},
			{
				"type": "occ",
				"energy": -0.25448,
				"method": "rhf"
			},
			{
				"type": "occ",
				"energy": -0.25074,
				"method": "rhf"
			},
			{
				"type": "occ",
				"energy": -0.21282,
				"method": "rhf"
			},
			{
				"type": "unocc",
				"energy": -0.05288,
				"method": "rhf"
			},
			{
				"type": "unocc",
				"energy": -0.03582,
				"method": "rhf"
			},
			{
				"type": "unocc",
				"energy": -0.01448,
				"method": "rhf"
			},
			{
				"type": "unocc",
				"energy": -0.00394,
				"method": "rhf"
			},
			{
				"type": "unocc",
				"energy": -0.00261,
				"method": "rhf"
			}
		],
		"cosmo_sigma_profile": { 
			"-0.025": 0.0,
			"-0.024": 0.0,
			"-0.023": 0.0,
			"-0.022": 0.0,
			"-0.021": 0.0,
			"-0.02": 0.0,
			"-0.019": 0.0,
			"-0.018": 0.0,
			"-0.017": 0.0,
			"-0.016": 0.0,
			"-0.015": 0.361972295622,
			"-0.014": 0.765451317516,
			"-0.013": 0.605084322796,
			"-0.012": 0.799277990826,
			"-0.011": 1.27133728075,
			"-0.01": 3.81224774843,
			"-0.009": 5.4165010187,
			"-0.008": 5.14310139729,
			"-0.007": 6.67896225533,
			"-0.006": 20.5643885592,
			"-0.005": 25.0456393795,
			"-0.004": 29.6200300387,
			"-0.003": 25.0138609865,
			"-0.002": 26.2617206082,
			"-0.001": 26.7472501117,
			"0.0": 25.1038555279,
			"0.001": 23.9565160769,
			"0.002": 23.0476912741,
			"0.003": 24.9026715433,
			"0.004": 27.9461449934,
			"0.005": 24.0690056763,
			"0.006": 4.51096353278,
			"0.007": 3.47793600925,
			"0.008": 4.29345045611,
			"0.009": 5.72348614698,
			"0.01": 7.62086143973,
			"0.011": 7.09644100696,
			"0.012": 4.31058876417,
			"0.013": 1.59457795169,
			"0.014": 0.0602175705013,
			"0.015": 0.0,
			"0.016": 0.0,
			"0.017": 0.0,
			"0.018": 0.0,
			"0.019": 0.0,
			"0.02": 0.0,
			"0.021": 0.0,
			"0.022": 0.0,
			"0.023": 0.0,
			"0.024": 0.0,
			"0.025": 0.0
		}
	}
}
