{
	 "smiles": "OC(=O)C1=C(NS(=O)(=O)C(F)(F)F)C=CC=C1", 
	 "Tm": 438.15, 
	 "num_atms": 23, 
	 "gaussian": { 
		 "optdone": 1, 
		 "sigma_profile": "yes", 
		 "theory": "DFT", 
		 "functional": "B3LYP", 
		 "basiset": "6-31G**", 
		 "properties": { 
			 "R2extent": 4960.7374, 
			 "electric_dipole_moment_norm": 4.925914914, 
			 "electric_quadrupole_moment_norm": 13.3967894721, 
			 "total_energy": -1361.75843805, 
			 "HOMO_LUMO_gap": 0.17975, 
			 "cosmo_polarized_energy": -12.05, 
			 "cosmo_cavitation_energy": 30.66, 
			 "cosmo_dispersion_energy": -22.25, 
			 "cosmo_repulsion_energy": 1.61, 
			 "cosmo_total_nonelectrostatic_energy": 10.01, 
			 "SMD_solvation_energy": 6.74 
		},
		"coords": [
			{
				"x": 0.6523693758,
				"y": -4.4234462753,
				"z": 1.1560329493,
				"element": "O" 
			},
			{
				"x": 0.4102529029,
				"y": -3.1302984559,
				"z": 0.8611521758,
				"element": "C" 
			},
			{
				"x": 1.2252343256,
				"y": -2.2607851284,
				"z": 1.1584681997,
				"element": "O" 
			},
			{
				"x": -0.8796727168,
				"y": -2.9035413966,
				"z": 0.1786496184,
				"element": "C" 
			},
			{
				"x": -1.268486581,
				"y": -1.6011210148,
				"z": -0.2378375148,
				"element": "C" 
			},
			{
				"x": -0.4097978347,
				"y": -0.5200880182,
				"z": 0.0394533647,
				"element": "N" 
			},
			{
				"x": -0.298500488,
				"y": 0.9335305202,
				"z": -0.7674611318,
				"element": "S" 
			},
			{
				"x": 1.070315329,
				"y": 1.3979261236,
				"z": -0.5908769036,
				"element": "O" 
			},
			{
				"x": -0.9665995785,
				"y": 0.8816896154,
				"z": -2.0620441894,
				"element": "O" 
			},
			{
				"x": -1.3599856797,
				"y": 2.0336410199,
				"z": 0.3061908508,
				"element": "C" 
			},
			{
				"x": -0.8681779509,
				"y": 2.0738695929,
				"z": 1.543142862,
				"element": "F" 
			},
			{
				"x": -1.3688872663,
				"y": 3.2598592166,
				"z": -0.2131598303,
				"element": "F" 
			},
			{
				"x": -2.6111767793,
				"y": 1.5586641363,
				"z": 0.3431410193,
				"element": "F" 
			},
			{
				"x": -2.5097676047,
				"y": -1.4303258784,
				"z": -0.8681497728,
				"element": "C" 
			},
			{
				"x": -3.3356182685,
				"y": -2.5243700971,
				"z": -1.0989733863,
				"element": "C" 
			},
			{
				"x": -2.9610265342,
				"y": -3.8102726623,
				"z": -0.6978413011,
				"element": "C" 
			},
			{
				"x": -1.7425836534,
				"y": -3.9885471074,
				"z": -0.0603833927,
				"element": "C" 
			},
			{
				"x": 1.5180254186,
				"y": -4.4398215487,
				"z": 1.5969337196,
				"element": "H" 
			},
			{
				"x": 0.4630093009,
				"y": -0.7872142567,
				"z": 0.5157271391,
				"element": "H" 
			},
			{
				"x": -2.821835213,
				"y": -0.4444339889,
				"z": -1.1824559649,
				"element": "H" 
			},
			{
				"x": -4.2893880652,
				"y": -2.3653213984,
				"z": -1.5933851076,
				"element": "H" 
			},
			{
				"x": -3.6143841448,
				"y": -4.657400248,
				"z": -0.8775844221,
				"element": "H" 
			},
			{
				"x": -1.4325182938,
				"y": -4.97389275,
				"z": 0.2659610189,
				"element": "H" 
			}
		],
		 "valence_orbital": [ 
			{
				"type": "occ",
				"energy": -0.33037,
				"method": "rhf"
			},
			{
				"type": "occ",
				"energy": -0.32796,
				"method": "rhf"
			},
			{
				"type": "occ",
				"energy": -0.3023,
				"method": "rhf"
			},
			{
				"type": "occ",
				"energy": -0.27986,
				"method": "rhf"
			},
			{
				"type": "occ",
				"energy": -0.24862,
				"method": "rhf"
			},
			{
				"type": "unocc",
				"energy": -0.06887,
				"method": "rhf"
			},
			{
				"type": "unocc",
				"energy": -0.02275,
				"method": "rhf"
			},
			{
				"type": "unocc",
				"energy": 0.03577,
				"method": "rhf"
			},
			{
				"type": "unocc",
				"energy": 0.04185,
				"method": "rhf"
			},
			{
				"type": "unocc",
				"energy": 0.05004,
				"method": "rhf"
			}
		],
		"cosmo_sigma_profile": { 
			"-0.025": 0.0,
			"-0.024": 0.0,
			"-0.023": 0.0,
			"-0.022": 0.0,
			"-0.021": 0.0,
			"-0.02": 0.0,
			"-0.019": 0.445218549778,
			"-0.018": 1.17263256757,
			"-0.017": 0.95219997032,
			"-0.016": 0.605139447597,
			"-0.015": 0.726916124407,
			"-0.014": 0.347430035098,
			"-0.013": 0.577403666336,
			"-0.012": 1.19489554149,
			"-0.011": 0.616570047506,
			"-0.01": 0.628592227502,
			"-0.009": 0.50019492412,
			"-0.008": 1.86382502609,
			"-0.007": 6.21953848727,
			"-0.006": 10.6268451382,
			"-0.005": 11.1290206763,
			"-0.004": 12.8988644942,
			"-0.003": 15.1154697271,
			"-0.002": 18.2400896484,
			"-0.001": 22.8026727198,
			"0.0": 33.9303139217,
			"0.001": 28.8863000776,
			"0.002": 15.9217726685,
			"0.003": 14.3021600904,
			"0.004": 6.43682792754,
			"0.005": 6.48407514763,
			"0.006": 5.45692839617,
			"0.007": 4.68797370104,
			"0.008": 10.7731485244,
			"0.009": 9.67538577397,
			"0.01": 2.81226219054,
			"0.011": 1.01144324951,
			"0.012": 0.00226546202637,
			"0.013": 0.0,
			"0.014": 0.0,
			"0.015": 0.0,
			"0.016": 0.0,
			"0.017": 0.0,
			"0.018": 0.0,
			"0.019": 0.0,
			"0.02": 0.0,
			"0.021": 0.0,
			"0.022": 0.0,
			"0.023": 0.0,
			"0.024": 0.0,
			"0.025": 0.0
		}
	}
}
