{
	 "smiles": "NC(=O)C=CC(F)(F)F", 
	 "Tm": 421.15, 
	 "num_atms": 13, 
	 "gaussian": { 
		 "optdone": 1, 
		 "sigma_profile": "yes", 
		 "theory": "DFT", 
		 "functional": "B3LYP", 
		 "basiset": "6-31G**", 
		 "properties": { 
			 "R2extent": 1649.4049, 
			 "electric_dipole_moment_norm": 5.41669395296, 
			 "electric_quadrupole_moment_norm": 7.1189884471, 
			 "total_energy": -584.320498692, 
			 "HOMO_LUMO_gap": 0.1981, 
			 "cosmo_polarized_energy": -15.27, 
			 "cosmo_cavitation_energy": 19.19, 
			 "cosmo_dispersion_energy": -13.68, 
			 "cosmo_repulsion_energy": 1.1, 
			 "cosmo_total_nonelectrostatic_energy": 6.61, 
			 "SMD_solvation_energy": 5.53 
		},
		"coords": [
			{
				"x": 1.875925847,
				"y": 1.1282295176,
				"z": -0.7755458268,
				"element": "N" 
			},
			{
				"x": 0.5105274241,
				"y": 1.012655807,
				"z": -0.7157750004,
				"element": "C" 
			},
			{
				"x": -0.2330048647,
				"y": 1.6052136034,
				"z": -1.4820303255,
				"element": "O" 
			},
			{
				"x": 0.0322317752,
				"y": 0.1243363444,
				"z": 0.3928636231,
				"element": "C" 
			},
			{
				"x": -1.2260395053,
				"y": -0.2793271275,
				"z": 0.5892896544,
				"element": "C" 
			},
			{
				"x": -2.4478402776,
				"y": 0.0346884627,
				"z": -0.2443798223,
				"element": "C" 
			},
			{
				"x": -2.3080308818,
				"y": -0.3133308485,
				"z": -1.5337918222,
				"element": "F" 
			},
			{
				"x": -2.7984639503,
				"y": 1.3294766781,
				"z": -0.1847049245,
				"element": "F" 
			},
			{
				"x": -3.4920568973,
				"y": -0.6821229276,
				"z": 0.2480337701,
				"element": "F" 
			},
			{
				"x": 2.2610195275,
				"y": 1.6533688402,
				"z": -1.5461670098,
				"element": "H" 
			},
			{
				"x": 2.4943537479,
				"y": 0.5398243445,
				"z": -0.2411663776,
				"element": "H" 
			},
			{
				"x": 0.7805741992,
				"y": -0.2180076112,
				"z": 1.1055488421,
				"element": "H" 
			},
			{
				"x": -1.4487961437,
				"y": -0.915605083,
				"z": 1.4404252192,
				"element": "H" 
			}
		],
		 "valence_orbital": [ 
			{
				"type": "occ",
				"energy": -0.38517,
				"method": "rhf"
			},
			{
				"type": "occ",
				"energy": -0.36913,
				"method": "rhf"
			},
			{
				"type": "occ",
				"energy": -0.30084,
				"method": "rhf"
			},
			{
				"type": "occ",
				"energy": -0.27852,
				"method": "rhf"
			},
			{
				"type": "occ",
				"energy": -0.26094,
				"method": "rhf"
			},
			{
				"type": "unocc",
				"energy": -0.06284,
				"method": "rhf"
			},
			{
				"type": "unocc",
				"energy": 0.05753,
				"method": "rhf"
			},
			{
				"type": "unocc",
				"energy": 0.07194,
				"method": "rhf"
			},
			{
				"type": "unocc",
				"energy": 0.0913,
				"method": "rhf"
			},
			{
				"type": "unocc",
				"energy": 0.12456,
				"method": "rhf"
			}
		],
		"cosmo_sigma_profile": { 
			"-0.025": 0.0,
			"-0.024": 0.0,
			"-0.023": 0.0,
			"-0.022": 0.0,
			"-0.021": 0.0,
			"-0.02": 0.0,
			"-0.019": 0.0,
			"-0.018": 0.0,
			"-0.017": 0.0,
			"-0.016": 0.0,
			"-0.015": 1.11233922802,
			"-0.014": 2.81795477488,
			"-0.013": 2.937330021,
			"-0.012": 2.71251211203,
			"-0.011": 2.66993301827,
			"-0.01": 2.63559311776,
			"-0.009": 4.02912152973,
			"-0.008": 6.02911502674,
			"-0.007": 4.79490235143,
			"-0.006": 3.82173811348,
			"-0.005": 3.90594307794,
			"-0.004": 4.6010553494,
			"-0.003": 5.41833140479,
			"-0.002": 6.33964584149,
			"-0.001": 6.54058368356,
			"0.0": 7.54540378833,
			"0.001": 10.2534279877,
			"0.002": 13.7084388523,
			"0.003": 27.6940443514,
			"0.004": 7.83382787736,
			"0.005": 3.8641478202,
			"0.006": 1.93359818217,
			"0.007": 2.1420047744,
			"0.008": 2.52535787273,
			"0.009": 1.96885451498,
			"0.01": 1.50880017575,
			"0.011": 2.39789727405,
			"0.012": 3.21750628174,
			"0.013": 4.04555225213,
			"0.014": 1.8670753441,
			"0.015": 0.0323391702212,
			"0.016": 0.0,
			"0.017": 0.0,
			"0.018": 0.0,
			"0.019": 0.0,
			"0.02": 0.0,
			"0.021": 0.0,
			"0.022": 0.0,
			"0.023": 0.0,
			"0.024": 0.0,
			"0.025": 0.0
		}
	}
}
