{
	 "smiles": "CC(=O)OC1=C(NC2=CC=CC=C12)C1=CC=CC=C1", 
	 "Tm": 380.15, 
	 "num_atms": 32, 
	 "gaussian": { 
		 "optdone": 1, 
		 "sigma_profile": "yes", 
		 "theory": "DFT", 
		 "functional": "B3LYP", 
		 "basiset": "6-31G**", 
		 "properties": { 
			 "R2extent": 5741.5878, 
			 "electric_dipole_moment_norm": 2.63701067499, 
			 "electric_quadrupole_moment_norm": 19.0498405615, 
			 "total_energy": -822.754753099, 
			 "HOMO_LUMO_gap": 0.15712, 
			 "cosmo_polarized_energy": -14.78, 
			 "cosmo_cavitation_energy": 36.44, 
			 "cosmo_dispersion_energy": -25.84, 
			 "cosmo_repulsion_energy": 1.98, 
			 "cosmo_total_nonelectrostatic_energy": 12.58, 
			 "SMD_solvation_energy": 6.77 
		},
		"coords": [
			{
				"x": -3.4598660138,
				"y": 3.0420330923,
				"z": -0.4048056151,
				"element": "C" 
			},
			{
				"x": -2.060864691,
				"y": 2.6647136867,
				"z": -0.8270650949,
				"element": "C" 
			},
			{
				"x": -1.5261536513,
				"y": 2.9594987835,
				"z": -1.8666652359,
				"element": "O" 
			},
			{
				"x": -1.463441358,
				"y": 1.9318557717,
				"z": 0.1664645993,
				"element": "O" 
			},
			{
				"x": -0.1474675045,
				"y": 1.5175789826,
				"z": 0.0148214932,
				"element": "C" 
			},
			{
				"x": 0.2537846228,
				"y": 0.2146917456,
				"z": 0.2408790683,
				"element": "C" 
			},
			{
				"x": 1.6459213008,
				"y": 0.2013229196,
				"z": 0.2027979512,
				"element": "N" 
			},
			{
				"x": 2.1237156595,
				"y": 1.462391798,
				"z": -0.0875910151,
				"element": "C" 
			},
			{
				"x": 3.4386897492,
				"y": 1.9091615252,
				"z": -0.2551692892,
				"element": "C" 
			},
			{
				"x": 3.6300851731,
				"y": 3.2618798975,
				"z": -0.5079044304,
				"element": "C" 
			},
			{
				"x": 2.5373951218,
				"y": 4.1505807051,
				"z": -0.593524496,
				"element": "C" 
			},
			{
				"x": 1.2324525355,
				"y": 3.7049624961,
				"z": -0.4388290139,
				"element": "C" 
			},
			{
				"x": 1.009246246,
				"y": 2.3387702837,
				"z": -0.1890370477,
				"element": "C" 
			},
			{
				"x": -0.5074258052,
				"y": -0.9976507196,
				"z": 0.5462709554,
				"element": "C" 
			},
			{
				"x": -1.8216958172,
				"y": -1.1738330297,
				"z": 0.075151704,
				"element": "C" 
			},
			{
				"x": -2.5286826514,
				"y": -2.3387774135,
				"z": 0.3619158936,
				"element": "C" 
			},
			{
				"x": -1.9414335429,
				"y": -3.357456353,
				"z": 1.1163411982,
				"element": "C" 
			},
			{
				"x": -0.637921767,
				"y": -3.1963162049,
				"z": 1.5889656302,
				"element": "C" 
			},
			{
				"x": 0.0702070575,
				"y": -2.0287631721,
				"z": 1.3115378567,
				"element": "C" 
			},
			{
				"x": -3.9618991864,
				"y": 3.5470528776,
				"z": -1.229249212,
				"element": "H" 
			},
			{
				"x": -4.0218109212,
				"y": 2.1527147124,
				"z": -0.1060153652,
				"element": "H" 
			},
			{
				"x": -3.417837698,
				"y": 3.7054817798,
				"z": 0.464577345,
				"element": "H" 
			},
			{
				"x": 2.1867809382,
				"y": -0.645466338,
				"z": 0.1291372558,
				"element": "H" 
			},
			{
				"x": 4.2786858269,
				"y": 1.2238500101,
				"z": -0.1843982036,
				"element": "H" 
			},
			{
				"x": 4.6386767688,
				"y": 3.641721295,
				"z": -0.6414398989,
				"element": "H" 
			},
			{
				"x": 2.7237112518,
				"y": 5.2017028467,
				"z": -0.7926785335,
				"element": "H" 
			},
			{
				"x": 0.3987901435,
				"y": 4.391871298,
				"z": -0.5297015319,
				"element": "H" 
			},
			{
				"x": -2.2786484403,
				"y": -0.3992873424,
				"z": -0.5291346309,
				"element": "H" 
			},
			{
				"x": -3.5407168419,
				"y": -2.4565502564,
				"z": -0.0150139543,
				"element": "H" 
			},
			{
				"x": -2.4946386593,
				"y": -4.2661220057,
				"z": 1.3344428784,
				"element": "H" 
			},
			{
				"x": -0.1734304313,
				"y": -3.9766754898,
				"z": 2.1851042894,
				"element": "H" 
			},
			{
				"x": 1.0688925852,
				"y": -1.9008381819,
				"z": 1.7196144499,
				"element": "H" 
			}
		],
		 "valence_orbital": [ 
			{
				"type": "occ",
				"energy": -0.27423,
				"method": "rhf"
			},
			{
				"type": "occ",
				"energy": -0.26005,
				"method": "rhf"
			},
			{
				"type": "occ",
				"energy": -0.25596,
				"method": "rhf"
			},
			{
				"type": "occ",
				"energy": -0.21646,
				"method": "rhf"
			},
			{
				"type": "occ",
				"energy": -0.19417,
				"method": "rhf"
			},
			{
				"type": "unocc",
				"energy": -0.03705,
				"method": "rhf"
			},
			{
				"type": "unocc",
				"energy": -0.0071,
				"method": "rhf"
			},
			{
				"type": "unocc",
				"energy": 0.00743,
				"method": "rhf"
			},
			{
				"type": "unocc",
				"energy": 0.01412,
				"method": "rhf"
			},
			{
				"type": "unocc",
				"energy": 0.02966,
				"method": "rhf"
			}
		],
		"cosmo_sigma_profile": { 
			"-0.025": 0.0,
			"-0.024": 0.0,
			"-0.023": 0.0,
			"-0.022": 0.0,
			"-0.021": 0.0,
			"-0.02": 0.0,
			"-0.019": 0.0,
			"-0.018": 0.0,
			"-0.017": 0.0,
			"-0.016": 0.0838918863469,
			"-0.015": 1.09684659399,
			"-0.014": 1.13349904748,
			"-0.013": 1.37910644289,
			"-0.012": 1.03229750972,
			"-0.011": 1.35102731507,
			"-0.01": 1.74618260355,
			"-0.009": 1.42149467839,
			"-0.008": 1.93853635799,
			"-0.007": 4.1958270565,
			"-0.006": 17.0368793858,
			"-0.005": 25.749509021,
			"-0.004": 24.4457775862,
			"-0.003": 24.4540931177,
			"-0.002": 21.7747861256,
			"-0.001": 16.0659960285,
			"0.0": 13.5643104052,
			"0.001": 13.3658751215,
			"0.002": 16.9182196043,
			"0.003": 21.6052006078,
			"0.004": 22.5519576943,
			"0.005": 23.389884032,
			"0.006": 13.5992124144,
			"0.007": 5.91393828347,
			"0.008": 3.03775270855,
			"0.009": 1.892415531,
			"0.01": 2.5815338024,
			"0.011": 4.84237847612,
			"0.012": 3.73447702897,
			"0.013": 0.305438723296,
			"0.014": 0.0,
			"0.015": 0.0,
			"0.016": 0.0,
			"0.017": 0.0,
			"0.018": 0.0,
			"0.019": 0.0,
			"0.02": 0.0,
			"0.021": 0.0,
			"0.022": 0.0,
			"0.023": 0.0,
			"0.024": 0.0,
			"0.025": 0.0
		}
	}
}
