{
	 "smiles": "CC(C)C(Br)C(=O)NCC1=C(F)C=CC=C1", 
	 "Tm": 378.15, 
	 "num_atms": 31, 
	 "gaussian": { 
		 "optdone": 1, 
		 "sigma_profile": "yes", 
		 "theory": "DFT", 
		 "functional": "B3LYP", 
		 "basiset": "6-31G**", 
		 "properties": { 
			 "R2extent": 5402.3711, 
			 "electric_dipole_moment_norm": 3.66093375247, 
			 "electric_quadrupole_moment_norm": 12.2914772936, 
			 "total_energy": -3267.55506248, 
			 "HOMO_LUMO_gap": 0.21976, 
			 "cosmo_polarized_energy": -12.57, 
			 "cosmo_cavitation_energy": 36.03, 
			 "cosmo_dispersion_energy": -24.31, 
			 "cosmo_repulsion_energy": 1.89, 
			 "cosmo_total_nonelectrostatic_energy": 13.61, 
			 "SMD_solvation_energy": 5.91 
		},
		"coords": [
			{
				"x": -2.0019454576,
				"y": 2.2024230616,
				"z": -0.3494067349,
				"element": "C" 
			},
			{
				"x": -1.7870691703,
				"y": 0.8125514676,
				"z": 0.2841542295,
				"element": "C" 
			},
			{
				"x": -3.0750020221,
				"y": -0.0168221713,
				"z": 0.1923289565,
				"element": "C" 
			},
			{
				"x": -1.3209626077,
				"y": 0.99761035,
				"z": 1.7399924927,
				"element": "C" 
			},
			{
				"x": -1.0358638616,
				"y": -0.7463472688,
				"z": 2.6992775635,
				"element": "Br" 
			},
			{
				"x": -0.1071325508,
				"y": 1.9123317166,
				"z": 1.9501311549,
				"element": "C" 
			},
			{
				"x": -0.2781622032,
				"y": 2.9759129617,
				"z": 2.5344073567,
				"element": "O" 
			},
			{
				"x": 1.1256871194,
				"y": 1.5821217501,
				"z": 1.4539061428,
				"element": "N" 
			},
			{
				"x": 1.6019494699,
				"y": 0.3904383698,
				"z": 0.7733750732,
				"element": "C" 
			},
			{
				"x": 2.0000642767,
				"y": 0.614250166,
				"z": -0.6773471442,
				"element": "C" 
			},
			{
				"x": 2.5482969673,
				"y": -0.4526875233,
				"z": -1.3936271576,
				"element": "C" 
			},
			{
				"x": 2.6899008988,
				"y": -1.6379599865,
				"z": -0.7512471473,
				"element": "F" 
			},
			{
				"x": 2.9481894113,
				"y": -0.3534379463,
				"z": -2.7178286834,
				"element": "C" 
			},
			{
				"x": 2.7984962297,
				"y": 0.8730819573,
				"z": -3.3698231171,
				"element": "C" 
			},
			{
				"x": 2.256465005,
				"y": 1.9622827293,
				"z": -2.6877691199,
				"element": "C" 
			},
			{
				"x": 1.8621620182,
				"y": 1.8299134303,
				"z": -1.3530537691,
				"element": "C" 
			},
			{
				"x": -1.0912378621,
				"y": 2.8064960111,
				"z": -0.3485879988,
				"element": "H" 
			},
			{
				"x": -2.3275330061,
				"y": 2.087418435,
				"z": -1.3877291627,
				"element": "H" 
			},
			{
				"x": -2.7753613845,
				"y": 2.7625970784,
				"z": 0.1871412676,
				"element": "H" 
			},
			{
				"x": -1.0014730964,
				"y": 0.2977855207,
				"z": -0.2809160851,
				"element": "H" 
			},
			{
				"x": -3.8884972896,
				"y": 0.4637646779,
				"z": 0.7484803723,
				"element": "H" 
			},
			{
				"x": -3.3907841541,
				"y": -0.1042912025,
				"z": -0.851948071,
				"element": "H" 
			},
			{
				"x": -2.9384375876,
				"y": -1.0230398489,
				"z": 0.5939464488,
				"element": "H" 
			},
			{
				"x": -2.1117164312,
				"y": 1.4605354558,
				"z": 2.3282663708,
				"element": "H" 
			},
			{
				"x": 1.8153761861,
				"y": 2.2855264646,
				"z": 1.6890075432,
				"element": "H" 
			},
			{
				"x": 2.4635167226,
				"y": -0.0106371751,
				"z": 1.3223344263,
				"element": "H" 
			},
			{
				"x": 0.8405453943,
				"y": -0.3873979023,
				"z": 0.8382070777,
				"element": "H" 
			},
			{
				"x": 3.3650816135,
				"y": -1.2231969033,
				"z": -3.2140324303,
				"element": "H" 
			},
			{
				"x": 3.1062166522,
				"y": 0.9714305115,
				"z": -4.4062996564,
				"element": "H" 
			},
			{
				"x": 2.1396181918,
				"y": 2.917077074,
				"z": -3.1909540431,
				"element": "H" 
			},
			{
				"x": 1.4424125283,
				"y": 2.6791687391,
				"z": -0.8234861557,
				"element": "H" 
			}
		],
		 "valence_orbital": [ 
			{
				"type": "occ",
				"energy": -0.27917,
				"method": "rhf"
			},
			{
				"type": "occ",
				"energy": -0.26555,
				"method": "rhf"
			},
			{
				"type": "occ",
				"energy": -0.26063,
				"method": "rhf"
			},
			{
				"type": "occ",
				"energy": -0.25377,
				"method": "rhf"
			},
			{
				"type": "occ",
				"energy": -0.24866,
				"method": "rhf"
			},
			{
				"type": "unocc",
				"energy": -0.0289,
				"method": "rhf"
			},
			{
				"type": "unocc",
				"energy": -0.01669,
				"method": "rhf"
			},
			{
				"type": "unocc",
				"energy": -0.00882,
				"method": "rhf"
			},
			{
				"type": "unocc",
				"energy": 0.04007,
				"method": "rhf"
			},
			{
				"type": "unocc",
				"energy": 0.07114,
				"method": "rhf"
			}
		],
		"cosmo_sigma_profile": { 
			"-0.025": 0.00266829554556,
			"-0.024": 0.0665788031051,
			"-0.023": 0.0162620134671,
			"-0.022": 0.00694923472969,
			"-0.021": 0.0322146207191,
			"-0.02": 0.0136307777985,
			"-0.019": 0.194573059895,
			"-0.018": 0.0967626700613,
			"-0.017": 0.127926913818,
			"-0.016": 0.168936131009,
			"-0.015": 0.226803984617,
			"-0.014": 0.842432933219,
			"-0.013": 1.14564317696,
			"-0.012": 1.3934336868,
			"-0.011": 0.783918389919,
			"-0.01": 0.805338670968,
			"-0.009": 1.31323712903,
			"-0.008": 1.83894251932,
			"-0.007": 5.12167888686,
			"-0.006": 12.028254632,
			"-0.005": 14.145035273,
			"-0.004": 20.8512961431,
			"-0.003": 24.1065875409,
			"-0.002": 23.3360832522,
			"-0.001": 24.8199391022,
			"0.0": 27.6635044258,
			"0.001": 27.2764357511,
			"0.002": 18.9337947114,
			"0.003": 18.763769114,
			"0.004": 23.6315719981,
			"0.005": 16.8830729186,
			"0.006": 4.30345364442,
			"0.007": 1.3951064182,
			"0.008": 0.722784416064,
			"0.009": 0.925082165087,
			"0.01": 1.10041364119,
			"0.011": 1.69159806929,
			"0.012": 2.4561728179,
			"0.013": 5.56753754148,
			"0.014": 2.41570562753,
			"0.015": 0.0674341215967,
			"0.016": 0.0,
			"0.017": 0.0,
			"0.018": 0.0,
			"0.019": 0.0,
			"0.02": 0.0,
			"0.021": 0.0,
			"0.022": 0.0,
			"0.023": 0.0,
			"0.024": 0.0,
			"0.025": 0.0
		}
	}
}
