{
	 "smiles": "OC(=O)C1=CC=C(NC1=O)C(F)(F)F", 
	 "Tm": 435.15, 
	 "num_atms": 18, 
	 "gaussian": { 
		 "optdone": 1, 
		 "sigma_profile": "yes", 
		 "theory": "DFT", 
		 "functional": "B3LYP", 
		 "basiset": "6-31G**", 
		 "properties": { 
			 "R2extent": 3458.402, 
			 "electric_dipole_moment_norm": 5.57254073202, 
			 "electric_quadrupole_moment_norm": 11.5597706448, 
			 "total_energy": -849.127197386, 
			 "HOMO_LUMO_gap": 0.1653, 
			 "cosmo_polarized_energy": -16.62, 
			 "cosmo_cavitation_energy": 24.78, 
			 "cosmo_dispersion_energy": -18.07, 
			 "cosmo_repulsion_energy": 1.34, 
			 "cosmo_total_nonelectrostatic_energy": 8.05, 
			 "SMD_solvation_energy": 7.29 
		},
		"coords": [
			{
				"x": -2.1936469323,
				"y": -2.0969659728,
				"z": 0.4287487495,
				"element": "O" 
			},
			{
				"x": -2.0171870854,
				"y": -1.0064169818,
				"z": -0.319916159,
				"element": "C" 
			},
			{
				"x": -2.9160666421,
				"y": -0.485535969,
				"z": -0.9460325188,
				"element": "O" 
			},
			{
				"x": -0.6169406805,
				"y": -0.4429077334,
				"z": -0.3483670398,
				"element": "C" 
			},
			{
				"x": -0.3647485148,
				"y": 0.6777416767,
				"z": -1.0975460323,
				"element": "C" 
			},
			{
				"x": 0.9305068177,
				"y": 1.2563815585,
				"z": -1.1657076616,
				"element": "C" 
			},
			{
				"x": 1.9357599838,
				"y": 0.6638947081,
				"z": -0.4582525611,
				"element": "C" 
			},
			{
				"x": 1.6930663233,
				"y": -0.4520329532,
				"z": 0.2900041392,
				"element": "N" 
			},
			{
				"x": 0.4511781662,
				"y": -1.0767712685,
				"z": 0.4065407621,
				"element": "C" 
			},
			{
				"x": 0.3419587834,
				"y": -2.08888282,
				"z": 1.1155133991,
				"element": "O" 
			},
			{
				"x": 3.3585062683,
				"y": 1.1664807916,
				"z": -0.4361795439,
				"element": "C" 
			},
			{
				"x": 4.2039461145,
				"y": 0.2164043489,
				"z": -0.8880096983,
				"element": "F" 
			},
			{
				"x": 3.7366788193,
				"y": 1.4636598223,
				"z": 0.8248786672,
				"element": "F" 
			},
			{
				"x": 3.5050245408,
				"y": 2.2607053383,
				"z": -1.1930101697,
				"element": "F" 
			},
			{
				"x": -1.3300919332,
				"y": -2.3465156968,
				"z": 0.8474650281,
				"element": "H" 
			},
			{
				"x": -1.1971305136,
				"y": 1.1126103577,
				"z": -1.6426591345,
				"element": "H" 
			},
			{
				"x": 1.1300128836,
				"y": 2.1399107375,
				"z": -1.7561439437,
				"element": "H" 
			},
			{
				"x": 2.4418736011,
				"y": -0.8912599442,
				"z": 0.8155737175,
				"element": "H" 
			}
		],
		 "valence_orbital": [ 
			{
				"type": "occ",
				"energy": -0.34307,
				"method": "rhf"
			},
			{
				"type": "occ",
				"energy": -0.30534,
				"method": "rhf"
			},
			{
				"type": "occ",
				"energy": -0.30091,
				"method": "rhf"
			},
			{
				"type": "occ",
				"energy": -0.27381,
				"method": "rhf"
			},
			{
				"type": "occ",
				"energy": -0.26571,
				"method": "rhf"
			},
			{
				"type": "unocc",
				"energy": -0.10041,
				"method": "rhf"
			},
			{
				"type": "unocc",
				"energy": -0.03535,
				"method": "rhf"
			},
			{
				"type": "unocc",
				"energy": 0.02064,
				"method": "rhf"
			},
			{
				"type": "unocc",
				"energy": 0.05131,
				"method": "rhf"
			},
			{
				"type": "unocc",
				"energy": 0.09361,
				"method": "rhf"
			}
		],
		"cosmo_sigma_profile": { 
			"-0.025": 0.0,
			"-0.024": 0.0,
			"-0.023": 0.0,
			"-0.022": 0.0,
			"-0.021": 0.0,
			"-0.02": 0.0,
			"-0.019": 0.0,
			"-0.018": 0.345082582018,
			"-0.017": 0.857595956345,
			"-0.016": 0.616753852105,
			"-0.015": 1.46015018422,
			"-0.014": 0.730895934091,
			"-0.013": 0.568497605394,
			"-0.012": 1.34329418787,
			"-0.011": 1.19501661295,
			"-0.01": 1.06941833202,
			"-0.009": 2.94242465875,
			"-0.008": 4.70861070869,
			"-0.007": 4.94877312338,
			"-0.006": 7.86009730962,
			"-0.005": 14.0320789785,
			"-0.004": 15.521580683,
			"-0.003": 14.0828659011,
			"-0.002": 13.7993980683,
			"-0.001": 14.8494362407,
			"0.0": 10.1423213871,
			"0.001": 22.4114796065,
			"0.002": 19.7389287347,
			"0.003": 3.28490793319,
			"0.004": 2.58893896239,
			"0.005": 2.93579196593,
			"0.006": 2.92289987412,
			"0.007": 3.83314892052,
			"0.008": 3.87292672447,
			"0.009": 4.51616358879,
			"0.01": 5.92506872211,
			"0.011": 7.72506833731,
			"0.012": 6.43845968228,
			"0.013": 2.29122495426,
			"0.014": 0.302638377434,
			"0.015": 0.0,
			"0.016": 0.0,
			"0.017": 0.0,
			"0.018": 0.0,
			"0.019": 0.0,
			"0.02": 0.0,
			"0.021": 0.0,
			"0.022": 0.0,
			"0.023": 0.0,
			"0.024": 0.0,
			"0.025": 0.0
		}
	}
}
