{
	 "smiles": "BrC1=CC=C(OC2CCOCC2)N=C1", 
	 "Tm": 370.15, 
	 "num_atms": 26, 
	 "gaussian": { 
		 "optdone": 1, 
		 "sigma_profile": "yes", 
		 "theory": "DFT", 
		 "functional": "B3LYP", 
		 "basiset": "6-31G**", 
		 "properties": { 
			 "R2extent": 7676.5692, 
			 "electric_dipole_moment_norm": 1.04483574307, 
			 "electric_quadrupole_moment_norm": 14.1792302679, 
			 "total_energy": -3164.8801656, 
			 "HOMO_LUMO_gap": 0.19587, 
			 "cosmo_polarized_energy": -7.59, 
			 "cosmo_cavitation_energy": 30.95, 
			 "cosmo_dispersion_energy": -23.41, 
			 "cosmo_repulsion_energy": 1.86, 
			 "cosmo_total_nonelectrostatic_energy": 9.4, 
			 "SMD_solvation_energy": 3.27 
		},
		"coords": [
			{
				"x": -0.4993271239,
				"y": -1.0766163125,
				"z": 5.9108741725,
				"element": "Br" 
			},
			{
				"x": -0.7799864203,
				"y": -0.799443977,
				"z": 4.0454341907,
				"element": "C" 
			},
			{
				"x": -2.0753634686,
				"y": -0.771335556,
				"z": 3.5145286942,
				"element": "C" 
			},
			{
				"x": -2.2296054832,
				"y": -0.5688090989,
				"z": 2.1539609218,
				"element": "C" 
			},
			{
				"x": -1.070192149,
				"y": -0.4021666869,
				"z": 1.3712000185,
				"element": "C" 
			},
			{
				"x": -1.2576169887,
				"y": -0.1949698798,
				"z": 0.0506842551,
				"element": "O" 
			},
			{
				"x": -0.0956197655,
				"y": -0.0018161054,
				"z": -0.7953232704,
				"element": "C" 
			},
			{
				"x": 0.5663219989,
				"y": -1.3545101607,
				"z": -1.1199394902,
				"element": "C" 
			},
			{
				"x": 1.2038414124,
				"y": -1.3194651802,
				"z": -2.5084829049,
				"element": "C" 
			},
			{
				"x": 0.2555174157,
				"y": -1.0887099172,
				"z": -3.550921003,
				"element": "O" 
			},
			{
				"x": -0.9013732872,
				"y": -0.3446991914,
				"z": -3.1682120567,
				"element": "C" 
			},
			{
				"x": -0.5953934801,
				"y": 0.6815736364,
				"z": -2.0793134382,
				"element": "C" 
			},
			{
				"x": 0.1608879997,
				"y": -0.4317685195,
				"z": 1.8744056158,
				"element": "N" 
			},
			{
				"x": 0.3029398625,
				"y": -0.6257568015,
				"z": 3.1941576658,
				"element": "C" 
			},
			{
				"x": -2.9373028273,
				"y": -0.9045664747,
				"z": 4.1589477853,
				"element": "H" 
			},
			{
				"x": -3.2063672269,
				"y": -0.5337036469,
				"z": 1.68530762,
				"element": "H" 
			},
			{
				"x": 0.6045838967,
				"y": 0.6450039889,
				"z": -0.2600698583,
				"element": "H" 
			},
			{
				"x": 1.3063871702,
				"y": -1.6121755785,
				"z": -0.3579568826,
				"element": "H" 
			},
			{
				"x": -0.2065810752,
				"y": -2.1316088388,
				"z": -1.102427496,
				"element": "H" 
			},
			{
				"x": 1.9901251905,
				"y": -0.5465207117,
				"z": -2.5386284901,
				"element": "H" 
			},
			{
				"x": 1.6859888651,
				"y": -2.2764626515,
				"z": -2.7341021361,
				"element": "H" 
			},
			{
				"x": -1.6959113225,
				"y": -1.0245022727,
				"z": -2.821672196,
				"element": "H" 
			},
			{
				"x": -1.2641037594,
				"y": 0.1450890466,
				"z": -4.0776884712,
				"element": "H" 
			},
			{
				"x": 0.1769691127,
				"y": 1.3679588466,
				"z": -2.4445243113,
				"element": "H" 
			},
			{
				"x": -1.4818299993,
				"y": 1.2810947907,
				"z": -1.8504635227,
				"element": "H" 
			},
			{
				"x": 1.3189114529,
				"y": -0.6447127471,
				"z": 3.5793245879,
				"element": "H" 
			}
		],
		 "valence_orbital": [ 
			{
				"type": "occ",
				"energy": -0.29502,
				"method": "rhf"
			},
			{
				"type": "occ",
				"energy": -0.28748,
				"method": "rhf"
			},
			{
				"type": "occ",
				"energy": -0.27523,
				"method": "rhf"
			},
			{
				"type": "occ",
				"energy": -0.2428,
				"method": "rhf"
			},
			{
				"type": "occ",
				"energy": -0.23141,
				"method": "rhf"
			},
			{
				"type": "unocc",
				"energy": -0.03554,
				"method": "rhf"
			},
			{
				"type": "unocc",
				"energy": -0.01137,
				"method": "rhf"
			},
			{
				"type": "unocc",
				"energy": 0.0036,
				"method": "rhf"
			},
			{
				"type": "unocc",
				"energy": 0.08404,
				"method": "rhf"
			},
			{
				"type": "unocc",
				"energy": 0.09793,
				"method": "rhf"
			}
		],
		"cosmo_sigma_profile": { 
			"-0.025": 0.0,
			"-0.024": 0.0,
			"-0.023": 0.0,
			"-0.022": 0.0,
			"-0.021": 0.0,
			"-0.02": 0.0,
			"-0.019": 0.0,
			"-0.018": 0.0,
			"-0.017": 0.0,
			"-0.016": 0.0,
			"-0.015": 0.0,
			"-0.014": 0.0,
			"-0.013": 0.0,
			"-0.012": 0.0,
			"-0.011": 0.0,
			"-0.01": 0.0,
			"-0.009": 0.0923501737153,
			"-0.008": 2.2982296981,
			"-0.007": 5.61956026202,
			"-0.006": 5.59962244026,
			"-0.005": 10.8714087028,
			"-0.004": 22.7007802947,
			"-0.003": 28.5811190315,
			"-0.002": 25.7797516089,
			"-0.001": 22.6979108018,
			"0.0": 21.6743244107,
			"0.001": 24.9201431432,
			"0.002": 18.3892539568,
			"0.003": 13.4815156009,
			"0.004": 15.0840195376,
			"0.005": 9.38478274494,
			"0.006": 3.758111039,
			"0.007": 3.65118237444,
			"0.008": 3.0165957076,
			"0.009": 2.17649540575,
			"0.01": 1.87478772041,
			"0.011": 1.60283594607,
			"0.012": 1.25294291175,
			"0.013": 1.62913808158,
			"0.014": 1.6579583685,
			"0.015": 0.0338460728772,
			"0.016": 0.0,
			"0.017": 0.0,
			"0.018": 0.0,
			"0.019": 0.0,
			"0.02": 0.0,
			"0.021": 0.0,
			"0.022": 0.0,
			"0.023": 0.0,
			"0.024": 0.0,
			"0.025": 0.0
		}
	}
}
