{
	 "smiles": "CP(=O)(OC1=CC=CC=C1)OC1=CC=CC=C1", 
	 "Tm": 308.15, 
	 "num_atms": 30, 
	 "gaussian": { 
		 "optdone": 1, 
		 "sigma_profile": "yes", 
		 "theory": "DFT", 
		 "functional": "B3LYP", 
		 "basiset": "6-31G**", 
		 "properties": { 
			 "R2extent": 4425.0282, 
			 "electric_dipole_moment_norm": 2.06855928849, 
			 "electric_quadrupole_moment_norm": 9.33536545134, 
			 "total_energy": -1070.30813417, 
			 "HOMO_LUMO_gap": 0.22302, 
			 "cosmo_polarized_energy": -11.27, 
			 "cosmo_cavitation_energy": 36.02, 
			 "cosmo_dispersion_energy": -24.67, 
			 "cosmo_repulsion_energy": 1.94, 
			 "cosmo_total_nonelectrostatic_energy": 13.29, 
			 "SMD_solvation_energy": 8.13 
		},
		"coords": [
			{
				"x": 2.1658680617,
				"y": 1.441453628,
				"z": 2.3440510233,
				"element": "C" 
			},
			{
				"x": 0.5935703293,
				"y": 0.9353444047,
				"z": 1.6228875122,
				"element": "P" 
			},
			{
				"x": -0.6508851075,
				"y": 1.4503484546,
				"z": 2.2490505699,
				"element": "O" 
			},
			{
				"x": 0.7782644077,
				"y": -0.6863916607,
				"z": 1.6385082438,
				"element": "O" 
			},
			{
				"x": -0.2034748125,
				"y": -1.6297403702,
				"z": 1.3215342636,
				"element": "C" 
			},
			{
				"x": -1.5162077891,
				"y": -1.5256560086,
				"z": 1.7850690083,
				"element": "C" 
			},
			{
				"x": -2.4193245393,
				"y": -2.5422049172,
				"z": 1.46768028,
				"element": "C" 
			},
			{
				"x": -2.0190505532,
				"y": -3.6462272194,
				"z": 0.712905185,
				"element": "C" 
			},
			{
				"x": -0.6988803575,
				"y": -3.735284325,
				"z": 0.2664123501,
				"element": "C" 
			},
			{
				"x": 0.2150206993,
				"y": -2.7256544936,
				"z": 0.5673225557,
				"element": "C" 
			},
			{
				"x": 0.8366238158,
				"y": 1.3663729442,
				"z": 0.0672182397,
				"element": "O" 
			},
			{
				"x": -0.1251600338,
				"y": 1.3547973015,
				"z": -0.9474092879,
				"element": "C" 
			},
			{
				"x": 0.2852261956,
				"y": 0.8567952632,
				"z": -2.1836475406,
				"element": "C" 
			},
			{
				"x": -0.6064844035,
				"y": 0.8750794457,
				"z": -3.2559491874,
				"element": "C" 
			},
			{
				"x": -1.8965828282,
				"y": 1.3833218069,
				"z": -3.0904450348,
				"element": "C" 
			},
			{
				"x": -2.2891646032,
				"y": 1.8785263288,
				"z": -1.8456084815,
				"element": "C" 
			},
			{
				"x": -1.4073898544,
				"y": 1.8750315542,
				"z": -0.7629932689,
				"element": "C" 
			},
			{
				"x": 3.0011493181,
				"y": 1.0011796872,
				"z": 1.7967913847,
				"element": "H" 
			},
			{
				"x": 2.1952120304,
				"y": 1.1149592866,
				"z": 3.385634108,
				"element": "H" 
			},
			{
				"x": 2.2344294219,
				"y": 2.5306064736,
				"z": 2.3065064166,
				"element": "H" 
			},
			{
				"x": -1.814242465,
				"y": -0.664394533,
				"z": 2.3704311295,
				"element": "H" 
			},
			{
				"x": -3.4438288611,
				"y": -2.4675736748,
				"z": 1.8207174857,
				"element": "H" 
			},
			{
				"x": -2.7295861212,
				"y": -4.4322259056,
				"z": 0.475755447,
				"element": "H" 
			},
			{
				"x": -0.3762852107,
				"y": -4.5908406113,
				"z": -0.3197877145,
				"element": "H" 
			},
			{
				"x": 1.2454858058,
				"y": -2.7739787378,
				"z": 0.2314897499,
				"element": "H" 
			},
			{
				"x": 1.2922390705,
				"y": 0.4672604481,
				"z": -2.2891370688,
				"element": "H" 
			},
			{
				"x": -0.2903102318,
				"y": 0.4890252698,
				"z": -4.220652513,
				"element": "H" 
			},
			{
				"x": -2.5899149168,
				"y": 1.3947142807,
				"z": -3.9259496787,
				"element": "H" 
			},
			{
				"x": -3.290256273,
				"y": 2.2776975359,
				"z": -1.7103868189,
				"element": "H" 
			},
			{
				"x": -1.6997601943,
				"y": 2.2554583433,
				"z": 0.2081016418,
				"element": "H" 
			}
		],
		 "valence_orbital": [ 
			{
				"type": "occ",
				"energy": -0.2857,
				"method": "rhf"
			},
			{
				"type": "occ",
				"energy": -0.2535,
				"method": "rhf"
			},
			{
				"type": "occ",
				"energy": -0.25126,
				"method": "rhf"
			},
			{
				"type": "occ",
				"energy": -0.246,
				"method": "rhf"
			},
			{
				"type": "occ",
				"energy": -0.23002,
				"method": "rhf"
			},
			{
				"type": "unocc",
				"energy": -0.007,
				"method": "rhf"
			},
			{
				"type": "unocc",
				"energy": -0.00295,
				"method": "rhf"
			},
			{
				"type": "unocc",
				"energy": -0.00039,
				"method": "rhf"
			},
			{
				"type": "unocc",
				"energy": 0.00859,
				"method": "rhf"
			},
			{
				"type": "unocc",
				"energy": 0.07383,
				"method": "rhf"
			}
		],
		"cosmo_sigma_profile": { 
			"-0.025": 0.0,
			"-0.024": 0.0,
			"-0.023": 0.0,
			"-0.022": 0.0,
			"-0.021": 0.0,
			"-0.02": 0.0,
			"-0.019": 0.0,
			"-0.018": 0.0,
			"-0.017": 0.0,
			"-0.016": 0.0,
			"-0.015": 0.0,
			"-0.014": 0.0,
			"-0.013": 0.0,
			"-0.012": 0.0,
			"-0.011": 0.0,
			"-0.01": 0.0,
			"-0.009": 0.0118150449493,
			"-0.008": 3.29613797102,
			"-0.007": 6.87350973923,
			"-0.006": 18.5872807119,
			"-0.005": 23.6074747136,
			"-0.004": 26.3571938152,
			"-0.003": 21.4074232972,
			"-0.002": 19.6563495781,
			"-0.001": 16.7862940259,
			"0.0": 17.1237227906,
			"0.001": 19.1272214892,
			"0.002": 23.2470811792,
			"0.003": 25.3748752576,
			"0.004": 24.4299404149,
			"0.005": 20.8301516774,
			"0.006": 4.86374159237,
			"0.007": 3.36496054826,
			"0.008": 1.19622838381,
			"0.009": 1.17695679066,
			"0.01": 0.653127203351,
			"0.011": 1.38962666137,
			"0.012": 1.74052287351,
			"0.013": 2.46182950287,
			"0.014": 2.72192247272,
			"0.015": 0.262467770154,
			"0.016": 0.0,
			"0.017": 0.0,
			"0.018": 0.0,
			"0.019": 0.0,
			"0.02": 0.0,
			"0.021": 0.0,
			"0.022": 0.0,
			"0.023": 0.0,
			"0.024": 0.0,
			"0.025": 0.0
		}
	}
}
