{
	 "smiles": "O=S(=O)(N1C2CC3=C(C=CC=C3)C12)C1=CC=CC=C1", 
	 "Tm": 394.15, 
	 "num_atms": 32, 
	 "gaussian": { 
		 "optdone": 1, 
		 "sigma_profile": "yes", 
		 "theory": "DFT", 
		 "functional": "B3LYP", 
		 "basiset": "6-31G**", 
		 "properties": { 
			 "R2extent": 6124.8392, 
			 "electric_dipole_moment_norm": 3.49015354533, 
			 "electric_quadrupole_moment_norm": 14.3888296682, 
			 "total_energy": -1182.706611, 
			 "HOMO_LUMO_gap": 0.19993, 
			 "cosmo_polarized_energy": -15.17, 
			 "cosmo_cavitation_energy": 36.42, 
			 "cosmo_dispersion_energy": -26.27, 
			 "cosmo_repulsion_energy": 1.98, 
			 "cosmo_total_nonelectrostatic_energy": 12.13, 
			 "SMD_solvation_energy": 2.75 
		},
		"coords": [
			{
				"x": -0.4595260163,
				"y": 1.3549198464,
				"z": -2.1858007903,
				"element": "O" 
			},
			{
				"x": 0.2595962768,
				"y": 0.1540097291,
				"z": -1.7543212522,
				"element": "S" 
			},
			{
				"x": -0.4543210288,
				"y": -1.0929823534,
				"z": -1.4443704913,
				"element": "O" 
			},
			{
				"x": 1.280002511,
				"y": 0.6442629321,
				"z": -0.4709556023,
				"element": "N" 
			},
			{
				"x": 1.3951161722,
				"y": 0.0476288116,
				"z": 0.8639970811,
				"element": "C" 
			},
			{
				"x": 0.2905618793,
				"y": -0.8378178597,
				"z": 1.4530739861,
				"element": "C" 
			},
			{
				"x": -0.9174474633,
				"y": 0.0756075843,
				"z": 1.5275016206,
				"element": "C" 
			},
			{
				"x": -0.5920534086,
				"y": 1.3769067254,
				"z": 1.1130919259,
				"element": "C" 
			},
			{
				"x": -1.5395463829,
				"y": 2.3972021833,
				"z": 1.1346628392,
				"element": "C" 
			},
			{
				"x": -2.8321236093,
				"y": 2.1019204205,
				"z": 1.5760373143,
				"element": "C" 
			},
			{
				"x": -3.1648569617,
				"y": 0.8035191526,
				"z": 1.9741620119,
				"element": "C" 
			},
			{
				"x": -2.2113179712,
				"y": -0.2197756055,
				"z": 1.9462067597,
				"element": "C" 
			},
			{
				"x": 0.8395598839,
				"y": 1.442442691,
				"z": 0.6892122435,
				"element": "C" 
			},
			{
				"x": 1.5058246778,
				"y": -0.2376098925,
				"z": -2.9864830295,
				"element": "C" 
			},
			{
				"x": 2.1194599937,
				"y": 0.8034422734,
				"z": -3.6868963622,
				"element": "C" 
			},
			{
				"x": 3.0755835409,
				"y": 0.4939271267,
				"z": -4.6524286641,
				"element": "C" 
			},
			{
				"x": 3.4058870813,
				"y": -0.8398521791,
				"z": -4.9111030289,
				"element": "C" 
			},
			{
				"x": 2.7774098274,
				"y": -1.86999611,
				"z": -4.2093797999,
				"element": "C" 
			},
			{
				"x": 1.817745736,
				"y": -1.5731651572,
				"z": -3.2396256817,
				"element": "C" 
			},
			{
				"x": 2.4238123831,
				"y": -0.1409002884,
				"z": 1.160596428,
				"element": "H" 
			},
			{
				"x": 0.1027911898,
				"y": -1.7310125123,
				"z": 0.8520083657,
				"element": "H" 
			},
			{
				"x": 0.6059441149,
				"y": -1.1660129235,
				"z": 2.4516863505,
				"element": "H" 
			},
			{
				"x": -1.2830197958,
				"y": 3.3994414396,
				"z": 0.8040377127,
				"element": "H" 
			},
			{
				"x": -3.5857916639,
				"y": 2.8834793412,
				"z": 1.5997646452,
				"element": "H" 
			},
			{
				"x": -4.1746735659,
				"y": 0.5870222362,
				"z": 2.3109810593,
				"element": "H" 
			},
			{
				"x": -2.4776977996,
				"y": -1.2257296758,
				"z": 2.2591366342,
				"element": "H" 
			},
			{
				"x": 1.4158780851,
				"y": 2.3517602526,
				"z": 0.840049656,
				"element": "H" 
			},
			{
				"x": 1.8399544525,
				"y": 1.8310936591,
				"z": -3.4822867075,
				"element": "H" 
			},
			{
				"x": 3.5593782675,
				"y": 1.292380807,
				"z": -5.2069514581,
				"element": "H" 
			},
			{
				"x": 4.1503399387,
				"y": -1.0753003,
				"z": -5.6661271235,
				"element": "H" 
			},
			{
				"x": 3.0282663506,
				"y": -2.9054403494,
				"z": -4.41925576,
				"element": "H" 
			},
			{
				"x": 1.3038633048,
				"y": -2.3566720053,
				"z": -2.6940208826,
				"element": "H" 
			}
		],
		 "valence_orbital": [ 
			{
				"type": "occ",
				"energy": -0.279,
				"method": "rhf"
			},
			{
				"type": "occ",
				"energy": -0.26538,
				"method": "rhf"
			},
			{
				"type": "occ",
				"energy": -0.25608,
				"method": "rhf"
			},
			{
				"type": "occ",
				"energy": -0.2447,
				"method": "rhf"
			},
			{
				"type": "occ",
				"energy": -0.23425,
				"method": "rhf"
			},
			{
				"type": "unocc",
				"energy": -0.03432,
				"method": "rhf"
			},
			{
				"type": "unocc",
				"energy": -0.01523,
				"method": "rhf"
			},
			{
				"type": "unocc",
				"energy": -0.00519,
				"method": "rhf"
			},
			{
				"type": "unocc",
				"energy": -0.00078,
				"method": "rhf"
			},
			{
				"type": "unocc",
				"energy": 0.05948,
				"method": "rhf"
			}
		],
		"cosmo_sigma_profile": { 
			"-0.025": 0.0,
			"-0.024": 0.0,
			"-0.023": 0.0,
			"-0.022": 0.0,
			"-0.021": 0.0,
			"-0.02": 0.0,
			"-0.019": 0.0,
			"-0.018": 0.0,
			"-0.017": 0.0,
			"-0.016": 0.0,
			"-0.015": 0.0,
			"-0.014": 0.0,
			"-0.013": 0.0,
			"-0.012": 0.0,
			"-0.011": 0.0,
			"-0.01": 0.0,
			"-0.009": 0.0,
			"-0.008": 1.04901189861,
			"-0.007": 11.3448284569,
			"-0.006": 22.8822725212,
			"-0.005": 26.6649159046,
			"-0.004": 25.5849596969,
			"-0.003": 23.9510946007,
			"-0.002": 21.7276398633,
			"-0.001": 17.0139731771,
			"0.0": 15.8968841947,
			"0.001": 15.8110197737,
			"0.002": 19.0130041318,
			"0.003": 23.0028789555,
			"0.004": 13.713022184,
			"0.005": 11.7873775468,
			"0.006": 8.65049201231,
			"0.007": 6.06389105076,
			"0.008": 6.26372107834,
			"0.009": 6.20182604631,
			"0.01": 7.06070427593,
			"0.011": 6.76359466957,
			"0.012": 1.34869885184,
			"0.013": 0.0,
			"0.014": 0.0,
			"0.015": 0.0,
			"0.016": 0.0,
			"0.017": 0.0,
			"0.018": 0.0,
			"0.019": 0.0,
			"0.02": 0.0,
			"0.021": 0.0,
			"0.022": 0.0,
			"0.023": 0.0,
			"0.024": 0.0,
			"0.025": 0.0
		}
	}
}
