{
	 "smiles": "OC(=O)C1=CC(=CC=C1)S(=O)(=O)N1CCN(CC1)C1=CC=C(F)C=C1", 
	 "Tm": 403.15, 
	 "num_atms": 42, 
	 "gaussian": { 
		 "optdone": 1, 
		 "sigma_profile": "yes", 
		 "theory": "DFT", 
		 "functional": "B3LYP", 
		 "basiset": "6-31G**", 
		 "properties": { 
			 "R2extent": 13355.5045, 
			 "electric_dipole_moment_norm": 4.52712106531, 
			 "electric_quadrupole_moment_norm": 28.6149772476, 
			 "total_energy": -1566.41257491, 
			 "HOMO_LUMO_gap": 0.1385, 
			 "cosmo_polarized_energy": -20.74, 
			 "cosmo_cavitation_energy": 47.25, 
			 "cosmo_dispersion_energy": -33.09, 
			 "cosmo_repulsion_energy": 2.42, 
			 "cosmo_total_nonelectrostatic_energy": 16.59, 
			 "SMD_solvation_energy": 6.61 
		},
		"coords": [
			{
				"x": 0.7884782392,
				"y": -2.2691391957,
				"z": -6.3315715825,
				"element": "O" 
			},
			{
				"x": 0.6761619132,
				"y": -1.3327648575,
				"z": -5.3589665794,
				"element": "C" 
			},
			{
				"x": 1.5166560621,
				"y": -0.475560478,
				"z": -5.1789612204,
				"element": "O" 
			},
			{
				"x": -0.5697627759,
				"y": -1.4791008556,
				"z": -4.5551206698,
				"element": "C" 
			},
			{
				"x": -0.7987364148,
				"y": -0.5457861534,
				"z": -3.5398199578,
				"element": "C" 
			},
			{
				"x": -1.9489613588,
				"y": -0.6610523806,
				"z": -2.7623015609,
				"element": "C" 
			},
			{
				"x": -2.8789197289,
				"y": -1.6785312387,
				"z": -2.9834722497,
				"element": "C" 
			},
			{
				"x": -2.6440993936,
				"y": -2.6041255104,
				"z": -4.0032106855,
				"element": "C" 
			},
			{
				"x": -1.495866199,
				"y": -2.5080989997,
				"z": -4.7864519402,
				"element": "C" 
			},
			{
				"x": -2.2898759553,
				"y": 0.5725397157,
				"z": -1.4978634088,
				"element": "S" 
			},
			{
				"x": -2.1860787213,
				"y": 1.9082008224,
				"z": -2.0919497081,
				"element": "O" 
			},
			{
				"x": -3.5198769426,
				"y": 0.1549276084,
				"z": -0.8092032034,
				"element": "O" 
			},
			{
				"x": -0.9277644568,
				"y": 0.3944056963,
				"z": -0.4972234827,
				"element": "N" 
			},
			{
				"x": -0.5067974825,
				"y": 1.6181698647,
				"z": 0.2130164565,
				"element": "C" 
			},
			{
				"x": 0.8844478181,
				"y": 1.3864443128,
				"z": 0.8016456911,
				"element": "C" 
			},
			{
				"x": 0.8695572644,
				"y": 0.2307119879,
				"z": 1.6931533664,
				"element": "N" 
			},
			{
				"x": 0.4280773868,
				"y": -0.9794590146,
				"z": 0.9905222299,
				"element": "C" 
			},
			{
				"x": -0.9637079873,
				"y": -0.7781646305,
				"z": 0.39373197,
				"element": "C" 
			},
			{
				"x": 1.9648945353,
				"y": 0.0741544486,
				"z": 2.5827620272,
				"element": "C" 
			},
			{
				"x": 1.8528376529,
				"y": -0.8309335939,
				"z": 3.6562351338,
				"element": "C" 
			},
			{
				"x": 2.8893025568,
				"y": -1.0024480389,
				"z": 4.5673921353,
				"element": "C" 
			},
			{
				"x": 4.0490861059,
				"y": -0.2469401576,
				"z": 4.4225888479,
				"element": "C" 
			},
			{
				"x": 5.0533996053,
				"y": -0.4029054984,
				"z": 5.3137979155,
				"element": "F" 
			},
			{
				"x": 4.1903068885,
				"y": 0.6644951275,
				"z": 3.3875618037,
				"element": "C" 
			},
			{
				"x": 3.152405382,
				"y": 0.8153833754,
				"z": 2.4643816427,
				"element": "C" 
			},
			{
				"x": 1.6249975431,
				"y": -2.0813849568,
				"z": -6.7883893222,
				"element": "H" 
			},
			{
				"x": -0.0785492068,
				"y": 0.2466618183,
				"z": -3.3719655763,
				"element": "H" 
			},
			{
				"x": -3.7667609421,
				"y": -1.7308801593,
				"z": -2.3627968964,
				"element": "H" 
			},
			{
				"x": -3.3599854682,
				"y": -3.3995614016,
				"z": -4.1846214638,
				"element": "H" 
			},
			{
				"x": -1.3084534733,
				"y": -3.2244917637,
				"z": -5.5780020884,
				"element": "H" 
			},
			{
				"x": -1.2083854645,
				"y": 1.8686347785,
				"z": 1.0220612461,
				"element": "H" 
			},
			{
				"x": -0.4839050411,
				"y": 2.4422959767,
				"z": -0.5008033363,
				"element": "H" 
			},
			{
				"x": 1.1664215861,
				"y": 2.2732344844,
				"z": 1.3764902685,
				"element": "H" 
			},
			{
				"x": 1.6080272236,
				"y": 1.2692035552,
				"z": -0.0251165044,
				"element": "H" 
			},
			{
				"x": 0.3929915101,
				"y": -1.8162708795,
				"z": 1.6905721021,
				"element": "H" 
			},
			{
				"x": 1.1317636222,
				"y": -1.2471579075,
				"z": 0.1824356826,
				"element": "H" 
			},
			{
				"x": -1.2385112478,
				"y": -1.6618489229,
				"z": -0.189493036,
				"element": "H" 
			},
			{
				"x": -1.705837354,
				"y": -0.6448324475,
				"z": 1.1926603112,
				"element": "H" 
			},
			{
				"x": 0.9303778983,
				"y": -1.3864222181,
				"z": 3.7922158308,
				"element": "H" 
			},
			{
				"x": 2.8010686644,
				"y": -1.6959398633,
				"z": 5.396867299,
				"element": "H" 
			},
			{
				"x": 5.106684791,
				"y": 1.2382283696,
				"z": 3.2987895604,
				"element": "H" 
			},
			{
				"x": 3.2861913651,
				"y": 1.5120091814,
				"z": 1.6451229524,
				"element": "H" 
			}
		],
		 "valence_orbital": [ 
			{
				"type": "occ",
				"energy": -0.28343,
				"method": "rhf"
			},
			{
				"type": "occ",
				"energy": -0.27673,
				"method": "rhf"
			},
			{
				"type": "occ",
				"energy": -0.26092,
				"method": "rhf"
			},
			{
				"type": "occ",
				"energy": -0.25758,
				"method": "rhf"
			},
			{
				"type": "occ",
				"energy": -0.20677,
				"method": "rhf"
			},
			{
				"type": "unocc",
				"energy": -0.06827,
				"method": "rhf"
			},
			{
				"type": "unocc",
				"energy": -0.04698,
				"method": "rhf"
			},
			{
				"type": "unocc",
				"energy": -0.01272,
				"method": "rhf"
			},
			{
				"type": "unocc",
				"energy": 0.00672,
				"method": "rhf"
			},
			{
				"type": "unocc",
				"energy": 0.03085,
				"method": "rhf"
			}
		],
		"cosmo_sigma_profile": { 
			"-0.025": 0.0,
			"-0.024": 0.0,
			"-0.023": 0.0,
			"-0.022": 0.0,
			"-0.021": 0.0,
			"-0.02": 0.0,
			"-0.019": 0.145477556399,
			"-0.018": 1.06921735544,
			"-0.017": 0.73386916878,
			"-0.016": 0.814888577008,
			"-0.015": 0.995866079935,
			"-0.014": 0.486233866198,
			"-0.013": 0.894924916063,
			"-0.012": 0.629154477902,
			"-0.011": 1.02337867921,
			"-0.01": 0.687012887661,
			"-0.009": 0.333286361937,
			"-0.008": 2.70446460896,
			"-0.007": 10.9855896403,
			"-0.006": 21.9552786395,
			"-0.005": 28.4852524993,
			"-0.004": 33.391320288,
			"-0.003": 31.9939331939,
			"-0.002": 24.6652830371,
			"-0.001": 25.9164352159,
			"0.0": 26.5375337608,
			"0.001": 26.1583480214,
			"0.002": 23.1300442148,
			"0.003": 17.9708021321,
			"0.004": 22.6930429695,
			"0.005": 20.9011457931,
			"0.006": 6.43801242218,
			"0.007": 6.46495596273,
			"0.008": 5.88472709711,
			"0.009": 5.1446270045,
			"0.01": 10.9300546797,
			"0.011": 12.0328204779,
			"0.012": 3.81565728659,
			"0.013": 0.0,
			"0.014": 0.0,
			"0.015": 0.0,
			"0.016": 0.0,
			"0.017": 0.0,
			"0.018": 0.0,
			"0.019": 0.0,
			"0.02": 0.0,
			"0.021": 0.0,
			"0.022": 0.0,
			"0.023": 0.0,
			"0.024": 0.0,
			"0.0": 0.0
		}
	}
}
