{
	 "smiles": "COC1=CC(=CC=C1)C1=CNC=C1C(O)=O", 
	 "Tm": 417.15, 
	 "num_atms": 27, 
	 "gaussian": { 
		 "optdone": 1, 
		 "sigma_profile": "yes", 
		 "theory": "DFT", 
		 "functional": "B3LYP", 
		 "basiset": "6-31G**", 
		 "properties": { 
			 "R2extent": 4722.5277, 
			 "electric_dipole_moment_norm": 6.55073377111, 
			 "electric_quadrupole_moment_norm": 18.222623307, 
			 "total_energy": -744.318546749, 
			 "HOMO_LUMO_gap": 0.1803, 
			 "cosmo_polarized_energy": -24.03, 
			 "cosmo_cavitation_energy": 31.37, 
			 "cosmo_dispersion_energy": -22.57, 
			 "cosmo_repulsion_energy": 1.75, 
			 "cosmo_total_nonelectrostatic_energy": 10.55, 
			 "SMD_solvation_energy": 7.17 
		},
		"coords": [
			{
				"x": -3.9621942894,
				"y": -1.4447521034,
				"z": 2.3200476864,
				"element": "C" 
			},
			{
				"x": -3.4227923675,
				"y": -0.4060750919,
				"z": 3.1251720153,
				"element": "O" 
			},
			{
				"x": -2.4459842477,
				"y": 0.3819826216,
				"z": 2.5877920511,
				"element": "C" 
			},
			{
				"x": -1.8649389056,
				"y": 0.163706585,
				"z": 1.3365811309,
				"element": "C" 
			},
			{
				"x": -0.8819902036,
				"y": 1.039646529,
				"z": 0.8466757407,
				"element": "C" 
			},
			{
				"x": -0.4839818376,
				"y": 2.1276737468,
				"z": 1.6383355857,
				"element": "C" 
			},
			{
				"x": -1.0526953387,
				"y": 2.3248089167,
				"z": 2.8984000886,
				"element": "C" 
			},
			{
				"x": -2.0296024157,
				"y": 1.4619823661,
				"z": 3.3803029989,
				"element": "C" 
			},
			{
				"x": -0.234277195,
				"y": 0.8128661361,
				"z": -0.461754349,
				"element": "C" 
			},
			{
				"x": 1.0886987009,
				"y": 1.1154083344,
				"z": -0.7259494214,
				"element": "C" 
			},
			{
				"x": 1.3743434236,
				"y": 0.7723676802,
				"z": -2.0264554459,
				"element": "N" 
			},
			{
				"x": 0.2675829323,
				"y": 0.2376032766,
				"z": -2.6147313719,
				"element": "C" 
			},
			{
				"x": -0.7588453677,
				"y": 0.2341377254,
				"z": -1.678373965,
				"element": "C" 
			},
			{
				"x": -2.1419374731,
				"y": -0.1943012402,
				"z": -1.9864129057,
				"element": "C" 
			},
			{
				"x": -2.249387885,
				"y": -1.1097160666,
				"z": -3.0010375507,
				"element": "O" 
			},
			{
				"x": -3.1446139838,
				"y": 0.2052127511,
				"z": -1.4421675433,
				"element": "O" 
			},
			{
				"x": -4.3513388916,
				"y": -1.0585979008,
				"z": 1.3701281953,
				"element": "H" 
			},
			{
				"x": -4.7780737629,
				"y": -1.880647177,
				"z": 2.8991428389,
				"element": "H" 
			},
			{
				"x": -3.2167086523,
				"y": -2.2235042839,
				"z": 2.1106123918,
				"element": "H" 
			},
			{
				"x": -2.1803694069,
				"y": -0.670457207,
				"z": 0.7274728071,
				"element": "H" 
			},
			{
				"x": 0.2466726722,
				"y": 2.8340688489,
				"z": 1.2572246777,
				"element": "H" 
			},
			{
				"x": -0.7403546681,
				"y": 3.1713912859,
				"z": 3.5034883058,
				"element": "H" 
			},
			{
				"x": -2.4941010887,
				"y": 1.6077213742,
				"z": 4.3498680616,
				"element": "H" 
			},
			{
				"x": 1.8511946579,
				"y": 1.5120015142,
				"z": -0.0731902922,
				"element": "H" 
			},
			{
				"x": 2.2637202273,
				"y": 0.9096736742,
				"z": -2.4799211898,
				"element": "H" 
			},
			{
				"x": 0.2642686906,
				"y": -0.0271297767,
				"z": -3.6624446188,
				"element": "H" 
			},
			{
				"x": -1.3763933241,
				"y": -1.4823725192,
				"z": -3.1870059219,
				"element": "H" 
			}
		],
		 "valence_orbital": [ 
			{
				"type": "occ",
				"energy": -0.27674,
				"method": "rhf"
			},
			{
				"type": "occ",
				"energy": -0.26133,
				"method": "rhf"
			},
			{
				"type": "occ",
				"energy": -0.24653,
				"method": "rhf"
			},
			{
				"type": "occ",
				"energy": -0.22108,
				"method": "rhf"
			},
			{
				"type": "occ",
				"energy": -0.20379,
				"method": "rhf"
			},
			{
				"type": "unocc",
				"energy": -0.02349,
				"method": "rhf"
			},
			{
				"type": "unocc",
				"energy": -0.0057,
				"method": "rhf"
			},
			{
				"type": "unocc",
				"energy": 0.02027,
				"method": "rhf"
			},
			{
				"type": "unocc",
				"energy": 0.04706,
				"method": "rhf"
			},
			{
				"type": "unocc",
				"energy": 0.05663,
				"method": "rhf"
			}
		],
		"cosmo_sigma_profile": { 
			"-0.025": 0.0,
			"-0.024": 0.0,
			"-0.023": 0.0,
			"-0.022": 0.0,
			"-0.021": 0.0,
			"-0.02": 0.0,
			"-0.019": 0.0,
			"-0.018": 0.260039435221,
			"-0.017": 1.62347852245,
			"-0.016": 2.53983865905,
			"-0.015": 2.72011681447,
			"-0.014": 2.78444932313,
			"-0.013": 2.0312391618,
			"-0.012": 1.91501123498,
			"-0.011": 2.95865582869,
			"-0.01": 3.59491240899,
			"-0.009": 4.1126369062,
			"-0.008": 4.69380268096,
			"-0.007": 3.45262694158,
			"-0.006": 8.83164258536,
			"-0.005": 16.4842769679,
			"-0.004": 17.7795161328,
			"-0.003": 19.3894962849,
			"-0.002": 13.196844076,
			"-0.001": 10.1020027652,
			"0.0": 10.8682433987,
			"0.001": 13.1851794169,
			"0.002": 10.2130657567,
			"0.003": 14.9401492741,
			"0.004": 17.5887443386,
			"0.005": 17.3381883666,
			"0.006": 12.4567028993,
			"0.007": 5.67142937035,
			"0.008": 4.331645581,
			"0.009": 4.18339747924,
			"0.01": 5.45857746782,
			"0.011": 5.95820334291,
			"0.012": 5.30471745766,
			"0.013": 3.58663908959,
			"0.014": 0.902202210963,
			"0.015": 0.0,
			"0.016": 0.0,
			"0.017": 0.0,
			"0.018": 0.0,
			"0.019": 0.0,
			"0.02": 0.0,
			"0.021": 0.0,
			"0.022": 0.0,
			"0.023": 0.0,
			"0.024": 0.0,
			"0.025": 0.0
		}
	}
}
