{
	 "smiles": "ClCC(=O)N1CCSC2=C1C=CC=C2", 
	 "Tm": 327.15, 
	 "num_atms": 24, 
	 "gaussian": { 
		 "optdone": 1, 
		 "sigma_profile": "yes", 
		 "theory": "DFT", 
		 "functional": "B3LYP", 
		 "basiset": "6-31G**", 
		 "properties": { 
			 "R2extent": 3621.0685, 
			 "electric_dipole_moment_norm": 2.77740054187, 
			 "electric_quadrupole_moment_norm": 12.2404798129, 
			 "total_energy": -1375.45416168, 
			 "HOMO_LUMO_gap": 0.18454, 
			 "cosmo_polarized_energy": -10.71, 
			 "cosmo_cavitation_energy": 29.67, 
			 "cosmo_dispersion_energy": -22.13, 
			 "cosmo_repulsion_energy": 1.68, 
			 "cosmo_total_nonelectrostatic_energy": 9.23, 
			 "SMD_solvation_energy": 4.45 
		},
		"coords": [
			{
				"x": 3.2675119763,
				"y": 2.414374599,
				"z": 1.07043895,
				"element": "Cl" 
			},
			{
				"x": 1.9541472652,
				"y": 1.3021786303,
				"z": 1.6470995966,
				"element": "C" 
			},
			{
				"x": 0.574355824,
				"y": 1.87790891,
				"z": 1.335885709,
				"element": "C" 
			},
			{
				"x": 0.0888681395,
				"y": 2.7224223137,
				"z": 2.0762191741,
				"element": "O" 
			},
			{
				"x": -0.1070603557,
				"y": 1.3983405974,
				"z": 0.2307055278,
				"element": "N" 
			},
			{
				"x": -1.5072413915,
				"y": 1.8139644913,
				"z": 0.0806814028,
				"element": "C" 
			},
			{
				"x": -2.4389646934,
				"y": 0.7665448198,
				"z": 0.6792166062,
				"element": "C" 
			},
			{
				"x": -2.1615798812,
				"y": -0.9075104266,
				"z": -0.050520917,
				"element": "S" 
			},
			{
				"x": -0.582602231,
				"y": -0.7341678697,
				"z": -0.8561931813,
				"element": "C" 
			},
			{
				"x": 0.3016797624,
				"y": 0.3416742447,
				"z": -0.6348625381,
				"element": "C" 
			},
			{
				"x": 1.513051789,
				"y": 0.3998545741,
				"z": -1.3369351531,
				"element": "C" 
			},
			{
				"x": 1.8855664146,
				"y": -0.6310351708,
				"z": -2.1957280148,
				"element": "C" 
			},
			{
				"x": 1.0214828428,
				"y": -1.7095895206,
				"z": -2.398901775,
				"element": "C" 
			},
			{
				"x": -0.2080966599,
				"y": -1.7501315993,
				"z": -1.7481655396,
				"element": "C" 
			},
			{
				"x": 2.1413579923,
				"y": 0.3264834198,
				"z": 1.2039586625,
				"element": "H" 
			},
			{
				"x": 2.0448255175,
				"y": 1.2604606068,
				"z": 2.7311491776,
				"element": "H" 
			},
			{
				"x": -1.7110654845,
				"y": 1.960619234,
				"z": -0.9835917209,
				"element": "H" 
			},
			{
				"x": -1.6284731544,
				"y": 2.7604599559,
				"z": 0.6083072874,
				"element": "H" 
			},
			{
				"x": -3.4846105836,
				"y": 1.0211598252,
				"z": 0.4858815353,
				"element": "H" 
			},
			{
				"x": -2.2862875861,
				"y": 0.7091064715,
				"z": 1.7593077951,
				"element": "H" 
			},
			{
				"x": 2.1572998589,
				"y": 1.2618888486,
				"z": -1.2007266605,
				"element": "H" 
			},
			{
				"x": 2.8346978413,
				"y": -0.5786027017,
				"z": -2.7194934914,
				"element": "H" 
			},
			{
				"x": 1.2951257703,
				"y": -2.5111578672,
				"z": -3.0782699095,
				"element": "H" 
			},
			{
				"x": -0.8903889729,
				"y": -2.5764463862,
				"z": -1.9259625233,
				"element": "H" 
			}
		],
		 "valence_orbital": [ 
			{
				"type": "occ",
				"energy": -0.29973,
				"method": "rhf"
			},
			{
				"type": "occ",
				"energy": -0.29025,
				"method": "rhf"
			},
			{
				"type": "occ",
				"energy": -0.26826,
				"method": "rhf"
			},
			{
				"type": "occ",
				"energy": -0.24345,
				"method": "rhf"
			},
			{
				"type": "occ",
				"energy": -0.21919,
				"method": "rhf"
			},
			{
				"type": "unocc",
				"energy": -0.03465,
				"method": "rhf"
			},
			{
				"type": "unocc",
				"energy": -0.01877,
				"method": "rhf"
			},
			{
				"type": "unocc",
				"energy": -0.01074,
				"method": "rhf"
			},
			{
				"type": "unocc",
				"energy": 0.02359,
				"method": "rhf"
			},
			{
				"type": "unocc",
				"energy": 0.04996,
				"method": "rhf"
			}
		],
		"cosmo_sigma_profile": { 
			"-0.025": 0.0,
			"-0.024": 0.0,
			"-0.023": 0.0,
			"-0.022": 0.0,
			"-0.021": 0.0,
			"-0.02": 0.0,
			"-0.019": 0.0,
			"-0.018": 0.0,
			"-0.017": 0.0,
			"-0.016": 0.0,
			"-0.015": 0.0,
			"-0.014": 0.0,
			"-0.013": 0.0,
			"-0.012": 0.0,
			"-0.011": 0.0,
			"-0.01": 0.0,
			"-0.009": 0.866090761542,
			"-0.008": 2.58445896592,
			"-0.007": 8.88174296784,
			"-0.006": 18.6537935793,
			"-0.005": 22.4653087016,
			"-0.004": 21.5656208849,
			"-0.003": 17.4971590611,
			"-0.002": 13.2735548888,
			"-0.001": 13.147980945,
			"0.0": 14.8906404186,
			"0.001": 13.5278563737,
			"0.002": 13.7515513155,
			"0.003": 16.4050246953,
			"0.004": 19.5002529642,
			"0.005": 16.1765252581,
			"0.006": 8.27885794861,
			"0.007": 3.64441017748,
			"0.008": 2.76565291922,
			"0.009": 2.45765672265,
			"0.01": 1.70921855126,
			"0.011": 1.66136353918,
			"0.012": 4.05939462329,
			"0.013": 2.67156302636,
			"0.014": 0.261402417676,
			"0.015": 0.0,
			"0.016": 0.0,
			"0.017": 0.0,
			"0.018": 0.0,
			"0.019": 0.0,
			"0.02": 0.0,
			"0.021": 0.0,
			"0.022": 0.0,
			"0.023": 0.0,
			"0.024": 0.0,
			"0.025": 0.0
		}
	}
}
