{
	 "smiles": "CC1CC(C)CN(C1)C(=O)C1=C(N)C=CC=C1", 
	 "Tm": 371.15, 
	 "num_atms": 37, 
	 "gaussian": { 
		 "optdone": 1, 
		 "sigma_profile": "yes", 
		 "theory": "DFT", 
		 "functional": "B3LYP", 
		 "basiset": "6-31G**", 
		 "properties": { 
			 "R2extent": 5745.3164, 
			 "electric_dipole_moment_norm": 4.67028931545, 
			 "electric_quadrupole_moment_norm": 17.4641532618, 
			 "total_energy": -730.307640831, 
			 "HOMO_LUMO_gap": 0.18335, 
			 "cosmo_polarized_energy": -13.72, 
			 "cosmo_cavitation_energy": 37.09, 
			 "cosmo_dispersion_energy": -25.82, 
			 "cosmo_repulsion_energy": 2.0, 
			 "cosmo_total_nonelectrostatic_energy": 13.27, 
			 "SMD_solvation_energy": 6.25 
		},
		"coords": [
			{
				"x": 1.8963268451,
				"y": 0.399798266,
				"z": 3.8040519367,
				"element": "C" 
			},
			{
				"x": 1.1380427039,
				"y": 0.3049944604,
				"z": 2.4755083461,
				"element": "C" 
			},
			{
				"x": 1.0141292043,
				"y": -1.1474556227,
				"z": 1.9857967616,
				"element": "C" 
			},
			{
				"x": 0.1919522852,
				"y": -1.2567317057,
				"z": 0.691187539,
				"element": "C" 
			},
			{
				"x": -0.0041949483,
				"y": -2.7122468889,
				"z": 0.2529559069,
				"element": "C" 
			},
			{
				"x": -1.1620575105,
				"y": -0.5538921742,
				"z": 0.8698726856,
				"element": "C" 
			},
			{
				"x": -0.9958543693,
				"y": 0.831536268,
				"z": 1.3347752334,
				"element": "N" 
			},
			{
				"x": -0.2522980979,
				"y": 0.9445881753,
				"z": 2.5952732019,
				"element": "C" 
			},
			{
				"x": -1.9756503077,
				"y": 1.7983286991,
				"z": 1.0999371708,
				"element": "C" 
			},
			{
				"x": -2.1918174925,
				"y": 2.6959243725,
				"z": 1.9071174327,
				"element": "O" 
			},
			{
				"x": -2.7369980985,
				"y": 1.7265752792,
				"z": -0.1946219172,
				"element": "C" 
			},
			{
				"x": -2.1110524963,
				"y": 1.620846595,
				"z": -1.4621260316,
				"element": "C" 
			},
			{
				"x": -0.7308548345,
				"y": 1.5972266009,
				"z": -1.5938726971,
				"element": "N" 
			},
			{
				"x": -2.9241648901,
				"y": 1.6137587798,
				"z": -2.6123533336,
				"element": "C" 
			},
			{
				"x": -4.3059549164,
				"y": 1.7250801395,
				"z": -2.5140901764,
				"element": "C" 
			},
			{
				"x": -4.9222828202,
				"y": 1.8668577089,
				"z": -1.2668054864,
				"element": "C" 
			},
			{
				"x": -4.1280970004,
				"y": 1.8822300951,
				"z": -0.1249824403,
				"element": "C" 
			},
			{
				"x": 2.8988336173,
				"y": -0.0319307527,
				"z": 3.7160311835,
				"element": "H" 
			},
			{
				"x": 2.0063151209,
				"y": 1.4403459635,
				"z": 4.1274302318,
				"element": "H" 
			},
			{
				"x": 1.3696700967,
				"y": -0.1425179356,
				"z": 4.5983014099,
				"element": "H" 
			},
			{
				"x": 1.6949393824,
				"y": 0.8739897475,
				"z": 1.7162538743,
				"element": "H" 
			},
			{
				"x": 0.5255589251,
				"y": -1.7480008689,
				"z": 2.7688584297,
				"element": "H" 
			},
			{
				"x": 2.0101905346,
				"y": -1.5834214171,
				"z": 1.8367794888,
				"element": "H" 
			},
			{
				"x": 0.7359983802,
				"y": -0.7259122077,
				"z": -0.1044924603,
				"element": "H" 
			},
			{
				"x": -0.5624031442,
				"y": -2.7772276651,
				"z": -0.6874765889,
				"element": "H" 
			},
			{
				"x": -0.5582559477,
				"y": -3.2801225477,
				"z": 1.0096744996,
				"element": "H" 
			},
			{
				"x": 0.959629595,
				"y": -3.2102975004,
				"z": 0.1056274915,
				"element": "H" 
			},
			{
				"x": -1.7598026414,
				"y": -1.115753516,
				"z": 1.6085678417,
				"element": "H" 
			},
			{
				"x": -1.7245361407,
				"y": -0.5547548468,
				"z": -0.064345971,
				"element": "H" 
			},
			{
				"x": -0.1871705797,
				"y": 2.0032434472,
				"z": 2.8483547216,
				"element": "H" 
			},
			{
				"x": -0.816282838,
				"y": 0.455502131,
				"z": 3.4076505919,
				"element": "H" 
			},
			{
				"x": -0.355837754,
				"y": 1.228203079,
				"z": -2.4538096453,
				"element": "H" 
			},
			{
				"x": -0.1925380472,
				"y": 1.3965354175,
				"z": -0.7637336682,
				"element": "H" 
			},
			{
				"x": -2.4514397663,
				"y": 1.537420247,
				"z": -3.5887386047,
				"element": "H" 
			},
			{
				"x": -4.9050763046,
				"y": 1.7123814777,
				"z": -3.4205916049,
				"element": "H" 
			},
			{
				"x": -5.9996664119,
				"y": 1.9704841956,
				"z": -1.1895094289,
				"element": "H" 
			},
			{
				"x": -4.5744993326,
				"y": 2.0111145037,
				"z": 0.8562440761,
				"element": "H" 
			}
		],
		 "valence_orbital": [ 
			{
				"type": "occ",
				"energy": -0.30679,
				"method": "rhf"
			},
			{
				"type": "occ",
				"energy": -0.25988,
				"method": "rhf"
			},
			{
				"type": "occ",
				"energy": -0.242,
				"method": "rhf"
			},
			{
				"type": "occ",
				"energy": -0.23167,
				"method": "rhf"
			},
			{
				"type": "occ",
				"energy": -0.20044,
				"method": "rhf"
			},
			{
				"type": "unocc",
				"energy": -0.01709,
				"method": "rhf"
			},
			{
				"type": "unocc",
				"energy": 0.01433,
				"method": "rhf"
			},
			{
				"type": "unocc",
				"energy": 0.04528,
				"method": "rhf"
			},
			{
				"type": "unocc",
				"energy": 0.06782,
				"method": "rhf"
			},
			{
				"type": "unocc",
				"energy": 0.08762,
				"method": "rhf"
			}
		],
		"cosmo_sigma_profile": { 
			"-0.025": 0.0,
			"-0.024": 0.0,
			"-0.023": 0.0,
			"-0.022": 0.0,
			"-0.021": 0.0,
			"-0.02": 0.0,
			"-0.019": 0.0,
			"-0.018": 0.0,
			"-0.017": 0.0,
			"-0.016": 0.0,
			"-0.015": 0.0,
			"-0.014": 0.0,
			"-0.013": 0.582936586674,
			"-0.012": 1.20861270011,
			"-0.011": 1.2348562674,
			"-0.01": 1.64842350989,
			"-0.009": 1.52723490647,
			"-0.008": 2.44868291059,
			"-0.007": 2.7349550888,
			"-0.006": 4.93912314324,
			"-0.005": 9.61365806813,
			"-0.004": 13.9290803758,
			"-0.003": 41.1309583858,
			"-0.002": 43.4464044624,
			"-0.001": 38.6669492992,
			"0.0": 27.8714544953,
			"0.001": 24.7853457385,
			"0.002": 11.8384548876,
			"0.003": 6.91143523989,
			"0.004": 8.49822237937,
			"0.005": 10.8495078474,
			"0.006": 10.412241462,
			"0.007": 4.27818239843,
			"0.008": 2.45885213601,
			"0.009": 2.28225176993,
			"0.01": 2.0707529411,
			"0.011": 3.08990311799,
			"0.012": 2.47038984925,
			"0.013": 4.40425769416,
			"0.014": 3.46090139978,
			"0.015": 0.41623538071,
			"0.016": 0.0,
			"0.017": 0.0,
			"0.018": 0.0,
			"0.019": 0.0,
			"0.02": 0.0,
			"0.021": 0.0,
			"0.022": 0.0,
			"0.023": 0.0,
			"0.024": 0.0,
			"0.025": 0.0
		}
	}
}
