{
	 "smiles": "NNC1=C(Cl)C=NC=C1", 
	 "Tm": 432.15, 
	 "num_atms": 15, 
	 "gaussian": { 
		 "optdone": 1, 
		 "sigma_profile": "yes", 
		 "theory": "DFT", 
		 "functional": "B3LYP", 
		 "basiset": "6-31G**", 
		 "properties": { 
			 "R2extent": 1385.0928, 
			 "electric_dipole_moment_norm": 2.22793752605, 
			 "electric_quadrupole_moment_norm": 7.42263168425, 
			 "total_energy": -818.548810341, 
			 "HOMO_LUMO_gap": 0.21085, 
			 "cosmo_polarized_energy": -10.75, 
			 "cosmo_cavitation_energy": 20.56, 
			 "cosmo_dispersion_energy": -15.65, 
			 "cosmo_repulsion_energy": 1.27, 
			 "cosmo_total_nonelectrostatic_energy": 6.18, 
			 "SMD_solvation_energy": 2.21 
		},
		"coords": [
			{
				"x": 2.0896629834,
				"y": 1.4874794824,
				"z": -1.0315072475,
				"element": "N" 
			},
			{
				"x": 0.8869667879,
				"y": 0.8333051762,
				"z": -1.3962289996,
				"element": "N" 
			},
			{
				"x": -0.1249211524,
				"y": 0.5333093379,
				"z": -0.4947431111,
				"element": "C" 
			},
			{
				"x": 0.058086808,
				"y": 0.0134994204,
				"z": 0.8027926804,
				"element": "C" 
			},
			{
				"x": 1.6481233445,
				"y": -0.3753730767,
				"z": 1.4572020529,
				"element": "Cl" 
			},
			{
				"x": -1.0505598975,
				"y": -0.272690881,
				"z": 1.6015209835,
				"element": "C" 
			},
			{
				"x": -2.3164371162,
				"y": -0.1110775791,
				"z": 1.2129539405,
				"element": "N" 
			},
			{
				"x": -2.5016399517,
				"y": 0.3527294239,
				"z": -0.0320836306,
				"element": "C" 
			},
			{
				"x": -1.4692133757,
				"y": 0.688370679,
				"z": -0.8942094025,
				"element": "C" 
			},
			{
				"x": 2.7449278145,
				"y": 0.7934431642,
				"z": -0.6864781401,
				"element": "H" 
			},
			{
				"x": 1.917455522,
				"y": 2.1469382581,
				"z": -0.2731642451,
				"element": "H" 
			},
			{
				"x": 0.5392756157,
				"y": 1.2090370844,
				"z": -2.2687627318,
				"element": "H" 
			},
			{
				"x": -0.8853733151,
				"y": -0.6651589693,
				"z": 2.6026288809,
				"element": "H" 
			},
			{
				"x": -3.5345704732,
				"y": 0.4772166859,
				"z": -0.3510789855,
				"element": "H" 
			},
			{
				"x": -1.6886835944,
				"y": 1.0840717937,
				"z": -1.8826420445,
				"element": "H" 
			}
		],
		 "valence_orbital": [ 
			{
				"type": "occ",
				"energy": -0.33179,
				"method": "rhf"
			},
			{
				"type": "occ",
				"energy": -0.27773,
				"method": "rhf"
			},
			{
				"type": "occ",
				"energy": -0.26169,
				"method": "rhf"
			},
			{
				"type": "occ",
				"energy": -0.25966,
				"method": "rhf"
			},
			{
				"type": "occ",
				"energy": -0.2337,
				"method": "rhf"
			},
			{
				"type": "unocc",
				"energy": -0.02285,
				"method": "rhf"
			},
			{
				"type": "unocc",
				"energy": -0.02047,
				"method": "rhf"
			},
			{
				"type": "unocc",
				"energy": 0.0217,
				"method": "rhf"
			},
			{
				"type": "unocc",
				"energy": 0.08135,
				"method": "rhf"
			},
			{
				"type": "unocc",
				"energy": 0.08634,
				"method": "rhf"
			}
		],
		"cosmo_sigma_profile": { 
			"-0.025": 0.0,
			"-0.024": 0.0,
			"-0.023": 0.0,
			"-0.022": 0.0,
			"-0.021": 0.0,
			"-0.02": 0.0,
			"-0.019": 0.0,
			"-0.018": 0.0,
			"-0.017": 0.0,
			"-0.016": 0.0,
			"-0.015": 0.0,
			"-0.014": 0.411689338405,
			"-0.013": 1.59692524089,
			"-0.012": 1.33837862039,
			"-0.011": 2.64073951058,
			"-0.01": 3.35011873515,
			"-0.009": 3.65964937614,
			"-0.008": 4.54743549281,
			"-0.007": 6.16965910481,
			"-0.006": 9.11530471819,
			"-0.005": 8.30202898608,
			"-0.004": 7.31913473556,
			"-0.003": 6.94059954626,
			"-0.002": 8.56687639851,
			"-0.001": 8.84313103184,
			"0.0": 9.90719877209,
			"0.001": 15.8293912293,
			"0.002": 16.6111301668,
			"0.003": 12.0754208748,
			"0.004": 10.3860665878,
			"0.005": 6.4566331668,
			"0.006": 2.43176103532,
			"0.007": 2.83736380148,
			"0.008": 2.98001271533,
			"0.009": 3.24738749029,
			"0.01": 1.78442177229,
			"0.011": 0.815454081973,
			"0.012": 0.750014928993,
			"0.013": 1.85801069649,
			"0.014": 1.95620810215,
			"0.015": 1.4720449635,
			"0.016": 1.22518573999,
			"0.017": 0.588621027938,
			"0.018": 0.0,
			"0.019": 0.0,
			"0.02": 0.0,
			"0.021": 0.0,
			"0.022": 0.0,
			"0.023": 0.0,
			"0.024": 0.0,
			"0.025": 0.0
		}
	}
}
