{
	 "smiles": "NNC(=O)CC1=CC=C(Cl)C=C1", 
	 "Tm": 439.15, 
	 "num_atms": 21, 
	 "gaussian": { 
		 "optdone": 1, 
		 "sigma_profile": "yes", 
		 "theory": "DFT", 
		 "functional": "B3LYP", 
		 "basiset": "6-31G**", 
		 "properties": { 
			 "R2extent": 3752.2394, 
			 "electric_dipole_moment_norm": 3.05973934511, 
			 "electric_quadrupole_moment_norm": 14.0121498379, 
			 "total_energy": -955.175687456, 
			 "HOMO_LUMO_gap": 0.21628, 
			 "cosmo_polarized_energy": -14.71, 
			 "cosmo_cavitation_energy": 26.98, 
			 "cosmo_dispersion_energy": -19.46, 
			 "cosmo_repulsion_energy": 1.57, 
			 "cosmo_total_nonelectrostatic_energy": 9.09, 
			 "SMD_solvation_energy": 5.22 
		},
		"coords": [
			{
				"x": -4.3135018058,
				"y": 1.1166861184,
				"z": 0.9630332204,
				"element": "N" 
			},
			{
				"x": -4.5365127727,
				"y": -0.1967421462,
				"z": 0.5242555697,
				"element": "N" 
			},
			{
				"x": -3.6405094265,
				"y": -1.2360351772,
				"z": 0.5094852765,
				"element": "C" 
			},
			{
				"x": -3.9025704412,
				"y": -2.2884103788,
				"z": -0.0580507735,
				"element": "O" 
			},
			{
				"x": -2.2990874443,
				"y": -1.0000717975,
				"z": 1.2074176333,
				"element": "C" 
			},
			{
				"x": -1.3075382838,
				"y": -0.2988465122,
				"z": 0.2930637664,
				"element": "C" 
			},
			{
				"x": -1.0275649353,
				"y": -0.8240455748,
				"z": -0.9776314662,
				"element": "C" 
			},
			{
				"x": -0.1151471965,
				"y": -0.2010627887,
				"z": -1.8260409654,
				"element": "C" 
			},
			{
				"x": 0.5264179621,
				"y": 0.9638540508,
				"z": -1.4019532506,
				"element": "C" 
			},
			{
				"x": 1.6792243094,
				"y": 1.7546497401,
				"z": -2.4673834391,
				"element": "Cl" 
			},
			{
				"x": 0.2667127859,
				"y": 1.5084391605,
				"z": -0.1466809102,
				"element": "C" 
			},
			{
				"x": -0.6513880121,
				"y": 0.8719617263,
				"z": 0.691703032,
				"element": "C" 
			},
			{
				"x": -3.4542562529,
				"y": 1.4868556365,
				"z": 0.5643723426,
				"element": "H" 
			},
			{
				"x": -4.2525722247,
				"y": 1.1465993927,
				"z": 1.9772586806,
				"element": "H" 
			},
			{
				"x": -5.3759186853,
				"y": -0.3359135939,
				"z": -0.0239687269,
				"element": "H" 
			},
			{
				"x": -2.4258698377,
				"y": -0.4264568667,
				"z": 2.130445553,
				"element": "H" 
			},
			{
				"x": -1.9302066358,
				"y": -1.9939676424,
				"z": 1.4756190074,
				"element": "H" 
			},
			{
				"x": -1.5369868078,
				"y": -1.7267728678,
				"z": -1.3021208731,
				"element": "H" 
			},
			{
				"x": 0.0980420714,
				"y": -0.6120286317,
				"z": -2.8066901177,
				"element": "H" 
			},
			{
				"x": 0.7741493866,
				"y": 2.4125224427,
				"z": 0.1712311499,
				"element": "H" 
			},
			{
				"x": -0.8439157531,
				"y": 1.2901857098,
				"z": 1.6768352907,
				"element": "H" 
			}
		],
		 "valence_orbital": [ 
			{
				"type": "occ",
				"energy": -0.29542,
				"method": "rhf"
			},
			{
				"type": "occ",
				"energy": -0.27131,
				"method": "rhf"
			},
			{
				"type": "occ",
				"energy": -0.26221,
				"method": "rhf"
			},
			{
				"type": "occ",
				"energy": -0.25877,
				"method": "rhf"
			},
			{
				"type": "occ",
				"energy": -0.24068,
				"method": "rhf"
			},
			{
				"type": "unocc",
				"energy": -0.0244,
				"method": "rhf"
			},
			{
				"type": "unocc",
				"energy": -0.02323,
				"method": "rhf"
			},
			{
				"type": "unocc",
				"energy": 0.01779,
				"method": "rhf"
			},
			{
				"type": "unocc",
				"energy": 0.02733,
				"method": "rhf"
			},
			{
				"type": "unocc",
				"energy": 0.06186,
				"method": "rhf"
			}
		],
		"cosmo_sigma_profile": { 
			"-0.025": 0.0,
			"-0.024": 0.0,
			"-0.023": 0.0,
			"-0.022": 0.0,
			"-0.021": 0.0,
			"-0.02": 0.0,
			"-0.019": 0.0,
			"-0.018": 0.0,
			"-0.017": 0.0,
			"-0.016": 0.0,
			"-0.015": 0.0,
			"-0.014": 0.206374049251,
			"-0.013": 0.896082924368,
			"-0.012": 1.83646061454,
			"-0.011": 2.88401883077,
			"-0.01": 2.32003944535,
			"-0.009": 4.26783534985,
			"-0.008": 6.8269186205,
			"-0.007": 9.50054317952,
			"-0.006": 11.3812584813,
			"-0.005": 13.2120496303,
			"-0.004": 10.8572328733,
			"-0.003": 11.6450510212,
			"-0.002": 12.6296003311,
			"-0.001": 11.5766039287,
			"0.0": 14.159713627,
			"0.001": 14.9225847256,
			"0.002": 16.4751173635,
			"0.003": 19.9541410827,
			"0.004": 15.7953747805,
			"0.005": 9.8698337529,
			"0.006": 1.9895035513,
			"0.007": 2.0537424769,
			"0.008": 2.14478815852,
			"0.009": 1.8789771106,
			"0.01": 1.60992592645,
			"0.011": 1.94953401731,
			"0.012": 2.29378638786,
			"0.013": 4.60840077506,
			"0.014": 5.04249052291,
			"0.015": 1.13578250178,
			"0.016": 0.325454733089,
			"0.017": 0.0,
			"0.018": 0.0,
			"0.019": 0.0,
			"0.02": 0.0,
			"0.021": 0.0,
			"0.022": 0.0,
			"0.023": 0.0,
			"0.024": 0.0,
			"0.025": 0.0
		}
	}
}
