{
	 "smiles": "CS(=O)(=O)N1CCCC1C(O)=O", 
	 "Tm": 326.15, 
	 "num_atms": 23, 
	 "gaussian": { 
		 "optdone": 1, 
		 "sigma_profile": "yes", 
		 "theory": "DFT", 
		 "functional": "B3LYP", 
		 "basiset": "6-31G**", 
		 "properties": { 
			 "R2extent": 2542.5952, 
			 "electric_dipole_moment_norm": 4.26663319375, 
			 "electric_quadrupole_moment_norm": 18.4071976824, 
			 "total_energy": -989.050157489, 
			 "HOMO_LUMO_gap": 0.25714, 
			 "cosmo_polarized_energy": -17.71, 
			 "cosmo_cavitation_energy": 26.32, 
			 "cosmo_dispersion_energy": -19.69, 
			 "cosmo_repulsion_energy": 1.5, 
			 "cosmo_total_nonelectrostatic_energy": 8.14, 
			 "SMD_solvation_energy": 4.43 
		},
		"coords": [
			{
				"x": 2.5017643371,
				"y": -1.2095406495,
				"z": -2.2393599126,
				"element": "C" 
			},
			{
				"x": 1.944854097,
				"y": -1.6887049224,
				"z": -0.5990691819,
				"element": "S" 
			},
			{
				"x": 3.1179740244,
				"y": -2.080433893,
				"z": 0.1873000165,
				"element": "O" 
			},
			{
				"x": 0.8273072765,
				"y": -2.6462297665,
				"z": -0.7608519971,
				"element": "O" 
			},
			{
				"x": 1.2355000764,
				"y": -0.2726300872,
				"z": -0.0366083358,
				"element": "N" 
			},
			{
				"x": 2.1328843665,
				"y": 0.7870386569,
				"z": 0.4942234458,
				"element": "C" 
			},
			{
				"x": 1.1666868941,
				"y": 1.6752401376,
				"z": 1.2814689348,
				"element": "C" 
			},
			{
				"x": 0.2078328991,
				"y": 0.659158831,
				"z": 1.9197072015,
				"element": "C" 
			},
			{
				"x": 0.0146178633,
				"y": -0.4086809857,
				"z": 0.8340549233,
				"element": "C" 
			},
			{
				"x": -1.2376538235,
				"y": -0.1666804743,
				"z": -0.0364467936,
				"element": "C" 
			},
			{
				"x": -1.4446018928,
				"y": -1.0747537139,
				"z": -1.0016309165,
				"element": "O" 
			},
			{
				"x": -1.9841313127,
				"y": 0.7705454586,
				"z": 0.1270172617,
				"element": "O" 
			},
			{
				"x": 1.6362702424,
				"y": -0.8884970763,
				"z": -2.8187072499,
				"element": "H" 
			},
			{
				"x": 3.2369834777,
				"y": -0.4087717069,
				"z": -2.1501516443,
				"element": "H" 
			},
			{
				"x": 2.963921775,
				"y": -2.0935913496,
				"z": -2.6822987649,
				"element": "H" 
			},
			{
				"x": 2.9027087935,
				"y": 0.3544701447,
				"z": 1.1451206092,
				"element": "H" 
			},
			{
				"x": 2.6236706152,
				"y": 1.3130542791,
				"z": -0.3305247303,
				"element": "H" 
			},
			{
				"x": 1.688201259,
				"y": 2.2964822525,
				"z": 2.0138850368,
				"element": "H" 
			},
			{
				"x": 0.6148978663,
				"y": 2.3304851655,
				"z": 0.6006902583,
				"element": "H" 
			},
			{
				"x": -0.7503048378,
				"y": 1.0979008124,
				"z": 2.1998921626,
				"element": "H" 
			},
			{
				"x": 0.6662542854,
				"y": 0.2042661861,
				"z": 2.8035284675,
				"element": "H" 
			},
			{
				"x": -0.0499095014,
				"y": -1.4161593752,
				"z": 1.2575744986,
				"element": "H" 
			},
			{
				"x": -0.7526287806,
				"y": -1.7710679241,
				"z": -0.9767132894,
				"element": "H" 
			}
		],
		 "valence_orbital": [ 
			{
				"type": "occ",
				"energy": -0.33088,
				"method": "rhf"
			},
			{
				"type": "occ",
				"energy": -0.32052,
				"method": "rhf"
			},
			{
				"type": "occ",
				"energy": -0.30791,
				"method": "rhf"
			},
			{
				"type": "occ",
				"energy": -0.2929,
				"method": "rhf"
			},
			{
				"type": "occ",
				"energy": -0.25569,
				"method": "rhf"
			},
			{
				"type": "unocc",
				"energy": 0.00145,
				"method": "rhf"
			},
			{
				"type": "unocc",
				"energy": 0.04207,
				"method": "rhf"
			},
			{
				"type": "unocc",
				"energy": 0.0547,
				"method": "rhf"
			},
			{
				"type": "unocc",
				"energy": 0.06461,
				"method": "rhf"
			},
			{
				"type": "unocc",
				"energy": 0.07316,
				"method": "rhf"
			}
		],
		"cosmo_sigma_profile": { 
			"-0.025": 0.0,
			"-0.024": 0.0,
			"-0.023": 0.0,
			"-0.022": 0.0,
			"-0.021": 0.0,
			"-0.02": 0.0,
			"-0.019": 0.0,
			"-0.018": 0.0,
			"-0.017": 0.0,
			"-0.016": 0.0,
			"-0.015": 0.0,
			"-0.014": 0.0,
			"-0.013": 0.0,
			"-0.012": 0.0,
			"-0.011": 0.0,
			"-0.01": 0.736316735352,
			"-0.009": 6.69618172288,
			"-0.008": 9.05430447847,
			"-0.007": 10.9322714161,
			"-0.006": 11.3479820849,
			"-0.005": 18.9108328617,
			"-0.004": 22.8483070438,
			"-0.003": 18.4313361096,
			"-0.002": 13.4722971522,
			"-0.001": 12.4937736395,
			"0.0": 5.84240884609,
			"0.001": 6.16819785113,
			"0.002": 5.5464994794,
			"0.003": 4.46006695238,
			"0.004": 3.58599000167,
			"0.005": 5.02095868937,
			"0.006": 4.07852908743,
			"0.007": 4.33890711375,
			"0.008": 6.9756954237,
			"0.009": 6.03846078826,
			"0.01": 11.0575447816,
			"0.011": 12.6403444838,
			"0.012": 4.79280641894,
			"0.013": 1.52292329697,
			"0.014": 0.0370989861014,
			"0.015": 0.0,
			"0.016": 0.0,
			"0.017": 0.0,
			"0.018": 0.0,
			"0.019": 0.0,
			"0.02": 0.0,
			"0.021": 0.0,
			"0.022": 0.0,
			"0.023": 0.0,
			"0.024": 0.0,
			"0.025": 0.0
		}
	}
}
