{
	 "smiles": "OC(=O)C=CC1=CC=C(C=C1)S(=O)(=O)NC1CC1", 
	 "Tm": 537.15, 
	 "num_atms": 31, 
	 "gaussian": { 
		 "optdone": 1, 
		 "sigma_profile": "yes", 
		 "theory": "DFT", 
		 "functional": "B3LYP", 
		 "basiset": "6-31G**", 
		 "properties": { 
			 "R2extent": 9467.9673, 
			 "electric_dipole_moment_norm": 4.78435187356, 
			 "electric_quadrupole_moment_norm": 39.4007192531, 
			 "total_energy": -1218.83192354, 
			 "HOMO_LUMO_gap": 0.16232, 
			 "cosmo_polarized_energy": -27.51, 
			 "cosmo_cavitation_energy": 37.95, 
			 "cosmo_dispersion_energy": -27.17, 
			 "cosmo_repulsion_energy": 2.05, 
			 "cosmo_total_nonelectrostatic_energy": 12.83, 
			 "SMD_solvation_energy": 6.09 
		},
		"coords": [
			{
				"x": -6.0216891707,
				"y": -4.98185598,
				"z": 1.1065257126,
				"element": "O" 
			},
			{
				"x": -4.7722379137,
				"y": -4.8466305152,
				"z": 0.5834586338,
				"element": "C" 
			},
			{
				"x": -4.2153551595,
				"y": -5.8049882934,
				"z": 0.0984449204,
				"element": "O" 
			},
			{
				"x": -4.1829144426,
				"y": -3.4823150391,
				"z": 0.6595532328,
				"element": "C" 
			},
			{
				"x": -2.9572409222,
				"y": -3.2615016664,
				"z": 0.1524923405,
				"element": "C" 
			},
			{
				"x": -2.2048523036,
				"y": -2.0065076481,
				"z": 0.1277859875,
				"element": "C" 
			},
			{
				"x": -0.9400855113,
				"y": -1.9989400814,
				"z": -0.4861616551,
				"element": "C" 
			},
			{
				"x": -0.1725862536,
				"y": -0.8369119401,
				"z": -0.5435308619,
				"element": "C" 
			},
			{
				"x": -0.6742109181,
				"y": 0.3313562565,
				"z": 0.0260193007,
				"element": "C" 
			},
			{
				"x": -1.9334534879,
				"y": 0.3583047089,
				"z": 0.6367392822,
				"element": "C" 
			},
			{
				"x": -2.6878977826,
				"y": -0.804777575,
				"z": 0.6870895661,
				"element": "C" 
			},
			{
				"x": 0.289999778,
				"y": 1.8429967018,
				"z": -0.0695347061,
				"element": "S" 
			},
			{
				"x": -0.5987713487,
				"y": 2.9620012484,
				"z": -0.3890789647,
				"element": "O" 
			},
			{
				"x": 1.4712749715,
				"y": 1.5546896859,
				"z": -0.8961085473,
				"element": "O" 
			},
			{
				"x": 0.719567941,
				"y": 2.04274129,
				"z": 1.566807573,
				"element": "N" 
			},
			{
				"x": 1.0334023927,
				"y": 3.4056164765,
				"z": 1.9699773507,
				"element": "C" 
			},
			{
				"x": 2.2753574786,
				"y": 4.1203771425,
				"z": 1.4927179586,
				"element": "C" 
			},
			{
				"x": 2.1848299032,
				"y": 3.6148062881,
				"z": 2.9143675325,
				"element": "C" 
			},
			{
				"x": -6.3402597142,
				"y": -4.1360524335,
				"z": 1.450691852,
				"element": "H" 
			},
			{
				"x": -4.7613563498,
				"y": -2.6874147429,
				"z": 1.1257919739,
				"element": "H" 
			},
			{
				"x": -2.4679971812,
				"y": -4.1252640952,
				"z": -0.2949600535,
				"element": "H" 
			},
			{
				"x": -0.5589592534,
				"y": -2.915631388,
				"z": -0.9269196532,
				"element": "H" 
			},
			{
				"x": 0.797406048,
				"y": -0.8242966636,
				"z": -1.0279751073,
				"element": "H" 
			},
			{
				"x": -2.309989569,
				"y": 1.2831653065,
				"z": 1.0596223961,
				"element": "H" 
			},
			{
				"x": -3.6624760026,
				"y": -0.7794883651,
				"z": 1.1635997402,
				"element": "H" 
			},
			{
				"x": 1.4599029664,
				"y": 1.3818396129,
				"z": 1.794011642,
				"element": "H" 
			},
			{
				"x": 0.1389997474,
				"y": 4.0000432627,
				"z": 2.1210020439,
				"element": "H" 
			},
			{
				"x": 2.925311018,
				"y": 3.5884615535,
				"z": 0.8053922962,
				"element": "H" 
			},
			{
				"x": 2.20459158,
				"y": 5.1882911996,
				"z": 1.3122958753,
				"element": "H" 
			},
			{
				"x": 2.7872840077,
				"y": 2.7508014649,
				"z": 3.1839081829,
				"element": "H" 
			},
			{
				"x": 2.0528054523,
				"y": 4.3261842285,
				"z": 3.7233741551,
				"element": "H" 
			}
		],
		 "valence_orbital": [ 
			{
				"type": "occ",
				"energy": -0.30234,
				"method": "rhf"
			},
			{
				"type": "occ",
				"energy": -0.28412,
				"method": "rhf"
			},
			{
				"type": "occ",
				"energy": -0.27825,
				"method": "rhf"
			},
			{
				"type": "occ",
				"energy": -0.26499,
				"method": "rhf"
			},
			{
				"type": "occ",
				"energy": -0.25322,
				"method": "rhf"
			},
			{
				"type": "unocc",
				"energy": -0.0909,
				"method": "rhf"
			},
			{
				"type": "unocc",
				"energy": -0.03293,
				"method": "rhf"
			},
			{
				"type": "unocc",
				"energy": -0.01125,
				"method": "rhf"
			},
			{
				"type": "unocc",
				"energy": 0.04911,
				"method": "rhf"
			},
			{
				"type": "unocc",
				"energy": 0.05334,
				"method": "rhf"
			}
		],
		"cosmo_sigma_profile": { 
			"-0.025": 0.0,
			"-0.024": 0.0,
			"-0.023": 0.0,
			"-0.022": 0.0,
			"-0.021": 0.0,
			"-0.02": 0.0207776899782,
			"-0.019": 1.07028266839,
			"-0.018": 1.23781762404,
			"-0.017": 1.52886160111,
			"-0.016": 1.22967990433,
			"-0.015": 1.40908634745,
			"-0.014": 2.10137552379,
			"-0.013": 1.82459979803,
			"-0.012": 2.74265546145,
			"-0.011": 3.2350000775,
			"-0.01": 3.36022070692,
			"-0.009": 3.49945165523,
			"-0.008": 8.64151401001,
			"-0.007": 11.5023874228,
			"-0.006": 13.6687198152,
			"-0.005": 16.7991273012,
			"-0.004": 16.4637160535,
			"-0.003": 15.7273812707,
			"-0.002": 17.0874179248,
			"-0.001": 18.7851326346,
			"0.0": 21.3510755386,
			"0.001": 27.3420357752,
			"0.002": 22.9785035998,
			"0.003": 10.4614309089,
			"0.004": 9.38898621127,
			"0.005": 5.75927459235,
			"0.006": 6.07695122076,
			"0.007": 6.26307842655,
			"0.008": 6.66707936098,
			"0.009": 7.37364253728,
			"0.01": 12.5637123789,
			"0.011": 13.4863230077,
			"0.012": 8.21528188902,
			"0.013": 2.23014672007,
			"0.014": 0.237057190749,
			"0.015": 0.0,
			"0.016": 0.0,
			"0.017": 0.0,
			"0.018": 0.0,
			"0.019": 0.0,
			"0.02": 0.0,
			"0.021": 0.0,
			"0.022": 0.0,
			"0.023": 0.0,
			"0.024": 0.0,
			"0.025": 0.0
		}
	}
}
