{
	 "smiles": "NC1=CC=C(C=C1)S(=O)(=O)NCC1=CC=C(Cl)C=C1", 
	 "Tm": 448.15, 
	 "num_atms": 32, 
	 "gaussian": { 
		 "optdone": 1, 
		 "sigma_profile": "yes", 
		 "theory": "DFT", 
		 "functional": "B3LYP", 
		 "basiset": "6-31G**", 
		 "properties": { 
			 "R2extent": 9710.8738, 
			 "electric_dipole_moment_norm": 6.05232047483, 
			 "electric_quadrupole_moment_norm": 43.7956871104, 
			 "total_energy": -1621.48809359, 
			 "HOMO_LUMO_gap": 0.19813, 
			 "cosmo_polarized_energy": -21.31, 
			 "cosmo_cavitation_energy": 40.0, 
			 "cosmo_dispersion_energy": -28.69, 
			 "cosmo_repulsion_energy": 2.19, 
			 "cosmo_total_nonelectrostatic_energy": 13.5, 
			 "SMD_solvation_energy": 5.17 
		},
		"coords": [
			{
				"x": 4.0814846684,
				"y": -3.1925042582,
				"z": 2.0361024143,
				"element": "N" 
			},
			{
				"x": 2.9249984304,
				"y": -2.4838506564,
				"z": 2.3030151704,
				"element": "C" 
			},
			{
				"x": 1.7705461632,
				"y": -3.1410757545,
				"z": 2.7710481111,
				"element": "C" 
			},
			{
				"x": 0.6252360551,
				"y": -2.420190267,
				"z": 3.0863944835,
				"element": "C" 
			},
			{
				"x": 0.6144756327,
				"y": -1.0314262068,
				"z": 2.9333113573,
				"element": "C" 
			},
			{
				"x": 1.7553633025,
				"y": -0.3602008951,
				"z": 2.4773331703,
				"element": "C" 
			},
			{
				"x": 2.8979526602,
				"y": -1.0793816301,
				"z": 2.1631332623,
				"element": "C" 
			},
			{
				"x": -0.8436377864,
				"y": -0.1040299957,
				"z": 3.3547034427,
				"element": "S" 
			},
			{
				"x": -1.7973518468,
				"y": -1.0348372613,
				"z": 3.9753941805,
				"element": "O" 
			},
			{
				"x": -0.4647526695,
				"y": 1.1462312298,
				"z": 4.0213230528,
				"element": "O" 
			},
			{
				"x": -1.4097849798,
				"y": 0.3985754777,
				"z": 1.8302389506,
				"element": "N" 
			},
			{
				"x": -2.2475906038,
				"y": -0.5569090046,
				"z": 1.0853208024,
				"element": "C" 
			},
			{
				"x": -2.5876026685,
				"y": -0.0080886243,
				"z": -0.2841760326,
				"element": "C" 
			},
			{
				"x": -1.5907824935,
				"y": 0.5260983548,
				"z": -1.1123937073,
				"element": "C" 
			},
			{
				"x": -1.8965228092,
				"y": 1.0063349777,
				"z": -2.3838898961,
				"element": "C" 
			},
			{
				"x": -3.2168404416,
				"y": 0.949719963,
				"z": -2.8330546893,
				"element": "C" 
			},
			{
				"x": -3.6103476922,
				"y": 1.5534544819,
				"z": -4.4371283907,
				"element": "Cl" 
			},
			{
				"x": -4.2273776014,
				"y": 0.4269683722,
				"z": -2.0295658601,
				"element": "C" 
			},
			{
				"x": -3.903482396,
				"y": -0.0455701771,
				"z": -0.7564036968,
				"element": "C" 
			},
			{
				"x": 4.7698627729,
				"y": -2.74751445,
				"z": 1.4478019516,
				"element": "H" 
			},
			{
				"x": 3.9879349865,
				"y": -4.1844084677,
				"z": 1.8767203872,
				"element": "H" 
			},
			{
				"x": 1.7817252997,
				"y": -4.2205729432,
				"z": 2.8955424538,
				"element": "H" 
			},
			{
				"x": -0.2605942379,
				"y": -2.9216235382,
				"z": 3.4605563803,
				"element": "H" 
			},
			{
				"x": 1.7443254617,
				"y": 0.7202005392,
				"z": 2.3798683163,
				"element": "H" 
			},
			{
				"x": 3.7870444885,
				"y": -0.5595573673,
				"z": 1.8161954434,
				"element": "H" 
			},
			{
				"x": -1.8581256196,
				"y": 1.3035651843,
				"z": 1.9669565627,
				"element": "H" 
			},
			{
				"x": -1.6630988761,
				"y": -1.4797274872,
				"z": 0.9826305235,
				"element": "H" 
			},
			{
				"x": -3.1625365757,
				"y": -0.819130288,
				"z": 1.6305924055,
				"element": "H" 
			},
			{
				"x": -0.5685200592,
				"y": 0.5729833742,
				"z": -0.7499085034,
				"element": "H" 
			},
			{
				"x": -1.1234557889,
				"y": 1.4198137394,
				"z": -3.0222434924,
				"element": "H" 
			},
			{
				"x": -5.2495869389,
				"y": 0.3958428788,
				"z": -2.3899615384,
				"element": "H" 
			},
			{
				"x": -4.6907578369,
				"y": -0.4484893004,
				"z": -0.1246570154,
				"element": "H" 
			}
		],
		 "valence_orbital": [ 
			{
				"type": "occ",
				"energy": -0.27301,
				"method": "rhf"
			},
			{
				"type": "occ",
				"energy": -0.2689,
				"method": "rhf"
			},
			{
				"type": "occ",
				"energy": -0.2661,
				"method": "rhf"
			},
			{
				"type": "occ",
				"energy": -0.24566,
				"method": "rhf"
			},
			{
				"type": "occ",
				"energy": -0.22443,
				"method": "rhf"
			},
			{
				"type": "unocc",
				"energy": -0.0263,
				"method": "rhf"
			},
			{
				"type": "unocc",
				"energy": -0.01974,
				"method": "rhf"
			},
			{
				"type": "unocc",
				"energy": -0.01751,
				"method": "rhf"
			},
			{
				"type": "unocc",
				"energy": -0.01676,
				"method": "rhf"
			},
			{
				"type": "unocc",
				"energy": 0.02722,
				"method": "rhf"
			}
		],
		"cosmo_sigma_profile": { 
			"-0.025": 0.0,
			"-0.024": 0.0,
			"-0.023": 0.0,
			"-0.022": 0.0,
			"-0.021": 0.0,
			"-0.02": 0.0,
			"-0.019": 0.0,
			"-0.018": 0.0,
			"-0.017": 0.0,
			"-0.016": 0.0,
			"-0.015": 0.0,
			"-0.014": 1.20456158083,
			"-0.013": 3.76309731286,
			"-0.012": 3.72083776176,
			"-0.011": 4.11100379226,
			"-0.01": 4.78730527537,
			"-0.009": 3.96402325733,
			"-0.008": 3.53102284896,
			"-0.007": 12.3343884993,
			"-0.006": 17.7776505754,
			"-0.005": 19.9632422851,
			"-0.004": 18.4918194878,
			"-0.003": 16.6143724098,
			"-0.002": 16.5206394279,
			"-0.001": 15.1450314954,
			"0.0": 18.450168286,
			"0.001": 21.9155121692,
			"0.002": 23.6165932009,
			"0.003": 30.4938300326,
			"0.004": 32.6588703583,
			"0.005": 13.9825198319,
			"0.006": 3.3838472236,
			"0.007": 4.10702818925,
			"0.008": 3.66533601081,
			"0.009": 3.82459266141,
			"0.01": 5.70012535215,
			"0.011": 10.2080370211,
			"0.012": 6.87710483714,
			"0.013": 0.306678449626,
			"0.014": 0.0,
			"0.015": 0.0,
			"0.016": 0.0,
			"0.017": 0.0,
			"0.018": 0.0,
			"0.019": 0.0,
			"0.02": 0.0,
			"0.021": 0.0,
			"0.022": 0.0,
			"0.023": 0.0,
			"0.024": 0.0,
			"0.025": 0.0
		}
	}
}
