{
	 "smiles": "CCSC", 
	 "Tm": 167.15, 
	 "num_atms": 12, 
	 "gaussian": { 
		 "optdone": 1, 
		 "sigma_profile": "yes", 
		 "theory": "DFT", 
		 "functional": "B3LYP", 
		 "basiset": "6-31G**", 
		 "properties": { 
			 "R2extent": 802.9513, 
			 "electric_dipole_moment_norm": 1.74784465271, 
			 "electric_quadrupole_moment_norm": 4.0486801516, 
			 "total_energy": -517.334225422, 
			 "HOMO_LUMO_gap": 0.26276, 
			 "cosmo_polarized_energy": -4.05, 
			 "cosmo_cavitation_energy": 15.92, 
			 "cosmo_dispersion_energy": -12.39, 
			 "cosmo_repulsion_energy": 1.06, 
			 "cosmo_total_nonelectrostatic_energy": 4.6, 
			 "SMD_solvation_energy": 3.0 
		},
		"coords": [
			{
				"x": -1.045564511,
				"y": -0.9156145199,
				"z": -1.6225078008,
				"element": "C" 
			},
			{
				"x": -1.3907608882,
				"y": -0.1183724092,
				"z": -0.3651472765,
				"element": "C" 
			},
			{
				"x": -0.6295262415,
				"y": -0.7419905098,
				"z": 1.1858614496,
				"element": "S" 
			},
			{
				"x": -1.5541652543,
				"y": -2.2992927938,
				"z": 1.4213059943,
				"element": "C" 
			},
			{
				"x": -1.5089745134,
				"y": -0.4554125321,
				"z": -2.5031862867,
				"element": "H" 
			},
			{
				"x": -1.4096297128,
				"y": -1.9457483963,
				"z": -1.5604652628,
				"element": "H" 
			},
			{
				"x": 0.0360219851,
				"y": -0.9489372511,
				"z": -1.7805799063,
				"element": "H" 
			},
			{
				"x": -1.0230688215,
				"y": 0.9091681575,
				"z": -0.4495737954,
				"element": "H" 
			},
			{
				"x": -2.4751765151,
				"y": -0.0588911277,
				"z": -0.2195067776,
				"element": "H" 
			},
			{
				"x": -2.6293712861,
				"y": -2.1115516944,
				"z": 1.4926462723,
				"element": "H" 
			},
			{
				"x": -1.3562931768,
				"y": -3.0175349676,
				"z": 0.6220581095,
				"element": "H" 
			},
			{
				"x": -1.2101910646,
				"y": -2.7271219556,
				"z": 2.3655952804,
				"element": "H" 
			}
		],
		 "valence_orbital": [ 
			{
				"type": "occ",
				"energy": -0.38922,
				"method": "rhf"
			},
			{
				"type": "occ",
				"energy": -0.36587,
				"method": "rhf"
			},
			{
				"type": "occ",
				"energy": -0.34164,
				"method": "rhf"
			},
			{
				"type": "occ",
				"energy": -0.30103,
				"method": "rhf"
			},
			{
				"type": "occ",
				"energy": -0.21616,
				"method": "rhf"
			},
			{
				"type": "unocc",
				"energy": 0.0466,
				"method": "rhf"
			},
			{
				"type": "unocc",
				"energy": 0.08074,
				"method": "rhf"
			},
			{
				"type": "unocc",
				"energy": 0.09305,
				"method": "rhf"
			},
			{
				"type": "unocc",
				"energy": 0.12709,
				"method": "rhf"
			},
			{
				"type": "unocc",
				"energy": 0.12968,
				"method": "rhf"
			}
		],
		"cosmo_sigma_profile": { 
			"-0.025": 0.0,
			"-0.024": 0.0,
			"-0.023": 0.0,
			"-0.022": 0.0,
			"-0.021": 0.0,
			"-0.02": 0.0,
			"-0.019": 0.0,
			"-0.018": 0.0,
			"-0.017": 0.0,
			"-0.016": 0.0,
			"-0.015": 0.0,
			"-0.014": 0.0,
			"-0.013": 0.0,
			"-0.012": 0.0,
			"-0.011": 0.0,
			"-0.01": 0.0,
			"-0.009": 0.0,
			"-0.008": 0.0,
			"-0.007": 0.0,
			"-0.006": 1.25718162486,
			"-0.005": 7.48404058004,
			"-0.004": 13.3051474117,
			"-0.003": 15.8373966935,
			"-0.002": 17.9571314681,
			"-0.001": 18.9953828952,
			"0.0": 12.5421842411,
			"0.001": 8.21081936977,
			"0.002": 4.00873371359,
			"0.003": 3.57603288854,
			"0.004": 2.21665658296,
			"0.005": 3.02731762635,
			"0.006": 3.63552297543,
			"0.007": 3.66288114949,
			"0.008": 2.40326422855,
			"0.009": 2.43761752147,
			"0.01": 2.30827786677,
			"0.011": 2.10729106078,
			"0.012": 1.08566116348,
			"0.013": 0.000155367240896,
			"0.014": 0.0,
			"0.015": 0.0,
			"0.016": 0.0,
			"0.017": 0.0,
			"0.018": 0.0,
			"0.019": 0.0,
			"0.02": 0.0,
			"0.021": 0.0,
			"0.022": 0.0,
			"0.023": 0.0,
			"0.024": 0.0,
			"0.025": 0.0
		}
	}
}
