{
	 "smiles": "OC(=O)C1=C(C2=C(O1)C=C(Cl)C=C2)C1=CC=CC=C1", 
	 "Tm": 503.15, 
	 "num_atms": 28, 
	 "gaussian": { 
		 "optdone": 1, 
		 "sigma_profile": "yes", 
		 "theory": "DFT", 
		 "functional": "B3LYP", 
		 "basiset": "6-31G**", 
		 "properties": { 
			 "R2extent": 6669.1841, 
			 "electric_dipole_moment_norm": 3.10884430456, 
			 "electric_quadrupole_moment_norm": 18.2683614958, 
			 "total_energy": -1262.8909088, 
			 "HOMO_LUMO_gap": 0.15947, 
			 "cosmo_polarized_energy": -13.23, 
			 "cosmo_cavitation_energy": 34.78, 
			 "cosmo_dispersion_energy": -25.52, 
			 "cosmo_repulsion_energy": 1.95, 
			 "cosmo_total_nonelectrostatic_energy": 11.21, 
			 "SMD_solvation_energy": 6.71 
		},
		"coords": [
			{
				"x": 0.2685604877,
				"y": 3.9616675059,
				"z": -2.5485034137,
				"element": "O" 
			},
			{
				"x": -0.502828828,
				"y": 2.9496626759,
				"z": -2.0853294398,
				"element": "C" 
			},
			{
				"x": -1.6723836352,
				"y": 2.8653758606,
				"z": -2.3839191997,
				"element": "O" 
			},
			{
				"x": 0.1967785716,
				"y": 1.9865608627,
				"z": -1.2092398265,
				"element": "C" 
			},
			{
				"x": -0.1564801637,
				"y": 0.7834872287,
				"z": -0.6457668569,
				"element": "C" 
			},
			{
				"x": 1.0356670334,
				"y": 0.3260802361,
				"z": 0.0467827081,
				"element": "C" 
			},
			{
				"x": 2.022040879,
				"y": 1.3021657828,
				"z": -0.1688207014,
				"element": "C" 
			},
			{
				"x": 1.522016046,
				"y": 2.3129244743,
				"z": -0.9325952977,
				"element": "O" 
			},
			{
				"x": 3.3119717545,
				"y": 1.240535957,
				"z": 0.3462187045,
				"element": "C" 
			},
			{
				"x": 3.5919290829,
				"y": 0.1210883656,
				"z": 1.1237469101,
				"element": "C" 
			},
			{
				"x": 5.1957690127,
				"y": -0.0494177292,
				"z": 1.8141828135,
				"element": "Cl" 
			},
			{
				"x": 2.6333321263,
				"y": -0.8773116319,
				"z": 1.384654571,
				"element": "C" 
			},
			{
				"x": 1.3535992693,
				"y": -0.7794977364,
				"z": 0.8535308565,
				"element": "C" 
			},
			{
				"x": -1.4372936712,
				"y": 0.0534942912,
				"z": -0.6995035451,
				"element": "C" 
			},
			{
				"x": -2.6691526344,
				"y": 0.7040597546,
				"z": -0.5227837169,
				"element": "C" 
			},
			{
				"x": -3.8580026874,
				"y": -0.0218955461,
				"z": -0.5422873866,
				"element": "C" 
			},
			{
				"x": -3.8404603008,
				"y": -1.4037223507,
				"z": -0.7434392358,
				"element": "C" 
			},
			{
				"x": -2.6224488555,
				"y": -2.0595903584,
				"z": -0.9286749482,
				"element": "C" 
			},
			{
				"x": -1.4298759872,
				"y": -1.3383330222,
				"z": -0.9025170545,
				"element": "C" 
			},
			{
				"x": 1.1737170964,
				"y": 3.8654523524,
				"z": -2.2125592694,
				"element": "H" 
			},
			{
				"x": 4.0479732727,
				"y": 2.0124264318,
				"z": 0.1590771542,
				"element": "H" 
			},
			{
				"x": 2.9060912261,
				"y": -1.7193916216,
				"z": 2.0101595123,
				"element": "H" 
			},
			{
				"x": 0.6128750799,
				"y": -1.5413555535,
				"z": 1.0691917476,
				"element": "H" 
			},
			{
				"x": -2.6910304695,
				"y": 1.7773806599,
				"z": -0.3827822616,
				"element": "H" 
			},
			{
				"x": -4.802215189,
				"y": 0.4959709327,
				"z": -0.4025106486,
				"element": "H" 
			},
			{
				"x": -4.7703567155,
				"y": -1.9646505991,
				"z": -0.7608657598,
				"element": "H" 
			},
			{
				"x": -2.5990196945,
				"y": -3.1321032142,
				"z": -1.0984323166,
				"element": "H" 
			},
			{
				"x": -0.4876721067,
				"y": -1.8510640086,
				"z": -1.0697140988,
				"element": "H" 
			}
		],
		 "valence_orbital": [ 
			{
				"type": "occ",
				"energy": -0.28416,
				"method": "rhf"
			},
			{
				"type": "occ",
				"energy": -0.27142,
				"method": "rhf"
			},
			{
				"type": "occ",
				"energy": -0.25785,
				"method": "rhf"
			},
			{
				"type": "occ",
				"energy": -0.25506,
				"method": "rhf"
			},
			{
				"type": "occ",
				"energy": -0.23445,
				"method": "rhf"
			},
			{
				"type": "unocc",
				"energy": -0.07498,
				"method": "rhf"
			},
			{
				"type": "unocc",
				"energy": -0.02512,
				"method": "rhf"
			},
			{
				"type": "unocc",
				"energy": -0.01714,
				"method": "rhf"
			},
			{
				"type": "unocc",
				"energy": -0.00821,
				"method": "rhf"
			},
			{
				"type": "unocc",
				"energy": 0.01388,
				"method": "rhf"
			}
		],
		"cosmo_sigma_profile": { 
			"-0.025": 0.0,
			"-0.024": 0.0,
			"-0.023": 0.0,
			"-0.022": 0.0,
			"-0.021": 0.0,
			"-0.02": 0.0,
			"-0.019": 0.0,
			"-0.018": 0.0,
			"-0.017": 0.205473266035,
			"-0.016": 0.544151846438,
			"-0.015": 0.495707013074,
			"-0.014": 0.709288082821,
			"-0.013": 0.417843355537,
			"-0.012": 0.86187248445,
			"-0.011": 0.64979815892,
			"-0.01": 1.38031597291,
			"-0.009": 2.0713600539,
			"-0.008": 3.33755947916,
			"-0.007": 6.51560070271,
			"-0.006": 14.2682489466,
			"-0.005": 17.8399552868,
			"-0.004": 18.3779348949,
			"-0.003": 18.8380409045,
			"-0.002": 20.9097440853,
			"-0.001": 22.2774820584,
			"0.0": 25.9003759478,
			"0.001": 27.8375312192,
			"0.002": 21.4920112521,
			"0.003": 18.0641909789,
			"0.004": 19.7102526421,
			"0.005": 12.672219884,
			"0.006": 3.42625916255,
			"0.007": 3.31485458455,
			"0.008": 2.81369971435,
			"0.009": 4.13788070078,
			"0.01": 5.60479469431,
			"0.011": 4.48408155238,
			"0.012": 2.89748449773,
			"0.013": 1.03157026697,
			"0.014": 0.0,
			"0.015": 0.0,
			"0.016": 0.0,
			"0.017": 0.0,
			"0.018": 0.0,
			"0.019": 0.0,
			"0.02": 0.0,
			"0.021": 0.0,
			"0.022": 0.0,
			"0.023": 0.0,
			"0.024": 0.0,
			"0.025": 0.0
		}
	}
}
