{
	 "smiles": "COC1=CC2=C(NC(C)=C2CC(O)=O)C=C1", 
	 "Tm": 437.15, 
	 "num_atms": 29, 
	 "gaussian": { 
		 "optdone": 1, 
		 "sigma_profile": "yes", 
		 "theory": "DFT", 
		 "functional": "B3LYP", 
		 "basiset": "6-31G**", 
		 "properties": { 
			 "R2extent": 4279.3952, 
			 "electric_dipole_moment_norm": 3.4385246182, 
			 "electric_quadrupole_moment_norm": 11.1492124238, 
			 "total_energy": -745.55277982, 
			 "HOMO_LUMO_gap": 0.18474, 
			 "cosmo_polarized_energy": -16.5, 
			 "cosmo_cavitation_energy": 32.93, 
			 "cosmo_dispersion_energy": -23.26, 
			 "cosmo_repulsion_energy": 1.83, 
			 "cosmo_total_nonelectrostatic_energy": 11.5, 
			 "SMD_solvation_energy": 7.1 
		},
		"coords": [
			{
				"x": 0.7006208739,
				"y": -3.4928212082,
				"z": -0.2798686175,
				"element": "C" 
			},
			{
				"x": 0.0628410929,
				"y": -3.3893027165,
				"z": 0.9807352377,
				"element": "O" 
			},
			{
				"x": -0.4011013545,
				"y": -2.1560085874,
				"z": 1.361432317,
				"element": "C" 
			},
			{
				"x": -0.2978564909,
				"y": -1.0043030731,
				"z": 0.5864802211,
				"element": "C" 
			},
			{
				"x": -0.815397166,
				"y": 0.1981057449,
				"z": 1.1081982275,
				"element": "C" 
			},
			{
				"x": -1.4108144539,
				"y": 0.2119150466,
				"z": 2.3921778727,
				"element": "C" 
			},
			{
				"x": -1.8117537293,
				"y": 1.51267941,
				"z": 2.6428462688,
				"element": "N" 
			},
			{
				"x": -1.4953008864,
				"y": 2.3190141569,
				"z": 1.5629131218,
				"element": "C" 
			},
			{
				"x": -1.8213182416,
				"y": 3.7775383857,
				"z": 1.5903001657,
				"element": "C" 
			},
			{
				"x": -0.8871521396,
				"y": 1.5438121159,
				"z": 0.5955638149,
				"element": "C" 
			},
			{
				"x": -0.3999504328,
				"y": 1.9878816258,
				"z": -0.7584973924,
				"element": "C" 
			},
			{
				"x": 1.1131925539,
				"y": 1.9094151075,
				"z": -0.8653895931,
				"element": "C" 
			},
			{
				"x": 1.7172789582,
				"y": 3.0064317942,
				"z": -0.3483868253,
				"element": "O" 
			},
			{
				"x": 1.7396027452,
				"y": 0.9807828576,
				"z": -1.3297708648,
				"element": "O" 
			},
			{
				"x": -1.5139938092,
				"y": -0.9477591688,
				"z": 3.1676102671,
				"element": "C" 
			},
			{
				"x": -1.0077362756,
				"y": -2.1258004512,
				"z": 2.6401414022,
				"element": "C" 
			},
			{
				"x": 1.5910559971,
				"y": -2.8532725538,
				"z": -0.3395821419,
				"element": "H" 
			},
			{
				"x": 0.021874378,
				"y": -3.2280446086,
				"z": -1.1018469084,
				"element": "H" 
			},
			{
				"x": 0.9993736015,
				"y": -4.5375780845,
				"z": -0.3843082397,
				"element": "H" 
			},
			{
				"x": 0.1891987617,
				"y": -1.0058746923,
				"z": -0.380679161,
				"element": "H" 
			},
			{
				"x": -2.2723260619,
				"y": 1.8306197629,
				"z": 3.4799333126,
				"element": "H" 
			},
			{
				"x": -1.2801805314,
				"y": 4.2964986198,
				"z": 2.3914087908,
				"element": "H" 
			},
			{
				"x": -2.8928930947,
				"y": 3.9500659548,
				"z": 1.7513251624,
				"element": "H" 
			},
			{
				"x": -1.5452827527,
				"y": 4.2563105768,
				"z": 0.6490307505,
				"element": "H" 
			},
			{
				"x": -0.7144338241,
				"y": 3.0147345644,
				"z": -0.9635740711,
				"element": "H" 
			},
			{
				"x": -0.8043488828,
				"y": 1.34119066,
				"z": -1.543881999,
				"element": "H" 
			},
			{
				"x": 2.6731428673,
				"y": 2.8435506176,
				"z": -0.4181046533,
				"element": "H" 
			},
			{
				"x": -1.973301591,
				"y": -0.934903404,
				"z": 4.1521507478,
				"element": "H" 
			},
			{
				"x": -1.0588401112,
				"y": -3.0543784531,
				"z": 3.198642787,
				"element": "H" 
			}
		],
		 "valence_orbital": [ 
			{
				"type": "occ",
				"energy": -0.28343,
				"method": "rhf"
			},
			{
				"type": "occ",
				"energy": -0.27658,
				"method": "rhf"
			},
			{
				"type": "occ",
				"energy": -0.26089,
				"method": "rhf"
			},
			{
				"type": "occ",
				"energy": -0.1952,
				"method": "rhf"
			},
			{
				"type": "occ",
				"energy": -0.18952,
				"method": "rhf"
			},
			{
				"type": "unocc",
				"energy": -0.00478,
				"method": "rhf"
			},
			{
				"type": "unocc",
				"energy": 0.01447,
				"method": "rhf"
			},
			{
				"type": "unocc",
				"energy": 0.04464,
				"method": "rhf"
			},
			{
				"type": "unocc",
				"energy": 0.07214,
				"method": "rhf"
			},
			{
				"type": "unocc",
				"energy": 0.07852,
				"method": "rhf"
			}
		],
		"cosmo_sigma_profile": { 
			"-0.025": 0.0,
			"-0.024": 0.0,
			"-0.023": 0.0,
			"-0.022": 0.0,
			"-0.021": 0.0,
			"-0.02": 0.0,
			"-0.019": 0.0173168008875,
			"-0.018": 0.558798746335,
			"-0.017": 1.16040718969,
			"-0.016": 0.51012616825,
			"-0.015": 2.06149298343,
			"-0.014": 2.00411858418,
			"-0.013": 1.81724101314,
			"-0.012": 1.66618591268,
			"-0.011": 1.78878371257,
			"-0.01": 2.11332344795,
			"-0.009": 1.74291420998,
			"-0.008": 2.26438125638,
			"-0.007": 4.2638803216,
			"-0.006": 8.40286253499,
			"-0.005": 17.2783053945,
			"-0.004": 22.7414782526,
			"-0.003": 24.9447379186,
			"-0.002": 21.9473277676,
			"-0.001": 16.9354865544,
			"0.0": 13.0105955422,
			"0.001": 10.3689033198,
			"0.002": 10.9516375116,
			"0.003": 10.9406735182,
			"0.004": 11.575850716,
			"0.005": 20.3798987207,
			"0.006": 18.4729623209,
			"0.007": 8.9747019714,
			"0.008": 4.59399319759,
			"0.009": 4.61355009771,
			"0.01": 3.83481589583,
			"0.011": 4.3191979316,
			"0.012": 4.12318633288,
			"0.013": 0.374830205819,
			"0.014": 0.0,
			"0.015": 0.0,
			"0.016": 0.0,
			"0.017": 0.0,
			"0.018": 0.0,
			"0.019": 0.0,
			"0.02": 0.0,
			"0.021": 0.0,
			"0.022": 0.0,
			"0.023": 0.0,
			"0.024": 0.0,
			"0.025": 0.0
		}
	}
}
