{
	 "smiles": "[O-][N+](=O)C1=C(F)C=C(F)C(=C1)S(Cl)(=O)=O", 
	 "Tm": 320.15, 
	 "num_atms": 17, 
	 "gaussian": { 
		 "optdone": 1, 
		 "sigma_profile": "yes", 
		 "theory": "DFT", 
		 "functional": "B3LYP", 
		 "basiset": "6-31G**", 
		 "properties": { 
			 "R2extent": 4123.6032, 
			 "electric_dipole_moment_norm": 3.75383079533, 
			 "electric_quadrupole_moment_norm": 16.3460779797, 
			 "total_energy": -1643.34149311, 
			 "HOMO_LUMO_gap": 0.19583, 
			 "cosmo_polarized_energy": -12.73, 
			 "cosmo_cavitation_energy": 27.54, 
			 "cosmo_dispersion_energy": -20.35, 
			 "cosmo_repulsion_energy": 1.51, 
			 "cosmo_total_nonelectrostatic_energy": 8.7, 
			 "SMD_solvation_energy": 6.63 
		},
		"coords": [
			{
				"x": -2.4223210527,
				"y": 3.0002164346,
				"z": -0.9190438875,
				"element": "O" 
			},
			{
				"x": -1.9949427417,
				"y": 3.051344479,
				"z": 0.2323146274,
				"element": "N" 
			},
			{
				"x": -2.2222978682,
				"y": 3.9473676057,
				"z": 1.037171209,
				"element": "O" 
			},
			{
				"x": -1.1406052515,
				"y": 1.935235169,
				"z": 0.6709596856,
				"element": "C" 
			},
			{
				"x": -0.5617892496,
				"y": 1.8806394528,
				"z": 1.9510861888,
				"element": "C" 
			},
			{
				"x": -0.74536653,
				"y": 2.8340383811,
				"z": 2.851880773,
				"element": "F" 
			},
			{
				"x": 0.2374892465,
				"y": 0.8009476881,
				"z": 2.3194277247,
				"element": "C" 
			},
			{
				"x": 0.4606522144,
				"y": -0.2194034667,
				"z": 1.4082011269,
				"element": "C" 
			},
			{
				"x": 1.2118319808,
				"y": -1.2536561781,
				"z": 1.7697706553,
				"element": "F" 
			},
			{
				"x": -0.108116124,
				"y": -0.1745700222,
				"z": 0.1275067294,
				"element": "C" 
			},
			{
				"x": -0.9079423813,
				"y": 0.9019195803,
				"z": -0.23440837,
				"element": "C" 
			},
			{
				"x": 0.2179730717,
				"y": -1.4455948705,
				"z": -1.0903260026,
				"element": "S" 
			},
			{
				"x": -0.8444031558,
				"y": -3.0745734397,
				"z": -0.2609246813,
				"element": "Cl" 
			},
			{
				"x": -0.4707767921,
				"y": -1.0722576018,
				"z": -2.3171644281,
				"element": "O" 
			},
			{
				"x": 1.6281354865,
				"y": -1.7977492141,
				"z": -1.0601539241,
				"element": "O" 
			},
			{
				"x": 0.6774838,
				"y": 0.7635563534,
				"z": 3.3085944177,
				"element": "H" 
			},
			{
				"x": -1.3566046528,
				"y": 0.9537396489,
				"z": -1.2191918442,
				"element": "H" 
			}
		],
		 "valence_orbital": [ 
			{
				"type": "occ",
				"energy": -0.33335,
				"method": "rhf"
			},
			{
				"type": "occ",
				"energy": -0.33292,
				"method": "rhf"
			},
			{
				"type": "occ",
				"energy": -0.32376,
				"method": "rhf"
			},
			{
				"type": "occ",
				"energy": -0.31731,
				"method": "rhf"
			},
			{
				"type": "occ",
				"energy": -0.31504,
				"method": "rhf"
			},
			{
				"type": "unocc",
				"energy": -0.11921,
				"method": "rhf"
			},
			{
				"type": "unocc",
				"energy": -0.10756,
				"method": "rhf"
			},
			{
				"type": "unocc",
				"energy": -0.076,
				"method": "rhf"
			},
			{
				"type": "unocc",
				"energy": -0.04211,
				"method": "rhf"
			},
			{
				"type": "unocc",
				"energy": 0.01445,
				"method": "rhf"
			}
		],
		"cosmo_sigma_profile": { 
			"-0.025": 0.0,
			"-0.024": 0.0,
			"-0.023": 0.0,
			"-0.022": 0.0,
			"-0.021": 0.0,
			"-0.02": 0.0,
			"-0.019": 0.0,
			"-0.018": 0.0,
			"-0.017": 0.0,
			"-0.016": 0.0,
			"-0.015": 0.0,
			"-0.014": 0.0,
			"-0.013": 0.0,
			"-0.012": 0.459104182947,
			"-0.011": 2.01549021766,
			"-0.01": 1.58139113038,
			"-0.009": 3.31468592827,
			"-0.008": 4.78902231613,
			"-0.007": 9.19134427398,
			"-0.006": 14.1274585843,
			"-0.005": 20.3131495407,
			"-0.004": 15.1566287143,
			"-0.003": 10.5964298229,
			"-0.002": 8.84563549783,
			"-0.001": 9.30833185113,
			"0.0": 11.8229164089,
			"0.001": 22.4177971206,
			"0.002": 21.8399578817,
			"0.003": 10.658654688,
			"0.004": 7.23997543564,
			"0.005": 7.83787656387,
			"0.006": 12.7381124547,
			"0.007": 18.5501703668,
			"0.008": 10.4411669311,
			"0.009": 2.60422923975,
			"0.01": 0.0951894793668,
			"0.011": 0.0,
			"0.012": 0.0,
			"0.013": 0.0,
			"0.014": 0.0,
			"0.015": 0.0,
			"0.016": 0.0,
			"0.017": 0.0,
			"0.018": 0.0,
			"0.019": 0.0,
			"0.02": 0.0,
			"0.021": 0.0,
			"0.022": 0.0,
			"0.023": 0.0,
			"0.024": 0.0,
			"0.025": 0.0
		}
	}
}
