{
	 "smiles": "OC(C1=CN(N=C1)C1=CC=CC=C1)C(F)(F)F", 
	 "Tm": 351.15, 
	 "num_atms": 26, 
	 "gaussian": { 
		 "optdone": 1, 
		 "sigma_profile": "yes", 
		 "theory": "DFT", 
		 "functional": "B3LYP", 
		 "basiset": "6-31G**", 
		 "properties": { 
			 "R2extent": 7226.5513, 
			 "electric_dipole_moment_norm": 2.72631092871, 
			 "electric_quadrupole_moment_norm": 5.47592769036, 
			 "total_energy": -908.817969006, 
			 "HOMO_LUMO_gap": 0.20033, 
			 "cosmo_polarized_energy": -11.21, 
			 "cosmo_cavitation_energy": 31.89, 
			 "cosmo_dispersion_energy": -22.77, 
			 "cosmo_repulsion_energy": 1.68, 
			 "cosmo_total_nonelectrostatic_energy": 10.79, 
			 "SMD_solvation_energy": 6.03 
		},
		"coords": [
			{
				"x": 3.4588625739,
				"y": -2.8243352574,
				"z": -2.012627645,
				"element": "O" 
			},
			{
				"x": 3.9118238646,
				"y": -1.6020120245,
				"z": -1.4602136825,
				"element": "C" 
			},
			{
				"x": 2.771237677,
				"y": -0.7380983391,
				"z": -0.9881981584,
				"element": "C" 
			},
			{
				"x": 1.5005133517,
				"y": -1.2043840415,
				"z": -0.7126170621,
				"element": "C" 
			},
			{
				"x": 0.7651500969,
				"y": -0.1392077846,
				"z": -0.2804122462,
				"element": "N" 
			},
			{
				"x": 1.4976184019,
				"y": 1.0035597621,
				"z": -0.2632376059,
				"element": "N" 
			},
			{
				"x": 2.7051534553,
				"y": 0.6467375932,
				"z": -0.6831362449,
				"element": "C" 
			},
			{
				"x": -0.6031331418,
				"y": -0.1173208105,
				"z": 0.1043429743,
				"element": "C" 
			},
			{
				"x": -1.2449910882,
				"y": -1.2953248286,
				"z": 0.5016642547,
				"element": "C" 
			},
			{
				"x": -2.5930348142,
				"y": -1.2583101705,
				"z": 0.8570772919,
				"element": "C" 
			},
			{
				"x": -3.2984788958,
				"y": -0.0545159237,
				"z": 0.8350085676,
				"element": "C" 
			},
			{
				"x": -2.6439164947,
				"y": 1.1187580733,
				"z": 0.452834764,
				"element": "C" 
			},
			{
				"x": -1.301014927,
				"y": 1.0951771808,
				"z": 0.083036047,
				"element": "C" 
			},
			{
				"x": 4.8113142062,
				"y": -0.8960058706,
				"z": -2.4809416819,
				"element": "C" 
			},
			{
				"x": 5.2960262967,
				"y": 0.2700519645,
				"z": -1.9982011117,
				"element": "F" 
			},
			{
				"x": 4.1258691141,
				"y": -0.6241607461,
				"z": -3.6153476006,
				"element": "F" 
			},
			{
				"x": 5.8614023822,
				"y": -1.6640921191,
				"z": -2.8138955716,
				"element": "F" 
			},
			{
				"x": 2.9153736447,
				"y": -2.6006698743,
				"z": -2.7827382118,
				"element": "H" 
			},
			{
				"x": 4.5650043131,
				"y": -1.8795404226,
				"z": -0.6244074649,
				"element": "H" 
			},
			{
				"x": 1.087240203,
				"y": -2.1950683662,
				"z": -0.8105992778,
				"element": "H" 
			},
			{
				"x": 3.4859737743,
				"y": 1.3890650029,
				"z": -0.7588791081,
				"element": "H" 
			},
			{
				"x": -0.6973954059,
				"y": -2.2300606839,
				"z": 0.5559189231,
				"element": "H" 
			},
			{
				"x": -3.0864928077,
				"y": -2.1753761576,
				"z": 1.1648630266,
				"element": "H" 
			},
			{
				"x": -4.3463165938,
				"y": -0.0299601183,
				"z": 1.1178799297,
				"element": "H" 
			},
			{
				"x": -3.1824812109,
				"y": 2.0616566328,
				"z": 0.4353290507,
				"element": "H" 
			},
			{
				"x": -0.7800079755,
				"y": 1.9954373295,
				"z": -0.2182021562,
				"element": "H" 
			}
		],
		 "valence_orbital": [ 
			{
				"type": "occ",
				"energy": -0.29576,
				"method": "rhf"
			},
			{
				"type": "occ",
				"energy": -0.28887,
				"method": "rhf"
			},
			{
				"type": "occ",
				"energy": -0.26335,
				"method": "rhf"
			},
			{
				"type": "occ",
				"energy": -0.25735,
				"method": "rhf"
			},
			{
				"type": "occ",
				"energy": -0.2313,
				"method": "rhf"
			},
			{
				"type": "unocc",
				"energy": -0.03097,
				"method": "rhf"
			},
			{
				"type": "unocc",
				"energy": -0.01285,
				"method": "rhf"
			},
			{
				"type": "unocc",
				"energy": 0.03077,
				"method": "rhf"
			},
			{
				"type": "unocc",
				"energy": 0.04385,
				"method": "rhf"
			},
			{
				"type": "unocc",
				"energy": 0.07266,
				"method": "rhf"
			}
		],
		"cosmo_sigma_profile": { 
			"-0.025": 0.0,
			"-0.024": 0.0,
			"-0.023": 0.0,
			"-0.022": 0.0,
			"-0.021": 0.0,
			"-0.02": 0.0,
			"-0.019": 0.0,
			"-0.018": 0.0,
			"-0.017": 0.0,
			"-0.016": 0.429793344502,
			"-0.015": 0.848279876569,
			"-0.014": 0.426649981245,
			"-0.013": 0.940813190822,
			"-0.012": 0.800089597077,
			"-0.011": 0.970754281405,
			"-0.01": 1.67547864892,
			"-0.009": 4.78270073612,
			"-0.008": 5.6351112289,
			"-0.007": 6.52749081284,
			"-0.006": 11.7660236784,
			"-0.005": 15.1245556154,
			"-0.004": 14.6711237927,
			"-0.003": 12.721890211,
			"-0.002": 13.7008215133,
			"-0.001": 13.5146292809,
			"0.0": 16.3583686648,
			"0.001": 20.5199000861,
			"0.002": 35.8946224436,
			"0.003": 31.2145761423,
			"0.004": 14.9912184128,
			"0.005": 11.0648142621,
			"0.006": 3.52914589066,
			"0.007": 3.6203090687,
			"0.008": 3.02477928819,
			"0.009": 2.62225700231,
			"0.01": 1.5836770023,
			"0.011": 2.73564914958,
			"0.012": 2.76931154351,
			"0.013": 0.997705713337,
			"0.014": 0.180741372425,
			"0.015": 0.0,
			"0.016": 0.0,
			"0.017": 0.0,
			"0.018": 0.0,
			"0.019": 0.0,
			"0.02": 0.0,
			"0.021": 0.0,
			"0.022": 0.0,
			"0.023": 0.0,
			"0.024": 0.0,
			"0.025": 0.0
		}
	}
}
