{
	 "smiles": "CC(C)(C)C1=CC(CC#N)=CC(=C1O)C(C)(C)C", 
	 "Tm": 384.15, 
	 "num_atms": 41, 
	 "gaussian": { 
		 "optdone": 1, 
		 "sigma_profile": "yes", 
		 "theory": "DFT", 
		 "functional": "B3LYP", 
		 "basiset": "6-31G**", 
		 "properties": { 
			 "R2extent": 5700.6016, 
			 "electric_dipole_moment_norm": 3.23845381162, 
			 "electric_quadrupole_moment_norm": 23.6436089014, 
			 "total_energy": -753.541861072, 
			 "HOMO_LUMO_gap": 0.21311, 
			 "cosmo_polarized_energy": -11.55, 
			 "cosmo_cavitation_energy": 40.46, 
			 "cosmo_dispersion_energy": -27.2, 
			 "cosmo_repulsion_energy": 2.09, 
			 "cosmo_total_nonelectrostatic_energy": 15.36, 
			 "SMD_solvation_energy": 8.53 
		},
		"coords": [
			{
				"x": 2.5696642211,
				"y": 3.2534898582,
				"z": -1.8716250867,
				"element": "C" 
			},
			{
				"x": 2.4788186229,
				"y": 1.8418942189,
				"z": -1.254396847,
				"element": "C" 
			},
			{
				"x": 3.6069762364,
				"y": 1.7329041701,
				"z": -0.1982316303,
				"element": "C" 
			},
			{
				"x": 2.7205182306,
				"y": 0.8273785636,
				"z": -2.4000265059,
				"element": "C" 
			},
			{
				"x": 1.1016797213,
				"y": 1.5902006267,
				"z": -0.5970565201,
				"element": "C" 
			},
			{
				"x": 0.1110174437,
				"y": 2.5763293676,
				"z": -0.5966354212,
				"element": "C" 
			},
			{
				"x": -1.1387588088,
				"y": 2.3784667728,
				"z": -0.010112788,
				"element": "C" 
			},
			{
				"x": -2.186346705,
				"y": 3.4830499873,
				"z": -0.0978358579,
				"element": "C" 
			},
			{
				"x": -3.1235248321,
				"y": 3.5123987476,
				"z": 1.0297268398,
				"element": "C" 
			},
			{
				"x": -3.8712022512,
				"y": 3.5203472159,
				"z": 1.9175647604,
				"element": "N" 
			},
			{
				"x": -1.4116036588,
				"y": 1.1591350818,
				"z": 0.6024842063,
				"element": "C" 
			},
			{
				"x": -0.4694430571,
				"y": 0.1236662234,
				"z": 0.6475457891,
				"element": "C" 
			},
			{
				"x": 0.7849396684,
				"y": 0.3632517347,
				"z": 0.035713573,
				"element": "C" 
			},
			{
				"x": 1.775276343,
				"y": -0.5904117089,
				"z": 0.0276470221,
				"element": "O" 
			},
			{
				"x": -0.807431738,
				"y": -1.2165897756,
				"z": 1.3490310381,
				"element": "C" 
			},
			{
				"x": 0.1460753653,
				"y": -1.463131614,
				"z": 2.5503334482,
				"element": "C" 
			},
			{
				"x": -0.7542028982,
				"y": -2.3956196792,
				"z": 0.3390632519,
				"element": "C" 
			},
			{
				"x": -2.237078727,
				"y": -1.2177000518,
				"z": 1.9319640739,
				"element": "C" 
			},
			{
				"x": 2.4489420532,
				"y": 4.0422533636,
				"z": -1.1215078023,
				"element": "H" 
			},
			{
				"x": 1.8262951753,
				"y": 3.4092161375,
				"z": -2.6607310566,
				"element": "H" 
			},
			{
				"x": 3.5578332677,
				"y": 3.3824174555,
				"z": -2.3242472816,
				"element": "H" 
			},
			{
				"x": 4.5769080853,
				"y": 1.9311516522,
				"z": -0.6687049102,
				"element": "H" 
			},
			{
				"x": 3.4632310236,
				"y": 2.4725610465,
				"z": 0.5969870918,
				"element": "H" 
			},
			{
				"x": 3.6432806337,
				"y": 0.7427922924,
				"z": 0.2560258286,
				"element": "H" 
			},
			{
				"x": 2.718322978,
				"y": -0.2010270032,
				"z": -2.0388891894,
				"element": "H" 
			},
			{
				"x": 1.9476034647,
				"y": 0.9244031269,
				"z": -3.1704132156,
				"element": "H" 
			},
			{
				"x": 3.6900428752,
				"y": 1.0239933242,
				"z": -2.8719859121,
				"element": "H" 
			},
			{
				"x": 0.3136150145,
				"y": 3.5321065299,
				"z": -1.0652738756,
				"element": "H" 
			},
			{
				"x": -2.7813265892,
				"y": 3.3835461741,
				"z": -1.0167603832,
				"element": "H" 
			},
			{
				"x": -1.696794974,
				"y": 4.4619384363,
				"z": -0.1568900391,
				"element": "H" 
			},
			{
				"x": -2.3803468159,
				"y": 1.0222621454,
				"z": 1.0657510934,
				"element": "H" 
			},
			{
				"x": 1.4728306678,
				"y": -1.3764238032,
				"z": 0.4922002717,
				"element": "H" 
			},
			{
				"x": 1.2090319009,
				"y": -1.4924893947,
				"z": 2.2903888851,
				"element": "H" 
			},
			{
				"x": 0.0299829324,
				"y": -0.6659677508,
				"z": 3.2907377416,
				"element": "H" 
			},
			{
				"x": -0.096246766,
				"y": -2.4150884779,
				"z": 3.0347570923,
				"element": "H" 
			},
			{
				"x": -0.9887026602,
				"y": -3.3373734065,
				"z": 0.846708422,
				"element": "H" 
			},
			{
				"x": 0.211764423,
				"y": -2.5264095798,
				"z": -0.1586337922,
				"element": "H" 
			},
			{
				"x": -1.4932726883,
				"y": -2.2444437647,
				"z": -0.4536484381,
				"element": "H" 
			},
			{
				"x": -2.9965060107,
				"y": -1.0847826431,
				"z": 1.1555635348,
				"element": "H" 
			},
			{
				"x": -2.3745081872,
				"y": -0.4370335568,
				"z": 2.685818925,
				"element": "H" 
			},
			{
				"x": -2.4273529804,
				"y": -2.1807620428,
				"z": 2.4161936641,
				"element": "H" 
			}
		],
		 "valence_orbital": [ 
			{
				"type": "occ",
				"energy": -0.31633,
				"method": "rhf"
			},
			{
				"type": "occ",
				"energy": -0.31391,
				"method": "rhf"
			},
			{
				"type": "occ",
				"energy": -0.30732,
				"method": "rhf"
			},
			{
				"type": "occ",
				"energy": -0.24565,
				"method": "rhf"
			},
			{
				"type": "occ",
				"energy": -0.21888,
				"method": "rhf"
			},
			{
				"type": "unocc",
				"energy": -0.00577,
				"method": "rhf"
			},
			{
				"type": "unocc",
				"energy": 0.00157,
				"method": "rhf"
			},
			{
				"type": "unocc",
				"energy": 0.03575,
				"method": "rhf"
			},
			{
				"type": "unocc",
				"energy": 0.04562,
				"method": "rhf"
			},
			{
				"type": "unocc",
				"energy": 0.05859,
				"method": "rhf"
			}
		],
		"cosmo_sigma_profile": { 
			"-0.025": 0.0,
			"-0.024": 0.0,
			"-0.023": 0.0,
			"-0.022": 0.0,
			"-0.021": 0.0,
			"-0.02": 0.0,
			"-0.019": 0.0,
			"-0.018": 0.0,
			"-0.017": 0.0,
			"-0.016": 0.0,
			"-0.015": 0.0623238604613,
			"-0.014": 0.332500295071,
			"-0.013": 0.883382481574,
			"-0.012": 0.623432418321,
			"-0.011": 0.65680208899,
			"-0.01": 0.724616113121,
			"-0.009": 1.53297142721,
			"-0.008": 6.80940636243,
			"-0.007": 6.27473153856,
			"-0.006": 6.5129552224,
			"-0.005": 7.9149998801,
			"-0.004": 11.2487251384,
			"-0.003": 33.9200680089,
			"-0.002": 37.5517304719,
			"-0.001": 36.4796267157,
			"0.0": 37.0962243275,
			"0.001": 37.805952412,
			"0.002": 23.804433002,
			"0.003": 12.9603291377,
			"0.004": 12.9478870172,
			"0.005": 12.0466142987,
			"0.006": 7.41877802564,
			"0.007": 3.18387066976,
			"0.008": 2.94470243567,
			"0.009": 3.22421324726,
			"0.01": 3.34113829003,
			"0.011": 2.93910777935,
			"0.012": 2.66345263533,
			"0.013": 1.98756429478,
			"0.014": 0.429665549039,
			"0.015": 0.0,
			"0.016": 0.0,
			"0.017": 0.0,
			"0.018": 0.0,
			"0.019": 0.0,
			"0.02": 0.0,
			"0.021": 0.0,
			"0.022": 0.0,
			"0.023": 0.0,
			"0.024": 0.0,
			"0.025": 0.0
		}
	}
}
