{
	 "smiles": "NC(=O)C1=C2N=CC=CC2=CC=C1", 
	 "Tm": 442.15, 
	 "num_atms": 21, 
	 "gaussian": { 
		 "optdone": 1, 
		 "sigma_profile": "yes", 
		 "theory": "DFT", 
		 "functional": "B3LYP", 
		 "basiset": "6-31G**", 
		 "properties": { 
			 "R2extent": 2769.4075, 
			 "electric_dipole_moment_norm": 5.05411171424, 
			 "electric_quadrupole_moment_norm": 16.118197715, 
			 "total_energy": -570.642817414, 
			 "HOMO_LUMO_gap": 0.16818, 
			 "cosmo_polarized_energy": -12.63, 
			 "cosmo_cavitation_energy": 24.85, 
			 "cosmo_dispersion_energy": -18.92, 
			 "cosmo_repulsion_energy": 1.47, 
			 "cosmo_total_nonelectrostatic_energy": 7.4, 
			 "SMD_solvation_energy": 4.26 
		},
		"coords": [
			{
				"x": -1.9974933797,
				"y": -2.8591504235,
				"z": 1.0559869784,
				"element": "N" 
			},
			{
				"x": -1.9073206304,
				"y": -1.9331031414,
				"z": 2.0396503076,
				"element": "C" 
			},
			{
				"x": -2.2109281282,
				"y": -2.1691552291,
				"z": 3.2079448144,
				"element": "O" 
			},
			{
				"x": -1.4071953001,
				"y": -0.5516863528,
				"z": 1.6442575184,
				"element": "C" 
			},
			{
				"x": -1.0189144245,
				"y": -0.1296909257,
				"z": 0.3276007709,
				"element": "C" 
			},
			{
				"x": -1.077297991,
				"y": -0.999378494,
				"z": -0.7266311121,
				"element": "N" 
			},
			{
				"x": -0.7150449023,
				"y": -0.5873411309,
				"z": -1.9257386133,
				"element": "C" 
			},
			{
				"x": -0.2596641017,
				"y": 0.7205094664,
				"z": -2.20675023,
				"element": "C" 
			},
			{
				"x": -0.189373185,
				"y": 1.6189732682,
				"z": -1.1691034052,
				"element": "C" 
			},
			{
				"x": -0.5685993363,
				"y": 1.2207513443,
				"z": 0.1376291988,
				"element": "C" 
			},
			{
				"x": -0.5128332792,
				"y": 2.112770541,
				"z": 1.2389673797,
				"element": "C" 
			},
			{
				"x": -0.8897035846,
				"y": 1.6865387852,
				"z": 2.4907466064,
				"element": "C" 
			},
			{
				"x": -1.3326985758,
				"y": 0.3605927659,
				"z": 2.6818550461,
				"element": "C" 
			},
			{
				"x": -1.7336722814,
				"y": -2.6101949336,
				"z": 0.1066053749,
				"element": "H" 
			},
			{
				"x": -2.3292803045,
				"y": -3.7752180229,
				"z": 1.3147305192,
				"element": "H" 
			},
			{
				"x": -0.7815438956,
				"y": -1.3212691372,
				"z": -2.727540545,
				"element": "H" 
			},
			{
				"x": 0.0228925789,
				"y": 0.9927424905,
				"z": -3.2182061373,
				"element": "H" 
			},
			{
				"x": 0.154140147,
				"y": 2.6375184146,
				"z": -1.331789332,
				"element": "H" 
			},
			{
				"x": -0.1690736142,
				"y": 3.1306185823,
				"z": 1.0734380225,
				"element": "H" 
			},
			{
				"x": -0.8490857386,
				"y": 2.3649780712,
				"z": 3.3375128032,
				"element": "H" 
			},
			{
				"x": -1.6330100728,
				"y": 0.0104940616,
				"z": 3.6636340345,
				"element": "H" 
			}
		],
		 "valence_orbital": [ 
			{
				"type": "occ",
				"energy": -0.27314,
				"method": "rhf"
			},
			{
				"type": "occ",
				"energy": -0.26317,
				"method": "rhf"
			},
			{
				"type": "occ",
				"energy": -0.2484,
				"method": "rhf"
			},
			{
				"type": "occ",
				"energy": -0.23988,
				"method": "rhf"
			},
			{
				"type": "occ",
				"energy": -0.2391,
				"method": "rhf"
			},
			{
				"type": "unocc",
				"energy": -0.07092,
				"method": "rhf"
			},
			{
				"type": "unocc",
				"energy": -0.02674,
				"method": "rhf"
			},
			{
				"type": "unocc",
				"energy": -0.00892,
				"method": "rhf"
			},
			{
				"type": "unocc",
				"energy": 0.06228,
				"method": "rhf"
			},
			{
				"type": "unocc",
				"energy": 0.08476,
				"method": "rhf"
			}
		],
		"cosmo_sigma_profile": { 
			"-0.025": 0.0,
			"-0.024": 0.0,
			"-0.023": 0.0,
			"-0.022": 0.0,
			"-0.021": 0.0,
			"-0.02": 0.0,
			"-0.019": 0.0,
			"-0.018": 0.0,
			"-0.017": 0.0,
			"-0.016": 0.0,
			"-0.015": 0.0,
			"-0.014": 0.171917532952,
			"-0.013": 0.901388618013,
			"-0.012": 0.924078516532,
			"-0.011": 1.40547211676,
			"-0.01": 0.915973256126,
			"-0.009": 0.579334828397,
			"-0.008": 3.37760777674,
			"-0.007": 12.0726582257,
			"-0.006": 13.8663097811,
			"-0.005": 12.8429655712,
			"-0.004": 10.9187123706,
			"-0.003": 8.72655503828,
			"-0.002": 9.60664021452,
			"-0.001": 7.99355155661,
			"0.0": 16.9088906975,
			"0.001": 26.1434857447,
			"0.002": 22.7256042363,
			"0.003": 16.6259027383,
			"0.004": 7.50786851489,
			"0.005": 4.72002471571,
			"0.006": 2.32527838325,
			"0.007": 1.72538509068,
			"0.008": 0.997302346655,
			"0.009": 1.69385563984,
			"0.01": 1.32367837793,
			"0.011": 1.57439343948,
			"0.012": 1.51283371278,
			"0.013": 2.21469336251,
			"0.014": 5.53779970519,
			"0.015": 2.08680367312,
			"0.016": 0.0274617636686,
			"0.017": 0.0,
			"0.018": 0.0,
			"0.019": 0.0,
			"0.02": 0.0,
			"0.021": 0.0,
			"0.022": 0.0,
			"0.023": 0.0,
			"0.024": 0.0,
			"0.025": 0.0
		}
	}
}
