{
	 "smiles": "CC1=NN(CC2=CC=CC(=C2)C(O)=O)C(C)=C1Br", 
	 "Tm": 498.15, 
	 "num_atms": 31, 
	 "gaussian": { 
		 "optdone": 1, 
		 "sigma_profile": "yes", 
		 "theory": "DFT", 
		 "functional": "B3LYP", 
		 "basiset": "6-31G**", 
		 "properties": { 
			 "R2extent": 8308.7388, 
			 "electric_dipole_moment_norm": 5.43917063163, 
			 "electric_quadrupole_moment_norm": 27.111599432, 
			 "total_energy": -3334.5787704, 
			 "HOMO_LUMO_gap": 0.17954, 
			 "cosmo_polarized_energy": -17.63, 
			 "cosmo_cavitation_energy": 37.86, 
			 "cosmo_dispersion_energy": -26.12, 
			 "cosmo_repulsion_energy": 2.04, 
			 "cosmo_total_nonelectrostatic_energy": 13.78, 
			 "SMD_solvation_energy": 5.61 
		},
		"coords": [
			{
				"x": 1.274158149,
				"y": -2.7001002304,
				"z": -3.6335021902,
				"element": "C" 
			},
			{
				"x": 1.2345401788,
				"y": -1.575241006,
				"z": -2.6498689273,
				"element": "C" 
			},
			{
				"x": 1.0030062056,
				"y": -1.789350501,
				"z": -1.3539253065,
				"element": "N" 
			},
			{
				"x": 1.0617465009,
				"y": -0.5659949267,
				"z": -0.7619763037,
				"element": "N" 
			},
			{
				"x": 0.7469311112,
				"y": -0.4571152385,
				"z": 0.6560092101,
				"element": "C" 
			},
			{
				"x": -0.7266893655,
				"y": -0.2094912719,
				"z": 0.9347238185,
				"element": "C" 
			},
			{
				"x": -1.1339634491,
				"y": 0.8154444882,
				"z": 1.7929141058,
				"element": "C" 
			},
			{
				"x": -2.4897294648,
				"y": 1.0089030566,
				"z": 2.0768513193,
				"element": "C" 
			},
			{
				"x": -3.4481933495,
				"y": 0.1855994184,
				"z": 1.4965265079,
				"element": "C" 
			},
			{
				"x": -3.0558191135,
				"y": -0.8330603127,
				"z": 0.6152896647,
				"element": "C" 
			},
			{
				"x": -1.6971371518,
				"y": -1.0324217237,
				"z": 0.3504638011,
				"element": "C" 
			},
			{
				"x": -4.1365230585,
				"y": -1.6896714965,
				"z": 0.0203181422,
				"element": "C" 
			},
			{
				"x": -3.8122299916,
				"y": -2.413972258,
				"z": -1.0814594068,
				"element": "O" 
			},
			{
				"x": -5.2541875058,
				"y": -1.7508978107,
				"z": 0.4768772432,
				"element": "O" 
			},
			{
				"x": 1.3072997748,
				"y": 0.4410484828,
				"z": -1.6497186577,
				"element": "C" 
			},
			{
				"x": 1.4091671342,
				"y": 1.8818951183,
				"z": -1.2740831052,
				"element": "C" 
			},
			{
				"x": 1.4304439396,
				"y": -0.1928792936,
				"z": -2.8757931113,
				"element": "C" 
			},
			{
				"x": 1.8069739721,
				"y": 0.6342791608,
				"z": -4.5297364562,
				"element": "Br" 
			},
			{
				"x": 2.2582020615,
				"y": -2.7761065282,
				"z": -4.1085610364,
				"element": "H" 
			},
			{
				"x": 1.0590762964,
				"y": -3.6425242948,
				"z": -3.1257271848,
				"element": "H" 
			},
			{
				"x": 0.5408148048,
				"y": -2.5543721203,
				"z": -4.4339249903,
				"element": "H" 
			},
			{
				"x": 1.3536001465,
				"y": 0.342677833,
				"z": 1.0893890544,
				"element": "H" 
			},
			{
				"x": 1.0707107124,
				"y": -1.4005394062,
				"z": 1.1048111696,
				"element": "H" 
			},
			{
				"x": -0.3889410122,
				"y": 1.4624921952,
				"z": 2.2497894028,
				"element": "H" 
			},
			{
				"x": -2.792874273,
				"y": 1.8054045153,
				"z": 2.7496663187,
				"element": "H" 
			},
			{
				"x": -4.5050650813,
				"y": 0.3098158727,
				"z": 1.7052814542,
				"element": "H" 
			},
			{
				"x": -1.3534554745,
				"y": -1.8421917834,
				"z": -0.2890134426,
				"element": "H" 
			},
			{
				"x": -2.9383683819,
				"y": -2.1606978975,
				"z": -1.4101359323,
				"element": "H" 
			},
			{
				"x": 2.2387955642,
				"y": 2.0644187243,
				"z": -0.580814197,
				"element": "H" 
			},
			{
				"x": 0.4900043927,
				"y": 2.2432801005,
				"z": -0.8000041448,
				"element": "H" 
			},
			{
				"x": 1.5862057283,
				"y": 2.4770691337,
				"z": -2.1718668195,
				"element": "H" 
			}
		],
		 "valence_orbital": [ 
			{
				"type": "occ",
				"energy": -0.27955,
				"method": "rhf"
			},
			{
				"type": "occ",
				"energy": -0.27441,
				"method": "rhf"
			},
			{
				"type": "occ",
				"energy": -0.26768,
				"method": "rhf"
			},
			{
				"type": "occ",
				"energy": -0.25179,
				"method": "rhf"
			},
			{
				"type": "occ",
				"energy": -0.23455,
				"method": "rhf"
			},
			{
				"type": "unocc",
				"energy": -0.05501,
				"method": "rhf"
			},
			{
				"type": "unocc",
				"energy": -0.03187,
				"method": "rhf"
			},
			{
				"type": "unocc",
				"energy": 0.00411,
				"method": "rhf"
			},
			{
				"type": "unocc",
				"energy": 0.01619,
				"method": "rhf"
			},
			{
				"type": "unocc",
				"energy": 0.044,
				"method": "rhf"
			}
		],
		"cosmo_sigma_profile": { 
			"-0.025": 0.0,
			"-0.024": 0.0,
			"-0.023": 0.0,
			"-0.022": 0.0,
			"-0.021": 0.0,
			"-0.02": 0.0,
			"-0.019": 0.0,
			"-0.018": 0.00640377017343,
			"-0.017": 0.944002572864,
			"-0.016": 0.89880126099,
			"-0.015": 1.19345939985,
			"-0.014": 0.852200672662,
			"-0.013": 0.85727697888,
			"-0.012": 1.26938588071,
			"-0.011": 1.06741133509,
			"-0.01": 0.465773388275,
			"-0.009": 0.8023893859,
			"-0.008": 3.97312806406,
			"-0.007": 9.98634318428,
			"-0.006": 12.276394,
			"-0.005": 17.0483341728,
			"-0.004": 23.7168126538,
			"-0.003": 23.7452023616,
			"-0.002": 23.0083482467,
			"-0.001": 27.3932705389,
			"0.0": 24.0689191278,
			"0.001": 19.7048080085,
			"0.002": 23.0692148144,
			"0.003": 26.5706978613,
			"0.004": 16.8738902941,
			"0.005": 9.3670565901,
			"0.006": 3.82239052518,
			"0.007": 4.14081274077,
			"0.008": 3.8599988256,
			"0.009": 3.47665825164,
			"0.01": 5.06052440998,
			"0.011": 6.92476297079,
			"0.012": 5.39546792589,
			"0.013": 2.2206589705,
			"0.014": 0.609865096638,
			"0.015": 0.343186983037,
			"0.016": 0.0,
			"0.017": 0.0,
			"0.018": 0.0,
			"0.019": 0.0,
			"0.02": 0.0,
			"0.021": 0.0,
			"0.022": 0.0,
			"0.023": 0.0,
			"0.024": 0.0,
			"0.025": 0.0
		}
	}
}
