{
	 "smiles": "OC(=O)CNS(=O)(=O)C1=CC=CC=C1", 
	 "Tm": 440.15, 
	 "num_atms": 23, 
	 "gaussian": { 
		 "optdone": 1, 
		 "sigma_profile": "yes", 
		 "theory": "DFT", 
		 "functional": "B3LYP", 
		 "basiset": "6-31G**", 
		 "properties": { 
			 "R2extent": 3509.7663, 
			 "electric_dipole_moment_norm": 4.91752024805, 
			 "electric_quadrupole_moment_norm": 15.8517074749, 
			 "total_energy": -1064.04298666, 
			 "HOMO_LUMO_gap": 0.22593, 
			 "cosmo_polarized_energy": -22.24, 
			 "cosmo_cavitation_energy": 28.98, 
			 "cosmo_dispersion_energy": -20.99, 
			 "cosmo_repulsion_energy": 1.62, 
			 "cosmo_total_nonelectrostatic_energy": 9.61, 
			 "SMD_solvation_energy": 4.89 
		},
		"coords": [
			{
				"x": 0.6019449853,
				"y": -1.1971445139,
				"z": -4.2224456304,
				"element": "O" 
			},
			{
				"x": 0.780782837,
				"y": -1.7556063391,
				"z": -3.0146571096,
				"element": "C" 
			},
			{
				"x": 1.6713570911,
				"y": -2.5316324664,
				"z": -2.7490872427,
				"element": "O" 
			},
			{
				"x": -0.3158315679,
				"y": -1.3728073975,
				"z": -2.0240439721,
				"element": "C" 
			},
			{
				"x": -0.5647557194,
				"y": 0.0639726194,
				"z": -1.9491357216,
				"element": "N" 
			},
			{
				"x": 0.6129237021,
				"y": 1.0745501629,
				"z": -1.2839221157,
				"element": "S" 
			},
			{
				"x": -0.0118249954,
				"y": 2.3963055365,
				"z": -1.239279834,
				"element": "O" 
			},
			{
				"x": 1.8438955632,
				"y": 0.796813488,
				"z": -2.0234057662,
				"element": "O" 
			},
			{
				"x": 0.8735887309,
				"y": 0.5210865296,
				"z": 0.4058432776,
				"element": "C" 
			},
			{
				"x": 1.770518997,
				"y": -0.5232716715,
				"z": 0.6535356386,
				"element": "C" 
			},
			{
				"x": 1.9455614444,
				"y": -0.9629865136,
				"z": 1.9667344828,
				"element": "C" 
			},
			{
				"x": 1.2402310603,
				"y": -0.3588702567,
				"z": 3.0098929967,
				"element": "C" 
			},
			{
				"x": 0.3554667088,
				"y": 0.6908848023,
				"z": 2.7486457833,
				"element": "C" 
			},
			{
				"x": 0.1649349769,
				"y": 1.1368418723,
				"z": 1.4410481291,
				"element": "C" 
			},
			{
				"x": 1.3578034038,
				"y": -1.4732789575,
				"z": -4.7673850272,
				"element": "H" 
			},
			{
				"x": -0.0479360308,
				"y": -1.8280756436,
				"z": -1.0631265466,
				"element": "H" 
			},
			{
				"x": -1.245353739,
				"y": -1.8359795528,
				"z": -2.3719508044,
				"element": "H" 
			},
			{
				"x": -1.4884318848,
				"y": 0.3282994204,
				"z": -1.623094628,
				"element": "H" 
			},
			{
				"x": 2.3256585384,
				"y": -0.9694843797,
				"z": -0.1648821033,
				"element": "H" 
			},
			{
				"x": 2.6396778328,
				"y": -1.7718100612,
				"z": 2.1734282816,
				"element": "H" 
			},
			{
				"x": 1.3856213399,
				"y": -0.7015574139,
				"z": 4.0301492553,
				"element": "H" 
			},
			{
				"x": -0.1806413711,
				"y": 1.1677494262,
				"z": 3.5636244451,
				"element": "H" 
			},
			{
				"x": -0.5008919037,
				"y": 1.9639013099,
				"z": 1.2190142116,
				"element": "H" 
			}
		],
		 "valence_orbital": [ 
			{
				"type": "occ",
				"energy": -0.30805,
				"method": "rhf"
			},
			{
				"type": "occ",
				"energy": -0.29653,
				"method": "rhf"
			},
			{
				"type": "occ",
				"energy": -0.28143,
				"method": "rhf"
			},
			{
				"type": "occ",
				"energy": -0.27481,
				"method": "rhf"
			},
			{
				"type": "occ",
				"energy": -0.2688,
				"method": "rhf"
			},
			{
				"type": "unocc",
				"energy": -0.04287,
				"method": "rhf"
			},
			{
				"type": "unocc",
				"energy": -0.02597,
				"method": "rhf"
			},
			{
				"type": "unocc",
				"energy": -0.00428,
				"method": "rhf"
			},
			{
				"type": "unocc",
				"energy": 0.05724,
				"method": "rhf"
			},
			{
				"type": "unocc",
				"energy": 0.07123,
				"method": "rhf"
			}
		],
		"cosmo_sigma_profile": { 
			"-0.025": 0.0,
			"-0.024": 0.0,
			"-0.023": 0.0,
			"-0.022": 0.0,
			"-0.021": 0.0,
			"-0.02": 0.0,
			"-0.019": 0.276861433258,
			"-0.018": 1.16691526618,
			"-0.017": 0.950754400958,
			"-0.016": 1.3424498851,
			"-0.015": 1.82122846712,
			"-0.014": 2.67908979259,
			"-0.013": 2.09775961044,
			"-0.012": 1.86361709074,
			"-0.011": 1.94717265643,
			"-0.01": 3.33498918893,
			"-0.009": 4.35679677451,
			"-0.008": 4.04838397629,
			"-0.007": 9.39476301911,
			"-0.006": 14.6538249297,
			"-0.005": 17.4838255777,
			"-0.004": 11.21348586,
			"-0.003": 10.5474858979,
			"-0.002": 11.003323247,
			"-0.001": 10.080558269,
			"0.0": 11.0737423763,
			"0.001": 12.5044729203,
			"0.002": 13.6546601313,
			"0.003": 15.8773996293,
			"0.004": 5.37856576719,
			"0.005": 5.93810365491,
			"0.006": 6.59152154175,
			"0.007": 5.61224314929,
			"0.008": 7.68931487798,
			"0.009": 7.07602169929,
			"0.01": 11.7252166787,
			"0.011": 13.4716939554,
			"0.012": 3.9386402479,
			"0.013": 0.048755526524,
			"0.014": 0.0,
			"0.015": 0.0,
			"0.016": 0.0,
			"0.017": 0.0,
			"0.018": 0.0,
			"0.019": 0.0,
			"0.02": 0.0,
			"0.021": 0.0,
			"0.022": 0.0,
			"0.023": 0.0,
			"0.024": 0.0,
			"0.025": 0.0
		}
	}
}
