{
	 "smiles": "CC1=C(N=NN1C1=CC=CC=C1)C(O)=O", 
	 "Tm": 384.15, 
	 "num_atms": 24, 
	 "gaussian": { 
		 "optdone": 1, 
		 "sigma_profile": "yes", 
		 "theory": "DFT", 
		 "functional": "B3LYP", 
		 "basiset": "6-31G**", 
		 "properties": { 
			 "R2extent": 3818.422, 
			 "electric_dipole_moment_norm": 8.71009403221, 
			 "electric_quadrupole_moment_norm": 21.0703246444, 
			 "total_energy": -701.155476726, 
			 "HOMO_LUMO_gap": 0.20955, 
			 "cosmo_polarized_energy": -24.13, 
			 "cosmo_cavitation_energy": 29.02, 
			 "cosmo_dispersion_energy": -20.95, 
			 "cosmo_repulsion_energy": 1.62, 
			 "cosmo_total_nonelectrostatic_energy": 9.69, 
			 "SMD_solvation_energy": 4.7 
		},
		"coords": [
			{
				"x": -0.8887731542,
				"y": -0.318004124,
				"z": -1.96688843,
				"element": "C" 
			},
			{
				"x": -1.3124803083,
				"y": -0.3815450134,
				"z": -0.5328168756,
				"element": "C" 
			},
			{
				"x": -2.4785874523,
				"y": -0.8407003117,
				"z": 0.0704453581,
				"element": "C" 
			},
			{
				"x": -2.3250189653,
				"y": -0.7917441791,
				"z": 1.4297766281,
				"element": "N" 
			},
			{
				"x": -1.1575793777,
				"y": -0.3201088293,
				"z": 1.7114068704,
				"element": "N" 
			},
			{
				"x": -0.5130342521,
				"y": -0.0629859541,
				"z": 0.5260384245,
				"element": "N" 
			},
			{
				"x": 0.8322564363,
				"y": 0.4105659457,
				"z": 0.554934705,
				"element": "C" 
			},
			{
				"x": 1.2360824982,
				"y": 1.4580315321,
				"z": -0.2776003669,
				"element": "C" 
			},
			{
				"x": 2.5572939095,
				"y": 1.9032357295,
				"z": -0.2254367682,
				"element": "C" 
			},
			{
				"x": 3.4612746597,
				"y": 1.3208922157,
				"z": 0.664185318,
				"element": "C" 
			},
			{
				"x": 3.0419567206,
				"y": 0.2880215875,
				"z": 1.5063132632,
				"element": "C" 
			},
			{
				"x": 1.7293085328,
				"y": -0.1761851126,
				"z": 1.4531925343,
				"element": "C" 
			},
			{
				"x": -3.712249245,
				"y": -1.4049925126,
				"z": -0.5360677303,
				"element": "C" 
			},
			{
				"x": -4.0113080295,
				"y": -0.9425618942,
				"z": -1.7904042646,
				"element": "O" 
			},
			{
				"x": -4.4103281966,
				"y": -2.2317366866,
				"z": -0.0106740315,
				"element": "O" 
			},
			{
				"x": -1.4852700753,
				"y": -1.0140757857,
				"z": -2.5604898018,
				"element": "H" 
			},
			{
				"x": -1.0121080903,
				"y": 0.6841250427,
				"z": -2.3951397614,
				"element": "H" 
			},
			{
				"x": 0.165036129,
				"y": -0.5877746968,
				"z": -2.076310307,
				"element": "H" 
			},
			{
				"x": 0.5222819378,
				"y": 1.9360787701,
				"z": -0.9393119735,
				"element": "H" 
			},
			{
				"x": 2.873234797,
				"y": 2.7163951821,
				"z": -0.8716542576,
				"element": "H" 
			},
			{
				"x": 4.4870044544,
				"y": 1.6741456202,
				"z": 0.7055486104,
				"element": "H" 
			},
			{
				"x": 3.7401810778,
				"y": -0.164017713,
				"z": 2.2039365969,
				"element": "H" 
			},
			{
				"x": 1.3866882335,
				"y": -0.9770855259,
				"z": 2.0979437225,
				"element": "H" 
			},
			{
				"x": -3.5096622401,
				"y": -0.1363732866,
				"z": -1.9734274632,
				"element": "H" 
			}
		],
		 "valence_orbital": [ 
			{
				"type": "occ",
				"energy": -0.28255,
				"method": "rhf"
			},
			{
				"type": "occ",
				"energy": -0.27967,
				"method": "rhf"
			},
			{
				"type": "occ",
				"energy": -0.27642,
				"method": "rhf"
			},
			{
				"type": "occ",
				"energy": -0.27179,
				"method": "rhf"
			},
			{
				"type": "occ",
				"energy": -0.26097,
				"method": "rhf"
			},
			{
				"type": "unocc",
				"energy": -0.05142,
				"method": "rhf"
			},
			{
				"type": "unocc",
				"energy": -0.03021,
				"method": "rhf"
			},
			{
				"type": "unocc",
				"energy": -0.02309,
				"method": "rhf"
			},
			{
				"type": "unocc",
				"energy": -0.00206,
				"method": "rhf"
			},
			{
				"type": "unocc",
				"energy": 0.04516,
				"method": "rhf"
			}
		],
		"cosmo_sigma_profile": { 
			"-0.025": 0.0,
			"-0.024": 0.0,
			"-0.023": 0.0,
			"-0.022": 0.0,
			"-0.021": 0.0,
			"-0.02": 0.0,
			"-0.019": 0.0633146405518,
			"-0.018": 0.905632201689,
			"-0.017": 0.823966835848,
			"-0.016": 1.00855101845,
			"-0.015": 1.22931283515,
			"-0.014": 0.557045519705,
			"-0.013": 1.07515523577,
			"-0.012": 1.26801199915,
			"-0.011": 1.10360343026,
			"-0.01": 0.590382252028,
			"-0.009": 2.39693543506,
			"-0.008": 5.7186328727,
			"-0.007": 10.4718009085,
			"-0.006": 18.6709737143,
			"-0.005": 18.6337200576,
			"-0.004": 18.4021266074,
			"-0.003": 17.6938381142,
			"-0.002": 12.3224696829,
			"-0.001": 11.0616238271,
			"0.0": 8.77582506836,
			"0.001": 9.95758702523,
			"0.002": 11.6143566798,
			"0.003": 14.1611149185,
			"0.004": 11.5300838078,
			"0.005": 3.11098744939,
			"0.006": 4.05587575873,
			"0.007": 4.10777943021,
			"0.008": 6.19716623476,
			"0.009": 6.25545462665,
			"0.01": 9.05371867589,
			"0.011": 8.60138249726,
			"0.012": 6.97898101363,
			"0.013": 2.89191038413,
			"0.014": 1.17320515328,
			"0.015": 0.447935053926,
			"0.016": 0.0,
			"0.017": 0.0,
			"0.018": 0.0,
			"0.019": 0.0,
			"0.02": 0.0,
			"0.021": 0.0,
			"0.022": 0.0,
			"0.023": 0.0,
			"0.024": 0.0,
			"0.025": 0.0
		}
	}
}
