{
	 "smiles": "NNC(=O)C(N)=O", 
	 "Tm": 490.15, 
	 "num_atms": 12, 
	 "gaussian": { 
		 "optdone": 1, 
		 "sigma_profile": "yes", 
		 "theory": "DFT", 
		 "functional": "B3LYP", 
		 "basiset": "6-31G**", 
		 "properties": { 
			 "R2extent": 1138.8236, 
			 "electric_dipole_moment_norm": 1.52445411541, 
			 "electric_quadrupole_moment_norm": 7.45720564689, 
			 "total_energy": -393.926173285, 
			 "HOMO_LUMO_gap": 0.20797, 
			 "cosmo_polarized_energy": -14.27, 
			 "cosmo_cavitation_energy": 16.85, 
			 "cosmo_dispersion_energy": -12.67, 
			 "cosmo_repulsion_energy": 1.12, 
			 "cosmo_total_nonelectrostatic_energy": 5.3, 
			 "SMD_solvation_energy": 5.2 
		},
		"coords": [
			{
				"x": -2.9464768965,
				"y": -0.7672892589,
				"z": -0.3856786673,
				"element": "N" 
			},
			{
				"x": -1.791428083,
				"y": -0.0643762402,
				"z": -0.0050829571,
				"element": "N" 
			},
			{
				"x": -1.165280211,
				"y": -0.2630234738,
				"z": 1.1719737582,
				"element": "C" 
			},
			{
				"x": -1.5175325225,
				"y": -1.0623309434,
				"z": 2.0366726094,
				"element": "O" 
			},
			{
				"x": 0.0744465777,
				"y": 0.6401864776,
				"z": 1.330117676,
				"element": "C" 
			},
			{
				"x": 0.6921953196,
				"y": 0.4316729245,
				"z": 2.5104663452,
				"element": "N" 
			},
			{
				"x": 0.4126208634,
				"y": 1.4332153168,
				"z": 0.458748051,
				"element": "O" 
			},
			{
				"x": -3.6509528178,
				"y": -0.6146944723,
				"z": 0.3361449723,
				"element": "H" 
			},
			{
				"x": -2.7270566719,
				"y": -1.7627912231,
				"z": -0.3476813401,
				"element": "H" 
			},
			{
				"x": -1.416681961,
				"y": 0.6204506573,
				"z": -0.648321386,
				"element": "H" 
			},
			{
				"x": 1.5184034647,
				"y": 0.956866291,
				"z": 2.7484460596,
				"element": "H" 
			},
			{
				"x": 0.3018429384,
				"y": -0.2561860557,
				"z": 3.1390948787,
				"element": "H" 
			}
		],
		 "valence_orbital": [ 
			{
				"type": "occ",
				"energy": -0.31457,
				"method": "rhf"
			},
			{
				"type": "occ",
				"energy": -0.28854,
				"method": "rhf"
			},
			{
				"type": "occ",
				"energy": -0.28669,
				"method": "rhf"
			},
			{
				"type": "occ",
				"energy": -0.27089,
				"method": "rhf"
			},
			{
				"type": "occ",
				"energy": -0.24624,
				"method": "rhf"
			},
			{
				"type": "unocc",
				"energy": -0.03827,
				"method": "rhf"
			},
			{
				"type": "unocc",
				"energy": 0.07668,
				"method": "rhf"
			},
			{
				"type": "unocc",
				"energy": 0.0862,
				"method": "rhf"
			},
			{
				"type": "unocc",
				"energy": 0.09533,
				"method": "rhf"
			},
			{
				"type": "unocc",
				"energy": 0.11468,
				"method": "rhf"
			}
		],
		"cosmo_sigma_profile": { 
			"-0.025": 0.0,
			"-0.024": 0.0,
			"-0.023": 0.0,
			"-0.022": 0.0,
			"-0.021": 0.0,
			"-0.02": 0.0,
			"-0.019": 0.0,
			"-0.018": 0.0,
			"-0.017": 0.0,
			"-0.016": 0.0746866960849,
			"-0.015": 1.27364854933,
			"-0.014": 1.20574893409,
			"-0.013": 2.58120263551,
			"-0.012": 3.51156042878,
			"-0.011": 5.9401648873,
			"-0.01": 5.13184093813,
			"-0.009": 4.21089104824,
			"-0.008": 4.46922774158,
			"-0.007": 3.88950315242,
			"-0.006": 3.58545616271,
			"-0.005": 4.56929962513,
			"-0.004": 4.87050779097,
			"-0.003": 6.97350319311,
			"-0.002": 7.93914235015,
			"-0.001": 8.799989411,
			"0.0": 6.51169707722,
			"0.001": 5.4885906765,
			"0.002": 5.27554011895,
			"0.003": 4.14957090406,
			"0.004": 3.13595371194,
			"0.005": 2.35979577868,
			"0.006": 3.66633848855,
			"0.007": 2.40163284411,
			"0.008": 3.29422513058,
			"0.009": 2.96292923427,
			"0.01": 3.33571311858,
			"0.011": 4.84235037745,
			"0.012": 8.35393890383,
			"0.013": 5.33268700169,
			"0.014": 1.50766038746,
			"0.015": 0.52764666996,
			"0.016": 0.471947354631,
			"0.017": 0.0,
			"0.018": 0.0,
			"0.019": 0.0,
			"0.02": 0.0,
			"0.021": 0.0,
			"0.022": 0.0,
			"0.023": 0.0,
			"0.024": 0.0,
			"0.025": 0.0
		}
	}
}
