{
	 "smiles": "[O-][N+](=O)C1=CC=C2C(=C1)N(C(=O)C1=CC=CC=C1)C(=C2C(=O)C1=CC=CC=C1)C1=CC=CC=C1", 
	 "Tm": 477.15, 
	 "num_atms": 52, 
	 "gaussian": { 
		 "optdone": 1, 
		 "sigma_profile": "yes", 
		 "theory": "DFT", 
		 "functional": "B3LYP", 
		 "basiset": "6-31G**", 
		 "properties": { 
			 "R2extent": 15946.9476, 
			 "electric_dipole_moment_norm": 8.32682332585, 
			 "electric_quadrupole_moment_norm": 47.0724209014, 
			 "total_energy": -1488.13923918, 
			 "HOMO_LUMO_gap": 0.14218, 
			 "cosmo_polarized_energy": -21.1, 
			 "cosmo_cavitation_energy": 57.34, 
			 "cosmo_dispersion_energy": -37.26, 
			 "cosmo_repulsion_energy": 2.79, 
			 "cosmo_total_nonelectrostatic_energy": 22.87, 
			 "SMD_solvation_energy": 12.41 
		},
		"coords": [
			{
				"x": -1.5063841181,
				"y": 0.3654772318,
				"z": -6.6697486209,
				"element": "O" 
			},
			{
				"x": -1.8306726106,
				"y": 1.0390702375,
				"z": -5.69002302,
				"element": "N" 
			},
			{
				"x": -2.7342927769,
				"y": 1.8760742598,
				"z": -5.687962131,
				"element": "O" 
			},
			{
				"x": -1.0923544293,
				"y": 0.8239704491,
				"z": -4.4399813131,
				"element": "C" 
			},
			{
				"x": -0.058357356,
				"y": -0.1281667035,
				"z": -4.4247456238,
				"element": "C" 
			},
			{
				"x": 0.6532154854,
				"y": -0.3507324897,
				"z": -3.2577603788,
				"element": "C" 
			},
			{
				"x": 0.3216245804,
				"y": 0.3797758309,
				"z": -2.0997083722,
				"element": "C" 
			},
			{
				"x": -0.7140399996,
				"y": 1.3466099496,
				"z": -2.1702497274,
				"element": "C" 
			},
			{
				"x": -1.4448715159,
				"y": 1.5846961924,
				"z": -3.3303958787,
				"element": "C" 
			},
			{
				"x": -0.8421084761,
				"y": 1.9246733425,
				"z": -0.8993150096,
				"element": "N" 
			},
			{
				"x": -1.9138743301,
				"y": 2.8289250043,
				"z": -0.5780157414,
				"element": "C" 
			},
			{
				"x": -2.1894876429,
				"y": 3.7127567616,
				"z": -1.3658505394,
				"element": "O" 
			},
			{
				"x": -2.7065286653,
				"y": 2.5773680773,
				"z": 0.6549332885,
				"element": "C" 
			},
			{
				"x": -3.4649124846,
				"y": 3.6442836804,
				"z": 1.1627681809,
				"element": "C" 
			},
			{
				"x": -4.2940294396,
				"y": 3.4509592497,
				"z": 2.2628341269,
				"element": "C" 
			},
			{
				"x": -4.3919078556,
				"y": 2.1856687436,
				"z": 2.8496383935,
				"element": "C" 
			},
			{
				"x": -3.6583003891,
				"y": 1.1152486908,
				"z": 2.3338502384,
				"element": "C" 
			},
			{
				"x": -2.8129761292,
				"y": 1.3084797181,
				"z": 1.2430071777,
				"element": "C" 
			},
			{
				"x": 0.147762503,
				"y": 1.3963632255,
				"z": -0.0626879243,
				"element": "C" 
			},
			{
				"x": 0.860938919,
				"y": 0.4323085511,
				"z": -0.7614358566,
				"element": "C" 
			},
			{
				"x": 2.1052046132,
				"y": -0.2323889026,
				"z": -0.268619512,
				"element": "C" 
			},
			{
				"x": 2.9609926699,
				"y": 0.4101771043,
				"z": 0.3276303119,
				"element": "O" 
			},
			{
				"x": 2.2928964898,
				"y": -1.6999002147,
				"z": -0.5102412397,
				"element": "C" 
			},
			{
				"x": 1.2228829917,
				"y": -2.5620284465,
				"z": -0.7951093428,
				"element": "C" 
			},
			{
				"x": 1.4446515027,
				"y": -3.9305899521,
				"z": -0.9510976684,
				"element": "C" 
			},
			{
				"x": 2.7365018431,
				"y": -4.4466086718,
				"z": -0.832046142,
				"element": "C" 
			},
			{
				"x": 3.8077954067,
				"y": -3.5939775932,
				"z": -0.5450543714,
				"element": "C" 
			},
			{
				"x": 3.5862551451,
				"y": -2.2307923272,
				"z": -0.3763422723,
				"element": "C" 
			},
			{
				"x": 0.3907425737,
				"y": 1.928019317,
				"z": 1.2900623336,
				"element": "C" 
			},
			{
				"x": 0.4570787444,
				"y": 3.3146916862,
				"z": 1.5039276692,
				"element": "C" 
			},
			{
				"x": 0.7135744726,
				"y": 3.8202532121,
				"z": 2.7771512567,
				"element": "C" 
			},
			{
				"x": 0.9071341046,
				"y": 2.9508702505,
				"z": 3.8517056615,
				"element": "C" 
			},
			{
				"x": 0.8470959494,
				"y": 1.5705465471,
				"z": 3.6461588384,
				"element": "C" 
			},
			{
				"x": 0.591394252,
				"y": 1.0617411221,
				"z": 2.3756026974,
				"element": "C" 
			},
			{
				"x": 0.1639070317,
				"y": -0.6689594989,
				"z": -5.3354161302,
				"element": "H" 
			},
			{
				"x": 1.4522143208,
				"y": -1.0825875349,
				"z": -3.2390635626,
				"element": "H" 
			},
			{
				"x": -2.2230673813,
				"y": 2.3317239866,
				"z": -3.3953756512,
				"element": "H" 
			},
			{
				"x": -3.3919804081,
				"y": 4.6124326293,
				"z": 0.6791689186,
				"element": "H" 
			},
			{
				"x": -4.869125903,
				"y": 4.2818279771,
				"z": 2.6599286449,
				"element": "H" 
			},
			{
				"x": -5.0444586944,
				"y": 2.0331380173,
				"z": 3.7043886433,
				"element": "H" 
			},
			{
				"x": -3.7462533657,
				"y": 0.1292954144,
				"z": 2.7797606131,
				"element": "H" 
			},
			{
				"x": -2.2538423915,
				"y": 0.4721961182,
				"z": 0.8379044878,
				"element": "H" 
			},
			{
				"x": 0.217364742,
				"y": -2.1638206898,
				"z": -0.8841427898,
				"element": "H" 
			},
			{
				"x": 0.6107027864,
				"y": -4.5927624398,
				"z": -1.1643449231,
				"element": "H" 
			},
			{
				"x": 2.9091485362,
				"y": -5.5114361764,
				"z": -0.960148285,
				"element": "H" 
			},
			{
				"x": 4.8122099062,
				"y": -3.9962108581,
				"z": -0.4505739181,
				"element": "H" 
			},
			{
				"x": 4.3979579242,
				"y": -1.551994575,
				"z": -0.1368045792,
				"element": "H" 
			},
			{
				"x": 0.3346415886,
				"y": 3.996214293,
				"z": 0.6674088726,
				"element": "H" 
			},
			{
				"x": 0.7700066509,
				"y": 4.894324187,
				"z": 2.9267415224,
				"element": "H" 
			},
			{
				"x": 1.1074764404,
				"y": 3.3459266917,
				"z": 4.8432318936,
				"element": "H" 
			},
			{
				"x": 0.997886914,
				"y": 0.8885413204,
				"z": 4.4776205524,
				"element": "H" 
			},
			{
				"x": 0.5393672747,
				"y": -0.0113719962,
				"z": 2.2214362015,
				"element": "H" 
			}
		],
		 "valence_orbital": [ 
			{
				"type": "occ",
				"energy": -0.26494,
				"method": "rhf"
			},
			{
				"type": "occ",
				"energy": -0.26147,
				"method": "rhf"
			},
			{
				"type": "occ",
				"energy": -0.25542,
				"method": "rhf"
			},
			{
				"type": "occ",
				"energy": -0.2481,
				"method": "rhf"
			},
			{
				"type": "occ",
				"energy": -0.22834,
				"method": "rhf"
			},
			{
				"type": "unocc",
				"energy": -0.08616,
				"method": "rhf"
			},
			{
				"type": "unocc",
				"energy": -0.07571,
				"method": "rhf"
			},
			{
				"type": "unocc",
				"energy": -0.06649,
				"method": "rhf"
			},
			{
				"type": "unocc",
				"energy": -0.04074,
				"method": "rhf"
			},
			{
				"type": "unocc",
				"energy": -0.02401,
				"method": "rhf"
			}
		],
		"cosmo_sigma_profile": { 
			"-0.025": 0.0,
			"-0.024": 0.0,
			"-0.023": 0.0,
			"-0.022": 0.0,
			"-0.021": 0.0,
			"-0.02": 0.0,
			"-0.019": 0.0,
			"-0.018": 0.0,
			"-0.017": 0.0,
			"-0.016": 0.0,
			"-0.015": 0.0,
			"-0.014": 0.0,
			"-0.013": 0.0,
			"-0.012": 0.0,
			"-0.011": 0.0,
			"-0.01": 0.0,
			"-0.009": 0.0,
			"-0.008": 0.118667242682,
			"-0.007": 12.0163149354,
			"-0.006": 39.0603637721,
			"-0.005": 42.148909501,
			"-0.004": 40.149303686,
			"-0.003": 31.5515291398,
			"-0.002": 29.910338664,
			"-0.001": 31.495784295,
			"0.0": 34.6340222149,
			"0.001": 35.0221590938,
			"0.002": 31.8716188201,
			"0.003": 34.6047635107,
			"0.004": 30.1262696944,
			"0.005": 11.53226888,
			"0.006": 8.12100811884,
			"0.007": 8.58635566007,
			"0.008": 13.4973202506,
			"0.009": 9.58711101331,
			"0.01": 9.34278716735,
			"0.011": 4.54258083755,
			"0.012": 3.76132251226,
			"0.013": 0.521014914998,
			"0.014": 0.0,
			"0.015": 0.0,
			"0.016": 0.0,
			"0.017": 0.0,
			"0.018": 0.0,
			"0.019": 0.0,
			"0.02": 0.0,
			"0.021": 0.0,
			"0.022": 0.0,
			"0.023": 0.0,
			"0.024": 0.0,
			"0.025": 0.0
		}
	}
}
