{
	 "smiles": "CCCCCCCCCCCCCCCC(=O)OC(=O)CCCCCCCCCCCCCCC", 
	 "Tm": 337.15, 
	 "num_atms": 97, 
	 "gaussian": { 
		 "optdone": 1, 
		 "sigma_profile": "yes", 
		 "theory": "DFT", 
		 "functional": "B3LYP", 
		 "basiset": "6-31G**", 
		 "properties": { 
			 "R2extent": 38473.8757, 
			 "electric_dipole_moment_norm": 3.51268417738, 
			 "electric_quadrupole_moment_norm": 14.5775638692, 
			 "total_energy": -1482.5498949, 
			 "HOMO_LUMO_gap": 0.24453, 
			 "cosmo_polarized_energy": -11.37, 
			 "cosmo_cavitation_energy": 93.44, 
			 "cosmo_dispersion_energy": -55.71, 
			 "cosmo_repulsion_energy": 4.4, 
			 "cosmo_total_nonelectrostatic_energy": 42.13, 
			 "SMD_solvation_energy": 13.1 
		},
		"coords": [
			{
				"x": 2.4461571426,
				"y": -1.8041752954,
				"z": 6.0505813836,
				"element": "C" 
			},
			{
				"x": 3.1477565856,
				"y": -2.2190769968,
				"z": 7.3506778141,
				"element": "C" 
			},
			{
				"x": 2.4233275514,
				"y": -3.2871674991,
				"z": 8.1968058487,
				"element": "C" 
			},
			{
				"x": 2.6762683919,
				"y": -4.7605137432,
				"z": 7.8182544217,
				"element": "C" 
			},
			{
				"x": 2.0767656115,
				"y": -5.285412278,
				"z": 6.5006429978,
				"element": "C" 
			},
			{
				"x": 0.5421959245,
				"y": -5.2421241451,
				"z": 6.440315761,
				"element": "C" 
			},
			{
				"x": -0.0671071859,
				"y": -6.0053844656,
				"z": 5.2498185954,
				"element": "C" 
			},
			{
				"x": 0.2610642509,
				"y": -5.4538771302,
				"z": 3.8509756746,
				"element": "C" 
			},
			{
				"x": -0.3202878508,
				"y": -4.0636338456,
				"z": 3.5566026126,
				"element": "C" 
			},
			{
				"x": -0.0361003047,
				"y": -3.590169515,
				"z": 2.1234777962,
				"element": "C" 
			},
			{
				"x": -0.5310819586,
				"y": -2.1707639259,
				"z": 1.7994456968,
				"element": "C" 
			},
			{
				"x": -2.0597524026,
				"y": -2.0127953463,
				"z": 1.8151411821,
				"element": "C" 
			},
			{
				"x": -2.5620625562,
				"y": -0.6467766655,
				"z": 1.3191272353,
				"element": "C" 
			},
			{
				"x": -2.1818901076,
				"y": 0.532688552,
				"z": 2.2269474004,
				"element": "C" 
			},
			{
				"x": -2.7542821618,
				"y": 1.8743059041,
				"z": 1.7574337032,
				"element": "C" 
			},
			{
				"x": -2.0798730515,
				"y": 2.4212354141,
				"z": 0.5183781968,
				"element": "C" 
			},
			{
				"x": -1.1159310068,
				"y": 1.9727562984,
				"z": -0.0381696891,
				"element": "O" 
			},
			{
				"x": -2.7003834636,
				"y": 3.6126399673,
				"z": 0.1363816583,
				"element": "O" 
			},
			{
				"x": -2.6406037939,
				"y": 4.0713777116,
				"z": -1.178772293,
				"element": "C" 
			},
			{
				"x": -2.4827461329,
				"y": 3.3461203699,
				"z": -2.122540616,
				"element": "O" 
			},
			{
				"x": -2.8900296945,
				"y": 5.564721255,
				"z": -1.2116582547,
				"element": "C" 
			},
			{
				"x": -2.765457932,
				"y": 6.1620163667,
				"z": -2.6171835418,
				"element": "C" 
			},
			{
				"x": -1.3173387715,
				"y": 6.2287971784,
				"z": -3.1220177079,
				"element": "C" 
			},
			{
				"x": -1.2133066977,
				"y": 6.6656953189,
				"z": -4.5910505915,
				"element": "C" 
			},
			{
				"x": 0.2168729359,
				"y": 6.6679218322,
				"z": -5.1732006548,
				"element": "C" 
			},
			{
				"x": 0.6974532294,
				"y": 5.3396141864,
				"z": -5.7889383572,
				"element": "C" 
			},
			{
				"x": 0.8341341436,
				"y": 4.1545793128,
				"z": -4.8228421259,
				"element": "C" 
			},
			{
				"x": 1.4450090751,
				"y": 2.9036801399,
				"z": -5.4684870173,
				"element": "C" 
			},
			{
				"x": 1.5898001236,
				"y": 1.7361469226,
				"z": -4.4833545382,
				"element": "C" 
			},
			{
				"x": 2.1691264556,
				"y": 0.46440115,
				"z": -5.121233819,
				"element": "C" 
			},
			{
				"x": 2.388506389,
				"y": -0.7196065871,
				"z": -4.1540859429,
				"element": "C" 
			},
			{
				"x": 1.1971555363,
				"y": -1.6757676779,
				"z": -3.9562477554,
				"element": "C" 
			},
			{
				"x": -0.0468697648,
				"y": -1.0793139042,
				"z": -3.2795789477,
				"element": "C" 
			},
			{
				"x": -1.107680792,
				"y": -2.1220182513,
				"z": -2.887358376,
				"element": "C" 
			},
			{
				"x": -1.7560003224,
				"y": -2.8476836463,
				"z": -4.0728170498,
				"element": "C" 
			},
			{
				"x": 2.9935312644,
				"y": -0.9970950825,
				"z": 5.5514317447,
				"element": "H" 
			},
			{
				"x": 2.3618667758,
				"y": -2.6301198632,
				"z": 5.3390313862,
				"element": "H" 
			},
			{
				"x": 1.4328978108,
				"y": -1.4379271451,
				"z": 6.2537770292,
				"element": "H" 
			},
			{
				"x": 3.2706883085,
				"y": -1.3194602473,
				"z": 7.9675219525,
				"element": "H" 
			},
			{
				"x": 4.1659782604,
				"y": -2.5661594523,
				"z": 7.1263955166,
				"element": "H" 
			},
			{
				"x": 2.7516288372,
				"y": -3.1694723698,
				"z": 9.2376020092,
				"element": "H" 
			},
			{
				"x": 1.3452232876,
				"y": -3.0768375301,
				"z": 8.204830332,
				"element": "H" 
			},
			{
				"x": 3.7622026328,
				"y": -4.9280741886,
				"z": 7.8004559589,
				"element": "H" 
			},
			{
				"x": 2.2915846188,
				"y": -5.387486,
				"z": 8.635061097,
				"element": "H" 
			},
			{
				"x": 2.505888947,
				"y": -4.7439354036,
				"z": 5.6497032891,
				"element": "H" 
			},
			{
				"x": 2.3997271843,
				"y": -6.3291769137,
				"z": 6.3787794254,
				"element": "H" 
			},
			{
				"x": 0.1447166983,
				"y": -5.680387866,
				"z": 7.3665709231,
				"element": "H" 
			},
			{
				"x": 0.1952001827,
				"y": -4.2015392215,
				"z": 6.4313817796,
				"element": "H" 
			},
			{
				"x": 0.2648878831,
				"y": -7.0515357303,
				"z": 5.3013448664,
				"element": "H" 
			},
			{
				"x": -1.1592323797,
				"y": -6.0296263631,
				"z": 5.3686352817,
				"element": "H" 
			},
			{
				"x": -0.1254386869,
				"y": -6.1600155449,
				"z": 3.1033016485,
				"element": "H" 
			},
			{
				"x": 1.349152135,
				"y": -5.4318961369,
				"z": 3.7022745332,
				"element": "H" 
			},
			{
				"x": 0.0895941083,
				"y": -3.3273548864,
				"z": 4.2612413876,
				"element": "H" 
			},
			{
				"x": -1.4036192068,
				"y": -4.0870357834,
				"z": 3.7366273802,
				"element": "H" 
			},
			{
				"x": 1.0477452722,
				"y": -3.6316197579,
				"z": 1.9487490772,
				"element": "H" 
			},
			{
				"x": -0.4830212163,
				"y": -4.3001726865,
				"z": 1.4124517116,
				"element": "H" 
			},
			{
				"x": -0.1618264634,
				"y": -1.8870209199,
				"z": 0.8046804624,
				"element": "H" 
			},
			{
				"x": -0.0726138725,
				"y": -1.4646678934,
				"z": 2.5047777824,
				"element": "H" 
			},
			{
				"x": -2.4467620411,
				"y": -2.1919335282,
				"z": 2.8274793055,
				"element": "H" 
			},
			{
				"x": -2.4982438018,
				"y": -2.795001028,
				"z": 1.1803879351,
				"element": "H" 
			},
			{
				"x": -3.6571758221,
				"y": -0.6834685116,
				"z": 1.2331117155,
				"element": "H" 
			},
			{
				"x": -2.1755450509,
				"y": -0.4624115963,
				"z": 0.3094161996,
				"element": "H" 
			},
			{
				"x": -1.0927760808,
				"y": 0.6217237283,
				"z": 2.2943647819,
				"element": "H" 
			},
			{
				"x": -2.5481379363,
				"y": 0.3400431889,
				"z": 3.2434661172,
				"element": "H" 
			},
			{
				"x": -2.6557923083,
				"y": 2.643362014,
				"z": 2.5349483591,
				"element": "H" 
			},
			{
				"x": -3.8299493677,
				"y": 1.8053096567,
				"z": 1.5509157998,
				"element": "H" 
			},
			{
				"x": -2.1970875356,
				"y": 6.038127532,
				"z": -0.5047012196,
				"element": "H" 
			},
			{
				"x": -3.8918248843,
				"y": 5.7278132779,
				"z": -0.7928968755,
				"element": "H" 
			},
			{
				"x": -3.2059825743,
				"y": 7.1666615462,
				"z": -2.613758522,
				"element": "H" 
			},
			{
				"x": -3.3643905567,
				"y": 5.5566863506,
				"z": -3.3073398536,
				"element": "H" 
			},
			{
				"x": -0.7460263939,
				"y": 6.9293889149,
				"z": -2.495841995,
				"element": "H" 
			},
			{
				"x": -0.8528646531,
				"y": 5.2482984705,
				"z": -2.9905833309,
				"element": "H" 
			},
			{
				"x": -1.6382546596,
				"y": 7.6748553179,
				"z": -4.6801542516,
				"element": "H" 
			},
			{
				"x": -1.8522641084,
				"y": 6.0177284754,
				"z": -5.2078960214,
				"element": "H" 
			},
			{
				"x": 0.2717960163,
				"y": 7.4321587808,
				"z": -5.9587658008,
				"element": "H" 
			},
			{
				"x": 0.9256971418,
				"y": 6.9888319846,
				"z": -4.3962727117,
				"element": "H" 
			},
			{
				"x": 1.6726898454,
				"y": 5.5183742484,
				"z": -6.2633723078,
				"element": "H" 
			},
			{
				"x": 0.0148759246,
				"y": 5.0607760215,
				"z": -6.6048387809,
				"element": "H" 
			},
			{
				"x": -0.1472179301,
				"y": 3.8867960473,
				"z": -4.4129896417,
				"element": "H" 
			},
			{
				"x": 1.4530079641,
				"y": 4.4550934381,
				"z": -3.9647692478,
				"element": "H" 
			},
			{
				"x": 2.4289830972,
				"y": 3.1505781505,
				"z": -5.8934254789,
				"element": "H" 
			},
			{
				"x": 0.8189683248,
				"y": 2.5907897351,
				"z": -6.3168034249,
				"element": "H" 
			},
			{
				"x": 0.6133684478,
				"y": 1.5272316133,
				"z": -4.0318025232,
				"element": "H" 
			},
			{
				"x": 2.242093798,
				"y": 2.0454801741,
				"z": -3.6540761803,
				"element": "H" 
			},
			{
				"x": 1.5252668958,
				"y": 0.1417964485,
				"z": -5.9525061947,
				"element": "H" 
			},
			{
				"x": 3.1330785383,
				"y": 0.7263516593,
				"z": -5.5786955973,
				"element": "H" 
			},
			{
				"x": 3.2273793401,
				"y": -1.3207492638,
				"z": -4.5279612418,
				"element": "H" 
			},
			{
				"x": 2.7116061372,
				"y": -0.3328387423,
				"z": -3.1769564046,
				"element": "H" 
			},
			{
				"x": 1.5442668682,
				"y": -2.5266460886,
				"z": -3.3519687893,
				"element": "H" 
			},
			{
				"x": 0.9216119426,
				"y": -2.0954957056,
				"z": -4.9332847276,
				"element": "H" 
			},
			{
				"x": 0.2598579705,
				"y": -0.5338525182,
				"z": -2.3771518827,
				"element": "H" 
			},
			{
				"x": -0.5129749445,
				"y": -0.335752691,
				"z": -3.9386426749,
				"element": "H" 
			},
			{
				"x": -0.6541684271,
				"y": -2.8612102959,
				"z": -2.2117697217,
				"element": "H" 
			},
			{
				"x": -1.8919677326,
				"y": -1.6199010022,
				"z": -2.3062901675,
				"element": "H" 
			},
			{
				"x": -2.5384024212,
				"y": -3.5359676312,
				"z": -3.7354451786,
				"element": "H" 
			},
			{
				"x": -1.0267952569,
				"y": -3.4342846232,
				"z": -4.6410954012,
				"element": "H" 
			},
			{
				"x": -2.2181135421,
				"y": -2.1340635244,
				"z": -4.7652313393,
				"element": "H" 
			}
		],
		 "valence_orbital": [ 
			{
				"type": "occ",
				"energy": -0.29563,
				"method": "rhf"
			},
			{
				"type": "occ",
				"energy": -0.29343,
				"method": "rhf"
			},
			{
				"type": "occ",
				"energy": -0.28847,
				"method": "rhf"
			},
			{
				"type": "occ",
				"energy": -0.2817,
				"method": "rhf"
			},
			{
				"type": "occ",
				"energy": -0.27008,
				"method": "rhf"
			},
			{
				"type": "unocc",
				"energy": -0.02555,
				"method": "rhf"
			},
			{
				"type": "unocc",
				"energy": 0.01502,
				"method": "rhf"
			},
			{
				"type": "unocc",
				"energy": 0.0706,
				"method": "rhf"
			},
			{
				"type": "unocc",
				"energy": 0.07731,
				"method": "rhf"
			},
			{
				"type": "unocc",
				"energy": 0.08915,
				"method": "rhf"
			}
		],
		"cosmo_sigma_profile": { 
			"-0.025": 0.0,
			"-0.024": 0.0,
			"-0.023": 0.0,
			"-0.022": 0.0,
			"-0.021": 0.0,
			"-0.02": 0.0,
			"-0.019": 0.0,
			"-0.018": 0.0,
			"-0.017": 0.0,
			"-0.016": 0.0,
			"-0.015": 0.0,
			"-0.014": 0.0,
			"-0.013": 0.0,
			"-0.012": 0.0,
			"-0.011": 0.0,
			"-0.01": 0.0,
			"-0.009": 0.0,
			"-0.008": 0.0,
			"-0.007": 2.61666889787,
			"-0.006": 9.68070970167,
			"-0.005": 10.8246484905,
			"-0.004": 11.0849682724,
			"-0.003": 24.8509131468,
			"-0.002": 83.6119168788,
			"-0.001": 157.349028411,
			"0.0": 176.399452545,
			"0.001": 137.411084688,
			"0.002": 57.3725215144,
			"0.003": 6.67934578537,
			"0.004": 3.68465483385,
			"0.005": 4.07573642248,
			"0.006": 4.5575066249,
			"0.007": 4.01180326291,
			"0.008": 3.47329211714,
			"0.009": 3.56983527473,
			"0.01": 6.23005065885,
			"0.011": 5.03011920795,
			"0.012": 2.3373576338,
			"0.013": 0.406602081932,
			"0.014": 0.0,
			"0.015": 0.0,
			"0.016": 0.0,
			"0.017": 0.0,
			"0.018": 0.0,
			"0.019": 0.0,
			"0.02": 0.0,
			"0.021": 0.0,
			"0.022": 0.0,
			"0.023": 0.0,
			"0.024": 0.0,
			"0.025": 0.0
		}
	}
}
