{
	 "smiles": "COCCCN1C(S)=NC2=C(C=CC=C2)C1=O", 
	 "Tm": 454.15, 
	 "num_atms": 31, 
	 "gaussian": { 
		 "optdone": 1, 
		 "sigma_profile": "yes", 
		 "theory": "DFT", 
		 "functional": "B3LYP", 
		 "basiset": "6-31G**", 
		 "properties": { 
			 "R2extent": 5446.0554, 
			 "electric_dipole_moment_norm": 2.33987802674, 
			 "electric_quadrupole_moment_norm": 10.608716199, 
			 "total_energy": -1123.86063745, 
			 "HOMO_LUMO_gap": 0.18031, 
			 "cosmo_polarized_energy": -11.9, 
			 "cosmo_cavitation_energy": 35.18, 
			 "cosmo_dispersion_energy": -25.94, 
			 "cosmo_repulsion_energy": 1.95, 
			 "cosmo_total_nonelectrostatic_energy": 11.18, 
			 "SMD_solvation_energy": 4.75 
		},
		"coords": [
			{
				"x": 3.8491151477,
				"y": 2.3630521663,
				"z": -0.9603071759,
				"element": "C" 
			},
			{
				"x": 3.264482922,
				"y": 3.5082455408,
				"z": -0.3654874695,
				"element": "O" 
			},
			{
				"x": 2.6598543197,
				"y": 3.289216273,
				"z": 0.8943486257,
				"element": "C" 
			},
			{
				"x": 1.3813198142,
				"y": 2.4238608682,
				"z": 0.8581078654,
				"element": "C" 
			},
			{
				"x": 1.6262891817,
				"y": 0.9440871648,
				"z": 1.1898699157,
				"element": "C" 
			},
			{
				"x": 0.4272866489,
				"y": 0.1092691143,
				"z": 0.986163838,
				"element": "N" 
			},
			{
				"x": -0.487438328,
				"y": -0.1629247573,
				"z": 1.9849114808,
				"element": "C" 
			},
			{
				"x": -0.1411799238,
				"y": 0.5345854812,
				"z": 3.5991608165,
				"element": "S" 
			},
			{
				"x": -1.5585785408,
				"y": -0.8734384001,
				"z": 1.848037156,
				"element": "N" 
			},
			{
				"x": -1.8244694002,
				"y": -1.410831787,
				"z": 0.6002110216,
				"element": "C" 
			},
			{
				"x": -0.9694003868,
				"y": -1.1973835282,
				"z": -0.5029887166,
				"element": "C" 
			},
			{
				"x": -1.2696816473,
				"y": -1.7551564625,
				"z": -1.7570689085,
				"element": "C" 
			},
			{
				"x": -2.4120192107,
				"y": -2.5235802554,
				"z": -1.9142211194,
				"element": "C" 
			},
			{
				"x": -3.2678928533,
				"y": -2.739556954,
				"z": -0.8175149792,
				"element": "C" 
			},
			{
				"x": -2.9835049054,
				"y": -2.1929904213,
				"z": 0.4239388115,
				"element": "C" 
			},
			{
				"x": 0.2318511409,
				"y": -0.3829217534,
				"z": -0.3304312075,
				"element": "C" 
			},
			{
				"x": 1.0395904469,
				"y": -0.1160837091,
				"z": -1.2140611344,
				"element": "O" 
			},
			{
				"x": 3.1013002327,
				"y": 1.6251391912,
				"z": -1.2799823774,
				"element": "H" 
			},
			{
				"x": 4.3941516879,
				"y": 2.7099851947,
				"z": -1.8419533188,
				"element": "H" 
			},
			{
				"x": 4.5644031351,
				"y": 1.8740454789,
				"z": -0.2782478659,
				"element": "H" 
			},
			{
				"x": 3.3916030792,
				"y": 2.8586345051,
				"z": 1.6023940271,
				"element": "H" 
			},
			{
				"x": 2.4080766155,
				"y": 4.2890362898,
				"z": 1.2601403577,
				"element": "H" 
			},
			{
				"x": 0.9430352466,
				"y": 2.5076778387,
				"z": -0.1412582569,
				"element": "H" 
			},
			{
				"x": 0.6501552682,
				"y": 2.8265721276,
				"z": 1.5681677423,
				"element": "H" 
			},
			{
				"x": 2.3957140206,
				"y": 0.5236678381,
				"z": 0.5433742935,
				"element": "H" 
			},
			{
				"x": 1.9581739643,
				"y": 0.8234852544,
				"z": 2.2244868976,
				"element": "H" 
			},
			{
				"x": -1.2526702448,
				"y": -0.009218715,
				"z": 4.1265643221,
				"element": "H" 
			},
			{
				"x": -0.5888654887,
				"y": -1.566621452,
				"z": -2.5803738888,
				"element": "H" 
			},
			{
				"x": -2.6488864434,
				"y": -2.9582767309,
				"z": -2.8803261469,
				"element": "H" 
			},
			{
				"x": -4.1628901961,
				"y": -3.3418367489,
				"z": -0.945855542,
				"element": "H" 
			},
			{
				"x": -3.6328253028,
				"y": -2.3490386518,
				"z": 1.2789009365,
				"element": "H" 
			}
		],
		 "valence_orbital": [ 
			{
				"type": "occ",
				"energy": -0.27938,
				"method": "rhf"
			},
			{
				"type": "occ",
				"energy": -0.27142,
				"method": "rhf"
			},
			{
				"type": "occ",
				"energy": -0.26325,
				"method": "rhf"
			},
			{
				"type": "occ",
				"energy": -0.24954,
				"method": "rhf"
			},
			{
				"type": "occ",
				"energy": -0.22657,
				"method": "rhf"
			},
			{
				"type": "unocc",
				"energy": -0.04626,
				"method": "rhf"
			},
			{
				"type": "unocc",
				"energy": -0.03719,
				"method": "rhf"
			},
			{
				"type": "unocc",
				"energy": -0.0012,
				"method": "rhf"
			},
			{
				"type": "unocc",
				"energy": 0.02389,
				"method": "rhf"
			},
			{
				"type": "unocc",
				"energy": 0.05568,
				"method": "rhf"
			}
		],
		"cosmo_sigma_profile": { 
			"-0.025": 0.0,
			"-0.024": 0.0,
			"-0.023": 0.0,
			"-0.022": 0.0,
			"-0.021": 0.0,
			"-0.02": 0.0,
			"-0.019": 0.0,
			"-0.018": 0.0,
			"-0.017": 0.0,
			"-0.016": 0.0,
			"-0.015": 0.0,
			"-0.014": 0.0,
			"-0.013": 0.0,
			"-0.012": 0.621845292866,
			"-0.011": 1.72969114077,
			"-0.01": 0.790142492636,
			"-0.009": 1.06798622519,
			"-0.008": 1.24131277556,
			"-0.007": 3.18003238617,
			"-0.006": 11.1688013282,
			"-0.005": 18.9519567516,
			"-0.004": 30.9484547664,
			"-0.003": 30.8726898553,
			"-0.002": 26.2646393814,
			"-0.001": 20.9114166631,
			"0.0": 16.9992392651,
			"0.001": 19.5173396845,
			"0.002": 21.1664159886,
			"0.003": 20.5473976385,
			"0.004": 15.2630117535,
			"0.005": 7.87054853739,
			"0.006": 6.51350108286,
			"0.007": 3.31643464346,
			"0.008": 3.75457874572,
			"0.009": 3.68564910391,
			"0.01": 4.35976143457,
			"0.011": 4.16545590621,
			"0.012": 3.24893421407,
			"0.013": 3.01385781571,
			"0.014": 0.675992466698,
			"0.015": 0.0,
			"0.016": 0.0,
			"0.017": 0.0,
			"0.018": 0.0,
			"0.019": 0.0,
			"0.02": 0.0,
			"0.021": 0.0,
			"0.022": 0.0,
			"0.023": 0.0,
			"0.024": 0.0,
			"0.025": 0.0
		}
	}
}
