{
	 "smiles": "CC1=CC=C(C=C1)C1CC(=NN1C1=CC=CC=C1)C1=CC=C2C=CC=CC2=C1", 
	 "Tm": 441.15, 
	 "num_atms": 50, 
	 "gaussian": { 
		 "optdone": 1, 
		 "sigma_profile": "yes", 
		 "theory": "DFT", 
		 "functional": "B3LYP", 
		 "basiset": "6-31G**", 
		 "properties": { 
			 "R2extent": 14853.4409, 
			 "electric_dipole_moment_norm": 2.69327692412, 
			 "electric_quadrupole_moment_norm": 12.4387397883, 
			 "total_energy": -1113.52996999, 
			 "HOMO_LUMO_gap": 0.12585, 
			 "cosmo_polarized_energy": -11.98, 
			 "cosmo_cavitation_energy": 52.95, 
			 "cosmo_dispersion_energy": -36.85, 
			 "cosmo_repulsion_energy": 2.75, 
			 "cosmo_total_nonelectrostatic_energy": 18.85, 
			 "SMD_solvation_energy": 7.49 
		},
		"coords": [
			{
				"x": 4.6326800298,
				"y": 2.9639658422,
				"z": 2.8345673703,
				"element": "C" 
			},
			{
				"x": 3.685370909,
				"y": 1.9901743104,
				"z": 2.1740501515,
				"element": "C" 
			},
			{
				"x": 2.325405289,
				"y": 2.2981952332,
				"z": 2.023056635,
				"element": "C" 
			},
			{
				"x": 1.4391446022,
				"y": 1.3942868377,
				"z": 1.441690778,
				"element": "C" 
			},
			{
				"x": 1.8887567897,
				"y": 0.147190394,
				"z": 0.9907562262,
				"element": "C" 
			},
			{
				"x": 3.2432286885,
				"y": -0.1673375152,
				"z": 1.1390518498,
				"element": "C" 
			},
			{
				"x": 4.1282072509,
				"y": 0.7425171458,
				"z": 1.7193977978,
				"element": "C" 
			},
			{
				"x": 0.9510781071,
				"y": -0.8250634589,
				"z": 0.2919179202,
				"element": "C" 
			},
			{
				"x": 0.6968505068,
				"y": -0.4653744375,
				"z": -1.2007656931,
				"element": "C" 
			},
			{
				"x": -0.8095017581,
				"y": -0.2845445239,
				"z": -1.2424749479,
				"element": "C" 
			},
			{
				"x": -1.3699841698,
				"y": -0.5111295508,
				"z": -0.0983193017,
				"element": "N" 
			},
			{
				"x": -0.4256041671,
				"y": -0.8158978451,
				"z": 0.8389320903,
				"element": "N" 
			},
			{
				"x": -0.808524455,
				"y": -1.38974314,
				"z": 2.0553381023,
				"element": "C" 
			},
			{
				"x": -2.1713111454,
				"y": -1.5234795007,
				"z": 2.3859921778,
				"element": "C" 
			},
			{
				"x": -2.540107919,
				"y": -2.0897238591,
				"z": 3.6015559521,
				"element": "C" 
			},
			{
				"x": -1.5777456716,
				"y": -2.5372712567,
				"z": 4.5116377002,
				"element": "C" 
			},
			{
				"x": -0.229304883,
				"y": -2.4039504859,
				"z": 4.1830310829,
				"element": "C" 
			},
			{
				"x": 0.1622265383,
				"y": -1.83573473,
				"z": 2.9708774129,
				"element": "C" 
			},
			{
				"x": -1.5740632527,
				"y": 0.105896394,
				"z": -2.4272380087,
				"element": "C" 
			},
			{
				"x": -0.9082477825,
				"y": 0.3037020867,
				"z": -3.6729950002,
				"element": "C" 
			},
			{
				"x": -1.606281867,
				"y": 0.6637247534,
				"z": -4.8011625201,
				"element": "C" 
			},
			{
				"x": -3.0131050378,
				"y": 0.8518351551,
				"z": -4.7644747869,
				"element": "C" 
			},
			{
				"x": -3.7651452069,
				"y": 1.224347634,
				"z": -5.9100982859,
				"element": "C" 
			},
			{
				"x": -5.1288245804,
				"y": 1.3980909378,
				"z": -5.8320407301,
				"element": "C" 
			},
			{
				"x": -5.8045553028,
				"y": 1.2067279747,
				"z": -4.5999526803,
				"element": "C" 
			},
			{
				"x": -5.1052472827,
				"y": 0.8459844776,
				"z": -3.4715727388,
				"element": "C" 
			},
			{
				"x": -3.6944580477,
				"y": 0.6574474406,
				"z": -3.5165531112,
				"element": "C" 
			},
			{
				"x": -2.9506197482,
				"y": 0.2879438652,
				"z": -2.3725476514,
				"element": "C" 
			},
			{
				"x": 5.6719690319,
				"y": 2.7600854305,
				"z": 2.5609349889,
				"element": "H" 
			},
			{
				"x": 4.4048822832,
				"y": 3.9971648814,
				"z": 2.5536398464,
				"element": "H" 
			},
			{
				"x": 4.564172117,
				"y": 2.9043314224,
				"z": 3.9280119418,
				"element": "H" 
			},
			{
				"x": 1.9548331879,
				"y": 3.2603425001,
				"z": 2.3688551249,
				"element": "H" 
			},
			{
				"x": 0.3877137104,
				"y": 1.6495901652,
				"z": 1.3454175988,
				"element": "H" 
			},
			{
				"x": 3.6127774706,
				"y": -1.1318577954,
				"z": 0.7970755132,
				"element": "H" 
			},
			{
				"x": 5.1772219747,
				"y": 0.4761889588,
				"z": 1.8239895011,
				"element": "H" 
			},
			{
				"x": 1.3642401264,
				"y": -1.8381638024,
				"z": 0.3796937263,
				"element": "H" 
			},
			{
				"x": 1.2282436788,
				"y": 0.4482374705,
				"z": -1.4858253053,
				"element": "H" 
			},
			{
				"x": 1.0270977206,
				"y": -1.2591562283,
				"z": -1.879855642,
				"element": "H" 
			},
			{
				"x": -2.9185267502,
				"y": -1.1858640625,
				"z": 1.6794637387,
				"element": "H" 
			},
			{
				"x": -3.5966253663,
				"y": -2.1858327941,
				"z": 3.8375251075,
				"element": "H" 
			},
			{
				"x": -1.8750164544,
				"y": -2.9793462895,
				"z": 5.4574949434,
				"element": "H" 
			},
			{
				"x": 0.5366496275,
				"y": -2.741606569,
				"z": 4.875943993,
				"element": "H" 
			},
			{
				"x": 1.2170628228,
				"y": -1.7242122986,
				"z": 2.7510010655,
				"element": "H" 
			},
			{
				"x": 0.1672458566,
				"y": 0.168026282,
				"z": -3.7325898249,
				"element": "H" 
			},
			{
				"x": -1.082158211,
				"y": 0.8100874502,
				"z": -5.742225972,
				"element": "H" 
			},
			{
				"x": -3.244146284,
				"y": 1.3704411077,
				"z": -6.8530846872,
				"element": "H" 
			},
			{
				"x": -5.693441459,
				"y": 1.6829090995,
				"z": -6.7151418766,
				"element": "H" 
			},
			{
				"x": -6.8806240298,
				"y": 1.3469554691,
				"z": -4.551671504,
				"element": "H" 
			},
			{
				"x": -5.6208724608,
				"y": 0.6987139291,
				"z": -2.5261465664,
				"element": "H" 
			},
			{
				"x": -3.4648150266,
				"y": 0.1434854948,
				"z": -1.427463502,
				"element": "H" 
			}
		],
		 "valence_orbital": [ 
			{
				"type": "occ",
				"energy": -0.24284,
				"method": "rhf"
			},
			{
				"type": "occ",
				"energy": -0.23885,
				"method": "rhf"
			},
			{
				"type": "occ",
				"energy": -0.23568,
				"method": "rhf"
			},
			{
				"type": "occ",
				"energy": -0.21654,
				"method": "rhf"
			},
			{
				"type": "occ",
				"energy": -0.17655,
				"method": "rhf"
			},
			{
				"type": "unocc",
				"energy": -0.0507,
				"method": "rhf"
			},
			{
				"type": "unocc",
				"energy": -0.02284,
				"method": "rhf"
			},
			{
				"type": "unocc",
				"energy": -0.00698,
				"method": "rhf"
			},
			{
				"type": "unocc",
				"energy": -0.00536,
				"method": "rhf"
			},
			{
				"type": "unocc",
				"energy": 0.01183,
				"method": "rhf"
			}
		],
		"cosmo_sigma_profile": { 
			"-0.025": 0.0,
			"-0.024": 0.0,
			"-0.023": 0.0,
			"-0.022": 0.0,
			"-0.021": 0.0,
			"-0.02": 0.0,
			"-0.019": 0.0,
			"-0.018": 0.0,
			"-0.017": 0.0,
			"-0.016": 0.0,
			"-0.015": 0.0,
			"-0.014": 0.0,
			"-0.013": 0.0,
			"-0.012": 0.0,
			"-0.011": 0.0,
			"-0.01": 0.0,
			"-0.009": 0.0,
			"-0.008": 0.0,
			"-0.007": 0.250734633472,
			"-0.006": 20.2254035668,
			"-0.005": 37.0714635892,
			"-0.004": 41.6163348991,
			"-0.003": 41.4220925413,
			"-0.002": 34.8728196162,
			"-0.001": 30.7875419172,
			"0.0": 27.5733136394,
			"0.001": 25.8498531886,
			"0.002": 26.226500043,
			"0.003": 30.2058406206,
			"0.004": 45.586455089,
			"0.005": 32.7997958231,
			"0.006": 19.2472615756,
			"0.007": 7.41929057476,
			"0.008": 1.57554345959,
			"0.009": 0.455582476066,
			"0.01": 0.0,
			"0.011": 0.0,
			"0.012": 0.0,
			"0.013": 0.0,
			"0.014": 0.0,
			"0.015": 0.0,
			"0.016": 0.0,
			"0.017": 0.0,
			"0.018": 0.0,
			"0.019": 0.0,
			"0.02": 0.0,
			"0.021": 0.0,
			"0.022": 0.0,
			"0.023": 0.0,
			"0.024": 0.0,
			"0.025": 0.0
		}
	}
}
