{
	 "smiles": "ClC1=C(Cl)C=C(C=C1)N1CCNCC1", 
	 "Tm": 336.15, 
	 "num_atms": 26, 
	 "gaussian": { 
		 "optdone": 1, 
		 "sigma_profile": "yes", 
		 "theory": "DFT", 
		 "functional": "B3LYP", 
		 "basiset": "6-31G**", 
		 "properties": { 
			 "R2extent": 4905.2431, 
			 "electric_dipole_moment_norm": 4.39211081031, 
			 "electric_quadrupole_moment_norm": 14.0076170365, 
			 "total_energy": -1418.16662343, 
			 "HOMO_LUMO_gap": 0.18096, 
			 "cosmo_polarized_energy": -8.82, 
			 "cosmo_cavitation_energy": 31.04, 
			 "cosmo_dispersion_energy": -23.25, 
			 "cosmo_repulsion_energy": 1.83, 
			 "cosmo_total_nonelectrostatic_energy": 9.62, 
			 "SMD_solvation_energy": 1.03 
		},
		"coords": [
			{
				"x": 2.388901573,
				"y": -2.2879174774,
				"z": 3.4353759871,
				"element": "Cl" 
			},
			{
				"x": 1.3286635537,
				"y": -1.3856732677,
				"z": 2.3767932711,
				"element": "C" 
			},
			{
				"x": 1.0419766668,
				"y": -0.0337502524,
				"z": 2.580068654,
				"element": "C" 
			},
			{
				"x": 1.7523568919,
				"y": 0.8536273991,
				"z": 3.9128748614,
				"element": "Cl" 
			},
			{
				"x": 0.1967659301,
				"y": 0.6581513859,
				"z": 1.7119141927,
				"element": "C" 
			},
			{
				"x": -0.4137299117,
				"y": 0.015542352,
				"z": 0.6165577974,
				"element": "C" 
			},
			{
				"x": -0.1194588801,
				"y": -1.3546417593,
				"z": 0.4294985281,
				"element": "C" 
			},
			{
				"x": 0.7359853461,
				"y": -2.0297592435,
				"z": 1.2870560199,
				"element": "C" 
			},
			{
				"x": -1.3152722122,
				"y": 0.6713333989,
				"z": -0.225329287,
				"element": "N" 
			},
			{
				"x": -1.3218655709,
				"y": 0.4114155984,
				"z": -1.6696560944,
				"element": "C" 
			},
			{
				"x": -0.5057099782,
				"y": 1.4731479376,
				"z": -2.421729711,
				"element": "C" 
			},
			{
				"x": -1.0396622653,
				"y": 2.8001061137,
				"z": -2.1100842042,
				"element": "N" 
			},
			{
				"x": -0.9679951652,
				"y": 3.0893584512,
				"z": -0.6755328102,
				"element": "C" 
			},
			{
				"x": -1.7872373789,
				"y": 2.0251151803,
				"z": 0.065710907,
				"element": "C" 
			},
			{
				"x": 0.0453678737,
				"y": 1.7126325479,
				"z": 1.8975837677,
				"element": "H" 
			},
			{
				"x": -0.5907486647,
				"y": -1.910052854,
				"z": -0.3728305424,
				"element": "H" 
			},
			{
				"x": 0.9390120946,
				"y": -3.0834087729,
				"z": 1.1281445445,
				"element": "H" 
			},
			{
				"x": -0.9222365653,
				"y": -0.5804764593,
				"z": -1.8788418923,
				"element": "H" 
			},
			{
				"x": -2.3600105277,
				"y": 0.4408580392,
				"z": -2.0237491046,
				"element": "H" 
			},
			{
				"x": -0.5884280714,
				"y": 1.3017200265,
				"z": -3.5010523296,
				"element": "H" 
			},
			{
				"x": 0.5586840566,
				"y": 1.3567357075,
				"z": -2.1420755775,
				"element": "H" 
			},
			{
				"x": -0.5378555576,
				"y": 3.5098700649,
				"z": -2.6355376145,
				"element": "H" 
			},
			{
				"x": -1.3954631543,
				"y": 4.0813756545,
				"z": -0.4910399244,
				"element": "H" 
			},
			{
				"x": 0.0669147785,
				"y": 3.0893868541,
				"z": -0.285080355,
				"element": "H" 
			},
			{
				"x": -1.7940972038,
				"y": 2.1960357748,
				"z": 1.1432282454,
				"element": "H" 
			},
			{
				"x": -2.8258576579,
				"y": 2.0920676,
				"z": -0.2831673293,
				"element": "H" 
			}
		],
		 "valence_orbital": [ 
			{
				"type": "occ",
				"energy": -0.30031,
				"method": "rhf"
			},
			{
				"type": "occ",
				"energy": -0.27455,
				"method": "rhf"
			},
			{
				"type": "occ",
				"energy": -0.25074,
				"method": "rhf"
			},
			{
				"type": "occ",
				"energy": -0.23655,
				"method": "rhf"
			},
			{
				"type": "occ",
				"energy": -0.19693,
				"method": "rhf"
			},
			{
				"type": "unocc",
				"energy": -0.01597,
				"method": "rhf"
			},
			{
				"type": "unocc",
				"energy": -0.00203,
				"method": "rhf"
			},
			{
				"type": "unocc",
				"energy": 0.01083,
				"method": "rhf"
			},
			{
				"type": "unocc",
				"energy": 0.06923,
				"method": "rhf"
			},
			{
				"type": "unocc",
				"energy": 0.07633,
				"method": "rhf"
			}
		],
		"cosmo_sigma_profile": { 
			"-0.025": 0.0,
			"-0.024": 0.0,
			"-0.023": 0.0,
			"-0.022": 0.0,
			"-0.021": 0.0,
			"-0.02": 0.0,
			"-0.019": 0.0,
			"-0.018": 0.0,
			"-0.017": 0.0,
			"-0.016": 0.0,
			"-0.015": 0.0,
			"-0.014": 0.0,
			"-0.013": 0.0,
			"-0.012": 0.0,
			"-0.011": 0.0511720822721,
			"-0.01": 1.30667481209,
			"-0.009": 1.25955011782,
			"-0.008": 3.12811328066,
			"-0.007": 7.06371535972,
			"-0.006": 8.83841481416,
			"-0.005": 8.44242617814,
			"-0.004": 18.0479609262,
			"-0.003": 23.4327493571,
			"-0.002": 29.2088790263,
			"-0.001": 22.5977336751,
			"0.0": 13.3137779824,
			"0.001": 16.6654749455,
			"0.002": 20.7723610072,
			"0.003": 22.4921083098,
			"0.004": 26.6988288826,
			"0.005": 13.7968292603,
			"0.006": 4.38058123216,
			"0.007": 1.8524272959,
			"0.008": 1.19298861956,
			"0.009": 0.8973805879,
			"0.01": 0.795203210518,
			"0.011": 0.523298705551,
			"0.012": 0.217803534168,
			"0.013": 0.288576262051,
			"0.014": 0.966781495679,
			"0.015": 0.456133920321,
			"0.016": 0.397318732771,
			"0.017": 0.388739587822,
			"0.018": 0.190669245356,
			"0.019": 0.0,
			"0.02": 0.0,
			"0.021": 0.0,
			"0.022": 0.0,
			"0.023": 0.0,
			"0.024": 0.0,
			"0.025": 0.0
		}
	}
}
