{
	 "smiles": "CC(=O)NCCC1=CNC2=C1C=C(O)C=C2", 
	 "Tm": 394.15, 
	 "num_atms": 30, 
	 "gaussian": { 
		 "optdone": 1, 
		 "sigma_profile": "yes", 
		 "theory": "DFT", 
		 "functional": "B3LYP", 
		 "basiset": "6-31G**", 
		 "properties": { 
			 "R2extent": 4674.7877, 
			 "electric_dipole_moment_norm": 3.29657418846, 
			 "electric_quadrupole_moment_norm": 28.541796911, 
			 "total_energy": -725.68404064, 
			 "HOMO_LUMO_gap": 0.1831, 
			 "cosmo_polarized_energy": -20.95, 
			 "cosmo_cavitation_energy": 33.54, 
			 "cosmo_dispersion_energy": -23.05, 
			 "cosmo_repulsion_energy": 1.82, 
			 "cosmo_total_nonelectrostatic_energy": 12.31, 
			 "SMD_solvation_energy": 5.98 
		},
		"coords": [
			{
				"x": 1.3050130904,
				"y": -1.444645805,
				"z": 3.7323125446,
				"element": "C" 
			},
			{
				"x": 2.2224112867,
				"y": -2.418921296,
				"z": 3.0100884077,
				"element": "C" 
			},
			{
				"x": 2.2847558126,
				"y": -3.6041544242,
				"z": 3.3160272249,
				"element": "O" 
			},
			{
				"x": 3.0232249645,
				"y": -1.9128253933,
				"z": 2.0137033473,
				"element": "N" 
			},
			{
				"x": 2.9689077789,
				"y": -0.6143130678,
				"z": 1.3653229991,
				"element": "C" 
			},
			{
				"x": 2.2634370797,
				"y": -0.6388890889,
				"z": -0.0135963461,
				"element": "C" 
			},
			{
				"x": 0.7981401241,
				"y": -0.9535077202,
				"z": 0.0500182098,
				"element": "C" 
			},
			{
				"x": 0.2086923572,
				"y": -2.1861532344,
				"z": -0.1045441512,
				"element": "C" 
			},
			{
				"x": -1.1573058617,
				"y": -2.0866639688,
				"z": 0.0613337966,
				"element": "N" 
			},
			{
				"x": -1.484160485,
				"y": -0.7711129457,
				"z": 0.3364102007,
				"element": "C" 
			},
			{
				"x": -0.2714560554,
				"y": -0.0268976586,
				"z": 0.3366516614,
				"element": "C" 
			},
			{
				"x": -0.3121499819,
				"y": 1.35579343,
				"z": 0.5859175151,
				"element": "C" 
			},
			{
				"x": -1.5428318104,
				"y": 1.9569275617,
				"z": 0.8264881522,
				"element": "C" 
			},
			{
				"x": -1.5499878966,
				"y": 3.3091431132,
				"z": 1.0671567257,
				"element": "O" 
			},
			{
				"x": -2.7364358311,
				"y": 1.2022620282,
				"z": 0.8236116916,
				"element": "C" 
			},
			{
				"x": -2.7191991475,
				"y": -0.1663975038,
				"z": 0.5772073197,
				"element": "C" 
			},
			{
				"x": 1.8746760454,
				"y": -0.6329512037,
				"z": 4.197766399,
				"element": "H" 
			},
			{
				"x": 0.7799834559,
				"y": -2.0011098966,
				"z": 4.5082787234,
				"element": "H" 
			},
			{
				"x": 0.5764303447,
				"y": -0.9946625053,
				"z": 3.0516659906,
				"element": "H" 
			},
			{
				"x": 3.5876269534,
				"y": -2.6295005912,
				"z": 1.5739800034,
				"element": "H" 
			},
			{
				"x": 3.9934130685,
				"y": -0.2424134748,
				"z": 1.2343600303,
				"element": "H" 
			},
			{
				"x": 2.4612831835,
				"y": 0.0885768383,
				"z": 2.0292190244,
				"element": "H" 
			},
			{
				"x": 2.7775330269,
				"y": -1.3693155673,
				"z": -0.6509981103,
				"element": "H" 
			},
			{
				"x": 2.416986379,
				"y": 0.3398836371,
				"z": -0.486990674,
				"element": "H" 
			},
			{
				"x": 0.6662878508,
				"y": -3.1414516066,
				"z": -0.3210693832,
				"element": "H" 
			},
			{
				"x": -1.8059447194,
				"y": -2.8544505187,
				"z": 0.0106834274,
				"element": "H" 
			},
			{
				"x": 0.5844064115,
				"y": 1.9674252164,
				"z": 0.5917727652,
				"element": "H" 
			},
			{
				"x": -2.4597573521,
				"y": 3.596308306,
				"z": 1.2137948945,
				"element": "H" 
			},
			{
				"x": -3.6837273941,
				"y": 1.7013558116,
				"z": 1.0161611994,
				"element": "H" 
			},
			{
				"x": -3.6426526784,
				"y": -0.7383384716,
				"z": 0.5752664108,
				"element": "H" 
			}
		],
		 "valence_orbital": [ 
			{
				"type": "occ",
				"energy": -0.27405,
				"method": "rhf"
			},
			{
				"type": "occ",
				"energy": -0.2386,
				"method": "rhf"
			},
			{
				"type": "occ",
				"energy": -0.23179,
				"method": "rhf"
			},
			{
				"type": "occ",
				"energy": -0.20904,
				"method": "rhf"
			},
			{
				"type": "occ",
				"energy": -0.19595,
				"method": "rhf"
			},
			{
				"type": "unocc",
				"energy": -0.01285,
				"method": "rhf"
			},
			{
				"type": "unocc",
				"energy": 0.03619,
				"method": "rhf"
			},
			{
				"type": "unocc",
				"energy": 0.04183,
				"method": "rhf"
			},
			{
				"type": "unocc",
				"energy": 0.05905,
				"method": "rhf"
			},
			{
				"type": "unocc",
				"energy": 0.07372,
				"method": "rhf"
			}
		],
		"cosmo_sigma_profile": { 
			"-0.025": 0.0,
			"-0.024": 0.0,
			"-0.023": 0.0,
			"-0.022": 0.0,
			"-0.021": 0.0,
			"-0.02": 0.0,
			"-0.019": 0.0,
			"-0.018": 0.00238996648963,
			"-0.017": 0.624452082846,
			"-0.016": 1.1727262677,
			"-0.015": 2.37721306192,
			"-0.014": 2.51871622247,
			"-0.013": 2.88357110226,
			"-0.012": 3.34160954931,
			"-0.011": 2.42187503,
			"-0.01": 2.97269397401,
			"-0.009": 3.53760974887,
			"-0.008": 4.58650677794,
			"-0.007": 6.49360263067,
			"-0.006": 8.18460097984,
			"-0.005": 14.5418622165,
			"-0.004": 21.176835056,
			"-0.003": 21.7222008498,
			"-0.002": 18.6677413889,
			"-0.001": 18.7189310473,
			"0.0": 16.8020261728,
			"0.001": 11.317405181,
			"0.002": 11.0440482151,
			"0.003": 13.060132075,
			"0.004": 11.0145365206,
			"0.005": 13.3785572326,
			"0.006": 17.0608971735,
			"0.007": 6.78493600441,
			"0.008": 2.86429016792,
			"0.009": 3.54995704198,
			"0.01": 2.02692323663,
			"0.011": 3.32111402471,
			"0.012": 3.24562761158,
			"0.013": 3.03089900545,
			"0.014": 5.18969040609,
			"0.015": 4.2229293881,
			"0.016": 0.698522053631,
			"0.017": 0.0,
			"0.018": 0.0,
			"0.019": 0.0,
			"0.02": 0.0,
			"0.021": 0.0,
			"0.022": 0.0,
			"0.023": 0.0,
			"0.024": 0.0,
			"0.025": 0.0
		}
	}
}
