{
	 "smiles": "CC(C)(C)C1=NN(CCO)C(N)=C1", 
	 "Tm": 376.15, 
	 "num_atms": 30, 
	 "gaussian": { 
		 "optdone": 1, 
		 "sigma_profile": "yes", 
		 "theory": "DFT", 
		 "functional": "B3LYP", 
		 "basiset": "6-31G**", 
		 "properties": { 
			 "R2extent": 2992.4267, 
			 "electric_dipole_moment_norm": 4.50501983236, 
			 "electric_quadrupole_moment_norm": 13.9349237016, 
			 "total_energy": -592.672767391, 
			 "HOMO_LUMO_gap": 0.23833, 
			 "cosmo_polarized_energy": -12.95, 
			 "cosmo_cavitation_energy": 31.29, 
			 "cosmo_dispersion_energy": -21.91, 
			 "cosmo_repulsion_energy": 1.76, 
			 "cosmo_total_nonelectrostatic_energy": 11.15, 
			 "SMD_solvation_energy": 4.84 
		},
		"coords": [
			{
				"x": 0.0572985026,
				"y": -1.2023714281,
				"z": 1.9316464512,
				"element": "C" 
			},
			{
				"x": -0.175788822,
				"y": 0.3251987246,
				"z": 1.8995001296,
				"element": "C" 
			},
			{
				"x": 0.7196994589,
				"y": 0.9975238168,
				"z": 2.9557581696,
				"element": "C" 
			},
			{
				"x": -1.6573405437,
				"y": 0.6244336653,
				"z": 2.2203498456,
				"element": "C" 
			},
			{
				"x": 0.1561095419,
				"y": 0.8540531453,
				"z": 0.511426595,
				"element": "C" 
			},
			{
				"x": -0.5248790909,
				"y": 0.4202790992,
				"z": -0.5520844205,
				"element": "N" 
			},
			{
				"x": 0.0197728881,
				"y": 1.0621311894,
				"z": -1.6274929822,
				"element": "N" 
			},
			{
				"x": -0.4651930929,
				"y": 0.7875074613,
				"z": -2.9751544724,
				"element": "C" 
			},
			{
				"x": -0.7819062076,
				"y": -0.699806566,
				"z": -3.1732324305,
				"element": "C" 
			},
			{
				"x": -1.9011245778,
				"y": -1.1204950365,
				"z": -2.4292345863,
				"element": "O" 
			},
			{
				"x": 1.0063378698,
				"y": 1.9184479624,
				"z": -1.2503321419,
				"element": "C" 
			},
			{
				"x": 1.7294218723,
				"y": 2.653560068,
				"z": -2.1991026239,
				"element": "N" 
			},
			{
				"x": 1.1290646016,
				"y": 1.8068738656,
				"z": 0.1283541249,
				"element": "C" 
			},
			{
				"x": -0.1907526058,
				"y": -1.6075432686,
				"z": 2.9193672097,
				"element": "H" 
			},
			{
				"x": 1.1037463521,
				"y": -1.4444777271,
				"z": 1.7176482126,
				"element": "H" 
			},
			{
				"x": -0.5633326405,
				"y": -1.7073826884,
				"z": 1.1865717003,
				"element": "H" 
			},
			{
				"x": 1.7802031701,
				"y": 0.7970806038,
				"z": 2.7691791496,
				"element": "H" 
			},
			{
				"x": 0.5750081429,
				"y": 2.0831548112,
				"z": 2.9721941556,
				"element": "H" 
			},
			{
				"x": 0.4784656953,
				"y": 0.6140287916,
				"z": 3.9525642266,
				"element": "H" 
			},
			{
				"x": -1.9228766621,
				"y": 0.2303971521,
				"z": 3.2080034396,
				"element": "H" 
			},
			{
				"x": -1.8484304166,
				"y": 1.7028799833,
				"z": 2.2216554874,
				"element": "H" 
			},
			{
				"x": -2.3165069063,
				"y": 0.1680378661,
				"z": 1.4773088702,
				"element": "H" 
			},
			{
				"x": 0.3213332807,
				"y": 1.1064610066,
				"z": -3.6663077995,
				"element": "H" 
			},
			{
				"x": -1.3713192422,
				"y": 1.3740085167,
				"z": -3.1750965306,
				"element": "H" 
			},
			{
				"x": -1.0144588419,
				"y": -0.8604665254,
				"z": -4.2322741146,
				"element": "H" 
			},
			{
				"x": 0.1222122558,
				"y": -1.2860701137,
				"z": -2.9392342832,
				"element": "H" 
			},
			{
				"x": -1.7013240833,
				"y": -0.8622381601,
				"z": -1.5096640615,
				"element": "H" 
			},
			{
				"x": 1.1561383476,
				"y": 3.299693991,
				"z": -2.732753777,
				"element": "H" 
			},
			{
				"x": 2.4911150218,
				"y": 3.1628343545,
				"z": -1.7684033878,
				"element": "H" 
			},
			{
				"x": 1.8156067321,
				"y": 2.3515654391,
				"z": 0.7580398442,
				"element": "H" 
			}
		],
		 "valence_orbital": [ 
			{
				"type": "occ",
				"energy": -0.30948,
				"method": "rhf"
			},
			{
				"type": "occ",
				"energy": -0.27582,
				"method": "rhf"
			},
			{
				"type": "occ",
				"energy": -0.25049,
				"method": "rhf"
			},
			{
				"type": "occ",
				"energy": -0.23455,
				"method": "rhf"
			},
			{
				"type": "occ",
				"energy": -0.21409,
				"method": "rhf"
			},
			{
				"type": "unocc",
				"energy": 0.02424,
				"method": "rhf"
			},
			{
				"type": "unocc",
				"energy": 0.06553,
				"method": "rhf"
			},
			{
				"type": "unocc",
				"energy": 0.07832,
				"method": "rhf"
			},
			{
				"type": "unocc",
				"energy": 0.09007,
				"method": "rhf"
			},
			{
				"type": "unocc",
				"energy": 0.11272,
				"method": "rhf"
			}
		],
		"cosmo_sigma_profile": { 
			"-0.025": 0.0,
			"-0.024": 0.0,
			"-0.023": 0.0,
			"-0.022": 0.0,
			"-0.021": 0.0,
			"-0.02": 0.0,
			"-0.019": 0.0,
			"-0.018": 0.0,
			"-0.017": 0.0,
			"-0.016": 0.0,
			"-0.015": 0.0,
			"-0.014": 0.0,
			"-0.013": 1.26959811254,
			"-0.012": 3.09883168846,
			"-0.011": 3.05920714578,
			"-0.01": 3.0674210777,
			"-0.009": 3.08098487946,
			"-0.008": 2.34626043843,
			"-0.007": 2.41006953905,
			"-0.006": 4.8258092419,
			"-0.005": 11.3952811782,
			"-0.004": 11.5084159448,
			"-0.003": 18.7236951976,
			"-0.002": 29.7621231842,
			"-0.001": 24.4574674321,
			"0.0": 23.0137407637,
			"0.001": 26.1602001187,
			"0.002": 18.7200487798,
			"0.003": 9.06669500207,
			"0.004": 7.23573828299,
			"0.005": 8.22635624465,
			"0.006": 8.40023177817,
			"0.007": 5.11424636757,
			"0.008": 2.35503654547,
			"0.009": 2.72984640835,
			"0.01": 2.08963967617,
			"0.011": 2.17696543732,
			"0.012": 1.27213881065,
			"0.013": 2.17354789869,
			"0.014": 2.30415993979,
			"0.015": 2.46244303645,
			"0.016": 0.264261953223,
			"0.017": 0.0,
			"0.018": 0.0,
			"0.019": 0.0,
			"0.02": 0.0,
			"0.021": 0.0,
			"0.022": 0.0,
			"0.023": 0.0,
			"0.024": 0.0,
			"0.025": 0.0
		}
	}
}
