{
	 "smiles": "CS(=O)(=O)C1=CC=C(OCCN)C=C1", 
	 "Tm": 337.15, 
	 "num_atms": 27, 
	 "gaussian": { 
		 "optdone": 1, 
		 "sigma_profile": "yes", 
		 "theory": "DFT", 
		 "functional": "B3LYP", 
		 "basiset": "6-31G**", 
		 "properties": { 
			 "R2extent": 5196.0768, 
			 "electric_dipole_moment_norm": 7.37669874198, 
			 "electric_quadrupole_moment_norm": 24.7961324458, 
			 "total_energy": -1029.32409828, 
			 "HOMO_LUMO_gap": 0.21216, 
			 "cosmo_polarized_energy": -21.53, 
			 "cosmo_cavitation_energy": 32.19, 
			 "cosmo_dispersion_energy": -23.81, 
			 "cosmo_repulsion_energy": 1.87, 
			 "cosmo_total_nonelectrostatic_energy": 10.25, 
			 "SMD_solvation_energy": 4.35 
		},
		"coords": [
			{
				"x": 3.3081214656,
				"y": 2.4006713966,
				"z": 0.3239461461,
				"element": "C" 
			},
			{
				"x": 1.7259717538,
				"y": 2.9722921073,
				"z": -0.3449515196,
				"element": "S" 
			},
			{
				"x": 1.361642191,
				"y": 4.1946320243,
				"z": 0.3896988755,
				"element": "O" 
			},
			{
				"x": 1.8502609157,
				"y": 2.9741983669,
				"z": -1.8119663055,
				"element": "O" 
			},
			{
				"x": 0.5722209737,
				"y": 1.6817276059,
				"z": 0.1131298362,
				"element": "C" 
			},
			{
				"x": 0.3202947211,
				"y": 0.6375751263,
				"z": -0.7748609897,
				"element": "C" 
			},
			{
				"x": -0.5719852488,
				"y": -0.375829368,
				"z": -0.4243377974,
				"element": "C" 
			},
			{
				"x": -1.2139959907,
				"y": -0.3346709854,
				"z": 0.8233420519,
				"element": "C" 
			},
			{
				"x": -2.0923196884,
				"y": -1.2647547103,
				"z": 1.2685338985,
				"element": "O" 
			},
			{
				"x": -2.446574844,
				"y": -2.3511497137,
				"z": 0.4162846337,
				"element": "C" 
			},
			{
				"x": -3.4835818069,
				"y": -3.2093788721,
				"z": 1.1287925907,
				"element": "C" 
			},
			{
				"x": -4.7549060853,
				"y": -2.5055103951,
				"z": 1.2746279457,
				"element": "N" 
			},
			{
				"x": -0.961919255,
				"y": 0.7309313953,
				"z": 1.7073415279,
				"element": "C" 
			},
			{
				"x": -0.0755169539,
				"y": 1.7363754191,
				"z": 1.3544295891,
				"element": "C" 
			},
			{
				"x": 4.0436777389,
				"y": 3.1663889656,
				"z": 0.0688081257,
				"element": "H" 
			},
			{
				"x": 3.572129511,
				"y": 1.4498067904,
				"z": -0.1408651134,
				"element": "H" 
			},
			{
				"x": 3.2252799037,
				"y": 2.2997700058,
				"z": 1.4069596233,
				"element": "H" 
			},
			{
				"x": 0.8068385496,
				"y": 0.6301123024,
				"z": -1.7446724095,
				"element": "H" 
			},
			{
				"x": -0.763315685,
				"y": -1.1796519175,
				"z": -1.1244531272,
				"element": "H" 
			},
			{
				"x": -2.8511670698,
				"y": -1.9689387862,
				"z": -0.5322853065,
				"element": "H" 
			},
			{
				"x": -1.5577245741,
				"y": -2.9564435036,
				"z": 0.187803558,
				"element": "H" 
			},
			{
				"x": -3.5439353415,
				"y": -4.1660764573,
				"z": 0.5780827394,
				"element": "H" 
			},
			{
				"x": -3.1006219731,
				"y": -3.4433684326,
				"z": 2.1280545486,
				"element": "H" 
			},
			{
				"x": -5.3655978765,
				"y": -3.0091831869,
				"z": 1.9108459203,
				"element": "H" 
			},
			{
				"x": -5.2392507476,
				"y": -2.4584628165,
				"z": 0.3814617105,
				"element": "H" 
			},
			{
				"x": -1.4874258625,
				"y": 0.7474119081,
				"z": 2.6560785638,
				"element": "H" 
			},
			{
				"x": 0.1030012792,
				"y": 2.5754257315,
				"z": 2.0187706838,
				"element": "H" 
			}
		],
		 "valence_orbital": [ 
			{
				"type": "occ",
				"energy": -0.2862,
				"method": "rhf"
			},
			{
				"type": "occ",
				"energy": -0.2787,
				"method": "rhf"
			},
			{
				"type": "occ",
				"energy": -0.26841,
				"method": "rhf"
			},
			{
				"type": "occ",
				"energy": -0.24723,
				"method": "rhf"
			},
			{
				"type": "occ",
				"energy": -0.23613,
				"method": "rhf"
			},
			{
				"type": "unocc",
				"energy": -0.02397,
				"method": "rhf"
			},
			{
				"type": "unocc",
				"energy": -0.0173,
				"method": "rhf"
			},
			{
				"type": "unocc",
				"energy": 0.06861,
				"method": "rhf"
			},
			{
				"type": "unocc",
				"energy": 0.07267,
				"method": "rhf"
			},
			{
				"type": "unocc",
				"energy": 0.0891,
				"method": "rhf"
			}
		],
		"cosmo_sigma_profile": { 
			"-0.025": 0.0,
			"-0.024": 0.0,
			"-0.023": 0.0,
			"-0.022": 0.0,
			"-0.021": 0.0,
			"-0.02": 0.0,
			"-0.019": 0.0,
			"-0.018": 0.0,
			"-0.017": 0.0,
			"-0.016": 0.0,
			"-0.015": 0.0,
			"-0.014": 0.0,
			"-0.013": 0.0,
			"-0.012": 0.0,
			"-0.011": 0.0181622875701,
			"-0.01": 1.59380062196,
			"-0.009": 3.90268859404,
			"-0.008": 9.65382857562,
			"-0.007": 14.6380770626,
			"-0.006": 20.6475646105,
			"-0.005": 22.7445840271,
			"-0.004": 24.5957482818,
			"-0.003": 19.3410786619,
			"-0.002": 14.3842693771,
			"-0.001": 11.2454766973,
			"0.0": 9.20814758407,
			"0.001": 11.2762307715,
			"0.002": 15.62904603,
			"0.003": 15.1830663438,
			"0.004": 5.83927582264,
			"0.005": 4.32099360039,
			"0.006": 4.62451770401,
			"0.007": 3.62103201918,
			"0.008": 3.61494643481,
			"0.009": 4.87290809675,
			"0.01": 4.85655430801,
			"0.011": 8.70874298432,
			"0.012": 10.6892691472,
			"0.013": 3.82678168683,
			"0.014": 0.781772098505,
			"0.015": 0.962741002542,
			"0.016": 0.613432253289,
			"0.017": 0.875884649951,
			"0.018": 0.802950681924,
			"0.019": 0.724602765521,
			"0.02": 0.25001955321,
			"0.021": 0.0,
			"0.022": 0.0,
			"0.023": 0.0,
			"0.024": 0.0,
			"0.025": 0.0
		}
	}
}
