{
	 "smiles": "ClC1=C(Br)C=C(S1)S(Cl)(=O)=O", 
	 "Tm": 337.15, 
	 "num_atms": 12, 
	 "gaussian": { 
		 "optdone": 1, 
		 "sigma_profile": "yes", 
		 "theory": "DFT", 
		 "functional": "B3LYP", 
		 "basiset": "6-31G**", 
		 "properties": { 
			 "R2extent": 4726.392, 
			 "electric_dipole_moment_norm": 3.45806857219, 
			 "electric_quadrupole_moment_norm": 8.90454993416, 
			 "total_energy": -4591.53071164, 
			 "HOMO_LUMO_gap": 0.16262, 
			 "cosmo_polarized_energy": -6.92, 
			 "cosmo_cavitation_energy": 26.53, 
			 "cosmo_dispersion_energy": -20.84, 
			 "cosmo_repulsion_energy": 1.6, 
			 "cosmo_total_nonelectrostatic_energy": 7.29, 
			 "SMD_solvation_energy": 1.58 
		},
		"coords": [
			{
				"x": 2.8761690334,
				"y": -1.8995630632,
				"z": -0.3349892604,
				"element": "Cl" 
			},
			{
				"x": 1.3367590919,
				"y": -1.2851952989,
				"z": 0.1060091714,
				"element": "C" 
			},
			{
				"x": 0.1252458199,
				"y": -1.5554619189,
				"z": -0.4900883808,
				"element": "C" 
			},
			{
				"x": -0.099218104,
				"y": -2.6900269713,
				"z": -1.9762323528,
				"element": "Br" 
			},
			{
				"x": -0.9578110392,
				"y": -0.8881223099,
				"z": 0.1425428719,
				"element": "C" 
			},
			{
				"x": -0.5345734234,
				"y": -0.137109667,
				"z": 1.2071306504,
				"element": "C" 
			},
			{
				"x": 1.18459291,
				"y": -0.213751988,
				"z": 1.469147876,
				"element": "S" 
			},
			{
				"x": -1.5795829118,
				"y": 0.8397278057,
				"z": 2.2316875514,
				"element": "S" 
			},
			{
				"x": -1.5291091091,
				"y": 2.724622582,
				"z": 1.2535188663,
				"element": "Cl" 
			},
			{
				"x": -0.9177182098,
				"y": 1.0319694931,
				"z": 3.5144486042,
				"element": "O" 
			},
			{
				"x": -2.9435114849,
				"y": 0.3503289435,
				"z": 2.0983395676,
				"element": "O" 
			},
			{
				"x": -1.990442573,
				"y": -0.9655176072,
				"z": -0.1720151654,
				"element": "H" 
			}
		],
		 "valence_orbital": [ 
			{
				"type": "occ",
				"energy": -0.33999,
				"method": "rhf"
			},
			{
				"type": "occ",
				"energy": -0.32578,
				"method": "rhf"
			},
			{
				"type": "occ",
				"energy": -0.3197,
				"method": "rhf"
			},
			{
				"type": "occ",
				"energy": -0.29617,
				"method": "rhf"
			},
			{
				"type": "occ",
				"energy": -0.27144,
				"method": "rhf"
			},
			{
				"type": "unocc",
				"energy": -0.10882,
				"method": "rhf"
			},
			{
				"type": "unocc",
				"energy": -0.069,
				"method": "rhf"
			},
			{
				"type": "unocc",
				"energy": -0.04041,
				"method": "rhf"
			},
			{
				"type": "unocc",
				"energy": -0.02581,
				"method": "rhf"
			},
			{
				"type": "unocc",
				"energy": -0.0053,
				"method": "rhf"
			}
		],
		"cosmo_sigma_profile": { 
			"-0.025": 0.0,
			"-0.024": 0.0,
			"-0.023": 0.0,
			"-0.022": 0.0,
			"-0.021": 0.0,
			"-0.02": 0.0,
			"-0.019": 0.0,
			"-0.018": 0.0,
			"-0.017": 0.0,
			"-0.016": 0.0,
			"-0.015": 0.0,
			"-0.014": 0.0,
			"-0.013": 0.0,
			"-0.012": 0.0,
			"-0.011": 0.627801173789,
			"-0.01": 1.41979390365,
			"-0.009": 1.50125134232,
			"-0.008": 1.52891430891,
			"-0.007": 3.35482330219,
			"-0.006": 4.94969838787,
			"-0.005": 9.29358473526,
			"-0.004": 13.3841971754,
			"-0.003": 19.9039715453,
			"-0.002": 28.2271015045,
			"-0.001": 21.0293455992,
			"0.0": 20.8430521148,
			"0.001": 19.8484404548,
			"0.002": 26.9377672584,
			"0.003": 22.7591271627,
			"0.004": 4.62402587071,
			"0.005": 2.93297460923,
			"0.006": 4.266672488,
			"0.007": 8.73666404614,
			"0.008": 8.02948955471,
			"0.009": 0.823950065065,
			"0.01": 0.0,
			"0.011": 0.0,
			"0.012": 0.0,
			"0.013": 0.0,
			"0.014": 0.0,
			"0.015": 0.0,
			"0.016": 0.0,
			"0.017": 0.0,
			"0.018": 0.0,
			"0.019": 0.0,
			"0.02": 0.0,
			"0.021": 0.0,
			"0.022": 0.0,
			"0.023": 0.0,
			"0.024": 0.0,
			"0.025": 0.0
		}
	}
}
