{
	 "smiles": "CN1CCN(CC1)C1=C(F)C=C(CO)C=C1", 
	 "Tm": 361.15, 
	 "num_atms": 33, 
	 "gaussian": { 
		 "optdone": 1, 
		 "sigma_profile": "yes", 
		 "theory": "DFT", 
		 "functional": "B3LYP", 
		 "basiset": "6-31G**", 
		 "properties": { 
			 "R2extent": 5768.3697, 
			 "electric_dipole_moment_norm": 2.28728184096, 
			 "electric_quadrupole_moment_norm": 10.7337449015, 
			 "total_energy": -752.047587053, 
			 "HOMO_LUMO_gap": 0.19072, 
			 "cosmo_polarized_energy": -9.77, 
			 "cosmo_cavitation_energy": 34.26, 
			 "cosmo_dispersion_energy": -25.02, 
			 "cosmo_repulsion_energy": 1.92, 
			 "cosmo_total_nonelectrostatic_energy": 11.17, 
			 "SMD_solvation_energy": 2.27 
		},
		"coords": [
			{
				"x": 1.7539494671,
				"y": -3.6711983979,
				"z": -1.3629147083,
				"element": "C" 
			},
			{
				"x": 1.9929994443,
				"y": -2.2517220779,
				"z": -1.1574096061,
				"element": "N" 
			},
			{
				"x": 2.215981477,
				"y": -1.8675199555,
				"z": 0.2455993238,
				"element": "C" 
			},
			{
				"x": 0.9917050744,
				"y": -1.2327439558,
				"z": 0.9177528612,
				"element": "C" 
			},
			{
				"x": 0.5658609214,
				"y": -0.0417170468,
				"z": 0.1616667796,
				"element": "N" 
			},
			{
				"x": 0.9579424591,
				"y": -0.0138702378,
				"z": -1.2450701183,
				"element": "C" 
			},
			{
				"x": 0.9653534627,
				"y": -1.4331913508,
				"z": -1.8054101011,
				"element": "C" 
			},
			{
				"x": 0.2474988376,
				"y": 1.1520146704,
				"z": 0.8001785672,
				"element": "C" 
			},
			{
				"x": -0.4248339054,
				"y": 1.1805821853,
				"z": 2.041175499,
				"element": "C" 
			},
			{
				"x": -0.7737699123,
				"y": 0.004281095,
				"z": 2.6298351733,
				"element": "F" 
			},
			{
				"x": -0.7625811983,
				"y": 2.352595028,
				"z": 2.6934383974,
				"element": "C" 
			},
			{
				"x": -0.4797919941,
				"y": 3.5948395631,
				"z": 2.1120135581,
				"element": "C" 
			},
			{
				"x": -0.887399743,
				"y": 4.8863695531,
				"z": 2.7907957579,
				"element": "C" 
			},
			{
				"x": 0.0076076469,
				"y": 5.9636147818,
				"z": 2.544148735,
				"element": "O" 
			},
			{
				"x": 0.1609045167,
				"y": 3.6018682607,
				"z": 0.8702414113,
				"element": "C" 
			},
			{
				"x": 0.5231892414,
				"y": 2.4151047501,
				"z": 0.2345724978,
				"element": "C" 
			},
			{
				"x": 0.8139032146,
				"y": -4.0400354381,
				"z": -0.9075869274,
				"element": "H" 
			},
			{
				"x": 2.5845887832,
				"y": -4.2549789962,
				"z": -0.9544309799,
				"element": "H" 
			},
			{
				"x": 1.7005515247,
				"y": -3.8787484785,
				"z": -2.437549124,
				"element": "H" 
			},
			{
				"x": 3.0510520702,
				"y": -1.1553973598,
				"z": 0.3014832666,
				"element": "H" 
			},
			{
				"x": 2.5192096615,
				"y": -2.7517540385,
				"z": 0.8154669549,
				"element": "H" 
			},
			{
				"x": 0.1744312492,
				"y": -1.9631169927,
				"z": 0.9919148271,
				"element": "H" 
			},
			{
				"x": 1.2542370354,
				"y": -0.9438618735,
				"z": 1.9370071577,
				"element": "H" 
			},
			{
				"x": 1.9509476141,
				"y": 0.4422554298,
				"z": -1.4009883148,
				"element": "H" 
			},
			{
				"x": 0.2335388219,
				"y": 0.5892048105,
				"z": -1.8033907466,
				"element": "H" 
			},
			{
				"x": -0.0479628513,
				"y": -1.8585473685,
				"z": -1.6725242879,
				"element": "H" 
			},
			{
				"x": 1.1569176842,
				"y": -1.3980618632,
				"z": -2.8856429489,
				"element": "H" 
			},
			{
				"x": -1.2696092582,
				"y": 2.2756514721,
				"z": 3.651224309,
				"element": "H" 
			},
			{
				"x": -1.0194207451,
				"y": 4.7092925767,
				"z": 3.8704748501,
				"element": "H" 
			},
			{
				"x": -1.8558095553,
				"y": 5.2324845396,
				"z": 2.4086797496,
				"element": "H" 
			},
			{
				"x": 0.8900019203,
				"y": 5.6665919394,
				"z": 2.804493789,
				"element": "H" 
			},
			{
				"x": 0.3962298991,
				"y": 4.5540388338,
				"z": 0.4048967286,
				"element": "H" 
			},
			{
				"x": 1.0420771358,
				"y": 2.4679759421,
				"z": -0.7153423308,
				"element": "H" 
			}
		],
		 "valence_orbital": [ 
			{
				"type": "occ",
				"energy": -0.28292,
				"method": "rhf"
			},
			{
				"type": "occ",
				"energy": -0.26432,
				"method": "rhf"
			},
			{
				"type": "occ",
				"energy": -0.24199,
				"method": "rhf"
			},
			{
				"type": "occ",
				"energy": -0.20826,
				"method": "rhf"
			},
			{
				"type": "occ",
				"energy": -0.18828,
				"method": "rhf"
			},
			{
				"type": "unocc",
				"energy": 0.00244,
				"method": "rhf"
			},
			{
				"type": "unocc",
				"energy": 0.00932,
				"method": "rhf"
			},
			{
				"type": "unocc",
				"energy": 0.07473,
				"method": "rhf"
			},
			{
				"type": "unocc",
				"energy": 0.09119,
				"method": "rhf"
			},
			{
				"type": "unocc",
				"energy": 0.09387,
				"method": "rhf"
			}
		],
		"cosmo_sigma_profile": { 
			"-0.025": 0.0,
			"-0.024": 0.0,
			"-0.023": 0.0,
			"-0.022": 0.0,
			"-0.021": 0.0,
			"-0.02": 0.0,
			"-0.019": 0.0,
			"-0.018": 0.0,
			"-0.017": 0.0,
			"-0.016": 0.0165691957428,
			"-0.015": 0.591833923605,
			"-0.014": 0.818195402205,
			"-0.013": 1.00564235136,
			"-0.012": 0.80456938254,
			"-0.011": 0.742925027549,
			"-0.01": 0.494140728106,
			"-0.009": 0.985471771782,
			"-0.008": 0.432057579012,
			"-0.007": 1.42927307715,
			"-0.006": 4.01454918263,
			"-0.005": 11.3189037592,
			"-0.004": 24.6838809226,
			"-0.003": 34.6520805303,
			"-0.002": 38.4833862813,
			"-0.001": 27.9628786166,
			"0.0": 22.5354670928,
			"0.001": 12.6821797334,
			"0.002": 12.7480523527,
			"0.003": 13.2405061227,
			"0.004": 15.5278027274,
			"0.005": 17.4620288278,
			"0.006": 7.05465083572,
			"0.007": 2.79973311249,
			"0.008": 1.94075756882,
			"0.009": 1.8740763231,
			"0.01": 1.71581534644,
			"0.011": 1.37479065014,
			"0.012": 2.56248424064,
			"0.013": 1.97445680744,
			"0.014": 2.49630669108,
			"0.015": 0.82105187263,
			"0.016": 0.255437686823,
			"0.017": 0.174811687177,
			"0.018": 0.0,
			"0.019": 0.0,
			"0.02": 0.0,
			"0.021": 0.0,
			"0.022": 0.0,
			"0.023": 0.0,
			"0.024": 0.0,
			"0.025": 0.0
		}
	}
}
