{
	 "smiles": "CC1C2C(CC3=CC=CC=C3)NC(=O)C22OC(=O)OC=CC(C)(O)C(=O)C(C)CC=CC2C2OC12C", 
	 "Tm": 479.15, 
	 "num_atms": 69, 
	 "gaussian": { 
		 "optdone": 1, 
		 "sigma_profile": "yes", 
		 "theory": "DFT", 
		 "functional": "B3LYP", 
		 "basiset": "6-31G**", 
		 "properties": { 
			 "R2extent": 16121.2631, 
			 "electric_dipole_moment_norm": 6.68508775933, 
			 "electric_quadrupole_moment_norm": 15.9146145062, 
			 "total_energy": -1668.11974838, 
			 "HOMO_LUMO_gap": 0.19527, 
			 "cosmo_polarized_energy": -33.04, 
			 "cosmo_cavitation_energy": 65.21, 
			 "cosmo_dispersion_energy": -40.39, 
			 "cosmo_repulsion_energy": 2.94, 
			 "cosmo_total_nonelectrostatic_energy": 27.76, 
			 "SMD_solvation_energy": 12.0 
		},
		"coords": [
			{
				"x": -1.3429535012,
				"y": -3.9803981254,
				"z": -0.713652976,
				"element": "C" 
			},
			{
				"x": -1.0561709571,
				"y": -2.7943509043,
				"z": 0.2223614787,
				"element": "C" 
			},
			{
				"x": -1.0697724868,
				"y": -1.4378770561,
				"z": -0.5272286482,
				"element": "C" 
			},
			{
				"x": -2.382829763,
				"y": -1.1719472409,
				"z": -1.3326392626,
				"element": "C" 
			},
			{
				"x": -2.3295345566,
				"y": -1.4550932893,
				"z": -2.8586530012,
				"element": "C" 
			},
			{
				"x": -1.1052737973,
				"y": -0.991532467,
				"z": -3.621552872,
				"element": "C" 
			},
			{
				"x": -0.2316961888,
				"y": -1.9325656598,
				"z": -4.187376133,
				"element": "C" 
			},
			{
				"x": 0.8983376742,
				"y": -1.5304057022,
				"z": -4.9021749319,
				"element": "C" 
			},
			{
				"x": 1.1759503034,
				"y": -0.1719526083,
				"z": -5.0595755354,
				"element": "C" 
			},
			{
				"x": 0.3157023228,
				"y": 0.775610559,
				"z": -4.5006065513,
				"element": "C" 
			},
			{
				"x": -0.8176324407,
				"y": 0.3706263175,
				"z": -3.7943573627,
				"element": "C" 
			},
			{
				"x": -2.6853002862,
				"y": 0.217589845,
				"z": -1.0305421646,
				"element": "N" 
			},
			{
				"x": -2.0338557606,
				"y": 0.765366243,
				"z": 0.0330464171,
				"element": "C" 
			},
			{
				"x": -2.342213937,
				"y": 1.7865782588,
				"z": 0.6166145105,
				"element": "O" 
			},
			{
				"x": -0.8568593733,
				"y": -0.1901758782,
				"z": 0.3895221253,
				"element": "C" 
			},
			{
				"x": 0.4654910621,
				"y": 0.3801942525,
				"z": 0.1266356858,
				"element": "O" 
			},
			{
				"x": 0.6741724752,
				"y": 1.4716381067,
				"z": -0.6305909329,
				"element": "C" 
			},
			{
				"x": -0.1128315631,
				"y": 2.0930789969,
				"z": -1.2880547604,
				"element": "O" 
			},
			{
				"x": 1.9870511787,
				"y": 1.8355027866,
				"z": -0.5695383887,
				"element": "O" 
			},
			{
				"x": 2.9418996075,
				"y": 0.9695024997,
				"z": -0.0577905104,
				"element": "C" 
			},
			{
				"x": 3.8454224137,
				"y": 1.354904297,
				"z": 0.8422554105,
				"element": "C" 
			},
			{
				"x": 3.9172150522,
				"y": 2.6762114186,
				"z": 1.5795560509,
				"element": "C" 
			},
			{
				"x": 3.9308193982,
				"y": 3.8979171553,
				"z": 0.6589154606,
				"element": "C" 
			},
			{
				"x": 5.1366565223,
				"y": 2.6022478993,
				"z": 2.3396535326,
				"element": "O" 
			},
			{
				"x": 2.7236908392,
				"y": 2.7418960386,
				"z": 2.5843485156,
				"element": "C" 
			},
			{
				"x": 1.8402224369,
				"y": 3.5658744132,
				"z": 2.4526716996,
				"element": "O" 
			},
			{
				"x": 2.735078272,
				"y": 1.7565773168,
				"z": 3.7591278361,
				"element": "C" 
			},
			{
				"x": 2.6341584145,
				"y": 2.540088856,
				"z": 5.0800040064,
				"element": "C" 
			},
			{
				"x": 1.6205775692,
				"y": 0.678053164,
				"z": 3.6186524872,
				"element": "C" 
			},
			{
				"x": 0.2063766677,
				"y": 1.1951822967,
				"z": 3.5395621823,
				"element": "C" 
			},
			{
				"x": -0.8067287057,
				"y": 0.710099925,
				"z": 2.8106884607,
				"element": "C" 
			},
			{
				"x": -0.7655591409,
				"y": -0.5051413461,
				"z": 1.9108256313,
				"element": "C" 
			},
			{
				"x": -1.7965203016,
				"y": -1.5527477555,
				"z": 2.3085291899,
				"element": "C" 
			},
			{
				"x": -2.9635781072,
				"y": -1.7149809445,
				"z": 1.4806219689,
				"element": "O" 
			},
			{
				"x": -1.947704954,
				"y": -2.7518055008,
				"z": 1.4734648458,
				"element": "C" 
			},
			{
				"x": -2.3848930998,
				"y": -4.0574124032,
				"z": 2.0982879088,
				"element": "C" 
			},
			{
				"x": -1.1663471265,
				"y": -4.9331793099,
				"z": -0.2070043612,
				"element": "H" 
			},
			{
				"x": -0.6835065805,
				"y": -3.9458374317,
				"z": -1.5863155777,
				"element": "H" 
			},
			{
				"x": -2.377239086,
				"y": -3.9858050257,
				"z": -1.0714480976,
				"element": "H" 
			},
			{
				"x": -0.0302677673,
				"y": -2.9368864617,
				"z": 0.5966097937,
				"element": "H" 
			},
			{
				"x": -0.2350335984,
				"y": -1.4479183439,
				"z": -1.2332825764,
				"element": "H" 
			},
			{
				"x": -3.1840386765,
				"y": -1.7987856739,
				"z": -0.9237126074,
				"element": "H" 
			},
			{
				"x": -2.443087656,
				"y": -2.5348622943,
				"z": -2.9991896582,
				"element": "H" 
			},
			{
				"x": -3.2311346372,
				"y": -1.0037345966,
				"z": -3.2950741763,
				"element": "H" 
			},
			{
				"x": -0.4468078943,
				"y": -2.9933774733,
				"z": -4.0778716659,
				"element": "H" 
			},
			{
				"x": 1.556965396,
				"y": -2.2774744045,
				"z": -5.3367479846,
				"element": "H" 
			},
			{
				"x": 2.0541949147,
				"y": 0.1463855532,
				"z": -5.6141204678,
				"element": "H" 
			},
			{
				"x": 0.5251675051,
				"y": 1.83556125,
				"z": -4.6087069554,
				"element": "H" 
			},
			{
				"x": -1.4663881115,
				"y": 1.1188207623,
				"z": -3.353475019,
				"element": "H" 
			},
			{
				"x": -3.5672336542,
				"y": 0.6325807297,
				"z": -1.3007043164,
				"element": "H" 
			},
			{
				"x": 2.944555495,
				"y": -0.0203234281,
				"z": -0.502533883,
				"element": "H" 
			},
			{
				"x": 4.6069032611,
				"y": 0.6324952566,
				"z": 1.1206394748,
				"element": "H" 
			},
			{
				"x": 4.7902642187,
				"y": 3.8359829044,
				"z": -0.0134972509,
				"element": "H" 
			},
			{
				"x": 4.0048968938,
				"y": 4.8145563972,
				"z": 1.2548157459,
				"element": "H" 
			},
			{
				"x": 3.0149568409,
				"y": 3.9589891791,
				"z": 0.0726683316,
				"element": "H" 
			},
			{
				"x": 5.3115136917,
				"y": 3.4858587701,
				"z": 2.690515735,
				"element": "H" 
			},
			{
				"x": 3.6926358264,
				"y": 1.2284464998,
				"z": 3.7463187946,
				"element": "H" 
			},
			{
				"x": 2.5763070163,
				"y": 1.8535745247,
				"z": 5.9311768902,
				"element": "H" 
			},
			{
				"x": 3.5149217636,
				"y": 3.1751565124,
				"z": 5.2223215923,
				"element": "H" 
			},
			{
				"x": 1.7541971291,
				"y": 3.1876660063,
				"z": 5.0897607068,
				"element": "H" 
			},
			{
				"x": 1.7182749611,
				"y": 0.0307638457,
				"z": 4.5043038091,
				"element": "H" 
			},
			{
				"x": 1.8530617466,
				"y": 0.053459913,
				"z": 2.75174152,
				"element": "H" 
			},
			{
				"x": -0.0152138507,
				"y": 2.0563658392,
				"z": 4.1655840293,
				"element": "H" 
			},
			{
				"x": -1.7665784666,
				"y": 1.2117619807,
				"z": 2.8670604195,
				"element": "H" 
			},
			{
				"x": 0.2098299517,
				"y": -0.9929949558,
				"z": 2.0342318516,
				"element": "H" 
			},
			{
				"x": -1.9960236777,
				"y": -1.6230425213,
				"z": 3.3783844829,
				"element": "H" 
			},
			{
				"x": -3.0383686688,
				"y": -4.6219600396,
				"z": 1.425986369,
				"element": "H" 
			},
			{
				"x": -2.9358114643,
				"y": -3.8646061528,
				"z": 3.0220912383,
				"element": "H" 
			},
			{
				"x": -1.5204789842,
				"y": -4.6877915758,
				"z": 2.3358624399,
				"element": "H" 
			}
		],
		 "valence_orbital": [ 
			{
				"type": "occ",
				"energy": -0.24726,
				"method": "rhf"
			},
			{
				"type": "occ",
				"energy": -0.24489,
				"method": "rhf"
			},
			{
				"type": "occ",
				"energy": -0.23798,
				"method": "rhf"
			},
			{
				"type": "occ",
				"energy": -0.2326,
				"method": "rhf"
			},
			{
				"type": "occ",
				"energy": -0.2211,
				"method": "rhf"
			},
			{
				"type": "unocc",
				"energy": -0.02583,
				"method": "rhf"
			},
			{
				"type": "unocc",
				"energy": -0.00161,
				"method": "rhf"
			},
			{
				"type": "unocc",
				"energy": 0.00067,
				"method": "rhf"
			},
			{
				"type": "unocc",
				"energy": 0.00733,
				"method": "rhf"
			},
			{
				"type": "unocc",
				"energy": 0.01546,
				"method": "rhf"
			}
		],
		"cosmo_sigma_profile": { 
			"-0.025": 0.0,
			"-0.024": 0.0,
			"-0.023": 0.0,
			"-0.022": 0.0,
			"-0.021": 0.0,
			"-0.02": 0.0,
			"-0.019": 0.0,
			"-0.018": 0.0,
			"-0.017": 0.0153657262761,
			"-0.016": 0.61908984673,
			"-0.015": 1.21174261227,
			"-0.014": 1.77604916895,
			"-0.013": 2.31450954147,
			"-0.012": 2.17141192599,
			"-0.011": 2.51508687399,
			"-0.01": 1.80626722168,
			"-0.009": 2.9228209272,
			"-0.008": 4.97744007413,
			"-0.007": 5.97952301673,
			"-0.006": 12.53680317,
			"-0.005": 26.2728382845,
			"-0.004": 51.1547545651,
			"-0.003": 59.8022734624,
			"-0.002": 54.2664979099,
			"-0.001": 46.3193096568,
			"0.0": 42.4182099233,
			"0.001": 31.6751009481,
			"0.002": 26.3000384967,
			"0.003": 20.7349137195,
			"0.004": 18.5910860298,
			"0.005": 15.5389882071,
			"0.006": 15.8765357677,
			"0.007": 10.6629442108,
			"0.008": 7.55979451252,
			"0.009": 7.20994976002,
			"0.01": 7.58189128868,
			"0.011": 10.5511422414,
			"0.012": 9.62140195305,
			"0.013": 6.12799443218,
			"0.014": 2.40156520509,
			"0.015": 0.0260832268543,
			"0.016": 0.0,
			"0.017": 0.0,
			"0.018": 0.0,
			"0.019": 0.0,
			"0.02": 0.0,
			"0.021": 0.0,
			"0.022": 0.0,
			"0.023": 0.0,
			"0.024": 0.0,
			"0.025": 0.0
		}
	}
}
