{
	 "smiles": "CC1CCC=C1C", 
	 "Tm": 155.15, 
	 "num_atms": 19, 
	 "gaussian": { 
		 "optdone": 1, 
		 "sigma_profile": "yes", 
		 "theory": "DFT", 
		 "functional": "B3LYP", 
		 "basiset": "6-31G**", 
		 "properties": { 
			 "R2extent": 993.9335, 
			 "electric_dipole_moment_norm": 0.230371048528, 
			 "electric_quadrupole_moment_norm": 1.3867450703, 
			 "total_energy": -273.973588255, 
			 "HOMO_LUMO_gap": 0.25868, 
			 "cosmo_polarized_energy": -1.24, 
			 "cosmo_cavitation_energy": 20.36, 
			 "cosmo_dispersion_energy": -15.03, 
			 "cosmo_repulsion_energy": 1.28, 
			 "cosmo_total_nonelectrostatic_energy": 6.6, 
			 "SMD_solvation_energy": 3.38 
		},
		"coords": [
			{
				"x": -1.8553227709,
				"y": 2.105299978,
				"z": -0.0382645133,
				"element": "C" 
			},
			{
				"x": -0.4858332654,
				"y": 1.5770049978,
				"z": 0.4301180009,
				"element": "C" 
			},
			{
				"x": -0.5824783986,
				"y": 0.2379842683,
				"z": 1.2146595876,
				"element": "C" 
			},
			{
				"x": -0.1908099108,
				"y": -0.8728876087,
				"z": 0.204989037,
				"element": "C" 
			},
			{
				"x": 0.5630798153,
				"y": -0.1082268566,
				"z": -0.8561352499,
				"element": "C" 
			},
			{
				"x": 0.4241687327,
				"y": 1.2181906514,
				"z": -0.7397332544,
				"element": "C" 
			},
			{
				"x": 1.0197836897,
				"y": 2.2675225535,
				"z": -1.6304330654,
				"element": "C" 
			},
			{
				"x": -2.3768528711,
				"y": 1.3552654424,
				"z": -0.6434267251,
				"element": "H" 
			},
			{
				"x": -2.4919745366,
				"y": 2.351612743,
				"z": 0.8185977018,
				"element": "H" 
			},
			{
				"x": -1.7536043715,
				"y": 3.0113101793,
				"z": -0.6454409587,
				"element": "H" 
			},
			{
				"x": -0.0237205205,
				"y": 2.3568749725,
				"z": 1.0526819275,
				"element": "H" 
			},
			{
				"x": 0.1386049157,
				"y": 0.2464676556,
				"z": 2.0388945499,
				"element": "H" 
			},
			{
				"x": -1.5727470642,
				"y": 0.0830469525,
				"z": 1.6551894521,
				"element": "H" 
			},
			{
				"x": 0.4112566826,
				"y": -1.6628795243,
				"z": 0.6708998969,
				"element": "H" 
			},
			{
				"x": -1.0722524139,
				"y": -1.3747368609,
				"z": -0.2212614208,
				"element": "H" 
			},
			{
				"x": 1.1307304009,
				"y": -0.5992248554,
				"z": -1.6428569261,
				"element": "H" 
			},
			{
				"x": 0.2444771173,
				"y": 2.8779087377,
				"z": -2.1109638378,
				"element": "H" 
			},
			{
				"x": 1.6340092934,
				"y": 1.8245389956,
				"z": -2.419772451,
				"element": "H" 
			},
			{
				"x": 1.6503854759,
				"y": 2.9606275783,
				"z": -1.0578417512,
				"element": "H" 
			}
		],
		 "valence_orbital": [ 
			{
				"type": "occ",
				"energy": -0.33269,
				"method": "rhf"
			},
			{
				"type": "occ",
				"energy": -0.32595,
				"method": "rhf"
			},
			{
				"type": "occ",
				"energy": -0.31864,
				"method": "rhf"
			},
			{
				"type": "occ",
				"energy": -0.31068,
				"method": "rhf"
			},
			{
				"type": "occ",
				"energy": -0.22364,
				"method": "rhf"
			},
			{
				"type": "unocc",
				"energy": 0.03504,
				"method": "rhf"
			},
			{
				"type": "unocc",
				"energy": 0.08992,
				"method": "rhf"
			},
			{
				"type": "unocc",
				"energy": 0.11914,
				"method": "rhf"
			},
			{
				"type": "unocc",
				"energy": 0.12771,
				"method": "rhf"
			},
			{
				"type": "unocc",
				"energy": 0.14085,
				"method": "rhf"
			}
		],
		"cosmo_sigma_profile": { 
			"-0.025": 0.0,
			"-0.024": 0.0,
			"-0.023": 0.0,
			"-0.022": 0.0,
			"-0.021": 0.0,
			"-0.02": 0.0,
			"-0.019": 0.0,
			"-0.018": 0.0,
			"-0.017": 0.0,
			"-0.016": 0.0,
			"-0.015": 0.0,
			"-0.014": 0.0,
			"-0.013": 0.0,
			"-0.012": 0.0,
			"-0.011": 0.0,
			"-0.01": 0.0,
			"-0.009": 0.0,
			"-0.008": 0.0,
			"-0.007": 0.0,
			"-0.006": 0.0,
			"-0.005": 0.0363242655028,
			"-0.004": 2.37233679389,
			"-0.003": 12.5967690689,
			"-0.002": 24.7753347471,
			"-0.001": 27.9133013665,
			"0.0": 33.3905642236,
			"0.001": 27.4774325711,
			"0.002": 14.1170262726,
			"0.003": 4.5066696912,
			"0.004": 3.39720966033,
			"0.005": 3.09880663998,
			"0.006": 2.34984528928,
			"0.007": 1.48270991207,
			"0.008": 0.226332775974,
			"0.009": 0.0,
			"0.01": 0.0,
			"0.011": 0.0,
			"0.012": 0.0,
			"0.013": 0.0,
			"0.014": 0.0,
			"0.015": 0.0,
			"0.016": 0.0,
			"0.017": 0.0,
			"0.018": 0.0,
			"0.019": 0.0,
			"0.02": 0.0,
			"0.021": 0.0,
			"0.022": 0.0,
			"0.023": 0.0,
			"0.024": 0.0,
			"0.025": 0.0
		}
	}
}
