{
	 "smiles": "OC(C1=C(F)C(F)=C(F)C(F)=C1F)C1=C(F)C(F)=C(F)C(F)=C1F", 
	 "Tm": 351.15, 
	 "num_atms": 26, 
	 "gaussian": { 
		 "optdone": 1, 
		 "sigma_profile": "yes", 
		 "theory": "DFT", 
		 "functional": "B3LYP", 
		 "basiset": "6-31G**", 
		 "properties": { 
			 "R2extent": 7788.1445, 
			 "electric_dipole_moment_norm": 0.321744588144, 
			 "electric_quadrupole_moment_norm": 2.85406115912, 
			 "total_energy": -1570.07344409, 
			 "HOMO_LUMO_gap": 0.21661, 
			 "cosmo_polarized_energy": -6.48, 
			 "cosmo_cavitation_energy": 36.12, 
			 "cosmo_dispersion_energy": -24.53, 
			 "cosmo_repulsion_energy": 1.64, 
			 "cosmo_total_nonelectrostatic_energy": 13.23, 
			 "SMD_solvation_energy": 10.31 
		},
		"coords": [
			{
				"x": -1.0143259821,
				"y": -1.9583999693,
				"z": 1.1628824045,
				"element": "O" 
			},
			{
				"x": -0.0800234854,
				"y": -0.9236722407,
				"z": 0.9603147865,
				"element": "C" 
			},
			{
				"x": -0.637061967,
				"y": 0.4562092846,
				"z": 1.3180112776,
				"element": "C" 
			},
			{
				"x": -0.0189614722,
				"y": 1.2616066383,
				"z": 2.2748443329,
				"element": "C" 
			},
			{
				"x": 1.0961957997,
				"y": 0.8414968016,
				"z": 2.8911245212,
				"element": "F" 
			},
			{
				"x": -0.5266416682,
				"y": 2.5119075368,
				"z": 2.6258269669,
				"element": "C" 
			},
			{
				"x": 0.0898465971,
				"y": 3.260524855,
				"z": 3.5449079342,
				"element": "F" 
			},
			{
				"x": -1.6888555476,
				"y": 2.9768751718,
				"z": 2.0160571867,
				"element": "C" 
			},
			{
				"x": -2.1862924872,
				"y": 4.1702232981,
				"z": 2.3447930691,
				"element": "F" 
			},
			{
				"x": -2.3337537172,
				"y": 2.1925075633,
				"z": 1.059915058,
				"element": "C" 
			},
			{
				"x": -3.4503008445,
				"y": 2.6347560631,
				"z": 0.4737661888,
				"element": "F" 
			},
			{
				"x": -1.7999982429,
				"y": 0.9523417438,
				"z": 0.7288263858,
				"element": "C" 
			},
			{
				"x": -2.4386443191,
				"y": 0.2092009233,
				"z": -0.1979778151,
				"element": "F" 
			},
			{
				"x": 0.5488258029,
				"y": -0.9183543793,
				"z": -0.437722693,
				"element": "C" 
			},
			{
				"x": 1.8417847115,
				"y": -0.4117003436,
				"z": -0.5944776125,
				"element": "C" 
			},
			{
				"x": 2.4906125899,
				"y": 0.0702091649,
				"z": 0.4798458205,
				"element": "F" 
			},
			{
				"x": 2.4929636044,
				"y": -0.382848164,
				"z": -1.8234362134,
				"element": "C" 
			},
			{
				"x": 3.7314367244,
				"y": 0.1076181941,
				"z": -1.9270494346,
				"element": "F" 
			},
			{
				"x": 1.8396884556,
				"y": -0.8747336997,
				"z": -2.9516518843,
				"element": "C" 
			},
			{
				"x": 2.4465658838,
				"y": -0.8557275248,
				"z": -4.1395443999,
				"element": "F" 
			},
			{
				"x": 0.5492175728,
				"y": -1.3831967247,
				"z": -2.8334642619,
				"element": "C" 
			},
			{
				"x": -0.0844396757,
				"y": -1.8530898143,
				"z": -3.9120468236,
				"element": "F" 
			},
			{
				"x": -0.0788154834,
				"y": -1.39617612,
				"z": -1.5890202369,
				"element": "C" 
			},
			{
				"x": -1.330155202,
				"y": -1.8950090707,
				"z": -1.5440122927,
				"element": "F" 
			},
			{
				"x": -1.7178081982,
				"y": -1.8704925424,
				"z": 0.5061233102,
				"element": "H" 
			},
			{
				"x": 0.7294405507,
				"y": -1.121476645,
				"z": 1.6650644248,
				"element": "H" 
			}
		],
		 "valence_orbital": [ 
			{
				"type": "occ",
				"energy": -0.3059,
				"method": "rhf"
			},
			{
				"type": "occ",
				"energy": -0.28213,
				"method": "rhf"
			},
			{
				"type": "occ",
				"energy": -0.26986,
				"method": "rhf"
			},
			{
				"type": "occ",
				"energy": -0.26774,
				"method": "rhf"
			},
			{
				"type": "occ",
				"energy": -0.26729,
				"method": "rhf"
			},
			{
				"type": "unocc",
				"energy": -0.05068,
				"method": "rhf"
			},
			{
				"type": "unocc",
				"energy": -0.03215,
				"method": "rhf"
			},
			{
				"type": "unocc",
				"energy": -0.02695,
				"method": "rhf"
			},
			{
				"type": "unocc",
				"energy": -0.02468,
				"method": "rhf"
			},
			{
				"type": "unocc",
				"energy": -0.00394,
				"method": "rhf"
			}
		],
		"cosmo_sigma_profile": { 
			"-0.025": 0.0,
			"-0.024": 0.0,
			"-0.023": 0.0,
			"-0.022": 0.0,
			"-0.021": 0.0,
			"-0.02": 0.0,
			"-0.019": 0.0,
			"-0.018": 0.0,
			"-0.017": 0.0,
			"-0.016": 0.0,
			"-0.015": 0.0,
			"-0.014": 0.0326083302622,
			"-0.013": 0.284075617542,
			"-0.012": 0.551220644338,
			"-0.011": 0.271883941984,
			"-0.01": 0.612144128022,
			"-0.009": 0.721769820891,
			"-0.008": 1.75481453801,
			"-0.007": 2.02761019485,
			"-0.006": 2.76082584045,
			"-0.005": 6.320099413,
			"-0.004": 34.5535396802,
			"-0.003": 35.174680349,
			"-0.002": 19.127553278,
			"-0.001": 17.6710038888,
			"0.0": 16.1307975706,
			"0.001": 25.938246532,
			"0.002": 79.0180250914,
			"0.003": 39.6530414603,
			"0.004": 1.13407988489,
			"0.005": 1.2016560345,
			"0.006": 1.17477924573,
			"0.007": 0.663479474296,
			"0.008": 1.50493778626,
			"0.009": 1.16595448068,
			"0.01": 1.19752404716,
			"0.011": 1.51990601902,
			"0.012": 2.02059720781,
			"0.013": 0.0989376460305,
			"0.014": 0.0,
			"0.015": 0.0,
			"0.016": 0.0,
			"0.017": 0.0,
			"0.018": 0.0,
			"0.019": 0.0,
			"0.02": 0.0,
			"0.021": 0.0,
			"0.022": 0.0,
			"0.023": 0.0,
			"0.024": 0.0,
			"0.025": 0.0
		}
	}
}
