{
	 "smiles": "OC(=O)C1=CC=CC=C1C=C", 
	 "Tm": 367.15, 
	 "num_atms": 19, 
	 "gaussian": { 
		 "optdone": 1, 
		 "sigma_profile": "yes", 
		 "theory": "DFT", 
		 "functional": "B3LYP", 
		 "basiset": "6-31G**", 
		 "properties": { 
			 "R2extent": 2226.9967, 
			 "electric_dipole_moment_norm": 4.91451373078, 
			 "electric_quadrupole_moment_norm": 12.5105976128, 
			 "total_energy": -498.212190854, 
			 "HOMO_LUMO_gap": 0.19173, 
			 "cosmo_polarized_energy": -11.75, 
			 "cosmo_cavitation_energy": 23.03, 
			 "cosmo_dispersion_energy": -16.9, 
			 "cosmo_repulsion_energy": 1.34, 
			 "cosmo_total_nonelectrostatic_energy": 7.47, 
			 "SMD_solvation_energy": 5.42 
		},
		"coords": [
			{
				"x": 2.7585397612,
				"y": -0.5223426081,
				"z": 0.9002245929,
				"element": "O" 
			},
			{
				"x": 1.6317204713,
				"y": -0.7627389015,
				"z": 0.1950621685,
				"element": "C" 
			},
			{
				"x": 1.7160848574,
				"y": -1.1567134196,
				"z": -0.94683552,
				"element": "O" 
			},
			{
				"x": 0.2947843132,
				"y": -0.4475478596,
				"z": 0.8317071909,
				"element": "C" 
			},
			{
				"x": -0.7294888628,
				"y": -0.2028644838,
				"z": -0.0969140109,
				"element": "C" 
			},
			{
				"x": -1.9975749326,
				"y": 0.2024392176,
				"z": 0.3045615112,
				"element": "C" 
			},
			{
				"x": -2.2631237887,
				"y": 0.3787149114,
				"z": 1.6632405842,
				"element": "C" 
			},
			{
				"x": -1.2642794833,
				"y": 0.1244791178,
				"z": 2.5976291645,
				"element": "C" 
			},
			{
				"x": 0.0157722934,
				"y": -0.3172283767,
				"z": 2.2158862742,
				"element": "C" 
			},
			{
				"x": 0.9412481071,
				"y": -0.6407382237,
				"z": 3.3292019506,
				"element": "C" 
			},
			{
				"x": 1.7480810079,
				"y": -1.707095909,
				"z": 3.4255162497,
				"element": "C" 
			},
			{
				"x": 2.5469166028,
				"y": -0.294665414,
				"z": 1.8203329816,
				"element": "H" 
			},
			{
				"x": -0.4899059887,
				"y": -0.3265112778,
				"z": -1.1469433833,
				"element": "H" 
			},
			{
				"x": -2.7671549262,
				"y": 0.3932131988,
				"z": -0.4370875555,
				"element": "H" 
			},
			{
				"x": -3.2428776349,
				"y": 0.7092828243,
				"z": 1.9953815933,
				"element": "H" 
			},
			{
				"x": -1.4781990737,
				"y": 0.2412352083,
				"z": 3.6566984076,
				"element": "H" 
			},
			{
				"x": 0.8754534566,
				"y": 0.0315306038,
				"z": 4.1844949457,
				"element": "H" 
			},
			{
				"x": 2.3483509594,
				"y": -1.8712886666,
				"z": 4.3149706695,
				"element": "H" 
			},
			{
				"x": 1.8269528606,
				"y": -2.4523599415,
				"z": 2.6398721854,
				"element": "H" 
			}
		],
		 "valence_orbital": [ 
			{
				"type": "occ",
				"energy": -0.31241,
				"method": "rhf"
			},
			{
				"type": "occ",
				"energy": -0.30599,
				"method": "rhf"
			},
			{
				"type": "occ",
				"energy": -0.27335,
				"method": "rhf"
			},
			{
				"type": "occ",
				"energy": -0.26101,
				"method": "rhf"
			},
			{
				"type": "occ",
				"energy": -0.25213,
				"method": "rhf"
			},
			{
				"type": "unocc",
				"energy": -0.0604,
				"method": "rhf"
			},
			{
				"type": "unocc",
				"energy": -0.03107,
				"method": "rhf"
			},
			{
				"type": "unocc",
				"energy": 0.01513,
				"method": "rhf"
			},
			{
				"type": "unocc",
				"energy": 0.04975,
				"method": "rhf"
			},
			{
				"type": "unocc",
				"energy": 0.0855,
				"method": "rhf"
			}
		],
		"cosmo_sigma_profile": { 
			"-0.025": 0.0,
			"-0.024": 0.0,
			"-0.023": 0.0,
			"-0.022": 0.0,
			"-0.021": 0.0,
			"-0.02": 0.0,
			"-0.019": 0.0,
			"-0.018": 0.0,
			"-0.017": 0.0,
			"-0.016": 0.0,
			"-0.015": 0.0,
			"-0.014": 0.0,
			"-0.013": 0.0715141324504,
			"-0.012": 0.804221261667,
			"-0.011": 0.609417943055,
			"-0.01": 1.07259978342,
			"-0.009": 0.802528657936,
			"-0.008": 0.849675589826,
			"-0.007": 8.90552160735,
			"-0.006": 15.2295052604,
			"-0.005": 14.4977331017,
			"-0.004": 15.2447537754,
			"-0.003": 13.2023020324,
			"-0.002": 13.2984170349,
			"-0.001": 12.1920294605,
			"0.0": 9.38921836325,
			"0.001": 11.3644199307,
			"0.002": 12.162294064,
			"0.003": 15.5516768069,
			"0.004": 9.69697630726,
			"0.005": 2.50897801086,
			"0.006": 2.79309018489,
			"0.007": 2.17449114709,
			"0.008": 2.12797384224,
			"0.009": 2.83356266462,
			"0.01": 4.26859571196,
			"0.011": 5.29434783213,
			"0.012": 5.42126392523,
			"0.013": 2.05987959687,
			"0.014": 0.277385219892,
			"0.015": 0.0,
			"0.016": 0.0,
			"0.017": 0.0,
			"0.018": 0.0,
			"0.019": 0.0,
			"0.02": 0.0,
			"0.021": 0.0,
			"0.022": 0.0,
			"0.023": 0.0,
			"0.024": 0.0,
			"0.025": 0.0
		}
	}
}
