{
	 "smiles": "CC1=NC(COC2=CC=C(C=C2)C(O)=O)=NO1", 
	 "Tm": 471.15, 
	 "num_atms": 27, 
	 "gaussian": { 
		 "optdone": 1, 
		 "sigma_profile": "yes", 
		 "theory": "DFT", 
		 "functional": "B3LYP", 
		 "basiset": "6-31G**", 
		 "properties": { 
			 "R2extent": 6353.1162, 
			 "electric_dipole_moment_norm": 3.48433920995, 
			 "electric_quadrupole_moment_norm": 21.4436655556, 
			 "total_energy": -835.568209252, 
			 "HOMO_LUMO_gap": 0.19597, 
			 "cosmo_polarized_energy": -15.81, 
			 "cosmo_cavitation_energy": 33.03, 
			 "cosmo_dispersion_energy": -23.91, 
			 "cosmo_repulsion_energy": 1.87, 
			 "cosmo_total_nonelectrostatic_energy": 10.99, 
			 "SMD_solvation_energy": 5.45 
		},
		"coords": [
			{
				"x": 2.1219000437,
				"y": 0.7585627739,
				"z": 3.9100729195,
				"element": "C" 
			},
			{
				"x": 0.8471664304,
				"y": 0.6761652591,
				"z": 3.1488158413,
				"element": "C" 
			},
			{
				"x": 0.4236538581,
				"y": -0.277259284,
				"z": 2.3697643277,
				"element": "N" 
			},
			{
				"x": -0.7969846153,
				"y": 0.2063216719,
				"z": 1.9554559284,
				"element": "C" 
			},
			{
				"x": -1.7175168306,
				"y": -0.5444529201,
				"z": 1.0351712126,
				"element": "C" 
			},
			{
				"x": -1.1185354171,
				"y": -0.861583479,
				"z": -0.2162150404,
				"element": "O" 
			},
			{
				"x": -1.0064205465,
				"y": 0.0984380714,
				"z": -1.1818768836,
				"element": "C" 
			},
			{
				"x": -0.4692556528,
				"y": -0.351055968,
				"z": -2.3992731447,
				"element": "C" 
			},
			{
				"x": -0.3224019968,
				"y": 0.527358676,
				"z": -3.4612779095,
				"element": "C" 
			},
			{
				"x": -0.7086591355,
				"y": 1.8721334315,
				"z": -3.327629975,
				"element": "C" 
			},
			{
				"x": -1.2374735224,
				"y": 2.310768076,
				"z": -2.1086505121,
				"element": "C" 
			},
			{
				"x": -1.3889913114,
				"y": 1.4392767989,
				"z": -1.0329859723,
				"element": "C" 
			},
			{
				"x": -0.5751934493,
				"y": 2.8533989839,
				"z": -4.4277931898,
				"element": "C" 
			},
			{
				"x": -0.0495231798,
				"y": 2.3166380251,
				"z": -5.5612017046,
				"element": "O" 
			},
			{
				"x": -0.8917420889,
				"y": 4.0265660376,
				"z": -4.3637096728,
				"element": "O" 
			},
			{
				"x": -1.1197169932,
				"y": 1.3788503335,
				"z": 2.4402140416,
				"element": "N" 
			},
			{
				"x": -0.019990273,
				"y": 1.7030904613,
				"z": 3.2487718961,
				"element": "O" 
			},
			{
				"x": 2.697583453,
				"y": -0.1513142267,
				"z": 3.7414529729,
				"element": "H" 
			},
			{
				"x": 1.9252368955,
				"y": 0.872803746,
				"z": 4.9803296609,
				"element": "H" 
			},
			{
				"x": 2.7078901493,
				"y": 1.6236124432,
				"z": 3.5846968436,
				"element": "H" 
			},
			{
				"x": -1.9516680709,
				"y": -1.5141203335,
				"z": 1.4817001135,
				"element": "H" 
			},
			{
				"x": -2.6484296523,
				"y": 0.0184908038,
				"z": 0.9093769397,
				"element": "H" 
			},
			{
				"x": -0.1803254341,
				"y": -1.3932860378,
				"z": -2.4826872478,
				"element": "H" 
			},
			{
				"x": 0.0900488908,
				"y": 0.1786520513,
				"z": -4.4011917028,
				"element": "H" 
			},
			{
				"x": -1.5257991298,
				"y": 3.3523521226,
				"z": -2.0143123128,
				"element": "H" 
			},
			{
				"x": -1.7783766737,
				"y": 1.8149954735,
				"z": -0.0951334716,
				"element": "H" 
			},
			{
				"x": -0.0128757474,
				"y": 3.0468970087,
				"z": -6.200083958,
				"element": "H" 
			}
		],
		 "valence_orbital": [ 
			{
				"type": "occ",
				"energy": -0.3073,
				"method": "rhf"
			},
			{
				"type": "occ",
				"energy": -0.29705,
				"method": "rhf"
			},
			{
				"type": "occ",
				"energy": -0.2693,
				"method": "rhf"
			},
			{
				"type": "occ",
				"energy": -0.25999,
				"method": "rhf"
			},
			{
				"type": "occ",
				"energy": -0.23275,
				"method": "rhf"
			},
			{
				"type": "unocc",
				"energy": -0.03678,
				"method": "rhf"
			},
			{
				"type": "unocc",
				"energy": -0.03667,
				"method": "rhf"
			},
			{
				"type": "unocc",
				"energy": -0.00848,
				"method": "rhf"
			},
			{
				"type": "unocc",
				"energy": 0.01935,
				"method": "rhf"
			},
			{
				"type": "unocc",
				"energy": 0.06783,
				"method": "rhf"
			}
		],
		"cosmo_sigma_profile": { 
			"-0.025": 0.0,
			"-0.024": 0.0,
			"-0.023": 0.0,
			"-0.022": 0.0,
			"-0.021": 0.0,
			"-0.02": 0.0,
			"-0.019": 0.0,
			"-0.018": 0.526986520009,
			"-0.017": 0.81589851446,
			"-0.016": 0.812281909326,
			"-0.015": 1.49558938739,
			"-0.014": 0.389065142519,
			"-0.013": 0.422406788118,
			"-0.012": 0.0587372421639,
			"-0.011": 1.04548050553,
			"-0.01": 1.29132509432,
			"-0.009": 1.08398752823,
			"-0.008": 6.26810044794,
			"-0.007": 14.0971655345,
			"-0.006": 16.2131060512,
			"-0.005": 18.9462285926,
			"-0.004": 18.1700793126,
			"-0.003": 18.6500265681,
			"-0.002": 14.6895957088,
			"-0.001": 12.6455163183,
			"0.0": 13.3987452817,
			"0.001": 20.2471769384,
			"0.002": 16.8613207246,
			"0.003": 21.005400367,
			"0.004": 10.8496624147,
			"0.005": 7.59115417684,
			"0.006": 9.95543571402,
			"0.007": 8.22529145223,
			"0.008": 6.23218557882,
			"0.009": 4.3974943557,
			"0.01": 4.04804749768,
			"0.011": 5.0215036504,
			"0.012": 6.81330896107,
			"0.013": 1.5113816634,
			"0.014": 0.642925973899,
			"0.015": 0.100274713574,
			"0.016": 0.0,
			"0.017": 0.0,
			"0.018": 0.0,
			"0.019": 0.0,
			"0.02": 0.0,
			"0.021": 0.0,
			"0.022": 0.0,
			"0.023": 0.0,
			"0.024": 0.0,
			"0.025": 0.0
		}
	}
}
