{
	 "smiles": "N#CC1=CC=C(N=C1)N1CCCNCC1", 
	 "Tm": 337.15, 
	 "num_atms": 29, 
	 "gaussian": { 
		 "optdone": 1, 
		 "sigma_profile": "yes", 
		 "theory": "DFT", 
		 "functional": "B3LYP", 
		 "basiset": "6-31G**", 
		 "properties": { 
			 "R2extent": 5055.778, 
			 "electric_dipole_moment_norm": 7.53137033016, 
			 "electric_quadrupole_moment_norm": 36.4144879821, 
			 "total_energy": -646.588996097, 
			 "HOMO_LUMO_gap": 0.17928, 
			 "cosmo_polarized_energy": -14.16, 
			 "cosmo_cavitation_energy": 31.51, 
			 "cosmo_dispersion_energy": -22.49, 
			 "cosmo_repulsion_energy": 1.75, 
			 "cosmo_total_nonelectrostatic_energy": 10.77, 
			 "SMD_solvation_energy": 3.23 
		},
		"coords": [
			{
				"x": 5.2795026127,
				"y": -1.6032524203,
				"z": -4.7629823878,
				"element": "N" 
			},
			{
				"x": 4.3905501654,
				"y": -1.3824259142,
				"z": -4.0434095757,
				"element": "C" 
			},
			{
				"x": 3.303203273,
				"y": -1.1151675409,
				"z": -3.160119501,
				"element": "C" 
			},
			{
				"x": 2.1329333306,
				"y": -0.4587294867,
				"z": -3.593316556,
				"element": "C" 
			},
			{
				"x": 1.1096001527,
				"y": -0.2184424495,
				"z": -2.7008351741,
				"element": "C" 
			},
			{
				"x": 1.2543102909,
				"y": -0.6496852174,
				"z": -1.353327915,
				"element": "C" 
			},
			{
				"x": 2.3859812376,
				"y": -1.2618500672,
				"z": -0.9340798177,
				"element": "N" 
			},
			{
				"x": 3.3598277259,
				"y": -1.4849847463,
				"z": -1.8072454444,
				"element": "C" 
			},
			{
				"x": 0.2671682058,
				"y": -0.5023055111,
				"z": -0.4148103625,
				"element": "N" 
			},
			{
				"x": -0.9561046292,
				"y": 0.2586623971,
				"z": -0.6650910031,
				"element": "C" 
			},
			{
				"x": -0.8381696628,
				"y": 1.7622961093,
				"z": -0.3707524581,
				"element": "C" 
			},
			{
				"x": -0.2848488652,
				"y": 2.0853146203,
				"z": 1.028575031,
				"element": "C" 
			},
			{
				"x": 1.111422557,
				"y": 1.6657749623,
				"z": 1.1580501642,
				"element": "N" 
			},
			{
				"x": 1.3676528204,
				"y": 0.3356738592,
				"z": 1.7043461739,
				"element": "C" 
			},
			{
				"x": 0.5589119959,
				"y": -0.7727487565,
				"z": 0.991935441,
				"element": "C" 
			},
			{
				"x": 2.0442319665,
				"y": -0.1379561746,
				"z": -4.6263744419,
				"element": "H" 
			},
			{
				"x": 0.2222170447,
				"y": 0.3028169377,
				"z": -3.0348381673,
				"element": "H" 
			},
			{
				"x": 4.2476492672,
				"y": -1.9835355671,
				"z": -1.4225331967,
				"element": "H" 
			},
			{
				"x": -1.7347257568,
				"y": -0.1771384475,
				"z": -0.0274500262,
				"element": "H" 
			},
			{
				"x": -1.285077883,
				"y": 0.0937137661,
				"z": -1.6942906341,
				"element": "H" 
			},
			{
				"x": -1.8335086892,
				"y": 2.2120473452,
				"z": -0.4872287119,
				"element": "H" 
			},
			{
				"x": -0.1753305323,
				"y": 2.2303179261,
				"z": -1.1069557849,
				"element": "H" 
			},
			{
				"x": -0.327394414,
				"y": 3.1712780861,
				"z": 1.1653656061,
				"element": "H" 
			},
			{
				"x": -0.9403684885,
				"y": 1.6519876584,
				"z": 1.8068006734,
				"element": "H" 
			},
			{
				"x": 1.6438631579,
				"y": 2.3504062543,
				"z": 1.6821355638,
				"element": "H" 
			},
			{
				"x": 1.1398972935,
				"y": 0.248933104,
				"z": 2.7841436457,
				"element": "H" 
			},
			{
				"x": 2.4359810376,
				"y": 0.1343923249,
				"z": 1.5778941936,
				"element": "H" 
			},
			{
				"x": 1.106095374,
				"y": -1.713377826,
				"z": 1.0709433167,
				"element": "H" 
			},
			{
				"x": -0.4084705884,
				"y": -0.9060152258,
				"z": 1.4850513488,
				"element": "H" 
			}
		],
		 "valence_orbital": [ 
			{
				"type": "occ",
				"energy": -0.29216,
				"method": "rhf"
			},
			{
				"type": "occ",
				"energy": -0.29062,
				"method": "rhf"
			},
			{
				"type": "occ",
				"energy": -0.2653,
				"method": "rhf"
			},
			{
				"type": "occ",
				"energy": -0.22484,
				"method": "rhf"
			},
			{
				"type": "occ",
				"energy": -0.21075,
				"method": "rhf"
			},
			{
				"type": "unocc",
				"energy": -0.03147,
				"method": "rhf"
			},
			{
				"type": "unocc",
				"energy": -0.02615,
				"method": "rhf"
			},
			{
				"type": "unocc",
				"energy": 0.04579,
				"method": "rhf"
			},
			{
				"type": "unocc",
				"energy": 0.06581,
				"method": "rhf"
			},
			{
				"type": "unocc",
				"energy": 0.08501,
				"method": "rhf"
			}
		],
		"cosmo_sigma_profile": { 
			"-0.025": 0.0,
			"-0.024": 0.0,
			"-0.023": 0.0,
			"-0.022": 0.0,
			"-0.021": 0.0,
			"-0.02": 0.0,
			"-0.019": 0.0,
			"-0.018": 0.0,
			"-0.017": 0.0,
			"-0.016": 0.0,
			"-0.015": 0.0,
			"-0.014": 0.0,
			"-0.013": 0.0,
			"-0.012": 0.0,
			"-0.011": 0.0450128371585,
			"-0.01": 1.07525619964,
			"-0.009": 1.43796848641,
			"-0.008": 5.4276930405,
			"-0.007": 8.0435061421,
			"-0.006": 10.0215568947,
			"-0.005": 13.4827629989,
			"-0.004": 17.3719690132,
			"-0.003": 25.3758568894,
			"-0.002": 32.5391635733,
			"-0.001": 24.3720157344,
			"0.0": 22.1744856556,
			"0.001": 16.7738579458,
			"0.002": 10.9078333122,
			"0.003": 8.88941638853,
			"0.004": 6.67953945477,
			"0.005": 5.48038074746,
			"0.006": 6.01642452455,
			"0.007": 4.8898096995,
			"0.008": 5.3797757138,
			"0.009": 4.50656140739,
			"0.01": 5.89050334918,
			"0.011": 4.42584847041,
			"0.012": 3.55662263856,
			"0.013": 2.78934772623,
			"0.014": 1.16693261231,
			"0.015": 0.35919739629,
			"0.016": 0.159731872626,
			"0.017": 0.0,
			"0.018": 0.0,
			"0.019": 0.0,
			"0.02": 0.0,
			"0.021": 0.0,
			"0.022": 0.0,
			"0.023": 0.0,
			"0.024": 0.0,
			"0.025": 0.0
		}
	}
}
