{
	 "smiles": "CS(=O)(=O)NC1=C(F)C=CC(N)=C1", 
	 "Tm": 428.15, 
	 "num_atms": 22, 
	 "gaussian": { 
		 "optdone": 1, 
		 "sigma_profile": "yes", 
		 "theory": "DFT", 
		 "functional": "B3LYP", 
		 "basiset": "6-31G**", 
		 "properties": { 
			 "R2extent": 3543.8933, 
			 "electric_dipole_moment_norm": 4.81310654879, 
			 "electric_quadrupole_moment_norm": 18.1528414905, 
			 "total_energy": -1030.07781665, 
			 "HOMO_LUMO_gap": 0.19166, 
			 "cosmo_polarized_energy": -17.84, 
			 "cosmo_cavitation_energy": 27.68, 
			 "cosmo_dispersion_energy": -20.49, 
			 "cosmo_repulsion_energy": 1.56, 
			 "cosmo_total_nonelectrostatic_energy": 8.76, 
			 "SMD_solvation_energy": 4.74 
		},
		"coords": [
			{
				"x": -2.6686525718,
				"y": 1.3466655331,
				"z": -0.87811694,
				"element": "C" 
			},
			{
				"x": -2.9913938922,
				"y": 0.7687859884,
				"z": 0.8020039152,
				"element": "S" 
			},
			{
				"x": -3.0675450623,
				"y": -0.6906548078,
				"z": 0.7512955109,
				"element": "O" 
			},
			{
				"x": -4.0619172494,
				"y": 1.5789391217,
				"z": 1.3791303629,
				"element": "O" 
			},
			{
				"x": -1.615732965,
				"y": 1.193035291,
				"z": 1.6895195779,
				"element": "N" 
			},
			{
				"x": -0.3015082901,
				"y": 0.7908649538,
				"z": 1.3538329038,
				"element": "C" 
			},
			{
				"x": 0.7229085533,
				"y": 1.7374523979,
				"z": 1.4711451453,
				"element": "C" 
			},
			{
				"x": 0.3853132374,
				"y": 2.9960715066,
				"z": 1.868561465,
				"element": "F" 
			},
			{
				"x": 2.0425339793,
				"y": 1.414062729,
				"z": 1.2097492448,
				"element": "C" 
			},
			{
				"x": 2.363391959,
				"y": 0.122250152,
				"z": 0.7961828198,
				"element": "C" 
			},
			{
				"x": 1.3563398221,
				"y": -0.8495233927,
				"z": 0.6611667548,
				"element": "C" 
			},
			{
				"x": 1.662181053,
				"y": -2.1295024282,
				"z": 0.1959694593,
				"element": "N" 
			},
			{
				"x": 0.0250283709,
				"y": -0.508759947,
				"z": 0.9565000234,
				"element": "C" 
			},
			{
				"x": -3.5133282087,
				"y": 1.0265866422,
				"z": -1.490445016,
				"element": "H" 
			},
			{
				"x": -2.5931102022,
				"y": 2.4346646628,
				"z": -0.8694882463,
				"element": "H" 
			},
			{
				"x": -1.7457219255,
				"y": 0.8888840093,
				"z": -1.237062566,
				"element": "H" 
			},
			{
				"x": -1.6857217613,
				"y": 2.1458353473,
				"z": 2.0323035468,
				"element": "H" 
			},
			{
				"x": 2.8061478135,
				"y": 2.1761465502,
				"z": 1.3228808705,
				"element": "H" 
			},
			{
				"x": 3.3958972264,
				"y": -0.1336980447,
				"z": 0.5774470152,
				"element": "H" 
			},
			{
				"x": 2.6115719581,
				"y": -2.4322041176,
				"z": 0.3643738216,
				"element": "H" 
			},
			{
				"x": 0.9907439971,
				"y": -2.8455478768,
				"z": 0.437085923,
				"element": "H" 
			},
			{
				"x": -0.7626258415,
				"y": -1.2504542706,
				"z": 0.8866644079,
				"element": "H" 
			}
		],
		 "valence_orbital": [ 
			{
				"type": "occ",
				"energy": -0.30917,
				"method": "rhf"
			},
			{
				"type": "occ",
				"energy": -0.30565,
				"method": "rhf"
			},
			{
				"type": "occ",
				"energy": -0.29997,
				"method": "rhf"
			},
			{
				"type": "occ",
				"energy": -0.24235,
				"method": "rhf"
			},
			{
				"type": "occ",
				"energy": -0.20826,
				"method": "rhf"
			},
			{
				"type": "unocc",
				"energy": -0.0166,
				"method": "rhf"
			},
			{
				"type": "unocc",
				"energy": 0.00875,
				"method": "rhf"
			},
			{
				"type": "unocc",
				"energy": 0.05679,
				"method": "rhf"
			},
			{
				"type": "unocc",
				"energy": 0.07089,
				"method": "rhf"
			},
			{
				"type": "unocc",
				"energy": 0.07749,
				"method": "rhf"
			}
		],
		"cosmo_sigma_profile": { 
			"-0.025": 0.0,
			"-0.024": 0.0,
			"-0.023": 0.0,
			"-0.022": 0.0,
			"-0.021": 0.0,
			"-0.02": 0.0,
			"-0.019": 0.0,
			"-0.018": 0.0,
			"-0.017": 0.0,
			"-0.016": 0.0,
			"-0.015": 0.0,
			"-0.014": 0.0939855593586,
			"-0.013": 1.5426030016,
			"-0.012": 4.14667172801,
			"-0.011": 4.32081262317,
			"-0.01": 3.85462842018,
			"-0.009": 7.71285744349,
			"-0.008": 8.75103028572,
			"-0.007": 10.8131716849,
			"-0.006": 12.0678197894,
			"-0.005": 12.3200896743,
			"-0.004": 12.7484117472,
			"-0.003": 9.34083207486,
			"-0.002": 7.82884727822,
			"-0.001": 7.8573781909,
			"0.0": 8.1151232176,
			"0.001": 10.9471331474,
			"0.002": 11.7612945646,
			"0.003": 13.5582987501,
			"0.004": 17.2186847586,
			"0.005": 13.3376780659,
			"0.006": 4.79014958982,
			"0.007": 5.22624663283,
			"0.008": 5.42079800941,
			"0.009": 3.85433140615,
			"0.01": 7.67510120798,
			"0.011": 10.8611498584,
			"0.012": 2.7856752513,
			"0.013": 0.599662866941,
			"0.014": 0.624197048365,
			"0.015": 0.167072831343,
			"0.016": 0.0,
			"0.017": 0.0,
			"0.018": 0.0,
			"0.019": 0.0,
			"0.02": 0.0,
			"0.021": 0.0,
			"0.022": 0.0,
			"0.023": 0.0,
			"0.024": 0.0,
			"0.025": 0.0
		}
	}
}
