{
	 "smiles": "FC(F)(F)C1=CC(NC(=O)CCl)=C(C=C1)N1CCCC1", 
	 "Tm": 545.15, 
	 "num_atms": 34, 
	 "gaussian": { 
		 "optdone": 1, 
		 "sigma_profile": "yes", 
		 "theory": "DFT", 
		 "functional": "B3LYP", 
		 "basiset": "6-31G**", 
		 "properties": { 
			 "R2extent": 7584.9909, 
			 "electric_dipole_moment_norm": 6.01203046732, 
			 "electric_quadrupole_moment_norm": 12.3564172247, 
			 "total_energy": -1448.27539106, 
			 "HOMO_LUMO_gap": 0.18344, 
			 "cosmo_polarized_energy": -12.56, 
			 "cosmo_cavitation_energy": 39.46, 
			 "cosmo_dispersion_energy": -26.97, 
			 "cosmo_repulsion_energy": 2.03, 
			 "cosmo_total_nonelectrostatic_energy": 14.52, 
			 "SMD_solvation_energy": 7.23 
		},
		"coords": [
			{
				"x": 3.004383606,
				"y": 3.9031310793,
				"z": -1.1147837678,
				"element": "F" 
			},
			{
				"x": 1.7228839823,
				"y": 3.5936614576,
				"z": -1.4137061602,
				"element": "C" 
			},
			{
				"x": 1.6396611729,
				"y": 3.4547864479,
				"z": -2.75592576,
				"element": "F" 
			},
			{
				"x": 0.9710216022,
				"y": 4.6707293975,
				"z": -1.0869372015,
				"element": "F" 
			},
			{
				"x": 1.2643074361,
				"y": 2.3536582367,
				"z": -0.697199445,
				"element": "C" 
			},
			{
				"x": 0.1515914439,
				"y": 1.6602759756,
				"z": -1.1834657972,
				"element": "C" 
			},
			{
				"x": -0.3188602557,
				"y": 0.5296856826,
				"z": -0.5158338555,
				"element": "C" 
			},
			{
				"x": -1.4804766441,
				"y": -0.1677434953,
				"z": -0.9031800603,
				"element": "N" 
			},
			{
				"x": -1.9964675578,
				"y": -0.5529599804,
				"z": -2.1215599663,
				"element": "C" 
			},
			{
				"x": -3.0142059824,
				"y": -1.2257320807,
				"z": -2.1798887774,
				"element": "O" 
			},
			{
				"x": -1.246114801,
				"y": -0.166379935,
				"z": -3.3918968014,
				"element": "C" 
			},
			{
				"x": -1.9293147603,
				"y": 1.3507855713,
				"z": -4.1144946527,
				"element": "Cl" 
			},
			{
				"x": 0.3175181857,
				"y": 0.0937397252,
				"z": 0.6805960902,
				"element": "C" 
			},
			{
				"x": 1.4004598875,
				"y": 0.8346290634,
				"z": 1.168643695,
				"element": "C" 
			},
			{
				"x": 1.8793450779,
				"y": 1.9516971827,
				"z": 0.4858665423,
				"element": "C" 
			},
			{
				"x": -0.2101304502,
				"y": -1.0328341589,
				"z": 1.3513784961,
				"element": "N" 
			},
			{
				"x": 0.079184446,
				"y": -1.216875702,
				"z": 2.7767933617,
				"element": "C" 
			},
			{
				"x": -0.6583843537,
				"y": -2.522935991,
				"z": 3.1032202708,
				"element": "C" 
			},
			{
				"x": -0.5728446656,
				"y": -3.3477009508,
				"z": 1.7884870467,
				"element": "C" 
			},
			{
				"x": -0.0070856831,
				"y": -2.3663628478,
				"z": 0.7379050378,
				"element": "C" 
			},
			{
				"x": -0.3677828122,
				"y": 2.0296151524,
				"z": -2.059671834,
				"element": "H" 
			},
			{
				"x": -1.9752152566,
				"y": -0.5939909265,
				"z": -0.1239752925,
				"element": "H" 
			},
			{
				"x": -1.4136080318,
				"y": -0.9582562134,
				"z": -4.1195811867,
				"element": "H" 
			},
			{
				"x": -0.1802193718,
				"y": 0.0003623028,
				"z": -3.2387024678,
				"element": "H" 
			},
			{
				"x": 1.8899330641,
				"y": 0.5249727798,
				"z": 2.0848144507,
				"element": "H" 
			},
			{
				"x": 2.7332174831,
				"y": 2.4997672112,
				"z": 0.8674966946,
				"element": "H" 
			},
			{
				"x": -0.2699074903,
				"y": -0.3548617124,
				"z": 3.3524772662,
				"element": "H" 
			},
			{
				"x": 1.1602448965,
				"y": -1.3397329233,
				"z": 2.9674386688,
				"element": "H" 
			},
			{
				"x": -1.7015683516,
				"y": -2.3085822806,
				"z": 3.3511204312,
				"element": "H" 
			},
			{
				"x": -0.2130893076,
				"y": -3.038638035,
				"z": 3.9579304018,
				"element": "H" 
			},
			{
				"x": -1.5587223883,
				"y": -3.7161116196,
				"z": 1.4937811305,
				"element": "H" 
			},
			{
				"x": 0.0808775746,
				"y": -4.2178357235,
				"z": 1.8913222297,
				"element": "H" 
			},
			{
				"x": 1.0671463171,
				"y": -2.5483737135,
				"z": 0.5713103399,
				"element": "H" 
			},
			{
				"x": -0.5091780117,
				"y": -2.4350889761,
				"z": -0.2291791276,
				"element": "H" 
			}
		],
		 "valence_orbital": [ 
			{
				"type": "occ",
				"energy": -0.30599,
				"method": "rhf"
			},
			{
				"type": "occ",
				"energy": -0.28948,
				"method": "rhf"
			},
			{
				"type": "occ",
				"energy": -0.26706,
				"method": "rhf"
			},
			{
				"type": "occ",
				"energy": -0.25066,
				"method": "rhf"
			},
			{
				"type": "occ",
				"energy": -0.22437,
				"method": "rhf"
			},
			{
				"type": "unocc",
				"energy": -0.04093,
				"method": "rhf"
			},
			{
				"type": "unocc",
				"energy": -0.03021,
				"method": "rhf"
			},
			{
				"type": "unocc",
				"energy": -0.0105,
				"method": "rhf"
			},
			{
				"type": "unocc",
				"energy": 0.05409,
				"method": "rhf"
			},
			{
				"type": "unocc",
				"energy": 0.06524,
				"method": "rhf"
			}
		],
		"cosmo_sigma_profile": { 
			"-0.025": 0.0,
			"-0.024": 0.0,
			"-0.023": 0.0,
			"-0.022": 0.0,
			"-0.021": 0.0,
			"-0.02": 0.0,
			"-0.019": 0.0,
			"-0.018": 0.0,
			"-0.017": 0.0,
			"-0.016": 0.0,
			"-0.015": 0.0,
			"-0.014": 0.0,
			"-0.013": 0.0,
			"-0.012": 0.0,
			"-0.011": 0.486241482735,
			"-0.01": 0.592036146119,
			"-0.009": 1.7160364298,
			"-0.008": 3.89250149654,
			"-0.007": 8.19711310473,
			"-0.006": 11.1097198067,
			"-0.005": 12.7351469085,
			"-0.004": 18.0340312526,
			"-0.003": 31.8206230642,
			"-0.002": 34.7501434864,
			"-0.001": 29.7160087248,
			"0.0": 24.6914831689,
			"0.001": 22.8908184471,
			"0.002": 28.2640002354,
			"0.003": 43.6629034383,
			"0.004": 14.9844558334,
			"0.005": 8.62008609731,
			"0.006": 2.52345714235,
			"0.007": 0.950970418058,
			"0.008": 1.45749529019,
			"0.009": 1.19380466473,
			"0.01": 1.67205139471,
			"0.011": 2.08851178086,
			"0.012": 4.23023191637,
			"0.013": 4.37813358445,
			"0.014": 0.397551990696,
			"0.015": 0.0,
			"0.016": 0.0,
			"0.017": 0.0,
			"0.018": 0.0,
			"0.019": 0.0,
			"0.02": 0.0,
			"0.021": 0.0,
			"0.022": 0.0,
			"0.023": 0.0,
			"0.024": 0.0,
			"0.025": 0.0
		}
	}
}
