{
	 "smiles": "OC(=O)C1=CC(C(O)=O)=C(Br)C=C1", 
	 "Tm": 571.15, 
	 "num_atms": 18, 
	 "gaussian": { 
		 "optdone": 1, 
		 "sigma_profile": "yes", 
		 "theory": "DFT", 
		 "functional": "B3LYP", 
		 "basiset": "6-31G**", 
		 "properties": { 
			 "R2extent": 4160.9241, 
			 "electric_dipole_moment_norm": 5.28713452543, 
			 "electric_quadrupole_moment_norm": 11.5462841923, 
			 "total_energy": -3180.18125286, 
			 "HOMO_LUMO_gap": 0.18809, 
			 "cosmo_polarized_energy": -18.65, 
			 "cosmo_cavitation_energy": 26.12, 
			 "cosmo_dispersion_energy": -19.45, 
			 "cosmo_repulsion_energy": 1.54, 
			 "cosmo_total_nonelectrostatic_energy": 8.21, 
			 "SMD_solvation_energy": 5.84 
		},
		"coords": [
			{
				"x": -0.9687734608,
				"y": 0.0206686557,
				"z": -4.2493388418,
				"element": "O" 
			},
			{
				"x": -0.7671003133,
				"y": -0.8375151945,
				"z": -3.2221936108,
				"element": "C" 
			},
			{
				"x": -1.2023559387,
				"y": -1.9714517988,
				"z": -3.2205249252,
				"element": "O" 
			},
			{
				"x": 0.0300209917,
				"y": -0.2396035577,
				"z": -2.1174268315,
				"element": "C" 
			},
			{
				"x": 0.3178479084,
				"y": -1.0436062967,
				"z": -1.011376555,
				"element": "C" 
			},
			{
				"x": 1.0674666763,
				"y": -0.5641930809,
				"z": 0.0688554718,
				"element": "C" 
			},
			{
				"x": 1.4073528827,
				"y": -1.5131874438,
				"z": 1.1899918707,
				"element": "C" 
			},
			{
				"x": 0.3946996869,
				"y": -2.3331930199,
				"z": 1.577155523,
				"element": "O" 
			},
			{
				"x": 2.4941716783,
				"y": -1.5996443872,
				"z": 1.700161016,
				"element": "O" 
			},
			{
				"x": 1.5253283588,
				"y": 0.7659307338,
				"z": 0.0199856231,
				"element": "C" 
			},
			{
				"x": 2.5142748553,
				"y": 1.546075656,
				"z": 1.4422639759,
				"element": "Br" 
			},
			{
				"x": 1.2288954405,
				"y": 1.580466056,
				"z": -1.0750118299,
				"element": "C" 
			},
			{
				"x": 0.4901618815,
				"y": 1.0816022497,
				"z": -2.1439564586,
				"element": "C" 
			},
			{
				"x": -1.4934818974,
				"y": -0.4643859743,
				"z": -4.9075020519,
				"element": "H" 
			},
			{
				"x": -0.0319556638,
				"y": -2.0715592942,
				"z": -1.0275110087,
				"element": "H" 
			},
			{
				"x": -0.4369712509,
				"y": -2.058061823,
				"z": 1.1655695455,
				"element": "H" 
			},
			{
				"x": 1.5799054683,
				"y": 2.6056861305,
				"z": -1.0827304511,
				"element": "H" 
			},
			{
				"x": 0.2692126961,
				"y": 1.7152723892,
				"z": -2.9951104614,
				"element": "H" 
			}
		],
		 "valence_orbital": [ 
			{
				"type": "occ",
				"energy": -0.30436,
				"method": "rhf"
			},
			{
				"type": "occ",
				"energy": -0.29849,
				"method": "rhf"
			},
			{
				"type": "occ",
				"energy": -0.29079,
				"method": "rhf"
			},
			{
				"type": "occ",
				"energy": -0.27539,
				"method": "rhf"
			},
			{
				"type": "occ",
				"energy": -0.26631,
				"method": "rhf"
			},
			{
				"type": "unocc",
				"energy": -0.07822,
				"method": "rhf"
			},
			{
				"type": "unocc",
				"energy": -0.05723,
				"method": "rhf"
			},
			{
				"type": "unocc",
				"energy": -0.00698,
				"method": "rhf"
			},
			{
				"type": "unocc",
				"energy": 0.00607,
				"method": "rhf"
			},
			{
				"type": "unocc",
				"energy": 0.04392,
				"method": "rhf"
			}
		],
		"cosmo_sigma_profile": { 
			"-0.025": 0.0,
			"-0.024": 0.0,
			"-0.023": 0.0,
			"-0.022": 0.0,
			"-0.021": 0.0,
			"-0.02": 0.0366601737223,
			"-0.019": 1.06415061517,
			"-0.018": 1.77097982411,
			"-0.017": 2.24255867684,
			"-0.016": 1.67696008251,
			"-0.015": 1.26391702777,
			"-0.014": 0.851695963442,
			"-0.013": 2.86935970717,
			"-0.012": 2.34279969688,
			"-0.011": 1.61834351604,
			"-0.01": 1.21847182657,
			"-0.009": 2.07787618732,
			"-0.008": 5.37303955956,
			"-0.007": 7.36193789386,
			"-0.006": 5.82510454988,
			"-0.005": 6.78639265495,
			"-0.004": 10.0848219805,
			"-0.003": 11.1153419889,
			"-0.002": 12.9326340302,
			"-0.001": 18.8769654451,
			"0.0": 21.1629169161,
			"0.001": 13.1586570085,
			"0.002": 10.7129813213,
			"0.003": 11.6825387409,
			"0.004": 8.36337557333,
			"0.005": 5.29679845641,
			"0.006": 6.0758871202,
			"0.007": 5.70301495503,
			"0.008": 4.42082903757,
			"0.009": 6.89737556263,
			"0.01": 7.35257687948,
			"0.011": 10.6385498501,
			"0.012": 3.89404822409,
			"0.013": 0.142387757866,
			"0.014": 0.0,
			"0.015": 0.0,
			"0.016": 0.0,
			"0.017": 0.0,
			"0.018": 0.0,
			"0.019": 0.0,
			"0.02": 0.0,
			"0.021": 0.0,
			"0.022": 0.0,
			"0.023": 0.0,
			"0.024": 0.0,
			"0.025": 0.0
		}
	}
}
