{
	 "smiles": "OC(=O)CC1=CC=C(CBr)C=C1", 
	 "Tm": 452.15, 
	 "num_atms": 21, 
	 "gaussian": { 
		 "optdone": 1, 
		 "sigma_profile": "yes", 
		 "theory": "DFT", 
		 "functional": "B3LYP", 
		 "basiset": "6-31G**", 
		 "properties": { 
			 "R2extent": 5260.7607, 
			 "electric_dipole_moment_norm": 2.79258736837, 
			 "electric_quadrupole_moment_norm": 9.96776408629, 
			 "total_energy": -3070.25772346, 
			 "HOMO_LUMO_gap": 0.20677, 
			 "cosmo_polarized_energy": -12.96, 
			 "cosmo_cavitation_energy": 28.03, 
			 "cosmo_dispersion_energy": -20.45, 
			 "cosmo_repulsion_energy": 1.67, 
			 "cosmo_total_nonelectrostatic_energy": 9.24, 
			 "SMD_solvation_energy": 4.6 
		},
		"coords": [
			{
				"x": 3.2986246472,
				"y": -3.1855532059,
				"z": -0.5709100731,
				"element": "O" 
			},
			{
				"x": 2.6255970325,
				"y": -2.0368676807,
				"z": -0.3200411506,
				"element": "C" 
			},
			{
				"x": 2.9530884804,
				"y": -0.9723409758,
				"z": -0.7927305124,
				"element": "O" 
			},
			{
				"x": 1.4775741968,
				"y": -2.2802399938,
				"z": 0.6489089029,
				"element": "C" 
			},
			{
				"x": 0.3079927195,
				"y": -1.3355890569,
				"z": 0.4855005734,
				"element": "C" 
			},
			{
				"x": 0.4594710513,
				"y": 0.0471633278,
				"z": 0.6611854519,
				"element": "C" 
			},
			{
				"x": -0.6306266153,
				"y": 0.9010214322,
				"z": 0.5239036681,
				"element": "C" 
			},
			{
				"x": -1.9018000129,
				"y": 0.4001992336,
				"z": 0.2080375008,
				"element": "C" 
			},
			{
				"x": -3.065352144,
				"y": 1.3211811679,
				"z": 0.0468260717,
				"element": "C" 
			},
			{
				"x": -4.0469821137,
				"y": 1.6256166364,
				"z": 1.775510936,
				"element": "Br" 
			},
			{
				"x": -2.052762742,
				"y": -0.9805985792,
				"z": 0.0338604019,
				"element": "C" 
			},
			{
				"x": -0.9604245921,
				"y": -1.8355343073,
				"z": 0.1695191695,
				"element": "C" 
			},
			{
				"x": 4.0378605923,
				"y": -2.9437566734,
				"z": -1.1546408704,
				"element": "H" 
			},
			{
				"x": 1.9126494699,
				"y": -2.179439282,
				"z": 1.6536658307,
				"element": "H" 
			},
			{
				"x": 1.1598726239,
				"y": -3.321781098,
				"z": 0.5590595153,
				"element": "H" 
			},
			{
				"x": 1.4387323993,
				"y": 0.4542832609,
				"z": 0.888385976,
				"element": "H" 
			},
			{
				"x": -0.4968228771,
				"y": 1.9702202241,
				"z": 0.6661244713,
				"element": "H" 
			},
			{
				"x": -3.8276021004,
				"y": 0.9262341593,
				"z": -0.6221691766,
				"element": "H" 
			},
			{
				"x": -2.7724922315,
				"y": 2.3209088594,
				"z": -0.2683094702,
				"element": "H" 
			},
			{
				"x": -3.030822568,
				"y": -1.3889692147,
				"z": -0.2067670862,
				"element": "H" 
			},
			{
				"x": -1.096275216,
				"y": -2.9046582339,
				"z": 0.0274798699,
				"element": "H" 
			}
		],
		 "valence_orbital": [ 
			{
				"type": "occ",
				"energy": -0.28479,
				"method": "rhf"
			},
			{
				"type": "occ",
				"energy": -0.27098,
				"method": "rhf"
			},
			{
				"type": "occ",
				"energy": -0.26833,
				"method": "rhf"
			},
			{
				"type": "occ",
				"energy": -0.25596,
				"method": "rhf"
			},
			{
				"type": "occ",
				"energy": -0.2451,
				"method": "rhf"
			},
			{
				"type": "unocc",
				"energy": -0.03833,
				"method": "rhf"
			},
			{
				"type": "unocc",
				"energy": -0.00983,
				"method": "rhf"
			},
			{
				"type": "unocc",
				"energy": 0.00393,
				"method": "rhf"
			},
			{
				"type": "unocc",
				"energy": 0.0283,
				"method": "rhf"
			},
			{
				"type": "unocc",
				"energy": 0.07316,
				"method": "rhf"
			}
		],
		"cosmo_sigma_profile": { 
			"-0.025": 0.0,
			"-0.024": 0.0,
			"-0.023": 0.0,
			"-0.022": 0.0,
			"-0.021": 0.0,
			"-0.02": 0.0,
			"-0.019": 0.0315929958189,
			"-0.018": 0.806894471119,
			"-0.017": 0.800284346597,
			"-0.016": 1.08840318608,
			"-0.015": 0.47001065851,
			"-0.014": 0.876825889252,
			"-0.013": 0.764182856624,
			"-0.012": 0.431988377282,
			"-0.011": 0.823245173541,
			"-0.01": 1.08473053499,
			"-0.009": 0.38773220298,
			"-0.008": 2.96989937482,
			"-0.007": 12.172239052,
			"-0.006": 16.5002537452,
			"-0.005": 15.4738183599,
			"-0.004": 16.8916549887,
			"-0.003": 14.384204774,
			"-0.002": 12.6339279483,
			"-0.001": 9.97033773058,
			"0.0": 11.4656973492,
			"0.001": 9.70145008271,
			"0.002": 11.2607958467,
			"0.003": 11.7193613916,
			"0.004": 15.4854050303,
			"0.005": 18.1413572596,
			"0.006": 13.4874368544,
			"0.007": 9.78824419531,
			"0.008": 2.86632717271,
			"0.009": 3.96091895582,
			"0.01": 2.44200341671,
			"0.011": 4.08262410341,
			"0.012": 2.92544556134,
			"0.013": 0.0154805999012,
			"0.014": 0.0,
			"0.015": 0.0,
			"0.016": 0.0,
			"0.017": 0.0,
			"0.018": 0.0,
			"0.019": 0.0,
			"0.02": 0.0,
			"0.021": 0.0,
			"0.022": 0.0,
			"0.023": 0.0,
			"0.024": 0.0,
			"0.025": 0.0
		}
	}
}
