{
	 "smiles": "OC(C1CCNCC1)C1=CC=C(Cl)C=C1", 
	 "Tm": 413.15, 
	 "num_atms": 31, 
	 "gaussian": { 
		 "optdone": 1, 
		 "sigma_profile": "yes", 
		 "theory": "DFT", 
		 "functional": "B3LYP", 
		 "basiset": "6-31G**", 
		 "properties": { 
			 "R2extent": 4568.9069, 
			 "electric_dipole_moment_norm": 2.08002174267, 
			 "electric_quadrupole_moment_norm": 9.34986913438, 
			 "total_energy": -1057.07326132, 
			 "HOMO_LUMO_gap": 0.18616, 
			 "cosmo_polarized_energy": -10.73, 
			 "cosmo_cavitation_energy": 33.22, 
			 "cosmo_dispersion_energy": -23.97, 
			 "cosmo_repulsion_energy": 1.89, 
			 "cosmo_total_nonelectrostatic_energy": 11.14, 
			 "SMD_solvation_energy": 2.2 
		},
		"coords": [
			{
				"x": -0.1480206386,
				"y": -1.5114514927,
				"z": -3.2523667299,
				"element": "O" 
			},
			{
				"x": 0.590644928,
				"y": -1.0402597952,
				"z": -2.1257586772,
				"element": "C" 
			},
			{
				"x": 0.3872945195,
				"y": -2.1057425616,
				"z": -1.0191311189,
				"element": "C" 
			},
			{
				"x": -1.0794041043,
				"y": -2.2442064337,
				"z": -0.5219634385,
				"element": "C" 
			},
			{
				"x": -1.2464155058,
				"y": -1.6792200881,
				"z": 0.8967380039,
				"element": "C" 
			},
			{
				"x": -0.3661279985,
				"y": -2.3123978309,
				"z": 1.8941284407,
				"element": "N" 
			},
			{
				"x": 0.9249016566,
				"y": -2.7788025939,
				"z": 1.3581026685,
				"element": "C" 
			},
			{
				"x": 1.350647742,
				"y": -1.9107162914,
				"z": 0.1715618591,
				"element": "C" 
			},
			{
				"x": 0.1992606029,
				"y": 0.3858189767,
				"z": -1.7596582585,
				"element": "C" 
			},
			{
				"x": -1.0908408936,
				"y": 0.8703202562,
				"z": -2.0169084535,
				"element": "C" 
			},
			{
				"x": -1.453778199,
				"y": 2.1749473334,
				"z": -1.6815681838,
				"element": "C" 
			},
			{
				"x": -0.5112184096,
				"y": 3.0110147162,
				"z": -1.0854167704,
				"element": "C" 
			},
			{
				"x": -0.9571707752,
				"y": 4.6588650078,
				"z": -0.6628594156,
				"element": "Cl" 
			},
			{
				"x": 0.7853653224,
				"y": 2.5644255,
				"z": -0.8337224862,
				"element": "C" 
			},
			{
				"x": 1.1306866272,
				"y": 1.2582470604,
				"z": -1.1793751549,
				"element": "C" 
			},
			{
				"x": -0.0400820529,
				"y": -0.8684776786,
				"z": -3.9659624983,
				"element": "H" 
			},
			{
				"x": 1.6691290236,
				"y": -1.0365670935,
				"z": -2.359356622,
				"element": "H" 
			},
			{
				"x": 0.6618595824,
				"y": -3.0454079299,
				"z": -1.5147983495,
				"element": "H" 
			},
			{
				"x": -1.7716583727,
				"y": -1.7584049203,
				"z": -1.2158488138,
				"element": "H" 
			},
			{
				"x": -1.3564548848,
				"y": -3.3053881797,
				"z": -0.5140926401,
				"element": "H" 
			},
			{
				"x": -2.28140544,
				"y": -1.7931231018,
				"z": 1.236323167,
				"element": "H" 
			},
			{
				"x": -1.0516280505,
				"y": -0.5989172455,
				"z": 0.8789012927,
				"element": "H" 
			},
			{
				"x": -0.8499118128,
				"y": -3.0921070412,
				"z": 2.3265666328,
				"element": "H" 
			},
			{
				"x": 0.8917328466,
				"y": -3.8308214861,
				"z": 1.0214919403,
				"element": "H" 
			},
			{
				"x": 1.6821521596,
				"y": -2.7297874014,
				"z": 2.1514791798,
				"element": "H" 
			},
			{
				"x": 1.3600126713,
				"y": -0.8643697886,
				"z": 0.4980524713,
				"element": "H" 
			},
			{
				"x": 2.3761358227,
				"y": -2.1603947435,
				"z": -0.1246339629,
				"element": "H" 
			},
			{
				"x": -1.8129296936,
				"y": 0.2211962382,
				"z": -2.5007659238,
				"element": "H" 
			},
			{
				"x": -2.4543300297,
				"y": 2.5413165341,
				"z": -1.8839881906,
				"element": "H" 
			},
			{
				"x": 1.5135966819,
				"y": 3.2313682073,
				"z": -0.385574343,
				"element": "H" 
			},
			{
				"x": 2.1481566749,
				"y": 0.9194438669,
				"z": -1.0028956249,
				"element": "H" 
			}
		],
		 "valence_orbital": [ 
			{
				"type": "occ",
				"energy": -0.30239,
				"method": "rhf"
			},
			{
				"type": "occ",
				"energy": -0.2807,
				"method": "rhf"
			},
			{
				"type": "occ",
				"energy": -0.26501,
				"method": "rhf"
			},
			{
				"type": "occ",
				"energy": -0.24156,
				"method": "rhf"
			},
			{
				"type": "occ",
				"energy": -0.20444,
				"method": "rhf"
			},
			{
				"type": "unocc",
				"energy": -0.01828,
				"method": "rhf"
			},
			{
				"type": "unocc",
				"energy": -0.01659,
				"method": "rhf"
			},
			{
				"type": "unocc",
				"energy": 0.02972,
				"method": "rhf"
			},
			{
				"type": "unocc",
				"energy": 0.07259,
				"method": "rhf"
			},
			{
				"type": "unocc",
				"energy": 0.08556,
				"method": "rhf"
			}
		],
		"cosmo_sigma_profile": { 
			"-0.025": 0.0,
			"-0.024": 0.0,
			"-0.023": 0.0,
			"-0.022": 0.0,
			"-0.021": 0.0,
			"-0.02": 0.0,
			"-0.019": 0.0,
			"-0.018": 0.0,
			"-0.017": 0.0,
			"-0.016": 0.125561789006,
			"-0.015": 0.747313902425,
			"-0.014": 0.964766342048,
			"-0.013": 0.736555890164,
			"-0.012": 1.27044939762,
			"-0.011": 0.538516112521,
			"-0.01": 0.698988009362,
			"-0.009": 2.02668216885,
			"-0.008": 2.23522175048,
			"-0.007": 5.11259418932,
			"-0.006": 8.26863501399,
			"-0.005": 12.3710308903,
			"-0.004": 15.0194081042,
			"-0.003": 18.9329607585,
			"-0.002": 31.0106531866,
			"-0.001": 27.7886162954,
			"0.0": 26.9509908692,
			"0.001": 21.6414874346,
			"0.002": 18.9985804502,
			"0.003": 18.2644117013,
			"0.004": 17.441125061,
			"0.005": 10.3280123558,
			"0.006": 1.93918858866,
			"0.007": 2.51451079733,
			"0.008": 1.90193661329,
			"0.009": 2.14506276738,
			"0.01": 2.08285791725,
			"0.011": 1.22947873395,
			"0.012": 2.20476122102,
			"0.013": 2.22959563369,
			"0.014": 1.34848916322,
			"0.015": 0.526164265239,
			"0.016": 0.715819988456,
			"0.017": 0.386428797351,
			"0.018": 0.600721523193,
			"0.019": 0.360981283401,
			"0.02": 0.0447636017391,
			"0.021": 0.0,
			"0.022": 0.0,
			"0.023": 0.0,
			"0.024": 0.0,
			"0.025": 0.0
		}
	}
}
