{
	 "smiles": "CC(C)=NN(C1=CC=CC=C1)P(=O)(N1CC1)N1CC1", 
	 "Tm": 393.15, 
	 "num_atms": 38, 
	 "gaussian": { 
		 "optdone": 1, 
		 "sigma_profile": "yes", 
		 "theory": "DFT", 
		 "functional": "B3LYP", 
		 "basiset": "6-31G**", 
		 "properties": { 
			 "R2extent": 5645.5887, 
			 "electric_dipole_moment_norm": 4.24805034339, 
			 "electric_quadrupole_moment_norm": 10.0833719375, 
			 "total_energy": -1142.34049362, 
			 "HOMO_LUMO_gap": 0.18029, 
			 "cosmo_polarized_energy": -15.41, 
			 "cosmo_cavitation_energy": 41.23, 
			 "cosmo_dispersion_energy": -26.98, 
			 "cosmo_repulsion_energy": 2.07, 
			 "cosmo_total_nonelectrostatic_energy": 16.32, 
			 "SMD_solvation_energy": 4.76 
		},
		"coords": [
			{
				"x": 0.0309963751,
				"y": -2.3051940752,
				"z": 1.1956448284,
				"element": "C" 
			},
			{
				"x": 0.2189818194,
				"y": -1.8897478004,
				"z": -0.2373997061,
				"element": "C" 
			},
			{
				"x": 0.1133372491,
				"y": -2.9715670152,
				"z": -1.2798794816,
				"element": "C" 
			},
			{
				"x": 0.4605458424,
				"y": -0.707781536,
				"z": -0.678309293,
				"element": "N" 
			},
			{
				"x": 0.5894829084,
				"y": 0.3105852475,
				"z": 0.3471926432,
				"element": "N" 
			},
			{
				"x": -0.4669020144,
				"y": 1.2826233699,
				"z": 0.3122539847,
				"element": "C" 
			},
			{
				"x": -1.4431530013,
				"y": 1.2406514588,
				"z": -0.6974616401,
				"element": "C" 
			},
			{
				"x": -2.4954671675,
				"y": 2.1574362397,
				"z": -0.6959356878,
				"element": "C" 
			},
			{
				"x": -2.5979995786,
				"y": 3.126131389,
				"z": 0.3010102227,
				"element": "C" 
			},
			{
				"x": -1.6297576318,
				"y": 3.1621360191,
				"z": 1.3071949225,
				"element": "C" 
			},
			{
				"x": -0.5766485796,
				"y": 2.2507637173,
				"z": 1.3277194947,
				"element": "C" 
			},
			{
				"x": 2.2273204697,
				"y": 0.7836845953,
				"z": 0.649400283,
				"element": "P" 
			},
			{
				"x": 2.3204566476,
				"y": 1.7893019567,
				"z": 1.7451545562,
				"element": "O" 
			},
			{
				"x": 2.958049595,
				"y": -0.725761103,
				"z": 0.921032801,
				"element": "N" 
			},
			{
				"x": 3.2872648532,
				"y": -1.0802297934,
				"z": 2.3147374147,
				"element": "C" 
			},
			{
				"x": 4.3634953484,
				"y": -0.7212157725,
				"z": 1.3572436685,
				"element": "C" 
			},
			{
				"x": 3.0398599503,
				"y": 1.2871962566,
				"z": -0.7428216636,
				"element": "N" 
			},
			{
				"x": 2.7187360241,
				"y": 0.9472637078,
				"z": -2.1349043708,
				"element": "C" 
			},
			{
				"x": 2.5118474471,
				"y": 2.3317978119,
				"z": -1.6256786552,
				"element": "C" 
			},
			{
				"x": -0.883411876,
				"y": -2.9008626271,
				"z": 1.2911388452,
				"element": "H" 
			},
			{
				"x": 0.8655743308,
				"y": -2.9465191781,
				"z": 1.5000921243,
				"element": "H" 
			},
			{
				"x": -0.0155640512,
				"y": -1.4454258514,
				"z": 1.8619880657,
				"element": "H" 
			},
			{
				"x": 0.2492882456,
				"y": -2.5559663008,
				"z": -2.2793689411,
				"element": "H" 
			},
			{
				"x": 0.8758678356,
				"y": -3.739599011,
				"z": -1.1035795574,
				"element": "H" 
			},
			{
				"x": -0.8618377715,
				"y": -3.4686413467,
				"z": -1.2213897006,
				"element": "H" 
			},
			{
				"x": -1.3745793819,
				"y": 0.4925946174,
				"z": -1.4766310577,
				"element": "H" 
			},
			{
				"x": -3.2392415495,
				"y": 2.1067122709,
				"z": -1.4868106076,
				"element": "H" 
			},
			{
				"x": -3.4200392323,
				"y": 3.8356575144,
				"z": 0.2996486881,
				"element": "H" 
			},
			{
				"x": -1.6953255495,
				"y": 3.9038253925,
				"z": 2.0986626217,
				"element": "H" 
			},
			{
				"x": 0.1698264149,
				"y": 2.2881553432,
				"z": 2.1099329497,
				"element": "H" 
			},
			{
				"x": 3.0453589182,
				"y": -0.3517079697,
				"z": 3.0851203889,
				"element": "H" 
			},
			{
				"x": 3.1095949832,
				"y": -2.1209804841,
				"z": 2.5733972191,
				"element": "H" 
			},
			{
				"x": 4.8543897974,
				"y": 0.2395344183,
				"z": 1.4935066765,
				"element": "H" 
			},
			{
				"x": 4.9775255751,
				"y": -1.4957747878,
				"z": 0.9046829644,
				"element": "H" 
			},
			{
				"x": 1.8417776661,
				"y": 0.3342259217,
				"z": -2.3176609536,
				"element": "H" 
			},
			{
				"x": 3.5897019944,
				"y": 0.7271110955,
				"z": -2.7484730392,
				"element": "H" 
			},
			{
				"x": 3.2206247937,
				"y": 3.1185148758,
				"z": -1.8725605213,
				"element": "H" 
			},
			{
				"x": 1.4877223002,
				"y": 2.6666714334,
				"z": -1.4757904865,
				"element": "H" 
			}
		],
		 "valence_orbital": [ 
			{
				"type": "occ",
				"energy": -0.26287,
				"method": "rhf"
			},
			{
				"type": "occ",
				"energy": -0.25562,
				"method": "rhf"
			},
			{
				"type": "occ",
				"energy": -0.24987,
				"method": "rhf"
			},
			{
				"type": "occ",
				"energy": -0.23676,
				"method": "rhf"
			},
			{
				"type": "occ",
				"energy": -0.19455,
				"method": "rhf"
			},
			{
				"type": "unocc",
				"energy": -0.01426,
				"method": "rhf"
			},
			{
				"type": "unocc",
				"energy": 0.01172,
				"method": "rhf"
			},
			{
				"type": "unocc",
				"energy": 0.01632,
				"method": "rhf"
			},
			{
				"type": "unocc",
				"energy": 0.07671,
				"method": "rhf"
			},
			{
				"type": "unocc",
				"energy": 0.07967,
				"method": "rhf"
			}
		],
		"cosmo_sigma_profile": { 
			"-0.025": 0.0,
			"-0.024": 0.0,
			"-0.023": 0.0,
			"-0.022": 0.0,
			"-0.021": 0.0,
			"-0.02": 0.0,
			"-0.019": 0.0,
			"-0.018": 0.0,
			"-0.017": 0.0,
			"-0.016": 0.0,
			"-0.015": 0.0,
			"-0.014": 0.0,
			"-0.013": 0.0,
			"-0.012": 0.0,
			"-0.011": 0.0,
			"-0.01": 0.0,
			"-0.009": 0.0,
			"-0.008": 0.0,
			"-0.007": 1.90868532587,
			"-0.006": 16.4724716363,
			"-0.005": 26.6925531208,
			"-0.004": 31.608642454,
			"-0.003": 36.1781922871,
			"-0.002": 35.7495034996,
			"-0.001": 34.0071973119,
			"0.0": 24.9137386984,
			"0.001": 19.5012365381,
			"0.002": 12.5307628417,
			"0.003": 15.1170699206,
			"0.004": 14.1612103374,
			"0.005": 13.6656155867,
			"0.006": 13.751421048,
			"0.007": 6.02433092371,
			"0.008": 3.89726300966,
			"0.009": 3.18794034639,
			"0.01": 2.88628194049,
			"0.011": 2.60330153334,
			"0.012": 1.90602964499,
			"0.013": 2.15691766798,
			"0.014": 2.22310794234,
			"0.015": 2.58842316427,
			"0.016": 0.900947552323,
			"0.017": 0.0,
			"0.018": 0.0,
			"0.019": 0.0,
			"0.02": 0.0,
			"0.021": 0.0,
			"0.022": 0.0,
			"0.023": 0.0,
			"0.024": 0.0,
			"0.025": 0.0
		}
	}
}
