{
	 "smiles": "CC(NC(=O)C1=CC2=C(NN=C2)C=C1)C(O)=O", 
	 "Tm": 503.15, 
	 "num_atms": 28, 
	 "gaussian": { 
		 "optdone": 1, 
		 "sigma_profile": "yes", 
		 "theory": "DFT", 
		 "functional": "B3LYP", 
		 "basiset": "6-31G**", 
		 "properties": { 
			 "R2extent": 5549.4389, 
			 "electric_dipole_moment_norm": 7.47846746199, 
			 "electric_quadrupole_moment_norm": 23.3269636918, 
			 "total_energy": -815.747447976, 
			 "HOMO_LUMO_gap": 0.18519, 
			 "cosmo_polarized_energy": -23.8, 
			 "cosmo_cavitation_energy": 32.38, 
			 "cosmo_dispersion_energy": -23.8, 
			 "cosmo_repulsion_energy": 1.83, 
			 "cosmo_total_nonelectrostatic_energy": 10.41, 
			 "SMD_solvation_energy": 5.69 
		},
		"coords": [
			{
				"x": -1.6380263625,
				"y": -3.7697995163,
				"z": 0.5959792742,
				"element": "C" 
			},
			{
				"x": -2.2993316107,
				"y": -2.382799575,
				"z": 0.5421178649,
				"element": "C" 
			},
			{
				"x": -1.4252796764,
				"y": -1.3733729561,
				"z": -0.0835104456,
				"element": "N" 
			},
			{
				"x": -0.1889988253,
				"y": -1.0153457432,
				"z": 0.3542214675,
				"element": "C" 
			},
			{
				"x": 0.2652018815,
				"y": -1.4197426898,
				"z": 1.4406717155,
				"element": "O" 
			},
			{
				"x": 0.6056983159,
				"y": -0.0975387592,
				"z": -0.513805362,
				"element": "C" 
			},
			{
				"x": 1.6240866259,
				"y": 0.6301543942,
				"z": 0.0983825717,
				"element": "C" 
			},
			{
				"x": 2.3861879858,
				"y": 1.5106239777,
				"z": -0.6792375731,
				"element": "C" 
			},
			{
				"x": 2.1190755757,
				"y": 1.6352674302,
				"z": -2.0689207443,
				"element": "C" 
			},
			{
				"x": 3.0157048679,
				"y": 2.5511927298,
				"z": -2.5335859679,
				"element": "N" 
			},
			{
				"x": 3.8376652269,
				"y": 3.0266829734,
				"z": -1.556031711,
				"element": "N" 
			},
			{
				"x": 3.47186494,
				"y": 2.4142106131,
				"z": -0.4467721804,
				"element": "C" 
			},
			{
				"x": 1.1104740079,
				"y": 0.8907437961,
				"z": -2.7029296377,
				"element": "C" 
			},
			{
				"x": 0.368084837,
				"y": 0.0335447947,
				"z": -1.9100432837,
				"element": "C" 
			},
			{
				"x": -2.8475816794,
				"y": -1.9747381814,
				"z": 1.9327536284,
				"element": "C" 
			},
			{
				"x": -1.9476324082,
				"y": -1.6292356943,
				"z": 2.8553461631,
				"element": "O" 
			},
			{
				"x": -4.0346460253,
				"y": -2.0250492839,
				"z": 2.1644801032,
				"element": "O" 
			},
			{
				"x": -1.3658154844,
				"y": -4.095471339,
				"z": -0.412125099,
				"element": "H" 
			},
			{
				"x": -0.7382247601,
				"y": -3.7564040322,
				"z": 1.2130594351,
				"element": "H" 
			},
			{
				"x": -2.3428819982,
				"y": -4.4919925185,
				"z": 1.0173189358,
				"element": "H" 
			},
			{
				"x": -3.1860456356,
				"y": -2.4368204538,
				"z": -0.0913814189,
				"element": "H" 
			},
			{
				"x": -1.8140575705,
				"y": -0.8573207631,
				"z": -0.8576735701,
				"element": "H" 
			},
			{
				"x": 1.8010757713,
				"y": 0.4986210431,
				"z": 1.1602560433,
				"element": "H" 
			},
			{
				"x": 3.1302641102,
				"y": 2.8968638837,
				"z": -3.4729806507,
				"element": "H" 
			},
			{
				"x": 3.9840916799,
				"y": 2.6278809113,
				"z": 0.4815593798,
				"element": "H" 
			},
			{
				"x": 0.9267082688,
				"y": 0.968361098,
				"z": -3.7696579356,
				"element": "H" 
			},
			{
				"x": -0.3879537309,
				"y": -0.5839967933,
				"z": -2.3857355836,
				"element": "H" 
			},
			{
				"x": -1.033608327,
				"y": -1.6190193462,
				"z": 2.462844581,
				"element": "H" 
			}
		],
		 "valence_orbital": [ 
			{
				"type": "occ",
				"energy": -0.29334,
				"method": "rhf"
			},
			{
				"type": "occ",
				"energy": -0.27956,
				"method": "rhf"
			},
			{
				"type": "occ",
				"energy": -0.2665,
				"method": "rhf"
			},
			{
				"type": "occ",
				"energy": -0.24889,
				"method": "rhf"
			},
			{
				"type": "occ",
				"energy": -0.24245,
				"method": "rhf"
			},
			{
				"type": "unocc",
				"energy": -0.05726,
				"method": "rhf"
			},
			{
				"type": "unocc",
				"energy": -0.043,
				"method": "rhf"
			},
			{
				"type": "unocc",
				"energy": 0.01965,
				"method": "rhf"
			},
			{
				"type": "unocc",
				"energy": 0.03264,
				"method": "rhf"
			},
			{
				"type": "unocc",
				"energy": 0.05322,
				"method": "rhf"
			}
		],
		"cosmo_sigma_profile": { 
			"-0.025": 0.0,
			"-0.024": 0.0,
			"-0.023": 0.0,
			"-0.022": 0.0,
			"-0.021": 0.0,
			"-0.02": 0.0,
			"-0.019": 0.0,
			"-0.018": 0.0,
			"-0.017": 0.63665906521,
			"-0.016": 2.19264378115,
			"-0.015": 2.92801160876,
			"-0.014": 2.52379832012,
			"-0.013": 2.16583838637,
			"-0.012": 2.65290901982,
			"-0.011": 3.11492350731,
			"-0.01": 2.16201075922,
			"-0.009": 3.05025665895,
			"-0.008": 6.32496765509,
			"-0.007": 8.57662224235,
			"-0.006": 9.0588885081,
			"-0.005": 14.1225900465,
			"-0.004": 14.4525788033,
			"-0.003": 18.7562302966,
			"-0.002": 17.5929797961,
			"-0.001": 17.7288193655,
			"0.0": 15.4821286665,
			"0.001": 15.0199280742,
			"0.002": 19.1643865764,
			"0.003": 18.165962376,
			"0.004": 7.24371487933,
			"0.005": 5.31938979656,
			"0.006": 4.42538514655,
			"0.007": 5.78086085638,
			"0.008": 4.71182946491,
			"0.009": 4.96866614789,
			"0.01": 5.73082456973,
			"0.011": 8.02466407344,
			"0.012": 9.06151580794,
			"0.013": 5.35102247809,
			"0.014": 1.44244400946,
			"0.015": 0.661177334415,
			"0.016": 0.0300296378894,
			"0.017": 0.0,
			"0.018": 0.0,
			"0.019": 0.0,
			"0.02": 0.0,
			"0.021": 0.0,
			"0.022": 0.0,
			"0.023": 0.0,
			"0.024": 0.0,
			"0.025": 0.0
		}
	}
}
