{
	 "smiles": "CCC(=O)N1CCCC(C1)C(O)=O", 
	 "Tm": 391.15, 
	 "num_atms": 28, 
	 "gaussian": { 
		 "optdone": 1, 
		 "sigma_profile": "yes", 
		 "theory": "DFT", 
		 "functional": "B3LYP", 
		 "basiset": "6-31G**", 
		 "properties": { 
			 "R2extent": 3160.3738, 
			 "electric_dipole_moment_norm": 3.32410925212, 
			 "electric_quadrupole_moment_norm": 12.2772649914, 
			 "total_energy": -632.465213202, 
			 "HOMO_LUMO_gap": 0.23199, 
			 "cosmo_polarized_energy": -15.02, 
			 "cosmo_cavitation_energy": 29.79, 
			 "cosmo_dispersion_energy": -21.45, 
			 "cosmo_repulsion_energy": 1.72, 
			 "cosmo_total_nonelectrostatic_energy": 10.07, 
			 "SMD_solvation_energy": 5.97 
		},
		"coords": [
			{
				"x": 2.7658276314,
				"y": 3.1848490372,
				"z": -0.503558987,
				"element": "C" 
			},
			{
				"x": 1.7339498695,
				"y": 2.1149266178,
				"z": -0.1477297618,
				"element": "C" 
			},
			{
				"x": 1.8442217722,
				"y": 0.8907412128,
				"z": -1.0621116999,
				"element": "C" 
			},
			{
				"x": 2.6904326154,
				"y": 0.8423480333,
				"z": -1.9503065897,
				"element": "O" 
			},
			{
				"x": 0.9612170142,
				"y": -0.1474172142,
				"z": -0.8511935052,
				"element": "N" 
			},
			{
				"x": 1.0463074621,
				"y": -1.3436619404,
				"z": -1.6904651741,
				"element": "C" 
			},
			{
				"x": -0.3034426164,
				"y": -1.6369156703,
				"z": -2.3561509018,
				"element": "C" 
			},
			{
				"x": -1.4323402982,
				"y": -1.7209617024,
				"z": -1.3191630377,
				"element": "C" 
			},
			{
				"x": -1.4485651828,
				"y": -0.4511580838,
				"z": -0.4366335667,
				"element": "C" 
			},
			{
				"x": -0.0619862142,
				"y": -0.2015103397,
				"z": 0.185458416,
				"element": "C" 
			},
			{
				"x": -2.5062082901,
				"y": -0.5303297164,
				"z": 0.6455828414,
				"element": "C" 
			},
			{
				"x": -3.7528851468,
				"y": -0.6414493416,
				"z": 0.1268581142,
				"element": "O" 
			},
			{
				"x": -2.2996508118,
				"y": -0.4996455459,
				"z": 1.8403116956,
				"element": "O" 
			},
			{
				"x": 2.6669484907,
				"y": 4.0454022797,
				"z": 0.1652333317,
				"element": "H" 
			},
			{
				"x": 3.7810546282,
				"y": 2.7905287202,
				"z": -0.4190612677,
				"element": "H" 
			},
			{
				"x": 2.6363510588,
				"y": 3.5252755917,
				"z": -1.5335571175,
				"element": "H" 
			},
			{
				"x": 1.8600906802,
				"y": 1.7988023683,
				"z": 0.8958323993,
				"element": "H" 
			},
			{
				"x": 0.7200318983,
				"y": 2.5302177865,
				"z": -0.215336288,
				"element": "H" 
			},
			{
				"x": 1.3443369538,
				"y": -2.1987596119,
				"z": -1.0639368451,
				"element": "H" 
			},
			{
				"x": 1.8322060164,
				"y": -1.1684520235,
				"z": -2.4244149063,
				"element": "H" 
			},
			{
				"x": -0.2384810446,
				"y": -2.5759402108,
				"z": -2.9176770838,
				"element": "H" 
			},
			{
				"x": -0.5242465301,
				"y": -0.8420113022,
				"z": -3.0795756487,
				"element": "H" 
			},
			{
				"x": -1.2747735355,
				"y": -2.5974231934,
				"z": -0.6749848223,
				"element": "H" 
			},
			{
				"x": -2.4043365272,
				"y": -1.849995298,
				"z": -1.8035896412,
				"element": "H" 
			},
			{
				"x": -1.7077230695,
				"y": 0.4015571977,
				"z": -1.0795983059,
				"element": "H" 
			},
			{
				"x": -0.072304842,
				"y": 0.718552883,
				"z": 0.7655946791,
				"element": "H" 
			},
			{
				"x": 0.1617202922,
				"y": -1.0156537423,
				"z": 0.8894374708,
				"element": "H" 
			},
			{
				"x": -4.3588522746,
				"y": -0.6916167913,
				"z": 0.8855362022,
				"element": "H" 
			}
		],
		 "valence_orbital": [ 
			{
				"type": "occ",
				"energy": -0.33453,
				"method": "rhf"
			},
			{
				"type": "occ",
				"energy": -0.32775,
				"method": "rhf"
			},
			{
				"type": "occ",
				"energy": -0.28364,
				"method": "rhf"
			},
			{
				"type": "occ",
				"energy": -0.24222,
				"method": "rhf"
			},
			{
				"type": "occ",
				"energy": -0.23417,
				"method": "rhf"
			},
			{
				"type": "unocc",
				"energy": -0.00218,
				"method": "rhf"
			},
			{
				"type": "unocc",
				"energy": 0.03145,
				"method": "rhf"
			},
			{
				"type": "unocc",
				"energy": 0.06866,
				"method": "rhf"
			},
			{
				"type": "unocc",
				"energy": 0.08446,
				"method": "rhf"
			},
			{
				"type": "unocc",
				"energy": 0.10115,
				"method": "rhf"
			}
		],
		"cosmo_sigma_profile": { 
			"-0.025": 0.0,
			"-0.024": 0.0,
			"-0.023": 0.0,
			"-0.022": 0.0,
			"-0.021": 0.0,
			"-0.02": 0.0,
			"-0.019": 0.0129334067025,
			"-0.018": 0.786687478544,
			"-0.017": 0.808005885812,
			"-0.016": 1.16776402322,
			"-0.015": 0.697091693505,
			"-0.014": 0.57024797327,
			"-0.013": 0.304205337978,
			"-0.012": 1.09333070491,
			"-0.011": 0.821267826502,
			"-0.01": 0.65147274252,
			"-0.009": 0.335437843072,
			"-0.008": 0.272557846514,
			"-0.007": 2.01982885781,
			"-0.006": 8.54110550136,
			"-0.005": 14.3209938158,
			"-0.004": 21.2636220647,
			"-0.003": 27.6611295014,
			"-0.002": 30.4496982936,
			"-0.001": 25.6623821555,
			"0.0": 17.901628909,
			"0.001": 13.5001091428,
			"0.002": 8.34009482192,
			"0.003": 5.44543944938,
			"0.004": 3.67943169768,
			"0.005": 5.20145153194,
			"0.006": 4.09844985768,
			"0.007": 3.21911930474,
			"0.008": 5.05707736408,
			"0.009": 4.77263002211,
			"0.01": 3.00208601287,
			"0.011": 5.32923710174,
			"0.012": 5.93559113556,
			"0.013": 2.08407644428,
			"0.014": 4.76333790977,
			"0.015": 1.64648049864,
			"0.016": 0.0,
			"0.017": 0.0,
			"0.018": 0.0,
			"0.019": 0.0,
			"0.02": 0.0,
			"0.021": 0.0,
			"0.022": 0.0,
			"0.023": 0.0,
			"0.024": 0.0,
			"0.025": 0.0
		}
	}
}
