{
	 "smiles": "OC(=O)C1=CN=C(C=C1)C1=CC=CO1", 
	 "Tm": 473.15, 
	 "num_atms": 21, 
	 "gaussian": { 
		 "optdone": 1, 
		 "sigma_profile": "yes", 
		 "theory": "DFT", 
		 "functional": "B3LYP", 
		 "basiset": "6-31G**", 
		 "properties": { 
			 "R2extent": 3858.9687, 
			 "electric_dipole_moment_norm": 4.75068742605, 
			 "electric_quadrupole_moment_norm": 15.6087162547, 
			 "total_energy": -665.683871308, 
			 "HOMO_LUMO_gap": 0.15432, 
			 "cosmo_polarized_energy": -17.69, 
			 "cosmo_cavitation_energy": 26.72, 
			 "cosmo_dispersion_energy": -19.86, 
			 "cosmo_repulsion_energy": 1.53, 
			 "cosmo_total_nonelectrostatic_energy": 8.38, 
			 "SMD_solvation_energy": 5.44 
		},
		"coords": [
			{
				"x": -4.9222798459,
				"y": -1.1754105474,
				"z": 0.7577617493,
				"element": "O" 
			},
			{
				"x": -3.8615642289,
				"y": -1.35904679,
				"z": 1.5876501088,
				"element": "C" 
			},
			{
				"x": -4.0340556413,
				"y": -1.8049846469,
				"z": 2.6983981916,
				"element": "O" 
			},
			{
				"x": -2.512510594,
				"y": -0.9881091072,
				"z": 1.0627893109,
				"element": "C" 
			},
			{
				"x": -2.2952754281,
				"y": -0.1628781925,
				"z": -0.0478538503,
				"element": "C" 
			},
			{
				"x": -1.0940367986,
				"y": 0.1771018877,
				"z": -0.5105648644,
				"element": "N" 
			},
			{
				"x": -0.0108631285,
				"y": -0.2977620077,
				"z": 0.1345171626,
				"element": "C" 
			},
			{
				"x": -0.1201859493,
				"y": -1.1138589115,
				"z": 1.2807778229,
				"element": "C" 
			},
			{
				"x": -1.3776951517,
				"y": -1.4523711515,
				"z": 1.7458782586,
				"element": "C" 
			},
			{
				"x": 1.2967480318,
				"y": 0.0674582267,
				"z": -0.3922382392,
				"element": "C" 
			},
			{
				"x": 2.5806032888,
				"y": -0.2356576725,
				"z": -0.0018917767,
				"element": "C" 
			},
			{
				"x": 3.4529074665,
				"y": 0.4191618752,
				"z": -0.9188600386,
				"element": "C" 
			},
			{
				"x": 2.6423698497,
				"y": 1.07339014,
				"z": -1.8017200183,
				"element": "C" 
			},
			{
				"x": 1.3378320891,
				"y": 0.871182217,
				"z": -1.4980427758,
				"element": "O" 
			},
			{
				"x": -4.6245876243,
				"y": -0.9562379794,
				"z": -0.1358935393,
				"element": "H" 
			},
			{
				"x": -3.1331023599,
				"y": 0.2803487632,
				"z": -0.5889263713,
				"element": "H" 
			},
			{
				"x": 0.7687279516,
				"y": -1.4685113459,
				"z": 1.7909096708,
				"element": "H" 
			},
			{
				"x": -1.5142122275,
				"y": -2.0697701387,
				"z": 2.6274117168,
				"element": "H" 
			},
			{
				"x": 2.8703649756,
				"y": -0.851649789,
				"z": 0.8369289966,
				"element": "H" 
			},
			{
				"x": 4.5330256156,
				"y": 0.4054547185,
				"z": -0.9214666289,
				"element": "H" 
			},
			{
				"x": 2.8334897092,
				"y": 1.6967504519,
				"z": -2.6616648862,
				"element": "H" 
			}
		],
		 "valence_orbital": [ 
			{
				"type": "occ",
				"energy": -0.3021,
				"method": "rhf"
			},
			{
				"type": "occ",
				"energy": -0.29003,
				"method": "rhf"
			},
			{
				"type": "occ",
				"energy": -0.28489,
				"method": "rhf"
			},
			{
				"type": "occ",
				"energy": -0.26645,
				"method": "rhf"
			},
			{
				"type": "occ",
				"energy": -0.22791,
				"method": "rhf"
			},
			{
				"type": "unocc",
				"energy": -0.07359,
				"method": "rhf"
			},
			{
				"type": "unocc",
				"energy": -0.03871,
				"method": "rhf"
			},
			{
				"type": "unocc",
				"energy": 0.00298,
				"method": "rhf"
			},
			{
				"type": "unocc",
				"energy": 0.04094,
				"method": "rhf"
			},
			{
				"type": "unocc",
				"energy": 0.05864,
				"method": "rhf"
			}
		],
		"cosmo_sigma_profile": { 
			"-0.025": 0.0,
			"-0.024": 0.0,
			"-0.023": 0.0,
			"-0.022": 0.0,
			"-0.021": 0.0,
			"-0.02": 0.0286290093292,
			"-0.019": 0.593695976039,
			"-0.018": 0.886806182931,
			"-0.017": 1.09416463829,
			"-0.016": 1.1116359834,
			"-0.015": 1.51460369221,
			"-0.014": 0.154877498681,
			"-0.013": 1.23143548485,
			"-0.012": 1.40411057466,
			"-0.011": 1.19692958676,
			"-0.01": 1.82786533423,
			"-0.009": 5.48473694201,
			"-0.008": 8.25913230841,
			"-0.007": 9.18010829106,
			"-0.006": 9.24643089406,
			"-0.005": 10.3314897655,
			"-0.004": 9.77548277557,
			"-0.003": 10.3978798795,
			"-0.002": 9.91644643704,
			"-0.001": 13.1672842136,
			"0.0": 20.9217598368,
			"0.001": 18.8520485175,
			"0.002": 13.561098774,
			"0.003": 11.3160297393,
			"0.004": 8.72155541826,
			"0.005": 4.76952651198,
			"0.006": 4.6093355539,
			"0.007": 4.08174040233,
			"0.008": 4.79430573131,
			"0.009": 4.38258754876,
			"0.01": 6.29582546738,
			"0.011": 6.72971659028,
			"0.012": 4.70849372173,
			"0.013": 2.78837773193,
			"0.014": 1.07870762318,
			"0.015": 0.95290922207,
			"0.016": 0.578365145134,
			"0.017": 0.0,
			"0.018": 0.0,
			"0.019": 0.0,
			"0.02": 0.0,
			"0.021": 0.0,
			"0.022": 0.0,
			"0.023": 0.0,
			"0.024": 0.0,
			"0.025": 0.0
		}
	}
}
