{
	 "smiles": "ClC1=C2C=CC=CC2=C(N=N1)C1=CC=CC=C1", 
	 "Tm": 430.15, 
	 "num_atms": 26, 
	 "gaussian": { 
		 "optdone": 1, 
		 "sigma_profile": "yes", 
		 "theory": "DFT", 
		 "functional": "B3LYP", 
		 "basiset": "6-31G**", 
		 "properties": { 
			 "R2extent": 5356.4858, 
			 "electric_dipole_moment_norm": 5.50461558512, 
			 "electric_quadrupole_moment_norm": 12.9837893768, 
			 "total_energy": -1108.58209801, 
			 "HOMO_LUMO_gap": 0.16559, 
			 "cosmo_polarized_energy": -12.52, 
			 "cosmo_cavitation_energy": 31.91, 
			 "cosmo_dispersion_energy": -23.71, 
			 "cosmo_repulsion_energy": 1.81, 
			 "cosmo_total_nonelectrostatic_energy": 10.01, 
			 "SMD_solvation_energy": 3.14 
		},
		"coords": [
			{
				"x": -1.1340223703,
				"y": -3.8949498629,
				"z": -0.2677301377,
				"element": "Cl" 
			},
			{
				"x": -1.1878897009,
				"y": -2.203687206,
				"z": 0.2172687033,
				"element": "C" 
			},
			{
				"x": -0.3664158426,
				"y": -1.2529787291,
				"z": -0.4628430289,
				"element": "C" 
			},
			{
				"x": 0.4844078016,
				"y": -1.5511915457,
				"z": -1.5523382212,
				"element": "C" 
			},
			{
				"x": 1.1803531175,
				"y": -0.5380102584,
				"z": -2.1779664076,
				"element": "C" 
			},
			{
				"x": 1.035711075,
				"y": 0.799035682,
				"z": -1.7485699969,
				"element": "C" 
			},
			{
				"x": 0.2192987939,
				"y": 1.1094720988,
				"z": -0.6802133455,
				"element": "C" 
			},
			{
				"x": -0.483825044,
				"y": 0.0873090623,
				"z": 0.0055210867,
				"element": "C" 
			},
			{
				"x": -1.3573623767,
				"y": 0.3092600466,
				"z": 1.1300177322,
				"element": "C" 
			},
			{
				"x": -2.0938013888,
				"y": -0.6556215857,
				"z": 1.6563934243,
				"element": "N" 
			},
			{
				"x": -2.0184546331,
				"y": -1.9260457118,
				"z": 1.1793682053,
				"element": "N" 
			},
			{
				"x": -1.5189794928,
				"y": 1.6366281081,
				"z": 1.7839128253,
				"element": "C" 
			},
			{
				"x": -0.4142698195,
				"y": 2.4283365327,
				"z": 2.1375194,
				"element": "C" 
			},
			{
				"x": -0.5968266735,
				"y": 3.6473953505,
				"z": 2.7911277222,
				"element": "C" 
			},
			{
				"x": -1.8833014273,
				"y": 4.0923716682,
				"z": 3.098782113,
				"element": "C" 
			},
			{
				"x": -2.9873204617,
				"y": 3.3045581185,
				"z": 2.7635365684,
				"element": "C" 
			},
			{
				"x": -2.8074309298,
				"y": 2.0831269708,
				"z": 2.1184484087,
				"element": "C" 
			},
			{
				"x": 0.5705805484,
				"y": -2.5765807197,
				"z": -1.8913884845,
				"element": "H" 
			},
			{
				"x": 1.8311360728,
				"y": -0.7670514554,
				"z": -3.0163786436,
				"element": "H" 
			},
			{
				"x": 1.5665266867,
				"y": 1.5907039509,
				"z": -2.2688048271,
				"element": "H" 
			},
			{
				"x": 0.0981738629,
				"y": 2.1394844515,
				"z": -0.3682899979,
				"element": "H" 
			},
			{
				"x": 0.5916390974,
				"y": 2.0762417193,
				"z": 1.9305832961,
				"element": "H" 
			},
			{
				"x": 0.2677799015,
				"y": 4.2436622597,
				"z": 3.0679759719,
				"element": "H" 
			},
			{
				"x": -2.0247417944,
				"y": 5.0433806858,
				"z": 3.6040588704,
				"element": "H" 
			},
			{
				"x": -3.9906222419,
				"y": 3.6409708625,
				"z": 3.0081990719,
				"element": "H" 
			},
			{
				"x": -3.6579427603,
				"y": 1.4575795064,
				"z": 1.8702096911,
				"element": "H" 
			}
		],
		 "valence_orbital": [ 
			{
				"type": "occ",
				"energy": -0.28694,
				"method": "rhf"
			},
			{
				"type": "occ",
				"energy": -0.26853,
				"method": "rhf"
			},
			{
				"type": "occ",
				"energy": -0.2587,
				"method": "rhf"
			},
			{
				"type": "occ",
				"energy": -0.2419,
				"method": "rhf"
			},
			{
				"type": "occ",
				"energy": -0.23961,
				"method": "rhf"
			},
			{
				"type": "unocc",
				"energy": -0.07402,
				"method": "rhf"
			},
			{
				"type": "unocc",
				"energy": -0.05369,
				"method": "rhf"
			},
			{
				"type": "unocc",
				"energy": -0.02133,
				"method": "rhf"
			},
			{
				"type": "unocc",
				"energy": -0.0092,
				"method": "rhf"
			},
			{
				"type": "unocc",
				"energy": 0.0211,
				"method": "rhf"
			}
		],
		"cosmo_sigma_profile": { 
			"-0.025": 0.0,
			"-0.024": 0.0,
			"-0.023": 0.0,
			"-0.022": 0.0,
			"-0.021": 0.0,
			"-0.02": 0.0,
			"-0.019": 0.0,
			"-0.018": 0.0,
			"-0.017": 0.0,
			"-0.016": 0.0,
			"-0.015": 0.0,
			"-0.014": 0.0,
			"-0.013": 0.0,
			"-0.012": 0.0,
			"-0.011": 0.0,
			"-0.01": 0.0,
			"-0.009": 0.0,
			"-0.008": 1.08869462979,
			"-0.007": 7.54962805845,
			"-0.006": 17.5832721853,
			"-0.005": 18.7815983035,
			"-0.004": 18.8497963322,
			"-0.003": 19.7473574842,
			"-0.002": 25.0153569318,
			"-0.001": 20.7168480194,
			"0.0": 21.3255733938,
			"0.001": 22.2637371876,
			"0.002": 22.5715333185,
			"0.003": 14.194473753,
			"0.004": 16.8073970289,
			"0.005": 10.4789017068,
			"0.006": 3.09035042601,
			"0.007": 2.45116464277,
			"0.008": 2.67909540904,
			"0.009": 2.37088168795,
			"0.01": 2.21662816526,
			"0.011": 2.11779288396,
			"0.012": 1.98756436876,
			"0.013": 3.22651570916,
			"0.014": 2.14911016847,
			"0.015": 1.08070260018,
			"0.016": 0.012568625273,
			"0.017": 0.0,
			"0.018": 0.0,
			"0.019": 0.0,
			"0.02": 0.0,
			"0.021": 0.0,
			"0.022": 0.0,
			"0.023": 0.0,
			"0.024": 0.0,
			"0.025": 0.0
		}
	}
}
