{
	 "smiles": "CC(C)=CCCC(C)=NNC(N)=O", 
	 "Tm": 409.15, 
	 "num_atms": 30, 
	 "gaussian": { 
		 "optdone": 1, 
		 "sigma_profile": "yes", 
		 "theory": "DFT", 
		 "functional": "B3LYP", 
		 "basiset": "6-31G**", 
		 "properties": { 
			 "R2extent": 4586.1011, 
			 "electric_dipole_moment_norm": 2.81409186417, 
			 "electric_quadrupole_moment_norm": 19.5328030359, 
			 "total_energy": -592.664255055, 
			 "HOMO_LUMO_gap": 0.22728, 
			 "cosmo_polarized_energy": -15.94, 
			 "cosmo_cavitation_energy": 32.89, 
			 "cosmo_dispersion_energy": -23.09, 
			 "cosmo_repulsion_energy": 1.9, 
			 "cosmo_total_nonelectrostatic_energy": 11.7, 
			 "SMD_solvation_energy": 6.0 
		},
		"coords": [
			{
				"x": -0.5970285627,
				"y": 3.0015193032,
				"z": -1.9167695454,
				"element": "C" 
			},
			{
				"x": 0.4456016403,
				"y": 2.2871453634,
				"z": -1.0916564738,
				"element": "C" 
			},
			{
				"x": 1.8669654089,
				"y": 2.6988541878,
				"z": -1.3958069884,
				"element": "C" 
			},
			{
				"x": 0.1877468123,
				"y": 1.3625642947,
				"z": -0.1534215117,
				"element": "C" 
			},
			{
				"x": -1.147655816,
				"y": 0.8240313848,
				"z": 0.2848035845,
				"element": "C" 
			},
			{
				"x": -1.2229550147,
				"y": -0.7251441978,
				"z": 0.2418151169,
				"element": "C" 
			},
			{
				"x": -0.313146149,
				"y": -1.4233238052,
				"z": 1.229640243,
				"element": "C" 
			},
			{
				"x": -0.6404194651,
				"y": -1.3130163649,
				"z": 2.6946173521,
				"element": "C" 
			},
			{
				"x": 0.6849579747,
				"y": -2.0501067233,
				"z": 0.714496999,
				"element": "N" 
			},
			{
				"x": 1.5360966519,
				"y": -2.7414309884,
				"z": 1.6047631339,
				"element": "N" 
			},
			{
				"x": 1.0782543702,
				"y": -3.8849225081,
				"z": 2.2748073132,
				"element": "C" 
			},
			{
				"x": 2.124540705,
				"y": -4.6622626275,
				"z": 2.7613480387,
				"element": "N" 
			},
			{
				"x": -0.0950363005,
				"y": -4.1880699194,
				"z": 2.4114541719,
				"element": "O" 
			},
			{
				"x": -1.6171922644,
				"y": 2.6750983164,
				"z": -1.706963503,
				"element": "H" 
			},
			{
				"x": -0.5511770021,
				"y": 4.0849478383,
				"z": -1.7432264269,
				"element": "H" 
			},
			{
				"x": -0.409549521,
				"y": 2.8527265826,
				"z": -2.9882991231,
				"element": "H" 
			},
			{
				"x": 2.1152187038,
				"y": 2.5119766233,
				"z": -2.4492701038,
				"element": "H" 
			},
			{
				"x": 2.0121201636,
				"y": 3.7750215619,
				"z": -1.2301770077,
				"element": "H" 
			},
			{
				"x": 2.5892263336,
				"y": 2.1596584234,
				"z": -0.7767525015,
				"element": "H" 
			},
			{
				"x": 1.0430761068,
				"y": 0.9262015305,
				"z": 0.3626041631,
				"element": "H" 
			},
			{
				"x": -1.3624522127,
				"y": 1.1641705344,
				"z": 1.3087690754,
				"element": "H" 
			},
			{
				"x": -1.9571362113,
				"y": 1.2190052179,
				"z": -0.3358989767,
				"element": "H" 
			},
			{
				"x": -0.9713459228,
				"y": -1.0758615927,
				"z": -0.762262748,
				"element": "H" 
			},
			{
				"x": -2.2565006721,
				"y": -1.0298976595,
				"z": 0.4547999776,
				"element": "H" 
			},
			{
				"x": -1.2433129902,
				"y": -2.1712563685,
				"z": 3.0054068655,
				"element": "H" 
			},
			{
				"x": -1.1969363537,
				"y": -0.3954691978,
				"z": 2.9031256035,
				"element": "H" 
			},
			{
				"x": 0.2742374526,
				"y": -1.3243148166,
				"z": 3.2948293993,
				"element": "H" 
			},
			{
				"x": 2.4175644406,
				"y": -2.9037611437,
				"z": 1.1316676539,
				"element": "H" 
			},
			{
				"x": 1.8106817734,
				"y": -5.3664156773,
				"z": 3.4141148037,
				"element": "H" 
			},
			{
				"x": 2.9723559207,
				"y": -4.186367572,
				"z": 3.0385414148,
				"element": "H" 
			}
		],
		 "valence_orbital": [ 
			{
				"type": "occ",
				"energy": -0.28667,
				"method": "rhf"
			},
			{
				"type": "occ",
				"energy": -0.27422,
				"method": "rhf"
			},
			{
				"type": "occ",
				"energy": -0.25566,
				"method": "rhf"
			},
			{
				"type": "occ",
				"energy": -0.22996,
				"method": "rhf"
			},
			{
				"type": "occ",
				"energy": -0.22038,
				"method": "rhf"
			},
			{
				"type": "unocc",
				"energy": 0.0069,
				"method": "rhf"
			},
			{
				"type": "unocc",
				"energy": 0.03503,
				"method": "rhf"
			},
			{
				"type": "unocc",
				"energy": 0.04621,
				"method": "rhf"
			},
			{
				"type": "unocc",
				"energy": 0.06884,
				"method": "rhf"
			},
			{
				"type": "unocc",
				"energy": 0.09704,
				"method": "rhf"
			}
		],
		"cosmo_sigma_profile": { 
			"-0.025": 0.0,
			"-0.024": 0.0,
			"-0.023": 0.0,
			"-0.022": 0.0,
			"-0.021": 0.0,
			"-0.02": 0.0,
			"-0.019": 0.0,
			"-0.018": 0.0,
			"-0.017": 0.0,
			"-0.016": 0.0,
			"-0.015": 0.0639780877819,
			"-0.014": 2.48052240095,
			"-0.013": 4.03477799355,
			"-0.012": 3.73482995851,
			"-0.011": 3.25887607338,
			"-0.01": 3.11731822415,
			"-0.009": 2.44396711426,
			"-0.008": 1.54528762032,
			"-0.007": 2.32948087081,
			"-0.006": 2.53148778691,
			"-0.005": 5.23107107154,
			"-0.004": 13.1653381572,
			"-0.003": 27.1178406867,
			"-0.002": 30.2719291059,
			"-0.001": 30.3315464325,
			"0.0": 30.0942546561,
			"0.001": 21.6820617237,
			"0.002": 10.0816833616,
			"0.003": 8.07515355988,
			"0.004": 7.8655180139,
			"0.005": 7.96370065437,
			"0.006": 6.76032659453,
			"0.007": 6.31752081348,
			"0.008": 3.94914006271,
			"0.009": 3.2955043597,
			"0.01": 3.15144718563,
			"0.011": 3.37757467525,
			"0.012": 3.28851564156,
			"0.013": 3.8386225481,
			"0.014": 4.06343801698,
			"0.015": 0.888608606569,
			"0.016": 0.0574588665481,
			"0.017": 0.0,
			"0.018": 0.0,
			"0.019": 0.0,
			"0.02": 0.0,
			"0.021": 0.0,
			"0.022": 0.0,
			"0.023": 0.0,
			"0.024": 0.0,
			"0.025": 0.0
		}
	}
}
