{
	 "smiles": "CS(=O)(=O)C1=C(F)C=CC(=C1)S(Cl)(=O)=O", 
	 "Tm": 386.15, 
	 "num_atms": 21, 
	 "gaussian": { 
		 "optdone": 1, 
		 "sigma_profile": "yes", 
		 "theory": "DFT", 
		 "functional": "B3LYP", 
		 "basiset": "6-31G**", 
		 "properties": { 
			 "R2extent": 5092.1594, 
			 "electric_dipole_moment_norm": 6.20337378368, 
			 "electric_quadrupole_moment_norm": 17.6809127174, 
			 "total_energy": -1927.51422231, 
			 "HOMO_LUMO_gap": 0.19953, 
			 "cosmo_polarized_energy": -18.86, 
			 "cosmo_cavitation_energy": 31.05, 
			 "cosmo_dispersion_energy": -23.14, 
			 "cosmo_repulsion_energy": 1.71, 
			 "cosmo_total_nonelectrostatic_energy": 9.62, 
			 "SMD_solvation_energy": 4.23 
		},
		"coords": [
			{
				"x": 1.2975973468,
				"y": -0.9341912358,
				"z": -3.1593977232,
				"element": "C" 
			},
			{
				"x": 0.0896712907,
				"y": 0.0656989029,
				"z": -2.269214745,
				"element": "S" 
			},
			{
				"x": -1.1000394415,
				"y": -0.7585987536,
				"z": -2.0201565431,
				"element": "O" 
			},
			{
				"x": -0.0149484507,
				"y": 1.3676088077,
				"z": -2.9347175129,
				"element": "O" 
			},
			{
				"x": 0.8632063245,
				"y": 0.3217226565,
				"z": -0.6478695452,
				"element": "C" 
			},
			{
				"x": 2.0625353267,
				"y": 1.0229561773,
				"z": -0.4981375057,
				"element": "C" 
			},
			{
				"x": 2.7211994043,
				"y": 1.4404931976,
				"z": -1.5881135706,
				"element": "F" 
			},
			{
				"x": 2.6106581923,
				"y": 1.2866177826,
				"z": 0.7534505534,
				"element": "C" 
			},
			{
				"x": 1.9409031493,
				"y": 0.8399641774,
				"z": 1.8889034624,
				"element": "C" 
			},
			{
				"x": 0.7435000047,
				"y": 0.1365857979,
				"z": 1.7363229808,
				"element": "C" 
			},
			{
				"x": 0.1896511934,
				"y": -0.1289592098,
				"z": 0.4849936189,
				"element": "C" 
			},
			{
				"x": -0.1164617677,
				"y": -0.4253505912,
				"z": 3.2004463566,
				"element": "S" 
			},
			{
				"x": 0.7421778702,
				"y": -2.3580458048,
				"z": 3.4591623254,
				"element": "Cl" 
			},
			{
				"x": -1.5201792852,
				"y": -0.6380791926,
				"z": 2.8804432661,
				"element": "O" 
			},
			{
				"x": 0.3227182505,
				"y": 0.3712958606,
				"z": 4.3383887879,
				"element": "O" 
			},
			{
				"x": 2.2341055085,
				"y": -0.3802677643,
				"z": -3.2246739393,
				"element": "H" 
			},
			{
				"x": 1.4234527744,
				"y": -1.8861585702,
				"z": -2.6418307534,
				"element": "H" 
			},
			{
				"x": 0.8781695475,
				"y": -1.0942429688,
				"z": -4.1548751716,
				"element": "H" 
			},
			{
				"x": 3.5416412375,
				"y": 1.8381393742,
				"z": 0.8200191603,
				"element": "H" 
			},
			{
				"x": 2.3341730122,
				"y": 1.0375388996,
				"z": 2.879691735,
				"element": "H" 
			},
			{
				"x": -0.7485314885,
				"y": -0.6628275433,
				"z": 0.3736647634,
				"element": "H" 
			}
		],
		 "valence_orbital": [ 
			{
				"type": "occ",
				"energy": -0.32521,
				"method": "rhf"
			},
			{
				"type": "occ",
				"energy": -0.32432,
				"method": "rhf"
			},
			{
				"type": "occ",
				"energy": -0.31502,
				"method": "rhf"
			},
			{
				"type": "occ",
				"energy": -0.30956,
				"method": "rhf"
			},
			{
				"type": "occ",
				"energy": -0.30317,
				"method": "rhf"
			},
			{
				"type": "unocc",
				"energy": -0.10364,
				"method": "rhf"
			},
			{
				"type": "unocc",
				"energy": -0.07712,
				"method": "rhf"
			},
			{
				"type": "unocc",
				"energy": -0.06121,
				"method": "rhf"
			},
			{
				"type": "unocc",
				"energy": 0.01796,
				"method": "rhf"
			},
			{
				"type": "unocc",
				"energy": 0.03711,
				"method": "rhf"
			}
		],
		"cosmo_sigma_profile": { 
			"-0.025": 0.0,
			"-0.024": 0.0,
			"-0.023": 0.0,
			"-0.022": 0.0,
			"-0.021": 0.0,
			"-0.02": 0.0,
			"-0.019": 0.0,
			"-0.018": 0.0,
			"-0.017": 0.0,
			"-0.016": 0.0,
			"-0.015": 0.0,
			"-0.014": 0.0,
			"-0.013": 0.0,
			"-0.012": 0.0,
			"-0.011": 0.121947823305,
			"-0.01": 5.1169244141,
			"-0.009": 8.41353378001,
			"-0.008": 9.41173804973,
			"-0.007": 12.4854289248,
			"-0.006": 11.594208987,
			"-0.005": 14.671594046,
			"-0.004": 18.53508943,
			"-0.003": 18.8554925092,
			"-0.002": 18.0556946448,
			"-0.001": 13.2464517749,
			"0.0": 10.5392831356,
			"0.001": 11.4966086145,
			"0.002": 16.5265424732,
			"0.003": 17.432538436,
			"0.004": 7.34444847922,
			"0.005": 5.21427932685,
			"0.006": 6.31898385791,
			"0.007": 10.9891561277,
			"0.008": 12.0965597527,
			"0.009": 5.37032912427,
			"0.01": 9.05310064053,
			"0.011": 8.66622800435,
			"0.012": 1.05768911526,
			"0.013": 0.0,
			"0.014": 0.0,
			"0.015": 0.0,
			"0.016": 0.0,
			"0.017": 0.0,
			"0.018": 0.0,
			"0.019": 0.0,
			"0.02": 0.0,
			"0.021": 0.0,
			"0.022": 0.0,
			"0.023": 0.0,
			"0.024": 0.0,
			"0.025": 0.0
		}
	}
}
