{
	 "smiles": "CC(=O)C1=CC=C(C=C1)C1=CC(=CC=C1)[N+]([O-])=O", 
	 "Tm": 381.15, 
	 "num_atms": 29, 
	 "gaussian": { 
		 "optdone": 1, 
		 "sigma_profile": "yes", 
		 "theory": "DFT", 
		 "functional": "B3LYP", 
		 "basiset": "6-31G**", 
		 "properties": { 
			 "R2extent": 7734.6124, 
			 "electric_dipole_moment_norm": 2.54187148377, 
			 "electric_quadrupole_moment_norm": 33.5966682283, 
			 "total_energy": -820.455046009, 
			 "HOMO_LUMO_gap": 0.15791, 
			 "cosmo_polarized_energy": -13.87, 
			 "cosmo_cavitation_energy": 34.59, 
			 "cosmo_dispersion_energy": -24.84, 
			 "cosmo_repulsion_energy": 1.88, 
			 "cosmo_total_nonelectrostatic_energy": 11.63, 
			 "SMD_solvation_energy": 8.64 
		},
		"coords": [
			{
				"x": -1.0088393508,
				"y": -4.5647667899,
				"z": 0.2530619185,
				"element": "C" 
			},
			{
				"x": -0.8476193747,
				"y": -3.529940141,
				"z": -0.8470381596,
				"element": "C" 
			},
			{
				"x": -1.3286560585,
				"y": -3.7168865515,
				"z": -1.9543836525,
				"element": "O" 
			},
			{
				"x": -0.0864964699,
				"y": -2.2711123485,
				"z": -0.5521258544,
				"element": "C" 
			},
			{
				"x": 0.0491242748,
				"y": -1.3214971252,
				"z": -1.57657676,
				"element": "C" 
			},
			{
				"x": 0.742741403,
				"y": -0.1383315056,
				"z": -1.360194635,
				"element": "C" 
			},
			{
				"x": 1.3270544857,
				"y": 0.1371857861,
				"z": -0.1098719525,
				"element": "C" 
			},
			{
				"x": 1.1891238595,
				"y": -0.8153054742,
				"z": 0.9133393856,
				"element": "C" 
			},
			{
				"x": 0.4924240519,
				"y": -2.0010739463,
				"z": 0.6962229084,
				"element": "C" 
			},
			{
				"x": 2.0702904046,
				"y": 1.4010740215,
				"z": 0.1223036797,
				"element": "C" 
			},
			{
				"x": 1.9947642243,
				"y": 2.0586425307,
				"z": 1.3585608557,
				"element": "C" 
			},
			{
				"x": 2.7021015751,
				"y": 3.2409968048,
				"z": 1.5502495069,
				"element": "C" 
			},
			{
				"x": 3.4918228599,
				"y": 3.8123040403,
				"z": 0.555049461,
				"element": "C" 
			},
			{
				"x": 3.5670166426,
				"y": 3.1593749639,
				"z": -0.6734348239,
				"element": "C" 
			},
			{
				"x": 2.8677336524,
				"y": 1.9713396315,
				"z": -0.8870186961,
				"element": "C" 
			},
			{
				"x": 2.604207599,
				"y": 3.9183254469,
				"z": 2.8562997224,
				"element": "N" 
			},
			{
				"x": 1.9041282134,
				"y": 3.3934451248,
				"z": 3.7212540153,
				"element": "O" 
			},
			{
				"x": 3.2310055294,
				"y": 4.9666059253,
				"z": 3.0020084002,
				"element": "O" 
			},
			{
				"x": -0.0340671643,
				"y": -4.9251027719,
				"z": 0.6002038072,
				"element": "H" 
			},
			{
				"x": -1.527434806,
				"y": -4.1401728426,
				"z": 1.1197836048,
				"element": "H" 
			},
			{
				"x": -1.5854305219,
				"y": -5.4030397229,
				"z": -0.13858208,
				"element": "H" 
			},
			{
				"x": -0.4105601654,
				"y": -1.5350000666,
				"z": -2.535734647,
				"element": "H" 
			},
			{
				"x": 0.8111039549,
				"y": 0.5955056622,
				"z": -2.1576724774,
				"element": "H" 
			},
			{
				"x": 1.6520870996,
				"y": -0.6373093251,
				"z": 1.8791121893,
				"element": "H" 
			},
			{
				"x": 0.411272538,
				"y": -2.7185923282,
				"z": 1.5062243124,
				"element": "H" 
			},
			{
				"x": 1.3789124922,
				"y": 1.6805116663,
				"z": 2.1645493895,
				"element": "H" 
			},
			{
				"x": 4.0221872192,
				"y": 4.734666812,
				"z": 0.7541098289,
				"element": "H" 
			},
			{
				"x": 4.181067723,
				"y": 3.5743275876,
				"z": -1.4664085857,
				"element": "H" 
			},
			{
				"x": 2.9583341089,
				"y": 1.4639249354,
				"z": -1.8422906615,
				"element": "H" 
			}
		],
		 "valence_orbital": [ 
			{
				"type": "occ",
				"energy": -0.2949,
				"method": "rhf"
			},
			{
				"type": "occ",
				"energy": -0.28702,
				"method": "rhf"
			},
			{
				"type": "occ",
				"energy": -0.27227,
				"method": "rhf"
			},
			{
				"type": "occ",
				"energy": -0.25491,
				"method": "rhf"
			},
			{
				"type": "occ",
				"energy": -0.25168,
				"method": "rhf"
			},
			{
				"type": "unocc",
				"energy": -0.09377,
				"method": "rhf"
			},
			{
				"type": "unocc",
				"energy": -0.07368,
				"method": "rhf"
			},
			{
				"type": "unocc",
				"energy": -0.02823,
				"method": "rhf"
			},
			{
				"type": "unocc",
				"energy": -0.02194,
				"method": "rhf"
			},
			{
				"type": "unocc",
				"energy": -0.00591,
				"method": "rhf"
			}
		],
		"cosmo_sigma_profile": { 
			"-0.025": 0.0,
			"-0.024": 0.0,
			"-0.023": 0.0,
			"-0.022": 0.0,
			"-0.021": 0.0,
			"-0.02": 0.0,
			"-0.019": 0.0,
			"-0.018": 0.0,
			"-0.017": 0.0,
			"-0.016": 0.0,
			"-0.015": 0.0,
			"-0.014": 0.0,
			"-0.013": 0.0,
			"-0.012": 0.0,
			"-0.011": 0.0,
			"-0.01": 0.0,
			"-0.009": 0.0,
			"-0.008": 1.88216006661,
			"-0.007": 13.1967733022,
			"-0.006": 22.6502754588,
			"-0.005": 21.7691421132,
			"-0.004": 19.1795880293,
			"-0.003": 16.972105749,
			"-0.002": 19.8057743298,
			"-0.001": 23.6987421094,
			"0.0": 22.5144948848,
			"0.001": 23.951621911,
			"0.002": 19.7582482056,
			"0.003": 16.6060563996,
			"0.004": 7.50313155979,
			"0.005": 4.74392114337,
			"0.006": 5.95538602698,
			"0.007": 9.53983801493,
			"0.008": 8.87829803628,
			"0.009": 5.98338768696,
			"0.01": 4.32288982105,
			"0.011": 3.31239193847,
			"0.012": 3.75057849236,
			"0.013": 1.52303329553,
			"0.014": 0.155842417287,
			"0.015": 0.0,
			"0.016": 0.0,
			"0.017": 0.0,
			"0.018": 0.0,
			"0.019": 0.0,
			"0.02": 0.0,
			"0.021": 0.0,
			"0.022": 0.0,
			"0.023": 0.0,
			"0.024": 0.0,
			"0.025": 0.0
		}
	}
}
