{
	 "smiles": "NNC(=O)C1=CC=C(NS(=O)(=O)C2=CC=CS2)C=C1", 
	 "Tm": 452.15, 
	 "num_atms": 30, 
	 "gaussian": { 
		 "optdone": 1, 
		 "sigma_profile": "yes", 
		 "theory": "DFT", 
		 "functional": "B3LYP", 
		 "basiset": "6-31G**", 
		 "properties": { 
			 "R2extent": 8720.9321, 
			 "electric_dipole_moment_norm": 4.39721847877, 
			 "electric_quadrupole_moment_norm": 26.2677339649, 
			 "total_energy": -1611.99123102, 
			 "HOMO_LUMO_gap": 0.17674, 
			 "cosmo_polarized_energy": -23.03, 
			 "cosmo_cavitation_energy": 38.32, 
			 "cosmo_dispersion_energy": -28.17, 
			 "cosmo_repulsion_energy": 2.09, 
			 "cosmo_total_nonelectrostatic_energy": 12.24, 
			 "SMD_solvation_energy": 6.65 
		},
		"coords": [
			{
				"x": -0.6174918899,
				"y": 1.5165553038,
				"z": -5.5048522761,
				"element": "N" 
			},
			{
				"x": -0.5722082948,
				"y": 1.008632229,
				"z": -4.185282419,
				"element": "N" 
			},
			{
				"x": 0.1156203267,
				"y": -0.1598020708,
				"z": -3.9340119256,
				"element": "C" 
			},
			{
				"x": 0.5704304785,
				"y": -0.8411340898,
				"z": -4.8498383537,
				"element": "O" 
			},
			{
				"x": 0.2732680007,
				"y": -0.5329406683,
				"z": -2.4952349377,
				"element": "C" 
			},
			{
				"x": -0.5455336775,
				"y": -0.0380575783,
				"z": -1.4708302759,
				"element": "C" 
			},
			{
				"x": -0.3587877791,
				"y": -0.4266238616,
				"z": -0.1478658494,
				"element": "C" 
			},
			{
				"x": 0.6719173952,
				"y": -1.3200191182,
				"z": 0.1757063014,
				"element": "C" 
			},
			{
				"x": 0.8823022603,
				"y": -1.7833214154,
				"z": 1.492607614,
				"element": "N" 
			},
			{
				"x": 0.6269686216,
				"y": -0.8933731539,
				"z": 2.9148895794,
				"element": "S" 
			},
			{
				"x": 0.7148188178,
				"y": 0.5423142666,
				"z": 2.6580271823,
				"element": "O" 
			},
			{
				"x": 1.4939074005,
				"y": -1.5684772614,
				"z": 3.8799889879,
				"element": "O" 
			},
			{
				"x": -1.06564971,
				"y": -1.222443986,
				"z": 3.3085772695,
				"element": "C" 
			},
			{
				"x": -2.0195574238,
				"y": -0.254466114,
				"z": 3.5044490914,
				"element": "C" 
			},
			{
				"x": -3.271863936,
				"y": -0.8073264853,
				"z": 3.8949892357,
				"element": "C" 
			},
			{
				"x": -3.2352679936,
				"y": -2.1735909212,
				"z": 3.9934121506,
				"element": "C" 
			},
			{
				"x": -1.6764389462,
				"y": -2.8224798224,
				"z": 3.6173619392,
				"element": "S" 
			},
			{
				"x": 1.4882895859,
				"y": -1.8302905646,
				"z": -0.8466252594,
				"element": "C" 
			},
			{
				"x": 1.2810023316,
				"y": -1.4484975299,
				"z": -2.1647696023,
				"element": "C" 
			},
			{
				"x": 0.197121336,
				"y": 1.1299572446,
				"z": -5.9861941561,
				"element": "H" 
			},
			{
				"x": -1.423070557,
				"y": 1.0904988639,
				"z": -5.9621793236,
				"element": "H" 
			},
			{
				"x": -0.5606001873,
				"y": 1.7315182395,
				"z": -3.4792855555,
				"element": "H" 
			},
			{
				"x": -1.3677558744,
				"y": 0.6318606442,
				"z": -1.7038033362,
				"element": "H" 
			},
			{
				"x": -1.0142646435,
				"y": -0.0421894379,
				"z": 0.6230724499,
				"element": "H" 
			},
			{
				"x": 1.690429869,
				"y": -2.3815374257,
				"z": 1.6298784961,
				"element": "H" 
			},
			{
				"x": -1.8135291304,
				"y": 0.8008505028,
				"z": 3.3756964914,
				"element": "H" 
			},
			{
				"x": -4.1582257129,
				"y": -0.2166017902,
				"z": 4.093304386,
				"element": "H" 
			},
			{
				"x": -4.0390452388,
				"y": -2.8452425264,
				"z": 4.2639389412,
				"element": "H" 
			},
			{
				"x": 2.2841618148,
				"y": -2.529122617,
				"z": -0.6019091961,
				"element": "H" 
			},
			{
				"x": 1.8989527566,
				"y": -1.8468488563,
				"z": -2.9622176493,
				"element": "H" 
			}
		],
		 "valence_orbital": [ 
			{
				"type": "occ",
				"energy": -0.27073,
				"method": "rhf"
			},
			{
				"type": "occ",
				"energy": -0.26704,
				"method": "rhf"
			},
			{
				"type": "occ",
				"energy": -0.26078,
				"method": "rhf"
			},
			{
				"type": "occ",
				"energy": -0.25121,
				"method": "rhf"
			},
			{
				"type": "occ",
				"energy": -0.23537,
				"method": "rhf"
			},
			{
				"type": "unocc",
				"energy": -0.05863,
				"method": "rhf"
			},
			{
				"type": "unocc",
				"energy": -0.03981,
				"method": "rhf"
			},
			{
				"type": "unocc",
				"energy": -0.01803,
				"method": "rhf"
			},
			{
				"type": "unocc",
				"energy": 0.00337,
				"method": "rhf"
			},
			{
				"type": "unocc",
				"energy": 0.02779,
				"method": "rhf"
			}
		],
		"cosmo_sigma_profile": { 
			"-0.025": 0.0,
			"-0.024": 0.0,
			"-0.023": 0.0,
			"-0.022": 0.0,
			"-0.021": 0.0,
			"-0.02": 0.0,
			"-0.019": 0.0,
			"-0.018": 0.0,
			"-0.017": 0.0142304238233,
			"-0.016": 0.732006934002,
			"-0.015": 0.792577990175,
			"-0.014": 1.64638206876,
			"-0.013": 2.41335985255,
			"-0.012": 2.97213463377,
			"-0.011": 3.90116865212,
			"-0.01": 5.95342982208,
			"-0.009": 8.06875365294,
			"-0.008": 9.63197414056,
			"-0.007": 11.096579061,
			"-0.006": 14.0595536494,
			"-0.005": 16.5481666553,
			"-0.004": 14.4421867019,
			"-0.003": 14.7851033013,
			"-0.002": 15.2966630695,
			"-0.001": 15.4286647395,
			"0.0": 21.662890689,
			"0.001": 26.6963330732,
			"0.002": 25.0812625124,
			"0.003": 25.511858861,
			"0.004": 12.3102061671,
			"0.005": 6.46355330383,
			"0.006": 6.11526607076,
			"0.007": 4.07435596054,
			"0.008": 5.63827843231,
			"0.009": 8.7286003284,
			"0.01": 11.8129756249,
			"0.011": 5.95308672841,
			"0.012": 2.36596379641,
			"0.013": 5.1004364528,
			"0.014": 2.2316563476,
			"0.015": 0.486633400185,
			"0.016": 0.740973902154,
			"0.017": 0.247262875189,
			"0.018": 0.0,
			"0.019": 0.0,
			"0.02": 0.0,
			"0.021": 0.0,
			"0.022": 0.0,
			"0.023": 0.0,
			"0.024": 0.0,
			"0.025": 0.0
		}
	}
}
