{
	 "smiles": "OCN1C(=O)C2=CC=CC=C2C1=O", 
	 "Tm": 416.65, 
	 "num_atms": 20, 
	 "gaussian": { 
		 "optdone": 1, 
		 "sigma_profile": "yes", 
		 "theory": "DFT", 
		 "functional": "B3LYP", 
		 "basiset": "6-31G**", 
		 "properties": { 
			 "R2extent": 2535.3779, 
			 "electric_dipole_moment_norm": 3.87104635725, 
			 "electric_quadrupole_moment_norm": 5.91475086119, 
			 "total_energy": -627.621770533, 
			 "HOMO_LUMO_gap": 0.1858, 
			 "cosmo_polarized_energy": -11.68, 
			 "cosmo_cavitation_energy": 24.9, 
			 "cosmo_dispersion_energy": -18.35, 
			 "cosmo_repulsion_energy": 1.43, 
			 "cosmo_total_nonelectrostatic_energy": 7.98, 
			 "SMD_solvation_energy": 5.39 
		},
		"coords": [
			{
				"x": -3.2380102313,
				"y": -1.900125785,
				"z": -1.6497963747,
				"element": "O" 
			},
			{
				"x": -2.0182537616,
				"y": -2.5684240513,
				"z": -1.5035952927,
				"element": "C" 
			},
			{
				"x": -0.9723074726,
				"y": -1.7028550128,
				"z": -0.9580457796,
				"element": "N" 
			},
			{
				"x": -0.6058962783,
				"y": -0.5081843287,
				"z": -1.5838426817,
				"element": "C" 
			},
			{
				"x": -1.0820854547,
				"y": -0.1058306058,
				"z": -2.6327425051,
				"element": "O" 
			},
			{
				"x": 0.4240645844,
				"y": 0.1164064536,
				"z": -0.704207632,
				"element": "C" 
			},
			{
				"x": 1.1366767348,
				"y": 1.2977415983,
				"z": -0.8504090525,
				"element": "C" 
			},
			{
				"x": 2.0444076817,
				"y": 1.6322435812,
				"z": 0.16349779,
				"element": "C" 
			},
			{
				"x": 2.2188873925,
				"y": 0.8044727868,
				"z": 1.2800226662,
				"element": "C" 
			},
			{
				"x": 1.4919510923,
				"y": -0.3856595393,
				"z": 1.4198012335,
				"element": "C" 
			},
			{
				"x": 0.596914699,
				"y": -0.7090597838,
				"z": 0.4108110988,
				"element": "C" 
			},
			{
				"x": -0.3116601758,
				"y": -1.8883994074,
				"z": 0.2716472067,
				"element": "C" 
			},
			{
				"x": -0.4708591805,
				"y": -2.8279423334,
				"z": 1.022623575,
				"element": "O" 
			},
			{
				"x": -3.1043054226,
				"y": -1.2299116532,
				"z": -2.3371592987,
				"element": "H" 
			},
			{
				"x": -2.1518437448,
				"y": -3.38089183,
				"z": -0.7876464247,
				"element": "H" 
			},
			{
				"x": -1.6549861856,
				"y": -2.9735168389,
				"z": -2.4572070679,
				"element": "H" 
			},
			{
				"x": 0.9923355658,
				"y": 1.9327589364,
				"z": -1.7184787411,
				"element": "H" 
			},
			{
				"x": 2.6221591829,
				"y": 2.5482634594,
				"z": 0.0848575409,
				"element": "H" 
			},
			{
				"x": 2.9290551516,
				"y": 1.092156128,
				"z": 2.0494518699,
				"element": "H" 
			},
			{
				"x": 1.6175558229,
				"y": -1.0330417741,
				"z": 2.2816178697,
				"element": "H" 
			}
		],
		 "valence_orbital": [ 
			{
				"type": "occ",
				"energy": -0.29315,
				"method": "rhf"
			},
			{
				"type": "occ",
				"energy": -0.28615,
				"method": "rhf"
			},
			{
				"type": "occ",
				"energy": -0.28271,
				"method": "rhf"
			},
			{
				"type": "occ",
				"energy": -0.27488,
				"method": "rhf"
			},
			{
				"type": "occ",
				"energy": -0.27366,
				"method": "rhf"
			},
			{
				"type": "unocc",
				"energy": -0.08786,
				"method": "rhf"
			},
			{
				"type": "unocc",
				"energy": -0.04612,
				"method": "rhf"
			},
			{
				"type": "unocc",
				"energy": 0.02274,
				"method": "rhf"
			},
			{
				"type": "unocc",
				"energy": 0.06161,
				"method": "rhf"
			},
			{
				"type": "unocc",
				"energy": 0.08267,
				"method": "rhf"
			}
		],
		"cosmo_sigma_profile": { 
			"-0.025": 0.0,
			"-0.024": 0.0,
			"-0.023": 0.0,
			"-0.022": 0.0,
			"-0.021": 0.0,
			"-0.02": 0.0,
			"-0.019": 0.0,
			"-0.018": 0.0,
			"-0.017": 0.0,
			"-0.016": 0.0,
			"-0.015": 0.0,
			"-0.014": 0.0,
			"-0.013": 0.306742397335,
			"-0.012": 0.685002348572,
			"-0.011": 0.684338579281,
			"-0.01": 0.626890428898,
			"-0.009": 0.356570425783,
			"-0.008": 3.46888052784,
			"-0.007": 11.4281005224,
			"-0.006": 16.3433232149,
			"-0.005": 16.6481930277,
			"-0.004": 14.9613966343,
			"-0.003": 11.8079074422,
			"-0.002": 12.9087567059,
			"-0.001": 14.3478707423,
			"0.0": 13.2357734815,
			"0.001": 16.7675994983,
			"0.002": 15.1322272759,
			"0.003": 5.09553440668,
			"0.004": 3.82818710534,
			"0.005": 4.25602737593,
			"0.006": 3.14389389671,
			"0.007": 3.78603799131,
			"0.008": 4.11465912255,
			"0.009": 4.87481357847,
			"0.01": 7.73693321564,
			"0.011": 8.27514896267,
			"0.012": 3.25819642605,
			"0.013": 1.84696811668,
			"0.014": 0.000533179814158,
			"0.015": 0.0,
			"0.016": 0.0,
			"0.017": 0.0,
			"0.018": 0.0,
			"0.019": 0.0,
			"0.02": 0.0,
			"0.021": 0.0,
			"0.022": 0.0,
			"0.023": 0.0,
			"0.024": 0.0,
			"0.025": 0.0
		}
	}
}
