{
	 "smiles": "OC(=O)C1CCC(=O)CC1", 
	 "Tm": 336.15, 
	 "num_atms": 20, 
	 "gaussian": { 
		 "optdone": 1, 
		 "sigma_profile": "yes", 
		 "theory": "DFT", 
		 "functional": "B3LYP", 
		 "basiset": "6-31G**", 
		 "properties": { 
			 "R2extent": 1878.8788, 
			 "electric_dipole_moment_norm": 3.31995487168, 
			 "electric_quadrupole_moment_norm": 9.40935186928, 
			 "total_energy": -498.461021798, 
			 "HOMO_LUMO_gap": 0.22484, 
			 "cosmo_polarized_energy": -13.49, 
			 "cosmo_cavitation_energy": 22.79, 
			 "cosmo_dispersion_energy": -16.74, 
			 "cosmo_repulsion_energy": 1.38, 
			 "cosmo_total_nonelectrostatic_energy": 7.43, 
			 "SMD_solvation_energy": 5.15 
		},
		"coords": [
			{
				"x": 0.990477921,
				"y": -0.2727455054,
				"z": -3.4463467337,
				"element": "O" 
			},
			{
				"x": 0.2159549331,
				"y": -0.0906728136,
				"z": -2.348479938,
				"element": "C" 
			},
			{
				"x": -0.8383319472,
				"y": 0.5058586132,
				"z": -2.3918833955,
				"element": "O" 
			},
			{
				"x": 0.8581023398,
				"y": -0.6942302261,
				"z": -1.110905488,
				"element": "C" 
			},
			{
				"x": 2.1764305976,
				"y": 0.0762268541,
				"z": -0.7961903857,
				"element": "C" 
			},
			{
				"x": 2.5777580649,
				"y": -0.0691925068,
				"z": 0.6776361453,
				"element": "C" 
			},
			{
				"x": 1.5057406664,
				"y": 0.4856478612,
				"z": 1.6145509042,
				"element": "C" 
			},
			{
				"x": 1.76942501,
				"y": 0.9093699227,
				"z": 2.7224815064,
				"element": "O" 
			},
			{
				"x": 0.0898490679,
				"y": 0.4622128057,
				"z": 1.052420488,
				"element": "C" 
			},
			{
				"x": -0.1216168182,
				"y": -0.7153605258,
				"z": 0.0881810242,
				"element": "C" 
			},
			{
				"x": 0.5270696214,
				"y": 0.163659895,
				"z": -4.1811478891,
				"element": "H" 
			},
			{
				"x": 1.1284250675,
				"y": -1.7238193568,
				"z": -1.3741365358,
				"element": "H" 
			},
			{
				"x": 2.0412346535,
				"y": 1.1422246051,
				"z": -1.0174688465,
				"element": "H" 
			},
			{
				"x": 2.9742243151,
				"y": -0.273052569,
				"z": -1.4565007785,
				"element": "H" 
			},
			{
				"x": 2.7199395219,
				"y": -1.130457427,
				"z": 0.9297912041,
				"element": "H" 
			},
			{
				"x": 3.5240659786,
				"y": 0.4329051534,
				"z": 0.8986691164,
				"element": "H" 
			},
			{
				"x": -0.0768740329,
				"y": 1.408613282,
				"z": 0.5181091731,
				"element": "H" 
			},
			{
				"x": -0.6157368717,
				"y": 0.4451496767,
				"z": 1.88744989,
				"element": "H" 
			},
			{
				"x": 0.0137627723,
				"y": -1.6529295772,
				"z": 0.6389847473,
				"element": "H" 
			},
			{
				"x": -1.149100861,
				"y": -0.7079081615,
				"z": -0.2827142081,
				"element": "H" 
			}
		],
		 "valence_orbital": [ 
			{
				"type": "occ",
				"energy": -0.34051,
				"method": "rhf"
			},
			{
				"type": "occ",
				"energy": -0.32881,
				"method": "rhf"
			},
			{
				"type": "occ",
				"energy": -0.32374,
				"method": "rhf"
			},
			{
				"type": "occ",
				"energy": -0.2817,
				"method": "rhf"
			},
			{
				"type": "occ",
				"energy": -0.23906,
				"method": "rhf"
			},
			{
				"type": "unocc",
				"energy": -0.01422,
				"method": "rhf"
			},
			{
				"type": "unocc",
				"energy": 0.0015,
				"method": "rhf"
			},
			{
				"type": "unocc",
				"energy": 0.0672,
				"method": "rhf"
			},
			{
				"type": "unocc",
				"energy": 0.07616,
				"method": "rhf"
			},
			{
				"type": "unocc",
				"energy": 0.10178,
				"method": "rhf"
			}
		],
		"cosmo_sigma_profile": { 
			"-0.025": 0.0,
			"-0.024": 0.0,
			"-0.023": 0.0,
			"-0.022": 0.0,
			"-0.021": 0.0,
			"-0.02": 0.0,
			"-0.019": 0.0,
			"-0.018": 0.708956923752,
			"-0.017": 0.769452909307,
			"-0.016": 1.09830735321,
			"-0.015": 0.657299697775,
			"-0.014": 0.585379010024,
			"-0.013": 0.81527180969,
			"-0.012": 0.231485007059,
			"-0.011": 1.30445614048,
			"-0.01": 0.945818756771,
			"-0.009": 0.251203722156,
			"-0.008": 0.277786596281,
			"-0.007": 2.60761306855,
			"-0.006": 10.998721675,
			"-0.005": 17.5955640004,
			"-0.004": 18.5265053102,
			"-0.003": 18.2439465785,
			"-0.002": 18.4573357339,
			"-0.001": 14.8606405229,
			"0.0": 7.42754063895,
			"0.001": 4.16601822223,
			"0.002": 4.44915881588,
			"0.003": 5.29316799887,
			"0.004": 3.28676501118,
			"0.005": 4.24388272611,
			"0.006": 4.81495065124,
			"0.007": 2.89790814802,
			"0.008": 4.30857524848,
			"0.009": 4.89029724699,
			"0.01": 4.14235294035,
			"0.011": 6.32997068628,
			"0.012": 8.43793789292,
			"0.013": 3.47035849667,
			"0.014": 0.565875381906,
			"0.015": 0.0,
			"0.016": 0.0,
			"0.017": 0.0,
			"0.018": 0.0,
			"0.019": 0.0,
			"0.02": 0.0,
			"0.021": 0.0,
			"0.022": 0.0,
			"0.023": 0.0,
			"0.024": 0.0,
			"0.025": 0.0
		}
	}
}
