{
	 "smiles": "CCOC(=O)C1=C2C(ON=C2C(C)C)=NC(=C1)C1CC1", 
	 "Tm": 322.15, 
	 "num_atms": 38, 
	 "gaussian": { 
		 "optdone": 1, 
		 "sigma_profile": "yes", 
		 "theory": "DFT", 
		 "functional": "B3LYP", 
		 "basiset": "6-31G**", 
		 "properties": { 
			 "R2extent": 6773.1916, 
			 "electric_dipole_moment_norm": 3.74108252382, 
			 "electric_quadrupole_moment_norm": 15.6074053564, 
			 "total_energy": -917.578508626, 
			 "HOMO_LUMO_gap": 0.16544, 
			 "cosmo_polarized_energy": -11.75, 
			 "cosmo_cavitation_energy": 40.83, 
			 "cosmo_dispersion_energy": -28.32, 
			 "cosmo_repulsion_energy": 2.19, 
			 "cosmo_total_nonelectrostatic_energy": 14.7, 
			 "SMD_solvation_energy": 6.58 
		},
		"coords": [
			{
				"x": 0.801436741,
				"y": -5.1369620729,
				"z": -1.00294768,
				"element": "C" 
			},
			{
				"x": 1.1143943071,
				"y": -4.4333759333,
				"z": 0.3081160646,
				"element": "C" 
			},
			{
				"x": 0.8121896261,
				"y": -3.0144221067,
				"z": 0.2280447394,
				"element": "O" 
			},
			{
				"x": 1.7724586602,
				"y": -2.2224013547,
				"z": -0.2831268031,
				"element": "C" 
			},
			{
				"x": 2.8463414256,
				"y": -2.632590685,
				"z": -0.6770010242,
				"element": "O" 
			},
			{
				"x": 1.3691269469,
				"y": -0.7788481893,
				"z": -0.3564658654,
				"element": "C" 
			},
			{
				"x": 0.3044812383,
				"y": -0.1397313775,
				"z": 0.3235598981,
				"element": "C" 
			},
			{
				"x": 0.1336888864,
				"y": 1.2259821207,
				"z": 0.0172657591,
				"element": "C" 
			},
			{
				"x": -0.9044053203,
				"y": 1.7340887598,
				"z": 0.7129247511,
				"element": "O" 
			},
			{
				"x": -1.4318668242,
				"y": 0.7084871333,
				"z": 1.5123574873,
				"element": "N" 
			},
			{
				"x": -0.7392527856,
				"y": -0.3845971901,
				"z": 1.3025698005,
				"element": "C" 
			},
			{
				"x": -1.086187545,
				"y": -1.6152587957,
				"z": 2.1111993918,
				"element": "C" 
			},
			{
				"x": -2.477764922,
				"y": -1.5152699413,
				"z": 2.7539232913,
				"element": "C" 
			},
			{
				"x": -0.0037055275,
				"y": -1.8678425133,
				"z": 3.1813907128,
				"element": "C" 
			},
			{
				"x": 0.8299110547,
				"y": 1.9880828772,
				"z": -0.8072739388,
				"element": "N" 
			},
			{
				"x": 1.8475535,
				"y": 1.3726882487,
				"z": -1.4275964624,
				"element": "C" 
			},
			{
				"x": 2.1341729489,
				"y": 0.006247463,
				"z": -1.2175142973,
				"element": "C" 
			},
			{
				"x": 2.6733691279,
				"y": 2.1783024677,
				"z": -2.3587745166,
				"element": "C" 
			},
			{
				"x": 2.92738682,
				"y": 3.6479848356,
				"z": -2.0575140042,
				"element": "C" 
			},
			{
				"x": 2.0196396257,
				"y": 3.2767593235,
				"z": -3.1846561585,
				"element": "C" 
			},
			{
				"x": -0.2404299343,
				"y": -4.9753316777,
				"z": -1.2942124083,
				"element": "H" 
			},
			{
				"x": 1.4544082847,
				"y": -4.7746268673,
				"z": -1.8003209942,
				"element": "H" 
			},
			{
				"x": 0.9633669367,
				"y": -6.2139327799,
				"z": -0.8897517306,
				"element": "H" 
			},
			{
				"x": 2.1646434089,
				"y": -4.5509651353,
				"z": 0.5828381961,
				"element": "H" 
			},
			{
				"x": 0.4808919375,
				"y": -4.7949877063,
				"z": 1.1210263025,
				"element": "H" 
			},
			{
				"x": -1.0800520512,
				"y": -2.4614068911,
				"z": 1.4193963529,
				"element": "H" 
			},
			{
				"x": -3.2553413544,
				"y": -1.3530584655,
				"z": 2.0025750144,
				"element": "H" 
			},
			{
				"x": -2.52985742,
				"y": -0.6872298744,
				"z": 3.4656748899,
				"element": "H" 
			},
			{
				"x": -2.7021224354,
				"y": -2.4439782875,
				"z": 3.2885072608,
				"element": "H" 
			},
			{
				"x": 0.9912138236,
				"y": -1.9670756782,
				"z": 2.7397494393,
				"element": "H" 
			},
			{
				"x": -0.2236058393,
				"y": -2.7895877211,
				"z": 3.7303296013,
				"element": "H" 
			},
			{
				"x": 0.0230651128,
				"y": -1.0435787499,
				"z": 3.9018496373,
				"element": "H" 
			},
			{
				"x": 2.9626454673,
				"y": -0.4607462694,
				"z": -1.7365242805,
				"element": "H" 
			},
			{
				"x": 3.4831755975,
				"y": 1.629743275,
				"z": -2.8301136338,
				"element": "H" 
			},
			{
				"x": 2.4687888465,
				"y": 4.0338518523,
				"z": -1.1529733458,
				"element": "H" 
			},
			{
				"x": 3.9159250198,
				"y": 4.0361943888,
				"z": -2.2826227903,
				"element": "H" 
			},
			{
				"x": 0.9538759208,
				"y": 3.4143116725,
				"z": -3.0341290419,
				"element": "H" 
			},
			{
				"x": 2.3675406944,
				"y": 3.4029818455,
				"z": -4.2052796144,
				"element": "H" 
			}
		],
		 "valence_orbital": [ 
			{
				"type": "occ",
				"energy": -0.30522,
				"method": "rhf"
			},
			{
				"type": "occ",
				"energy": -0.29249,
				"method": "rhf"
			},
			{
				"type": "occ",
				"energy": -0.27818,
				"method": "rhf"
			},
			{
				"type": "occ",
				"energy": -0.26418,
				"method": "rhf"
			},
			{
				"type": "occ",
				"energy": -0.2455,
				"method": "rhf"
			},
			{
				"type": "unocc",
				"energy": -0.08006,
				"method": "rhf"
			},
			{
				"type": "unocc",
				"energy": -0.01576,
				"method": "rhf"
			},
			{
				"type": "unocc",
				"energy": 0.02461,
				"method": "rhf"
			},
			{
				"type": "unocc",
				"energy": 0.04014,
				"method": "rhf"
			},
			{
				"type": "unocc",
				"energy": 0.07644,
				"method": "rhf"
			}
		],
		"cosmo_sigma_profile": { 
			"-0.025": 0.0,
			"-0.024": 0.0,
			"-0.023": 0.0,
			"-0.022": 0.0,
			"-0.021": 0.0,
			"-0.02": 0.0,
			"-0.019": 0.0,
			"-0.018": 0.0,
			"-0.017": 0.0,
			"-0.016": 0.0,
			"-0.015": 0.0,
			"-0.014": 0.0,
			"-0.013": 0.0,
			"-0.012": 0.0,
			"-0.011": 0.0,
			"-0.01": 0.0,
			"-0.009": 0.0,
			"-0.008": 0.715057130888,
			"-0.007": 2.45186561809,
			"-0.006": 6.61219419463,
			"-0.005": 15.730701525,
			"-0.004": 25.2144695241,
			"-0.003": 37.9740577143,
			"-0.002": 43.0005217281,
			"-0.001": 42.5898460668,
			"0.0": 41.2256606554,
			"0.001": 28.3138144485,
			"0.002": 14.8009653178,
			"0.003": 11.134602657,
			"0.004": 7.92776137097,
			"0.005": 7.00485690432,
			"0.006": 5.06448522462,
			"0.007": 7.08164856273,
			"0.008": 8.32351914823,
			"0.009": 4.66192568094,
			"0.01": 4.86025260876,
			"0.011": 5.11731756612,
			"0.012": 2.20212566796,
			"0.013": 0.714752991109,
			"0.014": 0.0283491995423,
			"0.015": 0.0,
			"0.016": 0.0,
			"0.017": 0.0,
			"0.018": 0.0,
			"0.019": 0.0,
			"0.02": 0.0,
			"0.021": 0.0,
			"0.022": 0.0,
			"0.023": 0.0,
			"0.024": 0.0,
			"0.025": 0.0
		}
	}
}
