{
	 "smiles": "OCCNC(S)=NCC=C", 
	 "Tm": 351.15, 
	 "num_atms": 22, 
	 "gaussian": { 
		 "optdone": 1, 
		 "sigma_profile": "yes", 
		 "theory": "DFT", 
		 "functional": "B3LYP", 
		 "basiset": "6-31G**", 
		 "properties": { 
			 "R2extent": 2749.6413, 
			 "electric_dipole_moment_norm": 2.6851828448, 
			 "electric_quadrupole_moment_norm": 11.630522772, 
			 "total_energy": -818.735845563, 
			 "HOMO_LUMO_gap": 0.23543, 
			 "cosmo_polarized_energy": -12.27, 
			 "cosmo_cavitation_energy": 27.48, 
			 "cosmo_dispersion_energy": -19.84, 
			 "cosmo_repulsion_energy": 1.63, 
			 "cosmo_total_nonelectrostatic_energy": 9.28, 
			 "SMD_solvation_energy": 2.61 
		},
		"coords": [
			{
				"x": -0.1024183344,
				"y": 3.4283167831,
				"z": 2.4670700545,
				"element": "O" 
			},
			{
				"x": 0.5022374663,
				"y": 2.147554959,
				"z": 2.2869158053,
				"element": "C" 
			},
			{
				"x": 1.0782778007,
				"y": 1.9948718963,
				"z": 0.8784987517,
				"element": "C" 
			},
			{
				"x": 0.068462344,
				"y": 2.2229589475,
				"z": -0.1544083068,
				"element": "N" 
			},
			{
				"x": -0.7138635257,
				"y": 1.1567577971,
				"z": -0.575233477,
				"element": "C" 
			},
			{
				"x": -2.0456941904,
				"y": 1.6682601264,
				"z": -1.7270030478,
				"element": "S" 
			},
			{
				"x": -0.4933780779,
				"y": -0.0386187874,
				"z": -0.2096165602,
				"element": "N" 
			},
			{
				"x": -1.2129689978,
				"y": -1.1729011032,
				"z": -0.7643903083,
				"element": "C" 
			},
			{
				"x": -0.2803174235,
				"y": -2.3318459259,
				"z": -1.0119539509,
				"element": "C" 
			},
			{
				"x": -0.4730098858,
				"y": -3.5703468953,
				"z": -0.5612318413,
				"element": "C" 
			},
			{
				"x": 0.605620893,
				"y": 4.0824188972,
				"z": 2.5346500647,
				"element": "H" 
			},
			{
				"x": -0.2931493022,
				"y": 1.4126308981,
				"z": 2.4368111709,
				"element": "H" 
			},
			{
				"x": 1.2835443245,
				"y": 1.9589749333,
				"z": 3.0386305524,
				"element": "H" 
			},
			{
				"x": 1.8876929575,
				"y": 2.7221635201,
				"z": 0.7268223802,
				"element": "H" 
			},
			{
				"x": 1.4873465186,
				"y": 0.9927692663,
				"z": 0.74017272,
				"element": "H" 
			},
			{
				"x": -0.4551220877,
				"y": 3.075350137,
				"z": 0.0091356158,
				"element": "H" 
			},
			{
				"x": -1.3858316387,
				"y": 2.7476472254,
				"z": -2.1896923384,
				"element": "H" 
			},
			{
				"x": -1.9950082835,
				"y": -1.4854051159,
				"z": -0.0588355632,
				"element": "H" 
			},
			{
				"x": -1.7203970771,
				"y": -0.9097224018,
				"z": -1.708641974,
				"element": "H" 
			},
			{
				"x": 0.5941747652,
				"y": -2.1034309935,
				"z": -1.620695076,
				"element": "H" 
			},
			{
				"x": -1.3323368614,
				"y": -3.8253416708,
				"z": 0.0551623596,
				"element": "H" 
			},
			{
				"x": 0.2165386163,
				"y": -4.3770624927,
				"z": -0.7918670313,
				"element": "H" 
			}
		],
		 "valence_orbital": [ 
			{
				"type": "occ",
				"energy": -0.28403,
				"method": "rhf"
			},
			{
				"type": "occ",
				"energy": -0.25961,
				"method": "rhf"
			},
			{
				"type": "occ",
				"energy": -0.25401,
				"method": "rhf"
			},
			{
				"type": "occ",
				"energy": -0.24569,
				"method": "rhf"
			},
			{
				"type": "occ",
				"energy": -0.22868,
				"method": "rhf"
			},
			{
				"type": "unocc",
				"energy": 0.00675,
				"method": "rhf"
			},
			{
				"type": "unocc",
				"energy": 0.02567,
				"method": "rhf"
			},
			{
				"type": "unocc",
				"energy": 0.03505,
				"method": "rhf"
			},
			{
				"type": "unocc",
				"energy": 0.06468,
				"method": "rhf"
			},
			{
				"type": "unocc",
				"energy": 0.07112,
				"method": "rhf"
			}
		],
		"cosmo_sigma_profile": { 
			"-0.025": 0.0,
			"-0.024": 0.0,
			"-0.023": 0.0,
			"-0.022": 0.0,
			"-0.021": 0.0,
			"-0.02": 0.0,
			"-0.019": 0.0,
			"-0.018": 0.0,
			"-0.017": 0.0,
			"-0.016": 0.333888708071,
			"-0.015": 1.1770156299,
			"-0.014": 0.883540325315,
			"-0.013": 1.10736875087,
			"-0.012": 1.13422679857,
			"-0.011": 2.26609136549,
			"-0.01": 4.08493549934,
			"-0.009": 2.46684674299,
			"-0.008": 4.07566995865,
			"-0.007": 3.56674841091,
			"-0.006": 4.12843368902,
			"-0.005": 9.30259844616,
			"-0.004": 18.750525974,
			"-0.003": 18.4111452625,
			"-0.002": 20.2015324152,
			"-0.001": 18.5099362042,
			"0.0": 14.1884916968,
			"0.001": 12.7363291942,
			"0.002": 12.994067436,
			"0.003": 10.3607154491,
			"0.004": 12.2525048408,
			"0.005": 9.57457634949,
			"0.006": 9.33779049429,
			"0.007": 7.15007610456,
			"0.008": 5.66667252672,
			"0.009": 3.1473596435,
			"0.01": 2.54752162871,
			"0.011": 1.89829747688,
			"0.012": 1.83889685717,
			"0.013": 1.99342287223,
			"0.014": 1.4820392571,
			"0.015": 0.435909185298,
			"0.016": 0.0,
			"0.017": 0.0,
			"0.018": 0.0,
			"0.019": 0.0,
			"0.02": 0.0,
			"0.021": 0.0,
			"0.022": 0.0,
			"0.023": 0.0,
			"0.024": 0.0,
			"0.025": 0.0
		}
	}
}
