{
	 "smiles": "BrC1=CC=C(CN2C=CC=N2)C=C1", 
	 "Tm": 317.15, 
	 "num_atms": 22, 
	 "gaussian": { 
		 "optdone": 1, 
		 "sigma_profile": "yes", 
		 "theory": "DFT", 
		 "functional": "B3LYP", 
		 "basiset": "6-31G**", 
		 "properties": { 
			 "R2extent": 5414.4194, 
			 "electric_dipole_moment_norm": 2.30773109785, 
			 "electric_quadrupole_moment_norm": 9.7802579332, 
			 "total_energy": -3067.37137724, 
			 "HOMO_LUMO_gap": 0.2195, 
			 "cosmo_polarized_energy": -9.07, 
			 "cosmo_cavitation_energy": 28.73, 
			 "cosmo_dispersion_energy": -21.08, 
			 "cosmo_repulsion_energy": 1.66, 
			 "cosmo_total_nonelectrostatic_energy": 9.31, 
			 "SMD_solvation_energy": 3.4 
		},
		"coords": [
			{
				"x": 1.1205055371,
				"y": 0.7024748095,
				"z": 4.4493258678,
				"element": "Br" 
			},
			{
				"x": 1.3399496699,
				"y": 0.2262634789,
				"z": 2.6104627994,
				"element": "C" 
			},
			{
				"x": 0.7389892931,
				"y": -0.936455605,
				"z": 2.1267068767,
				"element": "C" 
			},
			{
				"x": 0.9023433227,
				"y": -1.2804940538,
				"z": 0.786499251,
				"element": "C" 
			},
			{
				"x": 1.6555879957,
				"y": -0.4705767702,
				"z": -0.0739347829,
				"element": "C" 
			},
			{
				"x": 1.8536538183,
				"y": -0.8633164931,
				"z": -1.5277960681,
				"element": "C" 
			},
			{
				"x": 0.6166003729,
				"y": -1.1925065914,
				"z": -2.2235684515,
				"element": "N" 
			},
			{
				"x": -0.2618726142,
				"y": -0.3418582429,
				"z": -2.8200669638,
				"element": "C" 
			},
			{
				"x": -1.3280998919,
				"y": -1.1066713301,
				"z": -3.253253295,
				"element": "C" 
			},
			{
				"x": -1.0002448143,
				"y": -2.4212492737,
				"z": -2.8566793954,
				"element": "C" 
			},
			{
				"x": 0.1759536019,
				"y": -2.4726334305,
				"z": -2.2298916718,
				"element": "N" 
			},
			{
				"x": 2.2443272706,
				"y": 0.6908518481,
				"z": 0.4340216636,
				"element": "C" 
			},
			{
				"x": 2.094672537,
				"y": 1.0463013339,
				"z": 1.7762863221,
				"element": "C" 
			},
			{
				"x": 0.1539396001,
				"y": -1.5635190521,
				"z": 2.7898401895,
				"element": "H" 
			},
			{
				"x": 0.4370813674,
				"y": -2.1812839565,
				"z": 0.3972123703,
				"element": "H" 
			},
			{
				"x": 2.4853203351,
				"y": -1.7528937867,
				"z": -1.6051406838,
				"element": "H" 
			},
			{
				"x": 2.3491238197,
				"y": -0.0545299406,
				"z": -2.0729464721,
				"element": "H" 
			},
			{
				"x": -0.0619094628,
				"y": 0.7175436565,
				"z": -2.8910424568,
				"element": "H" 
			},
			{
				"x": -2.2039977968,
				"y": -0.7665766522,
				"z": -3.7850831801,
				"element": "H" 
			},
			{
				"x": -1.5639798529,
				"y": -3.3320774899,
				"z": -3.0088182966,
				"element": "H" 
			},
			{
				"x": 2.8299726062,
				"y": 1.3322982837,
				"z": -0.2201753802,
				"element": "H" 
			},
			{
				"x": 2.5527832853,
				"y": 1.9489092584,
				"z": 2.1642417577,
				"element": "H" 
			}
		],
		 "valence_orbital": [ 
			{
				"type": "occ",
				"energy": -0.28743,
				"method": "rhf"
			},
			{
				"type": "occ",
				"energy": -0.26641,
				"method": "rhf"
			},
			{
				"type": "occ",
				"energy": -0.25262,
				"method": "rhf"
			},
			{
				"type": "occ",
				"energy": -0.24567,
				"method": "rhf"
			},
			{
				"type": "occ",
				"energy": -0.24073,
				"method": "rhf"
			},
			{
				"type": "unocc",
				"energy": -0.02123,
				"method": "rhf"
			},
			{
				"type": "unocc",
				"energy": -0.01702,
				"method": "rhf"
			},
			{
				"type": "unocc",
				"energy": 0.00619,
				"method": "rhf"
			},
			{
				"type": "unocc",
				"energy": 0.01703,
				"method": "rhf"
			},
			{
				"type": "unocc",
				"energy": 0.06974,
				"method": "rhf"
			}
		],
		"cosmo_sigma_profile": { 
			"-0.025": 0.0,
			"-0.024": 0.0,
			"-0.023": 0.0,
			"-0.022": 0.0,
			"-0.021": 0.0,
			"-0.02": 0.0,
			"-0.019": 0.0,
			"-0.018": 0.0,
			"-0.017": 0.0,
			"-0.016": 0.0,
			"-0.015": 0.0,
			"-0.014": 0.0,
			"-0.013": 0.0,
			"-0.012": 0.0,
			"-0.011": 0.0,
			"-0.01": 0.0,
			"-0.009": 1.40375898237,
			"-0.008": 4.69391301402,
			"-0.007": 11.7018673471,
			"-0.006": 14.9541712455,
			"-0.005": 13.815262037,
			"-0.004": 15.9765420436,
			"-0.003": 14.8759489529,
			"-0.002": 13.2741099648,
			"-0.001": 14.6130469176,
			"0.0": 11.8467575696,
			"0.001": 16.4338187481,
			"0.002": 21.7962902991,
			"0.003": 24.6535635269,
			"0.004": 23.4709945563,
			"0.005": 15.1649728594,
			"0.006": 5.47306869035,
			"0.007": 1.82212330721,
			"0.008": 1.61671747898,
			"0.009": 1.13927494445,
			"0.01": 0.696661114811,
			"0.011": 1.23457636903,
			"0.012": 1.12294282399,
			"0.013": 0.108751495436,
			"0.014": 1.12869321142,
			"0.015": 0.686327864155,
			"0.016": 0.264408918863,
			"0.017": 0.0,
			"0.018": 0.0,
			"0.019": 0.0,
			"0.02": 0.0,
			"0.021": 0.0,
			"0.022": 0.0,
			"0.023": 0.0,
			"0.024": 0.0,
			"0.025": 0.0
		}
	}
}
