{
	 "smiles": "C(OC1=CC=CC=C1)C1=CC=CC=C1", 
	 "Tm": 312.65, 
	 "num_atms": 26, 
	 "gaussian": { 
		 "optdone": 1, 
		 "sigma_profile": "yes", 
		 "theory": "DFT", 
		 "functional": "B3LYP", 
		 "basiset": "6-31G**", 
		 "properties": { 
			 "R2extent": 3563.417, 
			 "electric_dipole_moment_norm": 1.23128581166, 
			 "electric_quadrupole_moment_norm": 2.55903662342, 
			 "total_energy": -577.830162444, 
			 "HOMO_LUMO_gap": 0.20897, 
			 "cosmo_polarized_energy": -6.77, 
			 "cosmo_cavitation_energy": 29.57, 
			 "cosmo_dispersion_energy": -21.3, 
			 "cosmo_repulsion_energy": 1.68, 
			 "cosmo_total_nonelectrostatic_energy": 9.95, 
			 "SMD_solvation_energy": 5.13 
		},
		"coords": [
			{
				"x": 0.1864129036,
				"y": 1.7357354425,
				"z": -1.1255507851,
				"element": "C" 
			},
			{
				"x": 1.1406811875,
				"y": 2.1912908318,
				"z": -0.1712648588,
				"element": "O" 
			},
			{
				"x": 1.8719342433,
				"y": 1.2716579642,
				"z": 0.5369845696,
				"element": "C" 
			},
			{
				"x": 1.6571626947,
				"y": -0.1110783294,
				"z": 0.5119757676,
				"element": "C" 
			},
			{
				"x": 2.4828012427,
				"y": -0.9463521724,
				"z": 1.2713403026,
				"element": "C" 
			},
			{
				"x": 3.5094329319,
				"y": -0.4226176351,
				"z": 2.0542866006,
				"element": "C" 
			},
			{
				"x": 3.7105240927,
				"y": 0.9615340889,
				"z": 2.0783342978,
				"element": "C" 
			},
			{
				"x": 2.9006037566,
				"y": 1.8058712926,
				"z": 1.3261300116,
				"element": "C" 
			},
			{
				"x": -1.1319201671,
				"y": 1.2832150989,
				"z": -0.5254699986,
				"element": "C" 
			},
			{
				"x": -1.9158590054,
				"y": 0.334892728,
				"z": -1.1930225807,
				"element": "C" 
			},
			{
				"x": -3.1595270831,
				"y": -0.0433840065,
				"z": -0.6843776885,
				"element": "C" 
			},
			{
				"x": -3.6281542571,
				"y": 0.5183314027,
				"z": 0.5044684023,
				"element": "C" 
			},
			{
				"x": -2.8478369715,
				"y": 1.4606071179,
				"z": 1.1781151293,
				"element": "C" 
			},
			{
				"x": -1.6086944448,
				"y": 1.8443254553,
				"z": 0.6646138831,
				"element": "C" 
			},
			{
				"x": 0.617037456,
				"y": 0.9430571185,
				"z": -1.7519695006,
				"element": "H" 
			},
			{
				"x": 0.020545068,
				"y": 2.6060801634,
				"z": -1.7705757001,
				"element": "H" 
			},
			{
				"x": 0.8480369967,
				"y": -0.5394568247,
				"z": -0.0667463553,
				"element": "H" 
			},
			{
				"x": 2.3086082087,
				"y": -2.0186054604,
				"z": 1.2489924118,
				"element": "H" 
			},
			{
				"x": 4.1431297233,
				"y": -1.0803066961,
				"z": 2.6411344345,
				"element": "H" 
			},
			{
				"x": 4.506045535,
				"y": 1.3864958081,
				"z": 2.6841298063,
				"element": "H" 
			},
			{
				"x": 3.0467393363,
				"y": 2.8812619886,
				"z": 1.3270935269,
				"element": "H" 
			},
			{
				"x": -1.5518211147,
				"y": -0.1119141334,
				"z": -2.1159203345,
				"element": "H" 
			},
			{
				"x": -3.7569760539,
				"y": -0.7816795576,
				"z": -1.2118445459,
				"element": "H" 
			},
			{
				"x": -4.5927884125,
				"y": 0.2208410721,
				"z": 0.9054700609,
				"element": "H" 
			},
			{
				"x": -3.2049112572,
				"y": 1.8984399672,
				"z": 2.1060786171,
				"element": "H" 
			},
			{
				"x": -0.9982066099,
				"y": 2.5735572748,
				"z": 1.1877945262,
				"element": "H" 
			}
		],
		 "valence_orbital": [ 
			{
				"type": "occ",
				"energy": -0.31158,
				"method": "rhf"
			},
			{
				"type": "occ",
				"energy": -0.25181,
				"method": "rhf"
			},
			{
				"type": "occ",
				"energy": -0.24886,
				"method": "rhf"
			},
			{
				"type": "occ",
				"energy": -0.24245,
				"method": "rhf"
			},
			{
				"type": "occ",
				"energy": -0.21602,
				"method": "rhf"
			},
			{
				"type": "unocc",
				"energy": -0.00705,
				"method": "rhf"
			},
			{
				"type": "unocc",
				"energy": -0.00427,
				"method": "rhf"
			},
			{
				"type": "unocc",
				"energy": 0.00586,
				"method": "rhf"
			},
			{
				"type": "unocc",
				"energy": 0.01741,
				"method": "rhf"
			},
			{
				"type": "unocc",
				"energy": 0.09301,
				"method": "rhf"
			}
		],
		"cosmo_sigma_profile": { 
			"-0.025": 0.0,
			"-0.024": 0.0,
			"-0.023": 0.0,
			"-0.022": 0.0,
			"-0.021": 0.0,
			"-0.02": 0.0,
			"-0.019": 0.0,
			"-0.018": 0.0,
			"-0.017": 0.0,
			"-0.016": 0.0,
			"-0.015": 0.0,
			"-0.014": 0.0,
			"-0.013": 0.0,
			"-0.012": 0.0,
			"-0.011": 0.0,
			"-0.01": 0.0,
			"-0.009": 0.0,
			"-0.008": 0.0,
			"-0.007": 0.437610086736,
			"-0.006": 12.8651841684,
			"-0.005": 22.5953065592,
			"-0.004": 26.0962259531,
			"-0.003": 23.81740973,
			"-0.002": 14.7101406521,
			"-0.001": 15.7674172403,
			"0.0": 13.6319601185,
			"0.001": 13.2238574887,
			"0.002": 15.7311456694,
			"0.003": 16.2302580235,
			"0.004": 20.0664545984,
			"0.005": 19.1824717855,
			"0.006": 16.1912118286,
			"0.007": 2.49440541792,
			"0.008": 1.07889616503,
			"0.009": 1.09147218938,
			"0.01": 0.872197086479,
			"0.011": 0.212806235658,
			"0.012": 0.0,
			"0.013": 0.0,
			"0.014": 0.0,
			"0.015": 0.0,
			"0.016": 0.0,
			"0.017": 0.0,
			"0.018": 0.0,
			"0.019": 0.0,
			"0.02": 0.0,
			"0.021": 0.0,
			"0.022": 0.0,
			"0.023": 0.0,
			"0.024": 0.0,
			"0.025": 0.0
		}
	}
}
