{
	 "smiles": "CC(=N/O)C(=O)C1=CC=CC=C1", 
	 "Tm": 387.15, 
	 "num_atms": 21, 
	 "gaussian": { 
		 "optdone": 1, 
		 "sigma_profile": "yes", 
		 "theory": "DFT", 
		 "functional": "B3LYP", 
		 "basiset": "6-31G**", 
		 "properties": { 
			 "R2extent": 2829.0825, 
			 "electric_dipole_moment_norm": 2.8214007957, 
			 "electric_quadrupole_moment_norm": 10.9049816589, 
			 "total_energy": -553.521687539, 
			 "HOMO_LUMO_gap": 0.18061, 
			 "cosmo_polarized_energy": -10.08, 
			 "cosmo_cavitation_energy": 25.56, 
			 "cosmo_dispersion_energy": -18.71, 
			 "cosmo_repulsion_energy": 1.51, 
			 "cosmo_total_nonelectrostatic_energy": 8.35, 
			 "SMD_solvation_energy": 5.52 
		},
		"coords": [
			{
				"x": -2.5847008206,
				"y": -1.9576827236,
				"z": -2.9391848866,
				"element": "C" 
			},
			{
				"x": -1.9005770544,
				"y": -1.2612039251,
				"z": -1.7985815539,
				"element": "C" 
			},
			{
				"x": -2.3279605975,
				"y": -1.2628454841,
				"z": -0.5838908402,
				"element": "N" 
			},
			{
				"x": -3.5203150116,
				"y": -1.974959257,
				"z": -0.4647472865,
				"element": "O" 
			},
			{
				"x": -0.5682644394,
				"y": -0.6004454671,
				"z": -2.0533447493,
				"element": "C" 
			},
			{
				"x": 0.0342091344,
				"y": -0.917011258,
				"z": -3.073918886,
				"element": "O" 
			},
			{
				"x": 0.0325534281,
				"y": 0.3860045389,
				"z": -1.1005827889,
				"element": "C" 
			},
			{
				"x": -0.7088876671,
				"y": 1.169017563,
				"z": -0.2011981102,
				"element": "C" 
			},
			{
				"x": -0.0665472237,
				"y": 2.1097008712,
				"z": 0.6037433135,
				"element": "C" 
			},
			{
				"x": 1.3174470014,
				"y": 2.2740031747,
				"z": 0.5284160446,
				"element": "C" 
			},
			{
				"x": 2.0626429493,
				"y": 1.5025091958,
				"z": -0.3681907599,
				"element": "C" 
			},
			{
				"x": 1.4230851615,
				"y": 0.5747758124,
				"z": -1.1838093196,
				"element": "C" 
			},
			{
				"x": -1.9838645944,
				"y": -1.8696278604,
				"z": -3.8429174813,
				"element": "H" 
			},
			{
				"x": -2.7349650649,
				"y": -3.015057969,
				"z": -2.6991738328,
				"element": "H" 
			},
			{
				"x": -3.5784349113,
				"y": -1.5273248322,
				"z": -3.1020971929,
				"element": "H" 
			},
			{
				"x": -3.7010588917,
				"y": -1.9237680831,
				"z": 0.48420767,
				"element": "H" 
			},
			{
				"x": -1.7817100118,
				"y": 1.0455845961,
				"z": -0.1349165722,
				"element": "H" 
			},
			{
				"x": -0.6496784528,
				"y": 2.7166734104,
				"z": 1.2902569952,
				"element": "H" 
			},
			{
				"x": 1.8139003808,
				"y": 3.0035546805,
				"z": 1.1622022346,
				"element": "H" 
			},
			{
				"x": 3.1393518428,
				"y": 1.6297030764,
				"z": -0.432978105,
				"element": "H" 
			},
			{
				"x": 1.9812748429,
				"y": -0.0199000598,
				"z": -1.8987938926,
				"element": "H" 
			}
		],
		 "valence_orbital": [ 
			{
				"type": "occ",
				"energy": -0.29231,
				"method": "rhf"
			},
			{
				"type": "occ",
				"energy": -0.2683,
				"method": "rhf"
			},
			{
				"type": "occ",
				"energy": -0.26028,
				"method": "rhf"
			},
			{
				"type": "occ",
				"energy": -0.2548,
				"method": "rhf"
			},
			{
				"type": "occ",
				"energy": -0.25001,
				"method": "rhf"
			},
			{
				"type": "unocc",
				"energy": -0.0694,
				"method": "rhf"
			},
			{
				"type": "unocc",
				"energy": -0.01174,
				"method": "rhf"
			},
			{
				"type": "unocc",
				"energy": -0.00347,
				"method": "rhf"
			},
			{
				"type": "unocc",
				"energy": 0.06218,
				"method": "rhf"
			},
			{
				"type": "unocc",
				"energy": 0.07145,
				"method": "rhf"
			}
		],
		"cosmo_sigma_profile": { 
			"-0.025": 0.0,
			"-0.024": 0.0,
			"-0.023": 0.0,
			"-0.022": 0.0,
			"-0.021": 0.0,
			"-0.02": 0.0,
			"-0.019": 0.0851675122943,
			"-0.018": 0.804192058549,
			"-0.017": 1.01078838321,
			"-0.016": 1.26251383373,
			"-0.015": 0.94175616085,
			"-0.014": 0.323580919366,
			"-0.013": 0.106570479158,
			"-0.012": 1.34916525871,
			"-0.011": 0.751696607228,
			"-0.01": 0.875680929516,
			"-0.009": 0.331508508954,
			"-0.008": 0.73412757947,
			"-0.007": 1.23835682291,
			"-0.006": 7.70520415105,
			"-0.005": 14.0977276119,
			"-0.004": 16.8185819507,
			"-0.003": 16.1221764761,
			"-0.002": 15.9783764971,
			"-0.001": 19.2947087892,
			"0.0": 14.0713202609,
			"0.001": 11.3765930003,
			"0.002": 12.7898993347,
			"0.003": 15.0078599803,
			"0.004": 17.0195076318,
			"0.005": 8.09803566376,
			"0.006": 5.1201659021,
			"0.007": 3.08663466254,
			"0.008": 5.48603564671,
			"0.009": 3.87744703644,
			"0.01": 2.87710995854,
			"0.011": 3.28754111117,
			"0.012": 1.95321096973,
			"0.013": 0.0,
			"0.014": 0.0,
			"0.015": 0.0,
			"0.016": 0.0,
			"0.017": 0.0,
			"0.018": 0.0,
			"0.019": 0.0,
			"0.02": 0.0,
			"0.021": 0.0,
			"0.022": 0.0,
			"0.023": 0.0,
			"0.024": 0.0,
			"0.025": 0.0
		}
	}
}
