{
	 "smiles": "CC=C=C", 
	 "Tm": 137.15, 
	 "num_atms": 10, 
	 "gaussian": { 
		 "optdone": 1, 
		 "sigma_profile": "yes", 
		 "theory": "DFT", 
		 "functional": "B3LYP", 
		 "basiset": "6-31G**", 
		 "properties": { 
			 "R2extent": 792.7539, 
			 "electric_dipole_moment_norm": 0.411972268484, 
			 "electric_quadrupole_moment_norm": 2.19946003828, 
			 "total_energy": -155.981277814, 
			 "HOMO_LUMO_gap": 0.27011, 
			 "cosmo_polarized_energy": -2.05, 
			 "cosmo_cavitation_energy": 13.89, 
			 "cosmo_dispersion_energy": -9.95, 
			 "cosmo_repulsion_energy": 0.93, 
			 "cosmo_total_nonelectrostatic_energy": 4.88, 
			 "SMD_solvation_energy": 3.72 
		},
		"coords": [
			{
				"x": 0.5215885327,
				"y": -0.567338353,
				"z": -1.7031991235,
				"element": "C" 
			},
			{
				"x": -0.9155122541,
				"y": -0.1032600427,
				"z": -1.6854881461,
				"element": "C" 
			},
			{
				"x": -1.3020253002,
				"y": 1.1445901569,
				"z": -1.7688142461,
				"element": "C" 
			},
			{
				"x": -1.6861088101,
				"y": 2.3917668812,
				"z": -1.8521614633,
				"element": "C" 
			},
			{
				"x": 1.2097483283,
				"y": 0.2760411371,
				"z": -1.7952911834,
				"element": "H" 
			},
			{
				"x": 0.766544981,
				"y": -1.1139391102,
				"z": -0.7844642506,
				"element": "H" 
			},
			{
				"x": 0.7003719863,
				"y": -1.2517859903,
				"z": -2.5413025751,
				"element": "H" 
			},
			{
				"x": -1.6809984929,
				"y": -0.8756992476,
				"z": -1.5960696993,
				"element": "H" 
			},
			{
				"x": -1.8194818637,
				"y": 3.007971487,
				"z": -0.9652774229,
				"element": "H" 
			},
			{
				"x": -1.8897271074,
				"y": 2.8629530817,
				"z": -2.8116318897,
				"element": "H" 
			}
		],
		 "valence_orbital": [ 
			{
				"type": "occ",
				"energy": -0.41078,
				"method": "rhf"
			},
			{
				"type": "occ",
				"energy": -0.40848,
				"method": "rhf"
			},
			{
				"type": "occ",
				"energy": -0.37254,
				"method": "rhf"
			},
			{
				"type": "occ",
				"energy": -0.2575,
				"method": "rhf"
			},
			{
				"type": "occ",
				"energy": -0.24589,
				"method": "rhf"
			},
			{
				"type": "unocc",
				"energy": 0.02422,
				"method": "rhf"
			},
			{
				"type": "unocc",
				"energy": 0.0296,
				"method": "rhf"
			},
			{
				"type": "unocc",
				"energy": 0.12815,
				"method": "rhf"
			},
			{
				"type": "unocc",
				"energy": 0.13746,
				"method": "rhf"
			},
			{
				"type": "unocc",
				"energy": 0.15135,
				"method": "rhf"
			}
		],
		"cosmo_sigma_profile": { 
			"-0.025": 0.0,
			"-0.024": 0.0,
			"-0.023": 0.0,
			"-0.022": 0.0,
			"-0.021": 0.0,
			"-0.02": 0.0,
			"-0.019": 0.0,
			"-0.018": 0.0,
			"-0.017": 0.0,
			"-0.016": 0.0,
			"-0.015": 0.0,
			"-0.014": 0.0,
			"-0.013": 0.0,
			"-0.012": 0.0,
			"-0.011": 0.0,
			"-0.01": 0.0,
			"-0.009": 0.0,
			"-0.008": 0.0,
			"-0.007": 0.218294449586,
			"-0.006": 3.84119123829,
			"-0.005": 5.05764580932,
			"-0.004": 8.76847130183,
			"-0.003": 10.6118903721,
			"-0.002": 12.2049604007,
			"-0.001": 12.3121341124,
			"0.0": 13.909778655,
			"0.001": 7.84183356201,
			"0.002": 5.92485267626,
			"0.003": 7.00735975957,
			"0.004": 9.0824522577,
			"0.005": 7.50173100706,
			"0.006": 5.08741662816,
			"0.007": 1.10890993209,
			"0.008": 0.0,
			"0.009": 0.0,
			"0.01": 0.0,
			"0.011": 0.0,
			"0.012": 0.0,
			"0.013": 0.0,
			"0.014": 0.0,
			"0.015": 0.0,
			"0.016": 0.0,
			"0.017": 0.0,
			"0.018": 0.0,
			"0.019": 0.0,
			"0.02": 0.0,
			"0.021": 0.0,
			"0.022": 0.0,
			"0.023": 0.0,
			"0.024": 0.0,
			"0.025": 0.0
		}
	}
}
