{
	 "smiles": "CC(Cl)C(=O)NC1CCCC1", 
	 "Tm": 385.15, 
	 "num_atms": 25, 
	 "gaussian": { 
		 "optdone": 1, 
		 "sigma_profile": "yes", 
		 "theory": "DFT", 
		 "functional": "B3LYP", 
		 "basiset": "6-31G**", 
		 "properties": { 
			 "R2extent": 3225.9969, 
			 "electric_dipole_moment_norm": 4.05231078892, 
			 "electric_quadrupole_moment_norm": 14.743196085, 
			 "total_energy": -903.482092779, 
			 "HOMO_LUMO_gap": 0.23305, 
			 "cosmo_polarized_energy": -10.99, 
			 "cosmo_cavitation_energy": 28.06, 
			 "cosmo_dispersion_energy": -20.14, 
			 "cosmo_repulsion_energy": 1.65, 
			 "cosmo_total_nonelectrostatic_energy": 9.56, 
			 "SMD_solvation_energy": 4.26 
		},
		"coords": [
			{
				"x": -1.2203519877,
				"y": -3.8705155501,
				"z": 1.3389633018,
				"element": "C" 
			},
			{
				"x": -1.1980660514,
				"y": -2.6610491755,
				"z": 0.4232141273,
				"element": "C" 
			},
			{
				"x": -2.7114222445,
				"y": -2.6389340246,
				"z": -0.6258228339,
				"element": "Cl" 
			},
			{
				"x": 0.0295565559,
				"y": -2.6709596117,
				"z": -0.5066739193,
				"element": "C" 
			},
			{
				"x": 0.6444916167,
				"y": -3.7085958713,
				"z": -0.7184201568,
				"element": "O" 
			},
			{
				"x": 0.4004479696,
				"y": -1.4846151343,
				"z": -1.0690742918,
				"element": "N" 
			},
			{
				"x": -0.190620274,
				"y": -0.1512599423,
				"z": -0.9127762657,
				"element": "C" 
			},
			{
				"x": 0.1603630634,
				"y": 0.7249078823,
				"z": -2.1335759917,
				"element": "C" 
			},
			{
				"x": 1.5591746327,
				"y": 1.3327648963,
				"z": -1.8302690159,
				"element": "C" 
			},
			{
				"x": 1.7945284656,
				"y": 1.1215314874,
				"z": -0.3056184885,
				"element": "C" 
			},
			{
				"x": 0.4387316471,
				"y": 0.6435693338,
				"z": 0.2530131749,
				"element": "C" 
			},
			{
				"x": -0.3525844809,
				"y": -3.8314939325,
				"z": 2.0059738548,
				"element": "H" 
			},
			{
				"x": -1.1523435773,
				"y": -4.7886064752,
				"z": 0.7545720726,
				"element": "H" 
			},
			{
				"x": -2.1301517848,
				"y": -3.8785095333,
				"z": 1.9429783899,
				"element": "H" 
			},
			{
				"x": -1.2532699115,
				"y": -1.7321186357,
				"z": 0.9932243651,
				"element": "H" 
			},
			{
				"x": 1.207997598,
				"y": -1.5793518733,
				"z": -1.6722624049,
				"element": "H" 
			},
			{
				"x": -1.2715469005,
				"y": -0.2661320399,
				"z": -0.8075474464,
				"element": "H" 
			},
			{
				"x": -0.5880495977,
				"y": 1.5198981683,
				"z": -2.2103903343,
				"element": "H" 
			},
			{
				"x": 0.1208103018,
				"y": 0.1585430173,
				"z": -3.0686871921,
				"element": "H" 
			},
			{
				"x": 1.5861862637,
				"y": 2.3923079843,
				"z": -2.1006844217,
				"element": "H" 
			},
			{
				"x": 2.3443876047,
				"y": 0.8462382638,
				"z": -2.4179840442,
				"element": "H" 
			},
			{
				"x": 2.1524468169,
				"y": 2.0259312966,
				"z": 0.1941103898,
				"element": "H" 
			},
			{
				"x": 2.5533646054,
				"y": 0.3489261623,
				"z": -0.1428805209,
				"element": "H" 
			},
			{
				"x": 0.5353759133,
				"y": 0.0512188363,
				"z": 1.168209014,
				"element": "H" 
			},
			{
				"x": -0.2070562448,
				"y": 1.5012044711,
				"z": 0.4799086379,
				"element": "H" 
			}
		],
		 "valence_orbital": [ 
			{
				"type": "occ",
				"energy": -0.32997,
				"method": "rhf"
			},
			{
				"type": "occ",
				"energy": -0.30617,
				"method": "rhf"
			},
			{
				"type": "occ",
				"energy": -0.29848,
				"method": "rhf"
			},
			{
				"type": "occ",
				"energy": -0.25286,
				"method": "rhf"
			},
			{
				"type": "occ",
				"energy": -0.25027,
				"method": "rhf"
			},
			{
				"type": "unocc",
				"energy": -0.01722,
				"method": "rhf"
			},
			{
				"type": "unocc",
				"energy": 0.05192,
				"method": "rhf"
			},
			{
				"type": "unocc",
				"energy": 0.0663,
				"method": "rhf"
			},
			{
				"type": "unocc",
				"energy": 0.0814,
				"method": "rhf"
			},
			{
				"type": "unocc",
				"energy": 0.09502,
				"method": "rhf"
			}
		],
		"cosmo_sigma_profile": { 
			"-0.025": 0.0,
			"-0.024": 0.0,
			"-0.023": 0.0,
			"-0.022": 0.0,
			"-0.021": 0.0,
			"-0.02": 0.0,
			"-0.019": 0.0,
			"-0.018": 0.0,
			"-0.017": 0.0,
			"-0.016": 0.0,
			"-0.015": 0.0,
			"-0.014": 0.0,
			"-0.013": 0.340238479809,
			"-0.012": 0.773715511863,
			"-0.011": 0.546578184788,
			"-0.01": 1.07350208241,
			"-0.009": 1.33952460069,
			"-0.008": 1.33506247559,
			"-0.007": 5.37533592643,
			"-0.006": 6.59950143632,
			"-0.005": 7.86191995401,
			"-0.004": 15.0614570245,
			"-0.003": 26.7378816852,
			"-0.002": 23.7918318359,
			"-0.001": 26.9765179798,
			"0.0": 25.2264853156,
			"0.001": 18.4112553904,
			"0.002": 8.4579777338,
			"0.003": 8.97556440633,
			"0.004": 7.0813738821,
			"0.005": 9.00071174357,
			"0.006": 7.1869612171,
			"0.007": 1.79917684636,
			"0.008": 1.80465962232,
			"0.009": 1.07705987631,
			"0.01": 1.5292050018,
			"0.011": 1.263667659,
			"0.012": 2.73704566996,
			"0.013": 4.53588344029,
			"0.014": 3.28226760569,
			"0.015": 0.0879617560008,
			"0.016": 0.0,
			"0.017": 0.0,
			"0.018": 0.0,
			"0.019": 0.0,
			"0.02": 0.0,
			"0.021": 0.0,
			"0.022": 0.0,
			"0.023": 0.0,
			"0.024": 0.0,
			"0.025": 0.0
		}
	}
}
