{
	 "smiles": "OC(=O)C1=CCCCC1", 
	 "Tm": 311.15, 
	 "num_atms": 19, 
	 "gaussian": { 
		 "optdone": 1, 
		 "sigma_profile": "yes", 
		 "theory": "DFT", 
		 "functional": "B3LYP", 
		 "basiset": "6-31G**", 
		 "properties": { 
			 "R2extent": 1383.4715, 
			 "electric_dipole_moment_norm": 1.97662356811, 
			 "electric_quadrupole_moment_norm": 7.70173766302, 
			 "total_energy": -423.233910765, 
			 "HOMO_LUMO_gap": 0.21851, 
			 "cosmo_polarized_energy": -7.93, 
			 "cosmo_cavitation_energy": 21.43, 
			 "cosmo_dispersion_energy": -16.25, 
			 "cosmo_repulsion_energy": 1.36, 
			 "cosmo_total_nonelectrostatic_energy": 6.53, 
			 "SMD_solvation_energy": 4.34 
		},
		"coords": [
			{
				"x": -1.4955405293,
				"y": -0.8312680531,
				"z": 1.4407679773,
				"element": "O" 
			},
			{
				"x": -1.4322371179,
				"y": 0.3412162672,
				"z": 0.7535613458,
				"element": "C" 
			},
			{
				"x": -2.279180846,
				"y": 1.2040647587,
				"z": 0.8895225657,
				"element": "O" 
			},
			{
				"x": -0.2400759732,
				"y": 0.4123331483,
				"z": -0.1335056604,
				"element": "C" 
			},
			{
				"x": -0.062130443,
				"y": 1.5457329183,
				"z": -0.8343004875,
				"element": "C" 
			},
			{
				"x": 1.1065440669,
				"y": 1.7929388147,
				"z": -1.7447229438,
				"element": "C" 
			},
			{
				"x": 2.2317594405,
				"y": 0.7645835724,
				"z": -1.5520187848,
				"element": "C" 
			},
			{
				"x": 1.655742536,
				"y": -0.6511991129,
				"z": -1.422786851,
				"element": "C" 
			},
			{
				"x": 0.7143545095,
				"y": -0.7612024526,
				"z": -0.2132487505,
				"element": "C" 
			},
			{
				"x": -2.2979770233,
				"y": -0.769469234,
				"z": 1.984791814,
				"element": "H" 
			},
			{
				"x": -0.8103697847,
				"y": 2.3285720602,
				"z": -0.7324215653,
				"element": "H" 
			},
			{
				"x": 1.4804605568,
				"y": 2.8131046533,
				"z": -1.5865761795,
				"element": "H" 
			},
			{
				"x": 0.7481425549,
				"y": 1.7769508395,
				"z": -2.7860566511,
				"element": "H" 
			},
			{
				"x": 2.793449174,
				"y": 1.0099251101,
				"z": -0.6410463576,
				"element": "H" 
			},
			{
				"x": 2.9413242273,
				"y": 0.8220103011,
				"z": -2.3847360979,
				"element": "H" 
			},
			{
				"x": 2.4606615792,
				"y": -1.3892723271,
				"z": -1.3354775068,
				"element": "H" 
			},
			{
				"x": 1.1001521455,
				"y": -0.8980791646,
				"z": -2.3374999689,
				"element": "H" 
			},
			{
				"x": 1.2973035006,
				"y": -0.8190497944,
				"z": 0.7170416162,
				"element": "H" 
			},
			{
				"x": 0.144817426,
				"y": -1.695392305,
				"z": -0.2569875138,
				"element": "H" 
			}
		],
		 "valence_orbital": [ 
			{
				"type": "occ",
				"energy": -0.32753,
				"method": "rhf"
			},
			{
				"type": "occ",
				"energy": -0.31803,
				"method": "rhf"
			},
			{
				"type": "occ",
				"energy": -0.31256,
				"method": "rhf"
			},
			{
				"type": "occ",
				"energy": -0.26672,
				"method": "rhf"
			},
			{
				"type": "occ",
				"energy": -0.25174,
				"method": "rhf"
			},
			{
				"type": "unocc",
				"energy": -0.03323,
				"method": "rhf"
			},
			{
				"type": "unocc",
				"energy": 0.07963,
				"method": "rhf"
			},
			{
				"type": "unocc",
				"energy": 0.08398,
				"method": "rhf"
			},
			{
				"type": "unocc",
				"energy": 0.09656,
				"method": "rhf"
			},
			{
				"type": "unocc",
				"energy": 0.12422,
				"method": "rhf"
			}
		],
		"cosmo_sigma_profile": { 
			"-0.025": 0.0,
			"-0.024": 0.0,
			"-0.023": 0.0,
			"-0.022": 0.0,
			"-0.021": 0.0,
			"-0.02": 0.0,
			"-0.019": 0.0,
			"-0.018": 0.230540387533,
			"-0.017": 0.938057877224,
			"-0.016": 1.1314197843,
			"-0.015": 0.533736044809,
			"-0.014": 0.730681360161,
			"-0.013": 0.420497100444,
			"-0.012": 0.510265872735,
			"-0.011": 1.21333182505,
			"-0.01": 0.843161899814,
			"-0.009": 0.63506881505,
			"-0.008": 0.396769363675,
			"-0.007": 0.707568440959,
			"-0.006": 0.795354306584,
			"-0.005": 2.46111907547,
			"-0.004": 7.79777188625,
			"-0.003": 18.1725739869,
			"-0.002": 27.2014647648,
			"-0.001": 28.6342865664,
			"0.0": 20.6852800064,
			"0.001": 12.2395516475,
			"0.002": 4.94497030874,
			"0.003": 6.65681629103,
			"0.004": 3.45548775766,
			"0.005": 2.82183406628,
			"0.006": 3.61759678702,
			"0.007": 2.53933798384,
			"0.008": 2.98330419078,
			"0.009": 2.5218791871,
			"0.01": 1.92408814374,
			"0.011": 2.03557245756,
			"0.012": 5.32079435997,
			"0.013": 2.18683303716,
			"0.014": 0.0,
			"0.015": 0.0,
			"0.016": 0.0,
			"0.017": 0.0,
			"0.018": 0.0,
			"0.019": 0.0,
			"0.02": 0.0,
			"0.021": 0.0,
			"0.022": 0.0,
			"0.023": 0.0,
			"0.024": 0.0,
			"0.025": 0.0
		}
	}
}
