{
	 "smiles": "CC1=C(CCl)C=C(C=C1CCl)C(O)=O", 
	 "Tm": 431.15, 
	 "num_atms": 24, 
	 "gaussian": { 
		 "optdone": 1, 
		 "sigma_profile": "yes", 
		 "theory": "DFT", 
		 "functional": "B3LYP", 
		 "basiset": "6-31G**", 
		 "properties": { 
			 "R2extent": 4269.6409, 
			 "electric_dipole_moment_norm": 4.28337306687, 
			 "electric_quadrupole_moment_norm": 19.043902924, 
			 "total_energy": -1457.94730858, 
			 "HOMO_LUMO_gap": 0.20387, 
			 "cosmo_polarized_energy": -18.89, 
			 "cosmo_cavitation_energy": 31.23, 
			 "cosmo_dispersion_energy": -22.35, 
			 "cosmo_repulsion_energy": 1.78, 
			 "cosmo_total_nonelectrostatic_energy": 10.66, 
			 "SMD_solvation_energy": 5.68 
		},
		"coords": [
			{
				"x": 0.6207399016,
				"y": -1.2932855096,
				"z": 2.0112517528,
				"element": "C" 
			},
			{
				"x": 0.1289747588,
				"y": -0.6644508402,
				"z": 0.7268933788,
				"element": "C" 
			},
			{
				"x": -0.2955825477,
				"y": 0.6808124626,
				"z": 0.6993882469,
				"element": "C" 
			},
			{
				"x": -0.3361351132,
				"y": 1.521765639,
				"z": 1.9439796908,
				"element": "C" 
			},
			{
				"x": 1.2859828614,
				"y": 2.2922227089,
				"z": 2.3291817146,
				"element": "Cl" 
			},
			{
				"x": -0.7160458027,
				"y": 1.2611551254,
				"z": -0.5021282912,
				"element": "C" 
			},
			{
				"x": -0.7457769966,
				"y": 0.5262581163,
				"z": -1.689028382,
				"element": "C" 
			},
			{
				"x": -0.3747942718,
				"y": -0.8198973737,
				"z": -1.651305313,
				"element": "C" 
			},
			{
				"x": 0.0624919112,
				"y": -1.4167738681,
				"z": -0.4681954583,
				"element": "C" 
			},
			{
				"x": 0.4296350474,
				"y": -2.8742870577,
				"z": -0.5055547558,
				"element": "C" 
			},
			{
				"x": 2.2399441538,
				"y": -3.1439718679,
				"z": -0.6415044085,
				"element": "Cl" 
			},
			{
				"x": -1.2111981228,
				"y": 1.0919407428,
				"z": -2.9969914957,
				"element": "C" 
			},
			{
				"x": -1.1458839805,
				"y": 2.4427823764,
				"z": -3.1354789185,
				"element": "O" 
			},
			{
				"x": -1.6320787917,
				"y": 0.4082875505,
				"z": -3.8997835,
				"element": "O" 
			},
			{
				"x": 1.1034921234,
				"y": -0.5584452326,
				"z": 2.6577650389,
				"element": "H" 
			},
			{
				"x": 1.353880964,
				"y": -2.0774415227,
				"z": 1.8162879975,
				"element": "H" 
			},
			{
				"x": -0.2071065938,
				"y": -1.74290829,
				"z": 2.5759017821,
				"element": "H" 
			},
			{
				"x": -0.6045776358,
				"y": 0.9518643784,
				"z": 2.8321788474,
				"element": "H" 
			},
			{
				"x": -1.0313465057,
				"y": 2.3537659999,
				"z": 1.8353670274,
				"element": "H" 
			},
			{
				"x": -1.0587005571,
				"y": 2.2935161091,
				"z": -0.4832927262,
				"element": "H" 
			},
			{
				"x": -0.4341216271,
				"y": -1.3943293904,
				"z": -2.5704395515,
				"element": "H" 
			},
			{
				"x": -0.0022376482,
				"y": -3.363542033,
				"z": -1.3776518821,
				"element": "H" 
			},
			{
				"x": 0.1227948974,
				"y": -3.4110369204,
				"z": 0.3914166278,
				"element": "H" 
			},
			{
				"x": -0.6217504243,
				"y": 2.8291986972,
				"z": -2.4200574223,
				"element": "H" 
			}
		],
		 "valence_orbital": [ 
			{
				"type": "occ",
				"energy": -0.30733,
				"method": "rhf"
			},
			{
				"type": "occ",
				"energy": -0.30487,
				"method": "rhf"
			},
			{
				"type": "occ",
				"energy": -0.28351,
				"method": "rhf"
			},
			{
				"type": "occ",
				"energy": -0.27708,
				"method": "rhf"
			},
			{
				"type": "occ",
				"energy": -0.26909,
				"method": "rhf"
			},
			{
				"type": "unocc",
				"energy": -0.06522,
				"method": "rhf"
			},
			{
				"type": "unocc",
				"energy": -0.05503,
				"method": "rhf"
			},
			{
				"type": "unocc",
				"energy": -0.00652,
				"method": "rhf"
			},
			{
				"type": "unocc",
				"energy": 0.03444,
				"method": "rhf"
			},
			{
				"type": "unocc",
				"energy": 0.04492,
				"method": "rhf"
			}
		],
		"cosmo_sigma_profile": { 
			"-0.025": 0.0,
			"-0.024": 0.0,
			"-0.023": 0.0,
			"-0.022": 0.0,
			"-0.021": 0.0,
			"-0.02": 0.0,
			"-0.019": 0.30629044054,
			"-0.018": 0.79451161573,
			"-0.017": 1.2752804532,
			"-0.016": 1.21650125083,
			"-0.015": 0.660952624101,
			"-0.014": 0.844727026119,
			"-0.013": 1.28698146628,
			"-0.012": 1.14502834151,
			"-0.011": 1.37389907155,
			"-0.01": 1.89077713977,
			"-0.009": 3.79484332858,
			"-0.008": 8.97962130153,
			"-0.007": 11.3190371552,
			"-0.006": 12.3380190739,
			"-0.005": 16.6480724891,
			"-0.004": 13.1206392208,
			"-0.003": 13.3836072351,
			"-0.002": 10.8178703128,
			"-0.001": 12.9301362832,
			"0.0": 14.8185937902,
			"0.001": 18.1948071173,
			"0.002": 17.7434381961,
			"0.003": 11.9717900996,
			"0.004": 11.7598021698,
			"0.005": 15.582494612,
			"0.006": 19.131309626,
			"0.007": 7.59472862018,
			"0.008": 2.50940017564,
			"0.009": 3.64759887727,
			"0.01": 4.58934127995,
			"0.011": 5.19135050574,
			"0.012": 4.66083773725,
			"0.013": 1.28835078483,
			"0.014": 0.0153821573376,
			"0.015": 0.0,
			"0.016": 0.0,
			"0.017": 0.0,
			"0.018": 0.0,
			"0.019": 0.0,
			"0.02": 0.0,
			"0.021": 0.0,
			"0.022": 0.0,
			"0.023": 0.0,
			"0.024": 0.0,
			"0.0": 0.0
		}
	}
}
