{
	 "smiles": "NC1=C(N=CN=C1)C1=CC=CC=C1", 
	 "Tm": 389.15, 
	 "num_atms": 22, 
	 "gaussian": { 
		 "optdone": 1, 
		 "sigma_profile": "yes", 
		 "theory": "DFT", 
		 "functional": "B3LYP", 
		 "basiset": "6-31G**", 
		 "properties": { 
			 "R2extent": 2878.592, 
			 "electric_dipole_moment_norm": 3.97697836806, 
			 "electric_quadrupole_moment_norm": 17.0666039689, 
			 "total_energy": -550.740079075, 
			 "HOMO_LUMO_gap": 0.16902, 
			 "cosmo_polarized_energy": -13.13, 
			 "cosmo_cavitation_energy": 25.96, 
			 "cosmo_dispersion_energy": -19.36, 
			 "cosmo_repulsion_energy": 1.52, 
			 "cosmo_total_nonelectrostatic_energy": 8.12, 
			 "SMD_solvation_energy": 1.79 
		},
		"coords": [
			{
				"x": 3.1790673463,
				"y": 0.9340270415,
				"z": 0.3599064003,
				"element": "N" 
			},
			{
				"x": 2.0672160119,
				"y": 1.7292167166,
				"z": 0.1571727441,
				"element": "C" 
			},
			{
				"x": 0.8154213367,
				"y": 1.2420060869,
				"z": -0.2977884685,
				"element": "C" 
			},
			{
				"x": -0.2594049203,
				"y": 2.0467973579,
				"z": -0.320274845,
				"element": "N" 
			},
			{
				"x": -0.1031918292,
				"y": 3.3197221673,
				"z": 0.038432414,
				"element": "C" 
			},
			{
				"x": 1.0418559907,
				"y": 3.8979786382,
				"z": 0.4198667578,
				"element": "N" 
			},
			{
				"x": 2.1030478465,
				"y": 3.0976325163,
				"z": 0.4815190435,
				"element": "C" 
			},
			{
				"x": 0.59847231,
				"y": -0.1636409155,
				"z": -0.7388801308,
				"element": "C" 
			},
			{
				"x": 1.4896057419,
				"y": -0.8203420793,
				"z": -1.6045012429,
				"element": "C" 
			},
			{
				"x": 1.2434853015,
				"y": -2.1292383133,
				"z": -2.0221278219,
				"element": "C" 
			},
			{
				"x": 0.1036639372,
				"y": -2.8024610728,
				"z": -1.5809853095,
				"element": "C" 
			},
			{
				"x": -0.797975201,
				"y": -2.1524161914,
				"z": -0.7342172983,
				"element": "C" 
			},
			{
				"x": -0.5571022067,
				"y": -0.8434749829,
				"z": -0.3225745168,
				"element": "C" 
			},
			{
				"x": 4.0777990864,
				"y": 1.3896783072,
				"z": 0.3987454915,
				"element": "H" 
			},
			{
				"x": 3.1824724739,
				"y": 0.0065453713,
				"z": -0.0310714985,
				"element": "H" 
			},
			{
				"x": -0.9883662038,
				"y": 3.9507583213,
				"z": 0.0097502777,
				"element": "H" 
			},
			{
				"x": 3.0404692146,
				"y": 3.5456269732,
				"z": 0.8148837472,
				"element": "H" 
			},
			{
				"x": 2.3567992021,
				"y": -0.2917902427,
				"z": -1.9918967346,
				"element": "H" 
			},
			{
				"x": 1.9365824019,
				"y": -2.6168223266,
				"z": -2.7017931855,
				"element": "H" 
			},
			{
				"x": -0.0862077582,
				"y": -3.8225276422,
				"z": -1.9019947011,
				"element": "H" 
			},
			{
				"x": -1.6930252299,
				"y": -2.6667274647,
				"z": -0.3959836759,
				"element": "H" 
			},
			{
				"x": -1.2612848524,
				"y": -0.3264482661,
				"z": 0.3205125531,
				"element": "H" 
			}
		],
		 "valence_orbital": [ 
			{
				"type": "occ",
				"energy": -0.29493,
				"method": "rhf"
			},
			{
				"type": "occ",
				"energy": -0.25954,
				"method": "rhf"
			},
			{
				"type": "occ",
				"energy": -0.25655,
				"method": "rhf"
			},
			{
				"type": "occ",
				"energy": -0.24071,
				"method": "rhf"
			},
			{
				"type": "occ",
				"energy": -0.21423,
				"method": "rhf"
			},
			{
				"type": "unocc",
				"energy": -0.04521,
				"method": "rhf"
			},
			{
				"type": "unocc",
				"energy": -0.01137,
				"method": "rhf"
			},
			{
				"type": "unocc",
				"energy": -0.00697,
				"method": "rhf"
			},
			{
				"type": "unocc",
				"energy": 0.01488,
				"method": "rhf"
			},
			{
				"type": "unocc",
				"energy": 0.07746,
				"method": "rhf"
			}
		],
		"cosmo_sigma_profile": { 
			"-0.025": 0.0,
			"-0.024": 0.0,
			"-0.023": 0.0,
			"-0.022": 0.0,
			"-0.021": 0.0,
			"-0.02": 0.0,
			"-0.019": 0.0,
			"-0.018": 0.0,
			"-0.017": 0.0,
			"-0.016": 0.0,
			"-0.015": 0.0,
			"-0.014": 0.557654174775,
			"-0.013": 1.54344487413,
			"-0.012": 1.92769915122,
			"-0.011": 2.90110613794,
			"-0.01": 2.61974525741,
			"-0.009": 2.26852940596,
			"-0.008": 3.6789865167,
			"-0.007": 4.71334339454,
			"-0.006": 11.3665508963,
			"-0.005": 14.7261638678,
			"-0.004": 14.5985075345,
			"-0.003": 12.1813006718,
			"-0.002": 11.7403310133,
			"-0.001": 10.8928167843,
			"0.0": 16.2437848967,
			"0.001": 15.9797338926,
			"0.002": 14.6185604919,
			"0.003": 12.7643785453,
			"0.004": 13.0570264378,
			"0.005": 13.0817130638,
			"0.006": 4.17995941035,
			"0.007": 4.47711897425,
			"0.008": 3.14086259403,
			"0.009": 2.02910969929,
			"0.01": 2.81348033318,
			"0.011": 3.22831462563,
			"0.012": 1.8968627701,
			"0.013": 1.40197256129,
			"0.014": 1.57122064248,
			"0.015": 1.46467321263,
			"0.016": 0.702310854998,
			"0.017": 0.0,
			"0.018": 0.0,
			"0.019": 0.0,
			"0.02": 0.0,
			"0.021": 0.0,
			"0.022": 0.0,
			"0.023": 0.0,
			"0.024": 0.0,
			"0.025": 0.0
		}
	}
}
