{
	 "smiles": "NC1=C(Cl)C=C(Cl)C=C1", 
	 "Tm": 335.35, 
	 "num_atms": 14, 
	 "gaussian": { 
		 "optdone": 1, 
		 "sigma_profile": "yes", 
		 "theory": "DFT", 
		 "functional": "B3LYP", 
		 "basiset": "6-31G**", 
		 "properties": { 
			 "R2extent": 2656.5289, 
			 "electric_dipole_moment_norm": 3.22037407299, 
			 "electric_quadrupole_moment_norm": 7.88725060525, 
			 "total_energy": -1206.79247696, 
			 "HOMO_LUMO_gap": 0.19332, 
			 "cosmo_polarized_energy": -7.71, 
			 "cosmo_cavitation_energy": 21.52, 
			 "cosmo_dispersion_energy": -16.54, 
			 "cosmo_repulsion_energy": 1.36, 
			 "cosmo_total_nonelectrostatic_energy": 6.34, 
			 "SMD_solvation_energy": 3.09 
		},
		"coords": [
			{
				"x": -0.3329776317,
				"y": -1.6782687501,
				"z": -0.1106826079,
				"element": "N" 
			},
			{
				"x": -0.6326685773,
				"y": -0.5610997707,
				"z": 0.6503681807,
				"element": "C" 
			},
			{
				"x": -0.8312264965,
				"y": 0.7070863569,
				"z": 0.0699258284,
				"element": "C" 
			},
			{
				"x": -0.7779246129,
				"y": 0.8634083141,
				"z": -1.6848737677,
				"element": "Cl" 
			},
			{
				"x": -1.0762058174,
				"y": 1.8441798651,
				"z": 0.8344335091,
				"element": "C" 
			},
			{
				"x": -1.1297844884,
				"y": 1.7288367646,
				"z": 2.2209818022,
				"element": "C" 
			},
			{
				"x": -1.4400958538,
				"y": 3.1576522514,
				"z": 3.1972062809,
				"element": "Cl" 
			},
			{
				"x": -0.9418196953,
				"y": 0.4912723517,
				"z": 2.8357480398,
				"element": "C" 
			},
			{
				"x": -0.6976985651,
				"y": -0.6325805828,
				"z": 2.0549396164,
				"element": "C" 
			},
			{
				"x": -0.5371973101,
				"y": -2.5693785533,
				"z": 0.3169559192,
				"element": "H" 
			},
			{
				"x": -0.5839533035,
				"y": -1.6296185314,
				"z": -1.0878449966,
				"element": "H" 
			},
			{
				"x": -1.2256426569,
				"y": 2.8012058285,
				"z": 0.3496802423,
				"element": "H" 
			},
			{
				"x": -0.9865740539,
				"y": 0.407288781,
				"z": 3.9157437618,
				"element": "H" 
			},
			{
				"x": -0.5449309372,
				"y": -1.594884325,
				"z": 2.5361181912,
				"element": "H" 
			}
		],
		 "valence_orbital": [ 
			{
				"type": "occ",
				"energy": -0.32522,
				"method": "rhf"
			},
			{
				"type": "occ",
				"energy": -0.31131,
				"method": "rhf"
			},
			{
				"type": "occ",
				"energy": -0.29962,
				"method": "rhf"
			},
			{
				"type": "occ",
				"energy": -0.25848,
				"method": "rhf"
			},
			{
				"type": "occ",
				"energy": -0.21298,
				"method": "rhf"
			},
			{
				"type": "unocc",
				"energy": -0.01966,
				"method": "rhf"
			},
			{
				"type": "unocc",
				"energy": -0.00236,
				"method": "rhf"
			},
			{
				"type": "unocc",
				"energy": 0.00913,
				"method": "rhf"
			},
			{
				"type": "unocc",
				"energy": 0.05251,
				"method": "rhf"
			},
			{
				"type": "unocc",
				"energy": 0.07809,
				"method": "rhf"
			}
		],
		"cosmo_sigma_profile": { 
			"-0.025": 0.0,
			"-0.024": 0.0,
			"-0.023": 0.0,
			"-0.022": 0.0,
			"-0.021": 0.0,
			"-0.02": 0.0,
			"-0.019": 0.0,
			"-0.018": 0.0,
			"-0.017": 0.0,
			"-0.016": 0.0,
			"-0.015": 0.0,
			"-0.014": 0.275419003377,
			"-0.013": 1.43188453309,
			"-0.012": 1.96037487696,
			"-0.011": 2.5777967091,
			"-0.01": 2.76281789008,
			"-0.009": 2.63357883243,
			"-0.008": 3.70168074325,
			"-0.007": 6.71631622057,
			"-0.006": 5.89224398009,
			"-0.005": 6.39272479082,
			"-0.004": 6.31557503099,
			"-0.003": 5.69772928381,
			"-0.002": 9.06971546366,
			"-0.001": 8.8371551378,
			"0.0": 11.827097046,
			"0.001": 13.9762203936,
			"0.002": 20.6699555675,
			"0.003": 24.6330574736,
			"0.004": 22.2441299689,
			"0.005": 12.9562250067,
			"0.006": 2.06173408249,
			"0.007": 0.814717879527,
			"0.008": 0.562040169392,
			"0.009": 0.547841055633,
			"0.01": 0.776366295953,
			"0.011": 0.576784310863,
			"0.012": 0.597913650321,
			"0.013": 0.223749439388,
			"0.014": 0.0,
			"0.015": 0.0,
			"0.016": 0.0,
			"0.017": 0.0,
			"0.018": 0.0,
			"0.019": 0.0,
			"0.02": 0.0,
			"0.021": 0.0,
			"0.022": 0.0,
			"0.023": 0.0,
			"0.024": 0.0,
			"0.025": 0.0
		}
	}
}
