{
	 "smiles": "O=C1C2CCC1C1CCC2O1", 
	 "Tm": 354.15, 
	 "num_atms": 23, 
	 "gaussian": { 
		 "optdone": 1, 
		 "sigma_profile": "yes", 
		 "theory": "DFT", 
		 "functional": "B3LYP", 
		 "basiset": "6-31G**", 
		 "properties": { 
			 "R2extent": 1610.4374, 
			 "electric_dipole_moment_norm": 4.02514544582, 
			 "electric_quadrupole_moment_norm": 13.933876672, 
			 "total_energy": -500.601422159, 
			 "HOMO_LUMO_gap": 0.22469, 
			 "cosmo_polarized_energy": -9.91, 
			 "cosmo_cavitation_energy": 22.46, 
			 "cosmo_dispersion_energy": -17.91, 
			 "cosmo_repulsion_energy": 1.43, 
			 "cosmo_total_nonelectrostatic_energy": 5.98, 
			 "SMD_solvation_energy": 3.44 
		},
		"coords": [
			{
				"x": 0.8262661565,
				"y": -3.3944756996,
				"z": -0.6297658963,
				"element": "O" 
			},
			{
				"x": 0.5400420306,
				"y": -2.2544841239,
				"z": -0.3573967738,
				"element": "C" 
			},
			{
				"x": 0.9575354908,
				"y": -0.95630376,
				"z": -1.0678807475,
				"element": "C" 
			},
			{
				"x": -0.4488355922,
				"y": -0.415448306,
				"z": -1.4277994066,
				"element": "C" 
			},
			{
				"x": -1.3930008333,
				"y": -0.9267570142,
				"z": -0.2802147881,
				"element": "C" 
			},
			{
				"x": -0.4746540043,
				"y": -1.7318252976,
				"z": 0.6729036269,
				"element": "C" 
			},
			{
				"x": 0.4117316724,
				"y": -0.8937672737,
				"z": 1.6767925366,
				"element": "C" 
			},
			{
				"x": 0.1861797401,
				"y": 0.6340064265,
				"z": 1.7063726065,
				"element": "C" 
			},
			{
				"x": 1.1232302474,
				"y": 1.1414670588,
				"z": 0.567280219,
				"element": "C" 
			},
			{
				"x": 1.7572930666,
				"y": -0.1651617683,
				"z": 0.0413586052,
				"element": "C" 
			},
			{
				"x": 1.7768309819,
				"y": -0.9881801422,
				"z": 1.2243108702,
				"element": "O" 
			},
			{
				"x": 1.5835892976,
				"y": -1.1416840961,
				"z": -1.9421676805,
				"element": "H" 
			},
			{
				"x": -0.4775028851,
				"y": 0.6701133031,
				"z": -1.5416594895,
				"element": "H" 
			},
			{
				"x": -0.7579555671,
				"y": -0.8387873821,
				"z": -2.3881559605,
				"element": "H" 
			},
			{
				"x": -1.9252216115,
				"y": -0.1138601681,
				"z": 0.2179728158,
				"element": "H" 
			},
			{
				"x": -2.1560874061,
				"y": -1.595938853,
				"z": -0.6888057698,
				"element": "H" 
			},
			{
				"x": -0.9952009433,
				"y": -2.5380721993,
				"z": 1.1922090764,
				"element": "H" 
			},
			{
				"x": 0.3744140371,
				"y": -1.35043439,
				"z": 2.6674629994,
				"element": "H" 
			},
			{
				"x": -0.8554934267,
				"y": 0.9323677766,
				"z": 1.5757358521,
				"element": "H" 
			},
			{
				"x": 0.5147551936,
				"y": 1.0229967693,
				"z": 2.6734858159,
				"element": "H" 
			},
			{
				"x": 1.9110700989,
				"y": 1.7792825507,
				"z": 0.976043966,
				"element": "H" 
			},
			{
				"x": 0.60215776,
				"y": 1.7217080426,
				"z": -0.196242509,
				"element": "H" 
			},
			{
				"x": 2.7946564961,
				"y": -0.0398614534,
				"z": -0.2741399684,
				"element": "H" 
			}
		],
		 "valence_orbital": [ 
			{
				"type": "occ",
				"energy": -0.33356,
				"method": "rhf"
			},
			{
				"type": "occ",
				"energy": -0.32807,
				"method": "rhf"
			},
			{
				"type": "occ",
				"energy": -0.31539,
				"method": "rhf"
			},
			{
				"type": "occ",
				"energy": -0.26369,
				"method": "rhf"
			},
			{
				"type": "occ",
				"energy": -0.22868,
				"method": "rhf"
			},
			{
				"type": "unocc",
				"energy": -0.00399,
				"method": "rhf"
			},
			{
				"type": "unocc",
				"energy": 0.06155,
				"method": "rhf"
			},
			{
				"type": "unocc",
				"energy": 0.07931,
				"method": "rhf"
			},
			{
				"type": "unocc",
				"energy": 0.10895,
				"method": "rhf"
			},
			{
				"type": "unocc",
				"energy": 0.11754,
				"method": "rhf"
			}
		],
		"cosmo_sigma_profile": { 
			"-0.025": 0.0,
			"-0.024": 0.0,
			"-0.023": 0.0,
			"-0.022": 0.0,
			"-0.021": 0.0,
			"-0.02": 0.0,
			"-0.019": 0.0,
			"-0.018": 0.0,
			"-0.017": 0.0,
			"-0.016": 0.0,
			"-0.015": 0.0,
			"-0.014": 0.0,
			"-0.013": 0.0,
			"-0.012": 0.0,
			"-0.011": 0.0,
			"-0.01": 0.0,
			"-0.009": 0.0,
			"-0.008": 0.0,
			"-0.007": 0.0,
			"-0.006": 3.52008793103,
			"-0.005": 15.0387045244,
			"-0.004": 26.0254565771,
			"-0.003": 29.0094420842,
			"-0.002": 21.7448026803,
			"-0.001": 17.6556423268,
			"0.0": 17.2917531422,
			"0.001": 4.26183889239,
			"0.002": 2.3828574888,
			"0.003": 2.54012941455,
			"0.004": 1.6665908196,
			"0.005": 2.52017634175,
			"0.006": 2.813304906,
			"0.007": 3.2498255472,
			"0.008": 2.6233348766,
			"0.009": 3.14514771517,
			"0.01": 4.23271704324,
			"0.011": 4.84031513472,
			"0.012": 6.40285184158,
			"0.013": 3.69357649287,
			"0.014": 0.143660676513,
			"0.015": 0.0,
			"0.016": 0.0,
			"0.017": 0.0,
			"0.018": 0.0,
			"0.019": 0.0,
			"0.02": 0.0,
			"0.021": 0.0,
			"0.022": 0.0,
			"0.023": 0.0,
			"0.024": 0.0,
			"0.025": 0.0
		}
	}
}
