{
	 "smiles": "CC1=CC(C(O)=O)=C(C)N1C1=CC=C(C=C1)C#N", 
	 "Tm": 523.15, 
	 "num_atms": 30, 
	 "gaussian": { 
		 "optdone": 1, 
		 "sigma_profile": "yes", 
		 "theory": "DFT", 
		 "functional": "B3LYP", 
		 "basiset": "6-31G**", 
		 "properties": { 
			 "R2extent": 5841.5214, 
			 "electric_dipole_moment_norm": 4.3249772878, 
			 "electric_quadrupole_moment_norm": 36.9803823068, 
			 "total_energy": -800.670928378, 
			 "HOMO_LUMO_gap": 0.14887, 
			 "cosmo_polarized_energy": -21.66, 
			 "cosmo_cavitation_energy": 35.6, 
			 "cosmo_dispersion_energy": -24.15, 
			 "cosmo_repulsion_energy": 1.87, 
			 "cosmo_total_nonelectrostatic_energy": 13.31, 
			 "SMD_solvation_energy": 8.74 
		},
		"coords": [
			{
				"x": 2.2970211169,
				"y": -0.6047475373,
				"z": 2.2816182531,
				"element": "C" 
			},
			{
				"x": 2.0386195264,
				"y": 0.272525134,
				"z": 1.0989058714,
				"element": "C" 
			},
			{
				"x": 2.874613126,
				"y": 1.1293454052,
				"z": 0.4320466787,
				"element": "C" 
			},
			{
				"x": 2.1207443873,
				"y": 1.7883092439,
				"z": -0.5962892186,
				"element": "C" 
			},
			{
				"x": 2.6030979934,
				"y": 2.7796439828,
				"z": -1.5757170252,
				"element": "C" 
			},
			{
				"x": 3.9584472028,
				"y": 2.9149626553,
				"z": -1.6641044146,
				"element": "O" 
			},
			{
				"x": 1.8969753887,
				"y": 3.4651566325,
				"z": -2.2860025881,
				"element": "O" 
			},
			{
				"x": 0.815963209,
				"y": 1.3142429788,
				"z": -0.5245757942,
				"element": "C" 
			},
			{
				"x": -0.3744585892,
				"y": 1.6201768117,
				"z": -1.3747557896,
				"element": "C" 
			},
			{
				"x": 0.7773391405,
				"y": 0.3884625407,
				"z": 0.5044731466,
				"element": "N" 
			},
			{
				"x": -0.3801802654,
				"y": -0.346457205,
				"z": 0.9019896104,
				"element": "C" 
			},
			{
				"x": -1.4385211192,
				"y": 0.3083734203,
				"z": 1.542256912,
				"element": "C" 
			},
			{
				"x": -2.5671997561,
				"y": -0.4058682969,
				"z": 1.9310881506,
				"element": "C" 
			},
			{
				"x": -2.6393682281,
				"y": -1.7881303615,
				"z": 1.6895511796,
				"element": "C" 
			},
			{
				"x": -1.5740731782,
				"y": -2.4440730038,
				"z": 1.0501450011,
				"element": "C" 
			},
			{
				"x": -0.4524625047,
				"y": -1.7222169162,
				"z": 0.6548277846,
				"element": "C" 
			},
			{
				"x": -3.7983620804,
				"y": -2.5290692559,
				"z": 2.0958818515,
				"element": "C" 
			},
			{
				"x": -4.7372320855,
				"y": -3.1306506875,
				"z": 2.4264014765,
				"element": "N" 
			},
			{
				"x": 1.6326643274,
				"y": -0.3703678228,
				"z": 3.1217137535,
				"element": "H" 
			},
			{
				"x": 3.3257639336,
				"y": -0.4590496451,
				"z": 2.6188426331,
				"element": "H" 
			},
			{
				"x": 2.1693616179,
				"y": -1.6699196344,
				"z": 2.0566836652,
				"element": "H" 
			},
			{
				"x": 3.9091739476,
				"y": 1.2982928938,
				"z": 0.7036049263,
				"element": "H" 
			},
			{
				"x": 4.3926299998,
				"y": 2.2305762855,
				"z": -1.1371524232,
				"element": "H" 
			},
			{
				"x": -1.1604280346,
				"y": 2.1346069906,
				"z": -0.8096377047,
				"element": "H" 
			},
			{
				"x": -0.0626093265,
				"y": 2.2778039579,
				"z": -2.1851487494,
				"element": "H" 
			},
			{
				"x": -0.8170970348,
				"y": 0.7078293254,
				"z": -1.7908030601,
				"element": "H" 
			},
			{
				"x": -1.3662384887,
				"y": 1.3725661356,
				"z": 1.739661638,
				"element": "H" 
			},
			{
				"x": -3.3899443707,
				"y": 0.0963843656,
				"z": 2.4281590656,
				"element": "H" 
			},
			{
				"x": -1.6359699918,
				"y": -3.5100262105,
				"z": 0.8599297916,
				"element": "H" 
			},
			{
				"x": 0.3669301365,
				"y": -2.2161821829,
				"z": 0.1434053784,
				"element": "H" 
			}
		],
		 "valence_orbital": [ 
			{
				"type": "occ",
				"energy": -0.29723,
				"method": "rhf"
			},
			{
				"type": "occ",
				"energy": -0.28861,
				"method": "rhf"
			},
			{
				"type": "occ",
				"energy": -0.26347,
				"method": "rhf"
			},
			{
				"type": "occ",
				"energy": -0.2582,
				"method": "rhf"
			},
			{
				"type": "occ",
				"energy": -0.22288,
				"method": "rhf"
			},
			{
				"type": "unocc",
				"energy": -0.07401,
				"method": "rhf"
			},
			{
				"type": "unocc",
				"energy": -0.04702,
				"method": "rhf"
			},
			{
				"type": "unocc",
				"energy": -0.01632,
				"method": "rhf"
			},
			{
				"type": "unocc",
				"energy": 0.01922,
				"method": "rhf"
			},
			{
				"type": "unocc",
				"energy": 0.02331,
				"method": "rhf"
			}
		],
		"cosmo_sigma_profile": { 
			"-0.025": 0.0,
			"-0.024": 0.0,
			"-0.023": 0.0,
			"-0.022": 0.0,
			"-0.021": 0.0,
			"-0.02": 0.0,
			"-0.019": 0.0,
			"-0.018": 0.0,
			"-0.017": 0.768457828956,
			"-0.016": 0.919977970313,
			"-0.015": 1.08167298074,
			"-0.014": 0.770493542022,
			"-0.013": 0.93943110128,
			"-0.012": 0.796618452966,
			"-0.011": 1.04040266427,
			"-0.01": 1.50925334035,
			"-0.009": 2.07594514789,
			"-0.008": 9.11563937867,
			"-0.007": 12.0331763739,
			"-0.006": 12.663003317,
			"-0.005": 16.8238641191,
			"-0.004": 19.2099185803,
			"-0.003": 20.67894609,
			"-0.002": 22.6186299157,
			"-0.001": 27.9706251994,
			"0.0": 26.6841324435,
			"0.001": 19.9965522105,
			"0.002": 9.90735658628,
			"0.003": 8.19755686855,
			"0.004": 8.64454957234,
			"0.005": 8.44626000865,
			"0.006": 7.08176808455,
			"0.007": 5.34724066452,
			"0.008": 6.54717181068,
			"0.009": 6.0591770338,
			"0.01": 6.48234561258,
			"0.011": 7.32576763412,
			"0.012": 7.43736128556,
			"0.013": 4.53513968675,
			"0.014": 1.6990745722,
			"0.015": 0.0805849376347,
			"0.016": 0.0,
			"0.017": 0.0,
			"0.018": 0.0,
			"0.019": 0.0,
			"0.02": 0.0,
			"0.021": 0.0,
			"0.022": 0.0,
			"0.023": 0.0,
			"0.024": 0.0,
			"0.025": 0.0
		}
	}
}
