{
	 "smiles": "COC1=CC(=CC=C1)C(N)=O", 
	 "Tm": 407.15, 
	 "num_atms": 20, 
	 "gaussian": { 
		 "optdone": 1, 
		 "sigma_profile": "yes", 
		 "theory": "DFT", 
		 "functional": "B3LYP", 
		 "basiset": "6-31G**", 
		 "properties": { 
			 "R2extent": 2127.5015, 
			 "electric_dipole_moment_norm": 4.26946825846, 
			 "electric_quadrupole_moment_norm": 15.2540523937, 
			 "total_energy": -515.48047102, 
			 "HOMO_LUMO_gap": 0.19322, 
			 "cosmo_polarized_energy": -14.97, 
			 "cosmo_cavitation_energy": 24.11, 
			 "cosmo_dispersion_energy": -17.98, 
			 "cosmo_repulsion_energy": 1.45, 
			 "cosmo_total_nonelectrostatic_energy": 7.58, 
			 "SMD_solvation_energy": 5.75 
		},
		"coords": [
			{
				"x": 0.2224232095,
				"y": -3.0301067937,
				"z": 1.943631133,
				"element": "C" 
			},
			{
				"x": -0.2336808053,
				"y": -2.398189511,
				"z": 0.7583627283,
				"element": "O" 
			},
			{
				"x": 0.2132150308,
				"y": -1.139854026,
				"z": 0.4817986025,
				"element": "C" 
			},
			{
				"x": -0.2822214797,
				"y": -0.5657767167,
				"z": -0.6953761845,
				"element": "C" 
			},
			{
				"x": 0.1179768218,
				"y": 0.7121565905,
				"z": -1.0812528373,
				"element": "C" 
			},
			{
				"x": 1.0069438504,
				"y": 1.441001146,
				"z": -0.27252814,
				"element": "C" 
			},
			{
				"x": 1.4901580265,
				"y": 0.8692064014,
				"z": 0.9001534223,
				"element": "C" 
			},
			{
				"x": 1.1076696943,
				"y": -0.4195553984,
				"z": 1.2845867492,
				"element": "C" 
			},
			{
				"x": -0.4567567453,
				"y": 1.2482081191,
				"z": -2.3641842515,
				"element": "C" 
			},
			{
				"x": 0.2061568351,
				"y": 2.3163106625,
				"z": -2.9234694076,
				"element": "N" 
			},
			{
				"x": -1.4654898556,
				"y": 0.7780694396,
				"z": -2.874797623,
				"element": "O" 
			},
			{
				"x": -0.066856819,
				"y": -2.467458436,
				"z": 2.8407588172,
				"element": "H" 
			},
			{
				"x": -0.2568502564,
				"y": -4.009916251,
				"z": 1.9657162008,
				"element": "H" 
			},
			{
				"x": 1.3122693589,
				"y": -3.1625555767,
				"z": 1.939776818,
				"element": "H" 
			},
			{
				"x": -0.9835071895,
				"y": -1.1161844992,
				"z": -1.3119448987,
				"element": "H" 
			},
			{
				"x": 1.2864762522,
				"y": 2.4572378106,
				"z": -0.5310256712,
				"element": "H" 
			},
			{
				"x": 2.1694973738,
				"y": 1.4304282042,
				"z": 1.5354023837,
				"element": "H" 
			},
			{
				"x": 1.5010246823,
				"y": -0.8423822203,
				"z": 2.2013427149,
				"element": "H" 
			},
			{
				"x": -0.1109499252,
				"y": 2.5840142391,
				"z": -3.8441586065,
				"element": "H" 
			},
			{
				"x": 1.1779019404,
				"y": 2.4785468157,
				"z": -2.7103919497,
				"element": "H" 
			}
		],
		 "valence_orbital": [ 
			{
				"type": "occ",
				"energy": -0.32203,
				"method": "rhf"
			},
			{
				"type": "occ",
				"energy": -0.26894,
				"method": "rhf"
			},
			{
				"type": "occ",
				"energy": -0.25711,
				"method": "rhf"
			},
			{
				"type": "occ",
				"energy": -0.24454,
				"method": "rhf"
			},
			{
				"type": "occ",
				"energy": -0.22508,
				"method": "rhf"
			},
			{
				"type": "unocc",
				"energy": -0.03186,
				"method": "rhf"
			},
			{
				"type": "unocc",
				"energy": 0.00054,
				"method": "rhf"
			},
			{
				"type": "unocc",
				"energy": 0.06536,
				"method": "rhf"
			},
			{
				"type": "unocc",
				"energy": 0.08104,
				"method": "rhf"
			},
			{
				"type": "unocc",
				"energy": 0.09756,
				"method": "rhf"
			}
		],
		"cosmo_sigma_profile": { 
			"-0.025": 0.0,
			"-0.024": 0.0,
			"-0.023": 0.0,
			"-0.022": 0.0,
			"-0.021": 0.0,
			"-0.02": 0.0,
			"-0.019": 0.0,
			"-0.018": 0.0,
			"-0.017": 0.0,
			"-0.016": 0.0,
			"-0.015": 0.0534922244943,
			"-0.014": 1.19062775362,
			"-0.013": 2.36263030127,
			"-0.012": 2.46241276988,
			"-0.011": 2.35388473246,
			"-0.01": 2.14937656421,
			"-0.009": 2.61346420404,
			"-0.008": 2.58160155737,
			"-0.007": 3.33608623565,
			"-0.006": 11.1509610305,
			"-0.005": 16.9723889923,
			"-0.004": 15.0332114674,
			"-0.003": 13.6500722581,
			"-0.002": 9.73992552622,
			"-0.001": 8.96863731759,
			"0.0": 8.75396361983,
			"0.001": 10.3004969238,
			"0.002": 11.6840945455,
			"0.003": 14.0970177609,
			"0.004": 14.5996418032,
			"0.005": 8.38721800714,
			"0.006": 3.38390390558,
			"0.007": 3.45500028455,
			"0.008": 3.64111165388,
			"0.009": 3.362560973,
			"0.01": 2.41049943318,
			"0.011": 2.00445289693,
			"0.012": 1.99960359214,
			"0.013": 4.51584734184,
			"0.014": 4.15303056492,
			"0.015": 0.267849959528,
			"0.016": 0.0,
			"0.017": 0.0,
			"0.018": 0.0,
			"0.019": 0.0,
			"0.02": 0.0,
			"0.021": 0.0,
			"0.022": 0.0,
			"0.023": 0.0,
			"0.024": 0.0,
			"0.025": 0.0
		}
	}
}
