{
	 "smiles": "FC1=C(CN2CCCC2=O)C=C(C=C1)C#N", 
	 "Tm": 366.15, 
	 "num_atms": 27, 
	 "gaussian": { 
		 "optdone": 1, 
		 "sigma_profile": "yes", 
		 "theory": "DFT", 
		 "functional": "B3LYP", 
		 "basiset": "6-31G**", 
		 "properties": { 
			 "R2extent": 4546.4242, 
			 "electric_dipole_moment_norm": 2.93956653267, 
			 "electric_quadrupole_moment_norm": 29.6905979399, 
			 "total_energy": -748.472711366, 
			 "HOMO_LUMO_gap": 0.18963, 
			 "cosmo_polarized_energy": -16.94, 
			 "cosmo_cavitation_energy": 32.33, 
			 "cosmo_dispersion_energy": -22.04, 
			 "cosmo_repulsion_energy": 1.72, 
			 "cosmo_total_nonelectrostatic_energy": 12.0, 
			 "SMD_solvation_energy": 7.38 
		},
		"coords": [
			{
				"x": -2.9854295626,
				"y": -0.8520892653,
				"z": -0.1318078397,
				"element": "F" 
			},
			{
				"x": -1.8707070846,
				"y": -0.8637911753,
				"z": 0.6173469147,
				"element": "C" 
			},
			{
				"x": -0.6334878564,
				"y": -0.7216294148,
				"z": -0.0232484268,
				"element": "C" 
			},
			{
				"x": -0.5557456515,
				"y": -0.5512397741,
				"z": -1.52722283,
				"element": "C" 
			},
			{
				"x": -1.1228713119,
				"y": 0.701111587,
				"z": -1.9893071029,
				"element": "N" 
			},
			{
				"x": -0.5372709142,
				"y": 2.003881563,
				"z": -1.6972509581,
				"element": "C" 
			},
			{
				"x": -1.6070982708,
				"y": 2.990188868,
				"z": -2.2155847393,
				"element": "C" 
			},
			{
				"x": -2.3370730295,
				"y": 2.2021089361,
				"z": -3.3155360732,
				"element": "C" 
			},
			{
				"x": -2.1118264073,
				"y": 0.7349313536,
				"z": -2.9494812758,
				"element": "C" 
			},
			{
				"x": -2.6654285031,
				"y": -0.2417659386,
				"z": -3.4261644821,
				"element": "O" 
			},
			{
				"x": 0.50586902,
				"y": -0.7453233463,
				"z": 0.7796764472,
				"element": "C" 
			},
			{
				"x": 0.4121172832,
				"y": -0.9059408019,
				"z": 2.1738777619,
				"element": "C" 
			},
			{
				"x": -0.8477685916,
				"y": -1.0450375735,
				"z": 2.7782380236,
				"element": "C" 
			},
			{
				"x": -1.9961558857,
				"y": -1.0242625191,
				"z": 1.9926332967,
				"element": "C" 
			},
			{
				"x": 1.601592193,
				"y": -0.923197689,
				"z": 2.9732349739,
				"element": "C" 
			},
			{
				"x": 2.5681521168,
				"y": -0.9344375912,
				"z": 3.6206504241,
				"element": "N" 
			},
			{
				"x": 0.4940824658,
				"y": -0.6329308287,
				"z": -1.8406614216,
				"element": "H" 
			},
			{
				"x": -1.1244781712,
				"y": -1.3356853861,
				"z": -2.0364717689,
				"element": "H" 
			},
			{
				"x": 0.4232670725,
				"y": 2.1269637219,
				"z": -2.2222603099,
				"element": "H" 
			},
			{
				"x": -0.344766939,
				"y": 2.1172070434,
				"z": -0.6251956909,
				"element": "H" 
			},
			{
				"x": -1.1651911453,
				"y": 3.9252191827,
				"z": -2.567105227,
				"element": "H" 
			},
			{
				"x": -2.3013670281,
				"y": 3.2328743927,
				"z": -1.4052447644,
				"element": "H" 
			},
			{
				"x": -1.8988473469,
				"y": 2.3694980759,
				"z": -4.3070744124,
				"element": "H" 
			},
			{
				"x": -3.4051152209,
				"y": 2.4161315138,
				"z": -3.3926198634,
				"element": "H" 
			},
			{
				"x": 1.4846727731,
				"y": -0.6419728532,
				"z": 0.3211155291,
				"element": "H" 
			},
			{
				"x": -0.9205249731,
				"y": -1.1694207918,
				"z": 3.8530409922,
				"element": "H" 
			},
			{
				"x": -2.9839990309,
				"y": -1.1343912892,
				"z": 2.425822823,
				"element": "H" 
			}
		],
		 "valence_orbital": [ 
			{
				"type": "occ",
				"energy": -0.33571,
				"method": "rhf"
			},
			{
				"type": "occ",
				"energy": -0.28784,
				"method": "rhf"
			},
			{
				"type": "occ",
				"energy": -0.26533,
				"method": "rhf"
			},
			{
				"type": "occ",
				"energy": -0.25285,
				"method": "rhf"
			},
			{
				"type": "occ",
				"energy": -0.24501,
				"method": "rhf"
			},
			{
				"type": "unocc",
				"energy": -0.05538,
				"method": "rhf"
			},
			{
				"type": "unocc",
				"energy": -0.03844,
				"method": "rhf"
			},
			{
				"type": "unocc",
				"energy": 0.02466,
				"method": "rhf"
			},
			{
				"type": "unocc",
				"energy": 0.0312,
				"method": "rhf"
			},
			{
				"type": "unocc",
				"energy": 0.06644,
				"method": "rhf"
			}
		],
		"cosmo_sigma_profile": { 
			"-0.025": 0.0,
			"-0.024": 0.0,
			"-0.023": 0.0,
			"-0.022": 0.0,
			"-0.021": 0.0,
			"-0.02": 0.0,
			"-0.019": 0.0,
			"-0.018": 0.0,
			"-0.017": 0.0,
			"-0.016": 0.0,
			"-0.015": 0.0,
			"-0.014": 0.0,
			"-0.013": 0.0,
			"-0.012": 0.0,
			"-0.011": 0.0,
			"-0.01": 0.0,
			"-0.009": 1.7367195934,
			"-0.008": 7.77321311036,
			"-0.007": 7.80679240456,
			"-0.006": 9.69708297868,
			"-0.005": 16.6239231235,
			"-0.004": 28.0696391889,
			"-0.003": 30.5551064675,
			"-0.002": 24.7523433649,
			"-0.001": 25.657042757,
			"0.0": 19.1300461589,
			"0.001": 14.4287815061,
			"0.002": 7.4169471144,
			"0.003": 8.80815537804,
			"0.004": 7.20889546281,
			"0.005": 4.62302108701,
			"0.006": 4.42711695768,
			"0.007": 4.63248864304,
			"0.008": 5.26532048804,
			"0.009": 5.38339826218,
			"0.01": 5.07032216241,
			"0.011": 3.69929678604,
			"0.012": 4.60533324362,
			"0.013": 5.25015079145,
			"0.014": 4.3800255423,
			"0.015": 1.21675615026,
			"0.016": 0.0265424889208,
			"0.017": 0.0,
			"0.018": 0.0,
			"0.019": 0.0,
			"0.02": 0.0,
			"0.021": 0.0,
			"0.022": 0.0,
			"0.023": 0.0,
			"0.024": 0.0,
			"0.025": 0.0
		}
	}
}
