{
	 "smiles": "CC(C)(C)OC(=O)NC(C(N)=NO)C1=CC=CC=C1", 
	 "Tm": 451.15, 
	 "num_atms": 38, 
	 "gaussian": { 
		 "optdone": 1, 
		 "sigma_profile": "yes", 
		 "theory": "DFT", 
		 "functional": "B3LYP", 
		 "basiset": "6-31G**", 
		 "properties": { 
			 "R2extent": 6477.293, 
			 "electric_dipole_moment_norm": 2.61278108153, 
			 "electric_quadrupole_moment_norm": 15.2966605607, 
			 "total_energy": -896.740451924, 
			 "HOMO_LUMO_gap": 0.221, 
			 "cosmo_polarized_energy": -17.29, 
			 "cosmo_cavitation_energy": 40.87, 
			 "cosmo_dispersion_energy": -27.15, 
			 "cosmo_repulsion_energy": 2.14, 
			 "cosmo_total_nonelectrostatic_energy": 15.86, 
			 "SMD_solvation_energy": 7.82 
		},
		"coords": [
			{
				"x": -0.2223041129,
				"y": -0.313710431,
				"z": 4.0271670416,
				"element": "C" 
			},
			{
				"x": 1.2223659026,
				"y": -0.244324505,
				"z": 3.5248810899,
				"element": "C" 
			},
			{
				"x": 2.0704575917,
				"y": -1.3552680691,
				"z": 4.1531051571,
				"element": "C" 
			},
			{
				"x": 1.8138106905,
				"y": 1.1478906869,
				"z": 3.7689056796,
				"element": "C" 
			},
			{
				"x": 1.071392232,
				"y": -0.4817626722,
				"z": 2.0791009216,
				"element": "O" 
			},
			{
				"x": 2.1532401818,
				"y": -0.4607866842,
				"z": 1.2568566181,
				"element": "C" 
			},
			{
				"x": 3.3139336174,
				"y": -0.3344382406,
				"z": 1.6081968752,
				"element": "O" 
			},
			{
				"x": 1.7820822398,
				"y": -0.5736684981,
				"z": -0.0611399674,
				"element": "N" 
			},
			{
				"x": 0.4660942715,
				"y": -0.9952927241,
				"z": -0.5239452142,
				"element": "C" 
			},
			{
				"x": 0.3855219286,
				"y": -2.5207358547,
				"z": -0.6156792841,
				"element": "C" 
			},
			{
				"x": -0.6863652159,
				"y": -3.1094505099,
				"z": 0.0487319068,
				"element": "N" 
			},
			{
				"x": 1.1813899799,
				"y": -3.2847203452,
				"z": -1.2754983502,
				"element": "N" 
			},
			{
				"x": 2.1205263231,
				"y": -2.5170694309,
				"z": -2.0215766622,
				"element": "O" 
			},
			{
				"x": 0.0522819389,
				"y": -0.307356956,
				"z": -1.8294779669,
				"element": "C" 
			},
			{
				"x": -1.0274835868,
				"y": -0.8094616206,
				"z": -2.5681673404,
				"element": "C" 
			},
			{
				"x": -1.4563126983,
				"y": -0.1602736829,
				"z": -3.7252736552,
				"element": "C" 
			},
			{
				"x": -0.8138494652,
				"y": 1.0007082179,
				"z": -4.1606205584,
				"element": "C" 
			},
			{
				"x": 0.2569876348,
				"y": 1.5082389554,
				"z": -3.4251210533,
				"element": "C" 
			},
			{
				"x": 0.6861904567,
				"y": 0.8602327174,
				"z": -2.2647736067,
				"element": "C" 
			},
			{
				"x": -0.6578520011,
				"y": -1.2972674126,
				"z": 3.8240204669,
				"element": "H" 
			},
			{
				"x": -0.2531610616,
				"y": -0.1436051836,
				"z": 5.1073464153,
				"element": "H" 
			},
			{
				"x": -0.8396188963,
				"y": 0.4463560999,
				"z": 3.5394119165,
				"element": "H" 
			},
			{
				"x": 3.0942795284,
				"y": -1.3202747919,
				"z": 3.7813218974,
				"element": "H" 
			},
			{
				"x": 2.0816796486,
				"y": -1.2378772576,
				"z": 5.2416543646,
				"element": "H" 
			},
			{
				"x": 1.6430711639,
				"y": -2.336619841,
				"z": 3.9225489155,
				"element": "H" 
			},
			{
				"x": 2.8351251011,
				"y": 1.2084731575,
				"z": 3.392818088,
				"element": "H" 
			},
			{
				"x": 1.2058736227,
				"y": 1.9113568252,
				"z": 3.2731695205,
				"element": "H" 
			},
			{
				"x": 1.8182284158,
				"y": 1.3613770407,
				"z": 4.8427085019,
				"element": "H" 
			},
			{
				"x": 2.5504935785,
				"y": -0.8285621601,
				"z": -0.6692437633,
				"element": "H" 
			},
			{
				"x": -0.242497323,
				"y": -0.6823483036,
				"z": 0.2464979789,
				"element": "H" 
			},
			{
				"x": -0.6375220547,
				"y": -4.1223993391,
				"z": 0.0554859334,
				"element": "H" 
			},
			{
				"x": -0.8597859773,
				"y": -2.7258417731,
				"z": 0.9703332556,
				"element": "H" 
			},
			{
				"x": 2.6534592624,
				"y": -3.2066472659,
				"z": -2.4358492956,
				"element": "H" 
			},
			{
				"x": -1.535481883,
				"y": -1.7101978243,
				"z": -2.2358453337,
				"element": "H" 
			},
			{
				"x": -2.2930975576,
				"y": -0.5641631678,
				"z": -4.288402704,
				"element": "H" 
			},
			{
				"x": -1.1461241053,
				"y": 1.5044085566,
				"z": -5.0638746733,
				"element": "H" 
			},
			{
				"x": 0.7634211949,
				"y": 2.4121879654,
				"z": -3.7521835395,
				"element": "H" 
			},
			{
				"x": 1.5153494334,
				"y": 1.2621943221,
				"z": -1.6923895758,
				"element": "H" 
			}
		],
		 "valence_orbital": [ 
			{
				"type": "occ",
				"energy": -0.2613,
				"method": "rhf"
			},
			{
				"type": "occ",
				"energy": -0.25346,
				"method": "rhf"
			},
			{
				"type": "occ",
				"energy": -0.24461,
				"method": "rhf"
			},
			{
				"type": "occ",
				"energy": -0.23456,
				"method": "rhf"
			},
			{
				"type": "occ",
				"energy": -0.2195,
				"method": "rhf"
			},
			{
				"type": "unocc",
				"energy": 0.0015,
				"method": "rhf"
			},
			{
				"type": "unocc",
				"energy": 0.00348,
				"method": "rhf"
			},
			{
				"type": "unocc",
				"energy": 0.02098,
				"method": "rhf"
			},
			{
				"type": "unocc",
				"energy": 0.05165,
				"method": "rhf"
			},
			{
				"type": "unocc",
				"energy": 0.05759,
				"method": "rhf"
			}
		],
		"cosmo_sigma_profile": { 
			"-0.025": 0.0,
			"-0.024": 0.0,
			"-0.023": 0.0,
			"-0.022": 0.0,
			"-0.021": 0.0,
			"-0.02": 0.0,
			"-0.019": 0.0,
			"-0.018": 0.0,
			"-0.017": 0.58721585916,
			"-0.016": 0.91397094481,
			"-0.015": 0.907919694996,
			"-0.014": 1.09285626713,
			"-0.013": 1.06455303529,
			"-0.012": 2.09645467469,
			"-0.011": 2.82145264357,
			"-0.01": 2.83613760681,
			"-0.009": 3.83252715661,
			"-0.008": 4.0086148103,
			"-0.007": 3.86427225183,
			"-0.006": 5.81341916784,
			"-0.005": 12.2353680089,
			"-0.004": 27.2487538155,
			"-0.003": 30.0088600766,
			"-0.002": 26.1412591811,
			"-0.001": 28.4532480297,
			"0.0": 35.3275353576,
			"0.001": 29.6795525333,
			"0.002": 16.8958804428,
			"0.003": 14.0216872167,
			"0.004": 13.090633724,
			"0.005": 12.5979164447,
			"0.006": 11.6418562641,
			"0.007": 6.25424667405,
			"0.008": 6.09981176962,
			"0.009": 4.45684324474,
			"0.01": 3.65793561321,
			"0.011": 3.34180636013,
			"0.012": 3.280850155,
			"0.013": 4.51927658223,
			"0.014": 1.95882234106,
			"0.015": 0.0,
			"0.016": 0.0,
			"0.017": 0.0,
			"0.018": 0.0,
			"0.019": 0.0,
			"0.02": 0.0,
			"0.021": 0.0,
			"0.022": 0.0,
			"0.023": 0.0,
			"0.024": 0.0,
			"0.025": 0.0
		}
	}
}
