{
	 "smiles": "NCC1(O)CCOCC1", 
	 "Tm": 339.15, 
	 "num_atms": 22, 
	 "gaussian": { 
		 "optdone": 1, 
		 "sigma_profile": "yes", 
		 "theory": "DFT", 
		 "functional": "B3LYP", 
		 "basiset": "6-31G**", 
		 "properties": { 
			 "R2extent": 1484.6138, 
			 "electric_dipole_moment_norm": 0.85897437098, 
			 "electric_quadrupole_moment_norm": 11.4925231616, 
			 "total_energy": -441.65782704, 
			 "HOMO_LUMO_gap": 0.28551, 
			 "cosmo_polarized_energy": -11.58, 
			 "cosmo_cavitation_energy": 22.62, 
			 "cosmo_dispersion_energy": -16.99, 
			 "cosmo_repulsion_energy": 1.39, 
			 "cosmo_total_nonelectrostatic_energy": 7.02, 
			 "SMD_solvation_energy": 2.12 
		},
		"coords": [
			{
				"x": -1.8375279083,
				"y": 0.6310896125,
				"z": -1.4954758356,
				"element": "N" 
			},
			{
				"x": -0.5348420997,
				"y": 0.0025516659,
				"z": -1.2984684766,
				"element": "C" 
			},
			{
				"x": -0.1743189609,
				"y": -0.3711662465,
				"z": 0.1582420062,
				"element": "C" 
			},
			{
				"x": -0.3123851944,
				"y": 0.8036630096,
				"z": 0.9826252145,
				"element": "O" 
			},
			{
				"x": -1.142983291,
				"y": -1.4034453519,
				"z": 0.7575643757,
				"element": "C" 
			},
			{
				"x": -0.6774147965,
				"y": -1.8667868875,
				"z": 2.1405307096,
				"element": "C" 
			},
			{
				"x": 0.6459725632,
				"y": -2.3899233768,
				"z": 2.0987775787,
				"element": "O" 
			},
			{
				"x": 1.5807701793,
				"y": -1.4115038352,
				"z": 1.6668982438,
				"element": "C" 
			},
			{
				"x": 1.2613317115,
				"y": -0.9228547128,
				"z": 0.2508158765,
				"element": "C" 
			},
			{
				"x": -2.5794917134,
				"y": -0.0487271483,
				"z": -1.3489044599,
				"element": "H" 
			},
			{
				"x": -1.9587537386,
				"y": 1.3420113067,
				"z": -0.7761607842,
				"element": "H" 
			},
			{
				"x": 0.2384217921,
				"y": 0.6959266105,
				"z": -1.6638349573,
				"element": "H" 
			},
			{
				"x": -0.4707755949,
				"y": -0.8885105167,
				"z": -1.9344377332,
				"element": "H" 
			},
			{
				"x": 0.3781320877,
				"y": 1.4287911551,
				"z": 0.7208939568,
				"element": "H" 
			},
			{
				"x": -2.1455965934,
				"y": -0.9672789875,
				"z": 0.8292184165,
				"element": "H" 
			},
			{
				"x": -1.1968997538,
				"y": -2.2690028143,
				"z": 0.0862906204,
				"element": "H" 
			},
			{
				"x": -1.3122574227,
				"y": -2.6754525055,
				"z": 2.5147175553,
				"element": "H" 
			},
			{
				"x": -0.7318501866,
				"y": -1.026617342,
				"z": 2.8491548307,
				"element": "H" 
			},
			{
				"x": 2.5650273343,
				"y": -1.8879414089,
				"z": 1.7040965782,
				"element": "H" 
			},
			{
				"x": 1.5849949943,
				"y": -0.5567336313,
				"z": 2.3620596833,
				"element": "H" 
			},
			{
				"x": 1.9811633106,
				"y": -0.1493445105,
				"z": -0.0541197483,
				"element": "H" 
			},
			{
				"x": 1.3726832812,
				"y": -1.7582440847,
				"z": -0.4511836511,
				"element": "H" 
			}
		],
		 "valence_orbital": [ 
			{
				"type": "occ",
				"energy": -0.31403,
				"method": "rhf"
			},
			{
				"type": "occ",
				"energy": -0.30008,
				"method": "rhf"
			},
			{
				"type": "occ",
				"energy": -0.28449,
				"method": "rhf"
			},
			{
				"type": "occ",
				"energy": -0.24921,
				"method": "rhf"
			},
			{
				"type": "occ",
				"energy": -0.22872,
				"method": "rhf"
			},
			{
				"type": "unocc",
				"energy": 0.05679,
				"method": "rhf"
			},
			{
				"type": "unocc",
				"energy": 0.09456,
				"method": "rhf"
			},
			{
				"type": "unocc",
				"energy": 0.107,
				"method": "rhf"
			},
			{
				"type": "unocc",
				"energy": 0.11543,
				"method": "rhf"
			},
			{
				"type": "unocc",
				"energy": 0.12494,
				"method": "rhf"
			}
		],
		"cosmo_sigma_profile": { 
			"-0.025": 0.0,
			"-0.024": 0.0,
			"-0.023": 0.0,
			"-0.022": 0.0,
			"-0.021": 0.0,
			"-0.02": 0.0,
			"-0.019": 0.0,
			"-0.018": 0.0,
			"-0.017": 0.0,
			"-0.016": 0.0,
			"-0.015": 0.256159892369,
			"-0.014": 1.11368581715,
			"-0.013": 0.959096974677,
			"-0.012": 0.506001810972,
			"-0.011": 1.58668228675,
			"-0.01": 1.04647538017,
			"-0.009": 1.9203342375,
			"-0.008": 2.98340525999,
			"-0.007": 3.36057302311,
			"-0.006": 4.75734558721,
			"-0.005": 6.7430914088,
			"-0.004": 16.9187660211,
			"-0.003": 23.5088456799,
			"-0.002": 23.5214576052,
			"-0.001": 19.0867497316,
			"0.0": 12.1688382032,
			"0.001": 5.47584488121,
			"0.002": 4.47858727245,
			"0.003": 3.94863079046,
			"0.004": 4.02661860348,
			"0.005": 3.20783118006,
			"0.006": 3.62888109261,
			"0.007": 3.77972665019,
			"0.008": 3.12721931399,
			"0.009": 3.171257847,
			"0.01": 2.60100956129,
			"0.011": 2.34545016527,
			"0.012": 3.39818969824,
			"0.013": 3.23527076296,
			"0.014": 2.93121054708,
			"0.015": 0.577608184221,
			"0.016": 0.416975047057,
			"0.017": 0.86311866666,
			"0.018": 0.741575080407,
			"0.019": 0.626611870305,
			"0.02": 0.330553182472,
			"0.021": 0.00188314184101,
			"0.022": 0.0,
			"0.023": 0.0,
			"0.024": 0.0,
			"0.025": 0.0
		}
	}
}
