{
	 "smiles": "CC(C)(C)OC(=O)N1CCN(CC1)C(=O)CN", 
	 "Tm": 369.15, 
	 "num_atms": 38, 
	 "gaussian": { 
		 "optdone": 1, 
		 "sigma_profile": "yes", 
		 "theory": "DFT", 
		 "functional": "B3LYP", 
		 "basiset": "6-31G**", 
		 "properties": { 
			 "R2extent": 7217.0213, 
			 "electric_dipole_moment_norm": 3.64294828264, 
			 "electric_quadrupole_moment_norm": 12.5535298096, 
			 "total_energy": -821.793158908, 
			 "HOMO_LUMO_gap": 0.2632, 
			 "cosmo_polarized_energy": -17.49, 
			 "cosmo_cavitation_energy": 38.59, 
			 "cosmo_dispersion_energy": -27.27, 
			 "cosmo_repulsion_energy": 2.15, 
			 "cosmo_total_nonelectrostatic_energy": 13.46, 
			 "SMD_solvation_energy": 5.09 
		},
		"coords": [
			{
				"x": -2.8992953082,
				"y": -1.8205943986,
				"z": -2.5355373412,
				"element": "C" 
			},
			{
				"x": -2.9110326932,
				"y": -0.8697473455,
				"z": -1.3339111167,
				"element": "C" 
			},
			{
				"x": -3.6853155845,
				"y": 0.421063801,
				"z": -1.621274295,
				"element": "C" 
			},
			{
				"x": -3.4671642823,
				"y": -1.5711150709,
				"z": -0.0917511308,
				"element": "C" 
			},
			{
				"x": -1.5324352907,
				"y": -0.5489722754,
				"z": -0.9284906927,
				"element": "O" 
			},
			{
				"x": -0.6865071679,
				"y": 0.0793610136,
				"z": -1.7824117418,
				"element": "C" 
			},
			{
				"x": -0.9585068617,
				"y": 0.4578092377,
				"z": -2.9133191534,
				"element": "O" 
			},
			{
				"x": 0.5472583218,
				"y": 0.2467531458,
				"z": -1.20954038,
				"element": "N" 
			},
			{
				"x": 1.5659506676,
				"y": 0.9877206692,
				"z": -1.9600317484,
				"element": "C" 
			},
			{
				"x": 2.5026622457,
				"y": 1.7151926492,
				"z": -1.0016782124,
				"element": "C" 
			},
			{
				"x": 3.1357493561,
				"y": 0.768526119,
				"z": -0.0737968344,
				"element": "N" 
			},
			{
				"x": 2.372928724,
				"y": -0.4294950977,
				"z": 0.2867095017,
				"element": "C" 
			},
			{
				"x": 0.8708826126,
				"y": -0.1751879906,
				"z": 0.1523063173,
				"element": "C" 
			},
			{
				"x": 4.4333565344,
				"y": 0.9923040021,
				"z": 0.3094607383,
				"element": "C" 
			},
			{
				"x": 5.054168079,
				"y": 1.9908383019,
				"z": -0.0471136429,
				"element": "O" 
			},
			{
				"x": 5.0980176059,
				"y": -0.0539897379,
				"z": 1.2266771778,
				"element": "C" 
			},
			{
				"x": 6.5044663814,
				"y": 0.2016586609,
				"z": 1.4912995689,
				"element": "N" 
			},
			{
				"x": -2.4843977789,
				"y": -1.3311886209,
				"z": -3.4167671023,
				"element": "H" 
			},
			{
				"x": -3.921596524,
				"y": -2.1437198576,
				"z": -2.7573188765,
				"element": "H" 
			},
			{
				"x": -2.304222387,
				"y": -2.7113336937,
				"z": -2.3095249901,
				"element": "H" 
			},
			{
				"x": -3.6398979803,
				"y": 1.0912968069,
				"z": -0.7568947279,
				"element": "H" 
			},
			{
				"x": -3.2757513394,
				"y": 0.9354113863,
				"z": -2.490658939,
				"element": "H" 
			},
			{
				"x": -4.7370982115,
				"y": 0.183733365,
				"z": -1.8114431353,
				"element": "H" 
			},
			{
				"x": -2.8893483769,
				"y": -2.4718620143,
				"z": 0.1359154234,
				"element": "H" 
			},
			{
				"x": -3.4291034383,
				"y": -0.9070408716,
				"z": 0.7767225902,
				"element": "H" 
			},
			{
				"x": -4.5082976715,
				"y": -1.8621208891,
				"z": -0.2594787643,
				"element": "H" 
			},
			{
				"x": 2.1424692569,
				"y": 0.3086080802,
				"z": -2.6036264729,
				"element": "H" 
			},
			{
				"x": 1.0601084796,
				"y": 1.7004791752,
				"z": -2.6141409237,
				"element": "H" 
			},
			{
				"x": 1.9486280367,
				"y": 2.4836224003,
				"z": -0.4454296266,
				"element": "H" 
			},
			{
				"x": 3.2984608136,
				"y": 2.2223876021,
				"z": -1.5495748454,
				"element": "H" 
			},
			{
				"x": 2.5790640615,
				"y": -0.7092882729,
				"z": 1.3234118927,
				"element": "H" 
			},
			{
				"x": 2.6524466789,
				"y": -1.2842933799,
				"z": -0.3472164962,
				"element": "H" 
			},
			{
				"x": 0.5593108248,
				"y": 0.5812638839,
				"z": 0.8871918466,
				"element": "H" 
			},
			{
				"x": 0.3290195977,
				"y": -1.0935014039,
				"z": 0.3815947233,
				"element": "H" 
			},
			{
				"x": 4.9897859839,
				"y": -1.0556043665,
				"z": 0.7927346695,
				"element": "H" 
			},
			{
				"x": 4.5547712524,
				"y": -0.0803570382,
				"z": 2.1816626531,
				"element": "H" 
			},
			{
				"x": 6.594286896,
				"y": 1.1743563764,
				"z": 1.780470779,
				"element": "H" 
			},
			{
				"x": 7.0075784855,
				"y": 0.1651256484,
				"z": 0.6066733082,
				"element": "H" 
			}
		],
		 "valence_orbital": [ 
			{
				"type": "occ",
				"energy": -0.26493,
				"method": "rhf"
			},
			{
				"type": "occ",
				"energy": -0.25736,
				"method": "rhf"
			},
			{
				"type": "occ",
				"energy": -0.24604,
				"method": "rhf"
			},
			{
				"type": "occ",
				"energy": -0.24091,
				"method": "rhf"
			},
			{
				"type": "occ",
				"energy": -0.23791,
				"method": "rhf"
			},
			{
				"type": "unocc",
				"energy": 0.02529,
				"method": "rhf"
			},
			{
				"type": "unocc",
				"energy": 0.04919,
				"method": "rhf"
			},
			{
				"type": "unocc",
				"energy": 0.06578,
				"method": "rhf"
			},
			{
				"type": "unocc",
				"energy": 0.08345,
				"method": "rhf"
			},
			{
				"type": "unocc",
				"energy": 0.09508,
				"method": "rhf"
			}
		],
		"cosmo_sigma_profile": { 
			"-0.025": 0.0,
			"-0.024": 0.0,
			"-0.023": 0.0,
			"-0.022": 0.0,
			"-0.021": 0.0,
			"-0.02": 0.0,
			"-0.019": 0.0,
			"-0.018": 0.0,
			"-0.017": 0.0,
			"-0.016": 0.0,
			"-0.015": 0.0,
			"-0.014": 0.0,
			"-0.013": 0.0,
			"-0.012": 0.0,
			"-0.011": 0.0,
			"-0.01": 0.348977015277,
			"-0.009": 1.56334811876,
			"-0.008": 2.82495664133,
			"-0.007": 5.14715162964,
			"-0.006": 11.2059185612,
			"-0.005": 26.9839694783,
			"-0.004": 39.5001804708,
			"-0.003": 30.4286152689,
			"-0.002": 25.5664596674,
			"-0.001": 24.8797623522,
			"0.0": 30.2307093293,
			"0.001": 25.8088385983,
			"0.002": 10.7486854606,
			"0.003": 7.03095915956,
			"0.004": 6.07597245434,
			"0.005": 5.9657528265,
			"0.006": 5.87238119398,
			"0.007": 4.31790336006,
			"0.008": 3.56181947841,
			"0.009": 3.0760425033,
			"0.01": 4.06820622938,
			"0.011": 4.18187727105,
			"0.012": 3.22541461551,
			"0.013": 6.30923412628,
			"0.014": 6.55559763314,
			"0.015": 1.1654224049,
			"0.016": 0.587815002936,
			"0.017": 0.693268983763,
			"0.018": 0.491153169711,
			"0.019": 0.82687170275,
			"0.02": 0.011145260503,
			"0.021": 0.0,
			"0.022": 0.0,
			"0.023": 0.0,
			"0.024": 0.0,
			"0.025": 0.0
		}
	}
}
