{
	 "smiles": "BrC1=C(Br)N=CC=C1", 
	 "Tm": 332.15, 
	 "num_atms": 11, 
	 "gaussian": { 
		 "optdone": 1, 
		 "sigma_profile": "yes", 
		 "theory": "DFT", 
		 "functional": "B3LYP", 
		 "basiset": "6-31G**", 
		 "properties": { 
			 "R2extent": 2531.9634, 
			 "electric_dipole_moment_norm": 3.21339248303, 
			 "electric_quadrupole_moment_norm": 5.88239839776, 
			 "total_energy": -5389.88546208, 
			 "HOMO_LUMO_gap": 0.20742, 
			 "cosmo_polarized_energy": -6.47, 
			 "cosmo_cavitation_energy": 19.95, 
			 "cosmo_dispersion_energy": -15.86, 
			 "cosmo_repulsion_energy": 1.31, 
			 "cosmo_total_nonelectrostatic_energy": 5.39, 
			 "SMD_solvation_energy": 0.03 
		},
		"coords": [
			{
				"x": 0.8167006814,
				"y": -1.0661493973,
				"z": -2.2034465279,
				"element": "Br" 
			},
			{
				"x": 0.0701940021,
				"y": 0.0600336206,
				"z": -0.8718788456,
				"element": "C" 
			},
			{
				"x": 0.8440537269,
				"y": 0.8965366913,
				"z": -0.0499829094,
				"element": "C" 
			},
			{
				"x": 2.7474306629,
				"y": 0.9606878911,
				"z": -0.2195241622,
				"element": "Br" 
			},
			{
				"x": 0.3185212066,
				"y": 1.6783794034,
				"z": 0.8751933346,
				"element": "N" 
			},
			{
				"x": -1.0087836606,
				"y": 1.6809303469,
				"z": 1.045020008,
				"element": "C" 
			},
			{
				"x": -1.8678379513,
				"y": 0.8909899894,
				"z": 0.2850613207,
				"element": "C" 
			},
			{
				"x": -1.3123407367,
				"y": 0.0662064682,
				"z": -0.6911514689,
				"element": "C" 
			},
			{
				"x": -1.3890990517,
				"y": 2.342277357,
				"z": 1.8196110332,
				"element": "H" 
			},
			{
				"x": -2.9399989483,
				"y": 0.9169445399,
				"z": 0.4484958464,
				"element": "H" 
			},
			{
				"x": -1.9354399312,
				"y": -0.5690369105,
				"z": -1.3107976288,
				"element": "H" 
			}
		],
		 "valence_orbital": [ 
			{
				"type": "occ",
				"energy": -0.31302,
				"method": "rhf"
			},
			{
				"type": "occ",
				"energy": -0.28958,
				"method": "rhf"
			},
			{
				"type": "occ",
				"energy": -0.2845,
				"method": "rhf"
			},
			{
				"type": "occ",
				"energy": -0.27125,
				"method": "rhf"
			},
			{
				"type": "occ",
				"energy": -0.25582,
				"method": "rhf"
			},
			{
				"type": "unocc",
				"energy": -0.0484,
				"method": "rhf"
			},
			{
				"type": "unocc",
				"energy": -0.03754,
				"method": "rhf"
			},
			{
				"type": "unocc",
				"energy": -0.02035,
				"method": "rhf"
			},
			{
				"type": "unocc",
				"energy": 0.02659,
				"method": "rhf"
			},
			{
				"type": "unocc",
				"energy": 0.09848,
				"method": "rhf"
			}
		],
		"cosmo_sigma_profile": { 
			"-0.025": 0.0,
			"-0.024": 0.0,
			"-0.023": 0.0,
			"-0.022": 0.0,
			"-0.021": 0.0,
			"-0.02": 0.0,
			"-0.019": 0.0,
			"-0.018": 0.0,
			"-0.017": 0.0,
			"-0.016": 0.0,
			"-0.015": 0.0,
			"-0.014": 0.0,
			"-0.013": 0.0,
			"-0.012": 0.0,
			"-0.011": 0.0,
			"-0.01": 0.0,
			"-0.009": 1.2390339585,
			"-0.008": 6.43097581894,
			"-0.007": 7.25321345778,
			"-0.006": 6.52943704441,
			"-0.005": 6.90351506713,
			"-0.004": 7.45975069743,
			"-0.003": 7.25374455238,
			"-0.002": 12.1737432722,
			"-0.001": 17.8162520957,
			"0.0": 18.4992945399,
			"0.001": 14.4177702572,
			"0.002": 11.1585769372,
			"0.003": 16.0346773444,
			"0.004": 16.8328786054,
			"0.005": 7.62358619567,
			"0.006": 1.60504530532,
			"0.007": 1.50495648902,
			"0.008": 1.65894303604,
			"0.009": 1.41158765414,
			"0.01": 0.677254437888,
			"0.011": 1.56598841944,
			"0.012": 0.647902952818,
			"0.013": 0.739561221107,
			"0.014": 0.233897451972,
			"0.015": 0.0,
			"0.016": 0.0,
			"0.017": 0.0,
			"0.018": 0.0,
			"0.019": 0.0,
			"0.02": 0.0,
			"0.021": 0.0,
			"0.022": 0.0,
			"0.023": 0.0,
			"0.024": 0.0,
			"0.025": 0.0
		}
	}
}
