{
	 "smiles": "CC1=C(C)C2=C(C=C1)C(=O)CCCO2", 
	 "Tm": 324.15, 
	 "num_atms": 28, 
	 "gaussian": { 
		 "optdone": 1, 
		 "sigma_profile": "yes", 
		 "theory": "DFT", 
		 "functional": "B3LYP", 
		 "basiset": "6-31G**", 
		 "properties": { 
			 "R2extent": 2976.3911, 
			 "electric_dipole_moment_norm": 3.40225600889, 
			 "electric_quadrupole_moment_norm": 15.7087272104, 
			 "total_energy": -616.165544147, 
			 "HOMO_LUMO_gap": 0.18387, 
			 "cosmo_polarized_energy": -9.38, 
			 "cosmo_cavitation_energy": 29.58, 
			 "cosmo_dispersion_energy": -21.76, 
			 "cosmo_repulsion_energy": 1.7, 
			 "cosmo_total_nonelectrostatic_energy": 9.52, 
			 "SMD_solvation_energy": 5.36 
		},
		"coords": [
			{
				"x": 2.8460018566,
				"y": 2.3005600442,
				"z": 0.9062112647,
				"element": "C" 
			},
			{
				"x": 1.8708658661,
				"y": 1.4797916565,
				"z": 0.0979064903,
				"element": "C" 
			},
			{
				"x": 0.8614208244,
				"y": 0.7347270771,
				"z": 0.7374322652,
				"element": "C" 
			},
			{
				"x": 0.7607025923,
				"y": 0.7296617824,
				"z": 2.2448038746,
				"element": "C" 
			},
			{
				"x": -0.0440725454,
				"y": -0.0151553189,
				"z": -0.0422258675,
				"element": "C" 
			},
			{
				"x": 0.0551759986,
				"y": -0.0432501617,
				"z": -1.4510197973,
				"element": "C" 
			},
			{
				"x": 1.0875007755,
				"y": 0.6941001698,
				"z": -2.0534388759,
				"element": "C" 
			},
			{
				"x": 1.9681425664,
				"y": 1.452278744,
				"z": -1.2988075992,
				"element": "C" 
			},
			{
				"x": -0.7974441396,
				"y": -0.8411764349,
				"z": -2.3981948502,
				"element": "C" 
			},
			{
				"x": -0.3143880305,
				"y": -1.2342534194,
				"z": -3.4505428221,
				"element": "O" 
			},
			{
				"x": -2.2919758186,
				"y": -1.0382426269,
				"z": -2.159769466,
				"element": "C" 
			},
			{
				"x": -2.7366872556,
				"y": -1.585435579,
				"z": -0.8008784824,
				"element": "C" 
			},
			{
				"x": -2.3313451688,
				"y": -0.708233619,
				"z": 0.3741410364,
				"element": "C" 
			},
			{
				"x": -0.9339154644,
				"y": -0.7912917278,
				"z": 0.6639535243,
				"element": "O" 
			},
			{
				"x": 3.5648340085,
				"y": 2.8073017294,
				"z": 0.2575964307,
				"element": "H" 
			},
			{
				"x": 2.3344094861,
				"y": 3.0653407916,
				"z": 1.5030305524,
				"element": "H" 
			},
			{
				"x": 3.4090249515,
				"y": 1.6778989274,
				"z": 1.6116960618,
				"element": "H" 
			},
			{
				"x": -0.0953508504,
				"y": 0.1460534042,
				"z": 2.5790753792,
				"element": "H" 
			},
			{
				"x": 0.6639399993,
				"y": 1.7480617169,
				"z": 2.6393595307,
				"element": "H" 
			},
			{
				"x": 1.6609335713,
				"y": 0.2993650584,
				"z": 2.7006110774,
				"element": "H" 
			},
			{
				"x": 1.1773315651,
				"y": 0.6454615653,
				"z": -3.1331203387,
				"element": "H" 
			},
			{
				"x": 2.7496775459,
				"y": 2.0238006053,
				"z": -1.7918280328,
				"element": "H" 
			},
			{
				"x": -2.7543806024,
				"y": -0.0502465798,
				"z": -2.3089849431,
				"element": "H" 
			},
			{
				"x": -2.6422865621,
				"y": -1.6819784469,
				"z": -2.9706480712,
				"element": "H" 
			},
			{
				"x": -3.8301224416,
				"y": -1.6766944104,
				"z": -0.8038568935,
				"element": "H" 
			},
			{
				"x": -2.3347876065,
				"y": -2.592284759,
				"z": -0.6384772789,
				"element": "H" 
			},
			{
				"x": -2.826437555,
				"y": -1.0480333972,
				"z": 1.2889932424,
				"element": "H" 
			},
			{
				"x": -2.6169675663,
				"y": 0.3393732083,
				"z": 0.2018825885,
				"element": "H" 
			}
		],
		 "valence_orbital": [ 
			{
				"type": "occ",
				"energy": -0.32295,
				"method": "rhf"
			},
			{
				"type": "occ",
				"energy": -0.28756,
				"method": "rhf"
			},
			{
				"type": "occ",
				"energy": -0.24637,
				"method": "rhf"
			},
			{
				"type": "occ",
				"energy": -0.23565,
				"method": "rhf"
			},
			{
				"type": "occ",
				"energy": -0.22802,
				"method": "rhf"
			},
			{
				"type": "unocc",
				"energy": -0.04415,
				"method": "rhf"
			},
			{
				"type": "unocc",
				"energy": 0.00376,
				"method": "rhf"
			},
			{
				"type": "unocc",
				"energy": 0.03324,
				"method": "rhf"
			},
			{
				"type": "unocc",
				"energy": 0.08786,
				"method": "rhf"
			},
			{
				"type": "unocc",
				"energy": 0.09886,
				"method": "rhf"
			}
		],
		"cosmo_sigma_profile": { 
			"-0.025": 0.0,
			"-0.024": 0.0,
			"-0.023": 0.0,
			"-0.022": 0.0,
			"-0.021": 0.0,
			"-0.02": 0.0,
			"-0.019": 0.0,
			"-0.018": 0.0,
			"-0.017": 0.0,
			"-0.016": 0.0,
			"-0.015": 0.0,
			"-0.014": 0.0,
			"-0.013": 0.0,
			"-0.012": 0.0,
			"-0.011": 0.0,
			"-0.01": 0.0,
			"-0.009": 0.0,
			"-0.008": 0.0,
			"-0.007": 0.00107533651388,
			"-0.006": 4.29882117648,
			"-0.005": 17.3323820292,
			"-0.004": 30.8774706934,
			"-0.003": 28.6100979423,
			"-0.002": 24.264671967,
			"-0.001": 23.0796498876,
			"0.0": 22.1199502145,
			"0.001": 16.1790531296,
			"0.002": 10.3069558787,
			"0.003": 11.1444427934,
			"0.004": 10.6960941386,
			"0.005": 9.34383135864,
			"0.006": 3.55687392951,
			"0.007": 3.07655556684,
			"0.008": 1.69804612173,
			"0.009": 2.91806481598,
			"0.01": 3.13710946713,
			"0.011": 3.40501430563,
			"0.012": 4.27414168492,
			"0.013": 2.20046376233,
			"0.014": 0.132818875098,
			"0.015": 0.0,
			"0.016": 0.0,
			"0.017": 0.0,
			"0.018": 0.0,
			"0.019": 0.0,
			"0.02": 0.0,
			"0.021": 0.0,
			"0.022": 0.0,
			"0.023": 0.0,
			"0.024": 0.0,
			"0.025": 0.0
		}
	}
}
