{
	 "smiles": "COC(=O)C1=CC=C(C=C1)C1=CC=C(C=C1)C(O)=O", 
	 "Tm": 574.15, 
	 "num_atms": 31, 
	 "gaussian": { 
		 "optdone": 1, 
		 "sigma_profile": "yes", 
		 "theory": "DFT", 
		 "functional": "B3LYP", 
		 "basiset": "6-31G**", 
		 "properties": { 
			 "R2extent": 10096.2916, 
			 "electric_dipole_moment_norm": 3.66442460149, 
			 "electric_quadrupole_moment_norm": 42.53496224, 
			 "total_energy": -879.753237756, 
			 "HOMO_LUMO_gap": 0.17216, 
			 "cosmo_polarized_energy": -18.99, 
			 "cosmo_cavitation_energy": 36.61, 
			 "cosmo_dispersion_energy": -26.6, 
			 "cosmo_repulsion_energy": 2.01, 
			 "cosmo_total_nonelectrostatic_energy": 12.03, 
			 "SMD_solvation_energy": 8.74 
		},
		"coords": [
			{
				"x": -1.6305420953,
				"y": 5.344875018,
				"z": 0.4912844791,
				"element": "C" 
			},
			{
				"x": -0.8250101176,
				"y": 4.1600101379,
				"z": 0.588891689,
				"element": "O" 
			},
			{
				"x": -1.4405208375,
				"y": 3.0135242416,
				"z": 0.2201674859,
				"element": "C" 
			},
			{
				"x": -2.5921472686,
				"y": 2.9723509973,
				"z": -0.1677594305,
				"element": "O" 
			},
			{
				"x": -0.5511710929,
				"y": 1.8245098064,
				"z": 0.3444968201,
				"element": "C" 
			},
			{
				"x": -1.0746301777,
				"y": 0.573390573,
				"z": -0.0069085114,
				"element": "C" 
			},
			{
				"x": -0.2884045809,
				"y": -0.5684336097,
				"z": 0.0897063747,
				"element": "C" 
			},
			{
				"x": 1.0419385388,
				"y": -0.4927887938,
				"z": 0.5408888274,
				"element": "C" 
			},
			{
				"x": 1.5562547113,
				"y": 0.7682560366,
				"z": 0.8912998694,
				"element": "C" 
			},
			{
				"x": 0.7727791355,
				"y": 1.9138449841,
				"z": 0.7950119749,
				"element": "C" 
			},
			{
				"x": 1.8808868472,
				"y": -1.7118057767,
				"z": 0.6440511746,
				"element": "C" 
			},
			{
				"x": 2.8012126942,
				"y": -1.8722314984,
				"z": 1.6965164782,
				"element": "C" 
			},
			{
				"x": 3.5893770496,
				"y": -3.0123750191,
				"z": 1.7914199543,
				"element": "C" 
			},
			{
				"x": 3.4709553863,
				"y": -4.0402520127,
				"z": 0.8461806201,
				"element": "C" 
			},
			{
				"x": 2.5661659616,
				"y": -3.8838874715,
				"z": -0.2133421921,
				"element": "C" 
			},
			{
				"x": 1.7841303062,
				"y": -2.7367149669,
				"z": -0.3127018346,
				"element": "C" 
			},
			{
				"x": 4.3539157244,
				"y": -5.2405291551,
				"z": 1.00545199,
				"element": "C" 
			},
			{
				"x": 3.9728619265,
				"y": -6.3733125622,
				"z": 0.3552105818,
				"element": "O" 
			},
			{
				"x": 5.3621709576,
				"y": -5.2378168842,
				"z": 1.671972112,
				"element": "O" 
			},
			{
				"x": -1.9580296684,
				"y": 5.503647413,
				"z": -0.5392036657,
				"element": "H" 
			},
			{
				"x": -0.9907866428,
				"y": 6.1633954162,
				"z": 0.8208206223,
				"element": "H" 
			},
			{
				"x": -2.512473109,
				"y": 5.2642869703,
				"z": 1.1316394894,
				"element": "H" 
			},
			{
				"x": -2.1036740451,
				"y": 0.5182553796,
				"z": -0.3455182652,
				"element": "H" 
			},
			{
				"x": -0.7155446865,
				"y": -1.5348031701,
				"z": -0.1599874329,
				"element": "H" 
			},
			{
				"x": 2.5886177818,
				"y": 0.8541293491,
				"z": 1.2158771301,
				"element": "H" 
			},
			{
				"x": 1.1840671758,
				"y": 2.8811281683,
				"z": 1.0594376763,
				"element": "H" 
			},
			{
				"x": 2.8802939666,
				"y": -1.1035250733,
				"z": 2.4588244055,
				"element": "H" 
			},
			{
				"x": 4.301648291,
				"y": -3.1346575086,
				"z": 2.6002517306,
				"element": "H" 
			},
			{
				"x": 2.4951922389,
				"y": -4.6311338106,
				"z": -1.0004322727,
				"element": "H" 
			},
			{
				"x": 1.1157386579,
				"y": -2.6179699107,
				"z": -1.1595597015,
				"element": "H" 
			},
			{
				"x": 3.0761269715,
				"y": -6.273667268,
				"z": 0.0072118207,
				"element": "H" 
			}
		],
		 "valence_orbital": [ 
			{
				"type": "occ",
				"energy": -0.27938,
				"method": "rhf"
			},
			{
				"type": "occ",
				"energy": -0.27724,
				"method": "rhf"
			},
			{
				"type": "occ",
				"energy": -0.27381,
				"method": "rhf"
			},
			{
				"type": "occ",
				"energy": -0.26904,
				"method": "rhf"
			},
			{
				"type": "occ",
				"energy": -0.24664,
				"method": "rhf"
			},
			{
				"type": "unocc",
				"energy": -0.07448,
				"method": "rhf"
			},
			{
				"type": "unocc",
				"energy": -0.03535,
				"method": "rhf"
			},
			{
				"type": "unocc",
				"energy": -0.02765,
				"method": "rhf"
			},
			{
				"type": "unocc",
				"energy": -0.01862,
				"method": "rhf"
			},
			{
				"type": "unocc",
				"energy": 0.03522,
				"method": "rhf"
			}
		],
		"cosmo_sigma_profile": { 
			"-0.025": 0.0,
			"-0.024": 0.0,
			"-0.023": 0.0,
			"-0.022": 0.0,
			"-0.021": 0.0,
			"-0.02": 0.0,
			"-0.019": 0.143221965649,
			"-0.018": 0.77266863058,
			"-0.017": 1.25480816759,
			"-0.016": 0.765699846607,
			"-0.015": 0.848483370106,
			"-0.014": 0.855898185636,
			"-0.013": 1.27321149932,
			"-0.012": 1.10990800319,
			"-0.011": 1.29186114318,
			"-0.01": 1.72492210015,
			"-0.009": 1.16282371566,
			"-0.008": 1.38871904371,
			"-0.007": 8.53950271603,
			"-0.006": 19.8130347366,
			"-0.005": 21.2887036726,
			"-0.004": 20.6860297142,
			"-0.003": 22.2824504188,
			"-0.002": 17.6180971766,
			"-0.001": 17.6500526745,
			"0.0": 18.6795653812,
			"0.001": 23.4912057424,
			"0.002": 25.5626705966,
			"0.003": 27.8970071531,
			"0.004": 7.68046590176,
			"0.005": 6.08037057982,
			"0.006": 5.02820588593,
			"0.007": 4.23286779311,
			"0.008": 3.50341618793,
			"0.009": 5.54387666883,
			"0.01": 6.63766833568,
			"0.011": 8.00692663225,
			"0.012": 9.08461224286,
			"0.013": 1.66136956245,
			"0.014": 0.0525149633611,
			"0.015": 0.0,
			"0.016": 0.0,
			"0.017": 0.0,
			"0.018": 0.0,
			"0.019": 0.0,
			"0.02": 0.0,
			"0.021": 0.0,
			"0.022": 0.0,
			"0.023": 0.0,
			"0.024": 0.0,
			"0.025": 0.0
		}
	}
}
