{
	 "smiles": "CCCC[C@H](NC(=O)OCC1C2=CC=CC=C2C2=C1C=CC=C2)C(O)=O", 
	 "Tm": 414.15, 
	 "num_atms": 49, 
	 "gaussian": { 
		 "optdone": 1, 
		 "sigma_profile": "yes", 
		 "theory": "DFT", 
		 "functional": "B3LYP", 
		 "basiset": "6-31G**", 
		 "properties": { 
			 "R2extent": 10597.2725, 
			 "electric_dipole_moment_norm": 1.38940926656, 
			 "electric_quadrupole_moment_norm": 21.9587855156, 
			 "total_energy": -1169.80332111, 
			 "HOMO_LUMO_gap": 0.1842, 
			 "cosmo_polarized_energy": -18.99, 
			 "cosmo_cavitation_energy": 51.54, 
			 "cosmo_dispersion_energy": -33.12, 
			 "cosmo_repulsion_energy": 2.5, 
			 "cosmo_total_nonelectrostatic_energy": 20.92, 
			 "SMD_solvation_energy": 9.73 
		},
		"coords": [
			{
				"x": 1.3510776925,
				"y": -3.6009735544,
				"z": 2.403374393,
				"element": "C" 
			},
			{
				"x": 0.271987276,
				"y": -4.6774627255,
				"z": 2.2506347931,
				"element": "C" 
			},
			{
				"x": -1.1579665828,
				"y": -4.1932657923,
				"z": 2.5494559666,
				"element": "C" 
			},
			{
				"x": -1.740867438,
				"y": -3.0902467566,
				"z": 1.648770799,
				"element": "C" 
			},
			{
				"x": -1.9363351771,
				"y": -3.4964616811,
				"z": 0.1762332949,
				"element": "C" 
			},
			{
				"x": -0.7248740302,
				"y": -3.4317359885,
				"z": -0.6410967713,
				"element": "N" 
			},
			{
				"x": -0.2053949132,
				"y": -2.2997832652,
				"z": -1.2144966788,
				"element": "C" 
			},
			{
				"x": 0.6338360653,
				"y": -2.3063527655,
				"z": -2.0963720226,
				"element": "O" 
			},
			{
				"x": -0.7356768414,
				"y": -1.1756235734,
				"z": -0.6597303606,
				"element": "O" 
			},
			{
				"x": -0.3851313163,
				"y": 0.0595098731,
				"z": -1.3222661898,
				"element": "C" 
			},
			{
				"x": 0.9651745554,
				"y": 0.6331397522,
				"z": -0.8571608397,
				"element": "C" 
			},
			{
				"x": 0.9506940573,
				"y": 1.2263255386,
				"z": 0.5436804041,
				"element": "C" 
			},
			{
				"x": 0.681560231,
				"y": 0.6131433987,
				"z": 1.7629155208,
				"element": "C" 
			},
			{
				"x": 0.7211229577,
				"y": 1.3790893495,
				"z": 2.9341729629,
				"element": "C" 
			},
			{
				"x": 1.0288574381,
				"y": 2.7425540883,
				"z": 2.8839269779,
				"element": "C" 
			},
			{
				"x": 1.3049488558,
				"y": 3.3639192136,
				"z": 1.6640099484,
				"element": "C" 
			},
			{
				"x": 1.2650529703,
				"y": 2.6017223964,
				"z": 0.4947685296,
				"element": "C" 
			},
			{
				"x": 1.5188603591,
				"y": 2.9762085538,
				"z": -0.9026744086,
				"element": "C" 
			},
			{
				"x": 1.3614092899,
				"y": 1.8304722145,
				"z": -1.7086335666,
				"element": "C" 
			},
			{
				"x": 1.5629057743,
				"y": 1.8987458948,
				"z": -3.0832039503,
				"element": "C" 
			},
			{
				"x": 1.9201284785,
				"y": 3.1257037732,
				"z": -3.6550274138,
				"element": "C" 
			},
			{
				"x": 2.0729373746,
				"y": 4.2644906025,
				"z": -2.8565891745,
				"element": "C" 
			},
			{
				"x": 1.8761691451,
				"y": 4.1988699954,
				"z": -1.4751458944,
				"element": "C" 
			},
			{
				"x": -3.1231559837,
				"y": -2.7528414794,
				"z": -0.4626719474,
				"element": "C" 
			},
			{
				"x": -3.0867312036,
				"y": -2.8015884645,
				"z": -1.8137005209,
				"element": "O" 
			},
			{
				"x": -4.0345066903,
				"y": -2.2444640719,
				"z": 0.1489134647,
				"element": "O" 
			},
			{
				"x": 1.2269268142,
				"y": -2.79670591,
				"z": 1.6720671317,
				"element": "H" 
			},
			{
				"x": 1.3242855719,
				"y": -3.1523038488,
				"z": 3.4034412687,
				"element": "H" 
			},
			{
				"x": 2.3507518654,
				"y": -4.022364671,
				"z": 2.2562987066,
				"element": "H" 
			},
			{
				"x": 0.3237956806,
				"y": -5.1008466732,
				"z": 1.2401298425,
				"element": "H" 
			},
			{
				"x": 0.4951864586,
				"y": -5.5063451053,
				"z": 2.9348501764,
				"element": "H" 
			},
			{
				"x": -1.8363653286,
				"y": -5.0581345149,
				"z": 2.5209577322,
				"element": "H" 
			},
			{
				"x": -1.1895848327,
				"y": -3.8265852881,
				"z": 3.5843385666,
				"element": "H" 
			},
			{
				"x": -2.7238083817,
				"y": -2.808973903,
				"z": 2.0365536925,
				"element": "H" 
			},
			{
				"x": -1.1297588322,
				"y": -2.184267029,
				"z": 1.6784072805,
				"element": "H" 
			},
			{
				"x": -2.2434913058,
				"y": -4.5516451283,
				"z": 0.1544628619,
				"element": "H" 
			},
			{
				"x": -0.4420687985,
				"y": -4.2649819985,
				"z": -1.1343190262,
				"element": "H" 
			},
			{
				"x": -1.1985578807,
				"y": 0.7470215848,
				"z": -1.082270116,
				"element": "H" 
			},
			{
				"x": -0.3585948516,
				"y": -0.1223188079,
				"z": -2.3982004893,
				"element": "H" 
			},
			{
				"x": 1.7076238563,
				"y": -0.1692451961,
				"z": -0.9510672826,
				"element": "H" 
			},
			{
				"x": 0.4479580313,
				"y": -0.445243717,
				"z": 1.8112265393,
				"element": "H" 
			},
			{
				"x": 0.5122906958,
				"y": 0.9091739836,
				"z": 3.8909889091,
				"element": "H" 
			},
			{
				"x": 1.0567200295,
				"y": 3.3223547142,
				"z": 3.8021936504,
				"element": "H" 
			},
			{
				"x": 1.5490861996,
				"y": 4.4222044733,
				"z": 1.6303816037,
				"element": "H" 
			},
			{
				"x": 1.456599087,
				"y": 1.0142133756,
				"z": -3.7059293843,
				"element": "H" 
			},
			{
				"x": 2.0836039135,
				"y": 3.1932537236,
				"z": -4.726696094,
				"element": "H" 
			},
			{
				"x": 2.3514538793,
				"y": 5.2088876878,
				"z": -3.3156513974,
				"element": "H" 
			},
			{
				"x": 2.0020078339,
				"y": 5.0862160077,
				"z": -0.8608257659,
				"element": "H" 
			},
			{
				"x": -3.8870420495,
				"y": -2.3424582856,
				"z": -2.118925722,
				"element": "H" 
			}
		],
		 "valence_orbital": [ 
			{
				"type": "occ",
				"energy": -0.27776,
				"method": "rhf"
			},
			{
				"type": "occ",
				"energy": -0.25453,
				"method": "rhf"
			},
			{
				"type": "occ",
				"energy": -0.24824,
				"method": "rhf"
			},
			{
				"type": "occ",
				"energy": -0.24141,
				"method": "rhf"
			},
			{
				"type": "occ",
				"energy": -0.21342,
				"method": "rhf"
			},
			{
				"type": "unocc",
				"energy": -0.02922,
				"method": "rhf"
			},
			{
				"type": "unocc",
				"energy": -0.01055,
				"method": "rhf"
			},
			{
				"type": "unocc",
				"energy": -0.00169,
				"method": "rhf"
			},
			{
				"type": "unocc",
				"energy": 0.00928,
				"method": "rhf"
			},
			{
				"type": "unocc",
				"energy": 0.04146,
				"method": "rhf"
			}
		],
		"cosmo_sigma_profile": { 
			"-0.025": 0.0,
			"-0.024": 0.0,
			"-0.023": 0.0,
			"-0.022": 0.0,
			"-0.021": 0.0,
			"-0.02": 0.0,
			"-0.019": 0.036002788325,
			"-0.018": 0.972563728,
			"-0.017": 0.833890572382,
			"-0.016": 0.926482409444,
			"-0.015": 1.2079784124,
			"-0.014": 1.54871355231,
			"-0.013": 1.96797625972,
			"-0.012": 2.08625982808,
			"-0.011": 1.94902880986,
			"-0.01": 1.48565897622,
			"-0.009": 2.51696181258,
			"-0.008": 4.5572538952,
			"-0.007": 3.58529992617,
			"-0.006": 13.7406316381,
			"-0.005": 23.3062876023,
			"-0.004": 26.5186635952,
			"-0.003": 31.285006317,
			"-0.002": 38.8169894856,
			"-0.001": 38.2090858677,
			"0.0": 38.0095080497,
			"0.001": 32.302540692,
			"0.002": 26.7784128408,
			"0.003": 23.1202286973,
			"0.004": 21.0684432922,
			"0.005": 24.0020473613,
			"0.006": 15.0903870054,
			"0.007": 4.44075817022,
			"0.008": 3.00027978097,
			"0.009": 3.44715800524,
			"0.01": 4.01704315833,
			"0.011": 6.75147005823,
			"0.012": 4.72862415315,
			"0.013": 4.05917650375,
			"0.014": 0.486298604753,
			"0.015": 0.0,
			"0.016": 0.0,
			"0.017": 0.0,
			"0.018": 0.0,
			"0.019": 0.0,
			"0.02": 0.0,
			"0.021": 0.0,
			"0.022": 0.0,
			"0.023": 0.0,
			"0.024": 0.0,
			"0.025": 0.0
		}
	}
}
