{
	 "smiles": "CC1=CC(C)=C(C=C1)C(=O)CBr", 
	 "Tm": 317.15, 
	 "num_atms": 23, 
	 "gaussian": { 
		 "optdone": 1, 
		 "sigma_profile": "yes", 
		 "theory": "DFT", 
		 "functional": "B3LYP", 
		 "basiset": "6-31G**", 
		 "properties": { 
			 "R2extent": 5578.0913, 
			 "electric_dipole_moment_norm": 5.01420373539, 
			 "electric_quadrupole_moment_norm": 15.7986109975, 
			 "total_energy": -3034.32628999, 
			 "HOMO_LUMO_gap": 0.19266, 
			 "cosmo_polarized_energy": -11.56, 
			 "cosmo_cavitation_energy": 28.4, 
			 "cosmo_dispersion_energy": -21.13, 
			 "cosmo_repulsion_energy": 1.68, 
			 "cosmo_total_nonelectrostatic_energy": 8.95, 
			 "SMD_solvation_energy": 4.21 
		},
		"coords": [
			{
				"x": 2.1497455957,
				"y": -3.0097985968,
				"z": -0.0481007468,
				"element": "C" 
			},
			{
				"x": 1.7113571094,
				"y": -1.5783345905,
				"z": 0.1399600943,
				"element": "C" 
			},
			{
				"x": 0.5658033219,
				"y": -1.0844875031,
				"z": -0.4902153275,
				"element": "C" 
			},
			{
				"x": 0.0994676681,
				"y": 0.2272446787,
				"z": -0.3216414348,
				"element": "C" 
			},
			{
				"x": -1.1343178017,
				"y": 0.6266682269,
				"z": -1.1049227945,
				"element": "C" 
			},
			{
				"x": 0.8374662267,
				"y": 1.0913321591,
				"z": 0.5238505219,
				"element": "C" 
			},
			{
				"x": 2.0082656534,
				"y": 0.6033390308,
				"z": 1.1357311272,
				"element": "C" 
			},
			{
				"x": 2.436458101,
				"y": -0.7032626541,
				"z": 0.9594698159,
				"element": "C" 
			},
			{
				"x": 0.5288916407,
				"y": 2.5290637069,
				"z": 0.8566816556,
				"element": "C" 
			},
			{
				"x": 1.4077189387,
				"y": 3.2701561222,
				"z": 1.2551466338,
				"element": "O" 
			},
			{
				"x": -0.9194416516,
				"y": 3.0176829687,
				"z": 0.7527518777,
				"element": "C" 
			},
			{
				"x": -1.2133436346,
				"y": 4.7354104744,
				"z": 1.6401705188,
				"element": "Br" 
			},
			{
				"x": 1.640332196,
				"y": -3.4795332619,
				"z": -0.8937946671,
				"element": "H" 
			},
			{
				"x": 1.9296830143,
				"y": -3.6077091414,
				"z": 0.8448460962,
				"element": "H" 
			},
			{
				"x": 3.2290091527,
				"y": -3.0758446882,
				"z": -0.2202319746,
				"element": "H" 
			},
			{
				"x": 0.0101536422,
				"y": -1.7461374478,
				"z": -1.1507324275,
				"element": "H" 
			},
			{
				"x": -1.9978022311,
				"y": 0.8240605966,
				"z": -0.4611771326,
				"element": "H" 
			},
			{
				"x": -0.9656434144,
				"y": 1.5205258214,
				"z": -1.7143436004,
				"element": "H" 
			},
			{
				"x": -1.4207808026,
				"y": -0.1780108828,
				"z": -1.7862779565,
				"element": "H" 
			},
			{
				"x": 2.571787956,
				"y": 1.2891337755,
				"z": 1.7585566023,
				"element": "H" 
			},
			{
				"x": 3.3396085152,
				"y": -1.0476588888,
				"z": 1.4566746197,
				"element": "H" 
			},
			{
				"x": -1.2078571764,
				"y": 3.1654776847,
				"z": -0.2876005344,
				"element": "H" 
			},
			{
				"x": -1.6079620196,
				"y": 2.3046824096,
				"z": 1.2070990334,
				"element": "H" 
			}
		],
		 "valence_orbital": [ 
			{
				"type": "occ",
				"energy": -0.27272,
				"method": "rhf"
			},
			{
				"type": "occ",
				"energy": -0.27006,
				"method": "rhf"
			},
			{
				"type": "occ",
				"energy": -0.26184,
				"method": "rhf"
			},
			{
				"type": "occ",
				"energy": -0.25526,
				"method": "rhf"
			},
			{
				"type": "occ",
				"energy": -0.25051,
				"method": "rhf"
			},
			{
				"type": "unocc",
				"energy": -0.05785,
				"method": "rhf"
			},
			{
				"type": "unocc",
				"energy": -0.01083,
				"method": "rhf"
			},
			{
				"type": "unocc",
				"energy": -0.00174,
				"method": "rhf"
			},
			{
				"type": "unocc",
				"energy": 0.03178,
				"method": "rhf"
			},
			{
				"type": "unocc",
				"energy": 0.07961,
				"method": "rhf"
			}
		],
		"cosmo_sigma_profile": { 
			"-0.025": 0.0,
			"-0.024": 0.0,
			"-0.023": 0.0,
			"-0.022": 0.0,
			"-0.021": 0.0,
			"-0.02": 0.0,
			"-0.019": 0.0,
			"-0.018": 0.0,
			"-0.017": 0.0,
			"-0.016": 0.0,
			"-0.015": 0.0,
			"-0.014": 0.0,
			"-0.013": 0.0,
			"-0.012": 0.0,
			"-0.011": 0.0016049066417,
			"-0.01": 1.13224838075,
			"-0.009": 4.10366440754,
			"-0.008": 5.20600619759,
			"-0.007": 5.00543660896,
			"-0.006": 7.79730807393,
			"-0.005": 15.1138308471,
			"-0.004": 19.4713879652,
			"-0.003": 18.0930479397,
			"-0.002": 19.5363579541,
			"-0.001": 21.6326392688,
			"0.0": 18.9010530286,
			"0.001": 12.0161885461,
			"0.002": 11.1357250639,
			"0.003": 13.2740910691,
			"0.004": 16.0405133216,
			"0.005": 11.7779971796,
			"0.006": 10.3008768983,
			"0.007": 2.19635747644,
			"0.008": 2.17290275589,
			"0.009": 2.79086791256,
			"0.01": 2.45332660275,
			"0.011": 4.02560225764,
			"0.012": 3.12324782761,
			"0.013": 1.19940429921,
			"0.014": 0.0069972114121,
			"0.015": 0.0,
			"0.016": 0.0,
			"0.017": 0.0,
			"0.018": 0.0,
			"0.019": 0.0,
			"0.02": 0.0,
			"0.021": 0.0,
			"0.022": 0.0,
			"0.023": 0.0,
			"0.024": 0.0,
			"0.025": 0.0
		}
	}
}
