{
	 "smiles": "CC(C)(C)NCC(O)COC1=CC=CC=C1C1CCCC1", 
	 "Tm": 341.15, 
	 "num_atms": 50, 
	 "gaussian": { 
		 "optdone": 1, 
		 "sigma_profile": "yes", 
		 "theory": "DFT", 
		 "functional": "B3LYP", 
		 "basiset": "6-31G**", 
		 "properties": { 
			 "R2extent": 9371.1507, 
			 "electric_dipole_moment_norm": 0.919623248945, 
			 "electric_quadrupole_moment_norm": 7.57420422355, 
			 "total_energy": -908.596208964, 
			 "HOMO_LUMO_gap": 0.21406, 
			 "cosmo_polarized_energy": -8.75, 
			 "cosmo_cavitation_energy": 48.09, 
			 "cosmo_dispersion_energy": -32.48, 
			 "cosmo_repulsion_energy": 2.51, 
			 "cosmo_total_nonelectrostatic_energy": 18.12, 
			 "SMD_solvation_energy": 6.61 
		},
		"coords": [
			{
				"x": -0.6940519434,
				"y": -5.3222083004,
				"z": -1.6967318627,
				"element": "C" 
			},
			{
				"x": -0.0453751351,
				"y": -4.0819222696,
				"z": -2.3526958443,
				"element": "C" 
			},
			{
				"x": -0.6169514384,
				"y": -3.8785275798,
				"z": -3.766992948,
				"element": "C" 
			},
			{
				"x": 1.4752734928,
				"y": -4.2941074727,
				"z": -2.4485286533,
				"element": "C" 
			},
			{
				"x": -0.234134231,
				"y": -2.8431741315,
				"z": -1.5670959204,
				"element": "N" 
			},
			{
				"x": -1.5961441486,
				"y": -2.4162284398,
				"z": -1.2628392201,
				"element": "C" 
			},
			{
				"x": -1.5640806507,
				"y": -1.1536513288,
				"z": -0.3983899463,
				"element": "C" 
			},
			{
				"x": -0.8976622018,
				"y": -1.4912317878,
				"z": 0.8147926034,
				"element": "O" 
			},
			{
				"x": -0.8345809524,
				"y": 0.0037192367,
				"z": -1.0877327726,
				"element": "C" 
			},
			{
				"x": -0.6721319279,
				"y": 1.1117384198,
				"z": -0.1905329164,
				"element": "O" 
			},
			{
				"x": -1.6221319633,
				"y": 2.1071674943,
				"z": -0.1214906344,
				"element": "C" 
			},
			{
				"x": -2.8777470314,
				"y": 2.0200373126,
				"z": -0.731281515,
				"element": "C" 
			},
			{
				"x": -3.7872454456,
				"y": 3.0752962987,
				"z": -0.6225907701,
				"element": "C" 
			},
			{
				"x": -3.4498711155,
				"y": 4.2162988169,
				"z": 0.0973187562,
				"element": "C" 
			},
			{
				"x": -2.1940625777,
				"y": 4.2903571206,
				"z": 0.7045684104,
				"element": "C" 
			},
			{
				"x": -1.2550849457,
				"y": 3.2578988666,
				"z": 0.6152732896,
				"element": "C" 
			},
			{
				"x": 0.0922639537,
				"y": 3.401013658,
				"z": 1.2971856859,
				"element": "C" 
			},
			{
				"x": 0.338393393,
				"y": 2.4253114095,
				"z": 2.4834990978,
				"element": "C" 
			},
			{
				"x": 1.8678578077,
				"y": 2.3252774673,
				"z": 2.5759648881,
				"element": "C" 
			},
			{
				"x": 2.3020345862,
				"y": 2.2665996322,
				"z": 1.1012237182,
				"element": "C" 
			},
			{
				"x": 1.3538023251,
				"y": 3.2490676617,
				"z": 0.3746409966,
				"element": "C" 
			},
			{
				"x": -1.781744846,
				"y": -5.2218287331,
				"z": -1.6251622364,
				"element": "H" 
			},
			{
				"x": -0.4861254659,
				"y": -6.2270653512,
				"z": -2.278280757,
				"element": "H" 
			},
			{
				"x": -0.3020636781,
				"y": -5.4763212975,
				"z": -0.6848392901,
				"element": "H" 
			},
			{
				"x": -0.1940914571,
				"y": -2.9775026615,
				"z": -4.2219388485,
				"element": "H" 
			},
			{
				"x": -1.707342497,
				"y": -3.7791438864,
				"z": -3.7581313577,
				"element": "H" 
			},
			{
				"x": -0.3743133712,
				"y": -4.7354018764,
				"z": -4.4035647017,
				"element": "H" 
			},
			{
				"x": 1.7115269264,
				"y": -5.1823400508,
				"z": -3.0430009794,
				"element": "H" 
			},
			{
				"x": 1.9535574836,
				"y": -3.4250918159,
				"z": -2.9098367571,
				"element": "H" 
			},
			{
				"x": 1.9134906303,
				"y": -4.4336091323,
				"z": -1.4529319606,
				"element": "H" 
			},
			{
				"x": 0.2530034421,
				"y": -2.9356115113,
				"z": -0.6778271424,
				"element": "H" 
			},
			{
				"x": -2.1310247059,
				"y": -2.1884347682,
				"z": -2.1926366248,
				"element": "H" 
			},
			{
				"x": -2.197069699,
				"y": -3.1681795745,
				"z": -0.723378804,
				"element": "H" 
			},
			{
				"x": -2.6029339115,
				"y": -0.8560047183,
				"z": -0.1838884706,
				"element": "H" 
			},
			{
				"x": -0.6653149551,
				"y": -0.656292589,
				"z": 1.2455798116,
				"element": "H" 
			},
			{
				"x": 0.1759338141,
				"y": -0.3183141749,
				"z": -1.3430599126,
				"element": "H" 
			},
			{
				"x": -1.3423593503,
				"y": 0.3145574955,
				"z": -2.007323315,
				"element": "H" 
			},
			{
				"x": -3.1616098902,
				"y": 1.1340891473,
				"z": -1.2859761195,
				"element": "H" 
			},
			{
				"x": -4.758439238,
				"y": 2.991356459,
				"z": -1.1018030948,
				"element": "H" 
			},
			{
				"x": -4.1503168107,
				"y": 5.0407688387,
				"z": 0.1882999206,
				"element": "H" 
			},
			{
				"x": -1.9239582886,
				"y": 5.1824503863,
				"z": 1.264593835,
				"element": "H" 
			},
			{
				"x": 0.1137857699,
				"y": 4.4147535137,
				"z": 1.7137157033,
				"element": "H" 
			},
			{
				"x": -0.1364794268,
				"y": 2.7753865523,
				"z": 3.4056886184,
				"element": "H" 
			},
			{
				"x": -0.0828395532,
				"y": 1.4412123922,
				"z": 2.2532931451,
				"element": "H" 
			},
			{
				"x": 2.2086761225,
				"y": 1.4650127118,
				"z": 3.1618077342,
				"element": "H" 
			},
			{
				"x": 2.2737874231,
				"y": 3.2266931597,
				"z": 3.0544318238,
				"element": "H" 
			},
			{
				"x": 3.3592788563,
				"y": 2.5100437833,
				"z": 0.9541388971,
				"element": "H" 
			},
			{
				"x": 2.1449966753,
				"y": 1.2515793054,
				"z": 0.7185019686,
				"element": "H" 
			},
			{
				"x": 1.8296178475,
				"y": 4.2275447889,
				"z": 0.2482432497,
				"element": "H" 
			},
			{
				"x": 1.0893023033,
				"y": 2.8906615226,
				"z": -0.6216787782,
				"element": "H" 
			}
		],
		 "valence_orbital": [ 
			{
				"type": "occ",
				"energy": -0.30178,
				"method": "rhf"
			},
			{
				"type": "occ",
				"energy": -0.26968,
				"method": "rhf"
			},
			{
				"type": "occ",
				"energy": -0.24089,
				"method": "rhf"
			},
			{
				"type": "occ",
				"energy": -0.21889,
				"method": "rhf"
			},
			{
				"type": "occ",
				"energy": -0.21251,
				"method": "rhf"
			},
			{
				"type": "unocc",
				"energy": 0.00155,
				"method": "rhf"
			},
			{
				"type": "unocc",
				"energy": 0.01201,
				"method": "rhf"
			},
			{
				"type": "unocc",
				"energy": 0.05903,
				"method": "rhf"
			},
			{
				"type": "unocc",
				"energy": 0.07489,
				"method": "rhf"
			},
			{
				"type": "unocc",
				"energy": 0.0865,
				"method": "rhf"
			}
		],
		"cosmo_sigma_profile": { 
			"-0.025": 0.0,
			"-0.024": 0.0,
			"-0.023": 0.0,
			"-0.022": 0.0,
			"-0.021": 0.0,
			"-0.02": 0.0,
			"-0.019": 0.0,
			"-0.018": 0.0,
			"-0.017": 0.0,
			"-0.016": 0.0,
			"-0.015": 0.0,
			"-0.014": 0.0,
			"-0.013": 0.0,
			"-0.012": 0.0,
			"-0.011": 0.0,
			"-0.01": 0.0122885113547,
			"-0.009": 0.981201362875,
			"-0.008": 1.64955451736,
			"-0.007": 3.48568777862,
			"-0.006": 7.16628659753,
			"-0.005": 12.8997686285,
			"-0.004": 18.7820840031,
			"-0.003": 31.37711106,
			"-0.002": 53.1873040606,
			"-0.001": 48.673434479,
			"0.0": 48.1909996742,
			"0.001": 48.7365490568,
			"0.002": 34.858581638,
			"0.003": 14.1341968612,
			"0.004": 10.5294787135,
			"0.005": 10.2328642112,
			"0.006": 10.7615508159,
			"0.007": 6.09337913923,
			"0.008": 2.04306275232,
			"0.009": 1.55221712302,
			"0.01": 1.73672603942,
			"0.011": 1.58339985945,
			"0.012": 1.66436781784,
			"0.013": 1.21816323759,
			"0.014": 0.937258494422,
			"0.015": 0.165281130009,
			"0.016": 0.0,
			"0.017": 0.0,
			"0.018": 0.0,
			"0.019": 0.0,
			"0.02": 0.0,
			"0.021": 0.0,
			"0.022": 0.0,
			"0.023": 0.0,
			"0.024": 0.0,
			"0.025": 0.0
		}
	}
}
