{
	 "smiles": "COC(=O)C1CC(=O)C(CC1=O)C(=O)OC", 
	 "Tm": 429.15, 
	 "num_atms": 28, 
	 "gaussian": { 
		 "optdone": 1, 
		 "sigma_profile": "yes", 
		 "theory": "DFT", 
		 "functional": "B3LYP", 
		 "basiset": "6-31G**", 
		 "properties": { 
			 "R2extent": 4079.7939, 
			 "electric_dipole_moment_norm": 3.44138604925, 
			 "electric_quadrupole_moment_norm": 23.3781131371, 
			 "total_energy": -839.638469053, 
			 "HOMO_LUMO_gap": 0.19769, 
			 "cosmo_polarized_energy": -17.41, 
			 "cosmo_cavitation_energy": 32.26, 
			 "cosmo_dispersion_energy": -22.13, 
			 "cosmo_repulsion_energy": 1.77, 
			 "cosmo_total_nonelectrostatic_energy": 11.9, 
			 "SMD_solvation_energy": 9.53 
		},
		"coords": [
			{
				"x": 1.2070995682,
				"y": 0.6349605248,
				"z": -3.9487525186,
				"element": "C" 
			},
			{
				"x": 0.6211214981,
				"y": 1.0463465896,
				"z": -2.6970438579,
				"element": "O" 
			},
			{
				"x": 0.2169771075,
				"y": 0.0499218329,
				"z": -1.8946231866,
				"element": "C" 
			},
			{
				"x": 0.3146952682,
				"y": -1.1300137258,
				"z": -2.1700371711,
				"element": "O" 
			},
			{
				"x": -0.3786086849,
				"y": 0.5764710344,
				"z": -0.5948004265,
				"element": "C" 
			},
			{
				"x": -1.7971602878,
				"y": -0.0123998367,
				"z": -0.3973757495,
				"element": "C" 
			},
			{
				"x": -1.8176972857,
				"y": -1.4845306697,
				"z": -0.0071320697,
				"element": "C" 
			},
			{
				"x": -2.6284684874,
				"y": -2.259157682,
				"z": -0.4666753455,
				"element": "O" 
			},
			{
				"x": -0.8195995578,
				"y": -1.9435040363,
				"z": 1.0769964969,
				"element": "C" 
			},
			{
				"x": 0.5823465388,
				"y": -1.2967976046,
				"z": 0.9161951799,
				"element": "C" 
			},
			{
				"x": 0.5444527354,
				"y": 0.1837711205,
				"z": 0.5790094076,
				"element": "C" 
			},
			{
				"x": 1.2153002274,
				"y": 1.0132096492,
				"z": 1.1543634628,
				"element": "O" 
			},
			{
				"x": -1.3785987627,
				"y": -1.6736129759,
				"z": 2.4732574098,
				"element": "C" 
			},
			{
				"x": -1.5685745024,
				"y": -2.5174519659,
				"z": 3.3168442188,
				"element": "O" 
			},
			{
				"x": -1.6087452825,
				"y": -0.3534271484,
				"z": 2.664402131,
				"element": "O" 
			},
			{
				"x": -2.0808547888,
				"y": 0.0120643333,
				"z": 3.9761475428,
				"element": "C" 
			},
			{
				"x": 0.4906559955,
				"y": 0.0512944737,
				"z": -4.5310962873,
				"element": "H" 
			},
			{
				"x": 1.4654928002,
				"y": 1.5579865828,
				"z": -4.4660939564,
				"element": "H" 
			},
			{
				"x": 2.0985853086,
				"y": 0.0293950923,
				"z": -3.7704452086,
				"element": "H" 
			},
			{
				"x": -0.4086703372,
				"y": 1.6662143327,
				"z": -0.6318216305,
				"element": "H" 
			},
			{
				"x": -2.4129057302,
				"y": 0.1112224118,
				"z": -1.2914693952,
				"element": "H" 
			},
			{
				"x": -2.2767364492,
				"y": 0.5346450451,
				"z": 0.4220690344,
				"element": "H" 
			},
			{
				"x": -0.7463906159,
				"y": -3.0288140171,
				"z": 0.9976827984,
				"element": "H" 
			},
			{
				"x": 1.1941628187,
				"y": -1.4356564169,
				"z": 1.8106966204,
				"element": "H" 
			},
			{
				"x": 1.0776033129,
				"y": -1.7994558716,
				"z": 0.0776123568,
				"element": "H" 
			},
			{
				"x": -1.3541002126,
				"y": -0.2830261237,
				"z": 4.7360502521,
				"element": "H" 
			},
			{
				"x": -2.1956168107,
				"y": 1.0951378792,
				"z": 3.9550262861,
				"element": "H" 
			},
			{
				"x": -3.0353653836,
				"y": -0.4756928277,
				"z": 4.1861136056,
				"element": "H" 
			}
		],
		 "valence_orbital": [ 
			{
				"type": "occ",
				"energy": -0.318,
				"method": "rhf"
			},
			{
				"type": "occ",
				"energy": -0.29306,
				"method": "rhf"
			},
			{
				"type": "occ",
				"energy": -0.2881,
				"method": "rhf"
			},
			{
				"type": "occ",
				"energy": -0.26034,
				"method": "rhf"
			},
			{
				"type": "occ",
				"energy": -0.25394,
				"method": "rhf"
			},
			{
				"type": "unocc",
				"energy": -0.05625,
				"method": "rhf"
			},
			{
				"type": "unocc",
				"energy": -0.0237,
				"method": "rhf"
			},
			{
				"type": "unocc",
				"energy": -0.00094,
				"method": "rhf"
			},
			{
				"type": "unocc",
				"energy": 0.0113,
				"method": "rhf"
			},
			{
				"type": "unocc",
				"energy": 0.08501,
				"method": "rhf"
			}
		],
		"cosmo_sigma_profile": { 
			"-0.025": 0.0,
			"-0.024": 0.0,
			"-0.023": 0.0,
			"-0.022": 0.0,
			"-0.021": 0.0,
			"-0.02": 0.0,
			"-0.019": 0.0,
			"-0.018": 0.0,
			"-0.017": 0.0,
			"-0.016": 0.0,
			"-0.015": 0.0,
			"-0.014": 0.0,
			"-0.013": 0.0,
			"-0.012": 0.0,
			"-0.011": 0.0,
			"-0.01": 0.0,
			"-0.009": 0.0,
			"-0.008": 2.5956238614,
			"-0.007": 16.6376788643,
			"-0.006": 26.7890543339,
			"-0.005": 30.4080995976,
			"-0.004": 27.3960157,
			"-0.003": 18.6389169099,
			"-0.002": 13.6280346753,
			"-0.001": 12.3559919317,
			"0.0": 9.70515324146,
			"0.001": 7.91083293079,
			"0.002": 7.57306826892,
			"0.003": 6.99291763036,
			"0.004": 7.66689585949,
			"0.005": 6.05096442423,
			"0.006": 7.35236619411,
			"0.007": 6.8997098811,
			"0.008": 7.20368836377,
			"0.009": 8.02958843028,
			"0.01": 11.9824271039,
			"0.011": 15.0545746465,
			"0.012": 3.53241967901,
			"0.013": 0.0,
			"0.014": 0.0,
			"0.015": 0.0,
			"0.016": 0.0,
			"0.017": 0.0,
			"0.018": 0.0,
			"0.019": 0.0,
			"0.02": 0.0,
			"0.021": 0.0,
			"0.022": 0.0,
			"0.023": 0.0,
			"0.024": 0.0,
			"0.025": 0.0
		}
	}
}
