{
	 "smiles": "CC1CCC2=C(C1)C=C(S2)C(O)=O", 
	 "Tm": 407.15, 
	 "num_atms": 25, 
	 "gaussian": { 
		 "optdone": 1, 
		 "sigma_profile": "yes", 
		 "theory": "DFT", 
		 "functional": "B3LYP", 
		 "basiset": "6-31G**", 
		 "properties": { 
			 "R2extent": 3849.317, 
			 "electric_dipole_moment_norm": 6.24146332441, 
			 "electric_quadrupole_moment_norm": 26.5587011636, 
			 "total_energy": -936.947622871, 
			 "HOMO_LUMO_gap": 0.18292, 
			 "cosmo_polarized_energy": -14.99, 
			 "cosmo_cavitation_energy": 28.59, 
			 "cosmo_dispersion_energy": -21.56, 
			 "cosmo_repulsion_energy": 1.66, 
			 "cosmo_total_nonelectrostatic_energy": 8.69, 
			 "SMD_solvation_energy": 5.01 
		},
		"coords": [
			{
				"x": -1.0123478874,
				"y": 2.6721456343,
				"z": -0.2435321255,
				"element": "C" 
			},
			{
				"x": -0.7263883109,
				"y": 1.4377291317,
				"z": -1.1132531981,
				"element": "C" 
			},
			{
				"x": 0.7794825741,
				"y": 1.2524518038,
				"z": -1.3967386606,
				"element": "C" 
			},
			{
				"x": 1.5999327896,
				"y": 0.9912558993,
				"z": -0.1181630625,
				"element": "C" 
			},
			{
				"x": 0.9020375189,
				"y": -0.0155970923,
				"z": 0.7539779808,
				"element": "C" 
			},
			{
				"x": -0.4180374673,
				"y": -0.3900068401,
				"z": 0.6184791397,
				"element": "C" 
			},
			{
				"x": -1.2996988357,
				"y": 0.1463860657,
				"z": -0.4859786248,
				"element": "C" 
			},
			{
				"x": -0.8070227873,
				"y": -1.3373897161,
				"z": 1.6086759294,
				"element": "C" 
			},
			{
				"x": 0.2041934958,
				"y": -1.6696429633,
				"z": 2.4821068035,
				"element": "C" 
			},
			{
				"x": 1.6743151912,
				"y": -0.8189981112,
				"z": 2.0855695012,
				"element": "S" 
			},
			{
				"x": 0.2299045091,
				"y": -2.6081321458,
				"z": 3.6207344152,
				"element": "C" 
			},
			{
				"x": -0.9631483293,
				"y": -3.1501359243,
				"z": 3.9902953028,
				"element": "O" 
			},
			{
				"x": 1.2413179362,
				"y": -2.9039686551,
				"z": 4.2166383814,
				"element": "O" 
			},
			{
				"x": -2.0905507864,
				"y": 2.8407182368,
				"z": -0.1514661765,
				"element": "H" 
			},
			{
				"x": -0.5708571837,
				"y": 3.5740339104,
				"z": -0.681559575,
				"element": "H" 
			},
			{
				"x": -0.6115537106,
				"y": 2.5596762719,
				"z": 0.7691959184,
				"element": "H" 
			},
			{
				"x": -1.2274500526,
				"y": 1.5877935382,
				"z": -2.0780944462,
				"element": "H" 
			},
			{
				"x": 0.9085712999,
				"y": 0.4048118976,
				"z": -2.081405917,
				"element": "H" 
			},
			{
				"x": 1.1774678005,
				"y": 2.1358791779,
				"z": -1.908820044,
				"element": "H" 
			},
			{
				"x": 2.6063563753,
				"y": 0.6461628981,
				"z": -0.3821857097,
				"element": "H" 
			},
			{
				"x": 1.7389026984,
				"y": 1.9270539346,
				"z": 0.4403872215,
				"element": "H" 
			},
			{
				"x": -1.4057187813,
				"y": -0.620528044,
				"z": -1.2663256515,
				"element": "H" 
			},
			{
				"x": -2.311944557,
				"y": 0.3308847556,
				"z": -0.104409689,
				"element": "H" 
			},
			{
				"x": -1.8069022525,
				"y": -1.7630178649,
				"z": 1.6427225632,
				"element": "H" 
			},
			{
				"x": -1.6879612471,
				"y": -2.7491657987,
				"z": 3.4916497232,
				"element": "H" 
			}
		],
		 "valence_orbital": [ 
			{
				"type": "occ",
				"energy": -0.32242,
				"method": "rhf"
			},
			{
				"type": "occ",
				"energy": -0.31118,
				"method": "rhf"
			},
			{
				"type": "occ",
				"energy": -0.27162,
				"method": "rhf"
			},
			{
				"type": "occ",
				"energy": -0.25872,
				"method": "rhf"
			},
			{
				"type": "occ",
				"energy": -0.23718,
				"method": "rhf"
			},
			{
				"type": "unocc",
				"energy": -0.05426,
				"method": "rhf"
			},
			{
				"type": "unocc",
				"energy": 0.02257,
				"method": "rhf"
			},
			{
				"type": "unocc",
				"energy": 0.02972,
				"method": "rhf"
			},
			{
				"type": "unocc",
				"energy": 0.05541,
				"method": "rhf"
			},
			{
				"type": "unocc",
				"energy": 0.07127,
				"method": "rhf"
			}
		],
		"cosmo_sigma_profile": { 
			"-0.025": 0.0,
			"-0.024": 0.0,
			"-0.023": 0.0,
			"-0.022": 0.0,
			"-0.021": 0.0,
			"-0.02": 0.0,
			"-0.019": 0.410742216139,
			"-0.018": 0.769642309373,
			"-0.017": 0.938910903186,
			"-0.016": 1.27014998686,
			"-0.015": 0.832365530921,
			"-0.014": 1.08170546103,
			"-0.013": 0.994293303103,
			"-0.012": 1.41074366255,
			"-0.011": 1.21958368296,
			"-0.01": 1.07361462169,
			"-0.009": 0.781771481076,
			"-0.008": 1.53142033681,
			"-0.007": 2.63868753818,
			"-0.006": 2.05387281827,
			"-0.005": 4.69918237534,
			"-0.004": 11.3682998612,
			"-0.003": 24.9499222198,
			"-0.002": 33.4729720217,
			"-0.001": 28.6637990824,
			"0.0": 20.3917233618,
			"0.001": 16.6012020176,
			"0.002": 14.1310548665,
			"0.003": 15.7792315156,
			"0.004": 7.31101668723,
			"0.005": 3.20832245854,
			"0.006": 2.52620906395,
			"0.007": 2.80284875364,
			"0.008": 2.53800869231,
			"0.009": 3.413137712,
			"0.01": 4.580712353,
			"0.011": 5.25222569736,
			"0.012": 5.76914759437,
			"0.013": 2.04830804788,
			"0.014": 0.214122929587,
			"0.015": 0.0,
			"0.016": 0.0,
			"0.017": 0.0,
			"0.018": 0.0,
			"0.019": 0.0,
			"0.02": 0.0,
			"0.021": 0.0,
			"0.022": 0.0,
			"0.023": 0.0,
			"0.024": 0.0,
			"0.025": 0.0
		}
	}
}
