{
	 "smiles": "O=C1N2C=CC=CC2=CC2=CC=CC=C12", 
	 "Tm": 439.15, 
	 "num_atms": 24, 
	 "gaussian": { 
		 "optdone": 1, 
		 "sigma_profile": "yes", 
		 "theory": "DFT", 
		 "functional": "B3LYP", 
		 "basiset": "6-31G**", 
		 "properties": { 
			 "R2extent": 3259.1355, 
			 "electric_dipole_moment_norm": 3.23430519741, 
			 "electric_quadrupole_moment_norm": 13.8550794234, 
			 "total_energy": -630.79802394, 
			 "HOMO_LUMO_gap": 0.1277, 
			 "cosmo_polarized_energy": -9.67, 
			 "cosmo_cavitation_energy": 27.6, 
			 "cosmo_dispersion_energy": -20.88, 
			 "cosmo_repulsion_energy": 1.56, 
			 "cosmo_total_nonelectrostatic_energy": 8.28, 
			 "SMD_solvation_energy": 5.24 
		},
		"coords": [
			{
				"x": -0.7100312653,
				"y": -0.714102533,
				"z": -1.3387025797,
				"element": "O" 
			},
			{
				"x": -0.2134902108,
				"y": -0.2083932053,
				"z": -0.3354577788,
				"element": "C" 
			},
			{
				"x": -1.0672597402,
				"y": 0.4506277585,
				"z": 0.6154249369,
				"element": "N" 
			},
			{
				"x": -2.4238579803,
				"y": 0.4664497871,
				"z": 0.3195921523,
				"element": "C" 
			},
			{
				"x": -3.3256504144,
				"y": 1.0576807182,
				"z": 1.1401231353,
				"element": "C" 
			},
			{
				"x": -2.8732022475,
				"y": 1.6849086034,
				"z": 2.346692534,
				"element": "C" 
			},
			{
				"x": -1.5471378639,
				"y": 1.6771596421,
				"z": 2.6494900863,
				"element": "C" 
			},
			{
				"x": -0.5766714829,
				"y": 1.0550426228,
				"z": 1.7913017322,
				"element": "C" 
			},
			{
				"x": 0.7708593167,
				"y": 1.0285330957,
				"z": 2.0663941188,
				"element": "C" 
			},
			{
				"x": 1.6888639671,
				"y": 0.3994556555,
				"z": 1.1835717834,
				"element": "C" 
			},
			{
				"x": 3.0842728617,
				"y": 0.3540916336,
				"z": 1.4371554158,
				"element": "C" 
			},
			{
				"x": 3.9424696157,
				"y": -0.2679481108,
				"z": 0.5523343908,
				"element": "C" 
			},
			{
				"x": 3.4513848385,
				"y": -0.8732116194,
				"z": -0.6250527679,
				"element": "C" 
			},
			{
				"x": 2.0967767884,
				"y": -0.8435878631,
				"z": -0.896411135,
				"element": "C" 
			},
			{
				"x": 1.2041938434,
				"y": -0.2131019269,
				"z": -0.0051212068,
				"element": "C" 
			},
			{
				"x": -2.6629800001,
				"y": -0.0315962261,
				"z": -0.6098373883,
				"element": "H" 
			},
			{
				"x": -4.3758448854,
				"y": 1.0484766793,
				"z": 0.8735047738,
				"element": "H" 
			},
			{
				"x": -3.5866933955,
				"y": 2.161541541,
				"z": 3.0113139998,
				"element": "H" 
			},
			{
				"x": -1.1715689192,
				"y": 2.1427468847,
				"z": 3.554591918,
				"element": "H" 
			},
			{
				"x": 1.1234559717,
				"y": 1.5001525376,
				"z": 2.9766769037,
				"element": "H" 
			},
			{
				"x": 3.4680123555,
				"y": 0.8181987204,
				"z": 2.341674471,
				"element": "H" 
			},
			{
				"x": 5.0079866853,
				"y": -0.2921693833,
				"z": 0.7641684569,
				"element": "H" 
			},
			{
				"x": 4.1375363246,
				"y": -1.3588580921,
				"z": -1.3119526962,
				"element": "H" 
			},
			{
				"x": 1.6842758368,
				"y": -1.2979969196,
				"z": -1.7907752566,
				"element": "H" 
			}
		],
		 "valence_orbital": [ 
			{
				"type": "occ",
				"energy": -0.30125,
				"method": "rhf"
			},
			{
				"type": "occ",
				"energy": -0.26181,
				"method": "rhf"
			},
			{
				"type": "occ",
				"energy": -0.26046,
				"method": "rhf"
			},
			{
				"type": "occ",
				"energy": -0.25336,
				"method": "rhf"
			},
			{
				"type": "occ",
				"energy": -0.18495,
				"method": "rhf"
			},
			{
				"type": "unocc",
				"energy": -0.05725,
				"method": "rhf"
			},
			{
				"type": "unocc",
				"energy": -0.03898,
				"method": "rhf"
			},
			{
				"type": "unocc",
				"energy": -0.00793,
				"method": "rhf"
			},
			{
				"type": "unocc",
				"energy": 0.04517,
				"method": "rhf"
			},
			{
				"type": "unocc",
				"energy": 0.06191,
				"method": "rhf"
			}
		],
		"cosmo_sigma_profile": { 
			"-0.025": 0.0,
			"-0.024": 0.0,
			"-0.023": 0.0,
			"-0.022": 0.0,
			"-0.021": 0.0,
			"-0.02": 0.0,
			"-0.019": 0.0,
			"-0.018": 0.0,
			"-0.017": 0.0,
			"-0.016": 0.0,
			"-0.015": 0.0,
			"-0.014": 0.0,
			"-0.013": 0.0,
			"-0.012": 0.0,
			"-0.011": 0.0,
			"-0.01": 0.0,
			"-0.009": 0.0,
			"-0.008": 1.17213550119,
			"-0.007": 9.25456739831,
			"-0.006": 17.0101182605,
			"-0.005": 17.3509003591,
			"-0.004": 14.5432523292,
			"-0.003": 13.4149646556,
			"-0.002": 15.1438636062,
			"-0.001": 15.1864269467,
			"0.0": 15.8248162175,
			"0.001": 18.793677654,
			"0.002": 20.9828470903,
			"0.003": 23.6160273028,
			"0.004": 16.6850555713,
			"0.005": 7.47806826487,
			"0.006": 1.59237968249,
			"0.007": 1.52163455121,
			"0.008": 1.31894471678,
			"0.009": 0.925115288675,
			"0.01": 1.92920788952,
			"0.011": 1.56220028918,
			"0.012": 2.42493570419,
			"0.013": 4.44708373309,
			"0.014": 0.626668614301,
			"0.015": 0.0,
			"0.016": 0.0,
			"0.017": 0.0,
			"0.018": 0.0,
			"0.019": 0.0,
			"0.02": 0.0,
			"0.021": 0.0,
			"0.022": 0.0,
			"0.023": 0.0,
			"0.024": 0.0,
			"0.025": 0.0
		}
	}
}
