{
	 "smiles": "CC(C)(C)OC(=O)NC1CCC(C1)C(O)=O", 
	 "Tm": 385.15, 
	 "num_atms": 35, 
	 "gaussian": { 
		 "optdone": 1, 
		 "sigma_profile": "yes", 
		 "theory": "DFT", 
		 "functional": "B3LYP", 
		 "basiset": "6-31G**", 
		 "properties": { 
			 "R2extent": 5885.7639, 
			 "electric_dipole_moment_norm": 3.84635409446, 
			 "electric_quadrupole_moment_norm": 31.4869088154, 
			 "total_energy": -786.319252771, 
			 "HOMO_LUMO_gap": 0.24369, 
			 "cosmo_polarized_energy": -20.86, 
			 "cosmo_cavitation_energy": 36.65, 
			 "cosmo_dispersion_energy": -24.91, 
			 "cosmo_repulsion_energy": 1.97, 
			 "cosmo_total_nonelectrostatic_energy": 13.71, 
			 "SMD_solvation_energy": 7.44 
		},
		"coords": [
			{
				"x": -1.1047095844,
				"y": 2.6088354438,
				"z": 1.9636685178,
				"element": "C" 
			},
			{
				"x": -1.3304460661,
				"y": 1.6136952803,
				"z": 0.8204278844,
				"element": "C" 
			},
			{
				"x": -2.5057634944,
				"y": 0.6695810199,
				"z": 1.096349707,
				"element": "C" 
			},
			{
				"x": -1.5232510462,
				"y": 2.3479090811,
				"z": -0.509053365,
				"element": "C" 
			},
			{
				"x": -0.1058847623,
				"y": 0.8346257222,
				"z": 0.5803774945,
				"element": "O" 
			},
			{
				"x": 0.4199394303,
				"y": 0.0506199589,
				"z": 1.5515386043,
				"element": "C" 
			},
			{
				"x": -0.0519247808,
				"y": -0.1408650898,
				"z": 2.6622488136,
				"element": "O" 
			},
			{
				"x": 1.5943489809,
				"y": -0.5183674874,
				"z": 1.1342360851,
				"element": "N" 
			},
			{
				"x": 2.1688047943,
				"y": -0.4497772911,
				"z": -0.2016007932,
				"element": "C" 
			},
			{
				"x": 1.6207553899,
				"y": -1.5093777236,
				"z": -1.2169947181,
				"element": "C" 
			},
			{
				"x": 2.8291473075,
				"y": -2.3749518074,
				"z": -1.6273862353,
				"element": "C" 
			},
			{
				"x": 4.0492451725,
				"y": -1.4296802924,
				"z": -1.4425643912,
				"element": "C" 
			},
			{
				"x": 3.7012454323,
				"y": -0.6755269906,
				"z": -0.151696306,
				"element": "C" 
			},
			{
				"x": 4.1865055159,
				"y": -0.4820366445,
				"z": -2.6330105105,
				"element": "C" 
			},
			{
				"x": 4.6511112623,
				"y": -1.050962907,
				"z": -3.779350759,
				"element": "O" 
			},
			{
				"x": 3.892328808,
				"y": 0.688247446,
				"z": -2.6211885414,
				"element": "O" 
			},
			{
				"x": -0.9446548596,
				"y": 2.0877451091,
				"z": 2.9077813437,
				"element": "H" 
			},
			{
				"x": -1.9791413633,
				"y": 3.2605179549,
				"z": 2.0614388195,
				"element": "H" 
			},
			{
				"x": -0.2343242587,
				"y": 3.2381884544,
				"z": 1.7523765739,
				"element": "H" 
			},
			{
				"x": -3.4335348055,
				"y": 1.2472122345,
				"z": 1.1635068364,
				"element": "H" 
			},
			{
				"x": -2.3574157008,
				"y": 0.1268988425,
				"z": 2.0300171625,
				"element": "H" 
			},
			{
				"x": -2.6134013403,
				"y": -0.0508831874,
				"z": 0.2790538098,
				"element": "H" 
			},
			{
				"x": -2.4192103859,
				"y": 2.9743826605,
				"z": -0.4658079739,
				"element": "H" 
			},
			{
				"x": -1.6383457319,
				"y": 1.6351803321,
				"z": -1.3309566379,
				"element": "H" 
			},
			{
				"x": -0.6627778208,
				"y": 2.9874059694,
				"z": -0.7261128234,
				"element": "H" 
			},
			{
				"x": 1.9605507141,
				"y": -1.1899375773,
				"z": 1.7936403798,
				"element": "H" 
			},
			{
				"x": 1.9632095223,
				"y": 0.5480552366,
				"z": -0.5859898093,
				"element": "H" 
			},
			{
				"x": 0.8166823815,
				"y": -2.1024020134,
				"z": -0.773900534,
				"element": "H" 
			},
			{
				"x": 1.2040020187,
				"y": -0.9984111216,
				"z": -2.0900706863,
				"element": "H" 
			},
			{
				"x": 2.7422567746,
				"y": -2.7817097124,
				"z": -2.6404842463,
				"element": "H" 
			},
			{
				"x": 2.946374464,
				"y": -3.2258346968,
				"z": -0.946761443,
				"element": "H" 
			},
			{
				"x": 4.9842837664,
				"y": -1.9974826737,
				"z": -1.3475550898,
				"element": "H" 
			},
			{
				"x": 4.251688289,
				"y": 0.2609679623,
				"z": -0.0468025992,
				"element": "H" 
			},
			{
				"x": 3.9555629899,
				"y": -1.3149357661,
				"z": 0.7032271001,
				"element": "H" 
			},
			{
				"x": 4.8526429869,
				"y": -1.9856257259,
				"z": -3.6300016694,
				"element": "H" 
			}
		],
		 "valence_orbital": [ 
			{
				"type": "occ",
				"energy": -0.32031,
				"method": "rhf"
			},
			{
				"type": "occ",
				"energy": -0.28326,
				"method": "rhf"
			},
			{
				"type": "occ",
				"energy": -0.27467,
				"method": "rhf"
			},
			{
				"type": "occ",
				"energy": -0.25546,
				"method": "rhf"
			},
			{
				"type": "occ",
				"energy": -0.2432,
				"method": "rhf"
			},
			{
				"type": "unocc",
				"energy": 0.00049,
				"method": "rhf"
			},
			{
				"type": "unocc",
				"energy": 0.04486,
				"method": "rhf"
			},
			{
				"type": "unocc",
				"energy": 0.05816,
				"method": "rhf"
			},
			{
				"type": "unocc",
				"energy": 0.07599,
				"method": "rhf"
			},
			{
				"type": "unocc",
				"energy": 0.08283,
				"method": "rhf"
			}
		],
		"cosmo_sigma_profile": { 
			"-0.025": 0.0,
			"-0.024": 0.0,
			"-0.023": 0.0,
			"-0.022": 0.0,
			"-0.021": 0.0,
			"-0.02": 0.0,
			"-0.019": 0.251828318393,
			"-0.018": 0.710103419851,
			"-0.017": 0.902553083127,
			"-0.016": 1.5442593868,
			"-0.015": 1.08769595028,
			"-0.014": 0.795704903272,
			"-0.013": 1.46771018015,
			"-0.012": 2.80100855859,
			"-0.011": 2.47645084333,
			"-0.01": 2.16759729823,
			"-0.009": 2.2139020851,
			"-0.008": 2.65558138271,
			"-0.007": 4.13841163,
			"-0.006": 4.80236977278,
			"-0.005": 6.62388368055,
			"-0.004": 24.0853637678,
			"-0.003": 30.4584253513,
			"-0.002": 27.1036144652,
			"-0.001": 31.518737967,
			"0.0": 31.3339306408,
			"0.001": 26.5347541889,
			"0.002": 9.49732771697,
			"0.003": 8.48277445573,
			"0.004": 7.65220191894,
			"0.005": 6.93079987934,
			"0.006": 6.91767436769,
			"0.007": 3.95354233435,
			"0.008": 4.02500795212,
			"0.009": 3.89960684513,
			"0.01": 5.83936454985,
			"0.011": 6.77046127753,
			"0.012": 6.27735668856,
			"0.013": 4.44570332333,
			"0.014": 3.41915527707,
			"0.015": 0.403756882232,
			"0.016": 0.0,
			"0.017": 0.0,
			"0.018": 0.0,
			"0.019": 0.0,
			"0.02": 0.0,
			"0.021": 0.0,
			"0.022": 0.0,
			"0.023": 0.0,
			"0.024": 0.0,
			"0.025": 0.0
		}
	}
}
