{
	 "smiles": "NC1=NC=C(CC2=C(F)C=CC=C2)S1", 
	 "Tm": 371.15, 
	 "num_atms": 23, 
	 "gaussian": { 
		 "optdone": 1, 
		 "sigma_profile": "yes", 
		 "theory": "DFT", 
		 "functional": "B3LYP", 
		 "basiset": "6-31G**", 
		 "properties": { 
			 "R2extent": 4041.6097, 
			 "electric_dipole_moment_norm": 2.41800666873, 
			 "electric_quadrupole_moment_norm": 8.39311737854, 
			 "total_energy": -994.01058432, 
			 "HOMO_LUMO_gap": 0.18967, 
			 "cosmo_polarized_energy": -12.1, 
			 "cosmo_cavitation_energy": 29.47, 
			 "cosmo_dispersion_energy": -21.44, 
			 "cosmo_repulsion_energy": 1.64, 
			 "cosmo_total_nonelectrostatic_energy": 9.67, 
			 "SMD_solvation_energy": 3.19 
		},
		"coords": [
			{
				"x": 4.436830335,
				"y": -0.3149753868,
				"z": 0.1125791446,
				"element": "N" 
			},
			{
				"x": 3.2323761708,
				"y": -0.6899117098,
				"z": -0.4456443282,
				"element": "C" 
			},
			{
				"x": 2.685739453,
				"y": -1.8587229838,
				"z": -0.2806550176,
				"element": "N" 
			},
			{
				"x": 1.5307370612,
				"y": -1.9590930107,
				"z": -1.0291476439,
				"element": "C" 
			},
			{
				"x": 1.1637781063,
				"y": -0.8811215411,
				"z": -1.7753301727,
				"element": "C" 
			},
			{
				"x": -0.0516815355,
				"y": -0.7034680257,
				"z": -2.6452442341,
				"element": "C" 
			},
			{
				"x": -1.0995179107,
				"y": 0.2298415599,
				"z": -2.0662210482,
				"element": "C" 
			},
			{
				"x": -1.9225625591,
				"y": -0.1947021568,
				"z": -1.0201834235,
				"element": "C" 
			},
			{
				"x": -1.7779776257,
				"y": -1.4608484109,
				"z": -0.5629113803,
				"element": "F" 
			},
			{
				"x": -2.8881201957,
				"y": 0.6162932627,
				"z": -0.4396692971,
				"element": "C" 
			},
			{
				"x": -3.0453735643,
				"y": 1.9189243108,
				"z": -0.9177214021,
				"element": "C" 
			},
			{
				"x": -2.2439074306,
				"y": 2.3798414067,
				"z": -1.9629768957,
				"element": "C" 
			},
			{
				"x": -1.2834292457,
				"y": 1.5375913867,
				"z": -2.5281729073,
				"element": "C" 
			},
			{
				"x": 2.3655492947,
				"y": 0.3916436598,
				"z": -1.5473048748,
				"element": "S" 
			},
			{
				"x": 4.7272608123,
				"y": -0.9427613981,
				"z": 0.8517845906,
				"element": "H" 
			},
			{
				"x": 4.5376840139,
				"y": 0.6616008375,
				"z": 0.3517547591,
				"element": "H" 
			},
			{
				"x": 0.9555055705,
				"y": -2.8774536083,
				"z": -0.9828777334,
				"element": "H" 
			},
			{
				"x": 0.2375909014,
				"y": -0.3381794002,
				"z": -3.6375882184,
				"element": "H" 
			},
			{
				"x": -0.4894201044,
				"y": -1.6968429911,
				"z": -2.7911408209,
				"element": "H" 
			},
			{
				"x": -3.4969242387,
				"y": 0.2222824917,
				"z": 0.3670350196,
				"element": "H" 
			},
			{
				"x": -3.7955272974,
				"y": 2.5667330756,
				"z": -0.47434332,
				"element": "H" 
			},
			{
				"x": -2.3664560644,
				"y": 3.3904342354,
				"z": -2.3401961381,
				"element": "H" 
			},
			{
				"x": -0.6634539469,
				"y": 1.8960943963,
				"z": -3.3462246577,
				"element": "H" 
			}
		],
		 "valence_orbital": [ 
			{
				"type": "occ",
				"energy": -0.2696,
				"method": "rhf"
			},
			{
				"type": "occ",
				"energy": -0.26705,
				"method": "rhf"
			},
			{
				"type": "occ",
				"energy": -0.25329,
				"method": "rhf"
			},
			{
				"type": "occ",
				"energy": -0.2414,
				"method": "rhf"
			},
			{
				"type": "occ",
				"energy": -0.20336,
				"method": "rhf"
			},
			{
				"type": "unocc",
				"energy": -0.01369,
				"method": "rhf"
			},
			{
				"type": "unocc",
				"energy": -0.00099,
				"method": "rhf"
			},
			{
				"type": "unocc",
				"energy": 0.00392,
				"method": "rhf"
			},
			{
				"type": "unocc",
				"energy": 0.01767,
				"method": "rhf"
			},
			{
				"type": "unocc",
				"energy": 0.06852,
				"method": "rhf"
			}
		],
		"cosmo_sigma_profile": { 
			"-0.025": 0.0,
			"-0.024": 0.0,
			"-0.023": 0.0,
			"-0.022": 0.0,
			"-0.021": 0.0,
			"-0.02": 0.0,
			"-0.019": 0.0,
			"-0.018": 0.0,
			"-0.017": 0.0,
			"-0.016": 0.0,
			"-0.015": 0.207387370763,
			"-0.014": 1.53356972358,
			"-0.013": 2.83622096608,
			"-0.012": 2.2763425941,
			"-0.011": 2.52270321219,
			"-0.01": 2.40095512808,
			"-0.009": 2.52304165439,
			"-0.008": 1.51760450288,
			"-0.007": 3.73160091734,
			"-0.006": 13.879670296,
			"-0.005": 16.6431559747,
			"-0.004": 16.1471026415,
			"-0.003": 12.4586792991,
			"-0.002": 13.0049920178,
			"-0.001": 11.9692929387,
			"0.0": 12.3639872566,
			"0.001": 14.9370645227,
			"0.002": 19.235359992,
			"0.003": 23.2572662196,
			"0.004": 25.5908688987,
			"0.005": 20.0059936879,
			"0.006": 3.5018933593,
			"0.007": 1.92413016224,
			"0.008": 2.06118885969,
			"0.009": 2.08951574346,
			"0.01": 2.40537059857,
			"0.011": 1.50547482065,
			"0.012": 1.59363718269,
			"0.013": 1.11642739959,
			"0.014": 0.902024835831,
			"0.015": 0.902598834467,
			"0.016": 0.560301183366,
			"0.017": 0.000333867320059,
			"0.018": 0.0,
			"0.019": 0.0,
			"0.02": 0.0,
			"0.021": 0.0,
			"0.022": 0.0,
			"0.023": 0.0,
			"0.024": 0.0,
			"0.025": 0.0
		}
	}
}
