{
	 "smiles": "CC(C)(C)NC(=O)C1=CC(N)=CC=C1", 
	 "Tm": 398.15, 
	 "num_atms": 30, 
	 "gaussian": { 
		 "optdone": 1, 
		 "sigma_profile": "yes", 
		 "theory": "DFT", 
		 "functional": "B3LYP", 
		 "basiset": "6-31G**", 
		 "properties": { 
			 "R2extent": 3316.9732, 
			 "electric_dipole_moment_norm": 2.60517524554, 
			 "electric_quadrupole_moment_norm": 21.1773922349, 
			 "total_energy": -613.564545838, 
			 "HOMO_LUMO_gap": 0.18805, 
			 "cosmo_polarized_energy": -14.97, 
			 "cosmo_cavitation_energy": 31.88, 
			 "cosmo_dispersion_energy": -22.21, 
			 "cosmo_repulsion_energy": 1.76, 
			 "cosmo_total_nonelectrostatic_energy": 11.43, 
			 "SMD_solvation_energy": 5.61 
		},
		"coords": [
			{
				"x": 1.0776183695,
				"y": -1.754434254,
				"z": 0.3776071478,
				"element": "C" 
			},
			{
				"x": 0.6653716824,
				"y": -1.9048453606,
				"z": -1.0987754171,
				"element": "C" 
			},
			{
				"x": 1.499151897,
				"y": -0.9635087418,
				"z": -1.9869015944,
				"element": "C" 
			},
			{
				"x": 0.915028275,
				"y": -3.3563510309,
				"z": -1.5504838808,
				"element": "C" 
			},
			{
				"x": -0.8019730532,
				"y": -1.6883694402,
				"z": -1.2806454076,
				"element": "N" 
			},
			{
				"x": -1.6775729209,
				"y": -0.8491679085,
				"z": -0.6170669163,
				"element": "C" 
			},
			{
				"x": -2.8311170705,
				"y": -1.2130751111,
				"z": -0.3996959532,
				"element": "O" 
			},
			{
				"x": -1.247704233,
				"y": 0.5390322891,
				"z": -0.2294309107,
				"element": "C" 
			},
			{
				"x": -1.5512981571,
				"y": 0.9746811223,
				"z": 1.0637095791,
				"element": "C" 
			},
			{
				"x": -1.2649730106,
				"y": 2.2869483096,
				"z": 1.4682777181,
				"element": "C" 
			},
			{
				"x": -1.4961604282,
				"y": 2.6927785605,
				"z": 2.7836578684,
				"element": "N" 
			},
			{
				"x": -0.6965897524,
				"y": 3.1708877912,
				"z": 0.5324717603,
				"element": "C" 
			},
			{
				"x": -0.431317426,
				"y": 2.7451500175,
				"z": -0.7656117114,
				"element": "C" 
			},
			{
				"x": -0.6958682377,
				"y": 1.4311696234,
				"z": -1.1581792703,
				"element": "C" 
			},
			{
				"x": 0.5058229274,
				"y": -2.4399948794,
				"z": 1.0115508827,
				"element": "H" 
			},
			{
				"x": 0.9144793396,
				"y": -0.736269843,
				"z": 0.7382654322,
				"element": "H" 
			},
			{
				"x": 2.1412018106,
				"y": -1.9871099696,
				"z": 0.495945035,
				"element": "H" 
			},
			{
				"x": 1.4259356796,
				"y": 0.0726854666,
				"z": -1.6535527554,
				"element": "H" 
			},
			{
				"x": 1.1632755409,
				"y": -1.0191105219,
				"z": -3.0270774641,
				"element": "H" 
			},
			{
				"x": 2.5544296091,
				"y": -1.254545119,
				"z": -1.9505085205,
				"element": "H" 
			},
			{
				"x": 1.9771454522,
				"y": -3.6029074758,
				"z": -1.4680302781,
				"element": "H" 
			},
			{
				"x": 0.6152638493,
				"y": -3.4976225658,
				"z": -2.5946998715,
				"element": "H" 
			},
			{
				"x": 0.3551628342,
				"y": -4.0643008581,
				"z": -0.9292246758,
				"element": "H" 
			},
			{
				"x": -1.3029686897,
				"y": -2.5443477476,
				"z": -1.4939609905,
				"element": "H" 
			},
			{
				"x": -2.0238930671,
				"y": 0.2823194901,
				"z": 1.7546986805,
				"element": "H" 
			},
			{
				"x": -2.1950849583,
				"y": 2.1561442541,
				"z": 3.2792134103,
				"element": "H" 
			},
			{
				"x": -1.6280738738,
				"y": 3.6870914017,
				"z": 2.9088891805,
				"element": "H" 
			},
			{
				"x": -0.4741682182,
				"y": 4.1933108695,
				"z": 0.8282470005,
				"element": "H" 
			},
			{
				"x": -0.0193496401,
				"y": 3.449771631,
				"z": -1.4827608258,
				"element": "H" 
			},
			{
				"x": -0.5163745301,
				"y": 1.1137900005,
				"z": -2.1786272522,
				"element": "H" 
			}
		],
		 "valence_orbital": [ 
			{
				"type": "occ",
				"energy": -0.30606,
				"method": "rhf"
			},
			{
				"type": "occ",
				"energy": -0.25648,
				"method": "rhf"
			},
			{
				"type": "occ",
				"energy": -0.24573,
				"method": "rhf"
			},
			{
				"type": "occ",
				"energy": -0.22841,
				"method": "rhf"
			},
			{
				"type": "occ",
				"energy": -0.20544,
				"method": "rhf"
			},
			{
				"type": "unocc",
				"energy": -0.01739,
				"method": "rhf"
			},
			{
				"type": "unocc",
				"energy": 0.01141,
				"method": "rhf"
			},
			{
				"type": "unocc",
				"energy": 0.04909,
				"method": "rhf"
			},
			{
				"type": "unocc",
				"energy": 0.07615,
				"method": "rhf"
			},
			{
				"type": "unocc",
				"energy": 0.08183,
				"method": "rhf"
			}
		],
		"cosmo_sigma_profile": { 
			"-0.025": 0.0,
			"-0.024": 0.0,
			"-0.023": 0.0,
			"-0.022": 0.0,
			"-0.021": 0.0,
			"-0.02": 0.0,
			"-0.019": 0.0,
			"-0.018": 0.0,
			"-0.017": 0.0,
			"-0.016": 0.0,
			"-0.015": 0.0,
			"-0.014": 0.0,
			"-0.013": 0.396893988327,
			"-0.012": 2.6644850982,
			"-0.011": 3.68558917021,
			"-0.01": 3.59688855115,
			"-0.009": 4.34357478029,
			"-0.008": 4.0332392579,
			"-0.007": 4.953437851,
			"-0.006": 5.41032336818,
			"-0.005": 9.28647125232,
			"-0.004": 16.9633852337,
			"-0.003": 24.6096240411,
			"-0.002": 21.9162069442,
			"-0.001": 24.4196879066,
			"0.0": 28.6528318053,
			"0.001": 22.0024934072,
			"0.002": 9.38116116675,
			"0.003": 9.19602024178,
			"0.004": 8.54218535084,
			"0.005": 10.7091512444,
			"0.006": 7.547864617,
			"0.007": 3.28978671386,
			"0.008": 2.43567885653,
			"0.009": 2.36289697924,
			"0.01": 2.54042283189,
			"0.011": 1.75494220241,
			"0.012": 2.95499462459,
			"0.013": 4.73921163542,
			"0.014": 5.30220476404,
			"0.015": 1.63933895314,
			"0.016": 0.0155444903729,
			"0.017": 0.0,
			"0.018": 0.0,
			"0.019": 0.0,
			"0.02": 0.0,
			"0.021": 0.0,
			"0.022": 0.0,
			"0.023": 0.0,
			"0.024": 0.0,
			"0.025": 0.0
		}
	}
}
