{
	 "smiles": "CN1CCC2=C1C=C(C=C2)C(O)=O", 
	 "Tm": 439.15, 
	 "num_atms": 24, 
	 "gaussian": { 
		 "optdone": 1, 
		 "sigma_profile": "yes", 
		 "theory": "DFT", 
		 "functional": "B3LYP", 
		 "basiset": "6-31G**", 
		 "properties": { 
			 "R2extent": 2792.1992, 
			 "electric_dipole_moment_norm": 3.67418722169, 
			 "electric_quadrupole_moment_norm": 12.0198302634, 
			 "total_energy": -592.91339857, 
			 "HOMO_LUMO_gap": 0.15607, 
			 "cosmo_polarized_energy": -10.69, 
			 "cosmo_cavitation_energy": 27.14, 
			 "cosmo_dispersion_energy": -20.15, 
			 "cosmo_repulsion_energy": 1.59, 
			 "cosmo_total_nonelectrostatic_energy": 8.58, 
			 "SMD_solvation_energy": 4.15 
		},
		"coords": [
			{
				"x": 1.4433423885,
				"y": 1.4572376942,
				"z": -1.9113332583,
				"element": "C" 
			},
			{
				"x": 1.4284879495,
				"y": 0.2253016258,
				"z": -1.1508483277,
				"element": "N" 
			},
			{
				"x": 1.9987808513,
				"y": -0.9751525503,
				"z": -1.782769829,
				"element": "C" 
			},
			{
				"x": 1.5486486639,
				"y": -2.1302382151,
				"z": -0.8602859609,
				"element": "C" 
			},
			{
				"x": 0.2908149687,
				"y": -1.5634447362,
				"z": -0.2384637938,
				"element": "C" 
			},
			{
				"x": 0.2857052034,
				"y": -0.1692349942,
				"z": -0.4490937684,
				"element": "C" 
			},
			{
				"x": -0.7573875708,
				"y": 0.6197917108,
				"z": 0.0318404735,
				"element": "C" 
			},
			{
				"x": -1.7909145812,
				"y": -0.0115683886,
				"z": 0.7489476396,
				"element": "C" 
			},
			{
				"x": -1.7820244237,
				"y": -1.394397318,
				"z": 0.9680719143,
				"element": "C" 
			},
			{
				"x": -0.7317207029,
				"y": -2.1744175898,
				"z": 0.4708804498,
				"element": "C" 
			},
			{
				"x": -2.9375372262,
				"y": 0.7617049759,
				"z": 1.291211815,
				"element": "C" 
			},
			{
				"x": -2.8619140838,
				"y": 2.0930714682,
				"z": 1.0234102975,
				"element": "O" 
			},
			{
				"x": -3.8688377653,
				"y": 0.2917712789,
				"z": 1.9167042265,
				"element": "O" 
			},
			{
				"x": 2.456990583,
				"y": 1.642065945,
				"z": -2.2787770598,
				"element": "H" 
			},
			{
				"x": 1.1659375873,
				"y": 2.2990012924,
				"z": -1.2710716989,
				"element": "H" 
			},
			{
				"x": 0.758437276,
				"y": 1.4386078061,
				"z": -2.7769118632,
				"element": "H" 
			},
			{
				"x": 1.5858367235,
				"y": -1.1115457395,
				"z": -2.7980533393,
				"element": "H" 
			},
			{
				"x": 3.086212814,
				"y": -0.8870649656,
				"z": -1.8699029332,
				"element": "H" 
			},
			{
				"x": 1.3901667002,
				"y": -3.0647061776,
				"z": -1.4057309532,
				"element": "H" 
			},
			{
				"x": 2.3029904571,
				"y": -2.3235209903,
				"z": -0.0858483383,
				"element": "H" 
			},
			{
				"x": -0.7923243525,
				"y": 1.6891235973,
				"z": -0.1349035426,
				"element": "H" 
			},
			{
				"x": -2.6022793146,
				"y": -1.8383186856,
				"z": 1.5201778054,
				"element": "H" 
			},
			{
				"x": -0.7259513462,
				"y": -3.2491473626,
				"z": 0.6322994472,
				"element": "H" 
			},
			{
				"x": -3.6562607993,
				"y": 2.4810803189,
				"z": 1.4250505977,
				"element": "H" 
			}
		],
		 "valence_orbital": [ 
			{
				"type": "occ",
				"energy": -0.31087,
				"method": "rhf"
			},
			{
				"type": "occ",
				"energy": -0.28668,
				"method": "rhf"
			},
			{
				"type": "occ",
				"energy": -0.26727,
				"method": "rhf"
			},
			{
				"type": "occ",
				"energy": -0.24946,
				"method": "rhf"
			},
			{
				"type": "occ",
				"energy": -0.19429,
				"method": "rhf"
			},
			{
				"type": "unocc",
				"energy": -0.03822,
				"method": "rhf"
			},
			{
				"type": "unocc",
				"energy": 0.00923,
				"method": "rhf"
			},
			{
				"type": "unocc",
				"energy": 0.0667,
				"method": "rhf"
			},
			{
				"type": "unocc",
				"energy": 0.08488,
				"method": "rhf"
			},
			{
				"type": "unocc",
				"energy": 0.089,
				"method": "rhf"
			}
		],
		"cosmo_sigma_profile": { 
			"-0.025": 0.0,
			"-0.024": 0.0,
			"-0.023": 0.0,
			"-0.022": 0.0,
			"-0.021": 0.0,
			"-0.02": 0.0,
			"-0.019": 0.0,
			"-0.018": 0.462816340908,
			"-0.017": 0.894727152255,
			"-0.016": 1.15049992901,
			"-0.015": 0.350191747536,
			"-0.014": 0.607202905331,
			"-0.013": 0.514297207963,
			"-0.012": 0.969856254153,
			"-0.011": 1.08973322327,
			"-0.01": 0.525407488207,
			"-0.009": 0.575322170365,
			"-0.008": 0.413330642783,
			"-0.007": 1.06022619879,
			"-0.006": 4.25756960273,
			"-0.005": 11.9429783064,
			"-0.004": 16.957037699,
			"-0.003": 27.6693248359,
			"-0.002": 27.7871398599,
			"-0.001": 22.7873621539,
			"0.0": 10.1857156135,
			"0.001": 10.1204081651,
			"0.002": 10.0675408229,
			"0.003": 12.3891562362,
			"0.004": 12.690585179,
			"0.005": 12.8403617329,
			"0.006": 5.60254270275,
			"0.007": 3.49291942025,
			"0.008": 3.5209799304,
			"0.009": 2.44679374044,
			"0.01": 2.10294515338,
			"0.011": 2.95877434043,
			"0.012": 5.5573252041,
			"0.013": 0.744934253311,
			"0.014": 0.0,
			"0.015": 0.0,
			"0.016": 0.0,
			"0.017": 0.0,
			"0.018": 0.0,
			"0.019": 0.0,
			"0.02": 0.0,
			"0.021": 0.0,
			"0.022": 0.0,
			"0.023": 0.0,
			"0.024": 0.0,
			"0.025": 0.0
		}
	}
}
