{
	 "smiles": "CC1CCC(C)(C(=O)CN(C)C(=S)NC2=CC=CC=C2)C1(C)C", 
	 "Tm": 420.15, 
	 "num_atms": 51, 
	 "gaussian": { 
		 "optdone": 1, 
		 "sigma_profile": "yes", 
		 "theory": "DFT", 
		 "functional": "B3LYP", 
		 "basiset": "6-31G**", 
		 "properties": { 
			 "R2extent": 10233.5537, 
			 "electric_dipole_moment_norm": 3.92453572541, 
			 "electric_quadrupole_moment_norm": 19.6763461019, 
			 "total_energy": -1323.82963304, 
			 "HOMO_LUMO_gap": 0.17251, 
			 "cosmo_polarized_energy": -15.76, 
			 "cosmo_cavitation_energy": 49.52, 
			 "cosmo_dispersion_energy": -33.33, 
			 "cosmo_repulsion_energy": 2.45, 
			 "cosmo_total_nonelectrostatic_energy": 18.64, 
			 "SMD_solvation_energy": 7.55 
		},
		"coords": [
			{
				"x": -4.2134021196,
				"y": -2.5244875348,
				"z": 2.2429763015,
				"element": "C" 
			},
			{
				"x": -3.1735445025,
				"y": -2.6831328239,
				"z": 1.1296871706,
				"element": "C" 
			},
			{
				"x": -2.1362311163,
				"y": -3.7990238504,
				"z": 1.4106595556,
				"element": "C" 
			},
			{
				"x": -0.8001591538,
				"y": -3.336309474,
				"z": 0.7707333805,
				"element": "C" 
			},
			{
				"x": -1.1300689983,
				"y": -2.053718622,
				"z": -0.0445629834,
				"element": "C" 
			},
			{
				"x": -1.5363178138,
				"y": -2.4485624267,
				"z": -1.4868406741,
				"element": "C" 
			},
			{
				"x": 0.0251439278,
				"y": -1.051504973,
				"z": -0.2027639145,
				"element": "C" 
			},
			{
				"x": -0.1273854135,
				"y": -0.0281053608,
				"z": -0.8506851695,
				"element": "O" 
			},
			{
				"x": 1.3783519169,
				"y": -1.3557215773,
				"z": 0.4461682165,
				"element": "C" 
			},
			{
				"x": 2.4083503087,
				"y": -0.4011000819,
				"z": 0.0811179444,
				"element": "N" 
			},
			{
				"x": 2.9801546691,
				"y": -0.5603269271,
				"z": -1.2556733388,
				"element": "C" 
			},
			{
				"x": 2.8609681535,
				"y": 0.5076635629,
				"z": 0.9919175585,
				"element": "C" 
			},
			{
				"x": 2.5884801632,
				"y": 0.4048639748,
				"z": 2.658011537,
				"element": "S" 
			},
			{
				"x": 3.6533358585,
				"y": 1.5350975727,
				"z": 0.5134272679,
				"element": "N" 
			},
			{
				"x": 3.4253414229,
				"y": 2.3873098356,
				"z": -0.6052439861,
				"element": "C" 
			},
			{
				"x": 4.4809677299,
				"y": 3.2211955996,
				"z": -1.0025728812,
				"element": "C" 
			},
			{
				"x": 4.3069687889,
				"y": 4.1208449697,
				"z": -2.0517700561,
				"element": "C" 
			},
			{
				"x": 3.0860974952,
				"y": 4.1890285134,
				"z": -2.7266406843,
				"element": "C" 
			},
			{
				"x": 2.0396004379,
				"y": 3.3549417124,
				"z": -2.3306094847,
				"element": "C" 
			},
			{
				"x": 2.1933948641,
				"y": 2.4609075552,
				"z": -1.2696367803,
				"element": "C" 
			},
			{
				"x": -2.3346839191,
				"y": -1.4136352232,
				"z": 0.7777586314,
				"element": "C" 
			},
			{
				"x": -3.158031529,
				"y": -0.3891288062,
				"z": -0.0169960973,
				"element": "C" 
			},
			{
				"x": -1.7982586091,
				"y": -0.7252632871,
				"z": 2.053544038,
				"element": "C" 
			},
			{
				"x": -4.9199757312,
				"y": -1.7153502606,
				"z": 2.0291450888,
				"element": "H" 
			},
			{
				"x": -4.7960577981,
				"y": -3.446021833,
				"z": 2.3511892085,
				"element": "H" 
			},
			{
				"x": -3.7461949479,
				"y": -2.3186355592,
				"z": 3.2113430695,
				"element": "H" 
			},
			{
				"x": -3.7245703318,
				"y": -2.9513774383,
				"z": 0.2190877277,
				"element": "H" 
			},
			{
				"x": -2.0109372951,
				"y": -3.9450158754,
				"z": 2.489160539,
				"element": "H" 
			},
			{
				"x": -2.4729125409,
				"y": -4.7595357169,
				"z": 1.0079814037,
				"element": "H" 
			},
			{
				"x": -0.0746675154,
				"y": -3.1301739797,
				"z": 1.5612086668,
				"element": "H" 
			},
			{
				"x": -0.3545980619,
				"y": -4.1075948703,
				"z": 0.1334745498,
				"element": "H" 
			},
			{
				"x": -2.3924456333,
				"y": -3.1282600399,
				"z": -1.489971848,
				"element": "H" 
			},
			{
				"x": -1.7804755202,
				"y": -1.5685414169,
				"z": -2.083389278,
				"element": "H" 
			},
			{
				"x": -0.7076075076,
				"y": -2.9690399179,
				"z": -1.980598622,
				"element": "H" 
			},
			{
				"x": 1.697506686,
				"y": -2.369691741,
				"z": 0.1734721836,
				"element": "H" 
			},
			{
				"x": 1.2717263557,
				"y": -1.3357240802,
				"z": 1.5364896872,
				"element": "H" 
			},
			{
				"x": 3.0957533226,
				"y": -1.631199433,
				"z": -1.4540687745,
				"element": "H" 
			},
			{
				"x": 2.3409500045,
				"y": -0.123268708,
				"z": -2.0280084812,
				"element": "H" 
			},
			{
				"x": 3.9626449511,
				"y": -0.0928946152,
				"z": -1.2984940686,
				"element": "H" 
			},
			{
				"x": 4.1301256258,
				"y": 1.9922868524,
				"z": 1.2805407241,
				"element": "H" 
			},
			{
				"x": 5.4350470944,
				"y": 3.1569340434,
				"z": -0.4859695179,
				"element": "H" 
			},
			{
				"x": 5.1313863151,
				"y": 4.7641871635,
				"z": -2.345704026,
				"element": "H" 
			},
			{
				"x": 2.9523107464,
				"y": 4.8854098588,
				"z": -3.5487718309,
				"element": "H" 
			},
			{
				"x": 1.0817036916,
				"y": 3.4043639464,
				"z": -2.8405811987,
				"element": "H" 
			},
			{
				"x": 1.3653613825,
				"y": 1.8291691438,
				"z": -0.9653463155,
				"element": "H" 
			},
			{
				"x": -2.5317964045,
				"y": 0.4390134665,
				"z": -0.3578652466,
				"element": "H" 
			},
			{
				"x": -3.9533624421,
				"y": 0.024567802,
				"z": 0.6127306631,
				"element": "H" 
			},
			{
				"x": -3.6352510711,
				"y": -0.8379086992,
				"z": -0.8933626265,
				"element": "H" 
			},
			{
				"x": -2.6243525423,
				"y": -0.3224876506,
				"z": 2.6464030303,
				"element": "H" 
			},
			{
				"x": -1.1448278904,
				"y": 0.1167778657,
				"z": 1.8064344859,
				"element": "H" 
			},
			{
				"x": -1.2353555034,
				"y": -1.4054206348,
				"z": 2.7008652547,
				"element": "H" 
			}
		],
		 "valence_orbital": [ 
			{
				"type": "occ",
				"energy": -0.25436,
				"method": "rhf"
			},
			{
				"type": "occ",
				"energy": -0.2526,
				"method": "rhf"
			},
			{
				"type": "occ",
				"energy": -0.22765,
				"method": "rhf"
			},
			{
				"type": "occ",
				"energy": -0.21356,
				"method": "rhf"
			},
			{
				"type": "occ",
				"energy": -0.19905,
				"method": "rhf"
			},
			{
				"type": "unocc",
				"energy": -0.02654,
				"method": "rhf"
			},
			{
				"type": "unocc",
				"energy": -0.02411,
				"method": "rhf"
			},
			{
				"type": "unocc",
				"energy": -0.00502,
				"method": "rhf"
			},
			{
				"type": "unocc",
				"energy": 0.01523,
				"method": "rhf"
			},
			{
				"type": "unocc",
				"energy": 0.06373,
				"method": "rhf"
			}
		],
		"cosmo_sigma_profile": { 
			"-0.025": 0.0,
			"-0.024": 0.0,
			"-0.023": 0.0,
			"-0.022": 0.0,
			"-0.021": 0.0,
			"-0.02": 0.0,
			"-0.019": 0.0,
			"-0.018": 0.0,
			"-0.017": 0.0,
			"-0.016": 0.0,
			"-0.015": 0.0,
			"-0.014": 0.185866843429,
			"-0.013": 0.745806578621,
			"-0.012": 1.28272206874,
			"-0.011": 0.887650056753,
			"-0.01": 0.55888305236,
			"-0.009": 1.20467471605,
			"-0.008": 4.45533871003,
			"-0.007": 6.66763429348,
			"-0.006": 11.6349131512,
			"-0.005": 18.207839905,
			"-0.004": 22.4542877015,
			"-0.003": 32.5100970512,
			"-0.002": 46.9544766865,
			"-0.001": 44.4421017518,
			"0.0": 43.0051684125,
			"0.001": 43.0129054656,
			"0.002": 27.0473155126,
			"0.003": 14.1199239333,
			"0.004": 13.5874931253,
			"0.005": 14.3419365773,
			"0.006": 10.1561523784,
			"0.007": 4.66684144978,
			"0.008": 7.26859429786,
			"0.009": 5.13056666113,
			"0.01": 6.46318020118,
			"0.011": 5.97885929145,
			"0.012": 2.11982417738,
			"0.013": 0.231981402486,
			"0.014": 0.0,
			"0.015": 0.0,
			"0.016": 0.0,
			"0.017": 0.0,
			"0.018": 0.0,
			"0.019": 0.0,
			"0.02": 0.0,
			"0.021": 0.0,
			"0.022": 0.0,
			"0.023": 0.0,
			"0.024": 0.0,
			"0.025": 0.0
		}
	}
}
