{
	 "smiles": "NC1=CC(=NN1C1=C(F)C=C(F)C=C1)C1=CC=CO1", 
	 "Tm": 394.15, 
	 "num_atms": 28, 
	 "gaussian": { 
		 "optdone": 1, 
		 "sigma_profile": "yes", 
		 "theory": "DFT", 
		 "functional": "B3LYP", 
		 "basiset": "6-31G**", 
		 "properties": { 
			 "R2extent": 7649.3585, 
			 "electric_dipole_moment_norm": 1.68467212834, 
			 "electric_quadrupole_moment_norm": 12.1237849449, 
			 "total_energy": -939.906469598, 
			 "HOMO_LUMO_gap": 0.16629, 
			 "cosmo_polarized_energy": -12.57, 
			 "cosmo_cavitation_energy": 34.31, 
			 "cosmo_dispersion_energy": -24.78, 
			 "cosmo_repulsion_energy": 1.84, 
			 "cosmo_total_nonelectrostatic_energy": 11.37, 
			 "SMD_solvation_energy": 6.73 
		},
		"coords": [
			{
				"x": -1.0083527227,
				"y": 0.5341000993,
				"z": -2.394050016,
				"element": "N" 
			},
			{
				"x": -0.3267242572,
				"y": 0.1567647524,
				"z": -1.2438167589,
				"element": "C" 
			},
			{
				"x": -0.7742064678,
				"y": -0.0363933607,
				"z": 0.0488204441,
				"element": "C" 
			},
			{
				"x": 0.4010531631,
				"y": -0.2529129089,
				"z": 0.8142205411,
				"element": "C" 
			},
			{
				"x": 1.5029600946,
				"y": -0.213446412,
				"z": 0.0664573195,
				"element": "N" 
			},
			{
				"x": 1.0463717623,
				"y": 0.0363292784,
				"z": -1.2053882024,
				"element": "N" 
			},
			{
				"x": 1.9961085392,
				"y": 0.290962009,
				"z": -2.2191321546,
				"element": "C" 
			},
			{
				"x": 1.8906540525,
				"y": -0.2544766657,
				"z": -3.5017084418,
				"element": "C" 
			},
			{
				"x": 0.8424067792,
				"y": -1.0643680853,
				"z": -3.7995030907,
				"element": "F" 
			},
			{
				"x": 2.8250165149,
				"y": -0.0107220322,
				"z": -4.4984938396,
				"element": "C" 
			},
			{
				"x": 3.9226056845,
				"y": 0.7779226999,
				"z": -4.1762137205,
				"element": "C" 
			},
			{
				"x": 4.8454992253,
				"y": 1.0190850178,
				"z": -5.1256404043,
				"element": "F" 
			},
			{
				"x": 4.0932476303,
				"y": 1.3178034605,
				"z": -2.9050209254,
				"element": "C" 
			},
			{
				"x": 3.1248567351,
				"y": 1.0729022609,
				"z": -1.9364771413,
				"element": "C" 
			},
			{
				"x": 0.4868821823,
				"y": -0.5183925507,
				"z": 2.2362374604,
				"element": "C" 
			},
			{
				"x": 1.5298981765,
				"y": -0.769670966,
				"z": 3.0867773919,
				"element": "C" 
			},
			{
				"x": 0.9591586841,
				"y": -0.9501511946,
				"z": 4.3854656314,
				"element": "C" 
			},
			{
				"x": -0.3864302524,
				"y": -0.7966335944,
				"z": 4.2353401039,
				"element": "C" 
			},
			{
				"x": -0.6932212209,
				"y": -0.5332453198,
				"z": 2.9334398685,
				"element": "O" 
			},
			{
				"x": -2.0077305176,
				"y": 0.5703096043,
				"z": -2.2435118881,
				"element": "H" 
			},
			{
				"x": -0.7825992549,
				"y": -0.0222075653,
				"z": -3.2097919672,
				"element": "H" 
			},
			{
				"x": -1.7960201039,
				"y": -0.0294396704,
				"z": 0.3950214795,
				"element": "H" 
			},
			{
				"x": 2.709186556,
				"y": -0.4450236773,
				"z": -5.4837880926,
				"element": "H" 
			},
			{
				"x": 4.966303433,
				"y": 1.9232967406,
				"z": -2.6908626749,
				"element": "H" 
			},
			{
				"x": 3.2251195028,
				"y": 1.4719367903,
				"z": -0.9344675212,
				"element": "H" 
			},
			{
				"x": 2.5712943849,
				"y": -0.8197665442,
				"z": 2.8065281579,
				"element": "H" 
			},
			{
				"x": 1.4822444415,
				"y": -1.165821539,
				"z": 5.3061027501,
				"element": "H" 
			},
			{
				"x": -1.2227827447,
				"y": -0.840340627,
				"z": 4.9153556912,
				"element": "H" 
			}
		],
		 "valence_orbital": [ 
			{
				"type": "occ",
				"energy": -0.27085,
				"method": "rhf"
			},
			{
				"type": "occ",
				"energy": -0.26972,
				"method": "rhf"
			},
			{
				"type": "occ",
				"energy": -0.24743,
				"method": "rhf"
			},
			{
				"type": "occ",
				"energy": -0.21524,
				"method": "rhf"
			},
			{
				"type": "occ",
				"energy": -0.19436,
				"method": "rhf"
			},
			{
				"type": "unocc",
				"energy": -0.02807,
				"method": "rhf"
			},
			{
				"type": "unocc",
				"energy": -0.01958,
				"method": "rhf"
			},
			{
				"type": "unocc",
				"energy": 0.00057,
				"method": "rhf"
			},
			{
				"type": "unocc",
				"energy": 0.04537,
				"method": "rhf"
			},
			{
				"type": "unocc",
				"energy": 0.0645,
				"method": "rhf"
			}
		],
		"cosmo_sigma_profile": { 
			"-0.025": 0.0,
			"-0.024": 0.0,
			"-0.023": 0.0,
			"-0.022": 0.0,
			"-0.021": 0.0,
			"-0.02": 0.0,
			"-0.019": 0.0,
			"-0.018": 0.0,
			"-0.017": 0.0,
			"-0.016": 0.0,
			"-0.015": 0.0,
			"-0.014": 0.35160319949,
			"-0.013": 1.56343867352,
			"-0.012": 0.888511287729,
			"-0.011": 2.4989286078,
			"-0.01": 2.89338919475,
			"-0.009": 4.45792634134,
			"-0.008": 7.13741086354,
			"-0.007": 11.4732199886,
			"-0.006": 13.2354790565,
			"-0.005": 10.0937090628,
			"-0.004": 14.0276191622,
			"-0.003": 10.8552126518,
			"-0.002": 13.6535458005,
			"-0.001": 18.005504443,
			"0.0": 25.5429816038,
			"0.001": 23.0540940866,
			"0.002": 23.2177578302,
			"0.003": 29.2224271506,
			"0.004": 26.8702903023,
			"0.005": 15.6430494166,
			"0.006": 7.30131431895,
			"0.007": 4.34634925525,
			"0.008": 1.86257049382,
			"0.009": 1.80049728204,
			"0.01": 2.09196017728,
			"0.011": 1.81566224093,
			"0.012": 1.37726222117,
			"0.013": 1.13437934555,
			"0.014": 0.696792788417,
			"0.015": 0.086087350806,
			"0.016": 0.0,
			"0.017": 0.0,
			"0.018": 0.0,
			"0.019": 0.0,
			"0.02": 0.0,
			"0.021": 0.0,
			"0.022": 0.0,
			"0.023": 0.0,
			"0.024": 0.0,
			"0.025": 0.0
		}
	}
}
