{
	 "smiles": "CCN(CC)C1=CC2=C(C=C1)N=C1C(O2)=CC(=O)C2=C1C=CC=C2", 
	 "Tm": 477.15, 
	 "num_atms": 42, 
	 "gaussian": { 
		 "optdone": 1, 
		 "sigma_profile": "yes", 
		 "theory": "DFT", 
		 "functional": "B3LYP", 
		 "basiset": "6-31G**", 
		 "properties": { 
			 "R2extent": 11575.7309, 
			 "electric_dipole_moment_norm": 8.31922029159, 
			 "electric_quadrupole_moment_norm": 26.98274983, 
			 "total_energy": -1032.92938936, 
			 "HOMO_LUMO_gap": 0.10573, 
			 "cosmo_polarized_energy": -15.51, 
			 "cosmo_cavitation_energy": 44.24, 
			 "cosmo_dispersion_energy": -32.5, 
			 "cosmo_repulsion_energy": 2.39, 
			 "cosmo_total_nonelectrostatic_energy": 14.13, 
			 "SMD_solvation_energy": 6.22 
		},
		"coords": [
			{
				"x": 0.4460967008,
				"y": -3.8314214897,
				"z": -5.0434575378,
				"element": "C" 
			},
			{
				"x": 0.7337155305,
				"y": -2.5633320399,
				"z": -4.2347291747,
				"element": "C" 
			},
			{
				"x": -0.4666830472,
				"y": -1.8283885709,
				"z": -3.8274742725,
				"element": "N" 
			},
			{
				"x": -1.4364724424,
				"y": -1.5061981358,
				"z": -4.8828692444,
				"element": "C" 
			},
			{
				"x": -2.6715476892,
				"y": -2.4150734921,
				"z": -4.9214157585,
				"element": "C" 
			},
			{
				"x": -0.4984986479,
				"y": -1.1294513907,
				"z": -2.6318212548,
				"element": "C" 
			},
			{
				"x": 0.63456524,
				"y": -1.0232031477,
				"z": -1.7921856281,
				"element": "C" 
			},
			{
				"x": 0.5456523569,
				"y": -0.3345512596,
				"z": -0.5930810171,
				"element": "C" 
			},
			{
				"x": -0.6365882504,
				"y": 0.296386681,
				"z": -0.1586479392,
				"element": "C" 
			},
			{
				"x": -1.7566532476,
				"y": 0.1984635324,
				"z": -1.0047345078,
				"element": "C" 
			},
			{
				"x": -1.6982465952,
				"y": -0.4892399349,
				"z": -2.2009305332,
				"element": "C" 
			},
			{
				"x": -0.7003479896,
				"y": 0.9811569023,
				"z": 1.0323076197,
				"element": "N" 
			},
			{
				"x": 0.3776854327,
				"y": 1.0460817781,
				"z": 1.7679115122,
				"element": "C" 
			},
			{
				"x": 1.63800785,
				"y": 0.4216238432,
				"z": 1.3668933134,
				"element": "C" 
			},
			{
				"x": 1.6732996763,
				"y": -0.259418781,
				"z": 0.1778014387,
				"element": "O" 
			},
			{
				"x": 2.7716047995,
				"y": 0.4810581415,
				"z": 2.1099113719,
				"element": "C" 
			},
			{
				"x": 2.8059405361,
				"y": 1.1858422326,
				"z": 3.3854135173,
				"element": "C" 
			},
			{
				"x": 3.8310400639,
				"y": 1.24603469,
				"z": 4.0687355851,
				"element": "O" 
			},
			{
				"x": 1.5347264619,
				"y": 1.8348654757,
				"z": 3.8300595571,
				"element": "C" 
			},
			{
				"x": 0.3623184767,
				"y": 1.765935868,
				"z": 3.0470497376,
				"element": "C" 
			},
			{
				"x": -0.810388139,
				"y": 2.3916148714,
				"z": 3.5047433209,
				"element": "C" 
			},
			{
				"x": -0.8131813173,
				"y": 3.0706590245,
				"z": 4.7164970464,
				"element": "C" 
			},
			{
				"x": 0.3525136738,
				"y": 3.1383245771,
				"z": 5.4934948924,
				"element": "C" 
			},
			{
				"x": 1.5170608873,
				"y": 2.5232560501,
				"z": 5.0498608006,
				"element": "C" 
			},
			{
				"x": -0.183904348,
				"y": -4.522864717,
				"z": -4.4763523361,
				"element": "H" 
			},
			{
				"x": -0.0424058246,
				"y": -3.6237134966,
				"z": -5.9993795774,
				"element": "H" 
			},
			{
				"x": 1.3924193083,
				"y": -4.3350364125,
				"z": -5.2645058368,
				"element": "H" 
			},
			{
				"x": 1.2646583163,
				"y": -2.8674732948,
				"z": -3.3322675515,
				"element": "H" 
			},
			{
				"x": 1.4146453175,
				"y": -1.9081955742,
				"z": -4.803341717,
				"element": "H" 
			},
			{
				"x": -0.9127618557,
				"y": -1.558959229,
				"z": -5.8438026095,
				"element": "H" 
			},
			{
				"x": -1.7444118384,
				"y": -0.4616476723,
				"z": -4.7697845914,
				"element": "H" 
			},
			{
				"x": -3.3510271598,
				"y": -2.0909990599,
				"z": -5.7173694527,
				"element": "H" 
			},
			{
				"x": -2.3956929717,
				"y": -3.4551074357,
				"z": -5.1125030966,
				"element": "H" 
			},
			{
				"x": -3.2183282476,
				"y": -2.3865425594,
				"z": -3.9747545453,
				"element": "H" 
			},
			{
				"x": 1.5988943978,
				"y": -1.4329140571,
				"z": -2.0591889663,
				"element": "H" 
			},
			{
				"x": -2.6774742361,
				"y": 0.6741233962,
				"z": -0.6824192764,
				"element": "H" 
			},
			{
				"x": -2.5952753822,
				"y": -0.5606205884,
				"z": -2.8015163511,
				"element": "H" 
			},
			{
				"x": 3.6827779435,
				"y": 0.0019853034,
				"z": 1.7701077768,
				"element": "H" 
			},
			{
				"x": -1.7034126769,
				"y": 2.3306065498,
				"z": 2.8928000038,
				"element": "H" 
			},
			{
				"x": -1.7242197183,
				"y": 3.551006979,
				"z": 5.0621422284,
				"element": "H" 
			},
			{
				"x": 0.3441657627,
				"y": 3.6707788743,
				"z": 6.4402647666,
				"element": "H" 
			},
			{
				"x": 2.4369328928,
				"y": 2.5551475688,
				"z": 5.6242382872,
				"element": "H" 
			}
		],
		 "valence_orbital": [ 
			{
				"type": "occ",
				"energy": -0.25058,
				"method": "rhf"
			},
			{
				"type": "occ",
				"energy": -0.2476,
				"method": "rhf"
			},
			{
				"type": "occ",
				"energy": -0.23089,
				"method": "rhf"
			},
			{
				"type": "occ",
				"energy": -0.22974,
				"method": "rhf"
			},
			{
				"type": "occ",
				"energy": -0.19367,
				"method": "rhf"
			},
			{
				"type": "unocc",
				"energy": -0.08794,
				"method": "rhf"
			},
			{
				"type": "unocc",
				"energy": -0.02713,
				"method": "rhf"
			},
			{
				"type": "unocc",
				"energy": -0.00955,
				"method": "rhf"
			},
			{
				"type": "unocc",
				"energy": 0.00017,
				"method": "rhf"
			},
			{
				"type": "unocc",
				"energy": 0.01254,
				"method": "rhf"
			}
		],
		"cosmo_sigma_profile": { 
			"-0.025": 0.0,
			"-0.024": 0.0,
			"-0.023": 0.0,
			"-0.022": 0.0,
			"-0.021": 0.0,
			"-0.02": 0.0,
			"-0.019": 0.0,
			"-0.018": 0.0,
			"-0.017": 0.0,
			"-0.016": 0.0,
			"-0.015": 0.0,
			"-0.014": 0.0,
			"-0.013": 0.0,
			"-0.012": 0.0,
			"-0.011": 0.0,
			"-0.01": 0.0,
			"-0.009": 0.110517030318,
			"-0.008": 1.18744731964,
			"-0.007": 4.49919005968,
			"-0.006": 13.354381709,
			"-0.005": 21.5787654885,
			"-0.004": 32.1058844248,
			"-0.003": 37.5785583509,
			"-0.002": 36.9895760415,
			"-0.001": 27.6604480194,
			"0.0": 31.408995283,
			"0.001": 31.1382644002,
			"0.002": 33.2290007081,
			"0.003": 28.7854735958,
			"0.004": 20.028993974,
			"0.005": 6.45439200707,
			"0.006": 4.56277953951,
			"0.007": 2.27451570618,
			"0.008": 3.39047402785,
			"0.009": 2.37576007447,
			"0.01": 2.02848164574,
			"0.011": 1.7763788717,
			"0.012": 2.44743023264,
			"0.013": 4.27966910353,
			"0.014": 3.36744569078,
			"0.015": 0.790701765696,
			"0.016": 0.0,
			"0.017": 0.0,
			"0.018": 0.0,
			"0.019": 0.0,
			"0.02": 0.0,
			"0.021": 0.0,
			"0.022": 0.0,
			"0.023": 0.0,
			"0.024": 0.0,
			"0.025": 0.0
		}
	}
}
