{
	 "smiles": "CC(C)(C)NS(=O)(=O)CC(O)=O", 
	 "Tm": 367.15, 
	 "num_atms": 25, 
	 "gaussian": { 
		 "optdone": 1, 
		 "sigma_profile": "yes", 
		 "theory": "DFT", 
		 "functional": "B3LYP", 
		 "basiset": "6-31G**", 
		 "properties": { 
			 "R2extent": 3250.3099, 
			 "electric_dipole_moment_norm": 7.08783814784, 
			 "electric_quadrupole_moment_norm": 16.4432403574, 
			 "total_energy": -990.26179889, 
			 "HOMO_LUMO_gap": 0.26753, 
			 "cosmo_polarized_energy": -17.78, 
			 "cosmo_cavitation_energy": 28.4, 
			 "cosmo_dispersion_energy": -20.65, 
			 "cosmo_repulsion_energy": 1.59, 
			 "cosmo_total_nonelectrostatic_energy": 9.34, 
			 "SMD_solvation_energy": 5.48 
		},
		"coords": [
			{
				"x": 0.2762446775,
				"y": 0.0766549873,
				"z": -3.0392893477,
				"element": "C" 
			},
			{
				"x": 1.1942287128,
				"y": 0.5452055924,
				"z": -1.900980567,
				"element": "C" 
			},
			{
				"x": 2.4948444333,
				"y": -0.2761016716,
				"z": -1.9140854841,
				"element": "C" 
			},
			{
				"x": 1.5126268733,
				"y": 2.0457736039,
				"z": -2.0295100978,
				"element": "C" 
			},
			{
				"x": 0.5652654708,
				"y": 0.227112475,
				"z": -0.5749289743,
				"element": "N" 
			},
			{
				"x": -0.9321971948,
				"y": 0.7596596651,
				"z": -0.057164171,
				"element": "S" 
			},
			{
				"x": -1.4690563487,
				"y": 1.809318275,
				"z": -0.9586600026,
				"element": "O" 
			},
			{
				"x": -0.8103547761,
				"y": 1.0091504704,
				"z": 1.3795253156,
				"element": "O" 
			},
			{
				"x": -2.013361817,
				"y": -0.6737301735,
				"z": -0.3209535629,
				"element": "C" 
			},
			{
				"x": -3.5221994519,
				"y": -0.4011892814,
				"z": -0.1544331567,
				"element": "C" 
			},
			{
				"x": -3.980390497,
				"y": 0.7822062271,
				"z": -0.5754592086,
				"element": "O" 
			},
			{
				"x": -4.2433963482,
				"y": -1.2633524089,
				"z": 0.279676207,
				"element": "O" 
			},
			{
				"x": 0.0568219125,
				"y": -0.9921969317,
				"z": -2.9495979063,
				"element": "H" 
			},
			{
				"x": -0.6599605836,
				"y": 0.6393669087,
				"z": -3.0586580213,
				"element": "H" 
			},
			{
				"x": 0.7782964252,
				"y": 0.2356043472,
				"z": -3.9979154425,
				"element": "H" 
			},
			{
				"x": 2.2864747165,
				"y": -1.3448667872,
				"z": -1.8132800475,
				"element": "H" 
			},
			{
				"x": 3.0281196204,
				"y": -0.1112707456,
				"z": -2.8548194007,
				"element": "H" 
			},
			{
				"x": 3.1628008335,
				"y": 0.0248908701,
				"z": -1.0987891568,
				"element": "H" 
			},
			{
				"x": 0.6001372494,
				"y": 2.6437881835,
				"z": -2.0003088443,
				"element": "H" 
			},
			{
				"x": 2.0295783566,
				"y": 2.2418649924,
				"z": -2.9746362931,
				"element": "H" 
			},
			{
				"x": 2.1682696265,
				"y": 2.3732534411,
				"z": -1.2152501524,
				"element": "H" 
			},
			{
				"x": 1.2010892417,
				"y": 0.3451610713,
				"z": 0.2107114029,
				"element": "H" 
			},
			{
				"x": -1.8286624055,
				"y": -1.0138138466,
				"z": -1.3440333366,
				"element": "H" 
			},
			{
				"x": -1.7154911644,
				"y": -1.4538354224,
				"z": 0.3786910806,
				"element": "H" 
			},
			{
				"x": -3.2420275628,
				"y": 1.3623461585,
				"z": -0.8646508317,
				"element": "H" 
			}
		],
		 "valence_orbital": [ 
			{
				"type": "occ",
				"energy": -0.33325,
				"method": "rhf"
			},
			{
				"type": "occ",
				"energy": -0.32579,
				"method": "rhf"
			},
			{
				"type": "occ",
				"energy": -0.31612,
				"method": "rhf"
			},
			{
				"type": "occ",
				"energy": -0.29704,
				"method": "rhf"
			},
			{
				"type": "occ",
				"energy": -0.27515,
				"method": "rhf"
			},
			{
				"type": "unocc",
				"energy": -0.00762,
				"method": "rhf"
			},
			{
				"type": "unocc",
				"energy": 0.03635,
				"method": "rhf"
			},
			{
				"type": "unocc",
				"energy": 0.04708,
				"method": "rhf"
			},
			{
				"type": "unocc",
				"energy": 0.05668,
				"method": "rhf"
			},
			{
				"type": "unocc",
				"energy": 0.06954,
				"method": "rhf"
			}
		],
		"cosmo_sigma_profile": { 
			"-0.025": 0.0,
			"-0.024": 0.0,
			"-0.023": 0.0,
			"-0.022": 0.0,
			"-0.021": 0.0,
			"-0.02": 0.0,
			"-0.019": 0.0,
			"-0.018": 0.0,
			"-0.017": 0.0,
			"-0.016": 0.0,
			"-0.015": 0.0352938114823,
			"-0.014": 0.56558738642,
			"-0.013": 1.22889273744,
			"-0.012": 0.894632966487,
			"-0.011": 2.25682379523,
			"-0.01": 4.60831772249,
			"-0.009": 6.10497632848,
			"-0.008": 5.90422948201,
			"-0.007": 7.00086804275,
			"-0.006": 6.33378330932,
			"-0.005": 9.49393643093,
			"-0.004": 19.0232808623,
			"-0.003": 17.7834072731,
			"-0.002": 17.9995731325,
			"-0.001": 19.2721676628,
			"0.0": 23.5921153256,
			"0.001": 10.8719279572,
			"0.002": 5.33697766064,
			"0.003": 5.26714464119,
			"0.004": 5.06789909801,
			"0.005": 4.86253136678,
			"0.006": 5.80732452876,
			"0.007": 5.01918904058,
			"0.008": 5.42921437507,
			"0.009": 8.88505758166,
			"0.01": 11.7860093175,
			"0.011": 8.72457295884,
			"0.012": 2.81243645292,
			"0.013": 0.172132217637,
			"0.014": 0.0,
			"0.015": 0.0,
			"0.016": 0.0,
			"0.017": 0.0,
			"0.018": 0.0,
			"0.019": 0.0,
			"0.02": 0.0,
			"0.021": 0.0,
			"0.022": 0.0,
			"0.023": 0.0,
			"0.024": 0.0,
			"0.025": 0.0
		}
	}
}
