{
	 "smiles": "ClC1=CC=C(CSC2=NC(=O)NC3=C2CCCC3)C=C1", 
	 "Tm": 561.15, 
	 "num_atms": 35, 
	 "gaussian": { 
		 "optdone": 1, 
		 "sigma_profile": "yes", 
		 "theory": "DFT", 
		 "functional": "B3LYP", 
		 "basiset": "6-31G**", 
		 "properties": { 
			 "R2extent": 9460.8289, 
			 "electric_dipole_moment_norm": 6.76316126157, 
			 "electric_quadrupole_moment_norm": 23.4636337211, 
			 "total_energy": -1623.78184307, 
			 "HOMO_LUMO_gap": 0.17828, 
			 "cosmo_polarized_energy": -18.45, 
			 "cosmo_cavitation_energy": 40.8, 
			 "cosmo_dispersion_energy": -29.89, 
			 "cosmo_repulsion_energy": 2.26, 
			 "cosmo_total_nonelectrostatic_energy": 13.17, 
			 "SMD_solvation_energy": 5.77 
		},
		"coords": [
			{
				"x": 6.0381735434,
				"y": 1.730444346,
				"z": 2.8362426999,
				"element": "Cl" 
			},
			{
				"x": 4.8907952164,
				"y": 1.283227853,
				"z": 1.5783571846,
				"element": "C" 
			},
			{
				"x": 3.9191831922,
				"y": 2.1985519538,
				"z": 1.1774328846,
				"element": "C" 
			},
			{
				"x": 3.0128336519,
				"y": 1.8391993526,
				"z": 0.1796301216,
				"element": "C" 
			},
			{
				"x": 3.0720006061,
				"y": 0.5736020623,
				"z": -0.4208601227,
				"element": "C" 
			},
			{
				"x": 2.1049782417,
				"y": 0.1908289035,
				"z": -1.5123638511,
				"element": "C" 
			},
			{
				"x": 0.6477360389,
				"y": -0.8030084297,
				"z": -0.9461624024,
				"element": "S" 
			},
			{
				"x": -0.5017456129,
				"y": 0.4711826416,
				"z": -0.4676032764,
				"element": "C" 
			},
			{
				"x": -0.1453470483,
				"y": 1.7199908954,
				"z": -0.6264074395,
				"element": "N" 
			},
			{
				"x": -1.002067739,
				"y": 2.7435433066,
				"z": -0.2720997933,
				"element": "C" 
			},
			{
				"x": -0.7388755062,
				"y": 3.9326459532,
				"z": -0.3501367845,
				"element": "O" 
			},
			{
				"x": -2.265215863,
				"y": 2.3323617905,
				"z": 0.2079732634,
				"element": "N" 
			},
			{
				"x": -2.648888746,
				"y": 1.0336496599,
				"z": 0.3757836174,
				"element": "C" 
			},
			{
				"x": -1.7702136321,
				"y": 0.0291548097,
				"z": 0.0570128053,
				"element": "C" 
			},
			{
				"x": -2.1301781903,
				"y": -1.4312510802,
				"z": 0.2279984524,
				"element": "C" 
			},
			{
				"x": -3.3682913673,
				"y": -1.6298376458,
				"z": 1.1159144057,
				"element": "C" 
			},
			{
				"x": -4.4883276498,
				"y": -0.6586252377,
				"z": 0.726807392,
				"element": "C" 
			},
			{
				"x": -4.0322073005,
				"y": 0.792911389,
				"z": 0.9269639334,
				"element": "C" 
			},
			{
				"x": 4.0614136575,
				"y": -0.3252056454,
				"z": -0.000059916,
				"element": "C" 
			},
			{
				"x": 4.9725211001,
				"y": 0.01829908,
				"z": 0.9971073228,
				"element": "C" 
			},
			{
				"x": 3.872241775,
				"y": 3.1792889006,
				"z": 1.6378643343,
				"element": "H" 
			},
			{
				"x": 2.2436708777,
				"y": 2.5392396343,
				"z": -0.1299947222,
				"element": "H" 
			},
			{
				"x": 1.6971106135,
				"y": 1.0683137124,
				"z": -2.0146522108,
				"element": "H" 
			},
			{
				"x": 2.5798370779,
				"y": -0.4593746933,
				"z": -2.2519665797,
				"element": "H" 
			},
			{
				"x": -2.8945548517,
				"y": 3.0880712355,
				"z": 0.4481406852,
				"element": "H" 
			},
			{
				"x": -1.2791732142,
				"y": -1.9731244305,
				"z": 0.6569518309,
				"element": "H" 
			},
			{
				"x": -2.3067505828,
				"y": -1.8846710359,
				"z": -0.7581707285,
				"element": "H" 
			},
			{
				"x": -3.096152914,
				"y": -1.464674811,
				"z": 2.1667201039,
				"element": "H" 
			},
			{
				"x": -3.7141186087,
				"y": -2.6658473706,
				"z": 1.0387080579,
				"element": "H" 
			},
			{
				"x": -5.3904018529,
				"y": -0.8434542134,
				"z": 1.319104744,
				"element": "H" 
			},
			{
				"x": -4.7604473424,
				"y": -0.8146625462,
				"z": -0.3247962013,
				"element": "H" 
			},
			{
				"x": -4.0237911574,
				"y": 1.0403575608,
				"z": 1.9983189299,
				"element": "H" 
			},
			{
				"x": -4.7347007381,
				"y": 1.4923459522,
				"z": 0.4561849862,
				"element": "H" 
			},
			{
				"x": 4.1254069322,
				"y": -1.3096509174,
				"z": -0.4573038594,
				"element": "H" 
			},
			{
				"x": 5.7378473932,
				"y": -0.6803229358,
				"z": 1.3166601324,
				"element": "H" 
			}
		],
		 "valence_orbital": [ 
			{
				"type": "occ",
				"energy": -0.2561,
				"method": "rhf"
			},
			{
				"type": "occ",
				"energy": -0.2547,
				"method": "rhf"
			},
			{
				"type": "occ",
				"energy": -0.24626,
				"method": "rhf"
			},
			{
				"type": "occ",
				"energy": -0.23354,
				"method": "rhf"
			},
			{
				"type": "occ",
				"energy": -0.22846,
				"method": "rhf"
			},
			{
				"type": "unocc",
				"energy": -0.05018,
				"method": "rhf"
			},
			{
				"type": "unocc",
				"energy": -0.0172,
				"method": "rhf"
			},
			{
				"type": "unocc",
				"energy": -0.00705,
				"method": "rhf"
			},
			{
				"type": "unocc",
				"energy": 0.00975,
				"method": "rhf"
			},
			{
				"type": "unocc",
				"energy": 0.03591,
				"method": "rhf"
			}
		],
		"cosmo_sigma_profile": { 
			"-0.025": 0.0,
			"-0.024": 0.0,
			"-0.023": 0.0,
			"-0.022": 0.0,
			"-0.021": 0.0,
			"-0.02": 0.0,
			"-0.019": 0.0,
			"-0.018": 0.0,
			"-0.017": 0.0,
			"-0.016": 0.28345629999,
			"-0.015": 1.35496138755,
			"-0.014": 1.02761523889,
			"-0.013": 1.10700751605,
			"-0.012": 1.00944202938,
			"-0.011": 1.38997269973,
			"-0.01": 1.24219587257,
			"-0.009": 0.891272317817,
			"-0.008": 2.40816912946,
			"-0.007": 9.34872149492,
			"-0.006": 12.962731616,
			"-0.005": 13.7902340818,
			"-0.004": 21.1473479407,
			"-0.003": 34.034130724,
			"-0.002": 35.4678913893,
			"-0.001": 31.7234659143,
			"0.0": 26.1056484787,
			"0.001": 19.3571773447,
			"0.002": 20.3475521551,
			"0.003": 22.8822370623,
			"0.004": 25.3353749125,
			"0.005": 14.9858237228,
			"0.006": 5.40707991946,
			"0.007": 3.05152862911,
			"0.008": 1.62706925198,
			"0.009": 2.3008628204,
			"0.01": 1.30678679588,
			"0.011": 1.36324945041,
			"0.012": 1.9700966608,
			"0.013": 3.57642899871,
			"0.014": 6.46411891111,
			"0.015": 2.25649035352,
			"0.016": 0.233225803145,
			"0.017": 0.0,
			"0.018": 0.0,
			"0.019": 0.0,
			"0.02": 0.0,
			"0.021": 0.0,
			"0.022": 0.0,
			"0.023": 0.0,
			"0.024": 0.0,
			"0.025": 0.0
		}
	}
}
