{
	 "smiles": "CN1C=NC(C=O)=C1", 
	 "Tm": 341.65, 
	 "num_atms": 14, 
	 "gaussian": { 
		 "optdone": 1, 
		 "sigma_profile": "yes", 
		 "theory": "DFT", 
		 "functional": "B3LYP", 
		 "basiset": "6-31G**", 
		 "properties": { 
			 "R2extent": 1360.1239, 
			 "electric_dipole_moment_norm": 7.51275204569, 
			 "electric_quadrupole_moment_norm": 12.577061443, 
			 "total_energy": -378.851457737, 
			 "HOMO_LUMO_gap": 0.2026, 
			 "cosmo_polarized_energy": -19.46, 
			 "cosmo_cavitation_energy": 18.79, 
			 "cosmo_dispersion_energy": -13.71, 
			 "cosmo_repulsion_energy": 1.14, 
			 "cosmo_total_nonelectrostatic_energy": 6.22, 
			 "SMD_solvation_energy": 3.71 
		},
		"coords": [
			{
				"x": 2.6652472262,
				"y": -1.9993862519,
				"z": 0.7367277014,
				"element": "C" 
			},
			{
				"x": 1.966277171,
				"y": -0.9260766509,
				"z": 0.0465597813,
				"element": "N" 
			},
			{
				"x": 1.9729523119,
				"y": -0.6754846025,
				"z": -1.3091449154,
				"element": "C" 
			},
			{
				"x": 1.2479624076,
				"y": 0.3630161013,
				"z": -1.6347187784,
				"element": "N" 
			},
			{
				"x": 0.7330229819,
				"y": 0.8273571585,
				"z": -0.439080096,
				"element": "C" 
			},
			{
				"x": -0.149094262,
				"y": 1.9904519904,
				"z": -0.3098668222,
				"element": "C" 
			},
			{
				"x": -0.5395827902,
				"y": 2.6911951932,
				"z": -1.2225453632,
				"element": "O" 
			},
			{
				"x": 1.1717615659,
				"y": 0.0359389829,
				"z": 0.6092905814,
				"element": "C" 
			},
			{
				"x": 1.9577044752,
				"y": -2.6500228117,
				"z": 1.2586117772,
				"element": "H" 
			},
			{
				"x": 3.380282325,
				"y": -1.5950083848,
				"z": 1.4589103145,
				"element": "H" 
			},
			{
				"x": 3.2099217697,
				"y": -2.5942178239,
				"z": 0.001580517,
				"element": "H" 
			},
			{
				"x": 2.5341197169,
				"y": -1.3001815592,
				"z": -1.9924988964,
				"element": "H" 
			},
			{
				"x": -0.4524224002,
				"y": 2.1969360519,
				"z": 0.7434879063,
				"element": "H" 
			},
			{
				"x": 0.9873475011,
				"y": 0.0802826066,
				"z": 1.6727862925,
				"element": "H" 
			}
		],
		 "valence_orbital": [ 
			{
				"type": "occ",
				"energy": -0.36964,
				"method": "rhf"
			},
			{
				"type": "occ",
				"energy": -0.28488,
				"method": "rhf"
			},
			{
				"type": "occ",
				"energy": -0.27847,
				"method": "rhf"
			},
			{
				"type": "occ",
				"energy": -0.24557,
				"method": "rhf"
			},
			{
				"type": "occ",
				"energy": -0.23928,
				"method": "rhf"
			},
			{
				"type": "unocc",
				"energy": -0.03668,
				"method": "rhf"
			},
			{
				"type": "unocc",
				"energy": 0.01639,
				"method": "rhf"
			},
			{
				"type": "unocc",
				"energy": 0.075,
				"method": "rhf"
			},
			{
				"type": "unocc",
				"energy": 0.10629,
				"method": "rhf"
			},
			{
				"type": "unocc",
				"energy": 0.10684,
				"method": "rhf"
			}
		],
		"cosmo_sigma_profile": { 
			"-0.025": 0.0,
			"-0.024": 0.0,
			"-0.023": 0.0,
			"-0.022": 0.0,
			"-0.021": 0.0,
			"-0.02": 0.0,
			"-0.019": 0.0,
			"-0.018": 0.0,
			"-0.017": 0.0,
			"-0.016": 0.0,
			"-0.015": 0.0,
			"-0.014": 0.0,
			"-0.013": 0.0,
			"-0.012": 0.0,
			"-0.011": 0.0207506664471,
			"-0.01": 2.91941272214,
			"-0.009": 5.64737400993,
			"-0.008": 6.02289235461,
			"-0.007": 11.2276356067,
			"-0.006": 13.8523253382,
			"-0.005": 11.7129585966,
			"-0.004": 13.633524707,
			"-0.003": 10.0013357039,
			"-0.002": 6.62761692709,
			"-0.001": 6.18053094676,
			"0.0": 6.06412563127,
			"0.001": 6.69500034532,
			"0.002": 5.26915927688,
			"0.003": 3.50621217421,
			"0.004": 3.27822865955,
			"0.005": 2.54586540648,
			"0.006": 2.35575274534,
			"0.007": 2.36171226835,
			"0.008": 2.37777846141,
			"0.009": 3.5867377251,
			"0.01": 2.59129833119,
			"0.011": 3.96483235206,
			"0.012": 5.55537575599,
			"0.013": 4.85443567167,
			"0.014": 2.86151559174,
			"0.015": 1.99242755508,
			"0.016": 1.49714620055,
			"0.017": 1.09479301077,
			"0.018": 0.216208143559,
			"0.019": 0.0,
			"0.02": 0.0,
			"0.021": 0.0,
			"0.022": 0.0,
			"0.023": 0.0,
			"0.024": 0.0,
			"0.025": 0.0
		}
	}
}
