{
	 "smiles": "ClC1=CC=C(C=C1)C(N1CCNCC1)C1=CC=CC=C1", 
	 "Tm": 343.15, 
	 "num_atms": 39, 
	 "gaussian": { 
		 "optdone": 1, 
		 "sigma_profile": "yes", 
		 "theory": "DFT", 
		 "functional": "B3LYP", 
		 "basiset": "6-31G**", 
		 "properties": { 
			 "R2extent": 7116.9228, 
			 "electric_dipole_moment_norm": 0.803907264552, 
			 "electric_quadrupole_moment_norm": 12.6567857693, 
			 "total_energy": -1228.94190057, 
			 "HOMO_LUMO_gap": 0.18894, 
			 "cosmo_polarized_energy": -9.48, 
			 "cosmo_cavitation_energy": 41.15, 
			 "cosmo_dispersion_energy": -28.84, 
			 "cosmo_repulsion_energy": 2.22, 
			 "cosmo_total_nonelectrostatic_energy": 14.53, 
			 "SMD_solvation_energy": 2.59 
		},
		"coords": [
			{
				"x": -4.5062780049,
				"y": -2.5466998389,
				"z": 0.2495742979,
				"element": "Cl" 
			},
			{
				"x": -2.8943433815,
				"y": -1.90551438,
				"z": -0.0414431832,
				"element": "C" 
			},
			{
				"x": -1.792323607,
				"y": -2.7535598601,
				"z": 0.0366267846,
				"element": "C" 
			},
			{
				"x": -0.519504777,
				"y": -2.2306229596,
				"z": -0.1975602609,
				"element": "C" 
			},
			{
				"x": -0.3241545531,
				"y": -0.8786790538,
				"z": -0.5093614635,
				"element": "C" 
			},
			{
				"x": -1.4579514665,
				"y": -0.0542186636,
				"z": -0.5874380221,
				"element": "C" 
			},
			{
				"x": -2.7380802802,
				"y": -0.5555248186,
				"z": -0.3552714282,
				"element": "C" 
			},
			{
				"x": 1.0991853872,
				"y": -0.335960379,
				"z": -0.6731447538,
				"element": "C" 
			},
			{
				"x": 1.6333940406,
				"y": 0.3066706678,
				"z": 0.5461929608,
				"element": "N" 
			},
			{
				"x": 0.8780115386,
				"y": 1.4555778721,
				"z": 1.0530860851,
				"element": "C" 
			},
			{
				"x": 1.6851755886,
				"y": 2.1670846248,
				"z": 2.1493218444,
				"element": "C" 
			},
			{
				"x": 2.0936094685,
				"y": 1.2837424364,
				"z": 3.2442617192,
				"element": "N" 
			},
			{
				"x": 2.7583451198,
				"y": 0.0888095722,
				"z": 2.7193471232,
				"element": "C" 
			},
			{
				"x": 1.958166601,
				"y": -0.6302561971,
				"z": 1.6230933938,
				"element": "C" 
			},
			{
				"x": 1.3086657564,
				"y": 0.5464867039,
				"z": -1.9117464872,
				"element": "C" 
			},
			{
				"x": 0.5455051337,
				"y": 0.3644820399,
				"z": -3.0737054421,
				"element": "C" 
			},
			{
				"x": 0.8051932621,
				"y": 1.1100591033,
				"z": -4.2252892051,
				"element": "C" 
			},
			{
				"x": 1.8338707802,
				"y": 2.0524911115,
				"z": -4.2367799709,
				"element": "C" 
			},
			{
				"x": 2.6073683144,
				"y": 2.2338865743,
				"z": -3.0890816773,
				"element": "C" 
			},
			{
				"x": 2.3507795194,
				"y": 1.4839753734,
				"z": -1.9408034108,
				"element": "C" 
			},
			{
				"x": -1.9273860899,
				"y": -3.8036068719,
				"z": 0.271692636,
				"element": "H" 
			},
			{
				"x": 0.3386175072,
				"y": -2.8957946664,
				"z": -0.1420867845,
				"element": "H" 
			},
			{
				"x": -1.3454797464,
				"y": 0.9917859247,
				"z": -0.8540465546,
				"element": "H" 
			},
			{
				"x": -3.6064575085,
				"y": 0.0908495577,
				"z": -0.4216017773,
				"element": "H" 
			},
			{
				"x": 1.7428254765,
				"y": -1.2149449117,
				"z": -0.8192265718,
				"element": "H" 
			},
			{
				"x": 0.6846802063,
				"y": 2.1459175074,
				"z": 0.2250513012,
				"element": "H" 
			},
			{
				"x": -0.1020384318,
				"y": 1.1543268197,
				"z": 1.4693160341,
				"element": "H" 
			},
			{
				"x": 2.593506198,
				"y": 2.5933698569,
				"z": 1.7044167481,
				"element": "H" 
			},
			{
				"x": 1.1000867357,
				"y": 2.9968608187,
				"z": 2.5611813213,
				"element": "H" 
			},
			{
				"x": 1.2649852195,
				"y": 0.9990980805,
				"z": 3.765026145,
				"element": "H" 
			},
			{
				"x": 3.7257349251,
				"y": 0.397900261,
				"z": 2.3032601373,
				"element": "H" 
			},
			{
				"x": 2.9594693611,
				"y": -0.6004692617,
				"z": 3.5470295945,
				"element": "H" 
			},
			{
				"x": 1.0511103126,
				"y": -1.0807641156,
				"z": 2.0721443288,
				"element": "H" 
			},
			{
				"x": 2.5548061294,
				"y": -1.4516189433,
				"z": 1.2066993305,
				"element": "H" 
			},
			{
				"x": -0.2565537381,
				"y": -0.3665157451,
				"z": -3.0836058522,
				"element": "H" 
			},
			{
				"x": 0.1997320827,
				"y": 0.9524233505,
				"z": -5.1136244984,
				"element": "H" 
			},
			{
				"x": 2.0330379887,
				"y": 2.6359625002,
				"z": -5.1311903702,
				"element": "H" 
			},
			{
				"x": 3.4168182401,
				"y": 2.9589194442,
				"z": -3.0868026689,
				"element": "H" 
			},
			{
				"x": 2.9589706914,
				"y": 1.611070465,
				"z": -1.0518114027,
				"element": "H" 
			}
		],
		 "valence_orbital": [ 
			{
				"type": "occ",
				"energy": -0.24978,
				"method": "rhf"
			},
			{
				"type": "occ",
				"energy": -0.2467,
				"method": "rhf"
			},
			{
				"type": "occ",
				"energy": -0.24041,
				"method": "rhf"
			},
			{
				"type": "occ",
				"energy": -0.23038,
				"method": "rhf"
			},
			{
				"type": "occ",
				"energy": -0.20808,
				"method": "rhf"
			},
			{
				"type": "unocc",
				"energy": -0.01914,
				"method": "rhf"
			},
			{
				"type": "unocc",
				"energy": -0.01602,
				"method": "rhf"
			},
			{
				"type": "unocc",
				"energy": -0.00311,
				"method": "rhf"
			},
			{
				"type": "unocc",
				"energy": 0.00247,
				"method": "rhf"
			},
			{
				"type": "unocc",
				"energy": 0.02961,
				"method": "rhf"
			}
		],
		"cosmo_sigma_profile": { 
			"-0.025": 0.0,
			"-0.024": 0.0,
			"-0.023": 0.0,
			"-0.022": 0.0,
			"-0.021": 0.0,
			"-0.02": 0.0,
			"-0.019": 0.0,
			"-0.018": 0.0,
			"-0.017": 0.0,
			"-0.016": 0.0,
			"-0.015": 0.0,
			"-0.014": 0.0,
			"-0.013": 0.0,
			"-0.012": 0.0,
			"-0.011": 0.0,
			"-0.01": 0.252502597901,
			"-0.009": 1.22114352384,
			"-0.008": 1.2598843893,
			"-0.007": 4.40714454519,
			"-0.006": 11.4822279523,
			"-0.005": 20.5182254079,
			"-0.004": 24.2655014078,
			"-0.003": 32.0678966804,
			"-0.002": 34.0452873662,
			"-0.001": 32.2154883254,
			"0.0": 29.3009940252,
			"0.001": 22.9572549179,
			"0.002": 24.6366659615,
			"0.003": 24.5297650873,
			"0.004": 24.2018069168,
			"0.005": 17.4761272142,
			"0.006": 10.0730861054,
			"0.007": 3.59839663853,
			"0.008": 1.77086106672,
			"0.009": 0.597490062506,
			"0.01": 0.836860186163,
			"0.011": 0.513550516808,
			"0.012": 0.879627685583,
			"0.013": 0.425083768913,
			"0.014": 0.514560959091,
			"0.015": 0.763860040013,
			"0.016": 0.522666967803,
			"0.017": 0.61989972137,
			"0.018": 0.519240878814,
			"0.019": 0.296755107246,
			"0.02": 0.0,
			"0.021": 0.0,
			"0.022": 0.0,
			"0.023": 0.0,
			"0.024": 0.0,
			"0.025": 0.0
		}
	}
}
