{
	 "smiles": "CS(=O)(=O)NC1=CC=CC=C1NS(C)(=O)=O", 
	 "Tm": 486.15, 
	 "num_atms": 28, 
	 "gaussian": { 
		 "optdone": 1, 
		 "sigma_profile": "yes", 
		 "theory": "DFT", 
		 "functional": "B3LYP", 
		 "basiset": "6-31G**", 
		 "properties": { 
			 "R2extent": 4299.5426, 
			 "electric_dipole_moment_norm": 2.4513732376, 
			 "electric_quadrupole_moment_norm": 21.6148315554, 
			 "total_energy": -1518.72825683, 
			 "HOMO_LUMO_gap": 0.2151, 
			 "cosmo_polarized_energy": -22.61, 
			 "cosmo_cavitation_energy": 33.76, 
			 "cosmo_dispersion_energy": -24.46, 
			 "cosmo_repulsion_energy": 1.8, 
			 "cosmo_total_nonelectrostatic_energy": 11.1, 
			 "SMD_solvation_energy": 5.23 
		},
		"coords": [
			{
				"x": 2.1122799994,
				"y": 2.8887415555,
				"z": -1.028486701,
				"element": "C" 
			},
			{
				"x": 1.1227410321,
				"y": 1.3918356152,
				"z": -1.1622530014,
				"element": "S" 
			},
			{
				"x": 1.8600213745,
				"y": 0.4382563614,
				"z": -1.9912650282,
				"element": "O" 
			},
			{
				"x": -0.2477036457,
				"y": 1.8075407647,
				"z": -1.5039382158,
				"element": "O" 
			},
			{
				"x": 1.0733379771,
				"y": 0.8434733971,
				"z": 0.4445065523,
				"element": "N" 
			},
			{
				"x": 1.6956164626,
				"y": -0.3992474801,
				"z": 0.7851337102,
				"element": "C" 
			},
			{
				"x": 2.9676902695,
				"y": -0.3772520746,
				"z": 1.3601445973,
				"element": "C" 
			},
			{
				"x": 3.6163686738,
				"y": -1.5577340825,
				"z": 1.7192361205,
				"element": "C" 
			},
			{
				"x": 2.9753000261,
				"y": -2.7808605031,
				"z": 1.5243822622,
				"element": "C" 
			},
			{
				"x": 1.6949205571,
				"y": -2.8162225314,
				"z": 0.9749435387,
				"element": "C" 
			},
			{
				"x": 1.0500944098,
				"y": -1.6366849622,
				"z": 0.5858072719,
				"element": "C" 
			},
			{
				"x": -0.2030136691,
				"y": -1.7135356139,
				"z": -0.0982591289,
				"element": "N" 
			},
			{
				"x": -1.6690123594,
				"y": -1.2447102076,
				"z": 0.6646638257,
				"element": "S" 
			},
			{
				"x": -2.5478064007,
				"y": -0.5140081658,
				"z": -0.7189409719,
				"element": "C" 
			},
			{
				"x": -1.32381741,
				"y": -0.1834310543,
				"z": 1.622544817,
				"element": "O" 
			},
			{
				"x": -2.3972525715,
				"y": -2.4367925077,
				"z": 1.1060935298,
				"element": "O" 
			},
			{
				"x": 3.1076025749,
				"y": 2.6160650767,
				"z": -0.6765720142,
				"element": "H" 
			},
			{
				"x": 1.6235352917,
				"y": 3.5705858154,
				"z": -0.3324143806,
				"element": "H" 
			},
			{
				"x": 2.1668881036,
				"y": 3.328456915,
				"z": -2.0259939198,
				"element": "H" 
			},
			{
				"x": 0.1191004122,
				"y": 0.9191881199,
				"z": 0.8029291016,
				"element": "H" 
			},
			{
				"x": 3.436456458,
				"y": 0.5876767044,
				"z": 1.5239427108,
				"element": "H" 
			},
			{
				"x": 4.6087003827,
				"y": -1.5207569251,
				"z": 2.1573874725,
				"element": "H" 
			},
			{
				"x": 3.4624078438,
				"y": -3.7082873401,
				"z": 1.8094076594,
				"element": "H" 
			},
			{
				"x": 1.1873942699,
				"y": -3.7669282046,
				"z": 0.8354544562,
				"element": "H" 
			},
			{
				"x": -0.3485072558,
				"y": -2.6305446736,
				"z": -0.5130776395,
				"element": "H" 
			},
			{
				"x": -1.9531417693,
				"y": 0.3124412238,
				"z": -1.1135329721,
				"element": "H" 
			},
			{
				"x": -3.5062045905,
				"y": -0.1684435685,
				"z": -0.3263699275,
				"element": "H" 
			},
			{
				"x": -2.7087964467,
				"y": -1.2838216543,
				"z": -1.4752737252,
				"element": "H" 
			}
		],
		 "valence_orbital": [ 
			{
				"type": "occ",
				"energy": -0.30824,
				"method": "rhf"
			},
			{
				"type": "occ",
				"energy": -0.30273,
				"method": "rhf"
			},
			{
				"type": "occ",
				"energy": -0.28894,
				"method": "rhf"
			},
			{
				"type": "occ",
				"energy": -0.25972,
				"method": "rhf"
			},
			{
				"type": "occ",
				"energy": -0.24363,
				"method": "rhf"
			},
			{
				"type": "unocc",
				"energy": -0.02853,
				"method": "rhf"
			},
			{
				"type": "unocc",
				"energy": -0.02092,
				"method": "rhf"
			},
			{
				"type": "unocc",
				"energy": 0.0543,
				"method": "rhf"
			},
			{
				"type": "unocc",
				"energy": 0.0556,
				"method": "rhf"
			},
			{
				"type": "unocc",
				"energy": 0.06822,
				"method": "rhf"
			}
		],
		"cosmo_sigma_profile": { 
			"-0.025": 0.0,
			"-0.024": 0.0,
			"-0.023": 0.0,
			"-0.022": 0.0,
			"-0.021": 0.0,
			"-0.02": 0.0,
			"-0.019": 0.0,
			"-0.018": 0.0,
			"-0.017": 0.0220806243098,
			"-0.016": 0.983466336328,
			"-0.015": 1.32292155867,
			"-0.014": 1.42474963131,
			"-0.013": 1.60311887164,
			"-0.012": 1.2382995661,
			"-0.011": 1.60243161334,
			"-0.01": 2.15684814496,
			"-0.009": 6.78548965816,
			"-0.008": 10.4026717355,
			"-0.007": 14.3830889831,
			"-0.006": 19.4871128387,
			"-0.005": 18.709946728,
			"-0.004": 20.2136047311,
			"-0.003": 16.6863367244,
			"-0.002": 10.7958446449,
			"-0.001": 10.2512780288,
			"0.0": 9.81875598798,
			"0.001": 11.4132452966,
			"0.002": 13.0467448716,
			"0.003": 14.7196232729,
			"0.004": 12.7424021671,
			"0.005": 5.87899969815,
			"0.006": 5.70518830894,
			"0.007": 7.33215604729,
			"0.008": 7.80341622894,
			"0.009": 8.53263131717,
			"0.01": 14.2923288633,
			"0.011": 16.758158132,
			"0.012": 2.90238805876,
			"0.013": 0.0,
			"0.014": 0.0,
			"0.015": 0.0,
			"0.016": 0.0,
			"0.017": 0.0,
			"0.018": 0.0,
			"0.019": 0.0,
			"0.02": 0.0,
			"0.021": 0.0,
			"0.022": 0.0,
			"0.023": 0.0,
			"0.024": 0.0,
			"0.025": 0.0
		}
	}
}
