{
	 "smiles": "ClCC(=O)NCC1=C(C=CC=C1)S(=O)(=O)N1CCCCC1", 
	 "Tm": 363.15, 
	 "num_atms": 40, 
	 "gaussian": { 
		 "optdone": 1, 
		 "sigma_profile": "yes", 
		 "theory": "DFT", 
		 "functional": "B3LYP", 
		 "basiset": "6-31G**", 
		 "properties": { 
			 "R2extent": 8193.9238, 
			 "electric_dipole_moment_norm": 7.33747928038, 
			 "electric_quadrupole_moment_norm": 34.4450159084, 
			 "total_energy": -1738.43720496, 
			 "HOMO_LUMO_gap": 0.19381, 
			 "cosmo_polarized_energy": -20.34, 
			 "cosmo_cavitation_energy": 43.68, 
			 "cosmo_dispersion_energy": -30.17, 
			 "cosmo_repulsion_energy": 2.3, 
			 "cosmo_total_nonelectrostatic_energy": 15.81, 
			 "SMD_solvation_energy": 5.69 
		},
		"coords": [
			{
				"x": -0.3080481337,
				"y": -2.3673649258,
				"z": 4.1381688592,
				"element": "Cl" 
			},
			{
				"x": -1.5300071913,
				"y": -3.1795323707,
				"z": 3.0607277286,
				"element": "C" 
			},
			{
				"x": -0.987040536,
				"y": -3.5236598993,
				"z": 1.6693982652,
				"element": "C" 
			},
			{
				"x": -0.86912119,
				"y": -4.7006935244,
				"z": 1.354635468,
				"element": "O" 
			},
			{
				"x": -0.6677194908,
				"y": -2.5075739732,
				"z": 0.8206435884,
				"element": "N" 
			},
			{
				"x": -0.862478769,
				"y": -1.0708828205,
				"z": 0.9787629431,
				"element": "C" 
			},
			{
				"x": -2.0822909383,
				"y": -0.5377090684,
				"z": 0.2344521309,
				"element": "C" 
			},
			{
				"x": -2.1000326661,
				"y": -0.254117278,
				"z": -1.1469502087,
				"element": "C" 
			},
			{
				"x": -3.2589707118,
				"y": 0.1882316319,
				"z": -1.7900465681,
				"element": "C" 
			},
			{
				"x": -4.4310774539,
				"y": 0.3791195874,
				"z": -1.0587879454,
				"element": "C" 
			},
			{
				"x": -4.4326324726,
				"y": 0.1300952404,
				"z": 0.3119997995,
				"element": "C" 
			},
			{
				"x": -3.2708871968,
				"y": -0.3198799739,
				"z": 0.9416058866,
				"element": "C" 
			},
			{
				"x": -0.6517008908,
				"y": -0.4869810701,
				"z": -2.2007472128,
				"element": "S" 
			},
			{
				"x": -0.0279061522,
				"y": -1.7861050854,
				"z": -1.9022588578,
				"element": "O" 
			},
			{
				"x": -1.0589077909,
				"y": -0.1870090469,
				"z": -3.5801960119,
				"element": "O" 
			},
			{
				"x": 0.4194305668,
				"y": 0.6811590551,
				"z": -1.6046410753,
				"element": "N" 
			},
			{
				"x": 0.0620447151,
				"y": 2.0804781898,
				"z": -1.9181055946,
				"element": "C" 
			},
			{
				"x": 0.7479177831,
				"y": 3.0076625631,
				"z": -0.8941864984,
				"element": "C" 
			},
			{
				"x": 2.1176469387,
				"y": 2.445817066,
				"z": -0.4487495476,
				"element": "C" 
			},
			{
				"x": 2.7275443086,
				"y": 1.5899882963,
				"z": -1.5638017642,
				"element": "C" 
			},
			{
				"x": 1.8539120378,
				"y": 0.3549542196,
				"z": -1.8610122751,
				"element": "C" 
			},
			{
				"x": -2.400930193,
				"y": -2.5227150889,
				"z": 3.0205814067,
				"element": "H" 
			},
			{
				"x": -1.7930348339,
				"y": -4.1203161393,
				"z": 3.5376926645,
				"element": "H" 
			},
			{
				"x": -0.3514995996,
				"y": -2.8039750336,
				"z": -0.0975393898,
				"element": "H" 
			},
			{
				"x": 0.0370970397,
				"y": -0.5596805458,
				"z": 0.6272399856,
				"element": "H" 
			},
			{
				"x": -0.962628842,
				"y": -0.8375509895,
				"z": 2.0389979647,
				"element": "H" 
			},
			{
				"x": -3.2269107058,
				"y": 0.3747381259,
				"z": -2.8575530605,
				"element": "H" 
			},
			{
				"x": -5.330801635,
				"y": 0.7232154617,
				"z": -1.558987406,
				"element": "H" 
			},
			{
				"x": -5.3355272014,
				"y": 0.2851931684,
				"z": 0.8951743024,
				"element": "H" 
			},
			{
				"x": -3.2825193271,
				"y": -0.5007458429,
				"z": 2.0132070639,
				"element": "H" 
			},
			{
				"x": -1.0235613492,
				"y": 2.18824513,
				"z": -1.861990898,
				"element": "H" 
			},
			{
				"x": 0.3541971725,
				"y": 2.3301136293,
				"z": -2.9471980035,
				"element": "H" 
			},
			{
				"x": 0.0997854371,
				"y": 3.1415109656,
				"z": -0.0221455934,
				"element": "H" 
			},
			{
				"x": 0.8690446704,
				"y": 3.9945391898,
				"z": -1.3554262988,
				"element": "H" 
			},
			{
				"x": 1.9924552979,
				"y": 1.8286190385,
				"z": 0.4484035215,
				"element": "H" 
			},
			{
				"x": 2.7939955628,
				"y": 3.2620077649,
				"z": -0.1753762751,
				"element": "H" 
			},
			{
				"x": 3.7324585662,
				"y": 1.2470180807,
				"z": -1.2975808784,
				"element": "H" 
			},
			{
				"x": 2.8374742247,
				"y": 2.1979714422,
				"z": -2.4699128453,
				"element": "H" 
			},
			{
				"x": 2.1198691945,
				"y": -0.4764317464,
				"z": -1.2049239211,
				"element": "H" 
			},
			{
				"x": 2.0108617551,
				"y": 0.0249465762,
				"z": -2.8962734492,
				"element": "H" 
			}
		],
		 "valence_orbital": [ 
			{
				"type": "occ",
				"energy": -0.28599,
				"method": "rhf"
			},
			{
				"type": "occ",
				"energy": -0.27952,
				"method": "rhf"
			},
			{
				"type": "occ",
				"energy": -0.25867,
				"method": "rhf"
			},
			{
				"type": "occ",
				"energy": -0.24979,
				"method": "rhf"
			},
			{
				"type": "occ",
				"energy": -0.24603,
				"method": "rhf"
			},
			{
				"type": "unocc",
				"energy": -0.05222,
				"method": "rhf"
			},
			{
				"type": "unocc",
				"energy": -0.03365,
				"method": "rhf"
			},
			{
				"type": "unocc",
				"energy": -0.01338,
				"method": "rhf"
			},
			{
				"type": "unocc",
				"energy": 0.04214,
				"method": "rhf"
			},
			{
				"type": "unocc",
				"energy": 0.05131,
				"method": "rhf"
			}
		],
		"cosmo_sigma_profile": { 
			"-0.025": 0.0,
			"-0.024": 0.0,
			"-0.023": 0.0,
			"-0.022": 0.0,
			"-0.021": 0.0,
			"-0.02": 0.0,
			"-0.019": 0.0,
			"-0.018": 0.0,
			"-0.017": 0.0,
			"-0.016": 0.0,
			"-0.015": 0.0,
			"-0.014": 0.0372289707005,
			"-0.013": 0.231109289,
			"-0.012": 0.153238533836,
			"-0.011": 0.58726563362,
			"-0.01": 0.83882022968,
			"-0.009": 2.01546489347,
			"-0.008": 5.09514842325,
			"-0.007": 10.7667815219,
			"-0.006": 12.4308325173,
			"-0.005": 17.9051781474,
			"-0.004": 30.9403284084,
			"-0.003": 40.3564656819,
			"-0.002": 36.8399568007,
			"-0.001": 32.0599481528,
			"0.0": 29.4519025497,
			"0.001": 21.3295198881,
			"0.002": 21.1490951228,
			"0.003": 17.2188322106,
			"0.004": 9.34359869777,
			"0.005": 11.6833711347,
			"0.006": 7.22952578405,
			"0.007": 3.11302015376,
			"0.008": 3.50750558048,
			"0.009": 5.06681279152,
			"0.01": 6.94900697831,
			"0.011": 7.05388004352,
			"0.012": 4.86600052748,
			"0.013": 5.90205663111,
			"0.014": 2.5237351274,
			"0.015": 0.0153912047736,
			"0.016": 0.0,
			"0.017": 0.0,
			"0.018": 0.0,
			"0.019": 0.0,
			"0.02": 0.0,
			"0.021": 0.0,
			"0.022": 0.0,
			"0.023": 0.0,
			"0.024": 0.0,
			"0.025": 0.0
		}
	}
}
