{
	 "smiles": "CSC1=NC(N)=C(S1)C(N)=O", 
	 "Tm": 473.15, 
	 "num_atms": 18, 
	 "gaussian": { 
		 "optdone": 1, 
		 "sigma_profile": "yes", 
		 "theory": "DFT", 
		 "functional": "B3LYP", 
		 "basiset": "6-31G**", 
		 "properties": { 
			 "R2extent": 2972.5042, 
			 "electric_dipole_moment_norm": 1.89305692994, 
			 "electric_quadrupole_moment_norm": 14.590939856, 
			 "total_energy": -1230.62581077, 
			 "HOMO_LUMO_gap": 0.15783, 
			 "cosmo_polarized_energy": -13.63, 
			 "cosmo_cavitation_energy": 25.44, 
			 "cosmo_dispersion_energy": -20.16, 
			 "cosmo_repulsion_energy": 1.56, 
			 "cosmo_total_nonelectrostatic_energy": 6.83, 
			 "SMD_solvation_energy": 3.54 
		},
		"coords": [
			{
				"x": -3.9225913407,
				"y": -0.6235205929,
				"z": -1.2833615288,
				"element": "C" 
			},
			{
				"x": -2.6582470619,
				"y": -1.8250992354,
				"z": -1.8240322563,
				"element": "S" 
			},
			{
				"x": -1.2701300358,
				"y": -1.2297511806,
				"z": -0.9224822369,
				"element": "C" 
			},
			{
				"x": -1.2913962812,
				"y": -0.1950014063,
				"z": -0.1310508093,
				"element": "N" 
			},
			{
				"x": -0.0506769681,
				"y": 0.0210434613,
				"z": 0.4325502348,
				"element": "C" 
			},
			{
				"x": 0.1023254667,
				"y": 1.0420606912,
				"z": 1.3115923975,
				"element": "N" 
			},
			{
				"x": 0.9517314623,
				"y": -0.8722435968,
				"z": 0.0614569846,
				"element": "C" 
			},
			{
				"x": 0.276820773,
				"y": -2.0498879091,
				"z": -1.0686939076,
				"element": "S" 
			},
			{
				"x": 2.3320028892,
				"y": -0.7835448069,
				"z": 0.5108058949,
				"element": "C" 
			},
			{
				"x": 3.217540474,
				"y": -1.7444551513,
				"z": 0.0762647543,
				"element": "N" 
			},
			{
				"x": 2.7151004201,
				"y": 0.1479115611,
				"z": 1.2352513651,
				"element": "O" 
			},
			{
				"x": -4.8432113335,
				"y": -0.9158961306,
				"z": -1.7921163748,
				"element": "H" 
			},
			{
				"x": -4.0550683759,
				"y": -0.6737809549,
				"z": -0.2026074052,
				"element": "H" 
			},
			{
				"x": -3.6346161392,
				"y": 0.3867065382,
				"z": -1.5742589368,
				"element": "H" 
			},
			{
				"x": 1.0626509728,
				"y": 1.2513956407,
				"z": 1.5641927955,
				"element": "H" 
			},
			{
				"x": -0.6046841659,
				"y": 1.7592354709,
				"z": 1.3207538677,
				"element": "H" 
			},
			{
				"x": 4.1206615914,
				"y": -1.7239550325,
				"z": 0.5274286243,
				"element": "H" 
			},
			{
				"x": 2.8868876528,
				"y": -2.647017366,
				"z": -0.2300934629,
				"element": "H" 
			}
		],
		 "valence_orbital": [ 
			{
				"type": "occ",
				"energy": -0.28824,
				"method": "rhf"
			},
			{
				"type": "occ",
				"energy": -0.26815,
				"method": "rhf"
			},
			{
				"type": "occ",
				"energy": -0.25515,
				"method": "rhf"
			},
			{
				"type": "occ",
				"energy": -0.25196,
				"method": "rhf"
			},
			{
				"type": "occ",
				"energy": -0.19833,
				"method": "rhf"
			},
			{
				"type": "unocc",
				"energy": -0.0405,
				"method": "rhf"
			},
			{
				"type": "unocc",
				"energy": -0.00676,
				"method": "rhf"
			},
			{
				"type": "unocc",
				"energy": 0.02428,
				"method": "rhf"
			},
			{
				"type": "unocc",
				"energy": 0.03141,
				"method": "rhf"
			},
			{
				"type": "unocc",
				"energy": 0.05355,
				"method": "rhf"
			}
		],
		"cosmo_sigma_profile": { 
			"-0.025": 0.0,
			"-0.024": 0.0,
			"-0.023": 0.0,
			"-0.022": 0.0,
			"-0.021": 0.0,
			"-0.02": 0.0,
			"-0.019": 0.0,
			"-0.018": 0.0,
			"-0.017": 0.0,
			"-0.016": 0.0,
			"-0.015": 0.0,
			"-0.014": 1.37902735289,
			"-0.013": 3.23537175698,
			"-0.012": 3.13789316706,
			"-0.011": 3.52396492028,
			"-0.01": 3.53863736383,
			"-0.009": 4.01764950943,
			"-0.008": 4.78654543436,
			"-0.007": 5.92121191765,
			"-0.006": 6.95975711246,
			"-0.005": 8.95335267703,
			"-0.004": 9.8064900743,
			"-0.003": 11.100609844,
			"-0.002": 12.0688716715,
			"-0.001": 10.1621059027,
			"0.0": 14.998636824,
			"0.001": 16.3349319003,
			"0.002": 17.4747273965,
			"0.003": 17.2128060248,
			"0.004": 11.8979032464,
			"0.005": 8.77650705923,
			"0.006": 7.01124807273,
			"0.007": 5.49978272815,
			"0.008": 3.37375939543,
			"0.009": 3.89276909962,
			"0.01": 2.43176713884,
			"0.011": 1.655789188,
			"0.012": 1.94710249123,
			"0.013": 2.11489617388,
			"0.014": 2.50804341555,
			"0.015": 0.769819850889,
			"0.016": 0.0,
			"0.017": 0.0,
			"0.018": 0.0,
			"0.019": 0.0,
			"0.02": 0.0,
			"0.021": 0.0,
			"0.022": 0.0,
			"0.023": 0.0,
			"0.024": 0.0,
			"0.025": 0.0
		}
	}
}
