{
	 "smiles": "CC1=C(C)C=C(C=C1)N(C1CS(=O)(=O)C=C1)C(=O)CCl", 
	 "Tm": 410.15, 
	 "num_atms": 36, 
	 "gaussian": { 
		 "optdone": 1, 
		 "sigma_profile": "yes", 
		 "theory": "DFT", 
		 "functional": "B3LYP", 
		 "basiset": "6-31G**", 
		 "properties": { 
			 "R2extent": 8143.4767, 
			 "electric_dipole_moment_norm": 8.10363505657, 
			 "electric_quadrupole_moment_norm": 27.7115658123, 
			 "total_energy": -1681.85988529, 
			 "HOMO_LUMO_gap": 0.21672, 
			 "cosmo_polarized_energy": -23.29, 
			 "cosmo_cavitation_energy": 42.36, 
			 "cosmo_dispersion_energy": -28.89, 
			 "cosmo_repulsion_energy": 2.2, 
			 "cosmo_total_nonelectrostatic_energy": 15.68, 
			 "SMD_solvation_energy": 6.8 
		},
		"coords": [
			{
				"x": -0.9429691533,
				"y": 4.1874026071,
				"z": 1.9073164268,
				"element": "C" 
			},
			{
				"x": -0.8720998105,
				"y": 2.8232897,
				"z": 1.2654078806,
				"element": "C" 
			},
			{
				"x": -1.1701102965,
				"y": 1.6579959138,
				"z": 2.0073066645,
				"element": "C" 
			},
			{
				"x": -1.5710907158,
				"y": 1.7459166193,
				"z": 3.4599632818,
				"element": "C" 
			},
			{
				"x": -1.0966237337,
				"y": 0.4125145155,
				"z": 1.376622876,
				"element": "C" 
			},
			{
				"x": -0.7324573631,
				"y": 0.2994772733,
				"z": 0.0318560638,
				"element": "C" 
			},
			{
				"x": -0.4309627593,
				"y": 1.4489531529,
				"z": -0.700692586,
				"element": "C" 
			},
			{
				"x": -0.5092292637,
				"y": 2.6955843418,
				"z": -0.0799231045,
				"element": "C" 
			},
			{
				"x": -0.6232088778,
				"y": -1.0024818135,
				"z": -0.5776284241,
				"element": "N" 
			},
			{
				"x": 0.656118803,
				"y": -1.7167102749,
				"z": -0.4255924181,
				"element": "C" 
			},
			{
				"x": 1.5594123141,
				"y": -1.675131617,
				"z": -1.6762123807,
				"element": "C" 
			},
			{
				"x": 2.6552215541,
				"y": -3.1316985815,
				"z": -1.5044885195,
				"element": "S" 
			},
			{
				"x": 3.8321600423,
				"y": -2.758019517,
				"z": -0.7012309134,
				"element": "O" 
			},
			{
				"x": 2.840054266,
				"y": -3.813487693,
				"z": -2.7920261947,
				"element": "O" 
			},
			{
				"x": 1.4759587533,
				"y": -3.9965620245,
				"z": -0.4796462873,
				"element": "C" 
			},
			{
				"x": 0.5163534973,
				"y": -3.1830869595,
				"z": -0.0462394335,
				"element": "C" 
			},
			{
				"x": -1.5838909513,
				"y": -1.5464273537,
				"z": -1.4014387711,
				"element": "C" 
			},
			{
				"x": -1.3862536581,
				"y": -2.572269402,
				"z": -2.0392135971,
				"element": "O" 
			},
			{
				"x": -2.9376839631,
				"y": -0.8415065101,
				"z": -1.4726412719,
				"element": "C" 
			},
			{
				"x": -3.9785464776,
				"y": -1.3199330257,
				"z": -0.063824985,
				"element": "Cl" 
			},
			{
				"x": -0.2589511697,
				"y": 4.2672476085,
				"z": 2.7605667008,
				"element": "H" 
			},
			{
				"x": -1.9484409021,
				"y": 4.4013774403,
				"z": 2.2888804696,
				"element": "H" 
			},
			{
				"x": -0.6814850977,
				"y": 4.9735664474,
				"z": 1.1948419631,
				"element": "H" 
			},
			{
				"x": -2.4782191031,
				"y": 2.3477044316,
				"z": 3.5907797185,
				"element": "H" 
			},
			{
				"x": -0.7886864224,
				"y": 2.2183371939,
				"z": 4.0657395696,
				"element": "H" 
			},
			{
				"x": -1.7654618196,
				"y": 0.7550823611,
				"z": 3.8773451228,
				"element": "H" 
			},
			{
				"x": -1.3378396684,
				"y": -0.4886554044,
				"z": 1.9324105503,
				"element": "H" 
			},
			{
				"x": -0.1379731465,
				"y": 1.3665479498,
				"z": -1.7432697433,
				"element": "H" 
			},
			{
				"x": -0.2771984804,
				"y": 3.5896067647,
				"z": -0.652449157,
				"element": "H" 
			},
			{
				"x": 1.1677724847,
				"y": -1.210796688,
				"z": 0.4000580856,
				"element": "H" 
			},
			{
				"x": 0.9665171647,
				"y": -1.8340254233,
				"z": -2.5773076053,
				"element": "H" 
			},
			{
				"x": 2.1824234438,
				"y": -0.7833975524,
				"z": -1.7524242667,
				"element": "H" 
			},
			{
				"x": 1.6162102018,
				"y": -5.0500501683,
				"z": -0.274463158,
				"element": "H" 
			},
			{
				"x": -0.2958032445,
				"y": -3.4972351199,
				"z": 0.6019810528,
				"element": "H" 
			},
			{
				"x": -2.8672672244,
				"y": 0.2446302807,
				"z": -1.4587349626,
				"element": "H" 
			},
			{
				"x": -3.4416492225,
				"y": -1.1908594733,
				"z": -2.3712286473,
				"element": "H" 
			}
		],
		 "valence_orbital": [ 
			{
				"type": "occ",
				"energy": -0.28486,
				"method": "rhf"
			},
			{
				"type": "occ",
				"energy": -0.27491,
				"method": "rhf"
			},
			{
				"type": "occ",
				"energy": -0.26806,
				"method": "rhf"
			},
			{
				"type": "occ",
				"energy": -0.26294,
				"method": "rhf"
			},
			{
				"type": "occ",
				"energy": -0.25641,
				"method": "rhf"
			},
			{
				"type": "unocc",
				"energy": -0.03969,
				"method": "rhf"
			},
			{
				"type": "unocc",
				"energy": -0.03119,
				"method": "rhf"
			},
			{
				"type": "unocc",
				"energy": -0.02739,
				"method": "rhf"
			},
			{
				"type": "unocc",
				"energy": -0.02287,
				"method": "rhf"
			},
			{
				"type": "unocc",
				"energy": 0.04474,
				"method": "rhf"
			}
		],
		"cosmo_sigma_profile": { 
			"-0.025": 0.0,
			"-0.024": 0.0,
			"-0.023": 0.0,
			"-0.022": 0.0,
			"-0.021": 0.0,
			"-0.02": 0.0,
			"-0.019": 0.0,
			"-0.018": 0.0,
			"-0.017": 0.0,
			"-0.016": 0.0,
			"-0.015": 0.0,
			"-0.014": 0.0,
			"-0.013": 0.0,
			"-0.012": 0.0,
			"-0.011": 0.317935618195,
			"-0.01": 2.11639271412,
			"-0.009": 5.42358924123,
			"-0.008": 10.8676131794,
			"-0.007": 14.1243567268,
			"-0.006": 22.0332082244,
			"-0.005": 26.8323594983,
			"-0.004": 28.3729501261,
			"-0.003": 23.622527625,
			"-0.002": 20.2163012936,
			"-0.001": 22.9597141591,
			"0.0": 26.5728676413,
			"0.001": 18.5210702276,
			"0.002": 14.4069915974,
			"0.003": 16.479186846,
			"0.004": 16.6409621893,
			"0.005": 13.985600634,
			"0.006": 6.68329652987,
			"0.007": 4.09974796087,
			"0.008": 3.85906643072,
			"0.009": 4.43865114497,
			"0.01": 6.1145134234,
			"0.011": 14.2236724458,
			"0.012": 12.4888992163,
			"0.013": 2.32490291364,
			"0.014": 0.0523808696124,
			"0.015": 0.0,
			"0.016": 0.0,
			"0.017": 0.0,
			"0.018": 0.0,
			"0.019": 0.0,
			"0.02": 0.0,
			"0.021": 0.0,
			"0.022": 0.0,
			"0.023": 0.0,
			"0.024": 0.0,
			"0.025": 0.0
		}
	}
}
