{
	 "smiles": "CC#C[Si](C)(C)C", 
	 "Tm": 204.15, 
	 "num_atms": 19, 
	 "gaussian": { 
		 "optdone": 1, 
		 "sigma_profile": "yes", 
		 "theory": "DFT", 
		 "functional": "B3LYP", 
		 "basiset": "6-31G**", 
		 "properties": { 
			 "R2extent": 1567.6947, 
			 "electric_dipole_moment_norm": 0.687685414997, 
			 "electric_quadrupole_moment_norm": 6.11329013298, 
			 "total_energy": -525.364818218, 
			 "HOMO_LUMO_gap": 0.28172, 
			 "cosmo_polarized_energy": -3.9, 
			 "cosmo_cavitation_energy": 24.22, 
			 "cosmo_dispersion_energy": -14.85, 
			 "cosmo_repulsion_energy": 1.43, 
			 "cosmo_total_nonelectrostatic_energy": 10.81, 
			 "SMD_solvation_energy": 6.98 
		},
		"coords": [
			{
				"x": 1.0145999941,
				"y": -0.6302606168,
				"z": 2.9208214538,
				"element": "C" 
			},
			{
				"x": 0.8762459917,
				"y": -0.1931588413,
				"z": 1.5360401551,
				"element": "C" 
			},
			{
				"x": 0.7606643581,
				"y": 0.1718746393,
				"z": 0.3796259727,
				"element": "C" 
			},
			{
				"x": 0.5857175909,
				"y": 0.7228217418,
				"z": -1.3643766684,
				"element": "Si" 
			},
			{
				"x": 2.0803990494,
				"y": 1.7830109052,
				"z": -1.8280419425,
				"element": "C" 
			},
			{
				"x": 0.5012515712,
				"y": -0.7972898807,
				"z": -2.4847533917,
				"element": "C" 
			},
			{
				"x": -1.000789569,
				"y": 1.7366362715,
				"z": -1.5331387599,
				"element": "C" 
			},
			{
				"x": 1.8702259174,
				"y": -0.1461434672,
				"z": 3.4051887901,
				"element": "H" 
			},
			{
				"x": 0.1193939907,
				"y": -0.3865860291,
				"z": 3.5041818343,
				"element": "H" 
			},
			{
				"x": 1.166793325,
				"y": -1.7139307419,
				"z": 2.9805963332,
				"element": "H" 
			},
			{
				"x": 2.0061469364,
				"y": 2.1283146479,
				"z": -2.8657110161,
				"element": "H" 
			},
			{
				"x": 2.1550838325,
				"y": 2.6665951368,
				"z": -1.1857508296,
				"element": "H" 
			},
			{
				"x": 3.0135202583,
				"y": 1.2188505658,
				"z": -1.7289071058,
				"element": "H" 
			},
			{
				"x": 1.4072875122,
				"y": -1.4058415957,
				"z": -2.3975517279,
				"element": "H" 
			},
			{
				"x": -0.3529915017,
				"y": -1.4324365177,
				"z": -2.2284733324,
				"element": "H" 
			},
			{
				"x": 0.3959112373,
				"y": -0.5016190771,
				"z": -3.5349833964,
				"element": "H" 
			},
			{
				"x": -1.8809533942,
				"y": 1.1448780545,
				"z": -1.2611577353,
				"element": "H" 
			},
			{
				"x": -0.9789879517,
				"y": 2.618990967,
				"z": -0.8852183341,
				"element": "H" 
			},
			{
				"x": -1.1347191488,
				"y": 2.0816938376,
				"z": -2.564890299,
				"element": "H" 
			}
		],
		 "valence_orbital": [ 
			{
				"type": "occ",
				"energy": -0.34017,
				"method": "rhf"
			},
			{
				"type": "occ",
				"energy": -0.30106,
				"method": "rhf"
			},
			{
				"type": "occ",
				"energy": -0.30105,
				"method": "rhf"
			},
			{
				"type": "occ",
				"energy": -0.24923,
				"method": "rhf"
			},
			{
				"type": "occ",
				"energy": -0.24922,
				"method": "rhf"
			},
			{
				"type": "unocc",
				"energy": 0.0325,
				"method": "rhf"
			},
			{
				"type": "unocc",
				"energy": 0.0325,
				"method": "rhf"
			},
			{
				"type": "unocc",
				"energy": 0.08343,
				"method": "rhf"
			},
			{
				"type": "unocc",
				"energy": 0.10549,
				"method": "rhf"
			},
			{
				"type": "unocc",
				"energy": 0.12745,
				"method": "rhf"
			}
		],
		"cosmo_sigma_profile": { 
			"-0.025": 0.0,
			"-0.024": 0.0,
			"-0.023": 0.0,
			"-0.022": 0.0,
			"-0.021": 0.0,
			"-0.02": 0.0,
			"-0.019": 0.0,
			"-0.018": 0.0,
			"-0.017": 0.0,
			"-0.016": 0.0,
			"-0.015": 0.0,
			"-0.014": 0.0,
			"-0.013": 0.0,
			"-0.012": 0.0,
			"-0.011": 0.0,
			"-0.01": 0.0,
			"-0.009": 0.0,
			"-0.008": 0.0,
			"-0.007": 0.217393760709,
			"-0.006": 4.85098385545,
			"-0.005": 4.59937189538,
			"-0.004": 12.0731761098,
			"-0.003": 22.8821464374,
			"-0.002": 27.2710841631,
			"-0.001": 22.3041673477,
			"0.0": 18.4312573583,
			"0.001": 25.0016861359,
			"0.002": 15.0631982803,
			"0.003": 8.09692339969,
			"0.004": 3.92023397352,
			"0.005": 4.52881254633,
			"0.006": 4.58790809044,
			"0.007": 5.3953106197,
			"0.008": 7.39060381526,
			"0.009": 0.518106458046,
			"0.01": 0.0,
			"0.011": 0.0,
			"0.012": 0.0,
			"0.013": 0.0,
			"0.014": 0.0,
			"0.015": 0.0,
			"0.016": 0.0,
			"0.017": 0.0,
			"0.018": 0.0,
			"0.019": 0.0,
			"0.02": 0.0,
			"0.021": 0.0,
			"0.022": 0.0,
			"0.023": 0.0,
			"0.024": 0.0,
			"0.025": 0.0
		}
	}
}
