{
	 "smiles": "COC(=O)C1=C(CSC2=C(C=CC=C2)C(O)=O)OC=C1", 
	 "Tm": 431.15, 
	 "num_atms": 32, 
	 "gaussian": { 
		 "optdone": 1, 
		 "sigma_profile": "yes", 
		 "theory": "DFT", 
		 "functional": "B3LYP", 
		 "basiset": "6-31G**", 
		 "properties": { 
			 "R2extent": 5702.5556, 
			 "electric_dipole_moment_norm": 3.91571530885, 
			 "electric_quadrupole_moment_norm": 13.9515223564, 
			 "total_energy": -1315.02539388, 
			 "HOMO_LUMO_gap": 0.17645, 
			 "cosmo_polarized_energy": -15.3, 
			 "cosmo_cavitation_energy": 37.7, 
			 "cosmo_dispersion_energy": -25.46, 
			 "cosmo_repulsion_energy": 1.88, 
			 "cosmo_total_nonelectrostatic_energy": 14.13, 
			 "SMD_solvation_energy": 9.22 
		},
		"coords": [
			{
				"x": 0.2536089191,
				"y": 1.7280540295,
				"z": 1.8876142934,
				"element": "C" 
			},
			{
				"x": 0.1450705533,
				"y": 0.9747930453,
				"z": 0.6608612342,
				"element": "O" 
			},
			{
				"x": -0.808896306,
				"y": 1.3979181371,
				"z": -0.1995394682,
				"element": "C" 
			},
			{
				"x": -1.5425083935,
				"y": 2.3416542183,
				"z": 0.0201093,
				"element": "O" 
			},
			{
				"x": -0.8696340734,
				"y": 0.5987875799,
				"z": -1.4384805107,
				"element": "C" 
			},
			{
				"x": -0.1100909817,
				"y": -0.4718368469,
				"z": -1.8565708492,
				"element": "C" 
			},
			{
				"x": 1.0021645271,
				"y": -1.2445015748,
				"z": -1.2611871333,
				"element": "C" 
			},
			{
				"x": 0.5324919363,
				"y": -2.9682208123,
				"z": -0.6982786476,
				"element": "S" 
			},
			{
				"x": -0.6314031004,
				"y": -2.6467116049,
				"z": 0.6399547176,
				"element": "C" 
			},
			{
				"x": -0.2582128906,
				"y": -2.1861830864,
				"z": 1.9240455761,
				"element": "C" 
			},
			{
				"x": -1.2629816821,
				"y": -2.0078220182,
				"z": 2.8867252313,
				"element": "C" 
			},
			{
				"x": -2.5962096007,
				"y": -2.2970879239,
				"z": 2.6106169925,
				"element": "C" 
			},
			{
				"x": -2.9564166994,
				"y": -2.7575127133,
				"z": 1.3448636692,
				"element": "C" 
			},
			{
				"x": -1.9773308647,
				"y": -2.9217896596,
				"z": 0.3657111752,
				"element": "C" 
			},
			{
				"x": 1.1355589178,
				"y": -1.8248651456,
				"z": 2.3951247804,
				"element": "C" 
			},
			{
				"x": 2.1934744891,
				"y": -2.2810565024,
				"z": 1.7064018636,
				"element": "O" 
			},
			{
				"x": 1.3053560597,
				"y": -1.1470079493,
				"z": 3.3883977985,
				"element": "O" 
			},
			{
				"x": -0.5245837843,
				"y": -0.8639212082,
				"z": -3.0921498361,
				"element": "O" 
			},
			{
				"x": -1.5521392255,
				"y": -0.0405279199,
				"z": -3.4667837859,
				"element": "C" 
			},
			{
				"x": -1.8025349779,
				"y": 0.872724146,
				"z": -2.4972181434,
				"element": "C" 
			},
			{
				"x": -0.7283465524,
				"y": 1.8351334942,
				"z": 2.3519307147,
				"element": "H" 
			},
			{
				"x": 0.9220912991,
				"y": 1.1527329765,
				"z": 2.52540898,
				"element": "H" 
			},
			{
				"x": 0.6593462762,
				"y": 2.7219422177,
				"z": 1.6813705383,
				"element": "H" 
			},
			{
				"x": 1.7797626479,
				"y": -1.4377139053,
				"z": -2.0060057206,
				"element": "H" 
			},
			{
				"x": 1.4324534927,
				"y": -0.704580998,
				"z": -0.4202229974,
				"element": "H" 
			},
			{
				"x": -0.9615002936,
				"y": -1.6360951443,
				"z": 3.8594602811,
				"element": "H" 
			},
			{
				"x": -3.3497916019,
				"y": -2.1592957387,
				"z": 3.3799644118,
				"element": "H" 
			},
			{
				"x": -3.9935307227,
				"y": -2.9809282759,
				"z": 1.1133428915,
				"element": "H" 
			},
			{
				"x": -2.2483075031,
				"y": -3.266041162,
				"z": -0.6267156523,
				"element": "H" 
			},
			{
				"x": 1.9022999987,
				"y": -2.8032412337,
				"z": 0.9254269633,
				"element": "H" 
			},
			{
				"x": -1.977159167,
				"y": -0.2372486653,
				"z": -4.4383970268,
				"element": "H" 
			},
			{
				"x": -2.5427006958,
				"y": 1.6581502444,
				"z": -2.4955816412,
				"element": "H" 
			}
		],
		 "valence_orbital": [ 
			{
				"type": "occ",
				"energy": -0.2788,
				"method": "rhf"
			},
			{
				"type": "occ",
				"energy": -0.27742,
				"method": "rhf"
			},
			{
				"type": "occ",
				"energy": -0.2686,
				"method": "rhf"
			},
			{
				"type": "occ",
				"energy": -0.2629,
				"method": "rhf"
			},
			{
				"type": "occ",
				"energy": -0.24161,
				"method": "rhf"
			},
			{
				"type": "unocc",
				"energy": -0.06516,
				"method": "rhf"
			},
			{
				"type": "unocc",
				"energy": -0.04409,
				"method": "rhf"
			},
			{
				"type": "unocc",
				"energy": -0.02765,
				"method": "rhf"
			},
			{
				"type": "unocc",
				"energy": 0.01007,
				"method": "rhf"
			},
			{
				"type": "unocc",
				"energy": 0.02738,
				"method": "rhf"
			}
		],
		"cosmo_sigma_profile": { 
			"-0.025": 0.0,
			"-0.024": 0.0,
			"-0.023": 0.0,
			"-0.022": 0.0,
			"-0.021": 0.0,
			"-0.02": 0.0,
			"-0.019": 0.0,
			"-0.018": 0.0,
			"-0.017": 0.0,
			"-0.016": 0.0,
			"-0.015": 0.0,
			"-0.014": 0.0,
			"-0.013": 0.0,
			"-0.012": 0.0,
			"-0.011": 0.0,
			"-0.01": 1.08725975045,
			"-0.009": 4.3733519258,
			"-0.008": 6.15777267372,
			"-0.007": 12.0074313876,
			"-0.006": 16.2172558136,
			"-0.005": 22.1331968883,
			"-0.004": 19.6981802588,
			"-0.003": 22.3935704506,
			"-0.002": 21.2847812201,
			"-0.001": 23.1859162316,
			"0.0": 23.771880073,
			"0.001": 27.6612182665,
			"0.002": 29.2349140737,
			"0.003": 17.336495139,
			"0.004": 7.89937539766,
			"0.005": 7.35500227222,
			"0.006": 6.39707908936,
			"0.007": 5.362717138,
			"0.008": 4.50030298859,
			"0.009": 4.08227853445,
			"0.01": 5.84091986212,
			"0.011": 7.42442330571,
			"0.012": 7.2974780349,
			"0.013": 1.57697217196,
			"0.014": 0.0843776753118,
			"0.015": 0.0,
			"0.016": 0.0,
			"0.017": 0.0,
			"0.018": 0.0,
			"0.019": 0.0,
			"0.02": 0.0,
			"0.021": 0.0,
			"0.022": 0.0,
			"0.023": 0.0,
			"0.024": 0.0,
			"0.025": 0.0
		}
	}
}
