{
	 "smiles": "O=C1CCCC[C@H]1P(=S)(C1=CC=CC=C1)C1=CC=CC=C1", 
	 "Tm": 423.15, 
	 "num_atms": 40, 
	 "gaussian": { 
		 "optdone": 1, 
		 "sigma_profile": "yes", 
		 "theory": "DFT", 
		 "functional": "B3LYP", 
		 "basiset": "6-31G**", 
		 "properties": { 
			 "R2extent": 6944.5544, 
			 "electric_dipole_moment_norm": 4.21734736298, 
			 "electric_quadrupole_moment_norm": 26.5915824275, 
			 "total_energy": -1512.15667848, 
			 "HOMO_LUMO_gap": 0.17453, 
			 "cosmo_polarized_energy": -17.42, 
			 "cosmo_cavitation_energy": 43.53, 
			 "cosmo_dispersion_energy": -29.78, 
			 "cosmo_repulsion_energy": 2.24, 
			 "cosmo_total_nonelectrostatic_energy": 15.98, 
			 "SMD_solvation_energy": 6.2 
		},
		"coords": [
			{
				"x": 0.1286729888,
				"y": 1.0083425812,
				"z": 1.1778435379,
				"element": "O" 
			},
			{
				"x": 0.9364938297,
				"y": 0.1048485132,
				"z": 1.0672819069,
				"element": "C" 
			},
			{
				"x": 1.737955216,
				"y": -0.3997940855,
				"z": 2.2619847395,
				"element": "C" 
			},
			{
				"x": 3.1273128748,
				"y": -0.9096961347,
				"z": 1.8538816093,
				"element": "C" 
			},
			{
				"x": 3.0381231009,
				"y": -2.0690898778,
				"z": 0.8321838194,
				"element": "C" 
			},
			{
				"x": 1.7353174906,
				"y": -2.0426412659,
				"z": 0.0002306853,
				"element": "C" 
			},
			{
				"x": 1.2438365079,
				"y": -0.6009892689,
				"z": -0.2597915322,
				"element": "C" 
			},
			{
				"x": -0.1073874453,
				"y": -0.5572138719,
				"z": -1.5705215224,
				"element": "P" 
			},
			{
				"x": 0.503063572,
				"y": -1.4920903004,
				"z": -3.2086265007,
				"element": "S" 
			},
			{
				"x": -1.5865665813,
				"y": -1.3288659287,
				"z": -0.788750974,
				"element": "C" 
			},
			{
				"x": -2.325660374,
				"y": -0.6727150251,
				"z": 0.2113670558,
				"element": "C" 
			},
			{
				"x": -3.4247201737,
				"y": -1.3056099285,
				"z": 0.792630254,
				"element": "C" 
			},
			{
				"x": -3.7950959709,
				"y": -2.5898630428,
				"z": 0.3866371876,
				"element": "C" 
			},
			{
				"x": -3.0662805207,
				"y": -3.2421060251,
				"z": -0.6088198959,
				"element": "C" 
			},
			{
				"x": -1.9679953226,
				"y": -2.6139211561,
				"z": -1.1980724722,
				"element": "C" 
			},
			{
				"x": -0.5382461278,
				"y": 1.1962718227,
				"z": -1.8766144915,
				"element": "C" 
			},
			{
				"x": -1.8302472416,
				"y": 1.5142380707,
				"z": -2.3190311762,
				"element": "C" 
			},
			{
				"x": -2.1505938523,
				"y": 2.8252618251,
				"z": -2.6719929602,
				"element": "C" 
			},
			{
				"x": -1.1840482397,
				"y": 3.8286133827,
				"z": -2.5940088137,
				"element": "C" 
			},
			{
				"x": 0.1073472963,
				"y": 3.515872209,
				"z": -2.1651668313,
				"element": "C" 
			},
			{
				"x": 0.4300867682,
				"y": 2.2071139926,
				"z": -1.8108292077,
				"element": "C" 
			},
			{
				"x": 1.7805631881,
				"y": 0.406317758,
				"z": 2.9998127342,
				"element": "H" 
			},
			{
				"x": 1.1551920824,
				"y": -1.214496469,
				"z": 2.7174438894,
				"element": "H" 
			},
			{
				"x": 3.6907300779,
				"y": -0.0736289758,
				"z": 1.4215798849,
				"element": "H" 
			},
			{
				"x": 3.6867196402,
				"y": -1.2209086417,
				"z": 2.7418390643,
				"element": "H" 
			},
			{
				"x": 3.9036306184,
				"y": -2.027463042,
				"z": 0.1619619722,
				"element": "H" 
			},
			{
				"x": 3.0977158215,
				"y": -3.0326732411,
				"z": 1.3501895208,
				"element": "H" 
			},
			{
				"x": 1.8833602252,
				"y": -2.552143898,
				"z": -0.9545061599,
				"element": "H" 
			},
			{
				"x": 0.9420172357,
				"y": -2.5875517519,
				"z": 0.5254733571,
				"element": "H" 
			},
			{
				"x": 2.0702483453,
				"y": -0.0422369004,
				"z": -0.7256393062,
				"element": "H" 
			},
			{
				"x": -2.0419184199,
				"y": 0.3229584883,
				"z": 0.5319357127,
				"element": "H" 
			},
			{
				"x": -3.9938946564,
				"y": -0.7914840975,
				"z": 1.5618610329,
				"element": "H" 
			},
			{
				"x": -4.6529390584,
				"y": -3.0773292151,
				"z": 0.8414782904,
				"element": "H" 
			},
			{
				"x": -3.3548308942,
				"y": -4.2374920112,
				"z": -0.9339719379,
				"element": "H" 
			},
			{
				"x": -1.4059018008,
				"y": -3.1038488828,
				"z": -1.9875474995,
				"element": "H" 
			},
			{
				"x": -2.5867890975,
				"y": 0.7394415265,
				"z": -2.3892196812,
				"element": "H" 
			},
			{
				"x": -3.1558629739,
				"y": 3.0603229962,
				"z": -3.0093552881,
				"element": "H" 
			},
			{
				"x": -1.434095202,
				"y": 4.8491886725,
				"z": -2.8689875978,
				"element": "H" 
			},
			{
				"x": 0.8648786493,
				"y": 4.2917260366,
				"z": -2.1042319762,
				"element": "H" 
			},
			{
				"x": 1.4400084238,
				"y": 1.9838351625,
				"z": -1.4831304299,
				"element": "H" 
			}
		],
		 "valence_orbital": [ 
			{
				"type": "occ",
				"energy": -0.2598,
				"method": "rhf"
			},
			{
				"type": "occ",
				"energy": -0.25389,
				"method": "rhf"
			},
			{
				"type": "occ",
				"energy": -0.24671,
				"method": "rhf"
			},
			{
				"type": "occ",
				"energy": -0.21316,
				"method": "rhf"
			},
			{
				"type": "occ",
				"energy": -0.2094,
				"method": "rhf"
			},
			{
				"type": "unocc",
				"energy": -0.03487,
				"method": "rhf"
			},
			{
				"type": "unocc",
				"energy": -0.02671,
				"method": "rhf"
			},
			{
				"type": "unocc",
				"energy": -0.02264,
				"method": "rhf"
			},
			{
				"type": "unocc",
				"energy": -0.01229,
				"method": "rhf"
			},
			{
				"type": "unocc",
				"energy": -0.00263,
				"method": "rhf"
			}
		],
		"cosmo_sigma_profile": { 
			"-0.025": 0.0,
			"-0.024": 0.0,
			"-0.023": 0.0,
			"-0.022": 0.0,
			"-0.021": 0.0,
			"-0.02": 0.0,
			"-0.019": 0.0,
			"-0.018": 0.0,
			"-0.017": 0.0,
			"-0.016": 0.0,
			"-0.015": 0.0,
			"-0.014": 0.0,
			"-0.013": 0.0,
			"-0.012": 0.0,
			"-0.011": 0.00650299355914,
			"-0.01": 0.967086440229,
			"-0.009": 2.43902328787,
			"-0.008": 2.7030991531,
			"-0.007": 6.37267105447,
			"-0.006": 21.3568093057,
			"-0.005": 25.8116160864,
			"-0.004": 29.9864881393,
			"-0.003": 32.7818021854,
			"-0.002": 33.9716645871,
			"-0.001": 29.0391939605,
			"0.0": 24.9124049566,
			"0.001": 18.3368626873,
			"0.002": 17.2837397172,
			"0.003": 19.3473418526,
			"0.004": 23.3153912512,
			"0.005": 12.642228656,
			"0.006": 6.67738784188,
			"0.007": 6.57834210184,
			"0.008": 5.90961568056,
			"0.009": 7.88642213681,
			"0.01": 6.75460522459,
			"0.011": 6.5644619125,
			"0.012": 4.75050465847,
			"0.013": 0.361685133919,
			"0.014": 0.0,
			"0.015": 0.0,
			"0.016": 0.0,
			"0.017": 0.0,
			"0.018": 0.0,
			"0.019": 0.0,
			"0.02": 0.0,
			"0.021": 0.0,
			"0.022": 0.0,
			"0.023": 0.0,
			"0.024": 0.0,
			"0.025": 0.0
		}
	}
}
