{
	 "smiles": "CCCCCCCCCC(C)=C", 
	 "Tm": 233.15, 
	 "num_atms": 36, 
	 "gaussian": { 
		 "optdone": 1, 
		 "sigma_profile": "yes", 
		 "theory": "DFT", 
		 "functional": "B3LYP", 
		 "basiset": "6-31G**", 
		 "properties": { 
			 "R2extent": 4270.4358, 
			 "electric_dipole_moment_norm": 0.483132642242, 
			 "electric_quadrupole_moment_norm": 2.47429569373, 
			 "total_energy": -471.753942591, 
			 "HOMO_LUMO_gap": 0.26252, 
			 "cosmo_polarized_energy": -1.83, 
			 "cosmo_cavitation_energy": 36.19, 
			 "cosmo_dispersion_energy": -24.29, 
			 "cosmo_repulsion_energy": 2.0, 
			 "cosmo_total_nonelectrostatic_energy": 13.9, 
			 "SMD_solvation_energy": 5.86 
		},
		"coords": [
			{
				"x": -1.3847100997,
				"y": 4.116127236,
				"z": -1.0968036219,
				"element": "C" 
			},
			{
				"x": -0.8317280793,
				"y": 3.0206541492,
				"z": -2.0145907948,
				"element": "C" 
			},
			{
				"x": 0.4123553737,
				"y": 2.3300257547,
				"z": -1.4384011531,
				"element": "C" 
			},
			{
				"x": 1.0573604142,
				"y": 1.2846978978,
				"z": -2.3650369425,
				"element": "C" 
			},
			{
				"x": 0.1796144236,
				"y": 0.0699154882,
				"z": -2.7224481944,
				"element": "C" 
			},
			{
				"x": -0.2937535066,
				"y": -0.7887828175,
				"z": -1.5364845523,
				"element": "C" 
			},
			{
				"x": 0.8343108748,
				"y": -1.4594909272,
				"z": -0.7395818264,
				"element": "C" 
			},
			{
				"x": 0.3125913303,
				"y": -2.3714870793,
				"z": 0.3778283238,
				"element": "C" 
			},
			{
				"x": 1.4027045452,
				"y": -3.1254404981,
				"z": 1.1713988482,
				"element": "C" 
			},
			{
				"x": 2.3801774435,
				"y": -2.2256309852,
				"z": 1.913859986,
				"element": "C" 
			},
			{
				"x": 3.7328853334,
				"y": -2.0141612251,
				"z": 1.2789009092,
				"element": "C" 
			},
			{
				"x": 2.052686529,
				"y": -1.6560602846,
				"z": 3.0787556163,
				"element": "C" 
			},
			{
				"x": -0.6380285949,
				"y": 4.8987322617,
				"z": -0.9193235041,
				"element": "H" 
			},
			{
				"x": -1.6706540706,
				"y": 3.7077701301,
				"z": -0.1205558266,
				"element": "H" 
			},
			{
				"x": -2.2704672569,
				"y": 4.5934845903,
				"z": -1.5289217448,
				"element": "H" 
			},
			{
				"x": -1.6178779992,
				"y": 2.2786028773,
				"z": -2.2031453917,
				"element": "H" 
			},
			{
				"x": -0.5825399527,
				"y": 3.4536695326,
				"z": -2.993466448,
				"element": "H" 
			},
			{
				"x": 1.1643421646,
				"y": 3.0971623521,
				"z": -1.2076368595,
				"element": "H" 
			},
			{
				"x": 0.1550430401,
				"y": 1.8696100833,
				"z": -0.4746314779,
				"element": "H" 
			},
			{
				"x": 1.9901184527,
				"y": 0.9355549165,
				"z": -1.9042646047,
				"element": "H" 
			},
			{
				"x": 1.3553806061,
				"y": 1.7793372017,
				"z": -3.2997966424,
				"element": "H" 
			},
			{
				"x": -0.7008579678,
				"y": 0.4101919134,
				"z": -3.2820290187,
				"element": "H" 
			},
			{
				"x": 0.7431982014,
				"y": -0.5688522685,
				"z": -3.4164413718,
				"element": "H" 
			},
			{
				"x": -0.904458602,
				"y": -0.1814453125,
				"z": -0.8546100913,
				"element": "H" 
			},
			{
				"x": -0.9657411242,
				"y": -1.5680712459,
				"z": -1.9215220019,
				"element": "H" 
			},
			{
				"x": 1.4629355497,
				"y": -2.045140497,
				"z": -1.4269031225,
				"element": "H" 
			},
			{
				"x": 1.4852898983,
				"y": -0.6930891996,
				"z": -0.3020455146,
				"element": "H" 
			},
			{
				"x": -0.2825999745,
				"y": -1.7739231157,
				"z": 1.0808368518,
				"element": "H" 
			},
			{
				"x": -0.3733848079,
				"y": -3.1132998913,
				"z": -0.0542456041,
				"element": "H" 
			},
			{
				"x": 0.90301002,
				"y": -3.7842441743,
				"z": 1.8915338734,
				"element": "H" 
			},
			{
				"x": 1.9548553691,
				"y": -3.7804902268,
				"z": 0.4846702865,
				"element": "H" 
			},
			{
				"x": 3.6409194671,
				"y": -1.6207739876,
				"z": 0.2591659788,
				"element": "H" 
			},
			{
				"x": 4.3512827976,
				"y": -1.3228596374,
				"z": 1.8583420408,
				"element": "H" 
			},
			{
				"x": 4.2736215681,
				"y": -2.9662212347,
				"z": 1.1948801381,
				"element": "H" 
			},
			{
				"x": 2.7369784872,
				"y": -0.9973919279,
				"z": 3.606574839,
				"element": "H" 
			},
			{
				"x": 1.0867401467,
				"y": -1.8287798487,
				"z": 3.5472386181,
				"element": "H" 
			}
		],
		 "valence_orbital": [ 
			{
				"type": "occ",
				"energy": -0.3137,
				"method": "rhf"
			},
			{
				"type": "occ",
				"energy": -0.30777,
				"method": "rhf"
			},
			{
				"type": "occ",
				"energy": -0.30356,
				"method": "rhf"
			},
			{
				"type": "occ",
				"energy": -0.29852,
				"method": "rhf"
			},
			{
				"type": "occ",
				"energy": -0.23647,
				"method": "rhf"
			},
			{
				"type": "unocc",
				"energy": 0.02605,
				"method": "rhf"
			},
			{
				"type": "unocc",
				"energy": 0.0788,
				"method": "rhf"
			},
			{
				"type": "unocc",
				"energy": 0.09444,
				"method": "rhf"
			},
			{
				"type": "unocc",
				"energy": 0.10833,
				"method": "rhf"
			},
			{
				"type": "unocc",
				"energy": 0.11307,
				"method": "rhf"
			}
		],
		"cosmo_sigma_profile": { 
			"-0.025": 0.0,
			"-0.024": 0.0,
			"-0.023": 0.0,
			"-0.022": 0.0,
			"-0.021": 0.0,
			"-0.02": 0.0,
			"-0.019": 0.0,
			"-0.018": 0.0,
			"-0.017": 0.0,
			"-0.016": 0.0,
			"-0.015": 0.0,
			"-0.014": 0.0,
			"-0.013": 0.0,
			"-0.012": 0.0,
			"-0.011": 0.0,
			"-0.01": 0.0,
			"-0.009": 0.0,
			"-0.008": 0.0,
			"-0.007": 0.0,
			"-0.006": 0.0,
			"-0.005": 0.0,
			"-0.004": 2.69406578377,
			"-0.003": 12.5896513151,
			"-0.002": 39.2136634309,
			"-0.001": 63.641162858,
			"0.0": 63.8333030522,
			"0.001": 52.6338349027,
			"0.002": 25.017414737,
			"0.003": 4.67909202134,
			"0.004": 3.73334571107,
			"0.005": 3.40282245386,
			"0.006": 3.33167600408,
			"0.007": 2.30414501288,
			"0.008": 0.703325946119,
			"0.009": 0.0,
			"0.01": 0.0,
			"0.011": 0.0,
			"0.012": 0.0,
			"0.013": 0.0,
			"0.014": 0.0,
			"0.015": 0.0,
			"0.016": 0.0,
			"0.017": 0.0,
			"0.018": 0.0,
			"0.019": 0.0,
			"0.02": 0.0,
			"0.021": 0.0,
			"0.022": 0.0,
			"0.023": 0.0,
			"0.024": 0.0,
			"0.025": 0.0
		}
	}
}
