{
	 "smiles": "NC1=C(C=CC=C1)C(=O)NC1=C(Cl)C=C(F)C=C1", 
	 "Tm": 377.15, 
	 "num_atms": 28, 
	 "gaussian": { 
		 "optdone": 1, 
		 "sigma_profile": "yes", 
		 "theory": "DFT", 
		 "functional": "B3LYP", 
		 "basiset": "6-31G**", 
		 "properties": { 
			 "R2extent": 5483.7731, 
			 "electric_dipole_moment_norm": 1.48890717306, 
			 "electric_quadrupole_moment_norm": 15.9704930945, 
			 "total_energy": -1246.17985517, 
			 "HOMO_LUMO_gap": 0.16355, 
			 "cosmo_polarized_energy": -13.12, 
			 "cosmo_cavitation_energy": 34.25, 
			 "cosmo_dispersion_energy": -23.97, 
			 "cosmo_repulsion_energy": 1.83, 
			 "cosmo_total_nonelectrostatic_energy": 12.11, 
			 "SMD_solvation_energy": 6.38 
		},
		"coords": [
			{
				"x": -2.2565368348,
				"y": -0.4682415561,
				"z": 3.7523405073,
				"element": "N" 
			},
			{
				"x": -1.4178305638,
				"y": -1.3772893473,
				"z": 3.1563776324,
				"element": "C" 
			},
			{
				"x": -1.4799804015,
				"y": -1.6523024382,
				"z": 1.7573554937,
				"element": "C" 
			},
			{
				"x": -0.6010630232,
				"y": -2.604787571,
				"z": 1.2111073562,
				"element": "C" 
			},
			{
				"x": 0.3508728981,
				"y": -3.2557942782,
				"z": 1.9841066168,
				"element": "C" 
			},
			{
				"x": 0.4390806306,
				"y": -2.9475082456,
				"z": 3.3473438557,
				"element": "C" 
			},
			{
				"x": -0.4263149356,
				"y": -2.0296459909,
				"z": 3.9213579073,
				"element": "C" 
			},
			{
				"x": -2.5230481331,
				"y": -0.9916003184,
				"z": 0.9322833926,
				"element": "C" 
			},
			{
				"x": -3.5968072971,
				"y": -0.5985238384,
				"z": 1.3990813665,
				"element": "O" 
			},
			{
				"x": -2.3311654952,
				"y": -0.8508988843,
				"z": -0.4390378698,
				"element": "N" 
			},
			{
				"x": -1.125741729,
				"y": -0.7332076935,
				"z": -1.1835298121,
				"element": "C" 
			},
			{
				"x": -0.1372099546,
				"y": 0.2309596121,
				"z": -0.9069697152,
				"element": "C" 
			},
			{
				"x": -0.33638865,
				"y": 1.3630765024,
				"z": 0.4089984733,
				"element": "Cl" 
			},
			{
				"x": 1.0141180828,
				"y": 0.3273921597,
				"z": -1.6888182763,
				"element": "C" 
			},
			{
				"x": 1.1563065785,
				"y": -0.5246160862,
				"z": -2.7765532285,
				"element": "C" 
			},
			{
				"x": 2.2639397979,
				"y": -0.4229545369,
				"z": -3.5343914646,
				"element": "F" 
			},
			{
				"x": 0.1899452661,
				"y": -1.4674616902,
				"z": -3.1070578282,
				"element": "C" 
			},
			{
				"x": -0.9390098357,
				"y": -1.5631331453,
				"z": -2.2984909577,
				"element": "C" 
			},
			{
				"x": -2.3073087134,
				"y": -0.487292765,
				"z": 4.7589625871,
				"element": "H" 
			},
			{
				"x": -3.1158186739,
				"y": -0.2796819881,
				"z": 3.2495822532,
				"element": "H" 
			},
			{
				"x": -0.6853179767,
				"y": -2.8526140157,
				"z": 0.1598627058,
				"element": "H" 
			},
			{
				"x": 1.0103012388,
				"y": -3.9927819163,
				"z": 1.5379268501,
				"element": "H" 
			},
			{
				"x": 1.1816791092,
				"y": -3.4393916899,
				"z": 3.9699483939,
				"element": "H" 
			},
			{
				"x": -0.3605011826,
				"y": -1.8077473155,
				"z": 4.9837189962,
				"element": "H" 
			},
			{
				"x": -3.1575613671,
				"y": -0.4442518383,
				"z": -0.8643903473,
				"element": "H" 
			},
			{
				"x": 1.7782362931,
				"y": 1.0630009426,
				"z": -1.4696578985,
				"element": "H" 
			},
			{
				"x": 0.3322549292,
				"y": -2.1105037893,
				"z": -3.9679902868,
				"element": "H" 
			},
			{
				"x": -1.7047300568,
				"y": -2.3009982782,
				"z": -2.5161667031,
				"element": "H" 
			}
		],
		 "valence_orbital": [ 
			{
				"type": "occ",
				"energy": -0.2675,
				"method": "rhf"
			},
			{
				"type": "occ",
				"energy": -0.25919,
				"method": "rhf"
			},
			{
				"type": "occ",
				"energy": -0.25032,
				"method": "rhf"
			},
			{
				"type": "occ",
				"energy": -0.24266,
				"method": "rhf"
			},
			{
				"type": "occ",
				"energy": -0.19905,
				"method": "rhf"
			},
			{
				"type": "unocc",
				"energy": -0.0355,
				"method": "rhf"
			},
			{
				"type": "unocc",
				"energy": -0.03192,
				"method": "rhf"
			},
			{
				"type": "unocc",
				"energy": -0.01937,
				"method": "rhf"
			},
			{
				"type": "unocc",
				"energy": 0.01751,
				"method": "rhf"
			},
			{
				"type": "unocc",
				"energy": 0.02045,
				"method": "rhf"
			}
		],
		"cosmo_sigma_profile": { 
			"-0.025": 0.0,
			"-0.024": 0.0,
			"-0.023": 0.0,
			"-0.022": 0.0,
			"-0.021": 0.0,
			"-0.02": 0.0,
			"-0.019": 0.0,
			"-0.018": 0.0,
			"-0.017": 0.0,
			"-0.016": 0.0,
			"-0.015": 0.0225335064845,
			"-0.014": 0.810629010494,
			"-0.013": 1.65864060754,
			"-0.012": 2.58304770567,
			"-0.011": 1.79206291725,
			"-0.01": 2.63201850149,
			"-0.009": 2.93314749948,
			"-0.008": 6.85317669821,
			"-0.007": 8.93114326546,
			"-0.006": 11.8240972054,
			"-0.005": 12.838695016,
			"-0.004": 15.4209886349,
			"-0.003": 14.580466606,
			"-0.002": 14.9004850881,
			"-0.001": 18.6702057596,
			"0.0": 23.2309856586,
			"0.001": 24.9854950966,
			"0.002": 20.4420503086,
			"0.003": 23.1832208716,
			"0.004": 29.07496453,
			"0.005": 14.9022518811,
			"0.006": 7.69786997671,
			"0.007": 2.35504712797,
			"0.008": 2.24818979852,
			"0.009": 1.52446491468,
			"0.01": 2.89055035086,
			"0.011": 2.45808788152,
			"0.012": 2.49652888583,
			"0.013": 2.24129296189,
			"0.014": 0.407359519423,
			"0.015": 0.0,
			"0.016": 0.0,
			"0.017": 0.0,
			"0.018": 0.0,
			"0.019": 0.0,
			"0.02": 0.0,
			"0.021": 0.0,
			"0.022": 0.0,
			"0.023": 0.0,
			"0.024": 0.0,
			"0.025": 0.0
		}
	}
}
