{
	 "smiles": "NC1CCN(C1=O)C1=C(Cl)C=CC=C1", 
	 "Tm": 344.15, 
	 "num_atms": 25, 
	 "gaussian": { 
		 "optdone": 1, 
		 "sigma_profile": "yes", 
		 "theory": "DFT", 
		 "functional": "B3LYP", 
		 "basiset": "6-31G**", 
		 "properties": { 
			 "R2extent": 3305.4228, 
			 "electric_dipole_moment_norm": 2.83353375311, 
			 "electric_quadrupole_moment_norm": 8.29210599064, 
			 "total_energy": -1032.62243161, 
			 "HOMO_LUMO_gap": 0.20599, 
			 "cosmo_polarized_energy": -13.2, 
			 "cosmo_cavitation_energy": 29.77, 
			 "cosmo_dispersion_energy": -21.41, 
			 "cosmo_repulsion_energy": 1.7, 
			 "cosmo_total_nonelectrostatic_energy": 10.06, 
			 "SMD_solvation_energy": 3.93 
		},
		"coords": [
			{
				"x": 1.2338484674,
				"y": 3.473378321,
				"z": -1.8164628102,
				"element": "N" 
			},
			{
				"x": 0.9605173923,
				"y": 2.0445834018,
				"z": -1.8102654548,
				"element": "C" 
			},
			{
				"x": 2.0451121011,
				"y": 1.1883295717,
				"z": -1.1467728946,
				"element": "C" 
			},
			{
				"x": 1.287930638,
				"y": -0.0720990957,
				"z": -0.6964428356,
				"element": "C" 
			},
			{
				"x": -0.0643641336,
				"y": 0.4400800436,
				"z": -0.4098605816,
				"element": "N" 
			},
			{
				"x": -0.3257456797,
				"y": 1.6261113771,
				"z": -1.0724815478,
				"element": "C" 
			},
			{
				"x": -1.3813077468,
				"y": 2.2364788524,
				"z": -1.0818571262,
				"element": "O" 
			},
			{
				"x": -1.0704140845,
				"y": -0.3333825372,
				"z": 0.2230873957,
				"element": "C" 
			},
			{
				"x": -0.9593565358,
				"y": -0.7484684005,
				"z": 1.5607393969,
				"element": "C" 
			},
			{
				"x": 0.4161431331,
				"y": -0.2574042122,
				"z": 2.5402101865,
				"element": "Cl" 
			},
			{
				"x": -1.9468044731,
				"y": -1.531807737,
				"z": 2.1580628915,
				"element": "C" 
			},
			{
				"x": -3.0806033575,
				"y": -1.888295231,
				"z": 1.4302436809,
				"element": "C" 
			},
			{
				"x": -3.2237138913,
				"y": -1.4602149037,
				"z": 0.1095274631,
				"element": "C" 
			},
			{
				"x": -2.2242361427,
				"y": -0.6963909293,
				"z": -0.486348251,
				"element": "C" 
			},
			{
				"x": 0.4067288807,
				"y": 3.9504793265,
				"z": -2.1727723882,
				"element": "H" 
			},
			{
				"x": 1.3347799884,
				"y": 3.7950188537,
				"z": -0.8545309997,
				"element": "H" 
			},
			{
				"x": 0.8280608729,
				"y": 1.7252944327,
				"z": -2.8552459644,
				"element": "H" 
			},
			{
				"x": 2.8853083625,
				"y": 0.9625921445,
				"z": -1.8064332077,
				"element": "H" 
			},
			{
				"x": 2.4352357388,
				"y": 1.7153158436,
				"z": -0.2679801531,
				"element": "H" 
			},
			{
				"x": 1.2437513603,
				"y": -0.8270405178,
				"z": -1.4945232199,
				"element": "H" 
			},
			{
				"x": 1.7245938989,
				"y": -0.5367902966,
				"z": 0.1887886272,
				"element": "H" 
			},
			{
				"x": -1.8263711543,
				"y": -1.8413804354,
				"z": 3.1902688554,
				"element": "H" 
			},
			{
				"x": -3.8511318489,
				"y": -2.49140888,
				"z": 1.9004554111,
				"element": "H" 
			},
			{
				"x": -4.1090024893,
				"y": -1.7259047989,
				"z": -0.4596239945,
				"element": "H" 
			},
			{
				"x": -2.326359297,
				"y": -0.3564741934,
				"z": -1.5106824788,
				"element": "H" 
			}
		],
		 "valence_orbital": [ 
			{
				"type": "occ",
				"energy": -0.28223,
				"method": "rhf"
			},
			{
				"type": "occ",
				"energy": -0.27027,
				"method": "rhf"
			},
			{
				"type": "occ",
				"energy": -0.25446,
				"method": "rhf"
			},
			{
				"type": "occ",
				"energy": -0.23849,
				"method": "rhf"
			},
			{
				"type": "occ",
				"energy": -0.23,
				"method": "rhf"
			},
			{
				"type": "unocc",
				"energy": -0.02401,
				"method": "rhf"
			},
			{
				"type": "unocc",
				"energy": -0.01707,
				"method": "rhf"
			},
			{
				"type": "unocc",
				"energy": 0.02106,
				"method": "rhf"
			},
			{
				"type": "unocc",
				"energy": 0.02803,
				"method": "rhf"
			},
			{
				"type": "unocc",
				"energy": 0.09084,
				"method": "rhf"
			}
		],
		"cosmo_sigma_profile": { 
			"-0.025": 0.0,
			"-0.024": 0.0,
			"-0.023": 0.0,
			"-0.022": 0.0,
			"-0.021": 0.0,
			"-0.02": 0.0,
			"-0.019": 0.0,
			"-0.018": 0.0,
			"-0.017": 0.0,
			"-0.016": 0.0,
			"-0.015": 0.0,
			"-0.014": 0.0,
			"-0.013": 0.0,
			"-0.012": 0.0,
			"-0.011": 0.140363824357,
			"-0.01": 1.41184772624,
			"-0.009": 2.83186076889,
			"-0.008": 3.11389537875,
			"-0.007": 7.15885124048,
			"-0.006": 14.939786953,
			"-0.005": 21.1127111794,
			"-0.004": 22.892622397,
			"-0.003": 21.3590722779,
			"-0.002": 16.1813986561,
			"-0.001": 14.4698549275,
			"0.0": 11.5954669404,
			"0.001": 15.6254657755,
			"0.002": 17.3004311798,
			"0.003": 17.9762698013,
			"0.004": 15.8685970653,
			"0.005": 5.07183760196,
			"0.006": 2.49968615787,
			"0.007": 2.3658344598,
			"0.008": 2.05824118086,
			"0.009": 2.51402262451,
			"0.01": 2.42692970462,
			"0.011": 2.30930635713,
			"0.012": 3.42110939315,
			"0.013": 5.7544424721,
			"0.014": 2.54056242207,
			"0.015": 0.573284961855,
			"0.016": 0.583854953337,
			"0.017": 0.790796874865,
			"0.018": 0.539359584539,
			"0.019": 0.361789949398,
			"0.02": 0.0289694460101,
			"0.021": 0.0,
			"0.022": 0.0,
			"0.023": 0.0,
			"0.024": 0.0,
			"0.025": 0.0
		}
	}
}
