{
	 "smiles": "CCSCCC(N)C(O)=O", 
	 "Tm": 551.15, 
	 "num_atms": 23, 
	 "gaussian": { 
		 "optdone": 1, 
		 "sigma_profile": "yes", 
		 "theory": "DFT", 
		 "functional": "B3LYP", 
		 "basiset": "6-31G**", 
		 "properties": { 
			 "R2extent": 2827.6816, 
			 "electric_dipole_moment_norm": 3.97929017037, 
			 "electric_quadrupole_moment_norm": 9.74296759976, 
			 "total_energy": -839.875728965, 
			 "HOMO_LUMO_gap": 0.20839, 
			 "cosmo_polarized_energy": -14.34, 
			 "cosmo_cavitation_energy": 27.39, 
			 "cosmo_dispersion_energy": -20.07, 
			 "cosmo_repulsion_energy": 1.64, 
			 "cosmo_total_nonelectrostatic_energy": 8.96, 
			 "SMD_solvation_energy": 4.54 
		},
		"coords": [
			{
				"x": 2.8499550221,
				"y": -0.7546125421,
				"z": 3.4381937424,
				"element": "C" 
			},
			{
				"x": 1.7134408006,
				"y": -0.5132877799,
				"z": 2.4451144053,
				"element": "C" 
			},
			{
				"x": 2.0329990677,
				"y": -1.4373692856,
				"z": 0.8878956973,
				"element": "S" 
			},
			{
				"x": 0.5208092293,
				"y": -1.0364455139,
				"z": -0.0704724102,
				"element": "C" 
			},
			{
				"x": 0.5278564698,
				"y": 0.3614670264,
				"z": -0.699116114,
				"element": "C" 
			},
			{
				"x": -0.793028955,
				"y": 0.7368166294,
				"z": -1.3948604357,
				"element": "C" 
			},
			{
				"x": -1.9138812398,
				"y": 0.703116846,
				"z": -0.4511469386,
				"element": "N" 
			},
			{
				"x": -1.0725285093,
				"y": -0.1687964526,
				"z": -2.5909973073,
				"element": "C" 
			},
			{
				"x": -2.3754817882,
				"y": -0.128204808,
				"z": -2.9638007638,
				"element": "O" 
			},
			{
				"x": -0.2449235489,
				"y": -0.8098934792,
				"z": -3.1991924213,
				"element": "O" 
			},
			{
				"x": 2.9443360421,
				"y": -1.8174489903,
				"z": 3.6804718112,
				"element": "H" 
			},
			{
				"x": 2.6611035079,
				"y": -0.2095774117,
				"z": 4.3690293702,
				"element": "H" 
			},
			{
				"x": 3.8080036058,
				"y": -0.4128557885,
				"z": 3.0346480379,
				"element": "H" 
			},
			{
				"x": 1.6248835167,
				"y": 0.5557394399,
				"z": 2.2252385435,
				"element": "H" 
			},
			{
				"x": 0.7591905246,
				"y": -0.8535132355,
				"z": 2.8617048629,
				"element": "H" 
			},
			{
				"x": 0.4752011865,
				"y": -1.7949678884,
				"z": -0.8560584737,
				"element": "H" 
			},
			{
				"x": -0.3558095784,
				"y": -1.1688461676,
				"z": 0.5693336955,
				"element": "H" 
			},
			{
				"x": 0.7204567343,
				"y": 1.1191296213,
				"z": 0.0704961075,
				"element": "H" 
			},
			{
				"x": 1.34148464,
				"y": 0.4328618427,
				"z": -1.4257046493,
				"element": "H" 
			},
			{
				"x": -0.6445699229,
				"y": 1.734335133,
				"z": -1.8554725003,
				"element": "H" 
			},
			{
				"x": -1.7975323252,
				"y": 1.4437385528,
				"z": 0.2353922402,
				"element": "H" 
			},
			{
				"x": -2.7879451827,
				"y": 0.8758484262,
				"z": -0.9384968813,
				"element": "H" 
			},
			{
				"x": -2.4530192968,
				"y": -0.7034341745,
				"z": -3.7434996183,
				"element": "H" 
			}
		],
		 "valence_orbital": [ 
			{
				"type": "occ",
				"energy": -0.32277,
				"method": "rhf"
			},
			{
				"type": "occ",
				"energy": -0.29291,
				"method": "rhf"
			},
			{
				"type": "occ",
				"energy": -0.2827,
				"method": "rhf"
			},
			{
				"type": "occ",
				"energy": -0.2495,
				"method": "rhf"
			},
			{
				"type": "occ",
				"energy": -0.20887,
				"method": "rhf"
			},
			{
				"type": "unocc",
				"energy": -0.00048,
				"method": "rhf"
			},
			{
				"type": "unocc",
				"energy": 0.04604,
				"method": "rhf"
			},
			{
				"type": "unocc",
				"energy": 0.06624,
				"method": "rhf"
			},
			{
				"type": "unocc",
				"energy": 0.07994,
				"method": "rhf"
			},
			{
				"type": "unocc",
				"energy": 0.09421,
				"method": "rhf"
			}
		],
		"cosmo_sigma_profile": { 
			"-0.025": 0.0,
			"-0.024": 0.0,
			"-0.023": 0.0,
			"-0.022": 0.0,
			"-0.021": 0.0,
			"-0.02": 0.0,
			"-0.019": 0.0802605968831,
			"-0.018": 0.717676113876,
			"-0.017": 1.13372320946,
			"-0.016": 0.889290344278,
			"-0.015": 0.36658057837,
			"-0.014": 1.08512823153,
			"-0.013": 1.04674859877,
			"-0.012": 0.164829086827,
			"-0.011": 0.7445909327,
			"-0.01": 2.39631376814,
			"-0.009": 2.50396661681,
			"-0.008": 3.89977783374,
			"-0.007": 4.78093006292,
			"-0.006": 5.62349828599,
			"-0.005": 11.5491183142,
			"-0.004": 17.0787098144,
			"-0.003": 19.4287117621,
			"-0.002": 21.4280948953,
			"-0.001": 21.1613559805,
			"0.0": 16.6857203394,
			"0.001": 13.0611270825,
			"0.002": 7.075647817,
			"0.003": 6.07675067727,
			"0.004": 7.41520594719,
			"0.005": 6.34266703111,
			"0.006": 7.46390002197,
			"0.007": 6.047640231,
			"0.008": 6.0586437769,
			"0.009": 5.13501647773,
			"0.01": 4.31370284022,
			"0.011": 6.32643880569,
			"0.012": 4.20791495692,
			"0.013": 0.349579401743,
			"0.014": 1.18419904705,
			"0.015": 0.336244483543,
			"0.016": 0.345990938923,
			"0.017": 0.0,
			"0.018": 0.0,
			"0.019": 0.0,
			"0.02": 0.0,
			"0.021": 0.0,
			"0.022": 0.0,
			"0.023": 0.0,
			"0.024": 0.0,
			"0.025": 0.0
		}
	}
}
