{
	 "smiles": "OC12CCCCCC1C1=CC=CC=C21", 
	 "Tm": 373.15, 
	 "num_atms": 30, 
	 "gaussian": { 
		 "optdone": 1, 
		 "sigma_profile": "yes", 
		 "theory": "DFT", 
		 "functional": "B3LYP", 
		 "basiset": "6-31G**", 
		 "properties": { 
			 "R2extent": 3832.8103, 
			 "electric_dipole_moment_norm": 1.35585634564, 
			 "electric_quadrupole_moment_norm": 7.89036008177, 
			 "total_energy": -580.222271818, 
			 "HOMO_LUMO_gap": 0.22812, 
			 "cosmo_polarized_energy": -6.72, 
			 "cosmo_cavitation_energy": 30.03, 
			 "cosmo_dispersion_energy": -21.65, 
			 "cosmo_repulsion_energy": 1.71, 
			 "cosmo_total_nonelectrostatic_energy": 10.09, 
			 "SMD_solvation_energy": 3.97 
		},
		"coords": [
			{
				"x": 0.7659636515,
				"y": 1.8535775222,
				"z": 3.2485853931,
				"element": "O" 
			},
			{
				"x": 0.8126053954,
				"y": 1.4200396357,
				"z": 1.8936467033,
				"element": "C" 
			},
			{
				"x": -0.0410499158,
				"y": 0.1497816777,
				"z": 1.8677922807,
				"element": "C" 
			},
			{
				"x": -0.248294225,
				"y": -0.5471530462,
				"z": 0.5149160623,
				"element": "C" 
			},
			{
				"x": 0.923658362,
				"y": -1.4068099337,
				"z": 0.0179271485,
				"element": "C" 
			},
			{
				"x": 2.1947391284,
				"y": -0.6480918205,
				"z": -0.3888064935,
				"element": "C" 
			},
			{
				"x": 2.9243313902,
				"y": 0.08043755,
				"z": 0.7508071771,
				"element": "C" 
			},
			{
				"x": 2.2895767095,
				"y": 1.3787786502,
				"z": 1.2643311838,
				"element": "C" 
			},
			{
				"x": 1.778919918,
				"y": 2.4214839196,
				"z": 0.2717034624,
				"element": "C" 
			},
			{
				"x": 2.139836162,
				"y": 3.2030872039,
				"z": -0.8192740604,
				"element": "C" 
			},
			{
				"x": 1.1597612899,
				"y": 4.086634111,
				"z": -1.2994945256,
				"element": "C" 
			},
			{
				"x": -0.1096114345,
				"y": 4.1742924957,
				"z": -0.7080557077,
				"element": "C" 
			},
			{
				"x": -0.4652692143,
				"y": 3.3739051301,
				"z": 0.388909813,
				"element": "C" 
			},
			{
				"x": 0.5108827782,
				"y": 2.4964583854,
				"z": 0.845822338,
				"element": "C" 
			},
			{
				"x": 1.1741326706,
				"y": 2.7288253054,
				"z": 3.2908346734,
				"element": "H" 
			},
			{
				"x": 0.3886832006,
				"y": -0.5542253676,
				"z": 2.5926001258,
				"element": "H" 
			},
			{
				"x": -1.0161082412,
				"y": 0.4421728353,
				"z": 2.2758340434,
				"element": "H" 
			},
			{
				"x": -0.5130839963,
				"y": 0.1956555634,
				"z": -0.2486432922,
				"element": "H" 
			},
			{
				"x": -1.1237755733,
				"y": -1.2009278334,
				"z": 0.6137735024,
				"element": "H" 
			},
			{
				"x": 0.5796848527,
				"y": -1.9882193573,
				"z": -0.847499261,
				"element": "H" 
			},
			{
				"x": 1.1795805713,
				"y": -2.1428878057,
				"z": 0.7940745855,
				"element": "H" 
			},
			{
				"x": 1.9552237636,
				"y": 0.0687750145,
				"z": -1.1854743079,
				"element": "H" 
			},
			{
				"x": 2.8940422745,
				"y": -1.3693615361,
				"z": -0.8307376843,
				"element": "H" 
			},
			{
				"x": 3.0590167069,
				"y": -0.6046727912,
				"z": 1.5994493084,
				"element": "H" 
			},
			{
				"x": 3.9377770366,
				"y": 0.3300758537,
				"z": 0.4081922141,
				"element": "H" 
			},
			{
				"x": 2.9794692637,
				"y": 1.8200462912,
				"z": 1.9969360718,
				"element": "H" 
			},
			{
				"x": 3.1207657401,
				"y": 3.1565286238,
				"z": -1.284855107,
				"element": "H" 
			},
			{
				"x": 1.3882884396,
				"y": 4.7258059887,
				"z": -2.1483148463,
				"element": "H" 
			},
			{
				"x": -0.8316946701,
				"y": 4.8774749678,
				"z": -1.1143884061,
				"element": "H" 
			},
			{
				"x": -1.4521520351,
				"y": 3.4478127663,
				"z": 0.837707605,
				"element": "H" 
			}
		],
		 "valence_orbital": [ 
			{
				"type": "occ",
				"energy": -0.30144,
				"method": "rhf"
			},
			{
				"type": "occ",
				"energy": -0.29058,
				"method": "rhf"
			},
			{
				"type": "occ",
				"energy": -0.25732,
				"method": "rhf"
			},
			{
				"type": "occ",
				"energy": -0.24749,
				"method": "rhf"
			},
			{
				"type": "occ",
				"energy": -0.23722,
				"method": "rhf"
			},
			{
				"type": "unocc",
				"energy": -0.0091,
				"method": "rhf"
			},
			{
				"type": "unocc",
				"energy": 0.00173,
				"method": "rhf"
			},
			{
				"type": "unocc",
				"energy": 0.08298,
				"method": "rhf"
			},
			{
				"type": "unocc",
				"energy": 0.09316,
				"method": "rhf"
			},
			{
				"type": "unocc",
				"energy": 0.10436,
				"method": "rhf"
			}
		],
		"cosmo_sigma_profile": { 
			"-0.025": 0.0,
			"-0.024": 0.0,
			"-0.023": 0.0,
			"-0.022": 0.0,
			"-0.021": 0.0,
			"-0.02": 0.0,
			"-0.019": 0.0,
			"-0.018": 0.0,
			"-0.017": 0.0,
			"-0.016": 0.0160779757007,
			"-0.015": 0.56141116019,
			"-0.014": 0.772256189663,
			"-0.013": 0.894303219306,
			"-0.012": 0.623522276332,
			"-0.011": 0.422574162551,
			"-0.01": 1.41432368229,
			"-0.009": 0.890416682815,
			"-0.008": 0.857287512288,
			"-0.007": 0.873969797418,
			"-0.006": 3.3936023834,
			"-0.005": 9.85916320158,
			"-0.004": 9.69451593451,
			"-0.003": 15.4816908549,
			"-0.002": 29.1250482386,
			"-0.001": 36.5679183014,
			"0.0": 36.433893388,
			"0.001": 28.4306690314,
			"0.002": 12.9159798321,
			"0.003": 8.89130353349,
			"0.004": 8.51425966138,
			"0.005": 7.87674987813,
			"0.006": 7.18980353102,
			"0.007": 2.0512844697,
			"0.008": 1.12296849314,
			"0.009": 1.31362952396,
			"0.01": 1.53528501129,
			"0.011": 0.969509554283,
			"0.012": 1.36128314001,
			"0.013": 1.76167995634,
			"0.014": 1.97005072443,
			"0.015": 0.191360174444,
			"0.016": 0.0,
			"0.017": 0.0,
			"0.018": 0.0,
			"0.019": 0.0,
			"0.02": 0.0,
			"0.021": 0.0,
			"0.022": 0.0,
			"0.023": 0.0,
			"0.024": 0.0,
			"0.025": 0.0
		}
	}
}
