{
	 "smiles": "OC(=O)C1=CC(=CN1)C#N", 
	 "Tm": 530.15, 
	 "num_atms": 14, 
	 "gaussian": { 
		 "optdone": 1, 
		 "sigma_profile": "yes", 
		 "theory": "DFT", 
		 "functional": "B3LYP", 
		 "basiset": "6-31G**", 
		 "properties": { 
			 "R2extent": 2210.2584, 
			 "electric_dipole_moment_norm": 6.1156988227, 
			 "electric_quadrupole_moment_norm": 5.69879026636, 
			 "total_energy": -490.99290346, 
			 "HOMO_LUMO_gap": 0.20192, 
			 "cosmo_polarized_energy": -18.27, 
			 "cosmo_cavitation_energy": 20.75, 
			 "cosmo_dispersion_energy": -14.78, 
			 "cosmo_repulsion_energy": 1.22, 
			 "cosmo_total_nonelectrostatic_energy": 7.18, 
			 "SMD_solvation_energy": 6.63 
		},
		"coords": [
			{
				"x": 2.4940680531,
				"y": -2.8875981606,
				"z": 0.4912550335,
				"element": "O" 
			},
			{
				"x": 1.6966089023,
				"y": -2.8493969945,
				"z": -0.6156620466,
				"element": "C" 
			},
			{
				"x": 1.6091591054,
				"y": -3.7685894872,
				"z": -1.4013163396,
				"element": "O" 
			},
			{
				"x": 0.9853610163,
				"y": -1.5779911706,
				"z": -0.7150294655,
				"element": "C" 
			},
			{
				"x": 0.0920085315,
				"y": -1.1453746388,
				"z": -1.6762262469,
				"element": "C" 
			},
			{
				"x": -0.3113733572,
				"y": 0.1682739584,
				"z": -1.3068858897,
				"element": "C" 
			},
			{
				"x": 0.3557424384,
				"y": 0.4925535063,
				"z": -0.12384019,
				"element": "C" 
			},
			{
				"x": 1.1290303126,
				"y": -0.565469256,
				"z": 0.2169401122,
				"element": "N" 
			},
			{
				"x": -1.2225668063,
				"y": 1.0137199323,
				"z": -1.9968635307,
				"element": "C" 
			},
			{
				"x": -1.968660457,
				"y": 1.7046216364,
				"z": -2.5627463897,
				"element": "N" 
			},
			{
				"x": 2.92725051,
				"y": -3.7566957443,
				"z": 0.4830646141,
				"element": "H" 
			},
			{
				"x": -0.2291570642,
				"y": -1.7093007212,
				"z": -2.5386406637,
				"element": "H" 
			},
			{
				"x": 0.3164333916,
				"y": 1.394310587,
				"z": 0.4681306676,
				"element": "H" 
			},
			{
				"x": 1.7303954233,
				"y": -0.6330634472,
				"z": 1.0246203349,
				"element": "H" 
			}
		],
		 "valence_orbital": [ 
			{
				"type": "occ",
				"energy": -0.33713,
				"method": "rhf"
			},
			{
				"type": "occ",
				"energy": -0.32895,
				"method": "rhf"
			},
			{
				"type": "occ",
				"energy": -0.29535,
				"method": "rhf"
			},
			{
				"type": "occ",
				"energy": -0.27778,
				"method": "rhf"
			},
			{
				"type": "occ",
				"energy": -0.25356,
				"method": "rhf"
			},
			{
				"type": "unocc",
				"energy": -0.05164,
				"method": "rhf"
			},
			{
				"type": "unocc",
				"energy": -0.01931,
				"method": "rhf"
			},
			{
				"type": "unocc",
				"energy": 0.03152,
				"method": "rhf"
			},
			{
				"type": "unocc",
				"energy": 0.05029,
				"method": "rhf"
			},
			{
				"type": "unocc",
				"energy": 0.07799,
				"method": "rhf"
			}
		],
		"cosmo_sigma_profile": { 
			"-0.025": 0.0,
			"-0.024": 0.0,
			"-0.023": 0.0,
			"-0.022": 0.0,
			"-0.021": 0.0,
			"-0.02": 0.0,
			"-0.019": 0.115004584162,
			"-0.018": 0.964807796082,
			"-0.017": 2.51781545246,
			"-0.016": 1.23220233462,
			"-0.015": 1.52143932633,
			"-0.014": 1.86428573486,
			"-0.013": 1.87891911132,
			"-0.012": 1.83794392244,
			"-0.011": 2.62741763415,
			"-0.01": 5.04989706846,
			"-0.009": 3.71399250838,
			"-0.008": 4.35921559468,
			"-0.007": 4.10955639856,
			"-0.006": 4.75181185099,
			"-0.005": 5.81922202012,
			"-0.004": 4.62468974212,
			"-0.003": 7.37469541526,
			"-0.002": 9.89318758999,
			"-0.001": 10.6737145529,
			"0.0": 14.526583248,
			"0.001": 12.7954037948,
			"0.002": 9.2114074076,
			"0.003": 6.09799856257,
			"0.004": 4.86379442099,
			"0.005": 4.7883535189,
			"0.006": 5.68836927972,
			"0.007": 3.83448048253,
			"0.008": 4.13079369935,
			"0.009": 5.21297236573,
			"0.01": 5.9200450859,
			"0.011": 7.41703692931,
			"0.012": 6.06332675075,
			"0.013": 2.167372422,
			"0.014": 0.289346728996,
			"0.015": 0.0,
			"0.016": 0.0,
			"0.017": 0.0,
			"0.018": 0.0,
			"0.019": 0.0,
			"0.02": 0.0,
			"0.021": 0.0,
			"0.022": 0.0,
			"0.023": 0.0,
			"0.024": 0.0,
			"0.025": 0.0
		}
	}
}
