{
	 "smiles": "ClC1=CC=CC(C=O)=C1", 
	 "Tm": 290.65, 
	 "num_atms": 14, 
	 "gaussian": { 
		 "optdone": 1, 
		 "sigma_profile": "yes", 
		 "theory": "DFT", 
		 "functional": "B3LYP", 
		 "basiset": "6-31G**", 
		 "properties": { 
			 "R2extent": 2047.838, 
			 "electric_dipole_moment_norm": 1.7638694141, 
			 "electric_quadrupole_moment_norm": 9.97895108666, 
			 "total_energy": -805.165178541, 
			 "HOMO_LUMO_gap": 0.18691, 
			 "cosmo_polarized_energy": -7.2, 
			 "cosmo_cavitation_energy": 20.62, 
			 "cosmo_dispersion_energy": -15.26, 
			 "cosmo_repulsion_energy": 1.24, 
			 "cosmo_total_nonelectrostatic_energy": 6.61, 
			 "SMD_solvation_energy": 4.39 
		},
		"coords": [
			{
				"x": 0.0526731154,
				"y": -3.0475644068,
				"z": -1.4828342602,
				"element": "Cl" 
			},
			{
				"x": 0.3651947231,
				"y": -1.5950324932,
				"z": -0.5462593354,
				"element": "C" 
			},
			{
				"x": -0.7043778219,
				"y": -0.7936722645,
				"z": -0.1444797583,
				"element": "C" 
			},
			{
				"x": -0.4529308253,
				"y": 0.3627979077,
				"z": 0.6013783153,
				"element": "C" 
			},
			{
				"x": 0.8496459042,
				"y": 0.7128263389,
				"z": 0.940570743,
				"element": "C" 
			},
			{
				"x": 1.9160865134,
				"y": -0.1006372639,
				"z": 0.5309418912,
				"element": "C" 
			},
			{
				"x": 3.3111866734,
				"y": 0.2598281726,
				"z": 0.88517532,
				"element": "C" 
			},
			{
				"x": 3.6228331837,
				"y": 1.2425185106,
				"z": 1.5281361101,
				"element": "O" 
			},
			{
				"x": 1.6757713812,
				"y": -1.2602773803,
				"z": -0.2158677333,
				"element": "C" 
			},
			{
				"x": -1.7175132211,
				"y": -1.0728362457,
				"z": -0.4126367575,
				"element": "H" 
			},
			{
				"x": -1.2861659412,
				"y": 0.9852748269,
				"z": 0.9132495285,
				"element": "H" 
			},
			{
				"x": 1.0698714194,
				"y": 1.6045226764,
				"z": 1.5180887391,
				"element": "H" 
			},
			{
				"x": 4.0823207687,
				"y": -0.4506375479,
				"z": 0.5127462865,
				"element": "H" 
			},
			{
				"x": 2.500404127,
				"y": -1.8913108307,
				"z": -0.533909089,
				"element": "H" 
			}
		],
		 "valence_orbital": [ 
			{
				"type": "occ",
				"energy": -0.34227,
				"method": "rhf"
			},
			{
				"type": "occ",
				"energy": -0.32531,
				"method": "rhf"
			},
			{
				"type": "occ",
				"energy": -0.28063,
				"method": "rhf"
			},
			{
				"type": "occ",
				"energy": -0.26501,
				"method": "rhf"
			},
			{
				"type": "occ",
				"energy": -0.26182,
				"method": "rhf"
			},
			{
				"type": "unocc",
				"energy": -0.07491,
				"method": "rhf"
			},
			{
				"type": "unocc",
				"energy": -0.02848,
				"method": "rhf"
			},
			{
				"type": "unocc",
				"energy": 0.01855,
				"method": "rhf"
			},
			{
				"type": "unocc",
				"energy": 0.02617,
				"method": "rhf"
			},
			{
				"type": "unocc",
				"energy": 0.10369,
				"method": "rhf"
			}
		],
		"cosmo_sigma_profile": { 
			"-0.025": 0.0,
			"-0.024": 0.0,
			"-0.023": 0.0,
			"-0.022": 0.0,
			"-0.021": 0.0,
			"-0.02": 0.0,
			"-0.019": 0.0,
			"-0.018": 0.0,
			"-0.017": 0.0,
			"-0.016": 0.0,
			"-0.015": 0.0,
			"-0.014": 0.0,
			"-0.013": 0.0,
			"-0.012": 0.0,
			"-0.011": 0.0,
			"-0.01": 0.00073098602007,
			"-0.009": 1.58306571178,
			"-0.008": 5.02326945749,
			"-0.007": 8.91060118529,
			"-0.006": 10.0512570395,
			"-0.005": 10.0247628387,
			"-0.004": 8.13747638358,
			"-0.003": 8.72646127085,
			"-0.002": 9.22228372661,
			"-0.001": 11.1313814379,
			"0.0": 14.4284531622,
			"0.001": 19.745775665,
			"0.002": 18.7155795404,
			"0.003": 9.56863760806,
			"0.004": 12.113894816,
			"0.005": 4.34921032934,
			"0.006": 1.79687875852,
			"0.007": 1.50603088009,
			"0.008": 1.67055840643,
			"0.009": 1.91592109726,
			"0.01": 3.22769918333,
			"0.011": 4.27237086231,
			"0.012": 1.95443830563,
			"0.013": 0.296503113639,
			"0.014": 0.0,
			"0.015": 0.0,
			"0.016": 0.0,
			"0.017": 0.0,
			"0.018": 0.0,
			"0.019": 0.0,
			"0.02": 0.0,
			"0.021": 0.0,
			"0.022": 0.0,
			"0.023": 0.0,
			"0.024": 0.0,
			"0.025": 0.0
		}
	}
}
