{
	 "smiles": "OC[C@]1(O)CO[C@@](O)(CO)CO1", 
	 "Tm": 352.15, 
	 "num_atms": 24, 
	 "gaussian": { 
		 "optdone": 1, 
		 "sigma_profile": "yes", 
		 "theory": "DFT", 
		 "functional": "B3LYP", 
		 "basiset": "6-31G**", 
		 "properties": { 
			 "R2extent": 2479.8991, 
			 "electric_dipole_moment_norm": 3.8486555055, 
			 "electric_quadrupole_moment_norm": 6.66749453018, 
			 "total_energy": -687.159296403, 
			 "HOMO_LUMO_gap": 0.31239, 
			 "cosmo_polarized_energy": -20.68, 
			 "cosmo_cavitation_energy": 25.96, 
			 "cosmo_dispersion_energy": -19.15, 
			 "cosmo_repulsion_energy": 1.53, 
			 "cosmo_total_nonelectrostatic_energy": 8.35, 
			 "SMD_solvation_energy": 4.33 
		},
		"coords": [
			{
				"x": -1.0012109833,
				"y": -1.516423918,
				"z": -3.7612442324,
				"element": "O" 
			},
			{
				"x": 0.0313129052,
				"y": -1.0128303483,
				"z": -2.947775007,
				"element": "C" 
			},
			{
				"x": -0.3688962447,
				"y": 0.2958174365,
				"z": -2.2544054508,
				"element": "C" 
			},
			{
				"x": -0.6090240485,
				"y": 1.214660677,
				"z": -3.3077627362,
				"element": "O" 
			},
			{
				"x": 0.7292898525,
				"y": 0.8223001678,
				"z": -1.3177874626,
				"element": "C" 
			},
			{
				"x": 0.8129826047,
				"y": 0.0678465399,
				"z": -0.1178792066,
				"element": "O" 
			},
			{
				"x": -0.4326015071,
				"y": -0.1497153918,
				"z": 0.5710931295,
				"element": "C" 
			},
			{
				"x": -0.6923114756,
				"y": -1.5225543913,
				"z": 0.6317686175,
				"element": "O" 
			},
			{
				"x": -0.23566486,
				"y": 0.3539931858,
				"z": 1.9983090049,
				"element": "C" 
			},
			{
				"x": -1.4932206112,
				"y": 0.3543529315,
				"z": 2.6546724357,
				"element": "O" 
			},
			{
				"x": -1.5607313165,
				"y": 0.5657323291,
				"z": -0.1765164336,
				"element": "C" 
			},
			{
				"x": -1.5814299637,
				"y": 0.0911476579,
				"z": -1.5264482037,
				"element": "O" 
			},
			{
				"x": -1.2999710476,
				"y": -0.7690585897,
				"z": -4.2995896849,
				"element": "H" 
			},
			{
				"x": 0.2647331131,
				"y": -1.7669826376,
				"z": -2.1911154388,
				"element": "H" 
			},
			{
				"x": 0.9520868349,
				"y": -0.8148613502,
				"z": -3.5211238489,
				"element": "H" 
			},
			{
				"x": -1.2354860192,
				"y": 1.8729977619,
				"z": -2.9773614686,
				"element": "H" 
			},
			{
				"x": 1.7027435709,
				"y": 0.7427590017,
				"z": -1.8084865115,
				"element": "H" 
			},
			{
				"x": 0.5504921728,
				"y": 1.8912678437,
				"z": -1.1222666101,
				"element": "H" 
			},
			{
				"x": -1.0803634229,
				"y": -1.7805339502,
				"z": -0.2182400651,
				"element": "H" 
			},
			{
				"x": 0.199890044,
				"y": 1.3634115962,
				"z": 1.9481615589,
				"element": "H" 
			},
			{
				"x": 0.493918268,
				"y": -0.3105111516,
				"z": 2.4799064213,
				"element": "H" 
			},
			{
				"x": -1.3421241769,
				"y": 0.4400048892,
				"z": 3.6027638217,
				"element": "H" 
			},
			{
				"x": -2.5196585379,
				"y": 0.3000227346,
				"z": 0.2670867061,
				"element": "H" 
			},
			{
				"x": -1.4473551508,
				"y": 1.6569569757,
				"z": -0.1255593348,
				"element": "H" 
			}
		],
		 "valence_orbital": [ 
			{
				"type": "occ",
				"energy": -0.29805,
				"method": "rhf"
			},
			{
				"type": "occ",
				"energy": -0.28153,
				"method": "rhf"
			},
			{
				"type": "occ",
				"energy": -0.27692,
				"method": "rhf"
			},
			{
				"type": "occ",
				"energy": -0.26423,
				"method": "rhf"
			},
			{
				"type": "occ",
				"energy": -0.25701,
				"method": "rhf"
			},
			{
				"type": "unocc",
				"energy": 0.05538,
				"method": "rhf"
			},
			{
				"type": "unocc",
				"energy": 0.06184,
				"method": "rhf"
			},
			{
				"type": "unocc",
				"energy": 0.08277,
				"method": "rhf"
			},
			{
				"type": "unocc",
				"energy": 0.0885,
				"method": "rhf"
			},
			{
				"type": "unocc",
				"energy": 0.10967,
				"method": "rhf"
			}
		],
		"cosmo_sigma_profile": { 
			"-0.025": 0.0,
			"-0.024": 0.0,
			"-0.023": 0.0,
			"-0.022": 0.0,
			"-0.021": 0.0,
			"-0.02": 0.0,
			"-0.019": 0.0,
			"-0.018": 0.0,
			"-0.017": 0.165178532387,
			"-0.016": 1.39739179401,
			"-0.015": 2.39764180436,
			"-0.014": 1.68701647208,
			"-0.013": 2.57682135541,
			"-0.012": 3.66234409472,
			"-0.011": 3.16208846706,
			"-0.01": 3.56113445684,
			"-0.009": 3.25881554939,
			"-0.008": 4.60688556236,
			"-0.007": 7.66279286634,
			"-0.006": 11.4191116057,
			"-0.005": 13.2310809709,
			"-0.004": 16.1973761369,
			"-0.003": 15.1700378288,
			"-0.002": 11.5228226963,
			"-0.001": 8.45522055129,
			"0.0": 8.31641807087,
			"0.001": 6.55906769408,
			"0.002": 5.2042333548,
			"0.003": 5.54021259062,
			"0.004": 5.65475107931,
			"0.005": 4.67995181174,
			"0.006": 5.97784163913,
			"0.007": 5.19696171057,
			"0.008": 5.24611590087,
			"0.009": 6.3114804503,
			"0.01": 5.74869390268,
			"0.011": 6.64964599827,
			"0.012": 8.15606308794,
			"0.013": 6.51013533334,
			"0.014": 4.09511105513,
			"0.015": 0.416810884513,
			"0.016": 0.0,
			"0.017": 0.0,
			"0.018": 0.0,
			"0.019": 0.0,
			"0.02": 0.0,
			"0.021": 0.0,
			"0.022": 0.0,
			"0.023": 0.0,
			"0.024": 0.0,
			"0.025": 0.0
		}
	}
}
