{
	 "smiles": "CCC1=NNC(N)=N1", 
	 "Tm": 428.15, 
	 "num_atms": 16, 
	 "gaussian": { 
		 "optdone": 1, 
		 "sigma_profile": "yes", 
		 "theory": "DFT", 
		 "functional": "B3LYP", 
		 "basiset": "6-31G**", 
		 "properties": { 
			 "R2extent": 1706.523, 
			 "electric_dipole_moment_norm": 3.31927717583, 
			 "electric_quadrupole_moment_norm": 17.3100488653, 
			 "total_energy": -376.253022641, 
			 "HOMO_LUMO_gap": 0.25306, 
			 "cosmo_polarized_energy": -15.64, 
			 "cosmo_cavitation_energy": 19.81, 
			 "cosmo_dispersion_energy": -14.99, 
			 "cosmo_repulsion_energy": 1.29, 
			 "cosmo_total_nonelectrostatic_energy": 6.11, 
			 "SMD_solvation_energy": 0.82 
		},
		"coords": [
			{
				"x": 1.0404801106,
				"y": -1.2044903254,
				"z": 0.9718067473,
				"element": "C" 
			},
			{
				"x": 0.7612878659,
				"y": -0.1058331206,
				"z": -0.0658110068,
				"element": "C" 
			},
			{
				"x": -0.2191439709,
				"y": -0.5341144656,
				"z": -1.1142504621,
				"element": "C" 
			},
			{
				"x": 0.090000017,
				"y": -0.5752265481,
				"z": -2.3994570647,
				"element": "N" 
			},
			{
				"x": -1.0859452232,
				"y": -1.0145579713,
				"z": -2.9615191282,
				"element": "N" 
			},
			{
				"x": -2.0140150868,
				"y": -1.2109223859,
				"z": -1.9945430947,
				"element": "C" 
			},
			{
				"x": -3.2811460311,
				"y": -1.714319444,
				"z": -2.2327110173,
				"element": "N" 
			},
			{
				"x": -1.5062446902,
				"y": -0.9109080135,
				"z": -0.8120901979,
				"element": "N" 
			},
			{
				"x": 0.1117058253,
				"y": -1.5215529708,
				"z": 1.4542101312,
				"element": "H" 
			},
			{
				"x": 1.7257156772,
				"y": -0.8431245733,
				"z": 1.7452683163,
				"element": "H" 
			},
			{
				"x": 1.4926484164,
				"y": -2.0829865951,
				"z": 0.5003720528,
				"element": "H" 
			},
			{
				"x": 0.3651601187,
				"y": 0.7807725116,
				"z": 0.4453390759,
				"element": "H" 
			},
			{
				"x": 1.6845735477,
				"y": 0.1957768396,
				"z": -0.5693929338,
				"element": "H" 
			},
			{
				"x": -1.1294298049,
				"y": -1.2199590937,
				"z": -3.9470856829,
				"element": "H" 
			},
			{
				"x": -3.7498444511,
				"y": -1.333646463,
				"z": -3.0452295152,
				"element": "H" 
			},
			{
				"x": -3.8577023206,
				"y": -1.648307381,
				"z": -1.4035062201,
				"element": "H" 
			}
		],
		 "valence_orbital": [ 
			{
				"type": "occ",
				"energy": -0.32834,
				"method": "rhf"
			},
			{
				"type": "occ",
				"energy": -0.31476,
				"method": "rhf"
			},
			{
				"type": "occ",
				"energy": -0.27201,
				"method": "rhf"
			},
			{
				"type": "occ",
				"energy": -0.26256,
				"method": "rhf"
			},
			{
				"type": "occ",
				"energy": -0.22075,
				"method": "rhf"
			},
			{
				"type": "unocc",
				"energy": 0.03231,
				"method": "rhf"
			},
			{
				"type": "unocc",
				"energy": 0.06195,
				"method": "rhf"
			},
			{
				"type": "unocc",
				"energy": 0.07294,
				"method": "rhf"
			},
			{
				"type": "unocc",
				"energy": 0.09942,
				"method": "rhf"
			},
			{
				"type": "unocc",
				"energy": 0.12303,
				"method": "rhf"
			}
		],
		"cosmo_sigma_profile": { 
			"-0.025": 0.0,
			"-0.024": 0.0,
			"-0.023": 0.0,
			"-0.022": 0.0,
			"-0.021": 0.0,
			"-0.02": 0.0,
			"-0.019": 0.0,
			"-0.018": 0.0,
			"-0.017": 0.767222437584,
			"-0.016": 1.65215894224,
			"-0.015": 2.00452309065,
			"-0.014": 3.09475197362,
			"-0.013": 3.98852522343,
			"-0.012": 3.15607427086,
			"-0.011": 3.1529244817,
			"-0.01": 3.81179264719,
			"-0.009": 1.74266109267,
			"-0.008": 2.25445346554,
			"-0.007": 2.07672468414,
			"-0.006": 2.23759747982,
			"-0.005": 2.10295486995,
			"-0.004": 4.16094159413,
			"-0.003": 8.91280888261,
			"-0.002": 11.7072140092,
			"-0.001": 15.2797969197,
			"0.0": 13.3739515245,
			"0.001": 12.6733460375,
			"0.002": 9.45668905574,
			"0.003": 5.6295727584,
			"0.004": 4.93969725609,
			"0.005": 4.72064871818,
			"0.006": 4.34591076482,
			"0.007": 4.27100962545,
			"0.008": 3.59973888201,
			"0.009": 3.25733220874,
			"0.01": 2.94198873692,
			"0.011": 2.21525303401,
			"0.012": 2.89388119815,
			"0.013": 2.78418983138,
			"0.014": 2.30327895335,
			"0.015": 1.97910249403,
			"0.016": 1.31274388375,
			"0.017": 0.75981062239,
			"0.018": 0.00572891956676,
			"0.019": 0.0,
			"0.02": 0.0,
			"0.021": 0.0,
			"0.022": 0.0,
			"0.023": 0.0,
			"0.024": 0.0,
			"0.025": 0.0
		}
	}
}
