{
	 "smiles": "OC(=O)CC1=CSC(NC(=O)C2=C(I)C=CC=C2)=N1", 
	 "Tm": 441.15, 
	 "num_atms": 28, 
	 "gaussian": { 
		 "optdone": 1, 
		 "sigma_profile": "yes", 
		 "theory": "DFT", 
		 "functional": "B3LYP", 
		 "basiset": "6-31G**", 
		 "properties": { 
			 "R2extent": 7854.8621, 
			 "electric_dipole_moment_norm": 6.68900546569, 
			 "electric_quadrupole_moment_norm": 41.4791882896, 
			 "total_energy": -1207.4708821, 
			 "HOMO_LUMO_gap": 0.16238, 
			 "cosmo_polarized_energy": -19.07, 
			 "cosmo_cavitation_energy": 38.11, 
			 "cosmo_dispersion_energy": -29.04, 
			 "cosmo_repulsion_energy": 2.17, 
			 "cosmo_total_nonelectrostatic_energy": 11.24, 
			 "SMD_solvation_energy": 6.58 
		},
		"coords": [
			{
				"x": -0.4131593658,
				"y": -1.9065804371,
				"z": 4.3281869281,
				"element": "O" 
			},
			{
				"x": -1.5599154375,
				"y": -1.4481138973,
				"z": 4.8575250062,
				"element": "C" 
			},
			{
				"x": -2.1435961864,
				"y": -2.0429138658,
				"z": 5.7313612928,
				"element": "O" 
			},
			{
				"x": -2.0452099237,
				"y": -0.0797235218,
				"z": 4.3433405215,
				"element": "C" 
			},
			{
				"x": -1.8363418512,
				"y": 0.1913260325,
				"z": 2.8787822977,
				"element": "C" 
			},
			{
				"x": -2.7492110118,
				"y": 0.6831864157,
				"z": 1.9952630661,
				"element": "C" 
			},
			{
				"x": -2.0473260975,
				"y": 0.8661444519,
				"z": 0.408577146,
				"element": "S" 
			},
			{
				"x": -0.5511348437,
				"y": 0.246628959,
				"z": 1.0653696599,
				"element": "C" 
			},
			{
				"x": 0.6015018704,
				"y": 0.0648812559,
				"z": 0.322713205,
				"element": "N" 
			},
			{
				"x": 0.7331131528,
				"y": 0.384236701,
				"z": -1.0111728634,
				"element": "C" 
			},
			{
				"x": -0.22020602,
				"y": 0.8088106374,
				"z": -1.6535555129,
				"element": "O" 
			},
			{
				"x": 2.0555953179,
				"y": 0.0942092249,
				"z": -1.6663127295,
				"element": "C" 
			},
			{
				"x": 3.3461210425,
				"y": 0.3166655237,
				"z": -1.1525269233,
				"element": "C" 
			},
			{
				"x": 3.7373778368,
				"y": 1.2691041792,
				"z": 0.7168048518,
				"element": "I" 
			},
			{
				"x": 4.4777981086,
				"y": -0.0161191851,
				"z": -1.9037833469,
				"element": "C" 
			},
			{
				"x": 4.3376028782,
				"y": -0.5736537675,
				"z": -3.1739067428,
				"element": "C" 
			},
			{
				"x": 3.0664698341,
				"y": -0.7800225917,
				"z": -3.7098300904,
				"element": "C" 
			},
			{
				"x": 1.9449655952,
				"y": -0.4387201593,
				"z": -2.963992094,
				"element": "C" 
			},
			{
				"x": -0.5841486356,
				"y": -0.0544958181,
				"z": 2.3385664188,
				"element": "N" 
			},
			{
				"x": -0.1300109214,
				"y": -1.316421878,
				"z": 3.592590281,
				"element": "H" 
			},
			{
				"x": -1.4970908575,
				"y": 0.6729089121,
				"z": 4.9289041477,
				"element": "H" 
			},
			{
				"x": -3.0980262633,
				"y": 0.0107043235,
				"z": 4.61206708,
				"element": "H" 
			},
			{
				"x": -3.7806528785,
				"y": 0.9493546258,
				"z": 2.1766791461,
				"element": "H" 
			},
			{
				"x": 1.393383996,
				"y": -0.2832096658,
				"z": 0.8489115883,
				"element": "H" 
			},
			{
				"x": 5.4665274861,
				"y": 0.1704200865,
				"z": -1.5010358027,
				"element": "H" 
			},
			{
				"x": 5.2256276643,
				"y": -0.8318348857,
				"z": -3.7429068159,
				"element": "H" 
			},
			{
				"x": 2.9489375736,
				"y": -1.2001201767,
				"z": -4.7035588566,
				"element": "H" 
			},
			{
				"x": 0.9470079374,
				"y": -0.5744514791,
				"z": -3.3664608587,
				"element": "H" 
			}
		],
		 "valence_orbital": [ 
			{
				"type": "occ",
				"energy": -0.29016,
				"method": "rhf"
			},
			{
				"type": "occ",
				"energy": -0.28083,
				"method": "rhf"
			},
			{
				"type": "occ",
				"energy": -0.26616,
				"method": "rhf"
			},
			{
				"type": "occ",
				"energy": -0.25907,
				"method": "rhf"
			},
			{
				"type": "occ",
				"energy": -0.23528,
				"method": "rhf"
			},
			{
				"type": "unocc",
				"energy": -0.0729,
				"method": "rhf"
			},
			{
				"type": "unocc",
				"energy": -0.06459,
				"method": "rhf"
			},
			{
				"type": "unocc",
				"energy": -0.0403,
				"method": "rhf"
			},
			{
				"type": "unocc",
				"energy": -0.02993,
				"method": "rhf"
			},
			{
				"type": "unocc",
				"energy": 0.01244,
				"method": "rhf"
			}
		],
		"cosmo_sigma_profile": { 
			"-0.025": 0.0,
			"-0.024": 0.0,
			"-0.023": 0.0,
			"-0.022": 0.0,
			"-0.021": 0.0,
			"-0.02": 0.0,
			"-0.019": 0.0,
			"-0.018": 0.0,
			"-0.017": 0.0,
			"-0.016": 0.0,
			"-0.015": 0.0760020641426,
			"-0.014": 0.726479844314,
			"-0.013": 0.780101550091,
			"-0.012": 0.684722606293,
			"-0.011": 1.20749174496,
			"-0.01": 0.963910099787,
			"-0.009": 3.08934206517,
			"-0.008": 7.45433255218,
			"-0.007": 16.8522216896,
			"-0.006": 18.1307736733,
			"-0.005": 18.1304745405,
			"-0.004": 18.294140452,
			"-0.003": 22.4932311736,
			"-0.002": 20.478107227,
			"-0.001": 21.7948797001,
			"0.0": 24.5832924911,
			"0.001": 24.8308760135,
			"0.002": 29.1739682671,
			"0.003": 24.737920147,
			"0.004": 9.09169007576,
			"0.005": 5.19503414817,
			"0.006": 5.09125659559,
			"0.007": 4.29471997094,
			"0.008": 4.17968275831,
			"0.009": 4.7139488741,
			"0.01": 6.33544067251,
			"0.011": 8.11814010883,
			"0.012": 7.52719676766,
			"0.013": 3.87186267788,
			"0.014": 0.518318570538,
			"0.015": 0.0,
			"0.016": 0.0,
			"0.017": 0.0,
			"0.018": 0.0,
			"0.019": 0.0,
			"0.02": 0.0,
			"0.021": 0.0,
			"0.022": 0.0,
			"0.023": 0.0,
			"0.024": 0.0,
			"0.025": 0.0
		}
	}
}
