{
	 "smiles": "OC(=O)C1=C2C=NN(CC3=CC=NC=C3)C2=NC(=C1)C1=CC=CC=C1", 
	 "Tm": 553.15, 
	 "num_atms": 39, 
	 "gaussian": { 
		 "optdone": 1, 
		 "sigma_profile": "yes", 
		 "theory": "DFT", 
		 "functional": "B3LYP", 
		 "basiset": "6-31G**", 
		 "properties": { 
			 "R2extent": 10049.6076, 
			 "electric_dipole_moment_norm": 4.81631749992, 
			 "electric_quadrupole_moment_norm": 27.0338676493, 
			 "total_energy": -1101.90913794, 
			 "HOMO_LUMO_gap": 0.15305, 
			 "cosmo_polarized_energy": -21.67, 
			 "cosmo_cavitation_energy": 44.96, 
			 "cosmo_dispersion_energy": -31.02, 
			 "cosmo_repulsion_energy": 2.31, 
			 "cosmo_total_nonelectrostatic_energy": 16.25, 
			 "SMD_solvation_energy": 5.19 
		},
		"coords": [
			{
				"x": -1.3773371336,
				"y": 2.8923967759,
				"z": -3.3621269405,
				"element": "O" 
			},
			{
				"x": -1.1710086447,
				"y": 3.2465269554,
				"z": -2.0688107681,
				"element": "C" 
			},
			{
				"x": -1.2790152559,
				"y": 4.399197244,
				"z": -1.7244813796,
				"element": "O" 
			},
			{
				"x": -0.8090475394,
				"y": 2.1432361167,
				"z": -1.1170544116,
				"element": "C" 
			},
			{
				"x": -0.1640907945,
				"y": 2.4537735913,
				"z": 0.0936491582,
				"element": "C" 
			},
			{
				"x": 0.3354853512,
				"y": 3.5942827919,
				"z": 0.7837818407,
				"element": "C" 
			},
			{
				"x": 0.8738982676,
				"y": 3.2452179154,
				"z": 1.9419113517,
				"element": "N" 
			},
			{
				"x": 0.7376670725,
				"y": 1.8947206396,
				"z": 2.054565993,
				"element": "N" 
			},
			{
				"x": 1.3164369212,
				"y": 1.178163432,
				"z": 3.1845427998,
				"element": "C" 
			},
			{
				"x": 2.7791162176,
				"y": 0.8320280226,
				"z": 2.9761906062,
				"element": "C" 
			},
			{
				"x": 3.1585364335,
				"y": -0.3903775225,
				"z": 2.4144541666,
				"element": "C" 
			},
			{
				"x": 4.516417736,
				"y": -0.653729243,
				"z": 2.229165981,
				"element": "C" 
			},
			{
				"x": 5.4927578146,
				"y": 0.2010734224,
				"z": 2.5587977235,
				"element": "N" 
			},
			{
				"x": 5.1194652945,
				"y": 1.3716920484,
				"z": 3.0915999711,
				"element": "C" 
			},
			{
				"x": 3.7910692892,
				"y": 1.7328177126,
				"z": 3.3191587803,
				"element": "C" 
			},
			{
				"x": 0.124131032,
				"y": 1.3643770346,
				"z": 0.9559830487,
				"element": "C" 
			},
			{
				"x": -0.1504433032,
				"y": 0.0751077546,
				"z": 0.7501382865,
				"element": "N" 
			},
			{
				"x": -0.7727038334,
				"y": -0.2073465217,
				"z": -0.402389398,
				"element": "C" 
			},
			{
				"x": -1.1163613339,
				"y": 0.804803763,
				"z": -1.3438483894,
				"element": "C" 
			},
			{
				"x": -1.1126221556,
				"y": -1.6321569198,
				"z": -0.6504688074,
				"element": "C" 
			},
			{
				"x": -1.2999517268,
				"y": -2.1346840064,
				"z": -1.9488114684,
				"element": "C" 
			},
			{
				"x": -1.6215193581,
				"y": -3.4754103509,
				"z": -2.1551374206,
				"element": "C" 
			},
			{
				"x": -1.762120471,
				"y": -4.3385830446,
				"z": -1.0674667569,
				"element": "C" 
			},
			{
				"x": -1.5706264332,
				"y": -3.852304516,
				"z": 0.2282880889,
				"element": "C" 
			},
			{
				"x": -1.245970428,
				"y": -2.5143039232,
				"z": 0.4352713642,
				"element": "C" 
			},
			{
				"x": -1.100944703,
				"y": 1.9762851318,
				"z": -3.5054859227,
				"element": "H" 
			},
			{
				"x": 0.3003958551,
				"y": 4.629812151,
				"z": 0.4806132814,
				"element": "H" 
			},
			{
				"x": 1.1892985053,
				"y": 1.8173390094,
				"z": 4.0610551275,
				"element": "H" 
			},
			{
				"x": 0.7245622323,
				"y": 0.2701960333,
				"z": 3.320805232,
				"element": "H" 
			},
			{
				"x": 2.409743407,
				"y": -1.1194170623,
				"z": 2.1186058313,
				"element": "H" 
			},
			{
				"x": 4.8343836561,
				"y": -1.6007560837,
				"z": 1.7961789618,
				"element": "H" 
			},
			{
				"x": 5.923698263,
				"y": 2.0571952384,
				"z": 3.3533773911,
				"element": "H" 
			},
			{
				"x": 3.5500311239,
				"y": 2.7002498831,
				"z": 3.7495965982,
				"element": "H" 
			},
			{
				"x": -1.691006858,
				"y": 0.5175788413,
				"z": -2.2177277593,
				"element": "H" 
			},
			{
				"x": -1.1654653437,
				"y": -1.4871786214,
				"z": -2.8097429904,
				"element": "H" 
			},
			{
				"x": -1.7540634012,
				"y": -3.8466741174,
				"z": -3.1671016287,
				"element": "H" 
			},
			{
				"x": -2.0148940825,
				"y": -5.3824748553,
				"z": -1.2281855171,
				"element": "H" 
			},
			{
				"x": -1.6783959777,
				"y": -4.5174826355,
				"z": 1.0801915942,
				"element": "H" 
			},
			{
				"x": -1.096605695,
				"y": -2.1304920852,
				"z": 1.4381163806,
				"element": "H" 
			}
		],
		 "valence_orbital": [ 
			{
				"type": "occ",
				"energy": -0.26532,
				"method": "rhf"
			},
			{
				"type": "occ",
				"energy": -0.26488,
				"method": "rhf"
			},
			{
				"type": "occ",
				"energy": -0.25839,
				"method": "rhf"
			},
			{
				"type": "occ",
				"energy": -0.24902,
				"method": "rhf"
			},
			{
				"type": "occ",
				"energy": -0.24032,
				"method": "rhf"
			},
			{
				"type": "unocc",
				"energy": -0.08727,
				"method": "rhf"
			},
			{
				"type": "unocc",
				"energy": -0.04683,
				"method": "rhf"
			},
			{
				"type": "unocc",
				"energy": -0.03144,
				"method": "rhf"
			},
			{
				"type": "unocc",
				"energy": -0.01529,
				"method": "rhf"
			},
			{
				"type": "unocc",
				"energy": -0.01495,
				"method": "rhf"
			}
		],
		"cosmo_sigma_profile": { 
			"-0.025": 0.0,
			"-0.024": 0.0,
			"-0.023": 0.0,
			"-0.022": 0.0,
			"-0.021": 0.0,
			"-0.02": 0.0,
			"-0.019": 0.519288996219,
			"-0.018": 1.02971973094,
			"-0.017": 0.972018449956,
			"-0.016": 1.22749438906,
			"-0.015": 1.26358510537,
			"-0.014": 1.05884360583,
			"-0.013": 0.679070859685,
			"-0.012": 1.27525187607,
			"-0.011": 1.68341872671,
			"-0.01": 1.32317703737,
			"-0.009": 1.84659438852,
			"-0.008": 3.44353654089,
			"-0.007": 10.3982158876,
			"-0.006": 22.6504965278,
			"-0.005": 24.3477586762,
			"-0.004": 25.3656162396,
			"-0.003": 20.4442310256,
			"-0.002": 20.6249858517,
			"-0.001": 27.8715185854,
			"0.0": 27.6770028824,
			"0.001": 27.6819765467,
			"0.002": 32.2745676887,
			"0.003": 22.477509628,
			"0.004": 20.365459895,
			"0.005": 17.3627631928,
			"0.006": 7.12993039521,
			"0.007": 5.84295187331,
			"0.008": 5.04425204691,
			"0.009": 7.21276191626,
			"0.01": 6.74613404328,
			"0.011": 5.96939780842,
			"0.012": 2.99304809978,
			"0.013": 2.36696218518,
			"0.014": 1.12549645421,
			"0.015": 0.877240616564,
			"0.016": 0.83818162959,
			"0.017": 0.286955405282,
			"0.018": 0.0,
			"0.019": 0.0,
			"0.02": 0.0,
			"0.021": 0.0,
			"0.022": 0.0,
			"0.023": 0.0,
			"0.024": 0.0,
			"0.025": 0.0
		}
	}
}
