{
	 "smiles": "CC1=CC=C(COC2=CC=C(CC#N)C=C2)C=C1", 
	 "Tm": 395.15, 
	 "num_atms": 33, 
	 "gaussian": { 
		 "optdone": 1, 
		 "sigma_profile": "yes", 
		 "theory": "DFT", 
		 "functional": "B3LYP", 
		 "basiset": "6-31G**", 
		 "properties": { 
			 "R2extent": 6899.1845, 
			 "electric_dipole_moment_norm": 5.3628162042, 
			 "electric_quadrupole_moment_norm": 27.438371128, 
			 "total_energy": -748.701389858, 
			 "HOMO_LUMO_gap": 0.21113, 
			 "cosmo_polarized_energy": -13.72, 
			 "cosmo_cavitation_energy": 38.1, 
			 "cosmo_dispersion_energy": -26.18, 
			 "cosmo_repulsion_energy": 2.05, 
			 "cosmo_total_nonelectrostatic_energy": 13.97, 
			 "SMD_solvation_energy": 7.99 
		},
		"coords": [
			{
				"x": -3.1607522358,
				"y": 3.9628379609,
				"z": 1.5555324876,
				"element": "C" 
			},
			{
				"x": -1.8547979182,
				"y": 3.3723370442,
				"z": 1.0782688075,
				"element": "C" 
			},
			{
				"x": -1.1341400709,
				"y": 2.4746297378,
				"z": 1.8791218025,
				"element": "C" 
			},
			{
				"x": 0.0577985418,
				"y": 1.9058952906,
				"z": 1.4353961581,
				"element": "C" 
			},
			{
				"x": 0.5636977446,
				"y": 2.2153468119,
				"z": 0.1676366927,
				"element": "C" 
			},
			{
				"x": 1.8904174154,
				"y": 1.6520639307,
				"z": -0.3019015784,
				"element": "C" 
			},
			{
				"x": 2.1829125925,
				"y": 0.3469505479,
				"z": 0.1989420568,
				"element": "O" 
			},
			{
				"x": 1.5901276925,
				"y": -0.7406603838,
				"z": -0.3790549003,
				"element": "C" 
			},
			{
				"x": 0.5885047731,
				"y": -0.686292212,
				"z": -1.3544060221,
				"element": "C" 
			},
			{
				"x": 0.0726689921,
				"y": -1.8754985515,
				"z": -1.8763453534,
				"element": "C" 
			},
			{
				"x": 0.5287160394,
				"y": -3.1198726402,
				"z": -1.4411165785,
				"element": "C" 
			},
			{
				"x": -0.0407387478,
				"y": -4.4062383469,
				"z": -2.0215112162,
				"element": "C" 
			},
			{
				"x": 0.832756227,
				"y": -5.019985557,
				"z": -3.0327510305,
				"element": "C" 
			},
			{
				"x": 1.5292132464,
				"y": -5.5009184188,
				"z": -3.827169892,
				"element": "N" 
			},
			{
				"x": 1.5277614717,
				"y": -3.1584847147,
				"z": -0.4577676751,
				"element": "C" 
			},
			{
				"x": 2.0542834404,
				"y": -1.9869284851,
				"z": 0.069024155,
				"element": "C" 
			},
			{
				"x": -0.1500698428,
				"y": 3.1078856802,
				"z": -0.6382277531,
				"element": "C" 
			},
			{
				"x": -1.33901253,
				"y": 3.6817624988,
				"z": -0.1860254779,
				"element": "C" 
			},
			{
				"x": -3.1418127056,
				"y": 4.1581405274,
				"z": 2.6323154644,
				"element": "H" 
			},
			{
				"x": -3.9982263612,
				"y": 3.2797061817,
				"z": 1.3657137939,
				"element": "H" 
			},
			{
				"x": -3.3856244232,
				"y": 4.9036595931,
				"z": 1.0447097712,
				"element": "H" 
			},
			{
				"x": -1.5115644833,
				"y": 2.2200947254,
				"z": 2.8667709566,
				"element": "H" 
			},
			{
				"x": 0.6009651633,
				"y": 1.2119702827,
				"z": 2.0696713399,
				"element": "H" 
			},
			{
				"x": 1.9495093039,
				"y": 1.6622886671,
				"z": -1.3982819338,
				"element": "H" 
			},
			{
				"x": 2.7154472791,
				"y": 2.2662777667,
				"z": 0.0751794797,
				"element": "H" 
			},
			{
				"x": 0.1893159419,
				"y": 0.261444987,
				"z": -1.6930418488,
				"element": "H" 
			},
			{
				"x": -0.7058210007,
				"y": -1.8213477008,
				"z": -2.6332342541,
				"element": "H" 
			},
			{
				"x": -0.2095146711,
				"y": -5.1472132042,
				"z": -1.2307218059,
				"element": "H" 
			},
			{
				"x": -1.0148823849,
				"y": -4.2173393294,
				"z": -2.4860994554,
				"element": "H" 
			},
			{
				"x": 1.9019193958,
				"y": -4.1160597653,
				"z": -0.1045559586,
				"element": "H" 
			},
			{
				"x": 2.8305464785,
				"y": -2.0092483336,
				"z": 0.8267056908,
				"element": "H" 
			},
			{
				"x": 0.2257910204,
				"y": 3.3625608204,
				"z": -1.6271196901,
				"element": "H" 
			},
			{
				"x": -1.8764953842,
				"y": 4.3752345888,
				"z": -0.8282562326,
				"element": "H" 
			}
		],
		 "valence_orbital": [ 
			{
				"type": "occ",
				"energy": -0.31571,
				"method": "rhf"
			},
			{
				"type": "occ",
				"energy": -0.25954,
				"method": "rhf"
			},
			{
				"type": "occ",
				"energy": -0.25518,
				"method": "rhf"
			},
			{
				"type": "occ",
				"energy": -0.2416,
				"method": "rhf"
			},
			{
				"type": "occ",
				"energy": -0.22613,
				"method": "rhf"
			},
			{
				"type": "unocc",
				"energy": -0.015,
				"method": "rhf"
			},
			{
				"type": "unocc",
				"energy": -0.00861,
				"method": "rhf"
			},
			{
				"type": "unocc",
				"energy": -0.00617,
				"method": "rhf"
			},
			{
				"type": "unocc",
				"energy": -0.00224,
				"method": "rhf"
			},
			{
				"type": "unocc",
				"energy": 0.04459,
				"method": "rhf"
			}
		],
		"cosmo_sigma_profile": { 
			"-0.025": 0.0,
			"-0.024": 0.0,
			"-0.023": 0.0,
			"-0.022": 0.0,
			"-0.021": 0.0,
			"-0.02": 0.0,
			"-0.019": 0.0,
			"-0.018": 0.0,
			"-0.017": 0.0,
			"-0.016": 0.0,
			"-0.015": 0.0,
			"-0.014": 0.0,
			"-0.013": 0.0,
			"-0.012": 0.0,
			"-0.011": 0.0,
			"-0.01": 0.0,
			"-0.009": 1.51998318911,
			"-0.008": 7.23117971974,
			"-0.007": 8.31159536404,
			"-0.006": 17.8301330798,
			"-0.005": 22.9957032116,
			"-0.004": 29.1805951551,
			"-0.003": 24.1764197007,
			"-0.002": 20.6143256753,
			"-0.001": 20.4445920531,
			"0.0": 20.7411211298,
			"0.001": 16.938264465,
			"0.002": 19.19206416,
			"0.003": 19.2185465918,
			"0.004": 21.6341126252,
			"0.005": 18.2359178643,
			"0.006": 10.7407826425,
			"0.007": 3.69238425405,
			"0.008": 4.42715865091,
			"0.009": 4.50803783226,
			"0.01": 4.47454869007,
			"0.011": 2.97814537026,
			"0.012": 2.59543852147,
			"0.013": 1.99835434232,
			"0.014": 0.52844750359,
			"0.015": 0.0,
			"0.016": 0.0,
			"0.017": 0.0,
			"0.018": 0.0,
			"0.019": 0.0,
			"0.02": 0.0,
			"0.021": 0.0,
			"0.022": 0.0,
			"0.023": 0.0,
			"0.024": 0.0,
			"0.025": 0.0
		}
	}
}
