{
	 "smiles": "OS(=O)(=O)NC1CCCCC1", 
	 "Tm": 443.15, 
	 "num_atms": 24, 
	 "gaussian": { 
		 "optdone": 1, 
		 "sigma_profile": "yes", 
		 "theory": "DFT", 
		 "functional": "B3LYP", 
		 "basiset": "6-31G**", 
		 "properties": { 
			 "R2extent": 3704.4617, 
			 "electric_dipole_moment_norm": 4.15785511171, 
			 "electric_quadrupole_moment_norm": 18.8745021367, 
			 "total_energy": -915.028868707, 
			 "HOMO_LUMO_gap": 0.30744, 
			 "cosmo_polarized_energy": -14.06, 
			 "cosmo_cavitation_energy": 26.3, 
			 "cosmo_dispersion_energy": -20.23, 
			 "cosmo_repulsion_energy": 1.59, 
			 "cosmo_total_nonelectrostatic_energy": 7.66, 
			 "SMD_solvation_energy": 2.26 
		},
		"coords": [
			{
				"x": 0.8029091267,
				"y": 3.3213698455,
				"z": -2.324002018,
				"element": "O" 
			},
			{
				"x": 2.2627691814,
				"y": 2.5842301957,
				"z": -2.0511801514,
				"element": "S" 
			},
			{
				"x": 3.0017025097,
				"y": 3.4911667204,
				"z": -1.1812263575,
				"element": "O" 
			},
			{
				"x": 2.7852002312,
				"y": 2.1375621718,
				"z": -3.3314102909,
				"element": "O" 
			},
			{
				"x": 1.8342750685,
				"y": 1.2394836415,
				"z": -1.2139859838,
				"element": "N" 
			},
			{
				"x": 1.2256379221,
				"y": 1.3141461364,
				"z": 0.1358345287,
				"element": "C" 
			},
			{
				"x": -0.3159651373,
				"y": 1.3231708645,
				"z": 0.0992603426,
				"element": "C" 
			},
			{
				"x": -0.8995158316,
				"y": -0.0323290963,
				"z": -0.332926185,
				"element": "C" 
			},
			{
				"x": -0.3685626165,
				"y": -1.1823973592,
				"z": 0.5374978276,
				"element": "C" 
			},
			{
				"x": 1.1680999444,
				"y": -1.2101982567,
				"z": 0.5539363178,
				"element": "C" 
			},
			{
				"x": 1.7508889276,
				"y": 0.1440704463,
				"z": 0.9893326755,
				"element": "C" 
			},
			{
				"x": 0.9716549154,
				"y": 4.2786667439,
				"z": -2.3198515934,
				"element": "H" 
			},
			{
				"x": 1.5107702941,
				"y": 0.507966495,
				"z": -1.8371927842,
				"element": "H" 
			},
			{
				"x": 1.5932766017,
				"y": 2.2514296688,
				"z": 0.5624296387,
				"element": "H" 
			},
			{
				"x": -0.6635925356,
				"y": 2.1256666375,
				"z": -0.5578846269,
				"element": "H" 
			},
			{
				"x": -0.6710105729,
				"y": 1.5588765712,
				"z": 1.1115879811,
				"element": "H" 
			},
			{
				"x": -0.6506941216,
				"y": -0.2267344289,
				"z": -1.3868795912,
				"element": "H" 
			},
			{
				"x": -1.9937874035,
				"y": 0.0072913813,
				"z": -0.2904800399,
				"element": "H" 
			},
			{
				"x": -0.763411076,
				"y": -2.1417107452,
				"z": 0.1833334243,
				"element": "H" 
			},
			{
				"x": -0.7363074688,
				"y": -1.0533918208,
				"z": 1.5653768974,
				"element": "H" 
			},
			{
				"x": 1.5423507228,
				"y": -1.4709828677,
				"z": -0.4466321185,
				"element": "H" 
			},
			{
				"x": 1.5294632141,
				"y": -1.9993809315,
				"z": 1.2228816801,
				"element": "H" 
			},
			{
				"x": 1.4646254133,
				"y": 0.3386103404,
				"z": 2.0314842151,
				"element": "H" 
			},
			{
				"x": 2.8445226906,
				"y": 0.1315176462,
				"z": 0.950596212,
				"element": "H" 
			}
		],
		 "valence_orbital": [ 
			{
				"type": "occ",
				"energy": -0.32204,
				"method": "rhf"
			},
			{
				"type": "occ",
				"energy": -0.32119,
				"method": "rhf"
			},
			{
				"type": "occ",
				"energy": -0.31398,
				"method": "rhf"
			},
			{
				"type": "occ",
				"energy": -0.30156,
				"method": "rhf"
			},
			{
				"type": "occ",
				"energy": -0.27679,
				"method": "rhf"
			},
			{
				"type": "unocc",
				"energy": 0.03065,
				"method": "rhf"
			},
			{
				"type": "unocc",
				"energy": 0.05975,
				"method": "rhf"
			},
			{
				"type": "unocc",
				"energy": 0.0768,
				"method": "rhf"
			},
			{
				"type": "unocc",
				"energy": 0.09216,
				"method": "rhf"
			},
			{
				"type": "unocc",
				"energy": 0.09574,
				"method": "rhf"
			}
		],
		"cosmo_sigma_profile": { 
			"-0.025": 0.0,
			"-0.024": 0.0,
			"-0.023": 0.0,
			"-0.022": 0.0,
			"-0.021": 0.0,
			"-0.02": 0.40418386983,
			"-0.019": 1.05171893546,
			"-0.018": 1.24208723445,
			"-0.017": 0.360156519258,
			"-0.016": 0.634794808202,
			"-0.015": 1.06163492163,
			"-0.014": 1.21920742185,
			"-0.013": 1.65830789068,
			"-0.012": 1.5755985996,
			"-0.011": 2.10959845112,
			"-0.01": 2.08963950549,
			"-0.009": 2.10659376378,
			"-0.008": 1.65583917898,
			"-0.007": 2.34866233569,
			"-0.006": 2.29073082777,
			"-0.005": 4.0983011215,
			"-0.004": 6.9814400238,
			"-0.003": 18.8738727329,
			"-0.002": 22.9825838147,
			"-0.001": 28.0493051548,
			"0.0": 28.8755019007,
			"0.001": 15.3696641657,
			"0.002": 3.76037234664,
			"0.003": 5.35917147299,
			"0.004": 5.17989880599,
			"0.005": 4.25527797183,
			"0.006": 4.44072974579,
			"0.007": 4.33465124017,
			"0.008": 4.43190528505,
			"0.009": 6.82749618468,
			"0.01": 12.9290194218,
			"0.011": 5.52926921111,
			"0.012": 0.0,
			"0.013": 0.0,
			"0.014": 0.0,
			"0.015": 0.0,
			"0.016": 0.0,
			"0.017": 0.0,
			"0.018": 0.0,
			"0.019": 0.0,
			"0.02": 0.0,
			"0.021": 0.0,
			"0.022": 0.0,
			"0.023": 0.0,
			"0.024": 0.0,
			"0.025": 0.0
		}
	}
}
