{
	 "smiles": "FC1=C(NC(=O)CCl)C=C(C=C1)N1C=NN=N1", 
	 "Tm": 459.15, 
	 "num_atms": 24, 
	 "gaussian": { 
		 "optdone": 1, 
		 "sigma_profile": "yes", 
		 "theory": "DFT", 
		 "functional": "B3LYP", 
		 "basiset": "6-31G**", 
		 "properties": { 
			 "R2extent": 5534.7446, 
			 "electric_dipole_moment_norm": 3.36436624641, 
			 "electric_quadrupole_moment_norm": 26.0748094411, 
			 "total_energy": -1256.12518782, 
			 "HOMO_LUMO_gap": 0.20207, 
			 "cosmo_polarized_energy": -22.24, 
			 "cosmo_cavitation_energy": 32.15, 
			 "cosmo_dispersion_energy": -22.55, 
			 "cosmo_repulsion_energy": 1.73, 
			 "cosmo_total_nonelectrostatic_energy": 11.33, 
			 "SMD_solvation_energy": 5.11 
		},
		"coords": [
			{
				"x": -0.2889713053,
				"y": -0.0612333488,
				"z": 3.6210030663,
				"element": "F" 
			},
			{
				"x": -0.4540819744,
				"y": -0.4474088934,
				"z": 2.3390313991,
				"element": "C" 
			},
			{
				"x": 0.1957941606,
				"y": 0.2666673323,
				"z": 1.3252269557,
				"element": "C" 
			},
			{
				"x": 0.9735459392,
				"y": 1.4153399052,
				"z": 1.5990892482,
				"element": "N" 
			},
			{
				"x": 2.0672601742,
				"y": 1.5801221517,
				"z": 2.426995588,
				"element": "C" 
			},
			{
				"x": 2.5426372423,
				"y": 2.686814491,
				"z": 2.6122563516,
				"element": "O" 
			},
			{
				"x": 2.6789582939,
				"y": 0.3523357976,
				"z": 3.0959397442,
				"element": "C" 
			},
			{
				"x": 3.3054388369,
				"y": -0.8598893564,
				"z": 1.899808563,
				"element": "Cl" 
			},
			{
				"x": -0.0241192377,
				"y": -0.1313108825,
				"z": 0.0018907266,
				"element": "C" 
			},
			{
				"x": -0.8426552769,
				"y": -1.2254735764,
				"z": -0.2775507794,
				"element": "C" 
			},
			{
				"x": -1.4648789821,
				"y": -1.9403855989,
				"z": 0.7505333014,
				"element": "C" 
			},
			{
				"x": -1.2645432213,
				"y": -1.5422180914,
				"z": 2.0682283093,
				"element": "C" 
			},
			{
				"x": -1.0418079206,
				"y": -1.6307560259,
				"z": -1.6250889514,
				"element": "N" 
			},
			{
				"x": -0.2267351657,
				"y": -1.556945324,
				"z": -2.7043659689,
				"element": "C" 
			},
			{
				"x": -0.8429160488,
				"y": -2.0741783344,
				"z": -3.7441242291,
				"element": "N" 
			},
			{
				"x": -2.0628061282,
				"y": -2.4759961018,
				"z": -3.2869090552,
				"element": "N" 
			},
			{
				"x": -2.2001937614,
				"y": -2.2222832812,
				"z": -2.0296499598,
				"element": "N" 
			},
			{
				"x": 0.7144918577,
				"y": 2.2763089306,
				"z": 1.1320992872,
				"element": "H" 
			},
			{
				"x": 1.9647047967,
				"y": -0.1625343876,
				"z": 3.7367214652,
				"element": "H" 
			},
			{
				"x": 3.5287785248,
				"y": 0.7021109407,
				"z": 3.6771905508,
				"element": "H" 
			},
			{
				"x": 0.4488949429,
				"y": 0.4300937315,
				"z": -0.796569478,
				"element": "H" 
			},
			{
				"x": -2.0953090787,
				"y": -2.7875825946,
				"z": 0.5106804875,
				"element": "H" 
			},
			{
				"x": -1.7392157518,
				"y": -2.0621149919,
				"z": 2.8927147074,
				"element": "H" 
			},
			{
				"x": 0.7756290837,
				"y": -1.1583824914,
				"z": -2.6871513297,
				"element": "H" 
			}
		],
		 "valence_orbital": [ 
			{
				"type": "occ",
				"energy": -0.30929,
				"method": "rhf"
			},
			{
				"type": "occ",
				"energy": -0.29766,
				"method": "rhf"
			},
			{
				"type": "occ",
				"energy": -0.28368,
				"method": "rhf"
			},
			{
				"type": "occ",
				"energy": -0.27811,
				"method": "rhf"
			},
			{
				"type": "occ",
				"energy": -0.26484,
				"method": "rhf"
			},
			{
				"type": "unocc",
				"energy": -0.06277,
				"method": "rhf"
			},
			{
				"type": "unocc",
				"energy": -0.05916,
				"method": "rhf"
			},
			{
				"type": "unocc",
				"energy": -0.0307,
				"method": "rhf"
			},
			{
				"type": "unocc",
				"energy": -0.00723,
				"method": "rhf"
			},
			{
				"type": "unocc",
				"energy": 0.00951,
				"method": "rhf"
			}
		],
		"cosmo_sigma_profile": { 
			"-0.025": 0.0,
			"-0.024": 0.0,
			"-0.023": 0.0,
			"-0.022": 0.0,
			"-0.021": 0.0,
			"-0.02": 0.0,
			"-0.019": 0.0,
			"-0.018": 0.0,
			"-0.017": 0.0,
			"-0.016": 0.316008714581,
			"-0.015": 1.19231370675,
			"-0.014": 1.25156687474,
			"-0.013": 2.51971394251,
			"-0.012": 4.59993127148,
			"-0.011": 2.74160051795,
			"-0.01": 4.17274852884,
			"-0.009": 6.4127566815,
			"-0.008": 8.94740199522,
			"-0.007": 10.9067182179,
			"-0.006": 12.8411224971,
			"-0.005": 13.6103323136,
			"-0.004": 10.6560399872,
			"-0.003": 11.8722279171,
			"-0.002": 12.9005444683,
			"-0.001": 18.5173296673,
			"0.0": 19.2808851474,
			"0.001": 17.5682286424,
			"0.002": 13.8193407921,
			"0.003": 15.4766247589,
			"0.004": 10.2181238986,
			"0.005": 12.1066921575,
			"0.006": 5.77065926394,
			"0.007": 5.85625240093,
			"0.008": 5.49151103117,
			"0.009": 6.25996030856,
			"0.01": 6.343082302,
			"0.011": 6.15951047947,
			"0.012": 7.73286625809,
			"0.013": 4.11388006142,
			"0.014": 1.46818924062,
			"0.015": 0.247573172819,
			"0.016": 0.0,
			"0.017": 0.0,
			"0.018": 0.0,
			"0.019": 0.0,
			"0.02": 0.0,
			"0.021": 0.0,
			"0.022": 0.0,
			"0.023": 0.0,
			"0.024": 0.0,
			"0.025": 0.0
		}
	}
}
