{
	 "smiles": "ClCCC(=O)NCC(=O)C1=CC=CC=C1", 
	 "Tm": 394.15, 
	 "num_atms": 27, 
	 "gaussian": { 
		 "optdone": 1, 
		 "sigma_profile": "yes", 
		 "theory": "DFT", 
		 "functional": "B3LYP", 
		 "basiset": "6-31G**", 
		 "properties": { 
			 "R2extent": 4379.9459, 
			 "electric_dipole_moment_norm": 3.05299332787, 
			 "electric_quadrupole_moment_norm": 13.2524340968, 
			 "total_energy": -1091.81507838, 
			 "HOMO_LUMO_gap": 0.18456, 
			 "cosmo_polarized_energy": -14.11, 
			 "cosmo_cavitation_energy": 32.52, 
			 "cosmo_dispersion_energy": -22.77, 
			 "cosmo_repulsion_energy": 1.82, 
			 "cosmo_total_nonelectrostatic_energy": 11.57, 
			 "SMD_solvation_energy": 5.78 
		},
		"coords": [
			{
				"x": -0.6290305104,
				"y": 3.2298079212,
				"z": 2.7646859523,
				"element": "Cl" 
			},
			{
				"x": 0.8844834891,
				"y": 3.3736727987,
				"z": 1.748504327,
				"element": "C" 
			},
			{
				"x": 0.6019966191,
				"y": 3.6632400129,
				"z": 0.2762484537,
				"element": "C" 
			},
			{
				"x": 0.1704854752,
				"y": 2.4892541657,
				"z": -0.6093883637,
				"element": "C" 
			},
			{
				"x": 0.6535899818,
				"y": 2.3466369455,
				"z": -1.7296636003,
				"element": "O" 
			},
			{
				"x": -0.7678279782,
				"y": 1.6459560601,
				"z": -0.0930648171,
				"element": "N" 
			},
			{
				"x": -1.3286574644,
				"y": 0.5359215773,
				"z": -0.8511445713,
				"element": "C" 
			},
			{
				"x": -1.0410821906,
				"y": -0.8230618263,
				"z": -0.1890512628,
				"element": "C" 
			},
			{
				"x": -1.9649036005,
				"y": -1.4230499595,
				"z": 0.3409085584,
				"element": "O" 
			},
			{
				"x": 0.3482573129,
				"y": -1.3742243785,
				"z": -0.1868341716,
				"element": "C" 
			},
			{
				"x": 0.5794793703,
				"y": -2.5515412059,
				"z": 0.5455681856,
				"element": "C" 
			},
			{
				"x": 1.844479645,
				"y": -3.1283004244,
				"z": 0.5727847301,
				"element": "C" 
			},
			{
				"x": 2.8955308062,
				"y": -2.5373209412,
				"z": -0.1364979858,
				"element": "C" 
			},
			{
				"x": 2.6741524929,
				"y": -1.3700670797,
				"z": -0.869369493,
				"element": "C" 
			},
			{
				"x": 1.407133708,
				"y": -0.7852858665,
				"z": -0.8974350444,
				"element": "C" 
			},
			{
				"x": 1.4311375733,
				"y": 2.4403111553,
				"z": 1.8897812244,
				"element": "H" 
			},
			{
				"x": 1.448574294,
				"y": 4.1907335075,
				"z": 2.1980854836,
				"element": "H" 
			},
			{
				"x": -0.1370679179,
				"y": 4.4685327005,
				"z": 0.1915641004,
				"element": "H" 
			},
			{
				"x": 1.5274006397,
				"y": 4.0329149043,
				"z": -0.1757169527,
				"element": "H" 
			},
			{
				"x": -1.1558449803,
				"y": 1.8428390303,
				"z": 0.8205802773,
				"element": "H" 
			},
			{
				"x": -0.9133220496,
				"y": 0.5954178457,
				"z": -1.8596305064,
				"element": "H" 
			},
			{
				"x": -2.4171997486,
				"y": 0.6276490254,
				"z": -0.9041955318,
				"element": "H" 
			},
			{
				"x": -0.2538176555,
				"y": -2.9936238147,
				"z": 1.0815130189,
				"element": "H" 
			},
			{
				"x": 2.0149649002,
				"y": -4.0374576038,
				"z": 1.1421409534,
				"element": "H" 
			},
			{
				"x": 3.883942929,
				"y": -2.9881553801,
				"z": -0.118567988,
				"element": "H" 
			},
			{
				"x": 3.4884662157,
				"y": -0.9124291178,
				"z": -1.4235257493,
				"element": "H" 
			},
			{
				"x": 1.2559786433,
				"y": 0.1246299481,
				"z": -1.4702792268,
				"element": "H" 
			}
		],
		 "valence_orbital": [ 
			{
				"type": "occ",
				"energy": -0.27949,
				"method": "rhf"
			},
			{
				"type": "occ",
				"energy": -0.26363,
				"method": "rhf"
			},
			{
				"type": "occ",
				"energy": -0.25997,
				"method": "rhf"
			},
			{
				"type": "occ",
				"energy": -0.25751,
				"method": "rhf"
			},
			{
				"type": "occ",
				"energy": -0.24474,
				"method": "rhf"
			},
			{
				"type": "unocc",
				"energy": -0.06018,
				"method": "rhf"
			},
			{
				"type": "unocc",
				"energy": -0.00801,
				"method": "rhf"
			},
			{
				"type": "unocc",
				"energy": -0.0002,
				"method": "rhf"
			},
			{
				"type": "unocc",
				"energy": 0.01449,
				"method": "rhf"
			},
			{
				"type": "unocc",
				"energy": 0.03525,
				"method": "rhf"
			}
		],
		"cosmo_sigma_profile": { 
			"-0.025": 0.0,
			"-0.024": 0.0,
			"-0.023": 0.0,
			"-0.022": 0.0,
			"-0.021": 0.0,
			"-0.02": 0.0,
			"-0.019": 0.0,
			"-0.018": 0.0,
			"-0.017": 0.0,
			"-0.016": 0.0,
			"-0.015": 0.0,
			"-0.014": 0.0,
			"-0.013": 0.0,
			"-0.012": 0.0014309192415,
			"-0.011": 0.632778799892,
			"-0.01": 0.875723317341,
			"-0.009": 1.04719156777,
			"-0.008": 3.79002711527,
			"-0.007": 12.160362355,
			"-0.006": 21.7116694206,
			"-0.005": 25.2691863381,
			"-0.004": 20.9464636173,
			"-0.003": 16.7328872586,
			"-0.002": 13.5176141736,
			"-0.001": 14.9526311839,
			"0.0": 14.4968450787,
			"0.001": 16.2242629382,
			"0.002": 17.0850386281,
			"0.003": 17.1306584673,
			"0.004": 18.1530910757,
			"0.005": 9.98916283725,
			"0.006": 8.50623137955,
			"0.007": 3.39940313084,
			"0.008": 2.27852066774,
			"0.009": 2.53851919968,
			"0.01": 3.45371953382,
			"0.011": 5.57192834793,
			"0.012": 4.56528352746,
			"0.013": 3.91119939588,
			"0.014": 1.92978500756,
			"0.015": 0.22063127466,
			"0.016": 0.0,
			"0.017": 0.0,
			"0.018": 0.0,
			"0.019": 0.0,
			"0.02": 0.0,
			"0.021": 0.0,
			"0.022": 0.0,
			"0.023": 0.0,
			"0.024": 0.0,
			"0.025": 0.0
		}
	}
}
