{
	 "smiles": "CC1=CC(C=O)=C(C)N1CCN1CCOCC1", 
	 "Tm": 353.15, 
	 "num_atms": 37, 
	 "gaussian": { 
		 "optdone": 1, 
		 "sigma_profile": "yes", 
		 "theory": "DFT", 
		 "functional": "B3LYP", 
		 "basiset": "6-31G**", 
		 "properties": { 
			 "R2extent": 5823.3486, 
			 "electric_dipole_moment_norm": 5.84076049244, 
			 "electric_quadrupole_moment_norm": 28.8584079831, 
			 "total_energy": -767.360257103, 
			 "HOMO_LUMO_gap": 0.18237, 
			 "cosmo_polarized_energy": -15.77, 
			 "cosmo_cavitation_energy": 37.29, 
			 "cosmo_dispersion_energy": -25.81, 
			 "cosmo_repulsion_energy": 1.99, 
			 "cosmo_total_nonelectrostatic_energy": 13.47, 
			 "SMD_solvation_energy": 6.45 
		},
		"coords": [
			{
				"x": -1.296655167,
				"y": 0.6768645516,
				"z": -3.5757506707,
				"element": "C" 
			},
			{
				"x": -1.0914605824,
				"y": -0.711087314,
				"z": -3.0569303392,
				"element": "C" 
			},
			{
				"x": -0.9433219614,
				"y": -1.8886507824,
				"z": -3.7404803962,
				"element": "C" 
			},
			{
				"x": -0.8266513569,
				"y": -2.9468444044,
				"z": -2.7820847009,
				"element": "C" 
			},
			{
				"x": -0.6630987844,
				"y": -4.3533740777,
				"z": -3.1084797902,
				"element": "C" 
			},
			{
				"x": -0.5693248993,
				"y": -5.2862802511,
				"z": -2.3192494356,
				"element": "O" 
			},
			{
				"x": -0.9070297891,
				"y": -2.3683773517,
				"z": -1.5124468007,
				"element": "C" 
			},
			{
				"x": -0.858231526,
				"y": -3.0281144242,
				"z": -0.1730242327,
				"element": "C" 
			},
			{
				"x": -1.0651115343,
				"y": -1.015901472,
				"z": -1.6890116818,
				"element": "N" 
			},
			{
				"x": -1.1569164449,
				"y": -0.0197686786,
				"z": -0.6276955254,
				"element": "C" 
			},
			{
				"x": 0.183590118,
				"y": 0.6643125522,
				"z": -0.294351138,
				"element": "C" 
			},
			{
				"x": 1.1061969785,
				"y": -0.2309196427,
				"z": 0.4030776056,
				"element": "N" 
			},
			{
				"x": 2.522367076,
				"y": -0.1084606157,
				"z": 0.0321728925,
				"element": "C" 
			},
			{
				"x": 3.2166639057,
				"y": 1.073389126,
				"z": 0.7160737858,
				"element": "C" 
			},
			{
				"x": 3.0706140481,
				"y": 0.9903537954,
				"z": 2.1304517372,
				"element": "O" 
			},
			{
				"x": 1.6996879366,
				"y": 0.9716291561,
				"z": 2.5113674751,
				"element": "C" 
			},
			{
				"x": 0.9702296194,
				"y": -0.2135435453,
				"z": 1.8676247852,
				"element": "C" 
			},
			{
				"x": -1.3005875659,
				"y": 0.6512630143,
				"z": -4.6680016506,
				"element": "H" 
			},
			{
				"x": -2.2543924241,
				"y": 1.1086001012,
				"z": -3.2566271901,
				"element": "H" 
			},
			{
				"x": -0.5085688123,
				"y": 1.375985713,
				"z": -3.2684161771,
				"element": "H" 
			},
			{
				"x": -0.9306592007,
				"y": -1.995918738,
				"z": -4.8172638589,
				"element": "H" 
			},
			{
				"x": -0.6242821519,
				"y": -4.5516927601,
				"z": -4.2045540879,
				"element": "H" 
			},
			{
				"x": -1.7881129338,
				"y": -2.8748926354,
				"z": 0.3910561272,
				"element": "H" 
			},
			{
				"x": -0.7227409791,
				"y": -4.0989471088,
				"z": -0.325126756,
				"element": "H" 
			},
			{
				"x": -0.0314911207,
				"y": -2.6355252575,
				"z": 0.4268904902,
				"element": "H" 
			},
			{
				"x": -1.5622383024,
				"y": -0.5037988227,
				"z": 0.2641356373,
				"element": "H" 
			},
			{
				"x": -1.880604948,
				"y": 0.7425545269,
				"z": -0.9341541392,
				"element": "H" 
			},
			{
				"x": 0.6477947678,
				"y": 0.9890670877,
				"z": -1.230529289,
				"element": "H" 
			},
			{
				"x": -0.0429244147,
				"y": 1.5834558477,
				"z": 0.2726693659,
				"element": "H" 
			},
			{
				"x": 2.6061116106,
				"y": -0.0347813526,
				"z": -1.057210983,
				"element": "H" 
			},
			{
				"x": 3.0296145149,
				"y": -1.0322681231,
				"z": 0.3390922741,
				"element": "H" 
			},
			{
				"x": 2.8041259639,
				"y": 2.0295312522,
				"z": 0.3485305061,
				"element": "H" 
			},
			{
				"x": 4.2926225556,
				"y": 1.0687273087,
				"z": 0.5146197841,
				"element": "H" 
			},
			{
				"x": 1.2174357029,
				"y": 1.923845544,
				"z": 2.2294523274,
				"element": "H" 
			},
			{
				"x": 1.6802054786,
				"y": 0.8958479464,
				"z": 3.6031942619,
				"element": "H" 
			},
			{
				"x": 1.398738616,
				"y": -1.1436051763,
				"z": 2.262223987,
				"element": "H" 
			},
			{
				"x": -0.0917939933,
				"y": -0.203974989,
				"z": 2.1385558006,
				"element": "H" 
			}
		],
		 "valence_orbital": [ 
			{
				"type": "occ",
				"energy": -0.27791,
				"method": "rhf"
			},
			{
				"type": "occ",
				"energy": -0.23941,
				"method": "rhf"
			},
			{
				"type": "occ",
				"energy": -0.2265,
				"method": "rhf"
			},
			{
				"type": "occ",
				"energy": -0.21089,
				"method": "rhf"
			},
			{
				"type": "occ",
				"energy": -0.20191,
				"method": "rhf"
			},
			{
				"type": "unocc",
				"energy": -0.01954,
				"method": "rhf"
			},
			{
				"type": "unocc",
				"energy": 0.03979,
				"method": "rhf"
			},
			{
				"type": "unocc",
				"energy": 0.06266,
				"method": "rhf"
			},
			{
				"type": "unocc",
				"energy": 0.08583,
				"method": "rhf"
			},
			{
				"type": "unocc",
				"energy": 0.08943,
				"method": "rhf"
			}
		],
		"cosmo_sigma_profile": { 
			"-0.025": 0.0,
			"-0.024": 0.0,
			"-0.023": 0.0,
			"-0.022": 0.0,
			"-0.021": 0.0,
			"-0.02": 0.0,
			"-0.019": 0.0,
			"-0.018": 0.0,
			"-0.017": 0.0,
			"-0.016": 0.0,
			"-0.015": 0.0,
			"-0.014": 0.0,
			"-0.013": 0.0,
			"-0.012": 0.0,
			"-0.011": 0.0,
			"-0.01": 0.0,
			"-0.009": 0.0,
			"-0.008": 0.0,
			"-0.007": 0.288989607529,
			"-0.006": 7.45644689616,
			"-0.005": 26.9008860592,
			"-0.004": 39.170850618,
			"-0.003": 41.9835288227,
			"-0.002": 32.4057308643,
			"-0.001": 27.7581267645,
			"0.0": 19.5514222585,
			"0.001": 13.5753677239,
			"0.002": 9.97780014986,
			"0.003": 10.7001681133,
			"0.004": 9.46454478117,
			"0.005": 9.06207986399,
			"0.006": 9.37579643029,
			"0.007": 6.78485322698,
			"0.008": 4.75355769582,
			"0.009": 3.27564394836,
			"0.01": 2.61372735657,
			"0.011": 3.31571535864,
			"0.012": 4.29049655718,
			"0.013": 5.16885179213,
			"0.014": 3.11416542569,
			"0.015": 0.603782448231,
			"0.016": 0.0,
			"0.017": 0.0,
			"0.018": 0.0,
			"0.019": 0.0,
			"0.02": 0.0,
			"0.021": 0.0,
			"0.022": 0.0,
			"0.023": 0.0,
			"0.024": 0.0,
			"0.025": 0.0
		}
	}
}
