{
	 "smiles": "OC(=O)C1=C(I)C=CC(F)=C1", 
	 "Tm": 420.15, 
	 "num_atms": 15, 
	 "gaussian": { 
		 "optdone": 1, 
		 "sigma_profile": "yes", 
		 "theory": "DFT", 
		 "functional": "B3LYP", 
		 "basiset": "6-31G**", 
		 "properties": { 
			 "R2extent": 3352.0256, 
			 "electric_dipole_moment_norm": 1.44244947918, 
			 "electric_quadrupole_moment_norm": 12.4841711135, 
			 "total_energy": -530.827049867, 
			 "HOMO_LUMO_gap": 0.18161, 
			 "cosmo_polarized_energy": -9.07, 
			 "cosmo_cavitation_energy": 23.52, 
			 "cosmo_dispersion_energy": -18.64, 
			 "cosmo_repulsion_energy": 1.44, 
			 "cosmo_total_nonelectrostatic_energy": 6.32, 
			 "SMD_solvation_energy": 5.06 
		},
		"coords": [
			{
				"x": -1.6839694204,
				"y": 3.3401882524,
				"z": -1.7924627841,
				"element": "O" 
			},
			{
				"x": -2.3294067483,
				"y": 2.2358905948,
				"z": -2.2099973277,
				"element": "C" 
			},
			{
				"x": -3.146676379,
				"y": 2.2619120339,
				"z": -3.1084493636,
				"element": "O" 
			},
			{
				"x": -1.9178862229,
				"y": 0.9715494563,
				"z": -1.5154089859,
				"element": "C" 
			},
			{
				"x": -1.3161030917,
				"y": 0.8359501792,
				"z": -0.2477904904,
				"element": "C" 
			},
			{
				"x": -0.9199073591,
				"y": 2.4223340559,
				"z": 1.1092372257,
				"element": "I" 
			},
			{
				"x": -0.991873884,
				"y": -0.4394382708,
				"z": 0.2335494071,
				"element": "C" 
			},
			{
				"x": -1.2483983176,
				"y": -1.5812091964,
				"z": -0.5210507116,
				"element": "C" 
			},
			{
				"x": -1.8544397245,
				"y": -1.4349513464,
				"z": -1.7629020004,
				"element": "C" 
			},
			{
				"x": -2.1179071645,
				"y": -2.5294259452,
				"z": -2.499476283,
				"element": "F" 
			},
			{
				"x": -2.1943061622,
				"y": -0.1890605376,
				"z": -2.2585754541,
				"element": "C" 
			},
			{
				"x": -2.0426090174,
				"y": 4.0750828108,
				"z": -2.3185086487,
				"element": "H" 
			},
			{
				"x": -0.5369591996,
				"y": -0.5429117349,
				"z": 1.2115597651,
				"element": "H" 
			},
			{
				"x": -0.9921824386,
				"y": -2.5687079798,
				"z": -0.1530749652,
				"element": "H" 
			},
			{
				"x": -2.6770748702,
				"y": -0.0915023723,
				"z": -3.2234493832,
				"element": "H" 
			}
		],
		 "valence_orbital": [ 
			{
				"type": "occ",
				"energy": -0.29994,
				"method": "rhf"
			},
			{
				"type": "occ",
				"energy": -0.29508,
				"method": "rhf"
			},
			{
				"type": "occ",
				"energy": -0.28072,
				"method": "rhf"
			},
			{
				"type": "occ",
				"energy": -0.26617,
				"method": "rhf"
			},
			{
				"type": "occ",
				"energy": -0.24626,
				"method": "rhf"
			},
			{
				"type": "unocc",
				"energy": -0.06465,
				"method": "rhf"
			},
			{
				"type": "unocc",
				"energy": -0.04842,
				"method": "rhf"
			},
			{
				"type": "unocc",
				"energy": -0.02721,
				"method": "rhf"
			},
			{
				"type": "unocc",
				"energy": 0.03311,
				"method": "rhf"
			},
			{
				"type": "unocc",
				"energy": 0.03946,
				"method": "rhf"
			}
		],
		"cosmo_sigma_profile": { 
			"-0.025": 0.0,
			"-0.024": 0.0,
			"-0.023": 0.0,
			"-0.022": 0.0,
			"-0.021": 0.0,
			"-0.02": 0.0,
			"-0.019": 0.240424857509,
			"-0.018": 0.985323114712,
			"-0.017": 0.758581521571,
			"-0.016": 1.1995426703,
			"-0.015": 0.543832984975,
			"-0.014": 1.02068620799,
			"-0.013": 0.400401323909,
			"-0.012": 0.410986519789,
			"-0.011": 0.956672542261,
			"-0.01": 0.592662368254,
			"-0.009": 1.53763065419,
			"-0.008": 3.86660865439,
			"-0.007": 7.11568207452,
			"-0.006": 7.29415151326,
			"-0.005": 6.08369458167,
			"-0.004": 8.53394242075,
			"-0.003": 9.6080174418,
			"-0.002": 12.7342229939,
			"-0.001": 14.622943707,
			"0.0": 20.1688576865,
			"0.001": 21.759129685,
			"0.002": 13.7260014417,
			"0.003": 15.8783908527,
			"0.004": 19.0351051335,
			"0.005": 5.52066791935,
			"0.006": 3.28662264907,
			"0.007": 2.74090150531,
			"0.008": 2.94331572893,
			"0.009": 2.42790701414,
			"0.01": 2.13639853445,
			"0.011": 4.66963888199,
			"0.012": 1.45876733961,
			"0.013": 0.0,
			"0.014": 0.0,
			"0.015": 0.0,
			"0.016": 0.0,
			"0.017": 0.0,
			"0.018": 0.0,
			"0.019": 0.0,
			"0.02": 0.0,
			"0.021": 0.0,
			"0.022": 0.0,
			"0.023": 0.0,
			"0.024": 0.0,
			"0.025": 0.0
		}
	}
}
