{
	 "smiles": "CN1C2=CC=CC=C2C(C)(C)C11OC2=C(C=C1)C=C(C=C2)[N+]([O-])=O", 
	 "Tm": 453.15, 
	 "num_atms": 42, 
	 "gaussian": { 
		 "optdone": 1, 
		 "sigma_profile": "yes", 
		 "theory": "DFT", 
		 "functional": "B3LYP", 
		 "basiset": "6-31G**", 
		 "properties": { 
			 "R2extent": 9439.8518, 
			 "electric_dipole_moment_norm": 5.46611608457, 
			 "electric_quadrupole_moment_norm": 32.3457807522, 
			 "total_energy": -1069.94436216, 
			 "HOMO_LUMO_gap": 0.12655, 
			 "cosmo_polarized_energy": -12.54, 
			 "cosmo_cavitation_energy": 44.09, 
			 "cosmo_dispersion_energy": -30.03, 
			 "cosmo_repulsion_energy": 2.23, 
			 "cosmo_total_nonelectrostatic_energy": 16.29, 
			 "SMD_solvation_energy": 8.93 
		},
		"coords": [
			{
				"x": -0.8508156953,
				"y": -2.6688330221,
				"z": 0.8734506669,
				"element": "C" 
			},
			{
				"x": -0.1761223612,
				"y": -1.9583622893,
				"z": -0.1990046631,
				"element": "N" 
			},
			{
				"x": 1.1960088427,
				"y": -2.1492484975,
				"z": -0.432402107,
				"element": "C" 
			},
			{
				"x": 2.0133759175,
				"y": -3.1909900795,
				"z": 0.0005906262,
				"element": "C" 
			},
			{
				"x": 3.3618930962,
				"y": -3.1699869023,
				"z": -0.3826408157,
				"element": "C" 
			},
			{
				"x": 3.8753121623,
				"y": -2.137150832,
				"z": -1.1666091117,
				"element": "C" 
			},
			{
				"x": 3.0369593775,
				"y": -1.0941383264,
				"z": -1.5922884942,
				"element": "C" 
			},
			{
				"x": 1.7020668455,
				"y": -1.1049393261,
				"z": -1.2208159747,
				"element": "C" 
			},
			{
				"x": 0.5621281146,
				"y": -0.1617468887,
				"z": -1.5743986119,
				"element": "C" 
			},
			{
				"x": 0.9235893896,
				"y": 1.3275743559,
				"z": -1.5126004259,
				"element": "C" 
			},
			{
				"x": 0.0505190024,
				"y": -0.5097000498,
				"z": -2.9924352946,
				"element": "C" 
			},
			{
				"x": -0.505064973,
				"y": -0.5743270321,
				"z": -0.4745001063,
				"element": "C" 
			},
			{
				"x": -0.1759331602,
				"y": 0.2099290465,
				"z": 0.7393605596,
				"element": "O" 
			},
			{
				"x": -1.0758005114,
				"y": 0.9239059188,
				"z": 1.4416294385,
				"element": "C" 
			},
			{
				"x": -2.4203747877,
				"y": 1.0544069215,
				"z": 1.0273799872,
				"element": "C" 
			},
			{
				"x": -2.8174149002,
				"y": 0.3494001836,
				"z": -0.1798573028,
				"element": "C" 
			},
			{
				"x": -1.9444165463,
				"y": -0.4013161358,
				"z": -0.8670274784,
				"element": "C" 
			},
			{
				"x": -3.2939741648,
				"y": 1.824691802,
				"z": 1.7955645109,
				"element": "C" 
			},
			{
				"x": -2.8286495254,
				"y": 2.4467033387,
				"z": 2.9514772249,
				"element": "C" 
			},
			{
				"x": -1.5002096942,
				"y": 2.3161478474,
				"z": 3.3688956227,
				"element": "C" 
			},
			{
				"x": -0.6242901538,
				"y": 1.5503599111,
				"z": 2.6129857873,
				"element": "C" 
			},
			{
				"x": -3.7518241783,
				"y": 3.2523892913,
				"z": 3.7470048903,
				"element": "N" 
			},
			{
				"x": -4.9170593724,
				"y": 3.3475144331,
				"z": 3.3544120898,
				"element": "O" 
			},
			{
				"x": -3.3135009951,
				"y": 3.7910743711,
				"z": 4.7655910593,
				"element": "O" 
			},
			{
				"x": -0.7822328589,
				"y": -3.7469723721,
				"z": 0.7013182804,
				"element": "H" 
			},
			{
				"x": -1.908407732,
				"y": -2.396805828,
				"z": 0.8745986014,
				"element": "H" 
			},
			{
				"x": -0.4256002701,
				"y": -2.4441687784,
				"z": 1.8620096427,
				"element": "H" 
			},
			{
				"x": 1.6295031809,
				"y": -3.9929627559,
				"z": 0.6224767829,
				"element": "H" 
			},
			{
				"x": 4.0168004643,
				"y": -3.9713455992,
				"z": -0.052191602,
				"element": "H" 
			},
			{
				"x": 4.9243974772,
				"y": -2.1366620773,
				"z": -1.4457799708,
				"element": "H" 
			},
			{
				"x": 3.436456973,
				"y": -0.2868900541,
				"z": -2.2008227908,
				"element": "H" 
			},
			{
				"x": 0.035902885,
				"y": 1.9510202838,
				"z": -1.6656720081,
				"element": "H" 
			},
			{
				"x": 1.3752611196,
				"y": 1.5944364349,
				"z": -0.5565095961,
				"element": "H" 
			},
			{
				"x": 1.6352176049,
				"y": 1.5682842343,
				"z": -2.3088214678,
				"element": "H" 
			},
			{
				"x": 0.8593088992,
				"y": -0.3574900677,
				"z": -3.712687623,
				"element": "H" 
			},
			{
				"x": -0.7869282263,
				"y": 0.1321309792,
				"z": -3.2856852573,
				"element": "H" 
			},
			{
				"x": -0.2644679875,
				"y": -1.5549213892,
				"z": -3.0617463657,
				"element": "H" 
			},
			{
				"x": -3.8502147375,
				"y": 0.4323855054,
				"z": -0.5082002675,
				"element": "H" 
			},
			{
				"x": -2.2568438051,
				"y": -0.9492216214,
				"z": -1.748067888,
				"element": "H" 
			},
			{
				"x": -4.3317099159,
				"y": 1.9457284368,
				"z": 1.5076392751,
				"element": "H" 
			},
			{
				"x": -1.1788060151,
				"y": 2.8159729755,
				"z": 4.2739571522,
				"element": "H" 
			},
			{
				"x": 0.4128612154,
				"y": 1.4272236539,
				"z": 2.9046230253,
				"element": "H" 
			}
		],
		 "valence_orbital": [ 
			{
				"type": "occ",
				"energy": -0.2812,
				"method": "rhf"
			},
			{
				"type": "occ",
				"energy": -0.2629,
				"method": "rhf"
			},
			{
				"type": "occ",
				"energy": -0.24833,
				"method": "rhf"
			},
			{
				"type": "occ",
				"energy": -0.23206,
				"method": "rhf"
			},
			{
				"type": "occ",
				"energy": -0.20497,
				"method": "rhf"
			},
			{
				"type": "unocc",
				"energy": -0.07842,
				"method": "rhf"
			},
			{
				"type": "unocc",
				"energy": -0.05356,
				"method": "rhf"
			},
			{
				"type": "unocc",
				"energy": -0.00371,
				"method": "rhf"
			},
			{
				"type": "unocc",
				"energy": 0.00081,
				"method": "rhf"
			},
			{
				"type": "unocc",
				"energy": 0.01045,
				"method": "rhf"
			}
		],
		"cosmo_sigma_profile": { 
			"-0.025": 0.0,
			"-0.024": 0.0,
			"-0.023": 0.0,
			"-0.022": 0.0,
			"-0.021": 0.0,
			"-0.02": 0.0,
			"-0.019": 0.0,
			"-0.018": 0.0,
			"-0.017": 0.0,
			"-0.016": 0.0,
			"-0.015": 0.0,
			"-0.014": 0.0,
			"-0.013": 0.0,
			"-0.012": 0.0,
			"-0.011": 0.0,
			"-0.01": 0.0,
			"-0.009": 0.014967881872,
			"-0.008": 2.67917669904,
			"-0.007": 7.51248651933,
			"-0.006": 11.0558333975,
			"-0.005": 19.8870556917,
			"-0.004": 26.3688924031,
			"-0.003": 36.8481998914,
			"-0.002": 36.7335618176,
			"-0.001": 33.5837831632,
			"0.0": 39.4818672785,
			"0.001": 35.300010285,
			"0.002": 18.9412921758,
			"0.003": 12.7428363572,
			"0.004": 10.6304240959,
			"0.005": 11.7370241934,
			"0.006": 13.6394728533,
			"0.007": 11.3598096774,
			"0.008": 10.4280039281,
			"0.009": 5.69005537309,
			"0.01": 3.95585945451,
			"0.011": 1.4983978791,
			"0.012": 0.0,
			"0.013": 0.0,
			"0.014": 0.0,
			"0.015": 0.0,
			"0.016": 0.0,
			"0.017": 0.0,
			"0.018": 0.0,
			"0.019": 0.0,
			"0.02": 0.0,
			"0.021": 0.0,
			"0.022": 0.0,
			"0.023": 0.0,
			"0.024": 0.0,
			"0.025": 0.0
		}
	}
}
