{
	 "smiles": "NC1=CC(=CC=C1)S(=O)(=O)N1CCCCC1", 
	 "Tm": 391.15, 
	 "num_atms": 32, 
	 "gaussian": { 
		 "optdone": 1, 
		 "sigma_profile": "yes", 
		 "theory": "DFT", 
		 "functional": "B3LYP", 
		 "basiset": "6-31G**", 
		 "properties": { 
			 "R2extent": 4843.1154, 
			 "electric_dipole_moment_norm": 5.78296477769, 
			 "electric_quadrupole_moment_norm": 22.3726522125, 
			 "total_energy": -1086.89540954, 
			 "HOMO_LUMO_gap": 0.18732, 
			 "cosmo_polarized_energy": -17.32, 
			 "cosmo_cavitation_energy": 34.65, 
			 "cosmo_dispersion_energy": -25.16, 
			 "cosmo_repulsion_energy": 1.94, 
			 "cosmo_total_nonelectrostatic_energy": 11.42, 
			 "SMD_solvation_energy": 3.72 
		},
		"coords": [
			{
				"x": 4.822426503,
				"y": -1.0470756244,
				"z": -2.6060365123,
				"element": "N" 
			},
			{
				"x": 3.9189931103,
				"y": -0.91391671,
				"z": -1.5572667237,
				"element": "C" 
			},
			{
				"x": 2.7104762151,
				"y": -0.217086258,
				"z": -1.740566183,
				"element": "C" 
			},
			{
				"x": 1.8477238537,
				"y": -0.0456344371,
				"z": -0.6628426602,
				"element": "C" 
			},
			{
				"x": 2.1355069694,
				"y": -0.5376303598,
				"z": 0.6122754499,
				"element": "C" 
			},
			{
				"x": 3.3324741742,
				"y": -1.2313168453,
				"z": 0.7846702992,
				"element": "C" 
			},
			{
				"x": 4.2133714461,
				"y": -1.4207637475,
				"z": -0.2790789076,
				"element": "C" 
			},
			{
				"x": 0.3447085536,
				"y": 0.9061350426,
				"z": -0.9224880553,
				"element": "S" 
			},
			{
				"x": 0.2485112033,
				"y": 1.9454080683,
				"z": 0.1085578628,
				"element": "O" 
			},
			{
				"x": 0.2923196833,
				"y": 1.2751817117,
				"z": -2.3467967733,
				"element": "O" 
			},
			{
				"x": -0.8468882436,
				"y": -0.2489852375,
				"z": -0.5416800347,
				"element": "N" 
			},
			{
				"x": -1.0352188557,
				"y": -1.2835791787,
				"z": -1.5780197455,
				"element": "C" 
			},
			{
				"x": -1.864591443,
				"y": -2.435695098,
				"z": -1.0009791394,
				"element": "C" 
			},
			{
				"x": -3.2010421722,
				"y": -1.9309824623,
				"z": -0.4400637056,
				"element": "C" 
			},
			{
				"x": -2.9663299986,
				"y": -0.7942513177,
				"z": 0.5643087756,
				"element": "C" 
			},
			{
				"x": -2.120173803,
				"y": 0.3240524605,
				"z": -0.0514539117,
				"element": "C" 
			},
			{
				"x": 5.4778174386,
				"y": -1.8118759935,
				"z": -2.5332900694,
				"element": "H" 
			},
			{
				"x": 4.4403042176,
				"y": -0.9461889521,
				"z": -3.535363907,
				"element": "H" 
			},
			{
				"x": 2.444013457,
				"y": 0.1985757578,
				"z": -2.7070100678,
				"element": "H" 
			},
			{
				"x": 1.4456434497,
				"y": -0.3824271883,
				"z": 1.4329081714,
				"element": "H" 
			},
			{
				"x": 3.586909759,
				"y": -1.6310849568,
				"z": 1.761977657,
				"element": "H" 
			},
			{
				"x": 5.1444965159,
				"y": -1.9592945356,
				"z": -0.1214731622,
				"element": "H" 
			},
			{
				"x": -1.5297889639,
				"y": -0.85830855,
				"z": -2.4649844564,
				"element": "H" 
			},
			{
				"x": -0.0514476012,
				"y": -1.644963393,
				"z": -1.8906979778,
				"element": "H" 
			},
			{
				"x": -2.0292364536,
				"y": -3.182712236,
				"z": -1.786180053,
				"element": "H" 
			},
			{
				"x": -1.2874139606,
				"y": -2.920836252,
				"z": -0.2042625611,
				"element": "H" 
			},
			{
				"x": -3.8252917926,
				"y": -1.5620927738,
				"z": -1.265980601,
				"element": "H" 
			},
			{
				"x": -3.7538096382,
				"y": -2.7521471434,
				"z": 0.0299711169,
				"element": "H" 
			},
			{
				"x": -3.9193730922,
				"y": -0.3712900567,
				"z": 0.9025158056,
				"element": "H" 
			},
			{
				"x": -2.4485241994,
				"y": -1.1818025074,
				"z": 1.4503333661,
				"element": "H" 
			},
			{
				"x": -2.6750922011,
				"y": 0.8024319525,
				"z": -0.8754184526,
				"element": "H" 
			},
			{
				"x": -1.8829741306,
				"y": 1.0924568216,
				"z": 0.6850151561,
				"element": "H" 
			}
		],
		 "valence_orbital": [ 
			{
				"type": "occ",
				"energy": -0.29732,
				"method": "rhf"
			},
			{
				"type": "occ",
				"energy": -0.28721,
				"method": "rhf"
			},
			{
				"type": "occ",
				"energy": -0.26645,
				"method": "rhf"
			},
			{
				"type": "occ",
				"energy": -0.24375,
				"method": "rhf"
			},
			{
				"type": "occ",
				"energy": -0.21517,
				"method": "rhf"
			},
			{
				"type": "unocc",
				"energy": -0.02785,
				"method": "rhf"
			},
			{
				"type": "unocc",
				"energy": -6e-05,
				"method": "rhf"
			},
			{
				"type": "unocc",
				"energy": 0.06559,
				"method": "rhf"
			},
			{
				"type": "unocc",
				"energy": 0.07181,
				"method": "rhf"
			},
			{
				"type": "unocc",
				"energy": 0.08744,
				"method": "rhf"
			}
		],
		"cosmo_sigma_profile": { 
			"-0.025": 0.0,
			"-0.024": 0.0,
			"-0.023": 0.0,
			"-0.022": 0.0,
			"-0.021": 0.0,
			"-0.02": 0.0,
			"-0.019": 0.0,
			"-0.018": 0.0,
			"-0.017": 0.0,
			"-0.016": 0.0,
			"-0.015": 0.0,
			"-0.014": 0.038756917546,
			"-0.013": 1.69316817027,
			"-0.012": 3.23910000522,
			"-0.011": 3.47898745032,
			"-0.01": 3.20887102326,
			"-0.009": 2.76937052896,
			"-0.008": 3.1339831733,
			"-0.007": 4.70641635498,
			"-0.006": 6.94194837577,
			"-0.005": 8.0417712278,
			"-0.004": 18.9882866846,
			"-0.003": 31.8186581231,
			"-0.002": 33.7236778286,
			"-0.001": 27.1395936312,
			"0.0": 22.1256527208,
			"0.001": 11.8597623204,
			"0.002": 11.274799508,
			"0.003": 14.1392459991,
			"0.004": 14.8756703004,
			"0.005": 9.1711286384,
			"0.006": 3.82880460785,
			"0.007": 3.98427781066,
			"0.008": 4.02451498058,
			"0.009": 4.64293385202,
			"0.01": 6.33952529798,
			"0.011": 8.61549534993,
			"0.012": 6.88669373569,
			"0.013": 1.09681947508,
			"0.014": 0.041414630016,
			"0.015": 0.0,
			"0.016": 0.0,
			"0.017": 0.0,
			"0.018": 0.0,
			"0.019": 0.0,
			"0.02": 0.0,
			"0.021": 0.0,
			"0.022": 0.0,
			"0.023": 0.0,
			"0.024": 0.0,
			"0.025": 0.0
		}
	}
}
