{
	 "smiles": "CCC1CC(O)CC(C)(C)N1O", 
	 "Tm": 344.15, 
	 "num_atms": 31, 
	 "gaussian": { 
		 "optdone": 1, 
		 "sigma_profile": "yes", 
		 "theory": "DFT", 
		 "functional": "B3LYP", 
		 "basiset": "6-31G**", 
		 "properties": { 
			 "R2extent": 2505.3097, 
			 "electric_dipole_moment_norm": 1.65205865816, 
			 "electric_quadrupole_moment_norm": 6.04921938104, 
			 "total_energy": -559.55375625, 
			 "HOMO_LUMO_gap": 0.27851, 
			 "cosmo_polarized_energy": -9.73, 
			 "cosmo_cavitation_energy": 29.72, 
			 "cosmo_dispersion_energy": -21.18, 
			 "cosmo_repulsion_energy": 1.68, 
			 "cosmo_total_nonelectrostatic_energy": 10.22, 
			 "SMD_solvation_energy": 4.71 
		},
		"coords": [
			{
				"x": 3.2697268793,
				"y": -0.5706889321,
				"z": -1.5947077526,
				"element": "C" 
			},
			{
				"x": 1.905479632,
				"y": -0.0859598644,
				"z": -2.0994414218,
				"element": "C" 
			},
			{
				"x": 0.6894989947,
				"y": -0.5058204608,
				"z": -1.2523657797,
				"element": "C" 
			},
			{
				"x": 0.448868643,
				"y": -2.0401441574,
				"z": -1.2960099023,
				"element": "C" 
			},
			{
				"x": 0.0050212462,
				"y": -2.6144950612,
				"z": 0.0580374828,
				"element": "C" 
			},
			{
				"x": -0.6445732656,
				"y": -3.8764888887,
				"z": -0.0894516119,
				"element": "O" 
			},
			{
				"x": -0.9963653607,
				"y": -1.6593413904,
				"z": 0.6909002558,
				"element": "C" 
			},
			{
				"x": -0.3691587454,
				"y": -0.2729170653,
				"z": 1.0086583453,
				"element": "C" 
			},
			{
				"x": -1.416004501,
				"y": 0.8318847593,
				"z": 0.7638616206,
				"element": "C" 
			},
			{
				"x": 0.1042842538,
				"y": -0.2237972918,
				"z": 2.4710953502,
				"element": "C" 
			},
			{
				"x": 0.8595569098,
				"y": -0.1169660012,
				"z": 0.1632494228,
				"element": "N" 
			},
			{
				"x": 1.2167086179,
				"y": 1.2856549331,
				"z": 0.2004043548,
				"element": "O" 
			},
			{
				"x": 3.3271690686,
				"y": -1.6620734677,
				"z": -1.5285881464,
				"element": "H" 
			},
			{
				"x": 3.4933844846,
				"y": -0.1749798263,
				"z": -0.5997851006,
				"element": "H" 
			},
			{
				"x": 4.0650024259,
				"y": -0.2422644154,
				"z": -2.2717028523,
				"element": "H" 
			},
			{
				"x": 1.7345529312,
				"y": -0.4660812837,
				"z": -3.1152079754,
				"element": "H" 
			},
			{
				"x": 1.914806796,
				"y": 1.0048952275,
				"z": -2.1722582535,
				"element": "H" 
			},
			{
				"x": -0.1862153235,
				"y": 0.004595635,
				"z": -1.687644524,
				"element": "H" 
			},
			{
				"x": 1.3510025602,
				"y": -2.5600778342,
				"z": -1.6398175143,
				"element": "H" 
			},
			{
				"x": -0.3435925696,
				"y": -2.2607912678,
				"z": -2.0199223806,
				"element": "H" 
			},
			{
				"x": 0.8795682122,
				"y": -2.7166127588,
				"z": 0.7173387713,
				"element": "H" 
			},
			{
				"x": -0.0148193788,
				"y": -4.4866406134,
				"z": -0.4948878361,
				"element": "H" 
			},
			{
				"x": -1.4065408762,
				"y": -2.0999691532,
				"z": 1.6049439657,
				"element": "H" 
			},
			{
				"x": -1.8349284471,
				"y": -1.5493222737,
				"z": -0.0077540626,
				"element": "H" 
			},
			{
				"x": -2.3110276621,
				"y": 0.6269812898,
				"z": 1.3607443263,
				"element": "H" 
			},
			{
				"x": -1.721963972,
				"y": 0.8692151246,
				"z": -0.2867471358,
				"element": "H" 
			},
			{
				"x": -1.0275173431,
				"y": 1.8130896379,
				"z": 1.0412446028,
				"element": "H" 
			},
			{
				"x": 0.6201966494,
				"y": 0.7194431464,
				"z": 2.6720391462,
				"element": "H" 
			},
			{
				"x": 0.793715779,
				"y": -1.0467895715,
				"z": 2.684502629,
				"element": "H" 
			},
			{
				"x": -0.7468134643,
				"y": -0.2981234051,
				"z": 3.1558552488,
				"element": "H" 
			},
			{
				"x": 2.0922768258,
				"y": 1.2662852303,
				"z": 0.6085167275,
				"element": "H" 
			}
		],
		 "valence_orbital": [ 
			{
				"type": "occ",
				"energy": -0.31893,
				"method": "rhf"
			},
			{
				"type": "occ",
				"energy": -0.30559,
				"method": "rhf"
			},
			{
				"type": "occ",
				"energy": -0.27701,
				"method": "rhf"
			},
			{
				"type": "occ",
				"energy": -0.26117,
				"method": "rhf"
			},
			{
				"type": "occ",
				"energy": -0.21618,
				"method": "rhf"
			},
			{
				"type": "unocc",
				"energy": 0.06233,
				"method": "rhf"
			},
			{
				"type": "unocc",
				"energy": 0.07682,
				"method": "rhf"
			},
			{
				"type": "unocc",
				"energy": 0.08243,
				"method": "rhf"
			},
			{
				"type": "unocc",
				"energy": 0.11066,
				"method": "rhf"
			},
			{
				"type": "unocc",
				"energy": 0.11183,
				"method": "rhf"
			}
		],
		"cosmo_sigma_profile": { 
			"-0.025": 0.0,
			"-0.024": 0.0,
			"-0.023": 0.0,
			"-0.022": 0.0,
			"-0.021": 0.0,
			"-0.02": 0.0,
			"-0.019": 0.0,
			"-0.018": 0.0,
			"-0.017": 0.0,
			"-0.016": 0.0284925093611,
			"-0.015": 0.968275203522,
			"-0.014": 1.99549743174,
			"-0.013": 1.96830321188,
			"-0.012": 0.758095141719,
			"-0.011": 1.53748590999,
			"-0.01": 1.59962728079,
			"-0.009": 1.98439565427,
			"-0.008": 2.25592107578,
			"-0.007": 2.0807053357,
			"-0.006": 1.55629912043,
			"-0.005": 2.84627173655,
			"-0.004": 4.22195931395,
			"-0.003": 21.9802084711,
			"-0.002": 34.1201812084,
			"-0.001": 31.7763723874,
			"0.0": 29.5722657199,
			"0.001": 29.8198699969,
			"0.002": 16.5562675845,
			"0.003": 4.76536431012,
			"0.004": 4.39410504519,
			"0.005": 3.99218908591,
			"0.006": 4.33007862966,
			"0.007": 2.90463271322,
			"0.008": 3.86193927046,
			"0.009": 2.91822856442,
			"0.01": 2.72600919476,
			"0.011": 2.62543022062,
			"0.012": 2.40873447528,
			"0.013": 1.55187142269,
			"0.014": 2.47275462245,
			"0.015": 0.65431395928,
			"0.016": 0.0,
			"0.017": 0.0,
			"0.018": 0.0,
			"0.019": 0.0,
			"0.02": 0.0,
			"0.021": 0.0,
			"0.022": 0.0,
			"0.023": 0.0,
			"0.024": 0.0,
			"0.025": 0.0
		}
	}
}
