{
	 "smiles": "NC1=CC(=CC=C1N1CCCCC1)C(F)(F)F", 
	 "Tm": 315.15, 
	 "num_atms": 32, 
	 "gaussian": { 
		 "optdone": 1, 
		 "sigma_profile": "yes", 
		 "theory": "DFT", 
		 "functional": "B3LYP", 
		 "basiset": "6-31G**", 
		 "properties": { 
			 "R2extent": 5873.5245, 
			 "electric_dipole_moment_norm": 4.57251539637, 
			 "electric_quadrupole_moment_norm": 15.2611608749, 
			 "total_energy": -875.351347499, 
			 "HOMO_LUMO_gap": 0.18768, 
			 "cosmo_polarized_energy": -7.67, 
			 "cosmo_cavitation_energy": 34.18, 
			 "cosmo_dispersion_energy": -24.53, 
			 "cosmo_repulsion_energy": 1.83, 
			 "cosmo_total_nonelectrostatic_energy": 11.48, 
			 "SMD_solvation_energy": 5.9 
		},
		"coords": [
			{
				"x": 0.0174462724,
				"y": 2.1740571035,
				"z": 0.1544174206,
				"element": "N" 
			},
			{
				"x": 0.4911555095,
				"y": 1.1453338943,
				"z": -0.6643169555,
				"element": "C" 
			},
			{
				"x": 1.1543149311,
				"y": 1.4172553179,
				"z": -1.8621411541,
				"element": "C" 
			},
			{
				"x": 1.6078406879,
				"y": 0.3792144244,
				"z": -2.6810847356,
				"element": "C" 
			},
			{
				"x": 1.3933660992,
				"y": -0.9466864768,
				"z": -2.3129955549,
				"element": "C" 
			},
			{
				"x": 0.7481187008,
				"y": -1.2267389293,
				"z": -1.1071648308,
				"element": "C" 
			},
			{
				"x": 0.3075797951,
				"y": -0.2070279642,
				"z": -0.2564052654,
				"element": "C" 
			},
			{
				"x": -0.3780418021,
				"y": -0.4414713364,
				"z": 0.9630492773,
				"element": "N" 
			},
			{
				"x": -1.0460781939,
				"y": -1.7381500963,
				"z": 1.1190437044,
				"element": "C" 
			},
			{
				"x": -1.745120682,
				"y": -1.8348414683,
				"z": 2.4976324687,
				"element": "C" 
			},
			{
				"x": -2.0392000228,
				"y": -0.4458897884,
				"z": 3.0737080594,
				"element": "C" 
			},
			{
				"x": -0.7197231198,
				"y": 0.3257704671,
				"z": 3.2871664329,
				"element": "C" 
			},
			{
				"x": 0.3172512182,
				"y": -0.0383245117,
				"z": 2.2018489474,
				"element": "C" 
			},
			{
				"x": 2.3613713643,
				"y": 0.709003777,
				"z": -3.9364992883,
				"element": "C" 
			},
			{
				"x": 3.6798232295,
				"y": 0.9165442033,
				"z": -3.6969372097,
				"element": "F" 
			},
			{
				"x": 1.8983244393,
				"y": 1.8386039826,
				"z": -4.5248618036,
				"element": "F" 
			},
			{
				"x": 2.284982941,
				"y": -0.2823375204,
				"z": -4.8530171909,
				"element": "F" 
			},
			{
				"x": -0.1157171547,
				"y": 3.0547769275,
				"z": -0.3253679544,
				"element": "H" 
			},
			{
				"x": -0.8067005681,
				"y": 1.8956384531,
				"z": 0.6768505269,
				"element": "H" 
			},
			{
				"x": 1.2862121882,
				"y": 2.4481544837,
				"z": -2.1771924593,
				"element": "H" 
			},
			{
				"x": 1.7261394839,
				"y": -1.7534561208,
				"z": -2.9556971474,
				"element": "H" 
			},
			{
				"x": 0.591956252,
				"y": -2.2619531533,
				"z": -0.8270255443,
				"element": "H" 
			},
			{
				"x": -0.3398960596,
				"y": -2.581244645,
				"z": 1.0252361219,
				"element": "H" 
			},
			{
				"x": -1.7735516434,
				"y": -1.8363222418,
				"z": 0.305393656,
				"element": "H" 
			},
			{
				"x": -2.6623296913,
				"y": -2.4243297047,
				"z": 2.3967396168,
				"element": "H" 
			},
			{
				"x": -1.1044447513,
				"y": -2.3819512686,
				"z": 3.2002742194,
				"element": "H" 
			},
			{
				"x": -2.682503926,
				"y": 0.1032438574,
				"z": 2.3769153317,
				"element": "H" 
			},
			{
				"x": -2.5923099446,
				"y": -0.528180529,
				"z": 4.0155395698,
				"element": "H" 
			},
			{
				"x": -0.9130246362,
				"y": 1.4048569513,
				"z": 3.2751111836,
				"element": "H" 
			},
			{
				"x": -0.2982275169,
				"y": 0.0952567419,
				"z": 4.2728601834,
				"element": "H" 
			},
			{
				"x": 0.9640290121,
				"y": 0.812590503,
				"z": 1.9854705032,
				"element": "H" 
			},
			{
				"x": 0.9698575881,
				"y": -0.8587953332,
				"z": 2.5461498709,
				"element": "H" 
			}
		],
		 "valence_orbital": [ 
			{
				"type": "occ",
				"energy": -0.32262,
				"method": "rhf"
			},
			{
				"type": "occ",
				"energy": -0.30978,
				"method": "rhf"
			},
			{
				"type": "occ",
				"energy": -0.2688,
				"method": "rhf"
			},
			{
				"type": "occ",
				"energy": -0.22624,
				"method": "rhf"
			},
			{
				"type": "occ",
				"energy": -0.1966,
				"method": "rhf"
			},
			{
				"type": "unocc",
				"energy": -0.00892,
				"method": "rhf"
			},
			{
				"type": "unocc",
				"energy": 0.0083,
				"method": "rhf"
			},
			{
				"type": "unocc",
				"energy": 0.06482,
				"method": "rhf"
			},
			{
				"type": "unocc",
				"energy": 0.08811,
				"method": "rhf"
			},
			{
				"type": "unocc",
				"energy": 0.10156,
				"method": "rhf"
			}
		],
		"cosmo_sigma_profile": { 
			"-0.025": 0.0,
			"-0.024": 0.0,
			"-0.023": 0.0,
			"-0.022": 0.0,
			"-0.021": 0.0,
			"-0.02": 0.0,
			"-0.019": 0.0,
			"-0.018": 0.0,
			"-0.017": 0.0,
			"-0.016": 0.0,
			"-0.015": 0.0,
			"-0.014": 0.0,
			"-0.013": 0.200582038042,
			"-0.012": 1.47421674842,
			"-0.011": 1.4347889106,
			"-0.01": 1.66799656282,
			"-0.009": 2.97858824469,
			"-0.008": 2.63631669764,
			"-0.007": 2.40700836463,
			"-0.006": 4.01081420095,
			"-0.005": 7.16536650023,
			"-0.004": 8.19691762044,
			"-0.003": 21.4389049908,
			"-0.002": 35.8995964103,
			"-0.001": 32.2457807874,
			"0.0": 28.2007704924,
			"0.001": 21.8661619799,
			"0.002": 17.7691674713,
			"0.003": 38.1434233251,
			"0.004": 22.1721452875,
			"0.005": 10.4264437144,
			"0.006": 3.7064846444,
			"0.007": 0.771219697767,
			"0.008": 0.9377492468,
			"0.009": 0.460353544862,
			"0.01": 0.708303218336,
			"0.011": 0.45145640476,
			"0.012": 0.738643210151,
			"0.013": 0.232015917258,
			"0.014": 0.0,
			"0.015": 0.0,
			"0.016": 0.0,
			"0.017": 0.0,
			"0.018": 0.0,
			"0.019": 0.0,
			"0.02": 0.0,
			"0.021": 0.0,
			"0.022": 0.0,
			"0.023": 0.0,
			"0.024": 0.0,
			"0.025": 0.0
		}
	}
}
