{
	 "smiles": "CC(=O)C1=CC2=C(N1)C=CC=C2", 
	 "Tm": 423.15, 
	 "num_atms": 21, 
	 "gaussian": { 
		 "optdone": 1, 
		 "sigma_profile": "yes", 
		 "theory": "DFT", 
		 "functional": "B3LYP", 
		 "basiset": "6-31G**", 
		 "properties": { 
			 "R2extent": 2334.5183, 
			 "electric_dipole_moment_norm": 1.56221445711, 
			 "electric_quadrupole_moment_norm": 13.0302062144, 
			 "total_energy": -516.47870022, 
			 "HOMO_LUMO_gap": 0.15756, 
			 "cosmo_polarized_energy": -9.21, 
			 "cosmo_cavitation_energy": 25.17, 
			 "cosmo_dispersion_energy": -18.62, 
			 "cosmo_repulsion_energy": 1.47, 
			 "cosmo_total_nonelectrostatic_energy": 8.02, 
			 "SMD_solvation_energy": 4.6 
		},
		"coords": [
			{
				"x": 0.4185968009,
				"y": 3.0832528013,
				"z": 2.5773090288,
				"element": "C" 
			},
			{
				"x": 0.6578420072,
				"y": 2.6841366562,
				"z": 1.1352669481,
				"element": "C" 
			},
			{
				"x": 1.2073261767,
				"y": 3.4345751075,
				"z": 0.3333991671,
				"element": "O" 
			},
			{
				"x": 0.2117064884,
				"y": 1.3554568838,
				"z": 0.6981941444,
				"element": "C" 
			},
			{
				"x": -0.4214376373,
				"y": 0.3135480613,
				"z": 1.352141917,
				"element": "C" 
			},
			{
				"x": -0.600757344,
				"y": -0.7353427903,
				"z": 0.3997646362,
				"element": "C" 
			},
			{
				"x": -0.0505071765,
				"y": -0.2712172824,
				"z": -0.8350205419,
				"element": "C" 
			},
			{
				"x": 0.4305181453,
				"y": 0.9928063724,
				"z": -0.6190290557,
				"element": "N" 
			},
			{
				"x": -0.0590302152,
				"y": -1.0597850003,
				"z": -1.9949886265,
				"element": "C" 
			},
			{
				"x": -0.626351828,
				"y": -2.3221988981,
				"z": -1.9047139971,
				"element": "C" 
			},
			{
				"x": -1.1767384485,
				"y": -2.8018157412,
				"z": -0.6928082125,
				"element": "C" 
			},
			{
				"x": -1.1691197717,
				"y": -2.0243704328,
				"z": 0.4534947458,
				"element": "C" 
			},
			{
				"x": -0.6509619399,
				"y": 3.0595206265,
				"z": 2.8125703024,
				"element": "H" 
			},
			{
				"x": 0.8051361098,
				"y": 4.0903752891,
				"z": 2.736637023,
				"element": "H" 
			},
			{
				"x": 0.9182863539,
				"y": 2.3865923899,
				"z": 3.2590991028,
				"element": "H" 
			},
			{
				"x": -0.7208081637,
				"y": 0.30406181,
				"z": 2.3907672827,
				"element": "H" 
			},
			{
				"x": 0.8834031763,
				"y": 1.6155957891,
				"z": -1.2715645472,
				"element": "H" 
			},
			{
				"x": 0.3623349354,
				"y": -0.6956061185,
				"z": -2.9272396149,
				"element": "H" 
			},
			{
				"x": -0.649182082,
				"y": -2.9584980876,
				"z": -2.7846032787,
				"element": "H" 
			},
			{
				"x": -1.6109459141,
				"y": -3.7967467901,
				"z": -0.6670802712,
				"element": "H" 
			},
			{
				"x": -1.5934096729,
				"y": -2.3985406458,
				"z": 1.3810038474,
				"element": "H" 
			}
		],
		 "valence_orbital": [ 
			{
				"type": "occ",
				"energy": -0.33155,
				"method": "rhf"
			},
			{
				"type": "occ",
				"energy": -0.28582,
				"method": "rhf"
			},
			{
				"type": "occ",
				"energy": -0.25477,
				"method": "rhf"
			},
			{
				"type": "occ",
				"energy": -0.22753,
				"method": "rhf"
			},
			{
				"type": "occ",
				"energy": -0.21466,
				"method": "rhf"
			},
			{
				"type": "unocc",
				"energy": -0.0571,
				"method": "rhf"
			},
			{
				"type": "unocc",
				"energy": 0.01092,
				"method": "rhf"
			},
			{
				"type": "unocc",
				"energy": 0.02508,
				"method": "rhf"
			},
			{
				"type": "unocc",
				"energy": 0.09581,
				"method": "rhf"
			},
			{
				"type": "unocc",
				"energy": 0.09714,
				"method": "rhf"
			}
		],
		"cosmo_sigma_profile": { 
			"-0.025": 0.0,
			"-0.024": 0.0,
			"-0.023": 0.0,
			"-0.022": 0.0,
			"-0.021": 0.0,
			"-0.02": 0.0,
			"-0.019": 0.0,
			"-0.018": 0.0,
			"-0.017": 0.0,
			"-0.016": 0.0,
			"-0.015": 0.177724648846,
			"-0.014": 1.0273246687,
			"-0.013": 0.544940161108,
			"-0.012": 1.19370562188,
			"-0.011": 0.911106553951,
			"-0.01": 0.579661012174,
			"-0.009": 1.04100504485,
			"-0.008": 1.24657339387,
			"-0.007": 2.77131877937,
			"-0.006": 10.4796874989,
			"-0.005": 17.5291360111,
			"-0.004": 18.6228542794,
			"-0.003": 16.1480752719,
			"-0.002": 15.1903254252,
			"-0.001": 15.2377427745,
			"0.0": 10.9226137192,
			"0.001": 9.99789502886,
			"0.002": 11.0849755385,
			"0.003": 14.8654815906,
			"0.004": 14.0906008786,
			"0.005": 14.2054081431,
			"0.006": 8.12592599392,
			"0.007": 2.16301007194,
			"0.008": 1.1153774597,
			"0.009": 2.04498536008,
			"0.01": 1.67158750038,
			"0.011": 2.46580820526,
			"0.012": 3.64668992761,
			"0.013": 1.74738428095,
			"0.014": 0.392469285509,
			"0.015": 0.0,
			"0.016": 0.0,
			"0.017": 0.0,
			"0.018": 0.0,
			"0.019": 0.0,
			"0.02": 0.0,
			"0.021": 0.0,
			"0.022": 0.0,
			"0.023": 0.0,
			"0.024": 0.0,
			"0.025": 0.0
		}
	}
}
