{
	 "smiles": "CCCCCCCCCCCCBr", 
	 "Tm": 263.4, 
	 "num_atms": 38, 
	 "gaussian": { 
		 "optdone": 1, 
		 "sigma_profile": "yes", 
		 "theory": "DFT", 
		 "functional": "B3LYP", 
		 "basiset": "6-31G**", 
		 "properties": { 
			 "R2extent": 7307.3056, 
			 "electric_dipole_moment_norm": 2.09691243737, 
			 "electric_quadrupole_moment_norm": 11.3959347137, 
			 "total_energy": -3043.788069, 
			 "HOMO_LUMO_gap": 0.27375, 
			 "cosmo_polarized_energy": -4.0, 
			 "cosmo_cavitation_energy": 39.75, 
			 "cosmo_dispersion_energy": -27.4, 
			 "cosmo_repulsion_energy": 2.27, 
			 "cosmo_total_nonelectrostatic_energy": 14.62, 
			 "SMD_solvation_energy": 4.25 
		},
		"coords": [
			{
				"x": 0.1593966327,
				"y": -2.0084937437,
				"z": -5.075482444,
				"element": "C" 
			},
			{
				"x": -0.5335651543,
				"y": -1.9451769837,
				"z": -3.7087451034,
				"element": "C" 
			},
			{
				"x": -0.12541628,
				"y": -0.7449478179,
				"z": -2.8371482415,
				"element": "C" 
			},
			{
				"x": -0.536732256,
				"y": 0.6234242031,
				"z": -3.4054841708,
				"element": "C" 
			},
			{
				"x": -0.1632710684,
				"y": 1.840387129,
				"z": -2.5288728167,
				"element": "C" 
			},
			{
				"x": -1.2326143548,
				"y": 2.3026538438,
				"z": -1.5190347241,
				"element": "C" 
			},
			{
				"x": -1.5950391803,
				"y": 1.3409475628,
				"z": -0.3742970971,
				"element": "C" 
			},
			{
				"x": -0.4472338994,
				"y": 1.0405624938,
				"z": 0.598962763,
				"element": "C" 
			},
			{
				"x": -0.8691126288,
				"y": 0.149626583,
				"z": 1.7754583096,
				"element": "C" 
			},
			{
				"x": 0.2830628194,
				"y": -0.1525203075,
				"z": 2.7429840928,
				"element": "C" 
			},
			{
				"x": -0.1171415119,
				"y": -0.9523768056,
				"z": 3.9914310023,
				"element": "C" 
			},
			{
				"x": -0.689214795,
				"y": -2.3412796541,
				"z": 3.7414903556,
				"element": "C" 
			},
			{
				"x": 0.6161281081,
				"y": -3.5619119811,
				"z": 2.8669657572,
				"element": "Br" 
			},
			{
				"x": -0.1288877962,
				"y": -2.9133606769,
				"z": -5.6207503172,
				"element": "H" 
			},
			{
				"x": 1.2500235154,
				"y": -2.0223993469,
				"z": -4.9635910518,
				"element": "H" 
			},
			{
				"x": -0.0971679813,
				"y": -1.1516463714,
				"z": -5.7067521656,
				"element": "H" 
			},
			{
				"x": -0.3127629189,
				"y": -2.8678032433,
				"z": -3.1569531895,
				"element": "H" 
			},
			{
				"x": -1.623080571,
				"y": -1.9325721585,
				"z": -3.8520056795,
				"element": "H" 
			},
			{
				"x": 0.9652648362,
				"y": -0.7577291127,
				"z": -2.6962692359,
				"element": "H" 
			},
			{
				"x": -0.5587114244,
				"y": -0.8781501412,
				"z": -1.8391663548,
				"element": "H" 
			},
			{
				"x": -0.0639276438,
				"y": 0.7463594447,
				"z": -4.387247186,
				"element": "H" 
			},
			{
				"x": -1.6203301349,
				"y": 0.6292104052,
				"z": -3.5949204002,
				"element": "H" 
			},
			{
				"x": 0.0382104437,
				"y": 2.6944809361,
				"z": -3.1876424791,
				"element": "H" 
			},
			{
				"x": 0.7853885858,
				"y": 1.6410123464,
				"z": -2.012656485,
				"element": "H" 
			},
			{
				"x": -0.8983502775,
				"y": 3.2523488732,
				"z": -1.0779730659,
				"element": "H" 
			},
			{
				"x": -2.1492299045,
				"y": 2.5388256597,
				"z": -2.0768867829,
				"element": "H" 
			},
			{
				"x": -1.9857842694,
				"y": 0.3998718889,
				"z": -0.7830059778,
				"element": "H" 
			},
			{
				"x": -2.4263904412,
				"y": 1.7840971276,
				"z": 0.1916279147,
				"element": "H" 
			},
			{
				"x": -0.0462744136,
				"y": 1.9881470324,
				"z": 0.9871440581,
				"element": "H" 
			},
			{
				"x": 0.3812986365,
				"y": 0.5567286771,
				"z": 0.0659194889,
				"element": "H" 
			},
			{
				"x": -1.2787370068,
				"y": -0.7887786524,
				"z": 1.377623849,
				"element": "H" 
			},
			{
				"x": -1.6904712731,
				"y": 0.6355855328,
				"z": 2.322600222,
				"element": "H" 
			},
			{
				"x": 0.7273531385,
				"y": 0.7941815689,
				"z": 3.0769646277,
				"element": "H" 
			},
			{
				"x": 1.0751479313,
				"y": -0.6939689687,
				"z": 2.2117752759,
				"element": "H" 
			},
			{
				"x": 0.7436977871,
				"y": -1.0398439306,
				"z": 4.6636255086,
				"element": "H" 
			},
			{
				"x": -0.8906407177,
				"y": -0.3990577968,
				"z": 4.5463071665,
				"element": "H" 
			},
			{
				"x": -0.9545481481,
				"y": -2.8439955867,
				"z": 4.6708624509,
				"element": "H" 
			},
			{
				"x": -1.5520363834,
				"y": -2.3334380286,
				"z": 3.076542126,
				"element": "H" 
			}
		],
		 "valence_orbital": [ 
			{
				"type": "occ",
				"energy": -0.30511,
				"method": "rhf"
			},
			{
				"type": "occ",
				"energy": -0.29971,
				"method": "rhf"
			},
			{
				"type": "occ",
				"energy": -0.29649,
				"method": "rhf"
			},
			{
				"type": "occ",
				"energy": -0.26861,
				"method": "rhf"
			},
			{
				"type": "occ",
				"energy": -0.26696,
				"method": "rhf"
			},
			{
				"type": "unocc",
				"energy": 0.00679,
				"method": "rhf"
			},
			{
				"type": "unocc",
				"energy": 0.07629,
				"method": "rhf"
			},
			{
				"type": "unocc",
				"energy": 0.08709,
				"method": "rhf"
			},
			{
				"type": "unocc",
				"energy": 0.10022,
				"method": "rhf"
			},
			{
				"type": "unocc",
				"energy": 0.10644,
				"method": "rhf"
			}
		],
		"cosmo_sigma_profile": { 
			"-0.025": 0.0,
			"-0.024": 0.0,
			"-0.023": 0.0,
			"-0.022": 0.0,
			"-0.021": 0.0,
			"-0.02": 0.0,
			"-0.019": 0.0,
			"-0.018": 0.0,
			"-0.017": 0.0,
			"-0.016": 0.0,
			"-0.015": 0.0,
			"-0.014": 0.0,
			"-0.013": 0.0,
			"-0.012": 0.0,
			"-0.011": 0.0,
			"-0.01": 0.0,
			"-0.009": 0.0,
			"-0.008": 0.0,
			"-0.007": 1.0401950256,
			"-0.006": 3.59289768377,
			"-0.005": 4.92337400564,
			"-0.004": 10.5011158456,
			"-0.003": 13.3583761242,
			"-0.002": 36.1480321379,
			"-0.001": 62.4696865515,
			"0.0": 65.9608585459,
			"0.001": 53.4153358881,
			"0.002": 25.383914205,
			"0.003": 4.4342177108,
			"0.004": 5.04997290358,
			"0.005": 6.62149930245,
			"0.006": 8.45293690286,
			"0.007": 6.93862262937,
			"0.008": 0.0289560398163,
			"0.009": 0.0,
			"0.01": 0.0,
			"0.011": 0.0,
			"0.012": 0.0,
			"0.013": 0.0,
			"0.014": 0.0,
			"0.015": 0.0,
			"0.016": 0.0,
			"0.017": 0.0,
			"0.018": 0.0,
			"0.019": 0.0,
			"0.02": 0.0,
			"0.021": 0.0,
			"0.022": 0.0,
			"0.023": 0.0,
			"0.024": 0.0,
			"0.025": 0.0
		}
	}
}
