{
	 "smiles": "ClC1=C(Cl)C=C(I)C=C1", 
	 "Tm": 303.15, 
	 "num_atms": 12, 
	 "gaussian": { 
		 "optdone": 1, 
		 "sigma_profile": "no", 
		 "theory": "DFT", 
		 "functional": "B3LYP", 
		 "basiset": "6-31G**", 
		 "properties": { 
			 "R2extent": 2044.0353, 
			 "electric_dipole_moment_norm": 1.49283071713, 
			 "electric_quadrupole_moment_norm": 5.51969816023, 
			 "total_energy": -1162.21068855, 
			 "HOMO_LUMO_gap": 0.19441, 
			 "cosmo_polarized_energy": -97777.79, 
			 "cosmo_cavitation_energy": 23.15, 
			 "cosmo_dispersion_energy": -18.92, 
			 "cosmo_repulsion_energy": 1.51, 
			 "cosmo_total_nonelectrostatic_energy": 5.75, 
			 "SMD_solvation_energy": 2.57 
		},
		"coords": [
			{
				"x": 0.265392314,
				"y": 3.361144396,
				"z": 0.7421680429,
				"element": "Cl" 
			},
			{
				"x": -0.319968635,
				"y": 1.7216742927,
				"z": 0.6403605892,
				"element": "C" 
			},
			{
				"x": 0.4481836896,
				"y": 0.7025043853,
				"z": 0.0607182859,
				"element": "C" 
			},
			{
				"x": 2.0349540776,
				"y": 1.0159635428,
				"z": -0.5925838414,
				"element": "Cl" 
			},
			{
				"x": -0.0512251412,
				"y": -0.6015489198,
				"z": -0.004854323,
				"element": "C" 
			},
			{
				"x": -1.3161265492,
				"y": -0.8803450777,
				"z": 0.5093502429,
				"element": "C" 
			},
			{
				"x": -2.0649341565,
				"y": -2.8564989601,
				"z": 0.4063195022,
				"element": "I" 
			},
			{
				"x": -2.0904534339,
				"y": 0.1264771702,
				"z": 1.0890266209,
				"element": "C" 
			},
			{
				"x": -1.585304502,
				"y": 1.4230404904,
				"z": 1.1503125839,
				"element": "C" 
			},
			{
				"x": 0.5563222734,
				"y": -1.3760529002,
				"z": -0.4562176354,
				"element": "H" 
			},
			{
				"x": -3.0742000632,
				"y": -0.0885363244,
				"z": 1.4893748885,
				"element": "H" 
			},
			{
				"x": -2.1738398736,
				"y": 2.2166779049,
				"z": 1.5973250435,
				"element": "H" 
			}
		],
		 "valence_orbital": [ 
			{
				"type": "occ",
				"energy": -0.31805,
				"method": "rhf"
			},
			{
				"type": "occ",
				"energy": -0.29729,
				"method": "rhf"
			},
			{
				"type": "occ",
				"energy": -0.28107,
				"method": "rhf"
			},
			{
				"type": "occ",
				"energy": -0.27248,
				"method": "rhf"
			},
			{
				"type": "occ",
				"energy": -0.24916,
				"method": "rhf"
			},
			{
				"type": "unocc",
				"energy": -0.05475,
				"method": "rhf"
			},
			{
				"type": "unocc",
				"energy": -0.04008,
				"method": "rhf"
			},
			{
				"type": "unocc",
				"energy": -0.03787,
				"method": "rhf"
			},
			{
				"type": "unocc",
				"energy": -0.00079,
				"method": "rhf"
			},
			{
				"type": "unocc",
				"energy": 0.03543,
				"method": "rhf"
			}
		],
		"cosmo_sigma_profile": { 
			"0.0": 0.0,
			"0.0": 0.0,
			"0.0": 0.0,
			"0.0": 0.0,
			"0.0": 0.0,
			"0.0": 0.0,
			"0.0": 0.0,
			"0.0": 0.0,
			"0.0": 0.0,
			"0.0": 0.0,
			"0.0": 0.0,
			"0.0": 0.0,
			"0.0": 0.0,
			"0.0": 0.0,
			"0.0": 0.0,
			"0.0": 0.0,
			"0.0": 0.0,
			"0.0": 0.0,
			"0.0": 0.0,
			"0.0": 0.0,
			"0.0": 0.0,
			"0.0": 0.0,
			"0.0": 0.0,
			"0.0": 0.0,
			"0.0": 0.0,
			"0.0": 0.0,
			"0.0": 0.0,
			"0.0": 0.0,
			"0.0": 0.0,
			"0.0": 0.0,
			"0.0": 0.0,
			"0.0": 0.0,
			"0.0": 0.0,
			"0.0": 0.0,
			"0.0": 0.0,
			"0.0": 0.0,
			"0.0": 0.0,
			"0.0": 0.0,
			"0.0": 0.0,
			"0.0": 0.0,
			"0.0": 0.0,
			"0.0": 0.0,
			"0.0": 0.0,
			"0.0": 0.0,
			"0.0": 0.0,
			"0.0": 0.0,
			"0.0": 0.0,
			"0.0": 0.0,
			"0.0": 0.0,
			"0.0": 0.0,
			"0.0": 0.0
		}
	}
}
