{
	 "smiles": "COC(=O)C1(C=C(OC)C2=CC=CC=C12)C(=O)OC", 
	 "Tm": 387.15, 
	 "num_atms": 33, 
	 "gaussian": { 
		 "optdone": 1, 
		 "sigma_profile": "yes", 
		 "theory": "DFT", 
		 "functional": "B3LYP", 
		 "basiset": "6-31G**", 
		 "properties": { 
			 "R2extent": 4880.14, 
			 "electric_dipole_moment_norm": 3.74838090647, 
			 "electric_quadrupole_moment_norm": 10.2965874808, 
			 "total_energy": -918.029385169, 
			 "HOMO_LUMO_gap": 0.1842, 
			 "cosmo_polarized_energy": -14.45, 
			 "cosmo_cavitation_energy": 37.79, 
			 "cosmo_dispersion_energy": -25.53, 
			 "cosmo_repulsion_energy": 2.03, 
			 "cosmo_total_nonelectrostatic_energy": 14.3, 
			 "SMD_solvation_energy": 10.1 
		},
		"coords": [
			{
				"x": -0.1860038323,
				"y": 2.7590248366,
				"z": -3.9565282107,
				"element": "C" 
			},
			{
				"x": 0.3465869708,
				"y": 1.9774821468,
				"z": -2.8739381011,
				"element": "O" 
			},
			{
				"x": -0.5436325953,
				"y": 1.1704917545,
				"z": -2.2549441028,
				"element": "C" 
			},
			{
				"x": -1.7152456083,
				"y": 1.1145435811,
				"z": -2.5393501573,
				"element": "O" 
			},
			{
				"x": 0.1673169954,
				"y": 0.3815243876,
				"z": -1.1383806655,
				"element": "C" 
			},
			{
				"x": 0.6754812227,
				"y": 1.329155998,
				"z": -0.0644880793,
				"element": "C" 
			},
			{
				"x": 0.1034586701,
				"y": 1.0203594364,
				"z": 1.1222997703,
				"element": "C" 
			},
			{
				"x": 0.2473928249,
				"y": 1.5859993968,
				"z": 2.338195906,
				"element": "O" 
			},
			{
				"x": 1.1412098251,
				"y": 2.6911731821,
				"z": 2.4119553915,
				"element": "C" 
			},
			{
				"x": -0.8023065532,
				"y": -0.1268086413,
				"z": 0.9825732622,
				"element": "C" 
			},
			{
				"x": -1.5903480486,
				"y": -0.7911929765,
				"z": 1.9189175922,
				"element": "C" 
			},
			{
				"x": -2.3642926468,
				"y": -1.870039863,
				"z": 1.4784468237,
				"element": "C" 
			},
			{
				"x": -2.3461461647,
				"y": -2.2668728627,
				"z": 0.136968381,
				"element": "C" 
			},
			{
				"x": -1.5517195381,
				"y": -1.5943441308,
				"z": -0.801480219,
				"element": "C" 
			},
			{
				"x": -0.7853842417,
				"y": -0.5249221791,
				"z": -0.3629793922,
				"element": "C" 
			},
			{
				"x": 1.2332785349,
				"y": -0.4961845974,
				"z": -1.8181368586,
				"element": "C" 
			},
			{
				"x": 1.0362548321,
				"y": -1.0887513462,
				"z": -2.8576729975,
				"element": "O" 
			},
			{
				"x": 2.3755074442,
				"y": -0.5666530608,
				"z": -1.1159386664,
				"element": "O" 
			},
			{
				"x": 3.3775567342,
				"y": -1.4381934224,
				"z": -1.6705077347,
				"element": "C" 
			},
			{
				"x": -0.9735962321,
				"y": 3.4262456883,
				"z": -3.5976332441,
				"element": "H" 
			},
			{
				"x": -0.5983208167,
				"y": 2.1072348555,
				"z": -4.730391493,
				"element": "H" 
			},
			{
				"x": 0.654679677,
				"y": 3.3327359038,
				"z": -4.3465003382,
				"element": "H" 
			},
			{
				"x": 1.3863526681,
				"y": 2.113146737,
				"z": -0.2767261047,
				"element": "H" 
			},
			{
				"x": 1.1373705734,
				"y": 3.0235172357,
				"z": 3.4506696371,
				"element": "H" 
			},
			{
				"x": 2.1564509639,
				"y": 2.3936090178,
				"z": 2.1220881036,
				"element": "H" 
			},
			{
				"x": 0.8071762294,
				"y": 3.5086732581,
				"z": 1.7611068352,
				"element": "H" 
			},
			{
				"x": -1.600051901,
				"y": -0.4776242204,
				"z": 2.9578325935,
				"element": "H" 
			},
			{
				"x": -2.9884765758,
				"y": -2.4068828828,
				"z": 2.1871991044,
				"element": "H" 
			},
			{
				"x": -2.9572795326,
				"y": -3.1058426713,
				"z": -0.1826848107,
				"element": "H" 
			},
			{
				"x": -1.5344956132,
				"y": -1.8975821968,
				"z": -1.8428624266,
				"element": "H" 
			},
			{
				"x": 3.6622126036,
				"y": -1.1060907458,
				"z": -2.6717028139,
				"element": "H" 
			},
			{
				"x": 3.002660806,
				"y": -2.4627800011,
				"z": -1.7306892919,
				"element": "H" 
			},
			{
				"x": 4.2257523249,
				"y": -1.3788516177,
				"z": -0.9889176927,
				"element": "H" 
			}
		],
		 "valence_orbital": [ 
			{
				"type": "occ",
				"energy": -0.28562,
				"method": "rhf"
			},
			{
				"type": "occ",
				"energy": -0.27514,
				"method": "rhf"
			},
			{
				"type": "occ",
				"energy": -0.25658,
				"method": "rhf"
			},
			{
				"type": "occ",
				"energy": -0.24456,
				"method": "rhf"
			},
			{
				"type": "occ",
				"energy": -0.20936,
				"method": "rhf"
			},
			{
				"type": "unocc",
				"energy": -0.02516,
				"method": "rhf"
			},
			{
				"type": "unocc",
				"energy": -0.00747,
				"method": "rhf"
			},
			{
				"type": "unocc",
				"energy": 0.01109,
				"method": "rhf"
			},
			{
				"type": "unocc",
				"energy": 0.02481,
				"method": "rhf"
			},
			{
				"type": "unocc",
				"energy": 0.07012,
				"method": "rhf"
			}
		],
		"cosmo_sigma_profile": { 
			"-0.025": 0.0,
			"-0.024": 0.0,
			"-0.023": 0.0,
			"-0.022": 0.0,
			"-0.021": 0.0,
			"-0.02": 0.0,
			"-0.019": 0.0,
			"-0.018": 0.0,
			"-0.017": 0.0,
			"-0.016": 0.0,
			"-0.015": 0.0,
			"-0.014": 0.0,
			"-0.013": 0.0,
			"-0.012": 0.0,
			"-0.011": 0.0,
			"-0.01": 0.0,
			"-0.009": 0.0,
			"-0.008": 0.0,
			"-0.007": 3.89945858524,
			"-0.006": 23.9037335038,
			"-0.005": 31.5682825478,
			"-0.004": 35.1497771923,
			"-0.003": 28.1268076539,
			"-0.002": 17.4619428123,
			"-0.001": 15.2713920527,
			"0.0": 16.7766965939,
			"0.001": 17.2045957922,
			"0.002": 20.7366926718,
			"0.003": 17.86463389,
			"0.004": 16.6688131732,
			"0.005": 14.6912640258,
			"0.006": 7.42134069777,
			"0.007": 6.21174025334,
			"0.008": 6.56890657518,
			"0.009": 5.13293978978,
			"0.01": 4.9616846734,
			"0.011": 8.56344407649,
			"0.012": 2.04969114304,
			"0.013": 0.0,
			"0.014": 0.0,
			"0.015": 0.0,
			"0.016": 0.0,
			"0.017": 0.0,
			"0.018": 0.0,
			"0.019": 0.0,
			"0.02": 0.0,
			"0.021": 0.0,
			"0.022": 0.0,
			"0.023": 0.0,
			"0.024": 0.0,
			"0.025": 0.0
		}
	}
}
