{
	 "smiles": "CN(CC1=CC=CC=C1)C(=O)[C@H](NC(=O)C1=CC2=CC(NC(=O)C3=CC=CC=C3C3=CC=C(C=C3)C(F)(F)F)=CC=C2N1C)C1=CC=CC=C1", 
	 "Tm": 396.15, 
	 "num_atms": 83, 
	 "gaussian": { 
		 "optdone": 1, 
		 "sigma_profile": "yes", 
		 "theory": "DFT", 
		 "functional": "B3LYP", 
		 "basiset": "6-31G**", 
		 "properties": { 
			 "R2extent": 32788.3034, 
			 "electric_dipole_moment_norm": 7.21988907463, 
			 "electric_quadrupole_moment_norm": 32.5411610795, 
			 "total_energy": -2288.39663473, 
			 "HOMO_LUMO_gap": 0.16123, 
			 "cosmo_polarized_energy": -30.42, 
			 "cosmo_cavitation_energy": 86.52, 
			 "cosmo_dispersion_energy": -48.6, 
			 "cosmo_repulsion_energy": 3.48, 
			 "cosmo_total_nonelectrostatic_energy": 41.4, 
			 "SMD_solvation_energy": 15.63 
		},
		"coords": [
			{
				"x": 0.4165273052,
				"y": 2.4322219179,
				"z": -2.9355969691,
				"element": "C" 
			},
			{
				"x": 0.0534140977,
				"y": 1.0261679953,
				"z": -3.0929600991,
				"element": "N" 
			},
			{
				"x": -1.3762760376,
				"y": 0.7304304805,
				"z": -3.1464050481,
				"element": "C" 
			},
			{
				"x": -2.0754699765,
				"y": 0.4745208714,
				"z": -1.8160208242,
				"element": "C" 
			},
			{
				"x": -1.3756535767,
				"y": 0.210501346,
				"z": -0.6354270728,
				"element": "C" 
			},
			{
				"x": -2.0649595369,
				"y": -0.0902222504,
				"z": 0.5447671439,
				"element": "C" 
			},
			{
				"x": -3.4595536024,
				"y": -0.124694024,
				"z": 0.5562521028,
				"element": "C" 
			},
			{
				"x": -4.1659709486,
				"y": 0.1511640302,
				"z": -0.6183590257,
				"element": "C" 
			},
			{
				"x": -3.4778402195,
				"y": 0.4491828433,
				"z": -1.7929056443,
				"element": "C" 
			},
			{
				"x": 1.0514455714,
				"y": 0.1130701642,
				"z": -3.3322555348,
				"element": "C" 
			},
			{
				"x": 2.2238713785,
				"y": 0.4406754996,
				"z": -3.4850027975,
				"element": "O" 
			},
			{
				"x": 0.6322587921,
				"y": -1.3805008843,
				"z": -3.3803218233,
				"element": "C" 
			},
			{
				"x": 1.7473031792,
				"y": -2.2785838787,
				"z": -3.051113391,
				"element": "N" 
			},
			{
				"x": 2.0235380703,
				"y": -2.8346053768,
				"z": -1.8205580664,
				"element": "C" 
			},
			{
				"x": 2.4769928517,
				"y": -3.9750096936,
				"z": -1.7306383192,
				"element": "O" 
			},
			{
				"x": 1.8505409845,
				"y": -1.9700690244,
				"z": -0.6234970478,
				"element": "C" 
			},
			{
				"x": 2.2956569594,
				"y": -0.6715481608,
				"z": -0.4607326491,
				"element": "C" 
			},
			{
				"x": 2.1414349259,
				"y": -0.3430869119,
				"z": 0.9208883894,
				"element": "C" 
			},
			{
				"x": 2.4767618065,
				"y": 0.7874764643,
				"z": 1.6883802381,
				"element": "C" 
			},
			{
				"x": 2.1927689219,
				"y": 0.7813782194,
				"z": 3.0500711487,
				"element": "C" 
			},
			{
				"x": 2.5590075994,
				"y": 1.8402970376,
				"z": 3.9244018978,
				"element": "N" 
			},
			{
				"x": 2.6880107367,
				"y": 3.1972658068,
				"z": 3.7520773308,
				"element": "C" 
			},
			{
				"x": 3.2033252088,
				"y": 3.8838340161,
				"z": 4.6304235017,
				"element": "O" 
			},
			{
				"x": 2.1849857667,
				"y": 3.8351950252,
				"z": 2.4816386734,
				"element": "C" 
			},
			{
				"x": 3.1443926539,
				"y": 4.3765273186,
				"z": 1.6165165778,
				"element": "C" 
			},
			{
				"x": 2.7661880188,
				"y": 5.005085238,
				"z": 0.4321949091,
				"element": "C" 
			},
			{
				"x": 1.4108952659,
				"y": 5.1199022961,
				"z": 0.1179772869,
				"element": "C" 
			},
			{
				"x": 0.4502613327,
				"y": 4.6191828494,
				"z": 0.9940205298,
				"element": "C" 
			},
			{
				"x": 0.8117490547,
				"y": 3.9766657985,
				"z": 2.1910480869,
				"element": "C" 
			},
			{
				"x": -0.2595202415,
				"y": 3.5199463596,
				"z": 3.118114073,
				"element": "C" 
			},
			{
				"x": -1.3735016367,
				"y": 2.8221998235,
				"z": 2.6239493314,
				"element": "C" 
			},
			{
				"x": -2.4070832629,
				"y": 2.4318019123,
				"z": 3.4705029326,
				"element": "C" 
			},
			{
				"x": -2.3463377886,
				"y": 2.7375071412,
				"z": 4.8321599285,
				"element": "C" 
			},
			{
				"x": -1.2464742332,
				"y": 3.4347806866,
				"z": 5.3391974305,
				"element": "C" 
			},
			{
				"x": -0.2143080671,
				"y": 3.8246812803,
				"z": 4.4898586789,
				"element": "C" 
			},
			{
				"x": -3.430976986,
				"y": 2.2639860612,
				"z": 5.758697779,
				"element": "C" 
			},
			{
				"x": -4.625775767,
				"y": 2.1684635687,
				"z": 5.1318060244,
				"element": "F" 
			},
			{
				"x": -3.1578357926,
				"y": 1.0353935212,
				"z": 6.2626452642,
				"element": "F" 
			},
			{
				"x": -3.5915161729,
				"y": 3.090526158,
				"z": 6.8156703789,
				"element": "F" 
			},
			{
				"x": 1.5788429193,
				"y": -0.3496280222,
				"z": 3.6485398389,
				"element": "C" 
			},
			{
				"x": 1.2724373089,
				"y": -1.4884064911,
				"z": 2.9194225197,
				"element": "C" 
			},
			{
				"x": 1.5735777236,
				"y": -1.4866674624,
				"z": 1.5498082867,
				"element": "C" 
			},
			{
				"x": 1.4289894811,
				"y": -2.4772535253,
				"z": 0.6023978988,
				"element": "N" 
			},
			{
				"x": 0.8420336387,
				"y": -3.7844756247,
				"z": 0.8532451731,
				"element": "C" 
			},
			{
				"x": 0.1239043768,
				"y": -1.7525083069,
				"z": -4.771158809,
				"element": "C" 
			},
			{
				"x": -1.0098526,
				"y": -2.5626390408,
				"z": -4.9201815566,
				"element": "C" 
			},
			{
				"x": -1.4462582391,
				"y": -2.9424079981,
				"z": -6.1902627472,
				"element": "C" 
			},
			{
				"x": -0.7481553174,
				"y": -2.5220931658,
				"z": -7.3239814703,
				"element": "C" 
			},
			{
				"x": 0.3867427023,
				"y": -1.7208065629,
				"z": -7.1824286901,
				"element": "C" 
			},
			{
				"x": 0.8223521104,
				"y": -1.3360113812,
				"z": -5.9137610172,
				"element": "C" 
			},
			{
				"x": 0.0895310759,
				"y": 3.0205484828,
				"z": -3.8024518763,
				"element": "H" 
			},
			{
				"x": -0.0536700244,
				"y": 2.8390163272,
				"z": -2.0345669745,
				"element": "H" 
			},
			{
				"x": 1.4989554676,
				"y": 2.5029712103,
				"z": -2.8477349315,
				"element": "H" 
			},
			{
				"x": -1.5420426563,
				"y": -0.1227315031,
				"z": -3.8095913095,
				"element": "H" 
			},
			{
				"x": -1.8622171456,
				"y": 1.5774344174,
				"z": -3.6469101617,
				"element": "H" 
			},
			{
				"x": -0.290854981,
				"y": 0.2346394764,
				"z": -0.6332503827,
				"element": "H" 
			},
			{
				"x": -1.5035598078,
				"y": -0.2951815542,
				"z": 1.4516285911,
				"element": "H" 
			},
			{
				"x": -3.9943270128,
				"y": -0.3662824698,
				"z": 1.470503252,
				"element": "H" 
			},
			{
				"x": -5.2521918919,
				"y": 0.1340725678,
				"z": -0.6182240474,
				"element": "H" 
			},
			{
				"x": -4.0344636636,
				"y": 0.6602692001,
				"z": -2.7038366056,
				"element": "H" 
			},
			{
				"x": -0.1706301219,
				"y": -1.5409328843,
				"z": -2.6541573223,
				"element": "H" 
			},
			{
				"x": 2.0170450051,
				"y": -2.9058685028,
				"z": -3.798855422,
				"element": "H" 
			},
			{
				"x": 2.7372942997,
				"y": -0.0684634965,
				"z": -1.2399565398,
				"element": "H" 
			},
			{
				"x": 2.9663340339,
				"y": 1.6346679802,
				"z": 1.2246476696,
				"element": "H" 
			},
			{
				"x": 2.8561721992,
				"y": 1.5637090304,
				"z": 4.8530554623,
				"element": "H" 
			},
			{
				"x": 4.194742109,
				"y": 4.2900242645,
				"z": 1.8782773779,
				"element": "H" 
			},
			{
				"x": 3.5222999108,
				"y": 5.409784173,
				"z": -0.2337274659,
				"element": "H" 
			},
			{
				"x": 1.100912012,
				"y": 5.6210101112,
				"z": -0.7945328666,
				"element": "H" 
			},
			{
				"x": -0.6041374789,
				"y": 4.7564595485,
				"z": 0.7730906215,
				"element": "H" 
			},
			{
				"x": -1.4215211012,
				"y": 2.5628704004,
				"z": 1.5715194799,
				"element": "H" 
			},
			{
				"x": -3.2593842823,
				"y": 1.8927896243,
				"z": 3.0712588187,
				"element": "H" 
			},
			{
				"x": -1.2068913963,
				"y": 3.6877449736,
				"z": 6.3933746965,
				"element": "H" 
			},
			{
				"x": 0.626091199,
				"y": 4.3825139388,
				"z": 4.8893310928,
				"element": "H" 
			},
			{
				"x": 1.3517215005,
				"y": -0.316822459,
				"z": 4.710320704,
				"element": "H" 
			},
			{
				"x": 0.8199752808,
				"y": -2.3465530338,
				"z": 3.4055730844,
				"element": "H" 
			},
			{
				"x": -0.2519944255,
				"y": -3.7281074356,
				"z": 0.9042363031,
				"element": "H" 
			},
			{
				"x": 1.2188050731,
				"y": -4.1735386422,
				"z": 1.8030989605,
				"element": "H" 
			},
			{
				"x": 1.1458574759,
				"y": -4.4630525877,
				"z": 0.0583193406,
				"element": "H" 
			},
			{
				"x": -1.5493635564,
				"y": -2.8997732635,
				"z": -4.0384120381,
				"element": "H" 
			},
			{
				"x": -2.3278523585,
				"y": -3.5684252534,
				"z": -6.2927828496,
				"element": "H" 
			},
			{
				"x": -1.0863334165,
				"y": -2.8185277241,
				"z": -8.3125505811,
				"element": "H" 
			},
			{
				"x": 0.9343473515,
				"y": -1.3924177936,
				"z": -8.0610359384,
				"element": "H" 
			},
			{
				"x": 1.7035605865,
				"y": -0.7112610678,
				"z": -5.8005628939,
				"element": "H" 
			}
		],
		 "valence_orbital": [ 
			{
				"type": "occ",
				"energy": -0.24844,
				"method": "rhf"
			},
			{
				"type": "occ",
				"energy": -0.24788,
				"method": "rhf"
			},
			{
				"type": "occ",
				"energy": -0.23901,
				"method": "rhf"
			},
			{
				"type": "occ",
				"energy": -0.21734,
				"method": "rhf"
			},
			{
				"type": "occ",
				"energy": -0.20585,
				"method": "rhf"
			},
			{
				"type": "unocc",
				"energy": -0.04462,
				"method": "rhf"
			},
			{
				"type": "unocc",
				"energy": -0.04342,
				"method": "rhf"
			},
			{
				"type": "unocc",
				"energy": -0.02711,
				"method": "rhf"
			},
			{
				"type": "unocc",
				"energy": -0.02286,
				"method": "rhf"
			},
			{
				"type": "unocc",
				"energy": -0.02189,
				"method": "rhf"
			}
		],
		"cosmo_sigma_profile": { 
			"-0.025": 0.0,
			"-0.024": 0.0,
			"-0.023": 0.0,
			"-0.022": 0.0,
			"-0.021": 0.0,
			"-0.02": 0.0,
			"-0.019": 0.0,
			"-0.018": 0.0,
			"-0.017": 0.0,
			"-0.016": 0.0,
			"-0.015": 0.0389191137132,
			"-0.014": 0.824818153714,
			"-0.013": 0.894395348999,
			"-0.012": 1.85643357112,
			"-0.011": 1.46115893718,
			"-0.01": 1.97351354176,
			"-0.009": 1.84108403592,
			"-0.008": 3.6339933522,
			"-0.007": 12.642736068,
			"-0.006": 36.045025877,
			"-0.005": 48.7213757496,
			"-0.004": 58.6415987896,
			"-0.003": 55.5110334218,
			"-0.002": 53.7662498595,
			"-0.001": 51.8892196132,
			"0.0": 58.6101711775,
			"0.001": 52.8159494227,
			"0.002": 55.1035041006,
			"0.003": 77.7991276323,
			"0.004": 42.8130086691,
			"0.005": 19.8947118644,
			"0.006": 8.28014446396,
			"0.007": 4.40962005636,
			"0.008": 5.14119834491,
			"0.009": 3.7302223213,
			"0.01": 4.171179313,
			"0.011": 4.7326800328,
			"0.012": 7.28116064203,
			"0.013": 12.4464257773,
			"0.014": 4.31272003963,
			"0.015": 0.670252527889,
			"0.016": 0.0,
			"0.017": 0.0,
			"0.018": 0.0,
			"0.019": 0.0,
			"0.02": 0.0,
			"0.021": 0.0,
			"0.022": 0.0,
			"0.023": 0.0,
			"0.024": 0.0,
			"0.025": 0.0
		}
	}
}
