{
	 "smiles": "CC1=NOC(=N1)C1=C(CBr)C=CC=C1", 
	 "Tm": 338.65, 
	 "num_atms": 23, 
	 "gaussian": { 
		 "optdone": 1, 
		 "sigma_profile": "yes", 
		 "theory": "DFT", 
		 "functional": "B3LYP", 
		 "basiset": "6-31G**", 
		 "properties": { 
			 "R2extent": 5726.6018, 
			 "electric_dipole_moment_norm": 2.71356949423, 
			 "electric_quadrupole_moment_norm": 16.9279297308, 
			 "total_energy": -3142.59606289, 
			 "HOMO_LUMO_gap": 0.18433, 
			 "cosmo_polarized_energy": -9.6, 
			 "cosmo_cavitation_energy": 29.7, 
			 "cosmo_dispersion_energy": -21.72, 
			 "cosmo_repulsion_energy": 1.72, 
			 "cosmo_total_nonelectrostatic_energy": 9.7, 
			 "SMD_solvation_energy": 2.7 
		},
		"coords": [
			{
				"x": -0.4835901239,
				"y": -0.2748736676,
				"z": 4.3354422878,
				"element": "C" 
			},
			{
				"x": -0.4613260926,
				"y": -0.212978647,
				"z": 2.8456649679,
				"element": "C" 
			},
			{
				"x": -0.8852439836,
				"y": -1.2005823716,
				"z": 2.0954554851,
				"element": "N" 
			},
			{
				"x": -0.6908740846,
				"y": -0.7222790093,
				"z": 0.7891945558,
				"element": "O" 
			},
			{
				"x": -0.162293466,
				"y": 0.5151302569,
				"z": 0.8978424645,
				"element": "C" 
			},
			{
				"x": 0.00032263,
				"y": 0.8774829069,
				"z": 2.1433533814,
				"element": "N" 
			},
			{
				"x": 0.1585128659,
				"y": 1.2267331188,
				"z": -0.3441039394,
				"element": "C" 
			},
			{
				"x": 0.4906789113,
				"y": 2.6043037487,
				"z": -0.376716918,
				"element": "C" 
			},
			{
				"x": 0.5299564931,
				"y": 3.4774167888,
				"z": 0.8388246207,
				"element": "C" 
			},
			{
				"x": -1.2733584219,
				"y": 4.2631735358,
				"z": 1.2286773012,
				"element": "Br" 
			},
			{
				"x": 0.7913565327,
				"y": 3.1843329544,
				"z": -1.6159680121,
				"element": "C" 
			},
			{
				"x": 0.7687165399,
				"y": 2.446865448,
				"z": -2.7971496666,
				"element": "C" 
			},
			{
				"x": 0.4357095819,
				"y": 1.0923762241,
				"z": -2.7594950684,
				"element": "C" 
			},
			{
				"x": 0.1346839463,
				"y": 0.4910784437,
				"z": -1.5423220377,
				"element": "C" 
			},
			{
				"x": -0.8877142197,
				"y": -1.2320274775,
				"z": 4.6685459066,
				"element": "H" 
			},
			{
				"x": -1.0990828147,
				"y": 0.5359510754,
				"z": 4.7363968994,
				"element": "H" 
			},
			{
				"x": 0.5275357444,
				"y": -0.1517913861,
				"z": 4.7350638085,
				"element": "H" 
			},
			{
				"x": 0.7827837026,
				"y": 2.9429912197,
				"z": 1.748045996,
				"element": "H" 
			},
			{
				"x": 1.1718092939,
				"y": 4.3427644843,
				"z": 0.6872439412,
				"element": "H" 
			},
			{
				"x": 1.0389532012,
				"y": 4.2417372081,
				"z": -1.6470960219,
				"element": "H" 
			},
			{
				"x": 1.0088812174,
				"y": 2.9276718061,
				"z": -3.7406454476,
				"element": "H" 
			},
			{
				"x": 0.413870693,
				"y": 0.5047049348,
				"z": -3.6718897724,
				"element": "H" 
			},
			{
				"x": -0.1185881466,
				"y": -0.5622815954,
				"z": -1.5060647319,
				"element": "H" 
			}
		],
		 "valence_orbital": [ 
			{
				"type": "occ",
				"energy": -0.29796,
				"method": "rhf"
			},
			{
				"type": "occ",
				"energy": -0.27488,
				"method": "rhf"
			},
			{
				"type": "occ",
				"energy": -0.26677,
				"method": "rhf"
			},
			{
				"type": "occ",
				"energy": -0.26161,
				"method": "rhf"
			},
			{
				"type": "occ",
				"energy": -0.25287,
				"method": "rhf"
			},
			{
				"type": "unocc",
				"energy": -0.06854,
				"method": "rhf"
			},
			{
				"type": "unocc",
				"energy": -0.03637,
				"method": "rhf"
			},
			{
				"type": "unocc",
				"energy": 0.01165,
				"method": "rhf"
			},
			{
				"type": "unocc",
				"energy": 0.02514,
				"method": "rhf"
			},
			{
				"type": "unocc",
				"energy": 0.053,
				"method": "rhf"
			}
		],
		"cosmo_sigma_profile": { 
			"-0.025": 0.0,
			"-0.024": 0.0,
			"-0.023": 0.0,
			"-0.022": 0.0,
			"-0.021": 0.0,
			"-0.02": 0.0,
			"-0.019": 0.0,
			"-0.018": 0.0,
			"-0.017": 0.0,
			"-0.016": 0.0,
			"-0.015": 0.0,
			"-0.014": 0.0,
			"-0.013": 0.0,
			"-0.012": 0.0,
			"-0.011": 0.0,
			"-0.01": 0.0,
			"-0.009": 0.24885444486,
			"-0.008": 2.82946500621,
			"-0.007": 8.77957824256,
			"-0.006": 15.784101732,
			"-0.005": 15.347559075,
			"-0.004": 17.9104922542,
			"-0.003": 19.1986400915,
			"-0.002": 22.6046912573,
			"-0.001": 17.8721294481,
			"0.0": 15.7772096231,
			"0.001": 14.6692992068,
			"0.002": 17.3409683205,
			"0.003": 18.0758682998,
			"0.004": 10.3681595203,
			"0.005": 11.0686587051,
			"0.006": 15.2241145527,
			"0.007": 8.33708394714,
			"0.008": 3.35212391682,
			"0.009": 1.64581689356,
			"0.01": 1.45472148937,
			"0.011": 1.19503017946,
			"0.012": 1.28092853599,
			"0.013": 1.10809811574,
			"0.014": 0.0724258418487,
			"0.015": 0.0,
			"0.016": 0.0,
			"0.017": 0.0,
			"0.018": 0.0,
			"0.019": 0.0,
			"0.02": 0.0,
			"0.021": 0.0,
			"0.022": 0.0,
			"0.023": 0.0,
			"0.024": 0.0,
			"0.025": 0.0
		}
	}
}
