{
	 "smiles": "CC1=C(N)C(=NN1)C(N)=O", 
	 "Tm": 493.15, 
	 "num_atms": 18, 
	 "gaussian": { 
		 "optdone": 1, 
		 "sigma_profile": "yes", 
		 "theory": "DFT", 
		 "functional": "B3LYP", 
		 "basiset": "6-31G**", 
		 "properties": { 
			 "R2extent": 2407.4599, 
			 "electric_dipole_moment_norm": 7.04132981758, 
			 "electric_quadrupole_moment_norm": 23.439600528, 
			 "total_energy": -489.579414132, 
			 "HOMO_LUMO_gap": 0.21544, 
			 "cosmo_polarized_energy": -25.11, 
			 "cosmo_cavitation_energy": 22.12, 
			 "cosmo_dispersion_energy": -16.66, 
			 "cosmo_repulsion_energy": 1.39, 
			 "cosmo_total_nonelectrostatic_energy": 6.85, 
			 "SMD_solvation_energy": 4.03 
		},
		"coords": [
			{
				"x": -1.8397433057,
				"y": -1.1127360346,
				"z": -0.5620987443,
				"element": "C" 
			},
			{
				"x": -1.3302441915,
				"y": 0.1458908979,
				"z": 0.0616543,
				"element": "C" 
			},
			{
				"x": -0.7864576428,
				"y": 1.2955477103,
				"z": -0.4905808318,
				"element": "C" 
			},
			{
				"x": -0.5340371293,
				"y": 1.5817489731,
				"z": -1.8574638471,
				"element": "N" 
			},
			{
				"x": -0.4795450696,
				"y": 2.1393217668,
				"z": 0.6199267298,
				"element": "C" 
			},
			{
				"x": -0.8160182259,
				"y": 1.5529776441,
				"z": 1.7729169444,
				"element": "N" 
			},
			{
				"x": -1.3074428351,
				"y": 0.3611138673,
				"z": 1.4126186003,
				"element": "N" 
			},
			{
				"x": 0.1508224571,
				"y": 3.4942942569,
				"z": 0.6390243555,
				"element": "C" 
			},
			{
				"x": 0.6196211034,
				"y": 3.9100100147,
				"z": -0.5864887776,
				"element": "N" 
			},
			{
				"x": 0.2277784669,
				"y": 4.1829772913,
				"z": 1.6452679114,
				"element": "O" 
			},
			{
				"x": -2.748627338,
				"y": -1.4676495635,
				"z": -0.0641149603,
				"element": "H" 
			},
			{
				"x": -1.1044511907,
				"y": -1.9263710966,
				"z": -0.5313471835,
				"element": "H" 
			},
			{
				"x": -2.0943423358,
				"y": -0.9389786127,
				"z": -1.6122820814,
				"element": "H" 
			},
			{
				"x": -1.1373019642,
				"y": 2.3222549277,
				"z": -2.2071025622,
				"element": "H" 
			},
			{
				"x": -0.6518459961,
				"y": 0.7648099175,
				"z": -2.4468482275,
				"element": "H" 
			},
			{
				"x": -1.616517463,
				"y": -0.2724285247,
				"z": 2.1343842979,
				"element": "H" 
			},
			{
				"x": 0.7722815798,
				"y": 3.2274913983,
				"z": -1.3202229885,
				"element": "H" 
			},
			{
				"x": 1.1893710803,
				"y": 4.743325166,
				"z": -0.570742935,
				"element": "H" 
			}
		],
		 "valence_orbital": [ 
			{
				"type": "occ",
				"energy": -0.2851,
				"method": "rhf"
			},
			{
				"type": "occ",
				"energy": -0.25204,
				"method": "rhf"
			},
			{
				"type": "occ",
				"energy": -0.24639,
				"method": "rhf"
			},
			{
				"type": "occ",
				"energy": -0.23092,
				"method": "rhf"
			},
			{
				"type": "occ",
				"energy": -0.22054,
				"method": "rhf"
			},
			{
				"type": "unocc",
				"energy": -0.0051,
				"method": "rhf"
			},
			{
				"type": "unocc",
				"energy": 0.03539,
				"method": "rhf"
			},
			{
				"type": "unocc",
				"energy": 0.05637,
				"method": "rhf"
			},
			{
				"type": "unocc",
				"energy": 0.07699,
				"method": "rhf"
			},
			{
				"type": "unocc",
				"energy": 0.11179,
				"method": "rhf"
			}
		],
		"cosmo_sigma_profile": { 
			"-0.025": 0.0,
			"-0.024": 0.0,
			"-0.023": 0.0,
			"-0.022": 0.0,
			"-0.021": 0.0,
			"-0.02": 0.0,
			"-0.019": 0.0,
			"-0.018": 0.0,
			"-0.017": 0.204383351701,
			"-0.016": 1.47582765967,
			"-0.015": 1.42670268631,
			"-0.014": 0.662749487503,
			"-0.013": 2.05657648947,
			"-0.012": 4.0302149934,
			"-0.011": 4.49749292487,
			"-0.01": 5.39482433528,
			"-0.009": 6.10912969571,
			"-0.008": 5.45419779765,
			"-0.007": 5.88722902624,
			"-0.006": 6.90607118933,
			"-0.005": 9.33256635135,
			"-0.004": 9.13851413842,
			"-0.003": 10.3375529772,
			"-0.002": 11.4788660985,
			"-0.001": 9.20038591216,
			"0.0": 7.64073732592,
			"0.001": 6.51267554508,
			"0.002": 6.08617451991,
			"0.003": 8.07919340135,
			"0.004": 7.78772840247,
			"0.005": 4.45635756427,
			"0.006": 4.56430458193,
			"0.007": 2.78583864138,
			"0.008": 3.62160483333,
			"0.009": 2.62635659477,
			"0.01": 2.39716813528,
			"0.011": 2.42251420512,
			"0.012": 2.42955202926,
			"0.013": 4.15829919625,
			"0.014": 6.78345011901,
			"0.015": 3.49985040871,
			"0.016": 2.53147116814,
			"0.017": 1.80865778335,
			"0.018": 0.715546300664,
			"0.019": 0.0,
			"0.02": 0.0,
			"0.021": 0.0,
			"0.022": 0.0,
			"0.023": 0.0,
			"0.024": 0.0,
			"0.025": 0.0
		}
	}
}
