{
	 "smiles": "OC(=O)C1=CC2=C(N=C1)N(N=C2C1CC1)C1=CC=CC=C1", 
	 "Tm": 524.15, 
	 "num_atms": 34, 
	 "gaussian": { 
		 "optdone": 1, 
		 "sigma_profile": "yes", 
		 "theory": "DFT", 
		 "functional": "B3LYP", 
		 "basiset": "6-31G**", 
		 "properties": { 
			 "R2extent": 8392.1695, 
			 "electric_dipole_moment_norm": 3.02657111101, 
			 "electric_quadrupole_moment_norm": 24.0700028575, 
			 "total_energy": -932.211140807, 
			 "HOMO_LUMO_gap": 0.15047, 
			 "cosmo_polarized_energy": -16.5, 
			 "cosmo_cavitation_energy": 38.7, 
			 "cosmo_dispersion_energy": -27.99, 
			 "cosmo_repulsion_energy": 2.1, 
			 "cosmo_total_nonelectrostatic_energy": 12.81, 
			 "SMD_solvation_energy": 5.64 
		},
		"coords": [
			{
				"x": 2.6350317311,
				"y": -3.3474929409,
				"z": -3.484901417,
				"element": "O" 
			},
			{
				"x": 2.6145579691,
				"y": -2.0047752874,
				"z": -3.2698258198,
				"element": "C" 
			},
			{
				"x": 3.5625790134,
				"y": -1.3285975893,
				"z": -3.5955596444,
				"element": "O" 
			},
			{
				"x": 1.3917497604,
				"y": -1.4337095735,
				"z": -2.6262802282,
				"element": "C" 
			},
			{
				"x": 1.4801502788,
				"y": -0.1476854204,
				"z": -2.0866320144,
				"element": "C" 
			},
			{
				"x": 0.3395204388,
				"y": 0.381934345,
				"z": -1.4921792424,
				"element": "C" 
			},
			{
				"x": -0.8434739381,
				"y": -0.4074532104,
				"z": -1.4879968469,
				"element": "C" 
			},
			{
				"x": -0.96228201,
				"y": -1.6297796151,
				"z": -2.0244192195,
				"element": "N" 
			},
			{
				"x": 0.1483325145,
				"y": -2.1091701351,
				"z": -2.576254083,
				"element": "C" 
			},
			{
				"x": -1.8072719736,
				"y": 0.3324397343,
				"z": -0.8487493822,
				"element": "N" 
			},
			{
				"x": -1.2898237695,
				"y": 1.5453102689,
				"z": -0.4524386221,
				"element": "N" 
			},
			{
				"x": -0.0255330485,
				"y": 1.5968402618,
				"z": -0.822471022,
				"element": "C" 
			},
			{
				"x": 0.8286268655,
				"y": 2.7706289936,
				"z": -0.5508453655,
				"element": "C" 
			},
			{
				"x": 0.2325347345,
				"y": 4.1682573633,
				"z": -0.5810319329,
				"element": "C" 
			},
			{
				"x": 0.6413057189,
				"y": 3.5682956467,
				"z": 0.7291330546,
				"element": "C" 
			},
			{
				"x": -3.1704145226,
				"y": 0.0368177192,
				"z": -0.5597895813,
				"element": "C" 
			},
			{
				"x": -3.935064856,
				"y": 0.9873965016,
				"z": 0.1312592071,
				"element": "C" 
			},
			{
				"x": -5.269719966,
				"y": 0.7171255277,
				"z": 0.4226589467,
				"element": "C" 
			},
			{
				"x": -5.8544221829,
				"y": -0.4898134288,
				"z": 0.0343392103,
				"element": "C" 
			},
			{
				"x": -5.0851480911,
				"y": -1.4287840241,
				"z": -0.6527721928,
				"element": "C" 
			},
			{
				"x": -3.7465873247,
				"y": -1.1784731387,
				"z": -0.9549045821,
				"element": "C" 
			},
			{
				"x": 1.8999485538,
				"y": -3.7798001578,
				"z": -3.0291888393,
				"element": "H" 
			},
			{
				"x": 2.4223543615,
				"y": 0.3874529804,
				"z": -2.146940363,
				"element": "H" 
			},
			{
				"x": 0.0373900068,
				"y": -3.0878607188,
				"z": -3.043395807,
				"element": "H" 
			},
			{
				"x": 1.8461152003,
				"y": 2.6678914202,
				"z": -0.915933526,
				"element": "H" 
			},
			{
				"x": -0.828495065,
				"y": 4.2312267287,
				"z": -0.7998396125,
				"element": "H" 
			},
			{
				"x": 0.8390779664,
				"y": 4.9625541978,
				"z": -1.0050653649,
				"element": "H" 
			},
			{
				"x": 1.5334623096,
				"y": 3.9434677616,
				"z": 1.2210380927,
				"element": "H" 
			},
			{
				"x": -0.1435181701,
				"y": 3.2259138271,
				"z": 1.3958326313,
				"element": "H" 
			},
			{
				"x": -3.4763518471,
				"y": 1.9208069169,
				"z": 0.4289919445,
				"element": "H" 
			},
			{
				"x": -5.854371897,
				"y": 1.4594614762,
				"z": 0.958288833,
				"element": "H" 
			},
			{
				"x": -6.8955358269,
				"y": -0.6948339798,
				"z": 0.2643863659,
				"element": "H" 
			},
			{
				"x": -5.5254355766,
				"y": -2.3722978748,
				"z": -0.9622232881,
				"element": "H" 
			},
			{
				"x": -3.1534873574,
				"y": -1.9084945762,
				"z": -1.4882902889,
				"element": "H" 
			}
		],
		 "valence_orbital": [ 
			{
				"type": "occ",
				"energy": -0.2794,
				"method": "rhf"
			},
			{
				"type": "occ",
				"energy": -0.27364,
				"method": "rhf"
			},
			{
				"type": "occ",
				"energy": -0.26698,
				"method": "rhf"
			},
			{
				"type": "occ",
				"energy": -0.25394,
				"method": "rhf"
			},
			{
				"type": "occ",
				"energy": -0.21897,
				"method": "rhf"
			},
			{
				"type": "unocc",
				"energy": -0.0685,
				"method": "rhf"
			},
			{
				"type": "unocc",
				"energy": -0.05305,
				"method": "rhf"
			},
			{
				"type": "unocc",
				"energy": -0.01027,
				"method": "rhf"
			},
			{
				"type": "unocc",
				"energy": -0.00297,
				"method": "rhf"
			},
			{
				"type": "unocc",
				"energy": 0.0388,
				"method": "rhf"
			}
		],
		"cosmo_sigma_profile": { 
			"-0.025": 0.0,
			"-0.024": 0.0,
			"-0.023": 0.0,
			"-0.022": 0.0,
			"-0.021": 0.0,
			"-0.02": 0.176270798813,
			"-0.019": 0.835882938537,
			"-0.018": 0.908324888112,
			"-0.017": 1.44303144463,
			"-0.016": 0.617117408587,
			"-0.015": 0.683749089569,
			"-0.014": 1.19260672527,
			"-0.013": 1.42086631598,
			"-0.012": 0.806354555891,
			"-0.011": 1.28870439056,
			"-0.01": 1.40111970082,
			"-0.009": 1.86028620374,
			"-0.008": 4.22706157535,
			"-0.007": 4.08541923675,
			"-0.006": 10.1778832656,
			"-0.005": 18.123082049,
			"-0.004": 22.3276796206,
			"-0.003": 20.3799219742,
			"-0.002": 23.5865488701,
			"-0.001": 28.5880827126,
			"0.0": 28.662071385,
			"0.001": 21.3794638897,
			"0.002": 22.9422314156,
			"0.003": 22.2038181594,
			"0.004": 18.8229292491,
			"0.005": 16.8066479219,
			"0.006": 8.49379179654,
			"0.007": 6.02443889229,
			"0.008": 2.50310733127,
			"0.009": 3.86857812573,
			"0.01": 4.59034979438,
			"0.011": 5.28994131687,
			"0.012": 4.2216167655,
			"0.013": 1.18154120243,
			"0.014": 0.00378668163018,
			"0.015": 0.0,
			"0.016": 0.0,
			"0.017": 0.0,
			"0.018": 0.0,
			"0.019": 0.0,
			"0.02": 0.0,
			"0.021": 0.0,
			"0.022": 0.0,
			"0.023": 0.0,
			"0.024": 0.0,
			"0.025": 0.0
		}
	}
}
