{
	 "smiles": "ClS(=O)(=O)C1=CC=C2OCOC2=C1", 
	 "Tm": 322.65, 
	 "num_atms": 18, 
	 "gaussian": { 
		 "optdone": 1, 
		 "sigma_profile": "yes", 
		 "theory": "DFT", 
		 "functional": "B3LYP", 
		 "basiset": "6-31G**", 
		 "properties": { 
			 "R2extent": 3329.9199, 
			 "electric_dipole_moment_norm": 6.46073112039, 
			 "electric_quadrupole_moment_norm": 4.50797762971, 
			 "total_energy": -1428.93570065, 
			 "HOMO_LUMO_gap": 0.15625, 
			 "cosmo_polarized_energy": -11.12, 
			 "cosmo_cavitation_energy": 26.1, 
			 "cosmo_dispersion_energy": -20.25, 
			 "cosmo_repulsion_energy": 1.56, 
			 "cosmo_total_nonelectrostatic_energy": 7.4, 
			 "SMD_solvation_energy": 3.97 
		},
		"coords": [
			{
				"x": 0.3043199913,
				"y": -3.1767044119,
				"z": 0.6117426654,
				"element": "Cl" 
			},
			{
				"x": 0.7130591939,
				"y": -1.4288133925,
				"z": 1.7786238631,
				"element": "S" 
			},
			{
				"x": -0.0175555916,
				"y": -1.6042306199,
				"z": 3.0280594511,
				"element": "O" 
			},
			{
				"x": 2.1605114059,
				"y": -1.2569902885,
				"z": 1.738670898,
				"element": "O" 
			},
			{
				"x": -0.0604706608,
				"y": -0.1553529521,
				"z": 0.8078715925,
				"element": "C" 
			},
			{
				"x": -1.3789976448,
				"y": 0.1916748186,
				"z": 1.0966044959,
				"element": "C" 
			},
			{
				"x": -2.0146329426,
				"y": 1.1965303333,
				"z": 0.3503714818,
				"element": "C" 
			},
			{
				"x": -1.2764850425,
				"y": 1.7896891518,
				"z": -0.6574328707,
				"element": "C" 
			},
			{
				"x": -1.665500952,
				"y": 2.779432063,
				"z": -1.50780936,
				"element": "O" 
			},
			{
				"x": -0.5385070253,
				"y": 3.0536956377,
				"z": -2.3573699238,
				"element": "C" 
			},
			{
				"x": 0.5261234168,
				"y": 2.1772179246,
				"z": -1.9684996064,
				"element": "O" 
			},
			{
				"x": 0.0458691105,
				"y": 1.4232950832,
				"z": -0.9334510141,
				"element": "C" 
			},
			{
				"x": 0.6987529911,
				"y": 0.4460104409,
				"z": -0.2171404749,
				"element": "C" 
			},
			{
				"x": -1.9023614401,
				"y": -0.3085176954,
				"z": 1.902720763,
				"element": "H" 
			},
			{
				"x": -3.0351458216,
				"y": 1.4973974018,
				"z": 0.5548669987,
				"element": "H" 
			},
			{
				"x": -0.8140788737,
				"y": 2.8582779958,
				"z": -3.3996445254,
				"element": "H" 
			},
			{
				"x": -0.2269054995,
				"y": 4.0953356467,
				"z": -2.2208250434,
				"element": "H" 
			},
			{
				"x": 1.7255053848,
				"y": 0.1628528629,
				"z": -0.4112593906,
				"element": "H" 
			}
		],
		 "valence_orbital": [ 
			{
				"type": "occ",
				"energy": -0.33314,
				"method": "rhf"
			},
			{
				"type": "occ",
				"energy": -0.3228,
				"method": "rhf"
			},
			{
				"type": "occ",
				"energy": -0.30894,
				"method": "rhf"
			},
			{
				"type": "occ",
				"energy": -0.28328,
				"method": "rhf"
			},
			{
				"type": "occ",
				"energy": -0.24266,
				"method": "rhf"
			},
			{
				"type": "unocc",
				"energy": -0.08641,
				"method": "rhf"
			},
			{
				"type": "unocc",
				"energy": -0.03752,
				"method": "rhf"
			},
			{
				"type": "unocc",
				"energy": -0.02974,
				"method": "rhf"
			},
			{
				"type": "unocc",
				"energy": 0.05417,
				"method": "rhf"
			},
			{
				"type": "unocc",
				"energy": 0.07027,
				"method": "rhf"
			}
		],
		"cosmo_sigma_profile": { 
			"-0.025": 0.0,
			"-0.024": 0.0,
			"-0.023": 0.0,
			"-0.022": 0.0,
			"-0.021": 0.0,
			"-0.02": 0.0,
			"-0.019": 0.0,
			"-0.018": 0.0,
			"-0.017": 0.0,
			"-0.016": 0.0,
			"-0.015": 0.0,
			"-0.014": 0.0,
			"-0.013": 0.0,
			"-0.012": 0.0,
			"-0.011": 0.0,
			"-0.01": 0.122046793091,
			"-0.009": 4.38731499907,
			"-0.008": 12.4261484377,
			"-0.007": 12.7101876585,
			"-0.006": 9.47008824274,
			"-0.005": 8.48009754768,
			"-0.004": 8.28479477014,
			"-0.003": 9.25608118108,
			"-0.002": 11.8364327969,
			"-0.001": 16.677726229,
			"0.0": 19.9869745459,
			"0.001": 18.8163899191,
			"0.002": 12.4604767767,
			"0.003": 13.8719063459,
			"0.004": 15.5036252756,
			"0.005": 5.33032559387,
			"0.006": 6.3471882837,
			"0.007": 8.04156004251,
			"0.008": 12.3757136876,
			"0.009": 6.39489780863,
			"0.01": 0.181033169649,
			"0.011": 0.0,
			"0.012": 0.0,
			"0.013": 0.0,
			"0.014": 0.0,
			"0.015": 0.0,
			"0.016": 0.0,
			"0.017": 0.0,
			"0.018": 0.0,
			"0.019": 0.0,
			"0.02": 0.0,
			"0.021": 0.0,
			"0.022": 0.0,
			"0.023": 0.0,
			"0.024": 0.0,
			"0.025": 0.0
		}
	}
}
