{
	 "smiles": "CC(C)(C)OC(=O)N1CC(=O)CC1C(O)=O", 
	 "Tm": 429.15, 
	 "num_atms": 31, 
	 "gaussian": { 
		 "optdone": 1, 
		 "sigma_profile": "yes", 
		 "theory": "DFT", 
		 "functional": "B3LYP", 
		 "basiset": "6-31G**", 
		 "properties": { 
			 "R2extent": 4263.6588, 
			 "electric_dipole_moment_norm": 4.41907086162, 
			 "electric_quadrupole_moment_norm": 10.4623429556, 
			 "total_energy": -821.015409498, 
			 "HOMO_LUMO_gap": 0.21873, 
			 "cosmo_polarized_energy": -17.5, 
			 "cosmo_cavitation_energy": 34.24, 
			 "cosmo_dispersion_energy": -22.94, 
			 "cosmo_repulsion_energy": 1.82, 
			 "cosmo_total_nonelectrostatic_energy": 13.12, 
			 "SMD_solvation_energy": 7.65 
		},
		"coords": [
			{
				"x": 2.9186123068,
				"y": 0.3856539442,
				"z": -0.9083153142,
				"element": "C" 
			},
			{
				"x": 2.3064071487,
				"y": -1.0067550078,
				"z": -0.7376960734,
				"element": "C" 
			},
			{
				"x": 2.7720139267,
				"y": -1.9483696435,
				"z": -1.8526136521,
				"element": "C" 
			},
			{
				"x": 2.5971590865,
				"y": -1.5638820249,
				"z": 0.6594284783,
				"element": "C" 
			},
			{
				"x": 0.8626787584,
				"y": -0.7391018088,
				"z": -0.8759511328,
				"element": "O" 
			},
			{
				"x": -0.0423078609,
				"y": -1.7370577516,
				"z": -0.7526813109,
				"element": "C" 
			},
			{
				"x": 0.1915391012,
				"y": -2.9224229342,
				"z": -0.5900322195,
				"element": "O" 
			},
			{
				"x": -1.3170840103,
				"y": -1.2354602702,
				"z": -0.8691957704,
				"element": "N" 
			},
			{
				"x": -2.4564211244,
				"y": -2.0878363192,
				"z": -0.5590340886,
				"element": "C" 
			},
			{
				"x": -3.6577278385,
				"y": -1.1620450637,
				"z": -0.731410277,
				"element": "C" 
			},
			{
				"x": -4.8150035994,
				"y": -1.4770083374,
				"z": -0.5886349915,
				"element": "O" 
			},
			{
				"x": -3.1472577747,
				"y": 0.2288409092,
				"z": -1.1216307507,
				"element": "C" 
			},
			{
				"x": -1.6355798995,
				"y": 0.1874041436,
				"z": -0.8124459868,
				"element": "C" 
			},
			{
				"x": -1.3431667518,
				"y": 0.7735178545,
				"z": 0.5721013032,
				"element": "C" 
			},
			{
				"x": -1.3587617515,
				"y": 2.1249139768,
				"z": 0.5346670712,
				"element": "O" 
			},
			{
				"x": -1.1530657542,
				"y": 0.1348818407,
				"z": 1.5808106248,
				"element": "O" 
			},
			{
				"x": 2.664958927,
				"y": 0.8030873504,
				"z": -1.8872572851,
				"element": "H" 
			},
			{
				"x": 4.0081335059,
				"y": 0.3280867657,
				"z": -0.8289822331,
				"element": "H" 
			},
			{
				"x": 2.5511805104,
				"y": 1.0672659143,
				"z": -0.1355651245,
				"element": "H" 
			},
			{
				"x": 3.8606833807,
				"y": -2.0565199855,
				"z": -1.8095685429,
				"element": "H" 
			},
			{
				"x": 2.3153248992,
				"y": -2.9326526652,
				"z": -1.7477993446,
				"element": "H" 
			},
			{
				"x": 2.5105963071,
				"y": -1.5370383588,
				"z": -2.8328416892,
				"element": "H" 
			},
			{
				"x": 3.6795969129,
				"y": -1.6307887779,
				"z": 0.8092776992,
				"element": "H" 
			},
			{
				"x": 2.1842905609,
				"y": -0.8994922442,
				"z": 1.4247233779,
				"element": "H" 
			},
			{
				"x": 2.1620165069,
				"y": -2.555676958,
				"z": 0.7839964511,
				"element": "H" 
			},
			{
				"x": -2.426259546,
				"y": -2.4735470476,
				"z": 0.4686906579,
				"element": "H" 
			},
			{
				"x": -2.5209381757,
				"y": -2.9467216813,
				"z": -1.2344223195,
				"element": "H" 
			},
			{
				"x": -3.3149716235,
				"y": 0.3614897189,
				"z": -2.196728439,
				"element": "H" 
			},
			{
				"x": -3.6945392926,
				"y": 1.0171480745,
				"z": -0.6011453235,
				"element": "H" 
			},
			{
				"x": -1.0490384405,
				"y": 0.745795078,
				"z": -1.5439017499,
				"element": "H" 
			},
			{
				"x": -1.201968396,
				"y": 2.4300913092,
				"z": 1.4444579554,
				"element": "H" 
			}
		],
		 "valence_orbital": [ 
			{
				"type": "occ",
				"energy": -0.2944,
				"method": "rhf"
			},
			{
				"type": "occ",
				"energy": -0.29294,
				"method": "rhf"
			},
			{
				"type": "occ",
				"energy": -0.26913,
				"method": "rhf"
			},
			{
				"type": "occ",
				"energy": -0.26054,
				"method": "rhf"
			},
			{
				"type": "occ",
				"energy": -0.25341,
				"method": "rhf"
			},
			{
				"type": "unocc",
				"energy": -0.03468,
				"method": "rhf"
			},
			{
				"type": "unocc",
				"energy": -0.00803,
				"method": "rhf"
			},
			{
				"type": "unocc",
				"energy": 0.04353,
				"method": "rhf"
			},
			{
				"type": "unocc",
				"energy": 0.06346,
				"method": "rhf"
			},
			{
				"type": "unocc",
				"energy": 0.0804,
				"method": "rhf"
			}
		],
		"cosmo_sigma_profile": { 
			"-0.025": 0.0,
			"-0.024": 0.0,
			"-0.023": 0.0,
			"-0.022": 0.0,
			"-0.021": 0.0,
			"-0.02": 0.0,
			"-0.019": 0.35939176878,
			"-0.018": 0.879707000593,
			"-0.017": 1.20301012011,
			"-0.016": 0.571411689448,
			"-0.015": 0.906149280421,
			"-0.014": 0.650443062161,
			"-0.013": 0.487283835788,
			"-0.012": 0.855667380801,
			"-0.011": 0.890303769273,
			"-0.01": 0.438806772713,
			"-0.009": 1.20455618147,
			"-0.008": 7.89097856323,
			"-0.007": 13.0102692712,
			"-0.006": 9.54729766757,
			"-0.005": 10.0578737349,
			"-0.004": 20.6575847576,
			"-0.003": 20.62638007,
			"-0.002": 20.4973744904,
			"-0.001": 21.9559129022,
			"0.0": 29.5290249944,
			"0.001": 23.5184818678,
			"0.002": 10.7674725232,
			"0.003": 8.47357689772,
			"0.004": 8.15585191945,
			"0.005": 5.83936327949,
			"0.006": 6.91605731927,
			"0.007": 5.70649934199,
			"0.008": 5.36329776733,
			"0.009": 6.3552647892,
			"0.01": 6.90694492981,
			"0.011": 9.93922644426,
			"0.012": 4.79541939904,
			"0.013": 2.7339738757,
			"0.014": 0.0884352975063,
			"0.015": 0.0,
			"0.016": 0.0,
			"0.017": 0.0,
			"0.018": 0.0,
			"0.019": 0.0,
			"0.02": 0.0,
			"0.021": 0.0,
			"0.022": 0.0,
			"0.023": 0.0,
			"0.024": 0.0,
			"0.025": 0.0
		}
	}
}
