{
	 "smiles": "CCC(N)P(O)(O)=O", 
	 "Tm": 533.15, 
	 "num_atms": 18, 
	 "gaussian": { 
		 "optdone": 1, 
		 "sigma_profile": "yes", 
		 "theory": "DFT", 
		 "functional": "B3LYP", 
		 "basiset": "6-31G**", 
		 "properties": { 
			 "R2extent": 1702.4103, 
			 "electric_dipole_moment_norm": 4.08771081536, 
			 "electric_quadrupole_moment_norm": 11.7846467406, 
			 "total_energy": -742.1949082, 
			 "HOMO_LUMO_gap": 0.31296, 
			 "cosmo_polarized_energy": -17.67, 
			 "cosmo_cavitation_energy": 21.73, 
			 "cosmo_dispersion_energy": -16.49, 
			 "cosmo_repulsion_energy": 1.37, 
			 "cosmo_total_nonelectrostatic_energy": 6.61, 
			 "SMD_solvation_energy": 5.6 
		},
		"coords": [
			{
				"x": 0.4375648314,
				"y": 1.6269003234,
				"z": 0.1300027441,
				"element": "C" 
			},
			{
				"x": -0.4884312355,
				"y": 0.8745893621,
				"z": -0.8338510331,
				"element": "C" 
			},
			{
				"x": -1.0413579906,
				"y": -0.475203876,
				"z": -0.3407164531,
				"element": "C" 
			},
			{
				"x": 0.0555678442,
				"y": -1.3912031746,
				"z": 0.0507551284,
				"element": "N" 
			},
			{
				"x": -2.1174427795,
				"y": -0.3863755871,
				"z": 1.1638562607,
				"element": "P" 
			},
			{
				"x": -2.7729737168,
				"y": 1.1010586701,
				"z": 1.165499841,
				"element": "O" 
			},
			{
				"x": -1.0096566919,
				"y": -0.2897346608,
				"z": 2.3328069493,
				"element": "O" 
			},
			{
				"x": -3.1284574569,
				"y": -1.4725840788,
				"z": 1.2588352203,
				"element": "O" 
			},
			{
				"x": 1.3096797447,
				"y": 1.0263701461,
				"z": 0.4064605279,
				"element": "H" 
			},
			{
				"x": -0.080793238,
				"y": 1.9077878292,
				"z": 1.0497707987,
				"element": "H" 
			},
			{
				"x": 0.802798302,
				"y": 2.5426945178,
				"z": -0.3447905144,
				"element": "H" 
			},
			{
				"x": -1.3408016328,
				"y": 1.5089071786,
				"z": -1.0961782408,
				"element": "H" 
			},
			{
				"x": 0.0477039256,
				"y": 0.6758271611,
				"z": -1.773302723,
				"element": "H" 
			},
			{
				"x": -1.6743478035,
				"y": -0.892856248,
				"z": -1.1371002996,
				"element": "H" 
			},
			{
				"x": -0.2727350916,
				"y": -2.3544058638,
				"z": 0.0478500283,
				"element": "H" 
			},
			{
				"x": 0.8177470179,
				"y": -1.3347131719,
				"z": -0.6208474408,
				"element": "H" 
			},
			{
				"x": -3.7249891299,
				"y": 1.0230948996,
				"z": 1.3229850323,
				"element": "H" 
			},
			{
				"x": -0.210674899,
				"y": -0.7329534271,
				"z": 1.9699641737,
				"element": "H" 
			}
		],
		 "valence_orbital": [ 
			{
				"type": "occ",
				"energy": -0.34913,
				"method": "rhf"
			},
			{
				"type": "occ",
				"energy": -0.31935,
				"method": "rhf"
			},
			{
				"type": "occ",
				"energy": -0.28684,
				"method": "rhf"
			},
			{
				"type": "occ",
				"energy": -0.27844,
				"method": "rhf"
			},
			{
				"type": "occ",
				"energy": -0.26636,
				"method": "rhf"
			},
			{
				"type": "unocc",
				"energy": 0.0466,
				"method": "rhf"
			},
			{
				"type": "unocc",
				"energy": 0.05727,
				"method": "rhf"
			},
			{
				"type": "unocc",
				"energy": 0.08972,
				"method": "rhf"
			},
			{
				"type": "unocc",
				"energy": 0.10678,
				"method": "rhf"
			},
			{
				"type": "unocc",
				"energy": 0.11815,
				"method": "rhf"
			}
		],
		"cosmo_sigma_profile": { 
			"-0.025": 0.0,
			"-0.024": 0.0,
			"-0.023": 0.0,
			"-0.022": 0.0,
			"-0.021": 0.0,
			"-0.02": 0.0,
			"-0.019": 0.227200497381,
			"-0.018": 1.00448505695,
			"-0.017": 0.577891319647,
			"-0.016": 0.844410528826,
			"-0.015": 0.928327312859,
			"-0.014": 0.662085378322,
			"-0.013": 0.29813189689,
			"-0.012": 1.39994062014,
			"-0.011": 3.52259811243,
			"-0.01": 4.47834799088,
			"-0.009": 4.08937941161,
			"-0.008": 4.10370178641,
			"-0.007": 5.10303947797,
			"-0.006": 7.1515792382,
			"-0.005": 8.95780527575,
			"-0.004": 9.52091874487,
			"-0.003": 11.4142845385,
			"-0.002": 12.1600403704,
			"-0.001": 14.0706473749,
			"0.0": 9.69602835923,
			"0.001": 10.955022524,
			"0.002": 5.20501951411,
			"0.003": 3.34832115642,
			"0.004": 3.40226370288,
			"0.005": 4.73007144253,
			"0.006": 4.43687169132,
			"0.007": 3.11593845065,
			"0.008": 3.59744752199,
			"0.009": 3.9024180655,
			"0.01": 4.01199614672,
			"0.011": 3.39801261958,
			"0.012": 2.33157030252,
			"0.013": 0.724224042312,
			"0.014": 3.04667816416,
			"0.015": 7.06530147615,
			"0.016": 1.93282969506,
			"0.017": 0.0,
			"0.018": 0.0,
			"0.019": 0.0,
			"0.02": 0.0,
			"0.021": 0.0,
			"0.022": 0.0,
			"0.023": 0.0,
			"0.024": 0.0,
			"0.025": 0.0
		}
	}
}
