{
	 "smiles": "CCCCCCCCOC(=O)CCCCC(=O)OCCCCCCCC", 
	 "Tm": 203.15, 
	 "num_atms": 68, 
	 "gaussian": { 
		 "optdone": 1, 
		 "sigma_profile": "yes", 
		 "theory": "DFT", 
		 "functional": "B3LYP", 
		 "basiset": "6-31G**", 
		 "properties": { 
			 "R2extent": 16468.2459, 
			 "electric_dipole_moment_norm": 1.17662871799, 
			 "electric_quadrupole_moment_norm": 17.5220948114, 
			 "total_energy": -1164.63037383, 
			 "HOMO_LUMO_gap": 0.27598, 
			 "cosmo_polarized_energy": -12.22, 
			 "cosmo_cavitation_energy": 67.69, 
			 "cosmo_dispersion_energy": -41.44, 
			 "cosmo_repulsion_energy": 3.36, 
			 "cosmo_total_nonelectrostatic_energy": 29.61, 
			 "SMD_solvation_energy": 11.01 
		},
		"coords": [
			{
				"x": -0.6862823183,
				"y": 2.1016270924,
				"z": 6.9855779724,
				"element": "C" 
			},
			{
				"x": -1.4163557039,
				"y": 3.0045660239,
				"z": 5.9836763114,
				"element": "C" 
			},
			{
				"x": -0.576016666,
				"y": 3.4118032273,
				"z": 4.7616726878,
				"element": "C" 
			},
			{
				"x": 0.60881559,
				"y": 4.3361801896,
				"z": 5.0891507872,
				"element": "C" 
			},
			{
				"x": 1.4115856537,
				"y": 4.8356744435,
				"z": 3.8672463414,
				"element": "C" 
			},
			{
				"x": 2.6134064879,
				"y": 3.9724832454,
				"z": 3.4418235773,
				"element": "C" 
			},
			{
				"x": 2.2802118498,
				"y": 2.5612304856,
				"z": 2.9369889366,
				"element": "C" 
			},
			{
				"x": 3.5208157605,
				"y": 1.8496913443,
				"z": 2.4054808771,
				"element": "C" 
			},
			{
				"x": 3.2307296022,
				"y": 0.4827301905,
				"z": 2.0278367846,
				"element": "O" 
			},
			{
				"x": 2.7578384526,
				"y": 0.2843417094,
				"z": 0.775810743,
				"element": "C" 
			},
			{
				"x": 2.5840224223,
				"y": 1.1763583436,
				"z": -0.0300092198,
				"element": "O" 
			},
			{
				"x": 2.4479704875,
				"y": -1.1783962441,
				"z": 0.538177997,
				"element": "C" 
			},
			{
				"x": 1.147938961,
				"y": -1.6096022216,
				"z": 1.2464362311,
				"element": "C" 
			},
			{
				"x": 0.7600749647,
				"y": -3.0554138021,
				"z": 0.9128412513,
				"element": "C" 
			},
			{
				"x": -0.5255661622,
				"y": -3.5275225238,
				"z": 1.606099774,
				"element": "C" 
			},
			{
				"x": -1.8072713091,
				"y": -2.7934043997,
				"z": 1.2429737072,
				"element": "C" 
			},
			{
				"x": -2.7672943159,
				"y": -2.6989384051,
				"z": 1.9772909376,
				"element": "O" 
			},
			{
				"x": -1.768193317,
				"y": -2.2850483657,
				"z": -0.0090542968,
				"element": "O" 
			},
			{
				"x": -2.9489418906,
				"y": -1.5750011481,
				"z": -0.4578778663,
				"element": "C" 
			},
			{
				"x": -2.5575897673,
				"y": -0.7111964782,
				"z": -1.6472912619,
				"element": "C" 
			},
			{
				"x": -2.1099366256,
				"y": -1.506463136,
				"z": -2.8818110395,
				"element": "C" 
			},
			{
				"x": -1.6837169768,
				"y": -0.6246283798,
				"z": -4.0695556216,
				"element": "C" 
			},
			{
				"x": -0.3726064545,
				"y": 0.163092901,
				"z": -3.8831827703,
				"element": "C" 
			},
			{
				"x": 0.888664254,
				"y": -0.7134898219,
				"z": -3.8542086644,
				"element": "C" 
			},
			{
				"x": 2.1980970724,
				"y": 0.054592757,
				"z": -3.602934051,
				"element": "C" 
			},
			{
				"x": 2.5584581951,
				"y": 1.071492667,
				"z": -4.6929575736,
				"element": "C" 
			},
			{
				"x": -0.3289942171,
				"y": 1.1849214146,
				"z": 6.5016523558,
				"element": "H" 
			},
			{
				"x": 0.1806909269,
				"y": 2.600270939,
				"z": 7.4311884939,
				"element": "H" 
			},
			{
				"x": -1.3496359715,
				"y": 1.8054820674,
				"z": 7.8048778395,
				"element": "H" 
			},
			{
				"x": -1.7685547271,
				"y": 3.9101904987,
				"z": 6.4970385713,
				"element": "H" 
			},
			{
				"x": -2.3175523524,
				"y": 2.486692773,
				"z": 5.6316417694,
				"element": "H" 
			},
			{
				"x": -0.2261882745,
				"y": 2.5054464911,
				"z": 4.2516716975,
				"element": "H" 
			},
			{
				"x": -1.2267236831,
				"y": 3.9287648642,
				"z": 4.0431889683,
				"element": "H" 
			},
			{
				"x": 1.294023968,
				"y": 3.8433320689,
				"z": 5.7918478808,
				"element": "H" 
			},
			{
				"x": 0.2101894083,
				"y": 5.2075259706,
				"z": 5.626284146,
				"element": "H" 
			},
			{
				"x": 1.7996380406,
				"y": 5.8371741895,
				"z": 4.0906570493,
				"element": "H" 
			},
			{
				"x": 0.734065513,
				"y": 4.9631395774,
				"z": 3.0113906612,
				"element": "H" 
			},
			{
				"x": 3.1534933799,
				"y": 4.509130535,
				"z": 2.6495817078,
				"element": "H" 
			},
			{
				"x": 3.3128757791,
				"y": 3.8976883166,
				"z": 4.2869567382,
				"element": "H" 
			},
			{
				"x": 1.5367215556,
				"y": 2.616250434,
				"z": 2.1335147352,
				"element": "H" 
			},
			{
				"x": 1.8493149249,
				"y": 1.9545773998,
				"z": 3.7410632738,
				"element": "H" 
			},
			{
				"x": 3.9331922047,
				"y": 2.3757288179,
				"z": 1.5403671563,
				"element": "H" 
			},
			{
				"x": 4.2899375778,
				"y": 1.7639168005,
				"z": 3.1781701587,
				"element": "H" 
			},
			{
				"x": 3.2847569799,
				"y": -1.7863515391,
				"z": 0.8997037393,
				"element": "H" 
			},
			{
				"x": 2.355594028,
				"y": -1.3190409541,
				"z": -0.5418815817,
				"element": "H" 
			},
			{
				"x": 1.2722424417,
				"y": -1.4920553999,
				"z": 2.3295878763,
				"element": "H" 
			},
			{
				"x": 0.3374257413,
				"y": -0.9383957414,
				"z": 0.9406024968,
				"element": "H" 
			},
			{
				"x": 1.5750587762,
				"y": -3.7286047513,
				"z": 1.2086126702,
				"element": "H" 
			},
			{
				"x": 0.6444979081,
				"y": -3.1596227668,
				"z": -0.1713926768,
				"element": "H" 
			},
			{
				"x": -0.7017534512,
				"y": -4.5855604464,
				"z": 1.3697505938,
				"element": "H" 
			},
			{
				"x": -0.4387465081,
				"y": -3.4705701864,
				"z": 2.6956296129,
				"element": "H" 
			},
			{
				"x": -3.3357405041,
				"y": -0.9794120462,
				"z": 0.3728804362,
				"element": "H" 
			},
			{
				"x": -3.7139810393,
				"y": -2.314285714,
				"z": -0.7238434287,
				"element": "H" 
			},
			{
				"x": -3.4267894505,
				"y": -0.0906792465,
				"z": -1.9050504249,
				"element": "H" 
			},
			{
				"x": -1.7689986441,
				"y": -0.0207278865,
				"z": -1.3257908068,
				"element": "H" 
			},
			{
				"x": -1.2945907105,
				"y": -2.1815673546,
				"z": -2.59883316,
				"element": "H" 
			},
			{
				"x": -2.9398042743,
				"y": -2.1520037494,
				"z": -3.2006541901,
				"element": "H" 
			},
			{
				"x": -1.5860874041,
				"y": -1.2583236657,
				"z": -4.9614192107,
				"element": "H" 
			},
			{
				"x": -2.4964464232,
				"y": 0.0812004957,
				"z": -4.2905143486,
				"element": "H" 
			},
			{
				"x": -0.2911050575,
				"y": 0.8853745963,
				"z": -4.7044667582,
				"element": "H" 
			},
			{
				"x": -0.4177345792,
				"y": 0.7627643529,
				"z": -2.9638985235,
				"element": "H" 
			},
			{
				"x": 0.9635742253,
				"y": -1.2610917717,
				"z": -4.805613008,
				"element": "H" 
			},
			{
				"x": 0.7830503271,
				"y": -1.4788694412,
				"z": -3.0740325849,
				"element": "H" 
			},
			{
				"x": 2.1460468039,
				"y": 0.560432259,
				"z": -2.630152644,
				"element": "H" 
			},
			{
				"x": 3.0149908626,
				"y": -0.6751015616,
				"z": -3.5203729574,
				"element": "H" 
			},
			{
				"x": 2.6154205498,
				"y": 0.5942869421,
				"z": -5.6789619993,
				"element": "H" 
			},
			{
				"x": 1.8226359011,
				"y": 1.8795380952,
				"z": -4.7584804709,
				"element": "H" 
			},
			{
				"x": 3.5305312016,
				"y": 1.533274629,
				"z": -4.4909044057,
				"element": "H" 
			}
		],
		 "valence_orbital": [ 
			{
				"type": "occ",
				"energy": -0.29946,
				"method": "rhf"
			},
			{
				"type": "occ",
				"energy": -0.29459,
				"method": "rhf"
			},
			{
				"type": "occ",
				"energy": -0.29013,
				"method": "rhf"
			},
			{
				"type": "occ",
				"energy": -0.26733,
				"method": "rhf"
			},
			{
				"type": "occ",
				"energy": -0.26472,
				"method": "rhf"
			},
			{
				"type": "unocc",
				"energy": 0.01126,
				"method": "rhf"
			},
			{
				"type": "unocc",
				"energy": 0.01432,
				"method": "rhf"
			},
			{
				"type": "unocc",
				"energy": 0.06342,
				"method": "rhf"
			},
			{
				"type": "unocc",
				"energy": 0.08283,
				"method": "rhf"
			},
			{
				"type": "unocc",
				"energy": 0.09273,
				"method": "rhf"
			}
		],
		"cosmo_sigma_profile": { 
			"-0.025": 0.0,
			"-0.024": 0.0,
			"-0.023": 0.0,
			"-0.022": 0.0,
			"-0.021": 0.0,
			"-0.02": 0.0,
			"-0.019": 0.0,
			"-0.018": 0.0,
			"-0.017": 0.0,
			"-0.016": 0.0,
			"-0.015": 0.0,
			"-0.014": 0.0,
			"-0.013": 0.0,
			"-0.012": 0.0,
			"-0.011": 0.0,
			"-0.01": 0.0,
			"-0.009": 0.0,
			"-0.008": 0.0,
			"-0.007": 0.426145732823,
			"-0.006": 3.13100394954,
			"-0.005": 10.9917940089,
			"-0.004": 23.90118921,
			"-0.003": 49.5391396158,
			"-0.002": 88.2306435482,
			"-0.001": 92.7928086118,
			"0.0": 84.9286706912,
			"0.001": 70.7214628223,
			"0.002": 33.2387878877,
			"0.003": 9.44292290867,
			"0.004": 8.48959560816,
			"0.005": 8.29132498289,
			"0.006": 4.97223670396,
			"0.007": 4.42960180006,
			"0.008": 4.37038278819,
			"0.009": 4.26352122208,
			"0.01": 4.26257061153,
			"0.011": 4.597098925,
			"0.012": 6.60792977042,
			"0.013": 3.10809992425,
			"0.014": 0.168266458465,
			"0.015": 0.0,
			"0.016": 0.0,
			"0.017": 0.0,
			"0.018": 0.0,
			"0.019": 0.0,
			"0.02": 0.0,
			"0.021": 0.0,
			"0.022": 0.0,
			"0.023": 0.0,
			"0.024": 0.0,
			"0.025": 0.0
		}
	}
}
