{
	 "smiles": "COC1=C(C=O)C(C)=NN1C", 
	 "Tm": 329.15, 
	 "num_atms": 21, 
	 "gaussian": { 
		 "optdone": 1, 
		 "sigma_profile": "yes", 
		 "theory": "DFT", 
		 "functional": "B3LYP", 
		 "basiset": "6-31G**", 
		 "properties": { 
			 "R2extent": 1837.0931, 
			 "electric_dipole_moment_norm": 2.23328304073, 
			 "electric_quadrupole_moment_norm": 9.36353042981, 
			 "total_energy": -532.686502648, 
			 "HOMO_LUMO_gap": 0.19511, 
			 "cosmo_polarized_energy": -9.29, 
			 "cosmo_cavitation_energy": 24.77, 
			 "cosmo_dispersion_energy": -18.05, 
			 "cosmo_repulsion_energy": 1.46, 
			 "cosmo_total_nonelectrostatic_energy": 8.18, 
			 "SMD_solvation_energy": 5.41 
		},
		"coords": [
			{
				"x": -0.1035013607,
				"y": -2.1461948203,
				"z": -1.3186218508,
				"element": "C" 
			},
			{
				"x": 0.5330883609,
				"y": -1.4996129866,
				"z": -0.2022343032,
				"element": "O" 
			},
			{
				"x": 0.2982242814,
				"y": -0.2129124536,
				"z": 0.0693244833,
				"element": "C" 
			},
			{
				"x": -0.4771037372,
				"y": 0.8425645813,
				"z": -0.463225806,
				"element": "C" 
			},
			{
				"x": -1.380701529,
				"y": 0.932530779,
				"z": -1.5934675704,
				"element": "C" 
			},
			{
				"x": -1.6919276827,
				"y": 0.0541834988,
				"z": -2.3887745002,
				"element": "O" 
			},
			{
				"x": -0.1803854053,
				"y": 1.9429881254,
				"z": 0.4139002116,
				"element": "C" 
			},
			{
				"x": -0.7105006508,
				"y": 3.3440257654,
				"z": 0.3541361816,
				"element": "C" 
			},
			{
				"x": 0.6705840105,
				"y": 1.6061749288,
				"z": 1.3654768687,
				"element": "N" 
			},
			{
				"x": 0.9537347186,
				"y": 0.2816486254,
				"z": 1.1400060654,
				"element": "N" 
			},
			{
				"x": 1.8699782174,
				"y": -0.4347708444,
				"z": 2.0067867294,
				"element": "C" 
			},
			{
				"x": 0.1661735463,
				"y": -1.6599304738,
				"z": -2.2563813436,
				"element": "H" 
			},
			{
				"x": -1.1884726804,
				"y": -2.1262656556,
				"z": -1.2139929032,
				"element": "H" 
			},
			{
				"x": 0.2691333657,
				"y": -3.1708309051,
				"z": -1.2928773295,
				"element": "H" 
			},
			{
				"x": -1.8178214533,
				"y": 1.9486316066,
				"z": -1.7057678169,
				"element": "H" 
			},
			{
				"x": -1.8013588026,
				"y": 3.3699255297,
				"z": 0.4505599405,
				"element": "H" 
			},
			{
				"x": -0.4528485298,
				"y": 3.8357344404,
				"z": -0.5902002764,
				"element": "H" 
			},
			{
				"x": -0.2782703362,
				"y": 3.9228418089,
				"z": 1.1732131605,
				"element": "H" 
			},
			{
				"x": 1.3682429752,
				"y": -1.278914341,
				"z": 2.488371563,
				"element": "H" 
			},
			{
				"x": 2.7259729446,
				"y": -0.8112495394,
				"z": 1.4395493845,
				"element": "H" 
			},
			{
				"x": 2.2090597474,
				"y": 0.2733323302,
				"z": 2.7615191118,
				"element": "H" 
			}
		],
		 "valence_orbital": [ 
			{
				"type": "occ",
				"energy": -0.3411,
				"method": "rhf"
			},
			{
				"type": "occ",
				"energy": -0.29263,
				"method": "rhf"
			},
			{
				"type": "occ",
				"energy": -0.2484,
				"method": "rhf"
			},
			{
				"type": "occ",
				"energy": -0.24062,
				"method": "rhf"
			},
			{
				"type": "occ",
				"energy": -0.22746,
				"method": "rhf"
			},
			{
				"type": "unocc",
				"energy": -0.03235,
				"method": "rhf"
			},
			{
				"type": "unocc",
				"energy": 0.02883,
				"method": "rhf"
			},
			{
				"type": "unocc",
				"energy": 0.08707,
				"method": "rhf"
			},
			{
				"type": "unocc",
				"energy": 0.10549,
				"method": "rhf"
			},
			{
				"type": "unocc",
				"energy": 0.1156,
				"method": "rhf"
			}
		],
		"cosmo_sigma_profile": { 
			"-0.025": 0.0,
			"-0.024": 0.0,
			"-0.023": 0.0,
			"-0.022": 0.0,
			"-0.021": 0.0,
			"-0.02": 0.0,
			"-0.019": 0.0,
			"-0.018": 0.0,
			"-0.017": 0.0,
			"-0.016": 0.0,
			"-0.015": 0.0,
			"-0.014": 0.0,
			"-0.013": 0.0,
			"-0.012": 0.0,
			"-0.011": 0.0,
			"-0.01": 0.0,
			"-0.009": 0.0,
			"-0.008": 0.0,
			"-0.007": 1.83364244858,
			"-0.006": 8.89061266745,
			"-0.005": 20.7152699561,
			"-0.004": 22.6644405518,
			"-0.003": 24.521682466,
			"-0.002": 17.5218125276,
			"-0.001": 17.0852913435,
			"0.0": 15.0180103665,
			"0.001": 10.9056836405,
			"0.002": 10.1737919815,
			"0.003": 7.16971144216,
			"0.004": 6.40389851593,
			"0.005": 3.8648249452,
			"0.006": 5.26283142598,
			"0.007": 3.24259467316,
			"0.008": 3.10278745978,
			"0.009": 2.62549957221,
			"0.01": 2.80968406497,
			"0.011": 2.81239868763,
			"0.012": 3.34653165496,
			"0.013": 3.42357051849,
			"0.014": 2.08189782591,
			"0.015": 0.82554720923,
			"0.016": 0.0567451880256,
			"0.017": 0.0,
			"0.018": 0.0,
			"0.019": 0.0,
			"0.02": 0.0,
			"0.021": 0.0,
			"0.022": 0.0,
			"0.023": 0.0,
			"0.024": 0.0,
			"0.025": 0.0
		}
	}
}
