{
	 "smiles": "CC1=CC=CC(CO)=N1", 
	 "Tm": 306.15, 
	 "num_atms": 18, 
	 "gaussian": { 
		 "optdone": 1, 
		 "sigma_profile": "yes", 
		 "theory": "DFT", 
		 "functional": "B3LYP", 
		 "basiset": "6-31G**", 
		 "properties": { 
			 "R2extent": 1678.3768, 
			 "electric_dipole_moment_norm": 3.7572244716, 
			 "electric_quadrupole_moment_norm": 6.5209308722, 
			 "total_energy": -402.142992721, 
			 "HOMO_LUMO_gap": 0.21444, 
			 "cosmo_polarized_energy": -7.66, 
			 "cosmo_cavitation_energy": 21.25, 
			 "cosmo_dispersion_energy": -16.01, 
			 "cosmo_repulsion_energy": 1.33, 
			 "cosmo_total_nonelectrostatic_energy": 6.57, 
			 "SMD_solvation_energy": 3.02 
		},
		"coords": [
			{
				"x": -2.9640963221,
				"y": -1.6277043399,
				"z": 0.4742462027,
				"element": "C" 
			},
			{
				"x": -2.3841868365,
				"y": -0.3017193962,
				"z": 0.0484094443,
				"element": "C" 
			},
			{
				"x": -3.1500283004,
				"y": 0.6453227304,
				"z": -0.6412022554,
				"element": "C" 
			},
			{
				"x": -2.5614955411,
				"y": 1.8542134763,
				"z": -1.0101027831,
				"element": "C" 
			},
			{
				"x": -1.2285853317,
				"y": 2.0897369077,
				"z": -0.6841406303,
				"element": "C" 
			},
			{
				"x": -0.5320756322,
				"y": 1.0941054267,
				"z": 0.005491598,
				"element": "C" 
			},
			{
				"x": 0.926986171,
				"y": 1.2462420122,
				"z": 0.4115126184,
				"element": "C" 
			},
			{
				"x": 1.4097769219,
				"y": 0.1189947771,
				"z": 1.0927135753,
				"element": "O" 
			},
			{
				"x": -1.0982393467,
				"y": -0.0658649352,
				"z": 0.3589557481,
				"element": "N" 
			},
			{
				"x": -3.3191071048,
				"y": -2.2002933097,
				"z": -0.3899900792,
				"element": "H" 
			},
			{
				"x": -2.2056582224,
				"y": -2.2148838344,
				"z": 0.9943185535,
				"element": "H" 
			},
			{
				"x": -3.8200764359,
				"y": -1.4885843681,
				"z": 1.1441228911,
				"element": "H" 
			},
			{
				"x": -4.1875703618,
				"y": 0.4344186246,
				"z": -0.8821549777,
				"element": "H" 
			},
			{
				"x": -3.1375189537,
				"y": 2.603512598,
				"z": -1.5459912205,
				"element": "H" 
			},
			{
				"x": -0.7372932506,
				"y": 3.0197303746,
				"z": -0.9553496938,
				"element": "H" 
			},
			{
				"x": 1.5264982751,
				"y": 1.4351251274,
				"z": -0.4948001029,
				"element": "H" 
			},
			{
				"x": 1.0252467941,
				"y": 2.1476110136,
				"z": 1.039500876,
				"element": "H" 
			},
			{
				"x": 0.6500234777,
				"y": -0.4923628852,
				"z": 1.1282602356,
				"element": "H" 
			}
		],
		 "valence_orbital": [ 
			{
				"type": "occ",
				"energy": -0.31852,
				"method": "rhf"
			},
			{
				"type": "occ",
				"energy": -0.29174,
				"method": "rhf"
			},
			{
				"type": "occ",
				"energy": -0.27015,
				"method": "rhf"
			},
			{
				"type": "occ",
				"energy": -0.26441,
				"method": "rhf"
			},
			{
				"type": "occ",
				"energy": -0.24018,
				"method": "rhf"
			},
			{
				"type": "unocc",
				"energy": -0.02574,
				"method": "rhf"
			},
			{
				"type": "unocc",
				"energy": -0.01738,
				"method": "rhf"
			},
			{
				"type": "unocc",
				"energy": 0.09368,
				"method": "rhf"
			},
			{
				"type": "unocc",
				"energy": 0.11755,
				"method": "rhf"
			},
			{
				"type": "unocc",
				"energy": 0.11883,
				"method": "rhf"
			}
		],
		"cosmo_sigma_profile": { 
			"-0.025": 0.0,
			"-0.024": 0.0,
			"-0.023": 0.0,
			"-0.022": 0.0,
			"-0.021": 0.0,
			"-0.02": 0.0,
			"-0.019": 0.0,
			"-0.018": 0.0,
			"-0.017": 0.0,
			"-0.016": 0.0,
			"-0.015": 0.0,
			"-0.014": 0.0,
			"-0.013": 0.0,
			"-0.012": 0.0,
			"-0.011": 0.0,
			"-0.01": 0.0,
			"-0.009": 0.0,
			"-0.008": 0.0373037358457,
			"-0.007": 3.64579764236,
			"-0.006": 7.84618777986,
			"-0.005": 13.2603176237,
			"-0.004": 18.8094007049,
			"-0.003": 14.792603276,
			"-0.002": 15.0018904322,
			"-0.001": 14.9207473718,
			"0.0": 13.5471961337,
			"0.001": 11.1281357064,
			"0.002": 13.7722473749,
			"0.003": 14.3759633333,
			"0.004": 6.20936845592,
			"0.005": 3.07688033913,
			"0.006": 3.59412766744,
			"0.007": 1.9037430701,
			"0.008": 1.25606693478,
			"0.009": 1.52486985928,
			"0.01": 1.08945560476,
			"0.011": 0.966085111508,
			"0.012": 1.53116571542,
			"0.013": 1.70770272832,
			"0.014": 2.25296886877,
			"0.015": 1.94970462215,
			"0.016": 0.0203791775846,
			"0.017": 0.0,
			"0.018": 0.0,
			"0.019": 0.0,
			"0.02": 0.0,
			"0.021": 0.0,
			"0.022": 0.0,
			"0.023": 0.0,
			"0.024": 0.0,
			"0.025": 0.0
		}
	}
}
