{
	 "smiles": "COCC(=O)NC1=CC(N)=CC=C1", 
	 "Tm": 356.15, 
	 "num_atms": 25, 
	 "gaussian": { 
		 "optdone": 1, 
		 "sigma_profile": "yes", 
		 "theory": "DFT", 
		 "functional": "B3LYP", 
		 "basiset": "6-31G**", 
		 "properties": { 
			 "R2extent": 2915.3699, 
			 "electric_dipole_moment_norm": 4.74149258989, 
			 "electric_quadrupole_moment_norm": 14.453160253, 
			 "total_energy": -610.133179777, 
			 "HOMO_LUMO_gap": 0.19258, 
			 "cosmo_polarized_energy": -16.75, 
			 "cosmo_cavitation_energy": 28.85, 
			 "cosmo_dispersion_energy": -20.52, 
			 "cosmo_repulsion_energy": 1.65, 
			 "cosmo_total_nonelectrostatic_energy": 9.98, 
			 "SMD_solvation_energy": 6.2 
		},
		"coords": [
			{
				"x": 0.5081138916,
				"y": 0.7503089262,
				"z": 3.282062612,
				"element": "C" 
			},
			{
				"x": 0.2921219715,
				"y": 1.0518907439,
				"z": 1.9166725512,
				"element": "O" 
			},
			{
				"x": 1.4256609872,
				"y": 0.7559971712,
				"z": 1.1149281027,
				"element": "C" 
			},
			{
				"x": 1.2001544722,
				"y": 1.325408734,
				"z": -0.2865819872,
				"element": "C" 
			},
			{
				"x": 1.6130480233,
				"y": 2.4382819413,
				"z": -0.5819064297,
				"element": "O" 
			},
			{
				"x": 0.5636148638,
				"y": 0.5481382287,
				"z": -1.2293884292,
				"element": "N" 
			},
			{
				"x": 0.0047375393,
				"y": -0.7524601257,
				"z": -1.179196143,
				"element": "C" 
			},
			{
				"x": -0.6989594719,
				"y": -1.2107396728,
				"z": -0.0619037201,
				"element": "C" 
			},
			{
				"x": -1.2492906481,
				"y": -2.5040148555,
				"z": -0.0549848295,
				"element": "C" 
			},
			{
				"x": -1.9922754002,
				"y": -2.9387468996,
				"z": 1.0420413905,
				"element": "N" 
			},
			{
				"x": -1.1107336939,
				"y": -3.3176306481,
				"z": -1.192396605,
				"element": "C" 
			},
			{
				"x": -0.4315654888,
				"y": -2.837363908,
				"z": -2.3091920549,
				"element": "C" 
			},
			{
				"x": 0.1351882192,
				"y": -1.5650552009,
				"z": -2.3162048748,
				"element": "C" 
			},
			{
				"x": 0.7140900466,
				"y": -0.3208419706,
				"z": 3.4378803182,
				"element": "H" 
			},
			{
				"x": 1.3499741533,
				"y": 1.3264926056,
				"z": 3.693813894,
				"element": "H" 
			},
			{
				"x": -0.4039203655,
				"y": 1.0206208252,
				"z": 3.8190723712,
				"element": "H" 
			},
			{
				"x": 1.6136691592,
				"y": -0.3284750821,
				"z": 1.0877568704,
				"element": "H" 
			},
			{
				"x": 2.31721552,
				"y": 1.2647383431,
				"z": 1.5038969222,
				"element": "H" 
			},
			{
				"x": 0.5779737811,
				"y": 0.9922412173,
				"z": -2.1399348608,
				"element": "H" 
			},
			{
				"x": -0.8459196685,
				"y": -0.5503104683,
				"z": 0.7863363159,
				"element": "H" 
			},
			{
				"x": -2.076275111,
				"y": -3.9404692629,
				"z": 1.1414132066,
				"element": "H" 
			},
			{
				"x": -1.7846432343,
				"y": -2.4811865638,
				"z": 1.9182503449,
				"element": "H" 
			},
			{
				"x": -1.5470890163,
				"y": -4.3128689001,
				"z": -1.2005498471,
				"element": "H" 
			},
			{
				"x": -0.3316842189,
				"y": -3.4716048302,
				"z": -3.1855281599,
				"element": "H" 
			},
			{
				"x": 0.6867936889,
				"y": -1.2060503477,
				"z": -3.1797569583,
				"element": "H" 
			}
		],
		 "valence_orbital": [ 
			{
				"type": "occ",
				"energy": -0.28377,
				"method": "rhf"
			},
			{
				"type": "occ",
				"energy": -0.27113,
				"method": "rhf"
			},
			{
				"type": "occ",
				"energy": -0.24797,
				"method": "rhf"
			},
			{
				"type": "occ",
				"energy": -0.22611,
				"method": "rhf"
			},
			{
				"type": "occ",
				"energy": -0.20383,
				"method": "rhf"
			},
			{
				"type": "unocc",
				"energy": -0.01125,
				"method": "rhf"
			},
			{
				"type": "unocc",
				"energy": 0.00675,
				"method": "rhf"
			},
			{
				"type": "unocc",
				"energy": 0.02916,
				"method": "rhf"
			},
			{
				"type": "unocc",
				"energy": 0.07082,
				"method": "rhf"
			},
			{
				"type": "unocc",
				"energy": 0.09568,
				"method": "rhf"
			}
		],
		"cosmo_sigma_profile": { 
			"-0.025": 0.0,
			"-0.024": 0.0,
			"-0.023": 0.0,
			"-0.022": 0.0,
			"-0.021": 0.0,
			"-0.02": 0.0,
			"-0.019": 0.0,
			"-0.018": 0.0,
			"-0.017": 0.0,
			"-0.016": 0.0,
			"-0.015": 0.0260856001365,
			"-0.014": 0.571994363053,
			"-0.013": 1.33803910993,
			"-0.012": 2.8322100486,
			"-0.011": 3.16666756259,
			"-0.01": 3.98794151295,
			"-0.009": 4.22179015025,
			"-0.008": 4.76578068656,
			"-0.007": 3.22416327815,
			"-0.006": 8.0496469217,
			"-0.005": 18.9843881711,
			"-0.004": 22.705330063,
			"-0.003": 20.196876084,
			"-0.002": 16.9479333646,
			"-0.001": 12.9031287168,
			"0.0": 9.65201500191,
			"0.001": 7.63342437525,
			"0.002": 10.8011953384,
			"0.003": 10.3541761587,
			"0.004": 9.49477391663,
			"0.005": 10.6747791091,
			"0.006": 12.8337127737,
			"0.007": 5.98474792584,
			"0.008": 2.87700126358,
			"0.009": 2.87141612998,
			"0.01": 3.87935134126,
			"0.011": 3.32171864181,
			"0.012": 3.7845798095,
			"0.013": 6.47785530221,
			"0.014": 3.00208934472,
			"0.015": 0.230367442916,
			"0.016": 0.0,
			"0.017": 0.0,
			"0.018": 0.0,
			"0.019": 0.0,
			"0.02": 0.0,
			"0.021": 0.0,
			"0.022": 0.0,
			"0.023": 0.0,
			"0.024": 0.0,
			"0.025": 0.0
		}
	}
}
