{
	 "smiles": "CC1=NN(C(C)=C1C=O)C1=CC=C(Cl)C=C1", 
	 "Tm": 405.15, 
	 "num_atms": 27, 
	 "gaussian": { 
		 "optdone": 1, 
		 "sigma_profile": "yes", 
		 "theory": "DFT", 
		 "functional": "B3LYP", 
		 "basiset": "6-31G**", 
		 "properties": { 
			 "R2extent": 5705.2659, 
			 "electric_dipole_moment_norm": 1.13940083377, 
			 "electric_quadrupole_moment_norm": 16.7183788015, 
			 "total_energy": -1108.8155043, 
			 "HOMO_LUMO_gap": 0.18572, 
			 "cosmo_polarized_energy": -11.07, 
			 "cosmo_cavitation_energy": 33.11, 
			 "cosmo_dispersion_energy": -23.86, 
			 "cosmo_repulsion_energy": 1.85, 
			 "cosmo_total_nonelectrostatic_energy": 11.1, 
			 "SMD_solvation_energy": 5.64 
		},
		"coords": [
			{
				"x": -2.9398936495,
				"y": 1.6839903955,
				"z": 1.1990761015,
				"element": "C" 
			},
			{
				"x": -1.7825101586,
				"y": 0.7617190767,
				"z": 0.9646074098,
				"element": "C" 
			},
			{
				"x": -0.8828893632,
				"y": 1.0474851797,
				"z": 0.0390235111,
				"element": "N" 
			},
			{
				"x": 0.0197169585,
				"y": 0.0086705479,
				"z": 0.0729612644,
				"element": "N" 
			},
			{
				"x": -0.2898930963,
				"y": -0.9206443482,
				"z": 1.0210593713,
				"element": "C" 
			},
			{
				"x": 0.5274670614,
				"y": -2.1273294429,
				"z": 1.3507897308,
				"element": "C" 
			},
			{
				"x": -1.469110698,
				"y": -0.4684323667,
				"z": 1.6224194861,
				"element": "C" 
			},
			{
				"x": -2.2009616015,
				"y": -1.0922241924,
				"z": 2.7142727075,
				"element": "C" 
			},
			{
				"x": -1.8969909306,
				"y": -2.1380647439,
				"z": 3.2729123136,
				"element": "O" 
			},
			{
				"x": 1.1376842189,
				"y": 0.0703147611,
				"z": -0.8043000988,
				"element": "C" 
			},
			{
				"x": 1.6231693902,
				"y": -1.0755391963,
				"z": -1.4417294259,
				"element": "C" 
			},
			{
				"x": 2.7222341865,
				"y": -0.9868499654,
				"z": -2.2954750282,
				"element": "C" 
			},
			{
				"x": 3.3156190209,
				"y": 0.2534965289,
				"z": -2.5220580668,
				"element": "C" 
			},
			{
				"x": 4.6955932486,
				"y": 0.3683747569,
				"z": -3.6005931546,
				"element": "Cl" 
			},
			{
				"x": 2.822522553,
				"y": 1.4070050798,
				"z": -1.9098317897,
				"element": "C" 
			},
			{
				"x": 1.7341964519,
				"y": 1.313092199,
				"z": -1.0479490006,
				"element": "C" 
			},
			{
				"x": -2.8655553949,
				"y": 2.5398629933,
				"z": 0.5252433194,
				"element": "H" 
			},
			{
				"x": -2.955699269,
				"y": 2.0539619459,
				"z": 2.2299371955,
				"element": "H" 
			},
			{
				"x": -3.8960909238,
				"y": 1.181949324,
				"z": 1.0165517593,
				"element": "H" 
			},
			{
				"x": 1.5985604196,
				"y": -1.9262822956,
				"z": 1.2606806034,
				"element": "H" 
			},
			{
				"x": 0.2853177295,
				"y": -2.4405415031,
				"z": 2.3665057267,
				"element": "H" 
			},
			{
				"x": 0.2863693244,
				"y": -2.970214948,
				"z": 0.6920611458,
				"element": "H" 
			},
			{
				"x": -3.1048138884,
				"y": -0.5317482817,
				"z": 3.0386415542,
				"element": "H" 
			},
			{
				"x": 1.1362923595,
				"y": -2.0321728938,
				"z": -1.2970108722,
				"element": "H" 
			},
			{
				"x": 3.102366996,
				"y": -1.871955526,
				"z": -2.7927431549,
				"element": "H" 
			},
			{
				"x": 3.2898608026,
				"y": 2.3663274003,
				"z": -2.1013414485,
				"element": "H" 
			},
			{
				"x": 1.3307382524,
				"y": 2.1950495152,
				"z": -0.5656111601,
				"element": "H" 
			}
		],
		 "valence_orbital": [ 
			{
				"type": "occ",
				"energy": -0.28364,
				"method": "rhf"
			},
			{
				"type": "occ",
				"energy": -0.2783,
				"method": "rhf"
			},
			{
				"type": "occ",
				"energy": -0.25486,
				"method": "rhf"
			},
			{
				"type": "occ",
				"energy": -0.24797,
				"method": "rhf"
			},
			{
				"type": "occ",
				"energy": -0.23864,
				"method": "rhf"
			},
			{
				"type": "unocc",
				"energy": -0.05292,
				"method": "rhf"
			},
			{
				"type": "unocc",
				"energy": -0.0286,
				"method": "rhf"
			},
			{
				"type": "unocc",
				"energy": -0.0246,
				"method": "rhf"
			},
			{
				"type": "unocc",
				"energy": 0.01673,
				"method": "rhf"
			},
			{
				"type": "unocc",
				"energy": 0.02295,
				"method": "rhf"
			}
		],
		"cosmo_sigma_profile": { 
			"-0.025": 0.0,
			"-0.024": 0.0,
			"-0.023": 0.0,
			"-0.022": 0.0,
			"-0.021": 0.0,
			"-0.02": 0.0,
			"-0.019": 0.0,
			"-0.018": 0.0,
			"-0.017": 0.0,
			"-0.016": 0.0,
			"-0.015": 0.0,
			"-0.014": 0.0,
			"-0.013": 0.0,
			"-0.012": 0.0,
			"-0.011": 0.0,
			"-0.01": 0.0,
			"-0.009": 0.722064358643,
			"-0.008": 4.73446728607,
			"-0.007": 7.65385205622,
			"-0.006": 12.3860748611,
			"-0.005": 21.1423961541,
			"-0.004": 18.3890791059,
			"-0.003": 19.6801974267,
			"-0.002": 20.9685110693,
			"-0.001": 26.9091697138,
			"0.0": 20.4299212071,
			"0.001": 24.0142082027,
			"0.002": 26.1396495977,
			"0.003": 14.8368736465,
			"0.004": 14.1505109889,
			"0.005": 8.4503397972,
			"0.006": 3.49510687601,
			"0.007": 2.76204451471,
			"0.008": 3.46967830523,
			"0.009": 2.71363195176,
			"0.01": 2.74224653188,
			"0.011": 3.75930034111,
			"0.012": 4.37665637439,
			"0.013": 2.38248404621,
			"0.014": 1.03298028828,
			"0.015": 0.00192489149452,
			"0.016": 0.0,
			"0.017": 0.0,
			"0.018": 0.0,
			"0.019": 0.0,
			"0.02": 0.0,
			"0.021": 0.0,
			"0.022": 0.0,
			"0.023": 0.0,
			"0.024": 0.0,
			"0.025": 0.0
		}
	}
}
