{
	 "smiles": "CS(=O)(=O)N1CCNCC1", 
	 "Tm": 372.65, 
	 "num_atms": 22, 
	 "gaussian": { 
		 "optdone": 1, 
		 "sigma_profile": "yes", 
		 "theory": "DFT", 
		 "functional": "B3LYP", 
		 "basiset": "6-31G**", 
		 "properties": { 
			 "R2extent": 2123.6879, 
			 "electric_dipole_moment_norm": 5.27091015765, 
			 "electric_quadrupole_moment_norm": 16.9920647127, 
			 "total_energy": -855.814799204, 
			 "HOMO_LUMO_gap": 0.27947, 
			 "cosmo_polarized_energy": -17.02, 
			 "cosmo_cavitation_energy": 24.71, 
			 "cosmo_dispersion_energy": -18.79, 
			 "cosmo_repulsion_energy": 1.47, 
			 "cosmo_total_nonelectrostatic_energy": 7.38, 
			 "SMD_solvation_energy": 0.46 
		},
		"coords": [
			{
				"x": 1.9176709886,
				"y": -1.7036192257,
				"z": 1.5732149641,
				"element": "C" 
			},
			{
				"x": 0.938531659,
				"y": -2.3876803803,
				"z": 0.2128753637,
				"element": "S" 
			},
			{
				"x": -0.130401835,
				"y": -3.1853122434,
				"z": 0.8181531749,
				"element": "O" 
			},
			{
				"x": 1.8900709979,
				"y": -2.9573953446,
				"z": -0.7434527765,
				"element": "O" 
			},
			{
				"x": 0.2157661964,
				"y": -1.0890525103,
				"z": -0.5350974257,
				"element": "N" 
			},
			{
				"x": -1.057034476,
				"y": -0.543550546,
				"z": -0.0266666355,
				"element": "C" 
			},
			{
				"x": -0.9697996997,
				"y": 0.976625908,
				"z": 0.0983406384,
				"element": "C" 
			},
			{
				"x": -0.700972239,
				"y": 1.5852316512,
				"z": -1.2144118041,
				"element": "N" 
			},
			{
				"x": 0.0492417564,
				"y": 0.7257769612,
				"z": -2.1401124813,
				"element": "C" 
			},
			{
				"x": 1.0098972451,
				"y": -0.2478643866,
				"z": -1.4467143809,
				"element": "C" 
			},
			{
				"x": 2.4202990988,
				"y": -2.5400018117,
				"z": 2.0621763971,
				"element": "H" 
			},
			{
				"x": 1.2514663817,
				"y": -1.2032032756,
				"z": 2.2777347864,
				"element": "H" 
			},
			{
				"x": 2.657204269,
				"y": -1.0095126279,
				"z": 1.1704457104,
				"element": "H" 
			},
			{
				"x": -1.8735554819,
				"y": -0.8159958653,
				"z": -0.706768251,
				"element": "H" 
			},
			{
				"x": -1.2840428729,
				"y": -0.9990277414,
				"z": 0.9387800181,
				"element": "H" 
			},
			{
				"x": -0.1944411657,
				"y": 1.2165557161,
				"z": 0.8460689614,
				"element": "H" 
			},
			{
				"x": -1.9211267086,
				"y": 1.3568337156,
				"z": 0.4924675369,
				"element": "H" 
			},
			{
				"x": -0.2177964716,
				"y": 2.4676174138,
				"z": -1.0891134446,
				"element": "H" 
			},
			{
				"x": 0.6117616759,
				"y": 1.3584526618,
				"z": -2.8330359848,
				"element": "H" 
			},
			{
				"x": -0.6518713624,
				"y": 0.1402245784,
				"z": -2.7486188222,
				"element": "H" 
			},
			{
				"x": 1.7840871926,
				"y": 0.320530185,
				"z": -0.9050660274,
				"element": "H" 
			},
			{
				"x": 1.5115448514,
				"y": -0.8897328324,
				"z": -2.1747995175,
				"element": "H" 
			}
		],
		 "valence_orbital": [ 
			{
				"type": "occ",
				"energy": -0.30938,
				"method": "rhf"
			},
			{
				"type": "occ",
				"energy": -0.2962,
				"method": "rhf"
			},
			{
				"type": "occ",
				"energy": -0.29446,
				"method": "rhf"
			},
			{
				"type": "occ",
				"energy": -0.2495,
				"method": "rhf"
			},
			{
				"type": "occ",
				"energy": -0.22855,
				"method": "rhf"
			},
			{
				"type": "unocc",
				"energy": 0.05092,
				"method": "rhf"
			},
			{
				"type": "unocc",
				"energy": 0.07191,
				"method": "rhf"
			},
			{
				"type": "unocc",
				"energy": 0.08686,
				"method": "rhf"
			},
			{
				"type": "unocc",
				"energy": 0.09029,
				"method": "rhf"
			},
			{
				"type": "unocc",
				"energy": 0.09729,
				"method": "rhf"
			}
		],
		"cosmo_sigma_profile": { 
			"-0.025": 0.0,
			"-0.024": 0.0,
			"-0.023": 0.0,
			"-0.022": 0.0,
			"-0.021": 0.0,
			"-0.02": 0.0,
			"-0.019": 0.0,
			"-0.018": 0.0,
			"-0.017": 0.0,
			"-0.016": 0.0,
			"-0.015": 0.0,
			"-0.014": 0.0,
			"-0.013": 0.0,
			"-0.012": 0.0,
			"-0.011": 0.173690098205,
			"-0.01": 1.61932281615,
			"-0.009": 1.3482137334,
			"-0.008": 5.71683143061,
			"-0.007": 10.2737828073,
			"-0.006": 9.49337428504,
			"-0.005": 16.3615711873,
			"-0.004": 27.617671917,
			"-0.003": 26.2267535759,
			"-0.002": 14.6570891969,
			"-0.001": 9.79089583283,
			"0.0": 4.34066769762,
			"0.001": 4.79118631044,
			"0.002": 3.20571621685,
			"0.003": 3.66176967594,
			"0.004": 4.35648339187,
			"0.005": 5.79906112256,
			"0.006": 3.13284947242,
			"0.007": 2.94414479672,
			"0.008": 4.74693593957,
			"0.009": 3.77504503846,
			"0.01": 3.84107674939,
			"0.011": 10.5855185082,
			"0.012": 9.83982811664,
			"0.013": 1.82784573161,
			"0.014": 0.290082320166,
			"0.015": 0.605206100336,
			"0.016": 0.498752413651,
			"0.017": 0.417031210789,
			"0.018": 0.462266517066,
			"0.019": 0.0,
			"0.02": 0.0,
			"0.021": 0.0,
			"0.022": 0.0,
			"0.023": 0.0,
			"0.024": 0.0,
			"0.025": 0.0
		}
	}
}
