{
	 "smiles": "ClS(=O)(=O)C1=CC2=C(C=C1)C(=O)NC2=O", 
	 "Tm": 437.15, 
	 "num_atms": 19, 
	 "gaussian": { 
		 "optdone": 1, 
		 "sigma_profile": "yes", 
		 "theory": "DFT", 
		 "functional": "B3LYP", 
		 "basiset": "6-31G**", 
		 "properties": { 
			 "R2extent": 5713.3387, 
			 "electric_dipole_moment_norm": 3.20170500983, 
			 "electric_quadrupole_moment_norm": 10.800281725, 
			 "total_energy": -1521.24183491, 
			 "HOMO_LUMO_gap": 0.17158, 
			 "cosmo_polarized_energy": -16.16, 
			 "cosmo_cavitation_energy": 28.67, 
			 "cosmo_dispersion_energy": -21.36, 
			 "cosmo_repulsion_energy": 1.62, 
			 "cosmo_total_nonelectrostatic_energy": 8.94, 
			 "SMD_solvation_energy": 4.97 
		},
		"coords": [
			{
				"x": 3.5322215641,
				"y": -3.197278446,
				"z": -0.7179591225,
				"element": "Cl" 
			},
			{
				"x": 2.2767557248,
				"y": -2.1427590317,
				"z": 0.635614349,
				"element": "S" 
			},
			{
				"x": 1.7945552741,
				"y": -3.1219458848,
				"z": 1.6003548032,
				"element": "O" 
			},
			{
				"x": 3.004912298,
				"y": -0.9445980799,
				"z": 1.0288105228,
				"element": "O" 
			},
			{
				"x": 0.9255507522,
				"y": -1.6756371387,
				"z": -0.4498168137,
				"element": "C" 
			},
			{
				"x": 1.0090379741,
				"y": -0.4518813207,
				"z": -1.1232013521,
				"element": "C" 
			},
			{
				"x": -0.0700299886,
				"y": -0.1361108902,
				"z": -1.933851306,
				"element": "C" 
			},
			{
				"x": -1.168090405,
				"y": -0.9904214569,
				"z": -2.0613073547,
				"element": "C" 
			},
			{
				"x": -1.2419776979,
				"y": -2.1994997665,
				"z": -1.3837678393,
				"element": "C" 
			},
			{
				"x": -0.1658129385,
				"y": -2.5454500757,
				"z": -0.5592996251,
				"element": "C" 
			},
			{
				"x": -2.1528476774,
				"y": -0.3582389457,
				"z": -3.0001157674,
				"element": "C" 
			},
			{
				"x": -3.2262663882,
				"y": -0.7797586486,
				"z": -3.3698336352,
				"element": "O" 
			},
			{
				"x": -1.5599293001,
				"y": 0.854797372,
				"z": -3.3726241685,
				"element": "N" 
			},
			{
				"x": -0.3072985591,
				"y": 1.0768213805,
				"z": -2.7816927258,
				"element": "C" 
			},
			{
				"x": 0.4012064849,
				"y": 2.0449350708,
				"z": -2.9420086558,
				"element": "O" 
			},
			{
				"x": 1.8613398264,
				"y": 0.2087251283,
				"z": -1.0093965676,
				"element": "H" 
			},
			{
				"x": -2.1049240892,
				"y": -2.8483985372,
				"z": -1.4883872016,
				"element": "H" 
			},
			{
				"x": -0.1687278309,
				"y": -3.4723539166,
				"z": 0.0033539016,
				"element": "H" 
			},
			{
				"x": -1.9935750238,
				"y": 1.5099531877,
				"z": -4.0089714413,
				"element": "H" 
			}
		],
		 "valence_orbital": [ 
			{
				"type": "occ",
				"energy": -0.31854,
				"method": "rhf"
			},
			{
				"type": "occ",
				"energy": -0.31762,
				"method": "rhf"
			},
			{
				"type": "occ",
				"energy": -0.31344,
				"method": "rhf"
			},
			{
				"type": "occ",
				"energy": -0.30957,
				"method": "rhf"
			},
			{
				"type": "occ",
				"energy": -0.29193,
				"method": "rhf"
			},
			{
				"type": "unocc",
				"energy": -0.12035,
				"method": "rhf"
			},
			{
				"type": "unocc",
				"energy": -0.09387,
				"method": "rhf"
			},
			{
				"type": "unocc",
				"energy": -0.07331,
				"method": "rhf"
			},
			{
				"type": "unocc",
				"energy": -0.01807,
				"method": "rhf"
			},
			{
				"type": "unocc",
				"energy": 0.04383,
				"method": "rhf"
			}
		],
		"cosmo_sigma_profile": { 
			"-0.025": 0.0,
			"-0.024": 0.0,
			"-0.023": 0.0,
			"-0.022": 0.0,
			"-0.021": 0.0,
			"-0.02": 0.0,
			"-0.019": 0.0,
			"-0.018": 0.053054522696,
			"-0.017": 1.07701283931,
			"-0.016": 1.46040347522,
			"-0.015": 1.03825997285,
			"-0.014": 0.669006189351,
			"-0.013": 0.627844802167,
			"-0.012": 1.23058323114,
			"-0.011": 1.01636100635,
			"-0.01": 1.68133715802,
			"-0.009": 5.56221852233,
			"-0.008": 8.35008030827,
			"-0.007": 8.75790887029,
			"-0.006": 7.87187231205,
			"-0.005": 10.7105302826,
			"-0.004": 14.0672271071,
			"-0.003": 22.8101134635,
			"-0.002": 21.5451670683,
			"-0.001": 13.6616506139,
			"0.0": 9.11885893641,
			"0.001": 10.6338225813,
			"0.002": 13.1825518917,
			"0.003": 15.66950039,
			"0.004": 6.58766030733,
			"0.005": 5.91806966227,
			"0.006": 5.26990313739,
			"0.007": 11.0981660279,
			"0.008": 11.8211752497,
			"0.009": 6.44543058342,
			"0.01": 8.74443051757,
			"0.011": 7.41032031885,
			"0.012": 0.475417121726,
			"0.013": 0.0,
			"0.014": 0.0,
			"0.015": 0.0,
			"0.016": 0.0,
			"0.017": 0.0,
			"0.018": 0.0,
			"0.019": 0.0,
			"0.02": 0.0,
			"0.021": 0.0,
			"0.022": 0.0,
			"0.023": 0.0,
			"0.024": 0.0,
			"0.025": 0.0
		}
	}
}
