{
	 "smiles": "[O-][N+](=O)C1=CC(=CC=C1)C(=O)C(F)(F)F", 
	 "Tm": 327.15, 
	 "num_atms": 19, 
	 "gaussian": { 
		 "optdone": 1, 
		 "sigma_profile": "yes", 
		 "theory": "DFT", 
		 "functional": "B3LYP", 
		 "basiset": "6-31G**", 
		 "properties": { 
			 "R2extent": 3329.7253, 
			 "electric_dipole_moment_norm": 3.33570728032, 
			 "electric_quadrupole_moment_norm": 15.275525916, 
			 "total_energy": -887.094299913, 
			 "HOMO_LUMO_gap": 0.18682, 
			 "cosmo_polarized_energy": -9.44, 
			 "cosmo_cavitation_energy": 26.53, 
			 "cosmo_dispersion_energy": -18.65, 
			 "cosmo_repulsion_energy": 1.39, 
			 "cosmo_total_nonelectrostatic_energy": 9.26, 
			 "SMD_solvation_energy": 8.66 
		},
		"coords": [
			{
				"x": -2.7609765413,
				"y": -1.1606793546,
				"z": 2.6387225953,
				"element": "O" 
			},
			{
				"x": -1.9478457606,
				"y": -1.270155853,
				"z": 1.7232794197,
				"element": "N" 
			},
			{
				"x": -1.66406065,
				"y": -2.3200924981,
				"z": 1.1512582235,
				"element": "O" 
			},
			{
				"x": -1.25894701,
				"y": -0.0435554202,
				"z": 1.2767382499,
				"element": "C" 
			},
			{
				"x": -0.3341275985,
				"y": -0.1382471344,
				"z": 0.2429451191,
				"element": "C" 
			},
			{
				"x": 0.3173122565,
				"y": 1.0288829236,
				"z": -0.1776549927,
				"element": "C" 
			},
			{
				"x": 0.0245686105,
				"y": 2.2540230958,
				"z": 0.4476071798,
				"element": "C" 
			},
			{
				"x": -0.9059956063,
				"y": 2.3192002905,
				"z": 1.4803760018,
				"element": "C" 
			},
			{
				"x": -1.5598454489,
				"y": 1.1623953512,
				"z": 1.9061103468,
				"element": "C" 
			},
			{
				"x": 1.3260168563,
				"y": 1.0497405357,
				"z": -1.2745313239,
				"element": "C" 
			},
			{
				"x": 1.8896134882,
				"y": 2.0601819887,
				"z": -1.6388194011,
				"element": "O" 
			},
			{
				"x": 1.6724621156,
				"y": -0.2864195228,
				"z": -1.9855126326,
				"element": "C" 
			},
			{
				"x": 0.5657732808,
				"y": -0.8192630481,
				"z": -2.5478495148,
				"element": "F" 
			},
			{
				"x": 2.1533688062,
				"y": -1.1808129629,
				"z": -1.0946276294,
				"element": "F" 
			},
			{
				"x": 2.5845934449,
				"y": -0.1004388622,
				"z": -2.9357156846,
				"element": "F" 
			},
			{
				"x": -0.1471916783,
				"y": -1.1054737646,
				"z": -0.202462599,
				"element": "H" 
			},
			{
				"x": 0.5429973493,
				"y": 3.1422361462,
				"z": 0.1027245177,
				"element": "H" 
			},
			{
				"x": -1.1256125207,
				"y": 3.2687878291,
				"z": 1.9570485903,
				"element": "H" 
			},
			{
				"x": -2.2895033937,
				"y": 1.1752902601,
				"z": 2.7062635344,
				"element": "H" 
			}
		],
		 "valence_orbital": [ 
			{
				"type": "occ",
				"energy": -0.32331,
				"method": "rhf"
			},
			{
				"type": "occ",
				"energy": -0.3071,
				"method": "rhf"
			},
			{
				"type": "occ",
				"energy": -0.30397,
				"method": "rhf"
			},
			{
				"type": "occ",
				"energy": -0.30225,
				"method": "rhf"
			},
			{
				"type": "occ",
				"energy": -0.29723,
				"method": "rhf"
			},
			{
				"type": "unocc",
				"energy": -0.11041,
				"method": "rhf"
			},
			{
				"type": "unocc",
				"energy": -0.09729,
				"method": "rhf"
			},
			{
				"type": "unocc",
				"energy": -0.03113,
				"method": "rhf"
			},
			{
				"type": "unocc",
				"energy": 0.00305,
				"method": "rhf"
			},
			{
				"type": "unocc",
				"energy": 0.06986,
				"method": "rhf"
			}
		],
		"cosmo_sigma_profile": { 
			"-0.025": 0.0,
			"-0.024": 0.0,
			"-0.023": 0.0,
			"-0.022": 0.0,
			"-0.021": 0.0,
			"-0.02": 0.0,
			"-0.019": 0.0,
			"-0.018": 0.0,
			"-0.017": 0.0,
			"-0.016": 0.0,
			"-0.015": 0.0,
			"-0.014": 0.0,
			"-0.013": 0.0,
			"-0.012": 0.0,
			"-0.011": 0.0,
			"-0.01": 0.0,
			"-0.009": 1.17747953655,
			"-0.008": 6.02424190378,
			"-0.007": 9.28778418059,
			"-0.006": 9.33545080968,
			"-0.005": 10.3332060026,
			"-0.004": 12.3476611816,
			"-0.003": 15.7015089921,
			"-0.002": 21.3411529964,
			"-0.001": 20.3902520119,
			"0.0": 17.03916071,
			"0.001": 21.5488580785,
			"0.002": 20.3347147692,
			"0.003": 3.93528600135,
			"0.004": 5.14054243202,
			"0.005": 5.68441360094,
			"0.006": 6.6008415512,
			"0.007": 11.2632949851,
			"0.008": 7.98624510222,
			"0.009": 7.4093831955,
			"0.01": 1.70791713765,
			"0.011": 0.0,
			"0.012": 0.0,
			"0.013": 0.0,
			"0.014": 0.0,
			"0.015": 0.0,
			"0.016": 0.0,
			"0.017": 0.0,
			"0.018": 0.0,
			"0.019": 0.0,
			"0.02": 0.0,
			"0.021": 0.0,
			"0.022": 0.0,
			"0.023": 0.0,
			"0.024": 0.0,
			"0.025": 0.0
		}
	}
}
