{
	 "smiles": "CC(C)NC(=O)C1=C(N)C=C(Cl)C=C1", 
	 "Tm": 432.15, 
	 "num_atms": 27, 
	 "gaussian": { 
		 "optdone": 1, 
		 "sigma_profile": "yes", 
		 "theory": "DFT", 
		 "functional": "B3LYP", 
		 "basiset": "6-31G**", 
		 "properties": { 
			 "R2extent": 5489.5566, 
			 "electric_dipole_moment_norm": 2.03805143458, 
			 "electric_quadrupole_moment_norm": 15.3660034039, 
			 "total_energy": -1033.85851565, 
			 "HOMO_LUMO_gap": 0.17147, 
			 "cosmo_polarized_energy": -11.77, 
			 "cosmo_cavitation_energy": 31.42, 
			 "cosmo_dispersion_energy": -23.19, 
			 "cosmo_repulsion_energy": 1.85, 
			 "cosmo_total_nonelectrostatic_energy": 10.07, 
			 "SMD_solvation_energy": 5.02 
		},
		"coords": [
			{
				"x": -1.6409604876,
				"y": -2.2215945345,
				"z": 3.2303413831,
				"element": "C" 
			},
			{
				"x": -1.1299438275,
				"y": -0.8156207105,
				"z": 2.881220686,
				"element": "C" 
			},
			{
				"x": -2.2630774901,
				"y": 0.1342830125,
				"z": 2.4716569229,
				"element": "C" 
			},
			{
				"x": -0.0596777941,
				"y": -0.8509788933,
				"z": 1.8666094739,
				"element": "N" 
			},
			{
				"x": -0.2212826796,
				"y": -1.2966563075,
				"z": 0.5858562933,
				"element": "C" 
			},
			{
				"x": -1.3212558357,
				"y": -1.6966565166,
				"z": 0.1721613711,
				"element": "O" 
			},
			{
				"x": 0.9961088388,
				"y": -1.2698817445,
				"z": -0.2828607488,
				"element": "C" 
			},
			{
				"x": 1.071280025,
				"y": -2.1176131822,
				"z": -1.4280776365,
				"element": "C" 
			},
			{
				"x": 0.0623172411,
				"y": -2.987534565,
				"z": -1.7444875757,
				"element": "N" 
			},
			{
				"x": 2.2420866701,
				"y": -2.0833168762,
				"z": -2.2179173376,
				"element": "C" 
			},
			{
				"x": 3.2772198598,
				"y": -1.2204654111,
				"z": -1.9003736548,
				"element": "C" 
			},
			{
				"x": 4.711131644,
				"y": -1.2025703411,
				"z": -2.9184826293,
				"element": "Cl" 
			},
			{
				"x": 3.2098224912,
				"y": -0.3533399318,
				"z": -0.8062766232,
				"element": "C" 
			},
			{
				"x": 2.0650451161,
				"y": -0.3980325008,
				"z": -0.0205587525,
				"element": "C" 
			},
			{
				"x": -0.8184240691,
				"y": -2.8654388927,
				"z": 3.5580786043,
				"element": "H" 
			},
			{
				"x": -2.3733570069,
				"y": -2.1647091524,
				"z": 4.0424709561,
				"element": "H" 
			},
			{
				"x": -2.1158192734,
				"y": -2.6790670069,
				"z": 2.3603590853,
				"element": "H" 
			},
			{
				"x": -0.6451911138,
				"y": -0.3968481617,
				"z": 3.7715876672,
				"element": "H" 
			},
			{
				"x": -1.8722563759,
				"y": 1.1342728429,
				"z": 2.2602539722,
				"element": "H" 
			},
			{
				"x": -2.992306256,
				"y": 0.2154091961,
				"z": 3.2843123762,
				"element": "H" 
			},
			{
				"x": -2.7708267331,
				"y": -0.2372234806,
				"z": 1.5799496798,
				"element": "H" 
			},
			{
				"x": 0.8859240414,
				"y": -0.7502440433,
				"z": 2.200131559,
				"element": "H" 
			},
			{
				"x": 0.0674382692,
				"y": -3.392043695,
				"z": -2.6674551481,
				"element": "H" 
			},
			{
				"x": -0.8344763016,
				"y": -2.7805104842,
				"z": -1.3166554677,
				"element": "H" 
			},
			{
				"x": 2.3235422997,
				"y": -2.73526688,
				"z": -3.0814116385,
				"element": "H" 
			},
			{
				"x": 4.0180179454,
				"y": 0.3347614979,
				"z": -0.5917299866,
				"element": "H" 
			},
			{
				"x": 1.9845208026,
				"y": 0.3020867625,
				"z": 0.8057971688,
				"element": "H" 
			}
		],
		 "valence_orbital": [ 
			{
				"type": "occ",
				"energy": -0.30629,
				"method": "rhf"
			},
			{
				"type": "occ",
				"energy": -0.26165,
				"method": "rhf"
			},
			{
				"type": "occ",
				"energy": -0.252,
				"method": "rhf"
			},
			{
				"type": "occ",
				"energy": -0.24776,
				"method": "rhf"
			},
			{
				"type": "occ",
				"energy": -0.20842,
				"method": "rhf"
			},
			{
				"type": "unocc",
				"energy": -0.03695,
				"method": "rhf"
			},
			{
				"type": "unocc",
				"energy": 0.00243,
				"method": "rhf"
			},
			{
				"type": "unocc",
				"energy": 0.03072,
				"method": "rhf"
			},
			{
				"type": "unocc",
				"energy": 0.05139,
				"method": "rhf"
			},
			{
				"type": "unocc",
				"energy": 0.07091,
				"method": "rhf"
			}
		],
		"cosmo_sigma_profile": { 
			"-0.025": 0.0,
			"-0.024": 0.0,
			"-0.023": 0.0,
			"-0.022": 0.0,
			"-0.021": 0.0,
			"-0.02": 0.0,
			"-0.019": 0.0,
			"-0.018": 0.0,
			"-0.017": 0.0,
			"-0.016": 0.0,
			"-0.015": 0.0,
			"-0.014": 0.771060018783,
			"-0.013": 2.44596749175,
			"-0.012": 2.66043762228,
			"-0.011": 2.63035331139,
			"-0.01": 3.07054128064,
			"-0.009": 3.32867207822,
			"-0.008": 3.87461775921,
			"-0.007": 5.79825807217,
			"-0.006": 7.21993718623,
			"-0.005": 7.73721144085,
			"-0.004": 9.00145696391,
			"-0.003": 17.3046769168,
			"-0.002": 17.4629302109,
			"-0.001": 18.5216761438,
			"0.0": 21.6457055093,
			"0.001": 26.8276955954,
			"0.002": 24.3403174395,
			"0.003": 22.068925292,
			"0.004": 24.2243313703,
			"0.005": 11.6493215286,
			"0.006": 3.07706951973,
			"0.007": 2.29510743808,
			"0.008": 3.41692982867,
			"0.009": 2.08671241408,
			"0.01": 2.02438157364,
			"0.011": 2.18962792503,
			"0.012": 1.69061884768,
			"0.013": 1.07873041616,
			"0.014": 0.0,
			"0.015": 0.0,
			"0.016": 0.0,
			"0.017": 0.0,
			"0.018": 0.0,
			"0.019": 0.0,
			"0.02": 0.0,
			"0.021": 0.0,
			"0.022": 0.0,
			"0.023": 0.0,
			"0.024": 0.0,
			"0.025": 0.0
		}
	}
}
