{
	 "smiles": "COC1=CC(=C(C=O)C=C1)[N+]([O-])=O", 
	 "Tm": 365.15, 
	 "num_atms": 20, 
	 "gaussian": { 
		 "optdone": 1, 
		 "sigma_profile": "yes", 
		 "theory": "DFT", 
		 "functional": "B3LYP", 
		 "basiset": "6-31G**", 
		 "properties": { 
			 "R2extent": 2887.5875, 
			 "electric_dipole_moment_norm": 6.25772806216, 
			 "electric_quadrupole_moment_norm": 16.4150683773, 
			 "total_energy": -664.586219896, 
			 "HOMO_LUMO_gap": 0.15547, 
			 "cosmo_polarized_energy": -12.27, 
			 "cosmo_cavitation_energy": 25.49, 
			 "cosmo_dispersion_energy": -18.67, 
			 "cosmo_repulsion_energy": 1.46, 
			 "cosmo_total_nonelectrostatic_energy": 8.28, 
			 "SMD_solvation_energy": 8.48 
		},
		"coords": [
			{
				"x": 0.2677125518,
				"y": 3.5932394151,
				"z": 1.8774768187,
				"element": "C" 
			},
			{
				"x": 0.7438832536,
				"y": 2.2633976083,
				"z": 1.6906072199,
				"element": "O" 
			},
			{
				"x": 0.4456395362,
				"y": 1.6229382061,
				"z": 0.5376595627,
				"element": "C" 
			},
			{
				"x": 0.9563658076,
				"y": 0.321124833,
				"z": 0.4204363695,
				"element": "C" 
			},
			{
				"x": 0.7151381274,
				"y": -0.4070848288,
				"z": -0.732802749,
				"element": "C" 
			},
			{
				"x": -0.0556904892,
				"y": 0.0979530673,
				"z": -1.8011318197,
				"element": "C" 
			},
			{
				"x": -0.46493529,
				"y": -0.6409945608,
				"z": -3.0347052544,
				"element": "C" 
			},
			{
				"x": -1.0657050054,
				"y": -0.0909689105,
				"z": -3.9400257519,
				"element": "O" 
			},
			{
				"x": -0.5567700116,
				"y": 1.3970970901,
				"z": -1.6455051133,
				"element": "C" 
			},
			{
				"x": -0.3135197126,
				"y": 2.1638795848,
				"z": -0.5111753863,
				"element": "C" 
			},
			{
				"x": 1.3496027087,
				"y": -1.7407360652,
				"z": -0.7946746296,
				"element": "N" 
			},
			{
				"x": 1.5842272986,
				"y": -2.3080808589,
				"z": 0.2692705558,
				"element": "O" 
			},
			{
				"x": 1.6246219301,
				"y": -2.1916256482,
				"z": -1.9069747744,
				"element": "O" 
			},
			{
				"x": -0.8279468904,
				"y": 3.6313000535,
				"z": 1.8624600834,
				"element": "H" 
			},
			{
				"x": 0.6678219935,
				"y": 4.2718742153,
				"z": 1.1149117102,
				"element": "H" 
			},
			{
				"x": 0.6265846752,
				"y": 3.9009162811,
				"z": 2.8597226929,
				"element": "H" 
			},
			{
				"x": 1.5434937695,
				"y": -0.1037249838,
				"z": 1.2240779983,
				"element": "H" 
			},
			{
				"x": -0.2218964672,
				"y": -1.7125761173,
				"z": -3.0780992969,
				"element": "H" 
			},
			{
				"x": -1.1613102308,
				"y": 1.7892552312,
				"z": -2.4568816439,
				"element": "H" 
			},
			{
				"x": -0.719317555,
				"y": 3.1661163876,
				"z": -0.447046592,
				"element": "H" 
			}
		],
		 "valence_orbital": [ 
			{
				"type": "occ",
				"energy": -0.31693,
				"method": "rhf"
			},
			{
				"type": "occ",
				"energy": -0.30847,
				"method": "rhf"
			},
			{
				"type": "occ",
				"energy": -0.28763,
				"method": "rhf"
			},
			{
				"type": "occ",
				"energy": -0.26044,
				"method": "rhf"
			},
			{
				"type": "occ",
				"energy": -0.25563,
				"method": "rhf"
			},
			{
				"type": "unocc",
				"energy": -0.10016,
				"method": "rhf"
			},
			{
				"type": "unocc",
				"energy": -0.06373,
				"method": "rhf"
			},
			{
				"type": "unocc",
				"energy": -0.01829,
				"method": "rhf"
			},
			{
				"type": "unocc",
				"energy": 0.02826,
				"method": "rhf"
			},
			{
				"type": "unocc",
				"energy": 0.07196,
				"method": "rhf"
			}
		],
		"cosmo_sigma_profile": { 
			"-0.025": 0.0,
			"-0.024": 0.0,
			"-0.023": 0.0,
			"-0.022": 0.0,
			"-0.021": 0.0,
			"-0.02": 0.0,
			"-0.019": 0.0,
			"-0.018": 0.0,
			"-0.017": 0.0,
			"-0.016": 0.0,
			"-0.015": 0.0,
			"-0.014": 0.0,
			"-0.013": 0.0,
			"-0.012": 0.0,
			"-0.011": 0.0587999797537,
			"-0.01": 0.640084784221,
			"-0.009": 1.08472336015,
			"-0.008": 5.04508130211,
			"-0.007": 11.3411852667,
			"-0.006": 15.6568330741,
			"-0.005": 15.3528083425,
			"-0.004": 14.7803629034,
			"-0.003": 12.2276283687,
			"-0.002": 12.5311530098,
			"-0.001": 17.4908559447,
			"0.0": 18.2854064933,
			"0.001": 12.4992126629,
			"0.002": 7.9009146121,
			"0.003": 5.64602701898,
			"0.004": 5.50836620922,
			"0.005": 6.48365628275,
			"0.006": 7.86351331787,
			"0.007": 11.0385065575,
			"0.008": 7.69752781499,
			"0.009": 6.02687432829,
			"0.01": 3.55385324345,
			"0.011": 3.80572311362,
			"0.012": 1.83595310294,
			"0.013": 0.340964678152,
			"0.014": 0.0,
			"0.015": 0.0,
			"0.016": 0.0,
			"0.017": 0.0,
			"0.018": 0.0,
			"0.019": 0.0,
			"0.02": 0.0,
			"0.021": 0.0,
			"0.022": 0.0,
			"0.023": 0.0,
			"0.024": 0.0,
			"0.025": 0.0
		}
	}
}
