{
	 "smiles": "COC1=CC=C(C=C1)C1=NN(C=C1C=CC(O)=O)C1=CC=CC=C1", 
	 "Tm": 512.15, 
	 "num_atms": 40, 
	 "gaussian": { 
		 "optdone": 1, 
		 "sigma_profile": "yes", 
		 "theory": "DFT", 
		 "functional": "B3LYP", 
		 "basiset": "6-31G**", 
		 "properties": { 
			 "R2extent": 11955.9994, 
			 "electric_dipole_moment_norm": 6.74511065069, 
			 "electric_quadrupole_moment_norm": 49.891915838, 
			 "total_energy": -1068.80500967, 
			 "HOMO_LUMO_gap": 0.15206, 
			 "cosmo_polarized_energy": -23.82, 
			 "cosmo_cavitation_energy": 45.6, 
			 "cosmo_dispersion_energy": -32.12, 
			 "cosmo_repulsion_energy": 2.42, 
			 "cosmo_total_nonelectrostatic_energy": 15.91, 
			 "SMD_solvation_energy": 9.07 
		},
		"coords": [
			{
				"x": 5.087697597,
				"y": -2.1419171137,
				"z": 0.2939860788,
				"element": "C" 
			},
			{
				"x": 4.0612801702,
				"y": -2.1469889603,
				"z": 1.2742049707,
				"element": "O" 
			},
			{
				"x": 2.9214468426,
				"y": -1.4451948754,
				"z": 1.0214823533,
				"element": "C" 
			},
			{
				"x": 2.6784143549,
				"y": -0.7109370539,
				"z": -0.1461570844,
				"element": "C" 
			},
			{
				"x": 1.4714498108,
				"y": -0.0263233674,
				"z": -0.2919338202,
				"element": "C" 
			},
			{
				"x": 0.4922816695,
				"y": -0.0496131599,
				"z": 0.708829612,
				"element": "C" 
			},
			{
				"x": 0.7476592099,
				"y": -0.803696874,
				"z": 1.8691945135,
				"element": "C" 
			},
			{
				"x": 1.9435640545,
				"y": -1.488674408,
				"z": 2.0277837257,
				"element": "C" 
			},
			{
				"x": -0.7941656907,
				"y": 0.6428873472,
				"z": 0.4994408515,
				"element": "C" 
			},
			{
				"x": -1.3927730662,
				"y": 0.5324955081,
				"z": -0.6851818466,
				"element": "N" 
			},
			{
				"x": -2.5553686319,
				"y": 1.232464359,
				"z": -0.5882157887,
				"element": "N" 
			},
			{
				"x": -2.7031458276,
				"y": 1.7831297007,
				"z": 0.6423466654,
				"element": "C" 
			},
			{
				"x": -1.585352086,
				"y": 1.4481702208,
				"z": 1.3959017795,
				"element": "C" 
			},
			{
				"x": -1.3636976736,
				"y": 1.9659777728,
				"z": 2.734025781,
				"element": "C" 
			},
			{
				"x": -0.2436599528,
				"y": 1.9376423614,
				"z": 3.4847007009,
				"element": "C" 
			},
			{
				"x": -0.150073706,
				"y": 2.4773420578,
				"z": 4.8634461409,
				"element": "C" 
			},
			{
				"x": -1.0443463576,
				"y": 3.4464105881,
				"z": 5.2244453609,
				"element": "O" 
			},
			{
				"x": 0.6676576192,
				"y": 2.0865083571,
				"z": 5.6647634466,
				"element": "O" 
			},
			{
				"x": -3.4343694134,
				"y": 1.3120267312,
				"z": -1.7012295909,
				"element": "C" 
			},
			{
				"x": -2.9388901481,
				"y": 1.0541252987,
				"z": -2.9842083917,
				"element": "C" 
			},
			{
				"x": -3.7955628154,
				"y": 1.1428630347,
				"z": -4.0790570507,
				"element": "C" 
			},
			{
				"x": -5.1371306885,
				"y": 1.4918231915,
				"z": -3.9077617149,
				"element": "C" 
			},
			{
				"x": -5.6235584841,
				"y": 1.7411143507,
				"z": -2.6236322066,
				"element": "C" 
			},
			{
				"x": -4.7811038092,
				"y": 1.6450346936,
				"z": -1.5168207277,
				"element": "C" 
			},
			{
				"x": 4.7449024576,
				"y": -2.5769233942,
				"z": -0.6536086417,
				"element": "H" 
			},
			{
				"x": 5.4645518673,
				"y": -1.12804813,
				"z": 0.1079305218,
				"element": "H" 
			},
			{
				"x": 5.8937740552,
				"y": -2.7551720313,
				"z": 0.699349439,
				"element": "H" 
			},
			{
				"x": 3.4151125147,
				"y": -0.6622739988,
				"z": -0.9391243302,
				"element": "H" 
			},
			{
				"x": 1.2834518799,
				"y": 0.5392780246,
				"z": -1.1987240063,
				"element": "H" 
			},
			{
				"x": -0.0052415136,
				"y": -0.8651912229,
				"z": 2.6485515906,
				"element": "H" 
			},
			{
				"x": 2.1431339084,
				"y": -2.0723802109,
				"z": 2.9201422209,
				"element": "H" 
			},
			{
				"x": -3.5459199125,
				"y": 2.40847084,
				"z": 0.8954259703,
				"element": "H" 
			},
			{
				"x": -2.2483548814,
				"y": 2.4464302563,
				"z": 3.1563765234,
				"element": "H" 
			},
			{
				"x": 0.6542470381,
				"y": 1.432640558,
				"z": 3.1506357468,
				"element": "H" 
			},
			{
				"x": -1.4833700711,
				"y": 3.7914640654,
				"z": 4.4350431869,
				"element": "H" 
			},
			{
				"x": -1.8965928929,
				"y": 0.7850580216,
				"z": -3.1006856248,
				"element": "H" 
			},
			{
				"x": -3.4080557965,
				"y": 0.9419806229,
				"z": -5.0734171714,
				"element": "H" 
			},
			{
				"x": -5.798553516,
				"y": 1.5624149676,
				"z": -4.7656455782,
				"element": "H" 
			},
			{
				"x": -6.6678578238,
				"y": 1.9991169226,
				"z": -2.4754196894,
				"element": "H" 
			},
			{
				"x": -5.178780291,
				"y": 1.805664948,
				"z": -0.5204839158,
				"element": "H" 
			}
		],
		 "valence_orbital": [ 
			{
				"type": "occ",
				"energy": -0.26337,
				"method": "rhf"
			},
			{
				"type": "occ",
				"energy": -0.25606,
				"method": "rhf"
			},
			{
				"type": "occ",
				"energy": -0.25437,
				"method": "rhf"
			},
			{
				"type": "occ",
				"energy": -0.23355,
				"method": "rhf"
			},
			{
				"type": "occ",
				"energy": -0.21076,
				"method": "rhf"
			},
			{
				"type": "unocc",
				"energy": -0.0587,
				"method": "rhf"
			},
			{
				"type": "unocc",
				"energy": -0.03636,
				"method": "rhf"
			},
			{
				"type": "unocc",
				"energy": -0.01747,
				"method": "rhf"
			},
			{
				"type": "unocc",
				"energy": -0.00535,
				"method": "rhf"
			},
			{
				"type": "unocc",
				"energy": 0.00517,
				"method": "rhf"
			}
		],
		"cosmo_sigma_profile": { 
			"-0.025": 0.0,
			"-0.024": 0.0,
			"-0.023": 0.0,
			"-0.022": 0.0,
			"-0.021": 0.0,
			"-0.02": 0.0,
			"-0.019": 0.0894167613565,
			"-0.018": 0.735943639219,
			"-0.017": 0.873797516207,
			"-0.016": 1.28026514804,
			"-0.015": 1.03739738903,
			"-0.014": 0.582739853286,
			"-0.013": 0.713429243836,
			"-0.012": 1.68226357993,
			"-0.011": 1.77509956572,
			"-0.01": 5.11461896208,
			"-0.009": 3.80218582914,
			"-0.008": 3.97413373374,
			"-0.007": 5.87846936117,
			"-0.006": 19.4569960098,
			"-0.005": 28.9554362629,
			"-0.004": 27.4527354537,
			"-0.003": 26.2043502804,
			"-0.002": 22.1004901249,
			"-0.001": 22.096528913,
			"0.0": 23.326227473,
			"0.001": 27.4382452067,
			"0.002": 25.3473620751,
			"0.003": 26.5888286959,
			"0.004": 25.4124729446,
			"0.005": 17.4296626851,
			"0.006": 6.56460037132,
			"0.007": 5.02752635748,
			"0.008": 5.04953517382,
			"0.009": 5.60115548581,
			"0.01": 5.63122057998,
			"0.011": 6.8205155973,
			"0.012": 6.51615825594,
			"0.013": 4.56552245415,
			"0.014": 0.869136854221,
			"0.015": 0.0,
			"0.016": 0.0,
			"0.017": 0.0,
			"0.018": 0.0,
			"0.019": 0.0,
			"0.02": 0.0,
			"0.021": 0.0,
			"0.022": 0.0,
			"0.023": 0.0,
			"0.024": 0.0,
			"0.0": 0.0
		}
	}
}
