{
	 "smiles": "CC1=CC2=C(C=C1)C=CC(C)=C2", 
	 "Tm": 370.15, 
	 "num_atms": 24, 
	 "gaussian": { 
		 "optdone": 1, 
		 "sigma_profile": "yes", 
		 "theory": "DFT", 
		 "functional": "B3LYP", 
		 "basiset": "6-31G**", 
		 "properties": { 
			 "R2extent": 2790.3433, 
			 "electric_dipole_moment_norm": 0.172107785995, 
			 "electric_quadrupole_moment_norm": 7.55424517473, 
			 "total_energy": -464.537550009, 
			 "HOMO_LUMO_gap": 0.17802, 
			 "cosmo_polarized_energy": -4.52, 
			 "cosmo_cavitation_energy": 26.81, 
			 "cosmo_dispersion_energy": -19.82, 
			 "cosmo_repulsion_energy": 1.55, 
			 "cosmo_total_nonelectrostatic_energy": 8.55, 
			 "SMD_solvation_energy": 4.38 
		},
		"coords": [
			{
				"x": 1.4537673756,
				"y": 3.6556862396,
				"z": -0.8190905058,
				"element": "C" 
			},
			{
				"x": 1.3588458327,
				"y": 2.2944775194,
				"z": -0.1732213691,
				"element": "C" 
			},
			{
				"x": 0.2201839644,
				"y": 1.8854819504,
				"z": 0.4909828216,
				"element": "C" 
			},
			{
				"x": 0.1260377479,
				"y": 0.6048748374,
				"z": 1.1003353227,
				"element": "C" 
			},
			{
				"x": 1.2452608501,
				"y": -0.2820487336,
				"z": 1.020707831,
				"element": "C" 
			},
			{
				"x": 2.4099086115,
				"y": 0.1534687393,
				"z": 0.333769436,
				"element": "C" 
			},
			{
				"x": 2.4643511956,
				"y": 1.4001589444,
				"z": -0.2437150214,
				"element": "C" 
			},
			{
				"x": 1.14415858,
				"y": -1.5603560342,
				"z": 1.6319989692,
				"element": "C" 
			},
			{
				"x": -0.0032446785,
				"y": -1.9409713269,
				"z": 2.2871956759,
				"element": "C" 
			},
			{
				"x": -1.1257869707,
				"y": -1.0697226192,
				"z": 2.3751653079,
				"element": "C" 
			},
			{
				"x": -2.3694766833,
				"y": -1.5209562166,
				"z": 3.1022629064,
				"element": "C" 
			},
			{
				"x": -1.0425605044,
				"y": 0.175718279,
				"z": 1.7861311383,
				"element": "C" 
			},
			{
				"x": 1.6420507164,
				"y": 3.5729497902,
				"z": -1.8962572563,
				"element": "H" 
			},
			{
				"x": 2.2789766626,
				"y": 4.2406505462,
				"z": -0.3955287829,
				"element": "H" 
			},
			{
				"x": 0.5326153879,
				"y": 4.2288258035,
				"z": -0.6831671792,
				"element": "H" 
			},
			{
				"x": -0.6358355341,
				"y": 2.5540071808,
				"z": 0.556291293,
				"element": "H" 
			},
			{
				"x": 3.2632404399,
				"y": -0.5175482648,
				"z": 0.2707977031,
				"element": "H" 
			},
			{
				"x": 3.364879975,
				"y": 1.7155913869,
				"z": -0.7653946288,
				"element": "H" 
			},
			{
				"x": 1.9926739954,
				"y": -2.2378932611,
				"z": 1.5739725217,
				"element": "H" 
			},
			{
				"x": -0.0615460998,
				"y": -2.9238019189,
				"z": 2.7489799711,
				"element": "H" 
			},
			{
				"x": -2.1531522236,
				"y": -1.7604450465,
				"z": 4.1503140662,
				"element": "H" 
			},
			{
				"x": -2.7892165779,
				"y": -2.4268514821,
				"z": 2.6486552816,
				"element": "H" 
			},
			{
				"x": -3.1441311905,
				"y": -0.7494674413,
				"z": 3.0879825007,
				"element": "H" 
			},
			{
				"x": -1.8894008724,
				"y": 0.8566711281,
				"z": 1.8420319971,
				"element": "H" 
			}
		],
		 "valence_orbital": [ 
			{
				"type": "occ",
				"energy": -0.32086,
				"method": "rhf"
			},
			{
				"type": "occ",
				"energy": -0.30539,
				"method": "rhf"
			},
			{
				"type": "occ",
				"energy": -0.27538,
				"method": "rhf"
			},
			{
				"type": "occ",
				"energy": -0.22744,
				"method": "rhf"
			},
			{
				"type": "occ",
				"energy": -0.20679,
				"method": "rhf"
			},
			{
				"type": "unocc",
				"energy": -0.02877,
				"method": "rhf"
			},
			{
				"type": "unocc",
				"energy": -0.00374,
				"method": "rhf"
			},
			{
				"type": "unocc",
				"energy": 0.04066,
				"method": "rhf"
			},
			{
				"type": "unocc",
				"energy": 0.09314,
				"method": "rhf"
			},
			{
				"type": "unocc",
				"energy": 0.10481,
				"method": "rhf"
			}
		],
		"cosmo_sigma_profile": { 
			"-0.025": 0.0,
			"-0.024": 0.0,
			"-0.023": 0.0,
			"-0.022": 0.0,
			"-0.021": 0.0,
			"-0.02": 0.0,
			"-0.019": 0.0,
			"-0.018": 0.0,
			"-0.017": 0.0,
			"-0.016": 0.0,
			"-0.015": 0.0,
			"-0.014": 0.0,
			"-0.013": 0.0,
			"-0.012": 0.0,
			"-0.011": 0.0,
			"-0.01": 0.0,
			"-0.009": 0.0,
			"-0.008": 0.0,
			"-0.007": 0.0,
			"-0.006": 1.58133799695,
			"-0.005": 13.2250098997,
			"-0.004": 23.6556187183,
			"-0.003": 23.7622231144,
			"-0.002": 23.6016293554,
			"-0.001": 19.4294340038,
			"0.0": 22.4050203939,
			"0.001": 14.9447784943,
			"0.002": 10.9530278154,
			"0.003": 11.4171430958,
			"0.004": 13.5888197829,
			"0.005": 24.0362103569,
			"0.006": 10.1225449034,
			"0.007": 0.00233329189963,
			"0.008": 0.0,
			"0.009": 0.0,
			"0.01": 0.0,
			"0.011": 0.0,
			"0.012": 0.0,
			"0.013": 0.0,
			"0.014": 0.0,
			"0.015": 0.0,
			"0.016": 0.0,
			"0.017": 0.0,
			"0.018": 0.0,
			"0.019": 0.0,
			"0.02": 0.0,
			"0.021": 0.0,
			"0.022": 0.0,
			"0.023": 0.0,
			"0.024": 0.0,
			"0.025": 0.0
		}
	}
}
