{
	 "smiles": "CC1=NN(C(C)=C1C(O)C(F)(F)F)C1=CC=CC=C1", 
	 "Tm": 436.15, 
	 "num_atms": 32, 
	 "gaussian": { 
		 "optdone": 1, 
		 "sigma_profile": "yes", 
		 "theory": "DFT", 
		 "functional": "B3LYP", 
		 "basiset": "6-31G**", 
		 "properties": { 
			 "R2extent": 6297.6352, 
			 "electric_dipole_moment_norm": 2.9605293378, 
			 "electric_quadrupole_moment_norm": 8.26747989595, 
			 "total_energy": -987.460474983, 
			 "HOMO_LUMO_gap": 0.2039, 
			 "cosmo_polarized_energy": -12.28, 
			 "cosmo_cavitation_energy": 36.23, 
			 "cosmo_dispersion_energy": -25.27, 
			 "cosmo_repulsion_energy": 1.89, 
			 "cosmo_total_nonelectrostatic_energy": 12.85, 
			 "SMD_solvation_energy": 6.38 
		},
		"coords": [
			{
				"x": 0.9496869982,
				"y": 2.5230573488,
				"z": -2.59378562,
				"element": "C" 
			},
			{
				"x": 0.3759398653,
				"y": 1.7022813686,
				"z": -1.4798136433,
				"element": "C" 
			},
			{
				"x": 1.1602268401,
				"y": 1.2682530034,
				"z": -0.5014439345,
				"element": "N" 
			},
			{
				"x": 0.3512535781,
				"y": 0.5499268103,
				"z": 0.3323469282,
				"element": "N" 
			},
			{
				"x": -0.9523762263,
				"y": 0.5445322344,
				"z": -0.094802291,
				"element": "C" 
			},
			{
				"x": -2.0828035888,
				"y": -0.1072929064,
				"z": 0.6385084852,
				"element": "C" 
			},
			{
				"x": -0.9686334936,
				"y": 1.278742971,
				"z": -1.2712772195,
				"element": "C" 
			},
			{
				"x": -2.1645138657,
				"y": 1.5278780368,
				"z": -2.1338632123,
				"element": "C" 
			},
			{
				"x": -2.0904048927,
				"y": 2.8224945216,
				"z": -2.7012929594,
				"element": "O" 
			},
			{
				"x": -2.2954975644,
				"y": 0.4852633217,
				"z": -3.2526197286,
				"element": "C" 
			},
			{
				"x": -2.537830113,
				"y": -0.7389435384,
				"z": -2.7416318808,
				"element": "F" 
			},
			{
				"x": -3.3460152299,
				"y": 0.8071346775,
				"z": -4.0571446643,
				"element": "F" 
			},
			{
				"x": -1.2077928884,
				"y": 0.4031520411,
				"z": -4.0361680946,
				"element": "F" 
			},
			{
				"x": 0.9225322041,
				"y": -0.024750734,
				"z": 1.5009437288,
				"element": "C" 
			},
			{
				"x": 0.5655605446,
				"y": -1.3105814489,
				"z": 1.9214327537,
				"element": "C" 
			},
			{
				"x": 1.1432120568,
				"y": -1.8460759561,
				"z": 3.073688012,
				"element": "C" 
			},
			{
				"x": 2.0902615876,
				"y": -1.1170988798,
				"z": 3.7932256715,
				"element": "C" 
			},
			{
				"x": 2.4615441252,
				"y": 0.1560525946,
				"z": 3.3525691421,
				"element": "C" 
			},
			{
				"x": 1.8798644221,
				"y": 0.7074512614,
				"z": 2.2135894368,
				"element": "C" 
			},
			{
				"x": 2.0312991858,
				"y": 2.6034775172,
				"z": -2.4661078418,
				"element": "H" 
			},
			{
				"x": 0.5123877665,
				"y": 3.525271168,
				"z": -2.6077278147,
				"element": "H" 
			},
			{
				"x": 0.7371646421,
				"y": 2.0666393474,
				"z": -3.5645659465,
				"element": "H" 
			},
			{
				"x": -1.9076086424,
				"y": -0.1203403921,
				"z": 1.7167397229,
				"element": "H" 
			},
			{
				"x": -2.2488366855,
				"y": -1.1398191431,
				"z": 0.3102209812,
				"element": "H" 
			},
			{
				"x": -3.0111515728,
				"y": 0.4412833083,
				"z": 0.4545837694,
				"element": "H" 
			},
			{
				"x": -3.0836595331,
				"y": 1.4057533438,
				"z": -1.5380520434,
				"element": "H" 
			},
			{
				"x": -2.830517064,
				"y": 2.9169847917,
				"z": -3.3169431897,
				"element": "H" 
			},
			{
				"x": -0.1350225704,
				"y": -1.8986102064,
				"z": 1.3397230889,
				"element": "H" 
			},
			{
				"x": 0.8623289016,
				"y": -2.8444818849,
				"z": 3.3958163245,
				"element": "H" 
			},
			{
				"x": 2.5422638821,
				"y": -1.5401234203,
				"z": 4.685264057,
				"element": "H" 
			},
			{
				"x": 3.2041206339,
				"y": 0.7272021969,
				"z": 3.9020260701,
				"element": "H" 
			},
			{
				"x": 2.158616697,
				"y": 1.6914866458,
				"z": 1.8559619121,
				"element": "H" 
			}
		],
		 "valence_orbital": [ 
			{
				"type": "occ",
				"energy": -0.2817,
				"method": "rhf"
			},
			{
				"type": "occ",
				"energy": -0.27522,
				"method": "rhf"
			},
			{
				"type": "occ",
				"energy": -0.25778,
				"method": "rhf"
			},
			{
				"type": "occ",
				"energy": -0.23795,
				"method": "rhf"
			},
			{
				"type": "occ",
				"energy": -0.22345,
				"method": "rhf"
			},
			{
				"type": "unocc",
				"energy": -0.01955,
				"method": "rhf"
			},
			{
				"type": "unocc",
				"energy": -0.00895,
				"method": "rhf"
			},
			{
				"type": "unocc",
				"energy": 0.03202,
				"method": "rhf"
			},
			{
				"type": "unocc",
				"energy": 0.05003,
				"method": "rhf"
			},
			{
				"type": "unocc",
				"energy": 0.07441,
				"method": "rhf"
			}
		],
		"cosmo_sigma_profile": { 
			"-0.025": 0.0,
			"-0.024": 0.0,
			"-0.023": 0.0,
			"-0.022": 0.0,
			"-0.021": 0.0,
			"-0.02": 0.0,
			"-0.019": 0.0,
			"-0.018": 0.0,
			"-0.017": 0.0,
			"-0.016": 0.261561816197,
			"-0.015": 0.958395429801,
			"-0.014": 0.785846692494,
			"-0.013": 0.737972855281,
			"-0.012": 0.275962478489,
			"-0.011": 0.75257522301,
			"-0.01": 1.37021745779,
			"-0.009": 1.06812568104,
			"-0.008": 4.73200271742,
			"-0.007": 6.70199456315,
			"-0.006": 12.9228982183,
			"-0.005": 16.7855012399,
			"-0.004": 18.425281998,
			"-0.003": 17.7597223296,
			"-0.002": 23.2541327854,
			"-0.001": 20.0148565467,
			"0.0": 21.9354412038,
			"0.001": 22.6550129323,
			"0.002": 31.8906752855,
			"0.003": 33.7453816158,
			"0.004": 16.5283063715,
			"0.005": 12.3465814625,
			"0.006": 4.31976247157,
			"0.007": 4.30364558317,
			"0.008": 3.75407661061,
			"0.009": 2.08007039531,
			"0.01": 1.85595596438,
			"0.011": 1.84955431705,
			"0.012": 1.87366262771,
			"0.013": 0.929606579774,
			"0.014": 0.707935192519,
			"0.015": 0.62101997627,
			"0.016": 0.0163130865381,
			"0.017": 0.0,
			"0.018": 0.0,
			"0.019": 0.0,
			"0.02": 0.0,
			"0.021": 0.0,
			"0.022": 0.0,
			"0.023": 0.0,
			"0.024": 0.0,
			"0.025": 0.0
		}
	}
}
