{
	 "smiles": "CN1CCN(CC1)C1=NC=C(N)C=C1", 
	 "Tm": 383.15, 
	 "num_atms": 30, 
	 "gaussian": { 
		 "optdone": 1, 
		 "sigma_profile": "yes", 
		 "theory": "DFT", 
		 "functional": "B3LYP", 
		 "basiset": "6-31G**", 
		 "properties": { 
			 "R2extent": 4878.7319, 
			 "electric_dipole_moment_norm": 1.30897056499, 
			 "electric_quadrupole_moment_norm": 15.6895086093, 
			 "total_energy": -609.693191376, 
			 "HOMO_LUMO_gap": 0.16169, 
			 "cosmo_polarized_energy": -11.9, 
			 "cosmo_cavitation_energy": 31.03, 
			 "cosmo_dispersion_energy": -23.28, 
			 "cosmo_repulsion_energy": 1.83, 
			 "cosmo_total_nonelectrostatic_energy": 9.58, 
			 "SMD_solvation_energy": 1.08 
		},
		"coords": [
			{
				"x": 3.0678995487,
				"y": -0.0350750186,
				"z": -0.3294412589,
				"element": "C" 
			},
			{
				"x": 1.6434976897,
				"y": -0.2846383264,
				"z": -0.2180086683,
				"element": "N" 
			},
			{
				"x": 1.2962695323,
				"y": -1.3907475574,
				"z": 0.6598593478,
				"element": "C" 
			},
			{
				"x": -0.1589258983,
				"y": -1.8001347246,
				"z": 0.4031332153,
				"element": "C" 
			},
			{
				"x": -1.0136362722,
				"y": -0.6219552221,
				"z": 0.3585901576,
				"element": "N" 
			},
			{
				"x": -0.4288422004,
				"y": 0.6235721179,
				"z": 0.8291828379,
				"element": "C" 
			},
			{
				"x": 0.881537659,
				"y": 0.935803053,
				"z": 0.0870042008,
				"element": "C" 
			},
			{
				"x": -2.3784115951,
				"y": -0.7483591991,
				"z": 0.1533731037,
				"element": "C" 
			},
			{
				"x": -3.1269055434,
				"y": 0.3637319908,
				"z": 0.2435616557,
				"element": "N" 
			},
			{
				"x": -4.4402548756,
				"y": 0.2848188676,
				"z": 0.0226727186,
				"element": "C" 
			},
			{
				"x": -5.122772321,
				"y": -0.8948059947,
				"z": -0.2949554783,
				"element": "C" 
			},
			{
				"x": -6.5224654443,
				"y": -0.9263893525,
				"z": -0.4466612941,
				"element": "N" 
			},
			{
				"x": -4.3391386642,
				"y": -2.0552823411,
				"z": -0.378298955,
				"element": "C" 
			},
			{
				"x": -2.9708889545,
				"y": -1.9951540135,
				"z": -0.1576816449,
				"element": "C" 
			},
			{
				"x": 3.5358898604,
				"y": 0.3001278638,
				"z": 0.617539588,
				"element": "H" 
			},
			{
				"x": 3.2457503223,
				"y": 0.7438127562,
				"z": -1.0790734009,
				"element": "H" 
			},
			{
				"x": 3.5837225671,
				"y": -0.9426089292,
				"z": -0.6609387756,
				"element": "H" 
			},
			{
				"x": 1.9414062346,
				"y": -2.2442938099,
				"z": 0.4260010545,
				"element": "H" 
			},
			{
				"x": 1.4543889308,
				"y": -1.1644612091,
				"z": 1.7329245286,
				"element": "H" 
			},
			{
				"x": -0.2073469305,
				"y": -2.3241078364,
				"z": -0.5611930843,
				"element": "H" 
			},
			{
				"x": -0.4848240297,
				"y": -2.5100241791,
				"z": 1.1825428536,
				"element": "H" 
			},
			{
				"x": -1.1570676137,
				"y": 1.4174474148,
				"z": 0.6699365845,
				"element": "H" 
			},
			{
				"x": -0.2400354132,
				"y": 0.5748983346,
				"z": 1.9136281348,
				"element": "H" 
			},
			{
				"x": 1.4655721607,
				"y": 1.6292052286,
				"z": 0.7205825049,
				"element": "H" 
			},
			{
				"x": 0.6722338857,
				"y": 1.4590525609,
				"z": -0.855168918,
				"element": "H" 
			},
			{
				"x": -4.9941335364,
				"y": 1.2212188812,
				"z": 0.1088528599,
				"element": "H" 
			},
			{
				"x": -6.8420705056,
				"y": -1.6271062649,
				"z": -1.1041599866,
				"element": "H" 
			},
			{
				"x": -6.919125254,
				"y": -0.0253124298,
				"z": -0.6841480999,
				"element": "H" 
			},
			{
				"x": -4.8058231381,
				"y": -3.0099600974,
				"z": -0.6109210469,
				"element": "H" 
			},
			{
				"x": -2.378200201,
				"y": -2.8986725634,
				"z": -0.2275347344,
				"element": "H" 
			}
		],
		 "valence_orbital": [ 
			{
				"type": "occ",
				"energy": -0.26333,
				"method": "rhf"
			},
			{
				"type": "occ",
				"energy": -0.24417,
				"method": "rhf"
			},
			{
				"type": "occ",
				"energy": -0.24121,
				"method": "rhf"
			},
			{
				"type": "occ",
				"energy": -0.20453,
				"method": "rhf"
			},
			{
				"type": "occ",
				"energy": -0.16716,
				"method": "rhf"
			},
			{
				"type": "unocc",
				"energy": -0.00547,
				"method": "rhf"
			},
			{
				"type": "unocc",
				"energy": 0.03484,
				"method": "rhf"
			},
			{
				"type": "unocc",
				"energy": 0.08415,
				"method": "rhf"
			},
			{
				"type": "unocc",
				"energy": 0.08783,
				"method": "rhf"
			},
			{
				"type": "unocc",
				"energy": 0.1071,
				"method": "rhf"
			}
		],
		"cosmo_sigma_profile": { 
			"-0.025": 0.0,
			"-0.024": 0.0,
			"-0.023": 0.0,
			"-0.022": 0.0,
			"-0.021": 0.0,
			"-0.02": 0.0,
			"-0.019": 0.0,
			"-0.018": 0.0,
			"-0.017": 0.0,
			"-0.016": 0.0,
			"-0.015": 0.0,
			"-0.014": 0.0,
			"-0.013": 0.0,
			"-0.012": 1.28097604115,
			"-0.011": 2.98099475516,
			"-0.01": 2.718891413,
			"-0.009": 3.53243671724,
			"-0.008": 3.08633298985,
			"-0.007": 3.23086232036,
			"-0.006": 5.41261753442,
			"-0.005": 7.14229357143,
			"-0.004": 16.8765959626,
			"-0.003": 27.0995950777,
			"-0.002": 35.1417317078,
			"-0.001": 29.9864712439,
			"0.0": 21.0434463739,
			"0.001": 8.83390465908,
			"0.002": 7.71175123288,
			"0.003": 8.15430354698,
			"0.004": 10.5907059499,
			"0.005": 13.5628320794,
			"0.006": 8.45540392443,
			"0.007": 4.58197985885,
			"0.008": 3.72851219807,
			"0.009": 3.10034189457,
			"0.01": 3.83806954632,
			"0.011": 2.21167203175,
			"0.012": 3.59919938102,
			"0.013": 1.57079822001,
			"0.014": 0.966535833352,
			"0.015": 1.07799761131,
			"0.016": 0.860777385209,
			"0.017": 0.021361086281,
			"0.018": 0.0,
			"0.019": 0.0,
			"0.02": 0.0,
			"0.021": 0.0,
			"0.022": 0.0,
			"0.023": 0.0,
			"0.024": 0.0,
			"0.025": 0.0
		}
	}
}
