{
	 "smiles": "CC1=C(C=CC(=N1)C1=CC=CC=C1)C(O)=O", 
	 "Tm": 464.15, 
	 "num_atms": 27, 
	 "gaussian": { 
		 "optdone": 1, 
		 "sigma_profile": "yes", 
		 "theory": "DFT", 
		 "functional": "B3LYP", 
		 "basiset": "6-31G**", 
		 "properties": { 
			 "R2extent": 4919.3728, 
			 "electric_dipole_moment_norm": 4.64435286988, 
			 "electric_quadrupole_moment_norm": 23.0497692012, 
			 "total_energy": -707.231248108, 
			 "HOMO_LUMO_gap": 0.16873, 
			 "cosmo_polarized_energy": -15.94, 
			 "cosmo_cavitation_energy": 31.3, 
			 "cosmo_dispersion_energy": -22.97, 
			 "cosmo_repulsion_energy": 1.76, 
			 "cosmo_total_nonelectrostatic_energy": 10.09, 
			 "SMD_solvation_energy": 5.38 
		},
		"coords": [
			{
				"x": -0.6803668705,
				"y": 2.1119519924,
				"z": -2.5538973682,
				"element": "C" 
			},
			{
				"x": 0.2422766941,
				"y": 1.1211589851,
				"z": -1.8916421306,
				"element": "C" 
			},
			{
				"x": 1.3640267724,
				"y": 0.5557573789,
				"z": -2.548004693,
				"element": "C" 
			},
			{
				"x": 2.1232009323,
				"y": -0.3860556055,
				"z": -1.8418046029,
				"element": "C" 
			},
			{
				"x": 1.7891877937,
				"y": -0.7216406094,
				"z": -0.538195643,
				"element": "C" 
			},
			{
				"x": 0.690611879,
				"y": -0.0829404882,
				"z": 0.0587628131,
				"element": "C" 
			},
			{
				"x": -0.0528300324,
				"y": 0.8076745961,
				"z": -0.6257815903,
				"element": "N" 
			},
			{
				"x": 0.2725199714,
				"y": -0.3614913622,
				"z": 1.4569902604,
				"element": "C" 
			},
			{
				"x": 1.1328687927,
				"y": -0.9815051037,
				"z": 2.3789738432,
				"element": "C" 
			},
			{
				"x": 0.7137984675,
				"y": -1.2381256109,
				"z": 3.6831089472,
				"element": "C" 
			},
			{
				"x": -0.5728444998,
				"y": -0.8803262879,
				"z": 4.0902817345,
				"element": "C" 
			},
			{
				"x": -1.4342783572,
				"y": -0.2559461496,
				"z": 3.1849582212,
				"element": "C" 
			},
			{
				"x": -1.0156565551,
				"y": 0.0051252608,
				"z": 1.8828963204,
				"element": "C" 
			},
			{
				"x": 1.698446142,
				"y": 0.8986662431,
				"z": -3.9651171525,
				"element": "C" 
			},
			{
				"x": 3.0176527742,
				"y": 0.8147467286,
				"z": -4.3022017861,
				"element": "O" 
			},
			{
				"x": 0.8894500824,
				"y": 1.2202647312,
				"z": -4.803529713,
				"element": "O" 
			},
			{
				"x": -1.3706751256,
				"y": 2.5017089568,
				"z": -1.8049028753,
				"element": "H" 
			},
			{
				"x": -0.1287001071,
				"y": 2.9361369446,
				"z": -3.0149512579,
				"element": "H" 
			},
			{
				"x": -1.2418858241,
				"y": 1.634931242,
				"z": -3.3619135042,
				"element": "H" 
			},
			{
				"x": 2.9536932106,
				"y": -0.8943480088,
				"z": -2.3261412988,
				"element": "H" 
			},
			{
				"x": 2.3540632893,
				"y": -1.4803760551,
				"z": -0.0100893769,
				"element": "H" 
			},
			{
				"x": 2.1455742531,
				"y": -1.2456310971,
				"z": 2.0912920683,
				"element": "H" 
			},
			{
				"x": 1.3955084333,
				"y": -1.71191223,
				"z": 4.383484451,
				"element": "H" 
			},
			{
				"x": -0.8994175263,
				"y": -1.0820816895,
				"z": 5.1063730118,
				"element": "H" 
			},
			{
				"x": -2.4359237255,
				"y": 0.0280960242,
				"z": 3.4947407068,
				"element": "H" 
			},
			{
				"x": -1.6728815376,
				"y": 0.4946774077,
				"z": 1.1736947993,
				"element": "H" 
			},
			{
				"x": 3.5589806732,
				"y": 0.7273838062,
				"z": -3.5054841846,
				"element": "H" 
			}
		],
		 "valence_orbital": [ 
			{
				"type": "occ",
				"energy": -0.28398,
				"method": "rhf"
			},
			{
				"type": "occ",
				"energy": -0.27683,
				"method": "rhf"
			},
			{
				"type": "occ",
				"energy": -0.26318,
				"method": "rhf"
			},
			{
				"type": "occ",
				"energy": -0.25704,
				"method": "rhf"
			},
			{
				"type": "occ",
				"energy": -0.23808,
				"method": "rhf"
			},
			{
				"type": "unocc",
				"energy": -0.06935,
				"method": "rhf"
			},
			{
				"type": "unocc",
				"energy": -0.03537,
				"method": "rhf"
			},
			{
				"type": "unocc",
				"energy": -0.00557,
				"method": "rhf"
			},
			{
				"type": "unocc",
				"energy": -0.00357,
				"method": "rhf"
			},
			{
				"type": "unocc",
				"energy": 0.04857,
				"method": "rhf"
			}
		],
		"cosmo_sigma_profile": { 
			"-0.025": 0.0,
			"-0.024": 0.0,
			"-0.023": 0.0,
			"-0.022": 0.0,
			"-0.021": 0.0,
			"-0.02": 0.0,
			"-0.019": 0.19269044701,
			"-0.018": 0.84803179236,
			"-0.017": 0.94645617422,
			"-0.016": 1.00900544082,
			"-0.015": 1.40830452853,
			"-0.014": 0.874694201215,
			"-0.013": 0.770486364294,
			"-0.012": 0.856393230891,
			"-0.011": 1.74967621606,
			"-0.01": 0.916084942132,
			"-0.009": 2.31259983656,
			"-0.008": 4.2202360064,
			"-0.007": 6.18675450257,
			"-0.006": 10.1908889343,
			"-0.005": 14.8829620456,
			"-0.004": 17.5895517548,
			"-0.003": 16.0014609407,
			"-0.002": 15.5796329957,
			"-0.001": 17.9653828145,
			"0.0": 23.3796189412,
			"0.001": 21.0250223839,
			"0.002": 15.3958432647,
			"0.003": 13.1994838955,
			"0.004": 14.6429729341,
			"0.005": 14.4079801125,
			"0.006": 5.29353490323,
			"0.007": 4.70334838595,
			"0.008": 4.72404126227,
			"0.009": 3.74863788587,
			"0.01": 5.53509185274,
			"0.011": 5.31404272821,
			"0.012": 3.71185060025,
			"0.013": 1.24799397785,
			"0.014": 0.0,
			"0.015": 0.0,
			"0.016": 0.0,
			"0.017": 0.0,
			"0.018": 0.0,
			"0.019": 0.0,
			"0.02": 0.0,
			"0.021": 0.0,
			"0.022": 0.0,
			"0.023": 0.0,
			"0.024": 0.0,
			"0.025": 0.0
		}
	}
}
