{
	 "smiles": "ClCC1=NOC(=C1)C1=CC=CO1", 
	 "Tm": 321.15, 
	 "num_atms": 18, 
	 "gaussian": { 
		 "optdone": 1, 
		 "sigma_profile": "yes", 
		 "theory": "DFT", 
		 "functional": "B3LYP", 
		 "basiset": "6-31G**", 
		 "properties": { 
			 "R2extent": 3434.5654, 
			 "electric_dipole_moment_norm": 3.91079636647, 
			 "electric_quadrupole_moment_norm": 12.130082381, 
			 "total_energy": -973.779457772, 
			 "HOMO_LUMO_gap": 0.17401, 
			 "cosmo_polarized_energy": -10.83, 
			 "cosmo_cavitation_energy": 25.47, 
			 "cosmo_dispersion_energy": -18.85, 
			 "cosmo_repulsion_energy": 1.51, 
			 "cosmo_total_nonelectrostatic_energy": 8.13, 
			 "SMD_solvation_energy": 4.9 
		},
		"coords": [
			{
				"x": 2.1673903099,
				"y": -3.5741534812,
				"z": -2.1300605807,
				"element": "Cl" 
			},
			{
				"x": 2.8215770792,
				"y": -2.2910074241,
				"z": -1.0143545586,
				"element": "C" 
			},
			{
				"x": 1.902075075,
				"y": -1.1209926076,
				"z": -0.9053197721,
				"element": "C" 
			},
			{
				"x": 2.3424184405,
				"y": 0.0643492763,
				"z": -1.2749781204,
				"element": "N" 
			},
			{
				"x": 1.2925596471,
				"y": 0.9461623511,
				"z": -1.0277879439,
				"element": "O" 
			},
			{
				"x": 0.2420152798,
				"y": 0.2586369945,
				"z": -0.5197689843,
				"element": "C" 
			},
			{
				"x": 0.5702677137,
				"y": -1.0672974853,
				"z": -0.4142954608,
				"element": "C" 
			},
			{
				"x": -0.9566190131,
				"y": 0.9923360406,
				"z": -0.2000549243,
				"element": "C" 
			},
			{
				"x": -2.1744612091,
				"y": 0.6014311367,
				"z": 0.297948457,
				"element": "C" 
			},
			{
				"x": -2.963971825,
				"y": 1.7854437179,
				"z": 0.4009785982,
				"element": "C" 
			},
			{
				"x": -2.1738891753,
				"y": 2.8068138279,
				"z": -0.0393235154,
				"element": "C" 
			},
			{
				"x": -0.9512539757,
				"y": 2.3435353738,
				"z": -0.4083205537,
				"element": "O" 
			},
			{
				"x": 2.964916,
				"y": -2.7807227982,
				"z": -0.0502936142,
				"element": "H" 
			},
			{
				"x": 3.783392718,
				"y": -1.9734136334,
				"z": -1.414833515,
				"element": "H" 
			},
			{
				"x": -0.0403396328,
				"y": -1.8825589005,
				"z": -0.0596813453,
				"element": "H" 
			},
			{
				"x": -2.4682133763,
				"y": -0.4059132605,
				"z": 0.5550708276,
				"element": "H" 
			},
			{
				"x": -3.981698671,
				"y": 1.8638836802,
				"z": 0.7542086404,
				"element": "H" 
			},
			{
				"x": -2.323865385,
				"y": 3.8695671918,
				"z": -0.1483336344,
				"element": "H" 
			}
		],
		 "valence_orbital": [ 
			{
				"type": "occ",
				"energy": -0.30787,
				"method": "rhf"
			},
			{
				"type": "occ",
				"energy": -0.3026,
				"method": "rhf"
			},
			{
				"type": "occ",
				"energy": -0.29558,
				"method": "rhf"
			},
			{
				"type": "occ",
				"energy": -0.29011,
				"method": "rhf"
			},
			{
				"type": "occ",
				"energy": -0.22555,
				"method": "rhf"
			},
			{
				"type": "unocc",
				"energy": -0.05154,
				"method": "rhf"
			},
			{
				"type": "unocc",
				"energy": -0.01116,
				"method": "rhf"
			},
			{
				"type": "unocc",
				"energy": 0.03289,
				"method": "rhf"
			},
			{
				"type": "unocc",
				"energy": 0.05298,
				"method": "rhf"
			},
			{
				"type": "unocc",
				"energy": 0.08432,
				"method": "rhf"
			}
		],
		"cosmo_sigma_profile": { 
			"-0.025": 0.0,
			"-0.024": 0.0,
			"-0.023": 0.0,
			"-0.022": 0.0,
			"-0.021": 0.0,
			"-0.02": 0.0,
			"-0.019": 0.0,
			"-0.018": 0.0,
			"-0.017": 0.0,
			"-0.016": 0.0,
			"-0.015": 0.0,
			"-0.014": 0.0,
			"-0.013": 0.0,
			"-0.012": 0.0,
			"-0.011": 0.0,
			"-0.01": 0.881859819541,
			"-0.009": 5.96448782308,
			"-0.008": 11.4827432306,
			"-0.007": 10.5371400935,
			"-0.006": 11.3680766349,
			"-0.005": 10.511724461,
			"-0.004": 8.67468165806,
			"-0.003": 7.64813939374,
			"-0.002": 8.30636665504,
			"-0.001": 12.7692005594,
			"0.0": 16.7553148604,
			"0.001": 17.6420912048,
			"0.002": 16.4833505162,
			"0.003": 15.5368154164,
			"0.004": 11.6358153698,
			"0.005": 11.2588993653,
			"0.006": 11.3202743702,
			"0.007": 6.68895954389,
			"0.008": 5.19991052629,
			"0.009": 1.99159371617,
			"0.01": 1.13508611497,
			"0.011": 1.29449720342,
			"0.012": 1.39677241494,
			"0.013": 0.992979118716,
			"0.014": 0.259996573646,
			"0.015": 0.0,
			"0.016": 0.0,
			"0.017": 0.0,
			"0.018": 0.0,
			"0.019": 0.0,
			"0.02": 0.0,
			"0.021": 0.0,
			"0.022": 0.0,
			"0.023": 0.0,
			"0.024": 0.0,
			"0.025": 0.0
		}
	}
}
