{
	 "smiles": "COC1=C2OC=CC2=C2OC(=O)C=CC2=C1OC", 
	 "Tm": 392.15, 
	 "num_atms": 28, 
	 "gaussian": { 
		 "optdone": 1, 
		 "sigma_profile": "yes", 
		 "theory": "DFT", 
		 "functional": "B3LYP", 
		 "basiset": "6-31G**", 
		 "properties": { 
			 "R2extent": 4564.445, 
			 "electric_dipole_moment_norm": 5.01179747795, 
			 "electric_quadrupole_moment_norm": 23.4461070604, 
			 "total_energy": -877.478241967, 
			 "HOMO_LUMO_gap": 0.15669, 
			 "cosmo_polarized_energy": -12.43, 
			 "cosmo_cavitation_energy": 32.74, 
			 "cosmo_dispersion_energy": -23.62, 
			 "cosmo_repulsion_energy": 1.8, 
			 "cosmo_total_nonelectrostatic_energy": 10.92, 
			 "SMD_solvation_energy": 9.07 
		},
		"coords": [
			{
				"x": 3.637022462,
				"y": -0.115233694,
				"z": 0.1207558622,
				"element": "C" 
			},
			{
				"x": 2.7566854348,
				"y": -0.7733217459,
				"z": -0.8002985015,
				"element": "O" 
			},
			{
				"x": 1.4281624021,
				"y": -0.7421407176,
				"z": -0.4665873022,
				"element": "C" 
			},
			{
				"x": 0.9108640866,
				"y": -1.3824614189,
				"z": 0.6725668312,
				"element": "C" 
			},
			{
				"x": 1.642702341,
				"y": -2.0739339514,
				"z": 1.5919212538,
				"element": "O" 
			},
			{
				"x": 0.7465757252,
				"y": -2.5195404216,
				"z": 2.5427410172,
				"element": "C" 
			},
			{
				"x": -0.5222592029,
				"y": -2.1389262636,
				"z": 2.2626063564,
				"element": "C" 
			},
			{
				"x": -0.443591821,
				"y": -1.3867604982,
				"z": 1.0354758046,
				"element": "C" 
			},
			{
				"x": -1.3527554181,
				"y": -0.7231255014,
				"z": 0.2011111522,
				"element": "C" 
			},
			{
				"x": -2.666720447,
				"y": -0.7255485038,
				"z": 0.5484216835,
				"element": "O" 
			},
			{
				"x": -3.6559081771,
				"y": -0.0954763907,
				"z": -0.2247240515,
				"element": "C" 
			},
			{
				"x": -4.7954355291,
				"y": -0.1564400976,
				"z": 0.1716416465,
				"element": "O" 
			},
			{
				"x": -3.1825559439,
				"y": 0.5676142987,
				"z": -1.4311669687,
				"element": "C" 
			},
			{
				"x": -1.8738070942,
				"y": 0.5721195083,
				"z": -1.7805339896,
				"element": "C" 
			},
			{
				"x": -0.8910337717,
				"y": -0.089007307,
				"z": -0.9634326782,
				"element": "C" 
			},
			{
				"x": 0.4995454998,
				"y": -0.09706889,
				"z": -1.2867438251,
				"element": "C" 
			},
			{
				"x": 0.8825609447,
				"y": 0.5981854439,
				"z": -2.4026235535,
				"element": "O" 
			},
			{
				"x": 1.5015046231,
				"y": -0.1628874611,
				"z": -3.4507262458,
				"element": "C" 
			},
			{
				"x": 3.3633358409,
				"y": 0.9402346338,
				"z": 0.2343668295,
				"element": "H" 
			},
			{
				"x": 3.6281934766,
				"y": -0.6051391211,
				"z": 1.0994199971,
				"element": "H" 
			},
			{
				"x": 4.6359123149,
				"y": -0.1877498728,
				"z": -0.3128623411,
				"element": "H" 
			},
			{
				"x": 1.1822662146,
				"y": -3.092648493,
				"z": 3.3463118589,
				"element": "H" 
			},
			{
				"x": -1.4092471564,
				"y": -2.3560074384,
				"z": 2.8380828319,
				"element": "H" 
			},
			{
				"x": -3.9446965017,
				"y": 1.0563475613,
				"z": -2.0260373545,
				"element": "H" 
			},
			{
				"x": -1.535245294,
				"y": 1.0773618879,
				"z": -2.678727522,
				"element": "H" 
			},
			{
				"x": 0.8277548089,
				"y": -0.9529220772,
				"z": -3.8045354769,
				"element": "H" 
			},
			{
				"x": 1.6873005049,
				"y": 0.543653578,
				"z": -4.26185254,
				"element": "H" 
			},
			{
				"x": 2.4432696771,
				"y": -0.6032770465,
				"z": -3.1163707745,
				"element": "H" 
			}
		],
		 "valence_orbital": [ 
			{
				"type": "occ",
				"energy": -0.29845,
				"method": "rhf"
			},
			{
				"type": "occ",
				"energy": -0.27469,
				"method": "rhf"
			},
			{
				"type": "occ",
				"energy": -0.26921,
				"method": "rhf"
			},
			{
				"type": "occ",
				"energy": -0.23057,
				"method": "rhf"
			},
			{
				"type": "occ",
				"energy": -0.21538,
				"method": "rhf"
			},
			{
				"type": "unocc",
				"energy": -0.05869,
				"method": "rhf"
			},
			{
				"type": "unocc",
				"energy": -0.02564,
				"method": "rhf"
			},
			{
				"type": "unocc",
				"energy": 0.00908,
				"method": "rhf"
			},
			{
				"type": "unocc",
				"energy": 0.04692,
				"method": "rhf"
			},
			{
				"type": "unocc",
				"energy": 0.06546,
				"method": "rhf"
			}
		],
		"cosmo_sigma_profile": { 
			"-0.025": 0.0,
			"-0.024": 0.0,
			"-0.023": 0.0,
			"-0.022": 0.0,
			"-0.021": 0.0,
			"-0.02": 0.0,
			"-0.019": 0.0,
			"-0.018": 0.0,
			"-0.017": 0.0,
			"-0.016": 0.0,
			"-0.015": 0.0,
			"-0.014": 0.0,
			"-0.013": 0.0,
			"-0.012": 0.0,
			"-0.011": 0.0,
			"-0.01": 1.12049249953,
			"-0.009": 2.37902266494,
			"-0.008": 4.17909390324,
			"-0.007": 6.55859822829,
			"-0.006": 10.488418204,
			"-0.005": 16.0662377836,
			"-0.004": 20.1232588336,
			"-0.003": 28.6267160828,
			"-0.002": 21.7376263433,
			"-0.001": 20.0472669373,
			"0.0": 29.5642777786,
			"0.001": 24.982274629,
			"0.002": 15.4706112082,
			"0.003": 11.7669116399,
			"0.004": 8.40324024015,
			"0.005": 6.22536174723,
			"0.006": 6.7282345254,
			"0.007": 4.54603750469,
			"0.008": 3.02147478568,
			"0.009": 3.81651180569,
			"0.01": 4.17218137651,
			"0.011": 4.03490964024,
			"0.012": 6.31921080137,
			"0.013": 2.83156821893,
			"0.014": 0.104454267829,
			"0.015": 0.0,
			"0.016": 0.0,
			"0.017": 0.0,
			"0.018": 0.0,
			"0.019": 0.0,
			"0.02": 0.0,
			"0.021": 0.0,
			"0.022": 0.0,
			"0.023": 0.0,
			"0.024": 0.0,
			"0.025": 0.0
		}
	}
}
