{
	 "smiles": "CCCCCCN(CCCCCC)C(=O)COC(=O)C1=CC=CC=C1", 
	 "Tm": 435.15, 
	 "num_atms": 58, 
	 "gaussian": { 
		 "optdone": 1, 
		 "sigma_profile": "yes", 
		 "theory": "DFT", 
		 "functional": "B3LYP", 
		 "basiset": "6-31G**", 
		 "properties": { 
			 "R2extent": 11695.9337, 
			 "electric_dipole_moment_norm": 5.24777939513, 
			 "electric_quadrupole_moment_norm": 13.9368557627, 
			 "total_energy": -1100.59670802, 
			 "HOMO_LUMO_gap": 0.18173, 
			 "cosmo_polarized_energy": -15.84, 
			 "cosmo_cavitation_energy": 58.46, 
			 "cosmo_dispersion_energy": -36.01, 
			 "cosmo_repulsion_energy": 2.85, 
			 "cosmo_total_nonelectrostatic_energy": 25.29, 
			 "SMD_solvation_energy": 9.63 
		},
		"coords": [
			{
				"x": 4.5664727167,
				"y": -2.1621144028,
				"z": -2.7692890714,
				"element": "C" 
			},
			{
				"x": 4.4513194369,
				"y": -0.6550150867,
				"z": -3.0265019728,
				"element": "C" 
			},
			{
				"x": 3.1750100739,
				"y": -0.2345396991,
				"z": -3.7765512618,
				"element": "C" 
			},
			{
				"x": 1.844854675,
				"y": -0.5397236684,
				"z": -3.0604758131,
				"element": "C" 
			},
			{
				"x": 1.6467643276,
				"y": 0.1223253633,
				"z": -1.6855324371,
				"element": "C" 
			},
			{
				"x": 1.5971082241,
				"y": 1.6561962584,
				"z": -1.7432088995,
				"element": "C" 
			},
			{
				"x": 1.3547954517,
				"y": 2.2888233324,
				"z": -0.4429218615,
				"element": "N" 
			},
			{
				"x": 2.4626219044,
				"y": 2.3003147255,
				"z": 0.5261055918,
				"element": "C" 
			},
			{
				"x": 2.2165106432,
				"y": 1.4149610729,
				"z": 1.7555774837,
				"element": "C" 
			},
			{
				"x": 3.4010313537,
				"y": 1.458915281,
				"z": 2.7303243804,
				"element": "C" 
			},
			{
				"x": 3.196680389,
				"y": 0.7403679741,
				"z": 4.0764840347,
				"element": "C" 
			},
			{
				"x": 2.9940718362,
				"y": -0.7896281713,
				"z": 4.0108041966,
				"element": "C" 
			},
			{
				"x": 1.5362811429,
				"y": -1.2500085107,
				"z": 3.8738540151,
				"element": "C" 
			},
			{
				"x": 0.2710357113,
				"y": 3.063973533,
				"z": -0.1279679908,
				"element": "C" 
			},
			{
				"x": 0.2378205468,
				"y": 3.7656717076,
				"z": 0.8786653053,
				"element": "O" 
			},
			{
				"x": -0.9400057286,
				"y": 3.1170125313,
				"z": -1.0753085968,
				"element": "C" 
			},
			{
				"x": -1.3609355227,
				"y": 1.8684130372,
				"z": -1.6564329823,
				"element": "O" 
			},
			{
				"x": -2.0339507597,
				"y": 1.026203588,
				"z": -0.8251541298,
				"element": "C" 
			},
			{
				"x": -2.2332724181,
				"y": 1.2731363234,
				"z": 0.3457802731,
				"element": "O" 
			},
			{
				"x": -2.4889784353,
				"y": -0.211464918,
				"z": -1.519027883,
				"element": "C" 
			},
			{
				"x": -3.1224120246,
				"y": -1.1936032076,
				"z": -0.7444076824,
				"element": "C" 
			},
			{
				"x": -3.5733597111,
				"y": -2.3687740915,
				"z": -1.3398785843,
				"element": "C" 
			},
			{
				"x": -3.3977955374,
				"y": -2.5685937933,
				"z": -2.7119968569,
				"element": "C" 
			},
			{
				"x": -2.7710795352,
				"y": -1.5904528585,
				"z": -3.4880943052,
				"element": "C" 
			},
			{
				"x": -2.3160995893,
				"y": -0.4131277525,
				"z": -2.8961651566,
				"element": "C" 
			},
			{
				"x": 3.7709650992,
				"y": -2.5281781281,
				"z": -2.1119153927,
				"element": "H" 
			},
			{
				"x": 4.5063903995,
				"y": -2.7276812589,
				"z": -3.7065705623,
				"element": "H" 
			},
			{
				"x": 5.5216817636,
				"y": -2.4082773231,
				"z": -2.2942093547,
				"element": "H" 
			},
			{
				"x": 5.3177979224,
				"y": -0.3259618293,
				"z": -3.6140706036,
				"element": "H" 
			},
			{
				"x": 4.5197736434,
				"y": -0.116448193,
				"z": -2.0720132181,
				"element": "H" 
			},
			{
				"x": 3.1597823821,
				"y": -0.7400107281,
				"z": -4.7518399674,
				"element": "H" 
			},
			{
				"x": 3.2356012924,
				"y": 0.8381199398,
				"z": -4.0018148234,
				"element": "H" 
			},
			{
				"x": 1.0184507905,
				"y": -0.238559317,
				"z": -3.7186506401,
				"element": "H" 
			},
			{
				"x": 1.7402123055,
				"y": -1.6242177069,
				"z": -2.9370302785,
				"element": "H" 
			},
			{
				"x": 0.7066895127,
				"y": -0.2357911892,
				"z": -1.2519170118,
				"element": "H" 
			},
			{
				"x": 2.4410748103,
				"y": -0.1926130459,
				"z": -0.997899807,
				"element": "H" 
			},
			{
				"x": 2.5450771377,
				"y": 2.0499390537,
				"z": -2.1331281186,
				"element": "H" 
			},
			{
				"x": 0.8180069361,
				"y": 1.9618749146,
				"z": -2.4421937649,
				"element": "H" 
			},
			{
				"x": 2.6204731186,
				"y": 3.3336212757,
				"z": 0.8516673389,
				"element": "H" 
			},
			{
				"x": 3.3633977258,
				"y": 1.9712958952,
				"z": -0.0036394016,
				"element": "H" 
			},
			{
				"x": 1.3064658316,
				"y": 1.765700315,
				"z": 2.2534871712,
				"element": "H" 
			},
			{
				"x": 2.0295352452,
				"y": 0.3873389276,
				"z": 1.4242567897,
				"element": "H" 
			},
			{
				"x": 3.6397974332,
				"y": 2.5107652992,
				"z": 2.9405245894,
				"element": "H" 
			},
			{
				"x": 4.291958783,
				"y": 1.0406554096,
				"z": 2.23823095,
				"element": "H" 
			},
			{
				"x": 4.0811919675,
				"y": 0.9492903218,
				"z": 4.6915141819,
				"element": "H" 
			},
			{
				"x": 2.3493667684,
				"y": 1.1965942069,
				"z": 4.6069937332,
				"element": "H" 
			},
			{
				"x": 3.4049466207,
				"y": -1.2361058316,
				"z": 4.9251704788,
				"element": "H" 
			},
			{
				"x": 3.593617873,
				"y": -1.2006129757,
				"z": 3.1863158353,
				"element": "H" 
			},
			{
				"x": 1.4698745201,
				"y": -2.3435051951,
				"z": 3.8577223576,
				"element": "H" 
			},
			{
				"x": 0.936596564,
				"y": -0.8951533442,
				"z": 4.7197783115,
				"element": "H" 
			},
			{
				"x": 1.0639170993,
				"y": -0.8759420919,
				"z": 2.9613935779,
				"element": "H" 
			},
			{
				"x": -1.7481372397,
				"y": 3.5466425072,
				"z": -0.4842034883,
				"element": "H" 
			},
			{
				"x": -0.7227939439,
				"y": 3.7630311039,
				"z": -1.9308568526,
				"element": "H" 
			},
			{
				"x": -3.2497364057,
				"y": -1.0133223362,
				"z": 0.3176294186,
				"element": "H" 
			},
			{
				"x": -4.0621557632,
				"y": -3.1282998205,
				"z": -0.7370319791,
				"element": "H" 
			},
			{
				"x": -3.7509786171,
				"y": -3.4848963757,
				"z": -3.176509206,
				"element": "H" 
			},
			{
				"x": -2.6392150522,
				"y": -1.7443660348,
				"z": -4.5550162271,
				"element": "H" 
			},
			{
				"x": -1.8359156955,
				"y": 0.3533049869,
				"z": -3.4934538317,
				"element": "H" 
			}
		],
		 "valence_orbital": [ 
			{
				"type": "occ",
				"energy": -0.27782,
				"method": "rhf"
			},
			{
				"type": "occ",
				"energy": -0.26497,
				"method": "rhf"
			},
			{
				"type": "occ",
				"energy": -0.26304,
				"method": "rhf"
			},
			{
				"type": "occ",
				"energy": -0.24087,
				"method": "rhf"
			},
			{
				"type": "occ",
				"energy": -0.23257,
				"method": "rhf"
			},
			{
				"type": "unocc",
				"energy": -0.05084,
				"method": "rhf"
			},
			{
				"type": "unocc",
				"energy": -0.01313,
				"method": "rhf"
			},
			{
				"type": "unocc",
				"energy": 0.02189,
				"method": "rhf"
			},
			{
				"type": "unocc",
				"energy": 0.05258,
				"method": "rhf"
			},
			{
				"type": "unocc",
				"energy": 0.06255,
				"method": "rhf"
			}
		],
		"cosmo_sigma_profile": { 
			"-0.025": 0.0,
			"-0.024": 0.0,
			"-0.023": 0.0,
			"-0.022": 0.0,
			"-0.021": 0.0,
			"-0.02": 0.0,
			"-0.019": 0.0,
			"-0.018": 0.0,
			"-0.017": 0.0,
			"-0.016": 0.0,
			"-0.015": 0.0,
			"-0.014": 0.0,
			"-0.013": 0.0,
			"-0.012": 0.0,
			"-0.011": 0.0,
			"-0.01": 0.0,
			"-0.009": 0.371466044009,
			"-0.008": 3.57004289554,
			"-0.007": 3.96353003114,
			"-0.006": 12.5397813187,
			"-0.005": 16.1324780482,
			"-0.004": 22.9473312488,
			"-0.003": 32.2997454269,
			"-0.002": 60.9831488428,
			"-0.001": 69.0899618229,
			"0.0": 72.7928123191,
			"0.001": 62.3805661434,
			"0.002": 30.8474234551,
			"0.003": 15.8600246185,
			"0.004": 14.2606076816,
			"0.005": 3.79232486331,
			"0.006": 2.70460479618,
			"0.007": 2.69188941249,
			"0.008": 2.87269152548,
			"0.009": 3.28854560408,
			"0.01": 3.57107556388,
			"0.011": 5.99157843952,
			"0.012": 4.27665054388,
			"0.013": 2.63861437402,
			"0.014": 4.64758633554,
			"0.015": 0.567200835933,
			"0.016": 0.0,
			"0.017": 0.0,
			"0.018": 0.0,
			"0.019": 0.0,
			"0.02": 0.0,
			"0.021": 0.0,
			"0.022": 0.0,
			"0.023": 0.0,
			"0.024": 0.0,
			"0.025": 0.0
		}
	}
}
