{
	 "smiles": "OC1=CC=CC=C1O", 
	 "Tm": 379.15, 
	 "num_atms": 14, 
	 "gaussian": { 
		 "optdone": 1, 
		 "sigma_profile": "yes", 
		 "theory": "DFT", 
		 "functional": "B3LYP", 
		 "basiset": "6-31G**", 
		 "properties": { 
			 "R2extent": 1046.1723, 
			 "electric_dipole_moment_norm": 2.48791221911, 
			 "electric_quadrupole_moment_norm": 6.2792918295, 
			 "total_energy": -382.692377668, 
			 "HOMO_LUMO_gap": 0.21422, 
			 "cosmo_polarized_energy": -9.75, 
			 "cosmo_cavitation_energy": 17.79, 
			 "cosmo_dispersion_energy": -13.74, 
			 "cosmo_repulsion_energy": 1.14, 
			 "cosmo_total_nonelectrostatic_energy": 5.2, 
			 "SMD_solvation_energy": 3.74 
		},
		"coords": [
			{
				"x": 1.0955150315,
				"y": 1.3830207013,
				"z": 0.0968182842,
				"element": "O" 
			},
			{
				"x": -0.1888291755,
				"y": 0.8863780862,
				"z": 0.1492874857,
				"element": "C" 
			},
			{
				"x": -1.2465279879,
				"y": 1.3446967034,
				"z": -0.6290108646,
				"element": "C" 
			},
			{
				"x": -2.5128127244,
				"y": 0.765714928,
				"z": -0.4926735055,
				"element": "C" 
			},
			{
				"x": -2.708478724,
				"y": -0.2678750905,
				"z": 0.422657255,
				"element": "C" 
			},
			{
				"x": -1.6454926214,
				"y": -0.7283871356,
				"z": 1.2047444986,
				"element": "C" 
			},
			{
				"x": -0.3828584186,
				"y": -0.1555958501,
				"z": 1.0730748934,
				"element": "C" 
			},
			{
				"x": 0.6558086645,
				"y": -0.6032189702,
				"z": 1.8350084429,
				"element": "O" 
			},
			{
				"x": 1.1454856045,
				"y": 2.090563857,
				"z": -0.5570688112,
				"element": "H" 
			},
			{
				"x": -1.0809732421,
				"y": 2.152007228,
				"z": -1.3398043234,
				"element": "H" 
			},
			{
				"x": -3.3358071178,
				"y": 1.1259081293,
				"z": -1.1016608285,
				"element": "H" 
			},
			{
				"x": -3.6889790138,
				"y": -0.7207433025,
				"z": 0.5325330593,
				"element": "H" 
			},
			{
				"x": -1.7750346069,
				"y": -1.5313437048,
				"z": 1.9231097691,
				"element": "H" 
			},
			{
				"x": 1.436384332,
				"y": -0.0820255796,
				"z": 1.595284645,
				"element": "H" 
			}
		],
		 "valence_orbital": [ 
			{
				"type": "occ",
				"energy": -0.35647,
				"method": "rhf"
			},
			{
				"type": "occ",
				"energy": -0.34072,
				"method": "rhf"
			},
			{
				"type": "occ",
				"energy": -0.32352,
				"method": "rhf"
			},
			{
				"type": "occ",
				"energy": -0.2367,
				"method": "rhf"
			},
			{
				"type": "occ",
				"energy": -0.20661,
				"method": "rhf"
			},
			{
				"type": "unocc",
				"energy": 0.00761,
				"method": "rhf"
			},
			{
				"type": "unocc",
				"energy": 0.02077,
				"method": "rhf"
			},
			{
				"type": "unocc",
				"energy": 0.05474,
				"method": "rhf"
			},
			{
				"type": "unocc",
				"energy": 0.09146,
				"method": "rhf"
			},
			{
				"type": "unocc",
				"energy": 0.1259,
				"method": "rhf"
			}
		],
		"cosmo_sigma_profile": { 
			"-0.025": 0.0,
			"-0.024": 0.0,
			"-0.023": 0.0,
			"-0.022": 0.0,
			"-0.021": 0.0,
			"-0.02": 0.0,
			"-0.019": 0.0128780222067,
			"-0.018": 0.998692497895,
			"-0.017": 0.930857731006,
			"-0.016": 0.92959784874,
			"-0.015": 1.26410039971,
			"-0.014": 1.54756535119,
			"-0.013": 1.13610325907,
			"-0.012": 1.50894914082,
			"-0.011": 1.29236118674,
			"-0.01": 2.19677915616,
			"-0.009": 1.67199981864,
			"-0.008": 1.89243914602,
			"-0.007": 1.68021859295,
			"-0.006": 4.08909208733,
			"-0.005": 9.17744667907,
			"-0.004": 7.99021475642,
			"-0.003": 8.90453963129,
			"-0.002": 7.38269228514,
			"-0.001": 6.61697246995,
			"0.0": 6.22917482373,
			"0.001": 7.1682931181,
			"0.002": 8.14376195159,
			"0.003": 10.8057173791,
			"0.004": 11.5466407713,
			"0.005": 11.9902565806,
			"0.006": 10.5868784844,
			"0.007": 5.44227766192,
			"0.008": 2.17946771055,
			"0.009": 1.24728835122,
			"0.01": 1.87191379813,
			"0.011": 1.85515177851,
			"0.012": 1.36553324959,
			"0.013": 0.0,
			"0.014": 0.0,
			"0.015": 0.0,
			"0.016": 0.0,
			"0.017": 0.0,
			"0.018": 0.0,
			"0.019": 0.0,
			"0.02": 0.0,
			"0.021": 0.0,
			"0.022": 0.0,
			"0.023": 0.0,
			"0.024": 0.0,
			"0.025": 0.0
		}
	}
}
