{
	 "smiles": "CC1=NC2=C(S1)C=C(C=C2)C1=CC=CC=C1", 
	 "Tm": 365.65, 
	 "num_atms": 27, 
	 "gaussian": { 
		 "optdone": 1, 
		 "sigma_profile": "yes", 
		 "theory": "DFT", 
		 "functional": "B3LYP", 
		 "basiset": "6-31G**", 
		 "properties": { 
			 "R2extent": 5397.928, 
			 "electric_dipole_moment_norm": 0.775035624988, 
			 "electric_quadrupole_moment_norm": 12.1220429239, 
			 "total_energy": -993.081593419, 
			 "HOMO_LUMO_gap": 0.17707, 
			 "cosmo_polarized_energy": -7.74, 
			 "cosmo_cavitation_energy": 32.54, 
			 "cosmo_dispersion_energy": -24.5, 
			 "cosmo_repulsion_energy": 1.83, 
			 "cosmo_total_nonelectrostatic_energy": 9.88, 
			 "SMD_solvation_energy": 3.12 
		},
		"coords": [
			{
				"x": 3.1559363069,
				"y": -1.8227632112,
				"z": -4.6046123683,
				"element": "C" 
			},
			{
				"x": 2.4676874481,
				"y": -1.23469808,
				"z": -3.4126347697,
				"element": "C" 
			},
			{
				"x": 2.9527413646,
				"y": -0.2822067235,
				"z": -2.6852774638,
				"element": "N" 
			},
			{
				"x": 2.0927660198,
				"y": 0.056455714,
				"z": -1.6509106064,
				"element": "C" 
			},
			{
				"x": 0.885321423,
				"y": -0.6797661708,
				"z": -1.593974886,
				"element": "C" 
			},
			{
				"x": 0.8657371777,
				"y": -1.8441979733,
				"z": -2.9054149018,
				"element": "S" 
			},
			{
				"x": -0.0679284877,
				"y": -0.4476813543,
				"z": -0.6038803778,
				"element": "C" 
			},
			{
				"x": 0.1750240583,
				"y": 0.5437574598,
				"z": 0.3575840265,
				"element": "C" 
			},
			{
				"x": 1.3821878113,
				"y": 1.2791053024,
				"z": 0.2963828795,
				"element": "C" 
			},
			{
				"x": 2.3321723983,
				"y": 1.046019749,
				"z": -0.6877929417,
				"element": "C" 
			},
			{
				"x": -0.8220736156,
				"y": 0.8163875349,
				"z": 1.424409371,
				"element": "C" 
			},
			{
				"x": -0.4128979679,
				"y": 1.113215412,
				"z": 2.7360518852,
				"element": "C" 
			},
			{
				"x": -1.3480616272,
				"y": 1.3676971378,
				"z": 3.7382007808,
				"element": "C" 
			},
			{
				"x": -2.7141181382,
				"y": 1.3295850254,
				"z": 3.4523246099,
				"element": "C" 
			},
			{
				"x": -3.136006072,
				"y": 1.0359151965,
				"z": 2.1542430446,
				"element": "C" 
			},
			{
				"x": -2.2006151671,
				"y": 0.783814353,
				"z": 1.1517006411,
				"element": "C" 
			},
			{
				"x": 3.3374219174,
				"y": -2.8945441577,
				"z": -4.4702275682,
				"element": "H" 
			},
			{
				"x": 4.1122261759,
				"y": -1.3150666274,
				"z": -4.7414705642,
				"element": "H" 
			},
			{
				"x": 2.5543481402,
				"y": -1.7002183993,
				"z": -5.5116926111,
				"element": "H" 
			},
			{
				"x": -0.9749104455,
				"y": -1.0410496944,
				"z": -0.5554004723,
				"element": "H" 
			},
			{
				"x": 1.5545995049,
				"y": 2.0641259309,
				"z": 1.025750522,
				"element": "H" 
			},
			{
				"x": 3.2518378685,
				"y": 1.6200543134,
				"z": -0.7334405704,
				"element": "H" 
			},
			{
				"x": 0.6461929103,
				"y": 1.1182600005,
				"z": 2.9762002629,
				"element": "H" 
			},
			{
				"x": -1.008657229,
				"y": 1.5871736935,
				"z": 4.7466352818,
				"element": "H" 
			},
			{
				"x": -3.4426316457,
				"y": 1.5274976219,
				"z": 4.2331903674,
				"element": "H" 
			},
			{
				"x": -4.1962223458,
				"y": 1.0129082255,
				"z": 1.9181977511,
				"element": "H" 
			},
			{
				"x": -2.5393777837,
				"y": 0.5857197213,
				"z": 0.1389586779,
				"element": "H" 
			}
		],
		 "valence_orbital": [ 
			{
				"type": "occ",
				"energy": -0.27344,
				"method": "rhf"
			},
			{
				"type": "occ",
				"energy": -0.2645,
				"method": "rhf"
			},
			{
				"type": "occ",
				"energy": -0.25147,
				"method": "rhf"
			},
			{
				"type": "occ",
				"energy": -0.23473,
				"method": "rhf"
			},
			{
				"type": "occ",
				"energy": -0.21853,
				"method": "rhf"
			},
			{
				"type": "unocc",
				"energy": -0.04146,
				"method": "rhf"
			},
			{
				"type": "unocc",
				"energy": -0.00781,
				"method": "rhf"
			},
			{
				"type": "unocc",
				"energy": -0.00249,
				"method": "rhf"
			},
			{
				"type": "unocc",
				"energy": 0.00141,
				"method": "rhf"
			},
			{
				"type": "unocc",
				"energy": 0.01154,
				"method": "rhf"
			}
		],
		"cosmo_sigma_profile": { 
			"-0.025": 0.0,
			"-0.024": 0.0,
			"-0.023": 0.0,
			"-0.022": 0.0,
			"-0.021": 0.0,
			"-0.02": 0.0,
			"-0.019": 0.0,
			"-0.018": 0.0,
			"-0.017": 0.0,
			"-0.016": 0.0,
			"-0.015": 0.0,
			"-0.014": 0.0,
			"-0.013": 0.0,
			"-0.012": 0.0,
			"-0.011": 0.0,
			"-0.01": 0.0,
			"-0.009": 0.0,
			"-0.008": 0.0287917892939,
			"-0.007": 2.59493211942,
			"-0.006": 14.5344622399,
			"-0.005": 24.8035120257,
			"-0.004": 23.5717574992,
			"-0.003": 21.3739077622,
			"-0.002": 20.2663430625,
			"-0.001": 18.7823266843,
			"0.0": 15.1353966456,
			"0.001": 19.7161398373,
			"0.002": 22.8966625231,
			"0.003": 25.8889133513,
			"0.004": 24.372650596,
			"0.005": 13.194298683,
			"0.006": 7.77426228448,
			"0.007": 1.3446169943,
			"0.008": 1.0654237666,
			"0.009": 1.33285201323,
			"0.01": 0.928206221556,
			"0.011": 1.23609235515,
			"0.012": 0.396398130253,
			"0.013": 1.29797137686,
			"0.014": 0.712346682006,
			"0.015": 0.412451064255,
			"0.016": 0.0057489744871,
			"0.017": 0.0,
			"0.018": 0.0,
			"0.019": 0.0,
			"0.02": 0.0,
			"0.021": 0.0,
			"0.022": 0.0,
			"0.023": 0.0,
			"0.024": 0.0,
			"0.025": 0.0
		}
	}
}
