{
	 "smiles": "BrC1=CC=C(CCCC(=O)C2=CC=CC=C2)C=C1", 
	 "Tm": 358.15, 
	 "num_atms": 33, 
	 "gaussian": { 
		 "optdone": 1, 
		 "sigma_profile": "yes", 
		 "theory": "DFT", 
		 "functional": "B3LYP", 
		 "basiset": "6-31G**", 
		 "properties": { 
			 "R2extent": 9584.9483, 
			 "electric_dipole_moment_norm": 2.50908745563, 
			 "electric_quadrupole_moment_norm": 18.7186491377, 
			 "total_energy": -3265.38595093, 
			 "HOMO_LUMO_gap": 0.17632, 
			 "cosmo_polarized_energy": -9.69, 
			 "cosmo_cavitation_energy": 39.16, 
			 "cosmo_dispersion_energy": -27.54, 
			 "cosmo_repulsion_energy": 2.14, 
			 "cosmo_total_nonelectrostatic_energy": 13.76, 
			 "SMD_solvation_energy": 5.32 
		},
		"coords": [
			{
				"x": -0.0223610892,
				"y": 3.4131426276,
				"z": 4.3420822694,
				"element": "Br" 
			},
			{
				"x": -0.3394382353,
				"y": 2.6705837088,
				"z": 2.6067488413,
				"element": "C" 
			},
			{
				"x": -1.5868813677,
				"y": 2.8372524893,
				"z": 2.0065385441,
				"element": "C" 
			},
			{
				"x": -1.8083471019,
				"y": 2.2936047602,
				"z": 0.7420187039,
				"element": "C" 
			},
			{
				"x": -0.8064170867,
				"y": 1.5847673173,
				"z": 0.0620030223,
				"element": "C" 
			},
			{
				"x": -1.0714484313,
				"y": 0.9818095125,
				"z": -1.3014066742,
				"element": "C" 
			},
			{
				"x": -1.9391129633,
				"y": -0.2974656347,
				"z": -1.2657601632,
				"element": "C" 
			},
			{
				"x": -1.3164202624,
				"y": -1.4726246896,
				"z": -0.5046614138,
				"element": "C" 
			},
			{
				"x": -0.1327881812,
				"y": -2.1177274657,
				"z": -1.2200687095,
				"element": "C" 
			},
			{
				"x": 0.2195042406,
				"y": -1.7320662838,
				"z": -2.3269311119,
				"element": "O" 
			},
			{
				"x": 0.5889485382,
				"y": -3.2491967137,
				"z": -0.5478585156,
				"element": "C" 
			},
			{
				"x": 0.2327920261,
				"y": -3.736925109,
				"z": 0.7192411706,
				"element": "C" 
			},
			{
				"x": 0.9409066002,
				"y": -4.792989378,
				"z": 1.292764403,
				"element": "C" 
			},
			{
				"x": 2.0107238343,
				"y": -5.3716670029,
				"z": 0.6072760754,
				"element": "C" 
			},
			{
				"x": 2.372607353,
				"y": -4.8926110943,
				"z": -0.6556347831,
				"element": "C" 
			},
			{
				"x": 1.6664461915,
				"y": -3.8394305557,
				"z": -1.2283071814,
				"element": "C" 
			},
			{
				"x": 0.4364404972,
				"y": 1.4404084149,
				"z": 0.6929992644,
				"element": "C" 
			},
			{
				"x": 0.6790820409,
				"y": 1.9762176817,
				"z": 1.9597231883,
				"element": "C" 
			},
			{
				"x": -2.3691335051,
				"y": 3.3870398579,
				"z": 2.517827158,
				"element": "H" 
			},
			{
				"x": -2.7798479253,
				"y": 2.4312443961,
				"z": 0.2730887986,
				"element": "H" 
			},
			{
				"x": -1.5849981133,
				"y": 1.720729738,
				"z": -1.9287541227,
				"element": "H" 
			},
			{
				"x": -0.1259113242,
				"y": 0.7503346166,
				"z": -1.7990011807,
				"element": "H" 
			},
			{
				"x": -2.1372102196,
				"y": -0.6070487934,
				"z": -2.2968942802,
				"element": "H" 
			},
			{
				"x": -2.9068797862,
				"y": -0.0621314083,
				"z": -0.8068147718,
				"element": "H" 
			},
			{
				"x": -0.9984545793,
				"y": -1.1591437339,
				"z": 0.497947727,
				"element": "H" 
			},
			{
				"x": -2.0698763694,
				"y": -2.2555417724,
				"z": -0.3413043952,
				"element": "H" 
			},
			{
				"x": -0.5956465823,
				"y": -3.2971486395,
				"z": 1.2645352688,
				"element": "H" 
			},
			{
				"x": 0.6582867194,
				"y": -5.1632411794,
				"z": 2.2738304435,
				"element": "H" 
			},
			{
				"x": 2.5614628862,
				"y": -6.1937590588,
				"z": 1.0556167331,
				"element": "H" 
			},
			{
				"x": 3.204572122,
				"y": -5.3422093218,
				"z": -1.1899121868,
				"element": "H" 
			},
			{
				"x": 1.9271087321,
				"y": -3.4504718996,
				"z": -2.2069079103,
				"element": "H" 
			},
			{
				"x": 1.2349808407,
				"y": 0.9059337863,
				"z": 0.1846110349,
				"element": "H" 
			},
			{
				"x": 1.6471105014,
				"y": 1.8582308272,
				"z": 2.4335647539,
				"element": "H" 
			}
		],
		 "valence_orbital": [ 
			{
				"type": "occ",
				"energy": -0.26348,
				"method": "rhf"
			},
			{
				"type": "occ",
				"energy": -0.26055,
				"method": "rhf"
			},
			{
				"type": "occ",
				"energy": -0.26022,
				"method": "rhf"
			},
			{
				"type": "occ",
				"energy": -0.25125,
				"method": "rhf"
			},
			{
				"type": "occ",
				"energy": -0.23451,
				"method": "rhf"
			},
			{
				"type": "unocc",
				"energy": -0.05819,
				"method": "rhf"
			},
			{
				"type": "unocc",
				"energy": -0.01319,
				"method": "rhf"
			},
			{
				"type": "unocc",
				"energy": -0.01166,
				"method": "rhf"
			},
			{
				"type": "unocc",
				"energy": -0.01011,
				"method": "rhf"
			},
			{
				"type": "unocc",
				"energy": 0.00995,
				"method": "rhf"
			}
		],
		"cosmo_sigma_profile": { 
			"-0.025": 0.0,
			"-0.024": 0.0,
			"-0.023": 0.0,
			"-0.022": 0.0,
			"-0.021": 0.0,
			"-0.02": 0.0,
			"-0.019": 0.0,
			"-0.018": 0.0,
			"-0.017": 0.0,
			"-0.016": 0.0,
			"-0.015": 0.0,
			"-0.014": 0.0,
			"-0.013": 0.0,
			"-0.012": 0.0,
			"-0.011": 0.0,
			"-0.01": 0.0,
			"-0.009": 0.0,
			"-0.008": 0.0,
			"-0.007": 2.77205263548,
			"-0.006": 18.1873582445,
			"-0.005": 23.8510306414,
			"-0.004": 29.099222707,
			"-0.003": 27.0586029305,
			"-0.002": 24.6116247991,
			"-0.001": 26.1492213775,
			"0.0": 22.9622268191,
			"0.001": 21.9819981418,
			"0.002": 24.6582760686,
			"0.003": 27.748005202,
			"0.004": 33.1705211902,
			"0.005": 17.6937532756,
			"0.006": 1.80563627862,
			"0.007": 1.47940877037,
			"0.008": 2.18826658725,
			"0.009": 2.05211403859,
			"0.01": 1.57784207031,
			"0.011": 2.34387637,
			"0.012": 3.27748939776,
			"0.013": 0.421933843452,
			"0.014": 0.0,
			"0.015": 0.0,
			"0.016": 0.0,
			"0.017": 0.0,
			"0.018": 0.0,
			"0.019": 0.0,
			"0.02": 0.0,
			"0.021": 0.0,
			"0.022": 0.0,
			"0.023": 0.0,
			"0.024": 0.0,
			"0.025": 0.0
		}
	}
}
