{
	 "smiles": "NC1=CC(Cl)=C(SC2=NC=CC=C2)C=C1", 
	 "Tm": 384.15, 
	 "num_atms": 24, 
	 "gaussian": { 
		 "optdone": 1, 
		 "sigma_profile": "yes", 
		 "theory": "DFT", 
		 "functional": "B3LYP", 
		 "basiset": "6-31G**", 
		 "properties": { 
			 "R2extent": 4561.2921, 
			 "electric_dipole_moment_norm": 5.50430267609, 
			 "electric_quadrupole_moment_norm": 16.4632850194, 
			 "total_energy": -1392.47133883, 
			 "HOMO_LUMO_gap": 0.19136, 
			 "cosmo_polarized_energy": -15.53, 
			 "cosmo_cavitation_energy": 31.83, 
			 "cosmo_dispersion_energy": -23.31, 
			 "cosmo_repulsion_energy": 1.8, 
			 "cosmo_total_nonelectrostatic_energy": 10.32, 
			 "SMD_solvation_energy": 3.34 
		},
		"coords": [
			{
				"x": -1.1267654811,
				"y": 3.2606912486,
				"z": 2.88015047,
				"element": "N" 
			},
			{
				"x": -0.9845508873,
				"y": 2.2356558352,
				"z": 1.9571055611,
				"element": "C" 
			},
			{
				"x": -1.2657762633,
				"y": 0.906882774,
				"z": 2.319539515,
				"element": "C" 
			},
			{
				"x": -1.0778491773,
				"y": -0.127370899,
				"z": 1.4078973321,
				"element": "C" 
			},
			{
				"x": -1.4599903851,
				"y": -1.7514502505,
				"z": 1.9483274785,
				"element": "Cl" 
			},
			{
				"x": -0.594586035,
				"y": 0.1097056951,
				"z": 0.106641087,
				"element": "C" 
			},
			{
				"x": -0.4336406335,
				"y": -1.1554202793,
				"z": -1.1410932098,
				"element": "S" 
			},
			{
				"x": 1.1612303408,
				"y": -1.9073721399,
				"z": -0.8051511076,
				"element": "C" 
			},
			{
				"x": 1.4339007515,
				"y": -2.901617325,
				"z": -1.6542311425,
				"element": "N" 
			},
			{
				"x": 2.6003736437,
				"y": -3.5410365772,
				"z": -1.5125225222,
				"element": "C" 
			},
			{
				"x": 3.5380770665,
				"y": -3.2267040904,
				"z": -0.5300934654,
				"element": "C" 
			},
			{
				"x": 3.2378275681,
				"y": -2.1840171819,
				"z": 0.3484797552,
				"element": "C" 
			},
			{
				"x": 2.0308236384,
				"y": -1.5032786118,
				"z": 0.2171341481,
				"element": "C" 
			},
			{
				"x": -0.3199085734,
				"y": 1.4453573153,
				"z": -0.233971616,
				"element": "C" 
			},
			{
				"x": -0.5066885657,
				"y": 2.4911874823,
				"z": 0.6589026117,
				"element": "C" 
			},
			{
				"x": -1.2223358157,
				"y": 4.1918736016,
				"z": 2.5017138616,
				"element": "H" 
			},
			{
				"x": -1.747994299,
				"y": 3.0840590924,
				"z": 3.6563284426,
				"element": "H" 
			},
			{
				"x": -1.6328354081,
				"y": 0.6791185435,
				"z": 3.3149031672,
				"element": "H" 
			},
			{
				"x": 2.7893393472,
				"y": -4.3446956284,
				"z": -2.2222341932,
				"element": "H" 
			},
			{
				"x": 4.4686462047,
				"y": -3.7797798796,
				"z": -0.4578999692,
				"element": "H" 
			},
			{
				"x": 3.9370307334,
				"y": -1.9008755324,
				"z": 1.1305838278,
				"element": "H" 
			},
			{
				"x": 1.7705172991,
				"y": -0.6882242586,
				"z": 0.8813634701,
				"element": "H" 
			},
			{
				"x": 0.0450068274,
				"y": 1.6543621355,
				"z": -1.2344329706,
				"element": "H" 
			},
			{
				"x": -0.2804518966,
				"y": 3.5102489305,
				"z": 0.3574594684,
				"element": "H" 
			}
		],
		 "valence_orbital": [ 
			{
				"type": "occ",
				"energy": -0.27508,
				"method": "rhf"
			},
			{
				"type": "occ",
				"energy": -0.25389,
				"method": "rhf"
			},
			{
				"type": "occ",
				"energy": -0.25342,
				"method": "rhf"
			},
			{
				"type": "occ",
				"energy": -0.22209,
				"method": "rhf"
			},
			{
				"type": "occ",
				"energy": -0.21295,
				"method": "rhf"
			},
			{
				"type": "unocc",
				"energy": -0.02159,
				"method": "rhf"
			},
			{
				"type": "unocc",
				"energy": -0.01731,
				"method": "rhf"
			},
			{
				"type": "unocc",
				"energy": -0.01306,
				"method": "rhf"
			},
			{
				"type": "unocc",
				"energy": -0.00365,
				"method": "rhf"
			},
			{
				"type": "unocc",
				"energy": 0.02277,
				"method": "rhf"
			}
		],
		"cosmo_sigma_profile": { 
			"-0.025": 0.0,
			"-0.024": 0.0,
			"-0.023": 0.0,
			"-0.022": 0.0,
			"-0.021": 0.0,
			"-0.02": 0.0,
			"-0.019": 0.0,
			"-0.018": 0.0,
			"-0.017": 0.0,
			"-0.016": 0.0,
			"-0.015": 0.0,
			"-0.014": 0.333612706836,
			"-0.013": 2.61630651967,
			"-0.012": 3.39648015503,
			"-0.011": 3.44174662017,
			"-0.01": 3.06996940542,
			"-0.009": 3.26721668402,
			"-0.008": 3.60673101523,
			"-0.007": 8.90613102343,
			"-0.006": 14.1826498671,
			"-0.005": 15.0874823905,
			"-0.004": 10.8508671679,
			"-0.003": 10.5813687214,
			"-0.002": 12.2500392557,
			"-0.001": 14.2006540314,
			"0.0": 16.4209929957,
			"0.001": 19.7460614245,
			"0.002": 26.1474625405,
			"0.003": 29.9901782407,
			"0.004": 22.0119705174,
			"0.005": 11.1334870156,
			"0.006": 7.66847391452,
			"0.007": 6.43832423484,
			"0.008": 4.4698004853,
			"0.009": 2.04835906215,
			"0.01": 1.75627650485,
			"0.011": 1.78564456894,
			"0.012": 1.62088795803,
			"0.013": 0.843315071286,
			"0.014": 0.777138529803,
			"0.015": 0.630174274404,
			"0.016": 0.0751043145612,
			"0.017": 0.0,
			"0.018": 0.0,
			"0.019": 0.0,
			"0.02": 0.0,
			"0.021": 0.0,
			"0.022": 0.0,
			"0.023": 0.0,
			"0.024": 0.0,
			"0.025": 0.0
		}
	}
}
