{
	 "smiles": "CC(=C)C(N)=O", 
	 "Tm": 383.15, 
	 "num_atms": 13, 
	 "gaussian": { 
		 "optdone": 1, 
		 "sigma_profile": "yes", 
		 "theory": "DFT", 
		 "functional": "B3LYP", 
		 "basiset": "6-31G**", 
		 "properties": { 
			 "R2extent": 875.083, 
			 "electric_dipole_moment_norm": 3.7413790372, 
			 "electric_quadrupole_moment_norm": 11.7153396246, 
			 "total_energy": -286.617799368, 
			 "HOMO_LUMO_gap": 0.22028, 
			 "cosmo_polarized_energy": -12.16, 
			 "cosmo_cavitation_energy": 16.71, 
			 "cosmo_dispersion_energy": -12.23, 
			 "cosmo_repulsion_energy": 1.06, 
			 "cosmo_total_nonelectrostatic_energy": 5.54, 
			 "SMD_solvation_energy": 4.58 
		},
		"coords": [
			{
				"x": 1.4195835599,
				"y": -0.4474893156,
				"z": 0.4720384343,
				"element": "C" 
			},
			{
				"x": 0.1713364469,
				"y": 0.4000126122,
				"z": 0.4203578994,
				"element": "C" 
			},
			{
				"x": -0.7407975337,
				"y": 0.29194048,
				"z": -0.551265717,
				"element": "C" 
			},
			{
				"x": -0.0943341802,
				"y": 1.4271651249,
				"z": 1.496525166,
				"element": "C" 
			},
			{
				"x": 0.8537001752,
				"y": 1.5192777985,
				"z": 2.4812774678,
				"element": "N" 
			},
			{
				"x": -1.0915786133,
				"y": 2.1393123011,
				"z": 1.5032788422,
				"element": "O" 
			},
			{
				"x": 2.3291505192,
				"y": 0.1661649877,
				"z": 0.4394827463,
				"element": "H" 
			},
			{
				"x": 1.4576331534,
				"y": -1.1351987474,
				"z": -0.3762141119,
				"element": "H" 
			},
			{
				"x": 1.4632257287,
				"y": -1.051299284,
				"z": 1.3877051587,
				"element": "H" 
			},
			{
				"x": -0.6283674937,
				"y": -0.4202177733,
				"z": -1.3631713628,
				"element": "H" 
			},
			{
				"x": -1.6198927256,
				"y": 0.9270538912,
				"z": -0.5384260592,
				"element": "H" 
			},
			{
				"x": 0.697769943,
				"y": 2.1971688894,
				"z": 3.2108495323,
				"element": "H" 
			},
			{
				"x": 1.68357102,
				"y": 0.9525090351,
				"z": 2.5106620039,
				"element": "H" 
			}
		],
		 "valence_orbital": [ 
			{
				"type": "occ",
				"energy": -0.38838,
				"method": "rhf"
			},
			{
				"type": "occ",
				"energy": -0.35975,
				"method": "rhf"
			},
			{
				"type": "occ",
				"energy": -0.26933,
				"method": "rhf"
			},
			{
				"type": "occ",
				"energy": -0.25483,
				"method": "rhf"
			},
			{
				"type": "occ",
				"energy": -0.24502,
				"method": "rhf"
			},
			{
				"type": "unocc",
				"energy": -0.02474,
				"method": "rhf"
			},
			{
				"type": "unocc",
				"energy": 0.07107,
				"method": "rhf"
			},
			{
				"type": "unocc",
				"energy": 0.09399,
				"method": "rhf"
			},
			{
				"type": "unocc",
				"energy": 0.11596,
				"method": "rhf"
			},
			{
				"type": "unocc",
				"energy": 0.1279,
				"method": "rhf"
			}
		],
		"cosmo_sigma_profile": { 
			"-0.025": 0.0,
			"-0.024": 0.0,
			"-0.023": 0.0,
			"-0.022": 0.0,
			"-0.021": 0.0,
			"-0.02": 0.0,
			"-0.019": 0.0,
			"-0.018": 0.0,
			"-0.017": 0.0,
			"-0.016": 0.0,
			"-0.015": 0.0,
			"-0.014": 0.676461939506,
			"-0.013": 2.52473619871,
			"-0.012": 1.81912607364,
			"-0.011": 2.33681228215,
			"-0.01": 2.78533397469,
			"-0.009": 2.00865154112,
			"-0.008": 2.52440828192,
			"-0.007": 2.48574385866,
			"-0.006": 4.02197833752,
			"-0.005": 8.36933365688,
			"-0.004": 10.0716900804,
			"-0.003": 8.69478595959,
			"-0.002": 8.87757333127,
			"-0.001": 11.6992192934,
			"0.0": 10.0124445222,
			"0.001": 6.88801219203,
			"0.002": 6.61999019684,
			"0.003": 6.02766653459,
			"0.004": 7.21606363807,
			"0.005": 4.2083869484,
			"0.006": 2.14045307269,
			"0.007": 1.50164715873,
			"0.008": 1.42387955736,
			"0.009": 1.85522087626,
			"0.01": 1.18115868799,
			"0.011": 1.55176260577,
			"0.012": 1.6519809228,
			"0.013": 2.75944480403,
			"0.014": 5.75042545479,
			"0.015": 1.88346881455,
			"0.016": 0.00708431344327,
			"0.017": 0.0,
			"0.018": 0.0,
			"0.019": 0.0,
			"0.02": 0.0,
			"0.021": 0.0,
			"0.022": 0.0,
			"0.023": 0.0,
			"0.024": 0.0,
			"0.025": 0.0
		}
	}
}
