{
	 "smiles": "FC(F)(F)C1=CC(=CC=C1)S(=O)(=O)N1CCNCC1", 
	 "Tm": 378.15, 
	 "num_atms": 32, 
	 "gaussian": { 
		 "optdone": 1, 
		 "sigma_profile": "yes", 
		 "theory": "DFT", 
		 "functional": "B3LYP", 
		 "basiset": "6-31G**", 
		 "properties": { 
			 "R2extent": 6498.3736, 
			 "electric_dipole_moment_norm": 4.37897084827, 
			 "electric_quadrupole_moment_norm": 12.2227156483, 
			 "total_energy": -1384.58307733, 
			 "HOMO_LUMO_gap": 0.17847, 
			 "cosmo_polarized_energy": -15.49, 
			 "cosmo_cavitation_energy": 36.95, 
			 "cosmo_dispersion_energy": -26.05, 
			 "cosmo_repulsion_energy": 1.91, 
			 "cosmo_total_nonelectrostatic_energy": 12.81, 
			 "SMD_solvation_energy": 2.91 
		},
		"coords": [
			{
				"x": -3.6749342021,
				"y": 3.3088262382,
				"z": 1.9114457963,
				"element": "F" 
			},
			{
				"x": -3.2711031053,
				"y": 2.9536304827,
				"z": 0.671511271,
				"element": "C" 
			},
			{
				"x": -2.331293321,
				"y": 3.8387868603,
				"z": 0.2776849982,
				"element": "F" 
			},
			{
				"x": -4.3335205692,
				"y": 3.1083817242,
				"z": -0.148348103,
				"element": "F" 
			},
			{
				"x": -2.7532080523,
				"y": 1.5383224901,
				"z": 0.6442112451,
				"element": "C" 
			},
			{
				"x": -1.7281359061,
				"y": 1.1904546196,
				"z": -0.2371805585,
				"element": "C" 
			},
			{
				"x": -1.2988437776,
				"y": -0.136699916,
				"z": -0.2834148061,
				"element": "C" 
			},
			{
				"x": -1.8860007915,
				"y": -1.1164560496,
				"z": 0.5214588672,
				"element": "C" 
			},
			{
				"x": -2.9104473946,
				"y": -0.7544735467,
				"z": 1.3965886632,
				"element": "C" 
			},
			{
				"x": -3.3416396568,
				"y": 0.5702589202,
				"z": 1.463407922,
				"element": "C" 
			},
			{
				"x": 0.0648832106,
				"y": -0.5840886493,
				"z": -1.3744043306,
				"element": "S" 
			},
			{
				"x": 0.1130754482,
				"y": 0.426017554,
				"z": -2.4325437951,
				"element": "O" 
			},
			{
				"x": -0.0679658104,
				"y": -2.014596259,
				"z": -1.6580654387,
				"element": "O" 
			},
			{
				"x": 1.4720439339,
				"y": -0.3992299765,
				"z": -0.4847601326,
				"element": "N" 
			},
			{
				"x": 1.824286343,
				"y": -1.4032994376,
				"z": 0.5253126029,
				"element": "C" 
			},
			{
				"x": 3.3746925876,
				"y": -1.5168982587,
				"z": 0.5713377186,
				"element": "C" 
			},
			{
				"x": 4.0666132391,
				"y": -0.2855039705,
				"z": 0.1714106406,
				"element": "N" 
			},
			{
				"x": 3.2935500621,
				"y": 0.8946712275,
				"z": 0.5378796125,
				"element": "C" 
			},
			{
				"x": 1.9167823366,
				"y": 0.9735198737,
				"z": -0.178611631,
				"element": "C" 
			},
			{
				"x": -1.2820915117,
				"y": 1.9294598224,
				"z": -0.89211963,
				"element": "H" 
			},
			{
				"x": -1.5570605856,
				"y": -2.1465420693,
				"z": 0.4397766903,
				"element": "H" 
			},
			{
				"x": -3.3768344862,
				"y": -1.5075013317,
				"z": 2.0239229829,
				"element": "H" 
			},
			{
				"x": -4.1331382124,
				"y": 0.855654772,
				"z": 2.1479883045,
				"element": "H" 
			},
			{
				"x": 1.3788333415,
				"y": -2.3568687075,
				"z": 0.2405471389,
				"element": "H" 
			},
			{
				"x": 1.4232808641,
				"y": -1.1181558298,
				"z": 1.510599721,
				"element": "H" 
			},
			{
				"x": 3.6731286856,
				"y": -1.7879093043,
				"z": 1.5927954831,
				"element": "H" 
			},
			{
				"x": 3.7086361844,
				"y": -2.3218874603,
				"z": -0.0889857542,
				"element": "H" 
			},
			{
				"x": 4.1925130908,
				"y": -0.2934834704,
				"z": -0.8373399498,
				"element": "H" 
			},
			{
				"x": 3.867245853,
				"y": 1.7986307404,
				"z": 0.3113006661,
				"element": "H" 
			},
			{
				"x": 3.1501930948,
				"y": 0.8773191536,
				"z": 1.6248231413,
				"element": "H" 
			},
			{
				"x": 1.1905740521,
				"y": 1.5067961616,
				"z": 0.456713974,
				"element": "H" 
			},
			{
				"x": 1.9985850552,
				"y": 1.5120635969,
				"z": -1.1248433099,
				"element": "H" 
			}
		],
		 "valence_orbital": [ 
			{
				"type": "occ",
				"energy": -0.30727,
				"method": "rhf"
			},
			{
				"type": "occ",
				"energy": -0.29207,
				"method": "rhf"
			},
			{
				"type": "occ",
				"energy": -0.28835,
				"method": "rhf"
			},
			{
				"type": "occ",
				"energy": -0.25939,
				"method": "rhf"
			},
			{
				"type": "occ",
				"energy": -0.23355,
				"method": "rhf"
			},
			{
				"type": "unocc",
				"energy": -0.05508,
				"method": "rhf"
			},
			{
				"type": "unocc",
				"energy": -0.044,
				"method": "rhf"
			},
			{
				"type": "unocc",
				"energy": 0.04776,
				"method": "rhf"
			},
			{
				"type": "unocc",
				"energy": 0.07196,
				"method": "rhf"
			},
			{
				"type": "unocc",
				"energy": 0.07431,
				"method": "rhf"
			}
		],
		"cosmo_sigma_profile": { 
			"-0.025": 0.0,
			"-0.024": 0.0,
			"-0.023": 0.0,
			"-0.022": 0.0,
			"-0.021": 0.0,
			"-0.02": 0.0,
			"-0.019": 0.0,
			"-0.018": 0.0,
			"-0.017": 0.0,
			"-0.016": 0.0,
			"-0.015": 0.0,
			"-0.014": 0.0,
			"-0.013": 0.0,
			"-0.012": 0.0,
			"-0.011": 0.0437209464585,
			"-0.01": 1.10679718192,
			"-0.009": 0.958992221759,
			"-0.008": 4.73467408516,
			"-0.007": 8.77171983206,
			"-0.006": 10.0232230778,
			"-0.005": 25.0850161171,
			"-0.004": 33.2954617224,
			"-0.003": 26.9756992273,
			"-0.002": 19.8450086365,
			"-0.001": 17.2911459181,
			"0.0": 21.3095689575,
			"0.001": 21.2049157139,
			"0.002": 28.9350054317,
			"0.003": 24.7234747399,
			"0.004": 4.31516128686,
			"0.005": 5.73901785583,
			"0.006": 3.71823842409,
			"0.007": 3.43237618162,
			"0.008": 4.64601436965,
			"0.009": 4.85901900445,
			"0.01": 6.47454786954,
			"0.011": 9.2315062415,
			"0.012": 3.042271667,
			"0.013": 0.369237519843,
			"0.014": 0.676812965835,
			"0.015": 0.374147550001,
			"0.016": 0.703531197874,
			"0.017": 0.657685375584,
			"0.018": 0.28151758966,
			"0.019": 0.0,
			"0.02": 0.0,
			"0.021": 0.0,
			"0.022": 0.0,
			"0.023": 0.0,
			"0.024": 0.0,
			"0.025": 0.0
		}
	}
}
