{
	 "smiles": "NC1=NC(NC2CC2)=NC(N)=N1", 
	 "Tm": 498.15, 
	 "num_atms": 22, 
	 "gaussian": { 
		 "optdone": 1, 
		 "sigma_profile": "yes", 
		 "theory": "DFT", 
		 "functional": "B3LYP", 
		 "basiset": "6-31G**", 
		 "properties": { 
			 "R2extent": 2457.3714, 
			 "electric_dipole_moment_norm": 0.237531871546, 
			 "electric_quadrupole_moment_norm": 9.76659970051, 
			 "total_energy": -563.19707319, 
			 "HOMO_LUMO_gap": 0.24157, 
			 "cosmo_polarized_energy": -15.63, 
			 "cosmo_cavitation_energy": 26.27, 
			 "cosmo_dispersion_energy": -19.66, 
			 "cosmo_repulsion_energy": 1.63, 
			 "cosmo_total_nonelectrostatic_energy": 8.25, 
			 "SMD_solvation_energy": -0.45 
		},
		"coords": [
			{
				"x": -1.8565688631,
				"y": 0.3922037529,
				"z": -2.5086581834,
				"element": "N" 
			},
			{
				"x": -1.5462972114,
				"y": -0.2285717767,
				"z": -1.3367203292,
				"element": "C" 
			},
			{
				"x": -0.6132601482,
				"y": 0.3651461183,
				"z": -0.5713231025,
				"element": "N" 
			},
			{
				"x": -0.3231809773,
				"y": -0.3199509866,
				"z": 0.5446881304,
				"element": "C" 
			},
			{
				"x": 0.6328741149,
				"y": 0.1844564702,
				"z": 1.3781254129,
				"element": "N" 
			},
			{
				"x": 1.2113275973,
				"y": 1.4864160852,
				"z": 1.2393265095,
				"element": "C" 
			},
			{
				"x": 2.3511208115,
				"y": 1.6840188626,
				"z": 0.2743263157,
				"element": "C" 
			},
			{
				"x": 2.6128311038,
				"y": 1.6753942746,
				"z": 1.7603723157,
				"element": "C" 
			},
			{
				"x": -0.881775348,
				"y": -1.4819763383,
				"z": 0.9368350048,
				"element": "N" 
			},
			{
				"x": -1.8053820977,
				"y": -1.9480985794,
				"z": 0.0840836039,
				"element": "C" 
			},
			{
				"x": -2.444095875,
				"y": -3.1000057246,
				"z": 0.4363494396,
				"element": "N" 
			},
			{
				"x": -2.1857933386,
				"y": -1.378952395,
				"z": -1.0736573843,
				"element": "N" 
			},
			{
				"x": -2.6852570815,
				"y": 0.0858903529,
				"z": -2.9917524267,
				"element": "H" 
			},
			{
				"x": -1.5376919144,
				"y": 1.3397603321,
				"z": -2.6286987635,
				"element": "H" 
			},
			{
				"x": 0.6917962385,
				"y": -0.2847549655,
				"z": 2.2706512622,
				"element": "H" 
			},
			{
				"x": 0.519408308,
				"y": 2.3206760586,
				"z": 1.3514928779,
				"element": "H" 
			},
			{
				"x": 2.4016272575,
				"y": 2.6272282899,
				"z": -0.2602454298,
				"element": "H" 
			},
			{
				"x": 2.6605690922,
				"y": 0.8171277138,
				"z": -0.2989084302,
				"element": "H" 
			},
			{
				"x": 3.1119188523,
				"y": 0.8053023671,
				"z": 2.1772090675,
				"element": "H" 
			},
			{
				"x": 2.8479234579,
				"y": 2.6103953616,
				"z": 2.2591675406,
				"element": "H" 
			},
			{
				"x": -2.0341519294,
				"y": -3.6459639328,
				"z": 1.1767268779,
				"element": "H" 
			},
			{
				"x": -2.9737420493,
				"y": -3.569441341,
				"z": -0.2801903089,
				"element": "H" 
			}
		],
		 "valence_orbital": [ 
			{
				"type": "occ",
				"energy": -0.24755,
				"method": "rhf"
			},
			{
				"type": "occ",
				"energy": -0.24685,
				"method": "rhf"
			},
			{
				"type": "occ",
				"energy": -0.24148,
				"method": "rhf"
			},
			{
				"type": "occ",
				"energy": -0.22804,
				"method": "rhf"
			},
			{
				"type": "occ",
				"energy": -0.21962,
				"method": "rhf"
			},
			{
				"type": "unocc",
				"energy": 0.02195,
				"method": "rhf"
			},
			{
				"type": "unocc",
				"energy": 0.02501,
				"method": "rhf"
			},
			{
				"type": "unocc",
				"energy": 0.0995,
				"method": "rhf"
			},
			{
				"type": "unocc",
				"energy": 0.10121,
				"method": "rhf"
			},
			{
				"type": "unocc",
				"energy": 0.1081,
				"method": "rhf"
			}
		],
		"cosmo_sigma_profile": { 
			"-0.025": 0.0,
			"-0.024": 0.0,
			"-0.023": 0.0,
			"-0.022": 0.0,
			"-0.021": 0.0,
			"-0.02": 0.0,
			"-0.019": 0.0,
			"-0.018": 0.0,
			"-0.017": 0.0,
			"-0.016": 0.0,
			"-0.015": 0.0,
			"-0.014": 1.05389628374,
			"-0.013": 4.29279318725,
			"-0.012": 4.78493486039,
			"-0.011": 4.79345500462,
			"-0.01": 4.60023259679,
			"-0.009": 3.99369452335,
			"-0.008": 4.24704381088,
			"-0.007": 4.63866705976,
			"-0.006": 3.94560201797,
			"-0.005": 10.0447993789,
			"-0.004": 13.9764670585,
			"-0.003": 9.5127626023,
			"-0.002": 13.1962825632,
			"-0.001": 11.5444617119,
			"0.0": 15.3880661541,
			"0.001": 14.9510903587,
			"0.002": 14.1249478424,
			"0.003": 10.5661230344,
			"0.004": 7.48833561855,
			"0.005": 9.15872364126,
			"0.006": 7.72430676454,
			"0.007": 5.79845485749,
			"0.008": 5.23860147007,
			"0.009": 6.17599056477,
			"0.01": 3.60927603678,
			"0.011": 2.63084271476,
			"0.012": 3.5369492301,
			"0.013": 3.35181586382,
			"0.014": 2.49969596611,
			"0.015": 0.297735813617,
			"0.016": 0.0,
			"0.017": 0.0,
			"0.018": 0.0,
			"0.019": 0.0,
			"0.02": 0.0,
			"0.021": 0.0,
			"0.022": 0.0,
			"0.023": 0.0,
			"0.024": 0.0,
			"0.025": 0.0
		}
	}
}
