{
	 "smiles": "CCOC(=O)C1=NN(C=N1)C1=CC=CC=C1", 
	 "Tm": 323.15, 
	 "num_atms": 27, 
	 "gaussian": { 
		 "optdone": 1, 
		 "sigma_profile": "yes", 
		 "theory": "DFT", 
		 "functional": "B3LYP", 
		 "basiset": "6-31G**", 
		 "properties": { 
			 "R2extent": 5397.7885, 
			 "electric_dipole_moment_norm": 4.67665377166, 
			 "electric_quadrupole_moment_norm": 19.8287081294, 
			 "total_energy": -740.496115962, 
			 "HOMO_LUMO_gap": 0.19353, 
			 "cosmo_polarized_energy": -16.12, 
			 "cosmo_cavitation_energy": 32.48, 
			 "cosmo_dispersion_energy": -23.66, 
			 "cosmo_repulsion_energy": 1.86, 
			 "cosmo_total_nonelectrostatic_energy": 10.67, 
			 "SMD_solvation_energy": 4.84 
		},
		"coords": [
			{
				"x": 1.4701579222,
				"y": -4.9861590658,
				"z": 2.3893442988,
				"element": "C" 
			},
			{
				"x": 0.0190525039,
				"y": -4.8903736503,
				"z": 1.9589454759,
				"element": "C" 
			},
			{
				"x": -0.1739858757,
				"y": -3.5809551994,
				"z": 1.3777133228,
				"element": "O" 
			},
			{
				"x": -1.4200852754,
				"y": -3.3233267999,
				"z": 0.937756725,
				"element": "C" 
			},
			{
				"x": -2.3488396269,
				"y": -4.0983946966,
				"z": 1.0012183934,
				"element": "O" 
			},
			{
				"x": -1.5233411688,
				"y": -1.9546637773,
				"z": 0.3578508859,
				"element": "C" 
			},
			{
				"x": -0.498902177,
				"y": -1.1111571518,
				"z": 0.29297209,
				"element": "N" 
			},
			{
				"x": -1.0443804905,
				"y": -0.0202701315,
				"z": -0.2936672178,
				"element": "N" 
			},
			{
				"x": -2.3644092988,
				"y": -0.2665911569,
				"z": -0.5491463572,
				"element": "C" 
			},
			{
				"x": -2.69675067,
				"y": -1.4743229635,
				"z": -0.1513175555,
				"element": "N" 
			},
			{
				"x": -0.2619644752,
				"y": 1.142685214,
				"z": -0.5524564356,
				"element": "C" 
			},
			{
				"x": -0.8399521417,
				"y": 2.2630775106,
				"z": -1.1591182163,
				"element": "C" 
			},
			{
				"x": -0.0568667679,
				"y": 3.3903783967,
				"z": -1.4033803983,
				"element": "C" 
			},
			{
				"x": 1.2925142875,
				"y": 3.4070130021,
				"z": -1.0480451255,
				"element": "C" 
			},
			{
				"x": 1.8580981708,
				"y": 2.2829384531,
				"z": -0.4432249788,
				"element": "C" 
			},
			{
				"x": 1.0894413337,
				"y": 1.1482634286,
				"z": -0.1921046097,
				"element": "C" 
			},
			{
				"x": 1.7097404769,
				"y": -4.2170283124,
				"z": 3.1290654346,
				"element": "H" 
			},
			{
				"x": 2.1403035485,
				"y": -4.8616319002,
				"z": 1.5340388181,
				"element": "H" 
			},
			{
				"x": 1.6600414043,
				"y": -5.9667498727,
				"z": 2.8368924769,
				"element": "H" 
			},
			{
				"x": -0.6701697853,
				"y": -5.0079729147,
				"z": 2.801426321,
				"element": "H" 
			},
			{
				"x": -0.2417581008,
				"y": -5.6493587024,
				"z": 1.2142587511,
				"element": "H" 
			},
			{
				"x": -3.0258745454,
				"y": 0.4476168028,
				"z": -1.0150762628,
				"element": "H" 
			},
			{
				"x": -1.8864636437,
				"y": 2.2690257181,
				"z": -1.4422882021,
				"element": "H" 
			},
			{
				"x": -0.5089406958,
				"y": 4.2579330616,
				"z": -1.8743473454,
				"element": "H" 
			},
			{
				"x": 1.8969819353,
				"y": 4.287802707,
				"z": -1.2408684605,
				"element": "H" 
			},
			{
				"x": 2.9070481615,
				"y": 2.2848673243,
				"z": -0.1625606034,
				"element": "H" 
			},
			{
				"x": 1.5135049947,
				"y": 0.2689546766,
				"z": 0.2761187752,
				"element": "H" 
			}
		],
		 "valence_orbital": [ 
			{
				"type": "occ",
				"energy": -0.28742,
				"method": "rhf"
			},
			{
				"type": "occ",
				"energy": -0.28715,
				"method": "rhf"
			},
			{
				"type": "occ",
				"energy": -0.27038,
				"method": "rhf"
			},
			{
				"type": "occ",
				"energy": -0.27022,
				"method": "rhf"
			},
			{
				"type": "occ",
				"energy": -0.24631,
				"method": "rhf"
			},
			{
				"type": "unocc",
				"energy": -0.05278,
				"method": "rhf"
			},
			{
				"type": "unocc",
				"energy": -0.02407,
				"method": "rhf"
			},
			{
				"type": "unocc",
				"energy": -0.01218,
				"method": "rhf"
			},
			{
				"type": "unocc",
				"energy": 0.02783,
				"method": "rhf"
			},
			{
				"type": "unocc",
				"energy": 0.07016,
				"method": "rhf"
			}
		],
		"cosmo_sigma_profile": { 
			"-0.025": 0.0,
			"-0.024": 0.0,
			"-0.023": 0.0,
			"-0.022": 0.0,
			"-0.021": 0.0,
			"-0.02": 0.0,
			"-0.019": 0.0,
			"-0.018": 0.0,
			"-0.017": 0.0,
			"-0.016": 0.0,
			"-0.015": 0.0,
			"-0.014": 0.0,
			"-0.013": 0.554016257603,
			"-0.012": 1.9235044836,
			"-0.011": 2.20998567402,
			"-0.01": 2.18445037263,
			"-0.009": 1.92032240285,
			"-0.008": 1.67601220974,
			"-0.007": 4.90520560093,
			"-0.006": 12.1442697829,
			"-0.005": 18.1099068515,
			"-0.004": 26.9078161365,
			"-0.003": 26.4457036019,
			"-0.002": 20.8522093962,
			"-0.001": 20.3664932943,
			"0.0": 18.320630916,
			"0.001": 15.2900982527,
			"0.002": 14.425529163,
			"0.003": 14.2611227226,
			"0.004": 14.772603111,
			"0.005": 4.99701402013,
			"0.006": 3.81560574172,
			"0.007": 4.63215844746,
			"0.008": 2.60605331697,
			"0.009": 4.16426182835,
			"0.01": 5.15890614949,
			"0.011": 6.30605294816,
			"0.012": 4.68208283066,
			"0.013": 3.05331863583,
			"0.014": 1.98001142679,
			"0.015": 1.23502769142,
			"0.016": 0.436979472159,
			"0.017": 0.0,
			"0.018": 0.0,
			"0.019": 0.0,
			"0.02": 0.0,
			"0.021": 0.0,
			"0.022": 0.0,
			"0.023": 0.0,
			"0.024": 0.0,
			"0.025": 0.0
		}
	}
}
