{
	 "smiles": "COCC(C)C1=C(O)C2=C(C(OC)=C1OC)[C@@]1(C)CCCC(C)(C)[C@H]1C(=O)C2=O", 
	 "Tm": 364.15, 
	 "num_atms": 61, 
	 "gaussian": { 
		 "optdone": 1, 
		 "sigma_profile": "yes", 
		 "theory": "DFT", 
		 "functional": "B3LYP", 
		 "basiset": "6-31G**", 
		 "properties": { 
			 "R2extent": 11909.1184, 
			 "electric_dipole_moment_norm": 6.20460638961, 
			 "electric_quadrupole_moment_norm": 10.2584366231, 
			 "total_energy": -1347.0225278, 
			 "HOMO_LUMO_gap": 0.13749, 
			 "cosmo_polarized_energy": -16.77, 
			 "cosmo_cavitation_energy": 55.56, 
			 "cosmo_dispersion_energy": -37.15, 
			 "cosmo_repulsion_energy": 2.79, 
			 "cosmo_total_nonelectrostatic_energy": 21.19, 
			 "SMD_solvation_energy": 11.95 
		},
		"coords": [
			{
				"x": -4.0528277692,
				"y": -2.3890764037,
				"z": 3.5408616773,
				"element": "C" 
			},
			{
				"x": -3.1611457789,
				"y": -2.5470306104,
				"z": 2.461215128,
				"element": "O" 
			},
			{
				"x": -3.8119349443,
				"y": -2.551359358,
				"z": 1.2098349923,
				"element": "C" 
			},
			{
				"x": -2.8038631725,
				"y": -2.761017791,
				"z": 0.067164194,
				"element": "C" 
			},
			{
				"x": -2.1396197482,
				"y": -4.1484468083,
				"z": 0.1478721524,
				"element": "C" 
			},
			{
				"x": -1.83436986,
				"y": -1.5914823175,
				"z": -0.0847025824,
				"element": "C" 
			},
			{
				"x": -0.6456231338,
				"y": -1.4452484369,
				"z": 0.6641040898,
				"element": "C" 
			},
			{
				"x": -0.3266712517,
				"y": -2.3729779066,
				"z": 1.5662993676,
				"element": "O" 
			},
			{
				"x": 0.2217486697,
				"y": -0.3328542603,
				"z": 0.4463779897,
				"element": "C" 
			},
			{
				"x": -0.0819446849,
				"y": 0.7123974797,
				"z": -0.484619037,
				"element": "C" 
			},
			{
				"x": -1.2533769929,
				"y": 0.5468501361,
				"z": -1.2224613652,
				"element": "C" 
			},
			{
				"x": -1.6951739239,
				"y": 1.4846487642,
				"z": -2.1382649476,
				"element": "O" 
			},
			{
				"x": -1.5447849197,
				"y": 1.0969821098,
				"z": -3.5099405229,
				"element": "C" 
			},
			{
				"x": -2.1072584916,
				"y": -0.5740886383,
				"z": -1.0012370726,
				"element": "C" 
			},
			{
				"x": -3.2509705533,
				"y": -0.6742169081,
				"z": -1.7586855807,
				"element": "O" 
			},
			{
				"x": -4.295964891,
				"y": 0.2666364719,
				"z": -1.4686890369,
				"element": "C" 
			},
			{
				"x": 0.7200765042,
				"y": 2.0440872842,
				"z": -0.3958864579,
				"element": "C" 
			},
			{
				"x": 0.6365116663,
				"y": 2.9025510243,
				"z": -1.6806944273,
				"element": "C" 
			},
			{
				"x": 0.0138355536,
				"y": 2.8034759676,
				"z": 0.7757209544,
				"element": "C" 
			},
			{
				"x": 0.7864046885,
				"y": 4.009663613,
				"z": 1.3051590859,
				"element": "C" 
			},
			{
				"x": 2.1523335122,
				"y": 3.5522461433,
				"z": 1.8135787608,
				"element": "C" 
			},
			{
				"x": 3.0520089255,
				"y": 2.9335922321,
				"z": 0.7199340017,
				"element": "C" 
			},
			{
				"x": 4.3017826739,
				"y": 2.3511729949,
				"z": 1.417391383,
				"element": "C" 
			},
			{
				"x": 3.5662868492,
				"y": 4.0476466606,
				"z": -0.2229344095,
				"element": "C" 
			},
			{
				"x": 2.2729661749,
				"y": 1.8114716534,
				"z": -0.1303255711,
				"element": "C" 
			},
			{
				"x": 2.597892731,
				"y": 0.4174741528,
				"z": 0.367578004,
				"element": "C" 
			},
			{
				"x": 3.653809331,
				"y": -0.1396349091,
				"z": 0.1323887737,
				"element": "O" 
			},
			{
				"x": 1.5194098279,
				"y": -0.374934365,
				"z": 1.0884687638,
				"element": "C" 
			},
			{
				"x": 1.8285709212,
				"y": -1.1274238403,
				"z": 2.0267936294,
				"element": "O" 
			},
			{
				"x": -4.6024652339,
				"y": -1.4348443865,
				"z": 3.4847206954,
				"element": "H" 
			},
			{
				"x": -3.4592186591,
				"y": -2.3997332478,
				"z": 4.4581797306,
				"element": "H" 
			},
			{
				"x": -4.7922828853,
				"y": -3.2052525981,
				"z": 3.5865942004,
				"element": "H" 
			},
			{
				"x": -4.3559088424,
				"y": -1.6018871395,
				"z": 1.0617706959,
				"element": "H" 
			},
			{
				"x": -4.5623769313,
				"y": -3.361756769,
				"z": 1.1703701662,
				"element": "H" 
			},
			{
				"x": -3.4157510031,
				"y": -2.7443749909,
				"z": -0.8401884546,
				"element": "H" 
			},
			{
				"x": -1.6296053654,
				"y": -4.2957846942,
				"z": 1.0981465217,
				"element": "H" 
			},
			{
				"x": -2.9075258791,
				"y": -4.9223337993,
				"z": 0.0369434682,
				"element": "H" 
			},
			{
				"x": -1.4126460418,
				"y": -4.2812887712,
				"z": -0.659193419,
				"element": "H" 
			},
			{
				"x": 0.5230792283,
				"y": -2.0845815731,
				"z": 2.0013366953,
				"element": "H" 
			},
			{
				"x": -1.9133533286,
				"y": 1.9341762908,
				"z": -4.1067149364,
				"element": "H" 
			},
			{
				"x": -2.1301278406,
				"y": 0.1999566951,
				"z": -3.7316094029,
				"element": "H" 
			},
			{
				"x": -0.4907199726,
				"y": 0.9166439839,
				"z": -3.7522288935,
				"element": "H" 
			},
			{
				"x": -3.9639697222,
				"y": 1.2926475967,
				"z": -1.6427463351,
				"element": "H" 
			},
			{
				"x": -5.1162817066,
				"y": 0.0194950157,
				"z": -2.1451806776,
				"element": "H" 
			},
			{
				"x": -4.6372266964,
				"y": 0.1575912247,
				"z": -0.4325906936,
				"element": "H" 
			},
			{
				"x": 1.3032777772,
				"y": 3.760594665,
				"z": -1.6003688081,
				"element": "H" 
			},
			{
				"x": 0.9577991865,
				"y": 2.3286996658,
				"z": -2.5555824411,
				"element": "H" 
			},
			{
				"x": -0.3712613861,
				"y": 3.2677996424,
				"z": -1.8631955516,
				"element": "H" 
			},
			{
				"x": -0.9851967792,
				"y": 3.0926242931,
				"z": 0.430283574,
				"element": "H" 
			},
			{
				"x": -0.1382731197,
				"y": 2.1096266522,
				"z": 1.6109816347,
				"element": "H" 
			},
			{
				"x": 0.2180535888,
				"y": 4.4697837432,
				"z": 2.1222329681,
				"element": "H" 
			},
			{
				"x": 0.8920850885,
				"y": 4.7824391361,
				"z": 0.5346188578,
				"element": "H" 
			},
			{
				"x": 2.6968657817,
				"y": 4.3873385615,
				"z": 2.2718379779,
				"element": "H" 
			},
			{
				"x": 1.996952895,
				"y": 2.8135656446,
				"z": 2.6127290567,
				"element": "H" 
			},
			{
				"x": 4.8323172716,
				"y": 3.1631008227,
				"z": 1.9263547694,
				"element": "H" 
			},
			{
				"x": 4.9869675386,
				"y": 1.8825045793,
				"z": 0.7073314107,
				"element": "H" 
			},
			{
				"x": 4.0462765371,
				"y": 1.6000796723,
				"z": 2.1704482987,
				"element": "H" 
			},
			{
				"x": 4.1843468583,
				"y": 4.7514982715,
				"z": 0.3454698318,
				"element": "H" 
			},
			{
				"x": 4.1900486704,
				"y": 3.6289812364,
				"z": -1.0195853692,
				"element": "H" 
			},
			{
				"x": 2.7698544825,
				"y": 4.6287478237,
				"z": -0.6919261093,
				"element": "H" 
			},
			{
				"x": 2.7573585755,
				"y": 1.8238386186,
				"z": -1.1130413983,
				"element": "H" 
			}
		],
		 "valence_orbital": [ 
			{
				"type": "occ",
				"energy": -0.26787,
				"method": "rhf"
			},
			{
				"type": "occ",
				"energy": -0.25053,
				"method": "rhf"
			},
			{
				"type": "occ",
				"energy": -0.24452,
				"method": "rhf"
			},
			{
				"type": "occ",
				"energy": -0.23142,
				"method": "rhf"
			},
			{
				"type": "occ",
				"energy": -0.2177,
				"method": "rhf"
			},
			{
				"type": "unocc",
				"energy": -0.08021,
				"method": "rhf"
			},
			{
				"type": "unocc",
				"energy": -0.02392,
				"method": "rhf"
			},
			{
				"type": "unocc",
				"energy": 0.00714,
				"method": "rhf"
			},
			{
				"type": "unocc",
				"energy": 0.04213,
				"method": "rhf"
			},
			{
				"type": "unocc",
				"energy": 0.06231,
				"method": "rhf"
			}
		],
		"cosmo_sigma_profile": { 
			"-0.025": 0.0,
			"-0.024": 0.0,
			"-0.023": 0.0,
			"-0.022": 0.0,
			"-0.021": 0.0,
			"-0.02": 0.0,
			"-0.019": 0.0,
			"-0.018": 0.0,
			"-0.017": 0.0,
			"-0.016": 0.0,
			"-0.015": 0.0,
			"-0.014": 0.0,
			"-0.013": 0.0,
			"-0.012": 0.0,
			"-0.011": 0.0,
			"-0.01": 0.0,
			"-0.009": 0.00658077867232,
			"-0.008": 0.356638905073,
			"-0.007": 0.96006031514,
			"-0.006": 4.08453289454,
			"-0.005": 16.5170765098,
			"-0.004": 30.2933723939,
			"-0.003": 67.9067209153,
			"-0.002": 67.0565921569,
			"-0.001": 55.0095544289,
			"0.0": 51.217053762,
			"0.001": 46.4641951373,
			"0.002": 18.6002772957,
			"0.003": 9.39795521179,
			"0.004": 9.02367657958,
			"0.005": 6.61444820046,
			"0.006": 7.51820558566,
			"0.007": 7.08305822939,
			"0.008": 5.21331772661,
			"0.009": 6.2822276026,
			"0.01": 6.77462499587,
			"0.011": 6.78620337842,
			"0.012": 4.90798440236,
			"0.013": 2.44280127948,
			"0.014": 1.0947306192,
			"0.015": 0.732742208737,
			"0.016": 0.113783060637,
			"0.017": 0.0,
			"0.018": 0.0,
			"0.019": 0.0,
			"0.02": 0.0,
			"0.021": 0.0,
			"0.022": 0.0,
			"0.023": 0.0,
			"0.024": 0.0,
			"0.025": 0.0
		}
	}
}
