{
	 "smiles": "NNC(=O)C1=CC=C(F)C=C1F", 
	 "Tm": 415.15, 
	 "num_atms": 18, 
	 "gaussian": { 
		 "optdone": 1, 
		 "sigma_profile": "yes", 
		 "theory": "DFT", 
		 "functional": "B3LYP", 
		 "basiset": "6-31G**", 
		 "properties": { 
			 "R2extent": 2274.401, 
			 "electric_dipole_moment_norm": 2.73937153376, 
			 "electric_quadrupole_moment_norm": 6.31765874435, 
			 "total_energy": -654.730125608, 
			 "HOMO_LUMO_gap": 0.20665, 
			 "cosmo_polarized_energy": -12.21, 
			 "cosmo_cavitation_energy": 23.49, 
			 "cosmo_dispersion_energy": -17.05, 
			 "cosmo_repulsion_energy": 1.33, 
			 "cosmo_total_nonelectrostatic_energy": 7.77, 
			 "SMD_solvation_energy": 6.08 
		},
		"coords": [
			{
				"x": -0.9861968145,
				"y": 1.7596732888,
				"z": 1.5840113213,
				"element": "N" 
			},
			{
				"x": -0.5693919913,
				"y": 2.0819700107,
				"z": 0.2799347484,
				"element": "N" 
			},
			{
				"x": 0.0143581197,
				"y": 1.2497080476,
				"z": -0.6421654392,
				"element": "C" 
			},
			{
				"x": 0.6540593406,
				"y": 1.702989394,
				"z": -1.5845567416,
				"element": "O" 
			},
			{
				"x": -0.1231392136,
				"y": -0.239834663,
				"z": -0.4592131186,
				"element": "C" 
			},
			{
				"x": 0.9950313833,
				"y": -1.027099798,
				"z": -0.7808896427,
				"element": "C" 
			},
			{
				"x": 0.9636509529,
				"y": -2.4152584187,
				"z": -0.7078285563,
				"element": "C" 
			},
			{
				"x": -0.228518582,
				"y": -3.030505094,
				"z": -0.3351395672,
				"element": "C" 
			},
			{
				"x": -0.2822193703,
				"y": -4.3714278361,
				"z": -0.2648016799,
				"element": "F" 
			},
			{
				"x": -1.3752780491,
				"y": -2.3030758219,
				"z": -0.0408200146,
				"element": "C" 
			},
			{
				"x": -1.2958132735,
				"y": -0.9179202684,
				"z": -0.1154062535,
				"element": "C" 
			},
			{
				"x": -2.430910357,
				"y": -0.2228590204,
				"z": 0.1383546252,
				"element": "F" 
			},
			{
				"x": -0.2900830878,
				"y": 1.1760403587,
				"z": 2.0424831461,
				"element": "H" 
			},
			{
				"x": -1.8602546275,
				"y": 1.2462915271,
				"z": 1.5358977946,
				"element": "H" 
			},
			{
				"x": -0.3675370945,
				"y": 3.0626750547,
				"z": 0.1301272974,
				"element": "H" 
			},
			{
				"x": 1.8956756001,
				"y": -0.5139494278,
				"z": -1.099880393,
				"element": "H" 
			},
			{
				"x": 1.8313465231,
				"y": -3.0203718336,
				"z": -0.9436916635,
				"element": "H" 
			},
			{
				"x": -2.3044794585,
				"y": -2.7944454996,
				"z": 0.220284137,
				"element": "H" 
			}
		],
		 "valence_orbital": [ 
			{
				"type": "occ",
				"energy": -0.29235,
				"method": "rhf"
			},
			{
				"type": "occ",
				"energy": -0.27769,
				"method": "rhf"
			},
			{
				"type": "occ",
				"energy": -0.26895,
				"method": "rhf"
			},
			{
				"type": "occ",
				"energy": -0.26134,
				"method": "rhf"
			},
			{
				"type": "occ",
				"energy": -0.24878,
				"method": "rhf"
			},
			{
				"type": "unocc",
				"energy": -0.04213,
				"method": "rhf"
			},
			{
				"type": "unocc",
				"energy": -0.0253,
				"method": "rhf"
			},
			{
				"type": "unocc",
				"energy": 0.03703,
				"method": "rhf"
			},
			{
				"type": "unocc",
				"energy": 0.06738,
				"method": "rhf"
			},
			{
				"type": "unocc",
				"energy": 0.08737,
				"method": "rhf"
			}
		],
		"cosmo_sigma_profile": { 
			"-0.025": 0.0,
			"-0.024": 0.0,
			"-0.023": 0.0,
			"-0.022": 0.0,
			"-0.021": 0.0,
			"-0.02": 0.0,
			"-0.019": 0.0,
			"-0.018": 0.0,
			"-0.017": 0.0,
			"-0.016": 0.0,
			"-0.015": 0.0,
			"-0.014": 0.299294452036,
			"-0.013": 1.01984102851,
			"-0.012": 1.68412278673,
			"-0.011": 2.16439248992,
			"-0.01": 2.78332842058,
			"-0.009": 5.45008355389,
			"-0.008": 6.43340482442,
			"-0.007": 7.32308424944,
			"-0.006": 8.48608187605,
			"-0.005": 7.99491235193,
			"-0.004": 7.53003972979,
			"-0.003": 8.15067604982,
			"-0.002": 10.371571423,
			"-0.001": 16.059250227,
			"0.0": 19.332538432,
			"0.001": 14.8282275543,
			"0.002": 13.5058034325,
			"0.003": 16.5894893107,
			"0.004": 10.8329497485,
			"0.005": 2.16621696101,
			"0.006": 1.6232147484,
			"0.007": 1.93949295026,
			"0.008": 2.24452604553,
			"0.009": 2.67289963259,
			"0.01": 1.27013424207,
			"0.011": 1.83607962011,
			"0.012": 3.88713622105,
			"0.013": 6.00466102679,
			"0.014": 2.68121472733,
			"0.015": 0.477919261912,
			"0.016": 0.412839060732,
			"0.017": 0.000293488061355,
			"0.018": 0.0,
			"0.019": 0.0,
			"0.02": 0.0,
			"0.021": 0.0,
			"0.022": 0.0,
			"0.023": 0.0,
			"0.024": 0.0,
			"0.025": 0.0
		}
	}
}
