{
	 "smiles": "FC(F)(F)COC(=O)NCC1=NC=CC=C1", 
	 "Tm": 324.15, 
	 "num_atms": 25, 
	 "gaussian": { 
		 "optdone": 1, 
		 "sigma_profile": "yes", 
		 "theory": "DFT", 
		 "functional": "B3LYP", 
		 "basiset": "6-31G**", 
		 "properties": { 
			 "R2extent": 5628.7972, 
			 "electric_dipole_moment_norm": 5.5405096345, 
			 "electric_quadrupole_moment_norm": 10.6347043241, 
			 "total_energy": -907.876687243, 
			 "HOMO_LUMO_gap": 0.21251, 
			 "cosmo_polarized_energy": -11.6, 
			 "cosmo_cavitation_energy": 31.73, 
			 "cosmo_dispersion_energy": -22.37, 
			 "cosmo_repulsion_energy": 1.71, 
			 "cosmo_total_nonelectrostatic_energy": 11.07, 
			 "SMD_solvation_energy": 6.1 
		},
		"coords": [
			{
				"x": 3.5547133922,
				"y": -0.2652962509,
				"z": -1.7486128591,
				"element": "F" 
			},
			{
				"x": 3.9391427649,
				"y": -1.1381378414,
				"z": -0.7995805198,
				"element": "C" 
			},
			{
				"x": 4.305490226,
				"y": -0.4256741501,
				"z": 0.285400225,
				"element": "F" 
			},
			{
				"x": 5.0301674109,
				"y": -1.796755252,
				"z": -1.2473357209,
				"element": "F" 
			},
			{
				"x": 2.8407785805,
				"y": -2.1354627067,
				"z": -0.4770674185,
				"element": "C" 
			},
			{
				"x": 1.6955842722,
				"y": -1.4428273085,
				"z": -0.0067743224,
				"element": "O" 
			},
			{
				"x": 0.6281132422,
				"y": -1.38729318,
				"z": -0.8852871993,
				"element": "C" 
			},
			{
				"x": 0.5919898353,
				"y": -1.9774152138,
				"z": -1.9478417549,
				"element": "O" 
			},
			{
				"x": -0.3511742525,
				"y": -0.609963598,
				"z": -0.3736942867,
				"element": "N" 
			},
			{
				"x": -0.2893172958,
				"y": 0.1334710134,
				"z": 0.8659782871,
				"element": "C" 
			},
			{
				"x": -1.5526246653,
				"y": 0.9592641878,
				"z": 1.0458636735,
				"element": "C" 
			},
			{
				"x": -2.4847251276,
				"y": 0.8718563988,
				"z": 0.091132624,
				"element": "N" 
			},
			{
				"x": -3.6080433514,
				"y": 1.5907560442,
				"z": 0.2281681218,
				"element": "C" 
			},
			{
				"x": -3.8537512998,
				"y": 2.4243185845,
				"z": 1.3153309727,
				"element": "C" 
			},
			{
				"x": -2.8779376477,
				"y": 2.513310104,
				"z": 2.311166748,
				"element": "C" 
			},
			{
				"x": -1.7095925417,
				"y": 1.7708998508,
				"z": 2.1769729828,
				"element": "C" 
			},
			{
				"x": 3.1939628335,
				"y": -2.7993230043,
				"z": 0.3156366901,
				"element": "H" 
			},
			{
				"x": 2.5999134628,
				"y": -2.7061622647,
				"z": -1.3761359106,
				"element": "H" 
			},
			{
				"x": -1.1920595235,
				"y": -0.4851930964,
				"z": -0.9250667757,
				"element": "H" 
			},
			{
				"x": -0.1747253724,
				"y": -0.5422923943,
				"z": 1.7248477367,
				"element": "H" 
			},
			{
				"x": 0.5853032313,
				"y": 0.7974880363,
				"z": 0.8812087183,
				"element": "H" 
			},
			{
				"x": -4.3391161386,
				"y": 1.49017354,
				"z": -0.5712450847,
				"element": "H" 
			},
			{
				"x": -4.779828204,
				"y": 2.9859784701,
				"z": 1.3793754659,
				"element": "H" 
			},
			{
				"x": -3.026955242,
				"y": 3.1518487289,
				"z": 3.1770087746,
				"element": "H" 
			},
			{
				"x": -0.9285085895,
				"y": 1.8152313022,
				"z": 2.9306508321,
				"element": "H" 
			}
		],
		 "valence_orbital": [ 
			{
				"type": "occ",
				"energy": -0.30175,
				"method": "rhf"
			},
			{
				"type": "occ",
				"energy": -0.279,
				"method": "rhf"
			},
			{
				"type": "occ",
				"energy": -0.27558,
				"method": "rhf"
			},
			{
				"type": "occ",
				"energy": -0.27372,
				"method": "rhf"
			},
			{
				"type": "occ",
				"energy": -0.25093,
				"method": "rhf"
			},
			{
				"type": "unocc",
				"energy": -0.03842,
				"method": "rhf"
			},
			{
				"type": "unocc",
				"energy": -0.02776,
				"method": "rhf"
			},
			{
				"type": "unocc",
				"energy": 0.05378,
				"method": "rhf"
			},
			{
				"type": "unocc",
				"energy": 0.08277,
				"method": "rhf"
			},
			{
				"type": "unocc",
				"energy": 0.09365,
				"method": "rhf"
			}
		],
		"cosmo_sigma_profile": { 
			"-0.025": 0.0,
			"-0.024": 0.0,
			"-0.023": 0.0,
			"-0.022": 0.0,
			"-0.021": 0.0,
			"-0.02": 0.0,
			"-0.019": 0.0,
			"-0.018": 0.0,
			"-0.017": 0.0,
			"-0.016": 0.0,
			"-0.015": 0.0,
			"-0.014": 0.0,
			"-0.013": 0.0,
			"-0.012": 0.0,
			"-0.011": 0.0,
			"-0.01": 0.0626296614842,
			"-0.009": 2.17979193889,
			"-0.008": 4.17302410398,
			"-0.007": 12.254531315,
			"-0.006": 19.6522214203,
			"-0.005": 17.7062883665,
			"-0.004": 12.5811340111,
			"-0.003": 11.4916495713,
			"-0.002": 12.9763992158,
			"-0.001": 13.8233626544,
			"0.0": 16.6801768319,
			"0.001": 21.8095929583,
			"0.002": 37.4375096291,
			"0.003": 37.030465892,
			"0.004": 7.28398416406,
			"0.005": 4.66550738357,
			"0.006": 3.57679106857,
			"0.007": 2.66896159905,
			"0.008": 2.83172149167,
			"0.009": 1.48909258772,
			"0.01": 1.24239600133,
			"0.011": 1.6803514152,
			"0.012": 3.8671678099,
			"0.013": 3.82366157498,
			"0.014": 0.459879852865,
			"0.015": 0.0,
			"0.016": 0.0,
			"0.017": 0.0,
			"0.018": 0.0,
			"0.019": 0.0,
			"0.02": 0.0,
			"0.021": 0.0,
			"0.022": 0.0,
			"0.023": 0.0,
			"0.024": 0.0,
			"0.025": 0.0
		}
	}
}
