{
	 "smiles": "OC(=O)C1=C(N=CC=C1)C1CC1", 
	 "Tm": 470.15, 
	 "num_atms": 21, 
	 "gaussian": { 
		 "optdone": 1, 
		 "sigma_profile": "yes", 
		 "theory": "DFT", 
		 "functional": "B3LYP", 
		 "basiset": "6-31G**", 
		 "properties": { 
			 "R2extent": 2530.7023, 
			 "electric_dipole_moment_norm": 0.389806310878, 
			 "electric_quadrupole_moment_norm": 13.1315020211, 
			 "total_energy": -553.565251372, 
			 "HOMO_LUMO_gap": 0.19139, 
			 "cosmo_polarized_energy": -9.19, 
			 "cosmo_cavitation_energy": 24.77, 
			 "cosmo_dispersion_energy": -18.44, 
			 "cosmo_repulsion_energy": 1.47, 
			 "cosmo_total_nonelectrostatic_energy": 7.8, 
			 "SMD_solvation_energy": 4.57 
		},
		"coords": [
			{
				"x": -0.8174903193,
				"y": 0.6089546231,
				"z": 0.7958356115,
				"element": "O" 
			},
			{
				"x": 0.5008432965,
				"y": 0.9121235284,
				"z": 0.7173755976,
				"element": "C" 
			},
			{
				"x": 0.933115575,
				"y": 1.9297991212,
				"z": 1.2263266082,
				"element": "O" 
			},
			{
				"x": 1.3599393787,
				"y": -0.074551088,
				"z": -0.0039923961,
				"element": "C" 
			},
			{
				"x": 0.95373724,
				"y": -1.2373825533,
				"z": -0.7128332698,
				"element": "C" 
			},
			{
				"x": 1.8701835776,
				"y": -2.0324302488,
				"z": -1.3028797838,
				"element": "N" 
			},
			{
				"x": 3.1638842191,
				"y": -1.7301536508,
				"z": -1.2291902931,
				"element": "C" 
			},
			{
				"x": 3.6564125135,
				"y": -0.6046285204,
				"z": -0.5670006181,
				"element": "C" 
			},
			{
				"x": 2.732298773,
				"y": 0.2243877666,
				"z": 0.0474539571,
				"element": "C" 
			},
			{
				"x": -0.4530218357,
				"y": -1.687408266,
				"z": -0.8903278561,
				"element": "C" 
			},
			{
				"x": -0.7463885296,
				"y": -3.1825906938,
				"z": -0.9223242118,
				"element": "C" 
			},
			{
				"x": -0.8400337155,
				"y": -2.3917278665,
				"z": -2.1848424763,
				"element": "C" 
			},
			{
				"x": -1.2160403653,
				"y": 1.3431003882,
				"z": 1.293067255,
				"element": "H" 
			},
			{
				"x": 3.8435345632,
				"y": -2.4213774388,
				"z": -1.7262502881,
				"element": "H" 
			},
			{
				"x": 4.7198839978,
				"y": -0.3932781455,
				"z": -0.5363747699,
				"element": "H" 
			},
			{
				"x": 3.0362130119,
				"y": 1.1175271915,
				"z": 0.5821085853,
				"element": "H" 
			},
			{
				"x": -1.2099195622,
				"y": -1.064052262,
				"z": -0.4423428312,
				"element": "H" 
			},
			{
				"x": 0.1098280797,
				"y": -3.8393179164,
				"z": -0.8127315736,
				"element": "H" 
			},
			{
				"x": -1.6586204746,
				"y": -3.5138482803,
				"z": -0.4353027587,
				"element": "H" 
			},
			{
				"x": -0.0473457991,
				"y": -2.5253089663,
				"z": -2.9128078913,
				"element": "H" 
			},
			{
				"x": -1.819613625,
				"y": -2.161236722,
				"z": -2.5929665968,
				"element": "H" 
			}
		],
		 "valence_orbital": [ 
			{
				"type": "occ",
				"energy": -0.30015,
				"method": "rhf"
			},
			{
				"type": "occ",
				"energy": -0.28805,
				"method": "rhf"
			},
			{
				"type": "occ",
				"energy": -0.28411,
				"method": "rhf"
			},
			{
				"type": "occ",
				"energy": -0.2587,
				"method": "rhf"
			},
			{
				"type": "occ",
				"energy": -0.24641,
				"method": "rhf"
			},
			{
				"type": "unocc",
				"energy": -0.05502,
				"method": "rhf"
			},
			{
				"type": "unocc",
				"energy": -0.02615,
				"method": "rhf"
			},
			{
				"type": "unocc",
				"energy": 0.04694,
				"method": "rhf"
			},
			{
				"type": "unocc",
				"energy": 0.0739,
				"method": "rhf"
			},
			{
				"type": "unocc",
				"energy": 0.10691,
				"method": "rhf"
			}
		],
		"cosmo_sigma_profile": { 
			"-0.025": 0.0,
			"-0.024": 0.0,
			"-0.023": 0.0,
			"-0.022": 0.0,
			"-0.021": 0.0,
			"-0.02": 0.0,
			"-0.019": 0.0152906246311,
			"-0.018": 0.675198448404,
			"-0.017": 1.06085904732,
			"-0.016": 0.95776214496,
			"-0.015": 0.594545055311,
			"-0.014": 0.499463057374,
			"-0.013": 0.911035116606,
			"-0.012": 0.682038217576,
			"-0.011": 0.753498565272,
			"-0.01": 0.712484761204,
			"-0.009": 0.544905127008,
			"-0.008": 0.936008308523,
			"-0.007": 4.42870368032,
			"-0.006": 7.67874060997,
			"-0.005": 9.79807457462,
			"-0.004": 11.4119723789,
			"-0.003": 14.0736569895,
			"-0.002": 15.1984826169,
			"-0.001": 15.186543509,
			"0.0": 19.5804092744,
			"0.001": 21.4187609238,
			"0.002": 20.1140920639,
			"0.003": 13.1048846797,
			"0.004": 9.50670123041,
			"0.005": 6.11630770478,
			"0.006": 3.14926168816,
			"0.007": 3.05511021368,
			"0.008": 2.36986091611,
			"0.009": 2.94680993684,
			"0.01": 2.31872117722,
			"0.011": 4.7568482768,
			"0.012": 3.278099244,
			"0.013": 0.0292800068218,
			"0.014": 0.0,
			"0.015": 0.0,
			"0.016": 0.0,
			"0.017": 0.0,
			"0.018": 0.0,
			"0.019": 0.0,
			"0.02": 0.0,
			"0.021": 0.0,
			"0.022": 0.0,
			"0.023": 0.0,
			"0.024": 0.0,
			"0.025": 0.0
		}
	}
}
