{
	 "smiles": "CCCOC(=O)C1=C(C)NC(=O)NC1C1=CC2=C(OCO2)C=C1", 
	 "Tm": 457.15, 
	 "num_atms": 41, 
	 "gaussian": { 
		 "optdone": 1, 
		 "sigma_profile": "yes", 
		 "theory": "DFT", 
		 "functional": "B3LYP", 
		 "basiset": "6-31G**", 
		 "properties": { 
			 "R2extent": 8118.4387, 
			 "electric_dipole_moment_norm": 2.57592106051, 
			 "electric_quadrupole_moment_norm": 17.9177375366, 
			 "total_energy": -1106.19031461, 
			 "HOMO_LUMO_gap": 0.16891, 
			 "cosmo_polarized_energy": -19.16, 
			 "cosmo_cavitation_energy": 44.28, 
			 "cosmo_dispersion_energy": -30.32, 
			 "cosmo_repulsion_energy": 2.37, 
			 "cosmo_total_nonelectrostatic_energy": 16.33, 
			 "SMD_solvation_energy": 9.14 
		},
		"coords": [
			{
				"x": -3.2347890662,
				"y": -3.753911761,
				"z": 2.0797355501,
				"element": "C" 
			},
			{
				"x": -2.3701439055,
				"y": -2.6096537932,
				"z": 1.5402578766,
				"element": "C" 
			},
			{
				"x": -2.3681515445,
				"y": -1.409828004,
				"z": 2.482782073,
				"element": "C" 
			},
			{
				"x": -1.4771663628,
				"y": -0.3726758833,
				"z": 2.019919845,
				"element": "O" 
			},
			{
				"x": -1.9845462971,
				"y": 0.5137310128,
				"z": 1.119442519,
				"element": "C" 
			},
			{
				"x": -3.1472941008,
				"y": 0.4606239718,
				"z": 0.7467338231,
				"element": "O" 
			},
			{
				"x": -0.9537367155,
				"y": 1.4856628241,
				"z": 0.7107305444,
				"element": "C" 
			},
			{
				"x": -1.2239219188,
				"y": 2.5365982862,
				"z": -0.1152737429,
				"element": "C" 
			},
			{
				"x": -2.5413064384,
				"y": 2.8830783219,
				"z": -0.7523935574,
				"element": "C" 
			},
			{
				"x": -0.2099843944,
				"y": 3.4233228651,
				"z": -0.4376756243,
				"element": "N" 
			},
			{
				"x": 1.0274466711,
				"y": 3.5060936048,
				"z": 0.2125922955,
				"element": "C" 
			},
			{
				"x": 1.8114479048,
				"y": 4.4121070987,
				"z": -0.0280598033,
				"element": "O" 
			},
			{
				"x": 1.2226790955,
				"y": 2.5261986845,
				"z": 1.1415447185,
				"element": "N" 
			},
			{
				"x": 0.4666574533,
				"y": 1.2652471059,
				"z": 1.2221082251,
				"element": "C" 
			},
			{
				"x": 1.1999796046,
				"y": 0.11751142,
				"z": 0.5184185096,
				"element": "C" 
			},
			{
				"x": 1.8122598785,
				"y": -0.8832348494,
				"z": 1.3014726772,
				"element": "C" 
			},
			{
				"x": 2.5053845587,
				"y": -1.8766827846,
				"z": 0.6387788677,
				"element": "C" 
			},
			{
				"x": 2.6058923164,
				"y": -1.9053142453,
				"z": -0.7492702024,
				"element": "C" 
			},
			{
				"x": 3.3253324739,
				"y": -3.0094734581,
				"z": -1.1395680883,
				"element": "O" 
			},
			{
				"x": 3.8185387886,
				"y": -3.5966576978,
				"z": 0.0703196367,
				"element": "C" 
			},
			{
				"x": 3.1578588044,
				"y": -2.963547079,
				"z": 1.172538976,
				"element": "O" 
			},
			{
				"x": 2.0123088868,
				"y": -0.9395480648,
				"z": -1.539393737,
				"element": "C" 
			},
			{
				"x": 1.30429822,
				"y": 0.0769849266,
				"z": -0.8761875198,
				"element": "C" 
			},
			{
				"x": -4.2771388196,
				"y": -3.4408795163,
				"z": 2.2060865687,
				"element": "H" 
			},
			{
				"x": -3.2263649574,
				"y": -4.6067905561,
				"z": 1.3946075812,
				"element": "H" 
			},
			{
				"x": -2.8728046362,
				"y": -4.1069117819,
				"z": 3.0523148408,
				"element": "H" 
			},
			{
				"x": -2.7430379036,
				"y": -2.2842671778,
				"z": 0.563534687,
				"element": "H" 
			},
			{
				"x": -1.3369644955,
				"y": -2.9470822966,
				"z": 1.3969242442,
				"element": "H" 
			},
			{
				"x": -1.9821969852,
				"y": -1.6842739145,
				"z": 3.4689430238,
				"element": "H" 
			},
			{
				"x": -3.3738942697,
				"y": -0.9952595881,
				"z": 2.5900425187,
				"element": "H" 
			},
			{
				"x": -2.8905838704,
				"y": 3.8517654591,
				"z": -0.3742458595,
				"element": "H" 
			},
			{
				"x": -3.2903556163,
				"y": 2.1248956008,
				"z": -0.5452839111,
				"element": "H" 
			},
			{
				"x": -2.4090587626,
				"y": 2.983311909,
				"z": -1.8366087297,
				"element": "H" 
			},
			{
				"x": -0.4107512459,
				"y": 4.2164659334,
				"z": -1.0298000382,
				"element": "H" 
			},
			{
				"x": 2.1579016134,
				"y": 2.5262017827,
				"z": 1.5250036169,
				"element": "H" 
			},
			{
				"x": 0.4074058159,
				"y": 1.00521472,
				"z": 2.2822427461,
				"element": "H" 
			},
			{
				"x": 1.7324781507,
				"y": -0.8808827028,
				"z": 2.3835242383,
				"element": "H" 
			},
			{
				"x": 4.9024761091,
				"y": -3.4273412499,
				"z": 0.1452568936,
				"element": "H" 
			},
			{
				"x": 3.5912813995,
				"y": -4.6672100378,
				"z": 0.075004222,
				"element": "H" 
			},
			{
				"x": 2.089116732,
				"y": -0.9699389267,
				"z": -2.6203717735,
				"element": "H" 
			},
			{
				"x": 0.8261478292,
				"y": 0.8506498414,
				"z": -1.4685287312,
				"element": "H" 
			}
		],
		 "valence_orbital": [ 
			{
				"type": "occ",
				"energy": -0.26514,
				"method": "rhf"
			},
			{
				"type": "occ",
				"energy": -0.2557,
				"method": "rhf"
			},
			{
				"type": "occ",
				"energy": -0.24902,
				"method": "rhf"
			},
			{
				"type": "occ",
				"energy": -0.22763,
				"method": "rhf"
			},
			{
				"type": "occ",
				"energy": -0.20734,
				"method": "rhf"
			},
			{
				"type": "unocc",
				"energy": -0.03843,
				"method": "rhf"
			},
			{
				"type": "unocc",
				"energy": -0.0024,
				"method": "rhf"
			},
			{
				"type": "unocc",
				"energy": 0.00291,
				"method": "rhf"
			},
			{
				"type": "unocc",
				"energy": 0.0605,
				"method": "rhf"
			},
			{
				"type": "unocc",
				"energy": 0.07379,
				"method": "rhf"
			}
		],
		"cosmo_sigma_profile": { 
			"-0.025": 0.0,
			"-0.024": 0.0,
			"-0.023": 0.0,
			"-0.022": 0.0,
			"-0.021": 0.0,
			"-0.02": 0.0,
			"-0.019": 0.0,
			"-0.018": 0.0,
			"-0.017": 0.0,
			"-0.016": 0.0405849767328,
			"-0.015": 0.708533919751,
			"-0.014": 1.88711296858,
			"-0.013": 2.22521148601,
			"-0.012": 1.47088350638,
			"-0.011": 2.04623998409,
			"-0.01": 1.98691416126,
			"-0.009": 2.06691033226,
			"-0.008": 4.78870833575,
			"-0.007": 13.936241348,
			"-0.006": 15.9779440084,
			"-0.005": 17.1120251817,
			"-0.004": 19.6637692865,
			"-0.003": 26.7039230887,
			"-0.002": 30.2618955034,
			"-0.001": 33.697175222,
			"0.0": 32.7992845798,
			"0.001": 26.7261417385,
			"0.002": 21.9123241571,
			"0.003": 19.608116537,
			"0.004": 15.4456866199,
			"0.005": 12.0615546362,
			"0.006": 6.43863711019,
			"0.007": 5.68324902448,
			"0.008": 5.08176557177,
			"0.009": 6.27230861722,
			"0.01": 4.93973626438,
			"0.011": 3.10039975213,
			"0.012": 4.71487284485,
			"0.013": 5.92197479311,
			"0.014": 4.76449329187,
			"0.015": 0.197225170102,
			"0.016": 0.0,
			"0.017": 0.0,
			"0.018": 0.0,
			"0.019": 0.0,
			"0.02": 0.0,
			"0.021": 0.0,
			"0.022": 0.0,
			"0.023": 0.0,
			"0.024": 0.0,
			"0.025": 0.0
		}
	}
}
