{
	 "smiles": "CC1=NC(=C(S1)C(=O)NC1=C(Br)C=C(OC(F)(F)F)C=C1Br)C(F)(F)F", 
	 "Tm": 451.15, 
	 "num_atms": 32, 
	 "gaussian": { 
		 "optdone": 1, 
		 "sigma_profile": "yes", 
		 "theory": "DFT", 
		 "functional": "B3LYP", 
		 "basiset": "6-31G**", 
		 "properties": { 
			 "R2extent": 13986.4897, 
			 "electric_dipole_moment_norm": 5.62773335722, 
			 "electric_quadrupole_moment_norm": 23.6212832782, 
			 "total_energy": -6898.9824836, 
			 "HOMO_LUMO_gap": 0.18945, 
			 "cosmo_polarized_energy": -15.25, 
			 "cosmo_cavitation_energy": 46.47, 
			 "cosmo_dispersion_energy": -31.17, 
			 "cosmo_repulsion_energy": 2.25, 
			 "cosmo_total_nonelectrostatic_energy": 17.55, 
			 "SMD_solvation_energy": 7.6 
		},
		"coords": [
			{
				"x": 0.2394448159,
				"y": -1.155557452,
				"z": 4.0065249605,
				"element": "C" 
			},
			{
				"x": -0.6898317873,
				"y": -0.5107913227,
				"z": 3.0252667959,
				"element": "C" 
			},
			{
				"x": -1.1976913486,
				"y": 0.6799914487,
				"z": 3.1702570508,
				"element": "N" 
			},
			{
				"x": -2.0228095371,
				"y": 1.0086021202,
				"z": 2.1281535742,
				"element": "C" 
			},
			{
				"x": -2.1629593215,
				"y": 0.0671175895,
				"z": 1.1355496592,
				"element": "C" 
			},
			{
				"x": -1.1919114166,
				"y": -1.3218298798,
				"z": 1.549378697,
				"element": "S" 
			},
			{
				"x": -3.1239652283,
				"y": 0.0962526244,
				"z": -0.0090215923,
				"element": "C" 
			},
			{
				"x": -4.2633116727,
				"y": 0.5033765263,
				"z": 0.1381790558,
				"element": "O" 
			},
			{
				"x": -2.7090610567,
				"y": -0.4049537734,
				"z": -1.2309297105,
				"element": "N" 
			},
			{
				"x": -1.4194489295,
				"y": -0.770773388,
				"z": -1.6731121862,
				"element": "C" 
			},
			{
				"x": -0.3767276365,
				"y": 0.1606538453,
				"z": -1.8353782313,
				"element": "C" 
			},
			{
				"x": -0.6707110393,
				"y": 2.0015386321,
				"z": -1.4730249422,
				"element": "Br" 
			},
			{
				"x": 0.8892324205,
				"y": -0.2103059808,
				"z": -2.2874840678,
				"element": "C" 
			},
			{
				"x": 1.117290505,
				"y": -1.5442131127,
				"z": -2.6169879033,
				"element": "C" 
			},
			{
				"x": 2.3190101154,
				"y": -2.0405068261,
				"z": -3.1031191775,
				"element": "O" 
			},
			{
				"x": 3.4758268063,
				"y": -1.3306332303,
				"z": -2.9795968951,
				"element": "C" 
			},
			{
				"x": 3.7168507318,
				"y": -0.9712001209,
				"z": -1.7080697944,
				"element": "F" 
			},
			{
				"x": 3.4665187814,
				"y": -0.2069907963,
				"z": -3.7228167203,
				"element": "F" 
			},
			{
				"x": 4.4620354252,
				"y": -2.1116707627,
				"z": -3.4058910243,
				"element": "F" 
			},
			{
				"x": 0.105390579,
				"y": -2.495992525,
				"z": -2.5106845749,
				"element": "C" 
			},
			{
				"x": -1.1402926113,
				"y": -2.1021911844,
				"z": -2.0403415659,
				"element": "C" 
			},
			{
				"x": -2.5041328514,
				"y": -3.4216233406,
				"z": -1.8935466885,
				"element": "Br" 
			},
			{
				"x": -2.6925871868,
				"y": 2.3641413558,
				"z": 2.1764954499,
				"element": "C" 
			},
			{
				"x": -1.9255453073,
				"y": 3.2425495942,
				"z": 2.8482567763,
				"element": "F" 
			},
			{
				"x": -3.8828047189,
				"y": 2.3031045466,
				"z": 2.8015646858,
				"element": "F" 
			},
			{
				"x": -2.8977014368,
				"y": 2.8672050411,
				"z": 0.9429862321,
				"element": "F" 
			},
			{
				"x": 0.3905572989,
				"y": -0.4670029488,
				"z": 4.8394801615,
				"element": "H" 
			},
			{
				"x": -0.1735239276,
				"y": -2.0933093362,
				"z": 4.3923245594,
				"element": "H" 
			},
			{
				"x": 1.210287623,
				"y": -1.379412815,
				"z": 3.5522644092,
				"element": "H" 
			},
			{
				"x": -3.4745083865,
				"y": -0.4884252006,
				"z": -1.8904974565,
				"element": "H" 
			},
			{
				"x": 1.6563441672,
				"y": 0.5416365741,
				"z": -2.3996730607,
				"element": "H" 
			},
			{
				"x": 0.3039361314,
				"y": -3.5246859019,
				"z": -2.782606476,
				"element": "H" 
			}
		],
		 "valence_orbital": [ 
			{
				"type": "occ",
				"energy": -0.29161,
				"method": "rhf"
			},
			{
				"type": "occ",
				"energy": -0.28255,
				"method": "rhf"
			},
			{
				"type": "occ",
				"energy": -0.27108,
				"method": "rhf"
			},
			{
				"type": "occ",
				"energy": -0.26051,
				"method": "rhf"
			},
			{
				"type": "occ",
				"energy": -0.25824,
				"method": "rhf"
			},
			{
				"type": "unocc",
				"energy": -0.06879,
				"method": "rhf"
			},
			{
				"type": "unocc",
				"energy": -0.05357,
				"method": "rhf"
			},
			{
				"type": "unocc",
				"energy": -0.04818,
				"method": "rhf"
			},
			{
				"type": "unocc",
				"energy": -0.03806,
				"method": "rhf"
			},
			{
				"type": "unocc",
				"energy": -0.00686,
				"method": "rhf"
			}
		],
		"cosmo_sigma_profile": { 
			"-0.025": 0.0,
			"-0.024": 0.0,
			"-0.023": 0.0,
			"-0.022": 0.0,
			"-0.021": 0.0,
			"-0.02": 0.0,
			"-0.019": 0.0,
			"-0.018": 0.0,
			"-0.017": 0.0,
			"-0.016": 0.0507498049282,
			"-0.015": 0.771817467812,
			"-0.014": 0.894644116627,
			"-0.013": 1.10313106311,
			"-0.012": 0.838046439762,
			"-0.011": 1.04135288086,
			"-0.01": 1.23159592218,
			"-0.009": 2.09413629172,
			"-0.008": 3.43367352887,
			"-0.007": 7.60597694497,
			"-0.006": 13.3784883921,
			"-0.005": 14.5696277699,
			"-0.004": 15.9624911442,
			"-0.003": 22.1158905448,
			"-0.002": 34.9147620979,
			"-0.001": 42.6147924345,
			"0.0": 44.4636219258,
			"0.001": 47.6825681063,
			"0.002": 49.4953988845,
			"0.003": 35.3396902367,
			"0.004": 9.91651011108,
			"0.005": 5.97930495858,
			"0.006": 3.41868112224,
			"0.007": 3.28203586971,
			"0.008": 3.3767941329,
			"0.009": 3.2449400473,
			"0.01": 3.44774863927,
			"0.011": 4.88786490228,
			"0.012": 4.32652682316,
			"0.013": 0.472932343174,
			"0.014": 0.0,
			"0.015": 0.0,
			"0.016": 0.0,
			"0.017": 0.0,
			"0.018": 0.0,
			"0.019": 0.0,
			"0.02": 0.0,
			"0.021": 0.0,
			"0.022": 0.0,
			"0.023": 0.0,
			"0.024": 0.0,
			"0.025": 0.0
		}
	}
}
