{
	 "smiles": "ClC1=NC=C2N=CNC(=O)C2=C1", 
	 "Tm": 583.15, 
	 "num_atms": 16, 
	 "gaussian": { 
		 "optdone": 1, 
		 "sigma_profile": "yes", 
		 "theory": "DFT", 
		 "functional": "B3LYP", 
		 "basiset": "6-31G**", 
		 "properties": { 
			 "R2extent": 3137.895, 
			 "electric_dipole_moment_norm": 4.60359844144, 
			 "electric_quadrupole_moment_norm": 9.88542363483, 
			 "total_energy": -968.841345265, 
			 "HOMO_LUMO_gap": 0.17329, 
			 "cosmo_polarized_energy": -15.15, 
			 "cosmo_cavitation_energy": 23.05, 
			 "cosmo_dispersion_energy": -17.64, 
			 "cosmo_repulsion_energy": 1.39, 
			 "cosmo_total_nonelectrostatic_energy": 6.79, 
			 "SMD_solvation_energy": 1.78 
		},
		"coords": [
			{
				"x": -4.1415408918,
				"y": 1.4140489881,
				"z": -2.0013613517,
				"element": "Cl" 
			},
			{
				"x": -2.4371446168,
				"y": 0.9994483304,
				"z": -1.8982286588,
				"element": "C" 
			},
			{
				"x": -1.8234630777,
				"y": 0.7257780319,
				"z": -3.0479877975,
				"element": "N" 
			},
			{
				"x": -0.5343372087,
				"y": 0.4080317736,
				"z": -3.0098273878,
				"element": "C" 
			},
			{
				"x": 0.2128104324,
				"y": 0.3467217082,
				"z": -1.8158673291,
				"element": "C" 
			},
			{
				"x": 1.5572010085,
				"y": 0.0056336311,
				"z": -1.8688153141,
				"element": "N" 
			},
			{
				"x": 2.1801444398,
				"y": -0.0315911365,
				"z": -0.7403289589,
				"element": "C" 
			},
			{
				"x": 1.6086444962,
				"y": 0.2391508925,
				"z": 0.4817135616,
				"element": "N" 
			},
			{
				"x": 0.2648199822,
				"y": 0.5937527449,
				"z": 0.6638512866,
				"element": "C" 
			},
			{
				"x": -0.1923463091,
				"y": 0.8236393231,
				"z": 1.77072284,
				"element": "O" 
			},
			{
				"x": -0.4685052227,
				"y": 0.6427013126,
				"z": -0.6144982861,
				"element": "C" 
			},
			{
				"x": -1.824772219,
				"y": 0.9773450069,
				"z": -0.6510282321,
				"element": "C" 
			},
			{
				"x": -0.0408780108,
				"y": 0.1859981253,
				"z": -3.9529330736,
				"element": "H" 
			},
			{
				"x": 3.2359387573,
				"y": -0.2921771842,
				"z": -0.7118995968,
				"element": "H" 
			},
			{
				"x": 2.1657640889,
				"y": 0.188611643,
				"z": 1.3266382269,
				"element": "H" 
			},
			{
				"x": -2.3576356486,
				"y": 1.206206809,
				"z": 0.2637500715,
				"element": "H" 
			}
		],
		 "valence_orbital": [ 
			{
				"type": "occ",
				"energy": -0.30715,
				"method": "rhf"
			},
			{
				"type": "occ",
				"energy": -0.29783,
				"method": "rhf"
			},
			{
				"type": "occ",
				"energy": -0.28871,
				"method": "rhf"
			},
			{
				"type": "occ",
				"energy": -0.28145,
				"method": "rhf"
			},
			{
				"type": "occ",
				"energy": -0.24924,
				"method": "rhf"
			},
			{
				"type": "unocc",
				"energy": -0.07595,
				"method": "rhf"
			},
			{
				"type": "unocc",
				"energy": -0.06095,
				"method": "rhf"
			},
			{
				"type": "unocc",
				"energy": 0.0023,
				"method": "rhf"
			},
			{
				"type": "unocc",
				"energy": 0.03001,
				"method": "rhf"
			},
			{
				"type": "unocc",
				"energy": 0.04559,
				"method": "rhf"
			}
		],
		"cosmo_sigma_profile": { 
			"-0.025": 0.0,
			"-0.024": 0.0,
			"-0.023": 0.0,
			"-0.022": 0.0,
			"-0.021": 0.0,
			"-0.02": 0.0,
			"-0.019": 0.0,
			"-0.018": 0.304917454826,
			"-0.017": 2.02784988934,
			"-0.016": 1.35596010685,
			"-0.015": 1.26323322453,
			"-0.014": 1.36819918346,
			"-0.013": 1.0029622925,
			"-0.012": 1.45584689757,
			"-0.011": 2.25757999047,
			"-0.01": 2.8590113625,
			"-0.009": 2.34220340012,
			"-0.008": 3.86232724453,
			"-0.007": 5.24802297593,
			"-0.006": 6.18170466784,
			"-0.005": 7.41261149199,
			"-0.004": 8.26140044359,
			"-0.003": 13.6725958065,
			"-0.002": 16.2150344199,
			"-0.001": 19.2832100639,
			"0.0": 10.5847879825,
			"0.001": 8.97551913788,
			"0.002": 9.8263473752,
			"0.003": 9.92470885372,
			"0.004": 11.9347290539,
			"0.005": 7.45154052017,
			"0.006": 4.61627052896,
			"0.007": 3.71505938884,
			"0.008": 3.78009337556,
			"0.009": 2.91435734723,
			"0.01": 3.74552442014,
			"0.011": 5.7878981993,
			"0.012": 6.20895876613,
			"0.013": 2.12050923564,
			"0.014": 0.855090702081,
			"0.015": 0.0908506474231,
			"0.016": 0.0,
			"0.017": 0.0,
			"0.018": 0.0,
			"0.019": 0.0,
			"0.02": 0.0,
			"0.021": 0.0,
			"0.022": 0.0,
			"0.023": 0.0,
			"0.024": 0.0,
			"0.025": 0.0
		}
	}
}
