{
	 "smiles": "N1C2=C(C=CC=C2)N=C1C1=C2C=CC=CC2=CC=C1", 
	 "Tm": 538.15, 
	 "num_atms": 31, 
	 "gaussian": { 
		 "optdone": 1, 
		 "sigma_profile": "yes", 
		 "theory": "DFT", 
		 "functional": "B3LYP", 
		 "basiset": "6-31G**", 
		 "properties": { 
			 "R2extent": 5952.4933, 
			 "electric_dipole_moment_norm": 2.90860081998, 
			 "electric_quadrupole_moment_norm": 12.7720068298, 
			 "total_energy": -764.575183022, 
			 "HOMO_LUMO_gap": 0.15076, 
			 "cosmo_polarized_energy": -13.56, 
			 "cosmo_cavitation_energy": 34.59, 
			 "cosmo_dispersion_energy": -25.86, 
			 "cosmo_repulsion_energy": 1.93, 
			 "cosmo_total_nonelectrostatic_energy": 10.66, 
			 "SMD_solvation_energy": 3.76 
		},
		"coords": [
			{
				"x": 0.1271214409,
				"y": 1.5605913962,
				"z": -0.2297115784,
				"element": "N" 
			},
			{
				"x": -0.3423577684,
				"y": 2.5775464366,
				"z": 0.5786776985,
				"element": "C" 
			},
			{
				"x": -0.6380504763,
				"y": 1.9421141044,
				"z": 1.8096496492,
				"element": "C" 
			},
			{
				"x": -1.1344215905,
				"y": 2.6970752092,
				"z": 2.8810416294,
				"element": "C" 
			},
			{
				"x": -1.3269647044,
				"y": 4.0605627551,
				"z": 2.6857425396,
				"element": "C" 
			},
			{
				"x": -1.0330315841,
				"y": 4.6748949603,
				"z": 1.4509186938,
				"element": "C" 
			},
			{
				"x": -0.5341377628,
				"y": 3.9453954694,
				"z": 0.3742749609,
				"element": "C" 
			},
			{
				"x": -0.3648570837,
				"y": 0.5876621081,
				"z": 1.7305301164,
				"element": "N" 
			},
			{
				"x": 0.0835266794,
				"y": 0.3843108066,
				"z": 0.5071959344,
				"element": "C" 
			},
			{
				"x": 0.5406365208,
				"y": -0.8852053376,
				"z": -0.0819391461,
				"element": "C" 
			},
			{
				"x": -0.01029256,
				"y": -2.1601296441,
				"z": 0.3013701701,
				"element": "C" 
			},
			{
				"x": -1.0283733476,
				"y": -2.3131991734,
				"z": 1.283087977,
				"element": "C" 
			},
			{
				"x": -1.5253552241,
				"y": -3.5594843792,
				"z": 1.5973052292,
				"element": "C" 
			},
			{
				"x": -1.0379315122,
				"y": -4.719740351,
				"z": 0.9522474132,
				"element": "C" 
			},
			{
				"x": -0.0556183226,
				"y": -4.6078529971,
				"z": -0.0035942344,
				"element": "C" 
			},
			{
				"x": 0.4808832114,
				"y": -3.3397718361,
				"z": -0.35578146,
				"element": "C" 
			},
			{
				"x": 1.4905087362,
				"y": -3.2301009602,
				"z": -1.3482168944,
				"element": "C" 
			},
			{
				"x": 2.0079616445,
				"y": -2.0031230418,
				"z": -1.6894661322,
				"element": "C" 
			},
			{
				"x": 1.5319765421,
				"y": -0.8378595521,
				"z": -1.0538883388,
				"element": "C" 
			},
			{
				"x": 0.325250064,
				"y": 1.6226914723,
				"z": -1.2156536647,
				"element": "H" 
			},
			{
				"x": -1.3585678764,
				"y": 2.2182985111,
				"z": 3.8287632399,
				"element": "H" 
			},
			{
				"x": -1.7118105755,
				"y": 4.6690638677,
				"z": 3.4987177862,
				"element": "H" 
			},
			{
				"x": -1.1974842898,
				"y": 5.7422884822,
				"z": 1.3368406126,
				"element": "H" 
			},
			{
				"x": -0.3065156331,
				"y": 4.4229973058,
				"z": -0.5740760301,
				"element": "H" 
			},
			{
				"x": -1.3874890712,
				"y": -1.4316456686,
				"z": 1.7979267475,
				"element": "H" 
			},
			{
				"x": -2.3010044296,
				"y": -3.65143938,
				"z": 2.3522625316,
				"element": "H" 
			},
			{
				"x": -1.4400532319,
				"y": -5.6946013579,
				"z": 1.2127917646,
				"element": "H" 
			},
			{
				"x": 0.3277210338,
				"y": -5.4906713809,
				"z": -0.5088426696,
				"element": "H" 
			},
			{
				"x": 1.8509993062,
				"y": -4.1357448055,
				"z": -1.8290105507,
				"element": "H" 
			},
			{
				"x": 2.789803364,
				"y": -1.9225169901,
				"z": -2.4386320404,
				"element": "H" 
			},
			{
				"x": 1.9852285009,
				"y": 0.1155939706,
				"z": -1.3095319546,
				"element": "H" 
			}
		],
		 "valence_orbital": [ 
			{
				"type": "occ",
				"energy": -0.26719,
				"method": "rhf"
			},
			{
				"type": "occ",
				"energy": -0.24601,
				"method": "rhf"
			},
			{
				"type": "occ",
				"energy": -0.23371,
				"method": "rhf"
			},
			{
				"type": "occ",
				"energy": -0.2251,
				"method": "rhf"
			},
			{
				"type": "occ",
				"energy": -0.20527,
				"method": "rhf"
			},
			{
				"type": "unocc",
				"energy": -0.05451,
				"method": "rhf"
			},
			{
				"type": "unocc",
				"energy": -0.01198,
				"method": "rhf"
			},
			{
				"type": "unocc",
				"energy": -0.00907,
				"method": "rhf"
			},
			{
				"type": "unocc",
				"energy": 0.02073,
				"method": "rhf"
			},
			{
				"type": "unocc",
				"energy": 0.03052,
				"method": "rhf"
			}
		],
		"cosmo_sigma_profile": { 
			"-0.025": 0.0,
			"-0.024": 0.0,
			"-0.023": 0.0,
			"-0.022": 0.0,
			"-0.021": 0.0,
			"-0.02": 0.0,
			"-0.019": 0.0,
			"-0.018": 0.0,
			"-0.017": 0.156425863944,
			"-0.016": 0.850533635828,
			"-0.015": 1.38291190381,
			"-0.014": 0.687756833764,
			"-0.013": 1.23531238566,
			"-0.012": 1.42564716012,
			"-0.011": 1.869437725,
			"-0.01": 1.11829048793,
			"-0.009": 1.44090619828,
			"-0.008": 2.24060741689,
			"-0.007": 4.56763018121,
			"-0.006": 15.2383810715,
			"-0.005": 19.0815866292,
			"-0.004": 21.1186201412,
			"-0.003": 19.3687460278,
			"-0.002": 14.7797200862,
			"-0.001": 15.483156924,
			"0.0": 15.7290199812,
			"0.001": 18.0344432753,
			"0.002": 20.9730394764,
			"0.003": 28.5514461821,
			"0.004": 29.9669445975,
			"0.005": 22.3958935296,
			"0.006": 10.3762816578,
			"0.007": 2.35608846556,
			"0.008": 2.15732340886,
			"0.009": 1.3508751803,
			"0.01": 0.775283557857,
			"0.011": 0.866501581362,
			"0.012": 1.17588204004,
			"0.013": 0.833555604646,
			"0.014": 0.692425029715,
			"0.015": 0.522963855315,
			"0.016": 0.156695859047,
			"0.017": 0.0,
			"0.018": 0.0,
			"0.019": 0.0,
			"0.02": 0.0,
			"0.021": 0.0,
			"0.022": 0.0,
			"0.023": 0.0,
			"0.024": 0.0,
			"0.025": 0.0
		}
	}
}
