{
	 "smiles": "CC1=CC(CCC(O)=O)=CN=C1", 
	 "Tm": 373.15, 
	 "num_atms": 23, 
	 "gaussian": { 
		 "optdone": 1, 
		 "sigma_profile": "yes", 
		 "theory": "DFT", 
		 "functional": "B3LYP", 
		 "basiset": "6-31G**", 
		 "properties": { 
			 "R2extent": 3402.3388, 
			 "electric_dipole_moment_norm": 2.91812585404, 
			 "electric_quadrupole_moment_norm": 18.9034488946, 
			 "total_energy": -554.796893182, 
			 "HOMO_LUMO_gap": 0.2259, 
			 "cosmo_polarized_energy": -17.82, 
			 "cosmo_cavitation_energy": 26.68, 
			 "cosmo_dispersion_energy": -19.09, 
			 "cosmo_repulsion_energy": 1.53, 
			 "cosmo_total_nonelectrostatic_energy": 9.12, 
			 "SMD_solvation_energy": 4.03 
		},
		"coords": [
			{
				"x": 3.3140325895,
				"y": -1.3868648981,
				"z": 2.7627790075,
				"element": "C" 
			},
			{
				"x": 3.0421620065,
				"y": -0.3497892871,
				"z": 1.7019611628,
				"element": "C" 
			},
			{
				"x": 1.7320004332,
				"y": -0.0080970171,
				"z": 1.3355672508,
				"element": "C" 
			},
			{
				"x": 1.5110126674,
				"y": 0.9555104139,
				"z": 0.3506398374,
				"element": "C" 
			},
			{
				"x": 0.1367419206,
				"y": 1.3950221488,
				"z": -0.1256183338,
				"element": "C" 
			},
			{
				"x": -1.072096502,
				"y": 0.6172236397,
				"z": 0.430353102,
				"element": "C" 
			},
			{
				"x": -1.3682688774,
				"y": 0.8389962848,
				"z": 1.9104349756,
				"element": "C" 
			},
			{
				"x": -1.6567365008,
				"y": 2.1178685072,
				"z": 2.2719075079,
				"element": "O" 
			},
			{
				"x": -1.3710381996,
				"y": -0.0342902034,
				"z": 2.7428818492,
				"element": "O" 
			},
			{
				"x": 2.6453024402,
				"y": 1.5422952728,
				"z": -0.234098283,
				"element": "C" 
			},
			{
				"x": 3.900572789,
				"y": 1.2396060356,
				"z": 0.0938845475,
				"element": "N" 
			},
			{
				"x": 4.0816629393,
				"y": 0.3116759673,
				"z": 1.0439249829,
				"element": "C" 
			},
			{
				"x": 2.8309219183,
				"y": -1.1226740008,
				"z": 3.7098246301,
				"element": "H" 
			},
			{
				"x": 4.3864665845,
				"y": -1.4918095613,
				"z": 2.9488797071,
				"element": "H" 
			},
			{
				"x": 2.927455466,
				"y": -2.3691250986,
				"z": 2.4679234501,
				"element": "H" 
			},
			{
				"x": 0.8997152741,
				"y": -0.4941733232,
				"z": 1.8364438207,
				"element": "H" 
			},
			{
				"x": 0.1063640727,
				"y": 1.317353621,
				"z": -1.2192321644,
				"element": "H" 
			},
			{
				"x": 0.016581571,
				"y": 2.4686656467,
				"z": 0.0828511654,
				"element": "H" 
			},
			{
				"x": -0.9415216875,
				"y": -0.4570329994,
				"z": 0.2860501434,
				"element": "H" 
			},
			{
				"x": -1.9650198405,
				"y": 0.9135186252,
				"z": -0.1359243961,
				"element": "H" 
			},
			{
				"x": -1.6317972053,
				"y": 2.7030170354,
				"z": 1.501512866,
				"element": "H" 
			},
			{
				"x": 2.5225841734,
				"y": 2.2972550888,
				"z": -1.0120888237,
				"element": "H" 
			},
			{
				"x": 5.1164019674,
				"y": 0.0817481018,
				"z": 1.2963419947,
				"element": "H" 
			}
		],
		 "valence_orbital": [ 
			{
				"type": "occ",
				"energy": -0.32212,
				"method": "rhf"
			},
			{
				"type": "occ",
				"energy": -0.27877,
				"method": "rhf"
			},
			{
				"type": "occ",
				"energy": -0.27559,
				"method": "rhf"
			},
			{
				"type": "occ",
				"energy": -0.25021,
				"method": "rhf"
			},
			{
				"type": "occ",
				"energy": -0.24831,
				"method": "rhf"
			},
			{
				"type": "unocc",
				"energy": -0.02241,
				"method": "rhf"
			},
			{
				"type": "unocc",
				"energy": -0.01337,
				"method": "rhf"
			},
			{
				"type": "unocc",
				"energy": 0.00162,
				"method": "rhf"
			},
			{
				"type": "unocc",
				"energy": 0.03997,
				"method": "rhf"
			},
			{
				"type": "unocc",
				"energy": 0.10132,
				"method": "rhf"
			}
		],
		"cosmo_sigma_profile": { 
			"-0.025": 0.0,
			"-0.024": 0.0,
			"-0.023": 0.0,
			"-0.022": 0.0,
			"-0.021": 0.0,
			"-0.02": 0.0,
			"-0.019": 0.2868692771,
			"-0.018": 1.08671836217,
			"-0.017": 1.3439739129,
			"-0.016": 1.09274701208,
			"-0.015": 1.07756820437,
			"-0.014": 0.651498829565,
			"-0.013": 1.18972976712,
			"-0.012": 1.02810976076,
			"-0.011": 1.83673722514,
			"-0.01": 1.11712832404,
			"-0.009": 1.28753862947,
			"-0.008": 2.55283773578,
			"-0.007": 3.19067370083,
			"-0.006": 7.58598245166,
			"-0.005": 17.5734092234,
			"-0.004": 20.6120601427,
			"-0.003": 20.580318319,
			"-0.002": 14.8705828433,
			"-0.001": 13.1544712538,
			"0.0": 14.5977123459,
			"0.001": 11.4515962593,
			"0.002": 9.30869924044,
			"0.003": 13.0639364024,
			"0.004": 5.46663969249,
			"0.005": 5.08930382318,
			"0.006": 4.24366653769,
			"0.007": 2.46880534881,
			"0.008": 4.42287139352,
			"0.009": 5.81372901942,
			"0.01": 5.68404356017,
			"0.011": 4.96742766451,
			"0.012": 5.74814564306,
			"0.013": 3.08503121912,
			"0.014": 0.738104030368,
			"0.015": 1.01822386979,
			"0.016": 1.00532205503,
			"0.017": 0.582051918152,
			"0.018": 0.0668747595897,
			"0.019": 0.0,
			"0.02": 0.0,
			"0.021": 0.0,
			"0.022": 0.0,
			"0.023": 0.0,
			"0.024": 0.0,
			"0.025": 0.0
		}
	}
}
