{
	 "smiles": "COC1=C(F)C=C(C=C1F)C#N", 
	 "Tm": 359.15, 
	 "num_atms": 17, 
	 "gaussian": { 
		 "optdone": 1, 
		 "sigma_profile": "yes", 
		 "theory": "DFT", 
		 "functional": "B3LYP", 
		 "basiset": "6-31G**", 
		 "properties": { 
			 "R2extent": 2614.7632, 
			 "electric_dipole_moment_norm": 4.68244051537, 
			 "electric_quadrupole_moment_norm": 16.4110295975, 
			 "total_energy": -637.463604069, 
			 "HOMO_LUMO_gap": 0.19056, 
			 "cosmo_polarized_energy": -9.33, 
			 "cosmo_cavitation_energy": 23.75, 
			 "cosmo_dispersion_energy": -16.73, 
			 "cosmo_repulsion_energy": 1.29, 
			 "cosmo_total_nonelectrostatic_energy": 8.32, 
			 "SMD_solvation_energy": 7.34 
		},
		"coords": [
			{
				"x": -1.1649357176,
				"y": -1.7932509587,
				"z": -0.8859069198,
				"element": "C" 
			},
			{
				"x": -0.8275070316,
				"y": -0.4030814457,
				"z": -0.800135367,
				"element": "O" 
			},
			{
				"x": 0.0065285486,
				"y": 0.0623725666,
				"z": 0.1496712215,
				"element": "C" 
			},
			{
				"x": 0.6616880854,
				"y": -0.6546509523,
				"z": 1.1649605343,
				"element": "C" 
			},
			{
				"x": 0.481219067,
				"y": -1.9915406504,
				"z": 1.2667597791,
				"element": "F" 
			},
			{
				"x": 1.5012122094,
				"y": -0.0451580258,
				"z": 2.0859039242,
				"element": "C" 
			},
			{
				"x": 1.7172132662,
				"y": 1.3373492069,
				"z": 2.017943206,
				"element": "C" 
			},
			{
				"x": 1.081271287,
				"y": 2.0932411453,
				"z": 1.0174503887,
				"element": "C" 
			},
			{
				"x": 0.2524974363,
				"y": 1.4514720046,
				"z": 0.1183061931,
				"element": "C" 
			},
			{
				"x": -0.3594545293,
				"y": 2.1620756212,
				"z": -0.84037884,
				"element": "F" 
			},
			{
				"x": 2.5814980619,
				"y": 1.9764352934,
				"z": 2.963073934,
				"element": "C" 
			},
			{
				"x": 3.2839708746,
				"y": 2.496287968,
				"z": 3.7311205049,
				"element": "N" 
			},
			{
				"x": -1.6704543297,
				"y": -2.1379563964,
				"z": 0.0196738745,
				"element": "H" 
			},
			{
				"x": -1.8436615571,
				"y": -1.861865704,
				"z": -1.7363905642,
				"element": "H" 
			},
			{
				"x": -0.2800699496,
				"y": -2.4082791265,
				"z": -1.0680788285,
				"element": "H" 
			},
			{
				"x": 1.9761380816,
				"y": -0.655641719,
				"z": 2.844495886,
				"element": "H" 
			},
			{
				"x": 1.2265461971,
				"y": 3.1635911728,
				"z": 0.9367310733,
				"element": "H" 
			}
		],
		 "valence_orbital": [ 
			{
				"type": "occ",
				"energy": -0.35432,
				"method": "rhf"
			},
			{
				"type": "occ",
				"energy": -0.33604,
				"method": "rhf"
			},
			{
				"type": "occ",
				"energy": -0.32616,
				"method": "rhf"
			},
			{
				"type": "occ",
				"energy": -0.27324,
				"method": "rhf"
			},
			{
				"type": "occ",
				"energy": -0.24506,
				"method": "rhf"
			},
			{
				"type": "unocc",
				"energy": -0.0545,
				"method": "rhf"
			},
			{
				"type": "unocc",
				"energy": -0.02446,
				"method": "rhf"
			},
			{
				"type": "unocc",
				"energy": 0.03112,
				"method": "rhf"
			},
			{
				"type": "unocc",
				"energy": 0.04005,
				"method": "rhf"
			},
			{
				"type": "unocc",
				"energy": 0.07889,
				"method": "rhf"
			}
		],
		"cosmo_sigma_profile": { 
			"-0.025": 0.0,
			"-0.024": 0.0,
			"-0.023": 0.0,
			"-0.022": 0.0,
			"-0.021": 0.0,
			"-0.02": 0.0,
			"-0.019": 0.0,
			"-0.018": 0.0,
			"-0.017": 0.0,
			"-0.016": 0.0,
			"-0.015": 0.0,
			"-0.014": 0.0,
			"-0.013": 0.0,
			"-0.012": 0.0,
			"-0.011": 0.0,
			"-0.01": 0.90204212981,
			"-0.009": 3.69881665247,
			"-0.008": 3.30187285466,
			"-0.007": 5.10700124801,
			"-0.006": 10.9708533724,
			"-0.005": 11.773563629,
			"-0.004": 13.5750993342,
			"-0.003": 11.5292465952,
			"-0.002": 18.6775115172,
			"-0.001": 22.0293184854,
			"0.0": 16.5611927631,
			"0.001": 9.43292958599,
			"0.002": 8.31249006085,
			"0.003": 14.7857805749,
			"0.004": 9.47053085711,
			"0.005": 4.27020498792,
			"0.006": 4.45800571946,
			"0.007": 4.50403807617,
			"0.008": 5.20592599716,
			"0.009": 4.20549436957,
			"0.01": 3.37215348606,
			"0.011": 2.52575555083,
			"0.012": 2.39816231484,
			"0.013": 1.3500091996,
			"0.014": 0.0,
			"0.015": 0.0,
			"0.016": 0.0,
			"0.017": 0.0,
			"0.018": 0.0,
			"0.019": 0.0,
			"0.02": 0.0,
			"0.021": 0.0,
			"0.022": 0.0,
			"0.023": 0.0,
			"0.024": 0.0,
			"0.025": 0.0
		}
	}
}
