{
	 "smiles": "NC(=S)C(C1=CC=CC=C1)C1=CC=CC=C1", 
	 "Tm": 417.15, 
	 "num_atms": 29, 
	 "gaussian": { 
		 "optdone": 1, 
		 "sigma_profile": "yes", 
		 "theory": "DFT", 
		 "functional": "B3LYP", 
		 "basiset": "6-31G**", 
		 "properties": { 
			 "R2extent": 4539.9199, 
			 "electric_dipole_moment_norm": 4.29775506747, 
			 "electric_quadrupole_moment_norm": 16.596107966, 
			 "total_energy": -994.268522642, 
			 "HOMO_LUMO_gap": 0.17039, 
			 "cosmo_polarized_energy": -17.94, 
			 "cosmo_cavitation_energy": 34.13, 
			 "cosmo_dispersion_energy": -23.82, 
			 "cosmo_repulsion_energy": 1.85, 
			 "cosmo_total_nonelectrostatic_energy": 12.17, 
			 "SMD_solvation_energy": 4.82 
		},
		"coords": [
			{
				"x": 1.7720925514,
				"y": 0.5733400054,
				"z": 3.1412929733,
				"element": "N" 
			},
			{
				"x": 0.79894072,
				"y": 0.9139917703,
				"z": 2.2699189652,
				"element": "C" 
			},
			{
				"x": 0.6756543056,
				"y": 2.4469542537,
				"z": 1.6466731487,
				"element": "S" 
			},
			{
				"x": -0.1359131822,
				"y": -0.2686617628,
				"z": 1.942573287,
				"element": "C" 
			},
			{
				"x": 0.5877338031,
				"y": -1.3097472688,
				"z": 1.080237372,
				"element": "C" 
			},
			{
				"x": 1.4698462525,
				"y": -0.9458803514,
				"z": 0.0533731461,
				"element": "C" 
			},
			{
				"x": 2.0889744161,
				"y": -1.9225715899,
				"z": -0.7290695221,
				"element": "C" 
			},
			{
				"x": 1.8387763199,
				"y": -3.2758640071,
				"z": -0.4968949139,
				"element": "C" 
			},
			{
				"x": 0.9638452308,
				"y": -3.6482644962,
				"z": 0.5253105696,
				"element": "C" 
			},
			{
				"x": 0.3456008181,
				"y": -2.6717646558,
				"z": 1.3066488983,
				"element": "C" 
			},
			{
				"x": -1.4999955835,
				"y": 0.1371960838,
				"z": 1.3937792797,
				"element": "C" 
			},
			{
				"x": -2.5710837371,
				"y": 0.2884930741,
				"z": 2.2827787127,
				"element": "C" 
			},
			{
				"x": -3.8370167019,
				"y": 0.6550669404,
				"z": 1.8249783264,
				"element": "C" 
			},
			{
				"x": -4.0495447645,
				"y": 0.8710902265,
				"z": 0.4630932942,
				"element": "C" 
			},
			{
				"x": -2.9891396291,
				"y": 0.7177912686,
				"z": -0.4319415915,
				"element": "C" 
			},
			{
				"x": -1.7249105139,
				"y": 0.3514848621,
				"z": 0.0291518609,
				"element": "C" 
			},
			{
				"x": 1.919570478,
				"y": -0.3885562076,
				"z": 3.4133763219,
				"element": "H" 
			},
			{
				"x": 2.4875421469,
				"y": 1.2515999258,
				"z": 3.3592400457,
				"element": "H" 
			},
			{
				"x": -0.330938103,
				"y": -0.7523619807,
				"z": 2.9094843788,
				"element": "H" 
			},
			{
				"x": 1.6762336238,
				"y": 0.1046238281,
				"z": -0.1302678953,
				"element": "H" 
			},
			{
				"x": 2.7703263765,
				"y": -1.6226876327,
				"z": -1.5202886433,
				"element": "H" 
			},
			{
				"x": 2.3230390977,
				"y": -4.0340816306,
				"z": -1.1053979014,
				"element": "H" 
			},
			{
				"x": 0.7630325521,
				"y": -4.698605899,
				"z": 0.7167758605,
				"element": "H" 
			},
			{
				"x": -0.3403620231,
				"y": -2.9685313801,
				"z": 2.096615645,
				"element": "H" 
			},
			{
				"x": -2.4120734695,
				"y": 0.1233079471,
				"z": 3.3461022667,
				"element": "H" 
			},
			{
				"x": -4.654917342,
				"y": 0.7675516861,
				"z": 2.5310945038,
				"element": "H" 
			},
			{
				"x": -5.0341437292,
				"y": 1.1533015224,
				"z": 0.1012218013,
				"element": "H" 
			},
			{
				"x": -3.1456832642,
				"y": 0.8821836433,
				"z": -1.4943036949,
				"element": "H" 
			},
			{
				"x": -0.9113866493,
				"y": 0.227101825,
				"z": -0.6772564956,
				"element": "H" 
			}
		],
		 "valence_orbital": [ 
			{
				"type": "occ",
				"energy": -0.25484,
				"method": "rhf"
			},
			{
				"type": "occ",
				"energy": -0.24434,
				"method": "rhf"
			},
			{
				"type": "occ",
				"energy": -0.23734,
				"method": "rhf"
			},
			{
				"type": "occ",
				"energy": -0.23015,
				"method": "rhf"
			},
			{
				"type": "occ",
				"energy": -0.20391,
				"method": "rhf"
			},
			{
				"type": "unocc",
				"energy": -0.03352,
				"method": "rhf"
			},
			{
				"type": "unocc",
				"energy": -0.01428,
				"method": "rhf"
			},
			{
				"type": "unocc",
				"energy": -0.00875,
				"method": "rhf"
			},
			{
				"type": "unocc",
				"energy": 0.00667,
				"method": "rhf"
			},
			{
				"type": "unocc",
				"energy": 0.00855,
				"method": "rhf"
			}
		],
		"cosmo_sigma_profile": { 
			"-0.025": 0.0,
			"-0.024": 0.0,
			"-0.023": 0.0,
			"-0.022": 0.0,
			"-0.021": 0.0,
			"-0.02": 0.0,
			"-0.019": 0.0,
			"-0.018": 0.0,
			"-0.017": 0.0,
			"-0.016": 0.002559647348,
			"-0.015": 1.76758190186,
			"-0.014": 2.21187983242,
			"-0.013": 2.44979398646,
			"-0.012": 2.85865444313,
			"-0.011": 2.41807337423,
			"-0.01": 2.06131104329,
			"-0.009": 1.69672054502,
			"-0.008": 2.66869381598,
			"-0.007": 4.79514890309,
			"-0.006": 13.6535052803,
			"-0.005": 18.8165192975,
			"-0.004": 22.8695379554,
			"-0.003": 21.8717720214,
			"-0.002": 15.4568782828,
			"-0.001": 15.3673195573,
			"0.0": 14.1497737824,
			"0.001": 16.1381052965,
			"0.002": 15.4589116897,
			"0.003": 16.4637782391,
			"0.004": 19.2176258685,
			"0.005": 19.0352369945,
			"0.006": 12.9945374939,
			"0.007": 6.46996685091,
			"0.008": 6.56858870368,
			"0.009": 6.16025118517,
			"0.01": 4.77349443053,
			"0.011": 3.56369762488,
			"0.012": 2.54608226679,
			"0.013": 0.224896689898,
			"0.014": 0.0,
			"0.015": 0.0,
			"0.016": 0.0,
			"0.017": 0.0,
			"0.018": 0.0,
			"0.019": 0.0,
			"0.02": 0.0,
			"0.021": 0.0,
			"0.022": 0.0,
			"0.023": 0.0,
			"0.024": 0.0,
			"0.025": 0.0
		}
	}
}
