{
	 "smiles": "CC(=O)C1=CC(F)=CC(F)=C1O", 
	 "Tm": 383.15, 
	 "num_atms": 18, 
	 "gaussian": { 
		 "optdone": 1, 
		 "sigma_profile": "yes", 
		 "theory": "DFT", 
		 "functional": "B3LYP", 
		 "basiset": "6-31G**", 
		 "properties": { 
			 "R2extent": 2123.221, 
			 "electric_dipole_moment_norm": 3.57452367316, 
			 "electric_quadrupole_moment_norm": 4.16502231207, 
			 "total_energy": -658.576259023, 
			 "HOMO_LUMO_gap": 0.17483, 
			 "cosmo_polarized_energy": -9.12, 
			 "cosmo_cavitation_energy": 23.41, 
			 "cosmo_dispersion_energy": -17.12, 
			 "cosmo_repulsion_energy": 1.31, 
			 "cosmo_total_nonelectrostatic_energy": 7.59, 
			 "SMD_solvation_energy": 6.08 
		},
		"coords": [
			{
				"x": -2.7565607277,
				"y": 0.8227894719,
				"z": -0.2389878804,
				"element": "C" 
			},
			{
				"x": -1.3939636596,
				"y": 1.3781988886,
				"z": 0.1130120079,
				"element": "C" 
			},
			{
				"x": -1.2466645776,
				"y": 2.5730086079,
				"z": 0.3216617866,
				"element": "O" 
			},
			{
				"x": -0.1963641282,
				"y": 0.4652402982,
				"z": 0.211694256,
				"element": "C" 
			},
			{
				"x": 1.0261316005,
				"y": 1.0793332565,
				"z": 0.5444518644,
				"element": "C" 
			},
			{
				"x": 2.1821754097,
				"y": 0.3328446671,
				"z": 0.6599016088,
				"element": "C" 
			},
			{
				"x": 3.3430373369,
				"y": 0.9391305441,
				"z": 0.9793311174,
				"element": "F" 
			},
			{
				"x": 2.1898299339,
				"y": -1.0476025487,
				"z": 0.4542257826,
				"element": "C" 
			},
			{
				"x": 0.9850910883,
				"y": -1.6365913919,
				"z": 0.1287417066,
				"element": "C" 
			},
			{
				"x": 0.9120966466,
				"y": -2.9780616128,
				"z": -0.0870204907,
				"element": "F" 
			},
			{
				"x": -0.2160565236,
				"y": -0.9251029172,
				"z": -0.0008956,
				"element": "C" 
			},
			{
				"x": -1.3519136572,
				"y": -1.6010753391,
				"z": -0.325960647,
				"element": "O" 
			},
			{
				"x": -3.0698822255,
				"y": 0.066612904,
				"z": 0.487086359,
				"element": "H" 
			},
			{
				"x": -2.7350151102,
				"y": 0.3216123473,
				"z": -1.2113626565,
				"element": "H" 
			},
			{
				"x": -3.4678146975,
				"y": 1.6493237063,
				"z": -0.255100445,
				"element": "H" 
			},
			{
				"x": 1.0341130967,
				"y": 2.1505003532,
				"z": 0.7068308781,
				"element": "H" 
			},
			{
				"x": 3.0962835661,
				"y": -1.6337933615,
				"z": 0.5446249995,
				"element": "H" 
			},
			{
				"x": -1.1167233717,
				"y": -2.536567874,
				"z": -0.4202346475,
				"element": "H" 
			}
		],
		 "valence_orbital": [ 
			{
				"type": "occ",
				"energy": -0.3632,
				"method": "rhf"
			},
			{
				"type": "occ",
				"energy": -0.3382,
				"method": "rhf"
			},
			{
				"type": "occ",
				"energy": -0.2719,
				"method": "rhf"
			},
			{
				"type": "occ",
				"energy": -0.25454,
				"method": "rhf"
			},
			{
				"type": "occ",
				"energy": -0.23829,
				"method": "rhf"
			},
			{
				"type": "unocc",
				"energy": -0.06346,
				"method": "rhf"
			},
			{
				"type": "unocc",
				"energy": -0.00345,
				"method": "rhf"
			},
			{
				"type": "unocc",
				"energy": 0.03153,
				"method": "rhf"
			},
			{
				"type": "unocc",
				"energy": 0.04944,
				"method": "rhf"
			},
			{
				"type": "unocc",
				"energy": 0.09015,
				"method": "rhf"
			}
		],
		"cosmo_sigma_profile": { 
			"-0.025": 0.0,
			"-0.024": 0.0,
			"-0.023": 0.0,
			"-0.022": 0.0,
			"-0.021": 0.0,
			"-0.02": 0.0,
			"-0.019": 0.0,
			"-0.018": 0.0,
			"-0.017": 0.365105821403,
			"-0.016": 0.504524229388,
			"-0.015": 0.771401339436,
			"-0.014": 0.780869060191,
			"-0.013": 0.865997538267,
			"-0.012": 0.394483456696,
			"-0.011": 1.22392782368,
			"-0.01": 1.51398889929,
			"-0.009": 2.70915934647,
			"-0.008": 2.70264165446,
			"-0.007": 2.15191514925,
			"-0.006": 4.0760377091,
			"-0.005": 10.0441093912,
			"-0.004": 9.50964737291,
			"-0.003": 9.91854514266,
			"-0.002": 14.3547088618,
			"-0.001": 20.8279360052,
			"0.0": 24.4846487922,
			"0.001": 17.2651224658,
			"0.002": 12.0922995651,
			"0.003": 14.3677002705,
			"0.004": 13.7992075298,
			"0.005": 4.90478523105,
			"0.006": 4.03250596568,
			"0.007": 0.913883628032,
			"0.008": 1.68531571344,
			"0.009": 2.02322845453,
			"0.01": 1.81512547049,
			"0.011": 3.67369292992,
			"0.012": 2.85632067987,
			"0.013": 1.08325214578,
			"0.014": 0.0328909092947,
			"0.015": 0.0,
			"0.016": 0.0,
			"0.017": 0.0,
			"0.018": 0.0,
			"0.019": 0.0,
			"0.02": 0.0,
			"0.021": 0.0,
			"0.022": 0.0,
			"0.023": 0.0,
			"0.024": 0.0,
			"0.025": 0.0
		}
	}
}
