{
	 "smiles": "OC(=O)C1=C(Cl)C=C(Cl)C=N1", 
	 "Tm": 413.15, 
	 "num_atms": 14, 
	 "gaussian": { 
		 "optdone": 1, 
		 "sigma_profile": "yes", 
		 "theory": "DFT", 
		 "functional": "B3LYP", 
		 "basiset": "6-31G**", 
		 "properties": { 
			 "R2extent": 5051.5894, 
			 "electric_dipole_moment_norm": 4.75831350375, 
			 "electric_quadrupole_moment_norm": 14.6203220895, 
			 "total_energy": -1356.02909528, 
			 "HOMO_LUMO_gap": 0.1845, 
			 "cosmo_polarized_energy": -11.73, 
			 "cosmo_cavitation_energy": 22.85, 
			 "cosmo_dispersion_energy": -17.49, 
			 "cosmo_repulsion_energy": 1.41, 
			 "cosmo_total_nonelectrostatic_energy": 6.77, 
			 "SMD_solvation_energy": 4.09 
		},
		"coords": [
			{
				"x": 1.3197640033,
				"y": 0.0474606726,
				"z": 3.1173277639,
				"element": "O" 
			},
			{
				"x": 0.7244043846,
				"y": 0.9318487726,
				"z": 2.3024941373,
				"element": "C" 
			},
			{
				"x": -0.4105224029,
				"y": 1.3103957609,
				"z": 2.4634526458,
				"element": "O" 
			},
			{
				"x": 1.6296696535,
				"y": 1.3936965256,
				"z": 1.1738441263,
				"element": "C" 
			},
			{
				"x": 1.2783498871,
				"y": 2.3140991128,
				"z": 0.1717735406,
				"element": "C" 
			},
			{
				"x": -0.276224441,
				"y": 3.0813985294,
				"z": 0.0667799132,
				"element": "Cl" 
			},
			{
				"x": 2.2242983569,
				"y": 2.6416653621,
				"z": -0.8047801837,
				"element": "C" 
			},
			{
				"x": 3.4780525385,
				"y": 2.0451544309,
				"z": -0.7492144861,
				"element": "C" 
			},
			{
				"x": 4.6911792913,
				"y": 2.4201750939,
				"z": -1.9425362577,
				"element": "Cl" 
			},
			{
				"x": 3.7622773827,
				"y": 1.1371683905,
				"z": 0.2755303525,
				"element": "C" 
			},
			{
				"x": 2.8532939837,
				"y": 0.8361651578,
				"z": 1.1958706598,
				"element": "N" 
			},
			{
				"x": 2.2265673859,
				"y": -0.0888515074,
				"z": 2.7712446156,
				"element": "H" 
			},
			{
				"x": 1.9770775727,
				"y": 3.3487323062,
				"z": -1.5877597816,
				"element": "H" 
			},
			{
				"x": 4.7330124037,
				"y": 0.655491392,
				"z": 0.3445729543,
				"element": "H" 
			}
		],
		 "valence_orbital": [ 
			{
				"type": "occ",
				"energy": -0.32153,
				"method": "rhf"
			},
			{
				"type": "occ",
				"energy": -0.31639,
				"method": "rhf"
			},
			{
				"type": "occ",
				"energy": -0.30831,
				"method": "rhf"
			},
			{
				"type": "occ",
				"energy": -0.28429,
				"method": "rhf"
			},
			{
				"type": "occ",
				"energy": -0.27089,
				"method": "rhf"
			},
			{
				"type": "unocc",
				"energy": -0.08639,
				"method": "rhf"
			},
			{
				"type": "unocc",
				"energy": -0.06779,
				"method": "rhf"
			},
			{
				"type": "unocc",
				"energy": -0.01285,
				"method": "rhf"
			},
			{
				"type": "unocc",
				"energy": 0.02656,
				"method": "rhf"
			},
			{
				"type": "unocc",
				"energy": 0.02987,
				"method": "rhf"
			}
		],
		"cosmo_sigma_profile": { 
			"-0.025": 0.0,
			"-0.024": 0.0,
			"-0.023": 0.0,
			"-0.022": 0.0,
			"-0.021": 0.0,
			"-0.02": 0.0,
			"-0.019": 0.0,
			"-0.018": 0.0,
			"-0.017": 0.0,
			"-0.016": 0.0,
			"-0.015": 0.0,
			"-0.014": 0.0,
			"-0.013": 0.288848441163,
			"-0.012": 0.537013685117,
			"-0.011": 0.845946054419,
			"-0.01": 2.54718337485,
			"-0.009": 4.34388766672,
			"-0.008": 3.61741625874,
			"-0.007": 4.65787263376,
			"-0.006": 5.37997930018,
			"-0.005": 9.43774228158,
			"-0.004": 13.6528916415,
			"-0.003": 20.748255916,
			"-0.002": 19.4569100349,
			"-0.001": 12.106961062,
			"0.0": 11.4305253354,
			"0.001": 12.6245306431,
			"0.002": 15.2465653206,
			"0.003": 16.751400776,
			"0.004": 4.37282338543,
			"0.005": 3.06684110615,
			"0.006": 2.53738408896,
			"0.007": 2.80497748133,
			"0.008": 3.20483024318,
			"0.009": 4.49920881103,
			"0.01": 6.00630288518,
			"0.011": 5.43670738783,
			"0.012": 3.14002761744,
			"0.013": 0.583013803332,
			"0.014": 0.0,
			"0.015": 0.0,
			"0.016": 0.0,
			"0.017": 0.0,
			"0.018": 0.0,
			"0.019": 0.0,
			"0.02": 0.0,
			"0.021": 0.0,
			"0.022": 0.0,
			"0.023": 0.0,
			"0.024": 0.0,
			"0.025": 0.0
		}
	}
}
