{
	 "smiles": "NC1=C(C=C(Cl)C=C1Cl)C(O)=O", 
	 "Tm": 501.15, 
	 "num_atms": 17, 
	 "gaussian": { 
		 "optdone": 1, 
		 "sigma_profile": "yes", 
		 "theory": "DFT", 
		 "functional": "B3LYP", 
		 "basiset": "6-31G**", 
		 "properties": { 
			 "R2extent": 4481.3063, 
			 "electric_dipole_moment_norm": 1.64721722308, 
			 "electric_quadrupole_moment_norm": 6.8816171101, 
			 "total_energy": -1395.37174583, 
			 "HOMO_LUMO_gap": 0.15486, 
			 "cosmo_polarized_energy": -8.66, 
			 "cosmo_cavitation_energy": 25.01, 
			 "cosmo_dispersion_energy": -19.28, 
			 "cosmo_repulsion_energy": 1.54, 
			 "cosmo_total_nonelectrostatic_energy": 7.26, 
			 "SMD_solvation_energy": 4.72 
		},
		"coords": [
			{
				"x": 1.1224770093,
				"y": -2.2875043193,
				"z": 1.7974907924,
				"element": "N" 
			},
			{
				"x": 1.2265704369,
				"y": -1.9663368706,
				"z": 0.488035612,
				"element": "C" 
			},
			{
				"x": 0.4317819451,
				"y": -0.9434240521,
				"z": -0.1155495956,
				"element": "C" 
			},
			{
				"x": 0.5697625469,
				"y": -0.6394356267,
				"z": -1.4819116067,
				"element": "C" 
			},
			{
				"x": 1.4780064631,
				"y": -1.3259224846,
				"z": -2.2658909385,
				"element": "C" 
			},
			{
				"x": 1.647230683,
				"y": -0.9430088071,
				"z": -3.9720661628,
				"element": "Cl" 
			},
			{
				"x": 2.2733664569,
				"y": -2.3343736109,
				"z": -1.7084323708,
				"element": "C" 
			},
			{
				"x": 2.1426305422,
				"y": -2.6380624237,
				"z": -0.3661163892,
				"element": "C" 
			},
			{
				"x": 3.1515781861,
				"y": -3.9091911847,
				"z": 0.316284543,
				"element": "Cl" 
			},
			{
				"x": -0.5413049372,
				"y": -0.2003422755,
				"z": 0.7023619405,
				"element": "C" 
			},
			{
				"x": -1.228993538,
				"y": 0.7381707613,
				"z": 0.0105836135,
				"element": "O" 
			},
			{
				"x": -0.7517612757,
				"y": -0.3718304295,
				"z": 1.8987646976,
				"element": "O" 
			},
			{
				"x": 0.4550096777,
				"y": -1.7758705051,
				"z": 2.360265019,
				"element": "H" 
			},
			{
				"x": 1.7021074931,
				"y": -3.012969982,
				"z": 2.1842020566,
				"element": "H" 
			},
			{
				"x": -0.045615066,
				"y": 0.1401692899,
				"z": -1.9114268508,
				"element": "H" 
			},
			{
				"x": 2.9867549057,
				"y": -2.8754874263,
				"z": -2.3185000578,
				"element": "H" 
			},
			{
				"x": -1.8286015291,
				"y": 1.1515199471,
				"z": 0.6529056976,
				"element": "H" 
			}
		],
		 "valence_orbital": [ 
			{
				"type": "occ",
				"energy": -0.3176,
				"method": "rhf"
			},
			{
				"type": "occ",
				"energy": -0.30566,
				"method": "rhf"
			},
			{
				"type": "occ",
				"energy": -0.29223,
				"method": "rhf"
			},
			{
				"type": "occ",
				"energy": -0.26972,
				"method": "rhf"
			},
			{
				"type": "occ",
				"energy": -0.21639,
				"method": "rhf"
			},
			{
				"type": "unocc",
				"energy": -0.06153,
				"method": "rhf"
			},
			{
				"type": "unocc",
				"energy": -0.00796,
				"method": "rhf"
			},
			{
				"type": "unocc",
				"energy": 0.00361,
				"method": "rhf"
			},
			{
				"type": "unocc",
				"energy": 0.04026,
				"method": "rhf"
			},
			{
				"type": "unocc",
				"energy": 0.04646,
				"method": "rhf"
			}
		],
		"cosmo_sigma_profile": { 
			"-0.025": 0.0,
			"-0.024": 0.0,
			"-0.023": 0.0,
			"-0.022": 0.0,
			"-0.021": 0.0,
			"-0.02": 0.0,
			"-0.019": 0.043499737222,
			"-0.018": 0.973558106558,
			"-0.017": 1.01445010699,
			"-0.016": 0.809035276508,
			"-0.015": 0.652161839198,
			"-0.014": 0.527109344279,
			"-0.013": 1.08962052197,
			"-0.012": 1.64175371725,
			"-0.011": 2.12413119797,
			"-0.01": 1.59138271882,
			"-0.009": 2.81538487556,
			"-0.008": 4.00287278225,
			"-0.007": 4.15743050681,
			"-0.006": 4.53061380874,
			"-0.005": 5.63401342605,
			"-0.004": 4.66436048199,
			"-0.003": 8.25137543102,
			"-0.002": 13.2669167635,
			"-0.001": 14.4799474836,
			"0.0": 23.4025192343,
			"0.001": 27.8575579588,
			"0.002": 23.0573497404,
			"0.003": 16.2625113893,
			"0.004": 19.2035431532,
			"0.005": 9.67970961586,
			"0.006": 3.28504326928,
			"0.007": 3.18404988311,
			"0.008": 0.826930763566,
			"0.009": 1.17768426889,
			"0.01": 2.34150632542,
			"0.011": 2.0285913548,
			"0.012": 0.687964384721,
			"0.013": 0.0,
			"0.014": 0.0,
			"0.015": 0.0,
			"0.016": 0.0,
			"0.017": 0.0,
			"0.018": 0.0,
			"0.019": 0.0,
			"0.02": 0.0,
			"0.021": 0.0,
			"0.022": 0.0,
			"0.023": 0.0,
			"0.024": 0.0,
			"0.025": 0.0
		}
	}
}
