{
	 "smiles": "O=C1N(CC2=CC=NC3=CC=NN23)C(=O)C2=C1C=CC=C2", 
	 "Tm": 548.15, 
	 "num_atms": 31, 
	 "gaussian": { 
		 "optdone": 1, 
		 "sigma_profile": "yes", 
		 "theory": "DFT", 
		 "functional": "B3LYP", 
		 "basiset": "6-31G**", 
		 "properties": { 
			 "R2extent": 6453.4601, 
			 "electric_dipole_moment_norm": 2.94954252894, 
			 "electric_quadrupole_moment_norm": 15.4231298656, 
			 "total_energy": -947.076461742, 
			 "HOMO_LUMO_gap": 0.1399, 
			 "cosmo_polarized_energy": -17.04, 
			 "cosmo_cavitation_energy": 36.62, 
			 "cosmo_dispersion_energy": -25.62, 
			 "cosmo_repulsion_energy": 1.92, 
			 "cosmo_total_nonelectrostatic_energy": 12.92, 
			 "SMD_solvation_energy": 5.26 
		},
		"coords": [
			{
				"x": 0.6343584239,
				"y": 1.0667801224,
				"z": -2.3062332109,
				"element": "O" 
			},
			{
				"x": 0.3563771432,
				"y": 0.8817458297,
				"z": -1.1375339355,
				"element": "C" 
			},
			{
				"x": -0.5902532422,
				"y": -0.0418559346,
				"z": -0.6682007203,
				"element": "N" 
			},
			{
				"x": -1.3575011448,
				"y": -0.9334922043,
				"z": -1.5210286498,
				"element": "C" 
			},
			{
				"x": -0.5112088406,
				"y": -1.8867164377,
				"z": -2.3256353521,
				"element": "C" 
			},
			{
				"x": -0.4617694412,
				"y": -1.9244733582,
				"z": -3.6965774995,
				"element": "C" 
			},
			{
				"x": 0.3437711787,
				"y": -2.9009438696,
				"z": -4.3427108394,
				"element": "C" 
			},
			{
				"x": 1.0695305526,
				"y": -3.797551881,
				"z": -3.7056917363,
				"element": "N" 
			},
			{
				"x": 1.0268813181,
				"y": -3.7633397121,
				"z": -2.3575386259,
				"element": "C" 
			},
			{
				"x": 1.6316019344,
				"y": -4.5313276764,
				"z": -1.3636385212,
				"element": "C" 
			},
			{
				"x": 1.1666341341,
				"y": -3.9887537076,
				"z": -0.1597642399,
				"element": "C" 
			},
			{
				"x": 0.3276765921,
				"y": -2.9513839587,
				"z": -0.3240281628,
				"element": "N" 
			},
			{
				"x": 0.2436201564,
				"y": -2.8155503389,
				"z": -1.6639518405,
				"element": "N" 
			},
			{
				"x": -0.7420563941,
				"y": 0.0067145214,
				"z": 0.7344717678,
				"element": "C" 
			},
			{
				"x": -1.5458883855,
				"y": -0.6348563659,
				"z": 1.3753465651,
				"element": "O" 
			},
			{
				"x": 0.244309643,
				"y": 1.0256167601,
				"z": 1.1997497791,
				"element": "C" 
			},
			{
				"x": 0.8960573419,
				"y": 1.5525582054,
				"z": 0.0820581916,
				"element": "C" 
			},
			{
				"x": 1.8643291371,
				"y": 2.5385964974,
				"z": 0.204467995,
				"element": "C" 
			},
			{
				"x": 2.167897949,
				"y": 2.986693666,
				"z": 1.4968750839,
				"element": "C" 
			},
			{
				"x": 1.5135101809,
				"y": 2.4590559797,
				"z": 2.6176705074,
				"element": "C" 
			},
			{
				"x": 0.5338307497,
				"y": 1.4663834979,
				"z": 2.4829214056,
				"element": "C" 
			},
			{
				"x": -1.969138712,
				"y": -0.3501050176,
				"z": -2.2152174853,
				"element": "H" 
			},
			{
				"x": -2.0142100436,
				"y": -1.4920855484,
				"z": -0.8462626559,
				"element": "H" 
			},
			{
				"x": -1.0226559857,
				"y": -1.1999909221,
				"z": -4.2741260117,
				"element": "H" 
			},
			{
				"x": 0.3813241096,
				"y": -2.9269448864,
				"z": -5.4300115367,
				"element": "H" 
			},
			{
				"x": 2.3060023602,
				"y": -5.3585765739,
				"z": -1.5170170501,
				"element": "H" 
			},
			{
				"x": 1.4034600301,
				"y": -4.3056157546,
				"z": 0.8475333956,
				"element": "H" 
			},
			{
				"x": 2.3630562271,
				"y": 2.9415043489,
				"z": -0.6710679481,
				"element": "H" 
			},
			{
				"x": 2.9219544898,
				"y": 3.7559031549,
				"z": 1.6343593079,
				"element": "H" 
			},
			{
				"x": 1.770805627,
				"y": 2.8276194326,
				"z": 3.6061756613,
				"element": "H" 
			},
			{
				"x": 0.0186929109,
				"y": 1.0519921316,
				"z": 3.3434063616,
				"element": "H" 
			}
		],
		 "valence_orbital": [ 
			{
				"type": "occ",
				"energy": -0.27362,
				"method": "rhf"
			},
			{
				"type": "occ",
				"energy": -0.26995,
				"method": "rhf"
			},
			{
				"type": "occ",
				"energy": -0.2612,
				"method": "rhf"
			},
			{
				"type": "occ",
				"energy": -0.25806,
				"method": "rhf"
			},
			{
				"type": "occ",
				"energy": -0.22213,
				"method": "rhf"
			},
			{
				"type": "unocc",
				"energy": -0.08223,
				"method": "rhf"
			},
			{
				"type": "unocc",
				"energy": -0.05339,
				"method": "rhf"
			},
			{
				"type": "unocc",
				"energy": -0.04139,
				"method": "rhf"
			},
			{
				"type": "unocc",
				"energy": -0.00846,
				"method": "rhf"
			},
			{
				"type": "unocc",
				"energy": 0.02782,
				"method": "rhf"
			}
		],
		"cosmo_sigma_profile": { 
			"-0.025": 0.0,
			"-0.024": 0.0,
			"-0.023": 0.0,
			"-0.022": 0.0,
			"-0.021": 0.0,
			"-0.02": 0.0,
			"-0.019": 0.0,
			"-0.018": 0.0,
			"-0.017": 0.0,
			"-0.016": 0.0,
			"-0.015": 0.0,
			"-0.014": 0.0,
			"-0.013": 0.0,
			"-0.012": 0.0,
			"-0.011": 0.0,
			"-0.01": 0.0989439697285,
			"-0.009": 1.91445148845,
			"-0.008": 10.305729917,
			"-0.007": 20.0046383692,
			"-0.006": 21.0268383505,
			"-0.005": 19.1087935268,
			"-0.004": 18.2104339068,
			"-0.003": 18.9174453421,
			"-0.002": 18.195370123,
			"-0.001": 20.0603388693,
			"0.0": 22.7502742024,
			"0.001": 21.6412052375,
			"0.002": 21.6575550517,
			"0.003": 14.661643667,
			"0.004": 10.7516393443,
			"0.005": 6.58461679479,
			"0.006": 6.35795789191,
			"0.007": 7.36805506209,
			"0.008": 5.55426408207,
			"0.009": 4.62937461715,
			"0.01": 8.53483450198,
			"0.011": 11.0329443189,
			"0.012": 4.06223645488,
			"0.013": 1.24933246502,
			"0.014": 0.674240793468,
			"0.015": 0.63497856198,
			"0.016": 0.0294182639194,
			"0.017": 0.0,
			"0.018": 0.0,
			"0.019": 0.0,
			"0.02": 0.0,
			"0.021": 0.0,
			"0.022": 0.0,
			"0.023": 0.0,
			"0.024": 0.0,
			"0.025": 0.0
		}
	}
}
