{
	 "smiles": "CCN1CCCC1CNS(=O)(=O)C1=CC=C(N)C=C1", 
	 "Tm": 375.15, 
	 "num_atms": 40, 
	 "gaussian": { 
		 "optdone": 1, 
		 "sigma_profile": "yes", 
		 "theory": "DFT", 
		 "functional": "B3LYP", 
		 "basiset": "6-31G**", 
		 "properties": { 
			 "R2extent": 8094.2239, 
			 "electric_dipole_moment_norm": 5.81757814645, 
			 "electric_quadrupole_moment_norm": 39.2905975988, 
			 "total_energy": -1220.86557397, 
			 "HOMO_LUMO_gap": 0.19254, 
			 "cosmo_polarized_energy": -20.05, 
			 "cosmo_cavitation_energy": 42.31, 
			 "cosmo_dispersion_energy": -29.83, 
			 "cosmo_repulsion_energy": 2.3, 
			 "cosmo_total_nonelectrostatic_energy": 14.79, 
			 "SMD_solvation_energy": 4.42 
		},
		"coords": [
			{
				"x": -1.7313778044,
				"y": 0.1947717923,
				"z": 3.4061276012,
				"element": "C" 
			},
			{
				"x": -0.3668842083,
				"y": 0.0500117287,
				"z": 2.7083203456,
				"element": "C" 
			},
			{
				"x": -0.011569634,
				"y": 1.0805248308,
				"z": 1.7281456978,
				"element": "N" 
			},
			{
				"x": 0.1908851373,
				"y": 2.4353778423,
				"z": 2.2671814383,
				"element": "C" 
			},
			{
				"x": -0.1002236794,
				"y": 3.3661189691,
				"z": 1.0851605497,
				"element": "C" 
			},
			{
				"x": -1.2390742269,
				"y": 2.6272716064,
				"z": 0.36198848,
				"element": "C" 
			},
			{
				"x": -0.8342729799,
				"y": 1.1454416243,
				"z": 0.4972767885,
				"element": "C" 
			},
			{
				"x": -0.022306855,
				"y": 0.6817577394,
				"z": -0.7295265257,
				"element": "C" 
			},
			{
				"x": 0.6450856612,
				"y": -0.5868554491,
				"z": -0.4142281559,
				"element": "N" 
			},
			{
				"x": 1.6315430069,
				"y": -1.2651889248,
				"z": -1.6103619557,
				"element": "S" 
			},
			{
				"x": 2.4900445371,
				"y": -2.2104493107,
				"z": -0.8866073146,
				"element": "O" 
			},
			{
				"x": 2.219937861,
				"y": -0.2222883867,
				"z": -2.4655428552,
				"element": "O" 
			},
			{
				"x": 0.4588872387,
				"y": -2.1649483387,
				"z": -2.6055870551,
				"element": "C" 
			},
			{
				"x": -0.1503920476,
				"y": -3.3150941634,
				"z": -2.0915382394,
				"element": "C" 
			},
			{
				"x": -1.0418678726,
				"y": -4.0322660247,
				"z": -2.8752239867,
				"element": "C" 
			},
			{
				"x": -1.3382892646,
				"y": -3.6162684291,
				"z": -4.1902107304,
				"element": "C" 
			},
			{
				"x": -2.2664484256,
				"y": -4.3074475729,
				"z": -4.9537010063,
				"element": "N" 
			},
			{
				"x": -0.7111839456,
				"y": -2.4609760375,
				"z": -4.6933352712,
				"element": "C" 
			},
			{
				"x": 0.181836716,
				"y": -1.7417606087,
				"z": -3.9072157848,
				"element": "C" 
			},
			{
				"x": -1.8042850628,
				"y": 1.1213058229,
				"z": 3.9839098985,
				"element": "H" 
			},
			{
				"x": -1.8848188825,
				"y": -0.6382648221,
				"z": 4.1005275252,
				"element": "H" 
			},
			{
				"x": -2.5572488125,
				"y": 0.1800898429,
				"z": 2.6869908727,
				"element": "H" 
			},
			{
				"x": 0.4256938361,
				"y": 0.0321673598,
				"z": 3.4671187406,
				"element": "H" 
			},
			{
				"x": -0.3271794425,
				"y": -0.9201777342,
				"z": 2.2010895643,
				"element": "H" 
			},
			{
				"x": -0.5026376075,
				"y": 2.6612399742,
				"z": 3.0939847542,
				"element": "H" 
			},
			{
				"x": 1.2091802437,
				"y": 2.5483734083,
				"z": 2.6592375877,
				"element": "H" 
			},
			{
				"x": 0.7786619522,
				"y": 3.4469521163,
				"z": 0.4363646283,
				"element": "H" 
			},
			{
				"x": -0.3738826255,
				"y": 4.3760188407,
				"z": 1.4030312741,
				"element": "H" 
			},
			{
				"x": -1.3682578444,
				"y": 2.9392840031,
				"z": -0.6794114801,
				"element": "H" 
			},
			{
				"x": -2.1879408298,
				"y": 2.8037393677,
				"z": 0.8811506385,
				"element": "H" 
			},
			{
				"x": -1.7119545615,
				"y": 0.494096464,
				"z": 0.5889386933,
				"element": "H" 
			},
			{
				"x": 0.7014439634,
				"y": 1.4539622626,
				"z": -1.0229690817,
				"element": "H" 
			},
			{
				"x": -0.7003294991,
				"y": 0.521407278,
				"z": -1.5753215166,
				"element": "H" 
			},
			{
				"x": 1.2165707255,
				"y": -0.4737148488,
				"z": 0.4253377005,
				"element": "H" 
			},
			{
				"x": 0.0844283919,
				"y": -3.646897551,
				"z": -1.0857906566,
				"element": "H" 
			},
			{
				"x": -1.5168625042,
				"y": -4.9251761898,
				"z": -2.4771266611,
				"element": "H" 
			},
			{
				"x": -2.2146238927,
				"y": -4.1733384275,
				"z": -5.9531187064,
				"element": "H" 
			},
			{
				"x": -2.4384870723,
				"y": -5.2671762472,
				"z": -4.6914270216,
				"element": "H" 
			},
			{
				"x": -0.9272045006,
				"y": -2.1318510023,
				"z": -5.7064161213,
				"element": "H" 
			},
			{
				"x": 0.6793048108,
				"y": -0.8599728045,
				"z": -4.2959226528,
				"element": "H" 
			}
		],
		 "valence_orbital": [ 
			{
				"type": "occ",
				"energy": -0.28082,
				"method": "rhf"
			},
			{
				"type": "occ",
				"energy": -0.26168,
				"method": "rhf"
			},
			{
				"type": "occ",
				"energy": -0.25532,
				"method": "rhf"
			},
			{
				"type": "occ",
				"energy": -0.21796,
				"method": "rhf"
			},
			{
				"type": "occ",
				"energy": -0.20689,
				"method": "rhf"
			},
			{
				"type": "unocc",
				"energy": -0.01435,
				"method": "rhf"
			},
			{
				"type": "unocc",
				"energy": -0.00927,
				"method": "rhf"
			},
			{
				"type": "unocc",
				"energy": 0.06594,
				"method": "rhf"
			},
			{
				"type": "unocc",
				"energy": 0.07413,
				"method": "rhf"
			},
			{
				"type": "unocc",
				"energy": 0.07918,
				"method": "rhf"
			}
		],
		"cosmo_sigma_profile": { 
			"-0.025": 0.0,
			"-0.024": 0.0,
			"-0.023": 0.0,
			"-0.022": 0.0,
			"-0.021": 0.0,
			"-0.02": 0.0,
			"-0.019": 0.0,
			"-0.018": 0.0,
			"-0.017": 0.0,
			"-0.016": 0.0,
			"-0.015": 0.0,
			"-0.014": 0.273273451609,
			"-0.013": 2.44219700541,
			"-0.012": 2.7477908095,
			"-0.011": 3.24898857278,
			"-0.01": 3.45439654323,
			"-0.009": 4.19918781644,
			"-0.008": 3.80709625109,
			"-0.007": 5.76819259385,
			"-0.006": 7.84197091974,
			"-0.005": 8.94917293733,
			"-0.004": 17.9091665193,
			"-0.003": 35.7008896819,
			"-0.002": 41.0995978288,
			"-0.001": 38.1663255035,
			"0.0": 33.503074129,
			"0.001": 23.3850427703,
			"0.002": 13.6610865396,
			"0.003": 13.2882527654,
			"0.004": 18.9428997643,
			"0.005": 7.80541953919,
			"0.006": 5.06264226595,
			"0.007": 4.84608805466,
			"0.008": 4.82249980224,
			"0.009": 4.87227880194,
			"0.01": 4.74218523929,
			"0.011": 9.859330804,
			"0.012": 8.9409931097,
			"0.013": 1.69097678397,
			"0.014": 0.0,
			"0.015": 0.0,
			"0.016": 0.0,
			"0.017": 0.0,
			"0.018": 0.0,
			"0.019": 0.0,
			"0.02": 0.0,
			"0.021": 0.0,
			"0.022": 0.0,
			"0.023": 0.0,
			"0.024": 0.0,
			"0.025": 0.0
		}
	}
}
