{
	 "smiles": "[O-][N+](=O)C1=C(I)C=CC(Cl)=C1", 
	 "Tm": 337.15, 
	 "num_atms": 14, 
	 "gaussian": { 
		 "optdone": 1, 
		 "sigma_profile": "yes", 
		 "theory": "DFT", 
		 "functional": "B3LYP", 
		 "basiset": "6-31G**", 
		 "properties": { 
			 "R2extent": 3045.0606, 
			 "electric_dipole_moment_norm": 3.41796147872, 
			 "electric_quadrupole_moment_norm": 12.6952853918, 
			 "total_energy": -907.102585247, 
			 "HOMO_LUMO_gap": 0.17355, 
			 "cosmo_polarized_energy": -8.25, 
			 "cosmo_cavitation_energy": 24.86, 
			 "cosmo_dispersion_energy": -19.13, 
			 "cosmo_repulsion_energy": 1.51, 
			 "cosmo_total_nonelectrostatic_energy": 7.24, 
			 "SMD_solvation_energy": 5.83 
		},
		"coords": [
			{
				"x": -0.2052977986,
				"y": 1.6169480997,
				"z": 4.1233167293,
				"element": "O" 
			},
			{
				"x": 0.6801275625,
				"y": 1.7750905863,
				"z": 3.2911960854,
				"element": "N" 
			},
			{
				"x": 1.7014987469,
				"y": 2.4380415578,
				"z": 3.4279830465,
				"element": "O" 
			},
			{
				"x": 0.4840321995,
				"y": 1.1199384251,
				"z": 1.9797634512,
				"element": "C" 
			},
			{
				"x": 0.9543685138,
				"y": -0.1712859566,
				"z": 1.7411934035,
				"element": "C" 
			},
			{
				"x": 1.9719339161,
				"y": -1.2836678075,
				"z": 3.2128816054,
				"element": "I" 
			},
			{
				"x": 0.7357196378,
				"y": -0.7322444114,
				"z": 0.4788746818,
				"element": "C" 
			},
			{
				"x": 0.0653095884,
				"y": -0.0173382788,
				"z": -0.5120277591,
				"element": "C" 
			},
			{
				"x": -0.3925445098,
				"y": 1.2724684006,
				"z": -0.2407460609,
				"element": "C" 
			},
			{
				"x": -1.234512223,
				"y": 2.1753246997,
				"z": -1.4790414688,
				"element": "Cl" 
			},
			{
				"x": -0.1881526459,
				"y": 1.8546887375,
				"z": 1.0075988106,
				"element": "C" 
			},
			{
				"x": 1.0911197729,
				"y": -1.7342647885,
				"z": 0.2673328044,
				"element": "H" 
			},
			{
				"x": -0.1000009636,
				"y": -0.4595734862,
				"z": -1.4878498517,
				"element": "H" 
			},
			{
				"x": -0.5417017972,
				"y": 2.8561742224,
				"z": 1.2236245226,
				"element": "H" 
			}
		],
		 "valence_orbital": [ 
			{
				"type": "occ",
				"energy": -0.31796,
				"method": "rhf"
			},
			{
				"type": "occ",
				"energy": -0.30729,
				"method": "rhf"
			},
			{
				"type": "occ",
				"energy": -0.28945,
				"method": "rhf"
			},
			{
				"type": "occ",
				"energy": -0.28761,
				"method": "rhf"
			},
			{
				"type": "occ",
				"energy": -0.2601,
				"method": "rhf"
			},
			{
				"type": "unocc",
				"energy": -0.08655,
				"method": "rhf"
			},
			{
				"type": "unocc",
				"energy": -0.06153,
				"method": "rhf"
			},
			{
				"type": "unocc",
				"energy": -0.05242,
				"method": "rhf"
			},
			{
				"type": "unocc",
				"energy": -0.05122,
				"method": "rhf"
			},
			{
				"type": "unocc",
				"energy": 0.00673,
				"method": "rhf"
			}
		],
		"cosmo_sigma_profile": { 
			"-0.025": 0.0,
			"-0.024": 0.0,
			"-0.023": 0.0,
			"-0.022": 0.0,
			"-0.021": 0.0,
			"-0.02": 0.0,
			"-0.019": 0.0,
			"-0.018": 0.0,
			"-0.017": 0.0,
			"-0.016": 0.0,
			"-0.015": 0.0,
			"-0.014": 0.0,
			"-0.013": 0.000613972466304,
			"-0.012": 0.588150054299,
			"-0.011": 1.38754096248,
			"-0.01": 1.77756460861,
			"-0.009": 4.27494048251,
			"-0.008": 7.65780466308,
			"-0.007": 6.37125698254,
			"-0.006": 6.61846458936,
			"-0.005": 6.34121075337,
			"-0.004": 6.39156001985,
			"-0.003": 9.36494787941,
			"-0.002": 11.4843529358,
			"-0.001": 23.2416242725,
			"0.0": 27.0928735556,
			"0.001": 17.6253588416,
			"0.002": 17.5114724557,
			"0.003": 21.8789448917,
			"0.004": 8.91047123675,
			"0.005": 4.14608717249,
			"0.006": 7.94371718218,
			"0.007": 10.3333570314,
			"0.008": 5.51401041081,
			"0.009": 1.42060323647,
			"0.01": 0.0,
			"0.011": 0.0,
			"0.012": 0.0,
			"0.013": 0.0,
			"0.014": 0.0,
			"0.015": 0.0,
			"0.016": 0.0,
			"0.017": 0.0,
			"0.018": 0.0,
			"0.019": 0.0,
			"0.02": 0.0,
			"0.021": 0.0,
			"0.022": 0.0,
			"0.023": 0.0,
			"0.024": 0.0,
			"0.025": 0.0
		}
	}
}
