{
	 "smiles": "CC(=O)C1=CC(Br)=CC(Br)=C1O", 
	 "Tm": 382.65, 
	 "num_atms": 18, 
	 "gaussian": { 
		 "optdone": 1, 
		 "sigma_profile": "yes", 
		 "theory": "DFT", 
		 "functional": "B3LYP", 
		 "basiset": "6-31G**", 
		 "properties": { 
			 "R2extent": 8710.5835, 
			 "electric_dipole_moment_norm": 3.57171347395, 
			 "electric_quadrupole_moment_norm": 8.9432140084, 
			 "total_energy": -5601.720974, 
			 "HOMO_LUMO_gap": 0.17197, 
			 "cosmo_polarized_energy": -8.66, 
			 "cosmo_cavitation_energy": 26.94, 
			 "cosmo_dispersion_energy": -20.77, 
			 "cosmo_repulsion_energy": 1.65, 
			 "cosmo_total_nonelectrostatic_energy": 7.82, 
			 "SMD_solvation_energy": 3.41 
		},
		"coords": [
			{
				"x": 1.1342869982,
				"y": -1.7555829467,
				"z": -0.9378273889,
				"element": "C" 
			},
			{
				"x": 2.0785695212,
				"y": -0.6113000302,
				"z": -1.2330928919,
				"element": "C" 
			},
			{
				"x": 3.2597434864,
				"y": -0.8296208001,
				"z": -1.4551485946,
				"element": "O" 
			},
			{
				"x": 1.5870479547,
				"y": 0.8199984777,
				"z": -1.2601476392,
				"element": "C" 
			},
			{
				"x": 2.5600525669,
				"y": 1.7909753697,
				"z": -1.5442288238,
				"element": "C" 
			},
			{
				"x": 2.2378153362,
				"y": 3.1374288343,
				"z": -1.5981029054,
				"element": "C" 
			},
			{
				"x": 3.5831027156,
				"y": 4.4339456135,
				"z": -1.9862235081,
				"element": "Br" 
			},
			{
				"x": 0.9290773422,
				"y": 3.5635348314,
				"z": -1.3697721879,
				"element": "C" 
			},
			{
				"x": -0.0367777286,
				"y": 2.6082187452,
				"z": -1.0885786629,
				"element": "C" 
			},
			{
				"x": -1.8443381189,
				"y": 3.1658094589,
				"z": -0.7703914737,
				"element": "Br" 
			},
			{
				"x": 0.2568927656,
				"y": 1.232583523,
				"z": -1.0261518618,
				"element": "C" 
			},
			{
				"x": -0.6990873284,
				"y": 0.3173903322,
				"z": -0.750334422,
				"element": "O" 
			},
			{
				"x": 1.7073723444,
				"y": -2.6827962081,
				"z": -0.9714185177,
				"element": "H" 
			},
			{
				"x": 0.3177656337,
				"y": -1.7874833852,
				"z": -1.6650596639,
				"element": "H" 
			},
			{
				"x": 0.6660234574,
				"y": -1.6340137473,
				"z": 0.0432603783,
				"element": "H" 
			},
			{
				"x": 3.5707672279,
				"y": 1.4425452644,
				"z": -1.718863059,
				"element": "H" 
			},
			{
				"x": 0.6679602347,
				"y": 4.6134419594,
				"z": -1.4097622384,
				"element": "H" 
			},
			{
				"x": -1.5435744094,
				"y": 0.7817247075,
				"z": -0.6199565393,
				"element": "H" 
			}
		],
		 "valence_orbital": [ 
			{
				"type": "occ",
				"energy": -0.30251,
				"method": "rhf"
			},
			{
				"type": "occ",
				"energy": -0.29584,
				"method": "rhf"
			},
			{
				"type": "occ",
				"energy": -0.27186,
				"method": "rhf"
			},
			{
				"type": "occ",
				"energy": -0.25761,
				"method": "rhf"
			},
			{
				"type": "occ",
				"energy": -0.24094,
				"method": "rhf"
			},
			{
				"type": "unocc",
				"energy": -0.06897,
				"method": "rhf"
			},
			{
				"type": "unocc",
				"energy": -0.03219,
				"method": "rhf"
			},
			{
				"type": "unocc",
				"energy": -0.02324,
				"method": "rhf"
			},
			{
				"type": "unocc",
				"energy": 0.01304,
				"method": "rhf"
			},
			{
				"type": "unocc",
				"energy": 0.02001,
				"method": "rhf"
			}
		],
		"cosmo_sigma_profile": { 
			"-0.025": 0.0,
			"-0.024": 0.0,
			"-0.023": 0.0,
			"-0.022": 0.0,
			"-0.021": 0.0,
			"-0.02": 0.0,
			"-0.019": 0.0,
			"-0.018": 0.0,
			"-0.017": 0.0,
			"-0.016": 0.0,
			"-0.015": 0.387425274805,
			"-0.014": 0.75011737964,
			"-0.013": 0.180533376556,
			"-0.012": 0.826683263329,
			"-0.011": 1.28251698874,
			"-0.01": 0.644702775161,
			"-0.009": 1.87951673268,
			"-0.008": 2.67279767001,
			"-0.007": 2.4558209962,
			"-0.006": 5.43011027595,
			"-0.005": 11.7569483111,
			"-0.004": 14.4737529228,
			"-0.003": 12.9528411731,
			"-0.002": 18.3345089089,
			"-0.001": 25.2053296283,
			"0.0": 27.6978865709,
			"0.001": 24.5258808112,
			"0.002": 16.9617385856,
			"0.003": 17.1108925117,
			"0.004": 15.3954245949,
			"0.005": 6.47106430842,
			"0.006": 1.78412515947,
			"0.007": 0.746047081296,
			"0.008": 1.84899505551,
			"0.009": 1.73633593224,
			"0.01": 2.01881895402,
			"0.011": 3.58489697492,
			"0.012": 2.59293588546,
			"0.013": 0.91928979972,
			"0.014": 0.0016374292584,
			"0.015": 0.0,
			"0.016": 0.0,
			"0.017": 0.0,
			"0.018": 0.0,
			"0.019": 0.0,
			"0.02": 0.0,
			"0.021": 0.0,
			"0.022": 0.0,
			"0.023": 0.0,
			"0.024": 0.0,
			"0.025": 0.0
		}
	}
}
