{
	 "smiles": "NC(=O)OCC(O)COC1=CC=C(Cl)C=C1", 
	 "Tm": 363.15, 
	 "num_atms": 28, 
	 "gaussian": { 
		 "optdone": 1, 
		 "sigma_profile": "yes", 
		 "theory": "DFT", 
		 "functional": "B3LYP", 
		 "basiset": "6-31G**", 
		 "properties": { 
			 "R2extent": 6536.5289, 
			 "electric_dipole_moment_norm": 5.10818574545, 
			 "electric_quadrupole_moment_norm": 18.3594059444, 
			 "total_energy": -1204.1403156, 
			 "HOMO_LUMO_gap": 0.20712, 
			 "cosmo_polarized_energy": -17.36, 
			 "cosmo_cavitation_energy": 34.65, 
			 "cosmo_dispersion_energy": -24.5, 
			 "cosmo_repulsion_energy": 1.97, 
			 "cosmo_total_nonelectrostatic_energy": 12.12, 
			 "SMD_solvation_energy": 6.89 
		},
		"coords": [
			{
				"x": -3.1298362547,
				"y": -1.4280205661,
				"z": 3.1151318852,
				"element": "N" 
			},
			{
				"x": -1.9684314678,
				"y": -0.8950984158,
				"z": 2.6328856944,
				"element": "C" 
			},
			{
				"x": -1.6631983959,
				"y": 0.2790962973,
				"z": 2.6655188709,
				"element": "O" 
			},
			{
				"x": -1.206403457,
				"y": -1.8851476292,
				"z": 2.072008415,
				"element": "O" 
			},
			{
				"x": 0.0476166745,
				"y": -1.4619196525,
				"z": 1.4938437276,
				"element": "C" 
			},
			{
				"x": -0.1523526026,
				"y": -1.1499964563,
				"z": 0.0131653623,
				"element": "C" 
			},
			{
				"x": -0.700777175,
				"y": -2.2661790334,
				"z": -0.6735331994,
				"element": "O" 
			},
			{
				"x": 1.1789831815,
				"y": -0.8550339361,
				"z": -0.6835743539,
				"element": "C" 
			},
			{
				"x": 1.8153727325,
				"y": 0.3108509938,
				"z": -0.1713525762,
				"element": "O" 
			},
			{
				"x": 1.4787698134,
				"y": 1.5444732646,
				"z": -0.6611209557,
				"element": "C" 
			},
			{
				"x": 2.2125843157,
				"y": 2.616662657,
				"z": -0.1333944051,
				"element": "C" 
			},
			{
				"x": 1.9724349433,
				"y": 3.9161781243,
				"z": -0.5630419733,
				"element": "C" 
			},
			{
				"x": 0.9921027793,
				"y": 4.1499805127,
				"z": -1.5299626092,
				"element": "C" 
			},
			{
				"x": 0.6855246737,
				"y": 5.7940540519,
				"z": -2.07924842,
				"element": "Cl" 
			},
			{
				"x": 0.2549536403,
				"y": 3.0962285509,
				"z": -2.0593427707,
				"element": "C" 
			},
			{
				"x": 0.4940722499,
				"y": 1.7893348642,
				"z": -1.6251155807,
				"element": "C" 
			},
			{
				"x": -3.1941244247,
				"y": -2.4243171534,
				"z": 3.2524215565,
				"element": "H" 
			},
			{
				"x": -3.6847078347,
				"y": -0.8268895903,
				"z": 3.7027013349,
				"element": "H" 
			},
			{
				"x": 0.4336405275,
				"y": -0.5941397992,
				"z": 2.0302629592,
				"element": "H" 
			},
			{
				"x": 0.7175709131,
				"y": -2.3179454433,
				"z": 1.6143387171,
				"element": "H" 
			},
			{
				"x": -0.8131826837,
				"y": -0.2733002108,
				"z": -0.0642168827,
				"element": "H" 
			},
			{
				"x": -1.442443427,
				"y": -2.5832475009,
				"z": -0.1397011356,
				"element": "H" 
			},
			{
				"x": 1.0210233634,
				"y": -0.7910967819,
				"z": -1.7655157676,
				"element": "H" 
			},
			{
				"x": 1.8762826971,
				"y": -1.6780652755,
				"z": -0.499531818,
				"element": "H" 
			},
			{
				"x": 2.9711454078,
				"y": 2.4084288489,
				"z": 0.6136591905,
				"element": "H" 
			},
			{
				"x": 2.5418952968,
				"y": 4.7433920405,
				"z": -0.1539554272,
				"element": "H" 
			},
			{
				"x": -0.5086110366,
				"y": 3.2876490598,
				"z": -2.8052206407,
				"element": "H" 
			},
			{
				"x": -0.0994044503,
				"y": 0.9851681788,
				"z": -2.0430091975,
				"element": "H" 
			}
		],
		 "valence_orbital": [ 
			{
				"type": "occ",
				"energy": -0.28991,
				"method": "rhf"
			},
			{
				"type": "occ",
				"energy": -0.28335,
				"method": "rhf"
			},
			{
				"type": "occ",
				"energy": -0.27373,
				"method": "rhf"
			},
			{
				"type": "occ",
				"energy": -0.25952,
				"method": "rhf"
			},
			{
				"type": "occ",
				"energy": -0.21802,
				"method": "rhf"
			},
			{
				"type": "unocc",
				"energy": -0.0109,
				"method": "rhf"
			},
			{
				"type": "unocc",
				"energy": 0.00434,
				"method": "rhf"
			},
			{
				"type": "unocc",
				"energy": 0.0363,
				"method": "rhf"
			},
			{
				"type": "unocc",
				"energy": 0.04121,
				"method": "rhf"
			},
			{
				"type": "unocc",
				"energy": 0.05976,
				"method": "rhf"
			}
		],
		"cosmo_sigma_profile": { 
			"-0.025": 0.0,
			"-0.024": 0.0,
			"-0.023": 0.0,
			"-0.022": 0.0,
			"-0.021": 0.0,
			"-0.02": 0.0,
			"-0.019": 0.0,
			"-0.018": 0.0,
			"-0.017": 0.0,
			"-0.016": 0.0,
			"-0.015": 0.538546138687,
			"-0.014": 2.52991985414,
			"-0.013": 2.9432174839,
			"-0.012": 2.45940871969,
			"-0.011": 3.00541633993,
			"-0.01": 3.92730298055,
			"-0.009": 2.08646912608,
			"-0.008": 3.16584835573,
			"-0.007": 10.9926711155,
			"-0.006": 17.3112507855,
			"-0.005": 14.5069794165,
			"-0.004": 15.7245630913,
			"-0.003": 14.9612673099,
			"-0.002": 16.7848430005,
			"-0.001": 16.064755671,
			"0.0": 15.6686394054,
			"0.001": 17.1144291803,
			"0.002": 20.3116257397,
			"0.003": 23.7980598039,
			"0.004": 22.6205013872,
			"0.005": 14.243983973,
			"0.006": 6.22379856805,
			"0.007": 4.59791772356,
			"0.008": 3.7654686873,
			"0.009": 3.73698926366,
			"0.01": 2.42633163411,
			"0.011": 2.95651932105,
			"0.012": 4.60776513745,
			"0.013": 6.5623332699,
			"0.014": 0.810022339587,
			"0.015": 0.0,
			"0.016": 0.0,
			"0.017": 0.0,
			"0.018": 0.0,
			"0.019": 0.0,
			"0.02": 0.0,
			"0.021": 0.0,
			"0.022": 0.0,
			"0.023": 0.0,
			"0.024": 0.0,
			"0.025": 0.0
		}
	}
}
