{
	 "smiles": "CCN1C(S)=NN=C1C1=CC=C(C=C1)C(C)(C)C", 
	 "Tm": 404.15, 
	 "num_atms": 37, 
	 "gaussian": { 
		 "optdone": 1, 
		 "sigma_profile": "yes", 
		 "theory": "DFT", 
		 "functional": "B3LYP", 
		 "basiset": "6-31G**", 
		 "properties": { 
			 "R2extent": 8460.2277, 
			 "electric_dipole_moment_norm": 4.98135794638, 
			 "electric_quadrupole_moment_norm": 20.4749215117, 
			 "total_energy": -1107.37990179, 
			 "HOMO_LUMO_gap": 0.19078, 
			 "cosmo_polarized_energy": -16.05, 
			 "cosmo_cavitation_energy": 40.29, 
			 "cosmo_dispersion_energy": -28.36, 
			 "cosmo_repulsion_energy": 2.15, 
			 "cosmo_total_nonelectrostatic_energy": 14.08, 
			 "SMD_solvation_energy": 4.33 
		},
		"coords": [
			{
				"x": 0.4852451355,
				"y": -4.6114098414,
				"z": -1.1575575725,
				"element": "C" 
			},
			{
				"x": -0.7560788714,
				"y": -4.2602213367,
				"z": -0.3339063383,
				"element": "C" 
			},
			{
				"x": -0.4241336547,
				"y": -3.7959426273,
				"z": 1.0172150726,
				"element": "N" 
			},
			{
				"x": -0.079644815,
				"y": -4.5886518255,
				"z": 2.0832556501,
				"element": "C" 
			},
			{
				"x": -0.2772286916,
				"y": -6.3472282148,
				"z": 2.0747802685,
				"element": "S" 
			},
			{
				"x": 0.3877555801,
				"y": -3.8779247148,
				"z": 3.0823423937,
				"element": "N" 
			},
			{
				"x": 0.3692231714,
				"y": -2.5602907003,
				"z": 2.6753275274,
				"element": "N" 
			},
			{
				"x": -0.108940608,
				"y": -2.5148004954,
				"z": 1.4494021703,
				"element": "C" 
			},
			{
				"x": -0.2751423457,
				"y": -1.2761087806,
				"z": 0.6730922975,
				"element": "C" 
			},
			{
				"x": 0.7479070823,
				"y": -0.3144103983,
				"z": 0.7005815218,
				"element": "C" 
			},
			{
				"x": 0.6117247993,
				"y": 0.8835177206,
				"z": 0.0091768069,
				"element": "C" 
			},
			{
				"x": -0.5408900261,
				"y": 1.1817436833,
				"z": -0.7402776779,
				"element": "C" 
			},
			{
				"x": -1.5617678876,
				"y": 0.221868986,
				"z": -0.7470409846,
				"element": "C" 
			},
			{
				"x": -1.4385325613,
				"y": -0.9810810215,
				"z": -0.0495118531,
				"element": "C" 
			},
			{
				"x": -0.6424160367,
				"y": 2.5179529084,
				"z": -1.4971103418,
				"element": "C" 
			},
			{
				"x": -0.5316545555,
				"y": 3.6881743583,
				"z": -0.4905462446,
				"element": "C" 
			},
			{
				"x": -1.9750412145,
				"y": 2.6610685167,
				"z": -2.2564499445,
				"element": "C" 
			},
			{
				"x": 0.5111232936,
				"y": 2.6143857601,
				"z": -2.5243114229,
				"element": "C" 
			},
			{
				"x": 0.185176404,
				"y": -4.9576755528,
				"z": -2.1515481046,
				"element": "H" 
			},
			{
				"x": 1.1271313702,
				"y": -3.7342278036,
				"z": -1.2783835644,
				"element": "H" 
			},
			{
				"x": 1.0672772661,
				"y": -5.4041290519,
				"z": -0.6796646908,
				"element": "H" 
			},
			{
				"x": -1.3272905992,
				"y": -3.4736469186,
				"z": -0.8266034492,
				"element": "H" 
			},
			{
				"x": -1.4193056941,
				"y": -5.1252704664,
				"z": -0.2328442031,
				"element": "H" 
			},
			{
				"x": 0.144002977,
				"y": -6.4619050981,
				"z": 3.3482323073,
				"element": "H" 
			},
			{
				"x": 1.6446186026,
				"y": -0.5197422949,
				"z": 1.2757733349,
				"element": "H" 
			},
			{
				"x": 1.4262692986,
				"y": 1.6002939787,
				"z": 0.0540765497,
				"element": "H" 
			},
			{
				"x": -2.4820789888,
				"y": 0.4075463431,
				"z": -1.2884897663,
				"element": "H" 
			},
			{
				"x": -2.2758251153,
				"y": -1.6729545643,
				"z": -0.04013916,
				"element": "H" 
			},
			{
				"x": 0.4169398093,
				"y": 3.6696381282,
				"z": 0.0538654347,
				"element": "H" 
			},
			{
				"x": -1.3401433392,
				"y": 3.6487919833,
				"z": 0.2466389671,
				"element": "H" 
			},
			{
				"x": -0.5958400804,
				"y": 4.6480507205,
				"z": -1.0152361119,
				"element": "H" 
			},
			{
				"x": -2.1042152538,
				"y": 1.873588859,
				"z": -3.0064136103,
				"element": "H" 
			},
			{
				"x": -2.8354808005,
				"y": 2.6350928541,
				"z": -1.5797370027,
				"element": "H" 
			},
			{
				"x": -1.9984130078,
				"y": 3.6217251536,
				"z": -2.780823848,
				"element": "H" 
			},
			{
				"x": 1.4917867326,
				"y": 2.5612580218,
				"z": -2.0424469083,
				"element": "H" 
			},
			{
				"x": 0.4537392076,
				"y": 1.801756554,
				"z": -3.2560715057,
				"element": "H" 
			},
			{
				"x": 0.458143417,
				"y": 3.5646671777,
				"z": -3.0673459969,
				"element": "H" 
			}
		],
		 "valence_orbital": [ 
			{
				"type": "occ",
				"energy": -0.28538,
				"method": "rhf"
			},
			{
				"type": "occ",
				"energy": -0.25713,
				"method": "rhf"
			},
			{
				"type": "occ",
				"energy": -0.25619,
				"method": "rhf"
			},
			{
				"type": "occ",
				"energy": -0.24838,
				"method": "rhf"
			},
			{
				"type": "occ",
				"energy": -0.2172,
				"method": "rhf"
			},
			{
				"type": "unocc",
				"energy": -0.02642,
				"method": "rhf"
			},
			{
				"type": "unocc",
				"energy": -0.00857,
				"method": "rhf"
			},
			{
				"type": "unocc",
				"energy": 0.00707,
				"method": "rhf"
			},
			{
				"type": "unocc",
				"energy": 0.03066,
				"method": "rhf"
			},
			{
				"type": "unocc",
				"energy": 0.0528,
				"method": "rhf"
			}
		],
		"cosmo_sigma_profile": { 
			"-0.025": 0.0,
			"-0.024": 0.0,
			"-0.023": 0.0,
			"-0.022": 0.0,
			"-0.021": 0.0,
			"-0.02": 0.0,
			"-0.019": 0.0,
			"-0.018": 0.0,
			"-0.017": 0.0,
			"-0.016": 0.0,
			"-0.015": 0.0,
			"-0.014": 0.0,
			"-0.013": 0.0695028495385,
			"-0.012": 1.35689762159,
			"-0.011": 1.23905350301,
			"-0.01": 1.44586964492,
			"-0.009": 1.10958397325,
			"-0.008": 1.62833342789,
			"-0.007": 5.53444471232,
			"-0.006": 9.42239703831,
			"-0.005": 17.1700610398,
			"-0.004": 21.5899878111,
			"-0.003": 34.6997949674,
			"-0.002": 40.0646855853,
			"-0.001": 34.8775272997,
			"0.0": 29.60418496,
			"0.001": 32.472536038,
			"0.002": 19.5933593767,
			"0.003": 12.3501846328,
			"0.004": 13.0533639938,
			"0.005": 12.7834859015,
			"0.006": 4.53901461561,
			"0.007": 2.35004412973,
			"0.008": 2.08921383674,
			"0.009": 1.66192325078,
			"0.01": 2.41230725822,
			"0.011": 2.08977931588,
			"0.012": 2.83717880642,
			"0.013": 2.9307735934,
			"0.014": 3.36830682012,
			"0.015": 2.56724971046,
			"0.016": 2.11301643467,
			"0.017": 0.692143090062,
			"0.018": 0.0,
			"0.019": 0.0,
			"0.02": 0.0,
			"0.021": 0.0,
			"0.022": 0.0,
			"0.023": 0.0,
			"0.024": 0.0,
			"0.025": 0.0
		}
	}
}
