{
	 "smiles": "OC(=O)C(=CC1=CC(Cl)=CC=C1)C1=CC=CS1", 
	 "Tm": 466.15, 
	 "num_atms": 26, 
	 "gaussian": { 
		 "optdone": 1, 
		 "sigma_profile": "yes", 
		 "theory": "DFT", 
		 "functional": "B3LYP", 
		 "basiset": "6-31G**", 
		 "properties": { 
			 "R2extent": 6681.4405, 
			 "electric_dipole_moment_norm": 3.36006357678, 
			 "electric_quadrupole_moment_norm": 12.4389750108, 
			 "total_energy": -1509.61575626, 
			 "HOMO_LUMO_gap": 0.14248, 
			 "cosmo_polarized_energy": -12.05, 
			 "cosmo_cavitation_energy": 34.5, 
			 "cosmo_dispersion_energy": -25.35, 
			 "cosmo_repulsion_energy": 1.92, 
			 "cosmo_total_nonelectrostatic_energy": 11.06, 
			 "SMD_solvation_energy": 6.58 
		},
		"coords": [
			{
				"x": 0.9193403875,
				"y": -0.6738547756,
				"z": -2.0743800376,
				"element": "O" 
			},
			{
				"x": 0.8046974988,
				"y": 0.0332841945,
				"z": -0.9254537267,
				"element": "C" 
			},
			{
				"x": 0.9680727524,
				"y": 1.2395270267,
				"z": -0.9138930822,
				"element": "O" 
			},
			{
				"x": 0.4821861383,
				"y": -0.8418495319,
				"z": 0.2397419286,
				"element": "C" 
			},
			{
				"x": -0.1875425831,
				"y": -0.4391484776,
				"z": 1.3593811313,
				"element": "C" 
			},
			{
				"x": -0.874616055,
				"y": 0.7716182013,
				"z": 1.8238114393,
				"element": "C" 
			},
			{
				"x": -0.7603889118,
				"y": 2.0684641241,
				"z": 1.2814064882,
				"element": "C" 
			},
			{
				"x": -1.4908771529,
				"y": 3.1116036388,
				"z": 1.8404526905,
				"element": "C" 
			},
			{
				"x": -1.3321727158,
				"y": 4.7240057698,
				"z": 1.1528102588,
				"element": "Cl" 
			},
			{
				"x": -2.3387975962,
				"y": 2.9269753279,
				"z": 2.9327401375,
				"element": "C" 
			},
			{
				"x": -2.4451324708,
				"y": 1.6485961236,
				"z": 3.4811578319,
				"element": "C" 
			},
			{
				"x": -1.720791584,
				"y": 0.591651179,
				"z": 2.9417638162,
				"element": "C" 
			},
			{
				"x": 0.8627589874,
				"y": -2.2680527866,
				"z": 0.1552549576,
				"element": "C" 
			},
			{
				"x": 0.1047614984,
				"y": -3.3574068969,
				"z": 0.5235162476,
				"element": "C" 
			},
			{
				"x": 0.7904869628,
				"y": -4.6003777424,
				"z": 0.4074772531,
				"element": "C" 
			},
			{
				"x": 2.0723801467,
				"y": -4.4538100993,
				"z": -0.0477884869,
				"element": "C" 
			},
			{
				"x": 2.4589524723,
				"y": -2.7937263317,
				"z": -0.3482013561,
				"element": "S" 
			},
			{
				"x": 1.150164324,
				"y": -0.0247269643,
				"z": -2.7601023968,
				"element": "H" 
			},
			{
				"x": -0.2941064575,
				"y": -1.2444343854,
				"z": 2.0832777081,
				"element": "H" 
			},
			{
				"x": -0.0950192843,
				"y": 2.2515840244,
				"z": 0.4508595305,
				"element": "H" 
			},
			{
				"x": -2.8911043705,
				"y": 3.7640843276,
				"z": 3.3447802247,
				"element": "H" 
			},
			{
				"x": -3.0936772931,
				"y": 1.4821791191,
				"z": 4.3358858909,
				"element": "H" 
			},
			{
				"x": -1.8133165828,
				"y": -0.3973338743,
				"z": 3.3815018892,
				"element": "H" 
			},
			{
				"x": -0.9276341521,
				"y": -3.2653380962,
				"z": 0.8417044673,
				"element": "H" 
			},
			{
				"x": 0.343836854,
				"y": -5.56065306,
				"z": 0.6386079588,
				"element": "H" 
			},
			{
				"x": 2.8089391872,
				"y": -5.2219600345,
				"z": -0.2394127637,
				"element": "H" 
			}
		],
		 "valence_orbital": [ 
			{
				"type": "occ",
				"energy": -0.28505,
				"method": "rhf"
			},
			{
				"type": "occ",
				"energy": -0.26127,
				"method": "rhf"
			},
			{
				"type": "occ",
				"energy": -0.25346,
				"method": "rhf"
			},
			{
				"type": "occ",
				"energy": -0.24943,
				"method": "rhf"
			},
			{
				"type": "occ",
				"energy": -0.22026,
				"method": "rhf"
			},
			{
				"type": "unocc",
				"energy": -0.07778,
				"method": "rhf"
			},
			{
				"type": "unocc",
				"energy": -0.01839,
				"method": "rhf"
			},
			{
				"type": "unocc",
				"energy": -0.01409,
				"method": "rhf"
			},
			{
				"type": "unocc",
				"energy": 0.00266,
				"method": "rhf"
			},
			{
				"type": "unocc",
				"energy": 0.02862,
				"method": "rhf"
			}
		],
		"cosmo_sigma_profile": { 
			"-0.025": 0.0,
			"-0.024": 0.0,
			"-0.023": 0.0,
			"-0.022": 0.0,
			"-0.021": 0.0,
			"-0.02": 0.0,
			"-0.019": 0.0714604571092,
			"-0.018": 0.832297389589,
			"-0.017": 0.968861551869,
			"-0.016": 0.654671455567,
			"-0.015": 0.797311216181,
			"-0.014": 1.21510946698,
			"-0.013": 0.392388643316,
			"-0.012": 0.502615559299,
			"-0.011": 0.845261714593,
			"-0.01": 0.760674649279,
			"-0.009": 0.955140190491,
			"-0.008": 4.99904709166,
			"-0.007": 11.7847889502,
			"-0.006": 14.6535795629,
			"-0.005": 14.1482063263,
			"-0.004": 13.7566295999,
			"-0.003": 13.7687528405,
			"-0.002": 14.6859207865,
			"-0.001": 16.4057412623,
			"0.0": 18.5961276277,
			"0.001": 28.1659061296,
			"0.002": 33.9750275052,
			"0.003": 27.5753187142,
			"0.004": 23.2080224167,
			"0.005": 17.5275368755,
			"0.006": 5.53017817137,
			"0.007": 3.43545903933,
			"0.008": 3.24692796519,
			"0.009": 4.07969247345,
			"0.01": 2.35972982702,
			"0.011": 1.99793614177,
			"0.012": 0.313355053466,
			"0.013": 0.0,
			"0.014": 0.0,
			"0.015": 0.0,
			"0.016": 0.0,
			"0.017": 0.0,
			"0.018": 0.0,
			"0.019": 0.0,
			"0.02": 0.0,
			"0.021": 0.0,
			"0.022": 0.0,
			"0.023": 0.0,
			"0.024": 0.0,
			"0.025": 0.0
		}
	}
}
