{
	 "smiles": "O=CCCC1=CC=CC=C1", 
	 "Tm": 320.15, 
	 "num_atms": 20, 
	 "gaussian": { 
		 "optdone": 1, 
		 "sigma_profile": "yes", 
		 "theory": "DFT", 
		 "functional": "B3LYP", 
		 "basiset": "6-31G**", 
		 "properties": { 
			 "R2extent": 2293.9071, 
			 "electric_dipole_moment_norm": 2.654507152, 
			 "electric_quadrupole_moment_norm": 15.8119557604, 
			 "total_energy": -424.198067208, 
			 "HOMO_LUMO_gap": 0.21828, 
			 "cosmo_polarized_energy": -8.85, 
			 "cosmo_cavitation_energy": 23.87, 
			 "cosmo_dispersion_energy": -16.83, 
			 "cosmo_repulsion_energy": 1.39, 
			 "cosmo_total_nonelectrostatic_energy": 8.44, 
			 "SMD_solvation_energy": 4.85 
		},
		"coords": [
			{
				"x": 1.6364953072,
				"y": 2.5787557067,
				"z": 3.491540103,
				"element": "O" 
			},
			{
				"x": 0.5784390251,
				"y": 2.145766388,
				"z": 3.0952480074,
				"element": "C" 
			},
			{
				"x": 0.0829552907,
				"y": 0.7324382813,
				"z": 3.3183047898,
				"element": "C" 
			},
			{
				"x": -0.5628794613,
				"y": 0.1078051962,
				"z": 2.0606534596,
				"element": "C" 
			},
			{
				"x": 0.4230679159,
				"y": -0.1482160271,
				"z": 0.9382758692,
				"element": "C" 
			},
			{
				"x": 0.5216665782,
				"y": 0.7254262176,
				"z": -0.1520452295,
				"element": "C" 
			},
			{
				"x": 1.4510700841,
				"y": 0.5004824354,
				"z": -1.1697972235,
				"element": "C" 
			},
			{
				"x": 2.2972511273,
				"y": -0.6070779089,
				"z": -1.1125110167,
				"element": "C" 
			},
			{
				"x": 2.2067685103,
				"y": -1.4882921141,
				"z": -0.0324976454,
				"element": "C" 
			},
			{
				"x": 1.2775308015,
				"y": -1.2592133387,
				"z": 0.981710814,
				"element": "C" 
			},
			{
				"x": -0.133305773,
				"y": 2.8023966884,
				"z": 2.5394715698,
				"element": "H" 
			},
			{
				"x": 0.9144157465,
				"y": 0.1286248151,
				"z": 3.6931428821,
				"element": "H" 
			},
			{
				"x": -0.6753296534,
				"y": 0.7872755372,
				"z": 4.1145593578,
				"element": "H" 
			},
			{
				"x": -1.3643832941,
				"y": 0.7671257101,
				"z": 1.7048593879,
				"element": "H" 
			},
			{
				"x": -1.0445499257,
				"y": -0.8318309885,
				"z": 2.3535596707,
				"element": "H" 
			},
			{
				"x": -0.1384256009,
				"y": 1.5878622714,
				"z": -0.2086821867,
				"element": "H" 
			},
			{
				"x": 1.5106270253,
				"y": 1.1896468159,
				"z": -2.0074569479,
				"element": "H" 
			},
			{
				"x": 3.0196870871,
				"y": -0.7849572443,
				"z": -1.903771141,
				"element": "H" 
			},
			{
				"x": 2.8580935617,
				"y": -2.35634213,
				"z": 0.0180469769,
				"element": "H" 
			},
			{
				"x": 1.2107056477,
				"y": -1.9530763116,
				"z": 1.8167885024,
				"element": "H" 
			}
		],
		 "valence_orbital": [ 
			{
				"type": "occ",
				"energy": -0.33969,
				"method": "rhf"
			},
			{
				"type": "occ",
				"energy": -0.33542,
				"method": "rhf"
			},
			{
				"type": "occ",
				"energy": -0.25284,
				"method": "rhf"
			},
			{
				"type": "occ",
				"energy": -0.2515,
				"method": "rhf"
			},
			{
				"type": "occ",
				"energy": -0.24236,
				"method": "rhf"
			},
			{
				"type": "unocc",
				"energy": -0.02408,
				"method": "rhf"
			},
			{
				"type": "unocc",
				"energy": -0.00432,
				"method": "rhf"
			},
			{
				"type": "unocc",
				"energy": -0.00042,
				"method": "rhf"
			},
			{
				"type": "unocc",
				"energy": 0.08456,
				"method": "rhf"
			},
			{
				"type": "unocc",
				"energy": 0.10714,
				"method": "rhf"
			}
		],
		"cosmo_sigma_profile": { 
			"-0.025": 0.0,
			"-0.024": 0.0,
			"-0.023": 0.0,
			"-0.022": 0.0,
			"-0.021": 0.0,
			"-0.02": 0.0,
			"-0.019": 0.0,
			"-0.018": 0.0,
			"-0.017": 0.0,
			"-0.016": 0.0,
			"-0.015": 0.0,
			"-0.014": 0.0,
			"-0.013": 0.0,
			"-0.012": 0.0,
			"-0.011": 0.0,
			"-0.01": 0.0,
			"-0.009": 0.0,
			"-0.008": 0.0,
			"-0.007": 1.34022826373,
			"-0.006": 11.0636532975,
			"-0.005": 21.6933715009,
			"-0.004": 23.5144050181,
			"-0.003": 20.7561556136,
			"-0.002": 14.7414439269,
			"-0.001": 13.5986119991,
			"0.0": 7.86304240288,
			"0.001": 9.30037107625,
			"0.002": 9.29740727721,
			"0.003": 9.09475225413,
			"0.004": 9.19534897243,
			"0.005": 9.90801589746,
			"0.006": 8.95545859154,
			"0.007": 2.75761322219,
			"0.008": 1.92884372193,
			"0.009": 2.50618426322,
			"0.01": 2.84945403637,
			"0.011": 4.21954537927,
			"0.012": 3.62938554896,
			"0.013": 0.87319647546,
			"0.014": 0.0,
			"0.015": 0.0,
			"0.016": 0.0,
			"0.017": 0.0,
			"0.018": 0.0,
			"0.019": 0.0,
			"0.02": 0.0,
			"0.021": 0.0,
			"0.022": 0.0,
			"0.023": 0.0,
			"0.024": 0.0,
			"0.025": 0.0
		}
	}
}
