{
	 "smiles": "OC1=CC(F)=NC=C1", 
	 "Tm": 420.65, 
	 "num_atms": 12, 
	 "gaussian": { 
		 "optdone": 1, 
		 "sigma_profile": "yes", 
		 "theory": "DFT", 
		 "functional": "B3LYP", 
		 "basiset": "6-31G**", 
		 "properties": { 
			 "R2extent": 891.1163, 
			 "electric_dipole_moment_norm": 4.04883966217, 
			 "electric_quadrupole_moment_norm": 5.34574575808, 
			 "total_energy": -422.747923267, 
			 "HOMO_LUMO_gap": 0.24008, 
			 "cosmo_polarized_energy": -11.19, 
			 "cosmo_cavitation_energy": 16.96, 
			 "cosmo_dispersion_energy": -12.77, 
			 "cosmo_repulsion_energy": 1.04, 
			 "cosmo_total_nonelectrostatic_energy": 5.23, 
			 "SMD_solvation_energy": 2.49 
		},
		"coords": [
			{
				"x": 1.6225742241,
				"y": 0.0970049793,
				"z": -1.7017071275,
				"element": "O" 
			},
			{
				"x": 0.7082041414,
				"y": 0.0760835576,
				"z": -0.701566674,
				"element": "C" 
			},
			{
				"x": 0.4304707263,
				"y": -1.1527004727,
				"z": -0.0997501603,
				"element": "C" 
			},
			{
				"x": -0.5110587623,
				"y": -1.1462791889,
				"z": 0.9233679684,
				"element": "C" 
			},
			{
				"x": -0.7930971275,
				"y": -2.316530055,
				"z": 1.5154550278,
				"element": "F" 
			},
			{
				"x": -1.1655225558,
				"y": -0.0960714494,
				"z": 1.3794777313,
				"element": "N" 
			},
			{
				"x": -0.8819696989,
				"y": 1.0724983393,
				"z": 0.7859524726,
				"element": "C" 
			},
			{
				"x": 0.0353575888,
				"y": 1.2212210701,
				"z": -0.2485429661,
				"element": "C" 
			},
			{
				"x": 1.7219765066,
				"y": 1.0005873769,
				"z": -2.0300979727,
				"element": "H" 
			},
			{
				"x": 0.924694258,
				"y": -2.062452544,
				"z": -0.4158663582,
				"element": "H" 
			},
			{
				"x": -1.4203016973,
				"y": 1.9406919684,
				"z": 1.1601043014,
				"element": "H" 
			},
			{
				"x": 0.2211723968,
				"y": 2.1968464184,
				"z": -0.6886262427,
				"element": "H" 
			}
		],
		 "valence_orbital": [ 
			{
				"type": "occ",
				"energy": -0.37718,
				"method": "rhf"
			},
			{
				"type": "occ",
				"energy": -0.3658,
				"method": "rhf"
			},
			{
				"type": "occ",
				"energy": -0.27694,
				"method": "rhf"
			},
			{
				"type": "occ",
				"energy": -0.263,
				"method": "rhf"
			},
			{
				"type": "occ",
				"energy": -0.26106,
				"method": "rhf"
			},
			{
				"type": "unocc",
				"energy": -0.02098,
				"method": "rhf"
			},
			{
				"type": "unocc",
				"energy": -0.00602,
				"method": "rhf"
			},
			{
				"type": "unocc",
				"energy": 0.05247,
				"method": "rhf"
			},
			{
				"type": "unocc",
				"energy": 0.09467,
				"method": "rhf"
			},
			{
				"type": "unocc",
				"energy": 0.14125,
				"method": "rhf"
			}
		],
		"cosmo_sigma_profile": { 
			"-0.025": 0.0,
			"-0.024": 0.0,
			"-0.023": 0.0,
			"-0.022": 0.0,
			"-0.021": 0.0,
			"-0.02": 0.0,
			"-0.019": 0.698514715427,
			"-0.018": 1.23135544553,
			"-0.017": 0.980509300061,
			"-0.016": 1.4833708544,
			"-0.015": 0.730419562791,
			"-0.014": 0.759617608473,
			"-0.013": 1.59440571502,
			"-0.012": 0.772056569925,
			"-0.011": 0.681101051023,
			"-0.01": 1.14892467165,
			"-0.009": 1.45105557224,
			"-0.008": 3.61510035374,
			"-0.007": 4.8896534643,
			"-0.006": 5.52739832479,
			"-0.005": 5.60193925477,
			"-0.004": 4.2225593636,
			"-0.003": 4.28667554088,
			"-0.002": 4.23261530697,
			"-0.001": 6.3750212713,
			"0.0": 13.3977664776,
			"0.001": 15.2812779625,
			"0.002": 11.6901098163,
			"0.003": 8.5632999508,
			"0.004": 11.763115935,
			"0.005": 4.574120343,
			"0.006": 3.22365274477,
			"0.007": 3.40617970856,
			"0.008": 2.58845580582,
			"0.009": 3.58922135965,
			"0.01": 2.38776339715,
			"0.011": 1.66345185973,
			"0.012": 0.670529425263,
			"0.013": 1.49872021697,
			"0.014": 0.74388369734,
			"0.015": 0.93118451832,
			"0.016": 0.087996304376,
			"0.017": 0.0,
			"0.018": 0.0,
			"0.019": 0.0,
			"0.02": 0.0,
			"0.021": 0.0,
			"0.022": 0.0,
			"0.023": 0.0,
			"0.024": 0.0,
			"0.025": 0.0
		}
	}
}
