{
	 "smiles": "O=C(C1=CN=CC=C1)C1=CC2=C(OCC2)C=C1", 
	 "Tm": 382.15, 
	 "num_atms": 28, 
	 "gaussian": { 
		 "optdone": 1, 
		 "sigma_profile": "yes", 
		 "theory": "DFT", 
		 "functional": "B3LYP", 
		 "basiset": "6-31G**", 
		 "properties": { 
			 "R2extent": 5124.4804, 
			 "electric_dipole_moment_norm": 3.37174687514, 
			 "electric_quadrupole_moment_norm": 12.5174586099, 
			 "total_energy": -745.306630766, 
			 "HOMO_LUMO_gap": 0.1601, 
			 "cosmo_polarized_energy": -12.54, 
			 "cosmo_cavitation_energy": 32.12, 
			 "cosmo_dispersion_energy": -23.72, 
			 "cosmo_repulsion_energy": 1.82, 
			 "cosmo_total_nonelectrostatic_energy": 10.22, 
			 "SMD_solvation_energy": 4.38 
		},
		"coords": [
			{
				"x": -0.196450823,
				"y": 3.1477338405,
				"z": 0.3914880209,
				"element": "O" 
			},
			{
				"x": 0.2836511521,
				"y": 2.0376856631,
				"z": 0.6075643483,
				"element": "C" 
			},
			{
				"x": 0.7771221586,
				"y": 1.7267964679,
				"z": 1.9937303702,
				"element": "C" 
			},
			{
				"x": 1.881290274,
				"y": 0.9052122902,
				"z": 2.2664381399,
				"element": "C" 
			},
			{
				"x": 2.3658381359,
				"y": 0.6850665807,
				"z": 3.4948818567,
				"element": "N" 
			},
			{
				"x": 1.7468453633,
				"y": 1.2890532412,
				"z": 4.5159425137,
				"element": "C" 
			},
			{
				"x": 0.6538718321,
				"y": 2.1467824922,
				"z": 4.3605607341,
				"element": "C" 
			},
			{
				"x": 0.171711348,
				"y": 2.3775137318,
				"z": 3.0780577611,
				"element": "C" 
			},
			{
				"x": 0.3783447201,
				"y": 1.0233984623,
				"z": -0.4791376878,
				"element": "C" 
			},
			{
				"x": 0.4400808168,
				"y": -0.3655777401,
				"z": -0.2363066324,
				"element": "C" 
			},
			{
				"x": 0.4584426917,
				"y": -1.2425842431,
				"z": -1.3085375993,
				"element": "C" 
			},
			{
				"x": 0.4282562065,
				"y": -0.7466193148,
				"z": -2.6166583632,
				"element": "C" 
			},
			{
				"x": 0.4620059119,
				"y": -1.7159695014,
				"z": -3.5652540532,
				"element": "O" 
			},
			{
				"x": 0.3381839771,
				"y": -3.001910286,
				"z": -2.8964788963,
				"element": "C" 
			},
			{
				"x": 0.5549135954,
				"y": -2.7506294957,
				"z": -1.3827133609,
				"element": "C" 
			},
			{
				"x": 0.3653206604,
				"y": 0.619434447,
				"z": -2.8923928456,
				"element": "C" 
			},
			{
				"x": 0.3287526577,
				"y": 1.4895091436,
				"z": -1.8075392295,
				"element": "C" 
			},
			{
				"x": 2.4175839905,
				"y": 0.4228105888,
				"z": 1.4526941708,
				"element": "H" 
			},
			{
				"x": 2.1477458175,
				"y": 1.0836679009,
				"z": 5.5072048268,
				"element": "H" 
			},
			{
				"x": 0.2026482909,
				"y": 2.6219150849,
				"z": 5.2260118173,
				"element": "H" 
			},
			{
				"x": -0.6579669599,
				"y": 3.0510168411,
				"z": 2.8886924655,
				"element": "H" 
			},
			{
				"x": 0.4444700805,
				"y": -0.7450981428,
				"z": 0.7801539219,
				"element": "H" 
			},
			{
				"x": 1.0747695346,
				"y": -3.6746556522,
				"z": -3.3406467066,
				"element": "H" 
			},
			{
				"x": -0.6652490325,
				"y": -3.3879151486,
				"z": -3.1070208094,
				"element": "H" 
			},
			{
				"x": -0.1974588755,
				"y": -3.2633441277,
				"z": -0.7755807881,
				"element": "H" 
			},
			{
				"x": 1.5387117009,
				"y": -3.10337791,
				"z": -1.0506004843,
				"element": "H" 
			},
			{
				"x": 0.3363820759,
				"y": 0.9775245283,
				"z": -3.9155369934,
				"element": "H" 
			},
			{
				"x": 0.2556826985,
				"y": 2.5603602579,
				"z": -1.9644164973,
				"element": "H" 
			}
		],
		 "valence_orbital": [ 
			{
				"type": "occ",
				"energy": -0.27082,
				"method": "rhf"
			},
			{
				"type": "occ",
				"energy": -0.26305,
				"method": "rhf"
			},
			{
				"type": "occ",
				"energy": -0.26037,
				"method": "rhf"
			},
			{
				"type": "occ",
				"energy": -0.24466,
				"method": "rhf"
			},
			{
				"type": "occ",
				"energy": -0.22373,
				"method": "rhf"
			},
			{
				"type": "unocc",
				"energy": -0.06363,
				"method": "rhf"
			},
			{
				"type": "unocc",
				"energy": -0.02693,
				"method": "rhf"
			},
			{
				"type": "unocc",
				"energy": -0.01683,
				"method": "rhf"
			},
			{
				"type": "unocc",
				"energy": -0.0098,
				"method": "rhf"
			},
			{
				"type": "unocc",
				"energy": 0.0573,
				"method": "rhf"
			}
		],
		"cosmo_sigma_profile": { 
			"-0.025": 0.0,
			"-0.024": 0.0,
			"-0.023": 0.0,
			"-0.022": 0.0,
			"-0.021": 0.0,
			"-0.02": 0.0,
			"-0.019": 0.0,
			"-0.018": 0.0,
			"-0.017": 0.0,
			"-0.016": 0.0,
			"-0.015": 0.0,
			"-0.014": 0.0,
			"-0.013": 0.0,
			"-0.012": 0.0,
			"-0.011": 0.0,
			"-0.01": 0.0,
			"-0.009": 0.0,
			"-0.008": 0.231830907292,
			"-0.007": 6.68540264142,
			"-0.006": 18.744043113,
			"-0.005": 28.0105092651,
			"-0.004": 24.8212292691,
			"-0.003": 21.9007844861,
			"-0.002": 18.2411042842,
			"-0.001": 16.1257972416,
			"0.0": 15.8486795495,
			"0.001": 20.8135101927,
			"0.002": 19.6396194802,
			"0.003": 15.6265961586,
			"0.004": 10.9903332921,
			"0.005": 5.34187710428,
			"0.006": 3.65463108792,
			"0.007": 4.5060172172,
			"0.008": 4.84432052764,
			"0.009": 3.45410159719,
			"0.01": 4.47209837985,
			"0.011": 3.9022635091,
			"0.012": 5.23560005264,
			"0.013": 2.46887761603,
			"0.014": 0.805076488132,
			"0.015": 0.765235031054,
			"0.016": 0.628472226889,
			"0.017": 0.0820934282985,
			"0.018": 0.0,
			"0.019": 0.0,
			"0.02": 0.0,
			"0.021": 0.0,
			"0.022": 0.0,
			"0.023": 0.0,
			"0.024": 0.0,
			"0.025": 0.0
		}
	}
}
