{
	 "smiles": "CC1=CC=CC(Cl)=C1C(O)=O", 
	 "Tm": 377.15, 
	 "num_atms": 18, 
	 "gaussian": { 
		 "optdone": 1, 
		 "sigma_profile": "yes", 
		 "theory": "DFT", 
		 "functional": "B3LYP", 
		 "basiset": "6-31G**", 
		 "properties": { 
			 "R2extent": 2808.2693, 
			 "electric_dipole_moment_norm": 4.47729581891, 
			 "electric_quadrupole_moment_norm": 6.32875581848, 
			 "total_energy": -919.7192863, 
			 "HOMO_LUMO_gap": 0.20976, 
			 "cosmo_polarized_energy": -10.78, 
			 "cosmo_cavitation_energy": 23.53, 
			 "cosmo_dispersion_energy": -17.58, 
			 "cosmo_repulsion_energy": 1.4, 
			 "cosmo_total_nonelectrostatic_energy": 7.35, 
			 "SMD_solvation_energy": 4.84 
		},
		"coords": [
			{
				"x": 1.5552584388,
				"y": 1.2848811878,
				"z": 1.8475976159,
				"element": "C" 
			},
			{
				"x": 1.0237370206,
				"y": 2.0177238209,
				"z": 0.6371075053,
				"element": "C" 
			},
			{
				"x": 1.028093808,
				"y": 3.4165341071,
				"z": 0.635685338,
				"element": "C" 
			},
			{
				"x": 0.5303249197,
				"y": 4.1485447339,
				"z": -0.4400707,
				"element": "C" 
			},
			{
				"x": 0.0213864472,
				"y": 3.4901601555,
				"z": -1.5547969469,
				"element": "C" 
			},
			{
				"x": 0.0323163176,
				"y": 2.0974178616,
				"z": -1.573876728,
				"element": "C" 
			},
			{
				"x": -0.6382034048,
				"y": 1.3248659808,
				"z": -3.0184805788,
				"element": "Cl" 
			},
			{
				"x": 0.5233440943,
				"y": 1.334255522,
				"z": -0.5008634626,
				"element": "C" 
			},
			{
				"x": 0.5045443606,
				"y": -0.1774345115,
				"z": -0.4735942751,
				"element": "C" 
			},
			{
				"x": 0.9592760948,
				"y": -0.8304467923,
				"z": -1.566736092,
				"element": "O" 
			},
			{
				"x": 0.1514141409,
				"y": -0.8055866367,
				"z": 0.4959832292,
				"element": "O" 
			},
			{
				"x": 2.039443579,
				"y": 1.9882075338,
				"z": 2.5295503499,
				"element": "H" 
			},
			{
				"x": 0.7485719934,
				"y": 0.7732242015,
				"z": 2.3779381122,
				"element": "H" 
			},
			{
				"x": 2.2814059523,
				"y": 0.5135467819,
				"z": 1.5752119836,
				"element": "H" 
			},
			{
				"x": 1.4248838034,
				"y": 3.9380969344,
				"z": 1.501547479,
				"element": "H" 
			},
			{
				"x": 0.5361128162,
				"y": 5.2339632341,
				"z": -0.4121802645,
				"element": "H" 
			},
			{
				"x": -0.3794994068,
				"y": 4.0373722646,
				"z": -2.400052836,
				"element": "H" 
			},
			{
				"x": 1.1483890248,
				"y": -0.2107263795,
				"z": -2.2866697292,
				"element": "H" 
			}
		],
		 "valence_orbital": [ 
			{
				"type": "occ",
				"energy": -0.33512,
				"method": "rhf"
			},
			{
				"type": "occ",
				"energy": -0.3132,
				"method": "rhf"
			},
			{
				"type": "occ",
				"energy": -0.28349,
				"method": "rhf"
			},
			{
				"type": "occ",
				"energy": -0.2663,
				"method": "rhf"
			},
			{
				"type": "occ",
				"energy": -0.26116,
				"method": "rhf"
			},
			{
				"type": "unocc",
				"energy": -0.0514,
				"method": "rhf"
			},
			{
				"type": "unocc",
				"energy": -0.02609,
				"method": "rhf"
			},
			{
				"type": "unocc",
				"energy": 0.00848,
				"method": "rhf"
			},
			{
				"type": "unocc",
				"energy": 0.02752,
				"method": "rhf"
			},
			{
				"type": "unocc",
				"energy": 0.0863,
				"method": "rhf"
			}
		],
		"cosmo_sigma_profile": { 
			"-0.025": 0.0,
			"-0.024": 0.0,
			"-0.023": 0.0,
			"-0.022": 0.0,
			"-0.021": 0.0,
			"-0.02": 0.0,
			"-0.019": 0.0,
			"-0.018": 0.0,
			"-0.017": 0.272256322755,
			"-0.016": 0.916371383577,
			"-0.015": 0.455813248526,
			"-0.014": 0.833451492214,
			"-0.013": 0.852437343413,
			"-0.012": 0.758481079262,
			"-0.011": 0.99655594719,
			"-0.01": 0.447121818898,
			"-0.009": 0.654227844505,
			"-0.008": 2.43892501105,
			"-0.007": 6.59810653383,
			"-0.006": 9.35554543041,
			"-0.005": 11.3773082355,
			"-0.004": 9.32530164236,
			"-0.003": 12.0658146288,
			"-0.002": 13.4131745374,
			"-0.001": 17.0267983979,
			"0.0": 19.4323294468,
			"0.001": 15.823852649,
			"0.002": 17.0919845734,
			"0.003": 15.9363412632,
			"0.004": 6.28238400241,
			"0.005": 2.46772966325,
			"0.006": 2.43895265425,
			"0.007": 3.16426160086,
			"0.008": 2.65001898828,
			"0.009": 3.94968819319,
			"0.01": 4.95240975821,
			"0.011": 4.83788040474,
			"0.012": 2.62637116665,
			"0.013": 0.685209894283,
			"0.014": 0.0,
			"0.015": 0.0,
			"0.016": 0.0,
			"0.017": 0.0,
			"0.018": 0.0,
			"0.019": 0.0,
			"0.02": 0.0,
			"0.021": 0.0,
			"0.022": 0.0,
			"0.023": 0.0,
			"0.024": 0.0,
			"0.025": 0.0
		}
	}
}
