{
	 "smiles": "COC(=O)C1=CC(=CC=C1)C1=NC(C)=CS1", 
	 "Tm": 326.15, 
	 "num_atms": 27, 
	 "gaussian": { 
		 "optdone": 1, 
		 "sigma_profile": "yes", 
		 "theory": "DFT", 
		 "functional": "B3LYP", 
		 "basiset": "6-31G**", 
		 "properties": { 
			 "R2extent": 5237.0219, 
			 "electric_dipole_moment_norm": 2.31296915025, 
			 "electric_quadrupole_moment_norm": 10.1412374418, 
			 "total_energy": -1067.31081336, 
			 "HOMO_LUMO_gap": 0.16385, 
			 "cosmo_polarized_energy": -9.86, 
			 "cosmo_cavitation_energy": 33.43, 
			 "cosmo_dispersion_energy": -24.87, 
			 "cosmo_repulsion_energy": 1.9, 
			 "cosmo_total_nonelectrostatic_energy": 10.46, 
			 "SMD_solvation_energy": 6.02 
		},
		"coords": [
			{
				"x": -1.2713524609,
				"y": -4.9455310416,
				"z": -0.1882707844,
				"element": "C" 
			},
			{
				"x": -1.0475800989,
				"y": -3.5447158569,
				"z": 0.0307972355,
				"element": "O" 
			},
			{
				"x": -1.6386983254,
				"y": -3.0323418918,
				"z": 1.1325724142,
				"element": "C" 
			},
			{
				"x": -2.3147372161,
				"y": -3.6968680319,
				"z": 1.8941175282,
				"element": "O" 
			},
			{
				"x": -1.3674035177,
				"y": -1.5747336167,
				"z": 1.3028463404,
				"element": "C" 
			},
			{
				"x": -0.5829606434,
				"y": -0.8537636931,
				"z": 0.399713342,
				"element": "C" 
			},
			{
				"x": -0.3529352412,
				"y": 0.517224298,
				"z": 0.5980265915,
				"element": "C" 
			},
			{
				"x": -0.9236381928,
				"y": 1.1470978633,
				"z": 1.7159210583,
				"element": "C" 
			},
			{
				"x": -1.7063519629,
				"y": 0.4251864273,
				"z": 2.615973853,
				"element": "C" 
			},
			{
				"x": -1.9315670114,
				"y": -0.9339992414,
				"z": 2.4152725876,
				"element": "C" 
			},
			{
				"x": 0.4780941656,
				"y": 1.244089505,
				"z": -0.3729369364,
				"element": "C" 
			},
			{
				"x": 1.0278570677,
				"y": 0.6906468088,
				"z": -1.4206148037,
				"element": "N" 
			},
			{
				"x": 1.7556909679,
				"y": 1.5898578618,
				"z": -2.1677332228,
				"element": "C" 
			},
			{
				"x": 2.4537855549,
				"y": 1.1149042119,
				"z": -3.4078963113,
				"element": "C" 
			},
			{
				"x": 1.7631268611,
				"y": 2.8685150812,
				"z": -1.6785481108,
				"element": "C" 
			},
			{
				"x": 0.8273631125,
				"y": 2.9711052774,
				"z": -0.2248601492,
				"element": "S" 
			},
			{
				"x": -2.3383909183,
				"y": -5.1515097374,
				"z": -0.3047673814,
				"element": "H" 
			},
			{
				"x": -0.890272975,
				"y": -5.5323905487,
				"z": 0.6513259646,
				"element": "H" 
			},
			{
				"x": -0.7315637404,
				"y": -5.1895032074,
				"z": -1.1031125686,
				"element": "H" 
			},
			{
				"x": -0.1439889898,
				"y": -1.3410869037,
				"z": -0.4613884561,
				"element": "H" 
			},
			{
				"x": -0.7575190338,
				"y": 2.2071015255,
				"z": 1.8875415254,
				"element": "H" 
			},
			{
				"x": -2.1400844782,
				"y": 0.9274768793,
				"z": 3.4751969251,
				"element": "H" 
			},
			{
				"x": -2.5365699231,
				"y": -1.5166428289,
				"z": 3.1012204577,
				"element": "H" 
			},
			{
				"x": 3.1711459328,
				"y": 0.3230000759,
				"z": -3.1676366705,
				"element": "H" 
			},
			{
				"x": 2.9899423771,
				"y": 1.9307797926,
				"z": -3.8986258658,
				"element": "H" 
			},
			{
				"x": 1.7341816125,
				"y": 0.6950682524,
				"z": -4.1187504591,
				"element": "H" 
			},
			{
				"x": 2.2580270773,
				"y": 3.7388327393,
				"z": -2.0854841034,
				"element": "H" 
			}
		],
		 "valence_orbital": [ 
			{
				"type": "occ",
				"energy": -0.27655,
				"method": "rhf"
			},
			{
				"type": "occ",
				"energy": -0.27407,
				"method": "rhf"
			},
			{
				"type": "occ",
				"energy": -0.27105,
				"method": "rhf"
			},
			{
				"type": "occ",
				"energy": -0.26271,
				"method": "rhf"
			},
			{
				"type": "occ",
				"energy": -0.22253,
				"method": "rhf"
			},
			{
				"type": "unocc",
				"energy": -0.05868,
				"method": "rhf"
			},
			{
				"type": "unocc",
				"energy": -0.03993,
				"method": "rhf"
			},
			{
				"type": "unocc",
				"energy": 0.01198,
				"method": "rhf"
			},
			{
				"type": "unocc",
				"energy": 0.01906,
				"method": "rhf"
			},
			{
				"type": "unocc",
				"energy": 0.04828,
				"method": "rhf"
			}
		],
		"cosmo_sigma_profile": { 
			"-0.025": 0.0,
			"-0.024": 0.0,
			"-0.023": 0.0,
			"-0.022": 0.0,
			"-0.021": 0.0,
			"-0.02": 0.0,
			"-0.019": 0.0,
			"-0.018": 0.0,
			"-0.017": 0.0,
			"-0.016": 0.0,
			"-0.015": 0.0,
			"-0.014": 0.0,
			"-0.013": 0.0,
			"-0.012": 0.0,
			"-0.011": 0.0,
			"-0.01": 0.0,
			"-0.009": 0.866726645079,
			"-0.008": 2.47948698917,
			"-0.007": 6.06067891211,
			"-0.006": 13.5932071144,
			"-0.005": 18.1874300094,
			"-0.004": 20.4291278112,
			"-0.003": 21.7044056447,
			"-0.002": 19.1679174144,
			"-0.001": 22.0634566573,
			"0.0": 23.698333246,
			"0.001": 27.5679462737,
			"0.002": 30.8506485566,
			"0.003": 24.1146529768,
			"0.004": 9.45334236846,
			"0.005": 5.14152387414,
			"0.006": 4.04223573597,
			"0.007": 3.37254290634,
			"0.008": 2.71954668777,
			"0.009": 3.19042893584,
			"0.01": 2.76774040244,
			"0.011": 3.89745454014,
			"0.012": 4.50392435944,
			"0.013": 0.0862994815591,
			"0.014": 0.0,
			"0.015": 0.0,
			"0.016": 0.0,
			"0.017": 0.0,
			"0.018": 0.0,
			"0.019": 0.0,
			"0.02": 0.0,
			"0.021": 0.0,
			"0.022": 0.0,
			"0.023": 0.0,
			"0.024": 0.0,
			"0.025": 0.0
		}
	}
}
