{
	 "smiles": "COC1=C(O)C=CC(C=C[N+]([O-])=O)=C1", 
	 "Tm": 442.15, 
	 "num_atms": 23, 
	 "gaussian": { 
		 "optdone": 1, 
		 "sigma_profile": "yes", 
		 "theory": "DFT", 
		 "functional": "B3LYP", 
		 "basiset": "6-31G**", 
		 "properties": { 
			 "R2extent": 4400.0109, 
			 "electric_dipole_moment_norm": 6.51771262714, 
			 "electric_quadrupole_moment_norm": 35.4713958832, 
			 "total_energy": -703.899723017, 
			 "HOMO_LUMO_gap": 0.13668, 
			 "cosmo_polarized_energy": -15.02, 
			 "cosmo_cavitation_energy": 28.6, 
			 "cosmo_dispersion_energy": -20.77, 
			 "cosmo_repulsion_energy": 1.64, 
			 "cosmo_total_nonelectrostatic_energy": 9.47, 
			 "SMD_solvation_energy": 8.78 
		},
		"coords": [
			{
				"x": -1.9572947112,
				"y": -1.3898021085,
				"z": 2.9753186021,
				"element": "C" 
			},
			{
				"x": -2.3379836611,
				"y": -1.0160489209,
				"z": 1.6566755224,
				"element": "O" 
			},
			{
				"x": -1.3510797829,
				"y": -0.7696688728,
				"z": 0.7387437152,
				"element": "C" 
			},
			{
				"x": -1.8538793259,
				"y": -0.4085954212,
				"z": -0.5368485598,
				"element": "C" 
			},
			{
				"x": -3.1889209345,
				"y": -0.3387265612,
				"z": -0.7403924449,
				"element": "O" 
			},
			{
				"x": -0.9678544837,
				"y": -0.1282634836,
				"z": -1.5722592015,
				"element": "C" 
			},
			{
				"x": 0.404879592,
				"y": -0.2044431089,
				"z": -1.3474882908,
				"element": "C" 
			},
			{
				"x": 0.9196749778,
				"y": -0.5603932092,
				"z": -0.0901082099,
				"element": "C" 
			},
			{
				"x": 2.3607805984,
				"y": -0.6214768309,
				"z": 0.0787017069,
				"element": "C" 
			},
			{
				"x": 3.0396368725,
				"y": -0.9387581874,
				"z": 1.1945163657,
				"element": "C" 
			},
			{
				"x": 4.4854038622,
				"y": -0.9538658317,
				"z": 1.1974060749,
				"element": "N" 
			},
			{
				"x": 5.0981133679,
				"y": -0.6718240921,
				"z": 0.1634019473,
				"element": "O" 
			},
			{
				"x": 5.0181787004,
				"y": -1.2583022838,
				"z": 2.2706551776,
				"element": "O" 
			},
			{
				"x": 0.0124413528,
				"y": -0.8446450956,
				"z": 0.9595308681,
				"element": "C" 
			},
			{
				"x": -1.3833749542,
				"y": -2.3242425678,
				"z": 2.9720117213,
				"element": "H" 
			},
			{
				"x": -2.8851801352,
				"y": -1.5361030117,
				"z": 3.529049553,
				"element": "H" 
			},
			{
				"x": -1.3665153598,
				"y": -0.600615302,
				"z": 3.4556703675,
				"element": "H" 
			},
			{
				"x": -3.6223316397,
				"y": -0.5683782685,
				"z": 0.0972304306,
				"element": "H" 
			},
			{
				"x": -1.3696131205,
				"y": 0.1461909318,
				"z": -2.5414681183,
				"element": "H" 
			},
			{
				"x": 1.0920320114,
				"y": 0.015306531,
				"z": -2.1589675231,
				"element": "H" 
			},
			{
				"x": 2.9675635508,
				"y": -0.3849333427,
				"z": -0.7920582112,
				"element": "H" 
			},
			{
				"x": 2.6357657865,
				"y": -1.2037382087,
				"z": 2.160871805,
				"element": "H" 
			},
			{
				"x": 0.3882574361,
				"y": -1.1213727536,
				"z": 1.936906702,
				"element": "H" 
			}
		],
		 "valence_orbital": [ 
			{
				"type": "occ",
				"energy": -0.29245,
				"method": "rhf"
			},
			{
				"type": "occ",
				"energy": -0.29231,
				"method": "rhf"
			},
			{
				"type": "occ",
				"energy": -0.27437,
				"method": "rhf"
			},
			{
				"type": "occ",
				"energy": -0.25994,
				"method": "rhf"
			},
			{
				"type": "occ",
				"energy": -0.22475,
				"method": "rhf"
			},
			{
				"type": "unocc",
				"energy": -0.08807,
				"method": "rhf"
			},
			{
				"type": "unocc",
				"energy": -0.01856,
				"method": "rhf"
			},
			{
				"type": "unocc",
				"energy": -0.00786,
				"method": "rhf"
			},
			{
				"type": "unocc",
				"energy": 0.05695,
				"method": "rhf"
			},
			{
				"type": "unocc",
				"energy": 0.05748,
				"method": "rhf"
			}
		],
		"cosmo_sigma_profile": { 
			"-0.025": 0.0,
			"-0.024": 0.0,
			"-0.023": 0.0,
			"-0.022": 0.0,
			"-0.021": 0.0,
			"-0.02": 0.0,
			"-0.019": 0.0,
			"-0.018": 0.0,
			"-0.017": 0.0,
			"-0.016": 0.0334637390466,
			"-0.015": 0.457661926828,
			"-0.014": 0.395168895764,
			"-0.013": 0.631684745174,
			"-0.012": 0.552806082074,
			"-0.011": 1.2495906682,
			"-0.01": 2.0997391312,
			"-0.009": 3.29796141834,
			"-0.008": 4.93277974396,
			"-0.007": 8.74844895823,
			"-0.006": 15.4130765204,
			"-0.005": 14.9759614578,
			"-0.004": 16.1173457872,
			"-0.003": 14.2924158918,
			"-0.002": 12.8425936549,
			"-0.001": 14.0715079637,
			"0.0": 15.3600605486,
			"0.001": 18.2835146684,
			"0.002": 16.7962235951,
			"0.003": 15.1641572618,
			"0.004": 7.97181463076,
			"0.005": 3.93382568074,
			"0.006": 4.45150663717,
			"0.007": 4.55059809092,
			"0.008": 7.74504954916,
			"0.009": 12.6724539213,
			"0.01": 6.96204552751,
			"0.011": 4.07416727666,
			"0.012": 0.422387036302,
			"0.013": 0.0,
			"0.014": 0.0,
			"0.015": 0.0,
			"0.016": 0.0,
			"0.017": 0.0,
			"0.018": 0.0,
			"0.019": 0.0,
			"0.02": 0.0,
			"0.021": 0.0,
			"0.022": 0.0,
			"0.023": 0.0,
			"0.024": 0.0,
			"0.025": 0.0
		}
	}
}
