{
	 "smiles": "CNC(=S)NNC(=O)C1=CC=CC=C1", 
	 "Tm": 455.15, 
	 "num_atms": 25, 
	 "gaussian": { 
		 "optdone": 1, 
		 "sigma_profile": "yes", 
		 "theory": "DFT", 
		 "functional": "B3LYP", 
		 "basiset": "6-31G**", 
		 "properties": { 
			 "R2extent": 4891.3402, 
			 "electric_dipole_moment_norm": 6.26638228805, 
			 "electric_quadrupole_moment_norm": 22.4701177663, 
			 "total_energy": -987.24225474, 
			 "HOMO_LUMO_gap": 0.15236, 
			 "cosmo_polarized_energy": -22.52, 
			 "cosmo_cavitation_energy": 31.1, 
			 "cosmo_dispersion_energy": -22.65, 
			 "cosmo_repulsion_energy": 1.75, 
			 "cosmo_total_nonelectrostatic_energy": 10.21, 
			 "SMD_solvation_energy": 5.03 
		},
		"coords": [
			{
				"x": 0.3488759129,
				"y": 2.6822407328,
				"z": 2.3917997346,
				"element": "C" 
			},
			{
				"x": -0.6087073569,
				"y": 3.5904560495,
				"z": 1.7627411879,
				"element": "N" 
			},
			{
				"x": -0.949825336,
				"y": 3.626592398,
				"z": 0.4552186602,
				"element": "C" 
			},
			{
				"x": -1.5709018802,
				"y": 4.9962769811,
				"z": -0.2927124483,
				"element": "S" 
			},
			{
				"x": -0.7382403922,
				"y": 2.473257515,
				"z": -0.2823594758,
				"element": "N" 
			},
			{
				"x": -1.0122035037,
				"y": 1.2234235408,
				"z": 0.2580418757,
				"element": "N" 
			},
			{
				"x": -0.0574665503,
				"y": 0.2163217403,
				"z": 0.2009335399,
				"element": "C" 
			},
			{
				"x": 1.0849250845,
				"y": 0.4215241484,
				"z": -0.1757704231,
				"element": "O" 
			},
			{
				"x": -0.5341756549,
				"y": -1.1331137514,
				"z": 0.6537736226,
				"element": "C" 
			},
			{
				"x": -1.6454617857,
				"y": -1.3260435541,
				"z": 1.4887747857,
				"element": "C" 
			},
			{
				"x": -2.0190017402,
				"y": -2.6138784646,
				"z": 1.8732647359,
				"element": "C" 
			},
			{
				"x": -1.2884875083,
				"y": -3.7169091585,
				"z": 1.4272442601,
				"element": "C" 
			},
			{
				"x": -0.173683426,
				"y": -3.5296161404,
				"z": 0.6057037323,
				"element": "C" 
			},
			{
				"x": 0.2056939292,
				"y": -2.2444947516,
				"z": 0.2265759394,
				"element": "C" 
			},
			{
				"x": 0.9249019531,
				"y": 3.2476044033,
				"z": 3.1287237261,
				"element": "H" 
			},
			{
				"x": 1.0360252071,
				"y": 2.278023151,
				"z": 1.645465538,
				"element": "H" 
			},
			{
				"x": -0.1464523529,
				"y": 1.8494130398,
				"z": 2.9020197464,
				"element": "H" 
			},
			{
				"x": -0.8031587801,
				"y": 4.4616466269,
				"z": 2.234680785,
				"element": "H" 
			},
			{
				"x": -0.9694432136,
				"y": 2.586169811,
				"z": -1.2629221882,
				"element": "H" 
			},
			{
				"x": -1.9913707505,
				"y": 0.9668833401,
				"z": 0.3103919174,
				"element": "H" 
			},
			{
				"x": -2.2039873205,
				"y": -0.4773750429,
				"z": 1.8733629688,
				"element": "H" 
			},
			{
				"x": -2.8746788879,
				"y": -2.7544167251,
				"z": 2.5269003518,
				"element": "H" 
			},
			{
				"x": -1.5826085735,
				"y": -4.7189558903,
				"z": 1.7256108594,
				"element": "H" 
			},
			{
				"x": 0.400460546,
				"y": -4.3856112488,
				"z": 0.2638502492,
				"element": "H" 
			},
			{
				"x": 1.0746723807,
				"y": -2.0743187503,
				"z": -0.3999136811,
				"element": "H" 
			}
		],
		 "valence_orbital": [ 
			{
				"type": "occ",
				"energy": -0.2747,
				"method": "rhf"
			},
			{
				"type": "occ",
				"energy": -0.27066,
				"method": "rhf"
			},
			{
				"type": "occ",
				"energy": -0.26537,
				"method": "rhf"
			},
			{
				"type": "occ",
				"energy": -0.22004,
				"method": "rhf"
			},
			{
				"type": "occ",
				"energy": -0.2055,
				"method": "rhf"
			},
			{
				"type": "unocc",
				"energy": -0.05314,
				"method": "rhf"
			},
			{
				"type": "unocc",
				"energy": -0.0237,
				"method": "rhf"
			},
			{
				"type": "unocc",
				"energy": -0.01393,
				"method": "rhf"
			},
			{
				"type": "unocc",
				"energy": 0.03925,
				"method": "rhf"
			},
			{
				"type": "unocc",
				"energy": 0.05852,
				"method": "rhf"
			}
		],
		"cosmo_sigma_profile": { 
			"-0.025": 0.0,
			"-0.024": 0.0,
			"-0.023": 0.0,
			"-0.022": 0.0,
			"-0.021": 0.0,
			"-0.02": 0.0,
			"-0.019": 0.0,
			"-0.018": 0.0,
			"-0.017": 0.0,
			"-0.016": 0.437646279539,
			"-0.015": 2.00985090477,
			"-0.014": 3.19445181232,
			"-0.013": 3.75271987472,
			"-0.012": 3.58768252242,
			"-0.011": 3.32712394709,
			"-0.01": 2.85455685267,
			"-0.009": 3.52995580368,
			"-0.008": 3.28313653581,
			"-0.007": 6.1234967421,
			"-0.006": 13.2984186973,
			"-0.005": 16.1297388554,
			"-0.004": 17.631120467,
			"-0.003": 19.601927186,
			"-0.002": 16.845714956,
			"-0.001": 11.5359757281,
			"0.0": 10.7386527341,
			"0.001": 12.0475072423,
			"0.002": 11.9256551815,
			"0.003": 15.769045991,
			"0.004": 16.8355598305,
			"0.005": 5.11369140741,
			"0.006": 4.99029024177,
			"0.007": 4.74449439133,
			"0.008": 6.02879495853,
			"0.009": 5.53203485486,
			"0.01": 8.89944202312,
			"0.011": 8.20084275961,
			"0.012": 7.34199433623,
			"0.013": 4.05017000647,
			"0.014": 0.934099577466,
			"0.015": 0.0792536269082,
			"0.016": 0.0,
			"0.017": 0.0,
			"0.018": 0.0,
			"0.019": 0.0,
			"0.02": 0.0,
			"0.021": 0.0,
			"0.022": 0.0,
			"0.023": 0.0,
			"0.024": 0.0,
			"0.025": 0.0
		}
	}
}
