{
	 "smiles": "C(N1CCNCC1)C1=CC2=C(C=CC=C2)C=C1", 
	 "Tm": 327.15, 
	 "num_atms": 35, 
	 "gaussian": { 
		 "optdone": 1, 
		 "sigma_profile": "yes", 
		 "theory": "DFT", 
		 "functional": "B3LYP", 
		 "basiset": "6-31G**", 
		 "properties": { 
			 "R2extent": 5736.132, 
			 "electric_dipole_moment_norm": 0.646691348326, 
			 "electric_quadrupole_moment_norm": 7.57564249354, 
			 "total_energy": -691.933605502, 
			 "HOMO_LUMO_gap": 0.15447, 
			 "cosmo_polarized_energy": -9.06, 
			 "cosmo_cavitation_energy": 35.62, 
			 "cosmo_dispersion_energy": -25.87, 
			 "cosmo_repulsion_energy": 1.98, 
			 "cosmo_total_nonelectrostatic_energy": 11.73, 
			 "SMD_solvation_energy": 1.19 
		},
		"coords": [
			{
				"x": -1.0915970238,
				"y": -0.1582937805,
				"z": -1.0072944233,
				"element": "C" 
			},
			{
				"x": -0.7524996236,
				"y": -1.5226114331,
				"z": -0.6004894558,
				"element": "N" 
			},
			{
				"x": 0.6755931463,
				"y": -1.7458520119,
				"z": -0.3723620228,
				"element": "C" 
			},
			{
				"x": 1.5040636842,
				"y": -1.7432469618,
				"z": -1.6881782056,
				"element": "C" 
			},
			{
				"x": 0.7359974613,
				"y": -2.2208726518,
				"z": -2.8506809137,
				"element": "N" 
			},
			{
				"x": -0.2965063374,
				"y": -3.1772864217,
				"z": -2.4561164223,
				"element": "C" 
			},
			{
				"x": -1.3189909584,
				"y": -2.5950740556,
				"z": -1.4369873683,
				"element": "C" 
			},
			{
				"x": -0.8594111979,
				"y": 0.8508385845,
				"z": 0.1019622349,
				"element": "C" 
			},
			{
				"x": -0.1913226274,
				"y": 2.0333506474,
				"z": -0.1346458595,
				"element": "C" 
			},
			{
				"x": -0.0118536323,
				"y": 3.0069806721,
				"z": 0.8861804159,
				"element": "C" 
			},
			{
				"x": -0.5347404084,
				"y": 2.7423195466,
				"z": 2.1931240636,
				"element": "C" 
			},
			{
				"x": -0.3550204134,
				"y": 3.7122228864,
				"z": 3.2148055329,
				"element": "C" 
			},
			{
				"x": 0.3108417286,
				"y": 4.8909012416,
				"z": 2.9599429391,
				"element": "C" 
			},
			{
				"x": 0.8290939771,
				"y": 5.152520221,
				"z": 1.6680806304,
				"element": "C" 
			},
			{
				"x": 0.6712923994,
				"y": 4.2312066417,
				"z": 0.6563030145,
				"element": "C" 
			},
			{
				"x": -1.2128215026,
				"y": 1.5117855632,
				"z": 2.4168469582,
				"element": "C" 
			},
			{
				"x": -1.3699299882,
				"y": 0.5948278441,
				"z": 1.4056447556,
				"element": "C" 
			},
			{
				"x": -2.1596893948,
				"y": -0.1577787789,
				"z": -1.261303136,
				"element": "H" 
			},
			{
				"x": -0.5626333908,
				"y": 0.1903015019,
				"z": -1.9144415118,
				"element": "H" 
			},
			{
				"x": 1.0541536005,
				"y": -0.9922057513,
				"z": 0.324864959,
				"element": "H" 
			},
			{
				"x": 0.7781156488,
				"y": -2.7160875622,
				"z": 0.1301009799,
				"element": "H" 
			},
			{
				"x": 2.3950694528,
				"y": -2.3739288167,
				"z": -1.5551113786,
				"element": "H" 
			},
			{
				"x": 1.869273762,
				"y": -0.7360170506,
				"z": -1.9145188627,
				"element": "H" 
			},
			{
				"x": 0.2976224046,
				"y": -1.4308654176,
				"z": -3.3153995832,
				"element": "H" 
			},
			{
				"x": 0.2107311539,
				"y": -4.0481569382,
				"z": -2.0212788884,
				"element": "H" 
			},
			{
				"x": -0.8144945736,
				"y": -3.5395787657,
				"z": -3.3509675192,
				"element": "H" 
			},
			{
				"x": -1.6912415467,
				"y": -3.4042934737,
				"z": -0.7895649544,
				"element": "H" 
			},
			{
				"x": -2.189130971,
				"y": -2.1920514502,
				"z": -1.9665784144,
				"element": "H" 
			},
			{
				"x": 0.2105607068,
				"y": 2.2396430704,
				"z": -1.124995522,
				"element": "H" 
			},
			{
				"x": -0.7535200275,
				"y": 3.5080468238,
				"z": 4.2055401255,
				"element": "H" 
			},
			{
				"x": 0.4413734685,
				"y": 5.6249992399,
				"z": 3.7498629846,
				"element": "H" 
			},
			{
				"x": 1.3527152949,
				"y": 6.0851584869,
				"z": 1.4783373882,
				"element": "H" 
			},
			{
				"x": 1.0683643689,
				"y": 4.430446432,
				"z": -0.3360602065,
				"element": "H" 
			},
			{
				"x": -1.6078963684,
				"y": 1.30639141,
				"z": 3.4088959072,
				"element": "H" 
			},
			{
				"x": -1.8730622724,
				"y": -0.3502394919,
				"z": 1.5849817592,
				"element": "H" 
			}
		],
		 "valence_orbital": [ 
			{
				"type": "occ",
				"energy": -0.28016,
				"method": "rhf"
			},
			{
				"type": "occ",
				"energy": -0.24099,
				"method": "rhf"
			},
			{
				"type": "occ",
				"energy": -0.23334,
				"method": "rhf"
			},
			{
				"type": "occ",
				"energy": -0.21209,
				"method": "rhf"
			},
			{
				"type": "occ",
				"energy": -0.1891,
				"method": "rhf"
			},
			{
				"type": "unocc",
				"energy": -0.03463,
				"method": "rhf"
			},
			{
				"type": "unocc",
				"energy": -0.00785,
				"method": "rhf"
			},
			{
				"type": "unocc",
				"energy": 0.03537,
				"method": "rhf"
			},
			{
				"type": "unocc",
				"energy": 0.06559,
				"method": "rhf"
			},
			{
				"type": "unocc",
				"energy": 0.08997,
				"method": "rhf"
			}
		],
		"cosmo_sigma_profile": { 
			"-0.025": 0.0,
			"-0.024": 0.0,
			"-0.023": 0.0,
			"-0.022": 0.0,
			"-0.021": 0.0,
			"-0.02": 0.0,
			"-0.019": 0.0,
			"-0.018": 0.0,
			"-0.017": 0.0,
			"-0.016": 0.0,
			"-0.015": 0.0,
			"-0.014": 0.0,
			"-0.013": 0.0,
			"-0.012": 0.0,
			"-0.011": 0.0,
			"-0.01": 0.0,
			"-0.009": 1.02392648052,
			"-0.008": 1.42376319587,
			"-0.007": 2.77922371443,
			"-0.006": 6.76987472346,
			"-0.005": 17.9960559333,
			"-0.004": 24.4250339886,
			"-0.003": 34.2339162443,
			"-0.002": 33.3741761739,
			"-0.001": 30.4707787022,
			"0.0": 20.9485122123,
			"0.001": 14.4516657408,
			"0.002": 13.5607920058,
			"0.003": 14.8865060456,
			"0.004": 22.0808303102,
			"0.005": 22.3527144782,
			"0.006": 5.98862041859,
			"0.007": 2.58929047539,
			"0.008": 1.67324290395,
			"0.009": 1.52531155822,
			"0.01": 1.32963469707,
			"0.011": 1.40931532403,
			"0.012": 0.906108996945,
			"0.013": 0.739866447559,
			"0.014": 0.659629710426,
			"0.015": 0.59998232385,
			"0.016": 0.461068751206,
			"0.017": 0.326722762181,
			"0.018": 0.864602195389,
			"0.019": 0.261739024715,
			"0.02": 0.0,
			"0.021": 0.0,
			"0.022": 0.0,
			"0.023": 0.0,
			"0.024": 0.0,
			"0.025": 0.0
		}
	}
}
