{
	 "smiles": "O=C1NCCSC1C1=CC=CC=C1", 
	 "Tm": 433.15, 
	 "num_atms": 24, 
	 "gaussian": { 
		 "optdone": 1, 
		 "sigma_profile": "yes", 
		 "theory": "DFT", 
		 "functional": "B3LYP", 
		 "basiset": "6-31G**", 
		 "properties": { 
			 "R2extent": 2842.8308, 
			 "electric_dipole_moment_norm": 3.51592125196, 
			 "electric_quadrupole_moment_norm": 15.0137359425, 
			 "total_energy": -915.865643114, 
			 "HOMO_LUMO_gap": 0.20793, 
			 "cosmo_polarized_energy": -14.06, 
			 "cosmo_cavitation_energy": 27.89, 
			 "cosmo_dispersion_energy": -20.83, 
			 "cosmo_repulsion_energy": 1.61, 
			 "cosmo_total_nonelectrostatic_energy": 8.67, 
			 "SMD_solvation_energy": 4.13 
		},
		"coords": [
			{
				"x": -2.6906764405,
				"y": -1.2566022317,
				"z": -1.6745635144,
				"element": "O" 
			},
			{
				"x": -2.0944444582,
				"y": -0.8672747054,
				"z": -0.6800401323,
				"element": "C" 
			},
			{
				"x": -1.8155929647,
				"y": -1.722349121,
				"z": 0.3582583269,
				"element": "N" 
			},
			{
				"x": -1.4316934207,
				"y": -1.4146558123,
				"z": 1.7379727338,
				"element": "C" 
			},
			{
				"x": -0.6284958112,
				"y": -0.126161212,
				"z": 1.8497524003,
				"element": "C" 
			},
			{
				"x": -1.538347787,
				"y": 1.266837455,
				"z": 1.0979575968,
				"element": "S" 
			},
			{
				"x": -1.5612700542,
				"y": 0.5697514196,
				"z": -0.6251953728,
				"element": "C" 
			},
			{
				"x": -0.22950086,
				"y": 0.737104298,
				"z": -1.3411114345,
				"element": "C" 
			},
			{
				"x": 0.6993483424,
				"y": -0.3055921668,
				"z": -1.4572305762,
				"element": "C" 
			},
			{
				"x": 1.9196965727,
				"y": -0.1011583882,
				"z": -2.10673616,
				"element": "C" 
			},
			{
				"x": 2.2277521998,
				"y": 1.1448767191,
				"z": -2.6501129376,
				"element": "C" 
			},
			{
				"x": 1.3048582302,
				"y": 2.1892452553,
				"z": -2.5446989816,
				"element": "C" 
			},
			{
				"x": 0.089031021,
				"y": 1.9850661692,
				"z": -1.8972185272,
				"element": "C" 
			},
			{
				"x": -2.2496008443,
				"y": -2.6259886078,
				"z": 0.2100340238,
				"element": "H" 
			},
			{
				"x": -2.3265744259,
				"y": -1.3368678422,
				"z": 2.3710829655,
				"element": "H" 
			},
			{
				"x": -0.830140718,
				"y": -2.2519198465,
				"z": 2.1143689579,
				"element": "H" 
			},
			{
				"x": 0.3500964947,
				"y": -0.2192455079,
				"z": 1.3687961396,
				"element": "H" 
			},
			{
				"x": -0.4718321779,
				"y": 0.1230180354,
				"z": 2.9020103994,
				"element": "H" 
			},
			{
				"x": -2.3153353431,
				"y": 1.1660973639,
				"z": -1.1432703838,
				"element": "H" 
			},
			{
				"x": 0.4649213452,
				"y": -1.2866375908,
				"z": -1.0561305768,
				"element": "H" 
			},
			{
				"x": 2.6256556148,
				"y": -0.9225344649,
				"z": -2.1911793608,
				"element": "H" 
			},
			{
				"x": 3.1751572242,
				"y": 1.3018388623,
				"z": -3.1574624186,
				"element": "H" 
			},
			{
				"x": 1.5311380724,
				"y": 3.1620565441,
				"z": -2.9718485919,
				"element": "H" 
			},
			{
				"x": -0.6228498117,
				"y": 2.8024953758,
				"z": -1.8155345756,
				"element": "H" 
			}
		],
		 "valence_orbital": [ 
			{
				"type": "occ",
				"energy": -0.2699,
				"method": "rhf"
			},
			{
				"type": "occ",
				"energy": -0.25522,
				"method": "rhf"
			},
			{
				"type": "occ",
				"energy": -0.24997,
				"method": "rhf"
			},
			{
				"type": "occ",
				"energy": -0.24229,
				"method": "rhf"
			},
			{
				"type": "occ",
				"energy": -0.2254,
				"method": "rhf"
			},
			{
				"type": "unocc",
				"energy": -0.01747,
				"method": "rhf"
			},
			{
				"type": "unocc",
				"energy": -0.00418,
				"method": "rhf"
			},
			{
				"type": "unocc",
				"energy": 0.0142,
				"method": "rhf"
			},
			{
				"type": "unocc",
				"energy": 0.04029,
				"method": "rhf"
			},
			{
				"type": "unocc",
				"energy": 0.06974,
				"method": "rhf"
			}
		],
		"cosmo_sigma_profile": { 
			"-0.025": 0.0,
			"-0.024": 0.0,
			"-0.023": 0.0,
			"-0.022": 0.0,
			"-0.021": 0.0,
			"-0.02": 0.0,
			"-0.019": 0.0,
			"-0.018": 0.0,
			"-0.017": 0.0,
			"-0.016": 0.0,
			"-0.015": 0.0,
			"-0.014": 0.563116467916,
			"-0.013": 1.17863648105,
			"-0.012": 1.16308419174,
			"-0.011": 1.0363352402,
			"-0.01": 0.799109292108,
			"-0.009": 1.20303294157,
			"-0.008": 2.25696034849,
			"-0.007": 6.63633303969,
			"-0.006": 14.0819545082,
			"-0.005": 21.3816008991,
			"-0.004": 24.2402910594,
			"-0.003": 19.1736325746,
			"-0.002": 12.6312190411,
			"-0.001": 11.7320527432,
			"0.0": 11.2385193062,
			"0.001": 10.8785428128,
			"0.002": 10.8681419071,
			"0.003": 10.0614532931,
			"0.004": 11.8059228424,
			"0.005": 14.8521105676,
			"0.006": 9.02014790128,
			"0.007": 4.80233187703,
			"0.008": 2.59020676331,
			"0.009": 3.95717749243,
			"0.01": 1.7594538153,
			"0.011": 1.40766196136,
			"0.012": 1.98225046912,
			"0.013": 5.46801537509,
			"0.014": 3.75820307369,
			"0.015": 0.340651114817,
			"0.016": 0.0,
			"0.017": 0.0,
			"0.018": 0.0,
			"0.019": 0.0,
			"0.02": 0.0,
			"0.021": 0.0,
			"0.022": 0.0,
			"0.023": 0.0,
			"0.024": 0.0,
			"0.025": 0.0
		}
	}
}
