{
	 "smiles": "CCOC(=O)C(O)C(O)C(=O)OCC", 
	 "Tm": 290.15, 
	 "num_atms": 28, 
	 "gaussian": { 
		 "optdone": 1, 
		 "sigma_profile": "yes", 
		 "theory": "DFT", 
		 "functional": "B3LYP", 
		 "basiset": "6-31G**", 
		 "properties": { 
			 "R2extent": 3350.0992, 
			 "electric_dipole_moment_norm": 5.19571577745, 
			 "electric_quadrupole_moment_norm": 11.6451830703, 
			 "total_energy": -764.642073104, 
			 "HOMO_LUMO_gap": 0.25268, 
			 "cosmo_polarized_energy": -14.67, 
			 "cosmo_cavitation_energy": 31.99, 
			 "cosmo_dispersion_energy": -21.66, 
			 "cosmo_repulsion_energy": 1.77, 
			 "cosmo_total_nonelectrostatic_energy": 12.1, 
			 "SMD_solvation_energy": 7.43 
		},
		"coords": [
			{
				"x": 3.6536793896,
				"y": -0.0737752979,
				"z": -0.5284310175,
				"element": "C" 
			},
			{
				"x": 3.1736633197,
				"y": -1.0148984257,
				"z": 0.558648397,
				"element": "C" 
			},
			{
				"x": 1.738172983,
				"y": -1.1612202348,
				"z": 0.4042304726,
				"element": "O" 
			},
			{
				"x": 1.1231465325,
				"y": -1.9322414771,
				"z": 1.3089431358,
				"element": "C" 
			},
			{
				"x": 1.6816104245,
				"y": -2.5273961602,
				"z": 2.2075909797,
				"element": "O" 
			},
			{
				"x": -0.3906734315,
				"y": -1.9892030933,
				"z": 1.0997541793,
				"element": "C" 
			},
			{
				"x": -0.9549218677,
				"y": -2.868103497,
				"z": 2.0359966694,
				"element": "O" 
			},
			{
				"x": -0.994573903,
				"y": -0.5702857805,
				"z": 1.235516771,
				"element": "C" 
			},
			{
				"x": -0.4579771437,
				"y": 0.0583824171,
				"z": 2.3806665061,
				"element": "O" 
			},
			{
				"x": -0.8237848798,
				"y": 0.227026261,
				"z": -0.056973818,
				"element": "C" 
			},
			{
				"x": -1.1050650879,
				"y": -0.1953996261,
				"z": -1.1558528185,
				"element": "O" 
			},
			{
				"x": -0.3730242148,
				"y": 1.4774819524,
				"z": 0.1919677539,
				"element": "O" 
			},
			{
				"x": -0.225018111,
				"y": 2.3596498231,
				"z": -0.9523854075,
				"element": "C" 
			},
			{
				"x": -1.5332571471,
				"y": 3.0622636992,
				"z": -1.2773676543,
				"element": "C" 
			},
			{
				"x": 3.4293085168,
				"y": -0.4746935425,
				"z": -1.520846375,
				"element": "H" 
			},
			{
				"x": 4.7364846555,
				"y": 0.0625981297,
				"z": -0.4479648856,
				"element": "H" 
			},
			{
				"x": 3.1757141868,
				"y": 0.9056248028,
				"z": -0.4343187739,
				"element": "H" 
			},
			{
				"x": 3.6334021103,
				"y": -2.0047570857,
				"z": 0.4817910185,
				"element": "H" 
			},
			{
				"x": 3.376819557,
				"y": -0.6294555423,
				"z": 1.5620613824,
				"element": "H" 
			},
			{
				"x": -0.6016296826,
				"y": -2.3432964802,
				"z": 0.082857658,
				"element": "H" 
			},
			{
				"x": -0.2675364102,
				"y": -3.0217281092,
				"z": 2.7057459486,
				"element": "H" 
			},
			{
				"x": -2.0800052368,
				"y": -0.7239336015,
				"z": 1.3472153018,
				"element": "H" 
			},
			{
				"x": -0.3443956508,
				"y": 0.9949319524,
				"z": 2.1691184555,
				"element": "H" 
			},
			{
				"x": 0.5505088187,
				"y": 3.0672310556,
				"z": -0.6506127403,
				"element": "H" 
			},
			{
				"x": 0.1290833136,
				"y": 1.7660927839,
				"z": -1.7978718014,
				"element": "H" 
			},
			{
				"x": -2.29058439,
				"y": 2.3393835267,
				"z": -1.5899667309,
				"element": "H" 
			},
			{
				"x": -1.9061232667,
				"y": 3.6170589767,
				"z": -0.411436765,
				"element": "H" 
			},
			{
				"x": -1.3771233844,
				"y": 3.7708625731,
				"z": -2.0973758418,
				"element": "H" 
			}
		],
		 "valence_orbital": [ 
			{
				"type": "occ",
				"energy": -0.31182,
				"method": "rhf"
			},
			{
				"type": "occ",
				"energy": -0.30149,
				"method": "rhf"
			},
			{
				"type": "occ",
				"energy": -0.2891,
				"method": "rhf"
			},
			{
				"type": "occ",
				"energy": -0.27171,
				"method": "rhf"
			},
			{
				"type": "occ",
				"energy": -0.26087,
				"method": "rhf"
			},
			{
				"type": "unocc",
				"energy": -0.00819,
				"method": "rhf"
			},
			{
				"type": "unocc",
				"energy": 0.01203,
				"method": "rhf"
			},
			{
				"type": "unocc",
				"energy": 0.07417,
				"method": "rhf"
			},
			{
				"type": "unocc",
				"energy": 0.09138,
				"method": "rhf"
			},
			{
				"type": "unocc",
				"energy": 0.0998,
				"method": "rhf"
			}
		],
		"cosmo_sigma_profile": { 
			"-0.025": 0.0,
			"-0.024": 0.0,
			"-0.023": 0.0,
			"-0.022": 0.0,
			"-0.021": 0.0,
			"-0.02": 0.0,
			"-0.019": 0.0,
			"-0.018": 0.0,
			"-0.017": 0.0,
			"-0.016": 0.0,
			"-0.015": 0.0,
			"-0.014": 0.0429649301633,
			"-0.013": 0.326154008177,
			"-0.012": 0.883127653332,
			"-0.011": 1.603832969,
			"-0.01": 0.565959929769,
			"-0.009": 0.981504953324,
			"-0.008": 2.81472467997,
			"-0.007": 5.72745406738,
			"-0.006": 11.514622056,
			"-0.005": 17.4969943057,
			"-0.004": 29.4405607133,
			"-0.003": 27.4155489638,
			"-0.002": 22.6223491458,
			"-0.001": 21.3171624449,
			"0.0": 19.4873305516,
			"0.001": 12.8155124865,
			"0.002": 9.24908925052,
			"0.003": 8.22885519407,
			"0.004": 6.15028830394,
			"0.005": 4.70032874924,
			"0.006": 5.24568117206,
			"0.007": 7.02732840819,
			"0.008": 5.81919004969,
			"0.009": 5.73173905035,
			"0.01": 8.05577486628,
			"0.011": 8.26615296185,
			"0.012": 3.93287652005,
			"0.013": 2.48742565923,
			"0.014": 0.0875123207756,
			"0.015": 0.0,
			"0.016": 0.0,
			"0.017": 0.0,
			"0.018": 0.0,
			"0.019": 0.0,
			"0.02": 0.0,
			"0.021": 0.0,
			"0.022": 0.0,
			"0.023": 0.0,
			"0.024": 0.0,
			"0.025": 0.0
		}
	}
}
