{
	 "smiles": "CC1=NC=CN1C1=NN=C(Cl)C=C1", 
	 "Tm": 396.15, 
	 "num_atms": 20, 
	 "gaussian": { 
		 "optdone": 1, 
		 "sigma_profile": "yes", 
		 "theory": "DFT", 
		 "functional": "B3LYP", 
		 "basiset": "6-31G**", 
		 "properties": { 
			 "R2extent": 3414.4711, 
			 "electric_dipole_moment_norm": 3.87723986619, 
			 "electric_quadrupole_moment_norm": 12.3843639659, 
			 "total_energy": -988.218020509, 
			 "HOMO_LUMO_gap": 0.15262, 
			 "cosmo_polarized_energy": -15.13, 
			 "cosmo_cavitation_energy": 26.41, 
			 "cosmo_dispersion_energy": -19.8, 
			 "cosmo_repulsion_energy": 1.55, 
			 "cosmo_total_nonelectrostatic_energy": 8.16, 
			 "SMD_solvation_energy": 1.6 
		},
		"coords": [
			{
				"x": 3.1553641978,
				"y": -0.0294200393,
				"z": 0.5283569649,
				"element": "C" 
			},
			{
				"x": 2.2306370638,
				"y": -0.5279059241,
				"z": 1.5935778859,
				"element": "C" 
			},
			{
				"x": 2.6440480908,
				"y": -1.1243864771,
				"z": 2.6853301571,
				"element": "N" 
			},
			{
				"x": 1.5150379386,
				"y": -1.3852165864,
				"z": 3.4390022709,
				"element": "C" 
			},
			{
				"x": 0.3960327084,
				"y": -0.9307647142,
				"z": 2.810097875,
				"element": "C" 
			},
			{
				"x": 0.8391303766,
				"y": -0.3844834916,
				"z": 1.6038598007,
				"element": "N" 
			},
			{
				"x": -0.013356442,
				"y": 0.236267656,
				"z": 0.6727781557,
				"element": "C" 
			},
			{
				"x": -1.1525768791,
				"y": 0.7152209148,
				"z": 1.1853589117,
				"element": "N" 
			},
			{
				"x": -2.0465430527,
				"y": 1.3076586041,
				"z": 0.3975750577,
				"element": "N" 
			},
			{
				"x": -1.7884427143,
				"y": 1.4365808875,
				"z": -0.893357163,
				"element": "C" 
			},
			{
				"x": -2.9981554633,
				"y": 2.2569286597,
				"z": -1.8507869306,
				"element": "Cl" 
			},
			{
				"x": -0.6312745644,
				"y": 0.9446822899,
				"z": -1.5121887617,
				"element": "C" 
			},
			{
				"x": 0.2848078656,
				"y": 0.3087360808,
				"z": -0.7012498328,
				"element": "C" 
			},
			{
				"x": 4.1626165756,
				"y": -0.0446753369,
				"z": 0.946766718,
				"element": "H" 
			},
			{
				"x": 2.9234552763,
				"y": 0.9934053793,
				"z": 0.2140271467,
				"element": "H" 
			},
			{
				"x": 3.1600938078,
				"y": -0.6677179393,
				"z": -0.3639602977,
				"element": "H" 
			},
			{
				"x": 1.5815786178,
				"y": -1.8850777454,
				"z": 4.395016545,
				"element": "H" 
			},
			{
				"x": -0.6495446994,
				"y": -0.9237632485,
				"z": 3.0668071513,
				"element": "H" 
			},
			{
				"x": -0.4826920168,
				"y": 1.043473313,
				"z": -2.5811016919,
				"element": "H" 
			},
			{
				"x": 1.1801833127,
				"y": -0.1355422825,
				"z": -1.113809963,
				"element": "H" 
			}
		],
		 "valence_orbital": [ 
			{
				"type": "occ",
				"energy": -0.31391,
				"method": "rhf"
			},
			{
				"type": "occ",
				"energy": -0.27418,
				"method": "rhf"
			},
			{
				"type": "occ",
				"energy": -0.26437,
				"method": "rhf"
			},
			{
				"type": "occ",
				"energy": -0.26229,
				"method": "rhf"
			},
			{
				"type": "occ",
				"energy": -0.23098,
				"method": "rhf"
			},
			{
				"type": "unocc",
				"energy": -0.07836,
				"method": "rhf"
			},
			{
				"type": "unocc",
				"energy": -0.05648,
				"method": "rhf"
			},
			{
				"type": "unocc",
				"energy": 0.01497,
				"method": "rhf"
			},
			{
				"type": "unocc",
				"energy": 0.02265,
				"method": "rhf"
			},
			{
				"type": "unocc",
				"energy": 0.06366,
				"method": "rhf"
			}
		],
		"cosmo_sigma_profile": { 
			"-0.025": 0.0,
			"-0.024": 0.0,
			"-0.023": 0.0,
			"-0.022": 0.0,
			"-0.021": 0.0,
			"-0.02": 0.0,
			"-0.019": 0.0,
			"-0.018": 0.0,
			"-0.017": 0.0,
			"-0.016": 0.0,
			"-0.015": 0.0,
			"-0.014": 0.0,
			"-0.013": 0.0,
			"-0.012": 0.0,
			"-0.011": 0.532226815224,
			"-0.01": 4.7006551705,
			"-0.009": 5.16195842308,
			"-0.008": 4.40610674741,
			"-0.007": 7.48286134737,
			"-0.006": 11.3250716609,
			"-0.005": 11.4895699107,
			"-0.004": 17.0523785514,
			"-0.003": 20.2863832197,
			"-0.002": 19.3112986622,
			"-0.001": 13.8406655825,
			"0.0": 10.7929083702,
			"0.001": 9.73848487159,
			"0.002": 11.0685335111,
			"0.003": 15.4719352737,
			"0.004": 11.9369645847,
			"0.005": 8.43078212262,
			"0.006": 4.94616364767,
			"0.007": 3.53619825563,
			"0.008": 3.41751985841,
			"0.009": 3.7437480972,
			"0.01": 3.16805917697,
			"0.011": 3.46300306717,
			"0.012": 3.85391987602,
			"0.013": 1.90190058185,
			"0.014": 1.37597658661,
			"0.015": 1.06579042326,
			"0.016": 0.92847945042,
			"0.017": 0.763497571745,
			"0.018": 0.219747828074,
			"0.019": 0.0,
			"0.02": 0.0,
			"0.021": 0.0,
			"0.022": 0.0,
			"0.023": 0.0,
			"0.024": 0.0,
			"0.025": 0.0
		}
	}
}
