{
	 "smiles": "CS(=O)(=O)C1CS(=O)(=O)CC1O", 
	 "Tm": 478.15, 
	 "num_atms": 22, 
	 "gaussian": { 
		 "optdone": 1, 
		 "sigma_profile": "yes", 
		 "theory": "DFT", 
		 "functional": "B3LYP", 
		 "basiset": "6-31G**", 
		 "properties": { 
			 "R2extent": 2725.6489, 
			 "electric_dipole_moment_norm": 4.69435730319, 
			 "electric_quadrupole_moment_norm": 24.8010419779, 
			 "total_energy": -1368.91258416, 
			 "HOMO_LUMO_gap": 0.30435, 
			 "cosmo_polarized_energy": -28.38, 
			 "cosmo_cavitation_energy": 27.02, 
			 "cosmo_dispersion_energy": -20.72, 
			 "cosmo_repulsion_energy": 1.54, 
			 "cosmo_total_nonelectrostatic_energy": 7.84, 
			 "SMD_solvation_energy": 3.31 
		},
		"coords": [
			{
				"x": 2.412069274,
				"y": 1.3855978581,
				"z": 0.7518379604,
				"element": "C" 
			},
			{
				"x": 1.2158187029,
				"y": 1.8183053937,
				"z": -0.5279499228,
				"element": "S" 
			},
			{
				"x": 0.7604169816,
				"y": 3.1970287078,
				"z": -0.2883058531,
				"element": "O" 
			},
			{
				"x": 1.7810258643,
				"y": 1.4245348853,
				"z": -1.8270419082,
				"element": "O" 
			},
			{
				"x": -0.2624415082,
				"y": 0.7519745033,
				"z": -0.281391553,
				"element": "C" 
			},
			{
				"x": 0.0055455766,
				"y": -0.7492272003,
				"z": -0.2355274224,
				"element": "C" 
			},
			{
				"x": -1.6302260664,
				"y": -1.4546334135,
				"z": 0.2471377483,
				"element": "S" 
			},
			{
				"x": -2.3737492566,
				"y": -1.796704724,
				"z": -0.9740270831,
				"element": "O" 
			},
			{
				"x": -1.4582443068,
				"y": -2.4316055063,
				"z": 1.3293593142,
				"element": "O" 
			},
			{
				"x": -2.3067405263,
				"y": 0.1337102955,
				"z": 0.9071521893,
				"element": "C" 
			},
			{
				"x": -1.1241458288,
				"y": 1.1145618777,
				"z": 0.9424999296,
				"element": "C" 
			},
			{
				"x": -0.3156873595,
				"y": 0.912355812,
				"z": 2.0939057669,
				"element": "O" 
			},
			{
				"x": 3.2372949315,
				"y": 2.0869917317,
				"z": 0.6131147219,
				"element": "H" 
			},
			{
				"x": 2.7598928742,
				"y": 0.364078084,
				"z": 0.5948775485,
				"element": "H" 
			},
			{
				"x": 1.9436283428,
				"y": 1.5066268086,
				"z": 1.7266796865,
				"element": "H" 
			},
			{
				"x": -0.8287327519,
				"y": 0.9961794334,
				"z": -1.1877055451,
				"element": "H" 
			},
			{
				"x": 0.7097008806,
				"y": -1.0319359978,
				"z": 0.5475904886,
				"element": "H" 
			},
			{
				"x": 0.2876597435,
				"y": -1.1787522495,
				"z": -1.1963413137,
				"element": "H" 
			},
			{
				"x": -2.7337701847,
				"y": -0.0630860068,
				"z": 1.8925636136,
				"element": "H" 
			},
			{
				"x": -3.0889149384,
				"y": 0.4498937036,
				"z": 0.2134598622,
				"element": "H" 
			},
			{
				"x": -1.4640476142,
				"y": 2.1540700701,
				"z": 0.8669494844,
				"element": "H" 
			},
			{
				"x": -0.8196528302,
				"y": 1.1592359335,
				"z": 2.8797622871,
				"element": "H" 
			}
		],
		 "valence_orbital": [ 
			{
				"type": "occ",
				"energy": -0.3213,
				"method": "rhf"
			},
			{
				"type": "occ",
				"energy": -0.30943,
				"method": "rhf"
			},
			{
				"type": "occ",
				"energy": -0.30715,
				"method": "rhf"
			},
			{
				"type": "occ",
				"energy": -0.30458,
				"method": "rhf"
			},
			{
				"type": "occ",
				"energy": -0.28759,
				"method": "rhf"
			},
			{
				"type": "unocc",
				"energy": 0.01676,
				"method": "rhf"
			},
			{
				"type": "unocc",
				"energy": 0.02659,
				"method": "rhf"
			},
			{
				"type": "unocc",
				"energy": 0.03626,
				"method": "rhf"
			},
			{
				"type": "unocc",
				"energy": 0.04786,
				"method": "rhf"
			},
			{
				"type": "unocc",
				"energy": 0.04962,
				"method": "rhf"
			}
		],
		"cosmo_sigma_profile": { 
			"-0.025": 0.0,
			"-0.024": 0.0,
			"-0.023": 0.0,
			"-0.022": 0.0,
			"-0.021": 0.0,
			"-0.02": 0.0,
			"-0.019": 0.0,
			"-0.018": 0.327101249217,
			"-0.017": 1.59705592789,
			"-0.016": 1.29484143807,
			"-0.015": 0.841335056592,
			"-0.014": 1.41281608256,
			"-0.013": 1.54783229639,
			"-0.012": 1.64646808638,
			"-0.011": 2.96151728851,
			"-0.01": 6.7778528559,
			"-0.009": 12.9245782289,
			"-0.008": 14.440730061,
			"-0.007": 13.2219660179,
			"-0.006": 12.4222153551,
			"-0.005": 11.6307121036,
			"-0.004": 10.3937796608,
			"-0.003": 7.71787772783,
			"-0.002": 5.49111321299,
			"-0.001": 4.44658366753,
			"0.0": 5.96329767282,
			"0.001": 6.20131019706,
			"0.002": 5.27300128951,
			"0.003": 4.80510052827,
			"0.004": 5.42619137943,
			"0.005": 5.07579283204,
			"0.006": 3.98872855475,
			"0.007": 4.99942033859,
			"0.008": 6.17638903747,
			"0.009": 6.67593184625,
			"0.01": 10.8465094351,
			"0.011": 22.6309528482,
			"0.012": 12.9223943827,
			"0.013": 0.283476960615,
			"0.014": 0.0,
			"0.015": 0.0,
			"0.016": 0.0,
			"0.017": 0.0,
			"0.018": 0.0,
			"0.019": 0.0,
			"0.02": 0.0,
			"0.021": 0.0,
			"0.022": 0.0,
			"0.023": 0.0,
			"0.024": 0.0,
			"0.025": 0.0
		}
	}
}
