{
	 "smiles": "CC(=O)OC1=CC=CC(C(Cl)=O)=C1C", 
	 "Tm": 306.15, 
	 "num_atms": 23, 
	 "gaussian": { 
		 "optdone": 1, 
		 "sigma_profile": "yes", 
		 "theory": "DFT", 
		 "functional": "B3LYP", 
		 "basiset": "6-31G**", 
		 "properties": { 
			 "R2extent": 4084.657, 
			 "electric_dipole_moment_norm": 4.19058449503, 
			 "electric_quadrupole_moment_norm": 12.2818783889, 
			 "total_energy": -1072.37253522, 
			 "HOMO_LUMO_gap": 0.18213, 
			 "cosmo_polarized_energy": -9.52, 
			 "cosmo_cavitation_energy": 29.45, 
			 "cosmo_dispersion_energy": -21.25, 
			 "cosmo_repulsion_energy": 1.68, 
			 "cosmo_total_nonelectrostatic_energy": 9.88, 
			 "SMD_solvation_energy": 6.89 
		},
		"coords": [
			{
				"x": 0.3211409568,
				"y": -3.7456419793,
				"z": 1.8163341761,
				"element": "C" 
			},
			{
				"x": -0.5382823202,
				"y": -2.7539956949,
				"z": 1.0751196757,
				"element": "C" 
			},
			{
				"x": -1.6461249962,
				"y": -2.9481024638,
				"z": 0.6441901518,
				"element": "O" 
			},
			{
				"x": 0.1382388528,
				"y": -1.5604272464,
				"z": 0.9490313711,
				"element": "O" 
			},
			{
				"x": -0.4575386829,
				"y": -0.4913819549,
				"z": 0.2767674245,
				"element": "C" 
			},
			{
				"x": -1.6994054172,
				"y": -0.0177843628,
				"z": 0.6974747733,
				"element": "C" 
			},
			{
				"x": -2.2571761869,
				"y": 1.0917963288,
				"z": 0.0706663478,
				"element": "C" 
			},
			{
				"x": -1.5699213346,
				"y": 1.7200462971,
				"z": -0.959888316,
				"element": "C" 
			},
			{
				"x": -0.3161325662,
				"y": 1.2472060542,
				"z": -1.3790900388,
				"element": "C" 
			},
			{
				"x": 0.4213431184,
				"y": 1.9220224808,
				"z": -2.4750749737,
				"element": "C" 
			},
			{
				"x": -0.42594313,
				"y": 3.3851311974,
				"z": -3.2195635637,
				"element": "Cl" 
			},
			{
				"x": 1.4882960404,
				"y": 1.6296695852,
				"z": -2.9247548967,
				"element": "O" 
			},
			{
				"x": 0.2739140295,
				"y": 0.1071608248,
				"z": -0.7603818181,
				"element": "C" 
			},
			{
				"x": 1.6125405063,
				"y": -0.4643929948,
				"z": -1.1572298853,
				"element": "C" 
			},
			{
				"x": 1.215841301,
				"y": -3.9739821922,
				"z": 1.2288474303,
				"element": "H" 
			},
			{
				"x": -0.248095882,
				"y": -4.6582920828,
				"z": 1.9884672259,
				"element": "H" 
			},
			{
				"x": 0.654994485,
				"y": -3.3209362784,
				"z": 2.7670065234,
				"element": "H" 
			},
			{
				"x": -2.2176256751,
				"y": -0.5213376389,
				"z": 1.504248578,
				"element": "H" 
			},
			{
				"x": -3.2247046228,
				"y": 1.4662021441,
				"z": 0.3879227262,
				"element": "H" 
			},
			{
				"x": -1.9989376289,
				"y": 2.5851638788,
				"z": -1.4468508276,
				"element": "H" 
			},
			{
				"x": 1.6177616237,
				"y": -0.7599666978,
				"z": -2.2097497542,
				"element": "H" 
			},
			{
				"x": 2.4072965074,
				"y": 0.2781222436,
				"z": -1.0475646171,
				"element": "H" 
			},
			{
				"x": 1.8523210215,
				"y": -1.3298794476,
				"z": -0.5418277129,
				"element": "H" 
			}
		],
		 "valence_orbital": [ 
			{
				"type": "occ",
				"energy": -0.31588,
				"method": "rhf"
			},
			{
				"type": "occ",
				"energy": -0.29339,
				"method": "rhf"
			},
			{
				"type": "occ",
				"energy": -0.28774,
				"method": "rhf"
			},
			{
				"type": "occ",
				"energy": -0.27479,
				"method": "rhf"
			},
			{
				"type": "occ",
				"energy": -0.25984,
				"method": "rhf"
			},
			{
				"type": "unocc",
				"energy": -0.07771,
				"method": "rhf"
			},
			{
				"type": "unocc",
				"energy": -0.02573,
				"method": "rhf"
			},
			{
				"type": "unocc",
				"energy": -0.00384,
				"method": "rhf"
			},
			{
				"type": "unocc",
				"energy": 0.01666,
				"method": "rhf"
			},
			{
				"type": "unocc",
				"energy": 0.02688,
				"method": "rhf"
			}
		],
		"cosmo_sigma_profile": { 
			"-0.025": 0.0,
			"-0.024": 0.0,
			"-0.023": 0.0,
			"-0.022": 0.0,
			"-0.021": 0.0,
			"-0.02": 0.0,
			"-0.019": 0.0,
			"-0.018": 0.0,
			"-0.017": 0.0,
			"-0.016": 0.0,
			"-0.015": 0.0,
			"-0.014": 0.0,
			"-0.013": 0.0,
			"-0.012": 0.0,
			"-0.011": 0.0,
			"-0.01": 0.0,
			"-0.009": 0.0,
			"-0.008": 1.50969067098,
			"-0.007": 8.33943076564,
			"-0.006": 13.5217124604,
			"-0.005": 13.2882561398,
			"-0.004": 19.3915112683,
			"-0.003": 22.4845306024,
			"-0.002": 21.5068132732,
			"-0.001": 20.7380501912,
			"0.0": 20.8030639669,
			"0.001": 18.8439501343,
			"0.002": 15.6527528618,
			"0.003": 11.0941114341,
			"0.004": 11.1259464714,
			"0.005": 10.12404058,
			"0.006": 6.24087117378,
			"0.007": 4.51235912497,
			"0.008": 5.01147716653,
			"0.009": 5.0233556566,
			"0.01": 3.27119294126,
			"0.011": 4.10548399476,
			"0.012": 1.26958960212,
			"0.013": 0.0159857993617,
			"0.014": 0.0,
			"0.015": 0.0,
			"0.016": 0.0,
			"0.017": 0.0,
			"0.018": 0.0,
			"0.019": 0.0,
			"0.02": 0.0,
			"0.021": 0.0,
			"0.022": 0.0,
			"0.023": 0.0,
			"0.024": 0.0,
			"0.025": 0.0
		}
	}
}
