{
	 "smiles": "CC1=C(C=C(C(F)=C1)[N+]([O-])=O)S(Cl)(=O)=O", 
	 "Tm": 340.15, 
	 "num_atms": 20, 
	 "gaussian": { 
		 "optdone": 1, 
		 "sigma_profile": "yes", 
		 "theory": "DFT", 
		 "functional": "B3LYP", 
		 "basiset": "6-31G**", 
		 "properties": { 
			 "R2extent": 5523.3612, 
			 "electric_dipole_moment_norm": 4.95276930313, 
			 "electric_quadrupole_moment_norm": 20.3853176757, 
			 "total_energy": -1583.43875187, 
			 "HOMO_LUMO_gap": 0.19212, 
			 "cosmo_polarized_energy": -12.65, 
			 "cosmo_cavitation_energy": 28.9, 
			 "cosmo_dispersion_energy": -21.44, 
			 "cosmo_repulsion_energy": 1.6, 
			 "cosmo_total_nonelectrostatic_energy": 9.07, 
			 "SMD_solvation_energy": 6.5 
		},
		"coords": [
			{
				"x": 0.9281164767,
				"y": 3.8705632578,
				"z": -2.5221222002,
				"element": "C" 
			},
			{
				"x": 1.0941167508,
				"y": 2.4782285476,
				"z": -1.9716972102,
				"element": "C" 
			},
			{
				"x": 0.025925224,
				"y": 1.6682768284,
				"z": -1.5210818242,
				"element": "C" 
			},
			{
				"x": 0.2211026144,
				"y": 0.3898523069,
				"z": -1.0124703717,
				"element": "C" 
			},
			{
				"x": 1.5074613685,
				"y": -0.1383738455,
				"z": -0.9403547537,
				"element": "C" 
			},
			{
				"x": 2.5873010663,
				"y": 0.6380251958,
				"z": -1.3825235352,
				"element": "C" 
			},
			{
				"x": 3.8394116439,
				"y": 0.2001601295,
				"z": -1.3452482148,
				"element": "F" 
			},
			{
				"x": 2.3706589072,
				"y": 1.9194627184,
				"z": -1.8843754717,
				"element": "C" 
			},
			{
				"x": 1.6672718519,
				"y": -1.4968047231,
				"z": -0.398106196,
				"element": "N" 
			},
			{
				"x": 0.6401099034,
				"y": -2.0847598125,
				"z": -0.0646292893,
				"element": "O" 
			},
			{
				"x": 2.8040152131,
				"y": -1.9488223756,
				"z": -0.3137858997,
				"element": "O" 
			},
			{
				"x": -1.6848001226,
				"y": 2.2101553953,
				"z": -1.5987193944,
				"element": "S" 
			},
			{
				"x": -1.7507417117,
				"y": 3.6115722681,
				"z": 0.006970075,
				"element": "Cl" 
			},
			{
				"x": -1.9114953242,
				"y": 2.974049904,
				"z": -2.8186788587,
				"element": "O" 
			},
			{
				"x": -2.5477724871,
				"y": 1.103873273,
				"z": -1.2109330409,
				"element": "O" 
			},
			{
				"x": 0.3475589444,
				"y": 3.8565257552,
				"z": -3.4480312355,
				"element": "H" 
			},
			{
				"x": 0.3876096908,
				"y": 4.5135021883,
				"z": -1.8211482657,
				"element": "H" 
			},
			{
				"x": 1.9039388959,
				"y": 4.3174706396,
				"z": -2.7199688628,
				"element": "H" 
			},
			{
				"x": -0.6109206044,
				"y": -0.213425644,
				"z": -0.6710862051,
				"element": "H" 
			},
			{
				"x": 3.2381316989,
				"y": 2.4819679927,
				"z": -2.2122092451,
				"element": "H" 
			}
		],
		 "valence_orbital": [ 
			{
				"type": "occ",
				"energy": -0.32874,
				"method": "rhf"
			},
			{
				"type": "occ",
				"energy": -0.3262,
				"method": "rhf"
			},
			{
				"type": "occ",
				"energy": -0.31306,
				"method": "rhf"
			},
			{
				"type": "occ",
				"energy": -0.31023,
				"method": "rhf"
			},
			{
				"type": "occ",
				"energy": -0.30604,
				"method": "rhf"
			},
			{
				"type": "unocc",
				"energy": -0.11392,
				"method": "rhf"
			},
			{
				"type": "unocc",
				"energy": -0.10439,
				"method": "rhf"
			},
			{
				"type": "unocc",
				"energy": -0.06504,
				"method": "rhf"
			},
			{
				"type": "unocc",
				"energy": -0.03702,
				"method": "rhf"
			},
			{
				"type": "unocc",
				"energy": 0.03322,
				"method": "rhf"
			}
		],
		"cosmo_sigma_profile": { 
			"-0.025": 0.0,
			"-0.024": 0.0,
			"-0.023": 0.0,
			"-0.022": 0.0,
			"-0.021": 0.0,
			"-0.02": 0.0,
			"-0.019": 0.0,
			"-0.018": 0.0,
			"-0.017": 0.0,
			"-0.016": 0.0,
			"-0.015": 0.0,
			"-0.014": 0.0,
			"-0.013": 0.0,
			"-0.012": 0.0,
			"-0.011": 0.0,
			"-0.01": 1.25371509818,
			"-0.009": 3.33817750642,
			"-0.008": 4.64218611937,
			"-0.007": 6.24418472254,
			"-0.006": 9.83034368335,
			"-0.005": 16.2824689956,
			"-0.004": 24.2657013655,
			"-0.003": 25.5560120743,
			"-0.002": 17.999768209,
			"-0.001": 11.3520157478,
			"0.0": 9.25365353829,
			"0.001": 12.8321642226,
			"0.002": 18.1606576265,
			"0.003": 14.9764354591,
			"0.004": 7.71162115896,
			"0.005": 7.34679066925,
			"0.006": 10.5094743881,
			"0.007": 16.5560453599,
			"0.008": 12.7053728679,
			"0.009": 4.20587070495,
			"0.01": 0.302520538493,
			"0.011": 0.0,
			"0.012": 0.0,
			"0.013": 0.0,
			"0.014": 0.0,
			"0.015": 0.0,
			"0.016": 0.0,
			"0.017": 0.0,
			"0.018": 0.0,
			"0.019": 0.0,
			"0.02": 0.0,
			"0.021": 0.0,
			"0.022": 0.0,
			"0.023": 0.0,
			"0.024": 0.0,
			"0.025": 0.0
		}
	}
}
