{
	 "smiles": "CC1=NC2=CC(Cl)=CC=C2C=C1", 
	 "Tm": 349.15, 
	 "num_atms": 20, 
	 "gaussian": { 
		 "optdone": 1, 
		 "sigma_profile": "yes", 
		 "theory": "DFT", 
		 "functional": "B3LYP", 
		 "basiset": "6-31G**", 
		 "properties": { 
			 "R2extent": 3281.5439, 
			 "electric_dipole_moment_norm": 3.39041030703, 
			 "electric_quadrupole_moment_norm": 5.64453335007, 
			 "total_energy": -900.847047351, 
			 "HOMO_LUMO_gap": 0.1798, 
			 "cosmo_polarized_energy": -7.01, 
			 "cosmo_cavitation_energy": 25.73, 
			 "cosmo_dispersion_energy": -19.37, 
			 "cosmo_repulsion_energy": 1.53, 
			 "cosmo_total_nonelectrostatic_energy": 7.89, 
			 "SMD_solvation_energy": 2.57 
		},
		"coords": [
			{
				"x": -0.8352357297,
				"y": -0.651439195,
				"z": 2.7706186382,
				"element": "C" 
			},
			{
				"x": -0.2795407662,
				"y": -0.1700888681,
				"z": 1.4537962999,
				"element": "C" 
			},
			{
				"x": -0.3749047434,
				"y": -0.9837066254,
				"z": 0.4174766556,
				"element": "N" 
			},
			{
				"x": 0.1209715471,
				"y": -0.5706807143,
				"z": -0.7860943217,
				"element": "C" 
			},
			{
				"x": 0.0113593444,
				"y": -1.4558221025,
				"z": -1.8908023228,
				"element": "C" 
			},
			{
				"x": 0.5004280689,
				"y": -1.071489753,
				"z": -3.1174121833,
				"element": "C" 
			},
			{
				"x": 0.368783688,
				"y": -2.1616094834,
				"z": -4.4905531687,
				"element": "Cl" 
			},
			{
				"x": 1.1148995493,
				"y": 0.1881638454,
				"z": -3.317347301,
				"element": "C" 
			},
			{
				"x": 1.2281401012,
				"y": 1.0566340993,
				"z": -2.2554684318,
				"element": "C" 
			},
			{
				"x": 0.7388243236,
				"y": 0.704765453,
				"z": -0.9717804964,
				"element": "C" 
			},
			{
				"x": 0.8238627125,
				"y": 1.5522901069,
				"z": 0.1628894577,
				"element": "C" 
			},
			{
				"x": 0.320766986,
				"y": 1.1218301509,
				"z": 1.3641545194,
				"element": "C" 
			},
			{
				"x": -1.2514941161,
				"y": -1.6524942306,
				"z": 2.6513458387,
				"element": "H" 
			},
			{
				"x": -1.6217465374,
				"y": 0.0198506385,
				"z": 3.134992231,
				"element": "H" 
			},
			{
				"x": -0.0550386754,
				"y": -0.6798935297,
				"z": 3.5403436891,
				"element": "H" 
			},
			{
				"x": -0.4591045371,
				"y": -2.4194656505,
				"z": -1.7362956258,
				"element": "H" 
			},
			{
				"x": 1.4871849104,
				"y": 0.4519446003,
				"z": -4.3007454688,
				"element": "H" 
			},
			{
				"x": 1.6977593298,
				"y": 2.0268442227,
				"z": -2.3953553014,
				"element": "H" 
			},
			{
				"x": 1.2861588277,
				"y": 2.531715067,
				"z": 0.0670722178,
				"element": "H" 
			},
			{
				"x": 0.3725257163,
				"y": 1.7499519686,
				"z": 2.2485650743,
				"element": "H" 
			}
		],
		 "valence_orbital": [ 
			{
				"type": "occ",
				"energy": -0.31259,
				"method": "rhf"
			},
			{
				"type": "occ",
				"energy": -0.30355,
				"method": "rhf"
			},
			{
				"type": "occ",
				"energy": -0.25704,
				"method": "rhf"
			},
			{
				"type": "occ",
				"energy": -0.24736,
				"method": "rhf"
			},
			{
				"type": "occ",
				"energy": -0.23631,
				"method": "rhf"
			},
			{
				"type": "unocc",
				"energy": -0.05651,
				"method": "rhf"
			},
			{
				"type": "unocc",
				"energy": -0.02353,
				"method": "rhf"
			},
			{
				"type": "unocc",
				"energy": 0.01365,
				"method": "rhf"
			},
			{
				"type": "unocc",
				"energy": 0.03036,
				"method": "rhf"
			},
			{
				"type": "unocc",
				"energy": 0.07606,
				"method": "rhf"
			}
		],
		"cosmo_sigma_profile": { 
			"-0.025": 0.0,
			"-0.024": 0.0,
			"-0.023": 0.0,
			"-0.022": 0.0,
			"-0.021": 0.0,
			"-0.02": 0.0,
			"-0.019": 0.0,
			"-0.018": 0.0,
			"-0.017": 0.0,
			"-0.016": 0.0,
			"-0.015": 0.0,
			"-0.014": 0.0,
			"-0.013": 0.0,
			"-0.012": 0.0,
			"-0.011": 0.0,
			"-0.01": 0.0,
			"-0.009": 0.0,
			"-0.008": 1.02799376703,
			"-0.007": 8.58883857878,
			"-0.006": 9.74580352306,
			"-0.005": 12.7740217888,
			"-0.004": 14.1413602154,
			"-0.003": 13.5533488975,
			"-0.002": 13.5118903381,
			"-0.001": 14.5215419647,
			"0.0": 18.5160056315,
			"0.001": 23.3129255952,
			"0.002": 29.5698572052,
			"0.003": 18.9598830683,
			"0.004": 12.5262140612,
			"0.005": 7.2084388427,
			"0.006": 1.86589317429,
			"0.007": 1.59583844876,
			"0.008": 1.18319727876,
			"0.009": 1.26796565191,
			"0.01": 0.801723342854,
			"0.011": 0.762763821902,
			"0.012": 1.2640836391,
			"0.013": 0.659519703514,
			"0.014": 0.818880223372,
			"0.015": 0.459986615034,
			"0.016": 0.0623402851063,
			"0.017": 0.0,
			"0.018": 0.0,
			"0.019": 0.0,
			"0.02": 0.0,
			"0.021": 0.0,
			"0.022": 0.0,
			"0.023": 0.0,
			"0.024": 0.0,
			"0.025": 0.0
		}
	}
}
