{
	 "smiles": "CCC1=C(C)C(C(N)=O)=C(N)S1", 
	 "Tm": 408.15, 
	 "num_atms": 24, 
	 "gaussian": { 
		 "optdone": 1, 
		 "sigma_profile": "yes", 
		 "theory": "DFT", 
		 "functional": "B3LYP", 
		 "basiset": "6-31G**", 
		 "properties": { 
			 "R2extent": 2943.8783, 
			 "electric_dipole_moment_norm": 3.01115819744, 
			 "electric_quadrupole_moment_norm": 20.8720486663, 
			 "total_energy": -895.018902289, 
			 "HOMO_LUMO_gap": 0.18051, 
			 "cosmo_polarized_energy": -14.15, 
			 "cosmo_cavitation_energy": 28.08, 
			 "cosmo_dispersion_energy": -20.98, 
			 "cosmo_repulsion_energy": 1.65, 
			 "cosmo_total_nonelectrostatic_energy": 8.76, 
			 "SMD_solvation_energy": 5.27 
		},
		"coords": [
			{
				"x": -2.6386640897,
				"y": -0.9271073459,
				"z": -1.8288048667,
				"element": "C" 
			},
			{
				"x": -2.7205233721,
				"y": -0.1366095931,
				"z": -0.5096555852,
				"element": "C" 
			},
			{
				"x": -1.3910634716,
				"y": 0.358580668,
				"z": -0.0071270929,
				"element": "C" 
			},
			{
				"x": -0.7801164681,
				"y": 1.571203763,
				"z": -0.1590953839,
				"element": "C" 
			},
			{
				"x": -1.3970409522,
				"y": 2.7377032011,
				"z": -0.8855748701,
				"element": "C" 
			},
			{
				"x": 0.5477370514,
				"y": 1.6221107716,
				"z": 0.4359877166,
				"element": "C" 
			},
			{
				"x": 1.3890669268,
				"y": 2.8391318828,
				"z": 0.4315413642,
				"element": "C" 
			},
			{
				"x": 2.7552580947,
				"y": 2.6376743414,
				"z": 0.6548085965,
				"element": "N" 
			},
			{
				"x": 0.9486950661,
				"y": 3.974311489,
				"z": 0.286755955,
				"element": "O" 
			},
			{
				"x": 0.9025076725,
				"y": 0.4298147053,
				"z": 1.0466161568,
				"element": "C" 
			},
			{
				"x": 2.0814655483,
				"y": 0.0961559211,
				"z": 1.700180354,
				"element": "N" 
			},
			{
				"x": -0.3588744135,
				"y": -0.7630754086,
				"z": 0.8890855944,
				"element": "S" 
			},
			{
				"x": -2.2198863088,
				"y": -0.3080494761,
				"z": -2.6281048692,
				"element": "H" 
			},
			{
				"x": -1.9988066404,
				"y": -1.8088454626,
				"z": -1.7214925447,
				"element": "H" 
			},
			{
				"x": -3.6320398404,
				"y": -1.2659715885,
				"z": -2.1421780729,
				"element": "H" 
			},
			{
				"x": -3.1943142205,
				"y": -0.7623109272,
				"z": 0.2575246672,
				"element": "H" 
			},
			{
				"x": -3.3855576042,
				"y": 0.7232503086,
				"z": -0.6414851649,
				"element": "H" 
			},
			{
				"x": -1.4954681071,
				"y": 3.6014686307,
				"z": -0.2243495777,
				"element": "H" 
			},
			{
				"x": -0.7621684451,
				"y": 3.0628253241,
				"z": -1.7163419136,
				"element": "H" 
			},
			{
				"x": -2.3783920954,
				"y": 2.4803349751,
				"z": -1.2901914141,
				"element": "H" 
			},
			{
				"x": 3.2928392666,
				"y": 3.4818052311,
				"z": 0.4988853624,
				"element": "H" 
			},
			{
				"x": 3.1684744249,
				"y": 1.8006128803,
				"z": 0.2606711379,
				"element": "H" 
			},
			{
				"x": 2.0004969658,
				"y": -0.6676123257,
				"z": 2.3586728548,
				"element": "H" 
			},
			{
				"x": 2.5608750123,
				"y": 0.8996980344,
				"z": 2.0934715965,
				"element": "H" 
			}
		],
		 "valence_orbital": [ 
			{
				"type": "occ",
				"energy": -0.30163,
				"method": "rhf"
			},
			{
				"type": "occ",
				"energy": -0.27418,
				"method": "rhf"
			},
			{
				"type": "occ",
				"energy": -0.2451,
				"method": "rhf"
			},
			{
				"type": "occ",
				"energy": -0.23942,
				"method": "rhf"
			},
			{
				"type": "occ",
				"energy": -0.19474,
				"method": "rhf"
			},
			{
				"type": "unocc",
				"energy": -0.01423,
				"method": "rhf"
			},
			{
				"type": "unocc",
				"energy": 0.01258,
				"method": "rhf"
			},
			{
				"type": "unocc",
				"energy": 0.02523,
				"method": "rhf"
			},
			{
				"type": "unocc",
				"energy": 0.07703,
				"method": "rhf"
			},
			{
				"type": "unocc",
				"energy": 0.09062,
				"method": "rhf"
			}
		],
		"cosmo_sigma_profile": { 
			"-0.025": 0.0,
			"-0.024": 0.0,
			"-0.023": 0.0,
			"-0.022": 0.0,
			"-0.021": 0.0,
			"-0.02": 0.0,
			"-0.019": 0.0,
			"-0.018": 0.0,
			"-0.017": 0.0,
			"-0.016": 0.0,
			"-0.015": 0.0,
			"-0.014": 0.914990448082,
			"-0.013": 1.89493326039,
			"-0.012": 4.1108952581,
			"-0.011": 4.10442345437,
			"-0.01": 4.80020121422,
			"-0.009": 3.88859291733,
			"-0.008": 3.99957564057,
			"-0.007": 3.12842908476,
			"-0.006": 4.44220300481,
			"-0.005": 5.10255013619,
			"-0.004": 9.40609895983,
			"-0.003": 15.1025708005,
			"-0.002": 19.495017213,
			"-0.001": 21.6251719196,
			"0.0": 22.6335129757,
			"0.001": 21.6480380607,
			"0.002": 12.6424054838,
			"0.003": 10.3743352288,
			"0.004": 13.5149708803,
			"0.005": 12.6996041863,
			"0.006": 6.15952128934,
			"0.007": 3.08267608254,
			"0.008": 2.05388807096,
			"0.009": 2.78052579716,
			"0.01": 1.36066775991,
			"0.011": 1.8802623845,
			"0.012": 2.24711953632,
			"0.013": 2.96196047301,
			"0.014": 3.90996725518,
			"0.015": 0.700103166748,
			"0.016": 0.0,
			"0.017": 0.0,
			"0.018": 0.0,
			"0.019": 0.0,
			"0.02": 0.0,
			"0.021": 0.0,
			"0.022": 0.0,
			"0.023": 0.0,
			"0.024": 0.0,
			"0.025": 0.0
		}
	}
}
