{
	 "smiles": "NC1=NC2=C(O1)C=CC(CC1=CC=CC=C1)=C2", 
	 "Tm": 425.15, 
	 "num_atms": 29, 
	 "gaussian": { 
		 "optdone": 1, 
		 "sigma_profile": "yes", 
		 "theory": "DFT", 
		 "functional": "B3LYP", 
		 "basiset": "6-31G**", 
		 "properties": { 
			 "R2extent": 5597.9884, 
			 "electric_dipole_moment_norm": 2.26141617576, 
			 "electric_quadrupole_moment_norm": 21.2713150226, 
			 "total_energy": -725.461627073, 
			 "HOMO_LUMO_gap": 0.20003, 
			 "cosmo_polarized_energy": -13.27, 
			 "cosmo_cavitation_energy": 33.77, 
			 "cosmo_dispersion_energy": -24.36, 
			 "cosmo_repulsion_energy": 1.89, 
			 "cosmo_total_nonelectrostatic_energy": 11.3, 
			 "SMD_solvation_energy": 3.69 
		},
		"coords": [
			{
				"x": -0.1644737901,
				"y": 2.1498961386,
				"z": -5.0829108759,
				"element": "N" 
			},
			{
				"x": -0.0408078883,
				"y": 1.8862471943,
				"z": -3.7502169065,
				"element": "C" 
			},
			{
				"x": -0.8378119006,
				"y": 2.2478441371,
				"z": -2.7907977025,
				"element": "N" 
			},
			{
				"x": -0.1950496477,
				"y": 1.7770751503,
				"z": -1.6413701395,
				"element": "C" 
			},
			{
				"x": 0.9908912171,
				"y": 1.1291522759,
				"z": -2.0076003798,
				"element": "C" 
			},
			{
				"x": 1.0917946235,
				"y": 1.2023343614,
				"z": -3.3878839359,
				"element": "O" 
			},
			{
				"x": 1.8584966453,
				"y": 0.5395084928,
				"z": -1.10660175,
				"element": "C" 
			},
			{
				"x": 1.4890710408,
				"y": 0.6225246907,
				"z": 0.2396521721,
				"element": "C" 
			},
			{
				"x": 0.3063801524,
				"y": 1.2683323534,
				"z": 0.6542871404,
				"element": "C" 
			},
			{
				"x": -0.0305649427,
				"y": 1.3426324189,
				"z": 2.1363331262,
				"element": "C" 
			},
			{
				"x": -0.169699067,
				"y": -0.0069245639,
				"z": 2.8233208127,
				"element": "C" 
			},
			{
				"x": -1.0714229406,
				"y": -0.9668493426,
				"z": 2.3400110174,
				"element": "C" 
			},
			{
				"x": -1.2186659632,
				"y": -2.195210106,
				"z": 2.9818008376,
				"element": "C" 
			},
			{
				"x": -0.4624712038,
				"y": -2.4898919317,
				"z": 4.1199155239,
				"element": "C" 
			},
			{
				"x": 0.4398476159,
				"y": -1.5455622347,
				"z": 4.60813667,
				"element": "C" 
			},
			{
				"x": 0.5829228528,
				"y": -0.3144214068,
				"z": 3.9625596683,
				"element": "C" 
			},
			{
				"x": -0.5469596207,
				"y": 1.850592364,
				"z": -0.2923921419,
				"element": "C" 
			},
			{
				"x": 0.3083210665,
				"y": 1.5151554332,
				"z": -5.7094056461,
				"element": "H" 
			},
			{
				"x": -1.0905041646,
				"y": 2.4344622917,
				"z": -5.3657399114,
				"element": "H" 
			},
			{
				"x": 2.7696695905,
				"y": 0.0434329275,
				"z": -1.4225755144,
				"element": "H" 
			},
			{
				"x": 2.1295962654,
				"y": 0.1689910032,
				"z": 0.990421709,
				"element": "H" 
			},
			{
				"x": 0.7405309583,
				"y": 1.9235368784,
				"z": 2.6574949254,
				"element": "H" 
			},
			{
				"x": -0.9641406984,
				"y": 1.9064973788,
				"z": 2.2547848854,
				"element": "H" 
			},
			{
				"x": -1.6550862031,
				"y": -0.7479503368,
				"z": 1.4495641073,
				"element": "H" 
			},
			{
				"x": -1.9235323419,
				"y": -2.9253545809,
				"z": 2.5934117498,
				"element": "H" 
			},
			{
				"x": -0.5762028555,
				"y": -3.4480209965,
				"z": 4.6190261472,
				"element": "H" 
			},
			{
				"x": 1.0348028946,
				"y": -1.7641939733,
				"z": 5.4907117832,
				"element": "H" 
			},
			{
				"x": 1.2865276963,
				"y": 0.4184604932,
				"z": 4.3507634076,
				"element": "H" 
			},
			{
				"x": -1.4606593912,
				"y": 2.3530034898,
				"z": 0.0100992203,
				"element": "H" 
			}
		],
		 "valence_orbital": [ 
			{
				"type": "occ",
				"energy": -0.28228,
				"method": "rhf"
			},
			{
				"type": "occ",
				"energy": -0.24401,
				"method": "rhf"
			},
			{
				"type": "occ",
				"energy": -0.24003,
				"method": "rhf"
			},
			{
				"type": "occ",
				"energy": -0.2312,
				"method": "rhf"
			},
			{
				"type": "occ",
				"energy": -0.20648,
				"method": "rhf"
			},
			{
				"type": "unocc",
				"energy": -0.00645,
				"method": "rhf"
			},
			{
				"type": "unocc",
				"energy": 0.00232,
				"method": "rhf"
			},
			{
				"type": "unocc",
				"energy": 0.00629,
				"method": "rhf"
			},
			{
				"type": "unocc",
				"energy": 0.01782,
				"method": "rhf"
			},
			{
				"type": "unocc",
				"energy": 0.05556,
				"method": "rhf"
			}
		],
		"cosmo_sigma_profile": { 
			"-0.025": 0.0,
			"-0.024": 0.0,
			"-0.023": 0.0,
			"-0.022": 0.0,
			"-0.021": 0.0,
			"-0.02": 0.0,
			"-0.019": 0.0,
			"-0.018": 0.0,
			"-0.017": 0.0,
			"-0.016": 0.0,
			"-0.015": 1.48920721241,
			"-0.014": 2.86190044156,
			"-0.013": 1.99473821632,
			"-0.012": 2.16137934149,
			"-0.011": 2.52971351769,
			"-0.01": 2.3312869398,
			"-0.009": 1.342315776,
			"-0.008": 1.77801414824,
			"-0.007": 3.2573157641,
			"-0.006": 5.60458886873,
			"-0.005": 18.9999670886,
			"-0.004": 20.6249631411,
			"-0.003": 23.458068628,
			"-0.002": 20.0730108041,
			"-0.001": 19.2313083804,
			"0.0": 17.762160111,
			"0.001": 15.8085055283,
			"0.002": 18.6992142705,
			"0.003": 17.20016616,
			"0.004": 20.7831748824,
			"0.005": 19.6556924545,
			"0.006": 13.9914479426,
			"0.007": 6.49947661411,
			"0.008": 1.59289839017,
			"0.009": 2.26058703802,
			"0.01": 1.55031681254,
			"0.011": 1.26283005174,
			"0.012": 1.25274810447,
			"0.013": 0.599679916263,
			"0.014": 0.752922875891,
			"0.015": 1.35224383149,
			"0.016": 1.03921096528,
			"0.017": 0.156864580122,
			"0.018": 0.0,
			"0.019": 0.0,
			"0.02": 0.0,
			"0.021": 0.0,
			"0.022": 0.0,
			"0.023": 0.0,
			"0.024": 0.0,
			"0.025": 0.0
		}
	}
}
