{
	 "smiles": "N#CC=P(C1=CC=CC=C1)(C1=CC=CC=C1)C1=CC=CC=C1", 
	 "Tm": 467.15, 
	 "num_atms": 38, 
	 "gaussian": { 
		 "optdone": 1, 
		 "sigma_profile": "yes", 
		 "theory": "DFT", 
		 "functional": "B3LYP", 
		 "basiset": "6-31G**", 
		 "properties": { 
			 "R2extent": 6742.8652, 
			 "electric_dipole_moment_norm": 8.24778397874, 
			 "electric_quadrupole_moment_norm": 27.09514062, 
			 "total_energy": -1167.82021161, 
			 "HOMO_LUMO_gap": 0.13617, 
			 "cosmo_polarized_energy": -19.8, 
			 "cosmo_cavitation_energy": 43.58, 
			 "cosmo_dispersion_energy": -28.57, 
			 "cosmo_repulsion_energy": 2.17, 
			 "cosmo_total_nonelectrostatic_energy": 17.19, 
			 "SMD_solvation_energy": 9.22 
		},
		"coords": [
			{
				"x": 3.3125339391,
				"y": -0.9854110873,
				"z": -3.0016826679,
				"element": "N" 
			},
			{
				"x": 2.7963916697,
				"y": -1.0220428966,
				"z": -1.9485603444,
				"element": "C" 
			},
			{
				"x": 2.1559321983,
				"y": -1.0375423638,
				"z": -0.7016094756,
				"element": "C" 
			},
			{
				"x": 0.8581625281,
				"y": 0.0125829706,
				"z": -0.3396035537,
				"element": "P" 
			},
			{
				"x": 1.2255543894,
				"y": 1.8143764774,
				"z": -0.4244152301,
				"element": "C" 
			},
			{
				"x": 0.659189155,
				"y": 2.727534505,
				"z": 0.4781158204,
				"element": "C" 
			},
			{
				"x": 0.9641311281,
				"y": 4.0871033852,
				"z": 0.3863577328,
				"element": "C" 
			},
			{
				"x": 1.835306416,
				"y": 4.5427388345,
				"z": -0.6041090844,
				"element": "C" 
			},
			{
				"x": 2.4064406641,
				"y": 3.6367152609,
				"z": -1.5011124793,
				"element": "C" 
			},
			{
				"x": 2.1087923687,
				"y": 2.2769843032,
				"z": -1.4144650265,
				"element": "C" 
			},
			{
				"x": -0.6034067247,
				"y": -0.2030666613,
				"z": -1.4330286377,
				"element": "C" 
			},
			{
				"x": -1.5662546866,
				"y": 0.8032211311,
				"z": -1.6110993609,
				"element": "C" 
			},
			{
				"x": -2.6726241227,
				"y": 0.5751951349,
				"z": -2.4289612659,
				"element": "C" 
			},
			{
				"x": -2.8186233106,
				"y": -0.6504034495,
				"z": -3.0839343819,
				"element": "C" 
			},
			{
				"x": -1.857287814,
				"y": -1.6492126954,
				"z": -2.9207299514,
				"element": "C" 
			},
			{
				"x": -0.7524337495,
				"y": -1.4287026362,
				"z": -2.0975144928,
				"element": "C" 
			},
			{
				"x": 0.3474912115,
				"y": -0.3384820132,
				"z": 1.3756876974,
				"element": "C" 
			},
			{
				"x": 1.3149622902,
				"y": -0.2762802732,
				"z": 2.3930366883,
				"element": "C" 
			},
			{
				"x": 0.9626263616,
				"y": -0.560158261,
				"z": 3.7114952246,
				"element": "C" 
			},
			{
				"x": -0.3552036675,
				"y": -0.9001775801,
				"z": 4.0276663518,
				"element": "C" 
			},
			{
				"x": -1.3204255071,
				"y": -0.9578315682,
				"z": 3.0219483968,
				"element": "C" 
			},
			{
				"x": -0.9729692914,
				"y": -0.6786795733,
				"z": 1.6985874182,
				"element": "C" 
			},
			{
				"x": 2.5081744819,
				"y": -1.6854721239,
				"z": 0.0904286667,
				"element": "H" 
			},
			{
				"x": -0.0099151591,
				"y": 2.3798708018,
				"z": 1.2595968751,
				"element": "H" 
			},
			{
				"x": 0.5249925765,
				"y": 4.7867324285,
				"z": 1.091825675,
				"element": "H" 
			},
			{
				"x": 2.0738234083,
				"y": 5.6001922527,
				"z": -0.6734097364,
				"element": "H" 
			},
			{
				"x": 3.0907154965,
				"y": 3.9867008957,
				"z": -2.2682841097,
				"element": "H" 
			},
			{
				"x": 2.5707681497,
				"y": 1.5788104102,
				"z": -2.1060668497,
				"element": "H" 
			},
			{
				"x": -1.4475010825,
				"y": 1.7655604429,
				"z": -1.1231963718,
				"element": "H" 
			},
			{
				"x": -3.4143180411,
				"y": 1.357151442,
				"z": -2.5635568209,
				"element": "H" 
			},
			{
				"x": -3.6766185779,
				"y": -0.8219513524,
				"z": -3.7277110078,
				"element": "H" 
			},
			{
				"x": -1.9616462998,
				"y": -2.5973547305,
				"z": -3.439740406,
				"element": "H" 
			},
			{
				"x": 0.0097723075,
				"y": -2.1919365588,
				"z": -1.9743689011,
				"element": "H" 
			},
			{
				"x": 2.3395268561,
				"y": -0.0113990483,
				"z": 2.1508178417,
				"element": "H" 
			},
			{
				"x": 1.7165315093,
				"y": -0.5140537124,
				"z": 4.4917213636,
				"element": "H" 
			},
			{
				"x": -0.6277026347,
				"y": -1.1194148365,
				"z": 5.0559481746,
				"element": "H" 
			},
			{
				"x": -2.345143575,
				"y": -1.224096797,
				"z": 3.2635202709,
				"element": "H" 
			},
			{
				"x": -1.7264448611,
				"y": -0.7324004578,
				"z": 0.920005958,
				"element": "H" 
			}
		],
		 "valence_orbital": [ 
			{
				"type": "occ",
				"energy": -0.27056,
				"method": "rhf"
			},
			{
				"type": "occ",
				"energy": -0.26471,
				"method": "rhf"
			},
			{
				"type": "occ",
				"energy": -0.26273,
				"method": "rhf"
			},
			{
				"type": "occ",
				"energy": -0.26007,
				"method": "rhf"
			},
			{
				"type": "occ",
				"energy": -0.17742,
				"method": "rhf"
			},
			{
				"type": "unocc",
				"energy": -0.04125,
				"method": "rhf"
			},
			{
				"type": "unocc",
				"energy": -0.03897,
				"method": "rhf"
			},
			{
				"type": "unocc",
				"energy": -0.02912,
				"method": "rhf"
			},
			{
				"type": "unocc",
				"energy": -0.02619,
				"method": "rhf"
			},
			{
				"type": "unocc",
				"energy": -0.01287,
				"method": "rhf"
			}
		],
		"cosmo_sigma_profile": { 
			"-0.025": 0.0,
			"-0.024": 0.0,
			"-0.023": 0.0,
			"-0.022": 0.0,
			"-0.021": 0.0,
			"-0.02": 0.0,
			"-0.019": 0.0,
			"-0.018": 0.0,
			"-0.017": 0.0,
			"-0.016": 0.0,
			"-0.015": 0.0,
			"-0.014": 0.0,
			"-0.013": 0.0,
			"-0.012": 0.0,
			"-0.011": 0.0,
			"-0.01": 0.0,
			"-0.009": 0.0189809217279,
			"-0.008": 0.253229460544,
			"-0.007": 7.24046251023,
			"-0.006": 27.7385240516,
			"-0.005": 33.7647545984,
			"-0.004": 33.1506915871,
			"-0.003": 23.1553310884,
			"-0.002": 27.0892317485,
			"-0.001": 22.4048154186,
			"0.0": 23.7354383872,
			"0.001": 27.2971822408,
			"0.002": 26.399398969,
			"0.003": 32.3651094019,
			"0.004": 30.1430856579,
			"0.005": 4.97389587497,
			"0.006": 3.05970629574,
			"0.007": 2.52291540106,
			"0.008": 2.21726505734,
			"0.009": 2.19080112688,
			"0.01": 2.41636670012,
			"0.011": 2.1746437504,
			"0.012": 2.33024861407,
			"0.013": 3.58968074625,
			"0.014": 3.33881880695,
			"0.015": 3.07132932898,
			"0.016": 2.86633646513,
			"0.017": 0.685466060144,
			"0.018": 0.0,
			"0.019": 0.0,
			"0.02": 0.0,
			"0.021": 0.0,
			"0.022": 0.0,
			"0.023": 0.0,
			"0.024": 0.0,
			"0.025": 0.0
		}
	}
}
