{
	 "smiles": "OC(=O)CCC1=CC(=CC=C1)[N+]([O-])=O", 
	 "Tm": 385.15, 
	 "num_atms": 23, 
	 "gaussian": { 
		 "optdone": 1, 
		 "sigma_profile": "yes", 
		 "theory": "DFT", 
		 "functional": "B3LYP", 
		 "basiset": "6-31G**", 
		 "properties": { 
			 "R2extent": 4555.0002, 
			 "electric_dipole_moment_norm": 4.20070967933, 
			 "electric_quadrupole_moment_norm": 28.4808276786, 
			 "total_energy": -703.942516714, 
			 "HOMO_LUMO_gap": 0.17965, 
			 "cosmo_polarized_energy": -20.18, 
			 "cosmo_cavitation_energy": 28.86, 
			 "cosmo_dispersion_energy": -20.51, 
			 "cosmo_repulsion_energy": 1.63, 
			 "cosmo_total_nonelectrostatic_energy": 9.98, 
			 "SMD_solvation_energy": 8.2 
		},
		"coords": [
			{
				"x": -1.6265986359,
				"y": 1.2266865021,
				"z": 5.2458570254,
				"element": "O" 
			},
			{
				"x": -0.4464101478,
				"y": 0.9179920165,
				"z": 4.6448981523,
				"element": "C" 
			},
			{
				"x": 0.5737083538,
				"y": 0.9011417554,
				"z": 5.2858595976,
				"element": "O" 
			},
			{
				"x": -0.5315557853,
				"y": 0.6203847513,
				"z": 3.1518840461,
				"element": "C" 
			},
			{
				"x": 0.8261801441,
				"y": 0.2079575081,
				"z": 2.5605584881,
				"element": "C" 
			},
			{
				"x": 0.7541508364,
				"y": -0.0386906133,
				"z": 1.0693771249,
				"element": "C" 
			},
			{
				"x": 0.3510381483,
				"y": -1.2825798666,
				"z": 0.5721975273,
				"element": "C" 
			},
			{
				"x": 0.2638911004,
				"y": -1.4759161043,
				"z": -0.8040633901,
				"element": "C" 
			},
			{
				"x": 0.5683445676,
				"y": -0.4720945537,
				"z": -1.7208008846,
				"element": "C" 
			},
			{
				"x": 0.9725036598,
				"y": 0.7652399402,
				"z": -1.2250233186,
				"element": "C" 
			},
			{
				"x": 1.0630841062,
				"y": 0.9774179454,
				"z": 0.1525419683,
				"element": "C" 
			},
			{
				"x": -0.1634378999,
				"y": -2.7933596872,
				"z": -1.3080497537,
				"element": "N" 
			},
			{
				"x": -0.2254270936,
				"y": -2.9445590668,
				"z": -2.5273295629,
				"element": "O" 
			},
			{
				"x": -0.435272382,
				"y": -3.6614410737,
				"z": -0.4792251235,
				"element": "O" 
			},
			{
				"x": -2.3520809051,
				"y": 1.1916105397,
				"z": 4.6061063165,
				"element": "H" 
			},
			{
				"x": -0.9166253003,
				"y": 1.5140731966,
				"z": 2.6415045405,
				"element": "H" 
			},
			{
				"x": -1.2786720573,
				"y": -0.1677961642,
				"z": 2.9868445464,
				"element": "H" 
			},
			{
				"x": 1.1756767706,
				"y": -0.6906340136,
				"z": 3.0780623323,
				"element": "H" 
			},
			{
				"x": 1.5563703899,
				"y": 0.991311019,
				"z": 2.7825623364,
				"element": "H" 
			},
			{
				"x": 0.1105334587,
				"y": -2.106358869,
				"z": 1.2343657865,
				"element": "H" 
			},
			{
				"x": 0.4897833736,
				"y": -0.6729890426,
				"z": -2.7815564777,
				"element": "H" 
			},
			{
				"x": 1.2224401971,
				"y": 1.5655090972,
				"z": -1.9144872126,
				"element": "H" 
			},
			{
				"x": 1.3871751008,
				"y": 1.9461947836,
				"z": 0.5243159351,
				"element": "H" 
			}
		],
		 "valence_orbital": [ 
			{
				"type": "occ",
				"energy": -0.31051,
				"method": "rhf"
			},
			{
				"type": "occ",
				"energy": -0.29464,
				"method": "rhf"
			},
			{
				"type": "occ",
				"energy": -0.28741,
				"method": "rhf"
			},
			{
				"type": "occ",
				"energy": -0.28577,
				"method": "rhf"
			},
			{
				"type": "occ",
				"energy": -0.2727,
				"method": "rhf"
			},
			{
				"type": "unocc",
				"energy": -0.09305,
				"method": "rhf"
			},
			{
				"type": "unocc",
				"energy": -0.03339,
				"method": "rhf"
			},
			{
				"type": "unocc",
				"energy": -0.00588,
				"method": "rhf"
			},
			{
				"type": "unocc",
				"energy": 0.00147,
				"method": "rhf"
			},
			{
				"type": "unocc",
				"energy": 0.04509,
				"method": "rhf"
			}
		],
		"cosmo_sigma_profile": { 
			"-0.025": 0.0,
			"-0.024": 0.0,
			"-0.023": 0.0,
			"-0.022": 0.0,
			"-0.021": 0.0,
			"-0.02": 0.0167934043285,
			"-0.019": 0.790220550172,
			"-0.018": 1.09044386901,
			"-0.017": 1.31946952178,
			"-0.016": 1.07143754982,
			"-0.015": 0.916152703917,
			"-0.014": 0.595332565473,
			"-0.013": 1.04191463414,
			"-0.012": 1.71800830451,
			"-0.011": 1.20475972074,
			"-0.01": 1.26689525681,
			"-0.009": 1.20788947907,
			"-0.008": 3.28617945892,
			"-0.007": 10.6231079006,
			"-0.006": 17.3848138225,
			"-0.005": 19.5932255549,
			"-0.004": 12.561892928,
			"-0.003": 11.8293129159,
			"-0.002": 13.2081539059,
			"-0.001": 14.4042425545,
			"0.0": 13.9652068324,
			"0.001": 13.5938381352,
			"0.002": 14.0981801496,
			"0.003": 7.71046598978,
			"0.004": 5.1062803612,
			"0.005": 5.06259307241,
			"0.006": 6.53023461671,
			"0.007": 9.60842248186,
			"0.008": 10.6221728233,
			"0.009": 7.69859028885,
			"0.01": 7.61507422754,
			"0.011": 5.98580514366,
			"0.012": 4.99560869243,
			"0.013": 1.69041526116,
			"0.014": 0.0324060957843,
			"0.015": 0.0,
			"0.016": 0.0,
			"0.017": 0.0,
			"0.018": 0.0,
			"0.019": 0.0,
			"0.02": 0.0,
			"0.021": 0.0,
			"0.022": 0.0,
			"0.023": 0.0,
			"0.024": 0.0,
			"0.025": 0.0
		}
	}
}
