{
	 "smiles": "NS(=O)(=O)CC1CCC1", 
	 "Tm": 371.15, 
	 "num_atms": 20, 
	 "gaussian": { 
		 "optdone": 1, 
		 "sigma_profile": "yes", 
		 "theory": "DFT", 
		 "functional": "B3LYP", 
		 "basiset": "6-31G**", 
		 "properties": { 
			 "R2extent": 1762.6968, 
			 "electric_dipole_moment_norm": 3.05487967684, 
			 "electric_quadrupole_moment_norm": 9.02408226137, 
			 "total_energy": -800.464047404, 
			 "HOMO_LUMO_gap": 0.34429, 
			 "cosmo_polarized_energy": -14.21, 
			 "cosmo_cavitation_energy": 23.68, 
			 "cosmo_dispersion_energy": -17.98, 
			 "cosmo_repulsion_energy": 1.45, 
			 "cosmo_total_nonelectrostatic_energy": 7.16, 
			 "SMD_solvation_energy": 3.12 
		},
		"coords": [
			{
				"x": 1.8501579374,
				"y": -1.3051008478,
				"z": 1.7569629959,
				"element": "N" 
			},
			{
				"x": 1.1024862032,
				"y": -0.2086238652,
				"z": 0.6939451444,
				"element": "S" 
			},
			{
				"x": 2.1562199876,
				"y": 0.6002364549,
				"z": 0.0691497524,
				"element": "O" 
			},
			{
				"x": -0.0103791103,
				"y": 0.4121142669,
				"z": 1.4223259121,
				"element": "O" 
			},
			{
				"x": 0.4252476545,
				"y": -1.3183531692,
				"z": -0.5664434111,
				"element": "C" 
			},
			{
				"x": -0.2250299001,
				"y": -0.5460483459,
				"z": -1.7062087089,
				"element": "C" 
			},
			{
				"x": -0.9350224635,
				"y": -1.3736979034,
				"z": -2.8162646555,
				"element": "C" 
			},
			{
				"x": -2.0308497191,
				"y": -0.2750105108,
				"z": -2.8697493046,
				"element": "C" 
			},
			{
				"x": -1.566108212,
				"y": 0.2034341687,
				"z": -1.4685793852,
				"element": "C" 
			},
			{
				"x": 2.8501509767,
				"y": -1.1202761026,
				"z": 1.774451979,
				"element": "H" 
			},
			{
				"x": 1.4447028836,
				"y": -1.1892005227,
				"z": 2.6824416919,
				"element": "H" 
			},
			{
				"x": 1.2673309172,
				"y": -1.9247447211,
				"z": -0.9139382968,
				"element": "H" 
			},
			{
				"x": -0.2866053324,
				"y": -1.9679382905,
				"z": -0.0482749403,
				"element": "H" 
			},
			{
				"x": 0.5150912796,
				"y": 0.1274512515,
				"z": -2.1507379301,
				"element": "H" 
			},
			{
				"x": -0.3683336024,
				"y": -1.5888589196,
				"z": -3.7268274776,
				"element": "H" 
			},
			{
				"x": -1.3305186939,
				"y": -2.3158906237,
				"z": -2.4203006709,
				"element": "H" 
			},
			{
				"x": -3.0683550761,
				"y": -0.602628761,
				"z": -2.9768792331,
				"element": "H" 
			},
			{
				"x": -1.8194433045,
				"y": 0.4683065727,
				"z": -3.6446066625,
				"element": "H" 
			},
			{
				"x": -2.145040214,
				"y": -0.2622421264,
				"z": -0.6647455473,
				"element": "H" 
			},
			{
				"x": -1.5150022115,
				"y": 1.2771719952,
				"z": -1.2754212516,
				"element": "H" 
			}
		],
		 "valence_orbital": [ 
			{
				"type": "occ",
				"energy": -0.31289,
				"method": "rhf"
			},
			{
				"type": "occ",
				"energy": -0.31058,
				"method": "rhf"
			},
			{
				"type": "occ",
				"energy": -0.29834,
				"method": "rhf"
			},
			{
				"type": "occ",
				"energy": -0.296,
				"method": "rhf"
			},
			{
				"type": "occ",
				"energy": -0.2882,
				"method": "rhf"
			},
			{
				"type": "unocc",
				"energy": 0.05609,
				"method": "rhf"
			},
			{
				"type": "unocc",
				"energy": 0.06536,
				"method": "rhf"
			},
			{
				"type": "unocc",
				"energy": 0.08684,
				"method": "rhf"
			},
			{
				"type": "unocc",
				"energy": 0.09254,
				"method": "rhf"
			},
			{
				"type": "unocc",
				"energy": 0.09605,
				"method": "rhf"
			}
		],
		"cosmo_sigma_profile": { 
			"-0.025": 0.0,
			"-0.024": 0.0,
			"-0.023": 0.0,
			"-0.022": 0.0,
			"-0.021": 0.0,
			"-0.02": 0.0,
			"-0.019": 0.0,
			"-0.018": 0.0,
			"-0.017": 0.0,
			"-0.016": 0.0,
			"-0.015": 0.682906617158,
			"-0.014": 2.1224522634,
			"-0.013": 2.62916580803,
			"-0.012": 2.32809383162,
			"-0.011": 2.38770040109,
			"-0.01": 1.55028849674,
			"-0.009": 1.35972938572,
			"-0.008": 3.5115954489,
			"-0.007": 5.66313853602,
			"-0.006": 5.93245880774,
			"-0.005": 6.05681321609,
			"-0.004": 10.0757458248,
			"-0.003": 18.2546517267,
			"-0.002": 18.9560853383,
			"-0.001": 19.9812104025,
			"0.0": 14.1402482883,
			"0.001": 12.6620342716,
			"0.002": 8.42639406833,
			"0.003": 3.34443645423,
			"0.004": 3.04577576706,
			"0.005": 3.28269375665,
			"0.006": 3.13977345779,
			"0.007": 3.2746366912,
			"0.008": 3.21979632729,
			"0.009": 2.96877589578,
			"0.01": 6.20696005483,
			"0.011": 11.1861233624,
			"0.012": 7.27804639014,
			"0.013": 0.672598471671,
			"0.014": 0.0,
			"0.015": 0.0,
			"0.016": 0.0,
			"0.017": 0.0,
			"0.018": 0.0,
			"0.019": 0.0,
			"0.02": 0.0,
			"0.021": 0.0,
			"0.022": 0.0,
			"0.023": 0.0,
			"0.024": 0.0,
			"0.025": 0.0
		}
	}
}
