{
	 "smiles": "NC1=C(C=C(C=O)C=C1)[N+]([O-])=O", 
	 "Tm": 447.15, 
	 "num_atms": 18, 
	 "gaussian": { 
		 "optdone": 1, 
		 "sigma_profile": "yes", 
		 "theory": "DFT", 
		 "functional": "B3LYP", 
		 "basiset": "6-31G**", 
		 "properties": { 
			 "R2extent": 2505.3084, 
			 "electric_dipole_moment_norm": 4.27156304647, 
			 "electric_quadrupole_moment_norm": 17.3801333971, 
			 "total_energy": -605.437678361, 
			 "HOMO_LUMO_gap": 0.14645, 
			 "cosmo_polarized_energy": -15.14, 
			 "cosmo_cavitation_energy": 23.33, 
			 "cosmo_dispersion_energy": -17.38, 
			 "cosmo_repulsion_energy": 1.37, 
			 "cosmo_total_nonelectrostatic_energy": 7.32, 
			 "SMD_solvation_energy": 7.1 
		},
		"coords": [
			{
				"x": -0.0760251748,
				"y": -0.7821398425,
				"z": -1.6095084028,
				"element": "N" 
			},
			{
				"x": 0.0129371752,
				"y": -0.118398381,
				"z": -0.4381147883,
				"element": "C" 
			},
			{
				"x": -0.4473825954,
				"y": -0.6418950947,
				"z": 0.8079655374,
				"element": "C" 
			},
			{
				"x": -0.3259182457,
				"y": 0.097867141,
				"z": 1.9887135313,
				"element": "C" 
			},
			{
				"x": 0.2453525361,
				"y": 1.3622866423,
				"z": 1.9843601885,
				"element": "C" 
			},
			{
				"x": 0.3685887554,
				"y": 2.1333763792,
				"z": 3.2333014515,
				"element": "C" 
			},
			{
				"x": 0.8574867366,
				"y": 3.2464424095,
				"z": 3.3078082973,
				"element": "O" 
			},
			{
				"x": 0.7072913275,
				"y": 1.8968333537,
				"z": 0.7582366634,
				"element": "C" 
			},
			{
				"x": 0.5948911463,
				"y": 1.1822142151,
				"z": -0.4089841139,
				"element": "C" 
			},
			{
				"x": -1.0577817497,
				"y": -1.9544128053,
				"z": 0.9101243982,
				"element": "N" 
			},
			{
				"x": -1.1817461394,
				"y": -2.6403106512,
				"z": -0.1222059071,
				"element": "O" 
			},
			{
				"x": -1.4313253651,
				"y": -2.3423655946,
				"z": 2.0160586123,
				"element": "O" 
			},
			{
				"x": -0.4913313419,
				"y": -1.7037288295,
				"z": -1.611215877,
				"element": "H" 
			},
			{
				"x": 0.268657061,
				"y": -0.3571161031,
				"z": -2.4543186046,
				"element": "H" 
			},
			{
				"x": -0.6924834828,
				"y": -0.3486897638,
				"z": 2.9064002135,
				"element": "H" 
			},
			{
				"x": -0.0267010834,
				"y": 1.6179718387,
				"z": 4.1363735273,
				"element": "H" 
			},
			{
				"x": 1.1526288666,
				"y": 2.8868185594,
				"z": 0.7662917675,
				"element": "H" 
			},
			{
				"x": 0.9522615737,
				"y": 1.6001465267,
				"z": -1.3461864945,
				"element": "H" 
			}
		],
		 "valence_orbital": [ 
			{
				"type": "occ",
				"energy": -0.31505,
				"method": "rhf"
			},
			{
				"type": "occ",
				"energy": -0.29837,
				"method": "rhf"
			},
			{
				"type": "occ",
				"energy": -0.29165,
				"method": "rhf"
			},
			{
				"type": "occ",
				"energy": -0.25891,
				"method": "rhf"
			},
			{
				"type": "occ",
				"energy": -0.24051,
				"method": "rhf"
			},
			{
				"type": "unocc",
				"energy": -0.09406,
				"method": "rhf"
			},
			{
				"type": "unocc",
				"energy": -0.06299,
				"method": "rhf"
			},
			{
				"type": "unocc",
				"energy": -0.01355,
				"method": "rhf"
			},
			{
				"type": "unocc",
				"energy": 0.04191,
				"method": "rhf"
			},
			{
				"type": "unocc",
				"energy": 0.06347,
				"method": "rhf"
			}
		],
		"cosmo_sigma_profile": { 
			"-0.025": 0.0,
			"-0.024": 0.0,
			"-0.023": 0.0,
			"-0.022": 0.0,
			"-0.021": 0.0,
			"-0.02": 0.0,
			"-0.019": 0.0,
			"-0.018": 0.0,
			"-0.017": 0.0,
			"-0.016": 0.17986634859,
			"-0.015": 1.69094508877,
			"-0.014": 1.5085826956,
			"-0.013": 1.78866983432,
			"-0.012": 1.37836683508,
			"-0.011": 2.13282718425,
			"-0.01": 2.36174572044,
			"-0.009": 3.83840653914,
			"-0.008": 4.34474759735,
			"-0.007": 6.28569892182,
			"-0.006": 9.09459874073,
			"-0.005": 9.3041057176,
			"-0.004": 9.67651950757,
			"-0.003": 10.2414284496,
			"-0.002": 11.6555333809,
			"-0.001": 14.9272877691,
			"0.0": 16.9906219877,
			"0.001": 14.3451025439,
			"0.002": 11.2745464444,
			"0.003": 5.64411135856,
			"0.004": 3.72008143514,
			"0.005": 4.37367666811,
			"0.006": 4.8817250755,
			"0.007": 5.21849227265,
			"0.008": 7.95220204712,
			"0.009": 6.14102198168,
			"0.01": 6.24442345679,
			"0.011": 5.01949801081,
			"0.012": 3.67144242871,
			"0.013": 1.36458245502,
			"0.014": 0.0697806329685,
			"0.015": 0.0,
			"0.016": 0.0,
			"0.017": 0.0,
			"0.018": 0.0,
			"0.019": 0.0,
			"0.02": 0.0,
			"0.021": 0.0,
			"0.022": 0.0,
			"0.023": 0.0,
			"0.024": 0.0,
			"0.025": 0.0
		}
	}
}
