{
	 "smiles": "COC1=CC=C(CC(O)=O)C=C1", 
	 "Tm": 360.15, 
	 "num_atms": 22, 
	 "gaussian": { 
		 "optdone": 1, 
		 "sigma_profile": "yes", 
		 "theory": "DFT", 
		 "functional": "B3LYP", 
		 "basiset": "6-31G**", 
		 "properties": { 
			 "R2extent": 3085.7842, 
			 "electric_dipole_moment_norm": 0.992519223995, 
			 "electric_quadrupole_moment_norm": 10.9706213489, 
			 "total_energy": -574.660772508, 
			 "HOMO_LUMO_gap": 0.21224, 
			 "cosmo_polarized_energy": -11.4, 
			 "cosmo_cavitation_energy": 26.47, 
			 "cosmo_dispersion_energy": -19.17, 
			 "cosmo_repulsion_energy": 1.54, 
			 "cosmo_total_nonelectrostatic_energy": 8.85, 
			 "SMD_solvation_energy": 6.42 
		},
		"coords": [
			{
				"x": -0.2663379009,
				"y": 2.4920647963,
				"z": 3.526374906,
				"element": "C" 
			},
			{
				"x": 0.5025237782,
				"y": 1.3680617975,
				"z": 3.1298249175,
				"element": "O" 
			},
			{
				"x": 0.4728187858,
				"y": 0.9961675695,
				"z": 1.816496866,
				"element": "C" 
			},
			{
				"x": 1.2539291433,
				"y": -0.1183820326,
				"z": 1.4805038079,
				"element": "C" 
			},
			{
				"x": 1.2887753423,
				"y": -0.5753164852,
				"z": 0.1682610933,
				"element": "C" 
			},
			{
				"x": 0.547047072,
				"y": 0.0575290018,
				"z": -0.8388095666,
				"element": "C" 
			},
			{
				"x": 0.5804543017,
				"y": -0.4488966961,
				"z": -2.273320334,
				"element": "C" 
			},
			{
				"x": 1.1658305338,
				"y": 0.5947466902,
				"z": -3.206446037,
				"element": "C" 
			},
			{
				"x": 2.4871229038,
				"y": 0.3987165953,
				"z": -3.4273979958,
				"element": "O" 
			},
			{
				"x": 0.5536518641,
				"y": 1.5238695059,
				"z": -3.6872721063,
				"element": "O" 
			},
			{
				"x": -0.2246608807,
				"y": 1.1704054873,
				"z": -0.4923426984,
				"element": "C" 
			},
			{
				"x": -0.2690766987,
				"y": 1.6438240683,
				"z": 0.820628046,
				"element": "C" 
			},
			{
				"x": -1.3377262776,
				"y": 2.3355916418,
				"z": 3.3453068234,
				"element": "H" 
			},
			{
				"x": 0.0536031559,
				"y": 3.4059254415,
				"z": 3.0090867465,
				"element": "H" 
			},
			{
				"x": -0.0980637598,
				"y": 2.6098470865,
				"z": 4.5980249865,
				"element": "H" 
			},
			{
				"x": 1.8241578379,
				"y": -0.6075375994,
				"z": 2.2634379315,
				"element": "H" 
			},
			{
				"x": 1.9006048764,
				"y": -1.4396233298,
				"z": -0.0770263782,
				"element": "H" 
			},
			{
				"x": 1.1686936984,
				"y": -1.3671088073,
				"z": -2.3358176272,
				"element": "H" 
			},
			{
				"x": -0.43320372,
				"y": -0.6584544929,
				"z": -2.6291521206,
				"element": "H" 
			},
			{
				"x": 2.7773423905,
				"y": 1.1340013847,
				"z": -3.9937396901,
				"element": "H" 
			},
			{
				"x": -0.7927129365,
				"y": 1.6844413063,
				"z": -1.2625077423,
				"element": "H" 
			},
			{
				"x": -0.8793735099,
				"y": 2.5088270703,
				"z": 1.051686172,
				"element": "H" 
			}
		],
		 "valence_orbital": [ 
			{
				"type": "occ",
				"energy": -0.31647,
				"method": "rhf"
			},
			{
				"type": "occ",
				"energy": -0.31523,
				"method": "rhf"
			},
			{
				"type": "occ",
				"energy": -0.27332,
				"method": "rhf"
			},
			{
				"type": "occ",
				"energy": -0.25094,
				"method": "rhf"
			},
			{
				"type": "occ",
				"energy": -0.21585,
				"method": "rhf"
			},
			{
				"type": "unocc",
				"energy": -0.00361,
				"method": "rhf"
			},
			{
				"type": "unocc",
				"energy": -0.00144,
				"method": "rhf"
			},
			{
				"type": "unocc",
				"energy": 0.02566,
				"method": "rhf"
			},
			{
				"type": "unocc",
				"energy": 0.08019,
				"method": "rhf"
			},
			{
				"type": "unocc",
				"energy": 0.09486,
				"method": "rhf"
			}
		],
		"cosmo_sigma_profile": { 
			"-0.025": 0.0,
			"-0.024": 0.0,
			"-0.023": 0.0,
			"-0.022": 0.0,
			"-0.021": 0.0,
			"-0.02": 0.0,
			"-0.019": 0.0,
			"-0.018": 0.615737621588,
			"-0.017": 1.11840438036,
			"-0.016": 0.612921455957,
			"-0.015": 0.899863937183,
			"-0.014": 1.06426080043,
			"-0.013": 0.33707271013,
			"-0.012": 0.441619218651,
			"-0.011": 0.95717283957,
			"-0.01": 0.793747139564,
			"-0.009": 0.519834816443,
			"-0.008": 0.356803584496,
			"-0.007": 1.80027846724,
			"-0.006": 13.1529550912,
			"-0.005": 19.9876466257,
			"-0.004": 21.2732829165,
			"-0.003": 19.939750298,
			"-0.002": 13.450516134,
			"-0.001": 10.8387450955,
			"0.0": 9.17525557791,
			"0.001": 8.66119072124,
			"0.002": 10.3915501692,
			"0.003": 13.4674979985,
			"0.004": 14.2201857322,
			"0.005": 14.4923858081,
			"0.006": 6.33702786145,
			"0.007": 3.75518383973,
			"0.008": 4.19837329667,
			"0.009": 4.67197939138,
			"0.01": 3.79903832258,
			"0.011": 3.60129980278,
			"0.012": 4.42489455242,
			"0.013": 0.423740731301,
			"0.014": 0.0,
			"0.015": 0.0,
			"0.016": 0.0,
			"0.017": 0.0,
			"0.018": 0.0,
			"0.019": 0.0,
			"0.02": 0.0,
			"0.021": 0.0,
			"0.022": 0.0,
			"0.023": 0.0,
			"0.024": 0.0,
			"0.025": 0.0
		}
	}
}
