{
	 "smiles": "CC1=C(C=CC=C1CC#N)[N+]([O-])=O", 
	 "Tm": 353.15, 
	 "num_atms": 21, 
	 "gaussian": { 
		 "optdone": 1, 
		 "sigma_profile": "yes", 
		 "theory": "DFT", 
		 "functional": "B3LYP", 
		 "basiset": "6-31G**", 
		 "properties": { 
			 "R2extent": 2571.778, 
			 "electric_dipole_moment_norm": 4.81803401192, 
			 "electric_quadrupole_moment_norm": 17.9543332266, 
			 "total_energy": -607.611166117, 
			 "HOMO_LUMO_gap": 0.18558, 
			 "cosmo_polarized_energy": -14.99, 
			 "cosmo_cavitation_energy": 26.27, 
			 "cosmo_dispersion_energy": -18.43, 
			 "cosmo_repulsion_energy": 1.45, 
			 "cosmo_total_nonelectrostatic_energy": 9.29, 
			 "SMD_solvation_energy": 7.95 
		},
		"coords": [
			{
				"x": 0.2990890177,
				"y": 1.1253395373,
				"z": 1.861495744,
				"element": "C" 
			},
			{
				"x": 0.3571616359,
				"y": 0.639878411,
				"z": 0.4307636172,
				"element": "C" 
			},
			{
				"x": 1.5595727547,
				"y": 0.386580015,
				"z": -0.2561579097,
				"element": "C" 
			},
			{
				"x": 1.6082911182,
				"y": -0.1258026958,
				"z": -1.5535477074,
				"element": "C" 
			},
			{
				"x": 0.4225872131,
				"y": -0.3665773975,
				"z": -2.2329438112,
				"element": "C" 
			},
			{
				"x": -0.7895657334,
				"y": -0.1018571738,
				"z": -1.5981892297,
				"element": "C" 
			},
			{
				"x": -0.8318888293,
				"y": 0.3877977534,
				"z": -0.2896307153,
				"element": "C" 
			},
			{
				"x": -2.2006892787,
				"y": 0.6572506977,
				"z": 0.3304235082,
				"element": "C" 
			},
			{
				"x": -2.6364408732,
				"y": -0.392031417,
				"z": 1.262446878,
				"element": "C" 
			},
			{
				"x": -2.9722456589,
				"y": -1.2243675592,
				"z": 1.9983291811,
				"element": "N" 
			},
			{
				"x": 2.8699508518,
				"y": 0.6690184683,
				"z": 0.3608856152,
				"element": "N" 
			},
			{
				"x": 2.938232388,
				"y": 1.5809623199,
				"z": 1.1853405881,
				"element": "O" 
			},
			{
				"x": 3.8274054927,
				"y": -0.0082186092,
				"z": -0.0106686424,
				"element": "O" 
			},
			{
				"x": 0.3253797302,
				"y": 2.2198130759,
				"z": 1.905180823,
				"element": "H" 
			},
			{
				"x": 1.1508823994,
				"y": 0.7759615893,
				"z": 2.4430743388,
				"element": "H" 
			},
			{
				"x": -0.6107696694,
				"y": 0.7788709774,
				"z": 2.3539219973,
				"element": "H" 
			},
			{
				"x": 2.5747858785,
				"y": -0.3171176396,
				"z": -2.0024551151,
				"element": "H" 
			},
			{
				"x": 0.4408599691,
				"y": -0.7514862752,
				"z": -3.2470448399,
				"element": "H" 
			},
			{
				"x": -1.7222425496,
				"y": -0.2822259869,
				"z": -2.1256151485,
				"element": "H" 
			},
			{
				"x": -2.2138469359,
				"y": 1.6142829089,
				"z": 0.8631150839,
				"element": "H" 
			},
			{
				"x": -2.9507089209,
				"y": 0.7332290001,
				"z": -0.4636242557,
				"element": "H" 
			}
		],
		 "valence_orbital": [ 
			{
				"type": "occ",
				"energy": -0.31489,
				"method": "rhf"
			},
			{
				"type": "occ",
				"energy": -0.31171,
				"method": "rhf"
			},
			{
				"type": "occ",
				"energy": -0.30442,
				"method": "rhf"
			},
			{
				"type": "occ",
				"energy": -0.28132,
				"method": "rhf"
			},
			{
				"type": "occ",
				"energy": -0.27755,
				"method": "rhf"
			},
			{
				"type": "unocc",
				"energy": -0.09197,
				"method": "rhf"
			},
			{
				"type": "unocc",
				"energy": -0.04037,
				"method": "rhf"
			},
			{
				"type": "unocc",
				"energy": -0.01803,
				"method": "rhf"
			},
			{
				"type": "unocc",
				"energy": 0.02423,
				"method": "rhf"
			},
			{
				"type": "unocc",
				"energy": 0.02707,
				"method": "rhf"
			}
		],
		"cosmo_sigma_profile": { 
			"-0.025": 0.0,
			"-0.024": 0.0,
			"-0.023": 0.0,
			"-0.022": 0.0,
			"-0.021": 0.0,
			"-0.02": 0.0,
			"-0.019": 0.0,
			"-0.018": 0.0,
			"-0.017": 0.0,
			"-0.016": 0.0,
			"-0.015": 0.0,
			"-0.014": 0.0,
			"-0.013": 0.0,
			"-0.012": 0.0,
			"-0.011": 0.0432795450725,
			"-0.01": 2.03892258253,
			"-0.009": 6.1210979048,
			"-0.008": 8.01548483017,
			"-0.007": 12.2698036937,
			"-0.006": 13.6528096276,
			"-0.005": 13.7132919141,
			"-0.004": 12.4574681353,
			"-0.003": 11.9348326073,
			"-0.002": 13.3364212191,
			"-0.001": 15.2046015109,
			"0.0": 13.6770617575,
			"0.001": 14.0282637048,
			"0.002": 11.9517686715,
			"0.003": 5.40475143964,
			"0.004": 4.68386632535,
			"0.005": 4.80091799872,
			"0.006": 7.16114394328,
			"0.007": 9.2190102116,
			"0.008": 11.1194958171,
			"0.009": 7.41874742264,
			"0.01": 5.95841942131,
			"0.011": 2.67868758915,
			"0.012": 2.48549123715,
			"0.013": 1.60733927192,
			"0.014": 0.0856440076955,
			"0.015": 0.0,
			"0.016": 0.0,
			"0.017": 0.0,
			"0.018": 0.0,
			"0.019": 0.0,
			"0.02": 0.0,
			"0.021": 0.0,
			"0.022": 0.0,
			"0.023": 0.0,
			"0.024": 0.0,
			"0.025": 0.0
		}
	}
}
