{
	 "smiles": "NCC1=CSC2=CC=C(Br)C=C12", 
	 "Tm": 310.65, 
	 "num_atms": 20, 
	 "gaussian": { 
		 "optdone": 1, 
		 "sigma_profile": "yes", 
		 "theory": "DFT", 
		 "functional": "B3LYP", 
		 "basiset": "6-31G**", 
		 "properties": { 
			 "R2extent": 5083.3493, 
			 "electric_dipole_moment_norm": 3.1289910035, 
			 "electric_quadrupole_moment_norm": 13.2888658745, 
			 "total_energy": -3372.11973754, 
			 "HOMO_LUMO_gap": 0.18815, 
			 "cosmo_polarized_energy": -8.2, 
			 "cosmo_cavitation_energy": 27.42, 
			 "cosmo_dispersion_energy": -21.17, 
			 "cosmo_repulsion_energy": 1.66, 
			 "cosmo_total_nonelectrostatic_energy": 7.91, 
			 "SMD_solvation_energy": 2.42 
		},
		"coords": [
			{
				"x": -2.5720552188,
				"y": -0.0112884564,
				"z": -0.3345792772,
				"element": "N" 
			},
			{
				"x": -1.6982192266,
				"y": 0.9918079762,
				"z": 0.2873101243,
				"element": "C" 
			},
			{
				"x": -0.2803992464,
				"y": 0.4933749364,
				"z": 0.4052945224,
				"element": "C" 
			},
			{
				"x": 0.4280057411,
				"y": 0.5010842609,
				"z": 1.5674198578,
				"element": "C" 
			},
			{
				"x": 2.0743507886,
				"y": -0.0663944469,
				"z": 1.4069615716,
				"element": "S" 
			},
			{
				"x": 1.8303939667,
				"y": -0.3447127909,
				"z": -0.3095715477,
				"element": "C" 
			},
			{
				"x": 2.7665608433,
				"y": -0.8309126746,
				"z": -1.2276742282,
				"element": "C" 
			},
			{
				"x": 2.3851347171,
				"y": -0.98164438,
				"z": -2.5553386157,
				"element": "C" 
			},
			{
				"x": 1.0760726977,
				"y": -0.6529484669,
				"z": -2.9447087003,
				"element": "C" 
			},
			{
				"x": 0.5835665956,
				"y": -0.8885934517,
				"z": -4.780982019,
				"element": "Br" 
			},
			{
				"x": 0.1346028439,
				"y": -0.174871335,
				"z": -2.0482027552,
				"element": "C" 
			},
			{
				"x": 0.5126237063,
				"y": -0.0065056528,
				"z": -0.7021979751,
				"element": "C" 
			},
			{
				"x": -3.5152819348,
				"y": 0.3576876893,
				"z": -0.4237359936,
				"element": "H" 
			},
			{
				"x": -2.6302201944,
				"y": -0.8358431953,
				"z": 0.2580206736,
				"element": "H" 
			},
			{
				"x": -1.7115028299,
				"y": 1.8779676577,
				"z": -0.3620966467,
				"element": "H" 
			},
			{
				"x": -2.0302268337,
				"y": 1.3323989422,
				"z": 1.282823982,
				"element": "H" 
			},
			{
				"x": 0.0774702363,
				"y": 0.8262656582,
				"z": 2.5386150047,
				"element": "H" 
			},
			{
				"x": 3.7748863972,
				"y": -1.0868859531,
				"z": -0.9175644419,
				"element": "H" 
			},
			{
				"x": 3.0892551987,
				"y": -1.3554538508,
				"z": -3.2894865492,
				"element": "H" 
			},
			{
				"x": -0.8822182478,
				"y": 0.0373675336,
				"z": -2.3533069864,
				"element": "H" 
			}
		],
		 "valence_orbital": [ 
			{
				"type": "occ",
				"energy": -0.27982,
				"method": "rhf"
			},
			{
				"type": "occ",
				"energy": -0.27954,
				"method": "rhf"
			},
			{
				"type": "occ",
				"energy": -0.245,
				"method": "rhf"
			},
			{
				"type": "occ",
				"energy": -0.23168,
				"method": "rhf"
			},
			{
				"type": "occ",
				"energy": -0.21872,
				"method": "rhf"
			},
			{
				"type": "unocc",
				"energy": -0.03057,
				"method": "rhf"
			},
			{
				"type": "unocc",
				"energy": -0.00742,
				"method": "rhf"
			},
			{
				"type": "unocc",
				"energy": 0.00943,
				"method": "rhf"
			},
			{
				"type": "unocc",
				"energy": 0.02568,
				"method": "rhf"
			},
			{
				"type": "unocc",
				"energy": 0.03467,
				"method": "rhf"
			}
		],
		"cosmo_sigma_profile": { 
			"-0.025": 0.0,
			"-0.024": 0.0,
			"-0.023": 0.0,
			"-0.022": 0.0,
			"-0.021": 0.0,
			"-0.02": 0.0,
			"-0.019": 0.0,
			"-0.018": 0.0,
			"-0.017": 0.0,
			"-0.016": 0.0,
			"-0.015": 0.0,
			"-0.014": 0.0,
			"-0.013": 0.0,
			"-0.012": 0.0,
			"-0.011": 0.131800343425,
			"-0.01": 1.5877920519,
			"-0.009": 3.68979898427,
			"-0.008": 5.05944579716,
			"-0.007": 8.69952620177,
			"-0.006": 9.89757707466,
			"-0.005": 9.08167359286,
			"-0.004": 12.8355366134,
			"-0.003": 15.2671691996,
			"-0.002": 17.6261955724,
			"-0.001": 12.2417068561,
			"0.0": 12.0144336668,
			"0.001": 14.5405548519,
			"0.002": 22.4537875105,
			"0.003": 31.5652749174,
			"0.004": 25.1803001756,
			"0.005": 14.552776796,
			"0.006": 1.17375121516,
			"0.007": 1.12628589662,
			"0.008": 1.31333568892,
			"0.009": 0.883109512062,
			"0.01": 1.24061037537,
			"0.011": 0.411801018213,
			"0.012": 0.523278286961,
			"0.013": 1.00295846984,
			"0.014": 0.19565983707,
			"0.015": 0.0,
			"0.016": 0.0,
			"0.017": 0.0,
			"0.018": 0.0,
			"0.019": 0.0,
			"0.02": 0.0,
			"0.021": 0.0,
			"0.022": 0.0,
			"0.023": 0.0,
			"0.024": 0.0,
			"0.025": 0.0
		}
	}
}
