{
	 "smiles": "O=CC1=CC=C(C=C1)N1C=CC=C1", 
	 "Tm": 367.65, 
	 "num_atms": 22, 
	 "gaussian": { 
		 "optdone": 1, 
		 "sigma_profile": "yes", 
		 "theory": "DFT", 
		 "functional": "B3LYP", 
		 "basiset": "6-31G**", 
		 "properties": { 
			 "R2extent": 3183.2243, 
			 "electric_dipole_moment_norm": 3.05540666688, 
			 "electric_quadrupole_moment_norm": 14.1342946602, 
			 "total_energy": -554.545698967, 
			 "HOMO_LUMO_gap": 0.15804, 
			 "cosmo_polarized_energy": -10.48, 
			 "cosmo_cavitation_energy": 26.39, 
			 "cosmo_dispersion_energy": -19.48, 
			 "cosmo_repulsion_energy": 1.48, 
			 "cosmo_total_nonelectrostatic_energy": 8.39, 
			 "SMD_solvation_energy": 6.27 
		},
		"coords": [
			{
				"x": 2.3604681756,
				"y": 1.5520201325,
				"z": -3.8900545105,
				"element": "O" 
			},
			{
				"x": 1.5389455167,
				"y": 0.7115563123,
				"z": -3.571147491,
				"element": "C" 
			},
			{
				"x": 1.1745598489,
				"y": 0.3782389171,
				"z": -2.1813444059,
				"element": "C" 
			},
			{
				"x": 0.2158846216,
				"y": -0.6057746041,
				"z": -1.9120016886,
				"element": "C" 
			},
			{
				"x": -0.1338027325,
				"y": -0.9265121412,
				"z": -0.6062770759,
				"element": "C" 
			},
			{
				"x": 0.4744401814,
				"y": -0.2626117361,
				"z": 0.4742059815,
				"element": "C" 
			},
			{
				"x": 1.4399861008,
				"y": 0.7284273441,
				"z": 0.2031969566,
				"element": "C" 
			},
			{
				"x": 1.7809173454,
				"y": 1.0401011778,
				"z": -1.1030475094,
				"element": "C" 
			},
			{
				"x": 0.1259030848,
				"y": -0.5813914665,
				"z": 1.8033441955,
				"element": "N" 
			},
			{
				"x": 0.6534030731,
				"y": 0.0012073468,
				"z": 2.9524162421,
				"element": "C" 
			},
			{
				"x": 0.0641828842,
				"y": -0.5743084572,
				"z": 4.0467021599,
				"element": "C" 
			},
			{
				"x": -0.8635414352,
				"y": -1.5500957076,
				"z": 3.569402731,
				"element": "C" 
			},
			{
				"x": -0.8070406653,
				"y": -1.53490082,
				"z": 2.200992267,
				"element": "C" 
			},
			{
				"x": 0.9948447996,
				"y": 0.1238032839,
				"z": -4.3446813235,
				"element": "H" 
			},
			{
				"x": -0.2636718424,
				"y": -1.1283564183,
				"z": -2.7364703178,
				"element": "H" 
			},
			{
				"x": -0.878949291,
				"y": -1.6925535965,
				"z": -0.4347138516,
				"element": "H" 
			},
			{
				"x": 1.9264871027,
				"y": 1.2576610306,
				"z": 1.0125493597,
				"element": "H" 
			},
			{
				"x": 2.523775568,
				"y": 1.8024874543,
				"z": -1.3153322084,
				"element": "H" 
			},
			{
				"x": 1.4012377914,
				"y": 0.773982146,
				"z": 2.9015370551,
				"element": "H" 
			},
			{
				"x": 0.2738408789,
				"y": -0.3245690503,
				"z": 5.0771742833,
				"element": "H" 
			},
			{
				"x": -1.499485078,
				"y": -2.1897997573,
				"z": 4.1648835942,
				"element": "H" 
			},
			{
				"x": -1.3535859288,
				"y": -2.1236113903,
				"z": 1.4841655569,
				"element": "H" 
			}
		],
		 "valence_orbital": [ 
			{
				"type": "occ",
				"energy": -0.29337,
				"method": "rhf"
			},
			{
				"type": "occ",
				"energy": -0.27375,
				"method": "rhf"
			},
			{
				"type": "occ",
				"energy": -0.25372,
				"method": "rhf"
			},
			{
				"type": "occ",
				"energy": -0.22879,
				"method": "rhf"
			},
			{
				"type": "occ",
				"energy": -0.22414,
				"method": "rhf"
			},
			{
				"type": "unocc",
				"energy": -0.0661,
				"method": "rhf"
			},
			{
				"type": "unocc",
				"energy": -0.02124,
				"method": "rhf"
			},
			{
				"type": "unocc",
				"energy": 0.00833,
				"method": "rhf"
			},
			{
				"type": "unocc",
				"energy": 0.06515,
				"method": "rhf"
			},
			{
				"type": "unocc",
				"energy": 0.07647,
				"method": "rhf"
			}
		],
		"cosmo_sigma_profile": { 
			"-0.025": 0.0,
			"-0.024": 0.0,
			"-0.023": 0.0,
			"-0.022": 0.0,
			"-0.021": 0.0,
			"-0.02": 0.0,
			"-0.019": 0.0,
			"-0.018": 0.0,
			"-0.017": 0.0,
			"-0.016": 0.0,
			"-0.015": 0.0,
			"-0.014": 0.0,
			"-0.013": 0.0,
			"-0.012": 0.0,
			"-0.011": 0.288634424708,
			"-0.01": 2.40478434186,
			"-0.009": 3.74719827253,
			"-0.008": 4.67585290892,
			"-0.007": 8.61741452915,
			"-0.006": 14.6828493721,
			"-0.005": 13.8135866064,
			"-0.004": 11.4790013313,
			"-0.003": 12.5871355746,
			"-0.002": 13.1627326932,
			"-0.001": 14.0999473159,
			"0.0": 14.7892465105,
			"0.001": 16.9161742204,
			"0.002": 17.5118836695,
			"0.003": 18.6838074319,
			"0.004": 7.98370386505,
			"0.005": 7.36169437512,
			"0.006": 6.62859859447,
			"0.007": 7.88513944722,
			"0.008": 2.31067706225,
			"0.009": 1.93569239307,
			"0.01": 2.43986571537,
			"0.011": 3.76587461119,
			"0.012": 3.83649430608,
			"0.013": 1.2943152533,
			"0.014": 0.0285584428337,
			"0.015": 0.0,
			"0.016": 0.0,
			"0.017": 0.0,
			"0.018": 0.0,
			"0.019": 0.0,
			"0.02": 0.0,
			"0.021": 0.0,
			"0.022": 0.0,
			"0.023": 0.0,
			"0.024": 0.0,
			"0.025": 0.0
		}
	}
}
