{
	 "smiles": "CCC1=CC=CC(CC)=C1NC(=O)CCl", 
	 "Tm": 403.15, 
	 "num_atms": 31, 
	 "gaussian": { 
		 "optdone": 1, 
		 "sigma_profile": "yes", 
		 "theory": "DFT", 
		 "functional": "B3LYP", 
		 "basiset": "6-31G**", 
		 "properties": { 
			 "R2extent": 4086.791, 
			 "electric_dipole_moment_norm": 4.48729863615, 
			 "electric_quadrupole_moment_norm": 14.727291127, 
			 "total_energy": -1057.11510008, 
			 "HOMO_LUMO_gap": 0.22571, 
			 "cosmo_polarized_energy": -12.37, 
			 "cosmo_cavitation_energy": 34.9, 
			 "cosmo_dispersion_energy": -23.37, 
			 "cosmo_repulsion_energy": 1.86, 
			 "cosmo_total_nonelectrostatic_energy": 13.39, 
			 "SMD_solvation_energy": 6.57 
		},
		"coords": [
			{
				"x": -0.9412163763,
				"y": -0.0133610292,
				"z": 3.2335781153,
				"element": "C" 
			},
			{
				"x": -0.877552292,
				"y": -1.0067182576,
				"z": 2.0585948866,
				"element": "C" 
			},
			{
				"x": -0.7999302556,
				"y": -0.3176582951,
				"z": 0.7117635876,
				"element": "C" 
			},
			{
				"x": -1.9735387914,
				"y": -0.0727652579,
				"z": -0.0105836763,
				"element": "C" 
			},
			{
				"x": -1.9431640179,
				"y": 0.615849063,
				"z": -1.2215916734,
				"element": "C" 
			},
			{
				"x": -0.7314662751,
				"y": 1.07906134,
				"z": -1.72602654,
				"element": "C" 
			},
			{
				"x": 0.4706501637,
				"y": 0.8515326295,
				"z": -1.0429539077,
				"element": "C" 
			},
			{
				"x": 1.7648679324,
				"y": 1.3837579403,
				"z": -1.6281107501,
				"element": "C" 
			},
			{
				"x": 2.3157266942,
				"y": 0.5325310771,
				"z": -2.7867009487,
				"element": "C" 
			},
			{
				"x": 0.4233824571,
				"y": 0.1345731608,
				"z": 0.1712320135,
				"element": "C" 
			},
			{
				"x": 1.639927062,
				"y": -0.0966765827,
				"z": 0.9017371293,
				"element": "N" 
			},
			{
				"x": 2.5210807902,
				"y": -1.1476247631,
				"z": 0.8120924235,
				"element": "C" 
			},
			{
				"x": 3.5506031662,
				"y": -1.1840021368,
				"z": 1.4664275377,
				"element": "O" 
			},
			{
				"x": 2.1530005103,
				"y": -2.2768767493,
				"z": -0.1521452857,
				"element": "C" 
			},
			{
				"x": 1.5675765565,
				"y": -3.7276155052,
				"z": 0.7643473305,
				"element": "Cl" 
			},
			{
				"x": -1.8048444153,
				"y": 0.6531668626,
				"z": 3.1413379572,
				"element": "H" 
			},
			{
				"x": -1.0223319595,
				"y": -0.5470007523,
				"z": 4.185821295,
				"element": "H" 
			},
			{
				"x": -0.0427230838,
				"y": 0.610745194,
				"z": 3.2780999162,
				"element": "H" 
			},
			{
				"x": -0.0236140176,
				"y": -1.6748964239,
				"z": 2.1949193086,
				"element": "H" 
			},
			{
				"x": -1.7726799413,
				"y": -1.6382329536,
				"z": 2.0761270078,
				"element": "H" 
			},
			{
				"x": -2.9209309853,
				"y": -0.4247748004,
				"z": 0.3891509408,
				"element": "H" 
			},
			{
				"x": -2.8649633681,
				"y": 0.7988023857,
				"z": -1.7665013849,
				"element": "H" 
			},
			{
				"x": -0.7100576706,
				"y": 1.6334774393,
				"z": -2.6609661025,
				"element": "H" 
			},
			{
				"x": 2.5253721467,
				"y": 1.464739235,
				"z": -0.8468833911,
				"element": "H" 
			},
			{
				"x": 1.583164374,
				"y": 2.4005483119,
				"z": -1.9964795435,
				"element": "H" 
			},
			{
				"x": 1.5818299228,
				"y": 0.4399395254,
				"z": -3.5936940939,
				"element": "H" 
			},
			{
				"x": 3.2209979716,
				"y": 0.9863298409,
				"z": -3.2022337687,
				"element": "H" 
			},
			{
				"x": 2.5724757148,
				"y": -0.4788283559,
				"z": -2.4563986061,
				"element": "H" 
			},
			{
				"x": 1.9423933511,
				"y": 0.6021149947,
				"z": 1.5712899199,
				"element": "H" 
			},
			{
				"x": 1.3682029586,
				"y": -2.0118908073,
				"z": -0.857787534,
				"element": "H" 
			},
			{
				"x": 3.0578616778,
				"y": -2.5849463299,
				"z": -0.6743621627,
				"element": "H" 
			}
		],
		 "valence_orbital": [ 
			{
				"type": "occ",
				"energy": -0.29914,
				"method": "rhf"
			},
			{
				"type": "occ",
				"energy": -0.26695,
				"method": "rhf"
			},
			{
				"type": "occ",
				"energy": -0.26419,
				"method": "rhf"
			},
			{
				"type": "occ",
				"energy": -0.24951,
				"method": "rhf"
			},
			{
				"type": "occ",
				"energy": -0.24911,
				"method": "rhf"
			},
			{
				"type": "unocc",
				"energy": -0.0234,
				"method": "rhf"
			},
			{
				"type": "unocc",
				"energy": -0.0191,
				"method": "rhf"
			},
			{
				"type": "unocc",
				"energy": -0.01101,
				"method": "rhf"
			},
			{
				"type": "unocc",
				"energy": 0.05239,
				"method": "rhf"
			},
			{
				"type": "unocc",
				"energy": 0.07818,
				"method": "rhf"
			}
		],
		"cosmo_sigma_profile": { 
			"-0.025": 0.0,
			"-0.024": 0.0,
			"-0.023": 0.0,
			"-0.022": 0.0,
			"-0.021": 0.0,
			"-0.02": 0.0,
			"-0.019": 0.0,
			"-0.018": 0.0,
			"-0.017": 0.0,
			"-0.016": 0.0,
			"-0.015": 0.0,
			"-0.014": 0.329150986644,
			"-0.013": 0.845093459676,
			"-0.012": 0.9514550735,
			"-0.011": 0.653512203696,
			"-0.01": 1.02083531954,
			"-0.009": 1.81156244126,
			"-0.008": 3.31771005202,
			"-0.007": 4.65315488158,
			"-0.006": 9.1731410029,
			"-0.005": 14.0604432427,
			"-0.004": 17.3052943909,
			"-0.003": 26.7466159133,
			"-0.002": 27.012032175,
			"-0.001": 30.1927687697,
			"0.0": 29.3185882938,
			"0.001": 27.8036689873,
			"0.002": 14.4354707899,
			"0.003": 12.445304642,
			"0.004": 13.103912397,
			"0.005": 14.5862639996,
			"0.006": 7.83181609706,
			"0.007": 2.13645674362,
			"0.008": 1.14246946293,
			"0.009": 1.35270267993,
			"0.01": 1.70074621882,
			"0.011": 1.77982602706,
			"0.012": 2.56050157951,
			"0.013": 5.93362782806,
			"0.014": 2.33017406401,
			"0.015": 0.00403368983856,
			"0.016": 0.0,
			"0.017": 0.0,
			"0.018": 0.0,
			"0.019": 0.0,
			"0.02": 0.0,
			"0.021": 0.0,
			"0.022": 0.0,
			"0.023": 0.0,
			"0.024": 0.0,
			"0.025": 0.0
		}
	}
}
