{
	 "smiles": "OC1=NSC(SCC2=CC=CC=C2)=N1", 
	 "Tm": 397.15, 
	 "num_atms": 22, 
	 "gaussian": { 
		 "optdone": 1, 
		 "sigma_profile": "yes", 
		 "theory": "DFT", 
		 "functional": "B3LYP", 
		 "basiset": "6-31G**", 
		 "properties": { 
			 "R2extent": 4024.5856, 
			 "electric_dipole_moment_norm": 3.84593198328, 
			 "electric_quadrupole_moment_norm": 12.6457390239, 
			 "total_energy": -1328.86434023, 
			 "HOMO_LUMO_gap": 0.19541, 
			 "cosmo_polarized_energy": -13.5, 
			 "cosmo_cavitation_energy": 29.66, 
			 "cosmo_dispersion_energy": -22.48, 
			 "cosmo_repulsion_energy": 1.68, 
			 "cosmo_total_nonelectrostatic_energy": 8.87, 
			 "SMD_solvation_energy": 1.87 
		},
		"coords": [
			{
				"x": -3.2717514646,
				"y": 0.5900450862,
				"z": -4.0439950946,
				"element": "O" 
			},
			{
				"x": -2.6926232523,
				"y": 0.4145355764,
				"z": -2.8458911203,
				"element": "C" 
			},
			{
				"x": -2.8616428344,
				"y": 1.3022363887,
				"z": -1.8986228574,
				"element": "N" 
			},
			{
				"x": -1.9889581609,
				"y": 0.7666564302,
				"z": -0.5666501822,
				"element": "S" 
			},
			{
				"x": -1.4693404719,
				"y": -0.6815989505,
				"z": -1.4147856296,
				"element": "C" 
			},
			{
				"x": -0.4726334369,
				"y": -1.9928482831,
				"z": -0.8142030813,
				"element": "S" 
			},
			{
				"x": -0.2545716142,
				"y": -1.5732447782,
				"z": 0.9702232734,
				"element": "C" 
			},
			{
				"x": 0.6650132242,
				"y": -0.4166642379,
				"z": 1.2965842729,
				"element": "C" 
			},
			{
				"x": 0.2429064325,
				"y": 0.5715698931,
				"z": 2.1943035529,
				"element": "C" 
			},
			{
				"x": 1.0949258081,
				"y": 1.6181772062,
				"z": 2.5541369483,
				"element": "C" 
			},
			{
				"x": 2.3799658786,
				"y": 1.6876754536,
				"z": 2.0177643411,
				"element": "C" 
			},
			{
				"x": 2.8095129278,
				"y": 0.7054056131,
				"z": 1.1209056205,
				"element": "C" 
			},
			{
				"x": 1.959274006,
				"y": -0.3389277374,
				"z": 0.7634381985,
				"element": "C" 
			},
			{
				"x": -1.932466693,
				"y": -0.7117472507,
				"z": -2.6396792921,
				"element": "N" 
			},
			{
				"x": -3.0268726844,
				"y": -0.1737660104,
				"z": -4.5859263843,
				"element": "H" 
			},
			{
				"x": -1.2441270273,
				"y": -1.4305758739,
				"z": 1.4136562,
				"element": "H" 
			},
			{
				"x": 0.1427363617,
				"y": -2.5120272961,
				"z": 1.3717285241,
				"element": "H" 
			},
			{
				"x": -0.7574976768,
				"y": 0.52192127,
				"z": 2.6171629096,
				"element": "H" 
			},
			{
				"x": 0.7503610848,
				"y": 2.3783839312,
				"z": 3.2489709104,
				"element": "H" 
			},
			{
				"x": 3.043365321,
				"y": 2.502250639,
				"z": 2.2929827034,
				"element": "H" 
			},
			{
				"x": 3.8089858898,
				"y": 0.7540949461,
				"z": 0.6985465304,
				"element": "H" 
			},
			{
				"x": 2.2958383823,
				"y": -1.0939520157,
				"z": 0.058349656,
				"element": "H" 
			}
		],
		 "valence_orbital": [ 
			{
				"type": "occ",
				"energy": -0.28717,
				"method": "rhf"
			},
			{
				"type": "occ",
				"energy": -0.27243,
				"method": "rhf"
			},
			{
				"type": "occ",
				"energy": -0.26221,
				"method": "rhf"
			},
			{
				"type": "occ",
				"energy": -0.25433,
				"method": "rhf"
			},
			{
				"type": "occ",
				"energy": -0.23256,
				"method": "rhf"
			},
			{
				"type": "unocc",
				"energy": -0.03715,
				"method": "rhf"
			},
			{
				"type": "unocc",
				"energy": -0.02894,
				"method": "rhf"
			},
			{
				"type": "unocc",
				"energy": -0.01522,
				"method": "rhf"
			},
			{
				"type": "unocc",
				"energy": 0.00519,
				"method": "rhf"
			},
			{
				"type": "unocc",
				"energy": 0.01057,
				"method": "rhf"
			}
		],
		"cosmo_sigma_profile": { 
			"-0.025": 0.0,
			"-0.024": 0.0,
			"-0.023": 0.0,
			"-0.022": 0.0,
			"-0.021": 0.0,
			"-0.02": 0.0,
			"-0.019": 0.255812940164,
			"-0.018": 0.876297558325,
			"-0.017": 1.18010055091,
			"-0.016": 0.556242317563,
			"-0.015": 0.352451567258,
			"-0.014": 0.789989469445,
			"-0.013": 0.699199252339,
			"-0.012": 0.654807951705,
			"-0.011": 1.01058486362,
			"-0.01": 0.477855808214,
			"-0.009": 1.80722694519,
			"-0.008": 5.22942234388,
			"-0.007": 7.9955921878,
			"-0.006": 12.2273101512,
			"-0.005": 15.0758883194,
			"-0.004": 16.2211715332,
			"-0.003": 15.6533552419,
			"-0.002": 13.9504101001,
			"-0.001": 16.0609191887,
			"0.0": 15.1374234108,
			"0.001": 15.5815827672,
			"0.002": 21.0591693312,
			"0.003": 18.4262342618,
			"0.004": 16.080782266,
			"0.005": 14.4858280921,
			"0.006": 6.19022483985,
			"0.007": 2.49581719071,
			"0.008": 4.37114136528,
			"0.009": 5.83086323318,
			"0.01": 4.6101772661,
			"0.011": 2.22444675851,
			"0.012": 1.57862154266,
			"0.013": 1.33047653244,
			"0.014": 1.11591516443,
			"0.015": 0.0332217767127,
			"0.016": 0.0,
			"0.017": 0.0,
			"0.018": 0.0,
			"0.019": 0.0,
			"0.02": 0.0,
			"0.021": 0.0,
			"0.022": 0.0,
			"0.023": 0.0,
			"0.024": 0.0,
			"0.025": 0.0
		}
	}
}
