{
	 "smiles": "OC(=O)C1=CC=C(C=C1)S(=O)(=O)NCC=C", 
	 "Tm": 489.15, 
	 "num_atms": 27, 
	 "gaussian": { 
		 "optdone": 1, 
		 "sigma_profile": "yes", 
		 "theory": "DFT", 
		 "functional": "B3LYP", 
		 "basiset": "6-31G**", 
		 "properties": { 
			 "R2extent": 6528.8972, 
			 "electric_dipole_moment_norm": 3.40452431332, 
			 "electric_quadrupole_moment_norm": 32.5164125237, 
			 "total_energy": -1141.43391645, 
			 "HOMO_LUMO_gap": 0.19686, 
			 "cosmo_polarized_energy": -25.57, 
			 "cosmo_cavitation_energy": 33.69, 
			 "cosmo_dispersion_energy": -24.19, 
			 "cosmo_repulsion_energy": 1.85, 
			 "cosmo_total_nonelectrostatic_energy": 11.35, 
			 "SMD_solvation_energy": 6.22 
		},
		"coords": [
			{
				"x": -3.0803541066,
				"y": 4.2678338901,
				"z": -2.8214051098,
				"element": "O" 
			},
			{
				"x": -3.2590302723,
				"y": 3.2932463812,
				"z": -1.8926970452,
				"element": "C" 
			},
			{
				"x": -4.3229085815,
				"y": 2.7299777218,
				"z": -1.7976812515,
				"element": "O" 
			},
			{
				"x": -2.0808824236,
				"y": 2.9650677333,
				"z": -1.0193600665,
				"element": "C" 
			},
			{
				"x": -0.7561034539,
				"y": 3.2242999955,
				"z": -1.4005747905,
				"element": "C" 
			},
			{
				"x": 0.3002428371,
				"y": 2.8766661186,
				"z": -0.5612012696,
				"element": "C" 
			},
			{
				"x": 0.0229260565,
				"y": 2.2724966994,
				"z": 0.6668907131,
				"element": "C" 
			},
			{
				"x": -1.2920011218,
				"y": 2.0102680632,
				"z": 1.0639470604,
				"element": "C" 
			},
			{
				"x": -2.3396050423,
				"y": 2.3458391547,
				"z": 0.2106170532,
				"element": "C" 
			},
			{
				"x": 1.3931045564,
				"y": 1.7996838362,
				"z": 1.7421324632,
				"element": "S" 
			},
			{
				"x": 0.8612321666,
				"y": 1.7418413327,
				"z": 3.1030738706,
				"element": "O" 
			},
			{
				"x": 2.5376082999,
				"y": 2.628056658,
				"z": 1.362953624,
				"element": "O" 
			},
			{
				"x": 1.8157081644,
				"y": 0.2346478916,
				"z": 1.3305739641,
				"element": "N" 
			},
			{
				"x": 0.8737044522,
				"y": -0.8735986823,
				"z": 1.582437781,
				"element": "C" 
			},
			{
				"x": 1.4942196688,
				"y": -2.1815215254,
				"z": 1.1736324156,
				"element": "C" 
			},
			{
				"x": 1.7539122137,
				"y": -3.1817926757,
				"z": 2.0134972096,
				"element": "C" 
			},
			{
				"x": -2.250856445,
				"y": 4.7395451613,
				"z": -2.6630746148,
				"element": "H" 
			},
			{
				"x": -0.5318086072,
				"y": 3.6688263189,
				"z": -2.3668909249,
				"element": "H" 
			},
			{
				"x": 1.3274161799,
				"y": 3.0858433363,
				"z": -0.839662156,
				"element": "H" 
			},
			{
				"x": -1.4831155226,
				"y": 1.5721356927,
				"z": 2.0372781364,
				"element": "H" 
			},
			{
				"x": -3.3697996104,
				"y": 2.144215783,
				"z": 0.4830911997,
				"element": "H" 
			},
			{
				"x": 2.3072881484,
				"y": 0.2070524481,
				"z": 0.4420584779,
				"element": "H" 
			},
			{
				"x": 0.6466177826,
				"y": -0.8721702866,
				"z": 2.6506439402,
				"element": "H" 
			},
			{
				"x": -0.0706881321,
				"y": -0.7262179015,
				"z": 1.0329445546,
				"element": "H" 
			},
			{
				"x": 1.7161237298,
				"y": -2.2966705974,
				"z": 0.1118899934,
				"element": "H" 
			},
			{
				"x": 2.1815458309,
				"y": -4.1178826791,
				"z": 1.6675221353,
				"element": "H" 
			},
			{
				"x": 1.5447032321,
				"y": -3.1020898686,
				"z": 3.0771626366,
				"element": "H" 
			}
		],
		 "valence_orbital": [ 
			{
				"type": "occ",
				"energy": -0.30073,
				"method": "rhf"
			},
			{
				"type": "occ",
				"energy": -0.293,
				"method": "rhf"
			},
			{
				"type": "occ",
				"energy": -0.28743,
				"method": "rhf"
			},
			{
				"type": "occ",
				"energy": -0.28262,
				"method": "rhf"
			},
			{
				"type": "occ",
				"energy": -0.27531,
				"method": "rhf"
			},
			{
				"type": "unocc",
				"energy": -0.07845,
				"method": "rhf"
			},
			{
				"type": "unocc",
				"energy": -0.04431,
				"method": "rhf"
			},
			{
				"type": "unocc",
				"energy": -0.00975,
				"method": "rhf"
			},
			{
				"type": "unocc",
				"energy": 0.01824,
				"method": "rhf"
			},
			{
				"type": "unocc",
				"energy": 0.04296,
				"method": "rhf"
			}
		],
		"cosmo_sigma_profile": { 
			"-0.025": 0.0,
			"-0.024": 0.0,
			"-0.023": 0.0,
			"-0.022": 0.0,
			"-0.021": 0.0,
			"-0.02": 0.0,
			"-0.019": 0.517042622008,
			"-0.018": 1.07830613182,
			"-0.017": 1.29569396176,
			"-0.016": 1.28820187833,
			"-0.015": 1.54097480491,
			"-0.014": 1.66781302447,
			"-0.013": 2.6973265836,
			"-0.012": 3.05348409892,
			"-0.011": 2.65157537193,
			"-0.01": 2.20903840675,
			"-0.009": 3.43658519351,
			"-0.008": 6.2637488271,
			"-0.007": 9.46244475094,
			"-0.006": 13.1469915201,
			"-0.005": 18.497412383,
			"-0.004": 17.5748261479,
			"-0.003": 17.7160678923,
			"-0.002": 14.890215758,
			"-0.001": 15.4380874072,
			"0.0": 16.8013531711,
			"0.001": 20.1642141563,
			"0.002": 9.41117877564,
			"0.003": 8.07103903777,
			"0.004": 6.71942084737,
			"0.005": 8.46583530249,
			"0.006": 8.87392735503,
			"0.007": 8.43028927807,
			"0.008": 6.07991875713,
			"0.009": 8.55481093679,
			"0.01": 13.0369600402,
			"0.011": 14.2084108249,
			"0.012": 5.08739930796,
			"0.013": 0.567251040452,
			"0.014": 0.0,
			"0.015": 0.0,
			"0.016": 0.0,
			"0.017": 0.0,
			"0.018": 0.0,
			"0.019": 0.0,
			"0.02": 0.0,
			"0.021": 0.0,
			"0.022": 0.0,
			"0.023": 0.0,
			"0.024": 0.0,
			"0.025": 0.0
		}
	}
}
