{
	 "smiles": "COC1=CC=C(C#N)C(Cl)=C1OC", 
	 "Tm": 375.15, 
	 "num_atms": 21, 
	 "gaussian": { 
		 "optdone": 1, 
		 "sigma_profile": "yes", 
		 "theory": "DFT", 
		 "functional": "B3LYP", 
		 "basiset": "6-31G**", 
		 "properties": { 
			 "R2extent": 4212.2676, 
			 "electric_dipole_moment_norm": 5.83602729774, 
			 "electric_quadrupole_moment_norm": 30.192826399, 
			 "total_energy": -1013.11403403, 
			 "HOMO_LUMO_gap": 0.19892, 
			 "cosmo_polarized_energy": -10.75, 
			 "cosmo_cavitation_energy": 27.94, 
			 "cosmo_dispersion_energy": -19.44, 
			 "cosmo_repulsion_energy": 1.55, 
			 "cosmo_total_nonelectrostatic_energy": 10.05, 
			 "SMD_solvation_energy": 7.45 
		},
		"coords": [
			{
				"x": 1.6194097804,
				"y": 1.102241002,
				"z": -0.5463341303,
				"element": "C" 
			},
			{
				"x": 0.5890097473,
				"y": 2.0958033038,
				"z": -0.4084657871,
				"element": "O" 
			},
			{
				"x": -0.6976508234,
				"y": 1.6403978118,
				"z": -0.4914115754,
				"element": "C" 
			},
			{
				"x": -1.494503601,
				"y": 2.0697815942,
				"z": -1.5551391344,
				"element": "C" 
			},
			{
				"x": -2.8175544772,
				"y": 1.6582681716,
				"z": -1.6497949594,
				"element": "C" 
			},
			{
				"x": -3.3686635811,
				"y": 0.8008605602,
				"z": -0.6829831065,
				"element": "C" 
			},
			{
				"x": -4.7307141732,
				"y": 0.3806132052,
				"z": -0.8107867678,
				"element": "C" 
			},
			{
				"x": -5.840796147,
				"y": 0.0634381975,
				"z": -0.9523051249,
				"element": "N" 
			},
			{
				"x": -2.5686271334,
				"y": 0.3829153913,
				"z": 0.3997971167,
				"element": "C" 
			},
			{
				"x": -3.2287617906,
				"y": -0.6549657809,
				"z": 1.6316127519,
				"element": "Cl" 
			},
			{
				"x": -1.2362587191,
				"y": 0.8014414988,
				"z": 0.5074269789,
				"element": "C" 
			},
			{
				"x": -0.4635272286,
				"y": 0.3703876511,
				"z": 1.5485523373,
				"element": "O" 
			},
			{
				"x": -0.2265745319,
				"y": 1.3547180067,
				"z": 2.5701417184,
				"element": "C" 
			},
			{
				"x": 1.539154566,
				"y": 0.335288257,
				"z": 0.2279362175,
				"element": "H" 
			},
			{
				"x": 1.5686875837,
				"y": 0.6357336521,
				"z": -1.5371312808,
				"element": "H" 
			},
			{
				"x": 2.5649672587,
				"y": 1.6372252238,
				"z": -0.4461208189,
				"element": "H" 
			},
			{
				"x": -1.0537754604,
				"y": 2.7249498809,
				"z": -2.2984142759,
				"element": "H" 
			},
			{
				"x": -3.4383261647,
				"y": 1.9831439211,
				"z": -2.477233502,
				"element": "H" 
			},
			{
				"x": 0.4052955576,
				"y": 0.8683661672,
				"z": 3.3146740182,
				"element": "H" 
			},
			{
				"x": -1.1696274346,
				"y": 1.6601537074,
				"z": 3.0363156096,
				"element": "H" 
			},
			{
				"x": 0.2873367726,
				"y": 2.229038577,
				"z": 2.159063715,
				"element": "H" 
			}
		],
		 "valence_orbital": [ 
			{
				"type": "occ",
				"energy": -0.32266,
				"method": "rhf"
			},
			{
				"type": "occ",
				"energy": -0.31319,
				"method": "rhf"
			},
			{
				"type": "occ",
				"energy": -0.28763,
				"method": "rhf"
			},
			{
				"type": "occ",
				"energy": -0.26122,
				"method": "rhf"
			},
			{
				"type": "occ",
				"energy": -0.25468,
				"method": "rhf"
			},
			{
				"type": "unocc",
				"energy": -0.05576,
				"method": "rhf"
			},
			{
				"type": "unocc",
				"energy": -0.03103,
				"method": "rhf"
			},
			{
				"type": "unocc",
				"energy": 0.01531,
				"method": "rhf"
			},
			{
				"type": "unocc",
				"energy": 0.03278,
				"method": "rhf"
			},
			{
				"type": "unocc",
				"energy": 0.06883,
				"method": "rhf"
			}
		],
		"cosmo_sigma_profile": { 
			"-0.025": 0.0,
			"-0.024": 0.0,
			"-0.023": 0.0,
			"-0.022": 0.0,
			"-0.021": 0.0,
			"-0.02": 0.0,
			"-0.019": 0.0,
			"-0.018": 0.0,
			"-0.017": 0.0,
			"-0.016": 0.0,
			"-0.015": 0.0,
			"-0.014": 0.0,
			"-0.013": 0.0,
			"-0.012": 0.0,
			"-0.011": 0.0,
			"-0.01": 0.0,
			"-0.009": 1.06342358249,
			"-0.008": 3.40973750643,
			"-0.007": 5.03167263286,
			"-0.006": 9.24878593533,
			"-0.005": 14.6166406541,
			"-0.004": 18.4653997553,
			"-0.003": 27.4130427851,
			"-0.002": 21.3486312696,
			"-0.001": 23.1785583485,
			"0.0": 17.5185825806,
			"0.001": 14.1763971255,
			"0.002": 12.0343366519,
			"0.003": 12.4180691471,
			"0.004": 7.98083642239,
			"0.005": 6.00579230553,
			"0.006": 5.15549992709,
			"0.007": 5.08403595772,
			"0.008": 5.68721751259,
			"0.009": 5.25361069879,
			"0.01": 5.06987113725,
			"0.011": 3.1778343722,
			"0.012": 2.39944111341,
			"0.013": 0.853714352088,
			"0.014": 0.0,
			"0.015": 0.0,
			"0.016": 0.0,
			"0.017": 0.0,
			"0.018": 0.0,
			"0.019": 0.0,
			"0.02": 0.0,
			"0.021": 0.0,
			"0.022": 0.0,
			"0.023": 0.0,
			"0.024": 0.0,
			"0.025": 0.0
		}
	}
}
