{
	 "smiles": "NC1=C2CCCCC2=NC2=CC=CC=C12", 
	 "Tm": 457.15, 
	 "num_atms": 29, 
	 "gaussian": { 
		 "optdone": 1, 
		 "sigma_profile": "yes", 
		 "theory": "DFT", 
		 "functional": "B3LYP", 
		 "basiset": "6-31G**", 
		 "properties": { 
			 "R2extent": 3602.5057, 
			 "electric_dipole_moment_norm": 3.39999557941, 
			 "electric_quadrupole_moment_norm": 7.64673781949, 
			 "total_energy": -613.358544719, 
			 "HOMO_LUMO_gap": 0.16762, 
			 "cosmo_polarized_energy": -12.28, 
			 "cosmo_cavitation_energy": 29.94, 
			 "cosmo_dispersion_energy": -22.95, 
			 "cosmo_repulsion_energy": 1.77, 
			 "cosmo_total_nonelectrostatic_energy": 8.76, 
			 "SMD_solvation_energy": 2.36 
		},
		"coords": [
			{
				"x": 2.0414727596,
				"y": 0.559229083,
				"z": 1.2544449856,
				"element": "N" 
			},
			{
				"x": 1.0209944122,
				"y": -0.2430929667,
				"z": 0.7672699785,
				"element": "C" 
			},
			{
				"x": 0.0844410085,
				"y": 0.2619781225,
				"z": -0.136388648,
				"element": "C" 
			},
			{
				"x": 0.1667941327,
				"y": 1.7119618606,
				"z": -0.5793276016,
				"element": "C" 
			},
			{
				"x": -0.7419420087,
				"y": 2.051398748,
				"z": -1.7699211586,
				"element": "C" 
			},
			{
				"x": -2.1279871501,
				"y": 1.4261079617,
				"z": -1.5925287931,
				"element": "C" 
			},
			{
				"x": -2.0064203499,
				"y": -0.1003128928,
				"z": -1.5548168146,
				"element": "C" 
			},
			{
				"x": -0.9520127964,
				"y": -0.6028919592,
				"z": -0.5847666058,
				"element": "C" 
			},
			{
				"x": -1.0786163296,
				"y": -1.8675409202,
				"z": -0.2132475561,
				"element": "N" 
			},
			{
				"x": -0.145419095,
				"y": -2.3836299127,
				"z": 0.6320792758,
				"element": "C" 
			},
			{
				"x": -0.2705897359,
				"y": -3.7472450349,
				"z": 1.0136368297,
				"element": "C" 
			},
			{
				"x": 0.6454177187,
				"y": -4.3344787335,
				"z": 1.8565566516,
				"element": "C" 
			},
			{
				"x": 1.7368089289,
				"y": -3.5844232372,
				"z": 2.3550289601,
				"element": "C" 
			},
			{
				"x": 1.8817058538,
				"y": -2.2579426011,
				"z": 2.0092634018,
				"element": "C" 
			},
			{
				"x": 0.9448377363,
				"y": -1.6215444903,
				"z": 1.1529355009,
				"element": "C" 
			},
			{
				"x": 2.4481234882,
				"y": 0.2777151344,
				"z": 2.1336688,
				"element": "H" 
			},
			{
				"x": 1.8846834764,
				"y": 1.5545069687,
				"z": 1.2031050298,
				"element": "H" 
			},
			{
				"x": -0.1012801523,
				"y": 2.3661754358,
				"z": 0.2676596397,
				"element": "H" 
			},
			{
				"x": 1.2060086855,
				"y": 1.9616620677,
				"z": -0.8346210358,
				"element": "H" 
			},
			{
				"x": -0.8082266871,
				"y": 3.1394622125,
				"z": -1.8817369418,
				"element": "H" 
			},
			{
				"x": -0.2917905511,
				"y": 1.6661489789,
				"z": -2.6944361183,
				"element": "H" 
			},
			{
				"x": -2.7980006429,
				"y": 1.7300546742,
				"z": -2.4046242933,
				"element": "H" 
			},
			{
				"x": -2.5784045102,
				"y": 1.7901151735,
				"z": -0.6587405241,
				"element": "H" 
			},
			{
				"x": -1.7456954957,
				"y": -0.4668051285,
				"z": -2.5584904814,
				"element": "H" 
			},
			{
				"x": -2.9555394646,
				"y": -0.5800153848,
				"z": -1.2974295713,
				"element": "H" 
			},
			{
				"x": -1.1121728626,
				"y": -4.2990525085,
				"z": 0.6073854966,
				"element": "H" 
			},
			{
				"x": 0.538271993,
				"y": -5.3786770515,
				"z": 2.1365006907,
				"element": "H" 
			},
			{
				"x": 2.4661176022,
				"y": -4.0577350273,
				"z": 3.00591123,
				"element": "H" 
			},
			{
				"x": 2.7456200361,
				"y": -1.7121285724,
				"z": 2.3787296729,
				"element": "H" 
			}
		],
		 "valence_orbital": [ 
			{
				"type": "occ",
				"energy": -0.31131,
				"method": "rhf"
			},
			{
				"type": "occ",
				"energy": -0.25254,
				"method": "rhf"
			},
			{
				"type": "occ",
				"energy": -0.23501,
				"method": "rhf"
			},
			{
				"type": "occ",
				"energy": -0.23076,
				"method": "rhf"
			},
			{
				"type": "occ",
				"energy": -0.20048,
				"method": "rhf"
			},
			{
				"type": "unocc",
				"energy": -0.03286,
				"method": "rhf"
			},
			{
				"type": "unocc",
				"energy": -0.00085,
				"method": "rhf"
			},
			{
				"type": "unocc",
				"energy": 0.0403,
				"method": "rhf"
			},
			{
				"type": "unocc",
				"energy": 0.06745,
				"method": "rhf"
			},
			{
				"type": "unocc",
				"energy": 0.08675,
				"method": "rhf"
			}
		],
		"cosmo_sigma_profile": { 
			"-0.025": 0.0,
			"-0.024": 0.0,
			"-0.023": 0.0,
			"-0.022": 0.0,
			"-0.021": 0.0,
			"-0.02": 0.0,
			"-0.019": 0.0,
			"-0.018": 0.0,
			"-0.017": 0.0,
			"-0.016": 0.0,
			"-0.015": 0.0,
			"-0.014": 0.339738660107,
			"-0.013": 1.10204130855,
			"-0.012": 2.18189840007,
			"-0.011": 2.57408702826,
			"-0.01": 3.6387623359,
			"-0.009": 2.02754197031,
			"-0.008": 2.77862487375,
			"-0.007": 3.39166352897,
			"-0.006": 4.34285056178,
			"-0.005": 8.76194158053,
			"-0.004": 12.7244955666,
			"-0.003": 20.3677024903,
			"-0.002": 26.7025306634,
			"-0.001": 27.2056186752,
			"0.0": 22.6304883479,
			"0.001": 15.7629783594,
			"0.002": 9.88619246768,
			"0.003": 15.9250433971,
			"0.004": 17.4173098257,
			"0.005": 13.6523226377,
			"0.006": 6.43435086368,
			"0.007": 2.65312965259,
			"0.008": 2.45185045791,
			"0.009": 2.2524041664,
			"0.01": 1.56950349242,
			"0.011": 1.52298095854,
			"0.012": 1.68137284324,
			"0.013": 1.11139861517,
			"0.014": 1.04898782546,
			"0.015": 0.650159329522,
			"0.016": 0.616694601884,
			"0.017": 0.617151352116,
			"0.018": 0.250304441831,
			"0.019": 0.0,
			"0.02": 0.0,
			"0.021": 0.0,
			"0.022": 0.0,
			"0.023": 0.0,
			"0.024": 0.0,
			"0.025": 0.0
		}
	}
}
