{
	 "smiles": "CCN(CC)C(=O)C1=CC=CC=C1", 
	 "Tm": 303.15, 
	 "num_atms": 28, 
	 "gaussian": { 
		 "optdone": 1, 
		 "sigma_profile": "yes", 
		 "theory": "DFT", 
		 "functional": "B3LYP", 
		 "basiset": "6-31G**", 
		 "properties": { 
			 "R2extent": 2900.2435, 
			 "electric_dipole_moment_norm": 3.4196416786, 
			 "electric_quadrupole_moment_norm": 11.7078611202, 
			 "total_energy": -558.205734948, 
			 "HOMO_LUMO_gap": 0.20991, 
			 "cosmo_polarized_energy": -10.23, 
			 "cosmo_cavitation_energy": 30.21, 
			 "cosmo_dispersion_energy": -21.22, 
			 "cosmo_repulsion_energy": 1.69, 
			 "cosmo_total_nonelectrostatic_energy": 10.67, 
			 "SMD_solvation_energy": 5.6 
		},
		"coords": [
			{
				"x": -2.0984939865,
				"y": 2.1336874104,
				"z": -1.0097242928,
				"element": "C" 
			},
			{
				"x": -2.1280272441,
				"y": 0.6595493539,
				"z": -0.5968931382,
				"element": "C" 
			},
			{
				"x": -1.7537105538,
				"y": 0.4299085685,
				"z": 0.8019699492,
				"element": "N" 
			},
			{
				"x": -2.7305846718,
				"y": 0.8306573121,
				"z": 1.8288322323,
				"element": "C" 
			},
			{
				"x": -2.2124920638,
				"y": 1.934745244,
				"z": 2.7527564471,
				"element": "C" 
			},
			{
				"x": -0.7658536715,
				"y": -0.4363402451,
				"z": 1.2175376742,
				"element": "C" 
			},
			{
				"x": -0.7347867657,
				"y": -0.8603538218,
				"z": 2.3733583707,
				"element": "O" 
			},
			{
				"x": 0.3161452571,
				"y": -0.8493178731,
				"z": 0.2524599256,
				"element": "C" 
			},
			{
				"x": 0.7276561119,
				"y": -2.1892986511,
				"z": 0.2791860658,
				"element": "C" 
			},
			{
				"x": 1.7748505371,
				"y": -2.6228751214,
				"z": -0.530898375,
				"element": "C" 
			},
			{
				"x": 2.4459449353,
				"y": -1.7153460581,
				"z": -1.3549408751,
				"element": "C" 
			},
			{
				"x": 2.0645607677,
				"y": -0.3728179054,
				"z": -1.3628812834,
				"element": "C" 
			},
			{
				"x": 1.0022553523,
				"y": 0.0581079397,
				"z": -0.5663932368,
				"element": "C" 
			},
			{
				"x": -2.408182428,
				"y": 2.237352417,
				"z": -2.0550117712,
				"element": "H" 
			},
			{
				"x": -1.094220826,
				"y": 2.5557969525,
				"z": -0.9061267837,
				"element": "H" 
			},
			{
				"x": -2.7791510287,
				"y": 2.7358999005,
				"z": -0.3997854576,
				"element": "H" 
			},
			{
				"x": -3.1402776395,
				"y": 0.2593937354,
				"z": -0.7535831309,
				"element": "H" 
			},
			{
				"x": -1.4618785575,
				"y": 0.0783344482,
				"z": -1.2345289808,
				"element": "H" 
			},
			{
				"x": -3.6341504129,
				"y": 1.1620858059,
				"z": 1.3080502329,
				"element": "H" 
			},
			{
				"x": -2.9856380493,
				"y": -0.0523156909,
				"z": 2.4228648123,
				"element": "H" 
			},
			{
				"x": -1.3249535041,
				"y": 1.5890012363,
				"z": 3.2872906371,
				"element": "H" 
			},
			{
				"x": -1.9547782441,
				"y": 2.8379325271,
				"z": 2.1905710918,
				"element": "H" 
			},
			{
				"x": -2.9765530934,
				"y": 2.1971509964,
				"z": 3.4924885352,
				"element": "H" 
			},
			{
				"x": 0.2213013525,
				"y": -2.8760149351,
				"z": 0.9495226818,
				"element": "H" 
			},
			{
				"x": 2.0757505667,
				"y": -3.6664472032,
				"z": -0.5122894927,
				"element": "H" 
			},
			{
				"x": 3.2686706253,
				"y": -2.051350305,
				"z": -1.9796272379,
				"element": "H" 
			},
			{
				"x": 2.596827082,
				"y": 0.3416682487,
				"z": -1.984380163,
				"element": "H" 
			},
			{
				"x": 0.7231701529,
				"y": 1.1072057134,
				"z": -0.5625244368,
				"element": "H" 
			}
		],
		 "valence_orbital": [ 
			{
				"type": "occ",
				"energy": -0.33652,
				"method": "rhf"
			},
			{
				"type": "occ",
				"energy": -0.2603,
				"method": "rhf"
			},
			{
				"type": "occ",
				"energy": -0.25404,
				"method": "rhf"
			},
			{
				"type": "occ",
				"energy": -0.23643,
				"method": "rhf"
			},
			{
				"type": "occ",
				"energy": -0.2338,
				"method": "rhf"
			},
			{
				"type": "unocc",
				"energy": -0.02389,
				"method": "rhf"
			},
			{
				"type": "unocc",
				"energy": -0.0048,
				"method": "rhf"
			},
			{
				"type": "unocc",
				"energy": 0.05003,
				"method": "rhf"
			},
			{
				"type": "unocc",
				"energy": 0.07901,
				"method": "rhf"
			},
			{
				"type": "unocc",
				"energy": 0.09696,
				"method": "rhf"
			}
		],
		"cosmo_sigma_profile": { 
			"-0.025": 0.0,
			"-0.024": 0.0,
			"-0.023": 0.0,
			"-0.022": 0.0,
			"-0.021": 0.0,
			"-0.02": 0.0,
			"-0.019": 0.0,
			"-0.018": 0.0,
			"-0.017": 0.0,
			"-0.016": 0.0,
			"-0.015": 0.0,
			"-0.014": 0.0,
			"-0.013": 0.0,
			"-0.012": 0.0,
			"-0.011": 0.0,
			"-0.01": 0.0,
			"-0.009": 0.0,
			"-0.008": 0.0,
			"-0.007": 0.293731555949,
			"-0.006": 7.33249008492,
			"-0.005": 15.4946587968,
			"-0.004": 22.0727839979,
			"-0.003": 28.2363053556,
			"-0.002": 31.9953072977,
			"-0.001": 26.6525326938,
			"0.0": 22.8788186937,
			"0.001": 19.7386741314,
			"0.002": 12.1945839304,
			"0.003": 10.2620487659,
			"0.004": 10.2614337251,
			"0.005": 10.0807218489,
			"0.006": 2.28174123322,
			"0.007": 2.06163799225,
			"0.008": 1.51871400576,
			"0.009": 1.90994585063,
			"0.01": 1.70438899472,
			"0.011": 1.33529010742,
			"0.012": 1.79324025606,
			"0.013": 2.38665303754,
			"0.014": 4.10366543804,
			"0.015": 1.38539170566,
			"0.016": 0.0310178765058,
			"0.017": 0.0,
			"0.018": 0.0,
			"0.019": 0.0,
			"0.02": 0.0,
			"0.021": 0.0,
			"0.022": 0.0,
			"0.023": 0.0,
			"0.024": 0.0,
			"0.025": 0.0
		}
	}
}
