{
	 "smiles": "CC1=CC=C(O1)C=CC(O)=O", 
	 "Tm": 392.15, 
	 "num_atms": 19, 
	 "gaussian": { 
		 "optdone": 1, 
		 "sigma_profile": "yes", 
		 "theory": "DFT", 
		 "functional": "B3LYP", 
		 "basiset": "6-31G**", 
		 "properties": { 
			 "R2extent": 2975.7216, 
			 "electric_dipole_moment_norm": 6.67275649488, 
			 "electric_quadrupole_moment_norm": 21.049191546, 
			 "total_energy": -535.320066198, 
			 "HOMO_LUMO_gap": 0.15166, 
			 "cosmo_polarized_energy": -15.72, 
			 "cosmo_cavitation_energy": 24.56, 
			 "cosmo_dispersion_energy": -17.88, 
			 "cosmo_repulsion_energy": 1.46, 
			 "cosmo_total_nonelectrostatic_energy": 8.13, 
			 "SMD_solvation_energy": 6.25 
		},
		"coords": [
			{
				"x": -2.5179105628,
				"y": -1.5163418876,
				"z": -1.6905678709,
				"element": "C" 
			},
			{
				"x": -1.0575583879,
				"y": -1.2692586583,
				"z": -1.5532619174,
				"element": "C" 
			},
			{
				"x": 0.0196518015,
				"y": -1.5149999531,
				"z": -2.3645860784,
				"element": "C" 
			},
			{
				"x": 1.1707916188,
				"y": -1.0467095122,
				"z": -1.6722451016,
				"element": "C" 
			},
			{
				"x": 0.7315264535,
				"y": -0.5395438103,
				"z": -0.4718311241,
				"element": "C" 
			},
			{
				"x": -0.6379158111,
				"y": -0.6774352719,
				"z": -0.4017954242,
				"element": "O" 
			},
			{
				"x": 1.3573179314,
				"y": 0.0735872388,
				"z": 0.6670527883,
				"element": "C" 
			},
			{
				"x": 2.6804322438,
				"y": 0.2909750515,
				"z": 0.8291153273,
				"element": "C" 
			},
			{
				"x": 3.3036295178,
				"y": 0.875207671,
				"z": 2.0379754834,
				"element": "C" 
			},
			{
				"x": 2.5062678779,
				"y": 1.6096434017,
				"z": 2.8686036869,
				"element": "O" 
			},
			{
				"x": 4.4718928981,
				"y": 0.714734325,
				"z": 2.3109953119,
				"element": "O" 
			},
			{
				"x": -2.7261965718,
				"y": -1.9923169472,
				"z": -2.6510714501,
				"element": "H" 
			},
			{
				"x": -2.8876289755,
				"y": -2.1711910614,
				"z": -0.8933535218,
				"element": "H" 
			},
			{
				"x": -3.0871775961,
				"y": -0.5812861975,
				"z": -1.6380324208,
				"element": "H" 
			},
			{
				"x": -0.0130659083,
				"y": -1.9767207774,
				"z": -3.3410095676,
				"element": "H" 
			},
			{
				"x": 2.1955993332,
				"y": -1.0790814328,
				"z": -2.0133002315,
				"element": "H" 
			},
			{
				"x": 0.6562765018,
				"y": 0.3471785788,
				"z": 1.4549484384,
				"element": "H" 
			},
			{
				"x": 3.3988164971,
				"y": -0.0406789313,
				"z": 0.0861346151,
				"element": "H" 
			},
			{
				"x": 1.6688511385,
				"y": 1.8115381742,
				"z": 2.4294290571,
				"element": "H" 
			}
		],
		 "valence_orbital": [ 
			{
				"type": "occ",
				"energy": -0.32491,
				"method": "rhf"
			},
			{
				"type": "occ",
				"energy": -0.30537,
				"method": "rhf"
			},
			{
				"type": "occ",
				"energy": -0.29254,
				"method": "rhf"
			},
			{
				"type": "occ",
				"energy": -0.26494,
				"method": "rhf"
			},
			{
				"type": "occ",
				"energy": -0.22118,
				"method": "rhf"
			},
			{
				"type": "unocc",
				"energy": -0.06952,
				"method": "rhf"
			},
			{
				"type": "unocc",
				"energy": 0.02046,
				"method": "rhf"
			},
			{
				"type": "unocc",
				"energy": 0.05556,
				"method": "rhf"
			},
			{
				"type": "unocc",
				"energy": 0.06317,
				"method": "rhf"
			},
			{
				"type": "unocc",
				"energy": 0.09432,
				"method": "rhf"
			}
		],
		"cosmo_sigma_profile": { 
			"-0.025": 0.0,
			"-0.024": 0.0,
			"-0.023": 0.0,
			"-0.022": 0.0,
			"-0.021": 0.0,
			"-0.02": 0.0,
			"-0.019": 0.206727835562,
			"-0.018": 0.781150056196,
			"-0.017": 0.846139861581,
			"-0.016": 1.49474135113,
			"-0.015": 0.569842421035,
			"-0.014": 0.860925283039,
			"-0.013": 0.912689461409,
			"-0.012": 1.40593954285,
			"-0.011": 1.35268517639,
			"-0.01": 1.17232094747,
			"-0.009": 1.05731183546,
			"-0.008": 3.49802790143,
			"-0.007": 7.50648778453,
			"-0.006": 8.88359274835,
			"-0.005": 12.586292262,
			"-0.004": 12.3501126281,
			"-0.003": 13.2537629837,
			"-0.002": 14.8066035449,
			"-0.001": 14.899329745,
			"0.0": 12.1527728492,
			"0.001": 12.526671896,
			"0.002": 15.4462148308,
			"0.003": 12.0053659165,
			"0.004": 8.07481831167,
			"0.005": 4.09827879926,
			"0.006": 3.91864744896,
			"0.007": 3.48062528224,
			"0.008": 3.09647616711,
			"0.009": 2.38255053895,
			"0.01": 3.69891172753,
			"0.011": 5.11323020444,
			"0.012": 5.96108647671,
			"0.013": 4.71812225378,
			"0.014": 1.07973427473,
			"0.015": 0.0,
			"0.016": 0.0,
			"0.017": 0.0,
			"0.018": 0.0,
			"0.019": 0.0,
			"0.02": 0.0,
			"0.021": 0.0,
			"0.022": 0.0,
			"0.023": 0.0,
			"0.024": 0.0,
			"0.025": 0.0
		}
	}
}
