{
	 "smiles": "CC(C)C1=C(OS(=O)(=O)C2=CC=C(C=C2)[N+]([O-])=O)C=CC=C1", 
	 "Tm": 372.15, 
	 "num_atms": 37, 
	 "gaussian": { 
		 "optdone": 1, 
		 "sigma_profile": "yes", 
		 "theory": "DFT", 
		 "functional": "B3LYP", 
		 "basiset": "6-31G**", 
		 "properties": { 
			 "R2extent": 8875.5744, 
			 "electric_dipole_moment_norm": 2.94379763571, 
			 "electric_quadrupole_moment_norm": 17.0180763073, 
			 "total_energy": -1409.52440392, 
			 "HOMO_LUMO_gap": 0.13864, 
			 "cosmo_polarized_energy": -14.81, 
			 "cosmo_cavitation_energy": 42.45, 
			 "cosmo_dispersion_energy": -29.31, 
			 "cosmo_repulsion_energy": 2.18, 
			 "cosmo_total_nonelectrostatic_energy": 15.33, 
			 "SMD_solvation_energy": 8.76 
		},
		"coords": [
			{
				"x": 1.1525601293,
				"y": -2.0714666806,
				"z": -3.3558054054,
				"element": "C" 
			},
			{
				"x": -0.3622549138,
				"y": -1.9035683633,
				"z": -3.1235038606,
				"element": "C" 
			},
			{
				"x": -0.8748168226,
				"y": -0.5710150165,
				"z": -3.7046656717,
				"element": "C" 
			},
			{
				"x": -0.7543176526,
				"y": -2.1361632967,
				"z": -1.667736651,
				"element": "C" 
			},
			{
				"x": -0.3258205094,
				"y": -1.3493158858,
				"z": -0.5871567909,
				"element": "C" 
			},
			{
				"x": 0.5569171519,
				"y": -0.2769017137,
				"z": -0.8372808053,
				"element": "O" 
			},
			{
				"x": 0.0503310098,
				"y": 1.2951208125,
				"z": -0.651942097,
				"element": "S" 
			},
			{
				"x": -1.4029166114,
				"y": 1.3369446943,
				"z": -0.5481034265,
				"element": "O" 
			},
			{
				"x": 0.7869706216,
				"y": 2.0289259769,
				"z": -1.6713738625,
				"element": "O" 
			},
			{
				"x": 0.7562593913,
				"y": 1.7177639612,
				"z": 0.9442505524,
				"element": "C" 
			},
			{
				"x": 2.1379419101,
				"y": 1.9037088478,
				"z": 1.0452340959,
				"element": "C" 
			},
			{
				"x": 2.6844865708,
				"y": 2.2434216809,
				"z": 2.2790370923,
				"element": "C" 
			},
			{
				"x": 1.8294913626,
				"y": 2.3943569431,
				"z": 3.3700872957,
				"element": "C" 
			},
			{
				"x": 0.4508657961,
				"y": 2.2239346926,
				"z": 3.2744540416,
				"element": "C" 
			},
			{
				"x": -0.0948603924,
				"y": 1.879503378,
				"z": 2.0389494533,
				"element": "C" 
			},
			{
				"x": 2.409529313,
				"y": 2.7554969551,
				"z": 4.6802450358,
				"element": "N" 
			},
			{
				"x": 1.6354490812,
				"y": 2.880862232,
				"z": 5.6263354674,
				"element": "O" 
			},
			{
				"x": 3.6277866542,
				"y": 2.904909597,
				"z": 4.7374612389,
				"element": "O" 
			},
			{
				"x": -0.6643674588,
				"y": -1.6399524488,
				"z": 0.7333373087,
				"element": "C" 
			},
			{
				"x": -1.4833539929,
				"y": -2.7311300189,
				"z": 1.0143557444,
				"element": "C" 
			},
			{
				"x": -1.9410680243,
				"y": -3.5289359889,
				"z": -0.0334135346,
				"element": "C" 
			},
			{
				"x": -1.570479187,
				"y": -3.2318252397,
				"z": -1.344308244,
				"element": "C" 
			},
			{
				"x": 1.72031378,
				"y": -1.2927461619,
				"z": -2.8404883108,
				"element": "H" 
			},
			{
				"x": 1.5027276917,
				"y": -3.0454011332,
				"z": -2.9989079562,
				"element": "H" 
			},
			{
				"x": 1.37750156,
				"y": -2.0024540597,
				"z": -4.4256253303,
				"element": "H" 
			},
			{
				"x": -0.8620267045,
				"y": -2.70412078,
				"z": -3.6838871263,
				"element": "H" 
			},
			{
				"x": -0.7690785414,
				"y": -0.5825285597,
				"z": -4.7949643068,
				"element": "H" 
			},
			{
				"x": -0.3059984277,
				"y": 0.2840842158,
				"z": -3.333451349,
				"element": "H" 
			},
			{
				"x": -1.93117325,
				"y": -0.4106907109,
				"z": -3.469300305,
				"element": "H" 
			},
			{
				"x": 2.7692794761,
				"y": 1.7948881986,
				"z": 0.1707191399,
				"element": "H" 
			},
			{
				"x": 3.7483155202,
				"y": 2.3965953179,
				"z": 2.4087128138,
				"element": "H" 
			},
			{
				"x": -0.1676158783,
				"y": 2.364303305,
				"z": 4.1518829041,
				"element": "H" 
			},
			{
				"x": -1.1637606578,
				"y": 1.7470413334,
				"z": 1.9162110101,
				"element": "H" 
			},
			{
				"x": -0.2776723333,
				"y": -1.0164747174,
				"z": 1.5319920417,
				"element": "H" 
			},
			{
				"x": -1.7521279097,
				"y": -2.9562890896,
				"z": 2.0417520558,
				"element": "H" 
			},
			{
				"x": -2.5782293535,
				"y": -4.3849346826,
				"z": 0.1673804182,
				"element": "H" 
			},
			{
				"x": -1.9209883984,
				"y": -3.8673475945,
				"z": -2.1532826759,
				"element": "H" 
			}
		],
		 "valence_orbital": [ 
			{
				"type": "occ",
				"energy": -0.30932,
				"method": "rhf"
			},
			{
				"type": "occ",
				"energy": -0.30517,
				"method": "rhf"
			},
			{
				"type": "occ",
				"energy": -0.30302,
				"method": "rhf"
			},
			{
				"type": "occ",
				"energy": -0.26035,
				"method": "rhf"
			},
			{
				"type": "occ",
				"energy": -0.25229,
				"method": "rhf"
			},
			{
				"type": "unocc",
				"energy": -0.11365,
				"method": "rhf"
			},
			{
				"type": "unocc",
				"energy": -0.05373,
				"method": "rhf"
			},
			{
				"type": "unocc",
				"energy": -0.04047,
				"method": "rhf"
			},
			{
				"type": "unocc",
				"energy": -0.02081,
				"method": "rhf"
			},
			{
				"type": "unocc",
				"energy": -0.01445,
				"method": "rhf"
			}
		],
		"cosmo_sigma_profile": { 
			"-0.025": 0.0,
			"-0.024": 0.0,
			"-0.023": 0.0,
			"-0.022": 0.0,
			"-0.021": 0.0,
			"-0.02": 0.0,
			"-0.019": 0.0,
			"-0.018": 0.0,
			"-0.017": 0.0,
			"-0.016": 0.0,
			"-0.015": 0.0,
			"-0.014": 0.0,
			"-0.013": 0.0,
			"-0.012": 0.0,
			"-0.011": 0.0,
			"-0.01": 0.463989902226,
			"-0.009": 4.60687782361,
			"-0.008": 8.30135735386,
			"-0.007": 7.6965664541,
			"-0.006": 16.0949487363,
			"-0.005": 19.2090167119,
			"-0.004": 20.8756363645,
			"-0.003": 27.6605056515,
			"-0.002": 33.6614609541,
			"-0.001": 32.4465865058,
			"0.0": 24.5423281444,
			"0.001": 30.2791686227,
			"0.002": 17.7437160536,
			"0.003": 15.8686980285,
			"0.004": 17.1145267693,
			"0.005": 12.839113244,
			"0.006": 9.95699973663,
			"0.007": 13.0917949877,
			"0.008": 10.6636156352,
			"0.009": 13.159257334,
			"0.01": 2.6821935351,
			"0.011": 0.0,
			"0.012": 0.0,
			"0.013": 0.0,
			"0.014": 0.0,
			"0.015": 0.0,
			"0.016": 0.0,
			"0.017": 0.0,
			"0.018": 0.0,
			"0.019": 0.0,
			"0.02": 0.0,
			"0.021": 0.0,
			"0.022": 0.0,
			"0.023": 0.0,
			"0.024": 0.0,
			"0.025": 0.0
		}
	}
}
