{
	 "smiles": "NC(=S)NC1CCOCC1", 
	 "Tm": 502.15, 
	 "num_atms": 22, 
	 "gaussian": { 
		 "optdone": 1, 
		 "sigma_profile": "yes", 
		 "theory": "DFT", 
		 "functional": "B3LYP", 
		 "basiset": "6-31G**", 
		 "properties": { 
			 "R2extent": 2352.562, 
			 "electric_dipole_moment_norm": 4.67704325082, 
			 "electric_quadrupole_moment_norm": 16.5564295514, 
			 "total_energy": -818.781497048, 
			 "HOMO_LUMO_gap": 0.19885, 
			 "cosmo_polarized_energy": -19.48, 
			 "cosmo_cavitation_energy": 24.9, 
			 "cosmo_dispersion_energy": -19.18, 
			 "cosmo_repulsion_energy": 1.53, 
			 "cosmo_total_nonelectrostatic_energy": 7.25, 
			 "SMD_solvation_energy": 2.73 
		},
		"coords": [
			{
				"x": 3.5340117495,
				"y": -0.7166668674,
				"z": -1.3267407727,
				"element": "N" 
			},
			{
				"x": 2.2235240369,
				"y": -0.3185375232,
				"z": -1.4476710588,
				"element": "C" 
			},
			{
				"x": 1.8064204494,
				"y": 0.8839929061,
				"z": -2.5508858549,
				"element": "S" 
			},
			{
				"x": 1.3814881079,
				"y": -0.9595795143,
				"z": -0.5963885426,
				"element": "N" 
			},
			{
				"x": -0.0611667736,
				"y": -0.7497717715,
				"z": -0.3908060618,
				"element": "C" 
			},
			{
				"x": -0.9223324302,
				"y": -1.062773311,
				"z": -1.6243483095,
				"element": "C" 
			},
			{
				"x": -2.4115787135,
				"y": -1.0590488728,
				"z": -1.2074931401,
				"element": "C" 
			},
			{
				"x": -2.6651226997,
				"y": -0.2455357118,
				"z": -0.0630712721,
				"element": "O" 
			},
			{
				"x": -1.8952527062,
				"y": 0.9522945658,
				"z": -0.0805123552,
				"element": "C" 
			},
			{
				"x": -0.4060037961,
				"y": 0.6486332672,
				"z": 0.1759105336,
				"element": "C" 
			},
			{
				"x": 4.1463366701,
				"y": -0.3601061452,
				"z": -2.0450885354,
				"element": "H" 
			},
			{
				"x": 3.742587407,
				"y": -1.649948122,
				"z": -0.9958615431,
				"element": "H" 
			},
			{
				"x": 1.8271710106,
				"y": -1.526319958,
				"z": 0.1124153294,
				"element": "H" 
			},
			{
				"x": -0.3239520885,
				"y": -1.4899651453,
				"z": 0.3726973587,
				"element": "H" 
			},
			{
				"x": -0.7243363545,
				"y": -0.3190179438,
				"z": -2.398313255,
				"element": "H" 
			},
			{
				"x": -0.6510275369,
				"y": -2.0392721803,
				"z": -2.0391857829,
				"element": "H" 
			},
			{
				"x": -3.0358215282,
				"y": -0.7286930873,
				"z": -2.0529482268,
				"element": "H" 
			},
			{
				"x": -2.7400915732,
				"y": -2.0649269804,
				"z": -0.9240788208,
				"element": "H" 
			},
			{
				"x": -2.0214265866,
				"y": 1.4727076233,
				"z": -1.0426142048,
				"element": "H" 
			},
			{
				"x": -2.3087814899,
				"y": 1.5975807093,
				"z": 0.699257389,
				"element": "H" 
			},
			{
				"x": 0.2152641278,
				"y": 1.4057860753,
				"z": -0.308802843,
				"element": "H" 
			},
			{
				"x": -0.1861092823,
				"y": 0.6641679874,
				"z": 1.2491299688,
				"element": "H" 
			}
		],
		 "valence_orbital": [ 
			{
				"type": "occ",
				"energy": -0.29777,
				"method": "rhf"
			},
			{
				"type": "occ",
				"energy": -0.26698,
				"method": "rhf"
			},
			{
				"type": "occ",
				"energy": -0.24501,
				"method": "rhf"
			},
			{
				"type": "occ",
				"energy": -0.21581,
				"method": "rhf"
			},
			{
				"type": "occ",
				"energy": -0.20243,
				"method": "rhf"
			},
			{
				"type": "unocc",
				"energy": -0.00358,
				"method": "rhf"
			},
			{
				"type": "unocc",
				"energy": 0.04593,
				"method": "rhf"
			},
			{
				"type": "unocc",
				"energy": 0.08069,
				"method": "rhf"
			},
			{
				"type": "unocc",
				"energy": 0.09225,
				"method": "rhf"
			},
			{
				"type": "unocc",
				"energy": 0.09607,
				"method": "rhf"
			}
		],
		"cosmo_sigma_profile": { 
			"-0.025": 0.0,
			"-0.024": 0.0,
			"-0.023": 0.0,
			"-0.022": 0.0,
			"-0.021": 0.0,
			"-0.02": 0.0,
			"-0.019": 0.0,
			"-0.018": 0.0,
			"-0.017": 0.588396863142,
			"-0.016": 1.55756290791,
			"-0.015": 2.98215090598,
			"-0.014": 2.56694928485,
			"-0.013": 2.94308206821,
			"-0.012": 3.2226285996,
			"-0.011": 3.10795674231,
			"-0.01": 2.66231160025,
			"-0.009": 2.96605916639,
			"-0.008": 2.08631386008,
			"-0.007": 2.72279077137,
			"-0.006": 2.76099519943,
			"-0.005": 4.83161788574,
			"-0.004": 11.8941024516,
			"-0.003": 22.9634064795,
			"-0.002": 20.8314653482,
			"-0.001": 14.2192816589,
			"0.0": 11.1455152264,
			"0.001": 8.57339124253,
			"0.002": 7.29422106736,
			"0.003": 5.05540643222,
			"0.004": 5.36111948225,
			"0.005": 7.34591218911,
			"0.006": 6.24066458607,
			"0.007": 6.86716001724,
			"0.008": 5.74055816753,
			"0.009": 6.87802919164,
			"0.01": 6.48213312229,
			"0.011": 5.20200675905,
			"0.012": 4.97073564974,
			"0.013": 2.95937508127,
			"0.014": 1.16995923188,
			"0.015": 0.0,
			"0.016": 0.0,
			"0.017": 0.0,
			"0.018": 0.0,
			"0.019": 0.0,
			"0.02": 0.0,
			"0.021": 0.0,
			"0.022": 0.0,
			"0.023": 0.0,
			"0.024": 0.0,
			"0.025": 0.0
		}
	}
}
