{
	 "smiles": "COC1=C(C#N)C(C)=CC(C)=N1", 
	 "Tm": 370.15, 
	 "num_atms": 22, 
	 "gaussian": { 
		 "optdone": 1, 
		 "sigma_profile": "yes", 
		 "theory": "DFT", 
		 "functional": "B3LYP", 
		 "basiset": "6-31G**", 
		 "properties": { 
			 "R2extent": 2628.944, 
			 "electric_dipole_moment_norm": 4.80327135294, 
			 "electric_quadrupole_moment_norm": 11.6602559333, 
			 "total_energy": -533.7065907, 
			 "HOMO_LUMO_gap": 0.18694, 
			 "cosmo_polarized_energy": -10.75, 
			 "cosmo_cavitation_energy": 26.89, 
			 "cosmo_dispersion_energy": -18.85, 
			 "cosmo_repulsion_energy": 1.53, 
			 "cosmo_total_nonelectrostatic_energy": 9.57, 
			 "SMD_solvation_energy": 6.02 
		},
		"coords": [
			{
				"x": -2.4252782708,
				"y": 0.8508775626,
				"z": 0.4559403552,
				"element": "C" 
			},
			{
				"x": -1.0587238374,
				"y": 0.4303855424,
				"z": 0.5456723605,
				"element": "O" 
			},
			{
				"x": -0.637240426,
				"y": -0.504127506,
				"z": -0.3211030102,
				"element": "C" 
			},
			{
				"x": 0.71647636,
				"y": -0.9058288538,
				"z": -0.2158253666,
				"element": "C" 
			},
			{
				"x": 1.5720679157,
				"y": -0.3312761285,
				"z": 0.7714462305,
				"element": "C" 
			},
			{
				"x": 2.2989276665,
				"y": 0.1150688935,
				"z": 1.5637390985,
				"element": "N" 
			},
			{
				"x": 1.1895606174,
				"y": -1.884846081,
				"z": -1.1110595433,
				"element": "C" 
			},
			{
				"x": 2.6180573135,
				"y": -2.3560748433,
				"z": -1.0525159002,
				"element": "C" 
			},
			{
				"x": 0.2864377713,
				"y": -2.3945874092,
				"z": -2.0456339133,
				"element": "C" 
			},
			{
				"x": -1.0338042876,
				"y": -1.9343745741,
				"z": -2.0721635358,
				"element": "C" 
			},
			{
				"x": -2.0265153662,
				"y": -2.4703517266,
				"z": -3.0723035148,
				"element": "C" 
			},
			{
				"x": -1.4827965268,
				"y": -0.9997644457,
				"z": -1.2164810685,
				"element": "N" 
			},
			{
				"x": -2.5439454544,
				"y": 1.5994226705,
				"z": 1.2394625126,
				"element": "H" 
			},
			{
				"x": -3.1053456636,
				"y": 0.0112201628,
				"z": 0.6223670937,
				"element": "H" 
			},
			{
				"x": -2.6379158681,
				"y": 1.2856369589,
				"z": -0.5243601898,
				"element": "H" 
			},
			{
				"x": 2.8497620795,
				"y": -2.7820136641,
				"z": -0.0704880126,
				"element": "H" 
			},
			{
				"x": 2.814527503,
				"y": -3.1133571724,
				"z": -1.8144759277,
				"element": "H" 
			},
			{
				"x": 3.3118011807,
				"y": -1.5221537346,
				"z": -1.203436485,
				"element": "H" 
			},
			{
				"x": 0.6097991043,
				"y": -3.1507520129,
				"z": -2.7542473794,
				"element": "H" 
			},
			{
				"x": -2.1512072803,
				"y": -3.5532521955,
				"z": -2.9605025394,
				"element": "H" 
			},
			{
				"x": -2.9945658096,
				"y": -1.9880441714,
				"z": -2.9307436655,
				"element": "H" 
			},
			{
				"x": -1.6875787209,
				"y": -2.2887072716,
				"z": -4.0983875988,
				"element": "H" 
			}
		],
		 "valence_orbital": [ 
			{
				"type": "occ",
				"energy": -0.33032,
				"method": "rhf"
			},
			{
				"type": "occ",
				"energy": -0.32561,
				"method": "rhf"
			},
			{
				"type": "occ",
				"energy": -0.28104,
				"method": "rhf"
			},
			{
				"type": "occ",
				"energy": -0.2779,
				"method": "rhf"
			},
			{
				"type": "occ",
				"energy": -0.2385,
				"method": "rhf"
			},
			{
				"type": "unocc",
				"energy": -0.05156,
				"method": "rhf"
			},
			{
				"type": "unocc",
				"energy": -0.01423,
				"method": "rhf"
			},
			{
				"type": "unocc",
				"energy": 0.041,
				"method": "rhf"
			},
			{
				"type": "unocc",
				"energy": 0.07173,
				"method": "rhf"
			},
			{
				"type": "unocc",
				"energy": 0.09652,
				"method": "rhf"
			}
		],
		"cosmo_sigma_profile": { 
			"-0.025": 0.0,
			"-0.024": 0.0,
			"-0.023": 0.0,
			"-0.022": 0.0,
			"-0.021": 0.0,
			"-0.02": 0.0,
			"-0.019": 0.0,
			"-0.018": 0.0,
			"-0.017": 0.0,
			"-0.016": 0.0,
			"-0.015": 0.0,
			"-0.014": 0.0,
			"-0.013": 0.0,
			"-0.012": 0.0,
			"-0.011": 0.0,
			"-0.01": 0.0,
			"-0.009": 0.0,
			"-0.008": 0.0,
			"-0.007": 1.91507340655,
			"-0.006": 9.68502621388,
			"-0.005": 19.4074902055,
			"-0.004": 21.3854660559,
			"-0.003": 22.5144774889,
			"-0.002": 21.0479611681,
			"-0.001": 29.881952915,
			"0.0": 19.0337258542,
			"0.001": 10.3614031913,
			"0.002": 8.77794228686,
			"0.003": 5.95581054438,
			"0.004": 5.20055612423,
			"0.005": 4.59629423046,
			"0.006": 5.07026772083,
			"0.007": 6.62435490528,
			"0.008": 6.01039955729,
			"0.009": 4.70815036559,
			"0.01": 4.55875767084,
			"0.011": 2.79303251223,
			"0.012": 2.78902202637,
			"0.013": 1.78535152888,
			"0.014": 0.309696535389,
			"0.015": 0.0,
			"0.016": 0.0,
			"0.017": 0.0,
			"0.018": 0.0,
			"0.019": 0.0,
			"0.02": 0.0,
			"0.021": 0.0,
			"0.022": 0.0,
			"0.023": 0.0,
			"0.024": 0.0,
			"0.025": 0.0
		}
	}
}
