{
	 "smiles": "COC1=C(C=C(Cl)C=C1)C(F)(F)C(O)=O", 
	 "Tm": 384.15, 
	 "num_atms": 22, 
	 "gaussian": { 
		 "optdone": 1, 
		 "sigma_profile": "yes", 
		 "theory": "DFT", 
		 "functional": "B3LYP", 
		 "basiset": "6-31G**", 
		 "properties": { 
			 "R2extent": 4244.1769, 
			 "electric_dipole_moment_norm": 4.43925449822, 
			 "electric_quadrupole_moment_norm": 19.4219498205, 
			 "total_energy": -1232.70806851, 
			 "HOMO_LUMO_gap": 0.19985, 
			 "cosmo_polarized_energy": -13.43, 
			 "cosmo_cavitation_energy": 29.66, 
			 "cosmo_dispersion_energy": -20.67, 
			 "cosmo_repulsion_energy": 1.61, 
			 "cosmo_total_nonelectrostatic_energy": 10.6, 
			 "SMD_solvation_energy": 7.54 
		},
		"coords": [
			{
				"x": 2.8994029351,
				"y": 0.112142967,
				"z": -3.1530810597,
				"element": "C" 
			},
			{
				"x": 1.693266025,
				"y": 0.6252639008,
				"z": -2.6021008408,
				"element": "O" 
			},
			{
				"x": 1.2530033788,
				"y": 0.138231476,
				"z": -1.4112405988,
				"element": "C" 
			},
			{
				"x": 0.0577402161,
				"y": 0.7075258898,
				"z": -0.9293077329,
				"element": "C" 
			},
			{
				"x": -0.47017017,
				"y": 0.2901497951,
				"z": 0.2881725151,
				"element": "C" 
			},
			{
				"x": 0.1890164325,
				"y": -0.6921860448,
				"z": 1.0274219362,
				"element": "C" 
			},
			{
				"x": -0.4823225087,
				"y": -1.213278644,
				"z": 2.5653609211,
				"element": "Cl" 
			},
			{
				"x": 1.3685802899,
				"y": -1.2614273106,
				"z": 0.5598475964,
				"element": "C" 
			},
			{
				"x": 1.9043319922,
				"y": -0.8443130154,
				"z": -0.6608974761,
				"element": "C" 
			},
			{
				"x": -0.6701253033,
				"y": 1.7315392108,
				"z": -1.7694027147,
				"element": "C" 
			},
			{
				"x": -1.7467569327,
				"y": 2.227251419,
				"z": -1.071013771,
				"element": "F" 
			},
			{
				"x": -1.1540090443,
				"y": 1.1588269244,
				"z": -2.9019971854,
				"element": "F" 
			},
			{
				"x": 0.1540933852,
				"y": 2.9713075759,
				"z": -2.1914376304,
				"element": "C" 
			},
			{
				"x": 0.8079144193,
				"y": 3.4834140515,
				"z": -1.1317490831,
				"element": "O" 
			},
			{
				"x": 0.1585078528,
				"y": 3.4437121499,
				"z": -3.2978464558,
				"element": "O" 
			},
			{
				"x": 2.8192590933,
				"y": -0.9629736201,
				"z": -3.3533691888,
				"element": "H" 
			},
			{
				"x": 3.0462481378,
				"y": 0.6449610457,
				"z": -4.0927832213,
				"element": "H" 
			},
			{
				"x": 3.7535818279,
				"y": 0.2969945705,
				"z": -2.4900912289,
				"element": "H" 
			},
			{
				"x": -1.3870275696,
				"y": 0.7329100718,
				"z": 0.6553892083,
				"element": "H" 
			},
			{
				"x": 1.8730729575,
				"y": -2.0242248495,
				"z": 1.1425183488,
				"element": "H" 
			},
			{
				"x": 2.8251277259,
				"y": -1.2920239953,
				"z": -1.0140171425,
				"element": "H" 
			},
			{
				"x": 1.2556648595,
				"y": 4.2875964315,
				"z": -1.4448751958,
				"element": "H" 
			}
		],
		 "valence_orbital": [ 
			{
				"type": "occ",
				"energy": -0.31652,
				"method": "rhf"
			},
			{
				"type": "occ",
				"energy": -0.31519,
				"method": "rhf"
			},
			{
				"type": "occ",
				"energy": -0.29334,
				"method": "rhf"
			},
			{
				"type": "occ",
				"energy": -0.273,
				"method": "rhf"
			},
			{
				"type": "occ",
				"energy": -0.23367,
				"method": "rhf"
			},
			{
				"type": "unocc",
				"energy": -0.03382,
				"method": "rhf"
			},
			{
				"type": "unocc",
				"energy": -0.01286,
				"method": "rhf"
			},
			{
				"type": "unocc",
				"energy": -0.01203,
				"method": "rhf"
			},
			{
				"type": "unocc",
				"energy": 0.02679,
				"method": "rhf"
			},
			{
				"type": "unocc",
				"energy": 0.0649,
				"method": "rhf"
			}
		],
		"cosmo_sigma_profile": { 
			"-0.025": 0.0,
			"-0.024": 0.0,
			"-0.023": 0.0,
			"-0.022": 0.0,
			"-0.021": 0.0,
			"-0.02": 0.281702841524,
			"-0.019": 1.05442639654,
			"-0.018": 0.865294496487,
			"-0.017": 0.960626275438,
			"-0.016": 1.27290356282,
			"-0.015": 0.645407693307,
			"-0.014": 0.157271805877,
			"-0.013": 0.407571053532,
			"-0.012": 0.954768952842,
			"-0.011": 0.930308763832,
			"-0.01": 0.530666013105,
			"-0.009": 0.645682766885,
			"-0.008": 3.69449994193,
			"-0.007": 9.37717453849,
			"-0.006": 13.8286183476,
			"-0.005": 13.0442556093,
			"-0.004": 14.0245730277,
			"-0.003": 11.2076240146,
			"-0.002": 11.0741708685,
			"-0.001": 10.4828332911,
			"0.0": 14.3718496349,
			"0.001": 20.1967727857,
			"0.002": 27.7359072543,
			"0.003": 26.3895219114,
			"0.004": 19.6376102679,
			"0.005": 10.5717468248,
			"0.006": 4.65729895647,
			"0.007": 5.41046976195,
			"0.008": 3.88399589168,
			"0.009": 2.80246456288,
			"0.01": 5.67510803252,
			"0.011": 2.48954463425,
			"0.012": 0.0881111197419,
			"0.013": 0.0,
			"0.014": 0.0,
			"0.015": 0.0,
			"0.016": 0.0,
			"0.017": 0.0,
			"0.018": 0.0,
			"0.019": 0.0,
			"0.02": 0.0,
			"0.021": 0.0,
			"0.022": 0.0,
			"0.023": 0.0,
			"0.024": 0.0,
			"0.025": 0.0
		}
	}
}
