{
	 "smiles": "CC(C)OC(=O)C1=C(C)NC(C(O)=O)=C1C", 
	 "Tm": 457.15, 
	 "num_atms": 31, 
	 "gaussian": { 
		 "optdone": 1, 
		 "sigma_profile": "yes", 
		 "theory": "DFT", 
		 "functional": "B3LYP", 
		 "basiset": "6-31G**", 
		 "properties": { 
			 "R2extent": 4768.422, 
			 "electric_dipole_moment_norm": 6.82842057507, 
			 "electric_quadrupole_moment_norm": 16.6883172097, 
			 "total_energy": -783.902567717, 
			 "HOMO_LUMO_gap": 0.19925, 
			 "cosmo_polarized_energy": -22.54, 
			 "cosmo_cavitation_energy": 34.74, 
			 "cosmo_dispersion_energy": -24.08, 
			 "cosmo_repulsion_energy": 1.89, 
			 "cosmo_total_nonelectrostatic_energy": 12.55, 
			 "SMD_solvation_energy": 7.94 
		},
		"coords": [
			{
				"x": -3.3589206675,
				"y": 2.0270867661,
				"z": 1.3751993716,
				"element": "C" 
			},
			{
				"x": -2.0578763005,
				"y": 2.7039289347,
				"z": 0.9550913735,
				"element": "C" 
			},
			{
				"x": -2.2590050874,
				"y": 3.8553968977,
				"z": -0.0204910011,
				"element": "C" 
			},
			{
				"x": -1.2058818371,
				"y": 1.7399213348,
				"z": 0.2707465463,
				"element": "O" 
			},
			{
				"x": -0.4414997246,
				"y": 0.9313407991,
				"z": 1.0537705476,
				"element": "C" 
			},
			{
				"x": -0.443465583,
				"y": 0.9866554425,
				"z": 2.2712095243,
				"element": "O" 
			},
			{
				"x": 0.3739558985,
				"y": 0.0007659369,
				"z": 0.2633254461,
				"element": "C" 
			},
			{
				"x": 0.4169055503,
				"y": -0.1139503016,
				"z": -1.131068244,
				"element": "C" 
			},
			{
				"x": -0.3338262141,
				"y": 0.5812186358,
				"z": -2.2218455834,
				"element": "C" 
			},
			{
				"x": 1.3378813752,
				"y": -1.0725825668,
				"z": -1.4200072737,
				"element": "N" 
			},
			{
				"x": 1.8612588052,
				"y": -1.6234127446,
				"z": -0.2464496965,
				"element": "C" 
			},
			{
				"x": 2.8812884967,
				"y": -2.6759861856,
				"z": -0.2742712133,
				"element": "C" 
			},
			{
				"x": 3.5795378925,
				"y": -2.7808640275,
				"z": -1.4574914671,
				"element": "O" 
			},
			{
				"x": 3.1216759931,
				"y": -3.4410506521,
				"z": 0.6310358795,
				"element": "O" 
			},
			{
				"x": 1.2766670998,
				"y": -0.963812981,
				"z": 0.8240451318,
				"element": "C" 
			},
			{
				"x": 1.5665323602,
				"y": -1.1935841864,
				"z": 2.2751191401,
				"element": "C" 
			},
			{
				"x": -3.1567127797,
				"y": 1.2105616099,
				"z": 2.071842983,
				"element": "H" 
			},
			{
				"x": -4.0150717175,
				"y": 2.7480286926,
				"z": 1.8738148539,
				"element": "H" 
			},
			{
				"x": -3.8865783681,
				"y": 1.628913462,
				"z": 0.5020442341,
				"element": "H" 
			},
			{
				"x": -1.5186641401,
				"y": 3.041190122,
				"z": 1.8447091882,
				"element": "H" 
			},
			{
				"x": -2.7709362121,
				"y": 3.5151467198,
				"z": -0.9267016144,
				"element": "H" 
			},
			{
				"x": -1.299518775,
				"y": 4.2941680898,
				"z": -0.3088593358,
				"element": "H" 
			},
			{
				"x": -2.8689354917,
				"y": 4.6371003095,
				"z": 0.442784029,
				"element": "H" 
			},
			{
				"x": -0.1329889083,
				"y": 1.6560559781,
				"z": -2.2132727157,
				"element": "H" 
			},
			{
				"x": -0.0511818431,
				"y": 0.1838933373,
				"z": -3.2018709166,
				"element": "H" 
			},
			{
				"x": -1.4129527467,
				"y": 0.4631338309,
				"z": -2.0945382178,
				"element": "H" 
			},
			{
				"x": 1.4309435391,
				"y": -1.4953315862,
				"z": -2.3324837535,
				"element": "H" 
			},
			{
				"x": 3.5642211067,
				"y": -1.9309511275,
				"z": -1.9202588457,
				"element": "H" 
			},
			{
				"x": 1.9292588609,
				"y": -0.2769940365,
				"z": 2.7496298114,
				"element": "H" 
			},
			{
				"x": 2.2984081363,
				"y": -1.9921064835,
				"z": 2.3958555744,
				"element": "H" 
			},
			{
				"x": 0.6504812818,
				"y": -1.4653800202,
				"z": 2.8079862441,
				"element": "H" 
			}
		],
		 "valence_orbital": [ 
			{
				"type": "occ",
				"energy": -0.29444,
				"method": "rhf"
			},
			{
				"type": "occ",
				"energy": -0.27345,
				"method": "rhf"
			},
			{
				"type": "occ",
				"energy": -0.26676,
				"method": "rhf"
			},
			{
				"type": "occ",
				"energy": -0.26029,
				"method": "rhf"
			},
			{
				"type": "occ",
				"energy": -0.23069,
				"method": "rhf"
			},
			{
				"type": "unocc",
				"energy": -0.03144,
				"method": "rhf"
			},
			{
				"type": "unocc",
				"energy": -0.02084,
				"method": "rhf"
			},
			{
				"type": "unocc",
				"energy": 0.03942,
				"method": "rhf"
			},
			{
				"type": "unocc",
				"energy": 0.08014,
				"method": "rhf"
			},
			{
				"type": "unocc",
				"energy": 0.08681,
				"method": "rhf"
			}
		],
		"cosmo_sigma_profile": { 
			"-0.025": 0.0,
			"-0.024": 0.0,
			"-0.023": 0.0,
			"-0.022": 0.0,
			"-0.021": 0.0,
			"-0.02": 0.0,
			"-0.019": 0.479121575167,
			"-0.018": 1.89515737345,
			"-0.017": 2.27086564722,
			"-0.016": 1.81127475482,
			"-0.015": 1.93202652789,
			"-0.014": 1.75427656482,
			"-0.013": 1.90847288856,
			"-0.012": 2.73022270705,
			"-0.011": 1.51839584071,
			"-0.01": 1.21668920766,
			"-0.009": 1.37673932956,
			"-0.008": 1.79490191756,
			"-0.007": 2.07563732555,
			"-0.006": 3.05464662325,
			"-0.005": 5.58668928538,
			"-0.004": 17.7622756389,
			"-0.003": 24.9337845651,
			"-0.002": 27.3980508133,
			"-0.001": 30.058356294,
			"0.0": 33.8695065225,
			"0.001": 24.828832313,
			"0.002": 14.20283183,
			"0.003": 12.7689805957,
			"0.004": 8.96113123543,
			"0.005": 3.65778026765,
			"0.006": 5.32055253957,
			"0.007": 4.32873815606,
			"0.008": 3.94982117275,
			"0.009": 4.74141573045,
			"0.01": 5.75194408421,
			"0.011": 6.72086572547,
			"0.012": 8.30883004207,
			"0.013": 4.03076040022,
			"0.014": 0.278209912894,
			"0.015": 0.0,
			"0.016": 0.0,
			"0.017": 0.0,
			"0.018": 0.0,
			"0.019": 0.0,
			"0.02": 0.0,
			"0.021": 0.0,
			"0.022": 0.0,
			"0.023": 0.0,
			"0.024": 0.0,
			"0.025": 0.0
		}
	}
}
