{
	 "smiles": "COC1=CC=C2C(CCC3=CC=C4N(C)N(C(=O)C4=C23)C2=CC=CC=C2)=C1", 
	 "Tm": 435.15, 
	 "num_atms": 47, 
	 "gaussian": { 
		 "optdone": 1, 
		 "sigma_profile": "yes", 
		 "theory": "DFT", 
		 "functional": "B3LYP", 
		 "basiset": "6-31G**", 
		 "properties": { 
			 "R2extent": 12206.3456, 
			 "electric_dipole_moment_norm": 3.8760210487, 
			 "electric_quadrupole_moment_norm": 20.1419865455, 
			 "total_energy": -1148.44770476, 
			 "HOMO_LUMO_gap": 0.146, 
			 "cosmo_polarized_energy": -15.92, 
			 "cosmo_cavitation_energy": 48.31, 
			 "cosmo_dispersion_energy": -34.78, 
			 "cosmo_repulsion_energy": 2.57, 
			 "cosmo_total_nonelectrostatic_energy": 16.09, 
			 "SMD_solvation_energy": 8.06 
		},
		"coords": [
			{
				"x": 5.045609279,
				"y": -3.7597018813,
				"z": -3.2506043505,
				"element": "C" 
			},
			{
				"x": 4.5473555197,
				"y": -2.4820900185,
				"z": -2.8892030657,
				"element": "O" 
			},
			{
				"x": 3.2962920251,
				"y": -2.4016875229,
				"z": -2.3524835724,
				"element": "C" 
			},
			{
				"x": 2.8557792909,
				"y": -1.1166636794,
				"z": -2.009480293,
				"element": "C" 
			},
			{
				"x": 1.6012400403,
				"y": -0.9357066241,
				"z": -1.4490237357,
				"element": "C" 
			},
			{
				"x": 0.7394970743,
				"y": -2.0238283257,
				"z": -1.2071491008,
				"element": "C" 
			},
			{
				"x": 1.1784725109,
				"y": -3.3104956206,
				"z": -1.5934372095,
				"element": "C" 
			},
			{
				"x": 0.2407967624,
				"y": -4.4831415292,
				"z": -1.4234726187,
				"element": "C" 
			},
			{
				"x": -1.1786025673,
				"y": -4.0436880433,
				"z": -1.7920495166,
				"element": "C" 
			},
			{
				"x": -1.5869733493,
				"y": -2.8540224098,
				"z": -0.9503984946,
				"element": "C" 
			},
			{
				"x": -2.9090274103,
				"y": -2.7406289459,
				"z": -0.4971762165,
				"element": "C" 
			},
			{
				"x": -3.3403081462,
				"y": -1.6815967826,
				"z": 0.2913924651,
				"element": "C" 
			},
			{
				"x": -2.3841816563,
				"y": -0.7287013309,
				"z": 0.6405178934,
				"element": "C" 
			},
			{
				"x": -2.5974692422,
				"y": 0.3910291199,
				"z": 1.4586981422,
				"element": "N" 
			},
			{
				"x": -3.3212957238,
				"y": 0.1585312476,
				"z": 2.718488962,
				"element": "C" 
			},
			{
				"x": -1.306880021,
				"y": 0.9440994873,
				"z": 1.6641364478,
				"element": "N" 
			},
			{
				"x": -0.3238953966,
				"y": 0.2779773838,
				"z": 0.903640016,
				"element": "C" 
			},
			{
				"x": 0.8493010548,
				"y": 0.6291373183,
				"z": 0.8784104691,
				"element": "O" 
			},
			{
				"x": -1.0453425756,
				"y": -0.8173987132,
				"z": 0.2216671246,
				"element": "C" 
			},
			{
				"x": -0.6189530368,
				"y": -1.872999578,
				"z": -0.6305937801,
				"element": "C" 
			},
			{
				"x": -1.2061356303,
				"y": 2.2894862143,
				"z": 2.1033217694,
				"element": "C" 
			},
			{
				"x": -0.0267910314,
				"y": 2.7296765262,
				"z": 2.721982148,
				"element": "C" 
			},
			{
				"x": 0.069219788,
				"y": 4.0525224299,
				"z": 3.1504574638,
				"element": "C" 
			},
			{
				"x": -0.9992089098,
				"y": 4.9373299742,
				"z": 2.9902599375,
				"element": "C" 
			},
			{
				"x": -2.1719329412,
				"y": 4.4907828774,
				"z": 2.3795296395,
				"element": "C" 
			},
			{
				"x": -2.2792820555,
				"y": 3.1756871568,
				"z": 1.9286919863,
				"element": "C" 
			},
			{
				"x": 2.4472955146,
				"y": -3.4948937116,
				"z": -2.1482523229,
				"element": "C" 
			},
			{
				"x": 4.4329446263,
				"y": -4.2287729889,
				"z": -4.0315453733,
				"element": "H" 
			},
			{
				"x": 6.0519841663,
				"y": -3.5926261413,
				"z": -3.6379095128,
				"element": "H" 
			},
			{
				"x": 5.0992982106,
				"y": -4.4337091861,
				"z": -2.3858761684,
				"element": "H" 
			},
			{
				"x": 3.5137509011,
				"y": -0.273569349,
				"z": -2.1915188747,
				"element": "H" 
			},
			{
				"x": 1.2922236381,
				"y": 0.0630378624,
				"z": -1.1775486837,
				"element": "H" 
			},
			{
				"x": 0.2513470586,
				"y": -4.8307379564,
				"z": -0.3798853271,
				"element": "H" 
			},
			{
				"x": 0.5646108251,
				"y": -5.3248946778,
				"z": -2.0442880301,
				"element": "H" 
			},
			{
				"x": -1.89102265,
				"y": -4.8634234353,
				"z": -1.6510868218,
				"element": "H" 
			},
			{
				"x": -1.2037509793,
				"y": -3.7785790265,
				"z": -2.8596494708,
				"element": "H" 
			},
			{
				"x": -3.6208016143,
				"y": -3.5124569425,
				"z": -0.7796039705,
				"element": "H" 
			},
			{
				"x": -4.3710106291,
				"y": -1.6085425772,
				"z": 0.619660223,
				"element": "H" 
			},
			{
				"x": -2.8057177129,
				"y": -0.5692227308,
				"z": 3.3587183903,
				"element": "H" 
			},
			{
				"x": -3.4219799258,
				"y": 1.1050875447,
				"z": 3.2509310882,
				"element": "H" 
			},
			{
				"x": -4.3207296471,
				"y": -0.2074475529,
				"z": 2.4791006099,
				"element": "H" 
			},
			{
				"x": 0.8000589579,
				"y": 2.0428990813,
				"z": 2.8413430818,
				"element": "H" 
			},
			{
				"x": 0.98776345,
				"y": 4.389048699,
				"z": 3.6226322363,
				"element": "H" 
			},
			{
				"x": -0.9181292246,
				"y": 5.9633184404,
				"z": 3.3364197752,
				"element": "H" 
			},
			{
				"x": -3.0080723751,
				"y": 5.1701958157,
				"z": 2.2398751957,
				"element": "H" 
			},
			{
				"x": -3.1769182465,
				"y": 2.8330357904,
				"z": 1.426435799,
				"element": "H" 
			},
			{
				"x": 2.7524720047,
				"y": -4.4969556878,
				"z": -2.4285743538,
				"element": "H" 
			}
		],
		 "valence_orbital": [ 
			{
				"type": "occ",
				"energy": -0.24467,
				"method": "rhf"
			},
			{
				"type": "occ",
				"energy": -0.23449,
				"method": "rhf"
			},
			{
				"type": "occ",
				"energy": -0.22905,
				"method": "rhf"
			},
			{
				"type": "occ",
				"energy": -0.21044,
				"method": "rhf"
			},
			{
				"type": "occ",
				"energy": -0.19217,
				"method": "rhf"
			},
			{
				"type": "unocc",
				"energy": -0.04617,
				"method": "rhf"
			},
			{
				"type": "unocc",
				"energy": -0.0102,
				"method": "rhf"
			},
			{
				"type": "unocc",
				"energy": 0.00142,
				"method": "rhf"
			},
			{
				"type": "unocc",
				"energy": 0.00684,
				"method": "rhf"
			},
			{
				"type": "unocc",
				"energy": 0.01188,
				"method": "rhf"
			}
		],
		"cosmo_sigma_profile": { 
			"-0.025": 0.0,
			"-0.024": 0.0,
			"-0.023": 0.0,
			"-0.022": 0.0,
			"-0.021": 0.0,
			"-0.02": 0.0,
			"-0.019": 0.0,
			"-0.018": 0.0,
			"-0.017": 0.0,
			"-0.016": 0.0,
			"-0.015": 0.0,
			"-0.014": 0.0,
			"-0.013": 0.0,
			"-0.012": 0.0,
			"-0.011": 0.0,
			"-0.01": 0.0,
			"-0.009": 0.0989155866607,
			"-0.008": 1.87592089244,
			"-0.007": 3.51334593468,
			"-0.006": 14.2138528586,
			"-0.005": 33.0457551933,
			"-0.004": 39.2464677132,
			"-0.003": 41.6218933022,
			"-0.002": 35.8243856722,
			"-0.001": 30.6988634092,
			"0.0": 25.2625990751,
			"0.001": 23.1409558994,
			"0.002": 24.3009964422,
			"0.003": 27.5631868021,
			"0.004": 27.8243189794,
			"0.005": 22.9173102496,
			"0.006": 10.9697157968,
			"0.007": 4.1221611336,
			"0.008": 3.96885525333,
			"0.009": 3.27698281942,
			"0.01": 3.11546525327,
			"0.011": 2.85112199046,
			"0.012": 2.6921166429,
			"0.013": 3.09216653549,
			"0.014": 0.15483911345,
			"0.015": 0.0,
			"0.016": 0.0,
			"0.017": 0.0,
			"0.018": 0.0,
			"0.019": 0.0,
			"0.02": 0.0,
			"0.021": 0.0,
			"0.022": 0.0,
			"0.023": 0.0,
			"0.024": 0.0,
			"0.025": 0.0
		}
	}
}
