{
	 "smiles": "NCC1=CC=C(CN2CCC(O)CC2)C=C1", 
	 "Tm": 402.15, 
	 "num_atms": 36, 
	 "gaussian": { 
		 "optdone": 1, 
		 "sigma_profile": "yes", 
		 "theory": "DFT", 
		 "functional": "B3LYP", 
		 "basiset": "6-31G**", 
		 "properties": { 
			 "R2extent": 6038.3322, 
			 "electric_dipole_moment_norm": 1.90785793234, 
			 "electric_quadrupole_moment_norm": 12.7474123315, 
			 "total_energy": -692.146139055, 
			 "HOMO_LUMO_gap": 0.20783, 
			 "cosmo_polarized_energy": -12.66, 
			 "cosmo_cavitation_energy": 36.87, 
			 "cosmo_dispersion_energy": -26.04, 
			 "cosmo_repulsion_energy": 2.07, 
			 "cosmo_total_nonelectrostatic_energy": 12.9, 
			 "SMD_solvation_energy": 3.07 
		},
		"coords": [
			{
				"x": -1.6746971435,
				"y": -3.9649723836,
				"z": 3.3996992383,
				"element": "N" 
			},
			{
				"x": -0.2998760234,
				"y": -3.7416544043,
				"z": 2.9182954099,
				"element": "C" 
			},
			{
				"x": -0.1666397195,
				"y": -2.8098207083,
				"z": 1.7264844712,
				"element": "C" 
			},
			{
				"x": -0.0624835501,
				"y": -1.4219410929,
				"z": 1.9044262155,
				"element": "C" 
			},
			{
				"x": 0.0016661835,
				"y": -0.5583347245,
				"z": 0.8134400849,
				"element": "C" 
			},
			{
				"x": -0.0386328949,
				"y": -1.056247643,
				"z": -0.4963340091,
				"element": "C" 
			},
			{
				"x": 0.0880670066,
				"y": -0.11790909,
				"z": -1.6834973352,
				"element": "C" 
			},
			{
				"x": -0.734993278,
				"y": 1.0801341998,
				"z": -1.5598152269,
				"element": "N" 
			},
			{
				"x": -2.1721514181,
				"y": 0.7709734782,
				"z": -1.6245568648,
				"element": "C" 
			},
			{
				"x": -3.0240815834,
				"y": 2.0499479546,
				"z": -1.767339367,
				"element": "C" 
			},
			{
				"x": -2.2763495124,
				"y": 3.2624880322,
				"z": -1.2251937375,
				"element": "C" 
			},
			{
				"x": -3.1568482088,
				"y": 4.3817799741,
				"z": -1.3010502102,
				"element": "O" 
			},
			{
				"x": -0.9906036388,
				"y": 3.4804324746,
				"z": -2.0495494762,
				"element": "C" 
			},
			{
				"x": -0.3720267829,
				"y": 2.1385995837,
				"z": -2.5028876902,
				"element": "C" 
			},
			{
				"x": -0.144579838,
				"y": -2.4386037133,
				"z": -0.678385561,
				"element": "C" 
			},
			{
				"x": -0.2021623552,
				"y": -3.3027154215,
				"z": 0.4166952551,
				"element": "C" 
			},
			{
				"x": -2.2397874205,
				"y": -4.3245339397,
				"z": 2.6322324377,
				"element": "H" 
			},
			{
				"x": -2.0908456332,
				"y": -3.0676059893,
				"z": 3.6428501711,
				"element": "H" 
			},
			{
				"x": 0.2835189596,
				"y": -3.3503638512,
				"z": 3.7598198734,
				"element": "H" 
			},
			{
				"x": 0.1257042604,
				"y": -4.720759925,
				"z": 2.6700759407,
				"element": "H" 
			},
			{
				"x": -0.0236115586,
				"y": -1.0150905048,
				"z": 2.9132770676,
				"element": "H" 
			},
			{
				"x": 0.0760515305,
				"y": 0.5150033673,
				"z": 0.9621890632,
				"element": "H" 
			},
			{
				"x": -0.1334505214,
				"y": -0.6800654725,
				"z": -2.6128615468,
				"element": "H" 
			},
			{
				"x": 1.1331937781,
				"y": 0.2101334013,
				"z": -1.7639172591,
				"element": "H" 
			},
			{
				"x": -2.4390241315,
				"y": 0.2328521221,
				"z": -0.7092637994,
				"element": "H" 
			},
			{
				"x": -2.3919528934,
				"y": 0.0889857769,
				"z": -2.4689439665,
				"element": "H" 
			},
			{
				"x": -3.2632922468,
				"y": 2.2450580913,
				"z": -2.8196563949,
				"element": "H" 
			},
			{
				"x": -3.9783255099,
				"y": 1.9359603218,
				"z": -1.2445881846,
				"element": "H" 
			},
			{
				"x": -2.0036719331,
				"y": 3.0680736718,
				"z": -0.1770338626,
				"element": "H" 
			},
			{
				"x": -2.6876879599,
				"y": 5.1503714353,
				"z": -0.9512785322,
				"element": "H" 
			},
			{
				"x": -1.2539782788,
				"y": 4.0841599273,
				"z": -2.9255412174,
				"element": "H" 
			},
			{
				"x": -0.2652870401,
				"y": 4.0547457923,
				"z": -1.4604884147,
				"element": "H" 
			},
			{
				"x": 0.7195197289,
				"y": 2.2156216804,
				"z": -2.5342939301,
				"element": "H" 
			},
			{
				"x": -0.6956686872,
				"y": 1.8959544309,
				"z": -3.5339364743,
				"element": "H" 
			},
			{
				"x": -0.1771806333,
				"y": -2.8444294834,
				"z": -1.6870490746,
				"element": "H" 
			},
			{
				"x": -0.276931053,
				"y": -4.3755273689,
				"z": 0.2501769067,
				"element": "H" 
			}
		],
		 "valence_orbital": [ 
			{
				"type": "occ",
				"energy": -0.26161,
				"method": "rhf"
			},
			{
				"type": "occ",
				"energy": -0.24919,
				"method": "rhf"
			},
			{
				"type": "occ",
				"energy": -0.24739,
				"method": "rhf"
			},
			{
				"type": "occ",
				"energy": -0.22433,
				"method": "rhf"
			},
			{
				"type": "occ",
				"energy": -0.2112,
				"method": "rhf"
			},
			{
				"type": "unocc",
				"energy": -0.00337,
				"method": "rhf"
			},
			{
				"type": "unocc",
				"energy": -0.0003,
				"method": "rhf"
			},
			{
				"type": "unocc",
				"energy": 0.07774,
				"method": "rhf"
			},
			{
				"type": "unocc",
				"energy": 0.07955,
				"method": "rhf"
			},
			{
				"type": "unocc",
				"energy": 0.09038,
				"method": "rhf"
			}
		],
		"cosmo_sigma_profile": { 
			"-0.025": 0.0,
			"-0.024": 0.0,
			"-0.023": 0.0,
			"-0.022": 0.0,
			"-0.021": 0.0,
			"-0.02": 0.0,
			"-0.019": 0.0,
			"-0.018": 0.0,
			"-0.017": 0.0,
			"-0.016": 0.0,
			"-0.015": 0.927143811128,
			"-0.014": 0.820684018076,
			"-0.013": 0.572147612353,
			"-0.012": 0.97467866021,
			"-0.011": 1.09685577192,
			"-0.01": 1.29283251764,
			"-0.009": 2.69238106397,
			"-0.008": 3.05074754236,
			"-0.007": 3.31151283473,
			"-0.006": 5.10439616451,
			"-0.005": 11.750729043,
			"-0.004": 22.4393030882,
			"-0.003": 28.2324388832,
			"-0.002": 37.761305311,
			"-0.001": 41.7521310707,
			"0.0": 28.5852028913,
			"0.001": 15.421608598,
			"0.002": 11.856192187,
			"0.003": 11.2623919457,
			"0.004": 9.34123734747,
			"0.005": 10.749048396,
			"0.006": 10.1368444812,
			"0.007": 4.74511938184,
			"0.008": 3.27498181019,
			"0.009": 2.50198063515,
			"0.01": 2.80176970312,
			"0.011": 2.08178194369,
			"0.012": 1.53896148945,
			"0.013": 2.11810153595,
			"0.014": 2.75706451322,
			"0.015": 1.75930181004,
			"0.016": 0.604406096656,
			"0.017": 0.906412564108,
			"0.018": 0.422495387294,
			"0.019": 0.708971173831,
			"0.02": 0.397436734927,
			"0.021": 0.0,
			"0.022": 0.0,
			"0.023": 0.0,
			"0.024": 0.0,
			"0.025": 0.0
		}
	}
}
