{
	 "smiles": "CC(C)(C)OC(=O)N1CC(=O)NC(=O)C1", 
	 "Tm": 403.15, 
	 "num_atms": 29, 
	 "gaussian": { 
		 "optdone": 1, 
		 "sigma_profile": "yes", 
		 "theory": "DFT", 
		 "functional": "B3LYP", 
		 "basiset": "6-31G**", 
		 "properties": { 
			 "R2extent": 4023.7047, 
			 "electric_dipole_moment_norm": 3.11548214728, 
			 "electric_quadrupole_moment_norm": 11.5500159355, 
			 "total_energy": -761.850200047, 
			 "HOMO_LUMO_gap": 0.21627, 
			 "cosmo_polarized_energy": -15.85, 
			 "cosmo_cavitation_energy": 32.05, 
			 "cosmo_dispersion_energy": -22.57, 
			 "cosmo_repulsion_energy": 1.79, 
			 "cosmo_total_nonelectrostatic_energy": 11.27, 
			 "SMD_solvation_energy": 7.63 
		},
		"coords": [
			{
				"x": -3.7205567413,
				"y": 0.7930437536,
				"z": -1.9860175888,
				"element": "C" 
			},
			{
				"x": -3.1193863223,
				"y": 0.01873614,
				"z": -0.810852839,
				"element": "C" 
			},
			{
				"x": -3.0061351957,
				"y": -1.47269412,
				"z": -1.1397370808,
				"element": "C" 
			},
			{
				"x": -3.9099200022,
				"y": 0.2766212544,
				"z": 0.4752611995,
				"element": "C" 
			},
			{
				"x": -1.7702703603,
				"y": 0.6127539209,
				"z": -0.6976749108,
				"element": "O" 
			},
			{
				"x": -0.9008112484,
				"y": 0.184173723,
				"z": 0.2395334759,
				"element": "C" 
			},
			{
				"x": -1.109223655,
				"y": -0.67954878,
				"z": 1.0768120684,
				"element": "O" 
			},
			{
				"x": 0.2990503619,
				"y": 0.8622681282,
				"z": 0.1451005024,
				"element": "N" 
			},
			{
				"x": 1.3561736773,
				"y": 0.5425750472,
				"z": 1.0862023375,
				"element": "C" 
			},
			{
				"x": 2.691153113,
				"y": 0.2916349017,
				"z": 0.3993012688,
				"element": "C" 
			},
			{
				"x": 3.6098937859,
				"y": -0.2985855369,
				"z": 0.9283986684,
				"element": "O" 
			},
			{
				"x": 2.8136509902,
				"y": 0.8239729498,
				"z": -0.88514771,
				"element": "N" 
			},
			{
				"x": 1.9101897447,
				"y": 1.6432470666,
				"z": -1.5578679635,
				"element": "C" 
			},
			{
				"x": 2.1815590403,
				"y": 2.1452284332,
				"z": -2.6295132656,
				"element": "O" 
			},
			{
				"x": 0.5904232549,
				"y": 1.8912857897,
				"z": -0.8362032045,
				"element": "C" 
			},
			{
				"x": -3.1278492341,
				"y": 0.6435943963,
				"z": -2.8931982736,
				"element": "H" 
			},
			{
				"x": -3.7556598117,
				"y": 1.8642719544,
				"z": -1.7672651233,
				"element": "H" 
			},
			{
				"x": -4.7399698743,
				"y": 0.4464605583,
				"z": -2.1787857339,
				"element": "H" 
			},
			{
				"x": -4.0032697151,
				"y": -1.8786974457,
				"z": -1.3378313064,
				"element": "H" 
			},
			{
				"x": -2.5597422605,
				"y": -2.024737551,
				"z": -0.3124798164,
				"element": "H" 
			},
			{
				"x": -2.3966445339,
				"y": -1.6196216594,
				"z": -2.0369726392,
				"element": "H" 
			},
			{
				"x": -3.4712398916,
				"y": -0.2559305469,
				"z": 1.3191601278,
				"element": "H" 
			},
			{
				"x": -3.9309044235,
				"y": 1.3474893248,
				"z": 0.7010174095,
				"element": "H" 
			},
			{
				"x": -4.9425020307,
				"y": -0.0615693542,
				"z": 0.3420506862,
				"element": "H" 
			},
			{
				"x": 1.076300786,
				"y": -0.3529198637,
				"z": 1.6399631573,
				"element": "H" 
			},
			{
				"x": 1.5063206071,
				"y": 1.3541850827,
				"z": 1.8159690783,
				"element": "H" 
			},
			{
				"x": 3.706104705,
				"y": 0.6725294095,
				"z": -1.3455641926,
				"element": "H" 
			},
			{
				"x": -0.1966069877,
				"y": 1.9297060663,
				"z": -1.5849634796,
				"element": "H" 
			},
			{
				"x": 0.6533722223,
				"y": 2.8864269573,
				"z": -0.3667948521,
				"element": "H" 
			}
		],
		 "valence_orbital": [ 
			{
				"type": "occ",
				"energy": -0.30202,
				"method": "rhf"
			},
			{
				"type": "occ",
				"energy": -0.29819,
				"method": "rhf"
			},
			{
				"type": "occ",
				"energy": -0.27964,
				"method": "rhf"
			},
			{
				"type": "occ",
				"energy": -0.27129,
				"method": "rhf"
			},
			{
				"type": "occ",
				"energy": -0.25347,
				"method": "rhf"
			},
			{
				"type": "unocc",
				"energy": -0.0372,
				"method": "rhf"
			},
			{
				"type": "unocc",
				"energy": 0.02078,
				"method": "rhf"
			},
			{
				"type": "unocc",
				"energy": 0.03976,
				"method": "rhf"
			},
			{
				"type": "unocc",
				"energy": 0.07136,
				"method": "rhf"
			},
			{
				"type": "unocc",
				"energy": 0.08656,
				"method": "rhf"
			}
		],
		"cosmo_sigma_profile": { 
			"-0.025": 0.0,
			"-0.024": 0.0,
			"-0.023": 0.0,
			"-0.022": 0.0,
			"-0.021": 0.0,
			"-0.02": 0.0,
			"-0.019": 0.0,
			"-0.018": 0.0,
			"-0.017": 0.0,
			"-0.016": 0.514986301914,
			"-0.015": 0.872148326993,
			"-0.014": 1.11746731877,
			"-0.013": 0.711613424824,
			"-0.012": 0.538245293056,
			"-0.011": 1.35864317381,
			"-0.01": 2.76919856603,
			"-0.009": 3.16299587278,
			"-0.008": 6.55841568855,
			"-0.007": 5.65087040845,
			"-0.006": 7.04802325017,
			"-0.005": 12.8999258245,
			"-0.004": 21.4915480154,
			"-0.003": 23.5697645084,
			"-0.002": 22.8520063964,
			"-0.001": 23.8345605726,
			"0.0": 27.5812165773,
			"0.001": 19.2002175984,
			"0.002": 8.04375668491,
			"0.003": 5.98745425475,
			"0.004": 6.00526091067,
			"0.005": 4.94252202025,
			"0.006": 2.74467601776,
			"0.007": 4.14237140873,
			"0.008": 4.42239859201,
			"0.009": 4.44912849947,
			"0.01": 6.13583944085,
			"0.011": 11.1885087178,
			"0.012": 9.60418880383,
			"0.013": 2.09196697049,
			"0.014": 0.0,
			"0.015": 0.0,
			"0.016": 0.0,
			"0.017": 0.0,
			"0.018": 0.0,
			"0.019": 0.0,
			"0.02": 0.0,
			"0.021": 0.0,
			"0.022": 0.0,
			"0.023": 0.0,
			"0.024": 0.0,
			"0.025": 0.0
		}
	}
}
