{
	 "smiles": "COC(=O)C1=CC=CC=C1SCC(C)=O", 
	 "Tm": 333.65, 
	 "num_atms": 27, 
	 "gaussian": { 
		 "optdone": 1, 
		 "sigma_profile": "yes", 
		 "theory": "DFT", 
		 "functional": "B3LYP", 
		 "basiset": "6-31G**", 
		 "properties": { 
			 "R2extent": 3848.9159, 
			 "electric_dipole_moment_norm": 2.72573344625, 
			 "electric_quadrupole_moment_norm": 8.3076523206, 
			 "total_energy": -1050.25741039, 
			 "HOMO_LUMO_gap": 0.19707, 
			 "cosmo_polarized_energy": -13.43, 
			 "cosmo_cavitation_energy": 32.36, 
			 "cosmo_dispersion_energy": -22.73, 
			 "cosmo_repulsion_energy": 1.75, 
			 "cosmo_total_nonelectrostatic_energy": 11.38, 
			 "SMD_solvation_energy": 6.97 
		},
		"coords": [
			{
				"x": 1.5186686634,
				"y": 2.3642009314,
				"z": -1.5031787294,
				"element": "C" 
			},
			{
				"x": 0.4664267436,
				"y": 1.8767730668,
				"z": -0.6423645391,
				"element": "O" 
			},
			{
				"x": -0.4195008355,
				"y": 1.0595995842,
				"z": -1.2218966219,
				"element": "C" 
			},
			{
				"x": -0.4381851975,
				"y": 0.8017110578,
				"z": -2.4111486448,
				"element": "O" 
			},
			{
				"x": -1.4047001912,
				"y": 0.5061242465,
				"z": -0.2296488882,
				"element": "C" 
			},
			{
				"x": -2.561811741,
				"y": 1.2313168057,
				"z": 0.0684374294,
				"element": "C" 
			},
			{
				"x": -3.4964772014,
				"y": 0.7282506516,
				"z": 0.9739217599,
				"element": "C" 
			},
			{
				"x": -3.2779399359,
				"y": -0.5082270874,
				"z": 1.581104897,
				"element": "C" 
			},
			{
				"x": -2.1336337866,
				"y": -1.2453405064,
				"z": 1.2732313989,
				"element": "C" 
			},
			{
				"x": -1.1883425021,
				"y": -0.7515025104,
				"z": 0.3653356257,
				"element": "C" 
			},
			{
				"x": 0.3202370358,
				"y": -1.6887336282,
				"z": 0.0971923677,
				"element": "S" 
			},
			{
				"x": 0.1773409988,
				"y": -2.1576004899,
				"z": -1.6784368258,
				"element": "C" 
			},
			{
				"x": 1.298912712,
				"y": -1.6160936729,
				"z": -2.568204746,
				"element": "C" 
			},
			{
				"x": 1.0336329046,
				"y": -1.7204672681,
				"z": -4.0572967829,
				"element": "C" 
			},
			{
				"x": 2.3255985114,
				"y": -1.1476582311,
				"z": -2.1209173257,
				"element": "O" 
			},
			{
				"x": 2.1204226713,
				"y": 3.0225751606,
				"z": -0.8777307441,
				"element": "H" 
			},
			{
				"x": 1.0980413496,
				"y": 2.9122575022,
				"z": -2.349396369,
				"element": "H" 
			},
			{
				"x": 2.1141380463,
				"y": 1.5243902062,
				"z": -1.8672307252,
				"element": "H" 
			},
			{
				"x": -2.7228963629,
				"y": 2.1970962364,
				"z": -0.4015836675,
				"element": "H" 
			},
			{
				"x": -4.3881013039,
				"y": 1.3030293976,
				"z": 1.2054335291,
				"element": "H" 
			},
			{
				"x": -4.0006026777,
				"y": -0.9057309367,
				"z": 2.2876824942,
				"element": "H" 
			},
			{
				"x": -1.9630950691,
				"y": -2.2130474277,
				"z": 1.7337590834,
				"element": "H" 
			},
			{
				"x": -0.7917586885,
				"y": -1.8317126391,
				"z": -2.0615445982,
				"element": "H" 
			},
			{
				"x": 0.1998264413,
				"y": -3.2528040015,
				"z": -1.7431561203,
				"element": "H" 
			},
			{
				"x": 1.9637012917,
				"y": -1.5790937655,
				"z": -4.6099664112,
				"element": "H" 
			},
			{
				"x": 0.3279007725,
				"y": -0.9261464685,
				"z": -4.3260977302,
				"element": "H" 
			},
			{
				"x": 0.5752973512,
				"y": -2.6780662136,
				"z": -4.3259991155,
				"element": "H" 
			}
		],
		 "valence_orbital": [ 
			{
				"type": "occ",
				"energy": -0.28631,
				"method": "rhf"
			},
			{
				"type": "occ",
				"energy": -0.27001,
				"method": "rhf"
			},
			{
				"type": "occ",
				"energy": -0.25842,
				"method": "rhf"
			},
			{
				"type": "occ",
				"energy": -0.24587,
				"method": "rhf"
			},
			{
				"type": "occ",
				"energy": -0.22596,
				"method": "rhf"
			},
			{
				"type": "unocc",
				"energy": -0.02889,
				"method": "rhf"
			},
			{
				"type": "unocc",
				"energy": -0.01683,
				"method": "rhf"
			},
			{
				"type": "unocc",
				"energy": -0.0107,
				"method": "rhf"
			},
			{
				"type": "unocc",
				"energy": 0.00416,
				"method": "rhf"
			},
			{
				"type": "unocc",
				"energy": 0.04399,
				"method": "rhf"
			}
		],
		"cosmo_sigma_profile": { 
			"-0.025": 0.0,
			"-0.024": 0.0,
			"-0.023": 0.0,
			"-0.022": 0.0,
			"-0.021": 0.0,
			"-0.02": 0.0,
			"-0.019": 0.0,
			"-0.018": 0.0,
			"-0.017": 0.0,
			"-0.016": 0.0,
			"-0.015": 0.0,
			"-0.014": 0.0,
			"-0.013": 0.0,
			"-0.012": 0.0,
			"-0.011": 0.0,
			"-0.01": 0.0,
			"-0.009": 0.397777488826,
			"-0.008": 4.07733844131,
			"-0.007": 10.9401807614,
			"-0.006": 18.6098204379,
			"-0.005": 21.6591690299,
			"-0.004": 23.404571966,
			"-0.003": 20.4017454639,
			"-0.002": 16.7147319035,
			"-0.001": 17.1821875047,
			"0.0": 13.4368950415,
			"0.001": 14.683626719,
			"0.002": 16.0050165615,
			"0.003": 20.0071044081,
			"0.004": 14.9352151414,
			"0.005": 7.94114698802,
			"0.006": 8.50619847338,
			"0.007": 6.40398475149,
			"0.008": 5.99945044204,
			"0.009": 4.35965571045,
			"0.01": 4.00640649772,
			"0.011": 4.79381440777,
			"0.012": 2.77744059732,
			"0.013": 1.41809075618,
			"0.014": 0.328928876789,
			"0.015": 0.0,
			"0.016": 0.0,
			"0.017": 0.0,
			"0.018": 0.0,
			"0.019": 0.0,
			"0.02": 0.0,
			"0.021": 0.0,
			"0.022": 0.0,
			"0.023": 0.0,
			"0.024": 0.0,
			"0.025": 0.0
		}
	}
}
