{
	 "smiles": "OCC(NC(=O)C1=CC=CC=C1)C(O)=O", 
	 "Tm": 433.15, 
	 "num_atms": 26, 
	 "gaussian": { 
		 "optdone": 1, 
		 "sigma_profile": "yes", 
		 "theory": "DFT", 
		 "functional": "B3LYP", 
		 "basiset": "6-31G**", 
		 "properties": { 
			 "R2extent": 5225.8104, 
			 "electric_dipole_moment_norm": 6.77865450514, 
			 "electric_quadrupole_moment_norm": 18.382399162, 
			 "total_energy": -743.367342083, 
			 "HOMO_LUMO_gap": 0.1988, 
			 "cosmo_polarized_energy": -18.37, 
			 "cosmo_cavitation_energy": 29.85, 
			 "cosmo_dispersion_energy": -22.12, 
			 "cosmo_repulsion_energy": 1.72, 
			 "cosmo_total_nonelectrostatic_energy": 9.44, 
			 "SMD_solvation_energy": 5.86 
		},
		"coords": [
			{
				"x": -0.7344902818,
				"y": 4.6415412162,
				"z": 1.1054012623,
				"element": "O" 
			},
			{
				"x": 0.0274647552,
				"y": 3.8136611414,
				"z": 0.2680930764,
				"element": "C" 
			},
			{
				"x": -0.7469918423,
				"y": 2.5530524336,
				"z": -0.1566920096,
				"element": "C" 
			},
			{
				"x": 0.1252915654,
				"y": 1.7107379344,
				"z": -0.9825336992,
				"element": "N" 
			},
			{
				"x": -0.1153144511,
				"y": 0.3915928366,
				"z": -1.2012297558,
				"element": "C" 
			},
			{
				"x": -1.1925479418,
				"y": -0.1250060879,
				"z": -0.8563802884,
				"element": "O" 
			},
			{
				"x": 0.9553734393,
				"y": -0.4171936655,
				"z": -1.8594927731,
				"element": "C" 
			},
			{
				"x": 2.0003828618,
				"y": 0.1477754176,
				"z": -2.6062858889,
				"element": "C" 
			},
			{
				"x": 2.9641643853,
				"y": -0.6696525998,
				"z": -3.1944203349,
				"element": "C" 
			},
			{
				"x": 2.8946046625,
				"y": -2.0558550408,
				"z": -3.039718299,
				"element": "C" 
			},
			{
				"x": 1.849892012,
				"y": -2.624605265,
				"z": -2.3072274633,
				"element": "C" 
			},
			{
				"x": 0.8800176168,
				"y": -1.8109374458,
				"z": -1.7269467024,
				"element": "C" 
			},
			{
				"x": -2.0562666899,
				"y": 2.936630849,
				"z": -0.888738826,
				"element": "C" 
			},
			{
				"x": -2.8058160576,
				"y": 1.9257121934,
				"z": -1.3106586795,
				"element": "O" 
			},
			{
				"x": -2.3918994761,
				"y": 4.0969553877,
				"z": -1.0392726995,
				"element": "O" 
			},
			{
				"x": -1.4783239133,
				"y": 4.9386016631,
				"z": 0.5542571713,
				"element": "H" 
			},
			{
				"x": 0.3656338791,
				"y": 4.3389534953,
				"z": -0.6411878923,
				"element": "H" 
			},
			{
				"x": 0.9163496814,
				"y": 3.5064978049,
				"z": 0.8310722073,
				"element": "H" 
			},
			{
				"x": -1.0332450684,
				"y": 1.9863780489,
				"z": 0.7393826143,
				"element": "H" 
			},
			{
				"x": 1.0404382696,
				"y": 2.0784160803,
				"z": -1.198708879,
				"element": "H" 
			},
			{
				"x": 2.0532108758,
				"y": 1.2205761221,
				"z": -2.7712049726,
				"element": "H" 
			},
			{
				"x": 3.7634262635,
				"y": -0.2251074088,
				"z": -3.77947573,
				"element": "H" 
			},
			{
				"x": 3.6481112193,
				"y": -2.6907368378,
				"z": -3.4963839116,
				"element": "H" 
			},
			{
				"x": 1.7892632385,
				"y": -3.7025495226,
				"z": -2.1920624012,
				"element": "H" 
			},
			{
				"x": 0.054052817,
				"y": -2.2326928118,
				"z": -1.165081022,
				"element": "H" 
			},
			{
				"x": -2.36748182,
				"y": 1.0604540615,
				"z": -1.0892041032,
				"element": "H" 
			}
		],
		 "valence_orbital": [ 
			{
				"type": "occ",
				"energy": -0.29444,
				"method": "rhf"
			},
			{
				"type": "occ",
				"energy": -0.28005,
				"method": "rhf"
			},
			{
				"type": "occ",
				"energy": -0.276,
				"method": "rhf"
			},
			{
				"type": "occ",
				"energy": -0.27439,
				"method": "rhf"
			},
			{
				"type": "occ",
				"energy": -0.26187,
				"method": "rhf"
			},
			{
				"type": "unocc",
				"energy": -0.06307,
				"method": "rhf"
			},
			{
				"type": "unocc",
				"energy": -0.02768,
				"method": "rhf"
			},
			{
				"type": "unocc",
				"energy": 0.00146,
				"method": "rhf"
			},
			{
				"type": "unocc",
				"energy": 0.03022,
				"method": "rhf"
			},
			{
				"type": "unocc",
				"energy": 0.05282,
				"method": "rhf"
			}
		],
		"cosmo_sigma_profile": { 
			"-0.025": 0.0,
			"-0.024": 0.0,
			"-0.023": 0.0,
			"-0.022": 0.0,
			"-0.021": 0.0,
			"-0.02": 0.0,
			"-0.019": 0.0,
			"-0.018": 0.0,
			"-0.017": 0.0,
			"-0.016": 0.544786548821,
			"-0.015": 0.927149486229,
			"-0.014": 1.38843702393,
			"-0.013": 1.45615881249,
			"-0.012": 1.24754021576,
			"-0.011": 1.81684164021,
			"-0.01": 1.38664125066,
			"-0.009": 3.51990638622,
			"-0.008": 3.81537293726,
			"-0.007": 9.08323570672,
			"-0.006": 16.5754063003,
			"-0.005": 17.3404789156,
			"-0.004": 17.7357325399,
			"-0.003": 16.8971710903,
			"-0.002": 15.9100166298,
			"-0.001": 13.5757984488,
			"0.0": 12.4279940634,
			"0.001": 11.180457748,
			"0.002": 12.5957970927,
			"0.003": 15.8957672764,
			"0.004": 14.5821368887,
			"0.005": 3.94891936283,
			"0.006": 3.64111160508,
			"0.007": 5.98577990733,
			"0.008": 4.57202592574,
			"0.009": 6.30194863434,
			"0.01": 6.93849826269,
			"0.011": 7.37538017807,
			"0.012": 4.22480603501,
			"0.013": 2.49755086961,
			"0.014": 2.10548586707,
			"0.015": 0.0813246950679,
			"0.016": 0.0,
			"0.017": 0.0,
			"0.018": 0.0,
			"0.019": 0.0,
			"0.02": 0.0,
			"0.021": 0.0,
			"0.022": 0.0,
			"0.023": 0.0,
			"0.024": 0.0,
			"0.025": 0.0
		}
	}
}
