{
	 "smiles": "CC1=CC=C(O1)C(C1=CC=C(C)O1)C1=CC(I)=CC=C1O", 
	 "Tm": 377.15, 
	 "num_atms": 36, 
	 "gaussian": { 
		 "optdone": 1, 
		 "sigma_profile": "no", 
		 "theory": "DFT", 
		 "functional": "B3LYP", 
		 "basiset": "6-31G**", 
		 "properties": { 
			 "R2extent": 7873.0183, 
			 "electric_dipole_moment_norm": 2.31079851783, 
			 "electric_quadrupole_moment_norm": 19.7086324325, 
			 "total_energy": -893.87257455, 
			 "HOMO_LUMO_gap": 0.16963, 
			 "cosmo_polarized_energy": -94553.27, 
			 "cosmo_cavitation_energy": 44.15, 
			 "cosmo_dispersion_energy": -30.9, 
			 "cosmo_repulsion_energy": 2.44, 
			 "cosmo_total_nonelectrostatic_energy": 15.69, 
			 "SMD_solvation_energy": 7.79 
		},
		"coords": [
			{
				"x": 3.3653772608,
				"y": 0.8682253538,
				"z": -3.5595634575,
				"element": "C" 
			},
			{
				"x": 2.2448734175,
				"y": 0.8561370882,
				"z": -2.579888348,
				"element": "C" 
			},
			{
				"x": 0.955574723,
				"y": 1.2978462373,
				"z": -2.6142644809,
				"element": "C" 
			},
			{
				"x": 0.3770920956,
				"y": 0.9858399348,
				"z": -1.3379343614,
				"element": "C" 
			},
			{
				"x": 1.3541565338,
				"y": 0.3734546798,
				"z": -0.6114932561,
				"element": "C" 
			},
			{
				"x": 2.5008536384,
				"y": 0.2876495046,
				"z": -1.3586684426,
				"element": "O" 
			},
			{
				"x": 1.4303347337,
				"y": -0.1855615837,
				"z": 0.7823737303,
				"element": "C" 
			},
			{
				"x": 0.0613123807,
				"y": -0.4962494167,
				"z": 1.3231303861,
				"element": "C" 
			},
			{
				"x": -0.785229889,
				"y": 0.1360127333,
				"z": 2.1838520787,
				"element": "C" 
			},
			{
				"x": -1.967581986,
				"y": -0.6742618457,
				"z": 2.2586670871,
				"element": "C" 
			},
			{
				"x": -1.7619081143,
				"y": -1.7449868687,
				"z": 1.4399218832,
				"element": "C" 
			},
			{
				"x": -2.5761940984,
				"y": -2.9371695609,
				"z": 1.077551493,
				"element": "C" 
			},
			{
				"x": -0.5235562417,
				"y": -1.6468012681,
				"z": 0.8615779289,
				"element": "O" 
			},
			{
				"x": 2.2062045167,
				"y": 0.7101054629,
				"z": 1.751219811,
				"element": "C" 
			},
			{
				"x": 2.2216397886,
				"y": 2.0994141217,
				"z": 1.6181614258,
				"element": "C" 
			},
			{
				"x": 2.9206614572,
				"y": 2.8949613271,
				"z": 2.5284399762,
				"element": "C" 
			},
			{
				"x": 2.9211592392,
				"y": 5.0047180759,
				"z": 2.2930666037,
				"element": "I" 
			},
			{
				"x": 3.6220301946,
				"y": 2.3176056301,
				"z": 3.5844442594,
				"element": "C" 
			},
			{
				"x": 3.6138952573,
				"y": 0.9294113416,
				"z": 3.7246681119,
				"element": "C" 
			},
			{
				"x": 2.9102664832,
				"y": 0.1288921574,
				"z": 2.8217604052,
				"element": "C" 
			},
			{
				"x": 2.8738436518,
				"y": -1.2321655401,
				"z": 2.9296298457,
				"element": "O" 
			},
			{
				"x": 3.7051458908,
				"y": -0.147134919,
				"z": -3.7951422703,
				"element": "H" 
			},
			{
				"x": 4.2296458064,
				"y": 1.4222513227,
				"z": -3.1751104156,
				"element": "H" 
			},
			{
				"x": 3.0402625313,
				"y": 1.3437385196,
				"z": -4.4878751153,
				"element": "H" 
			},
			{
				"x": 0.4718140173,
				"y": 1.7846399063,
				"z": -3.4492992717,
				"element": "H" 
			},
			{
				"x": -0.6325033945,
				"y": 1.1798476781,
				"z": -1.0064805445,
				"element": "H" 
			},
			{
				"x": 1.9730330126,
				"y": -1.1369437239,
				"z": 0.7211717043,
				"element": "H" 
			},
			{
				"x": -0.5887485881,
				"y": 1.0604056361,
				"z": 2.7067976423,
				"element": "H" 
			},
			{
				"x": -2.8526976428,
				"y": -0.4853153752,
				"z": 2.8496268715,
				"element": "H" 
			},
			{
				"x": -2.7700659724,
				"y": -2.979401344,
				"z": -0.0005858645,
				"element": "H" 
			},
			{
				"x": -3.5369428153,
				"y": -2.9011494939,
				"z": 1.5965099963,
				"element": "H" 
			},
			{
				"x": -2.0709849671,
				"y": -3.869486244,
				"z": 1.3558721828,
				"element": "H" 
			},
			{
				"x": 1.6884247002,
				"y": 2.5483231124,
				"z": 0.7876311407,
				"element": "H" 
			},
			{
				"x": 4.171546481,
				"y": 2.9291563875,
				"z": 4.290931995,
				"element": "H" 
			},
			{
				"x": 4.1601013123,
				"y": 0.4684953428,
				"z": 4.5451379281,
				"element": "H" 
			},
			{
				"x": 3.4065645859,
				"y": -1.5084043698,
				"z": 3.6862613412,
				"element": "H" 
			}
		],
		 "valence_orbital": [ 
			{
				"type": "occ",
				"energy": -0.2625,
				"method": "rhf"
			},
			{
				"type": "occ",
				"energy": -0.25916,
				"method": "rhf"
			},
			{
				"type": "occ",
				"energy": -0.22049,
				"method": "rhf"
			},
			{
				"type": "occ",
				"energy": -0.21169,
				"method": "rhf"
			},
			{
				"type": "occ",
				"energy": -0.2025,
				"method": "rhf"
			},
			{
				"type": "unocc",
				"energy": -0.03287,
				"method": "rhf"
			},
			{
				"type": "unocc",
				"energy": -0.01482,
				"method": "rhf"
			},
			{
				"type": "unocc",
				"energy": -0.00368,
				"method": "rhf"
			},
			{
				"type": "unocc",
				"energy": 0.01993,
				"method": "rhf"
			},
			{
				"type": "unocc",
				"energy": 0.02393,
				"method": "rhf"
			}
		],
		"cosmo_sigma_profile": { 
			"0.0": 0.0,
			"0.0": 0.0,
			"0.0": 0.0,
			"0.0": 0.0,
			"0.0": 0.0,
			"0.0": 0.0,
			"0.0": 0.0,
			"0.0": 0.0,
			"0.0": 0.0,
			"0.0": 0.0,
			"0.0": 0.0,
			"0.0": 0.0,
			"0.0": 0.0,
			"0.0": 0.0,
			"0.0": 0.0,
			"0.0": 0.0,
			"0.0": 0.0,
			"0.0": 0.0,
			"0.0": 0.0,
			"0.0": 0.0,
			"0.0": 0.0,
			"0.0": 0.0,
			"0.0": 0.0,
			"0.0": 0.0,
			"0.0": 0.0,
			"0.0": 0.0,
			"0.0": 0.0,
			"0.0": 0.0,
			"0.0": 0.0,
			"0.0": 0.0,
			"0.0": 0.0,
			"0.0": 0.0,
			"0.0": 0.0,
			"0.0": 0.0,
			"0.0": 0.0,
			"0.0": 0.0,
			"0.0": 0.0,
			"0.0": 0.0,
			"0.0": 0.0,
			"0.0": 0.0,
			"0.0": 0.0,
			"0.0": 0.0,
			"0.0": 0.0,
			"0.0": 0.0,
			"0.0": 0.0,
			"0.0": 0.0,
			"0.0": 0.0,
			"0.0": 0.0,
			"0.0": 0.0,
			"0.0": 0.0,
			"0.0": 0.0
		}
	}
}
