{
	 "smiles": "OC(=O)CC1=CN(N=C1C1=CC=C(Br)C=C1)C1=CC=CC=C1", 
	 "Tm": 409.15, 
	 "num_atms": 35, 
	 "gaussian": { 
		 "optdone": 1, 
		 "sigma_profile": "yes", 
		 "theory": "DFT", 
		 "functional": "B3LYP", 
		 "basiset": "6-31G**", 
		 "properties": { 
			 "R2extent": 12550.9363, 
			 "electric_dipole_moment_norm": 6.75305469325, 
			 "electric_quadrupole_moment_norm": 12.8781255752, 
			 "total_energy": -3486.99834377, 
			 "HOMO_LUMO_gap": 0.17268, 
			 "cosmo_polarized_energy": -18.73, 
			 "cosmo_cavitation_energy": 42.28, 
			 "cosmo_dispersion_energy": -30.28, 
			 "cosmo_repulsion_energy": 2.29, 
			 "cosmo_total_nonelectrostatic_energy": 14.29, 
			 "SMD_solvation_energy": 6.24 
		},
		"coords": [
			{
				"x": 1.3514029632,
				"y": -2.8265988434,
				"z": -2.0601180099,
				"element": "O" 
			},
			{
				"x": 1.8377608146,
				"y": -1.6348679489,
				"z": -2.473197264,
				"element": "C" 
			},
			{
				"x": 2.9410994638,
				"y": -1.5423166563,
				"z": -2.9516965241,
				"element": "O" 
			},
			{
				"x": 0.8826892869,
				"y": -0.4371576584,
				"z": -2.3381830518,
				"element": "C" 
			},
			{
				"x": -0.0926613812,
				"y": -0.5107171666,
				"z": -1.1993528814,
				"element": "C" 
			},
			{
				"x": -1.4055771733,
				"y": -0.9394534776,
				"z": -1.2847447345,
				"element": "C" 
			},
			{
				"x": -1.9583744203,
				"y": -0.8210456405,
				"z": -0.0435229298,
				"element": "N" 
			},
			{
				"x": -1.0721016792,
				"y": -0.3280893883,
				"z": 0.849369129,
				"element": "N" 
			},
			{
				"x": 0.0661803711,
				"y": -0.13444592,
				"z": 0.175750486,
				"element": "C" 
			},
			{
				"x": 1.2299242691,
				"y": 0.4398668007,
				"z": 0.876850249,
				"element": "C" 
			},
			{
				"x": 1.0221828811,
				"y": 1.1818305141,
				"z": 2.0541666002,
				"element": "C" 
			},
			{
				"x": 2.0870064753,
				"y": 1.7395134189,
				"z": 2.7532468247,
				"element": "C" 
			},
			{
				"x": 3.3853549681,
				"y": 1.5612772139,
				"z": 2.2744071834,
				"element": "C" 
			},
			{
				"x": 4.853031274,
				"y": 2.3315669005,
				"z": 3.2237114515,
				"element": "Br" 
			},
			{
				"x": 3.6237360412,
				"y": 0.8288150522,
				"z": 1.1149969276,
				"element": "C" 
			},
			{
				"x": 2.5486271619,
				"y": 0.2696503278,
				"z": 0.4236957645,
				"element": "C" 
			},
			{
				"x": -3.2860495632,
				"y": -1.1350790171,
				"z": 0.3576611983,
				"element": "C" 
			},
			{
				"x": -4.0530279654,
				"y": -2.0360151051,
				"z": -0.3890040772,
				"element": "C" 
			},
			{
				"x": -5.3612764062,
				"y": -2.3157793052,
				"z": 0.004305363,
				"element": "C" 
			},
			{
				"x": -5.900739642,
				"y": -1.7175491708,
				"z": 1.1438177728,
				"element": "C" 
			},
			{
				"x": -5.1205043282,
				"y": -0.8327629058,
				"z": 1.8917738515,
				"element": "C" 
			},
			{
				"x": -3.8164188915,
				"y": -0.5336984288,
				"z": 1.5039175533,
				"element": "C" 
			},
			{
				"x": 0.4960933716,
				"y": -2.6841197809,
				"z": -1.6211269694,
				"element": "H" 
			},
			{
				"x": 0.3349117739,
				"y": -0.3797286691,
				"z": -3.2876722948,
				"element": "H" 
			},
			{
				"x": 1.5047582107,
				"y": 0.4585530332,
				"z": -2.2855978265,
				"element": "H" 
			},
			{
				"x": -1.9831913647,
				"y": -1.2545781077,
				"z": -2.141006062,
				"element": "H" 
			},
			{
				"x": 0.0092671782,
				"y": 1.3186620715,
				"z": 2.4157998965,
				"element": "H" 
			},
			{
				"x": 1.9127076439,
				"y": 2.3116912924,
				"z": 3.6573934868,
				"element": "H" 
			},
			{
				"x": 4.6361529344,
				"y": 0.6864851077,
				"z": 0.7551499968,
				"element": "H" 
			},
			{
				"x": 2.7681533413,
				"y": -0.3150916379,
				"z": -0.4615006569,
				"element": "H" 
			},
			{
				"x": -3.6313192285,
				"y": -2.534373878,
				"z": -1.2553879883,
				"element": "H" 
			},
			{
				"x": -5.9529425083,
				"y": -3.0158975554,
				"z": -0.5776588527,
				"element": "H" 
			},
			{
				"x": -6.9176149794,
				"y": -1.9431475639,
				"z": 1.4494344077,
				"element": "H" 
			},
			{
				"x": -5.5299036008,
				"y": -0.3648458329,
				"z": 2.782024208,
				"element": "H" 
			},
			{
				"x": -3.2009372923,
				"y": 0.1527479258,
				"z": 2.0716977726,
				"element": "H" 
			}
		],
		 "valence_orbital": [ 
			{
				"type": "occ",
				"energy": -0.27192,
				"method": "rhf"
			},
			{
				"type": "occ",
				"energy": -0.26667,
				"method": "rhf"
			},
			{
				"type": "occ",
				"energy": -0.26503,
				"method": "rhf"
			},
			{
				"type": "occ",
				"energy": -0.2518,
				"method": "rhf"
			},
			{
				"type": "occ",
				"energy": -0.22461,
				"method": "rhf"
			},
			{
				"type": "unocc",
				"energy": -0.05193,
				"method": "rhf"
			},
			{
				"type": "unocc",
				"energy": -0.02633,
				"method": "rhf"
			},
			{
				"type": "unocc",
				"energy": -0.02047,
				"method": "rhf"
			},
			{
				"type": "unocc",
				"energy": -0.01584,
				"method": "rhf"
			},
			{
				"type": "unocc",
				"energy": 0.00333,
				"method": "rhf"
			}
		],
		"cosmo_sigma_profile": { 
			"-0.025": 0.0,
			"-0.024": 0.0,
			"-0.023": 0.0,
			"-0.022": 0.0,
			"-0.021": 0.0,
			"-0.02": 0.0,
			"-0.019": 0.0,
			"-0.018": 0.0,
			"-0.017": 0.0,
			"-0.016": 0.0,
			"-0.015": 0.214347925712,
			"-0.014": 0.423869088575,
			"-0.013": 0.791663928568,
			"-0.012": 1.44518289535,
			"-0.011": 2.13099761822,
			"-0.01": 4.87867741303,
			"-0.009": 5.78417902768,
			"-0.008": 6.81767952658,
			"-0.007": 9.94601356634,
			"-0.006": 17.8324578479,
			"-0.005": 21.9252371618,
			"-0.004": 23.2552110352,
			"-0.003": 21.2502833068,
			"-0.002": 17.8286969375,
			"-0.001": 18.258743435,
			"0.0": 19.3952299929,
			"0.001": 26.8844602505,
			"0.002": 29.784917157,
			"0.003": 35.8886702403,
			"0.004": 30.7910905214,
			"0.005": 15.2986417142,
			"0.006": 2.83385818918,
			"0.007": 2.93704417806,
			"0.008": 4.62759991944,
			"0.009": 3.58826527872,
			"0.01": 5.9652045368,
			"0.011": 5.09759789459,
			"0.012": 5.4884045674,
			"0.013": 2.02491253811,
			"0.014": 0.0261550440786,
			"0.015": 0.0,
			"0.016": 0.0,
			"0.017": 0.0,
			"0.018": 0.0,
			"0.019": 0.0,
			"0.02": 0.0,
			"0.021": 0.0,
			"0.022": 0.0,
			"0.023": 0.0,
			"0.024": 0.0,
			"0.025": 0.0
		}
	}
}
