{
	 "smiles": "CC1=C(F)C=C(C=C1)C(=O)C1=C(N)SC2=C1CCC2", 
	 "Tm": 451.15, 
	 "num_atms": 33, 
	 "gaussian": { 
		 "optdone": 1, 
		 "sigma_profile": "yes", 
		 "theory": "DFT", 
		 "functional": "B3LYP", 
		 "basiset": "6-31G**", 
		 "properties": { 
			 "R2extent": 6835.6339, 
			 "electric_dipole_moment_norm": 2.55765764324, 
			 "electric_quadrupole_moment_norm": 12.4782628855, 
			 "total_energy": -1208.03792883, 
			 "HOMO_LUMO_gap": 0.14235, 
			 "cosmo_polarized_energy": -10.57, 
			 "cosmo_cavitation_energy": 37.41, 
			 "cosmo_dispersion_energy": -27.39, 
			 "cosmo_repulsion_energy": 2.05, 
			 "cosmo_total_nonelectrostatic_energy": 12.07, 
			 "SMD_solvation_energy": 5.93 
		},
		"coords": [
			{
				"x": -0.7585362114,
				"y": 0.9815964641,
				"z": -4.3883447127,
				"element": "C" 
			},
			{
				"x": -0.3155653031,
				"y": 0.9459996818,
				"z": -2.9492896242,
				"element": "C" 
			},
			{
				"x": 0.90402995,
				"y": 0.3556138516,
				"z": -2.5994650572,
				"element": "C" 
			},
			{
				"x": 1.6569909278,
				"y": -0.1756221731,
				"z": -3.5920370693,
				"element": "F" 
			},
			{
				"x": 1.3774317746,
				"y": 0.2992700327,
				"z": -1.3004579679,
				"element": "C" 
			},
			{
				"x": 0.5896264157,
				"y": 0.8225765288,
				"z": -0.2650454059,
				"element": "C" 
			},
			{
				"x": -0.631703133,
				"y": 1.4300159075,
				"z": -0.5798208566,
				"element": "C" 
			},
			{
				"x": -1.0678179896,
				"y": 1.4932438767,
				"z": -1.9048088896,
				"element": "C" 
			},
			{
				"x": 1.1557360636,
				"y": 0.8359977512,
				"z": 1.1259730518,
				"element": "C" 
			},
			{
				"x": 2.3580749373,
				"y": 1.1398120493,
				"z": 1.2500217012,
				"element": "O" 
			},
			{
				"x": 0.3193999199,
				"y": 0.525944997,
				"z": 2.2778740941,
				"element": "C" 
			},
			{
				"x": 0.8026632914,
				"y": 0.7992764992,
				"z": 3.5733607427,
				"element": "C" 
			},
			{
				"x": 1.9835362743,
				"y": 1.3812461281,
				"z": 3.876306874,
				"element": "N" 
			},
			{
				"x": -0.3314993105,
				"y": 0.3253232093,
				"z": 4.8304752761,
				"element": "S" 
			},
			{
				"x": -1.4274384155,
				"y": -0.3152832814,
				"z": 3.6187426638,
				"element": "C" 
			},
			{
				"x": -0.9685201375,
				"y": -0.1385567829,
				"z": 2.3547408646,
				"element": "C" 
			},
			{
				"x": -1.9454232386,
				"y": -0.7484660072,
				"z": 1.3711545277,
				"element": "C" 
			},
			{
				"x": -2.8712659988,
				"y": -1.6043476807,
				"z": 2.2858623297,
				"element": "C" 
			},
			{
				"x": -2.7495567731,
				"y": -1.0161816569,
				"z": 3.7237063328,
				"element": "C" 
			},
			{
				"x": -0.0298492802,
				"y": 1.5071766514,
				"z": -5.0149020857,
				"element": "H" 
			},
			{
				"x": -0.8553667687,
				"y": -0.0294439935,
				"z": -4.7989005326,
				"element": "H" 
			},
			{
				"x": -1.7229995048,
				"y": 1.4854355764,
				"z": -4.4878775077,
				"element": "H" 
			},
			{
				"x": 2.3470535306,
				"y": -0.137329117,
				"z": -1.0904002741,
				"element": "H" 
			},
			{
				"x": -1.2255148613,
				"y": 1.8824517458,
				"z": 0.2071029726,
				"element": "H" 
			},
			{
				"x": -2.0104586122,
				"y": 1.981457232,
				"z": -2.1380752485,
				"element": "H" 
			},
			{
				"x": 2.6262039067,
				"y": 1.4365347825,
				"z": 3.0866819335,
				"element": "H" 
			},
			{
				"x": 2.3243676602,
				"y": 1.3910611466,
				"z": 4.8236434815,
				"element": "H" 
			},
			{
				"x": -1.4581300841,
				"y": -1.3510739484,
				"z": 0.59790042,
				"element": "H" 
			},
			{
				"x": -2.5158356253,
				"y": 0.0249818713,
				"z": 0.8425469507,
				"element": "H" 
			},
			{
				"x": -3.9054383313,
				"y": -1.624473345,
				"z": 1.930092238,
				"element": "H" 
			},
			{
				"x": -2.5087521173,
				"y": -2.6371973233,
				"z": 2.2963370879,
				"element": "H" 
			},
			{
				"x": -3.5666992155,
				"y": -0.3160077372,
				"z": 3.9503743545,
				"element": "H" 
			},
			{
				"x": -2.7793437401,
				"y": -1.7977329366,
				"z": 4.4915273349,
				"element": "H" 
			}
		],
		 "valence_orbital": [ 
			{
				"type": "occ",
				"energy": -0.25792,
				"method": "rhf"
			},
			{
				"type": "occ",
				"energy": -0.24869,
				"method": "rhf"
			},
			{
				"type": "occ",
				"energy": -0.24194,
				"method": "rhf"
			},
			{
				"type": "occ",
				"energy": -0.23822,
				"method": "rhf"
			},
			{
				"type": "occ",
				"energy": -0.18962,
				"method": "rhf"
			},
			{
				"type": "unocc",
				"energy": -0.04727,
				"method": "rhf"
			},
			{
				"type": "unocc",
				"energy": -0.00349,
				"method": "rhf"
			},
			{
				"type": "unocc",
				"energy": 0.00266,
				"method": "rhf"
			},
			{
				"type": "unocc",
				"energy": 0.01202,
				"method": "rhf"
			},
			{
				"type": "unocc",
				"energy": 0.02552,
				"method": "rhf"
			}
		],
		"cosmo_sigma_profile": { 
			"-0.025": 0.0,
			"-0.024": 0.0,
			"-0.023": 0.0,
			"-0.022": 0.0,
			"-0.021": 0.0,
			"-0.02": 0.0,
			"-0.019": 0.0,
			"-0.018": 0.0,
			"-0.017": 0.0,
			"-0.016": 0.0647242368659,
			"-0.015": 0.870099401504,
			"-0.014": 1.38760191225,
			"-0.013": 1.52649081713,
			"-0.012": 0.727703540738,
			"-0.011": 1.25771820307,
			"-0.01": 1.72907077022,
			"-0.009": 2.0821617411,
			"-0.008": 1.49921661828,
			"-0.007": 2.59658434327,
			"-0.006": 5.48432485026,
			"-0.005": 10.652185191,
			"-0.004": 18.3696710975,
			"-0.003": 26.2556626227,
			"-0.002": 30.7166840541,
			"-0.001": 33.1206184634,
			"0.0": 31.3586869406,
			"0.001": 25.1925716542,
			"0.002": 23.9402391289,
			"0.003": 24.4607004581,
			"0.004": 27.0347847641,
			"0.005": 11.8904957555,
			"0.006": 2.83271304752,
			"0.007": 2.99853148958,
			"0.008": 2.02541708811,
			"0.009": 1.09462257537,
			"0.01": 2.04333009911,
			"0.011": 1.75762669753,
			"0.012": 1.93097487276,
			"0.013": 1.44883592323,
			"0.014": 0.849966740893,
			"0.015": 0.0,
			"0.016": 0.0,
			"0.017": 0.0,
			"0.018": 0.0,
			"0.019": 0.0,
			"0.02": 0.0,
			"0.021": 0.0,
			"0.022": 0.0,
			"0.023": 0.0,
			"0.024": 0.0,
			"0.025": 0.0
		}
	}
}
