{
	 "smiles": "CCC1=NN2C(S1)=NC(CCl)=CC2=O", 
	 "Tm": 371.15, 
	 "num_atms": 22, 
	 "gaussian": { 
		 "optdone": 1, 
		 "sigma_profile": "yes", 
		 "theory": "DFT", 
		 "functional": "B3LYP", 
		 "basiset": "6-31G**", 
		 "properties": { 
			 "R2extent": 5597.5022, 
			 "electric_dipole_moment_norm": 4.40067324508, 
			 "electric_quadrupole_moment_norm": 22.2485503912, 
			 "total_energy": -1407.51706031, 
			 "HOMO_LUMO_gap": 0.16989, 
			 "cosmo_polarized_energy": -15.94, 
			 "cosmo_cavitation_energy": 30.27, 
			 "cosmo_dispersion_energy": -22.63, 
			 "cosmo_repulsion_energy": 1.77, 
			 "cosmo_total_nonelectrostatic_energy": 9.41, 
			 "SMD_solvation_energy": 2.96 
		},
		"coords": [
			{
				"x": 2.3751305501,
				"y": 0.618173599,
				"z": -3.0855278399,
				"element": "C" 
			},
			{
				"x": 2.6751405127,
				"y": 1.1850762216,
				"z": -1.6872846423,
				"element": "C" 
			},
			{
				"x": 2.0128283266,
				"y": 0.4263585653,
				"z": -0.5765472654,
				"element": "C" 
			},
			{
				"x": 2.6777130067,
				"y": -0.2240312372,
				"z": 0.3180220516,
				"element": "N" 
			},
			{
				"x": 1.8323572453,
				"y": -0.8300813767,
				"z": 1.2092367825,
				"element": "N" 
			},
			{
				"x": 0.4793360899,
				"y": -0.6557774684,
				"z": 1.0164859193,
				"element": "C" 
			},
			{
				"x": 0.245296248,
				"y": 0.3532650319,
				"z": -0.407425687,
				"element": "S" 
			},
			{
				"x": -0.4658710423,
				"y": -1.1520745237,
				"z": 1.7524311064,
				"element": "N" 
			},
			{
				"x": -0.0414097993,
				"y": -1.906816715,
				"z": 2.8193091222,
				"element": "C" 
			},
			{
				"x": -1.1406334782,
				"y": -2.4722939976,
				"z": 3.673172256,
				"element": "C" 
			},
			{
				"x": -1.8429343586,
				"y": -1.2045387351,
				"z": 4.7784970811,
				"element": "Cl" 
			},
			{
				"x": 1.2757135573,
				"y": -2.1516975569,
				"z": 3.1062806998,
				"element": "C" 
			},
			{
				"x": 2.3573093561,
				"y": -1.6229933265,
				"z": 2.302143683,
				"element": "C" 
			},
			{
				"x": 3.5526614543,
				"y": -1.7724949064,
				"z": 2.4504234032,
				"element": "O" 
			},
			{
				"x": 2.7051571324,
				"y": -0.4214566354,
				"z": -3.1647507026,
				"element": "H" 
			},
			{
				"x": 1.3057947105,
				"y": 0.6544274088,
				"z": -3.3162044059,
				"element": "H" 
			},
			{
				"x": 2.9010272048,
				"y": 1.2027281363,
				"z": -3.8453892774,
				"element": "H" 
			},
			{
				"x": 3.7490019198,
				"y": 1.1546965365,
				"z": -1.4824571647,
				"element": "H" 
			},
			{
				"x": 2.3625721887,
				"y": 2.2353109839,
				"z": -1.6363468737,
				"element": "H" 
			},
			{
				"x": -0.7819642598,
				"y": -3.2773557701,
				"z": 4.3130318155,
				"element": "H" 
			},
			{
				"x": -1.9656485057,
				"y": -2.818541066,
				"z": 3.0507831162,
				"element": "H" 
			},
			{
				"x": 1.5677219406,
				"y": -2.7517831684,
				"z": 3.9596168223,
				"element": "H" 
			}
		],
		 "valence_orbital": [ 
			{
				"type": "occ",
				"energy": -0.29974,
				"method": "rhf"
			},
			{
				"type": "occ",
				"energy": -0.29386,
				"method": "rhf"
			},
			{
				"type": "occ",
				"energy": -0.29179,
				"method": "rhf"
			},
			{
				"type": "occ",
				"energy": -0.2692,
				"method": "rhf"
			},
			{
				"type": "occ",
				"energy": -0.23963,
				"method": "rhf"
			},
			{
				"type": "unocc",
				"energy": -0.06974,
				"method": "rhf"
			},
			{
				"type": "unocc",
				"energy": -0.02572,
				"method": "rhf"
			},
			{
				"type": "unocc",
				"energy": -0.02374,
				"method": "rhf"
			},
			{
				"type": "unocc",
				"energy": -0.01851,
				"method": "rhf"
			},
			{
				"type": "unocc",
				"energy": 0.03549,
				"method": "rhf"
			}
		],
		"cosmo_sigma_profile": { 
			"-0.025": 0.0,
			"-0.024": 0.0,
			"-0.023": 0.0,
			"-0.022": 0.0,
			"-0.021": 0.0,
			"-0.02": 0.0,
			"-0.019": 0.0,
			"-0.018": 0.0,
			"-0.017": 0.0,
			"-0.016": 0.0,
			"-0.015": 0.0,
			"-0.014": 0.0,
			"-0.013": 0.0,
			"-0.012": 0.0,
			"-0.011": 0.0,
			"-0.01": 0.257042275816,
			"-0.009": 2.94634280301,
			"-0.008": 7.16167041354,
			"-0.007": 9.84262278333,
			"-0.006": 13.7335286638,
			"-0.005": 16.8756809831,
			"-0.004": 20.6878646546,
			"-0.003": 24.5318742439,
			"-0.002": 20.8239388185,
			"-0.001": 21.3592068325,
			"0.0": 18.6607979703,
			"0.001": 13.1538012235,
			"0.002": 8.39533468248,
			"0.003": 7.7631403881,
			"0.004": 5.75673217953,
			"0.005": 9.60493128917,
			"0.006": 13.1991478383,
			"0.007": 4.76257612612,
			"0.008": 3.56517817897,
			"0.009": 2.83535921475,
			"0.01": 2.80962936665,
			"0.011": 3.86055758464,
			"0.012": 6.47997033535,
			"0.013": 4.32991338432,
			"0.014": 1.9164109078,
			"0.015": 1.07915287916,
			"0.016": 0.0268751747534,
			"0.017": 0.0,
			"0.018": 0.0,
			"0.019": 0.0,
			"0.02": 0.0,
			"0.021": 0.0,
			"0.022": 0.0,
			"0.023": 0.0,
			"0.024": 0.0,
			"0.025": 0.0
		}
	}
}
