{
	 "smiles": "CCCCCCCCCCOC(=O)C1=CC=CC=C1C(=O)OCCCCCCCC", 
	 "Tm": 233.15, 
	 "num_atms": 72, 
	 "gaussian": { 
		 "optdone": 1, 
		 "sigma_profile": "yes", 
		 "theory": "DFT", 
		 "functional": "B3LYP", 
		 "basiset": "6-31G**", 
		 "properties": { 
			 "R2extent": 20223.8517, 
			 "electric_dipole_moment_norm": 3.71623948367, 
			 "electric_quadrupole_moment_norm": 18.1819207374, 
			 "total_energy": -1317.05372045, 
			 "HOMO_LUMO_gap": 0.2014, 
			 "cosmo_polarized_energy": -12.36, 
			 "cosmo_cavitation_energy": 72.03, 
			 "cosmo_dispersion_energy": -43.53, 
			 "cosmo_repulsion_energy": 3.42, 
			 "cosmo_total_nonelectrostatic_energy": 31.92, 
			 "SMD_solvation_energy": 11.18 
		},
		"coords": [
			{
				"x": -1.1720254229,
				"y": 2.4657152888,
				"z": 1.3988869344,
				"element": "C" 
			},
			{
				"x": -2.2615383867,
				"y": 2.0430160803,
				"z": 0.4073231184,
				"element": "C" 
			},
			{
				"x": -1.9267728078,
				"y": 2.4345117534,
				"z": -1.0386516572,
				"element": "C" 
			},
			{
				"x": -3.0212102589,
				"y": 2.102529351,
				"z": -2.0680639963,
				"element": "C" 
			},
			{
				"x": -3.380289322,
				"y": 0.6107259937,
				"z": -2.2130842156,
				"element": "C" 
			},
			{
				"x": -2.2096733624,
				"y": -0.3279123717,
				"z": -2.5531121029,
				"element": "C" 
			},
			{
				"x": -1.4868284462,
				"y": -0.0075965807,
				"z": -3.8683806137,
				"element": "C" 
			},
			{
				"x": -0.3699557107,
				"y": -1.0118420118,
				"z": -4.1848239999,
				"element": "C" 
			},
			{
				"x": 0.4487569952,
				"y": -0.6853557984,
				"z": -5.4446565672,
				"element": "C" 
			},
			{
				"x": 1.2870010914,
				"y": 0.5816447525,
				"z": -5.3492956069,
				"element": "C" 
			},
			{
				"x": 2.2916971161,
				"y": 0.3861477325,
				"z": -4.3226928076,
				"element": "O" 
			},
			{
				"x": 2.9961642698,
				"y": 1.4812647408,
				"z": -3.9882415647,
				"element": "C" 
			},
			{
				"x": 2.8764672151,
				"y": 2.560140207,
				"z": -4.5325874808,
				"element": "O" 
			},
			{
				"x": 4.0508337686,
				"y": 1.200656703,
				"z": -2.9545481864,
				"element": "C" 
			},
			{
				"x": 5.3250193235,
				"y": 1.7000016588,
				"z": -3.2457493749,
				"element": "C" 
			},
			{
				"x": 6.4048831561,
				"y": 1.4457448494,
				"z": -2.4016990207,
				"element": "C" 
			},
			{
				"x": 6.2174132913,
				"y": 0.6894332359,
				"z": -1.2450044807,
				"element": "C" 
			},
			{
				"x": 4.9478635379,
				"y": 0.2083049435,
				"z": -0.9305822024,
				"element": "C" 
			},
			{
				"x": 3.8534489177,
				"y": 0.4633440178,
				"z": -1.7688203373,
				"element": "C" 
			},
			{
				"x": 2.4840344802,
				"y": 0.0647504735,
				"z": -1.3164510831,
				"element": "C" 
			},
			{
				"x": 1.4616260216,
				"y": 0.6608903095,
				"z": -1.5957754106,
				"element": "O" 
			},
			{
				"x": 2.5207604161,
				"y": -1.0172468923,
				"z": -0.5108616121,
				"element": "O" 
			},
			{
				"x": 1.2609025153,
				"y": -1.434326356,
				"z": 0.0645165525,
				"element": "C" 
			},
			{
				"x": 1.5544019144,
				"y": -2.5984065184,
				"z": 1.0005817047,
				"element": "C" 
			},
			{
				"x": 0.2915114562,
				"y": -3.2189476775,
				"z": 1.62201492,
				"element": "C" 
			},
			{
				"x": -0.4618336006,
				"y": -2.2993623617,
				"z": 2.5966006407,
				"element": "C" 
			},
			{
				"x": -1.7053526897,
				"y": -2.9383302572,
				"z": 3.2385119284,
				"element": "C" 
			},
			{
				"x": -1.4148895082,
				"y": -4.0998490595,
				"z": 4.199517155,
				"element": "C" 
			},
			{
				"x": -2.6761793353,
				"y": -4.6546648409,
				"z": 4.8747802925,
				"element": "C" 
			},
			{
				"x": -2.3888765517,
				"y": -5.8128966456,
				"z": 5.8354145232,
				"element": "C" 
			},
			{
				"x": -1.4153658618,
				"y": 2.161428884,
				"z": 2.4227257161,
				"element": "H" 
			},
			{
				"x": -0.2068089719,
				"y": 2.0188975689,
				"z": 1.1334179406,
				"element": "H" 
			},
			{
				"x": -1.0373151348,
				"y": 3.5535044042,
				"z": 1.3983137761,
				"element": "H" 
			},
			{
				"x": -3.2199520954,
				"y": 2.496340619,
				"z": 0.6975301086,
				"element": "H" 
			},
			{
				"x": -2.4084935081,
				"y": 0.9570056204,
				"z": 0.4753168653,
				"element": "H" 
			},
			{
				"x": -1.7406448344,
				"y": 3.5169200996,
				"z": -1.0734806478,
				"element": "H" 
			},
			{
				"x": -0.9795815751,
				"y": 1.9612653933,
				"z": -1.3271184746,
				"element": "H" 
			},
			{
				"x": -3.9369765275,
				"y": 2.6502286306,
				"z": -1.8051318224,
				"element": "H" 
			},
			{
				"x": -2.7111691747,
				"y": 2.4965368806,
				"z": -3.044237577,
				"element": "H" 
			},
			{
				"x": -3.8507766953,
				"y": 0.2580215009,
				"z": -1.2861996809,
				"element": "H" 
			},
			{
				"x": -4.1506627453,
				"y": 0.5164213725,
				"z": -2.9910578267,
				"element": "H" 
			},
			{
				"x": -2.5911691002,
				"y": -1.3579468781,
				"z": -2.5953225434,
				"element": "H" 
			},
			{
				"x": -1.4721605515,
				"y": -0.3092696699,
				"z": -1.7404037436,
				"element": "H" 
			},
			{
				"x": -2.2122859046,
				"y": 0.0105351903,
				"z": -4.6954322112,
				"element": "H" 
			},
			{
				"x": -1.064623233,
				"y": 1.0017787876,
				"z": -3.8057199313,
				"element": "H" 
			},
			{
				"x": -0.8083834729,
				"y": -2.0117375775,
				"z": -4.303066911,
				"element": "H" 
			},
			{
				"x": 0.3116709138,
				"y": -1.0665436458,
				"z": -3.3291113482,
				"element": "H" 
			},
			{
				"x": 1.1138956804,
				"y": -1.5250128057,
				"z": -5.680770736,
				"element": "H" 
			},
			{
				"x": -0.2210372936,
				"y": -0.567286248,
				"z": -6.3075140346,
				"element": "H" 
			},
			{
				"x": 1.7979957556,
				"y": 0.7949427398,
				"z": -6.294363388,
				"element": "H" 
			},
			{
				"x": 0.6927196297,
				"y": 1.461865047,
				"z": -5.0924634948,
				"element": "H" 
			},
			{
				"x": 5.4548338311,
				"y": 2.285377979,
				"z": -4.1497492486,
				"element": "H" 
			},
			{
				"x": 7.3875435553,
				"y": 1.8365114788,
				"z": -2.6485223698,
				"element": "H" 
			},
			{
				"x": 7.052199546,
				"y": 0.4850791643,
				"z": -0.5813306643,
				"element": "H" 
			},
			{
				"x": 4.7867162357,
				"y": -0.3559872079,
				"z": -0.0195602789,
				"element": "H" 
			},
			{
				"x": 0.8105245293,
				"y": -0.5801865633,
				"z": 0.5780845533,
				"element": "H" 
			},
			{
				"x": 0.5838738474,
				"y": -1.7297974287,
				"z": -0.7445210903,
				"element": "H" 
			},
			{
				"x": 2.2324643254,
				"y": -2.257662511,
				"z": 1.7934861617,
				"element": "H" 
			},
			{
				"x": 2.096152165,
				"y": -3.3639540714,
				"z": 0.4327354836,
				"element": "H" 
			},
			{
				"x": -0.3916436185,
				"y": -3.5357200502,
				"z": 0.8208038159,
				"element": "H" 
			},
			{
				"x": 0.590365149,
				"y": -4.1358365211,
				"z": 2.1425786497,
				"element": "H" 
			},
			{
				"x": 0.2275160095,
				"y": -1.9722287065,
				"z": 3.3885002924,
				"element": "H" 
			},
			{
				"x": -0.7755195151,
				"y": -1.3875418074,
				"z": 2.0729555055,
				"element": "H" 
			},
			{
				"x": -2.253840528,
				"y": -2.1600282136,
				"z": 3.7858260016,
				"element": "H" 
			},
			{
				"x": -2.3846082988,
				"y": -3.2834893516,
				"z": 2.4457332884,
				"element": "H" 
			},
			{
				"x": -0.9107866449,
				"y": -4.9164545126,
				"z": 3.6655358118,
				"element": "H" 
			},
			{
				"x": -0.7095848781,
				"y": -3.7615768587,
				"z": 4.9727534326,
				"element": "H" 
			},
			{
				"x": -3.1810103128,
				"y": -3.8442368925,
				"z": 5.4180969371,
				"element": "H" 
			},
			{
				"x": -3.3831276605,
				"y": -4.9864595774,
				"z": 4.1020800524,
				"element": "H" 
			},
			{
				"x": -1.7113222935,
				"y": -5.5025669195,
				"z": 6.6391691786,
				"element": "H" 
			},
			{
				"x": -3.3074834623,
				"y": -6.1848960713,
				"z": 6.300874372,
				"element": "H" 
			},
			{
				"x": -1.9170973641,
				"y": -6.653425991,
				"z": 5.3134946315,
				"element": "H" 
			}
		],
		 "valence_orbital": [ 
			{
				"type": "occ",
				"energy": -0.29051,
				"method": "rhf"
			},
			{
				"type": "occ",
				"energy": -0.27857,
				"method": "rhf"
			},
			{
				"type": "occ",
				"energy": -0.27599,
				"method": "rhf"
			},
			{
				"type": "occ",
				"energy": -0.26404,
				"method": "rhf"
			},
			{
				"type": "occ",
				"energy": -0.25565,
				"method": "rhf"
			},
			{
				"type": "unocc",
				"energy": -0.05425,
				"method": "rhf"
			},
			{
				"type": "unocc",
				"energy": -0.02488,
				"method": "rhf"
			},
			{
				"type": "unocc",
				"energy": 0.03378,
				"method": "rhf"
			},
			{
				"type": "unocc",
				"energy": 0.04712,
				"method": "rhf"
			},
			{
				"type": "unocc",
				"energy": 0.05882,
				"method": "rhf"
			}
		],
		"cosmo_sigma_profile": { 
			"-0.025": 0.0,
			"-0.024": 0.0,
			"-0.023": 0.0,
			"-0.022": 0.0,
			"-0.021": 0.0,
			"-0.02": 0.0,
			"-0.019": 0.0,
			"-0.018": 0.0,
			"-0.017": 0.0,
			"-0.016": 0.0,
			"-0.015": 0.0,
			"-0.014": 0.0,
			"-0.013": 0.0,
			"-0.012": 0.0,
			"-0.011": 0.0,
			"-0.01": 0.0,
			"-0.009": 0.0,
			"-0.008": 0.1847446991,
			"-0.007": 4.70186543527,
			"-0.006": 8.63658978722,
			"-0.005": 12.2665675494,
			"-0.004": 20.6638014138,
			"-0.003": 38.8914122437,
			"-0.002": 71.5777308414,
			"-0.001": 98.1765849816,
			"0.0": 98.8469757741,
			"0.001": 82.8603325894,
			"0.002": 51.9621434264,
			"0.003": 19.3619751437,
			"0.004": 10.0303871183,
			"0.005": 10.2125248078,
			"0.006": 8.49974931605,
			"0.007": 5.60956205432,
			"0.008": 2.7846945323,
			"0.009": 2.27378432805,
			"0.01": 2.95040567589,
			"0.011": 2.88116845082,
			"0.012": 4.30123251009,
			"0.013": 0.398992070425,
			"0.014": 0.0,
			"0.015": 0.0,
			"0.016": 0.0,
			"0.017": 0.0,
			"0.018": 0.0,
			"0.019": 0.0,
			"0.02": 0.0,
			"0.021": 0.0,
			"0.022": 0.0,
			"0.023": 0.0,
			"0.024": 0.0,
			"0.025": 0.0
		}
	}
}
