{
	 "smiles": "CC(C)OC1=C(C=C(Cl)C=C1)C(O)=O", 
	 "Tm": 357.15, 
	 "num_atms": 25, 
	 "gaussian": { 
		 "optdone": 1, 
		 "sigma_profile": "yes", 
		 "theory": "DFT", 
		 "functional": "B3LYP", 
		 "basiset": "6-31G**", 
		 "properties": { 
			 "R2extent": 4315.1246, 
			 "electric_dipole_moment_norm": 7.55816954097, 
			 "electric_quadrupole_moment_norm": 12.4920254727, 
			 "total_energy": -1073.57621709, 
			 "HOMO_LUMO_gap": 0.18734, 
			 "cosmo_polarized_energy": -14.24, 
			 "cosmo_cavitation_energy": 30.36, 
			 "cosmo_dispersion_energy": -21.85, 
			 "cosmo_repulsion_energy": 1.72, 
			 "cosmo_total_nonelectrostatic_energy": 10.23, 
			 "SMD_solvation_energy": 6.37 
		},
		"coords": [
			{
				"x": 2.4007406763,
				"y": 0.9754095299,
				"z": -1.6533537683,
				"element": "C" 
			},
			{
				"x": 1.132538196,
				"y": 1.2135913455,
				"z": -0.8439664622,
				"element": "C" 
			},
			{
				"x": 0.1184081905,
				"y": 2.0967358298,
				"z": -1.5661094522,
				"element": "C" 
			},
			{
				"x": 0.5721387459,
				"y": -0.1042926245,
				"z": -0.6012893187,
				"element": "O" 
			},
			{
				"x": -0.3426356219,
				"y": -0.3391740337,
				"z": 0.3949668509,
				"element": "C" 
			},
			{
				"x": -0.9147589727,
				"y": -1.6315662042,
				"z": 0.4482835526,
				"element": "C" 
			},
			{
				"x": -1.8309936701,
				"y": -1.9227576065,
				"z": 1.4657179829,
				"element": "C" 
			},
			{
				"x": -2.1778995362,
				"y": -0.9624311893,
				"z": 2.4068914428,
				"element": "C" 
			},
			{
				"x": -3.3314999371,
				"y": -1.3514538198,
				"z": 3.6721752012,
				"element": "Cl" 
			},
			{
				"x": -1.6177037219,
				"y": 0.311989367,
				"z": 2.3524868598,
				"element": "C" 
			},
			{
				"x": -0.7031778387,
				"y": 0.6213920345,
				"z": 1.3475168186,
				"element": "C" 
			},
			{
				"x": -0.631007066,
				"y": -2.7660366694,
				"z": -0.5120506533,
				"element": "C" 
			},
			{
				"x": 0.2398335077,
				"y": -2.5394802419,
				"z": -1.5104719571,
				"element": "O" 
			},
			{
				"x": -1.1699442448,
				"y": -3.8446685267,
				"z": -0.3924112218,
				"element": "O" 
			},
			{
				"x": 2.1639483603,
				"y": 0.5148392899,
				"z": -2.6178363081,
				"element": "H" 
			},
			{
				"x": 3.0894312247,
				"y": 0.3207715478,
				"z": -1.1130166483,
				"element": "H" 
			},
			{
				"x": 2.9049222933,
				"y": 1.9270222452,
				"z": -1.8447177935,
				"element": "H" 
			},
			{
				"x": 1.4051151796,
				"y": 1.6481941342,
				"z": 0.1247833085,
				"element": "H" 
			},
			{
				"x": 0.5420350794,
				"y": 3.0916027357,
				"z": -1.7352516592,
				"element": "H" 
			},
			{
				"x": -0.8026264807,
				"y": 2.2126219611,
				"z": -0.989474846,
				"element": "H" 
			},
			{
				"x": -0.13700931,
				"y": 1.6615273917,
				"z": -2.5370841446,
				"element": "H" 
			},
			{
				"x": -2.2556329241,
				"y": -2.919437267,
				"z": 1.4874920064,
				"element": "H" 
			},
			{
				"x": -1.891512502,
				"y": 1.061308964,
				"z": 3.0870442755,
				"element": "H" 
			},
			{
				"x": -0.2793056005,
				"y": 1.6169651238,
				"z": 1.3198929571,
				"element": "H" 
			},
			{
				"x": 0.5741959732,
				"y": -1.624273317,
				"z": -1.448217023,
				"element": "H" 
			}
		],
		 "valence_orbital": [ 
			{
				"type": "occ",
				"energy": -0.31693,
				"method": "rhf"
			},
			{
				"type": "occ",
				"energy": -0.30314,
				"method": "rhf"
			},
			{
				"type": "occ",
				"energy": -0.27499,
				"method": "rhf"
			},
			{
				"type": "occ",
				"energy": -0.26659,
				"method": "rhf"
			},
			{
				"type": "occ",
				"energy": -0.24117,
				"method": "rhf"
			},
			{
				"type": "unocc",
				"energy": -0.05383,
				"method": "rhf"
			},
			{
				"type": "unocc",
				"energy": -0.01767,
				"method": "rhf"
			},
			{
				"type": "unocc",
				"energy": 0.02489,
				"method": "rhf"
			},
			{
				"type": "unocc",
				"energy": 0.05157,
				"method": "rhf"
			},
			{
				"type": "unocc",
				"energy": 0.06565,
				"method": "rhf"
			}
		],
		"cosmo_sigma_profile": { 
			"-0.025": 0.0,
			"-0.024": 0.0,
			"-0.023": 0.0,
			"-0.022": 0.0,
			"-0.021": 0.0,
			"-0.02": 0.0,
			"-0.019": 0.0,
			"-0.018": 0.0,
			"-0.017": 0.0,
			"-0.016": 0.0,
			"-0.015": 0.0,
			"-0.014": 0.0,
			"-0.013": 0.0,
			"-0.012": 0.0,
			"-0.011": 0.0,
			"-0.01": 0.0283451583194,
			"-0.009": 1.54102403494,
			"-0.008": 4.39124531571,
			"-0.007": 7.02467530868,
			"-0.006": 8.07911568806,
			"-0.005": 15.2347340885,
			"-0.004": 23.2362743054,
			"-0.003": 20.0192289201,
			"-0.002": 21.621463308,
			"-0.001": 23.892824041,
			"0.0": 26.0050372756,
			"0.001": 20.9588772351,
			"0.002": 16.6630405778,
			"0.003": 8.97268343796,
			"0.004": 11.0887026042,
			"0.005": 7.63976087918,
			"0.006": 2.18861373631,
			"0.007": 1.83611337307,
			"0.008": 2.7069013682,
			"0.009": 3.26880939368,
			"0.01": 3.14227155336,
			"0.011": 5.93549607841,
			"0.012": 5.32141811678,
			"0.013": 2.40409271711,
			"0.014": 0.49922193044,
			"0.015": 0.0,
			"0.016": 0.0,
			"0.017": 0.0,
			"0.018": 0.0,
			"0.019": 0.0,
			"0.02": 0.0,
			"0.021": 0.0,
			"0.022": 0.0,
			"0.023": 0.0,
			"0.024": 0.0,
			"0.025": 0.0
		}
	}
}
