{
	 "smiles": "NC(=O)OCCCC1=CC=CC=C1", 
	 "Tm": 375.15, 
	 "num_atms": 26, 
	 "gaussian": { 
		 "optdone": 1, 
		 "sigma_profile": "yes", 
		 "theory": "DFT", 
		 "functional": "B3LYP", 
		 "basiset": "6-31G**", 
		 "properties": { 
			 "R2extent": 4009.0451, 
			 "electric_dipole_moment_norm": 2.08889857341, 
			 "electric_quadrupole_moment_norm": 16.5525609659, 
			 "total_energy": -594.131726127, 
			 "HOMO_LUMO_gap": 0.2394, 
			 "cosmo_polarized_energy": -11.93, 
			 "cosmo_cavitation_energy": 29.69, 
			 "cosmo_dispersion_energy": -20.91, 
			 "cosmo_repulsion_energy": 1.69, 
			 "cosmo_total_nonelectrostatic_energy": 10.46, 
			 "SMD_solvation_energy": 5.96 
		},
		"coords": [
			{
				"x": 1.1338213882,
				"y": 1.3659761202,
				"z": 4.1564745682,
				"element": "N" 
			},
			{
				"x": 1.6669047483,
				"y": 0.1959174187,
				"z": 3.6873726971,
				"element": "C" 
			},
			{
				"x": 2.7781306156,
				"y": -0.2206674318,
				"z": 3.9537313857,
				"element": "O" 
			},
			{
				"x": 0.7795212507,
				"y": -0.4161722141,
				"z": 2.8572731085,
				"element": "O" 
			},
			{
				"x": 1.2405789439,
				"y": -1.6374759217,
				"z": 2.2344198452,
				"element": "C" 
			},
			{
				"x": 2.0463583323,
				"y": -1.3618766985,
				"z": 0.9687540372,
				"element": "C" 
			},
			{
				"x": 1.2962987498,
				"y": -0.5403008875,
				"z": -0.1030684482,
				"element": "C" 
			},
			{
				"x": 0.0713163652,
				"y": -1.2311947623,
				"z": -0.6656229065,
				"element": "C" 
			},
			{
				"x": -1.2035395958,
				"y": -0.9911570523,
				"z": -0.1331573201,
				"element": "C" 
			},
			{
				"x": -2.3280613282,
				"y": -1.6479096116,
				"z": -0.6370937398,
				"element": "C" 
			},
			{
				"x": -2.1965760512,
				"y": -2.5585586839,
				"z": -1.6865677695,
				"element": "C" 
			},
			{
				"x": -0.933179131,
				"y": -2.806920638,
				"z": -2.2274779108,
				"element": "C" 
			},
			{
				"x": 0.1874358358,
				"y": -2.1485700757,
				"z": -1.7201280817,
				"element": "C" 
			},
			{
				"x": 0.1417029996,
				"y": 1.5191306516,
				"z": 4.0687773942,
				"element": "H" 
			},
			{
				"x": 1.6171437833,
				"y": 1.7947656094,
				"z": 4.9288858578,
				"element": "H" 
			},
			{
				"x": 1.8416461212,
				"y": -2.1965021494,
				"z": 2.9551339401,
				"element": "H" 
			},
			{
				"x": 0.3249590429,
				"y": -2.1896685556,
				"z": 2.0117605538,
				"element": "H" 
			},
			{
				"x": 2.3440939733,
				"y": -2.332012455,
				"z": 0.549684017,
				"element": "H" 
			},
			{
				"x": 2.9672278335,
				"y": -0.8401131329,
				"z": 1.2503365485,
				"element": "H" 
			},
			{
				"x": 1.0092832789,
				"y": 0.423151208,
				"z": 0.3313694782,
				"element": "H" 
			},
			{
				"x": 1.9972683708,
				"y": -0.3213753587,
				"z": -0.9170039413,
				"element": "H" 
			},
			{
				"x": -1.3107684054,
				"y": -0.2827989575,
				"z": 0.6846177795,
				"element": "H" 
			},
			{
				"x": -3.3072143588,
				"y": -1.4448563093,
				"z": -0.2118247026,
				"element": "H" 
			},
			{
				"x": -3.0707555991,
				"y": -3.0674369364,
				"z": -2.0826104515,
				"element": "H" 
			},
			{
				"x": -0.8210903382,
				"y": -3.5096548932,
				"z": -3.0486646468,
				"element": "H" 
			},
			{
				"x": 1.1667931744,
				"y": -2.3423182824,
				"z": -2.1523712923,
				"element": "H" 
			}
		],
		 "valence_orbital": [ 
			{
				"type": "occ",
				"energy": -0.28877,
				"method": "rhf"
			},
			{
				"type": "occ",
				"energy": -0.27544,
				"method": "rhf"
			},
			{
				"type": "occ",
				"energy": -0.26781,
				"method": "rhf"
			},
			{
				"type": "occ",
				"energy": -0.24636,
				"method": "rhf"
			},
			{
				"type": "occ",
				"energy": -0.23827,
				"method": "rhf"
			},
			{
				"type": "unocc",
				"energy": 0.00113,
				"method": "rhf"
			},
			{
				"type": "unocc",
				"energy": 0.00242,
				"method": "rhf"
			},
			{
				"type": "unocc",
				"energy": 0.05459,
				"method": "rhf"
			},
			{
				"type": "unocc",
				"energy": 0.0778,
				"method": "rhf"
			},
			{
				"type": "unocc",
				"energy": 0.09706,
				"method": "rhf"
			}
		],
		"cosmo_sigma_profile": { 
			"-0.025": 0.0,
			"-0.024": 0.0,
			"-0.023": 0.0,
			"-0.022": 0.0,
			"-0.021": 0.0,
			"-0.02": 0.0,
			"-0.019": 0.0,
			"-0.018": 0.0,
			"-0.017": 0.0,
			"-0.016": 0.0,
			"-0.015": 0.12385982654,
			"-0.014": 2.08528425649,
			"-0.013": 2.2474636494,
			"-0.012": 1.46955430794,
			"-0.011": 2.71827430052,
			"-0.01": 2.01483865514,
			"-0.009": 1.79522998426,
			"-0.008": 1.75537217589,
			"-0.007": 1.36046711809,
			"-0.006": 2.73082031194,
			"-0.005": 10.9072919978,
			"-0.004": 18.5017036761,
			"-0.003": 27.7339259245,
			"-0.002": 23.5159526796,
			"-0.001": 23.370180224,
			"0.0": 18.1593026439,
			"0.001": 12.7248680176,
			"0.002": 12.2048449707,
			"0.003": 12.8533247693,
			"0.004": 11.674259858,
			"0.005": 12.1342588768,
			"0.006": 10.3212141541,
			"0.007": 5.00681553086,
			"0.008": 2.06628622432,
			"0.009": 1.75496151378,
			"0.01": 1.55510909121,
			"0.011": 2.27642144274,
			"0.012": 1.09688190319,
			"0.013": 5.66904301948,
			"0.014": 1.95839929882,
			"0.015": 0.0,
			"0.016": 0.0,
			"0.017": 0.0,
			"0.018": 0.0,
			"0.019": 0.0,
			"0.02": 0.0,
			"0.021": 0.0,
			"0.022": 0.0,
			"0.023": 0.0,
			"0.024": 0.0,
			"0.025": 0.0
		}
	}
}
