{
	 "smiles": "CC(=O)OC1CCC2C3CCC4CC5(CCC4(C)C3CCC12C)OCCO5", 
	 "Tm": 417.15, 
	 "num_atms": 63, 
	 "gaussian": { 
		 "optdone": 1, 
		 "sigma_profile": "yes", 
		 "theory": "DFT", 
		 "functional": "B3LYP", 
		 "basiset": "6-31G**", 
		 "properties": { 
			 "R2extent": 13929.8962, 
			 "electric_dipole_moment_norm": 1.14356735263, 
			 "electric_quadrupole_moment_norm": 24.1400553483, 
			 "total_energy": -1199.07043989, 
			 "HOMO_LUMO_gap": 0.25622, 
			 "cosmo_polarized_energy": -11.64, 
			 "cosmo_cavitation_energy": 53.57, 
			 "cosmo_dispersion_energy": -37.26, 
			 "cosmo_repulsion_energy": 2.73, 
			 "cosmo_total_nonelectrostatic_energy": 19.04, 
			 "SMD_solvation_energy": 8.36 
		},
		"coords": [
			{
				"x": 4.7230596686,
				"y": -4.9711654705,
				"z": -2.5612745695,
				"element": "C" 
			},
			{
				"x": 3.347922577,
				"y": -4.4982138729,
				"z": -2.1494282579,
				"element": "C" 
			},
			{
				"x": 2.6119403623,
				"y": -5.0842079481,
				"z": -1.3843075086,
				"element": "O" 
			},
			{
				"x": 3.0485796146,
				"y": -3.3280590791,
				"z": -2.7623518396,
				"element": "O" 
			},
			{
				"x": 1.7496196935,
				"y": -2.7388538794,
				"z": -2.5164791612,
				"element": "C" 
			},
			{
				"x": 1.0913890392,
				"y": -2.3305434869,
				"z": -3.8403951897,
				"element": "C" 
			},
			{
				"x": 0.207609842,
				"y": -1.1043311799,
				"z": -3.4839811142,
				"element": "C" 
			},
			{
				"x": 0.4350267218,
				"y": -0.8082123033,
				"z": -1.9653931258,
				"element": "C" 
			},
			{
				"x": -0.716533586,
				"y": -1.400789759,
				"z": -1.1018372766,
				"element": "C" 
			},
			{
				"x": -2.0602107567,
				"y": -0.6695258065,
				"z": -1.3293777749,
				"element": "C" 
			},
			{
				"x": -2.2355024488,
				"y": 0.5856414186,
				"z": -0.4665864805,
				"element": "C" 
			},
			{
				"x": -2.0734165985,
				"y": 0.2315633635,
				"z": 1.0154740671,
				"element": "C" 
			},
			{
				"x": -2.51174059,
				"y": 1.3638163504,
				"z": 1.9592189612,
				"element": "C" 
			},
			{
				"x": -2.462660002,
				"y": 0.9274898298,
				"z": 3.4251418869,
				"element": "C" 
			},
			{
				"x": -1.0944976502,
				"y": 0.3498161482,
				"z": 3.7965653514,
				"element": "C" 
			},
			{
				"x": -0.6505994499,
				"y": -0.7536814686,
				"z": 2.8218491541,
				"element": "C" 
			},
			{
				"x": -0.6412917805,
				"y": -0.3091658905,
				"z": 1.3316113535,
				"element": "C" 
			},
			{
				"x": 0.4324531556,
				"y": 0.7892563429,
				"z": 1.1528757482,
				"element": "C" 
			},
			{
				"x": -0.4135206492,
				"y": -1.5736072889,
				"z": 0.4214425139,
				"element": "C" 
			},
			{
				"x": 0.9311200056,
				"y": -2.3184958827,
				"z": 0.5881293367,
				"element": "C" 
			},
			{
				"x": 2.1106674624,
				"y": -1.7131042271,
				"z": -0.1853434477,
				"element": "C" 
			},
			{
				"x": 1.835523583,
				"y": -1.4387096794,
				"z": -1.6764031663,
				"element": "C" 
			},
			{
				"x": 2.9517291045,
				"y": -0.522857546,
				"z": -2.2200119319,
				"element": "C" 
			},
			{
				"x": -3.4975019051,
				"y": -0.0457551707,
				"z": 3.6368660908,
				"element": "O" 
			},
			{
				"x": -4.1559837676,
				"y": 0.2859602966,
				"z": 4.8533410828,
				"element": "C" 
			},
			{
				"x": -4.035976986,
				"y": 1.8065814176,
				"z": 4.8799064034,
				"element": "C" 
			},
			{
				"x": -2.7536562362,
				"y": 2.0237964341,
				"z": 4.3016561372,
				"element": "O" 
			},
			{
				"x": 4.9618032529,
				"y": -5.8954473729,
				"z": -2.0362289223,
				"element": "H" 
			},
			{
				"x": 4.7514649401,
				"y": -5.1385963947,
				"z": -3.6421821703,
				"element": "H" 
			},
			{
				"x": 5.4695250321,
				"y": -4.2053503869,
				"z": -2.3316208076,
				"element": "H" 
			},
			{
				"x": 1.152325894,
				"y": -3.4856903211,
				"z": -1.9923726252,
				"element": "H" 
			},
			{
				"x": 1.8706345255,
				"y": -2.0679215524,
				"z": -4.5621315755,
				"element": "H" 
			},
			{
				"x": 0.5185876795,
				"y": -3.154084777,
				"z": -4.2765476972,
				"element": "H" 
			},
			{
				"x": 0.4876572596,
				"y": -0.2396732913,
				"z": -4.0929900875,
				"element": "H" 
			},
			{
				"x": -0.8461227241,
				"y": -1.2998215246,
				"z": -3.6982301978,
				"element": "H" 
			},
			{
				"x": 0.4826305468,
				"y": 0.2742560582,
				"z": -1.8042537354,
				"element": "H" 
			},
			{
				"x": -0.860535477,
				"y": -2.4278274769,
				"z": -1.4697013641,
				"element": "H" 
			},
			{
				"x": -2.8758522077,
				"y": -1.3623733088,
				"z": -1.0816538539,
				"element": "H" 
			},
			{
				"x": -2.1876874983,
				"y": -0.4215468959,
				"z": -2.3889532508,
				"element": "H" 
			},
			{
				"x": -1.5204411377,
				"y": 1.3665136512,
				"z": -0.7573306614,
				"element": "H" 
			},
			{
				"x": -3.2331420901,
				"y": 1.0092496256,
				"z": -0.6398806796,
				"element": "H" 
			},
			{
				"x": -2.7620154082,
				"y": -0.6035959944,
				"z": 1.2141284075,
				"element": "H" 
			},
			{
				"x": -3.538753625,
				"y": 1.6664845486,
				"z": 1.7257833313,
				"element": "H" 
			},
			{
				"x": -1.8817367532,
				"y": 2.2526739485,
				"z": 1.8449379496,
				"element": "H" 
			},
			{
				"x": -0.3731330943,
				"y": 1.1739416146,
				"z": 3.818343621,
				"element": "H" 
			},
			{
				"x": -1.1490450124,
				"y": -0.0445356855,
				"z": 4.8174400612,
				"element": "H" 
			},
			{
				"x": 0.3419581836,
				"y": -1.1083261014,
				"z": 3.1207068028,
				"element": "H" 
			},
			{
				"x": -1.3359286491,
				"y": -1.6033939809,
				"z": 2.9321556162,
				"element": "H" 
			},
			{
				"x": 0.1661438323,
				"y": 1.7061333058,
				"z": 1.6852039692,
				"element": "H" 
			},
			{
				"x": 0.5914892122,
				"y": 1.0628583772,
				"z": 0.1086626871,
				"element": "H" 
			},
			{
				"x": 1.3932581431,
				"y": 0.4612556519,
				"z": 1.5588218379,
				"element": "H" 
			},
			{
				"x": -1.1855921142,
				"y": -2.2737838908,
				"z": 0.7743151011,
				"element": "H" 
			},
			{
				"x": 0.7866644582,
				"y": -3.3514623601,
				"z": 0.2476653773,
				"element": "H" 
			},
			{
				"x": 1.2009313314,
				"y": -2.4002307586,
				"z": 1.6464247587,
				"element": "H" 
			},
			{
				"x": 2.972969244,
				"y": -2.3877120738,
				"z": -0.1062356105,
				"element": "H" 
			},
			{
				"x": 2.4277326278,
				"y": -0.777111595,
				"z": 0.2833128294,
				"element": "H" 
			},
			{
				"x": 3.9338239189,
				"y": -0.9842354023,
				"z": -2.0815108479,
				"element": "H" 
			},
			{
				"x": 2.947006255,
				"y": 0.4319515405,
				"z": -1.683587047,
				"element": "H" 
			},
			{
				"x": 2.838513825,
				"y": -0.3046304655,
				"z": -3.2860755755,
				"element": "H" 
			},
			{
				"x": -5.1839786522,
				"y": -0.0834234999,
				"z": 4.8037770497,
				"element": "H" 
			},
			{
				"x": -3.6527228849,
				"y": -0.1683208186,
				"z": 5.7201153017,
				"element": "H" 
			},
			{
				"x": -4.8288509093,
				"y": 2.2785653654,
				"z": 4.2809158542,
				"element": "H" 
			},
			{
				"x": -4.0447303476,
				"y": 2.2372705797,
				"z": 5.8854689103,
				"element": "H" 
			}
		],
		 "valence_orbital": [ 
			{
				"type": "occ",
				"energy": -0.27305,
				"method": "rhf"
			},
			{
				"type": "occ",
				"energy": -0.26681,
				"method": "rhf"
			},
			{
				"type": "occ",
				"energy": -0.26549,
				"method": "rhf"
			},
			{
				"type": "occ",
				"energy": -0.26338,
				"method": "rhf"
			},
			{
				"type": "occ",
				"energy": -0.2399,
				"method": "rhf"
			},
			{
				"type": "unocc",
				"energy": 0.01632,
				"method": "rhf"
			},
			{
				"type": "unocc",
				"energy": 0.06766,
				"method": "rhf"
			},
			{
				"type": "unocc",
				"energy": 0.07879,
				"method": "rhf"
			},
			{
				"type": "unocc",
				"energy": 0.08524,
				"method": "rhf"
			},
			{
				"type": "unocc",
				"energy": 0.09333,
				"method": "rhf"
			}
		],
		"cosmo_sigma_profile": { 
			"-0.025": 0.0,
			"-0.024": 0.0,
			"-0.023": 0.0,
			"-0.022": 0.0,
			"-0.021": 0.0,
			"-0.02": 0.0,
			"-0.019": 0.0,
			"-0.018": 0.0,
			"-0.017": 0.0,
			"-0.016": 0.0,
			"-0.015": 0.0,
			"-0.014": 0.0,
			"-0.013": 0.0,
			"-0.012": 0.0,
			"-0.011": 0.0,
			"-0.01": 0.0,
			"-0.009": 0.0,
			"-0.008": 0.0,
			"-0.007": 0.486698878888,
			"-0.006": 6.53802053275,
			"-0.005": 13.1070332446,
			"-0.004": 26.8044762773,
			"-0.003": 44.5616628439,
			"-0.002": 64.8144496078,
			"-0.001": 67.9846614831,
			"0.0": 55.0583411886,
			"0.001": 47.3097221487,
			"0.002": 21.0315466914,
			"0.003": 9.26801237353,
			"0.004": 6.78975663545,
			"0.005": 7.29885770872,
			"0.006": 7.26587722994,
			"0.007": 6.19507022393,
			"0.008": 5.27364878297,
			"0.009": 3.83260134528,
			"0.01": 4.12544774484,
			"0.011": 4.84055501335,
			"0.012": 5.55004148848,
			"0.013": 3.14928691687,
			"0.014": 0.143140114606,
			"0.015": 0.0,
			"0.016": 0.0,
			"0.017": 0.0,
			"0.018": 0.0,
			"0.019": 0.0,
			"0.02": 0.0,
			"0.021": 0.0,
			"0.022": 0.0,
			"0.023": 0.0,
			"0.024": 0.0,
			"0.025": 0.0
		}
	}
}
