{
	 "smiles": "OC(=O)C1=NC(OCC2CC2)=C2C=CC=CC2=C1", 
	 "Tm": 451.15, 
	 "num_atms": 31, 
	 "gaussian": { 
		 "optdone": 1, 
		 "sigma_profile": "yes", 
		 "theory": "DFT", 
		 "functional": "B3LYP", 
		 "basiset": "6-31G**", 
		 "properties": { 
			 "R2extent": 4969.7721, 
			 "electric_dipole_moment_norm": 6.00586046208, 
			 "electric_quadrupole_moment_norm": 19.9141019243, 
			 "total_energy": -821.745655459, 
			 "HOMO_LUMO_gap": 0.1683, 
			 "cosmo_polarized_energy": -12.88, 
			 "cosmo_cavitation_energy": 34.96, 
			 "cosmo_dispersion_energy": -24.62, 
			 "cosmo_repulsion_energy": 1.89, 
			 "cosmo_total_nonelectrostatic_energy": 12.24, 
			 "SMD_solvation_energy": 6.47 
		},
		"coords": [
			{
				"x": -2.5574952678,
				"y": -0.7343167225,
				"z": 1.8153922743,
				"element": "O" 
			},
			{
				"x": -2.1603748667,
				"y": 0.4857743704,
				"z": 1.4105627863,
				"element": "C" 
			},
			{
				"x": -2.8478196472,
				"y": 1.4744573378,
				"z": 1.5367948826,
				"element": "O" 
			},
			{
				"x": -0.7912677063,
				"y": 0.5018417459,
				"z": 0.7867588393,
				"element": "C" 
			},
			{
				"x": -0.1490946768,
				"y": -0.7081524098,
				"z": 0.750835379,
				"element": "N" 
			},
			{
				"x": 1.0439712223,
				"y": -0.7683178047,
				"z": 0.2142751897,
				"element": "C" 
			},
			{
				"x": 1.7284638869,
				"y": -1.929564156,
				"z": 0.1571922277,
				"element": "O" 
			},
			{
				"x": 1.1988717817,
				"y": -3.1138667632,
				"z": 0.7873773015,
				"element": "C" 
			},
			{
				"x": 0.5566946343,
				"y": -4.0610068794,
				"z": -0.2051198696,
				"element": "C" 
			},
			{
				"x": 1.1111651632,
				"y": -4.2413634883,
				"z": -1.595345593,
				"element": "C" 
			},
			{
				"x": -0.2338580344,
				"y": -3.5816029949,
				"z": -1.3948032425,
				"element": "C" 
			},
			{
				"x": 1.719982184,
				"y": 0.3731085012,
				"z": -0.3472338177,
				"element": "C" 
			},
			{
				"x": 3.009048241,
				"y": 0.29446035,
				"z": -0.9219272622,
				"element": "C" 
			},
			{
				"x": 3.601464,
				"y": 1.4274659969,
				"z": -1.4426385556,
				"element": "C" 
			},
			{
				"x": 2.9266631584,
				"y": 2.6689819248,
				"z": -1.4041238159,
				"element": "C" 
			},
			{
				"x": 1.6693937574,
				"y": 2.7673308754,
				"z": -0.8456051423,
				"element": "C" 
			},
			{
				"x": 1.0333635085,
				"y": 1.6226189711,
				"z": -0.3021188828,
				"element": "C" 
			},
			{
				"x": -0.26003592,
				"y": 1.6615552267,
				"z": 0.2894997468,
				"element": "C" 
			},
			{
				"x": -1.8262097945,
				"y": -1.3452310061,
				"z": 1.5923211115,
				"element": "H" 
			},
			{
				"x": 2.068812343,
				"y": -3.5890804985,
				"z": 1.2526721237,
				"element": "H" 
			},
			{
				"x": 0.4946345124,
				"y": -2.823232538,
				"z": 1.5700818132,
				"element": "H" 
			},
			{
				"x": 0.1872404796,
				"y": -4.9599884102,
				"z": 0.2861530481,
				"element": "H" 
			},
			{
				"x": 1.9369376162,
				"y": -3.6017930107,
				"z": -1.8911315927,
				"element": "H" 
			},
			{
				"x": 1.1445535727,
				"y": -5.2437132591,
				"z": -2.0111714215,
				"element": "H" 
			},
			{
				"x": -1.1291677295,
				"y": -4.1329220502,
				"z": -1.6653534678,
				"element": "H" 
			},
			{
				"x": -0.3017317377,
				"y": -2.5132523911,
				"z": -1.5702829967,
				"element": "H" 
			},
			{
				"x": 3.5177626258,
				"y": -0.6621969087,
				"z": -0.944550381,
				"element": "H" 
			},
			{
				"x": 4.5915748869,
				"y": 1.36769386,
				"z": -1.8841926292,
				"element": "H" 
			},
			{
				"x": 3.4054284764,
				"y": 3.5517002798,
				"z": -1.8178873515,
				"element": "H" 
			},
			{
				"x": 1.1498552182,
				"y": 3.7205719679,
				"z": -0.8138602352,
				"element": "H" 
			},
			{
				"x": -0.8312258879,
				"y": 2.5806398834,
				"z": 0.3523295337,
				"element": "H" 
			}
		],
		 "valence_orbital": [ 
			{
				"type": "occ",
				"energy": -0.29042,
				"method": "rhf"
			},
			{
				"type": "occ",
				"energy": -0.28777,
				"method": "rhf"
			},
			{
				"type": "occ",
				"energy": -0.27608,
				"method": "rhf"
			},
			{
				"type": "occ",
				"energy": -0.26002,
				"method": "rhf"
			},
			{
				"type": "occ",
				"energy": -0.2321,
				"method": "rhf"
			},
			{
				"type": "unocc",
				"energy": -0.0638,
				"method": "rhf"
			},
			{
				"type": "unocc",
				"energy": -0.05213,
				"method": "rhf"
			},
			{
				"type": "unocc",
				"energy": 0.01128,
				"method": "rhf"
			},
			{
				"type": "unocc",
				"energy": 0.04062,
				"method": "rhf"
			},
			{
				"type": "unocc",
				"energy": 0.0804,
				"method": "rhf"
			}
		],
		"cosmo_sigma_profile": { 
			"-0.025": 0.0,
			"-0.024": 0.0,
			"-0.023": 0.0,
			"-0.022": 0.0,
			"-0.021": 0.0,
			"-0.02": 0.0,
			"-0.019": 0.0,
			"-0.018": 0.0,
			"-0.017": 0.0,
			"-0.016": 0.0,
			"-0.015": 0.0,
			"-0.014": 0.0,
			"-0.013": 0.0,
			"-0.012": 0.123205417046,
			"-0.011": 0.500003340954,
			"-0.01": 0.608343031419,
			"-0.009": 0.656363465928,
			"-0.008": 1.43149457163,
			"-0.007": 7.41204513222,
			"-0.006": 12.9116610012,
			"-0.005": 18.7894713668,
			"-0.004": 24.3208833209,
			"-0.003": 23.7593032871,
			"-0.002": 22.5735377815,
			"-0.001": 22.4634384761,
			"0.0": 25.2872644157,
			"0.001": 29.5918767864,
			"0.002": 24.0591356429,
			"0.003": 20.6801963509,
			"0.004": 9.30917551114,
			"0.005": 5.06961157667,
			"0.006": 4.43901615621,
			"0.007": 1.44410335316,
			"0.008": 2.92957533235,
			"0.009": 3.32009835351,
			"0.01": 5.38038068406,
			"0.011": 4.63235699205,
			"0.012": 5.41748841476,
			"0.013": 1.99512566679,
			"0.014": 0.190346023649,
			"0.015": 0.0,
			"0.016": 0.0,
			"0.017": 0.0,
			"0.018": 0.0,
			"0.019": 0.0,
			"0.02": 0.0,
			"0.021": 0.0,
			"0.022": 0.0,
			"0.023": 0.0,
			"0.024": 0.0,
			"0.025": 0.0
		}
	}
}
