{
	 "smiles": "FC(F)(F)C1=CC=C(C=C1)C(=O)NC1=CC2=NN(N=C2C=C1)C1CCCC1", 
	 "Tm": 489.15, 
	 "num_atms": 44, 
	 "gaussian": { 
		 "optdone": 1, 
		 "sigma_profile": "yes", 
		 "theory": "DFT", 
		 "functional": "B3LYP", 
		 "basiset": "6-31G**", 
		 "properties": { 
			 "R2extent": 21112.9654, 
			 "electric_dipole_moment_norm": 3.7925439101, 
			 "electric_quadrupole_moment_norm": 10.5882908356, 
			 "total_energy": -1328.0262072, 
			 "HOMO_LUMO_gap": 0.15294, 
			 "cosmo_polarized_energy": -16.15, 
			 "cosmo_cavitation_energy": 49.31, 
			 "cosmo_dispersion_energy": -35.42, 
			 "cosmo_repulsion_energy": 2.57, 
			 "cosmo_total_nonelectrostatic_energy": 16.45, 
			 "SMD_solvation_energy": 6.92 
		},
		"coords": [
			{
				"x": -1.6490829825,
				"y": -5.2678606086,
				"z": 6.0894017913,
				"element": "F" 
			},
			{
				"x": -2.7467313536,
				"y": -4.8653951699,
				"z": 5.4124040657,
				"element": "C" 
			},
			{
				"x": -3.7333874467,
				"y": -4.6683414067,
				"z": 6.3128749531,
				"element": "F" 
			},
			{
				"x": -3.1286281441,
				"y": -5.90070538,
				"z": 4.6293441577,
				"element": "F" 
			},
			{
				"x": -2.4794914725,
				"y": -3.6286208392,
				"z": 4.5954235726,
				"element": "C" 
			},
			{
				"x": -3.5259549215,
				"y": -2.7497906162,
				"z": 4.2981228879,
				"element": "C" 
			},
			{
				"x": -3.2887348574,
				"y": -1.635059781,
				"z": 3.5013159621,
				"element": "C" 
			},
			{
				"x": -2.011729164,
				"y": -1.3934732165,
				"z": 2.9769710361,
				"element": "C" 
			},
			{
				"x": -0.9651402561,
				"y": -2.2702501412,
				"z": 3.2958128876,
				"element": "C" 
			},
			{
				"x": -1.1967933888,
				"y": -3.3837588709,
				"z": 4.1009322601,
				"element": "C" 
			},
			{
				"x": -1.8435299623,
				"y": -0.157465943,
				"z": 2.1300040943,
				"element": "C" 
			},
			{
				"x": -2.6041826311,
				"y": 0.7962621098,
				"z": 2.2529900099,
				"element": "O" 
			},
			{
				"x": -0.803460949,
				"y": -0.2146449925,
				"z": 1.2296492212,
				"element": "N" 
			},
			{
				"x": -0.3545460812,
				"y": 0.7570763199,
				"z": 0.3067461595,
				"element": "C" 
			},
			{
				"x": 0.659200765,
				"y": 0.3806680684,
				"z": -0.5617882912,
				"element": "C" 
			},
			{
				"x": 1.1254206831,
				"y": 1.3460716493,
				"z": -1.4755663915,
				"element": "C" 
			},
			{
				"x": 2.0865505184,
				"y": 1.265577701,
				"z": -2.4257751396,
				"element": "N" 
			},
			{
				"x": 2.0721900422,
				"y": 2.4838660829,
				"z": -2.9623512505,
				"element": "N" 
			},
			{
				"x": 1.209308375,
				"y": 3.364767598,
				"z": -2.4712026309,
				"element": "N" 
			},
			{
				"x": 0.576058074,
				"y": 2.6592202844,
				"z": -1.5044805582,
				"element": "C" 
			},
			{
				"x": -0.455746425,
				"y": 3.0248064976,
				"z": -0.6124553587,
				"element": "C" 
			},
			{
				"x": -0.9099488307,
				"y": 2.0798067622,
				"z": 0.2795790778,
				"element": "C" 
			},
			{
				"x": 2.9943386695,
				"y": 2.8528911943,
				"z": -4.0434511368,
				"element": "C" 
			},
			{
				"x": 2.8096865054,
				"y": 1.946738224,
				"z": -5.2956672938,
				"element": "C" 
			},
			{
				"x": 4.2356657173,
				"y": 1.5583120503,
				"z": -5.7303162109,
				"element": "C" 
			},
			{
				"x": 5.0034103658,
				"y": 1.4764594635,
				"z": -4.4013302538,
				"element": "C" 
			},
			{
				"x": 4.4855691603,
				"y": 2.6983718231,
				"z": -3.6235597106,
				"element": "C" 
			},
			{
				"x": -4.5163634907,
				"y": -2.9352128072,
				"z": 4.6994539442,
				"element": "H" 
			},
			{
				"x": -4.0804937129,
				"y": -0.9297079447,
				"z": 3.2748106163,
				"element": "H" 
			},
			{
				"x": 0.0478860687,
				"y": -2.0726100639,
				"z": 2.9569916481,
				"element": "H" 
			},
			{
				"x": -0.3818100095,
				"y": -4.0506636604,
				"z": 4.3596451317,
				"element": "H" 
			},
			{
				"x": -0.3452610921,
				"y": -1.1101500188,
				"z": 1.1456631688,
				"element": "H" 
			},
			{
				"x": 1.0844544845,
				"y": -0.6187449008,
				"z": -0.5454489781,
				"element": "H" 
			},
			{
				"x": -0.8795353862,
				"y": 4.0231549645,
				"z": -0.6298889019,
				"element": "H" 
			},
			{
				"x": -1.7034405128,
				"y": 2.3111063354,
				"z": 0.9751146671,
				"element": "H" 
			},
			{
				"x": 2.7431458981,
				"y": 3.8934460965,
				"z": -4.2483921315,
				"element": "H" 
			},
			{
				"x": 2.2570217306,
				"y": 1.0519475856,
				"z": -4.9962384008,
				"element": "H" 
			},
			{
				"x": 2.2349532361,
				"y": 2.4477131239,
				"z": -6.0794977874,
				"element": "H" 
			},
			{
				"x": 4.6694325693,
				"y": 2.3415698806,
				"z": -6.3652494382,
				"element": "H" 
			},
			{
				"x": 4.2565909885,
				"y": 0.6261844594,
				"z": -6.3030414597,
				"element": "H" 
			},
			{
				"x": 6.0905614699,
				"y": 1.4839492027,
				"z": -4.5262170224,
				"element": "H" 
			},
			{
				"x": 4.7310377883,
				"y": 0.5573686365,
				"z": -3.8704794676,
				"element": "H" 
			},
			{
				"x": 4.5929396277,
				"y": 2.6080646547,
				"z": -2.5402922111,
				"element": "H" 
			},
			{
				"x": 5.0274703328,
				"y": 3.5984555932,
				"z": -3.9351612882,
				"element": "H" 
			}
		],
		 "valence_orbital": [ 
			{
				"type": "occ",
				"energy": -0.28217,
				"method": "rhf"
			},
			{
				"type": "occ",
				"energy": -0.27917,
				"method": "rhf"
			},
			{
				"type": "occ",
				"energy": -0.26379,
				"method": "rhf"
			},
			{
				"type": "occ",
				"energy": -0.23905,
				"method": "rhf"
			},
			{
				"type": "occ",
				"energy": -0.21781,
				"method": "rhf"
			},
			{
				"type": "unocc",
				"energy": -0.06487,
				"method": "rhf"
			},
			{
				"type": "unocc",
				"energy": -0.04429,
				"method": "rhf"
			},
			{
				"type": "unocc",
				"energy": -0.02956,
				"method": "rhf"
			},
			{
				"type": "unocc",
				"energy": 0.01297,
				"method": "rhf"
			},
			{
				"type": "unocc",
				"energy": 0.0298,
				"method": "rhf"
			}
		],
		"cosmo_sigma_profile": { 
			"-0.025": 0.0,
			"-0.024": 0.0,
			"-0.023": 0.0,
			"-0.022": 0.0,
			"-0.021": 0.0,
			"-0.02": 0.0,
			"-0.019": 0.0,
			"-0.018": 0.0,
			"-0.017": 0.0,
			"-0.016": 0.183313419051,
			"-0.015": 1.52396782588,
			"-0.014": 1.45805525999,
			"-0.013": 1.15425621891,
			"-0.012": 1.51072068913,
			"-0.011": 1.29333236189,
			"-0.01": 2.09550694772,
			"-0.009": 1.39639079421,
			"-0.008": 4.00135861376,
			"-0.007": 8.98874547506,
			"-0.006": 13.4679153075,
			"-0.005": 12.3333475996,
			"-0.004": 22.1705033151,
			"-0.003": 28.2320476814,
			"-0.002": 35.0123770328,
			"-0.001": 37.6476064102,
			"0.0": 38.206655658,
			"0.001": 38.713926521,
			"0.002": 49.4938666496,
			"0.003": 45.2694619185,
			"0.004": 11.6287670684,
			"0.005": 6.39011809492,
			"0.006": 4.92628633329,
			"0.007": 4.34108889752,
			"0.008": 3.98441256357,
			"0.009": 3.18033347197,
			"0.01": 4.23775272541,
			"0.011": 3.82495770148,
			"0.012": 4.21472309188,
			"0.013": 2.34190367234,
			"0.014": 0.443624948781,
			"0.015": 0.0,
			"0.016": 0.0,
			"0.017": 0.0,
			"0.018": 0.0,
			"0.019": 0.0,
			"0.02": 0.0,
			"0.021": 0.0,
			"0.022": 0.0,
			"0.023": 0.0,
			"0.024": 0.0,
			"0.025": 0.0
		}
	}
}
