{
	 "smiles": "ClC1=C2NC(=O)C(=O)C2=C(Cl)C=C1", 
	 "Tm": 525.15, 
	 "num_atms": 16, 
	 "gaussian": { 
		 "optdone": 1, 
		 "sigma_profile": "yes", 
		 "theory": "DFT", 
		 "functional": "B3LYP", 
		 "basiset": "6-31G**", 
		 "properties": { 
			 "R2extent": 3093.1066, 
			 "electric_dipole_moment_norm": 5.24862204869, 
			 "electric_quadrupole_moment_norm": 6.31030486506, 
			 "total_energy": -1432.23787097, 
			 "HOMO_LUMO_gap": 0.14086, 
			 "cosmo_polarized_energy": -14.12, 
			 "cosmo_cavitation_energy": 25.29, 
			 "cosmo_dispersion_energy": -18.9, 
			 "cosmo_repulsion_energy": 1.49, 
			 "cosmo_total_nonelectrostatic_energy": 7.87, 
			 "SMD_solvation_energy": 5.06 
		},
		"coords": [
			{
				"x": 0.4416839079,
				"y": -1.1556579721,
				"z": 3.3872332791,
				"element": "Cl" 
			},
			{
				"x": 0.9430520778,
				"y": -0.6196522704,
				"z": 1.7975889378,
				"element": "C" 
			},
			{
				"x": 0.0580029721,
				"y": 0.0782465884,
				"z": 0.9859567126,
				"element": "C" 
			},
			{
				"x": -1.257367202,
				"y": 0.4431707263,
				"z": 1.2589813852,
				"element": "N" 
			},
			{
				"x": -1.8339145015,
				"y": 1.1371013135,
				"z": 0.2030958391,
				"element": "C" 
			},
			{
				"x": -2.9555018759,
				"y": 1.5804826964,
				"z": 0.1451875653,
				"element": "O" 
			},
			{
				"x": -0.7115054061,
				"y": 1.2173235497,
				"z": -0.8906658792,
				"element": "C" 
			},
			{
				"x": -0.848752006,
				"y": 1.7554730479,
				"z": -1.9639321792,
				"element": "O" 
			},
			{
				"x": 0.4496109871,
				"y": 0.5167601083,
				"z": -0.2994470385,
				"element": "C" 
			},
			{
				"x": 1.7370504686,
				"y": 0.2477868445,
				"z": -0.7611093254,
				"element": "C" 
			},
			{
				"x": 2.2457779462,
				"y": 0.7755378352,
				"z": -2.3387665002,
				"element": "Cl" 
			},
			{
				"x": 2.6323650903,
				"y": -0.4550366401,
				"z": 0.0529765375,
				"element": "C" 
			},
			{
				"x": 2.2312367395,
				"y": -0.8813203168,
				"z": 1.3193684142,
				"element": "C" 
			},
			{
				"x": -1.7375375296,
				"y": 0.2296689401,
				"z": 2.1217150383,
				"element": "H" 
			},
			{
				"x": 3.6338837575,
				"y": -0.6658579423,
				"z": -0.3026260367,
				"element": "H" 
			},
			{
				"x": 2.9252145741,
				"y": -1.4261265086,
				"z": 1.9504432501,
				"element": "H" 
			}
		],
		 "valence_orbital": [ 
			{
				"type": "occ",
				"energy": -0.33046,
				"method": "rhf"
			},
			{
				"type": "occ",
				"energy": -0.3205,
				"method": "rhf"
			},
			{
				"type": "occ",
				"energy": -0.27912,
				"method": "rhf"
			},
			{
				"type": "occ",
				"energy": -0.2601,
				"method": "rhf"
			},
			{
				"type": "occ",
				"energy": -0.25365,
				"method": "rhf"
			},
			{
				"type": "unocc",
				"energy": -0.11279,
				"method": "rhf"
			},
			{
				"type": "unocc",
				"energy": -0.04271,
				"method": "rhf"
			},
			{
				"type": "unocc",
				"energy": -0.01383,
				"method": "rhf"
			},
			{
				"type": "unocc",
				"energy": -0.00148,
				"method": "rhf"
			},
			{
				"type": "unocc",
				"energy": 0.01736,
				"method": "rhf"
			}
		],
		"cosmo_sigma_profile": { 
			"-0.025": 0.0,
			"-0.024": 0.0,
			"-0.023": 0.0,
			"-0.022": 0.0,
			"-0.021": 0.0,
			"-0.02": 0.0,
			"-0.019": 0.0,
			"-0.018": 0.0,
			"-0.017": 0.208338265267,
			"-0.016": 0.939719118481,
			"-0.015": 0.985498310897,
			"-0.014": 0.949756895299,
			"-0.013": 0.326229255658,
			"-0.012": 0.75270403882,
			"-0.011": 1.43659265007,
			"-0.01": 0.801346818906,
			"-0.009": 4.38439174115,
			"-0.008": 8.91177936634,
			"-0.007": 6.23761486984,
			"-0.006": 6.76435475,
			"-0.005": 6.45602960067,
			"-0.004": 9.97283835601,
			"-0.003": 13.6953831675,
			"-0.002": 17.5828443164,
			"-0.001": 21.3563746085,
			"0.0": 18.6487817686,
			"0.001": 14.4750795716,
			"0.002": 12.6779020865,
			"0.003": 16.6529327916,
			"0.004": 7.29095643415,
			"0.005": 2.98263148499,
			"0.006": 3.46227746595,
			"0.007": 3.86381493934,
			"0.008": 4.95945045039,
			"0.009": 6.70641647779,
			"0.01": 9.50076566367,
			"0.011": 5.56642361343,
			"0.012": 0.79867304523,
			"0.013": 0.0,
			"0.014": 0.0,
			"0.015": 0.0,
			"0.016": 0.0,
			"0.017": 0.0,
			"0.018": 0.0,
			"0.019": 0.0,
			"0.02": 0.0,
			"0.021": 0.0,
			"0.022": 0.0,
			"0.023": 0.0,
			"0.024": 0.0,
			"0.025": 0.0
		}
	}
}
