{
	 "smiles": "CC1=C(C(C)=NO1)S(=O)(=O)N1CCC(CC1)C(O)=O", 
	 "Tm": 485.15, 
	 "num_atms": 35, 
	 "gaussian": { 
		 "optdone": 1, 
		 "sigma_profile": "yes", 
		 "theory": "DFT", 
		 "functional": "B3LYP", 
		 "basiset": "6-31G**", 
		 "properties": { 
			 "R2extent": 6538.7719, 
			 "electric_dipole_moment_norm": 4.46964734739, 
			 "electric_quadrupole_moment_norm": 19.1052236161, 
			 "total_energy": -1312.53377332, 
			 "HOMO_LUMO_gap": 0.22893, 
			 "cosmo_polarized_energy": -19.31, 
			 "cosmo_cavitation_energy": 38.33, 
			 "cosmo_dispersion_energy": -26.74, 
			 "cosmo_repulsion_energy": 2.01, 
			 "cosmo_total_nonelectrostatic_energy": 13.61, 
			 "SMD_solvation_energy": 6.36 
		},
		"coords": [
			{
				"x": -4.4704163167,
				"y": -1.8278036513,
				"z": -0.1018208964,
				"element": "C" 
			},
			{
				"x": -3.0877121508,
				"y": -2.3654178112,
				"z": -0.2179473962,
				"element": "C" 
			},
			{
				"x": -1.9334785871,
				"y": -1.9478761556,
				"z": -0.832829456,
				"element": "C" 
			},
			{
				"x": -0.9708901651,
				"y": -2.9788665176,
				"z": -0.5580884868,
				"element": "C" 
			},
			{
				"x": 0.4554414344,
				"y": -3.0642596827,
				"z": -0.994741505,
				"element": "C" 
			},
			{
				"x": -1.5039770643,
				"y": -3.9241797428,
				"z": 0.1751103832,
				"element": "N" 
			},
			{
				"x": -2.8432122379,
				"y": -3.5362674158,
				"z": 0.3901844463,
				"element": "O" 
			},
			{
				"x": -1.684455883,
				"y": -0.5279455735,
				"z": -1.8473682431,
				"element": "S" 
			},
			{
				"x": -1.0164068307,
				"y": -0.9437511241,
				"z": -3.0834937897,
				"element": "O" 
			},
			{
				"x": -2.9555829174,
				"y": 0.2098302006,
				"z": -1.9080951982,
				"element": "O" 
			},
			{
				"x": -0.5210135298,
				"y": 0.3206965285,
				"z": -0.9408594173,
				"element": "N" 
			},
			{
				"x": 0.35592548,
				"y": 1.2049321433,
				"z": -1.7486943166,
				"element": "C" 
			},
			{
				"x": 1.5446832122,
				"y": 1.6533178164,
				"z": -0.8932622282,
				"element": "C" 
			},
			{
				"x": 1.0962578568,
				"y": 2.3293495183,
				"z": 0.4127512442,
				"element": "C" 
			},
			{
				"x": 0.0870705335,
				"y": 1.4323450269,
				"z": 1.1614508792,
				"element": "C" 
			},
			{
				"x": -1.0666820704,
				"y": 0.9948175312,
				"z": 0.254644066,
				"element": "C" 
			},
			{
				"x": 0.5630960075,
				"y": 3.7346447418,
				"z": 0.1534442378,
				"element": "C" 
			},
			{
				"x": 0.0134391956,
				"y": 4.2828800356,
				"z": 1.2647884196,
				"element": "O" 
			},
			{
				"x": 0.6347237682,
				"y": 4.3387386491,
				"z": -0.8947208088,
				"element": "O" 
			},
			{
				"x": -5.180200562,
				"y": -2.5235609309,
				"z": -0.5613498457,
				"element": "H" 
			},
			{
				"x": -4.7470622015,
				"y": -1.7231266578,
				"z": 0.9522227875,
				"element": "H" 
			},
			{
				"x": -4.5389983865,
				"y": -0.8636322574,
				"z": -0.6033753851,
				"element": "H" 
			},
			{
				"x": 1.0194859001,
				"y": -2.2081197195,
				"z": -0.6128066245,
				"element": "H" 
			},
			{
				"x": 0.5179439476,
				"y": -3.0358957358,
				"z": -2.0860621177,
				"element": "H" 
			},
			{
				"x": 0.9015164038,
				"y": -3.9888538157,
				"z": -0.6245706878,
				"element": "H" 
			},
			{
				"x": 0.6980992826,
				"y": 0.6396767329,
				"z": -2.6157803087,
				"element": "H" 
			},
			{
				"x": -0.196625474,
				"y": 2.0840007575,
				"z": -2.10798712,
				"element": "H" 
			},
			{
				"x": 2.1570089168,
				"y": 0.7798512509,
				"z": -0.6432976423,
				"element": "H" 
			},
			{
				"x": 2.1585470449,
				"y": 2.3405420229,
				"z": -1.4814012942,
				"element": "H" 
			},
			{
				"x": 1.9676303987,
				"y": 2.4754087884,
				"z": 1.065964365,
				"element": "H" 
			},
			{
				"x": -0.3140624378,
				"y": 1.9519916759,
				"z": 2.0352162399,
				"element": "H" 
			},
			{
				"x": 0.6142458216,
				"y": 0.5398846164,
				"z": 1.5159534849,
				"element": "H" 
			},
			{
				"x": -1.707721472,
				"y": 0.289966476,
				"z": 0.7913587232,
				"element": "H" 
			},
			{
				"x": -1.6891260492,
				"y": 1.8557103254,
				"z": -0.0322211696,
				"element": "H" 
			},
			{
				"x": -0.2675908681,
				"y": 5.1788719535,
				"z": 1.012784661,
				"element": "H" 
			}
		],
		 "valence_orbital": [ 
			{
				"type": "occ",
				"energy": -0.30221,
				"method": "rhf"
			},
			{
				"type": "occ",
				"energy": -0.30072,
				"method": "rhf"
			},
			{
				"type": "occ",
				"energy": -0.28703,
				"method": "rhf"
			},
			{
				"type": "occ",
				"energy": -0.27769,
				"method": "rhf"
			},
			{
				"type": "occ",
				"energy": -0.25739,
				"method": "rhf"
			},
			{
				"type": "unocc",
				"energy": -0.02846,
				"method": "rhf"
			},
			{
				"type": "unocc",
				"energy": -0.0075,
				"method": "rhf"
			},
			{
				"type": "unocc",
				"energy": 0.01086,
				"method": "rhf"
			},
			{
				"type": "unocc",
				"energy": 0.05564,
				"method": "rhf"
			},
			{
				"type": "unocc",
				"energy": 0.06762,
				"method": "rhf"
			}
		],
		"cosmo_sigma_profile": { 
			"-0.025": 0.0,
			"-0.024": 0.0,
			"-0.023": 0.0,
			"-0.022": 0.0,
			"-0.021": 0.0,
			"-0.02": 0.0,
			"-0.019": 0.0692434841108,
			"-0.018": 0.679132790315,
			"-0.017": 0.696247954035,
			"-0.016": 1.03158810159,
			"-0.015": 1.13429417199,
			"-0.014": 0.271053520214,
			"-0.013": 0.680387704284,
			"-0.012": 0.688728700679,
			"-0.011": 0.844232391456,
			"-0.01": 0.736339315059,
			"-0.009": 0.30957596054,
			"-0.008": 0.703096678188,
			"-0.007": 6.56168214689,
			"-0.006": 12.5665910358,
			"-0.005": 21.6991000654,
			"-0.004": 35.81832897,
			"-0.003": 38.2883381928,
			"-0.002": 33.1754552345,
			"-0.001": 23.744232285,
			"0.0": 13.9014814654,
			"0.001": 11.0048760939,
			"0.002": 10.4588570755,
			"0.003": 9.30126957049,
			"0.004": 8.07015238745,
			"0.005": 6.68710000222,
			"0.006": 9.05714689552,
			"0.007": 11.6159979643,
			"0.008": 6.81133524823,
			"0.009": 7.79203979571,
			"0.01": 9.1014066384,
			"0.011": 10.9372226065,
			"0.012": 5.97651893818,
			"0.013": 0.911572185724,
			"0.014": 0.233998259675,
			"0.015": 0.0,
			"0.016": 0.0,
			"0.017": 0.0,
			"0.018": 0.0,
			"0.019": 0.0,
			"0.02": 0.0,
			"0.021": 0.0,
			"0.022": 0.0,
			"0.023": 0.0,
			"0.024": 0.0,
			"0.025": 0.0
		}
	}
}
