{
	 "smiles": "CC(=C/C1=CC=CC=C1)C(O)=O", 
	 "Tm": 353.15, 
	 "num_atms": 22, 
	 "gaussian": { 
		 "optdone": 1, 
		 "sigma_profile": "yes", 
		 "theory": "DFT", 
		 "functional": "B3LYP", 
		 "basiset": "6-31G**", 
		 "properties": { 
			 "R2extent": 2896.9447, 
			 "electric_dipole_moment_norm": 5.07794693946, 
			 "electric_quadrupole_moment_norm": 11.5196430084, 
			 "total_energy": -537.536277829, 
			 "HOMO_LUMO_gap": 0.17687, 
			 "cosmo_polarized_energy": -13.62, 
			 "cosmo_cavitation_energy": 26.01, 
			 "cosmo_dispersion_energy": -19.01, 
			 "cosmo_repulsion_energy": 1.51, 
			 "cosmo_total_nonelectrostatic_energy": 8.51, 
			 "SMD_solvation_energy": 5.69 
		},
		"coords": [
			{
				"x": -0.5048299233,
				"y": -2.7473222211,
				"z": 0.6632366393,
				"element": "C" 
			},
			{
				"x": 0.0231220537,
				"y": -1.4313550588,
				"z": 1.1696285324,
				"element": "C" 
			},
			{
				"x": -0.2398556213,
				"y": -0.2075508552,
				"z": 0.653660008,
				"element": "C" 
			},
			{
				"x": -1.1543376811,
				"y": 0.1755414334,
				"z": -0.4301818322,
				"element": "C" 
			},
			{
				"x": -2.3410436151,
				"y": -0.5189889114,
				"z": -0.7337990062,
				"element": "C" 
			},
			{
				"x": -3.1713892185,
				"y": -0.0915050035,
				"z": -1.7685386458,
				"element": "C" 
			},
			{
				"x": -2.8392666167,
				"y": 1.0362756906,
				"z": -2.5217190387,
				"element": "C" 
			},
			{
				"x": -1.6749890232,
				"y": 1.747636515,
				"z": -2.2219478725,
				"element": "C" 
			},
			{
				"x": -0.8502667432,
				"y": 1.3273220422,
				"z": -1.1823084945,
				"element": "C" 
			},
			{
				"x": 1.041933426,
				"y": -1.557196103,
				"z": 2.2702669946,
				"element": "C" 
			},
			{
				"x": 1.1925680765,
				"y": -0.4886709837,
				"z": 3.1009418194,
				"element": "O" 
			},
			{
				"x": 1.7174802578,
				"y": -2.5468491038,
				"z": 2.4375186936,
				"element": "O" 
			},
			{
				"x": -1.376349542,
				"y": -3.0829139957,
				"z": 1.2399503989,
				"element": "H" 
			},
			{
				"x": -0.7946188845,
				"y": -2.6917877716,
				"z": -0.3878414249,
				"element": "H" 
			},
			{
				"x": 0.2725339117,
				"y": -3.5043064475,
				"z": 0.7886376687,
				"element": "H" 
			},
			{
				"x": 0.3465294396,
				"y": 0.6287664211,
				"z": 1.035553115,
				"element": "H" 
			},
			{
				"x": -2.6326308984,
				"y": -1.3763118625,
				"z": -0.1386627437,
				"element": "H" 
			},
			{
				"x": -4.0859505589,
				"y": -0.6374057973,
				"z": -1.9814907427,
				"element": "H" 
			},
			{
				"x": -3.4880614259,
				"y": 1.3649784608,
				"z": -3.3281963725,
				"element": "H" 
			},
			{
				"x": -1.4132097064,
				"y": 2.6324625717,
				"z": -2.7947666458,
				"element": "H" 
			},
			{
				"x": 0.052337582,
				"y": 1.8871528017,
				"z": -0.9504703407,
				"element": "H" 
			},
			{
				"x": 0.4675947111,
				"y": 0.1349281785,
				"z": 2.9541292903,
				"element": "H" 
			}
		],
		 "valence_orbital": [ 
			{
				"type": "occ",
				"energy": -0.3141,
				"method": "rhf"
			},
			{
				"type": "occ",
				"energy": -0.30367,
				"method": "rhf"
			},
			{
				"type": "occ",
				"energy": -0.26961,
				"method": "rhf"
			},
			{
				"type": "occ",
				"energy": -0.26467,
				"method": "rhf"
			},
			{
				"type": "occ",
				"energy": -0.24036,
				"method": "rhf"
			},
			{
				"type": "unocc",
				"energy": -0.06349,
				"method": "rhf"
			},
			{
				"type": "unocc",
				"energy": -0.01517,
				"method": "rhf"
			},
			{
				"type": "unocc",
				"energy": 0.00925,
				"method": "rhf"
			},
			{
				"type": "unocc",
				"energy": 0.06609,
				"method": "rhf"
			},
			{
				"type": "unocc",
				"energy": 0.07374,
				"method": "rhf"
			}
		],
		"cosmo_sigma_profile": { 
			"-0.025": 0.0,
			"-0.024": 0.0,
			"-0.023": 0.0,
			"-0.022": 0.0,
			"-0.021": 0.0,
			"-0.02": 0.0,
			"-0.019": 0.0,
			"-0.018": 0.284902200761,
			"-0.017": 0.782416252043,
			"-0.016": 0.947296723241,
			"-0.015": 1.22474151878,
			"-0.014": 1.1523109522,
			"-0.013": 0.205587394786,
			"-0.012": 1.13057494859,
			"-0.011": 1.38259441825,
			"-0.01": 1.22437365676,
			"-0.009": 1.03606048194,
			"-0.008": 1.59347046823,
			"-0.007": 3.06136502918,
			"-0.006": 10.7445040801,
			"-0.005": 15.2323412094,
			"-0.004": 18.75923594,
			"-0.003": 15.078248421,
			"-0.002": 14.3618195316,
			"-0.001": 15.1477389834,
			"0.0": 14.5801099418,
			"0.001": 13.7913998111,
			"0.002": 13.1313821248,
			"0.003": 11.6568437571,
			"0.004": 11.5472906962,
			"0.005": 10.8506162866,
			"0.006": 2.59353369185,
			"0.007": 2.82943625876,
			"0.008": 2.92002771117,
			"0.009": 2.79663039653,
			"0.01": 4.44494334311,
			"0.011": 5.35125849864,
			"0.012": 5.33164543986,
			"0.013": 2.12946819845,
			"0.014": 0.184531661883,
			"0.015": 0.0,
			"0.016": 0.0,
			"0.017": 0.0,
			"0.018": 0.0,
			"0.019": 0.0,
			"0.02": 0.0,
			"0.021": 0.0,
			"0.022": 0.0,
			"0.023": 0.0,
			"0.024": 0.0,
			"0.025": 0.0
		}
	}
}
