{
	 "smiles": "NC1=C(C=CC=C1)C(=O)NCC1=CC=CC=C1", 
	 "Tm": 399.15, 
	 "num_atms": 31, 
	 "gaussian": { 
		 "optdone": 1, 
		 "sigma_profile": "yes", 
		 "theory": "DFT", 
		 "functional": "B3LYP", 
		 "basiset": "6-31G**", 
		 "properties": { 
			 "R2extent": 5538.1637, 
			 "electric_dipole_moment_norm": 3.85117013517, 
			 "electric_quadrupole_moment_norm": 11.970272585, 
			 "total_energy": -726.68094019, 
			 "HOMO_LUMO_gap": 0.18742, 
			 "cosmo_polarized_energy": -15.22, 
			 "cosmo_cavitation_energy": 34.51, 
			 "cosmo_dispersion_energy": -24.9, 
			 "cosmo_repulsion_energy": 1.93, 
			 "cosmo_total_nonelectrostatic_energy": 11.54, 
			 "SMD_solvation_energy": 5.93 
		},
		"coords": [
			{
				"x": 1.9412971605,
				"y": 1.0424955668,
				"z": -2.7424849147,
				"element": "N" 
			},
			{
				"x": 2.9681318131,
				"y": 0.7828725507,
				"z": -1.8181803993,
				"element": "C" 
			},
			{
				"x": 2.729947519,
				"y": 0.706875192,
				"z": -0.4233527475,
				"element": "C" 
			},
			{
				"x": 3.8103149596,
				"y": 0.4534151464,
				"z": 0.4361835942,
				"element": "C" 
			},
			{
				"x": 5.0942070048,
				"y": 0.2278804711,
				"z": -0.044608709,
				"element": "C" 
			},
			{
				"x": 5.3170787799,
				"y": 0.2699330577,
				"z": -1.4235964839,
				"element": "C" 
			},
			{
				"x": 4.271009674,
				"y": 0.5536230807,
				"z": -2.293982967,
				"element": "C" 
			},
			{
				"x": 1.3952832684,
				"y": 0.8733261082,
				"z": 0.2496670846,
				"element": "C" 
			},
			{
				"x": 1.3130437003,
				"y": 1.1823433722,
				"z": 1.4381794641,
				"element": "O" 
			},
			{
				"x": 0.2764857758,
				"y": 0.6506041695,
				"z": -0.520173752,
				"element": "N" 
			},
			{
				"x": -1.0585427447,
				"y": 0.6331118092,
				"z": 0.0819145786,
				"element": "C" 
			},
			{
				"x": -1.5177679359,
				"y": -0.7449373508,
				"z": 0.5234089295,
				"element": "C" 
			},
			{
				"x": -0.9502520323,
				"y": -1.3532828287,
				"z": 1.6536758726,
				"element": "C" 
			},
			{
				"x": -1.3615440021,
				"y": -2.624736614,
				"z": 2.0508126281,
				"element": "C" 
			},
			{
				"x": -2.3458057816,
				"y": -3.3054748991,
				"z": 1.3281745339,
				"element": "C" 
			},
			{
				"x": -2.9173953572,
				"y": -2.7067603599,
				"z": 0.2055345097,
				"element": "C" 
			},
			{
				"x": -2.5031102704,
				"y": -1.4332987987,
				"z": -0.1927206585,
				"element": "C" 
			},
			{
				"x": 2.2873308891,
				"y": 1.2747846372,
				"z": -3.6651024201,
				"element": "H" 
			},
			{
				"x": 1.2600086845,
				"y": 1.7228923688,
				"z": -2.4268632644,
				"element": "H" 
			},
			{
				"x": 3.59818091,
				"y": 0.4357839553,
				"z": 1.4997114324,
				"element": "H" 
			},
			{
				"x": 5.9092443841,
				"y": 0.0214016072,
				"z": 0.6415493796,
				"element": "H" 
			},
			{
				"x": 6.3118604669,
				"y": 0.0962733787,
				"z": -1.8244973021,
				"element": "H" 
			},
			{
				"x": 4.4557528046,
				"y": 0.6107197252,
				"z": -3.3643919895,
				"element": "H" 
			},
			{
				"x": 0.4042408683,
				"y": 0.1452131489,
				"z": -1.3888548972,
				"element": "H" 
			},
			{
				"x": -1.0137752074,
				"y": 1.3124940571,
				"z": 0.9355978373,
				"element": "H" 
			},
			{
				"x": -1.7661808322,
				"y": 1.0441239323,
				"z": -0.6462790585,
				"element": "H" 
			},
			{
				"x": -0.1877029418,
				"y": -0.818638287,
				"z": 2.2124599381,
				"element": "H" 
			},
			{
				"x": -0.9173243172,
				"y": -3.0846579622,
				"z": 2.9292818682,
				"element": "H" 
			},
			{
				"x": -2.6664305324,
				"y": -4.2950376502,
				"z": 1.6415106102,
				"element": "H" 
			},
			{
				"x": -3.6851684466,
				"y": -3.2276403385,
				"z": -0.3598971297,
				"element": "H" 
			},
			{
				"x": -2.9541182613,
				"y": -0.9683022461,
				"z": -1.0668755678,
				"element": "H" 
			}
		],
		 "valence_orbital": [ 
			{
				"type": "occ",
				"energy": -0.25207,
				"method": "rhf"
			},
			{
				"type": "occ",
				"energy": -0.24606,
				"method": "rhf"
			},
			{
				"type": "occ",
				"energy": -0.24222,
				"method": "rhf"
			},
			{
				"type": "occ",
				"energy": -0.23738,
				"method": "rhf"
			},
			{
				"type": "occ",
				"energy": -0.216,
				"method": "rhf"
			},
			{
				"type": "unocc",
				"energy": -0.02858,
				"method": "rhf"
			},
			{
				"type": "unocc",
				"energy": -0.00124,
				"method": "rhf"
			},
			{
				"type": "unocc",
				"energy": 0.00343,
				"method": "rhf"
			},
			{
				"type": "unocc",
				"energy": 0.0079,
				"method": "rhf"
			},
			{
				"type": "unocc",
				"energy": 0.06243,
				"method": "rhf"
			}
		],
		"cosmo_sigma_profile": { 
			"-0.025": 0.0,
			"-0.024": 0.0,
			"-0.023": 0.0,
			"-0.022": 0.0,
			"-0.021": 0.0,
			"-0.02": 0.0,
			"-0.019": 0.0,
			"-0.018": 0.0,
			"-0.017": 0.0,
			"-0.016": 0.0,
			"-0.015": 0.0,
			"-0.014": 0.0,
			"-0.013": 0.646072943754,
			"-0.012": 1.81459570891,
			"-0.011": 2.27485584303,
			"-0.01": 3.87753426487,
			"-0.009": 4.16723044725,
			"-0.008": 3.99195639388,
			"-0.007": 4.03290992249,
			"-0.006": 11.3519952828,
			"-0.005": 21.1661040395,
			"-0.004": 20.8664262062,
			"-0.003": 24.6410614904,
			"-0.002": 18.4720013424,
			"-0.001": 15.5836482356,
			"0.0": 15.3372063688,
			"0.001": 17.5532587856,
			"0.002": 18.2638520285,
			"0.003": 16.6931346389,
			"0.004": 19.6177888058,
			"0.005": 20.6316540877,
			"0.006": 15.70176687,
			"0.007": 3.01237915458,
			"0.008": 1.80023625379,
			"0.009": 2.33317301309,
			"0.01": 1.9685343556,
			"0.011": 1.62553061046,
			"0.012": 1.72261021659,
			"0.013": 2.5030320619,
			"0.014": 3.18295396735,
			"0.015": 0.178112168379,
			"0.016": 0.0,
			"0.017": 0.0,
			"0.018": 0.0,
			"0.019": 0.0,
			"0.02": 0.0,
			"0.021": 0.0,
			"0.022": 0.0,
			"0.023": 0.0,
			"0.024": 0.0,
			"0.025": 0.0
		}
	}
}
