{
	 "smiles": "NC1=C2C(SC3=C2CCCCC3)=NC(CCl)=N1", 
	 "Tm": 448.15, 
	 "num_atms": 31, 
	 "gaussian": { 
		 "optdone": 1, 
		 "sigma_profile": "yes", 
		 "theory": "DFT", 
		 "functional": "B3LYP", 
		 "basiset": "6-31G**", 
		 "properties": { 
			 "R2extent": 7460.4994, 
			 "electric_dipole_moment_norm": 6.12172913563, 
			 "electric_quadrupole_moment_norm": 20.115441713, 
			 "total_energy": -1488.38352033, 
			 "HOMO_LUMO_gap": 0.17079, 
			 "cosmo_polarized_energy": -13.64, 
			 "cosmo_cavitation_energy": 35.63, 
			 "cosmo_dispersion_energy": -26.95, 
			 "cosmo_repulsion_energy": 2.07, 
			 "cosmo_total_nonelectrostatic_energy": 10.76, 
			 "SMD_solvation_energy": 1.05 
		},
		"coords": [
			{
				"x": 0.0090802728,
				"y": 0.1195677247,
				"z": 3.4102775217,
				"element": "N" 
			},
			{
				"x": -0.8045894554,
				"y": -0.7373995032,
				"z": 2.7047400859,
				"element": "C" 
			},
			{
				"x": -0.4849340017,
				"y": -1.2443353524,
				"z": 1.4110633997,
				"element": "C" 
			},
			{
				"x": -1.4185941115,
				"y": -2.1918288534,
				"z": 0.9379921312,
				"element": "C" 
			},
			{
				"x": -0.9106199175,
				"y": -2.8684063125,
				"z": -0.5900056761,
				"element": "S" 
			},
			{
				"x": 0.5214963312,
				"y": -1.8476849011,
				"z": -0.6073725383,
				"element": "C" 
			},
			{
				"x": 0.6127704286,
				"y": -1.0275358925,
				"z": 0.4872584069,
				"element": "C" 
			},
			{
				"x": 1.7093290385,
				"y": 0.0087899102,
				"z": 0.6460145154,
				"element": "C" 
			},
			{
				"x": 1.8732954265,
				"y": 0.9819736269,
				"z": -0.5417586373,
				"element": "C" 
			},
			{
				"x": 2.520841418,
				"y": 0.4002243571,
				"z": -1.8065468478,
				"element": "C" 
			},
			{
				"x": 1.6992505855,
				"y": -0.6575273992,
				"z": -2.5548439233,
				"element": "C" 
			},
			{
				"x": 1.473222273,
				"y": -1.9638901507,
				"z": -1.770227248,
				"element": "C" 
			},
			{
				"x": -2.558291942,
				"y": -2.5501113392,
				"z": 1.5372841577,
				"element": "N" 
			},
			{
				"x": -2.7780326034,
				"y": -1.9274506459,
				"z": 2.6942074462,
				"element": "C" 
			},
			{
				"x": -4.0706473177,
				"y": -2.2376195699,
				"z": 3.3952999356,
				"element": "C" 
			},
			{
				"x": -5.3314733024,
				"y": -0.9591140509,
				"z": 3.0566095217,
				"element": "Cl" 
			},
			{
				"x": -1.9500146541,
				"y": -1.0695125373,
				"z": 3.3101222097,
				"element": "N" 
			},
			{
				"x": -0.3016715274,
				"y": 0.2601484692,
				"z": 4.3627860974,
				"element": "H" 
			},
			{
				"x": 1.0060401053,
				"y": 0.0249603892,
				"z": 3.2972638865,
				"element": "H" 
			},
			{
				"x": 2.6742070381,
				"y": -0.4857218757,
				"z": 0.8363765896,
				"element": "H" 
			},
			{
				"x": 1.4957456925,
				"y": 0.6229347957,
				"z": 1.5224999792,
				"element": "H" 
			},
			{
				"x": 0.8923357048,
				"y": 1.4075442117,
				"z": -0.7883976733,
				"element": "H" 
			},
			{
				"x": 2.4952060611,
				"y": 1.8182090412,
				"z": -0.1982834881,
				"element": "H" 
			},
			{
				"x": 2.7305376324,
				"y": 1.2271929111,
				"z": -2.4964697359,
				"element": "H" 
			},
			{
				"x": 3.4992482513,
				"y": -0.0283008816,
				"z": -1.5428509824,
				"element": "H" 
			},
			{
				"x": 2.2230713446,
				"y": -0.909262109,
				"z": -3.4854089191,
				"element": "H" 
			},
			{
				"x": 0.7273252969,
				"y": -0.2397255442,
				"z": -2.8461775729,
				"element": "H" 
			},
			{
				"x": 1.1044416397,
				"y": -2.7323745065,
				"z": -2.4579564332,
				"element": "H" 
			},
			{
				"x": 2.4437327275,
				"y": -2.330805452,
				"z": -1.4040843989,
				"element": "H" 
			},
			{
				"x": -4.4824897368,
				"y": -3.178113779,
				"z": 3.0349491455,
				"element": "H" 
			},
			{
				"x": -3.9378186982,
				"y": -2.2463247809,
				"z": 4.4760390445,
				"element": "H" 
			}
		],
		 "valence_orbital": [ 
			{
				"type": "occ",
				"energy": -0.28305,
				"method": "rhf"
			},
			{
				"type": "occ",
				"energy": -0.26918,
				"method": "rhf"
			},
			{
				"type": "occ",
				"energy": -0.25742,
				"method": "rhf"
			},
			{
				"type": "occ",
				"energy": -0.25522,
				"method": "rhf"
			},
			{
				"type": "occ",
				"energy": -0.2135,
				"method": "rhf"
			},
			{
				"type": "unocc",
				"energy": -0.04271,
				"method": "rhf"
			},
			{
				"type": "unocc",
				"energy": -0.01767,
				"method": "rhf"
			},
			{
				"type": "unocc",
				"energy": 0.01413,
				"method": "rhf"
			},
			{
				"type": "unocc",
				"energy": 0.01653,
				"method": "rhf"
			},
			{
				"type": "unocc",
				"energy": 0.05893,
				"method": "rhf"
			}
		],
		"cosmo_sigma_profile": { 
			"-0.025": 0.0,
			"-0.024": 0.0,
			"-0.023": 0.0,
			"-0.022": 0.0,
			"-0.021": 0.0,
			"-0.02": 0.0,
			"-0.019": 0.0,
			"-0.018": 0.0,
			"-0.017": 0.0,
			"-0.016": 0.0,
			"-0.015": 0.0,
			"-0.014": 0.438170730956,
			"-0.013": 1.76535422893,
			"-0.012": 2.17617964127,
			"-0.011": 3.3008754788,
			"-0.01": 2.78244166891,
			"-0.009": 2.16145470712,
			"-0.008": 2.92037917821,
			"-0.007": 4.47225918236,
			"-0.006": 5.42725234531,
			"-0.005": 8.53612658229,
			"-0.004": 13.1415577809,
			"-0.003": 23.7437841193,
			"-0.002": 30.8684786873,
			"-0.001": 36.1726280657,
			"0.0": 28.0670997355,
			"0.001": 23.9339497058,
			"0.002": 19.8472414263,
			"0.003": 16.661095547,
			"0.004": 13.9123626437,
			"0.005": 10.7238656828,
			"0.006": 14.1039984385,
			"0.007": 7.46051746529,
			"0.008": 2.71437621131,
			"0.009": 3.23385164343,
			"0.01": 2.44203858742,
			"0.011": 1.62237018135,
			"0.012": 1.44067864944,
			"0.013": 1.09005255486,
			"0.014": 0.293683798996,
			"0.015": 0.0,
			"0.016": 0.0,
			"0.017": 0.0,
			"0.018": 0.0,
			"0.019": 0.0,
			"0.02": 0.0,
			"0.021": 0.0,
			"0.022": 0.0,
			"0.023": 0.0,
			"0.024": 0.0,
			"0.025": 0.0
		}
	}
}
