{
	 "smiles": "OC(=O)C(F)(F)C1=CC=CC=C1", 
	 "Tm": 348.15, 
	 "num_atms": 18, 
	 "gaussian": { 
		 "optdone": 1, 
		 "sigma_profile": "yes", 
		 "theory": "DFT", 
		 "functional": "B3LYP", 
		 "basiset": "6-31G**", 
		 "properties": { 
			 "R2extent": 2621.3753, 
			 "electric_dipole_moment_norm": 2.79883628317, 
			 "electric_quadrupole_moment_norm": 7.53374249029, 
			 "total_energy": -658.597956034, 
			 "HOMO_LUMO_gap": 0.22427, 
			 "cosmo_polarized_energy": -9.94, 
			 "cosmo_cavitation_energy": 23.8, 
			 "cosmo_dispersion_energy": -16.84, 
			 "cosmo_repulsion_energy": 1.32, 
			 "cosmo_total_nonelectrostatic_energy": 8.28, 
			 "SMD_solvation_energy": 6.16 
		},
		"coords": [
			{
				"x": 0.5236700005,
				"y": 3.0484868289,
				"z": -2.6309695062,
				"element": "O" 
			},
			{
				"x": 1.1919352611,
				"y": 1.9773237605,
				"z": -2.1683257448,
				"element": "C" 
			},
			{
				"x": 1.9882313822,
				"y": 1.3318147,
				"z": -2.8029512269,
				"element": "O" 
			},
			{
				"x": 0.7611183763,
				"y": 1.6291813066,
				"z": -0.72680457,
				"element": "C" 
			},
			{
				"x": 0.556390627,
				"y": 2.7911606783,
				"z": -0.0349479838,
				"element": "F" 
			},
			{
				"x": 1.8051159552,
				"y": 0.9729049577,
				"z": -0.1469156238,
				"element": "F" 
			},
			{
				"x": -0.4812973538,
				"y": 0.7697379874,
				"z": -0.7107843652,
				"element": "C" 
			},
			{
				"x": -0.3612943054,
				"y": -0.6124627637,
				"z": -0.8907433522,
				"element": "C" 
			},
			{
				"x": -1.5056035491,
				"y": -1.4089088001,
				"z": -0.904243723,
				"element": "C" 
			},
			{
				"x": -2.765572933,
				"y": -0.827969696,
				"z": -0.7428143161,
				"element": "C" 
			},
			{
				"x": -2.881607366,
				"y": 0.5527377905,
				"z": -0.5685013017,
				"element": "C" 
			},
			{
				"x": -1.7411154884,
				"y": 1.3555566643,
				"z": -0.5559432068,
				"element": "C" 
			},
			{
				"x": 0.8069667221,
				"y": 3.1738089052,
				"z": -3.5527794633,
				"element": "H" 
			},
			{
				"x": 0.6219134245,
				"y": -1.0542213288,
				"z": -1.0124214489,
				"element": "H" 
			},
			{
				"x": -1.4131838093,
				"y": -2.4825150675,
				"z": -1.0382705731,
				"element": "H" 
			},
			{
				"x": -3.6555848755,
				"y": -1.4504738763,
				"z": -0.752731614,
				"element": "H" 
			},
			{
				"x": -3.8602730484,
				"y": 1.0055829192,
				"z": -0.4403567516,
				"element": "H" 
			},
			{
				"x": -1.8210090199,
				"y": 2.4281550336,
				"z": -0.4185952285,
				"element": "H" 
			}
		],
		 "valence_orbital": [ 
			{
				"type": "occ",
				"energy": -0.34932,
				"method": "rhf"
			},
			{
				"type": "occ",
				"energy": -0.33679,
				"method": "rhf"
			},
			{
				"type": "occ",
				"energy": -0.29289,
				"method": "rhf"
			},
			{
				"type": "occ",
				"energy": -0.26343,
				"method": "rhf"
			},
			{
				"type": "occ",
				"energy": -0.26269,
				"method": "rhf"
			},
			{
				"type": "unocc",
				"energy": -0.03842,
				"method": "rhf"
			},
			{
				"type": "unocc",
				"energy": -0.01401,
				"method": "rhf"
			},
			{
				"type": "unocc",
				"energy": 0.00764,
				"method": "rhf"
			},
			{
				"type": "unocc",
				"energy": 0.06263,
				"method": "rhf"
			},
			{
				"type": "unocc",
				"energy": 0.08906,
				"method": "rhf"
			}
		],
		"cosmo_sigma_profile": { 
			"-0.025": 0.0,
			"-0.024": 0.0,
			"-0.023": 0.0,
			"-0.022": 0.0,
			"-0.021": 0.0,
			"-0.02": 0.25802958638,
			"-0.019": 0.934307088764,
			"-0.018": 1.30375727995,
			"-0.017": 0.661042492693,
			"-0.016": 0.709333444087,
			"-0.015": 0.964637613817,
			"-0.014": 0.6299400671,
			"-0.013": 0.533768182674,
			"-0.012": 0.925300718373,
			"-0.011": 0.549086130782,
			"-0.01": 0.529802235678,
			"-0.009": 1.12156299286,
			"-0.008": 0.689500285237,
			"-0.007": 3.56289107106,
			"-0.006": 10.4608626457,
			"-0.005": 13.2036035668,
			"-0.004": 12.161041404,
			"-0.003": 9.31215522008,
			"-0.002": 8.81706757944,
			"-0.001": 10.3752307739,
			"0.0": 12.2403029604,
			"0.001": 12.7167488203,
			"0.002": 17.6247167852,
			"0.003": 26.4926911577,
			"0.004": 19.5749536841,
			"0.005": 4.55429202178,
			"0.006": 3.39501135339,
			"0.007": 3.35298693288,
			"0.008": 2.78880909417,
			"0.009": 3.03511770972,
			"0.01": 4.78091893675,
			"0.011": 2.37517644168,
			"0.012": 0.0388443035857,
			"0.013": 0.0,
			"0.014": 0.0,
			"0.015": 0.0,
			"0.016": 0.0,
			"0.017": 0.0,
			"0.018": 0.0,
			"0.019": 0.0,
			"0.02": 0.0,
			"0.021": 0.0,
			"0.022": 0.0,
			"0.023": 0.0,
			"0.024": 0.0,
			"0.025": 0.0
		}
	}
}
