{
	 "smiles": "SC1=NC(C2=CC=CC=C2)=C(N=N1)C1=CC=CC=C1", 
	 "Tm": 496.15, 
	 "num_atms": 30, 
	 "gaussian": { 
		 "optdone": 1, 
		 "sigma_profile": "yes", 
		 "theory": "DFT", 
		 "functional": "B3LYP", 
		 "basiset": "6-31G**", 
		 "properties": { 
			 "R2extent": 6736.6955, 
			 "electric_dipole_moment_norm": 4.80997549786, 
			 "electric_quadrupole_moment_norm": 12.3074657574, 
			 "total_energy": -1140.62787993, 
			 "HOMO_LUMO_gap": 0.15287, 
			 "cosmo_polarized_energy": -11.91, 
			 "cosmo_cavitation_energy": 36.39, 
			 "cosmo_dispersion_energy": -26.29, 
			 "cosmo_repulsion_energy": 1.99, 
			 "cosmo_total_nonelectrostatic_energy": 12.1, 
			 "SMD_solvation_energy": 2.74 
		},
		"coords": [
			{
				"x": -4.9790517595,
				"y": -1.3763418349,
				"z": -0.4593151074,
				"element": "S" 
			},
			{
				"x": -3.3836680435,
				"y": -0.6870074799,
				"z": -0.8193254332,
				"element": "C" 
			},
			{
				"x": -2.9565365954,
				"y": 0.3768429847,
				"z": -0.1395261504,
				"element": "N" 
			},
			{
				"x": -1.723277455,
				"y": 0.81705266,
				"z": -0.4153504825,
				"element": "C" 
			},
			{
				"x": -1.3418344463,
				"y": 2.1060810096,
				"z": 0.2140784446,
				"element": "C" 
			},
			{
				"x": -0.5727078064,
				"y": 3.0625141612,
				"z": -0.4694112026,
				"element": "C" 
			},
			{
				"x": -0.288854874,
				"y": 4.2908449356,
				"z": 0.1237054036,
				"element": "C" 
			},
			{
				"x": -0.7561318678,
				"y": 4.5768908911,
				"z": 1.4085443748,
				"element": "C" 
			},
			{
				"x": -1.5250746266,
				"y": 3.6333099172,
				"z": 2.0934821607,
				"element": "C" 
			},
			{
				"x": -1.8262827785,
				"y": 2.4111483904,
				"z": 1.4967852812,
				"element": "C" 
			},
			{
				"x": -0.913207383,
				"y": 0.0573430207,
				"z": -1.3082482463,
				"element": "C" 
			},
			{
				"x": -1.4719165882,
				"y": -0.9385256172,
				"z": -2.0172892609,
				"element": "N" 
			},
			{
				"x": -2.7283351875,
				"y": -1.3007384939,
				"z": -1.8161932053,
				"element": "N" 
			},
			{
				"x": 0.5426532997,
				"y": 0.241890669,
				"z": -1.535089444,
				"element": "C" 
			},
			{
				"x": 1.0695496142,
				"y": 0.0727311274,
				"z": -2.8257282168,
				"element": "C" 
			},
			{
				"x": 2.4401487066,
				"y": 0.1892531007,
				"z": -3.0499982679,
				"element": "C" 
			},
			{
				"x": 3.3055193038,
				"y": 0.4613542763,
				"z": -1.9882902929,
				"element": "C" 
			},
			{
				"x": 2.7920624584,
				"y": 0.6130403048,
				"z": -0.698316941,
				"element": "C" 
			},
			{
				"x": 1.4212324218,
				"y": 0.5056714791,
				"z": -0.4715878316,
				"element": "C" 
			},
			{
				"x": -5.2796755891,
				"y": -0.4577734863,
				"z": 0.478556392,
				"element": "H" 
			},
			{
				"x": -0.2100784019,
				"y": 2.8513026587,
				"z": -1.4691780034,
				"element": "H" 
			},
			{
				"x": 0.2962357527,
				"y": 5.0265036548,
				"z": -0.4200446556,
				"element": "H" 
			},
			{
				"x": -0.5259972528,
				"y": 5.532163686,
				"z": 1.8713700967,
				"element": "H" 
			},
			{
				"x": -1.8945995565,
				"y": 3.8515323575,
				"z": 3.091140894,
				"element": "H" 
			},
			{
				"x": -2.4386613367,
				"y": 1.6801719884,
				"z": 2.0134415917,
				"element": "H" 
			},
			{
				"x": 0.3937057863,
				"y": -0.1568155528,
				"z": -3.6423044646,
				"element": "H" 
			},
			{
				"x": 2.8328639227,
				"y": 0.0640938431,
				"z": -4.054888929,
				"element": "H" 
			},
			{
				"x": 4.3738471346,
				"y": 0.5492325637,
				"z": -2.163526178,
				"element": "H" 
			},
			{
				"x": 3.460220089,
				"y": 0.8093874246,
				"z": 0.1351100723,
				"element": "H" 
			},
			{
				"x": 1.0326530589,
				"y": 0.6153453603,
				"z": 0.5355976017,
				"element": "H" 
			}
		],
		 "valence_orbital": [ 
			{
				"type": "occ",
				"energy": -0.26473,
				"method": "rhf"
			},
			{
				"type": "occ",
				"energy": -0.2607,
				"method": "rhf"
			},
			{
				"type": "occ",
				"energy": -0.25496,
				"method": "rhf"
			},
			{
				"type": "occ",
				"energy": -0.23652,
				"method": "rhf"
			},
			{
				"type": "occ",
				"energy": -0.23101,
				"method": "rhf"
			},
			{
				"type": "unocc",
				"energy": -0.07814,
				"method": "rhf"
			},
			{
				"type": "unocc",
				"energy": -0.05813,
				"method": "rhf"
			},
			{
				"type": "unocc",
				"energy": -0.01789,
				"method": "rhf"
			},
			{
				"type": "unocc",
				"energy": -0.00548,
				"method": "rhf"
			},
			{
				"type": "unocc",
				"energy": -0.00086,
				"method": "rhf"
			}
		],
		"cosmo_sigma_profile": { 
			"-0.025": 0.0,
			"-0.024": 0.0,
			"-0.023": 0.0,
			"-0.022": 0.0,
			"-0.021": 0.0,
			"-0.02": 0.0,
			"-0.019": 0.0,
			"-0.018": 0.0,
			"-0.017": 0.0,
			"-0.016": 0.0,
			"-0.015": 0.0,
			"-0.014": 0.0,
			"-0.013": 0.0,
			"-0.012": 0.337720086033,
			"-0.011": 1.72765204812,
			"-0.01": 1.35171642643,
			"-0.009": 1.16106006545,
			"-0.008": 0.972265561855,
			"-0.007": 2.71419164064,
			"-0.006": 17.8147468489,
			"-0.005": 27.2791462209,
			"-0.004": 27.2486828202,
			"-0.003": 21.3780234396,
			"-0.002": 19.9787156634,
			"-0.001": 19.082529137,
			"0.0": 20.2614840908,
			"0.001": 17.6011521843,
			"0.002": 23.5286134734,
			"0.003": 24.9197759798,
			"0.004": 28.4518978514,
			"0.005": 15.2608745428,
			"0.006": 5.54587818189,
			"0.007": 5.08788568143,
			"0.008": 2.37382987425,
			"0.009": 2.87957932187,
			"0.01": 1.62351712415,
			"0.011": 2.46786943873,
			"0.012": 2.6762216982,
			"0.013": 1.66013917678,
			"0.014": 0.691550548735,
			"0.015": 0.00238905491827,
			"0.016": 0.0,
			"0.017": 0.0,
			"0.018": 0.0,
			"0.019": 0.0,
			"0.02": 0.0,
			"0.021": 0.0,
			"0.022": 0.0,
			"0.023": 0.0,
			"0.024": 0.0,
			"0.025": 0.0
		}
	}
}
