{
	 "smiles": "CC1=CC=C(C=C1)S(=O)(=O)C1=CC=CC=C1", 
	 "Tm": 400.15, 
	 "num_atms": 28, 
	 "gaussian": { 
		 "optdone": 1, 
		 "sigma_profile": "yes", 
		 "theory": "DFT", 
		 "functional": "B3LYP", 
		 "basiset": "6-31G**", 
		 "properties": { 
			 "R2extent": 5089.3688, 
			 "electric_dipole_moment_norm": 5.71286784549, 
			 "electric_quadrupole_moment_norm": 24.8195850521, 
			 "total_energy": -1051.19055715, 
			 "HOMO_LUMO_gap": 0.2065, 
			 "cosmo_polarized_energy": -13.91, 
			 "cosmo_cavitation_energy": 33.44, 
			 "cosmo_dispersion_energy": -24.15, 
			 "cosmo_repulsion_energy": 1.83, 
			 "cosmo_total_nonelectrostatic_energy": 11.13, 
			 "SMD_solvation_energy": 5.08 
		},
		"coords": [
			{
				"x": -0.4014834429,
				"y": -2.3147992446,
				"z": 3.683130388,
				"element": "C" 
			},
			{
				"x": -0.508000743,
				"y": -1.1246742528,
				"z": 2.760347938,
				"element": "C" 
			},
			{
				"x": -1.2327535551,
				"y": -1.2081573347,
				"z": 1.5624530812,
				"element": "C" 
			},
			{
				"x": -1.3613468414,
				"y": -0.1061368424,
				"z": 0.7196018483,
				"element": "C" 
			},
			{
				"x": -0.7517770894,
				"y": 1.0974549235,
				"z": 1.0771160038,
				"element": "C" 
			},
			{
				"x": -0.0307468635,
				"y": 1.2117831051,
				"z": 2.2667784249,
				"element": "C" 
			},
			{
				"x": 0.0874694364,
				"y": 0.0996721277,
				"z": 3.0976868804,
				"element": "C" 
			},
			{
				"x": -0.9127130039,
				"y": 2.5272979072,
				"z": -0.0024908687,
				"element": "S" 
			},
			{
				"x": -2.1301691248,
				"y": 2.3339737891,
				"z": -0.8079252337,
				"element": "O" 
			},
			{
				"x": -0.7121811142,
				"y": 3.7275354049,
				"z": 0.826683455,
				"element": "O" 
			},
			{
				"x": 0.4930872736,
				"y": 2.4146849018,
				"z": -1.1261180477,
				"element": "C" 
			},
			{
				"x": 1.6944007138,
				"y": 3.0360771231,
				"z": -0.77979688,
				"element": "C" 
			},
			{
				"x": 2.7775918063,
				"y": 2.9482526872,
				"z": -1.6545121379,
				"element": "C" 
			},
			{
				"x": 2.6517368781,
				"y": 2.2494562361,
				"z": -2.8577506836,
				"element": "C" 
			},
			{
				"x": 1.440011317,
				"y": 1.6426222583,
				"z": -3.1973449086,
				"element": "C" 
			},
			{
				"x": 0.3497931824,
				"y": 1.7235325971,
				"z": -2.3306747767,
				"element": "C" 
			},
			{
				"x": 0.5352702209,
				"y": -2.3013507603,
				"z": 4.2478171789,
				"element": "H" 
			},
			{
				"x": -1.2213979735,
				"y": -2.3187219287,
				"z": 4.4120889899,
				"element": "H" 
			},
			{
				"x": -0.4536103983,
				"y": -3.2568736991,
				"z": 3.1298072801,
				"element": "H" 
			},
			{
				"x": -1.7073649315,
				"y": -2.1470038495,
				"z": 1.2892864317,
				"element": "H" 
			},
			{
				"x": -1.9416147654,
				"y": -0.1664314644,
				"z": -0.1947883496,
				"element": "H" 
			},
			{
				"x": 0.410910125,
				"y": 2.163835233,
				"z": 2.5406189884,
				"element": "H" 
			},
			{
				"x": 0.6461806221,
				"y": 0.1844093081,
				"z": 4.0261321574,
				"element": "H" 
			},
			{
				"x": 1.7636640768,
				"y": 3.5948862025,
				"z": 0.1471482917,
				"element": "H" 
			},
			{
				"x": 3.7162655862,
				"y": 3.4313878976,
				"z": -1.4003460482,
				"element": "H" 
			},
			{
				"x": 3.4972847313,
				"y": 2.1851641106,
				"z": -3.5364087545,
				"element": "H" 
			},
			{
				"x": 1.3410194204,
				"y": 1.1129015619,
				"z": -4.1400701196,
				"element": "H" 
			},
			{
				"x": -0.6067255435,
				"y": 1.2811220018,
				"z": -2.5868705289,
				"element": "H" 
			}
		],
		 "valence_orbital": [ 
			{
				"type": "occ",
				"energy": -0.28388,
				"method": "rhf"
			},
			{
				"type": "occ",
				"energy": -0.27865,
				"method": "rhf"
			},
			{
				"type": "occ",
				"energy": -0.2693,
				"method": "rhf"
			},
			{
				"type": "occ",
				"energy": -0.2655,
				"method": "rhf"
			},
			{
				"type": "occ",
				"energy": -0.25417,
				"method": "rhf"
			},
			{
				"type": "unocc",
				"energy": -0.04767,
				"method": "rhf"
			},
			{
				"type": "unocc",
				"energy": -0.02315,
				"method": "rhf"
			},
			{
				"type": "unocc",
				"energy": -0.01613,
				"method": "rhf"
			},
			{
				"type": "unocc",
				"energy": -0.01315,
				"method": "rhf"
			},
			{
				"type": "unocc",
				"energy": 0.05735,
				"method": "rhf"
			}
		],
		"cosmo_sigma_profile": { 
			"-0.025": 0.0,
			"-0.024": 0.0,
			"-0.023": 0.0,
			"-0.022": 0.0,
			"-0.021": 0.0,
			"-0.02": 0.0,
			"-0.019": 0.0,
			"-0.018": 0.0,
			"-0.017": 0.0,
			"-0.016": 0.0,
			"-0.015": 0.0,
			"-0.014": 0.0,
			"-0.013": 0.0,
			"-0.012": 0.0,
			"-0.011": 0.0,
			"-0.01": 0.0,
			"-0.009": 0.0,
			"-0.008": 0.0305378794773,
			"-0.007": 8.10426262805,
			"-0.006": 19.5915959556,
			"-0.005": 25.3622148767,
			"-0.004": 24.1328213338,
			"-0.003": 18.0533872088,
			"-0.002": 17.9204094468,
			"-0.001": 21.3928576221,
			"0.0": 19.5597674807,
			"0.001": 18.4242083892,
			"0.002": 24.0035403955,
			"0.003": 27.8061154729,
			"0.004": 9.29420566118,
			"0.005": 2.79039829764,
			"0.006": 2.77672476748,
			"0.007": 2.15913949982,
			"0.008": 3.09023679399,
			"0.009": 3.76499368153,
			"0.01": 5.60086000133,
			"0.011": 6.93290365593,
			"0.012": 6.85736837817,
			"0.013": 0.222729977369,
			"0.014": 0.0,
			"0.015": 0.0,
			"0.016": 0.0,
			"0.017": 0.0,
			"0.018": 0.0,
			"0.019": 0.0,
			"0.02": 0.0,
			"0.021": 0.0,
			"0.022": 0.0,
			"0.023": 0.0,
			"0.024": 0.0,
			"0.025": 0.0
		}
	}
}
