{
	 "smiles": "OC(=O)C(OC1=C(Cl)C=CC(Cl)=C1)C1=CC=CC=C1", 
	 "Tm": 418.15, 
	 "num_atms": 29, 
	 "gaussian": { 
		 "optdone": 1, 
		 "sigma_profile": "yes", 
		 "theory": "DFT", 
		 "functional": "B3LYP", 
		 "basiset": "6-31G**", 
		 "properties": { 
			 "R2extent": 8470.2277, 
			 "electric_dipole_moment_norm": 1.16260114399, 
			 "electric_quadrupole_moment_norm": 10.7525525862, 
			 "total_energy": -1685.57089537, 
			 "HOMO_LUMO_gap": 0.20251, 
			 "cosmo_polarized_energy": -12.72, 
			 "cosmo_cavitation_energy": 38.06, 
			 "cosmo_dispersion_energy": -26.32, 
			 "cosmo_repulsion_energy": 2.05, 
			 "cosmo_total_nonelectrostatic_energy": 13.79, 
			 "SMD_solvation_energy": 7.02 
		},
		"coords": [
			{
				"x": 0.4170336954,
				"y": -0.1373426162,
				"z": 3.1924578223,
				"element": "O" 
			},
			{
				"x": 1.3060862646,
				"y": -0.8591616406,
				"z": 2.4903926816,
				"element": "C" 
			},
			{
				"x": 2.3002946456,
				"y": -1.3638277853,
				"z": 2.9630330972,
				"element": "O" 
			},
			{
				"x": 0.9587825679,
				"y": -0.9389143489,
				"z": 0.995525919,
				"element": "C" 
			},
			{
				"x": -0.4395121448,
				"y": -0.9468504815,
				"z": 0.7548924377,
				"element": "O" 
			},
			{
				"x": -1.1738461935,
				"y": -2.0382228175,
				"z": 1.0984337754,
				"element": "C" 
			},
			{
				"x": -2.5483458805,
				"y": -1.9940238684,
				"z": 0.7934487053,
				"element": "C" 
			},
			{
				"x": -3.2197898046,
				"y": -0.5759169525,
				"z": 0.0213551688,
				"element": "Cl" 
			},
			{
				"x": -3.3748441497,
				"y": -3.0689747704,
				"z": 1.0989526857,
				"element": "C" 
			},
			{
				"x": -2.8595167456,
				"y": -4.2117212678,
				"z": 1.7133904987,
				"element": "C" 
			},
			{
				"x": -1.5024258083,
				"y": -4.2485465201,
				"z": 2.0136639424,
				"element": "C" 
			},
			{
				"x": -0.8263242967,
				"y": -5.6707343256,
				"z": 2.7904720581,
				"element": "Cl" 
			},
			{
				"x": -0.6529195481,
				"y": -3.1813936684,
				"z": 1.7166413431,
				"element": "C" 
			},
			{
				"x": 1.5704001662,
				"y": 0.259216576,
				"z": 0.2822390971,
				"element": "C" 
			},
			{
				"x": 2.9577471368,
				"y": 0.2956001473,
				"z": 0.0959216341,
				"element": "C" 
			},
			{
				"x": 3.5510579298,
				"y": 1.3891765644,
				"z": -0.5332203661,
				"element": "C" 
			},
			{
				"x": 2.7625976087,
				"y": 2.4515742002,
				"z": -0.9807831009,
				"element": "C" 
			},
			{
				"x": 1.380355077,
				"y": 2.4158119161,
				"z": -0.7920948856,
				"element": "C" 
			},
			{
				"x": 0.7811957407,
				"y": 1.3260536269,
				"z": -0.1573880504,
				"element": "C" 
			},
			{
				"x": 0.7390700855,
				"y": -0.1190740475,
				"z": 4.1099650663,
				"element": "H" 
			},
			{
				"x": 1.420523587,
				"y": -1.8606221125,
				"z": 0.6228106492,
				"element": "H" 
			},
			{
				"x": -4.4291800978,
				"y": -3.0097701066,
				"z": 0.85255721,
				"element": "H" 
			},
			{
				"x": -3.5019465843,
				"y": -5.050569657,
				"z": 1.9524405581,
				"element": "H" 
			},
			{
				"x": 0.3949558645,
				"y": -3.2530069505,
				"z": 1.9776698695,
				"element": "H" 
			},
			{
				"x": 3.5708548444,
				"y": -0.528544299,
				"z": 0.4501536197,
				"element": "H" 
			},
			{
				"x": 4.6273405536,
				"y": 1.4086476188,
				"z": -0.6771290033,
				"element": "H" 
			},
			{
				"x": 3.2237850711,
				"y": 3.3015538436,
				"z": -1.475302759,
				"element": "H" 
			},
			{
				"x": 0.7622549743,
				"y": 3.2389340244,
				"z": -1.138802692,
				"element": "H" 
			},
			{
				"x": -0.2922845589,
				"y": 1.2937497185,
				"z": -0.0132969819,
				"element": "H" 
			}
		],
		 "valence_orbital": [ 
			{
				"type": "occ",
				"energy": -0.29291,
				"method": "rhf"
			},
			{
				"type": "occ",
				"energy": -0.26188,
				"method": "rhf"
			},
			{
				"type": "occ",
				"energy": -0.25674,
				"method": "rhf"
			},
			{
				"type": "occ",
				"energy": -0.2533,
				"method": "rhf"
			},
			{
				"type": "occ",
				"energy": -0.2363,
				"method": "rhf"
			},
			{
				"type": "unocc",
				"energy": -0.03379,
				"method": "rhf"
			},
			{
				"type": "unocc",
				"energy": -0.02173,
				"method": "rhf"
			},
			{
				"type": "unocc",
				"energy": -0.01578,
				"method": "rhf"
			},
			{
				"type": "unocc",
				"energy": -0.00717,
				"method": "rhf"
			},
			{
				"type": "unocc",
				"energy": 0.00942,
				"method": "rhf"
			}
		],
		"cosmo_sigma_profile": { 
			"-0.025": 0.0,
			"-0.024": 0.0,
			"-0.023": 0.0,
			"-0.022": 0.0,
			"-0.021": 0.0,
			"-0.02": 0.092750913071,
			"-0.019": 0.828328554629,
			"-0.018": 1.22033318174,
			"-0.017": 0.852907289564,
			"-0.016": 0.333895529524,
			"-0.015": 0.366833099208,
			"-0.014": 0.635686181502,
			"-0.013": 1.00746672271,
			"-0.012": 1.30283335552,
			"-0.011": 0.83167622837,
			"-0.01": 0.461011368872,
			"-0.009": 2.51798262377,
			"-0.008": 7.14450286508,
			"-0.007": 7.34148388902,
			"-0.006": 13.4465123674,
			"-0.005": 14.5913170212,
			"-0.004": 18.968114064,
			"-0.003": 16.6084631856,
			"-0.002": 15.505206022,
			"-0.001": 18.1996566569,
			"0.0": 22.7957200018,
			"0.001": 34.5514853724,
			"0.002": 30.6131971253,
			"0.003": 29.2152931413,
			"0.004": 32.9737037581,
			"0.005": 17.5609539191,
			"0.006": 4.38884685296,
			"0.007": 2.44197100432,
			"0.008": 3.31254142003,
			"0.009": 1.72338712089,
			"0.01": 2.7287239558,
			"0.011": 4.53328459161,
			"0.012": 0.644182472472,
			"0.013": 0.0,
			"0.014": 0.0,
			"0.015": 0.0,
			"0.016": 0.0,
			"0.017": 0.0,
			"0.018": 0.0,
			"0.019": 0.0,
			"0.02": 0.0,
			"0.021": 0.0,
			"0.022": 0.0,
			"0.023": 0.0,
			"0.024": 0.0,
			"0.025": 0.0
		}
	}
}
