{
	 "smiles": "NC(C(O)=O)(C1=CC=CC=C1)C1=CC=CC=C1", 
	 "Tm": 519.15, 
	 "num_atms": 30, 
	 "gaussian": { 
		 "optdone": 1, 
		 "sigma_profile": "yes", 
		 "theory": "DFT", 
		 "functional": "B3LYP", 
		 "basiset": "6-31G**", 
		 "properties": { 
			 "R2extent": 4220.5057, 
			 "electric_dipole_moment_norm": 4.78446022243, 
			 "electric_quadrupole_moment_norm": 16.883144819, 
			 "total_energy": -746.531825761, 
			 "HOMO_LUMO_gap": 0.22302, 
			 "cosmo_polarized_energy": -15.68, 
			 "cosmo_cavitation_energy": 32.92, 
			 "cosmo_dispersion_energy": -23.19, 
			 "cosmo_repulsion_energy": 1.8, 
			 "cosmo_total_nonelectrostatic_energy": 11.53, 
			 "SMD_solvation_energy": 6.49 
		},
		"coords": [
			{
				"x": 0.74997236,
				"y": 2.078807149,
				"z": -1.9843116065,
				"element": "N" 
			},
			{
				"x": 0.8543461672,
				"y": 1.4587367496,
				"z": -0.6358274096,
				"element": "C" 
			},
			{
				"x": 1.9436584761,
				"y": 2.2729670122,
				"z": 0.139806612,
				"element": "C" 
			},
			{
				"x": 2.753647943,
				"y": 2.9717815323,
				"z": -0.6648222921,
				"element": "O" 
			},
			{
				"x": 2.0781966687,
				"y": 2.2327818587,
				"z": 1.3399957783,
				"element": "O" 
			},
			{
				"x": 1.4472925257,
				"y": 0.0436337891,
				"z": -0.7499105374,
				"element": "C" 
			},
			{
				"x": 1.4348489396,
				"y": -0.7934261466,
				"z": 0.3765203336,
				"element": "C" 
			},
			{
				"x": 1.9956606395,
				"y": -2.0668383751,
				"z": 0.3187864968,
				"element": "C" 
			},
			{
				"x": 2.5842000667,
				"y": -2.5258432727,
				"z": -0.8626474601,
				"element": "C" 
			},
			{
				"x": 2.6188017363,
				"y": -1.6937236269,
				"z": -1.9797772628,
				"element": "C" 
			},
			{
				"x": 2.0622065729,
				"y": -0.4128370221,
				"z": -1.9224395271,
				"element": "C" 
			},
			{
				"x": -0.5131080179,
				"y": 1.4714279816,
				"z": 0.0641021016,
				"element": "C" 
			},
			{
				"x": -1.4823123703,
				"y": 0.5343120714,
				"z": -0.3293003759,
				"element": "C" 
			},
			{
				"x": -2.7781620144,
				"y": 0.5845659089,
				"z": 0.1808832892,
				"element": "C" 
			},
			{
				"x": -3.1318554172,
				"y": 1.5766987866,
				"z": 1.098056005,
				"element": "C" 
			},
			{
				"x": -2.1776125347,
				"y": 2.5115080454,
				"z": 1.4971723466,
				"element": "C" 
			},
			{
				"x": -0.8784491438,
				"y": 2.461996392,
				"z": 0.9854999686,
				"element": "C" 
			},
			{
				"x": 0.3332040895,
				"y": 1.422175966,
				"z": -2.6398730502,
				"element": "H" 
			},
			{
				"x": 0.111967226,
				"y": 2.870370837,
				"z": -1.928265877,
				"element": "H" 
			},
			{
				"x": 2.3918508801,
				"y": 2.8332822712,
				"z": -1.5730816378,
				"element": "H" 
			},
			{
				"x": 0.9914641412,
				"y": -0.4355743757,
				"z": 1.2992910284,
				"element": "H" 
			},
			{
				"x": 1.9747927552,
				"y": -2.7015377206,
				"z": 1.1999055124,
				"element": "H" 
			},
			{
				"x": 3.0184937946,
				"y": -3.5203254665,
				"z": -0.9071840336,
				"element": "H" 
			},
			{
				"x": 3.085946655,
				"y": -2.0328995484,
				"z": -2.8999254235,
				"element": "H" 
			},
			{
				"x": 2.1282773896,
				"y": 0.2299753188,
				"z": -2.7937119804,
				"element": "H" 
			},
			{
				"x": -1.2160849638,
				"y": -0.2476088494,
				"z": -1.0349910057,
				"element": "H" 
			},
			{
				"x": -3.5098706815,
				"y": -0.1535792447,
				"z": -0.1352797417,
				"element": "H" 
			},
			{
				"x": -4.1398500727,
				"y": 1.6158849234,
				"z": 1.5007404948,
				"element": "H" 
			},
			{
				"x": -2.4377460567,
				"y": 3.2828537334,
				"z": 2.2164354632,
				"element": "H" 
			},
			{
				"x": -0.1443777538,
				"y": 3.1804333223,
				"z": 1.329953791,
				"element": "H" 
			}
		],
		 "valence_orbital": [ 
			{
				"type": "occ",
				"energy": -0.27102,
				"method": "rhf"
			},
			{
				"type": "occ",
				"energy": -0.25787,
				"method": "rhf"
			},
			{
				"type": "occ",
				"energy": -0.25477,
				"method": "rhf"
			},
			{
				"type": "occ",
				"energy": -0.24359,
				"method": "rhf"
			},
			{
				"type": "occ",
				"energy": -0.24296,
				"method": "rhf"
			},
			{
				"type": "unocc",
				"energy": -0.01994,
				"method": "rhf"
			},
			{
				"type": "unocc",
				"energy": -0.0135,
				"method": "rhf"
			},
			{
				"type": "unocc",
				"energy": -0.012,
				"method": "rhf"
			},
			{
				"type": "unocc",
				"energy": -0.0001,
				"method": "rhf"
			},
			{
				"type": "unocc",
				"energy": 0.0327,
				"method": "rhf"
			}
		],
		"cosmo_sigma_profile": { 
			"-0.025": 0.0,
			"-0.024": 0.0,
			"-0.023": 0.0,
			"-0.022": 0.0,
			"-0.021": 0.0,
			"-0.02": 0.0,
			"-0.019": 0.0,
			"-0.018": 0.0,
			"-0.017": 0.0,
			"-0.016": 0.0,
			"-0.015": 0.0,
			"-0.014": 0.0,
			"-0.013": 0.0,
			"-0.012": 1.18936854805,
			"-0.011": 2.9650628399,
			"-0.01": 3.93395803668,
			"-0.009": 3.90626596514,
			"-0.008": 3.59427457882,
			"-0.007": 3.96282330729,
			"-0.006": 13.4515872571,
			"-0.005": 22.0875379001,
			"-0.004": 24.4223700815,
			"-0.003": 20.4594296991,
			"-0.002": 16.1105985539,
			"-0.001": 13.7305208214,
			"0.0": 12.727543656,
			"0.001": 16.0945887709,
			"0.002": 14.511910213,
			"0.003": 17.3538061376,
			"0.004": 18.216555839,
			"0.005": 19.8722296714,
			"0.006": 8.21763729515,
			"0.007": 3.32900085029,
			"0.008": 3.15237992572,
			"0.009": 3.21621467395,
			"0.01": 5.20289601197,
			"0.011": 3.95520168668,
			"0.012": 4.6448039965,
			"0.013": 1.87396175022,
			"0.014": 0.0792492815441,
			"0.015": 0.0,
			"0.016": 0.0,
			"0.017": 0.0,
			"0.018": 0.0,
			"0.019": 0.0,
			"0.02": 0.0,
			"0.021": 0.0,
			"0.022": 0.0,
			"0.023": 0.0,
			"0.024": 0.0,
			"0.025": 0.0
		}
	}
}
