{
	 "smiles": "OC(=O)C1=CC=CC2=C1OCC2", 
	 "Tm": 443.15, 
	 "num_atms": 20, 
	 "gaussian": { 
		 "optdone": 1, 
		 "sigma_profile": "yes", 
		 "theory": "DFT", 
		 "functional": "B3LYP", 
		 "basiset": "6-31G**", 
		 "properties": { 
			 "R2extent": 2400.6426, 
			 "electric_dipole_moment_norm": 7.06332652933, 
			 "electric_quadrupole_moment_norm": 16.5693668871, 
			 "total_energy": -573.459845726, 
			 "HOMO_LUMO_gap": 0.19111, 
			 "cosmo_polarized_energy": -13.56, 
			 "cosmo_cavitation_energy": 23.5, 
			 "cosmo_dispersion_energy": -18.06, 
			 "cosmo_repulsion_energy": 1.44, 
			 "cosmo_total_nonelectrostatic_energy": 6.88, 
			 "SMD_solvation_energy": 5.15 
		},
		"coords": [
			{
				"x": -0.9066556565,
				"y": -0.5229680535,
				"z": 2.9958857196,
				"element": "O" 
			},
			{
				"x": -1.113532669,
				"y": 0.2201025742,
				"z": 1.8869757432,
				"element": "C" 
			},
			{
				"x": -1.680313001,
				"y": 1.2884122231,
				"z": 1.9573692831,
				"element": "O" 
			},
			{
				"x": -0.6181454818,
				"y": -0.3395897214,
				"z": 0.5869091562,
				"element": "C" 
			},
			{
				"x": -0.8450267359,
				"y": 0.3889575338,
				"z": -0.5949525707,
				"element": "C" 
			},
			{
				"x": -0.4229033425,
				"y": -0.0818285026,
				"z": -1.8346463972,
				"element": "C" 
			},
			{
				"x": 0.2531982974,
				"y": -1.308299215,
				"z": -1.9387880629,
				"element": "C" 
			},
			{
				"x": 0.4884640565,
				"y": -2.0462353045,
				"z": -0.7870279276,
				"element": "C" 
			},
			{
				"x": 0.0559324035,
				"y": -1.5543909013,
				"z": 0.4446757839,
				"element": "C" 
			},
			{
				"x": 0.3703166956,
				"y": -2.3874177209,
				"z": 1.4900711446,
				"element": "O" 
			},
			{
				"x": 0.8531626277,
				"y": -3.6444763658,
				"z": 0.9310491696,
				"element": "C" 
			},
			{
				"x": 1.2130163919,
				"y": -3.3529267445,
				"z": -0.5444567157,
				"element": "C" 
			},
			{
				"x": -0.4444189728,
				"y": -1.35222517,
				"z": 2.7779373083,
				"element": "H" 
			},
			{
				"x": -1.3697404425,
				"y": 1.3334978018,
				"z": -0.499274563,
				"element": "H" 
			},
			{
				"x": -0.6177672881,
				"y": 0.5028284601,
				"z": -2.727939563,
				"element": "H" 
			},
			{
				"x": 0.5852094508,
				"y": -1.6718772474,
				"z": -2.9073604068,
				"element": "H" 
			},
			{
				"x": 0.0435789674,
				"y": -4.3771690201,
				"z": 1.0169665886,
				"element": "H" 
			},
			{
				"x": 1.6974662489,
				"y": -3.9678159868,
				"z": 1.5417959233,
				"element": "H" 
			},
			{
				"x": 2.2952234961,
				"y": -3.2362598088,
				"z": -0.6791515481,
				"element": "H" 
			},
			{
				"x": 0.8847349542,
				"y": -4.1611188307,
				"z": -1.2046380656,
				"element": "H" 
			}
		],
		 "valence_orbital": [ 
			{
				"type": "occ",
				"energy": -0.33544,
				"method": "rhf"
			},
			{
				"type": "occ",
				"energy": -0.29913,
				"method": "rhf"
			},
			{
				"type": "occ",
				"energy": -0.26283,
				"method": "rhf"
			},
			{
				"type": "occ",
				"energy": -0.26114,
				"method": "rhf"
			},
			{
				"type": "occ",
				"energy": -0.23668,
				"method": "rhf"
			},
			{
				"type": "unocc",
				"energy": -0.04557,
				"method": "rhf"
			},
			{
				"type": "unocc",
				"energy": -0.00596,
				"method": "rhf"
			},
			{
				"type": "unocc",
				"energy": 0.05467,
				"method": "rhf"
			},
			{
				"type": "unocc",
				"energy": 0.06931,
				"method": "rhf"
			},
			{
				"type": "unocc",
				"energy": 0.09405,
				"method": "rhf"
			}
		],
		"cosmo_sigma_profile": { 
			"-0.025": 0.0,
			"-0.024": 0.0,
			"-0.023": 0.0,
			"-0.022": 0.0,
			"-0.021": 0.0,
			"-0.02": 0.0,
			"-0.019": 0.0,
			"-0.018": 0.0,
			"-0.017": 0.0,
			"-0.016": 0.0,
			"-0.015": 0.0,
			"-0.014": 0.0,
			"-0.013": 0.0,
			"-0.012": 0.0,
			"-0.011": 0.0,
			"-0.01": 0.076418881516,
			"-0.009": 0.578485440797,
			"-0.008": 0.764324255661,
			"-0.007": 4.3131186375,
			"-0.006": 17.7094486744,
			"-0.005": 21.2601659082,
			"-0.004": 19.066022165,
			"-0.003": 15.3720877779,
			"-0.002": 11.9131611466,
			"-0.001": 11.0597163193,
			"0.0": 10.891963648,
			"0.001": 10.8808651073,
			"0.002": 11.6210127584,
			"0.003": 10.9561047426,
			"0.004": 9.05911887834,
			"0.005": 3.85931648237,
			"0.006": 2.53802861157,
			"0.007": 1.98190848578,
			"0.008": 2.52811006978,
			"0.009": 2.84597036473,
			"0.01": 3.83590040068,
			"0.011": 5.11173067071,
			"0.012": 6.05663978965,
			"0.013": 2.83542866145,
			"0.014": 0.762568862695,
			"0.015": 0.0,
			"0.016": 0.0,
			"0.017": 0.0,
			"0.018": 0.0,
			"0.019": 0.0,
			"0.02": 0.0,
			"0.021": 0.0,
			"0.022": 0.0,
			"0.023": 0.0,
			"0.024": 0.0,
			"0.025": 0.0
		}
	}
}
