{
	 "smiles": "FC(F)(F)C1=CC(=CC(C=CC#N)=C1)C(F)(F)F", 
	 "Tm": 353.15, 
	 "num_atms": 23, 
	 "gaussian": { 
		 "optdone": 1, 
		 "sigma_profile": "yes", 
		 "theory": "DFT", 
		 "functional": "B3LYP", 
		 "basiset": "6-31G**", 
		 "properties": { 
			 "R2extent": 6483.8246, 
			 "electric_dipole_moment_norm": 3.97596119448, 
			 "electric_quadrupole_moment_norm": 18.0445516827, 
			 "total_energy": -1075.95631936, 
			 "HOMO_LUMO_gap": 0.17091, 
			 "cosmo_polarized_energy": -10.63, 
			 "cosmo_cavitation_energy": 32.36, 
			 "cosmo_dispersion_energy": -21.23, 
			 "cosmo_repulsion_energy": 1.51, 
			 "cosmo_total_nonelectrostatic_energy": 12.64, 
			 "SMD_solvation_energy": 9.2 
		},
		"coords": [
			{
				"x": 3.8838805877,
				"y": 1.7420047131,
				"z": 0.4249406006,
				"element": "F" 
			},
			{
				"x": 3.6364465593,
				"y": 0.494686817,
				"z": 0.8744964178,
				"element": "C" 
			},
			{
				"x": 4.7744750493,
				"y": -0.2176587507,
				"z": 0.7218530173,
				"element": "F" 
			},
			{
				"x": 3.393918229,
				"y": 0.5743220712,
				"z": 2.2007052326,
				"element": "F" 
			},
			{
				"x": 2.4866661957,
				"y": -0.1448513515,
				"z": 0.1378936093,
				"element": "C" 
			},
			{
				"x": 2.236103626,
				"y": 0.19591027,
				"z": -1.1900193071,
				"element": "C" 
			},
			{
				"x": 1.204030792,
				"y": -0.4494990983,
				"z": -1.8753610712,
				"element": "C" 
			},
			{
				"x": 0.4288112448,
				"y": -1.4235913074,
				"z": -1.2520590482,
				"element": "C" 
			},
			{
				"x": 0.6732106443,
				"y": -1.7728389452,
				"z": 0.0904435047,
				"element": "C" 
			},
			{
				"x": -0.0848603538,
				"y": -2.779368998,
				"z": 0.8382132619,
				"element": "C" 
			},
			{
				"x": -1.1278663174,
				"y": -3.5579104259,
				"z": 0.4741386019,
				"element": "C" 
			},
			{
				"x": -1.7727701624,
				"y": -3.5836847514,
				"z": -0.795442358,
				"element": "C" 
			},
			{
				"x": -2.3268698412,
				"y": -3.634329108,
				"z": -1.8189835136,
				"element": "N" 
			},
			{
				"x": 1.7139138313,
				"y": -1.1161523265,
				"z": 0.7706909058,
				"element": "C" 
			},
			{
				"x": 0.8950010714,
				"y": -0.0357658387,
				"z": -3.2939522361,
				"element": "C" 
			},
			{
				"x": 0.0896818187,
				"y": 1.0487355457,
				"z": -3.3201514389,
				"element": "F" 
			},
			{
				"x": 2.0202416152,
				"y": 0.2911392689,
				"z": -3.9662325425,
				"element": "F" 
			},
			{
				"x": 0.2745232763,
				"y": -1.0150374638,
				"z": -3.9788967598,
				"element": "F" 
			},
			{
				"x": 2.8347418111,
				"y": 0.9513674309,
				"z": -1.68514482,
				"element": "H" 
			},
			{
				"x": -0.3568724393,
				"y": -1.9084625585,
				"z": -1.8170295719,
				"element": "H" 
			},
			{
				"x": 0.2561080498,
				"y": -2.9166716956,
				"z": 1.8620091578,
				"element": "H" 
			},
			{
				"x": -1.541093064,
				"y": -4.2469461477,
				"z": 1.2055221672,
				"element": "H" 
			},
			{
				"x": 1.9171777761,
				"y": -1.3630973492,
				"z": 1.8077661905,
				"element": "H" 
			}
		],
		 "valence_orbital": [ 
			{
				"type": "occ",
				"energy": -0.37142,
				"method": "rhf"
			},
			{
				"type": "occ",
				"energy": -0.34097,
				"method": "rhf"
			},
			{
				"type": "occ",
				"energy": -0.33093,
				"method": "rhf"
			},
			{
				"type": "occ",
				"energy": -0.29817,
				"method": "rhf"
			},
			{
				"type": "occ",
				"energy": -0.26768,
				"method": "rhf"
			},
			{
				"type": "unocc",
				"energy": -0.09677,
				"method": "rhf"
			},
			{
				"type": "unocc",
				"energy": -0.05697,
				"method": "rhf"
			},
			{
				"type": "unocc",
				"energy": -0.01505,
				"method": "rhf"
			},
			{
				"type": "unocc",
				"energy": 0.01156,
				"method": "rhf"
			},
			{
				"type": "unocc",
				"energy": 0.07751,
				"method": "rhf"
			}
		],
		"cosmo_sigma_profile": { 
			"-0.025": 0.0,
			"-0.024": 0.0,
			"-0.023": 0.0,
			"-0.022": 0.0,
			"-0.021": 0.0,
			"-0.02": 0.0,
			"-0.019": 0.0,
			"-0.018": 0.0,
			"-0.017": 0.0,
			"-0.016": 0.0,
			"-0.015": 0.0,
			"-0.014": 0.0,
			"-0.013": 0.0,
			"-0.012": 0.0,
			"-0.011": 0.128646429039,
			"-0.01": 2.95697751619,
			"-0.009": 7.15346896195,
			"-0.008": 6.19578042548,
			"-0.007": 6.5662694722,
			"-0.006": 6.12390749952,
			"-0.005": 7.7058567438,
			"-0.004": 9.59930375627,
			"-0.003": 13.1591596315,
			"-0.002": 18.9153865668,
			"-0.001": 29.6896786538,
			"0.0": 29.8607989475,
			"0.001": 19.9279266411,
			"0.002": 48.0778312744,
			"0.003": 33.7637040094,
			"0.004": 1.69731841938,
			"0.005": 2.40704934559,
			"0.006": 2.22109259517,
			"0.007": 2.75277347909,
			"0.008": 2.42637553748,
			"0.009": 3.01246114987,
			"0.01": 2.49173893647,
			"0.011": 2.71261754107,
			"0.012": 2.16120423778,
			"0.013": 0.778480292207,
			"0.014": 0.0,
			"0.015": 0.0,
			"0.016": 0.0,
			"0.017": 0.0,
			"0.018": 0.0,
			"0.019": 0.0,
			"0.02": 0.0,
			"0.021": 0.0,
			"0.022": 0.0,
			"0.023": 0.0,
			"0.024": 0.0,
			"0.025": 0.0
		}
	}
}
