{
	 "smiles": "CC1=C(C(=N)ON1)C1=CC(Cl)=CC=C1", 
	 "Tm": 422.15, 
	 "num_atms": 23, 
	 "gaussian": { 
		 "optdone": 1, 
		 "sigma_profile": "yes", 
		 "theory": "DFT", 
		 "functional": "B3LYP", 
		 "basiset": "6-31G**", 
		 "properties": { 
			 "R2extent": 4334.6301, 
			 "electric_dipole_moment_norm": 3.18564953189, 
			 "electric_quadrupole_moment_norm": 19.1816360256, 
			 "total_energy": -1031.34560952, 
			 "HOMO_LUMO_gap": 0.17312, 
			 "cosmo_polarized_energy": -14.0, 
			 "cosmo_cavitation_energy": 28.9, 
			 "cosmo_dispersion_energy": -21.27, 
			 "cosmo_repulsion_energy": 1.68, 
			 "cosmo_total_nonelectrostatic_energy": 9.3, 
			 "SMD_solvation_energy": 4.6 
		},
		"coords": [
			{
				"x": -0.3407370747,
				"y": 0.8212255291,
				"z": -2.1787869554,
				"element": "C" 
			},
			{
				"x": 0.5282032899,
				"y": -0.3952872197,
				"z": -2.1311127214,
				"element": "C" 
			},
			{
				"x": 1.2920276458,
				"y": -0.9351552751,
				"z": -1.142891653,
				"element": "C" 
			},
			{
				"x": 1.8820377856,
				"y": -2.1609752962,
				"z": -1.6925356507,
				"element": "C" 
			},
			{
				"x": 2.627341543,
				"y": -3.0256633378,
				"z": -1.1321778318,
				"element": "N" 
			},
			{
				"x": 1.4629190388,
				"y": -2.2649770408,
				"z": -3.0168858333,
				"element": "O" 
			},
			{
				"x": 0.512751134,
				"y": -1.2292321112,
				"z": -3.2559838646,
				"element": "N" 
			},
			{
				"x": 1.5036123321,
				"y": -0.4531596264,
				"z": 0.2312014921,
				"element": "C" 
			},
			{
				"x": 1.4983930701,
				"y": 0.9236320697,
				"z": 0.5202540197,
				"element": "C" 
			},
			{
				"x": 1.6679014667,
				"y": 1.35917227,
				"z": 1.8315896192,
				"element": "C" 
			},
			{
				"x": 1.6540431492,
				"y": 3.0898335585,
				"z": 2.1633834636,
				"element": "Cl" 
			},
			{
				"x": 1.8614755896,
				"y": 0.4630455288,
				"z": 2.8800969827,
				"element": "C" 
			},
			{
				"x": 1.8922652371,
				"y": -0.9017331935,
				"z": 2.5866651733,
				"element": "C" 
			},
			{
				"x": 1.7191482016,
				"y": -1.3617784161,
				"z": 1.2836738176,
				"element": "C" 
			},
			{
				"x": -0.6872432616,
				"y": 1.0861434807,
				"z": -1.1778994293,
				"element": "H" 
			},
			{
				"x": -1.212639738,
				"y": 0.6350752179,
				"z": -2.8127133801,
				"element": "H" 
			},
			{
				"x": 0.1951607674,
				"y": 1.686871137,
				"z": -2.5873491721,
				"element": "H" 
			},
			{
				"x": 2.874467134,
				"y": -3.7735607019,
				"z": -1.7819297778,
				"element": "H" 
			},
			{
				"x": 0.7835797531,
				"y": -0.7862937892,
				"z": -4.1347602796,
				"element": "H" 
			},
			{
				"x": 1.3975388824,
				"y": 1.6569328787,
				"z": -0.270133369,
				"element": "H" 
			},
			{
				"x": 1.9958637519,
				"y": 0.8255581238,
				"z": 3.8929864177,
				"element": "H" 
			},
			{
				"x": 2.0548405744,
				"y": -1.6145651742,
				"z": 3.389730708,
				"element": "H" 
			},
			{
				"x": 1.7708497277,
				"y": -2.4203086118,
				"z": 1.0615782241,
				"element": "H" 
			}
		],
		 "valence_orbital": [ 
			{
				"type": "occ",
				"energy": -0.30564,
				"method": "rhf"
			},
			{
				"type": "occ",
				"energy": -0.27341,
				"method": "rhf"
			},
			{
				"type": "occ",
				"energy": -0.2597,
				"method": "rhf"
			},
			{
				"type": "occ",
				"energy": -0.24411,
				"method": "rhf"
			},
			{
				"type": "occ",
				"energy": -0.2131,
				"method": "rhf"
			},
			{
				"type": "unocc",
				"energy": -0.03998,
				"method": "rhf"
			},
			{
				"type": "unocc",
				"energy": -0.00962,
				"method": "rhf"
			},
			{
				"type": "unocc",
				"energy": 0.00156,
				"method": "rhf"
			},
			{
				"type": "unocc",
				"energy": 0.03031,
				"method": "rhf"
			},
			{
				"type": "unocc",
				"energy": 0.05587,
				"method": "rhf"
			}
		],
		"cosmo_sigma_profile": { 
			"-0.025": 0.0,
			"-0.024": 0.0,
			"-0.023": 0.0,
			"-0.022": 0.0,
			"-0.021": 0.0,
			"-0.02": 0.0,
			"-0.019": 0.0,
			"-0.018": 0.0,
			"-0.017": 0.00213444991025,
			"-0.016": 1.24370458612,
			"-0.015": 1.74501491687,
			"-0.014": 1.03297857128,
			"-0.013": 1.41991669102,
			"-0.012": 1.52570583207,
			"-0.011": 1.0188980742,
			"-0.01": 2.05516476283,
			"-0.009": 2.36829816461,
			"-0.008": 1.68728455584,
			"-0.007": 7.22746737161,
			"-0.006": 13.8430337691,
			"-0.005": 13.4537307272,
			"-0.004": 14.7234288261,
			"-0.003": 12.6624674026,
			"-0.002": 13.5270661361,
			"-0.001": 13.272192489,
			"0.0": 13.0241104409,
			"0.001": 17.391238377,
			"0.002": 21.1564860063,
			"0.003": 18.9545452265,
			"0.004": 21.6882353639,
			"0.005": 13.2673931977,
			"0.006": 3.26541555404,
			"0.007": 4.99948446332,
			"0.008": 4.30260007843,
			"0.009": 3.23117207974,
			"0.01": 2.86251087018,
			"0.011": 1.18344241198,
			"0.012": 1.3050563851,
			"0.013": 1.22006382263,
			"0.014": 1.34894950772,
			"0.015": 0.750988248168,
			"0.016": 0.504434696803,
			"0.017": 0.0,
			"0.018": 0.0,
			"0.019": 0.0,
			"0.02": 0.0,
			"0.021": 0.0,
			"0.022": 0.0,
			"0.023": 0.0,
			"0.024": 0.0,
			"0.025": 0.0
		}
	}
}
