{
	 "smiles": "OC(=O)C1=CC2=C(C=C1)C(=O)N(C1CC1)S2(=O)=O", 
	 "Tm": 557.15, 
	 "num_atms": 27, 
	 "gaussian": { 
		 "optdone": 1, 
		 "sigma_profile": "yes", 
		 "theory": "DFT", 
		 "functional": "B3LYP", 
		 "basiset": "6-31G**", 
		 "properties": { 
			 "R2extent": 5903.7124, 
			 "electric_dipole_moment_norm": 1.3192566278, 
			 "electric_quadrupole_moment_norm": 14.060495822, 
			 "total_energy": -1253.57199265, 
			 "HOMO_LUMO_gap": 0.17791, 
			 "cosmo_polarized_energy": -18.04, 
			 "cosmo_cavitation_energy": 33.8, 
			 "cosmo_dispersion_energy": -24.42, 
			 "cosmo_repulsion_energy": 1.82, 
			 "cosmo_total_nonelectrostatic_energy": 11.2, 
			 "SMD_solvation_energy": 6.2 
		},
		"coords": [
			{
				"x": -3.2831981044,
				"y": -1.8226103001,
				"z": -2.1563711384,
				"element": "O" 
			},
			{
				"x": -2.2370001209,
				"y": -2.530451656,
				"z": -1.6747653673,
				"element": "C" 
			},
			{
				"x": -2.2293355464,
				"y": -3.7422986286,
				"z": -1.6198628434,
				"element": "O" 
			},
			{
				"x": -1.1099143229,
				"y": -1.6597951648,
				"z": -1.2258034837,
				"element": "C" 
			},
			{
				"x": -1.1811778265,
				"y": -0.26113544,
				"z": -1.3186981317,
				"element": "C" 
			},
			{
				"x": -0.0830251862,
				"y": 0.456509145,
				"z": -0.8708805376,
				"element": "C" 
			},
			{
				"x": 1.0570633902,
				"y": -0.1561189947,
				"z": -0.3563707016,
				"element": "C" 
			},
			{
				"x": 1.1243115902,
				"y": -1.544355921,
				"z": -0.2655468261,
				"element": "C" 
			},
			{
				"x": 0.0320622857,
				"y": -2.2904559735,
				"z": -0.703987934,
				"element": "C" 
			},
			{
				"x": 2.122940311,
				"y": 0.8006591725,
				"z": 0.0697990033,
				"element": "C" 
			},
			{
				"x": 3.1716750775,
				"y": 0.5045237829,
				"z": 0.6080162459,
				"element": "O" 
			},
			{
				"x": 1.7266840781,
				"y": 2.1005416762,
				"z": -0.2512832588,
				"element": "N" 
			},
			{
				"x": 2.4080292524,
				"y": 3.2803789603,
				"z": 0.2157770278,
				"element": "C" 
			},
			{
				"x": 3.8001848652,
				"y": 3.541996653,
				"z": -0.2988659597,
				"element": "C" 
			},
			{
				"x": 2.6606273688,
				"y": 4.4033696729,
				"z": -0.7657669086,
				"element": "C" 
			},
			{
				"x": 0.1100484491,
				"y": 2.2330408441,
				"z": -0.8631134536,
				"element": "S" 
			},
			{
				"x": 0.1350529803,
				"y": 2.7614467798,
				"z": -2.2267927108,
				"element": "O" 
			},
			{
				"x": -0.7384324531,
				"y": 2.872140107,
				"z": 0.1424610606,
				"element": "O" 
			},
			{
				"x": -3.956355207,
				"y": -2.4718658968,
				"z": -2.4194113097,
				"element": "H" 
			},
			{
				"x": -2.0615600305,
				"y": 0.2243021081,
				"z": -1.722431701,
				"element": "H" 
			},
			{
				"x": 2.0144960062,
				"y": -2.0136368233,
				"z": 0.139283614,
				"element": "H" 
			},
			{
				"x": 0.0369824346,
				"y": -3.37380184,
				"z": -0.6538527701,
				"element": "H" 
			},
			{
				"x": 2.1834485491,
				"y": 3.5424623371,
				"z": 1.2463873232,
				"element": "H" 
			},
			{
				"x": 4.5142249549,
				"y": 3.9454377239,
				"z": 0.411280947,
				"element": "H" 
			},
			{
				"x": 4.2123766511,
				"y": 2.8196245748,
				"z": -0.9940565314,
				"element": "H" 
			},
			{
				"x": 2.2995861285,
				"y": 4.2699750947,
				"z": -1.7790965143,
				"element": "H" 
			},
			{
				"x": 2.5715044249,
				"y": 5.4135180066,
				"z": -0.3801471401,
				"element": "H" 
			}
		],
		 "valence_orbital": [ 
			{
				"type": "occ",
				"energy": -0.30126,
				"method": "rhf"
			},
			{
				"type": "occ",
				"energy": -0.29864,
				"method": "rhf"
			},
			{
				"type": "occ",
				"energy": -0.29304,
				"method": "rhf"
			},
			{
				"type": "occ",
				"energy": -0.28473,
				"method": "rhf"
			},
			{
				"type": "occ",
				"energy": -0.27536,
				"method": "rhf"
			},
			{
				"type": "unocc",
				"energy": -0.09745,
				"method": "rhf"
			},
			{
				"type": "unocc",
				"energy": -0.05841,
				"method": "rhf"
			},
			{
				"type": "unocc",
				"energy": -0.0144,
				"method": "rhf"
			},
			{
				"type": "unocc",
				"energy": 0.03014,
				"method": "rhf"
			},
			{
				"type": "unocc",
				"energy": 0.03444,
				"method": "rhf"
			}
		],
		"cosmo_sigma_profile": { 
			"-0.025": 0.0,
			"-0.024": 0.0,
			"-0.023": 0.0,
			"-0.022": 0.0,
			"-0.021": 0.0,
			"-0.02": 0.0,
			"-0.019": 0.619996767623,
			"-0.018": 0.902075458161,
			"-0.017": 1.03634843461,
			"-0.016": 0.580577402385,
			"-0.015": 1.01720299066,
			"-0.014": 0.992212722275,
			"-0.013": 0.362579390284,
			"-0.012": 0.514804227999,
			"-0.011": 1.53337011354,
			"-0.01": 1.84385095284,
			"-0.009": 2.64497282946,
			"-0.008": 6.27930912927,
			"-0.007": 8.70297825558,
			"-0.006": 15.7257532601,
			"-0.005": 15.2776629788,
			"-0.004": 18.75452455,
			"-0.003": 21.910432218,
			"-0.002": 27.6074171891,
			"-0.001": 24.4586277565,
			"0.0": 15.9401580195,
			"0.001": 11.3791230413,
			"0.002": 9.76130380931,
			"0.003": 9.1547725551,
			"0.004": 6.43482783729,
			"0.005": 7.23514869467,
			"0.006": 7.27085932406,
			"0.007": 7.05189379005,
			"0.008": 7.02658657904,
			"0.009": 15.9509094655,
			"0.01": 12.6713907146,
			"0.011": 9.61570431628,
			"0.012": 0.841487499248,
			"0.013": 0.0,
			"0.014": 0.0,
			"0.015": 0.0,
			"0.016": 0.0,
			"0.017": 0.0,
			"0.018": 0.0,
			"0.019": 0.0,
			"0.02": 0.0,
			"0.021": 0.0,
			"0.022": 0.0,
			"0.023": 0.0,
			"0.024": 0.0,
			"0.025": 0.0
		}
	}
}
