{
	 "smiles": "CCOC(=O)C1=C(N)OC(=N1)C1=CC=CS1", 
	 "Tm": 438.15, 
	 "num_atms": 26, 
	 "gaussian": { 
		 "optdone": 1, 
		 "sigma_profile": "yes", 
		 "theory": "DFT", 
		 "functional": "B3LYP", 
		 "basiset": "6-31G**", 
		 "properties": { 
			 "R2extent": 6819.421, 
			 "electric_dipole_moment_norm": 4.40989799882, 
			 "electric_quadrupole_moment_norm": 22.3116911374, 
			 "total_energy": -1120.44933463, 
			 "HOMO_LUMO_gap": 0.15296, 
			 "cosmo_polarized_energy": -17.93, 
			 "cosmo_cavitation_energy": 33.22, 
			 "cosmo_dispersion_energy": -24.68, 
			 "cosmo_repulsion_energy": 1.9, 
			 "cosmo_total_nonelectrostatic_energy": 10.44, 
			 "SMD_solvation_energy": 5.49 
		},
		"coords": [
			{
				"x": -3.4001713675,
				"y": 3.3195998131,
				"z": -0.2139040425,
				"element": "C" 
			},
			{
				"x": -3.7217826887,
				"y": 1.8373853543,
				"z": -0.2624546397,
				"element": "C" 
			},
			{
				"x": -2.470827048,
				"y": 1.1173052874,
				"z": -0.2975762207,
				"element": "O" 
			},
			{
				"x": -2.5843410592,
				"y": -0.2546107736,
				"z": -0.3302859029,
				"element": "C" 
			},
			{
				"x": -3.6533786941,
				"y": -0.825201624,
				"z": -0.3366876914,
				"element": "O" 
			},
			{
				"x": -1.263762994,
				"y": -0.8720380393,
				"z": -0.3604268718,
				"element": "C" 
			},
			{
				"x": -0.027053193,
				"y": -0.2515861582,
				"z": -0.3570283874,
				"element": "C" 
			},
			{
				"x": 0.3829337629,
				"y": 1.0377587438,
				"z": -0.2459720806,
				"element": "N" 
			},
			{
				"x": 0.9262572298,
				"y": -1.210983695,
				"z": -0.4233789552,
				"element": "O" 
			},
			{
				"x": 0.214359918,
				"y": -2.4124968632,
				"z": -0.4639026058,
				"element": "C" 
			},
			{
				"x": -1.0663102464,
				"y": -2.2481794752,
				"z": -0.4250093843,
				"element": "N" 
			},
			{
				"x": 0.9778460166,
				"y": -3.6324704178,
				"z": -0.5470562967,
				"element": "C" 
			},
			{
				"x": 0.4769727891,
				"y": -4.9146382711,
				"z": -0.6066536918,
				"element": "C" 
			},
			{
				"x": 1.497598403,
				"y": -5.9016065569,
				"z": -0.6814614144,
				"element": "C" 
			},
			{
				"x": 2.7587256999,
				"y": -5.3664121638,
				"z": -0.6783323813,
				"element": "C" 
			},
			{
				"x": 2.7256708391,
				"y": -3.6359733802,
				"z": -0.5828211849,
				"element": "S" 
			},
			{
				"x": -2.8362986481,
				"y": 3.629846476,
				"z": -1.0993855613,
				"element": "H" 
			},
			{
				"x": -2.8135063417,
				"y": 3.5654965736,
				"z": 0.6765858356,
				"element": "H" 
			},
			{
				"x": -4.3272073227,
				"y": 3.9002700587,
				"z": -0.1820078946,
				"element": "H" 
			},
			{
				"x": -4.308160897,
				"y": 1.5745068276,
				"z": -1.148505527,
				"element": "H" 
			},
			{
				"x": -4.2915749877,
				"y": 1.5139293676,
				"z": 0.6140528238,
				"element": "H" 
			},
			{
				"x": 1.2925715524,
				"y": 1.2639129979,
				"z": -0.6210262909,
				"element": "H" 
			},
			{
				"x": -0.3544959396,
				"y": 1.7156874309,
				"z": -0.3803423888,
				"element": "H" 
			},
			{
				"x": -0.586547569,
				"y": -5.1191114018,
				"z": -0.5956011664,
				"element": "H" 
			},
			{
				"x": 1.3025779032,
				"y": -6.9664540881,
				"z": -0.7354184604,
				"element": "H" 
			},
			{
				"x": 3.7076048824,
				"y": -5.8822360228,
				"z": -0.7261996185,
				"element": "H" 
			}
		],
		 "valence_orbital": [ 
			{
				"type": "occ",
				"energy": -0.29006,
				"method": "rhf"
			},
			{
				"type": "occ",
				"energy": -0.26515,
				"method": "rhf"
			},
			{
				"type": "occ",
				"energy": -0.26017,
				"method": "rhf"
			},
			{
				"type": "occ",
				"energy": -0.25623,
				"method": "rhf"
			},
			{
				"type": "occ",
				"energy": -0.19734,
				"method": "rhf"
			},
			{
				"type": "unocc",
				"energy": -0.04438,
				"method": "rhf"
			},
			{
				"type": "unocc",
				"energy": -0.01229,
				"method": "rhf"
			},
			{
				"type": "unocc",
				"energy": 0.02647,
				"method": "rhf"
			},
			{
				"type": "unocc",
				"energy": 0.03692,
				"method": "rhf"
			},
			{
				"type": "unocc",
				"energy": 0.06938,
				"method": "rhf"
			}
		],
		"cosmo_sigma_profile": { 
			"-0.025": 0.0,
			"-0.024": 0.0,
			"-0.023": 0.0,
			"-0.022": 0.0,
			"-0.021": 0.0,
			"-0.02": 0.0,
			"-0.019": 0.0,
			"-0.018": 0.0,
			"-0.017": 0.0,
			"-0.016": 0.17876651431,
			"-0.015": 1.46287781449,
			"-0.014": 1.24346229148,
			"-0.013": 1.33563433045,
			"-0.012": 1.61818068775,
			"-0.011": 2.32856228362,
			"-0.01": 1.78649412521,
			"-0.009": 3.56124165292,
			"-0.008": 4.19600420432,
			"-0.007": 5.87605446802,
			"-0.006": 6.84304047904,
			"-0.005": 11.2234725059,
			"-0.004": 21.251054677,
			"-0.003": 21.8871601012,
			"-0.002": 24.186279568,
			"-0.001": 21.5339268422,
			"0.0": 22.6933261112,
			"0.001": 18.3414979571,
			"0.002": 22.3191094717,
			"0.003": 22.288608389,
			"0.004": 14.7343720781,
			"0.005": 5.05410644857,
			"0.006": 2.73924773018,
			"0.007": 3.31284282368,
			"0.008": 3.75069810318,
			"0.009": 2.31094561557,
			"0.01": 2.48371622878,
			"0.011": 3.31055358786,
			"0.012": 5.56996215296,
			"0.013": 3.89795501143,
			"0.014": 2.52362063661,
			"0.015": 1.66538970187,
			"0.016": 0.148415474157,
			"0.017": 0.0,
			"0.018": 0.0,
			"0.019": 0.0,
			"0.02": 0.0,
			"0.021": 0.0,
			"0.022": 0.0,
			"0.023": 0.0,
			"0.024": 0.0,
			"0.025": 0.0
		}
	}
}
