{
	 "smiles": "CC(C)CN1C(=O)N(C)C(=O)C(C=O)=C1N", 
	 "Tm": 466.15, 
	 "num_atms": 31, 
	 "gaussian": { 
		 "optdone": 1, 
		 "sigma_profile": "yes", 
		 "theory": "DFT", 
		 "functional": "B3LYP", 
		 "basiset": "6-31G**", 
		 "properties": { 
			 "R2extent": 4065.0238, 
			 "electric_dipole_moment_norm": 5.27297466237, 
			 "electric_quadrupole_moment_norm": 14.5331753062, 
			 "total_energy": -780.094529781, 
			 "HOMO_LUMO_gap": 0.19082, 
			 "cosmo_polarized_energy": -17.53, 
			 "cosmo_cavitation_energy": 32.96, 
			 "cosmo_dispersion_energy": -23.54, 
			 "cosmo_repulsion_energy": 1.8, 
			 "cosmo_total_nonelectrostatic_energy": 11.22, 
			 "SMD_solvation_energy": 7.57 
		},
		"coords": [
			{
				"x": -1.4089562871,
				"y": -2.7989760893,
				"z": -2.2931609482,
				"element": "C" 
			},
			{
				"x": -1.0267988403,
				"y": -2.169330084,
				"z": -0.9449540413,
				"element": "C" 
			},
			{
				"x": -2.0557030754,
				"y": -2.5070892774,
				"z": 0.1423051598,
				"element": "C" 
			},
			{
				"x": -0.8635394258,
				"y": -0.6468111469,
				"z": -1.1392958512,
				"element": "C" 
			},
			{
				"x": -0.4319785823,
				"y": 0.0925999312,
				"z": 0.0618681441,
				"element": "N" 
			},
			{
				"x": -1.4361178577,
				"y": 0.8137137024,
				"z": 0.7562599527,
				"element": "C" 
			},
			{
				"x": -2.5971463104,
				"y": 0.7903794985,
				"z": 0.3763841069,
				"element": "O" 
			},
			{
				"x": -1.0363303645,
				"y": 1.5277449079,
				"z": 1.8645378219,
				"element": "N" 
			},
			{
				"x": -2.091421527,
				"y": 2.2586175651,
				"z": 2.575387685,
				"element": "C" 
			},
			{
				"x": 0.2983710618,
				"y": 1.6086071874,
				"z": 2.3508639257,
				"element": "C" 
			},
			{
				"x": 0.5465377563,
				"y": 2.2714166389,
				"z": 3.3510651832,
				"element": "O" 
			},
			{
				"x": 1.2770271106,
				"y": 0.8670916739,
				"z": 1.5836322971,
				"element": "C" 
			},
			{
				"x": 2.6522684574,
				"y": 0.8930506068,
				"z": 2.0160178932,
				"element": "C" 
			},
			{
				"x": 3.5951973079,
				"y": 0.3092873759,
				"z": 1.4572344202,
				"element": "O" 
			},
			{
				"x": 0.8866498514,
				"y": 0.1294917907,
				"z": 0.4513743947,
				"element": "C" 
			},
			{
				"x": 1.8083670144,
				"y": -0.5326006724,
				"z": -0.2610309203,
				"element": "N" 
			},
			{
				"x": -1.493554411,
				"y": -3.885997449,
				"z": -2.2027579166,
				"element": "H" 
			},
			{
				"x": -0.665920688,
				"y": -2.5856819986,
				"z": -3.0702380574,
				"element": "H" 
			},
			{
				"x": -2.3757861891,
				"y": -2.4182130348,
				"z": -2.6420622525,
				"element": "H" 
			},
			{
				"x": -0.0606386908,
				"y": -2.5927308925,
				"z": -0.63400173,
				"element": "H" 
			},
			{
				"x": -2.1597493677,
				"y": -3.5921353857,
				"z": 0.2431867247,
				"element": "H" 
			},
			{
				"x": -1.758454102,
				"y": -2.1114964414,
				"z": 1.1178486062,
				"element": "H" 
			},
			{
				"x": -3.0371129232,
				"y": -2.0881457999,
				"z": -0.1012077426,
				"element": "H" 
			},
			{
				"x": -1.8212245375,
				"y": -0.2113217685,
				"z": -1.4247419703,
				"element": "H" 
			},
			{
				"x": -0.1511688045,
				"y": -0.4302321605,
				"z": -1.943708369,
				"element": "H" 
			},
			{
				"x": -2.8631074575,
				"y": 1.5645586856,
				"z": 2.9147485243,
				"element": "H" 
			},
			{
				"x": -1.6201895697,
				"y": 2.7528354459,
				"z": 3.4216563177,
				"element": "H" 
			},
			{
				"x": -2.5532036696,
				"y": 2.991618425,
				"z": 1.9104158181,
				"element": "H" 
			},
			{
				"x": 2.8319282507,
				"y": 1.4924642806,
				"z": 2.9225285925,
				"element": "H" 
			},
			{
				"x": 1.5704461192,
				"y": -1.1435807327,
				"z": -1.021972196,
				"element": "H" 
			},
			{
				"x": 2.7624097514,
				"y": -0.4632347821,
				"z": 0.1230164275,
				"element": "H" 
			}
		],
		 "valence_orbital": [ 
			{
				"type": "occ",
				"energy": -0.29191,
				"method": "rhf"
			},
			{
				"type": "occ",
				"energy": -0.27237,
				"method": "rhf"
			},
			{
				"type": "occ",
				"energy": -0.26852,
				"method": "rhf"
			},
			{
				"type": "occ",
				"energy": -0.24823,
				"method": "rhf"
			},
			{
				"type": "occ",
				"energy": -0.23467,
				"method": "rhf"
			},
			{
				"type": "unocc",
				"energy": -0.04385,
				"method": "rhf"
			},
			{
				"type": "unocc",
				"energy": -0.00777,
				"method": "rhf"
			},
			{
				"type": "unocc",
				"energy": 0.0285,
				"method": "rhf"
			},
			{
				"type": "unocc",
				"energy": 0.04537,
				"method": "rhf"
			},
			{
				"type": "unocc",
				"energy": 0.09366,
				"method": "rhf"
			}
		],
		"cosmo_sigma_profile": { 
			"-0.025": 0.0,
			"-0.024": 0.0,
			"-0.023": 0.0,
			"-0.022": 0.0,
			"-0.021": 0.0,
			"-0.02": 0.0,
			"-0.019": 0.0,
			"-0.018": 0.0,
			"-0.017": 0.0,
			"-0.016": 0.119154949555,
			"-0.015": 0.799875904805,
			"-0.014": 1.18364506407,
			"-0.013": 1.39917123793,
			"-0.012": 1.37027078689,
			"-0.011": 1.24750865003,
			"-0.01": 1.53646203946,
			"-0.009": 2.90645643495,
			"-0.008": 1.95729046107,
			"-0.007": 3.23890861947,
			"-0.006": 5.96592313139,
			"-0.005": 13.6455905686,
			"-0.004": 22.6683086066,
			"-0.003": 32.311106862,
			"-0.002": 29.6339841957,
			"-0.001": 24.6035095648,
			"0.0": 25.8376001511,
			"0.001": 20.0413693645,
			"0.002": 9.60435241591,
			"0.003": 6.22215744532,
			"0.004": 5.52792207023,
			"0.005": 4.32780164001,
			"0.006": 4.73529054707,
			"0.007": 3.8554447948,
			"0.008": 4.42825425711,
			"0.009": 4.75018266134,
			"0.01": 5.01536287394,
			"0.011": 5.53270833518,
			"0.012": 8.98707205915,
			"0.013": 5.28031128934,
			"0.014": 0.875087845663,
			"0.015": 0.0,
			"0.016": 0.0,
			"0.017": 0.0,
			"0.018": 0.0,
			"0.019": 0.0,
			"0.02": 0.0,
			"0.021": 0.0,
			"0.022": 0.0,
			"0.023": 0.0,
			"0.024": 0.0,
			"0.025": 0.0
		}
	}
}
