{
	 "smiles": "ClCC1=NN=NN1C1=C(Br)C=CC=C1", 
	 "Tm": 319.15, 
	 "num_atms": 20, 
	 "gaussian": { 
		 "optdone": 1, 
		 "sigma_profile": "yes", 
		 "theory": "DFT", 
		 "functional": "B3LYP", 
		 "basiset": "6-31G**", 
		 "properties": { 
			 "R2extent": 4228.1111, 
			 "electric_dipole_moment_norm": 6.4712936002, 
			 "electric_quadrupole_moment_norm": 13.2130722707, 
			 "total_energy": -3559.00497237, 
			 "HOMO_LUMO_gap": 0.2113, 
			 "cosmo_polarized_energy": -16.12, 
			 "cosmo_cavitation_energy": 29.45, 
			 "cosmo_dispersion_energy": -20.59, 
			 "cosmo_repulsion_energy": 1.61, 
			 "cosmo_total_nonelectrostatic_energy": 10.48, 
			 "SMD_solvation_energy": 1.95 
		},
		"coords": [
			{
				"x": 1.1878639754,
				"y": -3.7198701108,
				"z": 0.0708897139,
				"element": "Cl" 
			},
			{
				"x": 0.4658141409,
				"y": -2.8663495776,
				"z": -1.3640469148,
				"element": "C" 
			},
			{
				"x": -0.771910772,
				"y": -2.1199931223,
				"z": -1.0216456658,
				"element": "C" 
			},
			{
				"x": -1.9959329064,
				"y": -2.4912149189,
				"z": -1.3435353552,
				"element": "N" 
			},
			{
				"x": -2.8224225569,
				"y": -1.525729199,
				"z": -0.863780878,
				"element": "N" 
			},
			{
				"x": -2.160612169,
				"y": -0.5925107282,
				"z": -0.2672205522,
				"element": "N" 
			},
			{
				"x": -0.8461700455,
				"y": -0.9403119817,
				"z": -0.351775412,
				"element": "N" 
			},
			{
				"x": 0.1859368669,
				"y": -0.1136394597,
				"z": 0.1836709271,
				"element": "C" 
			},
			{
				"x": 0.4519296511,
				"y": -0.0782200014,
				"z": 1.5597540269,
				"element": "C" 
			},
			{
				"x": -0.543806155,
				"y": -1.1370171282,
				"z": 2.7778098959,
				"element": "Br" 
			},
			{
				"x": 1.4672346102,
				"y": 0.7461174458,
				"z": 2.045201829,
				"element": "C" 
			},
			{
				"x": 2.2151601371,
				"y": 1.5266467254,
				"z": 1.1640112099,
				"element": "C" 
			},
			{
				"x": 1.9514520529,
				"y": 1.4957011561,
				"z": -0.2059508038,
				"element": "C" 
			},
			{
				"x": 0.9329959312,
				"y": 0.6792671419,
				"z": -0.6921970701,
				"element": "C" 
			},
			{
				"x": 0.2168759882,
				"y": -3.6288827912,
				"z": -2.0997474402,
				"element": "H" 
			},
			{
				"x": 1.2450214365,
				"y": -2.2094288554,
				"z": -1.751138218,
				"element": "H" 
			},
			{
				"x": 1.6674024994,
				"y": 0.7690178339,
				"z": 3.1100531336,
				"element": "H" 
			},
			{
				"x": 3.00389673,
				"y": 2.1621133724,
				"z": 1.5545481778,
				"element": "H" 
			},
			{
				"x": 2.5270103122,
				"y": 2.1087734949,
				"z": -0.891525343,
				"element": "H" 
			},
			{
				"x": 0.6938602728,
				"y": 0.6570307043,
				"z": -1.7507752611,
				"element": "H" 
			}
		],
		 "valence_orbital": [ 
			{
				"type": "occ",
				"energy": -0.3045,
				"method": "rhf"
			},
			{
				"type": "occ",
				"energy": -0.30239,
				"method": "rhf"
			},
			{
				"type": "occ",
				"energy": -0.29789,
				"method": "rhf"
			},
			{
				"type": "occ",
				"energy": -0.28087,
				"method": "rhf"
			},
			{
				"type": "occ",
				"energy": -0.26427,
				"method": "rhf"
			},
			{
				"type": "unocc",
				"energy": -0.05297,
				"method": "rhf"
			},
			{
				"type": "unocc",
				"energy": -0.04249,
				"method": "rhf"
			},
			{
				"type": "unocc",
				"energy": -0.04109,
				"method": "rhf"
			},
			{
				"type": "unocc",
				"energy": -0.0105,
				"method": "rhf"
			},
			{
				"type": "unocc",
				"energy": -0.00185,
				"method": "rhf"
			}
		],
		"cosmo_sigma_profile": { 
			"-0.025": 0.0,
			"-0.024": 0.0,
			"-0.023": 0.0,
			"-0.022": 0.0,
			"-0.021": 0.0,
			"-0.02": 0.0,
			"-0.019": 0.0,
			"-0.018": 0.0,
			"-0.017": 0.0,
			"-0.016": 0.0,
			"-0.015": 0.0,
			"-0.014": 0.0,
			"-0.013": 0.0,
			"-0.012": 0.0,
			"-0.011": 0.234972543547,
			"-0.01": 3.46964597254,
			"-0.009": 6.99582231794,
			"-0.008": 10.1419475929,
			"-0.007": 14.887332625,
			"-0.006": 12.757011866,
			"-0.005": 10.5134212865,
			"-0.004": 10.0881725362,
			"-0.003": 10.1402057355,
			"-0.002": 10.790377029,
			"-0.001": 13.9649161516,
			"0.0": 19.8393987426,
			"0.001": 21.838073003,
			"0.002": 21.3351216497,
			"0.003": 15.925791367,
			"0.004": 15.7525715878,
			"0.005": 12.6806127885,
			"0.006": 4.24281947883,
			"0.007": 5.28088423068,
			"0.008": 4.99525305015,
			"0.009": 4.03608759484,
			"0.01": 4.52486730544,
			"0.011": 3.49844969671,
			"0.012": 2.25179255458,
			"0.013": 2.10902793753,
			"0.014": 0.566353468829,
			"0.015": 0.00769972628536,
			"0.016": 0.0,
			"0.017": 0.0,
			"0.018": 0.0,
			"0.019": 0.0,
			"0.02": 0.0,
			"0.021": 0.0,
			"0.022": 0.0,
			"0.023": 0.0,
			"0.024": 0.0,
			"0.025": 0.0
		}
	}
}
