{
	 "smiles": "NC1=CC=C(C=C1)S(=O)(=O)NC1=CC(Cl)=CC=C1", 
	 "Tm": 406.15, 
	 "num_atms": 29, 
	 "gaussian": { 
		 "optdone": 1, 
		 "sigma_profile": "yes", 
		 "theory": "DFT", 
		 "functional": "B3LYP", 
		 "basiset": "6-31G**", 
		 "properties": { 
			 "R2extent": 6345.9155, 
			 "electric_dipole_moment_norm": 5.06217797396, 
			 "electric_quadrupole_moment_norm": 39.4722217468, 
			 "total_energy": -1582.17295568, 
			 "HOMO_LUMO_gap": 0.19577, 
			 "cosmo_polarized_energy": -20.78, 
			 "cosmo_cavitation_energy": 36.72, 
			 "cosmo_dispersion_energy": -26.4, 
			 "cosmo_repulsion_energy": 2.02, 
			 "cosmo_total_nonelectrostatic_energy": 12.34, 
			 "SMD_solvation_energy": 5.03 
		},
		"coords": [
			{
				"x": -4.1746737682,
				"y": -0.5591596032,
				"z": 1.9682078478,
				"element": "N" 
			},
			{
				"x": -3.2344082681,
				"y": -0.0247529775,
				"z": 1.1088112301,
				"element": "C" 
			},
			{
				"x": -2.9281920442,
				"y": -0.6625096511,
				"z": -0.1094028762,
				"element": "C" 
			},
			{
				"x": -1.9472400913,
				"y": -0.1503926322,
				"z": -0.9490065005,
				"element": "C" 
			},
			{
				"x": -1.2533167306,
				"y": 1.0057182793,
				"z": -0.5811227009,
				"element": "C" 
			},
			{
				"x": -1.5515937287,
				"y": 1.6597933779,
				"z": 0.6200288932,
				"element": "C" 
			},
			{
				"x": -2.5295129905,
				"y": 1.1475647339,
				"z": 1.457816979,
				"element": "C" 
			},
			{
				"x": -0.0343704025,
				"y": 1.6860560521,
				"z": -1.6812217584,
				"element": "S" 
			},
			{
				"x": -0.2059569695,
				"y": 3.1408570822,
				"z": -1.7550974902,
				"element": "O" 
			},
			{
				"x": 0.0007816364,
				"y": 0.8498871444,
				"z": -2.8823672341,
				"element": "O" 
			},
			{
				"x": 1.4382964114,
				"y": 1.541558974,
				"z": -0.8111022348,
				"element": "N" 
			},
			{
				"x": 2.3106516328,
				"y": 0.4337879748,
				"z": -0.9253583653,
				"element": "C" 
			},
			{
				"x": 1.8266975477,
				"y": -0.8778974286,
				"z": -0.8281950116,
				"element": "C" 
			},
			{
				"x": 2.7283715049,
				"y": -1.9354092295,
				"z": -0.8970674808,
				"element": "C" 
			},
			{
				"x": 2.1106722492,
				"y": -3.5793492463,
				"z": -0.7835498977,
				"element": "Cl" 
			},
			{
				"x": 4.100763977,
				"y": -1.7337633442,
				"z": -1.0366000874,
				"element": "C" 
			},
			{
				"x": 4.5678647324,
				"y": -0.4217727001,
				"z": -1.1167032902,
				"element": "C" 
			},
			{
				"x": 3.6869991038,
				"y": 0.6562338205,
				"z": -1.0727507919,
				"element": "C" 
			},
			{
				"x": -4.5671777545,
				"y": 0.0569827812,
				"z": 2.6641896146,
				"element": "H" 
			},
			{
				"x": -4.8393634402,
				"y": -1.2100274222,
				"z": 1.5774105386,
				"element": "H" 
			},
			{
				"x": -3.4660615294,
				"y": -1.5627084713,
				"z": -0.3938580386,
				"element": "H" 
			},
			{
				"x": -1.7188901164,
				"y": -0.6326477396,
				"z": -1.8932060962,
				"element": "H" 
			},
			{
				"x": -1.0237731917,
				"y": 2.5680678335,
				"z": 0.8905186575,
				"element": "H" 
			},
			{
				"x": -2.7587566632,
				"y": 1.6510554189,
				"z": 2.3930898678,
				"element": "H" 
			},
			{
				"x": 1.895672245,
				"y": 2.4470043217,
				"z": -0.8613413351,
				"element": "H" 
			},
			{
				"x": 0.7713430203,
				"y": -1.0734959393,
				"z": -0.6909572651,
				"element": "H" 
			},
			{
				"x": 4.7783134164,
				"y": -2.5781032508,
				"z": -1.0819961088,
				"element": "H" 
			},
			{
				"x": 5.6322855232,
				"y": -0.2382502667,
				"z": -1.227846568,
				"element": "H" 
			},
			{
				"x": 4.0628746884,
				"y": 1.6723721078,
				"z": -1.1545224969,
				"element": "H" 
			}
		],
		 "valence_orbital": [ 
			{
				"type": "occ",
				"energy": -0.29772,
				"method": "rhf"
			},
			{
				"type": "occ",
				"energy": -0.27138,
				"method": "rhf"
			},
			{
				"type": "occ",
				"energy": -0.25074,
				"method": "rhf"
			},
			{
				"type": "occ",
				"energy": -0.23358,
				"method": "rhf"
			},
			{
				"type": "occ",
				"energy": -0.22289,
				"method": "rhf"
			},
			{
				"type": "unocc",
				"energy": -0.02712,
				"method": "rhf"
			},
			{
				"type": "unocc",
				"energy": -0.02057,
				"method": "rhf"
			},
			{
				"type": "unocc",
				"energy": -0.01325,
				"method": "rhf"
			},
			{
				"type": "unocc",
				"energy": -0.00959,
				"method": "rhf"
			},
			{
				"type": "unocc",
				"energy": 0.03122,
				"method": "rhf"
			}
		],
		"cosmo_sigma_profile": { 
			"-0.025": 0.0,
			"-0.024": 0.0,
			"-0.023": 0.0,
			"-0.022": 0.0,
			"-0.021": 0.0,
			"-0.02": 0.0,
			"-0.019": 0.0,
			"-0.018": 0.0,
			"-0.017": 0.0,
			"-0.016": 0.0,
			"-0.015": 0.679786450215,
			"-0.014": 1.64087502893,
			"-0.013": 4.28941383603,
			"-0.012": 4.68879731296,
			"-0.011": 3.73776589345,
			"-0.01": 4.59961814789,
			"-0.009": 4.41983329087,
			"-0.008": 4.94804151437,
			"-0.007": 11.8647738526,
			"-0.006": 13.6964903473,
			"-0.005": 15.7460236152,
			"-0.004": 14.3023377303,
			"-0.003": 12.9037098105,
			"-0.002": 13.8598508869,
			"-0.001": 13.7381007082,
			"0.0": 16.7587760505,
			"0.001": 18.6778337978,
			"0.002": 23.6654169467,
			"0.003": 34.7886565854,
			"0.004": 27.4502117105,
			"0.005": 10.7979355368,
			"0.006": 4.61106157517,
			"0.007": 5.66430949519,
			"0.008": 4.16495707025,
			"0.009": 4.34950352795,
			"0.01": 9.01825750641,
			"0.011": 8.97681155032,
			"0.012": 2.17580741207,
			"0.013": 0.0,
			"0.014": 0.0,
			"0.015": 0.0,
			"0.016": 0.0,
			"0.017": 0.0,
			"0.018": 0.0,
			"0.019": 0.0,
			"0.02": 0.0,
			"0.021": 0.0,
			"0.022": 0.0,
			"0.023": 0.0,
			"0.024": 0.0,
			"0.025": 0.0
		}
	}
}
