{
	 "smiles": "O=C(N1CCNCC1)C1=NC=CC=C1", 
	 "Tm": 505.15, 
	 "num_atms": 27, 
	 "gaussian": { 
		 "optdone": 1, 
		 "sigma_profile": "yes", 
		 "theory": "DFT", 
		 "functional": "B3LYP", 
		 "basiset": "6-31G**", 
		 "properties": { 
			 "R2extent": 3279.1296, 
			 "electric_dipole_moment_norm": 2.41893791776, 
			 "electric_quadrupole_moment_norm": 13.1949555683, 
			 "total_energy": -628.367575348, 
			 "HOMO_LUMO_gap": 0.17381, 
			 "cosmo_polarized_energy": -13.02, 
			 "cosmo_cavitation_energy": 29.16, 
			 "cosmo_dispersion_energy": -21.75, 
			 "cosmo_repulsion_energy": 1.71, 
			 "cosmo_total_nonelectrostatic_energy": 9.12, 
			 "SMD_solvation_energy": 1.37 
		},
		"coords": [
			{
				"x": 0.837847729,
				"y": -2.2901368461,
				"z": 0.0947544686,
				"element": "O" 
			},
			{
				"x": 0.2975477707,
				"y": -1.1830113131,
				"z": 0.0128172151,
				"element": "C" 
			},
			{
				"x": -1.0146805845,
				"y": -1.0629972637,
				"z": -0.3470618369,
				"element": "N" 
			},
			{
				"x": -1.7257599235,
				"y": 0.1707796755,
				"z": -0.7210897588,
				"element": "C" 
			},
			{
				"x": -2.683826408,
				"y": -0.1124124461,
				"z": -1.8788032172,
				"element": "C" 
			},
			{
				"x": -3.7194457792,
				"y": -1.0767766159,
				"z": -1.4793029945,
				"element": "N" 
			},
			{
				"x": -3.2585050896,
				"y": -2.0409729414,
				"z": -0.4685562795,
				"element": "C" 
			},
			{
				"x": -1.7558737601,
				"y": -2.3236435503,
				"z": -0.5201756985,
				"element": "C" 
			},
			{
				"x": 1.1190781735,
				"y": 0.0431502912,
				"z": 0.3549416813,
				"element": "C" 
			},
			{
				"x": 0.5177507956,
				"y": 1.1596764608,
				"z": 0.7929672874,
				"element": "N" 
			},
			{
				"x": 1.2947801601,
				"y": 2.1867896173,
				"z": 1.1569451097,
				"element": "C" 
			},
			{
				"x": 2.6880090097,
				"y": 2.1592978479,
				"z": 1.0957039593,
				"element": "C" 
			},
			{
				"x": 3.3070687589,
				"y": 0.9945958804,
				"z": 0.6395902277,
				"element": "C" 
			},
			{
				"x": 2.5124121217,
				"y": -0.086234315,
				"z": 0.2715415373,
				"element": "C" 
			},
			{
				"x": -2.2777561149,
				"y": 0.5763064393,
				"z": 0.1352174776,
				"element": "H" 
			},
			{
				"x": -1.0060805879,
				"y": 0.929790192,
				"z": -1.0195545708,
				"element": "H" 
			},
			{
				"x": -2.0849549351,
				"y": -0.4570441528,
				"z": -2.7387794373,
				"element": "H" 
			},
			{
				"x": -3.1571190031,
				"y": 0.8319427819,
				"z": -2.1771899947,
				"element": "H" 
			},
			{
				"x": -4.0556523319,
				"y": -1.5702218953,
				"z": -2.2990396541,
				"element": "H" 
			},
			{
				"x": -3.8090405498,
				"y": -2.9784466178,
				"z": -0.5936216389,
				"element": "H" 
			},
			{
				"x": -3.5087655194,
				"y": -1.6658431148,
				"z": 0.5331109497,
				"element": "H" 
			},
			{
				"x": -1.452162057,
				"y": -3.0118428711,
				"z": 0.2727384323,
				"element": "H" 
			},
			{
				"x": -1.4808357619,
				"y": -2.8003231948,
				"z": -1.4721126604,
				"element": "H" 
			},
			{
				"x": 0.7762069446,
				"y": 3.0738978732,
				"z": 1.5164914493,
				"element": "H" 
			},
			{
				"x": 3.2669392399,
				"y": 3.025423492,
				"z": 1.4006010622,
				"element": "H" 
			},
			{
				"x": 4.389642995,
				"y": 0.9291894262,
				"z": 0.5789581367,
				"element": "H" 
			},
			{
				"x": 2.9303747073,
				"y": -1.0282328394,
				"z": -0.0621912529,
				"element": "H" 
			}
		],
		 "valence_orbital": [ 
			{
				"type": "occ",
				"energy": -0.27031,
				"method": "rhf"
			},
			{
				"type": "occ",
				"energy": -0.26254,
				"method": "rhf"
			},
			{
				"type": "occ",
				"energy": -0.24036,
				"method": "rhf"
			},
			{
				"type": "occ",
				"energy": -0.2293,
				"method": "rhf"
			},
			{
				"type": "occ",
				"energy": -0.21699,
				"method": "rhf"
			},
			{
				"type": "unocc",
				"energy": -0.04318,
				"method": "rhf"
			},
			{
				"type": "unocc",
				"energy": -0.02329,
				"method": "rhf"
			},
			{
				"type": "unocc",
				"energy": 0.05825,
				"method": "rhf"
			},
			{
				"type": "unocc",
				"energy": 0.07563,
				"method": "rhf"
			},
			{
				"type": "unocc",
				"energy": 0.09671,
				"method": "rhf"
			}
		],
		"cosmo_sigma_profile": { 
			"-0.025": 0.0,
			"-0.024": 0.0,
			"-0.023": 0.0,
			"-0.022": 0.0,
			"-0.021": 0.0,
			"-0.02": 0.0,
			"-0.019": 0.0,
			"-0.018": 0.0,
			"-0.017": 0.0,
			"-0.016": 0.0,
			"-0.015": 0.0,
			"-0.014": 0.0,
			"-0.013": 0.0,
			"-0.012": 0.0,
			"-0.011": 0.152517243461,
			"-0.01": 1.27507094244,
			"-0.009": 1.65326334252,
			"-0.008": 1.33919374086,
			"-0.007": 6.874925882,
			"-0.006": 11.1913271193,
			"-0.005": 14.4803218613,
			"-0.004": 22.7883903427,
			"-0.003": 30.1554726943,
			"-0.002": 21.9008124743,
			"-0.001": 17.4676218072,
			"0.0": 15.5539401923,
			"0.001": 16.8110331051,
			"0.002": 17.8060069218,
			"0.003": 7.98040571583,
			"0.004": 4.83611578942,
			"0.005": 4.5105297284,
			"0.006": 3.04754870547,
			"0.007": 3.70226808221,
			"0.008": 3.7327138002,
			"0.009": 3.5734509844,
			"0.01": 2.04570475361,
			"0.011": 2.92540611439,
			"0.012": 3.36591702731,
			"0.013": 2.74286883158,
			"0.014": 5.40130517732,
			"0.015": 0.996243618737,
			"0.016": 0.764800844789,
			"0.017": 0.400831453377,
			"0.018": 0.490279673183,
			"0.019": 0.0521230900588,
			"0.02": 0.0,
			"0.021": 0.0,
			"0.022": 0.0,
			"0.023": 0.0,
			"0.024": 0.0,
			"0.025": 0.0
		}
	}
}
