{
	 "smiles": "ClC1=CC=C(OCCCBr)C=C1", 
	 "Tm": 304.65, 
	 "num_atms": 22, 
	 "gaussian": { 
		 "optdone": 1, 
		 "sigma_profile": "yes", 
		 "theory": "DFT", 
		 "functional": "B3LYP", 
		 "basiset": "6-31G**", 
		 "properties": { 
			 "R2extent": 6272.6472, 
			 "electric_dipole_moment_norm": 4.21210728258, 
			 "electric_quadrupole_moment_norm": 9.94392483379, 
			 "total_energy": -3455.80059034, 
			 "HOMO_LUMO_gap": 0.20775, 
			 "cosmo_polarized_energy": -10.4, 
			 "cosmo_cavitation_energy": 29.84, 
			 "cosmo_dispersion_energy": -22.0, 
			 "cosmo_repulsion_energy": 1.77, 
			 "cosmo_total_nonelectrostatic_energy": 9.62, 
			 "SMD_solvation_energy": 3.65 
		},
		"coords": [
			{
				"x": -3.3051643073,
				"y": -4.0286924071,
				"z": 3.8664564438,
				"element": "Cl" 
			},
			{
				"x": -2.3178077056,
				"y": -3.0973003158,
				"z": 2.7453032543,
				"element": "C" 
			},
			{
				"x": -2.2777531323,
				"y": -3.4592155094,
				"z": 1.3958658578,
				"element": "C" 
			},
			{
				"x": -1.4982488803,
				"y": -2.7230278718,
				"z": 0.5129566247,
				"element": "C" 
			},
			{
				"x": -0.7540481582,
				"y": -1.6239716093,
				"z": 0.9683166378,
				"element": "C" 
			},
			{
				"x": -0.0193770915,
				"y": -0.9767181279,
				"z": 0.0187213484,
				"element": "O" 
			},
			{
				"x": 0.7249702237,
				"y": 0.1723913223,
				"z": 0.3958833479,
				"element": "C" 
			},
			{
				"x": 1.4323257324,
				"y": 0.7366679421,
				"z": -0.8319090179,
				"element": "C" 
			},
			{
				"x": 0.5581386854,
				"y": 1.4757140564,
				"z": -1.8397623305,
				"element": "C" 
			},
			{
				"x": -0.5415534632,
				"y": 0.3016688744,
				"z": -2.9947793356,
				"element": "Br" 
			},
			{
				"x": -0.8012494389,
				"y": -1.2680369185,
				"z": 2.3212763252,
				"element": "C" 
			},
			{
				"x": -1.5867597728,
				"y": -2.0096315233,
				"z": 3.2093467499,
				"element": "C" 
			},
			{
				"x": -2.85344201,
				"y": -4.3078909937,
				"z": 1.0432908715,
				"element": "H" 
			},
			{
				"x": -1.452020611,
				"y": -2.9782488442,
				"z": -0.5402611345,
				"element": "H" 
			},
			{
				"x": 1.47297865,
				"y": -0.0978190748,
				"z": 1.1555201904,
				"element": "H" 
			},
			{
				"x": 0.059851163,
				"y": 0.9301620701,
				"z": 0.837622712,
				"element": "H" 
			},
			{
				"x": 2.1692308102,
				"y": 1.4663222014,
				"z": -0.4666765721,
				"element": "H" 
			},
			{
				"x": 1.9956454614,
				"y": -0.060335282,
				"z": -1.3273192655,
				"element": "H" 
			},
			{
				"x": -0.149458536,
				"y": 2.1482310571,
				"z": -1.3526377212,
				"element": "H" 
			},
			{
				"x": 1.1680652869,
				"y": 2.0458680626,
				"z": -2.5394818935,
				"element": "H" 
			},
			{
				"x": -0.2370276434,
				"y": -0.4245493425,
				"z": 2.7004174821,
				"element": "H" 
			},
			{
				"x": -1.6249952623,
				"y": -1.7366877662,
				"z": 4.2582494249,
				"element": "H" 
			}
		],
		 "valence_orbital": [ 
			{
				"type": "occ",
				"energy": -0.30349,
				"method": "rhf"
			},
			{
				"type": "occ",
				"energy": -0.27113,
				"method": "rhf"
			},
			{
				"type": "occ",
				"energy": -0.2665,
				"method": "rhf"
			},
			{
				"type": "occ",
				"energy": -0.26201,
				"method": "rhf"
			},
			{
				"type": "occ",
				"energy": -0.22016,
				"method": "rhf"
			},
			{
				"type": "unocc",
				"energy": -0.01241,
				"method": "rhf"
			},
			{
				"type": "unocc",
				"energy": 0.00073,
				"method": "rhf"
			},
			{
				"type": "unocc",
				"energy": 0.00301,
				"method": "rhf"
			},
			{
				"type": "unocc",
				"energy": 0.03439,
				"method": "rhf"
			},
			{
				"type": "unocc",
				"energy": 0.07421,
				"method": "rhf"
			}
		],
		"cosmo_sigma_profile": { 
			"-0.025": 0.0,
			"-0.024": 0.0,
			"-0.023": 0.0,
			"-0.022": 0.0,
			"-0.021": 0.0,
			"-0.02": 0.0,
			"-0.019": 0.0,
			"-0.018": 0.0,
			"-0.017": 0.0,
			"-0.016": 0.0,
			"-0.015": 0.0,
			"-0.014": 0.0,
			"-0.013": 0.0,
			"-0.012": 0.0,
			"-0.011": 0.0,
			"-0.01": 0.0,
			"-0.009": 0.0,
			"-0.008": 0.197879962818,
			"-0.007": 9.63938146031,
			"-0.006": 22.4859418971,
			"-0.005": 24.434287945,
			"-0.004": 17.392992106,
			"-0.003": 13.0134088289,
			"-0.002": 12.3102024186,
			"-0.001": 11.9201821636,
			"0.0": 11.5953052938,
			"0.001": 13.2543238711,
			"0.002": 17.3446039295,
			"0.003": 22.4005511936,
			"0.004": 24.510324882,
			"0.005": 17.7329548858,
			"0.006": 10.972972505,
			"0.007": 7.2017734834,
			"0.008": 2.52034262022,
			"0.009": 2.19926721669,
			"0.01": 0.946085733306,
			"0.011": 0.220402296066,
			"0.012": 0.0,
			"0.013": 0.0,
			"0.014": 0.0,
			"0.015": 0.0,
			"0.016": 0.0,
			"0.017": 0.0,
			"0.018": 0.0,
			"0.019": 0.0,
			"0.02": 0.0,
			"0.021": 0.0,
			"0.022": 0.0,
			"0.023": 0.0,
			"0.024": 0.0,
			"0.025": 0.0
		}
	}
}
