{
	 "smiles": "OC(=O)C1=CC=C(C=C1)S(=O)(=O)NC1=C(F)C=CC=C1", 
	 "Tm": 540.15, 
	 "num_atms": 30, 
	 "gaussian": { 
		 "optdone": 1, 
		 "sigma_profile": "yes", 
		 "theory": "DFT", 
		 "functional": "B3LYP", 
		 "basiset": "6-31G**", 
		 "properties": { 
			 "R2extent": 6539.2223, 
			 "electric_dipole_moment_norm": 3.987743901, 
			 "electric_quadrupole_moment_norm": 30.1873586084, 
			 "total_energy": -1355.01341078, 
			 "HOMO_LUMO_gap": 0.165, 
			 "cosmo_polarized_energy": -22.82, 
			 "cosmo_cavitation_energy": 37.32, 
			 "cosmo_dispersion_energy": -26.12, 
			 "cosmo_repulsion_energy": 1.94, 
			 "cosmo_total_nonelectrostatic_energy": 13.13, 
			 "SMD_solvation_energy": 7.07 
		},
		"coords": [
			{
				"x": 5.0091001364,
				"y": 0.2281776783,
				"z": 1.8565014602,
				"element": "O" 
			},
			{
				"x": 4.1301532433,
				"y": -0.7886143973,
				"z": 1.6633116136,
				"element": "C" 
			},
			{
				"x": 4.2162676959,
				"y": -1.8008250712,
				"z": 2.3158514756,
				"element": "O" 
			},
			{
				"x": 3.0698372154,
				"y": -0.5795823584,
				"z": 0.6183411073,
				"element": "C" 
			},
			{
				"x": 2.4661049952,
				"y": -1.7212194661,
				"z": 0.0727616143,
				"element": "C" 
			},
			{
				"x": 1.472761103,
				"y": -1.5978259728,
				"z": -0.892992158,
				"element": "C" 
			},
			{
				"x": 1.072406205,
				"y": -0.3205364662,
				"z": -1.2971468205,
				"element": "C" 
			},
			{
				"x": 1.6499115081,
				"y": 0.8292613245,
				"z": -0.7558188577,
				"element": "C" 
			},
			{
				"x": 2.6510744193,
				"y": 0.6925880391,
				"z": 0.2044603051,
				"element": "C" 
			},
			{
				"x": -0.2397267135,
				"y": -0.1582422404,
				"z": -2.5179917763,
				"element": "S" 
			},
			{
				"x": -0.3277571871,
				"y": -1.4182319856,
				"z": -3.2519523484,
				"element": "O" 
			},
			{
				"x": -0.0643023441,
				"y": 1.1350396821,
				"z": -3.1752919264,
				"element": "O" 
			},
			{
				"x": -1.6953280398,
				"y": -0.0820038834,
				"z": -1.6470658512,
				"element": "N" 
			},
			{
				"x": -1.9834413806,
				"y": 0.9502226218,
				"z": -0.7189322796,
				"element": "C" 
			},
			{
				"x": -2.3642586106,
				"y": 0.597260173,
				"z": 0.5814130469,
				"element": "C" 
			},
			{
				"x": -2.4024443721,
				"y": -0.7231755568,
				"z": 0.8884464283,
				"element": "F" 
			},
			{
				"x": -2.7163138049,
				"y": 1.5373181464,
				"z": 1.536240165,
				"element": "C" 
			},
			{
				"x": -2.6662148525,
				"y": 2.8901869612,
				"z": 1.193247921,
				"element": "C" 
			},
			{
				"x": -2.284862885,
				"y": 3.2694414139,
				"z": -0.0956983875,
				"element": "C" 
			},
			{
				"x": -1.959041896,
				"y": 2.3097674919,
				"z": -1.0550055273,
				"element": "C" 
			},
			{
				"x": 4.9248581724,
				"y": 0.8882879047,
				"z": 1.1545724122,
				"element": "H" 
			},
			{
				"x": 2.7948797757,
				"y": -2.6959704745,
				"z": 0.4158919627,
				"element": "H" 
			},
			{
				"x": 1.0206914203,
				"y": -2.4736840783,
				"z": -1.3455383323,
				"element": "H" 
			},
			{
				"x": 1.3281541068,
				"y": 1.8082473853,
				"z": -1.0910540853,
				"element": "H" 
			},
			{
				"x": 3.0746265562,
				"y": 1.5902554996,
				"z": 0.6474374072,
				"element": "H" 
			},
			{
				"x": -1.9516420122,
				"y": -1.0091811155,
				"z": -1.3199046687,
				"element": "H" 
			},
			{
				"x": -3.0117271382,
				"y": 1.2025666994,
				"z": 2.5246158846,
				"element": "H" 
			},
			{
				"x": -2.9330793288,
				"y": 3.6408953161,
				"z": 1.9301214795,
				"element": "H" 
			},
			{
				"x": -2.2578607431,
				"y": 4.3202240079,
				"z": -0.3663021956,
				"element": "H" 
			},
			{
				"x": -1.6845252445,
				"y": 2.5936527212,
				"z": -2.0637190686,
				"element": "H" 
			}
		],
		 "valence_orbital": [ 
			{
				"type": "occ",
				"energy": -0.29604,
				"method": "rhf"
			},
			{
				"type": "occ",
				"energy": -0.29401,
				"method": "rhf"
			},
			{
				"type": "occ",
				"energy": -0.28327,
				"method": "rhf"
			},
			{
				"type": "occ",
				"energy": -0.26756,
				"method": "rhf"
			},
			{
				"type": "occ",
				"energy": -0.24625,
				"method": "rhf"
			},
			{
				"type": "unocc",
				"energy": -0.08125,
				"method": "rhf"
			},
			{
				"type": "unocc",
				"energy": -0.04484,
				"method": "rhf"
			},
			{
				"type": "unocc",
				"energy": -0.02875,
				"method": "rhf"
			},
			{
				"type": "unocc",
				"energy": -0.01612,
				"method": "rhf"
			},
			{
				"type": "unocc",
				"energy": 0.01623,
				"method": "rhf"
			}
		],
		"cosmo_sigma_profile": { 
			"-0.025": 0.0,
			"-0.024": 0.0,
			"-0.023": 0.0,
			"-0.022": 0.0,
			"-0.021": 0.0,
			"-0.02": 0.0695807517746,
			"-0.019": 0.783130429365,
			"-0.018": 0.907703287511,
			"-0.017": 1.3462292847,
			"-0.016": 1.31943060973,
			"-0.015": 0.551451691755,
			"-0.014": 1.47283892605,
			"-0.013": 2.10421416245,
			"-0.012": 2.74507083816,
			"-0.011": 1.9970361745,
			"-0.01": 2.67071170626,
			"-0.009": 3.41381216629,
			"-0.008": 7.4235036379,
			"-0.007": 11.049717209,
			"-0.006": 14.5865397307,
			"-0.005": 15.9947888097,
			"-0.004": 16.5865356292,
			"-0.003": 14.987528877,
			"-0.002": 16.9640847986,
			"-0.001": 18.233754413,
			"0.0": 27.1465741451,
			"0.001": 24.4700674624,
			"0.002": 16.3685659155,
			"0.003": 18.7938519637,
			"0.004": 17.3689402574,
			"0.005": 6.4497149534,
			"0.006": 6.83002777335,
			"0.007": 6.3414891191,
			"0.008": 6.54413435307,
			"0.009": 8.25863398489,
			"0.01": 13.7029750471,
			"0.011": 9.562293706,
			"0.012": 2.87091275489,
			"0.013": 0.497211843383,
			"0.014": 0.0,
			"0.015": 0.0,
			"0.016": 0.0,
			"0.017": 0.0,
			"0.018": 0.0,
			"0.019": 0.0,
			"0.02": 0.0,
			"0.021": 0.0,
			"0.022": 0.0,
			"0.023": 0.0,
			"0.024": 0.0,
			"0.0": 0.0
		}
	}
}
