{
	 "smiles": "C1CCC(CC1)NC1=NC=CC=C1", 
	 "Tm": 397.15, 
	 "num_atms": 29, 
	 "gaussian": { 
		 "optdone": 1, 
		 "sigma_profile": "yes", 
		 "theory": "DFT", 
		 "functional": "B3LYP", 
		 "basiset": "6-31G**", 
		 "properties": { 
			 "R2extent": 3081.8953, 
			 "electric_dipole_moment_norm": 1.74455084477, 
			 "electric_quadrupole_moment_norm": 7.09441577792, 
			 "total_energy": -538.336652318, 
			 "HOMO_LUMO_gap": 0.18855, 
			 "cosmo_polarized_energy": -7.18, 
			 "cosmo_cavitation_energy": 29.53, 
			 "cosmo_dispersion_energy": -21.93, 
			 "cosmo_repulsion_energy": 1.76, 
			 "cosmo_total_nonelectrostatic_energy": 9.36, 
			 "SMD_solvation_energy": 3.34 
		},
		"coords": [
			{
				"x": -2.9531571041,
				"y": -0.2755914411,
				"z": -0.0750359611,
				"element": "C" 
			},
			{
				"x": -2.5335256476,
				"y": 0.0616714901,
				"z": 1.3636129325,
				"element": "C" 
			},
			{
				"x": -1.0049656657,
				"y": 0.1514963437,
				"z": 1.4998884809,
				"element": "C" 
			},
			{
				"x": -0.4132785117,
				"y": 1.1600540065,
				"z": 0.4938512197,
				"element": "C" 
			},
			{
				"x": -0.834060468,
				"y": 0.8222492152,
				"z": -0.9496795388,
				"element": "C" 
			},
			{
				"x": -2.3633956057,
				"y": 0.7315062186,
				"z": -1.0739434796,
				"element": "C" 
			},
			{
				"x": 1.0357420645,
				"y": 1.3465681518,
				"z": 0.6343266789,
				"element": "N" 
			},
			{
				"x": 2.0145056605,
				"y": 0.3899985577,
				"z": 0.5064856188,
				"element": "C" 
			},
			{
				"x": 1.6681999769,
				"y": -0.8316892404,
				"z": 0.064297203,
				"element": "N" 
			},
			{
				"x": 2.6369501059,
				"y": -1.7469097796,
				"z": -0.0784389775,
				"element": "C" 
			},
			{
				"x": 3.9793618098,
				"y": -1.522546067,
				"z": 0.2014729718,
				"element": "C" 
			},
			{
				"x": 4.334582517,
				"y": -0.248118014,
				"z": 0.6651759852,
				"element": "C" 
			},
			{
				"x": 3.3579021927,
				"y": 0.7186058461,
				"z": 0.822189801,
				"element": "C" 
			},
			{
				"x": -2.5982728737,
				"y": -1.2844600625,
				"z": -0.3274170221,
				"element": "H" 
			},
			{
				"x": -4.0467032889,
				"y": -0.2973428865,
				"z": -0.1568627582,
				"element": "H" 
			},
			{
				"x": -2.9263288708,
				"y": -0.6867090165,
				"z": 2.0623156439,
				"element": "H" 
			},
			{
				"x": -2.9848033477,
				"y": 1.0222797284,
				"z": 1.6535663294,
				"element": "H" 
			},
			{
				"x": -0.5531359293,
				"y": -0.8280859717,
				"z": 1.3139913875,
				"element": "H" 
			},
			{
				"x": -0.7270613386,
				"y": 0.4494225796,
				"z": 2.5185083247,
				"element": "H" 
			},
			{
				"x": -0.8366716587,
				"y": 2.1465654074,
				"z": 0.7313619027,
				"element": "H" 
			},
			{
				"x": -0.4356419071,
				"y": 1.5861532318,
				"z": -1.6278144915,
				"element": "H" 
			},
			{
				"x": -0.3757613098,
				"y": -0.1309267837,
				"z": -1.2300464726,
				"element": "H" 
			},
			{
				"x": -2.8068741308,
				"y": 1.7214984184,
				"z": -0.8900176505,
				"element": "H" 
			},
			{
				"x": -2.6371474286,
				"y": 0.4570404594,
				"z": -2.0996960643,
				"element": "H" 
			},
			{
				"x": 1.3294521026,
				"y": 2.2024895338,
				"z": 1.0770172412,
				"element": "H" 
			},
			{
				"x": 2.3078720684,
				"y": -2.7205649765,
				"z": -0.4396921292,
				"element": "H" 
			},
			{
				"x": 4.7159410994,
				"y": -2.3066234115,
				"z": 0.0653975246,
				"element": "H" 
			},
			{
				"x": 5.3692600563,
				"y": -0.0147934558,
				"z": 0.9020551971,
				"element": "H" 
			},
			{
				"x": 3.6079154329,
				"y": 1.7145619181,
				"z": 1.1780301026,
				"element": "H" 
			}
		],
		 "valence_orbital": [ 
			{
				"type": "occ",
				"energy": -0.30165,
				"method": "rhf"
			},
			{
				"type": "occ",
				"energy": -0.28315,
				"method": "rhf"
			},
			{
				"type": "occ",
				"energy": -0.27055,
				"method": "rhf"
			},
			{
				"type": "occ",
				"energy": -0.24341,
				"method": "rhf"
			},
			{
				"type": "occ",
				"energy": -0.19621,
				"method": "rhf"
			},
			{
				"type": "unocc",
				"energy": -0.00766,
				"method": "rhf"
			},
			{
				"type": "unocc",
				"energy": 0.01867,
				"method": "rhf"
			},
			{
				"type": "unocc",
				"energy": 0.07564,
				"method": "rhf"
			},
			{
				"type": "unocc",
				"energy": 0.0945,
				"method": "rhf"
			},
			{
				"type": "unocc",
				"energy": 0.10569,
				"method": "rhf"
			}
		],
		"cosmo_sigma_profile": { 
			"-0.025": 0.0,
			"-0.024": 0.0,
			"-0.023": 0.0,
			"-0.022": 0.0,
			"-0.021": 0.0,
			"-0.02": 0.0,
			"-0.019": 0.0,
			"-0.018": 0.0,
			"-0.017": 0.0,
			"-0.016": 0.0,
			"-0.015": 0.0,
			"-0.014": 0.0,
			"-0.013": 0.833773564122,
			"-0.012": 1.24569615314,
			"-0.011": 1.60115061938,
			"-0.01": 1.31421178322,
			"-0.009": 1.8362580908,
			"-0.008": 1.44017500986,
			"-0.007": 1.92886198521,
			"-0.006": 5.34309033758,
			"-0.005": 8.62838441462,
			"-0.004": 10.0607302403,
			"-0.003": 12.6513555963,
			"-0.002": 24.1457883355,
			"-0.001": 27.5679912951,
			"0.0": 33.492641374,
			"0.001": 29.5757802131,
			"0.002": 15.348877259,
			"0.003": 11.3077377706,
			"0.004": 13.8258252848,
			"0.005": 12.4968453108,
			"0.006": 6.46826679751,
			"0.007": 3.44401957195,
			"0.008": 2.26746923816,
			"0.009": 1.66579130438,
			"0.01": 0.890162969557,
			"0.011": 0.619036033367,
			"0.012": 0.444198171798,
			"0.013": 0.076451491824,
			"0.014": 0.0,
			"0.015": 0.0,
			"0.016": 0.0,
			"0.017": 0.0,
			"0.018": 0.0,
			"0.019": 0.0,
			"0.02": 0.0,
			"0.021": 0.0,
			"0.022": 0.0,
			"0.023": 0.0,
			"0.024": 0.0,
			"0.025": 0.0
		}
	}
}
