{
	 "smiles": "C=CCCCC=C", 
	 "Tm": 144.15, 
	 "num_atms": 19, 
	 "gaussian": { 
		 "optdone": 1, 
		 "sigma_profile": "yes", 
		 "theory": "DFT", 
		 "functional": "B3LYP", 
		 "basiset": "6-31G**", 
		 "properties": { 
			 "R2extent": 1724.7919, 
			 "electric_dipole_moment_norm": 0.446209961789, 
			 "electric_quadrupole_moment_norm": 2.92972416108, 
			 "total_energy": -273.937530166, 
			 "HOMO_LUMO_gap": 0.26715, 
			 "cosmo_polarized_energy": -2.53, 
			 "cosmo_cavitation_energy": 22.12, 
			 "cosmo_dispersion_energy": -15.33, 
			 "cosmo_repulsion_energy": 1.33, 
			 "cosmo_total_nonelectrostatic_energy": 8.12, 
			 "SMD_solvation_energy": 4.86 
		},
		"coords": [
			{
				"x": 1.491619725,
				"y": 2.3436621794,
				"z": -0.8819341857,
				"element": "C" 
			},
			{
				"x": 1.1843412721,
				"y": 1.25805551,
				"z": -1.5929493135,
				"element": "C" 
			},
			{
				"x": 0.1248351454,
				"y": 1.1814542626,
				"z": -2.6591474555,
				"element": "C" 
			},
			{
				"x": -0.9626134965,
				"y": 0.1252620037,
				"z": -2.3729478183,
				"element": "C" 
			},
			{
				"x": -1.8231127897,
				"y": 0.4461559776,
				"z": -1.1364792292,
				"element": "C" 
			},
			{
				"x": -2.9040885329,
				"y": -0.5722012093,
				"z": -0.8982792618,
				"element": "C" 
			},
			{
				"x": -3.025804444,
				"y": -1.3245350432,
				"z": 0.1958894871,
				"element": "C" 
			},
			{
				"x": 0.9744208785,
				"y": 3.2886716034,
				"z": -1.0327768201,
				"element": "H" 
			},
			{
				"x": 2.2735101377,
				"y": 2.332145036,
				"z": -0.1280835153,
				"element": "H" 
			},
			{
				"x": 1.7306024539,
				"y": 0.3317376673,
				"z": -1.4043873313,
				"element": "H" 
			},
			{
				"x": 0.6015619255,
				"y": 0.9311967015,
				"z": -3.6178512449,
				"element": "H" 
			},
			{
				"x": -0.3404615114,
				"y": 2.1671381343,
				"z": -2.7888611379,
				"element": "H" 
			},
			{
				"x": -1.6109648962,
				"y": 0.0369895146,
				"z": -3.25442176,
				"element": "H" 
			},
			{
				"x": -0.4931021454,
				"y": -0.8581302455,
				"z": -2.2388904829,
				"element": "H" 
			},
			{
				"x": -1.1836010566,
				"y": 0.5272036605,
				"z": -0.2502294188,
				"element": "H" 
			},
			{
				"x": -2.2808362573,
				"y": 1.4367555777,
				"z": -1.2814417,
				"element": "H" 
			},
			{
				"x": -3.6285798495,
				"y": -0.694724805,
				"z": -1.7056577379,
				"element": "H" 
			},
			{
				"x": -2.3274457276,
				"y": -1.2395991875,
				"z": 1.0256440135,
				"element": "H" 
			},
			{
				"x": -3.827280831,
				"y": -2.0492373382,
				"z": 0.3068049125,
				"element": "H" 
			}
		],
		 "valence_orbital": [ 
			{
				"type": "occ",
				"energy": -0.33807,
				"method": "rhf"
			},
			{
				"type": "occ",
				"energy": -0.3288,
				"method": "rhf"
			},
			{
				"type": "occ",
				"energy": -0.32359,
				"method": "rhf"
			},
			{
				"type": "occ",
				"energy": -0.25542,
				"method": "rhf"
			},
			{
				"type": "occ",
				"energy": -0.24648,
				"method": "rhf"
			},
			{
				"type": "unocc",
				"energy": 0.02067,
				"method": "rhf"
			},
			{
				"type": "unocc",
				"energy": 0.02677,
				"method": "rhf"
			},
			{
				"type": "unocc",
				"energy": 0.1048,
				"method": "rhf"
			},
			{
				"type": "unocc",
				"energy": 0.11817,
				"method": "rhf"
			},
			{
				"type": "unocc",
				"energy": 0.12592,
				"method": "rhf"
			}
		],
		"cosmo_sigma_profile": { 
			"-0.025": 0.0,
			"-0.024": 0.0,
			"-0.023": 0.0,
			"-0.022": 0.0,
			"-0.021": 0.0,
			"-0.02": 0.0,
			"-0.019": 0.0,
			"-0.018": 0.0,
			"-0.017": 0.0,
			"-0.016": 0.0,
			"-0.015": 0.0,
			"-0.014": 0.0,
			"-0.013": 0.0,
			"-0.012": 0.0,
			"-0.011": 0.0,
			"-0.01": 0.0,
			"-0.009": 0.0,
			"-0.008": 0.0,
			"-0.007": 0.0,
			"-0.006": 0.0,
			"-0.005": 2.41149905532,
			"-0.004": 11.1029387811,
			"-0.003": 21.7866559643,
			"-0.002": 28.844801952,
			"-0.001": 25.6322947386,
			"0.0": 20.2481168136,
			"0.001": 16.5774661931,
			"0.002": 10.4819536153,
			"0.003": 9.44398975463,
			"0.004": 8.30349383648,
			"0.005": 7.41878553459,
			"0.006": 5.57566590905,
			"0.007": 3.94761847571,
			"0.008": 1.11997073316,
			"0.009": 0.0,
			"0.01": 0.0,
			"0.011": 0.0,
			"0.012": 0.0,
			"0.013": 0.0,
			"0.014": 0.0,
			"0.015": 0.0,
			"0.016": 0.0,
			"0.017": 0.0,
			"0.018": 0.0,
			"0.019": 0.0,
			"0.02": 0.0,
			"0.021": 0.0,
			"0.022": 0.0,
			"0.023": 0.0,
			"0.024": 0.0,
			"0.025": 0.0
		}
	}
}
