{
	 "smiles": "N#CC1=CC=CC2=C1C1=C(C2)C=CC=C1", 
	 "Tm": 351.15, 
	 "num_atms": 24, 
	 "gaussian": { 
		 "optdone": 1, 
		 "sigma_profile": "yes", 
		 "theory": "DFT", 
		 "functional": "B3LYP", 
		 "basiset": "6-31G**", 
		 "properties": { 
			 "R2extent": 3225.0129, 
			 "electric_dipole_moment_norm": 4.77662020575, 
			 "electric_quadrupole_moment_norm": 16.3664281189, 
			 "total_energy": -593.668000032, 
			 "HOMO_LUMO_gap": 0.17004, 
			 "cosmo_polarized_energy": -9.51, 
			 "cosmo_cavitation_energy": 28.4, 
			 "cosmo_dispersion_energy": -20.56, 
			 "cosmo_repulsion_energy": 1.57, 
			 "cosmo_total_nonelectrostatic_energy": 9.41, 
			 "SMD_solvation_energy": 5.29 
		},
		"coords": [
			{
				"x": -3.6090715979,
				"y": 1.2212649996,
				"z": 0.9386661255,
				"element": "N" 
			},
			{
				"x": -2.4798575241,
				"y": 1.4446285674,
				"z": 1.1125816089,
				"element": "C" 
			},
			{
				"x": -1.0934275196,
				"y": 1.7308013055,
				"z": 1.3301441167,
				"element": "C" 
			},
			{
				"x": -0.7253782614,
				"y": 3.0058485499,
				"z": 1.8010737609,
				"element": "C" 
			},
			{
				"x": 0.6121506505,
				"y": 3.3208617341,
				"z": 2.0243518652,
				"element": "C" 
			},
			{
				"x": 1.6134582775,
				"y": 2.3714932861,
				"z": 1.7831501513,
				"element": "C" 
			},
			{
				"x": 1.2591975661,
				"y": 1.1114779195,
				"z": 1.3186042667,
				"element": "C" 
			},
			{
				"x": -0.0906846413,
				"y": 0.7718676901,
				"z": 1.0857345961,
				"element": "C" 
			},
			{
				"x": -0.1538817315,
				"y": -0.615228028,
				"z": 0.6022444716,
				"element": "C" 
			},
			{
				"x": 1.1636914747,
				"y": -1.1202587086,
				"z": 0.5413267877,
				"element": "C" 
			},
			{
				"x": 2.1515247817,
				"y": -0.0657040029,
				"z": 0.9895690803,
				"element": "C" 
			},
			{
				"x": 1.4037972262,
				"y": -2.420976315,
				"z": 0.1136469439,
				"element": "C" 
			},
			{
				"x": 0.3190445706,
				"y": -3.2228217683,
				"z": -0.2558822867,
				"element": "C" 
			},
			{
				"x": -0.9871024016,
				"y": -2.7242081068,
				"z": -0.1962227834,
				"element": "C" 
			},
			{
				"x": -1.2379239538,
				"y": -1.4196012932,
				"z": 0.2318991304,
				"element": "C" 
			},
			{
				"x": -1.5011964427,
				"y": 3.7408979891,
				"z": 1.9878033297,
				"element": "H" 
			},
			{
				"x": 0.8762785312,
				"y": 4.3090364324,
				"z": 2.3875022045,
				"element": "H" 
			},
			{
				"x": 2.6562231476,
				"y": 2.6221982051,
				"z": 1.9590097103,
				"element": "H" 
			},
			{
				"x": 2.8774209672,
				"y": 0.1810164114,
				"z": 0.2034683887,
				"element": "H" 
			},
			{
				"x": 2.7350313563,
				"y": -0.390257076,
				"z": 1.8613131298,
				"element": "H" 
			},
			{
				"x": 2.416797317,
				"y": -2.8120327183,
				"z": 0.0658472522,
				"element": "H" 
			},
			{
				"x": 0.4920950638,
				"y": -4.2410901082,
				"z": -0.5919837018,
				"element": "H" 
			},
			{
				"x": -1.8186556152,
				"y": -3.3595525951,
				"z": -0.4866257562,
				"element": "H" 
			},
			{
				"x": -2.2540312414,
				"y": -1.0440623699,
				"z": 0.2740776076,
				"element": "H" 
			}
		],
		 "valence_orbital": [ 
			{
				"type": "occ",
				"energy": -0.32203,
				"method": "rhf"
			},
			{
				"type": "occ",
				"energy": -0.29465,
				"method": "rhf"
			},
			{
				"type": "occ",
				"energy": -0.26242,
				"method": "rhf"
			},
			{
				"type": "occ",
				"energy": -0.25097,
				"method": "rhf"
			},
			{
				"type": "occ",
				"energy": -0.22887,
				"method": "rhf"
			},
			{
				"type": "unocc",
				"energy": -0.05883,
				"method": "rhf"
			},
			{
				"type": "unocc",
				"energy": -0.0318,
				"method": "rhf"
			},
			{
				"type": "unocc",
				"energy": -0.00545,
				"method": "rhf"
			},
			{
				"type": "unocc",
				"energy": 0.02566,
				"method": "rhf"
			},
			{
				"type": "unocc",
				"energy": 0.03666,
				"method": "rhf"
			}
		],
		"cosmo_sigma_profile": { 
			"-0.025": 0.0,
			"-0.024": 0.0,
			"-0.023": 0.0,
			"-0.022": 0.0,
			"-0.021": 0.0,
			"-0.02": 0.0,
			"-0.019": 0.0,
			"-0.018": 0.0,
			"-0.017": 0.0,
			"-0.016": 0.0,
			"-0.015": 0.0,
			"-0.014": 0.0,
			"-0.013": 0.0,
			"-0.012": 0.0,
			"-0.011": 0.0,
			"-0.01": 0.0,
			"-0.009": 0.0,
			"-0.008": 0.910910311962,
			"-0.007": 5.20517810161,
			"-0.006": 15.0468051949,
			"-0.005": 18.6274192448,
			"-0.004": 20.6407820165,
			"-0.003": 17.7225477854,
			"-0.002": 15.5629907641,
			"-0.001": 18.8473652114,
			"0.0": 16.6764290854,
			"0.001": 18.9472022246,
			"0.002": 19.3542729973,
			"0.003": 17.1329180638,
			"0.004": 12.4986601755,
			"0.005": 11.3105849952,
			"0.006": 3.91095594038,
			"0.007": 1.92565845887,
			"0.008": 3.25788726502,
			"0.009": 2.43574786208,
			"0.01": 3.19521642479,
			"0.011": 2.50913762322,
			"0.012": 2.44267425612,
			"0.013": 1.62715436951,
			"0.014": 0.0487332525557,
			"0.015": 0.0,
			"0.016": 0.0,
			"0.017": 0.0,
			"0.018": 0.0,
			"0.019": 0.0,
			"0.02": 0.0,
			"0.021": 0.0,
			"0.022": 0.0,
			"0.023": 0.0,
			"0.024": 0.0,
			"0.025": 0.0
		}
	}
}
