{
	 "smiles": "NNC(=O)C1=C(Br)C=CC(F)=C1", 
	 "Tm": 423.15, 
	 "num_atms": 18, 
	 "gaussian": { 
		 "optdone": 1, 
		 "sigma_profile": "yes", 
		 "theory": "DFT", 
		 "functional": "B3LYP", 
		 "basiset": "6-31G**", 
		 "properties": { 
			 "R2extent": 2873.45, 
			 "electric_dipole_moment_norm": 3.43667009327, 
			 "electric_quadrupole_moment_norm": 7.20160358462, 
			 "total_energy": -3126.29516625, 
			 "HOMO_LUMO_gap": 0.20676, 
			 "cosmo_polarized_energy": -13.09, 
			 "cosmo_cavitation_energy": 25.3, 
			 "cosmo_dispersion_energy": -18.47, 
			 "cosmo_repulsion_energy": 1.46, 
			 "cosmo_total_nonelectrostatic_energy": 8.3, 
			 "SMD_solvation_energy": 4.98 
		},
		"coords": [
			{
				"x": 2.4131739129,
				"y": 1.5820270724,
				"z": 0.0014848101,
				"element": "N" 
			},
			{
				"x": 1.3296508509,
				"y": 2.0956958723,
				"z": 0.7291899632,
				"element": "N" 
			},
			{
				"x": 0.0654106364,
				"y": 1.5861190752,
				"z": 0.8315761511,
				"element": "C" 
			},
			{
				"x": -0.8411502164,
				"y": 2.2067321029,
				"z": 1.3691104231,
				"element": "O" 
			},
			{
				"x": -0.1982066958,
				"y": 0.2414818609,
				"z": 0.1827681564,
				"element": "C" 
			},
			{
				"x": 0.3348206147,
				"y": -0.9812567075,
				"z": 0.6103501483,
				"element": "C" 
			},
			{
				"x": 1.5679807532,
				"y": -1.0649796216,
				"z": 2.0752844484,
				"element": "Br" 
			},
			{
				"x": -0.0383760269,
				"y": -2.1848865769,
				"z": 0.0104568824,
				"element": "C" 
			},
			{
				"x": -0.9550160857,
				"y": -2.1862501491,
				"z": -1.0385061765,
				"element": "C" 
			},
			{
				"x": -1.4935022464,
				"y": -0.9728778747,
				"z": -1.4526274364,
				"element": "C" 
			},
			{
				"x": -2.3870875456,
				"y": -0.9629466848,
				"z": -2.4588122589,
				"element": "F" 
			},
			{
				"x": -1.1419159879,
				"y": 0.2280841651,
				"z": -0.8534579445,
				"element": "C" 
			},
			{
				"x": 2.752854575,
				"y": 0.7335799953,
				"z": 0.4493873219,
				"element": "H" 
			},
			{
				"x": 2.1249482884,
				"y": 1.3624583729,
				"z": -0.9481634938,
				"element": "H" 
			},
			{
				"x": 1.4617211411,
				"y": 3.0180692932,
				"z": 1.1238802005,
				"element": "H" 
			},
			{
				"x": 0.3835701721,
				"y": -3.1172357434,
				"z": 0.3672471635,
				"element": "H" 
			},
			{
				"x": -1.2581244673,
				"y": -3.1075960088,
				"z": -1.5231540006,
				"element": "H" 
			},
			{
				"x": -1.6066516727,
				"y": 1.1518815564,
				"z": -1.1794143581,
				"element": "H" 
			}
		],
		 "valence_orbital": [ 
			{
				"type": "occ",
				"energy": -0.29325,
				"method": "rhf"
			},
			{
				"type": "occ",
				"energy": -0.28828,
				"method": "rhf"
			},
			{
				"type": "occ",
				"energy": -0.26376,
				"method": "rhf"
			},
			{
				"type": "occ",
				"energy": -0.2558,
				"method": "rhf"
			},
			{
				"type": "occ",
				"energy": -0.24987,
				"method": "rhf"
			},
			{
				"type": "unocc",
				"energy": -0.04311,
				"method": "rhf"
			},
			{
				"type": "unocc",
				"energy": -0.02717,
				"method": "rhf"
			},
			{
				"type": "unocc",
				"energy": -0.01213,
				"method": "rhf"
			},
			{
				"type": "unocc",
				"energy": 0.023,
				"method": "rhf"
			},
			{
				"type": "unocc",
				"energy": 0.0815,
				"method": "rhf"
			}
		],
		"cosmo_sigma_profile": { 
			"-0.025": 0.0,
			"-0.024": 0.0,
			"-0.023": 0.0,
			"-0.022": 0.0,
			"-0.021": 0.0,
			"-0.02": 0.0,
			"-0.019": 0.0,
			"-0.018": 0.0,
			"-0.017": 0.0,
			"-0.016": 0.0,
			"-0.015": 0.031992615459,
			"-0.014": 0.782803193187,
			"-0.013": 1.14041683948,
			"-0.012": 1.59100026057,
			"-0.011": 1.95438403753,
			"-0.01": 2.39154291259,
			"-0.009": 4.67488945304,
			"-0.008": 7.26391574825,
			"-0.007": 8.07855489708,
			"-0.006": 10.1921028425,
			"-0.005": 8.54056715185,
			"-0.004": 9.26083980366,
			"-0.003": 8.60273196673,
			"-0.002": 10.7755623029,
			"-0.001": 14.9447320364,
			"0.0": 21.3442009154,
			"0.001": 19.046878867,
			"0.002": 16.0562030416,
			"0.003": 16.0712387123,
			"0.004": 14.6951634013,
			"0.005": 2.26943190316,
			"0.006": 2.02204317074,
			"0.007": 1.52977657339,
			"0.008": 2.30227686545,
			"0.009": 2.54943231776,
			"0.01": 1.8193092194,
			"0.011": 1.93707484148,
			"0.012": 4.57907283741,
			"0.013": 5.92531227582,
			"0.014": 1.96367627059,
			"0.015": 0.796275633505,
			"0.016": 0.200853604451,
			"0.017": 0.0,
			"0.018": 0.0,
			"0.019": 0.0,
			"0.02": 0.0,
			"0.021": 0.0,
			"0.022": 0.0,
			"0.023": 0.0,
			"0.024": 0.0,
			"0.025": 0.0
		}
	}
}
