{
	 "smiles": "CCOCCOC(=O)C=CC1=CC=C(OC)C=C1", 
	 "Tm": 248.15, 
	 "num_atms": 36, 
	 "gaussian": { 
		 "optdone": 1, 
		 "sigma_profile": "yes", 
		 "theory": "DFT", 
		 "functional": "B3LYP", 
		 "basiset": "6-31G**", 
		 "properties": { 
			 "R2extent": 10028.064, 
			 "electric_dipole_moment_norm": 3.9000047, 
			 "electric_quadrupole_moment_norm": 21.6313271798, 
			 "total_energy": -845.213347719, 
			 "HOMO_LUMO_gap": 0.15894, 
			 "cosmo_polarized_energy": -13.68, 
			 "cosmo_cavitation_energy": 40.77, 
			 "cosmo_dispersion_energy": -28.88, 
			 "cosmo_repulsion_energy": 2.3, 
			 "cosmo_total_nonelectrostatic_energy": 14.2, 
			 "SMD_solvation_energy": 8.87 
		},
		"coords": [
			{
				"x": -2.8155845833,
				"y": -4.29238869,
				"z": 1.5007209369,
				"element": "C" 
			},
			{
				"x": -1.4049964778,
				"y": -4.7860857594,
				"z": 1.7773677708,
				"element": "C" 
			},
			{
				"x": -0.6137461291,
				"y": -4.5519778161,
				"z": 0.6250812058,
				"element": "O" 
			},
			{
				"x": 0.7259547861,
				"y": -4.9734825972,
				"z": 0.7764489611,
				"element": "C" 
			},
			{
				"x": 1.5020738413,
				"y": -4.626421711,
				"z": -0.4810506224,
				"element": "C" 
			},
			{
				"x": 1.6322286235,
				"y": -3.2064950087,
				"z": -0.6673342984,
				"element": "O" 
			},
			{
				"x": 2.6706394511,
				"y": -2.6090490828,
				"z": -0.0228928121,
				"element": "C" 
			},
			{
				"x": 3.4671671438,
				"y": -3.2189333866,
				"z": 0.6702074569,
				"element": "O" 
			},
			{
				"x": 2.735833263,
				"y": -1.1566298343,
				"z": -0.2511501658,
				"element": "C" 
			},
			{
				"x": 1.8422915663,
				"y": -0.4652266588,
				"z": -0.9870009398,
				"element": "C" 
			},
			{
				"x": 1.8334454064,
				"y": 0.969645239,
				"z": -1.2552837885,
				"element": "C" 
			},
			{
				"x": 0.8050801982,
				"y": 1.5077439308,
				"z": -2.0451942096,
				"element": "C" 
			},
			{
				"x": 0.7340474767,
				"y": 2.8683073687,
				"z": -2.3420188613,
				"element": "C" 
			},
			{
				"x": 1.7149857651,
				"y": 3.7322972703,
				"z": -1.8407846863,
				"element": "C" 
			},
			{
				"x": 1.7542816872,
				"y": 5.0739036089,
				"z": -2.0601546249,
				"element": "O" 
			},
			{
				"x": 0.7327609839,
				"y": 5.6591919774,
				"z": -2.8549535318,
				"element": "C" 
			},
			{
				"x": 2.7552849122,
				"y": 3.2149831539,
				"z": -1.0468761271,
				"element": "C" 
			},
			{
				"x": 2.8106748582,
				"y": 1.8627509006,
				"z": -0.762110402,
				"element": "C" 
			},
			{
				"x": -2.808238291,
				"y": -3.2229613831,
				"z": 1.2710799704,
				"element": "H" 
			},
			{
				"x": -3.456630498,
				"y": -4.4569248936,
				"z": 2.372525129,
				"element": "H" 
			},
			{
				"x": -3.2472112579,
				"y": -4.8228068193,
				"z": 0.6468767403,
				"element": "H" 
			},
			{
				"x": -0.9747465506,
				"y": -4.2620318009,
				"z": 2.6476577063,
				"element": "H" 
			},
			{
				"x": -1.4131802148,
				"y": -5.8624339176,
				"z": 2.0227745657,
				"element": "H" 
			},
			{
				"x": 1.1998567762,
				"y": -4.4970856489,
				"z": 1.6479806621,
				"element": "H" 
			},
			{
				"x": 0.7803734269,
				"y": -6.0665594653,
				"z": 0.9283566375,
				"element": "H" 
			},
			{
				"x": 2.4946977063,
				"y": -5.081434468,
				"z": -0.4363502204,
				"element": "H" 
			},
			{
				"x": 0.9628376574,
				"y": -4.9811691059,
				"z": -1.362331859,
				"element": "H" 
			},
			{
				"x": 3.5788053693,
				"y": -0.6845292182,
				"z": 0.2426383413,
				"element": "H" 
			},
			{
				"x": 1.027949625,
				"y": -1.0297162315,
				"z": -1.435933119,
				"element": "H" 
			},
			{
				"x": 0.0395901609,
				"y": 0.8433714397,
				"z": -2.4378610146,
				"element": "H" 
			},
			{
				"x": -0.0780088277,
				"y": 3.2389531012,
				"z": -2.955877547,
				"element": "H" 
			},
			{
				"x": 0.9595428147,
				"y": 6.7252674465,
				"z": -2.89817784,
				"element": "H" 
			},
			{
				"x": 0.7285447577,
				"y": 5.2487801623,
				"z": -3.8725641264,
				"element": "H" 
			},
			{
				"x": -0.2583954713,
				"y": 5.5182246354,
				"z": -2.4058028279,
				"element": "H" 
			},
			{
				"x": 3.5050712572,
				"y": 3.9022931672,
				"z": -0.6690993436,
				"element": "H" 
			},
			{
				"x": 3.6240187869,
				"y": 1.489630095,
				"z": -0.1478131162,
				"element": "H" 
			}
		],
		 "valence_orbital": [ 
			{
				"type": "occ",
				"energy": -0.2818,
				"method": "rhf"
			},
			{
				"type": "occ",
				"energy": -0.26085,
				"method": "rhf"
			},
			{
				"type": "occ",
				"energy": -0.26062,
				"method": "rhf"
			},
			{
				"type": "occ",
				"energy": -0.25016,
				"method": "rhf"
			},
			{
				"type": "occ",
				"energy": -0.21409,
				"method": "rhf"
			},
			{
				"type": "unocc",
				"energy": -0.05515,
				"method": "rhf"
			},
			{
				"type": "unocc",
				"energy": -0.00922,
				"method": "rhf"
			},
			{
				"type": "unocc",
				"energy": 0.03211,
				"method": "rhf"
			},
			{
				"type": "unocc",
				"energy": 0.08621,
				"method": "rhf"
			},
			{
				"type": "unocc",
				"energy": 0.09508,
				"method": "rhf"
			}
		],
		"cosmo_sigma_profile": { 
			"-0.025": 0.0,
			"-0.024": 0.0,
			"-0.023": 0.0,
			"-0.022": 0.0,
			"-0.021": 0.0,
			"-0.02": 0.0,
			"-0.019": 0.0,
			"-0.018": 0.0,
			"-0.017": 0.0,
			"-0.016": 0.0,
			"-0.015": 0.0,
			"-0.014": 0.0,
			"-0.013": 0.0,
			"-0.012": 0.0,
			"-0.011": 0.0,
			"-0.01": 0.0,
			"-0.009": 0.0483305869835,
			"-0.008": 1.67329016877,
			"-0.007": 6.21918951827,
			"-0.006": 17.9011549308,
			"-0.005": 23.8547708487,
			"-0.004": 29.8506890264,
			"-0.003": 37.1664548231,
			"-0.002": 30.9027813239,
			"-0.001": 23.087973112,
			"0.0": 21.1031840661,
			"0.001": 22.8975592739,
			"0.002": 20.0384453165,
			"0.003": 21.760510363,
			"0.004": 20.4297967608,
			"0.005": 7.96724008247,
			"0.006": 5.85632437181,
			"0.007": 5.13350591574,
			"0.008": 3.91790651779,
			"0.009": 4.50311089668,
			"0.01": 4.19963535471,
			"0.011": 3.82527808657,
			"0.012": 5.18737993788,
			"0.013": 4.15910849263,
			"0.014": 0.346338919597,
			"0.015": 0.0,
			"0.016": 0.0,
			"0.017": 0.0,
			"0.018": 0.0,
			"0.019": 0.0,
			"0.02": 0.0,
			"0.021": 0.0,
			"0.022": 0.0,
			"0.023": 0.0,
			"0.024": 0.0,
			"0.025": 0.0
		}
	}
}
