{
	 "smiles": "CC1(C)OC2C3OC(C)(C)OCC3OC2(O1)C(O)=O", 
	 "Tm": 365.15, 
	 "num_atms": 37, 
	 "gaussian": { 
		 "optdone": 1, 
		 "sigma_profile": "yes", 
		 "theory": "DFT", 
		 "functional": "B3LYP", 
		 "basiset": "6-31G**", 
		 "properties": { 
			 "R2extent": 5305.0635, 
			 "electric_dipole_moment_norm": 4.22841245386, 
			 "electric_quadrupole_moment_norm": 15.927631716, 
			 "total_energy": -994.636725601, 
			 "HOMO_LUMO_gap": 0.23757, 
			 "cosmo_polarized_energy": -16.37, 
			 "cosmo_cavitation_energy": 35.63, 
			 "cosmo_dispersion_energy": -26.2, 
			 "cosmo_repulsion_energy": 1.97, 
			 "cosmo_total_nonelectrostatic_energy": 11.39, 
			 "SMD_solvation_energy": 6.65 
		},
		"coords": [
			{
				"x": -0.5831375939,
				"y": 2.5311801539,
				"z": -3.0224378884,
				"element": "C" 
			},
			{
				"x": -0.4192507507,
				"y": 1.1113537193,
				"z": -2.5087937936,
				"element": "C" 
			},
			{
				"x": -1.162819674,
				"y": 0.0840608909,
				"z": -3.3528321045,
				"element": "C" 
			},
			{
				"x": -0.8441484612,
				"y": 1.0826324311,
				"z": -1.1283622592,
				"element": "O" 
			},
			{
				"x": 0.0572289734,
				"y": 0.1541500075,
				"z": -0.57850052,
				"element": "C" 
			},
			{
				"x": 0.2980383768,
				"y": -0.3162175488,
				"z": 0.8327384098,
				"element": "C" 
			},
			{
				"x": 0.4197824533,
				"y": 0.7112703213,
				"z": 1.7774876379,
				"element": "O" 
			},
			{
				"x": 0.9333468953,
				"y": 0.2857955402,
				"z": 3.05403801,
				"element": "C" 
			},
			{
				"x": -0.1924237564,
				"y": -0.2532867021,
				"z": 3.9354271109,
				"element": "C" 
			},
			{
				"x": 1.6133296338,
				"y": 1.5136908405,
				"z": 3.6526141292,
				"element": "C" 
			},
			{
				"x": 1.8494878858,
				"y": -0.7972869448,
				"z": 2.888103873,
				"element": "O" 
			},
			{
				"x": 2.6266716183,
				"y": -0.7201142661,
				"z": 1.691816364,
				"element": "C" 
			},
			{
				"x": 1.6836861995,
				"y": -1.0230431996,
				"z": 0.5238582038,
				"element": "C" 
			},
			{
				"x": 2.2148945383,
				"y": -0.5163040591,
				"z": -0.7589115729,
				"element": "O" 
			},
			{
				"x": 1.4043787008,
				"y": 0.5709686024,
				"z": -1.1355537302,
				"element": "C" 
			},
			{
				"x": 1.0295450617,
				"y": 0.7192153535,
				"z": -2.5125824487,
				"element": "O" 
			},
			{
				"x": 2.1407177066,
				"y": 1.8936481958,
				"z": -0.7186321792,
				"element": "C" 
			},
			{
				"x": 2.407269753,
				"y": 2.7029602879,
				"z": -1.7582088761,
				"element": "O" 
			},
			{
				"x": 2.5122998888,
				"y": 2.1526066625,
				"z": 0.3981106131,
				"element": "O" 
			},
			{
				"x": -0.2393412001,
				"y": 2.6032193732,
				"z": -4.05817217,
				"element": "H" 
			},
			{
				"x": -0.0251342675,
				"y": 3.2345985728,
				"z": -2.402772601,
				"element": "H" 
			},
			{
				"x": -1.6409367792,
				"y": 2.805195811,
				"z": -2.9897280531,
				"element": "H" 
			},
			{
				"x": -2.2192142407,
				"y": 0.3569582151,
				"z": -3.4217615613,
				"element": "H" 
			},
			{
				"x": -0.7381995438,
				"y": 0.0557880002,
				"z": -4.3596501019,
				"element": "H" 
			},
			{
				"x": -1.0846015185,
				"y": -0.9179119187,
				"z": -2.9257113796,
				"element": "H" 
			},
			{
				"x": -0.0996574536,
				"y": -0.8097603582,
				"z": -1.0897175428,
				"element": "H" 
			},
			{
				"x": -0.4427709204,
				"y": -1.0643921711,
				"z": 1.1437017377,
				"element": "H" 
			},
			{
				"x": 0.211245043,
				"y": -0.5828092009,
				"z": 4.8964850952,
				"element": "H" 
			},
			{
				"x": -0.9371657942,
				"y": 0.5268384682,
				"z": 4.1101127159,
				"element": "H" 
			},
			{
				"x": -0.6786300361,
				"y": -1.1111630867,
				"z": 3.4630150686,
				"element": "H" 
			},
			{
				"x": 2.0380773967,
				"y": 1.2621096217,
				"z": 4.6278604321,
				"element": "H" 
			},
			{
				"x": 2.3990442689,
				"y": 1.8753141647,
				"z": 2.987756604,
				"element": "H" 
			},
			{
				"x": 0.8842163215,
				"y": 2.3187303444,
				"z": 3.778606945,
				"element": "H" 
			},
			{
				"x": 3.4139749362,
				"y": -1.4713740514,
				"z": 1.7850562218,
				"element": "H" 
			},
			{
				"x": 3.0773190552,
				"y": 0.2641497965,
				"z": 1.549001086,
				"element": "H" 
			},
			{
				"x": 1.5437760636,
				"y": -2.1003115636,
				"z": 0.3952461785,
				"element": "H" 
			},
			{
				"x": 2.0549012197,
				"y": 2.2488396966,
				"z": -2.549507654,
				"element": "H" 
			}
		],
		 "valence_orbital": [ 
			{
				"type": "occ",
				"energy": -0.29481,
				"method": "rhf"
			},
			{
				"type": "occ",
				"energy": -0.2831,
				"method": "rhf"
			},
			{
				"type": "occ",
				"energy": -0.27661,
				"method": "rhf"
			},
			{
				"type": "occ",
				"energy": -0.25829,
				"method": "rhf"
			},
			{
				"type": "occ",
				"energy": -0.24856,
				"method": "rhf"
			},
			{
				"type": "unocc",
				"energy": -0.01099,
				"method": "rhf"
			},
			{
				"type": "unocc",
				"energy": 0.0519,
				"method": "rhf"
			},
			{
				"type": "unocc",
				"energy": 0.0657,
				"method": "rhf"
			},
			{
				"type": "unocc",
				"energy": 0.07861,
				"method": "rhf"
			},
			{
				"type": "unocc",
				"energy": 0.09417,
				"method": "rhf"
			}
		],
		"cosmo_sigma_profile": { 
			"-0.025": 0.0,
			"-0.024": 0.0,
			"-0.023": 0.0,
			"-0.022": 0.0,
			"-0.021": 0.0,
			"-0.02": 0.0,
			"-0.019": 0.0,
			"-0.018": 0.0,
			"-0.017": 0.0,
			"-0.016": 0.0,
			"-0.015": 0.0,
			"-0.014": 0.0,
			"-0.013": 0.501788767628,
			"-0.012": 0.689790464352,
			"-0.011": 0.428988601723,
			"-0.01": 0.667130079831,
			"-0.009": 2.58726835249,
			"-0.008": 5.03264782666,
			"-0.007": 8.27344459232,
			"-0.006": 16.069057992,
			"-0.005": 19.5358418031,
			"-0.004": 24.8869915002,
			"-0.003": 24.0853381147,
			"-0.002": 28.0074772032,
			"-0.001": 26.5085491858,
			"0.0": 22.2886426495,
			"0.001": 13.0557842038,
			"0.002": 8.33565828434,
			"0.003": 8.73232891865,
			"0.004": 8.74190757623,
			"0.005": 6.563525194,
			"0.006": 7.16535409704,
			"0.007": 8.16272673334,
			"0.008": 8.0013420836,
			"0.009": 9.71737645835,
			"0.01": 10.4830709918,
			"0.011": 5.65536561073,
			"0.012": 3.38738279234,
			"0.013": 0.616619297858,
			"0.014": 8.56033918669e-05,
			"0.015": 0.0,
			"0.016": 0.0,
			"0.017": 0.0,
			"0.018": 0.0,
			"0.019": 0.0,
			"0.02": 0.0,
			"0.021": 0.0,
			"0.022": 0.0,
			"0.023": 0.0,
			"0.024": 0.0,
			"0.025": 0.0
		}
	}
}
