{
	 "smiles": "CC1(C)CC(=O)C2=C(C1)N=CN=C2", 
	 "Tm": 341.15, 
	 "num_atms": 25, 
	 "gaussian": { 
		 "optdone": 1, 
		 "sigma_profile": "yes", 
		 "theory": "DFT", 
		 "functional": "B3LYP", 
		 "basiset": "6-31G**", 
		 "properties": { 
			 "R2extent": 2708.4522, 
			 "electric_dipole_moment_norm": 3.23185340942, 
			 "electric_quadrupole_moment_norm": 8.29098312566, 
			 "total_energy": -573.035677948, 
			 "HOMO_LUMO_gap": 0.17957, 
			 "cosmo_polarized_energy": -10.31, 
			 "cosmo_cavitation_energy": 27.14, 
			 "cosmo_dispersion_energy": -19.64, 
			 "cosmo_repulsion_energy": 1.52, 
			 "cosmo_total_nonelectrostatic_energy": 9.02, 
			 "SMD_solvation_energy": 2.13 
		},
		"coords": [
			{
				"x": -0.5024917022,
				"y": -2.2463934132,
				"z": -0.264917987,
				"element": "C" 
			},
			{
				"x": -0.4656803417,
				"y": -0.7312575646,
				"z": -0.5252444539,
				"element": "C" 
			},
			{
				"x": -1.7398285535,
				"y": -0.319725107,
				"z": -1.2911853772,
				"element": "C" 
			},
			{
				"x": 0.7927432041,
				"y": -0.3824202099,
				"z": -1.3563462553,
				"element": "C" 
			},
			{
				"x": 1.0201193692,
				"y": 1.1086691381,
				"z": -1.5535723092,
				"element": "C" 
			},
			{
				"x": 1.5435286784,
				"y": 1.5630874598,
				"z": -2.5585369794,
				"element": "O" 
			},
			{
				"x": 0.5959930103,
				"y": 1.9923399929,
				"z": -0.4302040324,
				"element": "C" 
			},
			{
				"x": -0.0806681265,
				"y": 1.4890649983,
				"z": 0.6927362713,
				"element": "C" 
			},
			{
				"x": -0.3825163883,
				"y": 0.0177220394,
				"z": 0.8265196592,
				"element": "C" 
			},
			{
				"x": -0.4655007544,
				"y": 2.302862442,
				"z": 1.6895964564,
				"element": "N" 
			},
			{
				"x": -0.1655876323,
				"y": 3.596820798,
				"z": 1.552393432,
				"element": "C" 
			},
			{
				"x": 0.4692052804,
				"y": 4.1871865775,
				"z": 0.5286732853,
				"element": "N" 
			},
			{
				"x": 0.8406901441,
				"y": 3.3701939576,
				"z": -0.4589862511,
				"element": "C" 
			},
			{
				"x": -1.3751474271,
				"y": -2.5180601898,
				"z": 0.3393289395,
				"element": "H" 
			},
			{
				"x": 0.3935802405,
				"y": -2.5822211373,
				"z": 0.2688930517,
				"element": "H" 
			},
			{
				"x": -0.561695904,
				"y": -2.803643326,
				"z": -1.2060280661,
				"element": "H" 
			},
			{
				"x": -1.7950257171,
				"y": -0.8371800825,
				"z": -2.2548232887,
				"element": "H" 
			},
			{
				"x": -2.6360994261,
				"y": -0.5806871418,
				"z": -0.7183713992,
				"element": "H" 
			},
			{
				"x": -1.7759028429,
				"y": 0.7560257464,
				"z": -1.4909212914,
				"element": "H" 
			},
			{
				"x": 0.7728916125,
				"y": -0.8542722599,
				"z": -2.3435017264,
				"element": "H" 
			},
			{
				"x": 1.6839875385,
				"y": -0.7689673567,
				"z": -0.8379650317,
				"element": "H" 
			},
			{
				"x": 0.4149255353,
				"y": -0.4295904041,
				"z": 1.4389688403,
				"element": "H" 
			},
			{
				"x": -1.305874248,
				"y": -0.0960213057,
				"z": 1.4037911115,
				"element": "H" 
			},
			{
				"x": -0.4768130112,
				"y": 4.2506996056,
				"z": 2.3652977715,
				"element": "H" 
			},
			{
				"x": 1.3549674619,
				"y": 3.8050667429,
				"z": -1.3131943697,
				"element": "H" 
			}
		],
		 "valence_orbital": [ 
			{
				"type": "occ",
				"energy": -0.31502,
				"method": "rhf"
			},
			{
				"type": "occ",
				"energy": -0.31434,
				"method": "rhf"
			},
			{
				"type": "occ",
				"energy": -0.28681,
				"method": "rhf"
			},
			{
				"type": "occ",
				"energy": -0.25922,
				"method": "rhf"
			},
			{
				"type": "occ",
				"energy": -0.25309,
				"method": "rhf"
			},
			{
				"type": "unocc",
				"energy": -0.07352,
				"method": "rhf"
			},
			{
				"type": "unocc",
				"energy": -0.04659,
				"method": "rhf"
			},
			{
				"type": "unocc",
				"energy": 0.01657,
				"method": "rhf"
			},
			{
				"type": "unocc",
				"energy": 0.06644,
				"method": "rhf"
			},
			{
				"type": "unocc",
				"energy": 0.10807,
				"method": "rhf"
			}
		],
		"cosmo_sigma_profile": { 
			"-0.025": 0.0,
			"-0.024": 0.0,
			"-0.023": 0.0,
			"-0.022": 0.0,
			"-0.021": 0.0,
			"-0.02": 0.0,
			"-0.019": 0.0,
			"-0.018": 0.0,
			"-0.017": 0.0,
			"-0.016": 0.0,
			"-0.015": 0.0,
			"-0.014": 0.0,
			"-0.013": 0.0,
			"-0.012": 0.0,
			"-0.011": 0.0,
			"-0.01": 0.0,
			"-0.009": 0.0,
			"-0.008": 1.84833681264,
			"-0.007": 5.44445278657,
			"-0.006": 9.14820093316,
			"-0.005": 10.7263614358,
			"-0.004": 20.2155228923,
			"-0.003": 30.8014686915,
			"-0.002": 26.7557988156,
			"-0.001": 23.1253337581,
			"0.0": 18.8264610384,
			"0.001": 14.5923012109,
			"0.002": 5.9274715732,
			"0.003": 5.01718792451,
			"0.004": 3.62671202262,
			"0.005": 3.63171857438,
			"0.006": 4.2094665015,
			"0.007": 3.42056905395,
			"0.008": 3.4075023487,
			"0.009": 3.55811317247,
			"0.01": 4.34361178597,
			"0.011": 5.56738526398,
			"0.012": 4.73003666499,
			"0.013": 1.96747693594,
			"0.014": 1.93897183889,
			"0.015": 0.934617220166,
			"0.016": 0.0159672978497,
			"0.017": 0.0,
			"0.018": 0.0,
			"0.019": 0.0,
			"0.02": 0.0,
			"0.021": 0.0,
			"0.022": 0.0,
			"0.023": 0.0,
			"0.024": 0.0,
			"0.025": 0.0
		}
	}
}
