{
	 "smiles": "FC1=C(C=CC=C1)C(=O)CN1C(=O)CCC1=O", 
	 "Tm": 428.15, 
	 "num_atms": 27, 
	 "gaussian": { 
		 "optdone": 1, 
		 "sigma_profile": "yes", 
		 "theory": "DFT", 
		 "functional": "B3LYP", 
		 "basiset": "6-31G**", 
		 "properties": { 
			 "R2extent": 3550.2199, 
			 "electric_dipole_moment_norm": 4.26882585613, 
			 "electric_quadrupole_moment_norm": 17.8015599215, 
			 "total_energy": -843.589090747, 
			 "HOMO_LUMO_gap": 0.19529, 
			 "cosmo_polarized_energy": -17.2, 
			 "cosmo_cavitation_energy": 31.54, 
			 "cosmo_dispersion_energy": -21.92, 
			 "cosmo_repulsion_energy": 1.7, 
			 "cosmo_total_nonelectrostatic_energy": 11.32, 
			 "SMD_solvation_energy": 7.41 
		},
		"coords": [
			{
				"x": 1.0869080928,
				"y": -0.9358286463,
				"z": -1.1889886031,
				"element": "F" 
			},
			{
				"x": 1.6460418722,
				"y": -0.6444927488,
				"z": 0.0081939628,
				"element": "C" 
			},
			{
				"x": 1.3535392065,
				"y": 0.5715631806,
				"z": 0.6333400111,
				"element": "C" 
			},
			{
				"x": 2.0029249336,
				"y": 0.8414926207,
				"z": 1.8505440325,
				"element": "C" 
			},
			{
				"x": 2.8765894152,
				"y": -0.076617041,
				"z": 2.422142027,
				"element": "C" 
			},
			{
				"x": 3.1372391146,
				"y": -1.2870708465,
				"z": 1.7712400383,
				"element": "C" 
			},
			{
				"x": 2.5248755943,
				"y": -1.5738781395,
				"z": 0.5522554128,
				"element": "C" 
			},
			{
				"x": 0.4462291854,
				"y": 1.6306729438,
				"z": 0.082679984,
				"element": "C" 
			},
			{
				"x": 0.6192814893,
				"y": 2.7984462161,
				"z": 0.3810549352,
				"element": "O" 
			},
			{
				"x": -0.6945634181,
				"y": 1.2844723831,
				"z": -0.8828759274,
				"element": "C" 
			},
			{
				"x": -1.4766185309,
				"y": 0.1143601003,
				"z": -0.5158795857,
				"element": "N" 
			},
			{
				"x": -2.0030426592,
				"y": -0.0829567624,
				"z": 0.7605364225,
				"element": "C" 
			},
			{
				"x": -1.8180951535,
				"y": 0.6631795361,
				"z": 1.6991281381,
				"element": "O" 
			},
			{
				"x": -2.8196319774,
				"y": -1.3713434827,
				"z": 0.7355052604,
				"element": "C" 
			},
			{
				"x": -2.6908925768,
				"y": -1.9033256397,
				"z": -0.7011154999,
				"element": "C" 
			},
			{
				"x": -1.8649063814,
				"y": -0.858525784,
				"z": -1.4450856749,
				"element": "C" 
			},
			{
				"x": -1.5845425521,
				"y": -0.8355140143,
				"z": -2.6229666064,
				"element": "O" 
			},
			{
				"x": 1.7914200481,
				"y": 1.7913762246,
				"z": 2.3293878747,
				"element": "H" 
			},
			{
				"x": 3.3564717622,
				"y": 0.1477474089,
				"z": 3.3692961877,
				"element": "H" 
			},
			{
				"x": 3.8224208542,
				"y": -2.007355015,
				"z": 2.2081116707,
				"element": "H" 
			},
			{
				"x": 2.7206620404,
				"y": -2.4934164533,
				"z": 0.0115231316,
				"element": "H" 
			},
			{
				"x": -0.2950672008,
				"y": 1.0835645877,
				"z": -1.8817240119,
				"element": "H" 
			},
			{
				"x": -1.3289292458,
				"y": 2.1736186368,
				"z": -0.9275674602,
				"element": "H" 
			},
			{
				"x": -2.4269804254,
				"y": -2.0528475026,
				"z": 1.4950258117,
				"element": "H" 
			},
			{
				"x": -3.8492742131,
				"y": -1.1354556145,
				"z": 1.019709222,
				"element": "H" 
			},
			{
				"x": -3.6482865223,
				"y": -2.0281077823,
				"z": -1.2136747591,
				"element": "H" 
			},
			{
				"x": -2.1684727518,
				"y": -2.862758366,
				"z": -0.7607959947,
				"element": "H" 
			}
		],
		 "valence_orbital": [ 
			{
				"type": "occ",
				"energy": -0.28768,
				"method": "rhf"
			},
			{
				"type": "occ",
				"energy": -0.27228,
				"method": "rhf"
			},
			{
				"type": "occ",
				"energy": -0.26395,
				"method": "rhf"
			},
			{
				"type": "occ",
				"energy": -0.2602,
				"method": "rhf"
			},
			{
				"type": "occ",
				"energy": -0.25652,
				"method": "rhf"
			},
			{
				"type": "unocc",
				"energy": -0.06123,
				"method": "rhf"
			},
			{
				"type": "unocc",
				"energy": -0.02357,
				"method": "rhf"
			},
			{
				"type": "unocc",
				"energy": -0.01255,
				"method": "rhf"
			},
			{
				"type": "unocc",
				"energy": 0.01667,
				"method": "rhf"
			},
			{
				"type": "unocc",
				"energy": 0.02174,
				"method": "rhf"
			}
		],
		"cosmo_sigma_profile": { 
			"-0.025": 0.0,
			"-0.024": 0.0,
			"-0.023": 0.0,
			"-0.022": 0.0,
			"-0.021": 0.0,
			"-0.02": 0.0,
			"-0.019": 0.0,
			"-0.018": 0.0,
			"-0.017": 0.0,
			"-0.016": 0.0,
			"-0.015": 0.0,
			"-0.014": 0.0,
			"-0.013": 0.0,
			"-0.012": 0.0,
			"-0.011": 0.0,
			"-0.01": 0.0,
			"-0.009": 0.307393198544,
			"-0.008": 4.98022147838,
			"-0.007": 23.3826323618,
			"-0.006": 25.1903515364,
			"-0.005": 21.9337346004,
			"-0.004": 17.2737751311,
			"-0.003": 16.3380517692,
			"-0.002": 10.6267510318,
			"-0.001": 11.9584221441,
			"0.0": 13.2266044717,
			"0.001": 12.7134888729,
			"0.002": 15.0581840106,
			"0.003": 15.2023147739,
			"0.004": 8.53407359144,
			"0.005": 5.21518683064,
			"0.006": 6.36881837501,
			"0.007": 5.74909940677,
			"0.008": 5.12563281464,
			"0.009": 5.28457015885,
			"0.01": 7.57742454483,
			"0.011": 11.8125058865,
			"0.012": 6.87676320321,
			"0.013": 1.19520765421,
			"0.014": 0.0,
			"0.015": 0.0,
			"0.016": 0.0,
			"0.017": 0.0,
			"0.018": 0.0,
			"0.019": 0.0,
			"0.02": 0.0,
			"0.021": 0.0,
			"0.022": 0.0,
			"0.023": 0.0,
			"0.024": 0.0,
			"0.025": 0.0
		}
	}
}
