{
	 "smiles": "CC(=O)C1=CC(F)=CC(Cl)=C1", 
	 "Tm": 326.15, 
	 "num_atms": 17, 
	 "gaussian": { 
		 "optdone": 1, 
		 "sigma_profile": "yes", 
		 "theory": "DFT", 
		 "functional": "B3LYP", 
		 "basiset": "6-31G**", 
		 "properties": { 
			 "R2extent": 2528.3101, 
			 "electric_dipole_moment_norm": 1.89887838736, 
			 "electric_quadrupole_moment_norm": 7.79690896446, 
			 "total_energy": -943.719920446, 
			 "HOMO_LUMO_gap": 0.18841, 
			 "cosmo_polarized_energy": -7.38, 
			 "cosmo_cavitation_energy": 24.01, 
			 "cosmo_dispersion_energy": -17.44, 
			 "cosmo_repulsion_energy": 1.38, 
			 "cosmo_total_nonelectrostatic_energy": 7.94, 
			 "SMD_solvation_energy": 5.11 
		},
		"coords": [
			{
				"x": 0.4808117665,
				"y": 0.5765708876,
				"z": -2.4951646216,
				"element": "C" 
			},
			{
				"x": 0.4171299211,
				"y": -0.7392133881,
				"z": -1.742543956,
				"element": "C" 
			},
			{
				"x": 0.7506715343,
				"y": -1.7850067407,
				"z": -2.2745615126,
				"element": "O" 
			},
			{
				"x": -0.068762833,
				"y": -0.7396563536,
				"z": -0.3167093515,
				"element": "C" 
			},
			{
				"x": -0.1164579549,
				"y": -1.970842558,
				"z": 0.3511296767,
				"element": "C" 
			},
			{
				"x": -0.5591386139,
				"y": -2.0015457106,
				"z": 1.66327442,
				"element": "C" 
			},
			{
				"x": -0.6093911139,
				"y": -3.1778173025,
				"z": 2.315095985,
				"element": "F" 
			},
			{
				"x": -0.9591193208,
				"y": -0.854314856,
				"z": 2.3451001628,
				"element": "C" 
			},
			{
				"x": -0.9034622789,
				"y": 0.3585661335,
				"z": 1.661763134,
				"element": "C" 
			},
			{
				"x": -1.3995793147,
				"y": 1.8255065785,
				"z": 2.4888171513,
				"element": "Cl" 
			},
			{
				"x": -0.4642085302,
				"y": 0.4337664746,
				"z": 0.3405328293,
				"element": "C" 
			},
			{
				"x": 1.1473153426,
				"y": 1.2853977576,
				"z": -1.9914896746,
				"element": "H" 
			},
			{
				"x": 0.8515662068,
				"y": 0.3843385211,
				"z": -3.5020545613,
				"element": "H" 
			},
			{
				"x": -0.5086151741,
				"y": 1.0432717477,
				"z": -2.5550068103,
				"element": "H" 
			},
			{
				"x": 0.1903703252,
				"y": -2.8745951772,
				"z": -0.1616413452,
				"element": "H" 
			},
			{
				"x": -1.2996807522,
				"y": -0.9170709831,
				"z": 3.3713898001,
				"element": "H" 
			},
			{
				"x": -0.4355492098,
				"y": 1.3955449693,
				"z": -0.1559313261,
				"element": "H" 
			}
		],
		 "valence_orbital": [ 
			{
				"type": "occ",
				"energy": -0.33752,
				"method": "rhf"
			},
			{
				"type": "occ",
				"energy": -0.3284,
				"method": "rhf"
			},
			{
				"type": "occ",
				"energy": -0.27512,
				"method": "rhf"
			},
			{
				"type": "occ",
				"energy": -0.26327,
				"method": "rhf"
			},
			{
				"type": "occ",
				"energy": -0.26154,
				"method": "rhf"
			},
			{
				"type": "unocc",
				"energy": -0.07313,
				"method": "rhf"
			},
			{
				"type": "unocc",
				"energy": -0.02492,
				"method": "rhf"
			},
			{
				"type": "unocc",
				"energy": 0.01349,
				"method": "rhf"
			},
			{
				"type": "unocc",
				"energy": 0.0242,
				"method": "rhf"
			},
			{
				"type": "unocc",
				"energy": 0.09332,
				"method": "rhf"
			}
		],
		"cosmo_sigma_profile": { 
			"-0.025": 0.0,
			"-0.024": 0.0,
			"-0.023": 0.0,
			"-0.022": 0.0,
			"-0.021": 0.0,
			"-0.02": 0.0,
			"-0.019": 0.0,
			"-0.018": 0.0,
			"-0.017": 0.0,
			"-0.016": 0.0,
			"-0.015": 0.0,
			"-0.014": 0.0,
			"-0.013": 0.0,
			"-0.012": 0.0,
			"-0.011": 0.0,
			"-0.01": 0.074742091012,
			"-0.009": 1.12951649088,
			"-0.008": 3.78844205268,
			"-0.007": 7.95235395408,
			"-0.006": 10.4106818647,
			"-0.005": 9.19867010352,
			"-0.004": 10.0085456587,
			"-0.003": 10.9489914257,
			"-0.002": 13.5167279518,
			"-0.001": 20.9734228776,
			"0.0": 22.9528570957,
			"0.001": 21.5876193904,
			"0.002": 10.5881679091,
			"0.003": 15.58786549,
			"0.004": 17.8403771725,
			"0.005": 2.96217041024,
			"0.006": 1.65579939064,
			"0.007": 1.18875033099,
			"0.008": 1.71254619535,
			"0.009": 1.99109211959,
			"0.01": 2.30290726619,
			"0.011": 3.86142222052,
			"0.012": 2.27113684207,
			"0.013": 0.491563554008,
			"0.014": 0.0,
			"0.015": 0.0,
			"0.016": 0.0,
			"0.017": 0.0,
			"0.018": 0.0,
			"0.019": 0.0,
			"0.02": 0.0,
			"0.021": 0.0,
			"0.022": 0.0,
			"0.023": 0.0,
			"0.024": 0.0,
			"0.025": 0.0
		}
	}
}
