{
	 "smiles": "CN1C(=O)C(C2=NNC(=O)C2=N/NC2=C(Br)C=C(C=C2[N+]([O-])=O)[N+]([O-])=O)=C(O)C2=CC=CC=C12", 
	 "Tm": 465.15, 
	 "num_atms": 46, 
	 "gaussian": { 
		 "optdone": 1, 
		 "sigma_profile": "yes", 
		 "theory": "DFT", 
		 "functional": "B3LYP", 
		 "basiset": "6-31G**", 
		 "properties": { 
			 "R2extent": 19485.3417, 
			 "electric_dipole_moment_norm": 9.46362052969, 
			 "electric_quadrupole_moment_norm": 26.5955842833, 
			 "total_energy": -4212.22940805, 
			 "HOMO_LUMO_gap": 0.10663, 
			 "cosmo_polarized_energy": -32.77, 
			 "cosmo_cavitation_energy": 55.84, 
			 "cosmo_dispersion_energy": -38.22, 
			 "cosmo_repulsion_energy": 2.82, 
			 "cosmo_total_nonelectrostatic_energy": 20.44, 
			 "SMD_solvation_energy": 12.42 
		},
		"coords": [
			{
				"x": -1.3954661408,
				"y": 3.2889693175,
				"z": 1.2959596929,
				"element": "C" 
			},
			{
				"x": 0.0118633966,
				"y": 2.8895176138,
				"z": 1.3161350719,
				"element": "N" 
			},
			{
				"x": 0.2806215372,
				"y": 1.5283588495,
				"z": 1.5787388248,
				"element": "C" 
			},
			{
				"x": -0.6348872579,
				"y": 0.7382694684,
				"z": 1.7969450933,
				"element": "O" 
			},
			{
				"x": 1.6854338083,
				"y": 1.1272090464,
				"z": 1.5629304657,
				"element": "C" 
			},
			{
				"x": 1.9580993963,
				"y": -0.3051921718,
				"z": 1.7663273041,
				"element": "C" 
			},
			{
				"x": 2.699597271,
				"y": -0.7457964586,
				"z": 2.7454811116,
				"element": "N" 
			},
			{
				"x": 2.7580705724,
				"y": -2.1275921655,
				"z": 2.6375268546,
				"element": "N" 
			},
			{
				"x": 2.0350702517,
				"y": -2.6420031937,
				"z": 1.5931114286,
				"element": "C" 
			},
			{
				"x": 1.8876170993,
				"y": -3.8163931791,
				"z": 1.2596704061,
				"element": "O" 
			},
			{
				"x": 1.4833925889,
				"y": -1.4163575239,
				"z": 0.9473048971,
				"element": "C" 
			},
			{
				"x": 0.7725270046,
				"y": -1.3337333006,
				"z": -0.1343102312,
				"element": "N" 
			},
			{
				"x": 0.4366766969,
				"y": -2.4802576551,
				"z": -0.7340051059,
				"element": "N" 
			},
			{
				"x": -0.3468838682,
				"y": -2.4675013012,
				"z": -1.8708967635,
				"element": "C" 
			},
			{
				"x": -0.3100727199,
				"y": -1.4216162433,
				"z": -2.8382802818,
				"element": "C" 
			},
			{
				"x": 0.9701244073,
				"y": -0.0120426465,
				"z": -2.8079498656,
				"element": "Br" 
			},
			{
				"x": -1.1590249617,
				"y": -1.4249889285,
				"z": -3.9345480602,
				"element": "C" 
			},
			{
				"x": -2.0520364454,
				"y": -2.4772999659,
				"z": -4.1224460396,
				"element": "C" 
			},
			{
				"x": -2.1001693709,
				"y": -3.542996004,
				"z": -3.243154072,
				"element": "C" 
			},
			{
				"x": -1.2532430315,
				"y": -3.5372694935,
				"z": -2.1414953551,
				"element": "C" 
			},
			{
				"x": -1.3672150607,
				"y": -4.7094113143,
				"z": -1.2607859327,
				"element": "N" 
			},
			{
				"x": -2.3780208464,
				"y": -5.3976630063,
				"z": -1.3585188765,
				"element": "O" 
			},
			{
				"x": -0.4340084038,
				"y": -4.9532842003,
				"z": -0.4882489779,
				"element": "O" 
			},
			{
				"x": -2.938543348,
				"y": -2.4657385933,
				"z": -5.2913828919,
				"element": "N" 
			},
			{
				"x": -2.8730282583,
				"y": -1.4914142188,
				"z": -6.0399297428,
				"element": "O" 
			},
			{
				"x": -3.6875772087,
				"y": -3.4286445314,
				"z": -5.4429720902,
				"element": "O" 
			},
			{
				"x": 2.6829157171,
				"y": 2.040047166,
				"z": 1.3561585125,
				"element": "C" 
			},
			{
				"x": 3.9655279986,
				"y": 1.6108447376,
				"z": 1.326810272,
				"element": "O" 
			},
			{
				"x": 2.3743544374,
				"y": 3.4432592732,
				"z": 1.1626719092,
				"element": "C" 
			},
			{
				"x": 3.3711859916,
				"y": 4.4262622569,
				"z": 1.0153412006,
				"element": "C" 
			},
			{
				"x": 3.0516498107,
				"y": 5.7574786357,
				"z": 0.8018334781,
				"element": "C" 
			},
			{
				"x": 1.7035159183,
				"y": 6.1312160722,
				"z": 0.7389060473,
				"element": "C" 
			},
			{
				"x": 0.6964703211,
				"y": 5.1906899713,
				"z": 0.9021258592,
				"element": "C" 
			},
			{
				"x": 1.0077778994,
				"y": 3.8332307135,
				"z": 1.1260865811,
				"element": "C" 
			},
			{
				"x": -1.9816007221,
				"y": 2.3911497979,
				"z": 1.4784975196,
				"element": "H" 
			},
			{
				"x": -1.6621786768,
				"y": 3.7122169368,
				"z": 0.3226915626,
				"element": "H" 
			},
			{
				"x": -1.6014448667,
				"y": 4.0253506893,
				"z": 2.0790225511,
				"element": "H" 
			},
			{
				"x": 3.2574341638,
				"y": -2.6529429456,
				"z": 3.3383060898,
				"element": "H" 
			},
			{
				"x": 0.6231583266,
				"y": -3.3799732198,
				"z": -0.2722222475,
				"element": "H" 
			},
			{
				"x": -1.1164618584,
				"y": -0.6283723781,
				"z": -4.6652176244,
				"element": "H" 
			},
			{
				"x": -2.7881000752,
				"y": -4.3632189088,
				"z": -3.3934422099,
				"element": "H" 
			},
			{
				"x": 4.5369522771,
				"y": 2.3018233751,
				"z": 0.9690399338,
				"element": "H" 
			},
			{
				"x": 4.421627208,
				"y": 4.1563531105,
				"z": 1.0960615681,
				"element": "H" 
			},
			{
				"x": 3.8362013084,
				"y": 6.4986987316,
				"z": 0.6936493917,
				"element": "H" 
			},
			{
				"x": 1.4354337122,
				"y": 7.1697507382,
				"z": 0.569721138,
				"element": "H" 
			},
			{
				"x": -0.3366359994,
				"y": 5.5094070465,
				"z": 0.8605516034,
				"element": "H" 
			}
		],
		 "valence_orbital": [ 
			{
				"type": "occ",
				"energy": -0.26329,
				"method": "rhf"
			},
			{
				"type": "occ",
				"energy": -0.26015,
				"method": "rhf"
			},
			{
				"type": "occ",
				"energy": -0.24773,
				"method": "rhf"
			},
			{
				"type": "occ",
				"energy": -0.235,
				"method": "rhf"
			},
			{
				"type": "occ",
				"energy": -0.22613,
				"method": "rhf"
			},
			{
				"type": "unocc",
				"energy": -0.1195,
				"method": "rhf"
			},
			{
				"type": "unocc",
				"energy": -0.10425,
				"method": "rhf"
			},
			{
				"type": "unocc",
				"energy": -0.08456,
				"method": "rhf"
			},
			{
				"type": "unocc",
				"energy": -0.06477,
				"method": "rhf"
			},
			{
				"type": "unocc",
				"energy": -0.04116,
				"method": "rhf"
			}
		],
		"cosmo_sigma_profile": { 
			"-0.025": 0.0,
			"-0.024": 0.0,
			"-0.023": 0.0,
			"-0.022": 0.0,
			"-0.021": 0.0,
			"-0.02": 0.00353909954045,
			"-0.019": 0.54337469936,
			"-0.018": 0.823527732707,
			"-0.017": 1.56616868483,
			"-0.016": 2.65206772077,
			"-0.015": 2.72294239094,
			"-0.014": 1.36465073663,
			"-0.013": 1.67501684859,
			"-0.012": 2.09124912093,
			"-0.011": 2.83836051595,
			"-0.01": 2.25562616361,
			"-0.009": 4.06497302627,
			"-0.008": 7.44035071252,
			"-0.007": 15.5013913284,
			"-0.006": 25.5142866932,
			"-0.005": 30.788438137,
			"-0.004": 35.841553705,
			"-0.003": 32.1646468745,
			"-0.002": 30.0970081469,
			"-0.001": 27.2156402874,
			"0.0": 25.5925218826,
			"0.001": 22.782291821,
			"0.002": 27.3446197531,
			"0.003": 25.55622329,
			"0.004": 18.7274287476,
			"0.005": 15.0607093942,
			"0.006": 18.0517579984,
			"0.007": 18.5441866765,
			"0.008": 16.0892755869,
			"0.009": 11.5858141519,
			"0.01": 7.4349871205,
			"0.011": 6.80868879647,
			"0.012": 6.21799025543,
			"0.013": 5.11205171595,
			"0.014": 2.04715344072,
			"0.015": 0.0,
			"0.016": 0.0,
			"0.017": 0.0,
			"0.018": 0.0,
			"0.019": 0.0,
			"0.02": 0.0,
			"0.021": 0.0,
			"0.022": 0.0,
			"0.023": 0.0,
			"0.024": 0.0,
			"0.025": 0.0
		}
	}
}
