{
	 "smiles": "CC(=O)NC1=CC=CC=C1N=NC1=CC=CC=C1", 
	 "Tm": 396.15, 
	 "num_atms": 31, 
	 "gaussian": { 
		 "optdone": 1, 
		 "sigma_profile": "yes", 
		 "theory": "DFT", 
		 "functional": "B3LYP", 
		 "basiset": "6-31G**", 
		 "properties": { 
			 "R2extent": 5616.5041, 
			 "electric_dipole_moment_norm": 5.81117672335, 
			 "electric_quadrupole_moment_norm": 24.104575045, 
			 "total_energy": -780.755952468, 
			 "HOMO_LUMO_gap": 0.12877, 
			 "cosmo_polarized_energy": -14.76, 
			 "cosmo_cavitation_energy": 35.42, 
			 "cosmo_dispersion_energy": -24.82, 
			 "cosmo_repulsion_energy": 1.93, 
			 "cosmo_total_nonelectrostatic_energy": 12.53, 
			 "SMD_solvation_energy": 5.12 
		},
		"coords": [
			{
				"x": 3.5401214297,
				"y": -3.7905584121,
				"z": -1.3650577075,
				"element": "C" 
			},
			{
				"x": 3.8154407688,
				"y": -2.5562237686,
				"z": -0.5280576979,
				"element": "C" 
			},
			{
				"x": 4.9491576133,
				"y": -2.129215906,
				"z": -0.3707267324,
				"element": "O" 
			},
			{
				"x": 2.7544921633,
				"y": -1.8732821199,
				"z": 0.0502815321,
				"element": "N" 
			},
			{
				"x": 1.3735341192,
				"y": -2.0833861434,
				"z": 0.0981203837,
				"element": "C" 
			},
			{
				"x": 0.7519236539,
				"y": -3.3371301743,
				"z": 0.0005022152,
				"element": "C" 
			},
			{
				"x": -0.6330919512,
				"y": -3.4503762139,
				"z": 0.1077171635,
				"element": "C" 
			},
			{
				"x": -1.4280124374,
				"y": -2.3262548564,
				"z": 0.3425145372,
				"element": "C" 
			},
			{
				"x": -0.8295741661,
				"y": -1.0748637867,
				"z": 0.4463546093,
				"element": "C" 
			},
			{
				"x": 0.5575383502,
				"y": -0.9359743033,
				"z": 0.3062583062,
				"element": "C" 
			},
			{
				"x": 1.2677074736,
				"y": 0.267557,
				"z": 0.5989264713,
				"element": "N" 
			},
			{
				"x": 0.9036783173,
				"y": 1.4229066794,
				"z": 0.2873541993,
				"element": "N" 
			},
			{
				"x": -0.1704604571,
				"y": 1.7086879639,
				"z": -0.6156434378,
				"element": "C" 
			},
			{
				"x": -0.2602501684,
				"y": 1.128540448,
				"z": -1.8904320184,
				"element": "C" 
			},
			{
				"x": -1.2344885682,
				"y": 1.5727460113,
				"z": -2.7814687314,
				"element": "C" 
			},
			{
				"x": -2.1318421869,
				"y": 2.5772216975,
				"z": -2.4075067802,
				"element": "C" 
			},
			{
				"x": -2.0305019068,
				"y": 3.1633481631,
				"z": -1.1432297716,
				"element": "C" 
			},
			{
				"x": -1.0347055138,
				"y": 2.7529169389,
				"z": -0.2590276138,
				"element": "C" 
			},
			{
				"x": 3.4417264615,
				"y": -4.6745042119,
				"z": -0.7255525923,
				"element": "H" 
			},
			{
				"x": 2.6326889152,
				"y": -3.7013441368,
				"z": -1.9673583984,
				"element": "H" 
			},
			{
				"x": 4.4050790483,
				"y": -3.9387590388,
				"z": -2.012043424,
				"element": "H" 
			},
			{
				"x": 3.0442790944,
				"y": -0.9877081914,
				"z": 0.4596654235,
				"element": "H" 
			},
			{
				"x": 1.3480348168,
				"y": -4.2312265157,
				"z": -0.1207121223,
				"element": "H" 
			},
			{
				"x": -1.0888677355,
				"y": -4.4334843345,
				"z": 0.0365199866,
				"element": "H" 
			},
			{
				"x": -2.502590284,
				"y": -2.4255210746,
				"z": 0.4570245698,
				"element": "H" 
			},
			{
				"x": -1.4306926061,
				"y": -0.1971247721,
				"z": 0.6529957631,
				"element": "H" 
			},
			{
				"x": 0.4387774994,
				"y": 0.3515288954,
				"z": -2.1807324879,
				"element": "H" 
			},
			{
				"x": -1.2943137317,
				"y": 1.1317325167,
				"z": -3.7722724744,
				"element": "H" 
			},
			{
				"x": -2.8937248138,
				"y": 2.9129937977,
				"z": -3.1044881952,
				"element": "H" 
			},
			{
				"x": -2.7138599741,
				"y": 3.9561431162,
				"z": -0.8534421754,
				"element": "H" 
			},
			{
				"x": -0.9150032238,
				"y": 3.2234147323,
				"z": 0.7119172001,
				"element": "H" 
			}
		],
		 "valence_orbital": [ 
			{
				"type": "occ",
				"energy": -0.26731,
				"method": "rhf"
			},
			{
				"type": "occ",
				"energy": -0.26019,
				"method": "rhf"
			},
			{
				"type": "occ",
				"energy": -0.25349,
				"method": "rhf"
			},
			{
				"type": "occ",
				"energy": -0.23411,
				"method": "rhf"
			},
			{
				"type": "occ",
				"energy": -0.2127,
				"method": "rhf"
			},
			{
				"type": "unocc",
				"energy": -0.08393,
				"method": "rhf"
			},
			{
				"type": "unocc",
				"energy": -0.02342,
				"method": "rhf"
			},
			{
				"type": "unocc",
				"energy": -0.01335,
				"method": "rhf"
			},
			{
				"type": "unocc",
				"energy": -0.00914,
				"method": "rhf"
			},
			{
				"type": "unocc",
				"energy": 0.0136,
				"method": "rhf"
			}
		],
		"cosmo_sigma_profile": { 
			"-0.025": 0.0,
			"-0.024": 0.0,
			"-0.023": 0.0,
			"-0.022": 0.0,
			"-0.021": 0.0,
			"-0.02": 0.0,
			"-0.019": 0.0,
			"-0.018": 0.0,
			"-0.017": 0.0,
			"-0.016": 0.0,
			"-0.015": 0.0,
			"-0.014": 0.0,
			"-0.013": 0.0,
			"-0.012": 0.0,
			"-0.011": 0.0,
			"-0.01": 0.0,
			"-0.009": 0.239762044653,
			"-0.008": 3.06133694075,
			"-0.007": 6.49599899658,
			"-0.006": 21.4909609417,
			"-0.005": 28.335164099,
			"-0.004": 26.4039296585,
			"-0.003": 21.9041867612,
			"-0.002": 22.352128791,
			"-0.001": 19.053555674,
			"0.0": 17.0087851966,
			"0.001": 16.9974019257,
			"0.002": 18.9347581723,
			"0.003": 20.7270667859,
			"0.004": 21.4408046425,
			"0.005": 7.67634385438,
			"0.006": 2.62457951857,
			"0.007": 3.57125335405,
			"0.008": 2.05258368821,
			"0.009": 2.63836128809,
			"0.01": 3.60427371416,
			"0.011": 3.76469878946,
			"0.012": 3.56376600248,
			"0.013": 6.44549311557,
			"0.014": 3.28474854609,
			"0.015": 0.160667830494,
			"0.016": 0.0,
			"0.017": 0.0,
			"0.018": 0.0,
			"0.019": 0.0,
			"0.02": 0.0,
			"0.021": 0.0,
			"0.022": 0.0,
			"0.023": 0.0,
			"0.024": 0.0,
			"0.025": 0.0
		}
	}
}
