{
	 "smiles": "N1C(SC2=NN=C(N12)C1=CC=CC=C1)C1=CC=CC=C1", 
	 "Tm": 356.15, 
	 "num_atms": 32, 
	 "gaussian": { 
		 "optdone": 1, 
		 "sigma_profile": "yes", 
		 "theory": "DFT", 
		 "functional": "B3LYP", 
		 "basiset": "6-31G**", 
		 "properties": { 
			 "R2extent": 8404.5443, 
			 "electric_dipole_moment_norm": 7.11570358222, 
			 "electric_quadrupole_moment_norm": 26.9671220163, 
			 "total_energy": -1195.94587617, 
			 "HOMO_LUMO_gap": 0.17458, 
			 "cosmo_polarized_energy": -20.78, 
			 "cosmo_cavitation_energy": 38.07, 
			 "cosmo_dispersion_energy": -27.84, 
			 "cosmo_repulsion_energy": 2.06, 
			 "cosmo_total_nonelectrostatic_energy": 12.29, 
			 "SMD_solvation_energy": 3.08 
		},
		"coords": [
			{
				"x": 0.9078277289,
				"y": 0.7673854914,
				"z": 0.3955923597,
				"element": "N" 
			},
			{
				"x": 1.7428516636,
				"y": 0.2549358404,
				"z": 1.5208522544,
				"element": "C" 
			},
			{
				"x": 1.3476622748,
				"y": 1.3945427473,
				"z": 2.9633322634,
				"element": "S" 
			},
			{
				"x": 1.105838547,
				"y": 2.6795577229,
				"z": 1.7804812536,
				"element": "C" 
			},
			{
				"x": 0.9750045437,
				"y": 3.9840787432,
				"z": 1.7949443534,
				"element": "N" 
			},
			{
				"x": 0.6871664355,
				"y": 4.351769983,
				"z": 0.4946909191,
				"element": "N" 
			},
			{
				"x": 0.6398065731,
				"y": 3.2664237094,
				"z": -0.2671974764,
				"element": "C" 
			},
			{
				"x": 0.933376794,
				"y": 2.1819902205,
				"z": 0.526104663,
				"element": "N" 
			},
			{
				"x": 0.3784541202,
				"y": 3.2388605119,
				"z": -1.7072896133,
				"element": "C" 
			},
			{
				"x": -0.1103338833,
				"y": 2.0909489631,
				"z": -2.3533957191,
				"element": "C" 
			},
			{
				"x": -0.3489485025,
				"y": 2.1068135624,
				"z": -3.7280334833,
				"element": "C" 
			},
			{
				"x": -0.1138034444,
				"y": 3.265284824,
				"z": -4.4691983243,
				"element": "C" 
			},
			{
				"x": 0.3557634836,
				"y": 4.415427362,
				"z": -3.8272897839,
				"element": "C" 
			},
			{
				"x": 0.6030640019,
				"y": 4.405814666,
				"z": -2.4579747102,
				"element": "C" 
			},
			{
				"x": 1.4603205935,
				"y": -1.1929954068,
				"z": 1.8137172011,
				"element": "C" 
			},
			{
				"x": 0.1468784468,
				"y": -1.6823927179,
				"z": 1.84297286,
				"element": "C" 
			},
			{
				"x": -0.0909760668,
				"y": -3.0252707377,
				"z": 2.1285947821,
				"element": "C" 
			},
			{
				"x": 0.9756942904,
				"y": -3.8885408078,
				"z": 2.3949558988,
				"element": "C" 
			},
			{
				"x": 2.284453715,
				"y": -3.4054859919,
				"z": 2.3702991148,
				"element": "C" 
			},
			{
				"x": 2.5253495499,
				"y": -2.0623411858,
				"z": 2.0773878729,
				"element": "C" 
			},
			{
				"x": 1.3798200119,
				"y": 0.5339770953,
				"z": -0.4790872362,
				"element": "H" 
			},
			{
				"x": 2.8111149185,
				"y": 0.3996409812,
				"z": 1.3136959814,
				"element": "H" 
			},
			{
				"x": -0.3438376199,
				"y": 1.1995275265,
				"z": -1.7788834755,
				"element": "H" 
			},
			{
				"x": -0.7309401244,
				"y": 1.2150160862,
				"z": -4.2164428215,
				"element": "H" 
			},
			{
				"x": -0.3007688273,
				"y": 3.2753070529,
				"z": -5.5389672715,
				"element": "H" 
			},
			{
				"x": 0.5343913873,
				"y": 5.3219205571,
				"z": -4.398251272,
				"element": "H" 
			},
			{
				"x": 0.9685144524,
				"y": 5.2901903202,
				"z": -1.9475405722,
				"element": "H" 
			},
			{
				"x": -0.6753106455,
				"y": -1.0065460788,
				"z": 1.6336194809,
				"element": "H" 
			},
			{
				"x": -1.1103470017,
				"y": -3.3993950139,
				"z": 2.1461201103,
				"element": "H" 
			},
			{
				"x": 0.7860222559,
				"y": -4.9341750578,
				"z": 2.619171009,
				"element": "H" 
			},
			{
				"x": 3.1172745548,
				"y": -4.0717631089,
				"z": 2.5742620077,
				"element": "H" 
			},
			{
				"x": 3.545615773,
				"y": -1.6872078597,
				"z": 2.054157374,
				"element": "H" 
			}
		],
		 "valence_orbital": [ 
			{
				"type": "occ",
				"energy": -0.26481,
				"method": "rhf"
			},
			{
				"type": "occ",
				"energy": -0.26043,
				"method": "rhf"
			},
			{
				"type": "occ",
				"energy": -0.25107,
				"method": "rhf"
			},
			{
				"type": "occ",
				"energy": -0.24613,
				"method": "rhf"
			},
			{
				"type": "occ",
				"energy": -0.21701,
				"method": "rhf"
			},
			{
				"type": "unocc",
				"energy": -0.04243,
				"method": "rhf"
			},
			{
				"type": "unocc",
				"energy": -0.03324,
				"method": "rhf"
			},
			{
				"type": "unocc",
				"energy": -0.01981,
				"method": "rhf"
			},
			{
				"type": "unocc",
				"energy": -0.01255,
				"method": "rhf"
			},
			{
				"type": "unocc",
				"energy": -0.00129,
				"method": "rhf"
			}
		],
		"cosmo_sigma_profile": { 
			"-0.025": 0.0,
			"-0.024": 0.0,
			"-0.023": 0.0,
			"-0.022": 0.0,
			"-0.021": 0.0,
			"-0.02": 0.0,
			"-0.019": 0.0,
			"-0.018": 0.0,
			"-0.017": 0.0,
			"-0.016": 0.384614077373,
			"-0.015": 1.36329618668,
			"-0.014": 1.28452695272,
			"-0.013": 1.64478742618,
			"-0.012": 1.97396734272,
			"-0.011": 1.36777783837,
			"-0.01": 2.02206082051,
			"-0.009": 1.61842019257,
			"-0.008": 3.67063545034,
			"-0.007": 7.31666596938,
			"-0.006": 19.4205709107,
			"-0.005": 20.6657625281,
			"-0.004": 24.0872513525,
			"-0.003": 19.2097299383,
			"-0.002": 20.2124822861,
			"-0.001": 20.1052155901,
			"0.0": 17.2709849675,
			"0.001": 24.6534563948,
			"0.002": 22.8203605895,
			"0.003": 24.2608404752,
			"0.004": 27.6608066277,
			"0.005": 15.8693064976,
			"0.006": 4.42127451524,
			"0.007": 2.63978353551,
			"0.008": 1.35547898046,
			"0.009": 2.68515133751,
			"0.01": 2.14421532116,
			"0.011": 2.33202126725,
			"0.012": 3.2933535776,
			"0.013": 2.66006508826,
			"0.014": 3.50265453022,
			"0.015": 2.69420061572,
			"0.016": 1.64651250007,
			"0.017": 0.168755809141,
			"0.018": 0.0,
			"0.019": 0.0,
			"0.02": 0.0,
			"0.021": 0.0,
			"0.022": 0.0,
			"0.023": 0.0,
			"0.024": 0.0,
			"0.025": 0.0
		}
	}
}
