{
	 "smiles": "ClC1=NC=NC2=C1C1=C(CCC1)S2", 
	 "Tm": 382.15, 
	 "num_atms": 20, 
	 "gaussian": { 
		 "optdone": 1, 
		 "sigma_profile": "yes", 
		 "theory": "DFT", 
		 "functional": "B3LYP", 
		 "basiset": "6-31G**", 
		 "properties": { 
			 "R2extent": 3840.5358, 
			 "electric_dipole_moment_norm": 3.5621320596, 
			 "electric_quadrupole_moment_norm": 3.82078514837, 
			 "total_energy": -1315.05829817, 
			 "HOMO_LUMO_gap": 0.17819, 
			 "cosmo_polarized_energy": -6.37, 
			 "cosmo_cavitation_energy": 26.58, 
			 "cosmo_dispersion_energy": -20.75, 
			 "cosmo_repulsion_energy": 1.58, 
			 "cosmo_total_nonelectrostatic_energy": 7.41, 
			 "SMD_solvation_energy": 0.13 
		},
		"coords": [
			{
				"x": 1.3524726014,
				"y": 2.3756631787,
				"z": 1.0119256861,
				"element": "Cl" 
			},
			{
				"x": -0.4037757118,
				"y": 2.4743289625,
				"z": 0.9846652838,
				"element": "C" 
			},
			{
				"x": -0.9383739455,
				"y": 3.6447904363,
				"z": 1.2618471098,
				"element": "N" 
			},
			{
				"x": -2.2815985867,
				"y": 3.727222676,
				"z": 1.2443698014,
				"element": "C" 
			},
			{
				"x": -3.1378532781,
				"y": 2.7419425799,
				"z": 0.9778598356,
				"element": "N" 
			},
			{
				"x": -2.5659031544,
				"y": 1.5728755893,
				"z": 0.7061597512,
				"element": "C" 
			},
			{
				"x": -1.162059144,
				"y": 1.3327702439,
				"z": 0.6794227881,
				"element": "C" 
			},
			{
				"x": -0.8622644777,
				"y": -0.0282061548,
				"z": 0.3406786174,
				"element": "C" 
			},
			{
				"x": -1.9865386332,
				"y": -0.7680343338,
				"z": 0.1318428833,
				"element": "C" 
			},
			{
				"x": -1.7085269882,
				"y": -2.2141744178,
				"z": -0.1631588478,
				"element": "C" 
			},
			{
				"x": -0.1744948305,
				"y": -2.1822823785,
				"z": -0.4432546698,
				"element": "C" 
			},
			{
				"x": 0.3788606419,
				"y": -0.8773444131,
				"z": 0.20698024,
				"element": "C" 
			},
			{
				"x": -3.4832527492,
				"y": 0.1154259578,
				"z": 0.3255027245,
				"element": "S" 
			},
			{
				"x": -2.7056606333,
				"y": 4.7010122532,
				"z": 1.473376825,
				"element": "H" 
			},
			{
				"x": -1.9553847684,
				"y": -2.8410758458,
				"z": 0.7045763094,
				"element": "H" 
			},
			{
				"x": -2.2798186534,
				"y": -2.6063968323,
				"z": -1.0111971259,
				"element": "H" 
			},
			{
				"x": 0.3301855209,
				"y": -3.0782941535,
				"z": -0.0731868626,
				"element": "H" 
			},
			{
				"x": -0.0127588709,
				"y": -2.1398920679,
				"z": -1.5247063897,
				"element": "H" 
			},
			{
				"x": 1.1576141613,
				"y": -0.4110861506,
				"z": -0.4030838245,
				"element": "H" 
			},
			{
				"x": 0.8247315001,
				"y": -1.0691451295,
				"z": 1.1915798647,
				"element": "H" 
			}
		],
		 "valence_orbital": [ 
			{
				"type": "occ",
				"energy": -0.31501,
				"method": "rhf"
			},
			{
				"type": "occ",
				"energy": -0.30449,
				"method": "rhf"
			},
			{
				"type": "occ",
				"energy": -0.27448,
				"method": "rhf"
			},
			{
				"type": "occ",
				"energy": -0.27072,
				"method": "rhf"
			},
			{
				"type": "occ",
				"energy": -0.23276,
				"method": "rhf"
			},
			{
				"type": "unocc",
				"energy": -0.05457,
				"method": "rhf"
			},
			{
				"type": "unocc",
				"energy": -0.04045,
				"method": "rhf"
			},
			{
				"type": "unocc",
				"energy": 0.00212,
				"method": "rhf"
			},
			{
				"type": "unocc",
				"energy": 0.02541,
				"method": "rhf"
			},
			{
				"type": "unocc",
				"energy": 0.0376,
				"method": "rhf"
			}
		],
		"cosmo_sigma_profile": { 
			"-0.025": 0.0,
			"-0.024": 0.0,
			"-0.023": 0.0,
			"-0.022": 0.0,
			"-0.021": 0.0,
			"-0.02": 0.0,
			"-0.019": 0.0,
			"-0.018": 0.0,
			"-0.017": 0.0,
			"-0.016": 0.0,
			"-0.015": 0.0,
			"-0.014": 0.0,
			"-0.013": 0.0,
			"-0.012": 0.0,
			"-0.011": 0.0,
			"-0.01": 0.0,
			"-0.009": 0.196385438315,
			"-0.008": 1.82091611752,
			"-0.007": 1.33195089555,
			"-0.006": 2.09449382943,
			"-0.005": 7.24785103305,
			"-0.004": 16.546695762,
			"-0.003": 24.5472979279,
			"-0.002": 31.2439705124,
			"-0.001": 27.5410444373,
			"0.0": 25.5634837898,
			"0.001": 20.8771279426,
			"0.002": 15.628138497,
			"0.003": 12.9534911021,
			"0.004": 8.69969123073,
			"0.005": 4.1106073486,
			"0.006": 2.68570361453,
			"0.007": 2.23919669858,
			"0.008": 2.53186080194,
			"0.009": 2.25718551646,
			"0.01": 1.69284898481,
			"0.011": 2.20246551843,
			"0.012": 1.47265566479,
			"0.013": 1.57347143132,
			"0.014": 0.405505167871,
			"0.015": 0.0,
			"0.016": 0.0,
			"0.017": 0.0,
			"0.018": 0.0,
			"0.019": 0.0,
			"0.02": 0.0,
			"0.021": 0.0,
			"0.022": 0.0,
			"0.023": 0.0,
			"0.024": 0.0,
			"0.025": 0.0
		}
	}
}
