{
	 "smiles": "ClC1=NOC(=N1)C1=CC=CO1", 
	 "Tm": 347.15, 
	 "num_atms": 14, 
	 "gaussian": { 
		 "optdone": 1, 
		 "sigma_profile": "yes", 
		 "theory": "DFT", 
		 "functional": "B3LYP", 
		 "basiset": "6-31G**", 
		 "properties": { 
			 "R2extent": 2519.2651, 
			 "electric_dipole_moment_norm": 4.2935470674, 
			 "electric_quadrupole_moment_norm": 12.3141582822, 
			 "total_energy": -950.506119408, 
			 "HOMO_LUMO_gap": 0.17692, 
			 "cosmo_polarized_energy": -8.25, 
			 "cosmo_cavitation_energy": 22.04, 
			 "cosmo_dispersion_energy": -16.73, 
			 "cosmo_repulsion_energy": 1.34, 
			 "cosmo_total_nonelectrostatic_energy": 6.65, 
			 "SMD_solvation_energy": 2.52 
		},
		"coords": [
			{
				"x": -2.7854030111,
				"y": 1.9715519404,
				"z": -0.6479392582,
				"element": "Cl" 
			},
			{
				"x": -1.277798204,
				"y": 1.578611328,
				"z": 0.0728701616,
				"element": "C" 
			},
			{
				"x": -0.8329502442,
				"y": 2.2486164879,
				"z": 1.1084039999,
				"element": "N" 
			},
			{
				"x": 0.3959415543,
				"y": 1.6075739709,
				"z": 1.3613841368,
				"element": "O" 
			},
			{
				"x": 0.5207752006,
				"y": 0.632174987,
				"z": 0.4364975574,
				"element": "C" 
			},
			{
				"x": -0.4907834434,
				"y": 0.566347416,
				"z": -0.3920697409,
				"element": "N" 
			},
			{
				"x": 1.7069354714,
				"y": -0.1788658014,
				"z": 0.4808414994,
				"element": "C" 
			},
			{
				"x": 2.7985519977,
				"y": -0.1676167013,
				"z": 1.3128287262,
				"element": "C" 
			},
			{
				"x": 3.6503992494,
				"y": -1.2152939959,
				"z": 0.8589707883,
				"element": "C" 
			},
			{
				"x": 3.0156943814,
				"y": -1.7824442149,
				"z": -0.2100589774,
				"element": "C" 
			},
			{
				"x": 1.8337451477,
				"y": -1.1656844765,
				"z": -0.4542320667,
				"element": "O" 
			},
			{
				"x": 2.9606272469,
				"y": 0.5078507466,
				"z": 2.1398848284,
				"element": "H" 
			},
			{
				"x": 4.6049651051,
				"y": -1.5076968151,
				"z": 1.2708875739,
				"element": "H" 
			},
			{
				"x": 3.2638995482,
				"y": -2.5964248716,
				"z": -0.8734692288,
				"element": "H" 
			}
		],
		 "valence_orbital": [ 
			{
				"type": "occ",
				"energy": -0.33507,
				"method": "rhf"
			},
			{
				"type": "occ",
				"energy": -0.3152,
				"method": "rhf"
			},
			{
				"type": "occ",
				"energy": -0.3105,
				"method": "rhf"
			},
			{
				"type": "occ",
				"energy": -0.29956,
				"method": "rhf"
			},
			{
				"type": "occ",
				"energy": -0.24738,
				"method": "rhf"
			},
			{
				"type": "unocc",
				"energy": -0.07046,
				"method": "rhf"
			},
			{
				"type": "unocc",
				"energy": 0.00254,
				"method": "rhf"
			},
			{
				"type": "unocc",
				"energy": 0.01684,
				"method": "rhf"
			},
			{
				"type": "unocc",
				"energy": 0.03101,
				"method": "rhf"
			},
			{
				"type": "unocc",
				"energy": 0.08976,
				"method": "rhf"
			}
		],
		"cosmo_sigma_profile": { 
			"-0.025": 0.0,
			"-0.024": 0.0,
			"-0.023": 0.0,
			"-0.022": 0.0,
			"-0.021": 0.0,
			"-0.02": 0.0,
			"-0.019": 0.0,
			"-0.018": 0.0,
			"-0.017": 0.0,
			"-0.016": 0.0,
			"-0.015": 0.0,
			"-0.014": 0.0,
			"-0.013": 0.0,
			"-0.012": 0.0,
			"-0.011": 0.417947490412,
			"-0.01": 2.21486414224,
			"-0.009": 3.48280646815,
			"-0.008": 5.36468853091,
			"-0.007": 4.627647925,
			"-0.006": 6.57117180409,
			"-0.005": 8.77748050883,
			"-0.004": 10.4319373382,
			"-0.003": 13.0542412048,
			"-0.002": 12.2193676858,
			"-0.001": 15.0097126507,
			"0.0": 15.9956002783,
			"0.001": 17.1632498584,
			"0.002": 22.1581084193,
			"0.003": 9.69011749135,
			"0.004": 5.54188615871,
			"0.005": 7.43078945512,
			"0.006": 4.06676712245,
			"0.007": 4.21489528113,
			"0.008": 3.91279862358,
			"0.009": 2.22516995678,
			"0.01": 3.04331144525,
			"0.011": 2.48126646192,
			"0.012": 1.23025308728,
			"0.013": 0.500595032294,
			"0.014": 0.0,
			"0.015": 0.0,
			"0.016": 0.0,
			"0.017": 0.0,
			"0.018": 0.0,
			"0.019": 0.0,
			"0.02": 0.0,
			"0.021": 0.0,
			"0.022": 0.0,
			"0.023": 0.0,
			"0.024": 0.0,
			"0.025": 0.0
		}
	}
}
