{
	 "smiles": "CC1=CC=C(C=C1)N1C(SCC(=O)NN)=NN=C1C1=CC=CC=C1", 
	 "Tm": 364.15, 
	 "num_atms": 41, 
	 "gaussian": { 
		 "optdone": 1, 
		 "sigma_profile": "yes", 
		 "theory": "DFT", 
		 "functional": "B3LYP", 
		 "basiset": "6-31G**", 
		 "properties": { 
			 "R2extent": 9185.5146, 
			 "electric_dipole_moment_norm": 8.67234496835, 
			 "electric_quadrupole_moment_norm": 28.4850442771, 
			 "total_energy": -1405.18437463, 
			 "HOMO_LUMO_gap": 0.18547, 
			 "cosmo_polarized_energy": -26.57, 
			 "cosmo_cavitation_energy": 46.94, 
			 "cosmo_dispersion_energy": -30.94, 
			 "cosmo_repulsion_energy": 2.37, 
			 "cosmo_total_nonelectrostatic_energy": 18.36, 
			 "SMD_solvation_energy": 6.72 
		},
		"coords": [
			{
				"x": -4.1464204754,
				"y": -3.331827342,
				"z": -0.0924046882,
				"element": "C" 
			},
			{
				"x": -3.1852148145,
				"y": -2.2416340419,
				"z": 0.318901148,
				"element": "C" 
			},
			{
				"x": -2.1140020708,
				"y": -1.8747510941,
				"z": -0.5076951177,
				"element": "C" 
			},
			{
				"x": -1.2007407676,
				"y": -0.8939891402,
				"z": -0.1221315873,
				"element": "C" 
			},
			{
				"x": -1.3531747462,
				"y": -0.2677538019,
				"z": 1.1163499201,
				"element": "C" 
			},
			{
				"x": -2.4208252676,
				"y": -0.6047601154,
				"z": 1.9512992081,
				"element": "C" 
			},
			{
				"x": -3.3280791917,
				"y": -1.5833941282,
				"z": 1.5487576222,
				"element": "C" 
			},
			{
				"x": -0.4121997052,
				"y": 0.7335785297,
				"z": 1.5277053183,
				"element": "N" 
			},
			{
				"x": -0.5747567321,
				"y": 2.1070292115,
				"z": 1.4262707695,
				"element": "C" 
			},
			{
				"x": -2.0420776975,
				"y": 2.9089048346,
				"z": 0.8674391613,
				"element": "S" 
			},
			{
				"x": -1.4757090815,
				"y": 3.474542431,
				"z": -0.804115836,
				"element": "C" 
			},
			{
				"x": -1.4896691999,
				"y": 2.3293365575,
				"z": -1.7982685915,
				"element": "C" 
			},
			{
				"x": -0.5002299362,
				"y": 1.6498417817,
				"z": -2.0416956092,
				"element": "O" 
			},
			{
				"x": -2.6876856544,
				"y": 2.0665658791,
				"z": -2.4191000748,
				"element": "N" 
			},
			{
				"x": -3.8815495934,
				"y": 2.6841682425,
				"z": -2.0275996541,
				"element": "N" 
			},
			{
				"x": 0.5258918918,
				"y": 2.7235122353,
				"z": 1.7970103298,
				"element": "N" 
			},
			{
				"x": 1.4417590911,
				"y": 1.7696741335,
				"z": 2.1340475878,
				"element": "N" 
			},
			{
				"x": 0.8856663032,
				"y": 0.5781775396,
				"z": 1.9762668058,
				"element": "C" 
			},
			{
				"x": 1.6003094667,
				"y": -0.6786268634,
				"z": 2.2497393218,
				"element": "C" 
			},
			{
				"x": 3.0059337716,
				"y": -0.6454548096,
				"z": 2.1974317534,
				"element": "C" 
			},
			{
				"x": 3.7502032284,
				"y": -1.7884518864,
				"z": 2.4729291434,
				"element": "C" 
			},
			{
				"x": 3.1082031664,
				"y": -2.984599945,
				"z": 2.8042526577,
				"element": "C" 
			},
			{
				"x": 1.7150116809,
				"y": -3.0239207659,
				"z": 2.865624293,
				"element": "C" 
			},
			{
				"x": 0.9623566596,
				"y": -1.8813626577,
				"z": 2.5934966256,
				"element": "C" 
			},
			{
				"x": -4.2269839483,
				"y": -3.4060085316,
				"z": -1.1809215943,
				"element": "H" 
			},
			{
				"x": -5.1479156919,
				"y": -3.1582081589,
				"z": 0.3126091765,
				"element": "H" 
			},
			{
				"x": -3.8127703747,
				"y": -4.3101129864,
				"z": 0.2753820074,
				"element": "H" 
			},
			{
				"x": -1.9912578147,
				"y": -2.3623756361,
				"z": -1.4714884021,
				"element": "H" 
			},
			{
				"x": -0.396194025,
				"y": -0.5870166772,
				"z": -0.7810451273,
				"element": "H" 
			},
			{
				"x": -2.5335658832,
				"y": -0.1028333869,
				"z": 2.9072064761,
				"element": "H" 
			},
			{
				"x": -4.1579262306,
				"y": -1.840880838,
				"z": 2.201734244,
				"element": "H" 
			},
			{
				"x": -0.4580335208,
				"y": 3.8499096347,
				"z": -0.7045644839,
				"element": "H" 
			},
			{
				"x": -2.1658718356,
				"y": 4.2713323558,
				"z": -1.0801953621,
				"element": "H" 
			},
			{
				"x": -2.7000631626,
				"y": 1.2057543762,
				"z": -2.9587462651,
				"element": "H" 
			},
			{
				"x": -4.4616353565,
				"y": 2.0439154708,
				"z": -1.4898325453,
				"element": "H" 
			},
			{
				"x": -4.3930484802,
				"y": 2.996553752,
				"z": -2.8475705194,
				"element": "H" 
			},
			{
				"x": 3.4931382366,
				"y": 0.2890085769,
				"z": 1.9426880143,
				"element": "H" 
			},
			{
				"x": 4.8345289338,
				"y": -1.7466279249,
				"z": 2.425237302,
				"element": "H" 
			},
			{
				"x": 3.6897694031,
				"y": -3.8773492849,
				"z": 3.0155875768,
				"element": "H" 
			},
			{
				"x": 1.2071307019,
				"y": -3.9461736953,
				"z": 3.1330351298,
				"element": "H" 
			},
			{
				"x": -0.1174012771,
				"y": -1.9285918305,
				"z": 2.663673866,
				"element": "H" 
			}
		],
		 "valence_orbital": [ 
			{
				"type": "occ",
				"energy": -0.26005,
				"method": "rhf"
			},
			{
				"type": "occ",
				"energy": -0.24859,
				"method": "rhf"
			},
			{
				"type": "occ",
				"energy": -0.24105,
				"method": "rhf"
			},
			{
				"type": "occ",
				"energy": -0.23645,
				"method": "rhf"
			},
			{
				"type": "occ",
				"energy": -0.21816,
				"method": "rhf"
			},
			{
				"type": "unocc",
				"energy": -0.03269,
				"method": "rhf"
			},
			{
				"type": "unocc",
				"energy": -0.02351,
				"method": "rhf"
			},
			{
				"type": "unocc",
				"energy": -0.02095,
				"method": "rhf"
			},
			{
				"type": "unocc",
				"energy": -0.00749,
				"method": "rhf"
			},
			{
				"type": "unocc",
				"energy": 0.00205,
				"method": "rhf"
			}
		],
		"cosmo_sigma_profile": { 
			"-0.025": 0.0,
			"-0.024": 0.0,
			"-0.023": 0.0,
			"-0.022": 0.0,
			"-0.021": 0.0,
			"-0.02": 0.0,
			"-0.019": 0.0,
			"-0.018": 0.0,
			"-0.017": 0.0,
			"-0.016": 0.0,
			"-0.015": 0.0,
			"-0.014": 0.225939032809,
			"-0.013": 1.61735533417,
			"-0.012": 3.70615287014,
			"-0.011": 4.52627357396,
			"-0.01": 4.22953141695,
			"-0.009": 4.72598237662,
			"-0.008": 3.70657552803,
			"-0.007": 6.6295014335,
			"-0.006": 18.9049941535,
			"-0.005": 26.3195776489,
			"-0.004": 33.2886392875,
			"-0.003": 25.938416524,
			"-0.002": 24.6040551257,
			"-0.001": 26.8250280032,
			"0.0": 26.5589301094,
			"0.001": 23.2013226601,
			"0.002": 26.5534292406,
			"0.003": 27.205098779,
			"0.004": 24.2664393223,
			"0.005": 15.5078464006,
			"0.006": 6.74320956439,
			"0.007": 4.88113332923,
			"0.008": 4.94856417839,
			"0.009": 4.18515942623,
			"0.01": 3.61351065165,
			"0.011": 4.84886089623,
			"0.012": 3.81134634738,
			"0.013": 6.00323285349,
			"0.014": 5.08257428105,
			"0.015": 2.07516246167,
			"0.016": 0.969290370224,
			"0.017": 0.0119970640078,
			"0.018": 0.0,
			"0.019": 0.0,
			"0.02": 0.0,
			"0.021": 0.0,
			"0.022": 0.0,
			"0.023": 0.0,
			"0.024": 0.0,
			"0.025": 0.0
		}
	}
}
