{
	 "smiles": "COC1=C(C2=NOC(CBr)=C2)C2=C(C=CC=C2)C=C1", 
	 "Tm": 359.15, 
	 "num_atms": 31, 
	 "gaussian": { 
		 "optdone": 1, 
		 "sigma_profile": "yes", 
		 "theory": "DFT", 
		 "functional": "B3LYP", 
		 "basiset": "6-31G**", 
		 "properties": { 
			 "R2extent": 9825.6192, 
			 "electric_dipole_moment_norm": 2.7261311964, 
			 "electric_quadrupole_moment_norm": 10.0366401784, 
			 "total_energy": -3355.37644218, 
			 "HOMO_LUMO_gap": 0.16041, 
			 "cosmo_polarized_energy": -11.92, 
			 "cosmo_cavitation_energy": 37.66, 
			 "cosmo_dispersion_energy": -26.86, 
			 "cosmo_repulsion_energy": 2.07, 
			 "cosmo_total_nonelectrostatic_energy": 12.86, 
			 "SMD_solvation_energy": 5.6 
		},
		"coords": [
			{
				"x": 3.4151176954,
				"y": -1.4247577113,
				"z": -1.7222737013,
				"element": "C" 
			},
			{
				"x": 2.9665245491,
				"y": -0.0769432598,
				"z": -1.8886162299,
				"element": "O" 
			},
			{
				"x": 1.605339566,
				"y": 0.0588206593,
				"z": -2.0715816444,
				"element": "C" 
			},
			{
				"x": 0.7867985917,
				"y": 0.4345602662,
				"z": -1.0112182103,
				"element": "C" 
			},
			{
				"x": 1.4034513486,
				"y": 0.6553712464,
				"z": 0.3163895165,
				"element": "C" 
			},
			{
				"x": 0.8078394894,
				"y": 0.2649863496,
				"z": 1.4325217951,
				"element": "N" 
			},
			{
				"x": 1.6506816821,
				"y": 0.638898094,
				"z": 2.4728715516,
				"element": "O" 
			},
			{
				"x": 2.7461432108,
				"y": 1.2465294974,
				"z": 1.961631729,
				"element": "C" 
			},
			{
				"x": 3.7589163931,
				"y": 1.7253436393,
				"z": 2.9210344972,
				"element": "C" 
			},
			{
				"x": 5.0247449598,
				"y": 0.2792599304,
				"z": 3.4788811574,
				"element": "Br" 
			},
			{
				"x": 2.6544546426,
				"y": 1.2878113172,
				"z": 0.6044553557,
				"element": "C" 
			},
			{
				"x": -0.6230923528,
				"y": 0.6168848251,
				"z": -1.2523558213,
				"element": "C" 
			},
			{
				"x": -1.1362874957,
				"y": 0.3902640723,
				"z": -2.5746909328,
				"element": "C" 
			},
			{
				"x": -2.5215618891,
				"y": 0.5717313128,
				"z": -2.8315335462,
				"element": "C" 
			},
			{
				"x": -3.3810334257,
				"y": 0.9685131725,
				"z": -1.8340887582,
				"element": "C" 
			},
			{
				"x": -2.8793275047,
				"y": 1.2027288519,
				"z": -0.5334617074,
				"element": "C" 
			},
			{
				"x": -1.5419264371,
				"y": 1.0325320316,
				"z": -0.2482315316,
				"element": "C" 
			},
			{
				"x": -0.2515709935,
				"y": -0.0025454172,
				"z": -3.6130737774,
				"element": "C" 
			},
			{
				"x": 1.0885514902,
				"y": -0.1635389225,
				"z": -3.3691476796,
				"element": "C" 
			},
			{
				"x": 3.1488020758,
				"y": -2.0435968078,
				"z": -2.5883661583,
				"element": "H" 
			},
			{
				"x": 2.9890236963,
				"y": -1.8736131588,
				"z": -0.8168520279,
				"element": "H" 
			},
			{
				"x": 4.5018367198,
				"y": -1.3812130481,
				"z": -1.6296800714,
				"element": "H" 
			},
			{
				"x": 3.3066220487,
				"y": 2.0705976311,
				"z": 3.8486542981,
				"element": "H" 
			},
			{
				"x": 4.3852997546,
				"y": 2.4998708558,
				"z": 2.485404262,
				"element": "H" 
			},
			{
				"x": 3.361255126,
				"y": 1.6900523137,
				"z": -0.1016712455,
				"element": "H" 
			},
			{
				"x": -2.8881965648,
				"y": 0.3921186035,
				"z": -3.8389610338,
				"element": "H" 
			},
			{
				"x": -4.4383659536,
				"y": 1.1043471868,
				"z": -2.0415822202,
				"element": "H" 
			},
			{
				"x": -3.5566465804,
				"y": 1.5200059202,
				"z": 0.2542493123,
				"element": "H" 
			},
			{
				"x": -1.1818640437,
				"y": 1.1957893159,
				"z": 0.7587699648,
				"element": "H" 
			},
			{
				"x": -0.6524524566,
				"y": -0.1660871638,
				"z": -4.6099039524,
				"element": "H" 
			},
			{
				"x": 1.7797226576,
				"y": -0.4448216036,
				"z": -4.1572731898,
				"element": "H" 
			}
		],
		 "valence_orbital": [ 
			{
				"type": "occ",
				"energy": -0.27936,
				"method": "rhf"
			},
			{
				"type": "occ",
				"energy": -0.27376,
				"method": "rhf"
			},
			{
				"type": "occ",
				"energy": -0.25975,
				"method": "rhf"
			},
			{
				"type": "occ",
				"energy": -0.24255,
				"method": "rhf"
			},
			{
				"type": "occ",
				"energy": -0.21536,
				"method": "rhf"
			},
			{
				"type": "unocc",
				"energy": -0.05495,
				"method": "rhf"
			},
			{
				"type": "unocc",
				"energy": -0.04396,
				"method": "rhf"
			},
			{
				"type": "unocc",
				"energy": -0.01238,
				"method": "rhf"
			},
			{
				"type": "unocc",
				"energy": 0.00416,
				"method": "rhf"
			},
			{
				"type": "unocc",
				"energy": 0.03882,
				"method": "rhf"
			}
		],
		"cosmo_sigma_profile": { 
			"-0.025": 0.0,
			"-0.024": 0.0,
			"-0.023": 0.0,
			"-0.022": 0.0,
			"-0.021": 0.0,
			"-0.02": 0.0,
			"-0.019": 0.0,
			"-0.018": 0.0,
			"-0.017": 0.0,
			"-0.016": 0.0,
			"-0.015": 0.0,
			"-0.014": 0.0,
			"-0.013": 0.0,
			"-0.012": 0.0,
			"-0.011": 0.0,
			"-0.01": 0.690572768822,
			"-0.009": 4.75176026824,
			"-0.008": 5.37206761299,
			"-0.007": 8.22792207097,
			"-0.006": 15.7507776752,
			"-0.005": 21.6090702755,
			"-0.004": 21.6941699481,
			"-0.003": 24.0395470802,
			"-0.002": 20.3846599699,
			"-0.001": 18.430516764,
			"0.0": 20.0292976436,
			"0.001": 19.1113919283,
			"0.002": 24.1670276047,
			"0.003": 27.9562799669,
			"0.004": 22.6953199471,
			"0.005": 23.7295964647,
			"0.006": 9.69198454238,
			"0.007": 5.38359878891,
			"0.008": 4.13591869008,
			"0.009": 2.00994377847,
			"0.01": 2.36505484709,
			"0.011": 1.35782474025,
			"0.012": 0.898953373952,
			"0.013": 0.854958026796,
			"0.014": 0.0,
			"0.015": 0.0,
			"0.016": 0.0,
			"0.017": 0.0,
			"0.018": 0.0,
			"0.019": 0.0,
			"0.02": 0.0,
			"0.021": 0.0,
			"0.022": 0.0,
			"0.023": 0.0,
			"0.024": 0.0,
			"0.025": 0.0
		}
	}
}
