{
	 "smiles": "CCC(C)(C)C(=O)OC1=C(C(=O)OC11CCCCC1)C1=CC(Cl)=CC(Cl)=C1", 
	 "Tm": 367.95, 
	 "num_atms": 51, 
	 "gaussian": { 
		 "optdone": 1, 
		 "sigma_profile": "yes", 
		 "theory": "DFT", 
		 "functional": "B3LYP", 
		 "basiset": "6-31G**", 
		 "properties": { 
			 "R2extent": 12266.8348, 
			 "electric_dipole_moment_norm": 6.75831034727, 
			 "electric_quadrupole_moment_norm": 10.779061172, 
			 "total_energy": -2036.02164727, 
			 "HOMO_LUMO_gap": 0.18587, 
			 "cosmo_polarized_energy": -14.18, 
			 "cosmo_cavitation_energy": 54.7, 
			 "cosmo_dispersion_energy": -34.71, 
			 "cosmo_repulsion_energy": 2.61, 
			 "cosmo_total_nonelectrostatic_energy": 22.6, 
			 "SMD_solvation_energy": 8.91 
		},
		"coords": [
			{
				"x": -0.297563366,
				"y": -3.3959194952,
				"z": 2.6733074132,
				"element": "C" 
			},
			{
				"x": 1.0752905718,
				"y": -3.1323701568,
				"z": 2.0459937816,
				"element": "C" 
			},
			{
				"x": 1.4363498044,
				"y": -1.6473732642,
				"z": 1.7782553743,
				"element": "C" 
			},
			{
				"x": 1.4173484151,
				"y": -0.8136054812,
				"z": 3.073133205,
				"element": "C" 
			},
			{
				"x": 2.8575516252,
				"y": -1.5953120793,
				"z": 1.1603284502,
				"element": "C" 
			},
			{
				"x": 0.4786884804,
				"y": -1.101003222,
				"z": 0.7164080746,
				"element": "C" 
			},
			{
				"x": -0.0850494083,
				"y": -1.741763997,
				"z": -0.130514697,
				"element": "O" 
			},
			{
				"x": 0.3339643109,
				"y": 0.2896698348,
				"z": 0.8005366333,
				"element": "O" 
			},
			{
				"x": -0.4276487777,
				"y": 0.9243075487,
				"z": -0.1530669652,
				"element": "C" 
			},
			{
				"x": -0.1186864102,
				"y": 1.1456054401,
				"z": -1.4439491808,
				"element": "C" 
			},
			{
				"x": -1.2888830502,
				"y": 1.8502251324,
				"z": -2.0381428439,
				"element": "C" 
			},
			{
				"x": -1.4673407069,
				"y": 2.2013486739,
				"z": -3.1793179559,
				"element": "O" 
			},
			{
				"x": -2.2145173068,
				"y": 2.0617400202,
				"z": -1.0556989256,
				"element": "O" 
			},
			{
				"x": -1.775196485,
				"y": 1.5144274555,
				"z": 0.2124739567,
				"element": "C" 
			},
			{
				"x": -2.8326528479,
				"y": 0.4779174535,
				"z": 0.6542461406,
				"element": "C" 
			},
			{
				"x": -2.7193186669,
				"y": 0.0628664631,
				"z": 2.1303506027,
				"element": "C" 
			},
			{
				"x": -2.6787167852,
				"y": 1.2781346719,
				"z": 3.0676614592,
				"element": "C" 
			},
			{
				"x": -1.5537278534,
				"y": 2.2451776708,
				"z": 2.672811755,
				"element": "C" 
			},
			{
				"x": -1.6956304318,
				"y": 2.6916306314,
				"z": 1.2104747851,
				"element": "C" 
			},
			{
				"x": 1.0906338643,
				"y": 0.8155931841,
				"z": -2.2117126413,
				"element": "C" 
			},
			{
				"x": 0.9938751083,
				"y": 0.4882178952,
				"z": -3.5739452901,
				"element": "C" 
			},
			{
				"x": 2.1521284785,
				"y": 0.1854147293,
				"z": -4.2839509358,
				"element": "C" 
			},
			{
				"x": 2.0306942632,
				"y": -0.2365586065,
				"z": -5.9826461805,
				"element": "Cl" 
			},
			{
				"x": 3.413424685,
				"y": 0.2087553348,
				"z": -3.6889789376,
				"element": "C" 
			},
			{
				"x": 3.4881027009,
				"y": 0.5550943514,
				"z": -2.3410621163,
				"element": "C" 
			},
			{
				"x": 5.064433314,
				"y": 0.6183285174,
				"z": -1.5656731403,
				"element": "Cl" 
			},
			{
				"x": 2.3527513891,
				"y": 0.8597542582,
				"z": -1.5972302391,
				"element": "C" 
			},
			{
				"x": -0.4489600243,
				"y": -4.4718190616,
				"z": 2.8052289748,
				"element": "H" 
			},
			{
				"x": -1.1056888176,
				"y": -3.0300724978,
				"z": 2.0330403828,
				"element": "H" 
			},
			{
				"x": -0.4000405703,
				"y": -2.9305718744,
				"z": 3.6588170557,
				"element": "H" 
			},
			{
				"x": 1.8584525589,
				"y": -3.5372119164,
				"z": 2.698914629,
				"element": "H" 
			},
			{
				"x": 1.1440775802,
				"y": -3.6743015858,
				"z": 1.0976402468,
				"element": "H" 
			},
			{
				"x": 0.4200395029,
				"y": -0.7576412714,
				"z": 3.5171529739,
				"element": "H" 
			},
			{
				"x": 1.7636931676,
				"y": 0.2067370003,
				"z": 2.8945185828,
				"element": "H" 
			},
			{
				"x": 2.0856896538,
				"y": -1.2750963118,
				"z": 3.8073821791,
				"element": "H" 
			},
			{
				"x": 3.1787742317,
				"y": -0.5691817794,
				"z": 0.9646766086,
				"element": "H" 
			},
			{
				"x": 2.9039116072,
				"y": -2.1561566708,
				"z": 0.2225878772,
				"element": "H" 
			},
			{
				"x": 3.570039657,
				"y": -2.0411786567,
				"z": 1.8615887517,
				"element": "H" 
			},
			{
				"x": -2.781065241,
				"y": -0.392818105,
				"z": -0.0067607958,
				"element": "H" 
			},
			{
				"x": -3.8057998032,
				"y": 0.9540384569,
				"z": 0.485823046,
				"element": "H" 
			},
			{
				"x": -1.8198645004,
				"y": -0.543472301,
				"z": 2.2848105103,
				"element": "H" 
			},
			{
				"x": -3.5683561002,
				"y": -0.5838232249,
				"z": 2.379387987,
				"element": "H" 
			},
			{
				"x": -2.551027452,
				"y": 0.9496577536,
				"z": 4.1055425891,
				"element": "H" 
			},
			{
				"x": -3.6419766922,
				"y": 1.8052570083,
				"z": 3.0221501019,
				"element": "H" 
			},
			{
				"x": -0.5814522915,
				"y": 1.7618041581,
				"z": 2.8243194451,
				"element": "H" 
			},
			{
				"x": -1.5667967059,
				"y": 3.1309825053,
				"z": 3.3179946828,
				"element": "H" 
			},
			{
				"x": -0.8803933566,
				"y": 3.36030463,
				"z": 0.9139342343,
				"element": "H" 
			},
			{
				"x": -2.6287831678,
				"y": 3.2547992706,
				"z": 1.0890457587,
				"element": "H" 
			},
			{
				"x": 0.0312547186,
				"y": 0.4884801782,
				"z": -4.067171296,
				"element": "H" 
			},
			{
				"x": 4.3047274166,
				"y": -0.0257613424,
				"z": -4.2571777983,
				"element": "H" 
			},
			{
				"x": 2.4467397136,
				"y": 1.1517426741,
				"z": -0.5591383094,
				"element": "H" 
			}
		],
		 "valence_orbital": [ 
			{
				"type": "occ",
				"energy": -0.29546,
				"method": "rhf"
			},
			{
				"type": "occ",
				"energy": -0.28663,
				"method": "rhf"
			},
			{
				"type": "occ",
				"energy": -0.27469,
				"method": "rhf"
			},
			{
				"type": "occ",
				"energy": -0.25319,
				"method": "rhf"
			},
			{
				"type": "occ",
				"energy": -0.24983,
				"method": "rhf"
			},
			{
				"type": "unocc",
				"energy": -0.06396,
				"method": "rhf"
			},
			{
				"type": "unocc",
				"energy": -0.02625,
				"method": "rhf"
			},
			{
				"type": "unocc",
				"energy": -0.01998,
				"method": "rhf"
			},
			{
				"type": "unocc",
				"energy": -0.01468,
				"method": "rhf"
			},
			{
				"type": "unocc",
				"energy": 0.00459,
				"method": "rhf"
			}
		],
		"cosmo_sigma_profile": { 
			"-0.025": 0.0,
			"-0.024": 0.0,
			"-0.023": 0.0,
			"-0.022": 0.0,
			"-0.021": 0.0,
			"-0.02": 0.0,
			"-0.019": 0.0,
			"-0.018": 0.0,
			"-0.017": 0.0,
			"-0.016": 0.0,
			"-0.015": 0.0,
			"-0.014": 0.0,
			"-0.013": 0.0,
			"-0.012": 0.0,
			"-0.011": 0.0,
			"-0.01": 0.0,
			"-0.009": 0.478501861011,
			"-0.008": 1.77946795055,
			"-0.007": 2.42303579106,
			"-0.006": 6.37472538759,
			"-0.005": 11.7748529653,
			"-0.004": 32.2264563126,
			"-0.003": 48.3242220513,
			"-0.002": 56.198836222,
			"-0.001": 64.2217883401,
			"0.0": 58.5513751896,
			"0.001": 45.8772423139,
			"0.002": 23.5279692615,
			"0.003": 19.1399190112,
			"0.004": 21.7316938432,
			"0.005": 7.38934063817,
			"0.006": 3.45424173099,
			"0.007": 4.59615994236,
			"0.008": 4.65548585839,
			"0.009": 5.74932730934,
			"0.01": 6.43667998603,
			"0.011": 5.32036962379,
			"0.012": 3.19659685565,
			"0.013": 0.70620868542,
			"0.014": 0.0,
			"0.015": 0.0,
			"0.016": 0.0,
			"0.017": 0.0,
			"0.018": 0.0,
			"0.019": 0.0,
			"0.02": 0.0,
			"0.021": 0.0,
			"0.022": 0.0,
			"0.023": 0.0,
			"0.024": 0.0,
			"0.025": 0.0
		}
	}
}
