{
	 "smiles": "OC(=O)C=CC1=C(Cl)C(Cl)=CC=C1", 
	 "Tm": 507.15, 
	 "num_atms": 19, 
	 "gaussian": { 
		 "optdone": 1, 
		 "sigma_profile": "yes", 
		 "theory": "DFT", 
		 "functional": "B3LYP", 
		 "basiset": "6-31G**", 
		 "properties": { 
			 "R2extent": 4242.3995, 
			 "electric_dipole_moment_norm": 2.03225690551, 
			 "electric_quadrupole_moment_norm": 6.03721747413, 
			 "total_energy": -1417.39609581, 
			 "HOMO_LUMO_gap": 0.17177, 
			 "cosmo_polarized_energy": -9.19, 
			 "cosmo_cavitation_energy": 27.45, 
			 "cosmo_dispersion_energy": -20.4, 
			 "cosmo_repulsion_energy": 1.62, 
			 "cosmo_total_nonelectrostatic_energy": 8.66, 
			 "SMD_solvation_energy": 5.43 
		},
		"coords": [
			{
				"x": 1.1947888044,
				"y": -4.4836702488,
				"z": 1.1406523642,
				"element": "O" 
			},
			{
				"x": 0.446171436,
				"y": -3.3805235115,
				"z": 0.8757658857,
				"element": "C" 
			},
			{
				"x": 0.0474556717,
				"y": -2.653340437,
				"z": 1.7669979277,
				"element": "O" 
			},
			{
				"x": 0.2415060939,
				"y": -3.2526172528,
				"z": -0.5817533636,
				"element": "C" 
			},
			{
				"x": -0.2819171983,
				"y": -2.226793287,
				"z": -1.2861464526,
				"element": "C" 
			},
			{
				"x": -0.9047976446,
				"y": -0.9572424679,
				"z": -0.8799563383,
				"element": "C" 
			},
			{
				"x": -0.7871978276,
				"y": 0.1750180837,
				"z": -1.723190872,
				"element": "C" 
			},
			{
				"x": 0.2009266904,
				"y": 0.0931827681,
				"z": -3.1662350875,
				"element": "Cl" 
			},
			{
				"x": -1.4359278066,
				"y": 1.373725956,
				"z": -1.400687282,
				"element": "C" 
			},
			{
				"x": -1.2956650201,
				"y": 2.7903782686,
				"z": -2.4157743487,
				"element": "Cl" 
			},
			{
				"x": -2.2180183521,
				"y": 1.4607480213,
				"z": -0.2481197196,
				"element": "C" 
			},
			{
				"x": -2.348273523,
				"y": 0.3508727403,
				"z": 0.581747924,
				"element": "C" 
			},
			{
				"x": -1.7004259494,
				"y": -0.840020368,
				"z": 0.272660722,
				"element": "C" 
			},
			{
				"x": 1.3007235057,
				"y": -4.5068074442,
				"z": 2.1061229713,
				"element": "H" 
			},
			{
				"x": 0.6369794672,
				"y": -4.0896055044,
				"z": -1.1485640022,
				"element": "H" 
			},
			{
				"x": -0.2263687817,
				"y": -2.3528590946,
				"z": -2.3645576868,
				"element": "H" 
			},
			{
				"x": -2.7133300321,
				"y": 2.3969722487,
				"z": -0.0164281154,
				"element": "H" 
			},
			{
				"x": -2.958883283,
				"y": 0.417140893,
				"z": 1.4764103939,
				"element": "H" 
			},
			{
				"x": -1.7929462508,
				"y": -1.6945593633,
				"z": 0.9269550798,
				"element": "H" 
			}
		],
		 "valence_orbital": [ 
			{
				"type": "occ",
				"energy": -0.31237,
				"method": "rhf"
			},
			{
				"type": "occ",
				"energy": -0.30422,
				"method": "rhf"
			},
			{
				"type": "occ",
				"energy": -0.28159,
				"method": "rhf"
			},
			{
				"type": "occ",
				"energy": -0.25386,
				"method": "rhf"
			},
			{
				"type": "occ",
				"energy": -0.24968,
				"method": "rhf"
			},
			{
				"type": "unocc",
				"energy": -0.07791,
				"method": "rhf"
			},
			{
				"type": "unocc",
				"energy": -0.02381,
				"method": "rhf"
			},
			{
				"type": "unocc",
				"energy": -0.00512,
				"method": "rhf"
			},
			{
				"type": "unocc",
				"energy": -0.00116,
				"method": "rhf"
			},
			{
				"type": "unocc",
				"energy": 0.05838,
				"method": "rhf"
			}
		],
		"cosmo_sigma_profile": { 
			"-0.025": 0.0,
			"-0.024": 0.0,
			"-0.023": 0.0,
			"-0.022": 0.0,
			"-0.021": 0.0,
			"-0.02": 0.0,
			"-0.019": 0.0,
			"-0.018": 0.675535816648,
			"-0.017": 0.921284277397,
			"-0.016": 0.758368635527,
			"-0.015": 0.497651449303,
			"-0.014": 1.32561684311,
			"-0.013": 0.745861173012,
			"-0.012": 0.265201421307,
			"-0.011": 0.782251852417,
			"-0.01": 0.952793058137,
			"-0.009": 0.491091054754,
			"-0.008": 2.57965736634,
			"-0.007": 9.1915315694,
			"-0.006": 8.03583323014,
			"-0.005": 9.15604735091,
			"-0.004": 9.05383697439,
			"-0.003": 10.7683012607,
			"-0.002": 15.0917246586,
			"-0.001": 19.0554059385,
			"0.0": 26.0358518161,
			"0.001": 25.5481996672,
			"0.002": 21.9203311108,
			"0.003": 18.2332046158,
			"0.004": 16.1179700932,
			"0.005": 7.11866105463,
			"0.006": 3.60846796365,
			"0.007": 1.86406046734,
			"0.008": 3.49066542734,
			"0.009": 3.74851345507,
			"0.01": 2.12615941454,
			"0.011": 2.85623594041,
			"0.012": 1.91798153709,
			"0.013": 0.0786878662223,
			"0.014": 0.0,
			"0.015": 0.0,
			"0.016": 0.0,
			"0.017": 0.0,
			"0.018": 0.0,
			"0.019": 0.0,
			"0.02": 0.0,
			"0.021": 0.0,
			"0.022": 0.0,
			"0.023": 0.0,
			"0.024": 0.0,
			"0.025": 0.0
		}
	}
}
