{
	 "smiles": "OC1=C(CC=C)C=C(C=C1)[N+]([O-])=O", 
	 "Tm": 342.15, 
	 "num_atms": 22, 
	 "gaussian": { 
		 "optdone": 1, 
		 "sigma_profile": "yes", 
		 "theory": "DFT", 
		 "functional": "B3LYP", 
		 "basiset": "6-31G**", 
		 "properties": { 
			 "R2extent": 3427.3363, 
			 "electric_dipole_moment_norm": 5.66230638786, 
			 "electric_quadrupole_moment_norm": 12.4187725513, 
			 "total_energy": -628.684901269, 
			 "HOMO_LUMO_gap": 0.16916, 
			 "cosmo_polarized_energy": -11.16, 
			 "cosmo_cavitation_energy": 26.5, 
			 "cosmo_dispersion_energy": -19.12, 
			 "cosmo_repulsion_energy": 1.51, 
			 "cosmo_total_nonelectrostatic_energy": 8.88, 
			 "SMD_solvation_energy": 7.43 
		},
		"coords": [
			{
				"x": -0.0107820667,
				"y": -0.8518548492,
				"z": 3.3784498845,
				"element": "O" 
			},
			{
				"x": -0.7025227709,
				"y": -0.2401033145,
				"z": 2.3843755799,
				"element": "C" 
			},
			{
				"x": -0.9567772403,
				"y": -0.8709687702,
				"z": 1.1436693588,
				"element": "C" 
			},
			{
				"x": -0.5413319254,
				"y": -2.3076243746,
				"z": 0.9056426804,
				"element": "C" 
			},
			{
				"x": 0.9429029265,
				"y": -2.6119432911,
				"z": 0.9523222708,
				"element": "C" 
			},
			{
				"x": 1.9384911658,
				"y": -1.7214137214,
				"z": 0.9619432808,
				"element": "C" 
			},
			{
				"x": -1.6679130043,
				"y": -0.1602259744,
				"z": 0.179442818,
				"element": "C" 
			},
			{
				"x": -2.129444427,
				"y": 1.1277975178,
				"z": 0.4494481301,
				"element": "C" 
			},
			{
				"x": -1.9025255977,
				"y": 1.7405845247,
				"z": 1.6823081239,
				"element": "C" 
			},
			{
				"x": -1.1837421405,
				"y": 1.0508123332,
				"z": 2.647122064,
				"element": "C" 
			},
			{
				"x": -2.8762143794,
				"y": 1.8463318443,
				"z": -0.5816738299,
				"element": "N" 
			},
			{
				"x": -3.0563526329,
				"y": 1.2801202143,
				"z": -1.6621810536,
				"element": "O" 
			},
			{
				"x": -3.2829004183,
				"y": 2.9781314186,
				"z": -0.3120050183,
				"element": "O" 
			},
			{
				"x": 0.5323288167,
				"y": -1.5642647451,
				"z": 3.0040552589,
				"element": "H" 
			},
			{
				"x": -0.9320378086,
				"y": -2.6373657746,
				"z": -0.0654481388,
				"element": "H" 
			},
			{
				"x": -1.0420106469,
				"y": -2.9504374063,
				"z": 1.6456934743,
				"element": "H" 
			},
			{
				"x": 1.1863619481,
				"y": -3.6742342185,
				"z": 0.9659648481,
				"element": "H" 
			},
			{
				"x": 2.9760414193,
				"y": -2.0397408162,
				"z": 0.9831376329,
				"element": "H" 
			},
			{
				"x": 1.7551462396,
				"y": -0.6508090869,
				"z": 0.9277059614,
				"element": "H" 
			},
			{
				"x": -1.885852041,
				"y": -0.600498404,
				"z": -0.7864367936,
				"element": "H" 
			},
			{
				"x": -2.2799249166,
				"y": 2.7397528323,
				"z": 1.8592908262,
				"element": "H" 
			},
			{
				"x": -0.9719404996,
				"y": 1.4926540619,
				"z": 3.614572641,
				"element": "H" 
			}
		],
		 "valence_orbital": [ 
			{
				"type": "occ",
				"energy": -0.29913,
				"method": "rhf"
			},
			{
				"type": "occ",
				"energy": -0.28726,
				"method": "rhf"
			},
			{
				"type": "occ",
				"energy": -0.28148,
				"method": "rhf"
			},
			{
				"type": "occ",
				"energy": -0.27257,
				"method": "rhf"
			},
			{
				"type": "occ",
				"energy": -0.24783,
				"method": "rhf"
			},
			{
				"type": "unocc",
				"energy": -0.07867,
				"method": "rhf"
			},
			{
				"type": "unocc",
				"energy": -0.02573,
				"method": "rhf"
			},
			{
				"type": "unocc",
				"energy": -0.00985,
				"method": "rhf"
			},
			{
				"type": "unocc",
				"energy": 0.01233,
				"method": "rhf"
			},
			{
				"type": "unocc",
				"energy": 0.07432,
				"method": "rhf"
			}
		],
		"cosmo_sigma_profile": { 
			"-0.025": 0.0,
			"-0.024": 0.0,
			"-0.023": 0.0,
			"-0.022": 0.0,
			"-0.021": 0.0,
			"-0.02": 0.0,
			"-0.019": 0.0,
			"-0.018": 0.0,
			"-0.017": 0.0,
			"-0.016": 0.0,
			"-0.015": 0.0,
			"-0.014": 0.0,
			"-0.013": 0.0118872729206,
			"-0.012": 0.42926398606,
			"-0.011": 1.03301944254,
			"-0.01": 0.807815633301,
			"-0.009": 0.79204907019,
			"-0.008": 2.4007989254,
			"-0.007": 6.53779900341,
			"-0.006": 12.2602705296,
			"-0.005": 16.8208731187,
			"-0.004": 17.540644449,
			"-0.003": 16.4482651343,
			"-0.002": 15.7861961624,
			"-0.001": 14.9969781636,
			"0.0": 18.7859570202,
			"0.001": 19.3008963844,
			"0.002": 13.3221011978,
			"0.003": 6.06496915806,
			"0.004": 6.4645927168,
			"0.005": 5.19499256045,
			"0.006": 4.96156826076,
			"0.007": 4.70649726179,
			"0.008": 12.7723707161,
			"0.009": 6.78005683373,
			"0.01": 5.45988791126,
			"0.011": 1.87126240633,
			"0.012": 0.0,
			"0.013": 0.0,
			"0.014": 0.0,
			"0.015": 0.0,
			"0.016": 0.0,
			"0.017": 0.0,
			"0.018": 0.0,
			"0.019": 0.0,
			"0.02": 0.0,
			"0.021": 0.0,
			"0.022": 0.0,
			"0.023": 0.0,
			"0.024": 0.0,
			"0.025": 0.0
		}
	}
}
