{
	 "smiles": "ClCC(=O)NCC1=CN(CC2=CC=CC=C2)N=C1C1=CC=CC=C1", 
	 "Tm": 356.15, 
	 "num_atms": 42, 
	 "gaussian": { 
		 "optdone": 1, 
		 "sigma_profile": "yes", 
		 "theory": "DFT", 
		 "functional": "B3LYP", 
		 "basiset": "6-31G**", 
		 "properties": { 
			 "R2extent": 11126.9084, 
			 "electric_dipole_moment_norm": 3.75358469866, 
			 "electric_quadrupole_moment_norm": 23.4328791289, 
			 "total_energy": -1434.54045213, 
			 "HOMO_LUMO_gap": 0.19716, 
			 "cosmo_polarized_energy": -19.36, 
			 "cosmo_cavitation_energy": 48.29, 
			 "cosmo_dispersion_energy": -32.61, 
			 "cosmo_repulsion_energy": 2.54, 
			 "cosmo_total_nonelectrostatic_energy": 18.23, 
			 "SMD_solvation_energy": 7.16 
		},
		"coords": [
			{
				"x": -3.7825999834,
				"y": 0.6797466936,
				"z": -3.5846321918,
				"element": "Cl" 
			},
			{
				"x": -2.594615527,
				"y": -0.6688890611,
				"z": -3.3140204343,
				"element": "C" 
			},
			{
				"x": -3.1380207666,
				"y": -1.7246787979,
				"z": -2.3500865354,
				"element": "C" 
			},
			{
				"x": -3.4985251086,
				"y": -2.8175248214,
				"z": -2.764453231,
				"element": "O" 
			},
			{
				"x": -3.1945797152,
				"y": -1.3931121342,
				"z": -1.0251689687,
				"element": "N" 
			},
			{
				"x": -2.634597283,
				"y": -0.2143163442,
				"z": -0.3705871301,
				"element": "C" 
			},
			{
				"x": -1.1551640226,
				"y": -0.3200469176,
				"z": -0.0841535237,
				"element": "C" 
			},
			{
				"x": -0.3938089035,
				"y": -1.4742371683,
				"z": -0.1347568636,
				"element": "C" 
			},
			{
				"x": 0.8898799041,
				"y": -1.1219457941,
				"z": 0.1339990011,
				"element": "N" 
			},
			{
				"x": 2.04515342,
				"y": -2.0004138428,
				"z": 0.2935941074,
				"element": "C" 
			},
			{
				"x": 2.1466117078,
				"y": -2.6324285926,
				"z": 1.6705507073,
				"element": "C" 
			},
			{
				"x": 2.2431850725,
				"y": -4.0207345613,
				"z": 1.8060819328,
				"element": "C" 
			},
			{
				"x": 2.3602080641,
				"y": -4.604505969,
				"z": 3.0699803975,
				"element": "C" 
			},
			{
				"x": 2.3751547737,
				"y": -3.8009946074,
				"z": 4.2097734817,
				"element": "C" 
			},
			{
				"x": 2.2753722691,
				"y": -2.4124860854,
				"z": 4.0812287106,
				"element": "C" 
			},
			{
				"x": 2.164470983,
				"y": -1.8300335011,
				"z": 2.8198162385,
				"element": "C" 
			},
			{
				"x": 1.0158937525,
				"y": 0.1966217605,
				"z": 0.3733281183,
				"element": "N" 
			},
			{
				"x": -0.217488919,
				"y": 0.7084164504,
				"z": 0.2427448276,
				"element": "C" 
			},
			{
				"x": -0.4203666408,
				"y": 2.1611694229,
				"z": 0.3963218848,
				"element": "C" 
			},
			{
				"x": 0.6516487269,
				"y": 3.0414180267,
				"z": 0.161131083,
				"element": "C" 
			},
			{
				"x": 0.4880979886,
				"y": 4.4163318892,
				"z": 0.3034120426,
				"element": "C" 
			},
			{
				"x": -0.7498906361,
				"y": 4.9454271393,
				"z": 0.6791844899,
				"element": "C" 
			},
			{
				"x": -1.8192106532,
				"y": 4.0833265225,
				"z": 0.9209328065,
				"element": "C" 
			},
			{
				"x": -1.655891657,
				"y": 2.7040674574,
				"z": 0.7850495113,
				"element": "C" 
			},
			{
				"x": -2.4400644537,
				"y": -1.1538307745,
				"z": -4.2749761939,
				"element": "H" 
			},
			{
				"x": -1.6689978893,
				"y": -0.2125733679,
				"z": -2.959709093,
				"element": "H" 
			},
			{
				"x": -3.5456582494,
				"y": -2.142162472,
				"z": -0.4430024429,
				"element": "H" 
			},
			{
				"x": -2.8451678906,
				"y": 0.6707441053,
				"z": -0.978229613,
				"element": "H" 
			},
			{
				"x": -3.2028314013,
				"y": -0.0763775227,
				"z": 0.5568789234,
				"element": "H" 
			},
			{
				"x": -0.668912671,
				"y": -2.4953277122,
				"z": -0.3546406526,
				"element": "H" 
			},
			{
				"x": 2.918718411,
				"y": -1.3777587777,
				"z": 0.0824543368,
				"element": "H" 
			},
			{
				"x": 1.9912019983,
				"y": -2.775804012,
				"z": -0.4763680614,
				"element": "H" 
			},
			{
				"x": 2.2289802312,
				"y": -4.6509300304,
				"z": 0.9196953725,
				"element": "H" 
			},
			{
				"x": 2.4346811862,
				"y": -5.6843131238,
				"z": 3.1614771736,
				"element": "H" 
			},
			{
				"x": 2.4634586563,
				"y": -4.2522536402,
				"z": 5.1938350702,
				"element": "H" 
			},
			{
				"x": 2.2868357185,
				"y": -1.7825640488,
				"z": 4.9661626846,
				"element": "H" 
			},
			{
				"x": 2.082962759,
				"y": -0.7517063619,
				"z": 2.7162750059,
				"element": "H" 
			},
			{
				"x": 1.6093351757,
				"y": 2.627561464,
				"z": -0.135515952,
				"element": "H" 
			},
			{
				"x": 1.3277719913,
				"y": 5.0792962325,
				"z": 0.1141546228,
				"element": "H" 
			},
			{
				"x": -0.8779372393,
				"y": 6.0188857824,
				"z": 0.7838126488,
				"element": "H" 
			},
			{
				"x": -2.7833351952,
				"y": 4.4816096844,
				"z": 1.2240848986,
				"element": "H" 
			},
			{
				"x": -2.4917579843,
				"y": 2.0507274114,
				"z": 1.0104408091,
				"element": "H" 
			}
		],
		 "valence_orbital": [ 
			{
				"type": "occ",
				"energy": -0.2559,
				"method": "rhf"
			},
			{
				"type": "occ",
				"energy": -0.25493,
				"method": "rhf"
			},
			{
				"type": "occ",
				"energy": -0.25026,
				"method": "rhf"
			},
			{
				"type": "occ",
				"energy": -0.24914,
				"method": "rhf"
			},
			{
				"type": "occ",
				"energy": -0.22203,
				"method": "rhf"
			},
			{
				"type": "unocc",
				"energy": -0.02487,
				"method": "rhf"
			},
			{
				"type": "unocc",
				"energy": -0.0199,
				"method": "rhf"
			},
			{
				"type": "unocc",
				"energy": -0.01296,
				"method": "rhf"
			},
			{
				"type": "unocc",
				"energy": -0.0084,
				"method": "rhf"
			},
			{
				"type": "unocc",
				"energy": -0.0013,
				"method": "rhf"
			}
		],
		"cosmo_sigma_profile": { 
			"-0.025": 0.0,
			"-0.024": 0.0,
			"-0.023": 0.0,
			"-0.022": 0.0,
			"-0.021": 0.0,
			"-0.02": 0.0,
			"-0.019": 0.0,
			"-0.018": 0.0,
			"-0.017": 0.0,
			"-0.016": 0.0,
			"-0.015": 0.117059171766,
			"-0.014": 1.24722269812,
			"-0.013": 1.19260800956,
			"-0.012": 0.752133893278,
			"-0.011": 1.17308121019,
			"-0.01": 1.47525040145,
			"-0.009": 2.29111990593,
			"-0.008": 6.89588501027,
			"-0.007": 14.4177008662,
			"-0.006": 22.769556849,
			"-0.005": 27.8913441762,
			"-0.004": 33.5808779955,
			"-0.003": 29.3860306576,
			"-0.002": 22.2632293838,
			"-0.001": 21.3180908276,
			"0.0": 19.6489544436,
			"0.001": 22.6689117169,
			"0.002": 24.9457992004,
			"0.003": 29.9917147937,
			"0.004": 29.768489141,
			"0.005": 31.392223048,
			"0.006": 18.4505481201,
			"0.007": 3.18476725845,
			"0.008": 2.11892983627,
			"0.009": 2.29048282954,
			"0.01": 2.18529841577,
			"0.011": 2.47162051651,
			"0.012": 3.59908111833,
			"0.013": 6.15481722904,
			"0.014": 2.00116399749,
			"0.015": 0.0118056474431,
			"0.016": 0.0,
			"0.017": 0.0,
			"0.018": 0.0,
			"0.019": 0.0,
			"0.02": 0.0,
			"0.021": 0.0,
			"0.022": 0.0,
			"0.023": 0.0,
			"0.024": 0.0,
			"0.025": 0.0
		}
	}
}
