{
	 "smiles": "CCC1=CC(C(O)=O)=C(O)C=C1", 
	 "Tm": 392.15, 
	 "num_atms": 22, 
	 "gaussian": { 
		 "optdone": 1, 
		 "sigma_profile": "yes", 
		 "theory": "DFT", 
		 "functional": "B3LYP", 
		 "basiset": "6-31G**", 
		 "properties": { 
			 "R2extent": 2561.032, 
			 "electric_dipole_moment_norm": 2.37775550678, 
			 "electric_quadrupole_moment_norm": 11.3596034293, 
			 "total_energy": -574.694340816, 
			 "HOMO_LUMO_gap": 0.16968, 
			 "cosmo_polarized_energy": -8.64, 
			 "cosmo_cavitation_energy": 25.77, 
			 "cosmo_dispersion_energy": -19.08, 
			 "cosmo_repulsion_energy": 1.53, 
			 "cosmo_total_nonelectrostatic_energy": 8.22, 
			 "SMD_solvation_energy": 5.84 
		},
		"coords": [
			{
				"x": 0.6795166612,
				"y": -1.5254121694,
				"z": -3.3929212926,
				"element": "C" 
			},
			{
				"x": 1.075046147,
				"y": -0.3685006872,
				"z": -2.4580470993,
				"element": "C" 
			},
			{
				"x": 0.8017789292,
				"y": -0.662534413,
				"z": -0.9977813345,
				"element": "C" 
			},
			{
				"x": -0.3485666249,
				"y": -0.2069760498,
				"z": -0.3667179598,
				"element": "C" 
			},
			{
				"x": -0.6234659891,
				"y": -0.50652859,
				"z": 0.9830085872,
				"element": "C" 
			},
			{
				"x": -1.832778998,
				"y": -0.0238946176,
				"z": 1.6514608172,
				"element": "C" 
			},
			{
				"x": -2.6530107799,
				"y": 0.719788967,
				"z": 0.8820167127,
				"element": "O" 
			},
			{
				"x": -2.1197462271,
				"y": -0.2568260072,
				"z": 2.8287784646,
				"element": "O" 
			},
			{
				"x": 0.2924537611,
				"y": -1.2933618737,
				"z": 1.7270547595,
				"element": "C" 
			},
			{
				"x": 0.10026575,
				"y": -1.6169144536,
				"z": 3.0155188277,
				"element": "O" 
			},
			{
				"x": 1.4580182942,
				"y": -1.7533028488,
				"z": 1.0921536376,
				"element": "C" 
			},
			{
				"x": 1.6983693966,
				"y": -1.4412531785,
				"z": -0.2363843951,
				"element": "C" 
			},
			{
				"x": 1.2241136436,
				"y": -2.4411172841,
				"z": -3.1396160774,
				"element": "H" 
			},
			{
				"x": -0.3901391717,
				"y": -1.7446005541,
				"z": -3.3127946225,
				"element": "H" 
			},
			{
				"x": 0.8997053184,
				"y": -1.2795544477,
				"z": -4.4371339941,
				"element": "H" 
			},
			{
				"x": 2.1411092415,
				"y": -0.1461186861,
				"z": -2.5926208258,
				"element": "H" 
			},
			{
				"x": 0.532310629,
				"y": 0.5368904031,
				"z": -2.7535394941,
				"element": "H" 
			},
			{
				"x": -1.0631476993,
				"y": 0.399767973,
				"z": -0.9137394859,
				"element": "H" 
			},
			{
				"x": -3.4016154166,
				"y": 0.9661833431,
				"z": 1.4499624691,
				"element": "H" 
			},
			{
				"x": -0.7557802472,
				"y": -1.2104982765,
				"z": 3.2903985581,
				"element": "H" 
			},
			{
				"x": 2.1560721291,
				"y": -2.3484975321,
				"z": 1.6710900636,
				"element": "H" 
			},
			{
				"x": 2.610591253,
				"y": -1.8048390166,
				"z": -0.7045463163,
				"element": "H" 
			}
		],
		 "valence_orbital": [ 
			{
				"type": "occ",
				"energy": -0.33096,
				"method": "rhf"
			},
			{
				"type": "occ",
				"energy": -0.32662,
				"method": "rhf"
			},
			{
				"type": "occ",
				"energy": -0.28883,
				"method": "rhf"
			},
			{
				"type": "occ",
				"energy": -0.26322,
				"method": "rhf"
			},
			{
				"type": "occ",
				"energy": -0.22136,
				"method": "rhf"
			},
			{
				"type": "unocc",
				"energy": -0.05168,
				"method": "rhf"
			},
			{
				"type": "unocc",
				"energy": 0.00575,
				"method": "rhf"
			},
			{
				"type": "unocc",
				"energy": 0.04917,
				"method": "rhf"
			},
			{
				"type": "unocc",
				"energy": 0.0711,
				"method": "rhf"
			},
			{
				"type": "unocc",
				"energy": 0.09403,
				"method": "rhf"
			}
		],
		"cosmo_sigma_profile": { 
			"-0.025": 0.0,
			"-0.024": 0.0,
			"-0.023": 0.0,
			"-0.022": 0.0,
			"-0.021": 0.0,
			"-0.02": 0.0,
			"-0.019": 0.176074055324,
			"-0.018": 1.15948948741,
			"-0.017": 0.823687902402,
			"-0.016": 0.665188261557,
			"-0.015": 0.537292866705,
			"-0.014": 0.661108213319,
			"-0.013": 0.816832911201,
			"-0.012": 0.663465002472,
			"-0.011": 1.35580581854,
			"-0.01": 0.674027897794,
			"-0.009": 0.213914361468,
			"-0.008": 0.668105611751,
			"-0.007": 1.66558540871,
			"-0.006": 5.22539725679,
			"-0.005": 7.8895354577,
			"-0.004": 11.5537150631,
			"-0.003": 18.4037426314,
			"-0.002": 20.4388138543,
			"-0.001": 20.7662762726,
			"0.0": 20.4337367024,
			"0.001": 21.0529745766,
			"0.002": 14.356201293,
			"0.003": 13.1890218447,
			"0.004": 13.058456545,
			"0.005": 5.2955222948,
			"0.006": 4.09167760644,
			"0.007": 5.14348177128,
			"0.008": 2.17549617736,
			"0.009": 3.06762089635,
			"0.01": 3.80355883247,
			"0.011": 3.29814898857,
			"0.012": 0.745686272568,
			"0.013": 0.0,
			"0.014": 0.0,
			"0.015": 0.0,
			"0.016": 0.0,
			"0.017": 0.0,
			"0.018": 0.0,
			"0.019": 0.0,
			"0.02": 0.0,
			"0.021": 0.0,
			"0.022": 0.0,
			"0.023": 0.0,
			"0.024": 0.0,
			"0.025": 0.0
		}
	}
}
