{
	 "smiles": "CN1C=C(N=C1C)S(=O)(=O)NCC(O)=O", 
	 "Tm": 491.15, 
	 "num_atms": 26, 
	 "gaussian": { 
		 "optdone": 1, 
		 "sigma_profile": "yes", 
		 "theory": "DFT", 
		 "functional": "B3LYP", 
		 "basiset": "6-31G**", 
		 "properties": { 
			 "R2extent": 5884.9104, 
			 "electric_dipole_moment_norm": 9.91869621372, 
			 "electric_quadrupole_moment_norm": 17.9841881046, 
			 "total_energy": -1136.65059715, 
			 "HOMO_LUMO_gap": 0.24347, 
			 "cosmo_polarized_energy": -27.35, 
			 "cosmo_cavitation_energy": 32.43, 
			 "cosmo_dispersion_energy": -23.16, 
			 "cosmo_repulsion_energy": 1.8, 
			 "cosmo_total_nonelectrostatic_energy": 11.07, 
			 "SMD_solvation_energy": 5.0 
		},
		"coords": [
			{
				"x": -0.0834511646,
				"y": 1.5792792204,
				"z": -3.066129078,
				"element": "C" 
			},
			{
				"x": 0.0820281626,
				"y": 0.3723281185,
				"z": -2.2662554255,
				"element": "N" 
			},
			{
				"x": -0.7868608755,
				"y": -0.69225559,
				"z": -2.2127157883,
				"element": "C" 
			},
			{
				"x": -0.2057934435,
				"y": -1.5709123107,
				"z": -1.3337122793,
				"element": "C" 
			},
			{
				"x": 0.9779537058,
				"y": -1.0877242025,
				"z": -0.8413360396,
				"element": "N" 
			},
			{
				"x": 1.1320070345,
				"y": 0.0897374008,
				"z": -1.4173710899,
				"element": "C" 
			},
			{
				"x": 2.2790098112,
				"y": 1.0192984323,
				"z": -1.1961939962,
				"element": "C" 
			},
			{
				"x": -0.807069642,
				"y": -3.1690568865,
				"z": -0.8773921215,
				"element": "S" 
			},
			{
				"x": -2.2381213994,
				"y": -3.1919563969,
				"z": -1.184661572,
				"element": "O" 
			},
			{
				"x": 0.1058733414,
				"y": -4.2019658572,
				"z": -1.3561856885,
				"element": "O" 
			},
			{
				"x": -0.6564246086,
				"y": -3.2015851798,
				"z": 0.8168975522,
				"element": "N" 
			},
			{
				"x": -1.4743614212,
				"y": -2.2731487935,
				"z": 1.6070051052,
				"element": "C" 
			},
			{
				"x": -1.9338253955,
				"y": -2.9168648096,
				"z": 2.9235305326,
				"element": "C" 
			},
			{
				"x": -1.8975854792,
				"y": -4.2587059042,
				"z": 2.9372242513,
				"element": "O" 
			},
			{
				"x": -2.3259966,
				"y": -2.2577431074,
				"z": 3.8543069963,
				"element": "O" 
			},
			{
				"x": -0.1306290902,
				"y": 2.4645383812,
				"z": -2.4256304076,
				"element": "H" 
			},
			{
				"x": 0.7459717331,
				"y": 1.6921563981,
				"z": -3.7698520427,
				"element": "H" 
			},
			{
				"x": -1.0133821646,
				"y": 1.5052050251,
				"z": -3.6303344839,
				"element": "H" 
			},
			{
				"x": -1.7052468797,
				"y": -0.7354653264,
				"z": -2.7760959139,
				"element": "H" 
			},
			{
				"x": 2.8289311067,
				"y": 1.2165656949,
				"z": -2.1237161043,
				"element": "H" 
			},
			{
				"x": 1.9531140503,
				"y": 1.984680751,
				"z": -0.7916307585,
				"element": "H" 
			},
			{
				"x": 2.9628634906,
				"y": 0.5585260842,
				"z": -0.4828242125,
				"element": "H" 
			},
			{
				"x": 0.3358049547,
				"y": -3.1705027748,
				"z": 1.0462107257,
				"element": "H" 
			},
			{
				"x": -0.9655523656,
				"y": -1.3328323592,
				"z": 1.8367844711,
				"element": "H" 
			},
			{
				"x": -2.3781748139,
				"y": -2.0432795544,
				"z": 1.0332705239,
				"element": "H" 
			},
			{
				"x": -1.5259820474,
				"y": -4.5468164532,
				"z": 2.079906844,
				"element": "H" 
			}
		],
		 "valence_orbital": [ 
			{
				"type": "occ",
				"energy": -0.30773,
				"method": "rhf"
			},
			{
				"type": "occ",
				"energy": -0.3041,
				"method": "rhf"
			},
			{
				"type": "occ",
				"energy": -0.30029,
				"method": "rhf"
			},
			{
				"type": "occ",
				"energy": -0.2632,
				"method": "rhf"
			},
			{
				"type": "occ",
				"energy": -0.25601,
				"method": "rhf"
			},
			{
				"type": "unocc",
				"energy": -0.01254,
				"method": "rhf"
			},
			{
				"type": "unocc",
				"energy": 0.00526,
				"method": "rhf"
			},
			{
				"type": "unocc",
				"energy": 0.01396,
				"method": "rhf"
			},
			{
				"type": "unocc",
				"energy": 0.0525,
				"method": "rhf"
			},
			{
				"type": "unocc",
				"energy": 0.05668,
				"method": "rhf"
			}
		],
		"cosmo_sigma_profile": { 
			"-0.025": 0.0,
			"-0.024": 0.0,
			"-0.023": 0.0,
			"-0.022": 0.0,
			"-0.021": 0.0,
			"-0.02": 0.0,
			"-0.019": 0.0,
			"-0.018": 0.0,
			"-0.017": 0.0,
			"-0.016": 0.447564915776,
			"-0.015": 1.3062065598,
			"-0.014": 1.19983101069,
			"-0.013": 2.70892956956,
			"-0.012": 0.785128544912,
			"-0.011": 1.8605865122,
			"-0.01": 5.13830084894,
			"-0.009": 6.28979720843,
			"-0.008": 7.87306769015,
			"-0.007": 14.209352813,
			"-0.006": 19.7198329215,
			"-0.005": 17.7311660617,
			"-0.004": 20.6934354671,
			"-0.003": 16.2953836506,
			"-0.002": 15.5620661089,
			"-0.001": 12.4764163587,
			"0.0": 9.9390343945,
			"0.001": 9.29651147384,
			"0.002": 5.81899534131,
			"0.003": 6.46123195724,
			"0.004": 5.82930529324,
			"0.005": 5.99737592199,
			"0.006": 5.25533170388,
			"0.007": 7.40471570987,
			"0.008": 7.82553204441,
			"0.009": 9.41726741915,
			"0.01": 15.3947392114,
			"0.011": 14.8008139642,
			"0.012": 6.68230028757,
			"0.013": 2.24296050201,
			"0.014": 0.514065499546,
			"0.015": 0.052803611949,
			"0.016": 0.0,
			"0.017": 0.0,
			"0.018": 0.0,
			"0.019": 0.0,
			"0.02": 0.0,
			"0.021": 0.0,
			"0.022": 0.0,
			"0.023": 0.0,
			"0.024": 0.0,
			"0.025": 0.0
		}
	}
}
