{
	 "smiles": "CC1=C(COC2=CC(=CC=C2)C(O)=O)C(C)=NO1", 
	 "Tm": 431.15, 
	 "num_atms": 31, 
	 "gaussian": { 
		 "optdone": 1, 
		 "sigma_profile": "yes", 
		 "theory": "DFT", 
		 "functional": "B3LYP", 
		 "basiset": "6-31G**", 
		 "properties": { 
			 "R2extent": 7433.6121, 
			 "electric_dipole_moment_norm": 6.74723321814, 
			 "electric_quadrupole_moment_norm": 32.0347333878, 
			 "total_energy": -858.825324008, 
			 "HOMO_LUMO_gap": 0.19152, 
			 "cosmo_polarized_energy": -22.45, 
			 "cosmo_cavitation_energy": 36.46, 
			 "cosmo_dispersion_energy": -25.71, 
			 "cosmo_repulsion_energy": 2.0, 
			 "cosmo_total_nonelectrostatic_energy": 12.75, 
			 "SMD_solvation_energy": 7.63 
		},
		"coords": [
			{
				"x": -4.2729565159,
				"y": -1.753072227,
				"z": -1.2764729065,
				"element": "C" 
			},
			{
				"x": -2.8125011578,
				"y": -2.0412592514,
				"z": -1.3338782618,
				"element": "C" 
			},
			{
				"x": -1.6887498307,
				"y": -1.2700701368,
				"z": -1.229023481,
				"element": "C" 
			},
			{
				"x": -1.5773451698,
				"y": 0.1980685993,
				"z": -1.0089663059,
				"element": "C" 
			},
			{
				"x": -1.087791383,
				"y": 0.4274229884,
				"z": 0.3216368673,
				"element": "O" 
			},
			{
				"x": -0.8738243365,
				"y": 1.7118166519,
				"z": 0.7235195891,
				"element": "C" 
			},
			{
				"x": -0.3829468753,
				"y": 1.8626776186,
				"z": 2.0267156249,
				"element": "C" 
			},
			{
				"x": -0.1155764889,
				"y": 3.131870565,
				"z": 2.5369240542,
				"element": "C" 
			},
			{
				"x": -0.3657297283,
				"y": 4.2714531774,
				"z": 1.7529113113,
				"element": "C" 
			},
			{
				"x": -0.8644971015,
				"y": 4.1170890506,
				"z": 0.4634337133,
				"element": "C" 
			},
			{
				"x": -1.1147881452,
				"y": 2.8470451429,
				"z": -0.0637928335,
				"element": "C" 
			},
			{
				"x": 0.4108503764,
				"y": 3.2113342308,
				"z": 3.9411957036,
				"element": "C" 
			},
			{
				"x": 1.0723163246,
				"y": 4.352032711,
				"z": 4.2760812305,
				"element": "O" 
			},
			{
				"x": 0.2756212527,
				"y": 2.3295495081,
				"z": 4.7555342764,
				"element": "O" 
			},
			{
				"x": -0.6132802039,
				"y": -2.2092551985,
				"z": -1.3700658623,
				"element": "C" 
			},
			{
				"x": 0.8574916449,
				"y": -1.9374934548,
				"z": -1.322127197,
				"element": "C" 
			},
			{
				"x": -1.0584355088,
				"y": -3.4295992349,
				"z": -1.5505757671,
				"element": "N" 
			},
			{
				"x": -2.4603534427,
				"y": -3.3258388379,
				"z": -1.5335141186,
				"element": "O" 
			},
			{
				"x": -4.7463506955,
				"y": -2.327933574,
				"z": -0.4740625671,
				"element": "H" 
			},
			{
				"x": -4.451230594,
				"y": -0.6919833212,
				"z": -1.0904915706,
				"element": "H" 
			},
			{
				"x": -4.7631733032,
				"y": -2.0298931188,
				"z": -2.2156956428,
				"element": "H" 
			},
			{
				"x": -2.5521171112,
				"y": 0.6863352488,
				"z": -1.1383067853,
				"element": "H" 
			},
			{
				"x": -0.8816494122,
				"y": 0.6482420805,
				"z": -1.7312152293,
				"element": "H" 
			},
			{
				"x": -0.2095338485,
				"y": 0.9871220175,
				"z": 2.6417529275,
				"element": "H" 
			},
			{
				"x": -0.2230568696,
				"y": 5.2715754355,
				"z": 2.1529431526,
				"element": "H" 
			},
			{
				"x": -1.0721058166,
				"y": 4.9925663714,
				"z": -0.1445761863,
				"element": "H" 
			},
			{
				"x": -1.5001625165,
				"y": 2.7579483849,
				"z": -1.0722143246,
				"element": "H" 
			},
			{
				"x": 1.2375236248,
				"y": 4.883058575,
				"z": 3.48465428,
				"element": "H" 
			},
			{
				"x": 1.4146350881,
				"y": -2.8692709164,
				"z": -1.435417003,
				"element": "H" 
			},
			{
				"x": 1.1298827512,
				"y": -1.4702289573,
				"z": -0.3709228758,
				"element": "H" 
			},
			{
				"x": 1.1568349928,
				"y": -1.2533101287,
				"z": -2.1242838122,
				"element": "H" 
			}
		],
		 "valence_orbital": [ 
			{
				"type": "occ",
				"energy": -0.28671,
				"method": "rhf"
			},
			{
				"type": "occ",
				"energy": -0.27864,
				"method": "rhf"
			},
			{
				"type": "occ",
				"energy": -0.26662,
				"method": "rhf"
			},
			{
				"type": "occ",
				"energy": -0.25829,
				"method": "rhf"
			},
			{
				"type": "occ",
				"energy": -0.2418,
				"method": "rhf"
			},
			{
				"type": "unocc",
				"energy": -0.05028,
				"method": "rhf"
			},
			{
				"type": "unocc",
				"energy": -0.01723,
				"method": "rhf"
			},
			{
				"type": "unocc",
				"energy": -0.01141,
				"method": "rhf"
			},
			{
				"type": "unocc",
				"energy": 0.03639,
				"method": "rhf"
			},
			{
				"type": "unocc",
				"energy": 0.05081,
				"method": "rhf"
			}
		],
		"cosmo_sigma_profile": { 
			"-0.025": 0.0,
			"-0.024": 0.0,
			"-0.023": 0.0,
			"-0.022": 0.0,
			"-0.021": 0.0,
			"-0.02": 0.0,
			"-0.019": 0.0,
			"-0.018": 0.62024818084,
			"-0.017": 1.03619525806,
			"-0.016": 0.491973848846,
			"-0.015": 1.50952226774,
			"-0.014": 1.51830344614,
			"-0.013": 0.291474149311,
			"-0.012": 0.875814408234,
			"-0.011": 1.16171272701,
			"-0.01": 1.58078117241,
			"-0.009": 1.32034215517,
			"-0.008": 3.8031638434,
			"-0.007": 11.6804888814,
			"-0.006": 20.6849720927,
			"-0.005": 21.1575385201,
			"-0.004": 20.0571374879,
			"-0.003": 20.8566625627,
			"-0.002": 23.8271157436,
			"-0.001": 20.404235491,
			"0.0": 15.179241518,
			"0.001": 15.3795154607,
			"0.002": 18.2613953999,
			"0.003": 17.8982226824,
			"0.004": 11.6369550845,
			"0.005": 6.45184443093,
			"0.006": 6.17617028105,
			"0.007": 5.7005117442,
			"0.008": 8.32765419791,
			"0.009": 7.81209352648,
			"0.01": 6.75358595926,
			"0.011": 7.03086528399,
			"0.012": 6.38577360574,
			"0.013": 2.64014087765,
			"0.014": 1.62662578668,
			"0.015": 0.428801591025,
			"0.016": 0.0,
			"0.017": 0.0,
			"0.018": 0.0,
			"0.019": 0.0,
			"0.02": 0.0,
			"0.021": 0.0,
			"0.022": 0.0,
			"0.023": 0.0,
			"0.024": 0.0,
			"0.025": 0.0
		}
	}
}
