{
	 "smiles": "ClS(=O)(=O)C1=C(Br)C=C2OCCCOC2=C1", 
	 "Tm": 379.15, 
	 "num_atms": 24, 
	 "gaussian": { 
		 "optdone": 1, 
		 "sigma_profile": "yes", 
		 "theory": "DFT", 
		 "functional": "B3LYP", 
		 "basiset": "6-31G**", 
		 "properties": { 
			 "R2extent": 8879.7393, 
			 "electric_dipole_moment_norm": 7.95964902241, 
			 "electric_quadrupole_moment_norm": 17.9949848294, 
			 "total_energy": -4078.35595248, 
			 "HOMO_LUMO_gap": 0.15976, 
			 "cosmo_polarized_energy": -11.8, 
			 "cosmo_cavitation_energy": 32.65, 
			 "cosmo_dispersion_energy": -25.21, 
			 "cosmo_repulsion_energy": 1.91, 
			 "cosmo_total_nonelectrostatic_energy": 9.36, 
			 "SMD_solvation_energy": 3.45 
		},
		"coords": [
			{
				"x": -4.0821145381,
				"y": -3.8912597592,
				"z": -0.5003956575,
				"element": "Cl" 
			},
			{
				"x": -2.0031522491,
				"y": -3.9516672663,
				"z": -0.0424848964,
				"element": "S" 
			},
			{
				"x": -1.9217148652,
				"y": -4.179823095,
				"z": 1.3954991362,
				"element": "O" 
			},
			{
				"x": -1.388661409,
				"y": -4.8677853597,
				"z": -0.9916326348,
				"element": "O" 
			},
			{
				"x": -1.5072593346,
				"y": -2.2596043731,
				"z": -0.368865038,
				"element": "C" 
			},
			{
				"x": -1.3899649297,
				"y": -1.696212039,
				"z": -1.6490298455,
				"element": "C" 
			},
			{
				"x": -1.8301767474,
				"y": -2.6120290357,
				"z": -3.2526976611,
				"element": "Br" 
			},
			{
				"x": -0.9662694772,
				"y": -0.3763269756,
				"z": -1.7616486067,
				"element": "C" 
			},
			{
				"x": -0.6484254699,
				"y": 0.3897304386,
				"z": -0.6354374217,
				"element": "C" 
			},
			{
				"x": -0.2551855274,
				"y": 1.6727987344,
				"z": -0.8677313334,
				"element": "O" 
			},
			{
				"x": -0.6240732578,
				"y": 2.6599758202,
				"z": 0.1168820959,
				"element": "C" 
			},
			{
				"x": 0.3767817514,
				"y": 2.7227348601,
				"z": 1.2690694773,
				"element": "C" 
			},
			{
				"x": 0.7408588716,
				"y": 1.3173177713,
				"z": 1.7526770708,
				"element": "C" 
			},
			{
				"x": -0.4141438616,
				"y": 0.4602494454,
				"z": 1.8080258337,
				"element": "O" 
			},
			{
				"x": -0.7334725555,
				"y": -0.1939647715,
				"z": 0.6487842106,
				"element": "C" 
			},
			{
				"x": -1.1760387086,
				"y": -1.5088329889,
				"z": 0.7622966051,
				"element": "C" 
			},
			{
				"x": -0.8940166721,
				"y": 0.0938059449,
				"z": -2.7348033737,
				"element": "H" 
			},
			{
				"x": -0.6622826328,
				"y": 3.6062438849,
				"z": -0.4275101708,
				"element": "H" 
			},
			{
				"x": -1.6298439837,
				"y": 2.4363924623,
				"z": 0.4875744981,
				"element": "H" 
			},
			{
				"x": 1.2939599051,
				"y": 3.2370940011,
				"z": 0.9605357011,
				"element": "H" 
			},
			{
				"x": -0.0710746114,
				"y": 3.3091588488,
				"z": 2.079566587,
				"element": "H" 
			},
			{
				"x": 1.1401459116,
				"y": 1.3383271001,
				"z": 2.7695238399,
				"element": "H" 
			},
			{
				"x": 1.4949178026,
				"y": 0.86384023,
				"z": 1.0997821627,
				"element": "H" 
			},
			{
				"x": -1.2419934114,
				"y": -1.952463878,
				"z": 1.7481194213,
				"element": "H" 
			}
		],
		 "valence_orbital": [ 
			{
				"type": "occ",
				"energy": -0.3097,
				"method": "rhf"
			},
			{
				"type": "occ",
				"energy": -0.30506,
				"method": "rhf"
			},
			{
				"type": "occ",
				"energy": -0.29411,
				"method": "rhf"
			},
			{
				"type": "occ",
				"energy": -0.2689,
				"method": "rhf"
			},
			{
				"type": "occ",
				"energy": -0.24426,
				"method": "rhf"
			},
			{
				"type": "unocc",
				"energy": -0.0845,
				"method": "rhf"
			},
			{
				"type": "unocc",
				"energy": -0.04234,
				"method": "rhf"
			},
			{
				"type": "unocc",
				"energy": -0.03523,
				"method": "rhf"
			},
			{
				"type": "unocc",
				"energy": -0.00978,
				"method": "rhf"
			},
			{
				"type": "unocc",
				"energy": 0.05381,
				"method": "rhf"
			}
		],
		"cosmo_sigma_profile": { 
			"-0.025": 0.0,
			"-0.024": 0.0,
			"-0.023": 0.0,
			"-0.022": 0.0,
			"-0.021": 0.0,
			"-0.02": 0.0,
			"-0.019": 0.0,
			"-0.018": 0.0,
			"-0.017": 0.0,
			"-0.016": 0.0,
			"-0.015": 0.0,
			"-0.014": 0.0,
			"-0.013": 0.0,
			"-0.012": 0.0,
			"-0.011": 0.0,
			"-0.01": 0.0,
			"-0.009": 0.324454533325,
			"-0.008": 1.50128473563,
			"-0.007": 4.45406410677,
			"-0.006": 14.9603462119,
			"-0.005": 24.2797966451,
			"-0.004": 24.82614166,
			"-0.003": 17.7408588541,
			"-0.002": 17.9254575023,
			"-0.001": 25.5663497106,
			"0.0": 23.6596931997,
			"0.001": 14.5626912756,
			"0.002": 17.3669286288,
			"0.003": 25.3213941391,
			"0.004": 13.728761739,
			"0.005": 5.98732626768,
			"0.006": 5.80619816203,
			"0.007": 8.20365095805,
			"0.008": 13.2164193933,
			"0.009": 5.80481714202,
			"0.01": 0.992382647455,
			"0.011": 0.0135945675783,
			"0.012": 0.0,
			"0.013": 0.0,
			"0.014": 0.0,
			"0.015": 0.0,
			"0.016": 0.0,
			"0.017": 0.0,
			"0.018": 0.0,
			"0.019": 0.0,
			"0.02": 0.0,
			"0.021": 0.0,
			"0.022": 0.0,
			"0.023": 0.0,
			"0.024": 0.0,
			"0.025": 0.0
		}
	}
}
