{
	 "smiles": "N1C=NC(=N1)C1=NC=CC=C1", 
	 "Tm": 433.15, 
	 "num_atms": 17, 
	 "gaussian": { 
		 "optdone": 1, 
		 "sigma_profile": "yes", 
		 "theory": "DFT", 
		 "functional": "B3LYP", 
		 "basiset": "6-31G**", 
		 "properties": { 
			 "R2extent": 2800.5832, 
			 "electric_dipole_moment_norm": 2.09609224272, 
			 "electric_quadrupole_moment_norm": 24.7272898371, 
			 "total_energy": -489.347202667, 
			 "HOMO_LUMO_gap": 0.20018, 
			 "cosmo_polarized_energy": -17.19, 
			 "cosmo_cavitation_energy": 21.92, 
			 "cosmo_dispersion_energy": -16.73, 
			 "cosmo_repulsion_energy": 1.33, 
			 "cosmo_total_nonelectrostatic_energy": 6.53, 
			 "SMD_solvation_energy": 0.69 
		},
		"coords": [
			{
				"x": -1.7849288308,
				"y": -3.2541360906,
				"z": -3.1093193179,
				"element": "N" 
			},
			{
				"x": -0.4414685741,
				"y": -3.2963993744,
				"z": -2.9537162943,
				"element": "C" 
			},
			{
				"x": -0.0605487591,
				"y": -2.3436182241,
				"z": -2.1285310398,
				"element": "N" 
			},
			{
				"x": -1.242096845,
				"y": -1.7264415431,
				"z": -1.7963217141,
				"element": "C" 
			},
			{
				"x": -2.3199735626,
				"y": -2.252661968,
				"z": -2.3743580686,
				"element": "N" 
			},
			{
				"x": -1.2909951537,
				"y": -0.5766132144,
				"z": -0.8727673252,
				"element": "C" 
			},
			{
				"x": -2.4947543432,
				"y": -0.0411513759,
				"z": -0.6094844575,
				"element": "N" 
			},
			{
				"x": -2.5389277226,
				"y": 0.9989341211,
				"z": 0.2258738836,
				"element": "C" 
			},
			{
				"x": -1.4127939,
				"y": 1.5567867777,
				"z": 0.8362973852,
				"element": "C" 
			},
			{
				"x": -0.1679651877,
				"y": 0.9940664284,
				"z": 0.5567945877,
				"element": "C" 
			},
			{
				"x": -0.1002698849,
				"y": -0.0913008858,
				"z": -0.3118809185,
				"element": "C" 
			},
			{
				"x": -2.3864281395,
				"y": -3.8404733261,
				"z": -3.6688714752,
				"element": "H" 
			},
			{
				"x": 0.1952575659,
				"y": -4.0175292893,
				"z": -3.4473612523,
				"element": "H" 
			},
			{
				"x": -3.5280381665,
				"y": 1.4113991171,
				"z": 0.419941112,
				"element": "H" 
			},
			{
				"x": -1.5140774395,
				"y": 2.4038695528,
				"z": 1.507416083,
				"element": "H" 
			},
			{
				"x": 0.7361979624,
				"y": 1.3933643646,
				"z": 1.0076136435,
				"element": "H" 
			},
			{
				"x": 0.8401109808,
				"y": -0.5672950701,
				"z": -0.5642248317,
				"element": "H" 
			}
		],
		 "valence_orbital": [ 
			{
				"type": "occ",
				"energy": -0.29029,
				"method": "rhf"
			},
			{
				"type": "occ",
				"energy": -0.28031,
				"method": "rhf"
			},
			{
				"type": "occ",
				"energy": -0.27592,
				"method": "rhf"
			},
			{
				"type": "occ",
				"energy": -0.24649,
				"method": "rhf"
			},
			{
				"type": "occ",
				"energy": -0.23541,
				"method": "rhf"
			},
			{
				"type": "unocc",
				"energy": -0.03523,
				"method": "rhf"
			},
			{
				"type": "unocc",
				"energy": -0.01215,
				"method": "rhf"
			},
			{
				"type": "unocc",
				"energy": 0.01242,
				"method": "rhf"
			},
			{
				"type": "unocc",
				"energy": 0.07307,
				"method": "rhf"
			},
			{
				"type": "unocc",
				"energy": 0.07752,
				"method": "rhf"
			}
		],
		"cosmo_sigma_profile": { 
			"-0.025": 0.0,
			"-0.024": 0.0,
			"-0.023": 0.0,
			"-0.022": 0.0,
			"-0.021": 0.0,
			"-0.02": 0.0,
			"-0.019": 0.0,
			"-0.018": 0.655624435813,
			"-0.017": 2.20055907673,
			"-0.016": 1.67829805839,
			"-0.015": 1.36306639687,
			"-0.014": 0.753856958032,
			"-0.013": 0.78249538766,
			"-0.012": 1.59051534102,
			"-0.011": 2.2864656188,
			"-0.01": 3.35104893007,
			"-0.009": 2.41883776944,
			"-0.008": 2.84437081855,
			"-0.007": 5.77752396069,
			"-0.006": 10.044703147,
			"-0.005": 10.0242031478,
			"-0.004": 9.01355923294,
			"-0.003": 7.5444835882,
			"-0.002": 6.94199652843,
			"-0.001": 9.31254389978,
			"0.0": 11.137099181,
			"0.001": 15.8776541214,
			"0.002": 19.0630104938,
			"0.003": 11.7699510615,
			"0.004": 5.32266659877,
			"0.005": 3.75197570994,
			"0.006": 3.26305753093,
			"0.007": 3.57903681117,
			"0.008": 3.44275765869,
			"0.009": 3.35326375352,
			"0.01": 2.52034237674,
			"0.011": 2.32523487774,
			"0.012": 2.46190833208,
			"0.013": 2.95252298763,
			"0.014": 2.43472075634,
			"0.015": 1.04851887575,
			"0.016": 1.72401815372,
			"0.017": 1.3211701817,
			"0.018": 1.09619759237,
			"0.019": 0.108952833116,
			"0.02": 0.0,
			"0.021": 0.0,
			"0.022": 0.0,
			"0.023": 0.0,
			"0.024": 0.0,
			"0.025": 0.0
		}
	}
}
