{
	 "smiles": "CCCCCCCC(=O)NN", 
	 "Tm": 361.15, 
	 "num_atms": 29, 
	 "gaussian": { 
		 "optdone": 1, 
		 "sigma_profile": "yes", 
		 "theory": "DFT", 
		 "functional": "B3LYP", 
		 "basiset": "6-31G**", 
		 "properties": { 
			 "R2extent": 3650.0199, 
			 "electric_dipole_moment_norm": 2.13345522803, 
			 "electric_quadrupole_moment_norm": 8.00689989197, 
			 "total_energy": -500.431455675, 
			 "HOMO_LUMO_gap": 0.27642, 
			 "cosmo_polarized_energy": -11.55, 
			 "cosmo_cavitation_energy": 30.92, 
			 "cosmo_dispersion_energy": -21.72, 
			 "cosmo_repulsion_energy": 1.82, 
			 "cosmo_total_nonelectrostatic_energy": 11.02, 
			 "SMD_solvation_energy": 5.65 
		},
		"coords": [
			{
				"x": 1.7587720869,
				"y": 3.1236700609,
				"z": -2.5553085024,
				"element": "C" 
			},
			{
				"x": 1.282161566,
				"y": 2.4520296713,
				"z": -1.263028251,
				"element": "C" 
			},
			{
				"x": 1.8265496465,
				"y": 1.0266837116,
				"z": -1.0938197511,
				"element": "C" 
			},
			{
				"x": 1.4478129503,
				"y": 0.3448739677,
				"z": 0.232868641,
				"element": "C" 
			},
			{
				"x": -0.0538741219,
				"y": 0.1004751689,
				"z": 0.4652825496,
				"element": "C" 
			},
			{
				"x": -0.7000365195,
				"y": -0.8610460142,
				"z": -0.5415051404,
				"element": "C" 
			},
			{
				"x": -2.1790506164,
				"y": -1.148931395,
				"z": -0.2461948286,
				"element": "C" 
			},
			{
				"x": -2.3640809353,
				"y": -1.9766803008,
				"z": 1.0218442046,
				"element": "C" 
			},
			{
				"x": -1.6246463805,
				"y": -2.9049054938,
				"z": 1.3308034432,
				"element": "O" 
			},
			{
				"x": -3.4458619033,
				"y": -1.6378217909,
				"z": 1.7903926554,
				"element": "N" 
			},
			{
				"x": -3.6907649073,
				"y": -2.259688162,
				"z": 3.0318448261,
				"element": "N" 
			},
			{
				"x": 1.3580832248,
				"y": 4.1381096004,
				"z": -2.6527350663,
				"element": "H" 
			},
			{
				"x": 1.4418771453,
				"y": 2.5552906103,
				"z": -3.437426888,
				"element": "H" 
			},
			{
				"x": 2.8521984772,
				"y": 3.1934472982,
				"z": -2.5853376719,
				"element": "H" 
			},
			{
				"x": 1.5882449696,
				"y": 3.0592677667,
				"z": -0.3997564195,
				"element": "H" 
			},
			{
				"x": 0.1847081304,
				"y": 2.4380581542,
				"z": -1.2488270646,
				"element": "H" 
			},
			{
				"x": 2.9225471291,
				"y": 1.0598197019,
				"z": -1.1623382379,
				"element": "H" 
			},
			{
				"x": 1.4969019673,
				"y": 0.4108316425,
				"z": -1.94164359,
				"element": "H" 
			},
			{
				"x": 1.8344720103,
				"y": 0.9530314797,
				"z": 1.0620410987,
				"element": "H" 
			},
			{
				"x": 1.97073792,
				"y": -0.6187310663,
				"z": 0.2959083656,
				"element": "H" 
			},
			{
				"x": -0.5953969664,
				"y": 1.0566585189,
				"z": 0.4574147298,
				"element": "H" 
			},
			{
				"x": -0.1785978906,
				"y": -0.3127617649,
				"z": 1.4741709976,
				"element": "H" 
			},
			{
				"x": -0.6217927733,
				"y": -0.4563926914,
				"z": -1.5570930521,
				"element": "H" 
			},
			{
				"x": -0.1621895753,
				"y": -1.8156738593,
				"z": -0.5316324464,
				"element": "H" 
			},
			{
				"x": -2.7557462554,
				"y": -0.2163707355,
				"z": -0.1909211862,
				"element": "H" 
			},
			{
				"x": -2.6110258691,
				"y": -1.73400961,
				"z": -1.0682888981,
				"element": "H" 
			},
			{
				"x": -3.9202138273,
				"y": -0.7573504936,
				"z": 1.6561799793,
				"element": "H" 
			},
			{
				"x": -2.7784390873,
				"y": -2.4330436174,
				"z": 3.456252286,
				"element": "H" 
			},
			{
				"x": -4.0713495947,
				"y": -3.1860403583,
				"z": 2.8386532175,
				"element": "H" 
			}
		],
		 "valence_orbital": [ 
			{
				"type": "occ",
				"energy": -0.31013,
				"method": "rhf"
			},
			{
				"type": "occ",
				"energy": -0.30622,
				"method": "rhf"
			},
			{
				"type": "occ",
				"energy": -0.28327,
				"method": "rhf"
			},
			{
				"type": "occ",
				"energy": -0.25386,
				"method": "rhf"
			},
			{
				"type": "occ",
				"energy": -0.2508,
				"method": "rhf"
			},
			{
				"type": "unocc",
				"energy": 0.02562,
				"method": "rhf"
			},
			{
				"type": "unocc",
				"energy": 0.07518,
				"method": "rhf"
			},
			{
				"type": "unocc",
				"energy": 0.0853,
				"method": "rhf"
			},
			{
				"type": "unocc",
				"energy": 0.09406,
				"method": "rhf"
			},
			{
				"type": "unocc",
				"energy": 0.11338,
				"method": "rhf"
			}
		],
		"cosmo_sigma_profile": { 
			"-0.025": 0.0,
			"-0.024": 0.0,
			"-0.023": 0.0,
			"-0.022": 0.0,
			"-0.021": 0.0,
			"-0.02": 0.0,
			"-0.019": 0.0,
			"-0.018": 0.0,
			"-0.017": 0.0,
			"-0.016": 0.0,
			"-0.015": 0.0214907714987,
			"-0.014": 0.702981506494,
			"-0.013": 1.4147506254,
			"-0.012": 1.19356835662,
			"-0.011": 2.45782959973,
			"-0.01": 3.45692813791,
			"-0.009": 3.99269442037,
			"-0.008": 3.3891687088,
			"-0.007": 2.42010323008,
			"-0.006": 3.60771129847,
			"-0.005": 5.04599226936,
			"-0.004": 6.24420117995,
			"-0.003": 9.35464579333,
			"-0.002": 32.298128537,
			"-0.001": 39.5372613653,
			"0.0": 39.825499898,
			"0.001": 32.8888113627,
			"0.002": 15.4059683289,
			"0.003": 3.63149887493,
			"0.004": 2.2011789433,
			"0.005": 2.30277205252,
			"0.006": 2.7845803481,
			"0.007": 1.84923000751,
			"0.008": 2.21552127637,
			"0.009": 1.70935006752,
			"0.01": 2.73181478892,
			"0.011": 1.76933321864,
			"0.012": 2.26974736988,
			"0.013": 3.09047531653,
			"0.014": 5.74678095329,
			"0.015": 1.43246960494,
			"0.016": 0.50108469586,
			"0.017": 0.37409460776,
			"0.018": 0.0,
			"0.019": 0.0,
			"0.02": 0.0,
			"0.021": 0.0,
			"0.022": 0.0,
			"0.023": 0.0,
			"0.024": 0.0,
			"0.025": 0.0
		}
	}
}
