{
	 "smiles": "CC(=O)C(C(C1=CC=C(C)O1)C1=CC=C(C)O1)C(C)=O", 
	 "Tm": 333.15, 
	 "num_atms": 38, 
	 "gaussian": { 
		 "optdone": 1, 
		 "sigma_profile": "yes", 
		 "theory": "DFT", 
		 "functional": "B3LYP", 
		 "basiset": "6-31G**", 
		 "properties": { 
			 "R2extent": 5726.9761, 
			 "electric_dipole_moment_norm": 1.81757449366, 
			 "electric_quadrupole_moment_norm": 10.1638747651, 
			 "total_energy": -921.408344447, 
			 "HOMO_LUMO_gap": 0.17634, 
			 "cosmo_polarized_energy": -12.55, 
			 "cosmo_cavitation_energy": 41.24, 
			 "cosmo_dispersion_energy": -26.62, 
			 "cosmo_repulsion_energy": 2.09, 
			 "cosmo_total_nonelectrostatic_energy": 16.71, 
			 "SMD_solvation_energy": 9.22 
		},
		"coords": [
			{
				"x": 1.0480693117,
				"y": -0.1081894666,
				"z": 1.0303489649,
				"element": "C" 
			},
			{
				"x": -0.1982089307,
				"y": -0.9639550899,
				"z": 1.0622890307,
				"element": "C" 
			},
			{
				"x": -0.1857682518,
				"y": -2.0842854662,
				"z": 1.5400878986,
				"element": "O" 
			},
			{
				"x": -1.5359637694,
				"y": -0.3976597012,
				"z": 0.5423608722,
				"element": "C" 
			},
			{
				"x": -1.5543273289,
				"y": 0.3988022881,
				"z": -0.8023909213,
				"element": "C" 
			},
			{
				"x": -1.2785296056,
				"y": -0.5078182314,
				"z": -1.9639382596,
				"element": "C" 
			},
			{
				"x": -1.9594700012,
				"y": -0.7821786859,
				"z": -3.111102949,
				"element": "C" 
			},
			{
				"x": -1.1864733308,
				"y": -1.7600437993,
				"z": -3.8222221476,
				"element": "C" 
			},
			{
				"x": -0.087328369,
				"y": -2.0223296386,
				"z": -3.0599159906,
				"element": "C" 
			},
			{
				"x": 1.0830911506,
				"y": -2.9286281843,
				"z": -3.2117675761,
				"element": "C" 
			},
			{
				"x": -0.1330335446,
				"y": -1.261715102,
				"z": -1.9195754002,
				"element": "O" 
			},
			{
				"x": -0.7355097454,
				"y": 1.6695876029,
				"z": -0.8334299447,
				"element": "C" 
			},
			{
				"x": -0.9313083035,
				"y": 2.9156318074,
				"z": -0.312566419,
				"element": "C" 
			},
			{
				"x": 0.1933994597,
				"y": 3.7091925203,
				"z": -0.7153968864,
				"element": "C" 
			},
			{
				"x": 0.9990172555,
				"y": 2.9010829561,
				"z": -1.4617060458,
				"element": "C" 
			},
			{
				"x": 2.2878156538,
				"y": 3.1052158195,
				"z": -2.1782954743,
				"element": "C" 
			},
			{
				"x": 0.4411665155,
				"y": 1.6519332734,
				"z": -1.5418130718,
				"element": "O" 
			},
			{
				"x": -2.3093987433,
				"y": 0.3502806093,
				"z": 1.6558895104,
				"element": "C" 
			},
			{
				"x": -2.2195297152,
				"y": -0.2028849678,
				"z": 3.0628861367,
				"element": "C" 
			},
			{
				"x": -3.0089636398,
				"y": 1.3100193384,
				"z": 1.392626157,
				"element": "O" 
			},
			{
				"x": 1.4013472852,
				"y": -0.0207082454,
				"z": -0.0011025693,
				"element": "H" 
			},
			{
				"x": 1.8165476991,
				"y": -0.5845862198,
				"z": 1.6411836746,
				"element": "H" 
			},
			{
				"x": 0.8494991764,
				"y": 0.9087900781,
				"z": 1.3834884735,
				"element": "H" 
			},
			{
				"x": -2.1398522863,
				"y": -1.3023135967,
				"z": 0.3820562635,
				"element": "H" 
			},
			{
				"x": -2.5955668256,
				"y": 0.7205410476,
				"z": -0.904124245,
				"element": "H" 
			},
			{
				"x": -2.8975681084,
				"y": -0.3402190258,
				"z": -3.4159872491,
				"element": "H" 
			},
			{
				"x": -1.4220116241,
				"y": -2.2130682434,
				"z": -4.7748114095,
				"element": "H" 
			},
			{
				"x": 2.0257131128,
				"y": -2.3692149377,
				"z": -3.2321106813,
				"element": "H" 
			},
			{
				"x": 1.1444156156,
				"y": -3.6456581396,
				"z": -2.3849894372,
				"element": "H" 
			},
			{
				"x": 0.9985898095,
				"y": -3.4888490856,
				"z": -4.1458421887,
				"element": "H" 
			},
			{
				"x": -1.7781974126,
				"y": 3.2207518835,
				"z": 0.282838654,
				"element": "H" 
			},
			{
				"x": 0.3733774788,
				"y": 4.7503316255,
				"z": -0.4865774163,
				"element": "H" 
			},
			{
				"x": 2.1846960063,
				"y": 2.9129384629,
				"z": -3.2525895454,
				"element": "H" 
			},
			{
				"x": 3.0725443629,
				"y": 2.4392025239,
				"z": -1.8004551821,
				"element": "H" 
			},
			{
				"x": 2.6242111584,
				"y": 4.1363063277,
				"z": -2.0468188441,
				"element": "H" 
			},
			{
				"x": -2.2703678595,
				"y": -1.2947244936,
				"z": 3.0686310873,
				"element": "H" 
			},
			{
				"x": -1.2507643867,
				"y": 0.0667655443,
				"z": 3.5013887993,
				"element": "H" 
			},
			{
				"x": -3.0143592693,
				"y": 0.2310566118,
				"z": 3.6707543317,
				"element": "H" 
			}
		],
		 "valence_orbital": [ 
			{
				"type": "occ",
				"energy": -0.27026,
				"method": "rhf"
			},
			{
				"type": "occ",
				"energy": -0.26332,
				"method": "rhf"
			},
			{
				"type": "occ",
				"energy": -0.24409,
				"method": "rhf"
			},
			{
				"type": "occ",
				"energy": -0.21403,
				"method": "rhf"
			},
			{
				"type": "occ",
				"energy": -0.20695,
				"method": "rhf"
			},
			{
				"type": "unocc",
				"energy": -0.03061,
				"method": "rhf"
			},
			{
				"type": "unocc",
				"energy": -0.01364,
				"method": "rhf"
			},
			{
				"type": "unocc",
				"energy": 0.01425,
				"method": "rhf"
			},
			{
				"type": "unocc",
				"energy": 0.02229,
				"method": "rhf"
			},
			{
				"type": "unocc",
				"energy": 0.07442,
				"method": "rhf"
			}
		],
		"cosmo_sigma_profile": { 
			"-0.025": 0.0,
			"-0.024": 0.0,
			"-0.023": 0.0,
			"-0.022": 0.0,
			"-0.021": 0.0,
			"-0.02": 0.0,
			"-0.019": 0.0,
			"-0.018": 0.0,
			"-0.017": 0.0,
			"-0.016": 0.0,
			"-0.015": 0.0,
			"-0.014": 0.0,
			"-0.013": 0.0,
			"-0.012": 0.0,
			"-0.011": 0.0,
			"-0.01": 0.0030701931852,
			"-0.009": 0.409097500258,
			"-0.008": 2.5125256331,
			"-0.007": 6.54966635925,
			"-0.006": 12.7536771978,
			"-0.005": 26.0436092992,
			"-0.004": 30.1269880518,
			"-0.003": 28.5372466029,
			"-0.002": 33.5795547722,
			"-0.001": 36.7227323585,
			"0.0": 26.4645612962,
			"0.001": 16.9495489263,
			"0.002": 17.3856381122,
			"0.003": 16.2085148333,
			"0.004": 15.8194415521,
			"0.005": 14.7003938356,
			"0.006": 11.8564144784,
			"0.007": 6.31660748648,
			"0.008": 3.95922095357,
			"0.009": 4.15298025052,
			"0.01": 4.27627295725,
			"0.011": 5.18750833806,
			"0.012": 4.73402360824,
			"0.013": 0.873536583672,
			"0.014": 0.0,
			"0.015": 0.0,
			"0.016": 0.0,
			"0.017": 0.0,
			"0.018": 0.0,
			"0.019": 0.0,
			"0.02": 0.0,
			"0.021": 0.0,
			"0.022": 0.0,
			"0.023": 0.0,
			"0.024": 0.0,
			"0.025": 0.0
		}
	}
}
