{
	 "smiles": "COC1=C(SC)C=CC(C=O)=C1", 
	 "Tm": 319.15, 
	 "num_atms": 22, 
	 "gaussian": { 
		 "optdone": 1, 
		 "sigma_profile": "yes", 
		 "theory": "DFT", 
		 "functional": "B3LYP", 
		 "basiset": "6-31G**", 
		 "properties": { 
			 "R2extent": 3213.601, 
			 "electric_dipole_moment_norm": 1.9829848537, 
			 "electric_quadrupole_moment_norm": 13.6477482084, 
			 "total_energy": -897.598791514, 
			 "HOMO_LUMO_gap": 0.15343, 
			 "cosmo_polarized_energy": -9.93, 
			 "cosmo_cavitation_energy": 27.59, 
			 "cosmo_dispersion_energy": -20.15, 
			 "cosmo_repulsion_energy": 1.56, 
			 "cosmo_total_nonelectrostatic_energy": 9.0, 
			 "SMD_solvation_energy": 6.72 
		},
		"coords": [
			{
				"x": -1.3207970878,
				"y": -2.4134845787,
				"z": -1.0445555576,
				"element": "C" 
			},
			{
				"x": 0.0594672201,
				"y": -2.3505662974,
				"z": -0.7051457412,
				"element": "O" 
			},
			{
				"x": 0.6126607402,
				"y": -1.1295787158,
				"z": -0.473567774,
				"element": "C" 
			},
			{
				"x": 2.0071151679,
				"y": -1.1070033458,
				"z": -0.2000860481,
				"element": "C" 
			},
			{
				"x": 3.0197342279,
				"y": -2.5746270225,
				"z": -0.2365376415,
				"element": "S" 
			},
			{
				"x": 2.2226215457,
				"y": -3.6660501395,
				"z": 1.0015480022,
				"element": "C" 
			},
			{
				"x": 2.6376997417,
				"y": 0.1238831772,
				"z": 0.012064898,
				"element": "C" 
			},
			{
				"x": 1.9217965875,
				"y": 1.3192781801,
				"z": -0.0360783902,
				"element": "C" 
			},
			{
				"x": 0.5475516005,
				"y": 1.2871058681,
				"z": -0.2824575141,
				"element": "C" 
			},
			{
				"x": -0.2308194398,
				"y": 2.543778887,
				"z": -0.3204272713,
				"element": "C" 
			},
			{
				"x": -1.4291880943,
				"y": 2.609239577,
				"z": -0.5254977144,
				"element": "O" 
			},
			{
				"x": -0.1054229943,
				"y": 0.0636328752,
				"z": -0.4982800952,
				"element": "C" 
			},
			{
				"x": -1.9538325799,
				"y": -2.0441797484,
				"z": -0.2285972153,
				"element": "H" 
			},
			{
				"x": -1.5358535816,
				"y": -3.468007061,
				"z": -1.2209399912,
				"element": "H" 
			},
			{
				"x": -1.5351468494,
				"y": -1.8410376528,
				"z": -1.9547460264,
				"element": "H" 
			},
			{
				"x": 2.2133219865,
				"y": -3.1912884156,
				"z": 1.9846136459,
				"element": "H" 
			},
			{
				"x": 1.2116628544,
				"y": -3.9281738599,
				"z": 0.693043087,
				"element": "H" 
			},
			{
				"x": 2.842834918,
				"y": -4.5643726155,
				"z": 1.0433715124,
				"element": "H" 
			},
			{
				"x": 3.7021311889,
				"y": 0.1292331397,
				"z": 0.2229811736,
				"element": "H" 
			},
			{
				"x": 2.4241918888,
				"y": 2.2683329637,
				"z": 0.131175085,
				"element": "H" 
			},
			{
				"x": 0.3688816469,
				"y": 3.4640660111,
				"z": -0.144027383,
				"element": "H" 
			},
			{
				"x": -1.1702106877,
				"y": 0.091418774,
				"z": -0.6957530406,
				"element": "H" 
			}
		],
		 "valence_orbital": [ 
			{
				"type": "occ",
				"energy": -0.32134,
				"method": "rhf"
			},
			{
				"type": "occ",
				"energy": -0.27131,
				"method": "rhf"
			},
			{
				"type": "occ",
				"energy": -0.25599,
				"method": "rhf"
			},
			{
				"type": "occ",
				"energy": -0.24266,
				"method": "rhf"
			},
			{
				"type": "occ",
				"energy": -0.22054,
				"method": "rhf"
			},
			{
				"type": "unocc",
				"energy": -0.06711,
				"method": "rhf"
			},
			{
				"type": "unocc",
				"energy": -0.00598,
				"method": "rhf"
			},
			{
				"type": "unocc",
				"energy": 0.02521,
				"method": "rhf"
			},
			{
				"type": "unocc",
				"energy": 0.05237,
				"method": "rhf"
			},
			{
				"type": "unocc",
				"energy": 0.07676,
				"method": "rhf"
			}
		],
		"cosmo_sigma_profile": { 
			"-0.025": 0.0,
			"-0.024": 0.0,
			"-0.023": 0.0,
			"-0.022": 0.0,
			"-0.021": 0.0,
			"-0.02": 0.0,
			"-0.019": 0.0,
			"-0.018": 0.0,
			"-0.017": 0.0,
			"-0.016": 0.0,
			"-0.015": 0.0,
			"-0.014": 0.0,
			"-0.013": 0.0,
			"-0.012": 0.0,
			"-0.011": 0.0,
			"-0.01": 0.0,
			"-0.009": 0.0,
			"-0.008": 0.964021957323,
			"-0.007": 7.11965307909,
			"-0.006": 17.5643866478,
			"-0.005": 19.0283542432,
			"-0.004": 19.3203883145,
			"-0.003": 17.7897867621,
			"-0.002": 15.4696283858,
			"-0.001": 17.6025537433,
			"0.0": 13.5272138837,
			"0.001": 15.1730121285,
			"0.002": 18.7818384894,
			"0.003": 15.3622399896,
			"0.004": 6.29855530891,
			"0.005": 6.19357934361,
			"0.006": 4.97471016232,
			"0.007": 5.12325525623,
			"0.008": 4.15706982413,
			"0.009": 4.05108119146,
			"0.01": 4.56916269669,
			"0.011": 4.97638840015,
			"0.012": 3.01563978793,
			"0.013": 0.709931679284,
			"0.014": 0.0,
			"0.015": 0.0,
			"0.016": 0.0,
			"0.017": 0.0,
			"0.018": 0.0,
			"0.019": 0.0,
			"0.02": 0.0,
			"0.021": 0.0,
			"0.022": 0.0,
			"0.023": 0.0,
			"0.024": 0.0,
			"0.025": 0.0
		}
	}
}
