{
	 "smiles": "CCNC1=CC=C(C=C1)S(=O)(=O)C(F)(F)F", 
	 "Tm": 337.15, 
	 "num_atms": 26, 
	 "gaussian": { 
		 "optdone": 1, 
		 "sigma_profile": "yes", 
		 "theory": "DFT", 
		 "functional": "B3LYP", 
		 "basiset": "6-31G**", 
		 "properties": { 
			 "R2extent": 6572.0988, 
			 "electric_dipole_moment_norm": 8.43967429763, 
			 "electric_quadrupole_moment_norm": 14.2597372483, 
			 "total_energy": -1251.81802284, 
			 "HOMO_LUMO_gap": 0.18949, 
			 "cosmo_polarized_energy": -14.05, 
			 "cosmo_cavitation_energy": 32.92, 
			 "cosmo_dispersion_energy": -23.59, 
			 "cosmo_repulsion_energy": 1.75, 
			 "cosmo_total_nonelectrostatic_energy": 11.08, 
			 "SMD_solvation_energy": 5.25 
		},
		"coords": [
			{
				"x": -1.0832379857,
				"y": -0.5060698934,
				"z": -4.3778945731,
				"element": "C" 
			},
			{
				"x": -0.3128159804,
				"y": -0.0710101625,
				"z": -3.1343973995,
				"element": "C" 
			},
			{
				"x": -0.9311612401,
				"y": -0.6160503648,
				"z": -1.9353764073,
				"element": "N" 
			},
			{
				"x": -0.4662428708,
				"y": -0.414754333,
				"z": -0.6625943193,
				"element": "C" 
			},
			{
				"x": -1.0504157757,
				"y": -1.1244384539,
				"z": 0.4159648049,
				"element": "C" 
			},
			{
				"x": -0.6187730437,
				"y": -0.9259918693,
				"z": 1.7141505947,
				"element": "C" 
			},
			{
				"x": 0.4138693687,
				"y": -0.0105276661,
				"z": 1.9674208627,
				"element": "C" 
			},
			{
				"x": 1.0098979419,
				"y": 0.6973009048,
				"z": 0.9184149252,
				"element": "C" 
			},
			{
				"x": 0.5792213293,
				"y": 0.4970230934,
				"z": -0.3854274673,
				"element": "C" 
			},
			{
				"x": 0.9700911076,
				"y": 0.2460630822,
				"z": 3.6253802068,
				"element": "S" 
			},
			{
				"x": 0.6142622025,
				"y": -0.9140533936,
				"z": 4.4496051591,
				"element": "O" 
			},
			{
				"x": 2.3220231025,
				"y": 0.8150397645,
				"z": 3.6102920123,
				"element": "O" 
			},
			{
				"x": -0.1401513999,
				"y": 1.6338135553,
				"z": 4.2261884203,
				"element": "C" 
			},
			{
				"x": 0.174018676,
				"y": 1.9315713223,
				"z": 5.4862960436,
				"element": "F" 
			},
			{
				"x": 0.0271257407,
				"y": 2.7174090086,
				"z": 3.4591839392,
				"element": "F" 
			},
			{
				"x": -1.4212876189,
				"y": 1.2515215108,
				"z": 4.1667850027,
				"element": "F" 
			},
			{
				"x": -0.6231482593,
				"y": -0.0857682279,
				"z": -5.2758441567,
				"element": "H" 
			},
			{
				"x": -1.0814556686,
				"y": -1.5969079723,
				"z": -4.4826201713,
				"element": "H" 
			},
			{
				"x": -2.1222698285,
				"y": -0.1646536154,
				"z": -4.3349420068,
				"element": "H" 
			},
			{
				"x": -0.3078276819,
				"y": 1.0248774561,
				"z": -3.0705302178,
				"element": "H" 
			},
			{
				"x": 0.7381801741,
				"y": -0.3904616113,
				"z": -3.21259939,
				"element": "H" 
			},
			{
				"x": -1.5578674275,
				"y": -1.3959597283,
				"z": -2.0680981235,
				"element": "H" 
			},
			{
				"x": -1.8474237088,
				"y": -1.8354558132,
				"z": 0.2142579061,
				"element": "H" 
			},
			{
				"x": -1.0581576999,
				"y": -1.483005782,
				"z": 2.5344727792,
				"element": "H" 
			},
			{
				"x": 1.8216317302,
				"y": 1.3854236392,
				"z": 1.1284993759,
				"element": "H" 
			},
			{
				"x": 1.0564148163,
				"y": 1.0414655497,
				"z": -1.1914878001,
				"element": "H" 
			}
		],
		 "valence_orbital": [ 
			{
				"type": "occ",
				"energy": -0.32206,
				"method": "rhf"
			},
			{
				"type": "occ",
				"energy": -0.30637,
				"method": "rhf"
			},
			{
				"type": "occ",
				"energy": -0.29274,
				"method": "rhf"
			},
			{
				"type": "occ",
				"energy": -0.27397,
				"method": "rhf"
			},
			{
				"type": "occ",
				"energy": -0.22391,
				"method": "rhf"
			},
			{
				"type": "unocc",
				"energy": -0.03442,
				"method": "rhf"
			},
			{
				"type": "unocc",
				"energy": -0.02108,
				"method": "rhf"
			},
			{
				"type": "unocc",
				"energy": 0.05839,
				"method": "rhf"
			},
			{
				"type": "unocc",
				"energy": 0.06756,
				"method": "rhf"
			},
			{
				"type": "unocc",
				"energy": 0.07496,
				"method": "rhf"
			}
		],
		"cosmo_sigma_profile": { 
			"-0.025": 0.0,
			"-0.024": 0.0,
			"-0.023": 0.0,
			"-0.022": 0.0,
			"-0.021": 0.0,
			"-0.02": 0.0,
			"-0.019": 0.0,
			"-0.018": 0.0,
			"-0.017": 0.0,
			"-0.016": 0.0,
			"-0.015": 0.0,
			"-0.014": 0.385900904474,
			"-0.013": 1.0837449537,
			"-0.012": 1.08833463708,
			"-0.011": 2.02474003423,
			"-0.01": 0.953677500185,
			"-0.009": 1.83103440284,
			"-0.008": 2.24626826557,
			"-0.007": 5.90631615216,
			"-0.006": 8.55585002294,
			"-0.005": 11.8107792065,
			"-0.004": 17.8933647487,
			"-0.003": 19.8316691559,
			"-0.002": 20.5689427697,
			"-0.001": 21.8773858037,
			"0.0": 28.1025467636,
			"0.001": 41.9447186912,
			"0.002": 18.7571592398,
			"0.003": 16.5277882675,
			"0.004": 7.37638636599,
			"0.005": 2.44725970898,
			"0.006": 4.27983249582,
			"0.007": 3.69685647708,
			"0.008": 3.17758444405,
			"0.009": 6.34553252755,
			"0.01": 9.78185497832,
			"0.011": 3.53199091445,
			"0.012": 0.0,
			"0.013": 0.0,
			"0.014": 0.0,
			"0.015": 0.0,
			"0.016": 0.0,
			"0.017": 0.0,
			"0.018": 0.0,
			"0.019": 0.0,
			"0.02": 0.0,
			"0.021": 0.0,
			"0.022": 0.0,
			"0.023": 0.0,
			"0.024": 0.0,
			"0.025": 0.0
		}
	}
}
