{
	 "smiles": "CC1=NC(=CC=C1)C(N)=O", 
	 "Tm": 391.15, 
	 "num_atms": 18, 
	 "gaussian": { 
		 "optdone": 1, 
		 "sigma_profile": "yes", 
		 "theory": "DFT", 
		 "functional": "B3LYP", 
		 "basiset": "6-31G**", 
		 "properties": { 
			 "R2extent": 1975.6656, 
			 "electric_dipole_moment_norm": 3.61611446307, 
			 "electric_quadrupole_moment_norm": 15.6794754868, 
			 "total_energy": -456.322687451, 
			 "HOMO_LUMO_gap": 0.1956, 
			 "cosmo_polarized_energy": -11.41, 
			 "cosmo_cavitation_energy": 22.22, 
			 "cosmo_dispersion_energy": -16.56, 
			 "cosmo_repulsion_energy": 1.36, 
			 "cosmo_total_nonelectrostatic_energy": 7.03, 
			 "SMD_solvation_energy": 3.94 
		},
		"coords": [
			{
				"x": 2.5226105598,
				"y": 0.8412767737,
				"z": -0.2695854766,
				"element": "C" 
			},
			{
				"x": 1.2058255783,
				"y": 0.3580955966,
				"z": 0.2872149166,
				"element": "C" 
			},
			{
				"x": 0.3641967766,
				"y": 1.2834388917,
				"z": 0.7661787953,
				"element": "N" 
			},
			{
				"x": -0.8169137538,
				"y": 0.8845862201,
				"z": 1.268920359,
				"element": "C" 
			},
			{
				"x": -1.220142549,
				"y": -0.4477201473,
				"z": 1.3211647185,
				"element": "C" 
			},
			{
				"x": -0.3455944021,
				"y": -1.4130150216,
				"z": 0.8231138108,
				"element": "C" 
			},
			{
				"x": 0.8789770894,
				"y": -1.0083197599,
				"z": 0.3010104845,
				"element": "C" 
			},
			{
				"x": -1.7466272531,
				"y": 1.9512962207,
				"z": 1.8025460514,
				"element": "C" 
			},
			{
				"x": -1.2539045107,
				"y": 3.2112480984,
				"z": 1.7018746879,
				"element": "N" 
			},
			{
				"x": -2.8424654975,
				"y": 1.6704948171,
				"z": 2.277719083,
				"element": "O" 
			},
			{
				"x": 2.6342986762,
				"y": 0.561553188,
				"z": -1.3232575842,
				"element": "H" 
			},
			{
				"x": 2.5819610485,
				"y": 1.9277597507,
				"z": -0.1885364212,
				"element": "H" 
			},
			{
				"x": 3.3676380302,
				"y": 0.4024117549,
				"z": 0.2728764857,
				"element": "H" 
			},
			{
				"x": -2.1890991015,
				"y": -0.6881407148,
				"z": 1.742250076,
				"element": "H" 
			},
			{
				"x": -0.6152704919,
				"y": -2.4650993895,
				"z": 0.8420089214,
				"element": "H" 
			},
			{
				"x": 1.5824401715,
				"y": -1.7351514967,
				"z": -0.0946538394,
				"element": "H" 
			},
			{
				"x": -1.8111222674,
				"y": 3.9810759727,
				"z": 2.0346173175,
				"element": "H" 
			},
			{
				"x": -0.3404081034,
				"y": 3.3501092451,
				"z": 1.2961376136,
				"element": "H" 
			}
		],
		 "valence_orbital": [ 
			{
				"type": "occ",
				"energy": -0.29284,
				"method": "rhf"
			},
			{
				"type": "occ",
				"energy": -0.27676,
				"method": "rhf"
			},
			{
				"type": "occ",
				"energy": -0.26084,
				"method": "rhf"
			},
			{
				"type": "occ",
				"energy": -0.25525,
				"method": "rhf"
			},
			{
				"type": "occ",
				"energy": -0.24131,
				"method": "rhf"
			},
			{
				"type": "unocc",
				"energy": -0.04571,
				"method": "rhf"
			},
			{
				"type": "unocc",
				"energy": -0.02156,
				"method": "rhf"
			},
			{
				"type": "unocc",
				"energy": 0.06412,
				"method": "rhf"
			},
			{
				"type": "unocc",
				"energy": 0.09214,
				"method": "rhf"
			},
			{
				"type": "unocc",
				"energy": 0.10952,
				"method": "rhf"
			}
		],
		"cosmo_sigma_profile": { 
			"-0.025": 0.0,
			"-0.024": 0.0,
			"-0.023": 0.0,
			"-0.022": 0.0,
			"-0.021": 0.0,
			"-0.02": 0.0,
			"-0.019": 0.0,
			"-0.018": 0.0,
			"-0.017": 0.0,
			"-0.016": 0.0,
			"-0.015": 0.0333019168943,
			"-0.014": 0.904800945919,
			"-0.013": 1.29764985591,
			"-0.012": 0.94701313306,
			"-0.011": 1.93101001904,
			"-0.01": 1.84791990337,
			"-0.009": 1.73598864384,
			"-0.008": 1.77463249483,
			"-0.007": 4.85323329041,
			"-0.006": 7.98330493074,
			"-0.005": 11.274990312,
			"-0.004": 13.0533706765,
			"-0.003": 11.0134515355,
			"-0.002": 11.5719263853,
			"-0.001": 14.5841234742,
			"0.0": 14.4593612565,
			"0.001": 16.9825544084,
			"0.002": 17.0017923589,
			"0.003": 10.0308398633,
			"0.004": 5.69368901023,
			"0.005": 4.22624504733,
			"0.006": 3.49197146769,
			"0.007": 2.94274579833,
			"0.008": 2.3043950784,
			"0.009": 0.785219773419,
			"0.01": 1.34662534905,
			"0.011": 1.50584691278,
			"0.012": 1.82644596095,
			"0.013": 3.76902590052,
			"0.014": 4.84884841021,
			"0.015": 0.83560897239,
			"0.016": 0.0,
			"0.017": 0.0,
			"0.018": 0.0,
			"0.019": 0.0,
			"0.02": 0.0,
			"0.021": 0.0,
			"0.022": 0.0,
			"0.023": 0.0,
			"0.024": 0.0,
			"0.025": 0.0
		}
	}
}
