{
	 "smiles": "CC1=CC=C(S1)C1=CSC2=C1C(=O)NC(CCl)=N2", 
	 "Tm": 290.15, 
	 "num_atms": 27, 
	 "gaussian": { 
		 "optdone": 1, 
		 "sigma_profile": "yes", 
		 "theory": "DFT", 
		 "functional": "B3LYP", 
		 "basiset": "6-31G**", 
		 "properties": { 
			 "R2extent": 7951.8437, 
			 "electric_dipole_moment_norm": 1.5274188751, 
			 "electric_quadrupole_moment_norm": 15.233475098, 
			 "total_energy": -1904.00928992, 
			 "HOMO_LUMO_gap": 0.13963, 
			 "cosmo_polarized_energy": -13.41, 
			 "cosmo_cavitation_energy": 36.17, 
			 "cosmo_dispersion_energy": -27.9, 
			 "cosmo_repulsion_energy": 2.06, 
			 "cosmo_total_nonelectrostatic_energy": 10.32, 
			 "SMD_solvation_energy": 4.09 
		},
		"coords": [
			{
				"x": 3.2020638327,
				"y": -1.9543844902,
				"z": -4.3872464532,
				"element": "C" 
			},
			{
				"x": 2.3201103911,
				"y": -1.5725998957,
				"z": -3.23683078,
				"element": "C" 
			},
			{
				"x": 1.2775234201,
				"y": -2.2733520958,
				"z": -2.6912951014,
				"element": "C" 
			},
			{
				"x": 0.6363845159,
				"y": -1.6133248946,
				"z": -1.6034362571,
				"element": "C" 
			},
			{
				"x": 1.1904350565,
				"y": -0.392822209,
				"z": -1.3002162831,
				"element": "C" 
			},
			{
				"x": 2.5239543711,
				"y": -0.0522140543,
				"z": -2.4030116747,
				"element": "S" 
			},
			{
				"x": 0.8837638282,
				"y": 0.5650199492,
				"z": -0.2345137224,
				"element": "C" 
			},
			{
				"x": 1.8289618823,
				"y": 1.4515808737,
				"z": 0.2335883375,
				"element": "C" 
			},
			{
				"x": 1.2620378362,
				"y": 2.5243262597,
				"z": 1.4708583416,
				"element": "S" 
			},
			{
				"x": -0.3113555848,
				"y": 1.7873385862,
				"z": 1.4116039417,
				"element": "C" 
			},
			{
				"x": -0.374655986,
				"y": 0.7575832473,
				"z": 0.4658733415,
				"element": "C" 
			},
			{
				"x": -1.6589415875,
				"y": 0.0845437325,
				"z": 0.3115772923,
				"element": "C" 
			},
			{
				"x": -1.9780202354,
				"y": -0.8282717599,
				"z": -0.4374120762,
				"element": "O" 
			},
			{
				"x": -2.6389983371,
				"y": 0.6089780231,
				"z": 1.1928132573,
				"element": "N" 
			},
			{
				"x": -2.4512881584,
				"y": 1.6267070236,
				"z": 2.0786689381,
				"element": "C" 
			},
			{
				"x": -3.5812287929,
				"y": 2.0084980486,
				"z": 2.996470407,
				"element": "C" 
			},
			{
				"x": -5.1780842034,
				"y": 2.1338304245,
				"z": 2.1424068639,
				"element": "Cl" 
			},
			{
				"x": -1.3134811382,
				"y": 2.2423566717,
				"z": 2.2171869582,
				"element": "N" 
			},
			{
				"x": 4.2554606845,
				"y": -2.0224811827,
				"z": -4.0918831224,
				"element": "H" 
			},
			{
				"x": 2.8988924937,
				"y": -2.9309310239,
				"z": -4.7748086104,
				"element": "H" 
			},
			{
				"x": 3.1389725982,
				"y": -1.2324746165,
				"z": -5.2096523837,
				"element": "H" 
			},
			{
				"x": 0.9695074265,
				"y": -3.2447858401,
				"z": -3.0639706644,
				"element": "H" 
			},
			{
				"x": -0.2176404168,
				"y": -2.0091871331,
				"z": -1.0730688287,
				"element": "H" 
			},
			{
				"x": 2.8600260208,
				"y": 1.516490584,
				"z": -0.0842410831,
				"element": "H" 
			},
			{
				"x": -3.5608623337,
				"y": 0.2004687365,
				"z": 1.080731402,
				"element": "H" 
			},
			{
				"x": -3.3543245887,
				"y": 2.9745358043,
				"z": 3.4422585078,
				"element": "H" 
			},
			{
				"x": -3.7171129947,
				"y": 1.2610712312,
				"z": 3.7818494518,
				"element": "H" 
			}
		],
		 "valence_orbital": [ 
			{
				"type": "occ",
				"energy": -0.27749,
				"method": "rhf"
			},
			{
				"type": "occ",
				"energy": -0.2722,
				"method": "rhf"
			},
			{
				"type": "occ",
				"energy": -0.24452,
				"method": "rhf"
			},
			{
				"type": "occ",
				"energy": -0.24163,
				"method": "rhf"
			},
			{
				"type": "occ",
				"energy": -0.20247,
				"method": "rhf"
			},
			{
				"type": "unocc",
				"energy": -0.06284,
				"method": "rhf"
			},
			{
				"type": "unocc",
				"energy": -0.03483,
				"method": "rhf"
			},
			{
				"type": "unocc",
				"energy": -0.01633,
				"method": "rhf"
			},
			{
				"type": "unocc",
				"energy": 0.00851,
				"method": "rhf"
			},
			{
				"type": "unocc",
				"energy": 0.01533,
				"method": "rhf"
			}
		],
		"cosmo_sigma_profile": { 
			"-0.025": 0.0,
			"-0.024": 0.0,
			"-0.023": 0.0,
			"-0.022": 0.0,
			"-0.021": 0.0,
			"-0.02": 0.0,
			"-0.019": 0.0,
			"-0.018": 0.0,
			"-0.017": 0.0,
			"-0.016": 0.0,
			"-0.015": 0.178948987371,
			"-0.014": 0.90046008701,
			"-0.013": 0.94940026364,
			"-0.012": 1.13141986783,
			"-0.011": 0.842451808138,
			"-0.01": 4.18146512642,
			"-0.009": 6.49231275,
			"-0.008": 5.20585623591,
			"-0.007": 7.45074602137,
			"-0.006": 7.64026292312,
			"-0.005": 14.0265531312,
			"-0.004": 17.0820782083,
			"-0.003": 20.6329059382,
			"-0.002": 20.7457104471,
			"-0.001": 24.6213979258,
			"0.0": 26.4988109568,
			"0.001": 24.9938430359,
			"0.002": 25.8990010315,
			"0.003": 22.6637135373,
			"0.004": 19.177009926,
			"0.005": 20.3890762539,
			"0.006": 6.20246149086,
			"0.007": 3.01735262115,
			"0.008": 2.48259974962,
			"0.009": 2.92801572701,
			"0.01": 2.98490551689,
			"0.011": 2.50261656927,
			"0.012": 3.76413993599,
			"0.013": 1.58182109778,
			"0.014": 0.0156315004783,
			"0.015": 0.0,
			"0.016": 0.0,
			"0.017": 0.0,
			"0.018": 0.0,
			"0.019": 0.0,
			"0.02": 0.0,
			"0.021": 0.0,
			"0.022": 0.0,
			"0.023": 0.0,
			"0.024": 0.0,
			"0.025": 0.0
		}
	}
}
