{
	 "smiles": "CCOC1=C(OC)C=C(C=C1)C(=O)NN", 
	 "Tm": 435.15, 
	 "num_atms": 29, 
	 "gaussian": { 
		 "optdone": 1, 
		 "sigma_profile": "yes", 
		 "theory": "DFT", 
		 "functional": "B3LYP", 
		 "basiset": "6-31G**", 
		 "properties": { 
			 "R2extent": 4540.8797, 
			 "electric_dipole_moment_norm": 4.45984448608, 
			 "electric_quadrupole_moment_norm": 13.8479609438, 
			 "total_energy": -724.629504874, 
			 "HOMO_LUMO_gap": 0.19336, 
			 "cosmo_polarized_energy": -16.54, 
			 "cosmo_cavitation_energy": 32.83, 
			 "cosmo_dispersion_energy": -23.31, 
			 "cosmo_repulsion_energy": 1.87, 
			 "cosmo_total_nonelectrostatic_energy": 11.39, 
			 "SMD_solvation_energy": 7.86 
		},
		"coords": [
			{
				"x": 3.3063371569,
				"y": 0.9385215496,
				"z": -2.9671436346,
				"element": "C" 
			},
			{
				"x": 2.3808904256,
				"y": 1.1370654398,
				"z": -1.7800417239,
				"element": "C" 
			},
			{
				"x": 1.1872142647,
				"y": 0.3910250164,
				"z": -2.0342531861,
				"element": "O" 
			},
			{
				"x": 0.2054649254,
				"y": 0.3843186466,
				"z": -1.0925368909,
				"element": "C" 
			},
			{
				"x": -0.9354900143,
				"y": -0.4006532763,
				"z": -1.3868379156,
				"element": "C" 
			},
			{
				"x": -1.0258822708,
				"y": -1.1319572098,
				"z": -2.5454794895,
				"element": "O" 
			},
			{
				"x": -1.1584678758,
				"y": -0.3772565919,
				"z": -3.7536551979,
				"element": "C" 
			},
			{
				"x": -1.9661786676,
				"y": -0.4933441781,
				"z": -0.4597080759,
				"element": "C" 
			},
			{
				"x": -1.9078258588,
				"y": 0.1891614606,
				"z": 0.7667178731,
				"element": "C" 
			},
			{
				"x": -0.7977766867,
				"y": 0.9970853029,
				"z": 1.0280189941,
				"element": "C" 
			},
			{
				"x": 0.2548751751,
				"y": 1.0860714799,
				"z": 0.1181231907,
				"element": "C" 
			},
			{
				"x": -3.0137789127,
				"y": 0.1879258641,
				"z": 1.7772014845,
				"element": "C" 
			},
			{
				"x": -3.2622974979,
				"y": 1.177302384,
				"z": 2.4589413283,
				"element": "O" 
			},
			{
				"x": -3.7761444813,
				"y": -0.9587270759,
				"z": 1.9268989014,
				"element": "N" 
			},
			{
				"x": -3.3350442412,
				"y": -2.2833533217,
				"z": 1.6994341965,
				"element": "N" 
			},
			{
				"x": 4.2403874687,
				"y": 1.4859521578,
				"z": -2.8084038385,
				"element": "H" 
			},
			{
				"x": 2.8424698375,
				"y": 1.3064305608,
				"z": -3.886673655,
				"element": "H" 
			},
			{
				"x": 3.5421740087,
				"y": -0.1209254132,
				"z": -3.0989768658,
				"element": "H" 
			},
			{
				"x": 2.8488650629,
				"y": 0.7788098714,
				"z": -0.8530518324,
				"element": "H" 
			},
			{
				"x": 2.1349443917,
				"y": 2.1994625524,
				"z": -1.645949471,
				"element": "H" 
			},
			{
				"x": -1.2653653535,
				"y": -1.1087534946,
				"z": -4.5572180815,
				"element": "H" 
			},
			{
				"x": -2.0534316158,
				"y": 0.2574424446,
				"z": -3.7217225583,
				"element": "H" 
			},
			{
				"x": -0.2766048229,
				"y": 0.2425011358,
				"z": -3.9387598525,
				"element": "H" 
			},
			{
				"x": -2.8270742983,
				"y": -1.0907895214,
				"z": -0.738220484,
				"element": "H" 
			},
			{
				"x": -0.7699352215,
				"y": 1.5592510791,
				"z": 1.9550925615,
				"element": "H" 
			},
			{
				"x": 1.1118582937,
				"y": 1.7037849882,
				"z": 0.3580301187,
				"element": "H" 
			},
			{
				"x": -4.4136622489,
				"y": -0.8841598878,
				"z": 2.7113730281,
				"element": "H" 
			},
			{
				"x": -2.3303227427,
				"y": -2.3481442082,
				"z": 1.8461539,
				"element": "H" 
			},
			{
				"x": -3.5237982003,
				"y": -2.544847755,
				"z": 0.7362471766,
				"element": "H" 
			}
		],
		 "valence_orbital": [ 
			{
				"type": "occ",
				"energy": -0.28149,
				"method": "rhf"
			},
			{
				"type": "occ",
				"energy": -0.25409,
				"method": "rhf"
			},
			{
				"type": "occ",
				"energy": -0.24498,
				"method": "rhf"
			},
			{
				"type": "occ",
				"energy": -0.24135,
				"method": "rhf"
			},
			{
				"type": "occ",
				"energy": -0.22133,
				"method": "rhf"
			},
			{
				"type": "unocc",
				"energy": -0.02797,
				"method": "rhf"
			},
			{
				"type": "unocc",
				"energy": -0.00561,
				"method": "rhf"
			},
			{
				"type": "unocc",
				"energy": 0.05611,
				"method": "rhf"
			},
			{
				"type": "unocc",
				"energy": 0.07151,
				"method": "rhf"
			},
			{
				"type": "unocc",
				"energy": 0.08614,
				"method": "rhf"
			}
		],
		"cosmo_sigma_profile": { 
			"-0.025": 0.0,
			"-0.024": 0.0,
			"-0.023": 0.0,
			"-0.022": 0.0,
			"-0.021": 0.0,
			"-0.02": 0.0,
			"-0.019": 0.0,
			"-0.018": 0.0,
			"-0.017": 0.0,
			"-0.016": 0.0,
			"-0.015": 0.0,
			"-0.014": 0.0,
			"-0.013": 0.437816825945,
			"-0.012": 2.83014794755,
			"-0.011": 2.98271465065,
			"-0.01": 3.85853505136,
			"-0.009": 3.75686701248,
			"-0.008": 4.09734085829,
			"-0.007": 4.90838586948,
			"-0.006": 9.2261333046,
			"-0.005": 16.8694411085,
			"-0.004": 23.4789447562,
			"-0.003": 23.7441165747,
			"-0.002": 24.5655041131,
			"-0.001": 18.8449950597,
			"0.0": 18.1490886496,
			"0.001": 13.772730025,
			"0.002": 13.7233032736,
			"0.003": 13.6183160987,
			"0.004": 10.9765622229,
			"0.005": 7.31576154488,
			"0.006": 5.46644146765,
			"0.007": 3.73540495125,
			"0.008": 4.62958463078,
			"0.009": 4.7198355625,
			"0.01": 4.3447967369,
			"0.011": 3.68184674387,
			"0.012": 4.04163057178,
			"0.013": 5.3466536295,
			"0.014": 4.23557167371,
			"0.015": 0.906537741685,
			"0.016": 0.465873825393,
			"0.017": 0.000705711803498,
			"0.018": 0.0,
			"0.019": 0.0,
			"0.02": 0.0,
			"0.021": 0.0,
			"0.022": 0.0,
			"0.023": 0.0,
			"0.024": 0.0,
			"0.025": 0.0
		}
	}
}
