{
	 "smiles": "CC1=CC(=CC=C1)C1=NN(C=C1C(O)=O)C1=CC=C(F)C=C1", 
	 "Tm": 442.15, 
	 "num_atms": 35, 
	 "gaussian": { 
		 "optdone": 1, 
		 "sigma_profile": "yes", 
		 "theory": "DFT", 
		 "functional": "B3LYP", 
		 "basiset": "6-31G**", 
		 "properties": { 
			 "R2extent": 9510.118, 
			 "electric_dipole_moment_norm": 3.86085982522, 
			 "electric_quadrupole_moment_norm": 24.4492911664, 
			 "total_energy": -1015.4275974, 
			 "HOMO_LUMO_gap": 0.17409, 
			 "cosmo_polarized_energy": -20.21, 
			 "cosmo_cavitation_energy": 40.73, 
			 "cosmo_dispersion_energy": -28.85, 
			 "cosmo_repulsion_energy": 2.15, 
			 "cosmo_total_nonelectrostatic_energy": 14.03, 
			 "SMD_solvation_energy": 7.85 
		},
		"coords": [
			{
				"x": -4.420025004,
				"y": 1.812105278,
				"z": -2.0837988745,
				"element": "C" 
			},
			{
				"x": -3.56617169,
				"y": 0.8776126083,
				"z": -1.2583970892,
				"element": "C" 
			},
			{
				"x": -2.1764278644,
				"y": 1.0386784162,
				"z": -1.2178843353,
				"element": "C" 
			},
			{
				"x": -1.366812025,
				"y": 0.2060442148,
				"z": -0.4330391741,
				"element": "C" 
			},
			{
				"x": -1.9710529397,
				"y": -0.8151466957,
				"z": 0.321222156,
				"element": "C" 
			},
			{
				"x": -3.3509015613,
				"y": -0.9862345918,
				"z": 0.2837153727,
				"element": "C" 
			},
			{
				"x": -4.1447853331,
				"y": -0.1472309711,
				"z": -0.500533333,
				"element": "C" 
			},
			{
				"x": 0.1041620532,
				"y": 0.3375974868,
				"z": -0.4038802457,
				"element": "C" 
			},
			{
				"x": 0.8338906532,
				"y": -0.7279630491,
				"z": -0.0674017395,
				"element": "N" 
			},
			{
				"x": 2.1316131715,
				"y": -0.3353585751,
				"z": -0.1116651218,
				"element": "N" 
			},
			{
				"x": 2.2498114888,
				"y": 0.957705881,
				"z": -0.4994852301,
				"element": "C" 
			},
			{
				"x": 0.9677000688,
				"y": 1.4480760354,
				"z": -0.701702521,
				"element": "C" 
			},
			{
				"x": 0.6575304111,
				"y": 2.8596562986,
				"z": -1.0259905441,
				"element": "C" 
			},
			{
				"x": 1.6303673894,
				"y": 3.5159402054,
				"z": -1.7294687844,
				"element": "O" 
			},
			{
				"x": -0.3405305355,
				"y": 3.4530957697,
				"z": -0.6942963759,
				"element": "O" 
			},
			{
				"x": 3.1657468816,
				"y": -1.2577987713,
				"z": 0.2067934068,
				"element": "C" 
			},
			{
				"x": 4.4120548557,
				"y": -0.8001496996,
				"z": 0.6475895437,
				"element": "C" 
			},
			{
				"x": 5.4253323697,
				"y": -1.7126499628,
				"z": 0.9352460372,
				"element": "C" 
			},
			{
				"x": 5.1677187243,
				"y": -3.0715578107,
				"z": 0.7952999977,
				"element": "C" 
			},
			{
				"x": 6.1439924852,
				"y": -3.9551079078,
				"z": 1.0793698884,
				"element": "F" 
			},
			{
				"x": 3.9275740968,
				"y": -3.5429739612,
				"z": 0.3767425488,
				"element": "C" 
			},
			{
				"x": 2.9210508497,
				"y": -2.6295422625,
				"z": 0.0764377982,
				"element": "C" 
			},
			{
				"x": -4.6726729615,
				"y": 2.7171306179,
				"z": -1.5177079542,
				"element": "H" 
			},
			{
				"x": -3.8996338594,
				"y": 2.1350817646,
				"z": -2.9905312162,
				"element": "H" 
			},
			{
				"x": -5.3602342737,
				"y": 1.3381834476,
				"z": -2.3814590824,
				"element": "H" 
			},
			{
				"x": -1.727753676,
				"y": 1.8334578976,
				"z": -1.80080907,
				"element": "H" 
			},
			{
				"x": -1.3493547282,
				"y": -1.4634094967,
				"z": 0.9283885688,
				"element": "H" 
			},
			{
				"x": -3.8120458832,
				"y": -1.7767641722,
				"z": 0.8691552713,
				"element": "H" 
			},
			{
				"x": -5.2227466208,
				"y": -0.2877102772,
				"z": -0.5232778062,
				"element": "H" 
			},
			{
				"x": 3.2111075002,
				"y": 1.4433906385,
				"z": -0.5768633067,
				"element": "H" 
			},
			{
				"x": 2.2519559187,
				"y": 2.8753403933,
				"z": -2.1020103984,
				"element": "H" 
			},
			{
				"x": 4.5926638156,
				"y": 0.2594423765,
				"z": 0.7927164572,
				"element": "H" 
			},
			{
				"x": 6.3985149962,
				"y": -1.3826842341,
				"z": 1.2809051511,
				"element": "H" 
			},
			{
				"x": 3.7635580419,
				"y": -4.6107714714,
				"z": 0.2835128799,
				"element": "H" 
			},
			{
				"x": 1.9447031842,
				"y": -2.9611854198,
				"z": -0.2540928751,
				"element": "H" 
			}
		],
		 "valence_orbital": [ 
			{
				"type": "occ",
				"energy": -0.2801,
				"method": "rhf"
			},
			{
				"type": "occ",
				"energy": -0.27477,
				"method": "rhf"
			},
			{
				"type": "occ",
				"energy": -0.25193,
				"method": "rhf"
			},
			{
				"type": "occ",
				"energy": -0.23634,
				"method": "rhf"
			},
			{
				"type": "occ",
				"energy": -0.22222,
				"method": "rhf"
			},
			{
				"type": "unocc",
				"energy": -0.04813,
				"method": "rhf"
			},
			{
				"type": "unocc",
				"energy": -0.03655,
				"method": "rhf"
			},
			{
				"type": "unocc",
				"energy": -0.02972,
				"method": "rhf"
			},
			{
				"type": "unocc",
				"energy": 0.0038,
				"method": "rhf"
			},
			{
				"type": "unocc",
				"energy": 0.00789,
				"method": "rhf"
			}
		],
		"cosmo_sigma_profile": { 
			"-0.025": 0.0,
			"-0.024": 0.0,
			"-0.023": 0.0,
			"-0.022": 0.0,
			"-0.021": 0.0,
			"-0.02": 0.0,
			"-0.019": 0.131925378353,
			"-0.018": 1.16384366679,
			"-0.017": 1.1487835218,
			"-0.016": 0.978260403865,
			"-0.015": 1.3444849295,
			"-0.014": 1.21371466762,
			"-0.013": 1.18004620032,
			"-0.012": 2.14001262083,
			"-0.011": 3.21689159702,
			"-0.01": 2.56597025408,
			"-0.009": 2.49678336351,
			"-0.008": 5.62825872704,
			"-0.007": 7.05151727713,
			"-0.006": 10.6859981942,
			"-0.005": 15.5933972099,
			"-0.004": 21.56971672,
			"-0.003": 19.0585290046,
			"-0.002": 22.5145905482,
			"-0.001": 23.778508692,
			"0.0": 31.095934409,
			"0.001": 25.9726754969,
			"0.002": 26.7038058441,
			"0.003": 22.4782592213,
			"0.004": 21.7815947364,
			"0.005": 15.9013786881,
			"0.006": 9.41555770942,
			"0.007": 4.99608450833,
			"0.008": 5.02667288946,
			"0.009": 3.81721319445,
			"0.01": 5.00360953994,
			"0.011": 5.5633362241,
			"0.012": 4.59081110352,
			"0.013": 1.49790367653,
			"0.014": 0.0313843506608,
			"0.015": 0.0,
			"0.016": 0.0,
			"0.017": 0.0,
			"0.018": 0.0,
			"0.019": 0.0,
			"0.02": 0.0,
			"0.021": 0.0,
			"0.022": 0.0,
			"0.023": 0.0,
			"0.024": 0.0,
			"0.025": 0.0
		}
	}
}
