{
	 "smiles": "OC(=O)C1CC(=O)NC2=C1C=CC=C2", 
	 "Tm": 485.15, 
	 "num_atms": 23, 
	 "gaussian": { 
		 "optdone": 1, 
		 "sigma_profile": "yes", 
		 "theory": "DFT", 
		 "functional": "B3LYP", 
		 "basiset": "6-31G**", 
		 "properties": { 
			 "R2extent": 3028.6343, 
			 "electric_dipole_moment_norm": 6.53063856832, 
			 "electric_quadrupole_moment_norm": 20.7024165952, 
			 "total_energy": -666.945203157, 
			 "HOMO_LUMO_gap": 0.2, 
			 "cosmo_polarized_energy": -20.29, 
			 "cosmo_cavitation_energy": 26.7, 
			 "cosmo_dispersion_energy": -19.49, 
			 "cosmo_repulsion_energy": 1.52, 
			 "cosmo_total_nonelectrostatic_energy": 8.73, 
			 "SMD_solvation_energy": 6.02 
		},
		"coords": [
			{
				"x": 0.8433170962,
				"y": -3.4851573263,
				"z": -0.9547161559,
				"element": "O" 
			},
			{
				"x": -0.0825812202,
				"y": -2.9757619823,
				"z": -0.1169037557,
				"element": "C" 
			},
			{
				"x": -1.0284681295,
				"y": -3.6329525246,
				"z": 0.2399590228,
				"element": "O" 
			},
			{
				"x": 0.1755464958,
				"y": -1.5377959869,
				"z": 0.412763285,
				"element": "C" 
			},
			{
				"x": -1.1649943515,
				"y": -0.8276398259,
				"z": 0.6639501132,
				"element": "C" 
			},
			{
				"x": -1.8060806672,
				"y": -0.2776350015,
				"z": -0.6010347409,
				"element": "C" 
			},
			{
				"x": -3.004384775,
				"y": -0.1188602844,
				"z": -0.7438222221,
				"element": "O" 
			},
			{
				"x": -0.9123960735,
				"y": 0.0880871219,
				"z": -1.5987512907,
				"element": "N" 
			},
			{
				"x": 0.4827158621,
				"y": 0.0597233795,
				"z": -1.4963718855,
				"element": "C" 
			},
			{
				"x": 1.0785426326,
				"y": -0.7138529207,
				"z": -0.4792690741,
				"element": "C" 
			},
			{
				"x": 2.4737518857,
				"y": -0.7204429106,
				"z": -0.3674297223,
				"element": "C" 
			},
			{
				"x": 3.2751782734,
				"y": -0.0017164853,
				"z": -1.2578764912,
				"element": "C" 
			},
			{
				"x": 2.6714257267,
				"y": 0.7424267993,
				"z": -2.2729163577,
				"element": "C" 
			},
			{
				"x": 1.2830695835,
				"y": 0.7814016789,
				"z": -2.3903723707,
				"element": "C" 
			},
			{
				"x": 1.4923722182,
				"y": -2.7972295711,
				"z": -1.1778676272,
				"element": "H" 
			},
			{
				"x": 0.6731950883,
				"y": -1.6948892496,
				"z": 1.3787153562,
				"element": "H" 
			},
			{
				"x": -1.8768710079,
				"y": -1.5110780853,
				"z": 1.1272388032,
				"element": "H" 
			},
			{
				"x": -1.013840985,
				"y": 0.0209576521,
				"z": 1.342688204,
				"element": "H" 
			},
			{
				"x": -1.338444841,
				"y": 0.54004235,
				"z": -2.3982378288,
				"element": "H" 
			},
			{
				"x": 2.9345195533,
				"y": -1.295704538,
				"z": 0.4327471759,
				"element": "H" 
			},
			{
				"x": 4.3552535767,
				"y": -0.0197704624,
				"z": -1.1558703878,
				"element": "H" 
			},
			{
				"x": 3.2811382128,
				"y": 1.3058364234,
				"z": -2.9726964832,
				"element": "H" 
			},
			{
				"x": 0.8144358455,
				"y": 1.37501175,
				"z": -3.1707255667,
				"element": "H" 
			}
		],
		 "valence_orbital": [ 
			{
				"type": "occ",
				"energy": -0.31789,
				"method": "rhf"
			},
			{
				"type": "occ",
				"energy": -0.29312,
				"method": "rhf"
			},
			{
				"type": "occ",
				"energy": -0.2659,
				"method": "rhf"
			},
			{
				"type": "occ",
				"energy": -0.26179,
				"method": "rhf"
			},
			{
				"type": "occ",
				"energy": -0.23588,
				"method": "rhf"
			},
			{
				"type": "unocc",
				"energy": -0.03588,
				"method": "rhf"
			},
			{
				"type": "unocc",
				"energy": -0.03071,
				"method": "rhf"
			},
			{
				"type": "unocc",
				"energy": 0.00297,
				"method": "rhf"
			},
			{
				"type": "unocc",
				"energy": 0.027,
				"method": "rhf"
			},
			{
				"type": "unocc",
				"energy": 0.07238,
				"method": "rhf"
			}
		],
		"cosmo_sigma_profile": { 
			"-0.025": 0.0,
			"-0.024": 0.0,
			"-0.023": 0.0,
			"-0.022": 0.0,
			"-0.021": 0.0,
			"-0.02": 0.0,
			"-0.019": 0.0,
			"-0.018": 0.0,
			"-0.017": 0.0,
			"-0.016": 0.0,
			"-0.015": 0.732406335045,
			"-0.014": 1.32063871804,
			"-0.013": 1.66283025526,
			"-0.012": 2.07296818623,
			"-0.011": 1.84838752021,
			"-0.01": 3.07752144827,
			"-0.009": 4.87770842577,
			"-0.008": 6.71929512022,
			"-0.007": 11.3963910754,
			"-0.006": 14.8032591431,
			"-0.005": 13.6784453077,
			"-0.004": 15.5299075069,
			"-0.003": 12.9304020388,
			"-0.002": 9.8761219444,
			"-0.001": 9.37339664507,
			"0.0": 11.7523188988,
			"0.001": 10.0581839166,
			"0.002": 8.920633501,
			"0.003": 10.7330066402,
			"0.004": 11.2461712959,
			"0.005": 5.03091825756,
			"0.006": 4.1518111886,
			"0.007": 2.85925809068,
			"0.008": 4.65341826239,
			"0.009": 4.67179312235,
			"0.01": 6.71729549095,
			"0.011": 6.53738914184,
			"0.012": 7.68646842628,
			"0.013": 6.10325770133,
			"0.014": 1.48294737385,
			"0.015": 0.0345783634294,
			"0.016": 0.0,
			"0.017": 0.0,
			"0.018": 0.0,
			"0.019": 0.0,
			"0.02": 0.0,
			"0.021": 0.0,
			"0.022": 0.0,
			"0.023": 0.0,
			"0.024": 0.0,
			"0.025": 0.0
		}
	}
}
