{
	 "smiles": "CC(=O)NC1C(O)OC(CO)C(O)C1O", 
	 "Tm": 484.15, 
	 "num_atms": 30, 
	 "gaussian": { 
		 "optdone": 1, 
		 "sigma_profile": "yes", 
		 "theory": "DFT", 
		 "functional": "B3LYP", 
		 "basiset": "6-31G**", 
		 "properties": { 
			 "R2extent": 3523.0775, 
			 "electric_dipole_moment_norm": 3.52612513249, 
			 "electric_quadrupole_moment_norm": 36.6537407941, 
			 "total_energy": -819.947349198, 
			 "HOMO_LUMO_gap": 0.2661, 
			 "cosmo_polarized_energy": -28.51, 
			 "cosmo_cavitation_energy": 30.69, 
			 "cosmo_dispersion_energy": -22.38, 
			 "cosmo_repulsion_energy": 1.77, 
			 "cosmo_total_nonelectrostatic_energy": 10.09, 
			 "SMD_solvation_energy": 5.49 
		},
		"coords": [
			{
				"x": -0.7711588624,
				"y": -3.6025358313,
				"z": 0.5573828115,
				"element": "C" 
			},
			{
				"x": -0.964958734,
				"y": -3.5607358717,
				"z": -0.9479526983,
				"element": "C" 
			},
			{
				"x": -1.1095904874,
				"y": -4.5883991275,
				"z": -1.5977719731,
				"element": "O" 
			},
			{
				"x": -1.0900547122,
				"y": -2.3388231441,
				"z": -1.5895807951,
				"element": "N" 
			},
			{
				"x": -0.6632145735,
				"y": -0.9983448017,
				"z": -1.2117535444,
				"element": "C" 
			},
			{
				"x": -1.3551782113,
				"y": -0.4548457531,
				"z": 0.0671609287,
				"element": "C" 
			},
			{
				"x": -2.2196087134,
				"y": 0.579866671,
				"z": -0.3581813624,
				"element": "O" 
			},
			{
				"x": -0.4544782273,
				"y": -0.0390848248,
				"z": 1.0672305591,
				"element": "O" 
			},
			{
				"x": 0.6175730523,
				"y": 0.8516760053,
				"z": 0.7150379942,
				"element": "C" 
			},
			{
				"x": 0.19372513,
				"y": 2.3152633341,
				"z": 0.9313534657,
				"element": "C" 
			},
			{
				"x": 1.2544428927,
				"y": 3.209396942,
				"z": 0.6366139576,
				"element": "O" 
			},
			{
				"x": 1.2065892721,
				"y": 0.6027281611,
				"z": -0.6938606585,
				"element": "C" 
			},
			{
				"x": 0.696849194,
				"y": 1.584499414,
				"z": -1.6070766358,
				"element": "O" 
			},
			{
				"x": 0.8695164667,
				"y": -0.8161637069,
				"z": -1.1815881266,
				"element": "C" 
			},
			{
				"x": 1.466775341,
				"y": -1.7912925192,
				"z": -0.344434737,
				"element": "O" 
			},
			{
				"x": -0.2185864476,
				"y": -4.5141248217,
				"z": 0.7905014641,
				"element": "H" 
			},
			{
				"x": -0.2459587822,
				"y": -2.7430699192,
				"z": 0.9693953542,
				"element": "H" 
			},
			{
				"x": -1.7572256487,
				"y": -3.6875727331,
				"z": 1.0291265826,
				"element": "H" 
			},
			{
				"x": -1.2512012046,
				"y": -2.4829826388,
				"z": -2.5785097707,
				"element": "H" 
			},
			{
				"x": -1.012608386,
				"y": -0.3392559128,
				"z": -2.0091866982,
				"element": "H" 
			},
			{
				"x": -1.9299022646,
				"y": -1.2494046056,
				"z": 0.5517876865,
				"element": "H" 
			},
			{
				"x": -2.7078805247,
				"y": 0.8823020234,
				"z": 0.4204748299,
				"element": "H" 
			},
			{
				"x": 1.4056731796,
				"y": 0.6091719032,
				"z": 1.4333700946,
				"element": "H" 
			},
			{
				"x": -0.063614348,
				"y": 2.4472719787,
				"z": 1.9867415239,
				"element": "H" 
			},
			{
				"x": -0.6989387138,
				"y": 2.520400402,
				"z": 0.3303123424,
				"element": "H" 
			},
			{
				"x": 1.3081008697,
				"y": 3.2205989862,
				"z": -0.3300126343,
				"element": "H" 
			},
			{
				"x": 2.2992262638,
				"y": 0.705582319,
				"z": -0.6214009189,
				"element": "H" 
			},
			{
				"x": 1.1330884758,
				"y": 1.4588926517,
				"z": -2.4601394225,
				"element": "H" 
			},
			{
				"x": 1.2297271103,
				"y": -0.9349171477,
				"z": -2.2178797756,
				"element": "H" 
			},
			{
				"x": 2.4093715938,
				"y": -1.8384974326,
				"z": -0.5462598436,
				"element": "H" 
			}
		],
		 "valence_orbital": [ 
			{
				"type": "occ",
				"energy": -0.29043,
				"method": "rhf"
			},
			{
				"type": "occ",
				"energy": -0.27928,
				"method": "rhf"
			},
			{
				"type": "occ",
				"energy": -0.25288,
				"method": "rhf"
			},
			{
				"type": "occ",
				"energy": -0.24516,
				"method": "rhf"
			},
			{
				"type": "occ",
				"energy": -0.23498,
				"method": "rhf"
			},
			{
				"type": "unocc",
				"energy": 0.03112,
				"method": "rhf"
			},
			{
				"type": "unocc",
				"energy": 0.03586,
				"method": "rhf"
			},
			{
				"type": "unocc",
				"energy": 0.04248,
				"method": "rhf"
			},
			{
				"type": "unocc",
				"energy": 0.06985,
				"method": "rhf"
			},
			{
				"type": "unocc",
				"energy": 0.08624,
				"method": "rhf"
			}
		],
		"cosmo_sigma_profile": { 
			"-0.025": 0.0,
			"-0.024": 0.0,
			"-0.023": 0.0,
			"-0.022": 0.0,
			"-0.021": 0.0,
			"-0.02": 0.0,
			"-0.019": 0.0,
			"-0.018": 0.0,
			"-0.017": 0.663433005869,
			"-0.016": 2.67161002576,
			"-0.015": 3.45239999273,
			"-0.014": 3.44509605931,
			"-0.013": 3.28235698948,
			"-0.012": 4.10320823568,
			"-0.011": 4.03566053684,
			"-0.01": 5.08398329799,
			"-0.009": 5.15316693178,
			"-0.008": 6.56584415022,
			"-0.007": 7.08092759954,
			"-0.006": 12.4909935142,
			"-0.005": 13.9452215255,
			"-0.004": 12.5514648158,
			"-0.003": 13.9422250565,
			"-0.002": 13.2058548858,
			"-0.001": 11.6597849777,
			"0.0": 12.2136468071,
			"0.001": 7.49201379192,
			"0.002": 8.65407184609,
			"0.003": 5.85802317187,
			"0.004": 8.18709776063,
			"0.005": 9.09656272988,
			"0.006": 7.63606790501,
			"0.007": 6.09626122814,
			"0.008": 5.82304380131,
			"0.009": 5.67914867749,
			"0.01": 6.33592551967,
			"0.011": 6.09638799311,
			"0.012": 7.0304661066,
			"0.013": 5.7907030977,
			"0.014": 7.88883123466,
			"0.015": 3.71318123818,
			"0.016": 0.149595573996,
			"0.017": 0.0,
			"0.018": 0.0,
			"0.019": 0.0,
			"0.02": 0.0,
			"0.021": 0.0,
			"0.022": 0.0,
			"0.023": 0.0,
			"0.024": 0.0,
			"0.025": 0.0
		}
	}
}
