{
	 "smiles": "CN1N=C(N=C1CC#N)C1=CC=CC=C1", 
	 "Tm": 390.15, 
	 "num_atms": 25, 
	 "gaussian": { 
		 "optdone": 1, 
		 "sigma_profile": "yes", 
		 "theory": "DFT", 
		 "functional": "B3LYP", 
		 "basiset": "6-31G**", 
		 "properties": { 
			 "R2extent": 4475.0403, 
			 "electric_dipole_moment_norm": 2.70049055914, 
			 "electric_quadrupole_moment_norm": 19.2329387393, 
			 "total_energy": -644.183564746, 
			 "HOMO_LUMO_gap": 0.19771, 
			 "cosmo_polarized_energy": -15.35, 
			 "cosmo_cavitation_energy": 30.68, 
			 "cosmo_dispersion_energy": -21.72, 
			 "cosmo_repulsion_energy": 1.69, 
			 "cosmo_total_nonelectrostatic_energy": 10.65, 
			 "SMD_solvation_energy": 4.07 
		},
		"coords": [
			{
				"x": 2.8580538859,
				"y": -0.1717954073,
				"z": 2.0672024614,
				"element": "C" 
			},
			{
				"x": 2.1223203402,
				"y": 0.2492033354,
				"z": 0.8848042839,
				"element": "N" 
			},
			{
				"x": 0.8374518454,
				"y": -0.1453434262,
				"z": 0.7002597603,
				"element": "N" 
			},
			{
				"x": 0.5256449942,
				"y": 0.3802806145,
				"z": -0.4840019134,
				"element": "C" 
			},
			{
				"x": 1.5483747302,
				"y": 1.0819300172,
				"z": -1.0656299236,
				"element": "N" 
			},
			{
				"x": 2.5277874789,
				"y": 0.9756672212,
				"z": -0.1861319052,
				"element": "C" 
			},
			{
				"x": 3.8855093191,
				"y": 1.6042697564,
				"z": -0.3456285698,
				"element": "C" 
			},
			{
				"x": 4.9916222902,
				"y": 0.643552556,
				"z": -0.2456571217,
				"element": "C" 
			},
			{
				"x": 5.855317662,
				"y": -0.1239039018,
				"z": -0.139662475,
				"element": "N" 
			},
			{
				"x": -0.796467422,
				"y": 0.2223676388,
				"z": -1.1056992844,
				"element": "C" 
			},
			{
				"x": -1.0564289887,
				"y": 0.8040443484,
				"z": -2.3551467672,
				"element": "C" 
			},
			{
				"x": -2.3083593178,
				"y": 0.6570578111,
				"z": -2.9500630429,
				"element": "C" 
			},
			{
				"x": -3.3120913079,
				"y": -0.069948182,
				"z": -2.3064970351,
				"element": "C" 
			},
			{
				"x": -3.0571069019,
				"y": -0.6513128256,
				"z": -1.0613703296,
				"element": "C" 
			},
			{
				"x": -1.8080390881,
				"y": -0.5078250783,
				"z": -0.4622944617,
				"element": "C" 
			},
			{
				"x": 2.1254797131,
				"y": -0.4567169987,
				"z": 2.8212252622,
				"element": "H" 
			},
			{
				"x": 3.5082374011,
				"y": -1.022144636,
				"z": 1.8431964263,
				"element": "H" 
			},
			{
				"x": 3.4668945005,
				"y": 0.652923594,
				"z": 2.4454481938,
				"element": "H" 
			},
			{
				"x": 4.0466250231,
				"y": 2.3947584496,
				"z": 0.3993858952,
				"element": "H" 
			},
			{
				"x": 3.9045621021,
				"y": 2.0793078626,
				"z": -1.3303697597,
				"element": "H" 
			},
			{
				"x": -0.2695145594,
				"y": 1.3661140838,
				"z": -2.8465689691,
				"element": "H" 
			},
			{
				"x": -2.5005463446,
				"y": 1.1107198664,
				"z": -3.9182267837,
				"element": "H" 
			},
			{
				"x": -4.2871511359,
				"y": -0.1836688802,
				"z": -2.7716541718,
				"element": "H" 
			},
			{
				"x": -3.8340668444,
				"y": -1.2183385736,
				"z": -0.5564820044,
				"element": "H" 
			},
			{
				"x": -1.6035093752,
				"y": -0.9571992456,
				"z": 0.5038622353,
				"element": "H" 
			}
		],
		 "valence_orbital": [ 
			{
				"type": "occ",
				"energy": -0.30264,
				"method": "rhf"
			},
			{
				"type": "occ",
				"energy": -0.28825,
				"method": "rhf"
			},
			{
				"type": "occ",
				"energy": -0.28295,
				"method": "rhf"
			},
			{
				"type": "occ",
				"energy": -0.24812,
				"method": "rhf"
			},
			{
				"type": "occ",
				"energy": -0.22699,
				"method": "rhf"
			},
			{
				"type": "unocc",
				"energy": -0.02928,
				"method": "rhf"
			},
			{
				"type": "unocc",
				"energy": -0.00793,
				"method": "rhf"
			},
			{
				"type": "unocc",
				"energy": 0.00479,
				"method": "rhf"
			},
			{
				"type": "unocc",
				"energy": 0.01767,
				"method": "rhf"
			},
			{
				"type": "unocc",
				"energy": 0.02954,
				"method": "rhf"
			}
		],
		"cosmo_sigma_profile": { 
			"-0.025": 0.0,
			"-0.024": 0.0,
			"-0.023": 0.0,
			"-0.022": 0.0,
			"-0.021": 0.0,
			"-0.02": 0.0,
			"-0.019": 0.0,
			"-0.018": 0.0,
			"-0.017": 0.0,
			"-0.016": 0.0,
			"-0.015": 0.0,
			"-0.014": 0.0,
			"-0.013": 0.0,
			"-0.012": 0.0880311225032,
			"-0.011": 2.89121642128,
			"-0.01": 6.23421218967,
			"-0.009": 5.05567259274,
			"-0.008": 5.24621938865,
			"-0.007": 8.77740298035,
			"-0.006": 11.858740098,
			"-0.005": 18.1060222108,
			"-0.004": 22.6601261152,
			"-0.003": 15.3397862756,
			"-0.002": 12.0840759755,
			"-0.001": 13.1935235712,
			"0.0": 9.52397994802,
			"0.001": 12.0855393056,
			"0.002": 15.0069800869,
			"0.003": 18.5010640957,
			"0.004": 15.6763150263,
			"0.005": 16.3149565225,
			"0.006": 7.12421955271,
			"0.007": 5.37124236455,
			"0.008": 6.45779753616,
			"0.009": 4.60472044808,
			"0.01": 4.80490341255,
			"0.011": 4.84751978271,
			"0.012": 3.60524001845,
			"0.013": 1.40879930936,
			"0.014": 0.0,
			"0.015": 0.0,
			"0.016": 0.0,
			"0.017": 0.0,
			"0.018": 0.0,
			"0.019": 0.0,
			"0.02": 0.0,
			"0.021": 0.0,
			"0.022": 0.0,
			"0.023": 0.0,
			"0.024": 0.0,
			"0.025": 0.0
		}
	}
}
