{
	 "smiles": "NCC1=CC=C(OC2CCOCC2)C=C1", 
	 "Tm": 315.65, 
	 "num_atms": 32, 
	 "gaussian": { 
		 "optdone": 1, 
		 "sigma_profile": "yes", 
		 "theory": "DFT", 
		 "functional": "B3LYP", 
		 "basiset": "6-31G**", 
		 "properties": { 
			 "R2extent": 5467.576, 
			 "electric_dipole_moment_norm": 1.9862493348, 
			 "electric_quadrupole_moment_norm": 8.48654764141, 
			 "total_energy": -672.695848593, 
			 "HOMO_LUMO_gap": 0.20687, 
			 "cosmo_polarized_energy": -11.39, 
			 "cosmo_cavitation_energy": 33.61, 
			 "cosmo_dispersion_energy": -24.56, 
			 "cosmo_repulsion_energy": 1.95, 
			 "cosmo_total_nonelectrostatic_energy": 11.0, 
			 "SMD_solvation_energy": 3.87 
		},
		"coords": [
			{
				"x": -0.9631017237,
				"y": 2.9385316639,
				"z": -3.1287047451,
				"element": "N" 
			},
			{
				"x": -0.6035536739,
				"y": 3.2577150361,
				"z": -1.7349502293,
				"element": "C" 
			},
			{
				"x": 0.0135165833,
				"y": 2.12547371,
				"z": -0.9339345946,
				"element": "C" 
			},
			{
				"x": 1.3915276053,
				"y": 1.8608979434,
				"z": -0.994404341,
				"element": "C" 
			},
			{
				"x": 1.9553906163,
				"y": 0.7917083591,
				"z": -0.309787806,
				"element": "C" 
			},
			{
				"x": 1.1489753858,
				"y": -0.0545660089,
				"z": 0.4671146789,
				"element": "C" 
			},
			{
				"x": 1.8103436382,
				"y": -1.0647155731,
				"z": 1.1094562472,
				"element": "O" 
			},
			{
				"x": 1.0976109231,
				"y": -1.9795389883,
				"z": 1.9493601822,
				"element": "C" 
			},
			{
				"x": 0.389629665,
				"y": -3.0806182245,
				"z": 1.1308696494,
				"element": "C" 
			},
			{
				"x": 0.2679428229,
				"y": -4.371898734,
				"z": 1.9711879159,
				"element": "C" 
			},
			{
				"x": 0.1814194584,
				"y": -4.067317108,
				"z": 3.3569574112,
				"element": "O" 
			},
			{
				"x": 1.4116343638,
				"y": -3.5617670106,
				"z": 3.8729618641,
				"element": "C" 
			},
			{
				"x": 2.1249652174,
				"y": -2.6128818769,
				"z": 2.885662853,
				"element": "C" 
			},
			{
				"x": -0.2268413811,
				"y": 0.1923297993,
				"z": 0.5434067171,
				"element": "C" 
			},
			{
				"x": -0.7731483454,
				"y": 1.2753797755,
				"z": -0.151727514,
				"element": "C" 
			},
			{
				"x": -1.5963540617,
				"y": 2.1405212734,
				"z": -3.1307709831,
				"element": "H" 
			},
			{
				"x": -0.129884553,
				"y": 2.619936369,
				"z": -3.6206313744,
				"element": "H" 
			},
			{
				"x": 0.0862379049,
				"y": 4.1094665543,
				"z": -1.7627197372,
				"element": "H" 
			},
			{
				"x": -1.5125855395,
				"y": 3.6094589131,
				"z": -1.2334273648,
				"element": "H" 
			},
			{
				"x": 2.0360887661,
				"y": 2.5103318012,
				"z": -1.5835647198,
				"element": "H" 
			},
			{
				"x": 3.0218553499,
				"y": 0.5941007297,
				"z": -0.3498689108,
				"element": "H" 
			},
			{
				"x": 0.3668625936,
				"y": -1.42566019,
				"z": 2.5515651934,
				"element": "H" 
			},
			{
				"x": 0.9840350815,
				"y": -3.2716491437,
				"z": 0.2301467511,
				"element": "H" 
			},
			{
				"x": -0.5961858038,
				"y": -2.7391664845,
				"z": 0.8022707487,
				"element": "H" 
			},
			{
				"x": -0.6412192106,
				"y": -4.9243042559,
				"z": 1.7198750902,
				"element": "H" 
			},
			{
				"x": 1.1222531694,
				"y": -5.0413120819,
				"z": 1.780757799,
				"element": "H" 
			},
			{
				"x": 2.0792535869,
				"y": -4.3943187223,
				"z": 4.1464354935,
				"element": "H" 
			},
			{
				"x": 1.1432441763,
				"y": -3.033370733,
				"z": 4.7932970526,
				"element": "H" 
			},
			{
				"x": 2.6709931431,
				"y": -1.8351160897,
				"z": 3.427678278,
				"element": "H" 
			},
			{
				"x": 2.8599622806,
				"y": -3.1525496204,
				"z": 2.2772019744,
				"element": "H" 
			},
			{
				"x": -0.8779755425,
				"y": -0.4398182535,
				"z": 1.1353133201,
				"element": "H" 
			},
			{
				"x": -1.8432924966,
				"y": 1.4576171713,
				"z": -0.0760268999,
				"element": "H" 
			}
		],
		 "valence_orbital": [ 
			{
				"type": "occ",
				"energy": -0.30385,
				"method": "rhf"
			},
			{
				"type": "occ",
				"energy": -0.25367,
				"method": "rhf"
			},
			{
				"type": "occ",
				"energy": -0.24926,
				"method": "rhf"
			},
			{
				"type": "occ",
				"energy": -0.23837,
				"method": "rhf"
			},
			{
				"type": "occ",
				"energy": -0.20904,
				"method": "rhf"
			},
			{
				"type": "unocc",
				"energy": -0.00217,
				"method": "rhf"
			},
			{
				"type": "unocc",
				"energy": 0.01135,
				"method": "rhf"
			},
			{
				"type": "unocc",
				"energy": 0.07035,
				"method": "rhf"
			},
			{
				"type": "unocc",
				"energy": 0.08817,
				"method": "rhf"
			},
			{
				"type": "unocc",
				"energy": 0.09372,
				"method": "rhf"
			}
		],
		"cosmo_sigma_profile": { 
			"-0.025": 0.0,
			"-0.024": 0.0,
			"-0.023": 0.0,
			"-0.022": 0.0,
			"-0.021": 0.0,
			"-0.02": 0.0,
			"-0.019": 0.0,
			"-0.018": 0.0,
			"-0.017": 0.0,
			"-0.016": 0.0,
			"-0.015": 0.0,
			"-0.014": 0.0,
			"-0.013": 0.0,
			"-0.012": 0.0,
			"-0.011": 0.0,
			"-0.01": 0.0393235772319,
			"-0.009": 1.94760285705,
			"-0.008": 2.1889151601,
			"-0.007": 4.55465804241,
			"-0.006": 6.61774315091,
			"-0.005": 16.4233965235,
			"-0.004": 37.4027321365,
			"-0.003": 37.5855332008,
			"-0.002": 26.194721545,
			"-0.001": 20.5447063978,
			"0.0": 15.0683152892,
			"0.001": 11.2684626011,
			"0.002": 10.7291131296,
			"0.003": 10.0750610135,
			"0.004": 12.177383932,
			"0.005": 12.7230187256,
			"0.006": 11.7104055778,
			"0.007": 4.54389371327,
			"0.008": 2.85465599432,
			"0.009": 3.04413617183,
			"0.01": 2.6547441235,
			"0.011": 2.15519786324,
			"0.012": 2.55686258256,
			"0.013": 2.27855343477,
			"0.014": 1.52706794158,
			"0.015": 0.547267666679,
			"0.016": 0.359783223253,
			"0.017": 0.81224193088,
			"0.018": 0.799116517285,
			"0.019": 0.653050130314,
			"0.02": 0.3956309108,
			"0.021": 0.0315682686759,
			"0.022": 0.0,
			"0.023": 0.0,
			"0.024": 0.0,
			"0.025": 0.0
		}
	}
}
