{
	 "smiles": "C[N+](C)(C)CCOP([O-])(=O)OC[C@H](O)CO", 
	 "Tm": 415.15, 
	 "num_atms": 36, 
	 "gaussian": { 
		 "optdone": 1, 
		 "sigma_profile": "yes", 
		 "theory": "DFT", 
		 "functional": "B3LYP", 
		 "basiset": "6-31G**", 
		 "properties": { 
			 "R2extent": 5106.0609, 
			 "electric_dipole_moment_norm": 14.6126456708, 
			 "electric_quadrupole_moment_norm": 26.7443318475, 
			 "total_energy": -1164.38161477, 
			 "HOMO_LUMO_gap": 0.22362, 
			 "cosmo_polarized_energy": -41.67, 
			 "cosmo_cavitation_energy": 36.0, 
			 "cosmo_dispersion_energy": -26.23, 
			 "cosmo_repulsion_energy": 1.97, 
			 "cosmo_total_nonelectrostatic_energy": 11.74, 
			 "SMD_solvation_energy": 8.55 
		},
		"coords": [
			{
				"x": -1.0732152884,
				"y": 0.7273298963,
				"z": 2.7005069825,
				"element": "C" 
			},
			{
				"x": -2.2163670789,
				"y": 0.7032782291,
				"z": 1.716001124,
				"element": "N" 
			},
			{
				"x": -3.4664821832,
				"y": 1.2218630232,
				"z": 2.3593589354,
				"element": "C" 
			},
			{
				"x": -2.4410166741,
				"y": -0.7433942451,
				"z": 1.3164619856,
				"element": "C" 
			},
			{
				"x": -1.8285702022,
				"y": 1.6315847484,
				"z": 0.5420203772,
				"element": "C" 
			},
			{
				"x": -2.299408601,
				"y": 1.2248366774,
				"z": -0.8571642563,
				"element": "C" 
			},
			{
				"x": -1.7124637371,
				"y": 0.0392964978,
				"z": -1.3379010621,
				"element": "O" 
			},
			{
				"x": -0.0271735902,
				"y": -0.0086404199,
				"z": -1.2756425015,
				"element": "P" 
			},
			{
				"x": 0.3000197286,
				"y": -0.5642182939,
				"z": 0.1139880496,
				"element": "O" 
			},
			{
				"x": 0.5141364296,
				"y": 1.3271465091,
				"z": -1.6789497521,
				"element": "O" 
			},
			{
				"x": 0.1770290723,
				"y": -1.1862680917,
				"z": -2.3673480958,
				"element": "O" 
			},
			{
				"x": 1.3045423208,
				"y": -1.1571714895,
				"z": -3.2663033957,
				"element": "C" 
			},
			{
				"x": 2.4516635998,
				"y": -2.0594753309,
				"z": -2.7990798374,
				"element": "C" 
			},
			{
				"x": 2.0743806544,
				"y": -3.4229198798,
				"z": -2.8076970123,
				"element": "O" 
			},
			{
				"x": 3.0262152459,
				"y": -1.714113591,
				"z": -1.401648935,
				"element": "C" 
			},
			{
				"x": 2.2937133639,
				"y": -2.3649247294,
				"z": -0.3761362217,
				"element": "O" 
			},
			{
				"x": -1.3483583963,
				"y": 0.1335267787,
				"z": 3.5740839174,
				"element": "H" 
			},
			{
				"x": -0.2088012187,
				"y": 0.3010244037,
				"z": 2.1855066812,
				"element": "H" 
			},
			{
				"x": -0.8851809928,
				"y": 1.7612489964,
				"z": 2.9946523353,
				"element": "H" 
			},
			{
				"x": -3.7491862719,
				"y": 0.5594582159,
				"z": 3.1786264074,
				"element": "H" 
			},
			{
				"x": -4.262715444,
				"y": 1.2447280496,
				"z": 1.6139277249,
				"element": "H" 
			},
			{
				"x": -3.2864662491,
				"y": 2.227613774,
				"z": 2.741610304,
				"element": "H" 
			},
			{
				"x": -3.2537554524,
				"y": -0.7933060081,
				"z": 0.5951798343,
				"element": "H" 
			},
			{
				"x": -2.708425753,
				"y": -1.2835898351,
				"z": 2.2269065255,
				"element": "H" 
			},
			{
				"x": -1.5120216205,
				"y": -1.1129503869,
				"z": 0.8773184513,
				"element": "H" 
			},
			{
				"x": -2.2255363893,
				"y": 2.616945122,
				"z": 0.7995600551,
				"element": "H" 
			},
			{
				"x": -0.7414173089,
				"y": 1.6859225208,
				"z": 0.5291583204,
				"element": "H" 
			},
			{
				"x": -3.3881801547,
				"y": 1.0944203007,
				"z": -0.8983629742,
				"element": "H" 
			},
			{
				"x": -2.0383110497,
				"y": 2.080979104,
				"z": -1.4947890156,
				"element": "H" 
			},
			{
				"x": 0.9339655667,
				"y": -1.5319969785,
				"z": -4.2249589529,
				"element": "H" 
			},
			{
				"x": 1.6472347533,
				"y": -0.1237193428,
				"z": -3.3924173865,
				"element": "H" 
			},
			{
				"x": 3.2515476105,
				"y": -1.9270469153,
				"z": -3.5446827665,
				"element": "H" 
			},
			{
				"x": 1.7826579766,
				"y": -3.578868006,
				"z": -1.8912550299,
				"element": "H" 
			},
			{
				"x": 3.0615123688,
				"y": -0.6254876171,
				"z": -1.2531117004,
				"element": "H" 
			},
			{
				"x": 4.0526093165,
				"y": -2.0951881442,
				"z": -1.3490409411,
				"element": "H" 
			},
			{
				"x": 1.5472256486,
				"y": -1.7758235419,
				"z": -0.1174781739,
				"element": "H" 
			}
		],
		 "valence_orbital": [ 
			{
				"type": "occ",
				"energy": -0.25683,
				"method": "rhf"
			},
			{
				"type": "occ",
				"energy": -0.24077,
				"method": "rhf"
			},
			{
				"type": "occ",
				"energy": -0.23921,
				"method": "rhf"
			},
			{
				"type": "occ",
				"energy": -0.22519,
				"method": "rhf"
			},
			{
				"type": "occ",
				"energy": -0.21282,
				"method": "rhf"
			},
			{
				"type": "unocc",
				"energy": 0.0108,
				"method": "rhf"
			},
			{
				"type": "unocc",
				"energy": 0.05454,
				"method": "rhf"
			},
			{
				"type": "unocc",
				"energy": 0.0579,
				"method": "rhf"
			},
			{
				"type": "unocc",
				"energy": 0.06518,
				"method": "rhf"
			},
			{
				"type": "unocc",
				"energy": 0.07765,
				"method": "rhf"
			}
		],
		"cosmo_sigma_profile": { 
			"-0.025": 0.0,
			"-0.024": 0.0,
			"-0.023": 0.0,
			"-0.022": 0.0,
			"-0.021": 0.0,
			"-0.02": 0.0,
			"-0.019": 0.0,
			"-0.018": 0.0,
			"-0.017": 0.0,
			"-0.016": 0.0,
			"-0.015": 0.0,
			"-0.014": 0.0,
			"-0.013": 0.0329114556257,
			"-0.012": 0.947284669718,
			"-0.011": 3.27242909277,
			"-0.01": 4.70617127958,
			"-0.009": 10.7293293814,
			"-0.008": 16.7616061242,
			"-0.007": 16.1741553658,
			"-0.006": 17.5504672057,
			"-0.005": 27.9045297211,
			"-0.004": 27.3622701518,
			"-0.003": 17.1965836158,
			"-0.002": 11.3924530781,
			"-0.001": 8.53038026003,
			"0.0": 6.73744989044,
			"0.001": 6.91605253491,
			"0.002": 5.66121070037,
			"0.003": 8.08704724836,
			"0.004": 7.97563600379,
			"0.005": 7.49584579521,
			"0.006": 8.1795746893,
			"0.007": 8.40745729024,
			"0.008": 6.85143349952,
			"0.009": 5.54720001598,
			"0.01": 7.64211056952,
			"0.011": 6.08646419954,
			"0.012": 5.43461548738,
			"0.013": 6.0916335342,
			"0.014": 6.1839874762,
			"0.015": 4.20874688389,
			"0.016": 3.84737471078,
			"0.017": 2.80371936137,
			"0.018": 0.18756943919,
			"0.019": 0.0,
			"0.02": 0.0,
			"0.021": 0.0,
			"0.022": 0.0,
			"0.023": 0.0,
			"0.024": 0.0,
			"0.025": 0.0
		}
	}
}
