{
	 "smiles": "CC1=CN=C2C=NC=NC2=N1", 
	 "Tm": 470.15, 
	 "num_atms": 17, 
	 "gaussian": { 
		 "optdone": 1, 
		 "sigma_profile": "yes", 
		 "theory": "DFT", 
		 "functional": "B3LYP", 
		 "basiset": "6-31G**", 
		 "properties": { 
			 "R2extent": 1965.2301, 
			 "electric_dipole_moment_norm": 3.1095003425, 
			 "electric_quadrupole_moment_norm": 8.99063377243, 
			 "total_energy": -489.356865914, 
			 "HOMO_LUMO_gap": 0.15451, 
			 "cosmo_polarized_energy": -11.38, 
			 "cosmo_cavitation_energy": 21.68, 
			 "cosmo_dispersion_energy": -16.48, 
			 "cosmo_repulsion_energy": 1.3, 
			 "cosmo_total_nonelectrostatic_energy": 6.5, 
			 "SMD_solvation_energy": -2.21 
		},
		"coords": [
			{
				"x": -1.7651898079,
				"y": 2.8727597604,
				"z": -2.4705994952,
				"element": "C" 
			},
			{
				"x": -1.2647905044,
				"y": 2.0796351751,
				"z": -1.2940639988,
				"element": "C" 
			},
			{
				"x": -2.2029399233,
				"y": 1.4641031664,
				"z": -0.3946024583,
				"element": "C" 
			},
			{
				"x": -1.8406764274,
				"y": 0.7590915075,
				"z": 0.6500739784,
				"element": "N" 
			},
			{
				"x": -0.4955592032,
				"y": 0.6405978487,
				"z": 0.8386784568,
				"element": "C" 
			},
			{
				"x": 0.0287910139,
				"y": -0.0950631973,
				"z": 1.9302513132,
				"element": "C" 
			},
			{
				"x": 1.325326967,
				"y": -0.2216604067,
				"z": 2.1304412794,
				"element": "N" 
			},
			{
				"x": 2.1335389464,
				"y": 0.3976314296,
				"z": 1.2244593746,
				"element": "C" 
			},
			{
				"x": 1.7809983045,
				"y": 1.1079613839,
				"z": 0.1718845972,
				"element": "N" 
			},
			{
				"x": 0.4460637607,
				"y": 1.2409891577,
				"z": -0.0382631071,
				"element": "C" 
			},
			{
				"x": 0.0369152533,
				"y": 1.9684586353,
				"z": -1.1166528213,
				"element": "N" 
			},
			{
				"x": -2.381697107,
				"y": 2.2497800044,
				"z": -3.1288314011,
				"element": "H" 
			},
			{
				"x": -2.3916628402,
				"y": 3.70947967,
				"z": -2.1406250322,
				"element": "H" 
			},
			{
				"x": -0.9192548513,
				"y": 3.2623751853,
				"z": -3.0375873476,
				"element": "H" 
			},
			{
				"x": -3.2712947892,
				"y": 1.5788191475,
				"z": -0.5748371441,
				"element": "H" 
			},
			{
				"x": -0.6584283791,
				"y": -0.5723553139,
				"z": 2.6279828915,
				"element": "H" 
			},
			{
				"x": 3.2012595873,
				"y": 0.2846968461,
				"z": 1.4018909146,
				"element": "H" 
			}
		],
		 "valence_orbital": [ 
			{
				"type": "occ",
				"energy": -0.31507,
				"method": "rhf"
			},
			{
				"type": "occ",
				"energy": -0.29798,
				"method": "rhf"
			},
			{
				"type": "occ",
				"energy": -0.28178,
				"method": "rhf"
			},
			{
				"type": "occ",
				"energy": -0.28037,
				"method": "rhf"
			},
			{
				"type": "occ",
				"energy": -0.24749,
				"method": "rhf"
			},
			{
				"type": "unocc",
				"energy": -0.09298,
				"method": "rhf"
			},
			{
				"type": "unocc",
				"energy": -0.0491,
				"method": "rhf"
			},
			{
				"type": "unocc",
				"energy": -0.01776,
				"method": "rhf"
			},
			{
				"type": "unocc",
				"energy": 0.05013,
				"method": "rhf"
			},
			{
				"type": "unocc",
				"energy": 0.10056,
				"method": "rhf"
			}
		],
		"cosmo_sigma_profile": { 
			"-0.025": 0.0,
			"-0.024": 0.0,
			"-0.023": 0.0,
			"-0.022": 0.0,
			"-0.021": 0.0,
			"-0.02": 0.0,
			"-0.019": 0.0,
			"-0.018": 0.0,
			"-0.017": 0.0,
			"-0.016": 0.0,
			"-0.015": 0.0,
			"-0.014": 0.0,
			"-0.013": 0.0,
			"-0.012": 0.0,
			"-0.011": 0.0,
			"-0.01": 0.0,
			"-0.009": 1.074588527,
			"-0.008": 6.19278906175,
			"-0.007": 6.85342050084,
			"-0.006": 12.6374745912,
			"-0.005": 13.6635537565,
			"-0.004": 16.8074151324,
			"-0.003": 16.7282497594,
			"-0.002": 17.6831679073,
			"-0.001": 15.7033572857,
			"0.0": 7.8603612084,
			"0.001": 6.17585955636,
			"0.002": 6.44112751787,
			"0.003": 4.80266962784,
			"0.004": 3.99248331088,
			"0.005": 5.12608558191,
			"0.006": 4.30011318158,
			"0.007": 3.67951179664,
			"0.008": 2.93478622884,
			"0.009": 3.02384954024,
			"0.01": 3.37271326722,
			"0.011": 3.79086117236,
			"0.012": 2.90465118851,
			"0.013": 3.46322186932,
			"0.014": 3.46385458597,
			"0.015": 2.26468459419,
			"0.016": 0.18601242782,
			"0.017": 0.0,
			"0.018": 0.0,
			"0.019": 0.0,
			"0.02": 0.0,
			"0.021": 0.0,
			"0.022": 0.0,
			"0.023": 0.0,
			"0.024": 0.0,
			"0.025": 0.0
		}
	}
}
