{
	 "smiles": "OC(=O)CN1NC(=O)C=CC1=O", 
	 "Tm": 509.15, 
	 "num_atms": 18, 
	 "gaussian": { 
		 "optdone": 1, 
		 "sigma_profile": "yes", 
		 "theory": "DFT", 
		 "functional": "B3LYP", 
		 "basiset": "6-31G**", 
		 "properties": { 
			 "R2extent": 2835.3121, 
			 "electric_dipole_moment_norm": 2.65967151731, 
			 "electric_quadrupole_moment_norm": 20.4856879189, 
			 "total_energy": -642.631982692, 
			 "HOMO_LUMO_gap": 0.15719, 
			 "cosmo_polarized_energy": -18.58, 
			 "cosmo_cavitation_energy": 23.38, 
			 "cosmo_dispersion_energy": -17.32, 
			 "cosmo_repulsion_energy": 1.39, 
			 "cosmo_total_nonelectrostatic_energy": 7.45, 
			 "SMD_solvation_energy": 6.48 
		},
		"coords": [
			{
				"x": 2.693498376,
				"y": -0.8741571523,
				"z": 1.3850978198,
				"element": "O" 
			},
			{
				"x": 1.4262696363,
				"y": -1.089322103,
				"z": 0.9964622638,
				"element": "C" 
			},
			{
				"x": 1.0784174891,
				"y": -2.0562737588,
				"z": 0.349969669,
				"element": "O" 
			},
			{
				"x": 0.5270445813,
				"y": 0.0577802777,
				"z": 1.4205307717,
				"element": "C" 
			},
			{
				"x": -0.8813832418,
				"y": -0.2866951352,
				"z": 1.3723177592,
				"element": "N" 
			},
			{
				"x": -1.3682304279,
				"y": -0.6502679505,
				"z": 0.1019452329,
				"element": "N" 
			},
			{
				"x": -2.7199198903,
				"y": -0.811786692,
				"z": -0.1647605445,
				"element": "C" 
			},
			{
				"x": -3.0972359382,
				"y": -1.3500081774,
				"z": -1.1967769704,
				"element": "O" 
			},
			{
				"x": -3.6249017886,
				"y": -0.2988671397,
				"z": 0.880293988,
				"element": "C" 
			},
			{
				"x": -3.1574052805,
				"y": 0.1191130191,
				"z": 2.067283492,
				"element": "C" 
			},
			{
				"x": -1.7163613826,
				"y": 0.1913416063,
				"z": 2.3708220314,
				"element": "C" 
			},
			{
				"x": -1.2708917155,
				"y": 0.6570633558,
				"z": 3.4169118901,
				"element": "O" 
			},
			{
				"x": 3.2272999339,
				"y": -1.6101820278,
				"z": 1.0390654572,
				"element": "H" 
			},
			{
				"x": 0.7470422707,
				"y": 0.9129668049,
				"z": 0.7639475786,
				"element": "H" 
			},
			{
				"x": 0.7406842577,
				"y": 0.3581609952,
				"z": 2.4472239655,
				"element": "H" 
			},
			{
				"x": -0.7563347241,
				"y": -1.3368377742,
				"z": -0.3363049091,
				"element": "H" 
			},
			{
				"x": -4.6838901944,
				"y": -0.3383175542,
				"z": 0.6480806424,
				"element": "H" 
			},
			{
				"x": -3.8068019611,
				"y": 0.4628894061,
				"z": 2.8653898625,
				"element": "H" 
			}
		],
		 "valence_orbital": [ 
			{
				"type": "occ",
				"energy": -0.31546,
				"method": "rhf"
			},
			{
				"type": "occ",
				"energy": -0.29757,
				"method": "rhf"
			},
			{
				"type": "occ",
				"energy": -0.27485,
				"method": "rhf"
			},
			{
				"type": "occ",
				"energy": -0.26733,
				"method": "rhf"
			},
			{
				"type": "occ",
				"energy": -0.23458,
				"method": "rhf"
			},
			{
				"type": "unocc",
				"energy": -0.07739,
				"method": "rhf"
			},
			{
				"type": "unocc",
				"energy": -0.02454,
				"method": "rhf"
			},
			{
				"type": "unocc",
				"energy": 0.01448,
				"method": "rhf"
			},
			{
				"type": "unocc",
				"energy": 0.05211,
				"method": "rhf"
			},
			{
				"type": "unocc",
				"energy": 0.09399,
				"method": "rhf"
			}
		],
		"cosmo_sigma_profile": { 
			"-0.025": 0.0,
			"-0.024": 0.0,
			"-0.023": 0.0,
			"-0.022": 0.0,
			"-0.021": 0.0,
			"-0.02": 0.0693403293857,
			"-0.019": 0.826075777308,
			"-0.018": 1.19256816129,
			"-0.017": 0.556431460303,
			"-0.016": 0.803467862664,
			"-0.015": 0.631610864072,
			"-0.014": 1.44385225295,
			"-0.013": 0.676595871514,
			"-0.012": 0.589793707566,
			"-0.011": 0.518604870146,
			"-0.01": 1.89373657201,
			"-0.009": 7.06514200417,
			"-0.008": 8.59295170238,
			"-0.007": 10.8792517269,
			"-0.006": 9.9059231891,
			"-0.005": 11.7106538343,
			"-0.004": 9.37106112864,
			"-0.003": 11.901855586,
			"-0.002": 12.7238116413,
			"-0.001": 11.070759537,
			"0.0": 9.59388934004,
			"0.001": 5.72986342735,
			"0.002": 5.12633609482,
			"0.003": 6.46491497794,
			"0.004": 4.92449138971,
			"0.005": 4.05155852527,
			"0.006": 5.55988631088,
			"0.007": 5.51954471472,
			"0.008": 4.47408244111,
			"0.009": 4.45532351849,
			"0.01": 5.62276843257,
			"0.011": 4.88033181916,
			"0.012": 7.66062471306,
			"0.013": 8.81291109099,
			"0.014": 1.67890457182,
			"0.015": 0.0,
			"0.016": 0.0,
			"0.017": 0.0,
			"0.018": 0.0,
			"0.019": 0.0,
			"0.02": 0.0,
			"0.021": 0.0,
			"0.022": 0.0,
			"0.023": 0.0,
			"0.024": 0.0,
			"0.025": 0.0
		}
	}
}
