{
	 "smiles": "COC(=O)CCNC1=C(C=C(F)C=C1)[N+]([O-])=O", 
	 "Tm": 350.15, 
	 "num_atms": 28, 
	 "gaussian": { 
		 "optdone": 1, 
		 "sigma_profile": "yes", 
		 "theory": "DFT", 
		 "functional": "B3LYP", 
		 "basiset": "6-31G**", 
		 "properties": { 
			 "R2extent": 6103.3915, 
			 "electric_dipole_moment_norm": 4.75647128552, 
			 "electric_quadrupole_moment_norm": 9.56929824648, 
			 "total_energy": -897.827444679, 
			 "HOMO_LUMO_gap": 0.13275, 
			 "cosmo_polarized_energy": -12.94, 
			 "cosmo_cavitation_energy": 33.28, 
			 "cosmo_dispersion_energy": -23.9, 
			 "cosmo_repulsion_energy": 1.83, 
			 "cosmo_total_nonelectrostatic_energy": 11.22, 
			 "SMD_solvation_energy": 8.89 
		},
		"coords": [
			{
				"x": -0.5297416035,
				"y": 4.2912106339,
				"z": -2.2691010833,
				"element": "C" 
			},
			{
				"x": -1.257117488,
				"y": 3.0898237452,
				"z": -1.9551231915,
				"element": "O" 
			},
			{
				"x": -0.9015379036,
				"y": 2.4736946908,
				"z": -0.8141765219,
				"element": "C" 
			},
			{
				"x": -0.0367292178,
				"y": 2.8983705589,
				"z": -0.0683166435,
				"element": "O" 
			},
			{
				"x": -1.7001825058,
				"y": 1.2058628144,
				"z": -0.594476746,
				"element": "C" 
			},
			{
				"x": -1.4671157034,
				"y": 0.601607546,
				"z": 0.7895792332,
				"element": "C" 
			},
			{
				"x": -0.0646248041,
				"y": 0.2166116254,
				"z": 0.9615951032,
				"element": "N" 
			},
			{
				"x": 0.3874856785,
				"y": -0.8245168046,
				"z": 1.7461848517,
				"element": "C" 
			},
			{
				"x": -0.0802474151,
				"y": -2.168582151,
				"z": 1.7396194179,
				"element": "C" 
			},
			{
				"x": 0.4405823923,
				"y": -3.1332782011,
				"z": 2.6193708703,
				"element": "C" 
			},
			{
				"x": 1.4699880696,
				"y": -2.7979116505,
				"z": 3.4684928034,
				"element": "C" 
			},
			{
				"x": 1.9784098945,
				"y": -3.7265125106,
				"z": 4.304538972,
				"element": "F" 
			},
			{
				"x": 2.010356321,
				"y": -1.5103761669,
				"z": 3.4680498413,
				"element": "C" 
			},
			{
				"x": 1.4652166769,
				"y": -0.555129994,
				"z": 2.630277485,
				"element": "C" 
			},
			{
				"x": -1.0378612415,
				"y": -2.6849292947,
				"z": 0.761758279,
				"element": "N" 
			},
			{
				"x": -1.5051806572,
				"y": -3.8107322149,
				"z": 0.9511537313,
				"element": "O" 
			},
			{
				"x": -1.3023887631,
				"y": -1.9981505793,
				"z": -0.23094443,
				"element": "O" 
			},
			{
				"x": -0.9392104565,
				"y": 4.6423345008,
				"z": -3.2157834631,
				"element": "H" 
			},
			{
				"x": -0.6714001888,
				"y": 5.0411055209,
				"z": -1.4871466609,
				"element": "H" 
			},
			{
				"x": 0.5376247867,
				"y": 4.0790010269,
				"z": -2.3668906479,
				"element": "H" 
			},
			{
				"x": -1.4170990677,
				"y": 0.4783343583,
				"z": -1.3628304714,
				"element": "H" 
			},
			{
				"x": -2.7611338405,
				"y": 1.4321364455,
				"z": -0.7480944241,
				"element": "H" 
			},
			{
				"x": -1.7471453805,
				"y": 1.3302465036,
				"z": 1.564322742,
				"element": "H" 
			},
			{
				"x": -2.1084710859,
				"y": -0.2674369203,
				"z": 0.9045593251,
				"element": "H" 
			},
			{
				"x": 0.5096402347,
				"y": 1.0485487032,
				"z": 1.0363970095,
				"element": "H" 
			},
			{
				"x": 0.0425407504,
				"y": -4.1383635149,
				"z": 2.5928591225,
				"element": "H" 
			},
			{
				"x": 2.8289996281,
				"y": -1.2690065239,
				"z": 4.137592553,
				"element": "H" 
			},
			{
				"x": 1.8549428904,
				"y": 0.4585378531,
				"z": 2.6572329431,
				"element": "H" 
			}
		],
		 "valence_orbital": [ 
			{
				"type": "occ",
				"energy": -0.29548,
				"method": "rhf"
			},
			{
				"type": "occ",
				"energy": -0.28739,
				"method": "rhf"
			},
			{
				"type": "occ",
				"energy": -0.28397,
				"method": "rhf"
			},
			{
				"type": "occ",
				"energy": -0.27646,
				"method": "rhf"
			},
			{
				"type": "occ",
				"energy": -0.2162,
				"method": "rhf"
			},
			{
				"type": "unocc",
				"energy": -0.08345,
				"method": "rhf"
			},
			{
				"type": "unocc",
				"energy": -0.01291,
				"method": "rhf"
			},
			{
				"type": "unocc",
				"energy": -0.00116,
				"method": "rhf"
			},
			{
				"type": "unocc",
				"energy": 0.00658,
				"method": "rhf"
			},
			{
				"type": "unocc",
				"energy": 0.07692,
				"method": "rhf"
			}
		],
		"cosmo_sigma_profile": { 
			"-0.025": 0.0,
			"-0.024": 0.0,
			"-0.023": 0.0,
			"-0.022": 0.0,
			"-0.021": 0.0,
			"-0.02": 0.0,
			"-0.019": 0.0,
			"-0.018": 0.0,
			"-0.017": 0.0,
			"-0.016": 0.0,
			"-0.015": 0.0,
			"-0.014": 0.0,
			"-0.013": 0.0,
			"-0.012": 0.229720671124,
			"-0.011": 0.626406185564,
			"-0.01": 1.37193045102,
			"-0.009": 1.69650743647,
			"-0.008": 4.85016833883,
			"-0.007": 8.41221481032,
			"-0.006": 14.9510793437,
			"-0.005": 20.8581540727,
			"-0.004": 23.3850115432,
			"-0.003": 22.6747742911,
			"-0.002": 17.1358798603,
			"-0.001": 15.7802603038,
			"0.0": 21.346520196,
			"0.001": 22.1113168941,
			"0.002": 12.9623908543,
			"0.003": 11.6902866421,
			"0.004": 15.957999649,
			"0.005": 6.77411125,
			"0.006": 5.58364978742,
			"0.007": 7.00209124552,
			"0.008": 10.334350419,
			"0.009": 7.24888497352,
			"0.01": 6.46773514559,
			"0.011": 4.5322547338,
			"0.012": 1.07468602446,
			"0.013": 0.0,
			"0.014": 0.0,
			"0.015": 0.0,
			"0.016": 0.0,
			"0.017": 0.0,
			"0.018": 0.0,
			"0.019": 0.0,
			"0.02": 0.0,
			"0.021": 0.0,
			"0.022": 0.0,
			"0.023": 0.0,
			"0.024": 0.0,
			"0.025": 0.0
		}
	}
}
