{
	 "smiles": "OC(=O)C1=C(C=C2C=CC=CC2=C1)C(O)=O", 
	 "Tm": 511.15, 
	 "num_atms": 24, 
	 "gaussian": { 
		 "optdone": 1, 
		 "sigma_profile": "yes", 
		 "theory": "DFT", 
		 "functional": "B3LYP", 
		 "basiset": "6-31G**", 
		 "properties": { 
			 "R2extent": 4088.5174, 
			 "electric_dipole_moment_norm": 5.61529597617, 
			 "electric_quadrupole_moment_norm": 7.83213524653, 
			 "total_energy": -763.023117285, 
			 "HOMO_LUMO_gap": 0.17081, 
			 "cosmo_polarized_energy": -20.23, 
			 "cosmo_cavitation_energy": 29.43, 
			 "cosmo_dispersion_energy": -21.32, 
			 "cosmo_repulsion_energy": 1.64, 
			 "cosmo_total_nonelectrostatic_energy": 9.75, 
			 "SMD_solvation_energy": 6.93 
		},
		"coords": [
			{
				"x": -3.25237195,
				"y": 0.9393193662,
				"z": -1.391848751,
				"element": "O" 
			},
			{
				"x": -2.0510471111,
				"y": 1.1996666055,
				"z": -1.9521255993,
				"element": "C" 
			},
			{
				"x": -1.9001901117,
				"y": 2.0099721601,
				"z": -2.8424202319,
				"element": "O" 
			},
			{
				"x": -0.9654103587,
				"y": 0.3213235928,
				"z": -1.4191131676,
				"element": "C" 
			},
			{
				"x": -0.946255424,
				"y": -0.1969350053,
				"z": -0.0852452171,
				"element": "C" 
			},
			{
				"x": 0.0472021565,
				"y": -1.0835899402,
				"z": 0.2823289026,
				"element": "C" 
			},
			{
				"x": 1.0661844658,
				"y": -1.4855634721,
				"z": -0.6221503511,
				"element": "C" 
			},
			{
				"x": 2.0956844946,
				"y": -2.3902259819,
				"z": -0.2533857844,
				"element": "C" 
			},
			{
				"x": 3.0713442776,
				"y": -2.7459543064,
				"z": -1.1587302646,
				"element": "C" 
			},
			{
				"x": 3.0627957283,
				"y": -2.2118544046,
				"z": -2.4705904589,
				"element": "C" 
			},
			{
				"x": 2.0778992532,
				"y": -1.3298705294,
				"z": -2.8567484593,
				"element": "C" 
			},
			{
				"x": 1.0584771828,
				"y": -0.9439343248,
				"z": -1.9468228779,
				"element": "C" 
			},
			{
				"x": 0.0252105115,
				"y": -0.0416581799,
				"z": -2.3070186492,
				"element": "C" 
			},
			{
				"x": -1.8591086672,
				"y": 0.33855898,
				"z": 0.9863587466,
				"element": "C" 
			},
			{
				"x": -2.4082068434,
				"y": -0.5979896899,
				"z": 1.8058506438,
				"element": "O" 
			},
			{
				"x": -2.0489067996,
				"y": 1.5127615578,
				"z": 1.177581908,
				"element": "O" 
			},
			{
				"x": -3.8772006787,
				"y": 1.5808465133,
				"z": -1.7686837248,
				"element": "H" 
			},
			{
				"x": 0.091709436,
				"y": -1.4501653615,
				"z": 1.3051989309,
				"element": "H" 
			},
			{
				"x": 2.1036781412,
				"y": -2.7970190928,
				"z": 0.7542865357,
				"element": "H" 
			},
			{
				"x": 3.854626175,
				"y": -3.4396474454,
				"z": -0.8680399719,
				"element": "H" 
			},
			{
				"x": 3.8398263858,
				"y": -2.5008606949,
				"z": -3.1718141736,
				"element": "H" 
			},
			{
				"x": 2.0680778273,
				"y": -0.9163890762,
				"z": -3.8613897301,
				"element": "H" 
			},
			{
				"x": -0.0049474963,
				"y": 0.3685528931,
				"z": -3.3118425169,
				"element": "H" 
			},
			{
				"x": -2.2565705948,
				"y": -1.4784441636,
				"z": 1.4331642616,
				"element": "H" 
			}
		],
		 "valence_orbital": [ 
			{
				"type": "occ",
				"energy": -0.30598,
				"method": "rhf"
			},
			{
				"type": "occ",
				"energy": -0.28369,
				"method": "rhf"
			},
			{
				"type": "occ",
				"energy": -0.27712,
				"method": "rhf"
			},
			{
				"type": "occ",
				"energy": -0.26184,
				"method": "rhf"
			},
			{
				"type": "occ",
				"energy": -0.2401,
				"method": "rhf"
			},
			{
				"type": "unocc",
				"energy": -0.06929,
				"method": "rhf"
			},
			{
				"type": "unocc",
				"energy": -0.0576,
				"method": "rhf"
			},
			{
				"type": "unocc",
				"energy": 0.00254,
				"method": "rhf"
			},
			{
				"type": "unocc",
				"energy": 0.01918,
				"method": "rhf"
			},
			{
				"type": "unocc",
				"energy": 0.02787,
				"method": "rhf"
			}
		],
		"cosmo_sigma_profile": { 
			"-0.025": 0.0,
			"-0.024": 0.0,
			"-0.023": 0.0,
			"-0.022": 0.0,
			"-0.021": 0.0,
			"-0.02": 0.0,
			"-0.019": 0.440614074621,
			"-0.018": 1.94317201489,
			"-0.017": 2.26426213175,
			"-0.016": 0.852382852918,
			"-0.015": 1.24060571679,
			"-0.014": 1.62422159538,
			"-0.013": 2.19759395683,
			"-0.012": 2.60728405732,
			"-0.011": 1.45189039363,
			"-0.01": 1.62171297831,
			"-0.009": 1.32596089145,
			"-0.008": 4.77288477386,
			"-0.007": 10.9928890578,
			"-0.006": 13.5721871751,
			"-0.005": 12.15539265,
			"-0.004": 12.6485184604,
			"-0.003": 9.49248882629,
			"-0.002": 10.9424911001,
			"-0.001": 10.8760408384,
			"0.0": 13.7280237574,
			"0.001": 22.6518342203,
			"0.002": 20.4697902404,
			"0.003": 15.2903224799,
			"0.004": 9.52210960165,
			"0.005": 5.55511318829,
			"0.006": 4.77264007985,
			"0.007": 4.85161409267,
			"0.008": 5.66840619256,
			"0.009": 5.90771661413,
			"0.01": 7.33321080243,
			"0.011": 9.75917918642,
			"0.012": 6.66415480832,
			"0.013": 0.774114436849,
			"0.014": 0.0,
			"0.015": 0.0,
			"0.016": 0.0,
			"0.017": 0.0,
			"0.018": 0.0,
			"0.019": 0.0,
			"0.02": 0.0,
			"0.021": 0.0,
			"0.022": 0.0,
			"0.023": 0.0,
			"0.024": 0.0,
			"0.025": 0.0
		}
	}
}
