{
	 "smiles": "CCC1=NC2=C(C=CC=C2)C(N)=C1", 
	 "Tm": 426.15, 
	 "num_atms": 25, 
	 "gaussian": { 
		 "optdone": 1, 
		 "sigma_profile": "yes", 
		 "theory": "DFT", 
		 "functional": "B3LYP", 
		 "basiset": "6-31G**", 
		 "properties": { 
			 "R2extent": 3014.713, 
			 "electric_dipole_moment_norm": 3.34105038723, 
			 "electric_quadrupole_moment_norm": 12.0943428829, 
			 "total_energy": -535.932099259, 
			 "HOMO_LUMO_gap": 0.17025, 
			 "cosmo_polarized_energy": -12.44, 
			 "cosmo_cavitation_energy": 27.94, 
			 "cosmo_dispersion_energy": -20.71, 
			 "cosmo_repulsion_energy": 1.64, 
			 "cosmo_total_nonelectrostatic_energy": 8.88, 
			 "SMD_solvation_energy": 3.12 
		},
		"coords": [
			{
				"x": -1.6636565105,
				"y": -2.0567681037,
				"z": 1.812176465,
				"element": "C" 
			},
			{
				"x": -1.9217330779,
				"y": -0.5770727883,
				"z": 2.1438898899,
				"element": "C" 
			},
			{
				"x": -1.0434394875,
				"y": 0.3493506155,
				"z": 1.3289097128,
				"element": "C" 
			},
			{
				"x": -1.3857309372,
				"y": 0.5237869663,
				"z": 0.0613378875,
				"element": "N" 
			},
			{
				"x": -0.5883901439,
				"y": 1.3197767825,
				"z": -0.7070639171,
				"element": "C" 
			},
			{
				"x": 0.5888087594,
				"y": 1.9706151908,
				"z": -0.2187270213,
				"element": "C" 
			},
			{
				"x": 1.3693597631,
				"y": 2.7489686251,
				"z": -1.111776611,
				"element": "C" 
			},
			{
				"x": 0.992510317,
				"y": 2.9044919378,
				"z": -2.4287720328,
				"element": "C" 
			},
			{
				"x": -0.1835809305,
				"y": 2.2818951922,
				"z": -2.9084284466,
				"element": "C" 
			},
			{
				"x": -0.9511611298,
				"y": 1.5067522769,
				"z": -2.0684655053,
				"element": "C" 
			},
			{
				"x": 0.9106102688,
				"y": 1.7862728085,
				"z": 1.1676730438,
				"element": "C" 
			},
			{
				"x": 2.0362311219,
				"y": 2.3764421326,
				"z": 1.7166604999,
				"element": "N" 
			},
			{
				"x": 0.0853144472,
				"y": 0.963351041,
				"z": 1.9193472574,
				"element": "C" 
			},
			{
				"x": -2.334059123,
				"y": -2.7085924356,
				"z": 2.38189468,
				"element": "H" 
			},
			{
				"x": -0.6325678723,
				"y": -2.3417028367,
				"z": 2.0474979505,
				"element": "H" 
			},
			{
				"x": -1.82897664,
				"y": -2.2366723546,
				"z": 0.7462638662,
				"element": "H" 
			},
			{
				"x": -2.9671710159,
				"y": -0.3366849758,
				"z": 1.9230202893,
				"element": "H" 
			},
			{
				"x": -1.7617191073,
				"y": -0.4000092593,
				"z": 3.2138018286,
				"element": "H" 
			},
			{
				"x": 2.2927483024,
				"y": 3.2078697047,
				"z": -0.7694678016,
				"element": "H" 
			},
			{
				"x": 1.603253507,
				"y": 3.498939079,
				"z": -3.1018467045,
				"element": "H" 
			},
			{
				"x": -0.4744622664,
				"y": 2.411381953,
				"z": -3.9471085951,
				"element": "H" 
			},
			{
				"x": -1.8515799805,
				"y": 1.0083704173,
				"z": -2.4127104411,
				"element": "H" 
			},
			{
				"x": 2.0756339,
				"y": 2.379199216,
				"z": 2.7260178194,
				"element": "H" 
			},
			{
				"x": 2.3285413974,
				"y": 3.2544379282,
				"z": 1.3137149227,
				"element": "H" 
			},
			{
				"x": 0.2976164386,
				"y": 0.7973008866,
				"z": 2.9724609633,
				"element": "H" 
			}
		],
		 "valence_orbital": [ 
			{
				"type": "occ",
				"energy": -0.31661,
				"method": "rhf"
			},
			{
				"type": "occ",
				"energy": -0.25533,
				"method": "rhf"
			},
			{
				"type": "occ",
				"energy": -0.23959,
				"method": "rhf"
			},
			{
				"type": "occ",
				"energy": -0.23791,
				"method": "rhf"
			},
			{
				"type": "occ",
				"energy": -0.20546,
				"method": "rhf"
			},
			{
				"type": "unocc",
				"energy": -0.03521,
				"method": "rhf"
			},
			{
				"type": "unocc",
				"energy": -0.00459,
				"method": "rhf"
			},
			{
				"type": "unocc",
				"energy": 0.03786,
				"method": "rhf"
			},
			{
				"type": "unocc",
				"energy": 0.06686,
				"method": "rhf"
			},
			{
				"type": "unocc",
				"energy": 0.09785,
				"method": "rhf"
			}
		],
		"cosmo_sigma_profile": { 
			"-0.025": 0.0,
			"-0.024": 0.0,
			"-0.023": 0.0,
			"-0.022": 0.0,
			"-0.021": 0.0,
			"-0.02": 0.0,
			"-0.019": 0.0,
			"-0.018": 0.0,
			"-0.017": 0.0,
			"-0.016": 0.0,
			"-0.015": 0.0,
			"-0.014": 0.364220003443,
			"-0.013": 2.60545450924,
			"-0.012": 2.3961727397,
			"-0.011": 3.35219878544,
			"-0.01": 3.17393016173,
			"-0.009": 2.15015616599,
			"-0.008": 3.10609663927,
			"-0.007": 3.52061185099,
			"-0.006": 5.68086531797,
			"-0.005": 10.0726473842,
			"-0.004": 12.5346542933,
			"-0.003": 16.3959841245,
			"-0.002": 15.2518377163,
			"-0.001": 18.8732972118,
			"0.0": 19.5336079669,
			"0.001": 18.171894789,
			"0.002": 12.4795409779,
			"0.003": 16.9722800089,
			"0.004": 20.9580345244,
			"0.005": 13.028273718,
			"0.006": 4.80771930555,
			"0.007": 3.29074561819,
			"0.008": 1.84199154426,
			"0.009": 2.66760251324,
			"0.01": 2.21433902797,
			"0.011": 1.41357848043,
			"0.012": 1.51489022324,
			"0.013": 0.655792444724,
			"0.014": 0.483000274112,
			"0.015": 0.931959565776,
			"0.016": 0.692864279864,
			"0.017": 0.37417249462,
			"0.018": 0.0,
			"0.019": 0.0,
			"0.02": 0.0,
			"0.021": 0.0,
			"0.022": 0.0,
			"0.023": 0.0,
			"0.024": 0.0,
			"0.025": 0.0
		}
	}
}
