{
	 "smiles": "COC1=CC(Br)=C(OC)C=C1Br", 
	 "Tm": 419.15, 
	 "num_atms": 20, 
	 "gaussian": { 
		 "optdone": 1, 
		 "sigma_profile": "yes", 
		 "theory": "DFT", 
		 "functional": "B3LYP", 
		 "basiset": "6-31G**", 
		 "properties": { 
			 "R2extent": 4657.1154, 
			 "electric_dipole_moment_norm": 0.0, 
			 "electric_quadrupole_moment_norm": 16.6359224382, 
			 "total_energy": -5602.89549257, 
			 "HOMO_LUMO_gap": 0.18726, 
			 "cosmo_polarized_energy": -8.82, 
			 "cosmo_cavitation_energy": 28.51, 
			 "cosmo_dispersion_energy": -21.67, 
			 "cosmo_repulsion_energy": 1.75, 
			 "cosmo_total_nonelectrostatic_energy": 8.6, 
			 "SMD_solvation_energy": 4.31 
		},
		"coords": [
			{
				"x": -1.6403574142,
				"y": 2.317305951,
				"z": 1.7850241635,
				"element": "C" 
			},
			{
				"x": -0.4834663137,
				"y": 2.2297963251,
				"z": 0.966904305,
				"element": "O" 
			},
			{
				"x": -0.1639819166,
				"y": 1.0241988441,
				"z": 0.4273870951,
				"element": "C" 
			},
			{
				"x": -0.9020419785,
				"y": -0.1502621415,
				"z": 0.6230575526,
				"element": "C" 
			},
			{
				"x": -0.5068137232,
				"y": -1.3475398824,
				"z": 0.0336742222,
				"element": "C" 
			},
			{
				"x": -1.5506734765,
				"y": -2.9111609254,
				"z": 0.3363742808,
				"element": "Br" 
			},
			{
				"x": 0.6384441248,
				"y": -1.4198333186,
				"z": -0.7726983286,
				"element": "C" 
			},
			{
				"x": 0.9579301012,
				"y": -2.6254310604,
				"z": -1.3122143778,
				"element": "O" 
			},
			{
				"x": 2.114793337,
				"y": -2.712930721,
				"z": -2.1303737786,
				"element": "C" 
			},
			{
				"x": 1.3765048138,
				"y": -0.2453721231,
				"z": -0.968368734,
				"element": "C" 
			},
			{
				"x": 0.9812754486,
				"y": 0.951905358,
				"z": -0.3789874015,
				"element": "C" 
			},
			{
				"x": 2.0251354185,
				"y": 2.5155266956,
				"z": -0.6816879847,
				"element": "Br" 
			},
			{
				"x": -2.5496590575,
				"y": 2.0555103279,
				"z": 1.2290614563,
				"element": "H" 
			},
			{
				"x": -1.5596719693,
				"y": 1.673161393,
				"z": 2.6699127106,
				"element": "H" 
			},
			{
				"x": -1.7006921262,
				"y": 3.3587631753,
				"z": 2.1028615293,
				"element": "H" 
			},
			{
				"x": -1.7928706012,
				"y": -0.1456143023,
				"z": 1.2366850081,
				"element": "H" 
			},
			{
				"x": 2.1751131149,
				"y": -3.754382599,
				"z": -2.448231918,
				"element": "H" 
			},
			{
				"x": 3.0241157475,
				"y": -2.45114996,
				"z": -1.5744362047,
				"element": "H" 
			},
			{
				"x": 2.0340820036,
				"y": -2.0687700912,
				"z": -3.0152481288,
				"element": "H" 
			},
			{
				"x": 2.2673344671,
				"y": -0.2500209452,
				"z": -1.5819954669,
				"element": "H" 
			}
		],
		 "valence_orbital": [ 
			{
				"type": "occ",
				"energy": -0.28285,
				"method": "rhf"
			},
			{
				"type": "occ",
				"energy": -0.28263,
				"method": "rhf"
			},
			{
				"type": "occ",
				"energy": -0.28019,
				"method": "rhf"
			},
			{
				"type": "occ",
				"energy": -0.24584,
				"method": "rhf"
			},
			{
				"type": "occ",
				"energy": -0.21013,
				"method": "rhf"
			},
			{
				"type": "unocc",
				"energy": -0.02287,
				"method": "rhf"
			},
			{
				"type": "unocc",
				"energy": -0.0008,
				"method": "rhf"
			},
			{
				"type": "unocc",
				"energy": 0.00687,
				"method": "rhf"
			},
			{
				"type": "unocc",
				"energy": 0.01808,
				"method": "rhf"
			},
			{
				"type": "unocc",
				"energy": 0.09608,
				"method": "rhf"
			}
		],
		"cosmo_sigma_profile": { 
			"-0.025": 0.0,
			"-0.024": 0.0,
			"-0.023": 0.0,
			"-0.022": 0.0,
			"-0.021": 0.0,
			"-0.02": 0.0,
			"-0.019": 0.0,
			"-0.018": 0.0,
			"-0.017": 0.0,
			"-0.016": 0.0,
			"-0.015": 0.0,
			"-0.014": 0.0,
			"-0.013": 0.0,
			"-0.012": 0.0,
			"-0.011": 0.0,
			"-0.01": 0.0,
			"-0.009": 0.0,
			"-0.008": 2.1028635067,
			"-0.007": 6.41426204056,
			"-0.006": 16.2739169708,
			"-0.005": 20.0668930056,
			"-0.004": 20.7322020211,
			"-0.003": 17.915002229,
			"-0.002": 10.6990779993,
			"-0.001": 11.0806415959,
			"0.0": 10.1963647842,
			"0.001": 19.51546919,
			"0.002": 29.1723895258,
			"0.003": 17.1438044638,
			"0.004": 20.4062291284,
			"0.005": 13.0838401335,
			"0.006": 4.58372925219,
			"0.007": 3.91757799752,
			"0.008": 3.36290649489,
			"0.009": 4.06702017745,
			"0.01": 3.0427235141,
			"0.011": 0.268880684311,
			"0.012": 0.0,
			"0.013": 0.0,
			"0.014": 0.0,
			"0.015": 0.0,
			"0.016": 0.0,
			"0.017": 0.0,
			"0.018": 0.0,
			"0.019": 0.0,
			"0.02": 0.0,
			"0.021": 0.0,
			"0.022": 0.0,
			"0.023": 0.0,
			"0.024": 0.0,
			"0.025": 0.0
		}
	}
}
