{
	 "smiles": "CC1=NN(N=C1C(=O)NNS(=O)(=O)C1=CC=CC=C1)C1=CC=CC=C1", 
	 "Tm": 491.15, 
	 "num_atms": 40, 
	 "gaussian": { 
		 "optdone": 1, 
		 "sigma_profile": "yes", 
		 "theory": "DFT", 
		 "functional": "B3LYP", 
		 "basiset": "6-31G**", 
		 "properties": { 
			 "R2extent": 9059.8752, 
			 "electric_dipole_moment_norm": 4.45274576638, 
			 "electric_quadrupole_moment_norm": 24.2065548643, 
			 "total_energy": -1516.24172486, 
			 "HOMO_LUMO_gap": 0.17975, 
			 "cosmo_polarized_energy": -21.81, 
			 "cosmo_cavitation_energy": 47.08, 
			 "cosmo_dispersion_energy": -30.76, 
			 "cosmo_repulsion_energy": 2.31, 
			 "cosmo_total_nonelectrostatic_energy": 18.63, 
			 "SMD_solvation_energy": 6.46 
		},
		"coords": [
			{
				"x": -1.2110698849,
				"y": 0.0693955245,
				"z": -3.2056407688,
				"element": "C" 
			},
			{
				"x": -1.3655582731,
				"y": -0.3011969684,
				"z": -1.7657232467,
				"element": "C" 
			},
			{
				"x": -1.5746881714,
				"y": -1.565642524,
				"z": -1.4006476163,
				"element": "N" 
			},
			{
				"x": -1.684908904,
				"y": -1.5118855042,
				"z": -0.0641865494,
				"element": "N" 
			},
			{
				"x": -1.5831591568,
				"y": -0.3008755854,
				"z": 0.4649995847,
				"element": "N" 
			},
			{
				"x": -1.3682166096,
				"y": 0.4951768417,
				"z": -0.5887372159,
				"element": "C" 
			},
			{
				"x": -1.3028905637,
				"y": 1.9646809442,
				"z": -0.3684196889,
				"element": "C" 
			},
			{
				"x": -1.9641074785,
				"y": 2.5392829901,
				"z": 0.4779664113,
				"element": "O" 
			},
			{
				"x": -0.4944634131,
				"y": 2.7057160469,
				"z": -1.2373389396,
				"element": "N" 
			},
			{
				"x": 0.663872725,
				"y": 2.1454438938,
				"z": -1.7771105464,
				"element": "N" 
			},
			{
				"x": 2.1396550153,
				"y": 2.5954994702,
				"z": -0.962329416,
				"element": "S" 
			},
			{
				"x": 3.168990902,
				"y": 2.3552928212,
				"z": -1.9761914509,
				"element": "O" 
			},
			{
				"x": 1.9376965519,
				"y": 3.9139521215,
				"z": -0.3496963465,
				"element": "O" 
			},
			{
				"x": 2.2676395927,
				"y": 1.381795281,
				"z": 0.339930794,
				"element": "C" 
			},
			{
				"x": 2.8879971143,
				"y": 0.1607231811,
				"z": 0.0633333314,
				"element": "C" 
			},
			{
				"x": 2.9749506059,
				"y": -0.788984258,
				"z": 1.0792451198,
				"element": "C" 
			},
			{
				"x": 2.4445878641,
				"y": -0.5145210864,
				"z": 2.3433222094,
				"element": "C" 
			},
			{
				"x": 1.8314502267,
				"y": 0.7125480199,
				"z": 2.6032758711,
				"element": "C" 
			},
			{
				"x": 1.7413637161,
				"y": 1.6770199416,
				"z": 1.5991549263,
				"element": "C" 
			},
			{
				"x": -1.9030856157,
				"y": -2.6746313315,
				"z": 0.7277429297,
				"element": "C" 
			},
			{
				"x": -1.9435636132,
				"y": -3.9281353356,
				"z": 0.1110186388,
				"element": "C" 
			},
			{
				"x": -2.159054015,
				"y": -5.0603888182,
				"z": 0.8948860249,
				"element": "C" 
			},
			{
				"x": -2.3309955015,
				"y": -4.9465549919,
				"z": 2.2759482059,
				"element": "C" 
			},
			{
				"x": -2.2878600714,
				"y": -3.6857350253,
				"z": 2.8756642693,
				"element": "C" 
			},
			{
				"x": -2.0747839636,
				"y": -2.5419970327,
				"z": 2.108800969,
				"element": "C" 
			},
			{
				"x": -0.1537503105,
				"y": 0.1268932326,
				"z": -3.483394691,
				"element": "H" 
			},
			{
				"x": -1.6891549507,
				"y": -0.6839936086,
				"z": -3.8352113348,
				"element": "H" 
			},
			{
				"x": -1.6648187471,
				"y": 1.0424015233,
				"z": -3.4123302007,
				"element": "H" 
			},
			{
				"x": -0.4356318629,
				"y": 3.6874102992,
				"z": -0.9669984921,
				"element": "H" 
			},
			{
				"x": 0.7972640958,
				"y": 2.4183893996,
				"z": -2.7517885739,
				"element": "H" 
			},
			{
				"x": 3.3016067265,
				"y": -0.0265076693,
				"z": -0.9213898881,
				"element": "H" 
			},
			{
				"x": 3.4578216837,
				"y": -1.7417205896,
				"z": 0.8855163716,
				"element": "H" 
			},
			{
				"x": 2.5127298941,
				"y": -1.2606501263,
				"z": 3.1293730617,
				"element": "H" 
			},
			{
				"x": 1.4237889895,
				"y": 0.9229651134,
				"z": 3.5868329636,
				"element": "H" 
			},
			{
				"x": 1.2796906653,
				"y": 2.6401824909,
				"z": 1.7848747847,
				"element": "H" 
			},
			{
				"x": -1.8095191332,
				"y": -3.9992572936,
				"z": -0.9611554454,
				"element": "H" 
			},
			{
				"x": -2.1922228303,
				"y": -6.0362377939,
				"z": 0.4197157288,
				"element": "H" 
			},
			{
				"x": -2.499119156,
				"y": -5.8329070464,
				"z": 2.8800319251,
				"element": "H" 
			},
			{
				"x": -2.4241731947,
				"y": -3.5873932654,
				"z": 3.9484991448,
				"element": "H" 
			},
			{
				"x": -2.0425109473,
				"y": -1.556753282,
				"z": 2.5573571453,
				"element": "H" 
			}
		],
		 "valence_orbital": [ 
			{
				"type": "occ",
				"energy": -0.27968,
				"method": "rhf"
			},
			{
				"type": "occ",
				"energy": -0.27647,
				"method": "rhf"
			},
			{
				"type": "occ",
				"energy": -0.26532,
				"method": "rhf"
			},
			{
				"type": "occ",
				"energy": -0.26288,
				"method": "rhf"
			},
			{
				"type": "occ",
				"energy": -0.2353,
				"method": "rhf"
			},
			{
				"type": "unocc",
				"energy": -0.05555,
				"method": "rhf"
			},
			{
				"type": "unocc",
				"energy": -0.04782,
				"method": "rhf"
			},
			{
				"type": "unocc",
				"energy": -0.02754,
				"method": "rhf"
			},
			{
				"type": "unocc",
				"energy": -0.01784,
				"method": "rhf"
			},
			{
				"type": "unocc",
				"energy": -0.01062,
				"method": "rhf"
			}
		],
		"cosmo_sigma_profile": { 
			"-0.025": 0.0,
			"-0.024": 0.0,
			"-0.023": 0.0,
			"-0.022": 0.0,
			"-0.021": 0.0,
			"-0.02": 0.0,
			"-0.019": 0.0,
			"-0.018": 0.0,
			"-0.017": 0.0,
			"-0.016": 0.337910472274,
			"-0.015": 1.26155664187,
			"-0.014": 0.930277964982,
			"-0.013": 2.04702434763,
			"-0.012": 1.51247329708,
			"-0.011": 1.73825301434,
			"-0.01": 1.9205016121,
			"-0.009": 2.24941253061,
			"-0.008": 3.62584756014,
			"-0.007": 13.1282686591,
			"-0.006": 23.7014026107,
			"-0.005": 27.9629148148,
			"-0.004": 26.7902837762,
			"-0.003": 21.8158859662,
			"-0.002": 24.1708005216,
			"-0.001": 28.2949559812,
			"0.0": 25.1322567742,
			"0.001": 31.6299142,
			"0.002": 32.5336275695,
			"0.003": 24.2673660738,
			"0.004": 19.5910125286,
			"0.005": 7.71286663215,
			"0.006": 6.33566257965,
			"0.007": 5.7052595055,
			"0.008": 6.77402582189,
			"0.009": 9.60092141613,
			"0.01": 11.3590956714,
			"0.011": 7.17625487382,
			"0.012": 5.80499103912,
			"0.013": 2.1482459413,
			"0.014": 0.221956211207,
			"0.015": 0.0,
			"0.016": 0.0,
			"0.017": 0.0,
			"0.018": 0.0,
			"0.019": 0.0,
			"0.02": 0.0,
			"0.021": 0.0,
			"0.022": 0.0,
			"0.023": 0.0,
			"0.024": 0.0,
			"0.025": 0.0
		}
	}
}
