{
	 "smiles": "NNC(=O)C1=CC=C(Br)C=C1Cl", 
	 "Tm": 447.15, 
	 "num_atms": 18, 
	 "gaussian": { 
		 "optdone": 1, 
		 "sigma_profile": "yes", 
		 "theory": "DFT", 
		 "functional": "B3LYP", 
		 "basiset": "6-31G**", 
		 "properties": { 
			 "R2extent": 6119.9474, 
			 "electric_dipole_moment_norm": 2.83697558678, 
			 "electric_quadrupole_moment_norm": 8.74494705702, 
			 "total_energy": -3486.65905781, 
			 "HOMO_LUMO_gap": 0.20543, 
			 "cosmo_polarized_energy": -13.62, 
			 "cosmo_cavitation_energy": 27.13, 
			 "cosmo_dispersion_energy": -20.25, 
			 "cosmo_repulsion_energy": 1.64, 
			 "cosmo_total_nonelectrostatic_energy": 8.52, 
			 "SMD_solvation_energy": 4.31 
		},
		"coords": [
			{
				"x": -3.2991097468,
				"y": -0.4884504624,
				"z": 0.7742582724,
				"element": "N" 
			},
			{
				"x": -1.9892956526,
				"y": 0.0220912866,
				"z": 0.895162538,
				"element": "N" 
			},
			{
				"x": -1.0303552901,
				"y": -0.6857236875,
				"z": 1.5818817283,
				"element": "C" 
			},
			{
				"x": -1.2980525519,
				"y": -1.6959673278,
				"z": 2.2158347671,
				"element": "O" 
			},
			{
				"x": 0.3446293503,
				"y": -0.0737971311,
				"z": 1.5168168249,
				"element": "C" 
			},
			{
				"x": 0.4970804678,
				"y": 1.2983975465,
				"z": 1.7670534498,
				"element": "C" 
			},
			{
				"x": 1.7481813802,
				"y": 1.9101408082,
				"z": 1.7798613144,
				"element": "C" 
			},
			{
				"x": 2.8743296814,
				"y": 1.1304332912,
				"z": 1.5272702291,
				"element": "C" 
			},
			{
				"x": 4.6013396529,
				"y": 1.9375329658,
				"z": 1.5341331565,
				"element": "Br" 
			},
			{
				"x": 2.7653124083,
				"y": -0.2335674537,
				"z": 1.2656820085,
				"element": "C" 
			},
			{
				"x": 1.5029742947,
				"y": -0.8281625332,
				"z": 1.2675226809,
				"element": "C" 
			},
			{
				"x": 1.4205560303,
				"y": -2.5359082635,
				"z": 0.8951407074,
				"element": "Cl" 
			},
			{
				"x": -3.7955276968,
				"y": -0.2592357914,
				"z": 1.6347248497,
				"element": "H" 
			},
			{
				"x": -3.2185804567,
				"y": -1.5068008817,
				"z": 0.7733715755,
				"element": "H" 
			},
			{
				"x": -1.707493928,
				"y": 0.6328975122,
				"z": 0.1408549294,
				"element": "H" 
			},
			{
				"x": -0.387697098,
				"y": 1.8908397692,
				"z": 1.9780936984,
				"element": "H" 
			},
			{
				"x": 1.846572595,
				"y": 2.9691365555,
				"z": 1.9865652068,
				"element": "H" 
			},
			{
				"x": 3.6447365598,
				"y": -0.830556203,
				"z": 1.0599720629,
				"element": "H" 
			}
		],
		 "valence_orbital": [ 
			{
				"type": "occ",
				"energy": -0.29509,
				"method": "rhf"
			},
			{
				"type": "occ",
				"energy": -0.2728,
				"method": "rhf"
			},
			{
				"type": "occ",
				"energy": -0.26725,
				"method": "rhf"
			},
			{
				"type": "occ",
				"energy": -0.26446,
				"method": "rhf"
			},
			{
				"type": "occ",
				"energy": -0.25623,
				"method": "rhf"
			},
			{
				"type": "unocc",
				"energy": -0.0508,
				"method": "rhf"
			},
			{
				"type": "unocc",
				"energy": -0.03612,
				"method": "rhf"
			},
			{
				"type": "unocc",
				"energy": -0.01456,
				"method": "rhf"
			},
			{
				"type": "unocc",
				"energy": 0.02383,
				"method": "rhf"
			},
			{
				"type": "unocc",
				"energy": 0.03726,
				"method": "rhf"
			}
		],
		"cosmo_sigma_profile": { 
			"-0.025": 0.0,
			"-0.024": 0.0,
			"-0.023": 0.0,
			"-0.022": 0.0,
			"-0.021": 0.0,
			"-0.02": 0.0,
			"-0.019": 0.0,
			"-0.018": 0.0,
			"-0.017": 0.0,
			"-0.016": 0.0,
			"-0.015": 0.219618174636,
			"-0.014": 1.06391641145,
			"-0.013": 1.18148381925,
			"-0.012": 1.06201145399,
			"-0.011": 2.80392077198,
			"-0.01": 3.58927854406,
			"-0.009": 4.43100261358,
			"-0.008": 7.25068221051,
			"-0.007": 8.42896676821,
			"-0.006": 7.91205839481,
			"-0.005": 9.22400046408,
			"-0.004": 9.84844011246,
			"-0.003": 11.951844789,
			"-0.002": 10.6501432994,
			"-0.001": 15.3469319036,
			"0.0": 21.9146350833,
			"0.001": 25.2084053424,
			"0.002": 16.3021824065,
			"0.003": 15.8609734109,
			"0.004": 17.5542583214,
			"0.005": 4.30556434828,
			"0.006": 2.0752161656,
			"0.007": 3.02632881372,
			"0.008": 1.72373448419,
			"0.009": 2.54850889472,
			"0.01": 2.31731609284,
			"0.011": 2.79160419257,
			"0.012": 4.44132588064,
			"0.013": 4.53050954032,
			"0.014": 1.49691695883,
			"0.015": 0.53858665382,
			"0.016": 0.533889212204,
			"0.017": 0.118037767788,
			"0.018": 0.0,
			"0.019": 0.0,
			"0.02": 0.0,
			"0.021": 0.0,
			"0.022": 0.0,
			"0.023": 0.0,
			"0.024": 0.0,
			"0.025": 0.0
		}
	}
}
