{
	 "smiles": "COC(=O)C1=NNC(=O)C2=NOC(C3CC3)=C12", 
	 "Tm": 508.15, 
	 "num_atms": 26, 
	 "gaussian": { 
		 "optdone": 1, 
		 "sigma_profile": "yes", 
		 "theory": "DFT", 
		 "functional": "B3LYP", 
		 "basiset": "6-31G**", 
		 "properties": { 
			 "R2extent": 5181.4867, 
			 "electric_dipole_moment_norm": 5.19217601974, 
			 "electric_quadrupole_moment_norm": 19.6708243233, 
			 "total_energy": -851.540892541, 
			 "HOMO_LUMO_gap": 0.15688, 
			 "cosmo_polarized_energy": -15.92, 
			 "cosmo_cavitation_energy": 31.38, 
			 "cosmo_dispersion_energy": -23.14, 
			 "cosmo_repulsion_energy": 1.8, 
			 "cosmo_total_nonelectrostatic_energy": 10.04, 
			 "SMD_solvation_energy": 6.21 
		},
		"coords": [
			{
				"x": 0.6085501329,
				"y": 3.3949121101,
				"z": -1.4021575996,
				"element": "C" 
			},
			{
				"x": 1.3463661772,
				"y": 2.1950065173,
				"z": -1.1154080504,
				"element": "O" 
			},
			{
				"x": 0.6257913484,
				"y": 1.0663568506,
				"z": -1.1300058488,
				"element": "C" 
			},
			{
				"x": -0.5687811983,
				"y": 1.0377721172,
				"z": -1.3665749887,
				"element": "O" 
			},
			{
				"x": 1.4408569423,
				"y": -0.1511525554,
				"z": -0.8260005276,
				"element": "C" 
			},
			{
				"x": 2.7090342275,
				"y": 0.0604287345,
				"z": -0.5984402699,
				"element": "N" 
			},
			{
				"x": 3.5093735281,
				"y": -0.9835530984,
				"z": -0.317933567,
				"element": "N" 
			},
			{
				"x": 3.2050048862,
				"y": -2.3483666307,
				"z": -0.2192631937,
				"element": "C" 
			},
			{
				"x": 4.0603862611,
				"y": -3.1714129033,
				"z": 0.0468750403,
				"element": "O" 
			},
			{
				"x": 1.7753131796,
				"y": -2.5709364883,
				"z": -0.477741397,
				"element": "C" 
			},
			{
				"x": 1.1910006641,
				"y": -3.745684677,
				"z": -0.4570937107,
				"element": "N" 
			},
			{
				"x": -0.1387188895,
				"y": -3.4553573809,
				"z": -0.7554270835,
				"element": "O" 
			},
			{
				"x": -0.336687971,
				"y": -2.1324568576,
				"z": -0.9489229264,
				"element": "C" 
			},
			{
				"x": -1.7086497142,
				"y": -1.7351980252,
				"z": -1.2681624115,
				"element": "C" 
			},
			{
				"x": -2.5872176572,
				"y": -2.6630282357,
				"z": -2.1021234129,
				"element": "C" 
			},
			{
				"x": -2.8771183446,
				"y": -2.4945168121,
				"z": -0.6464784606,
				"element": "C" 
			},
			{
				"x": 0.8846855206,
				"y": -1.4903261636,
				"z": -0.7807778199,
				"element": "C" 
			},
			{
				"x": -0.185165522,
				"y": 3.5440307484,
				"z": -0.6659603502,
				"element": "H" 
			},
			{
				"x": 0.1621326086,
				"y": 3.3436170103,
				"z": -2.3982823892,
				"element": "H" 
			},
			{
				"x": 1.3383913315,
				"y": 4.2019550603,
				"z": -1.3491723879,
				"element": "H" 
			},
			{
				"x": 4.4784831785,
				"y": -0.7371076726,
				"z": -0.1538112749,
				"element": "H" 
			},
			{
				"x": -1.8212438432,
				"y": -0.6712258214,
				"z": -1.4139260458,
				"element": "H" 
			},
			{
				"x": -3.2373967801,
				"y": -2.1858106408,
				"z": -2.8283860912,
				"element": "H" 
			},
			{
				"x": -2.1479593977,
				"y": -3.6009733176,
				"z": -2.4252466938,
				"element": "H" 
			},
			{
				"x": -3.7320856281,
				"y": -1.8981435074,
				"z": -0.3443132919,
				"element": "H" 
			},
			{
				"x": -2.6342450408,
				"y": -3.3182283606,
				"z": 0.0165347527,
				"element": "H" 
			}
		],
		 "valence_orbital": [ 
			{
				"type": "occ",
				"energy": -0.31716,
				"method": "rhf"
			},
			{
				"type": "occ",
				"energy": -0.2926,
				"method": "rhf"
			},
			{
				"type": "occ",
				"energy": -0.28218,
				"method": "rhf"
			},
			{
				"type": "occ",
				"energy": -0.27133,
				"method": "rhf"
			},
			{
				"type": "occ",
				"energy": -0.23958,
				"method": "rhf"
			},
			{
				"type": "unocc",
				"energy": -0.0827,
				"method": "rhf"
			},
			{
				"type": "unocc",
				"energy": -0.04768,
				"method": "rhf"
			},
			{
				"type": "unocc",
				"energy": -0.00568,
				"method": "rhf"
			},
			{
				"type": "unocc",
				"energy": 0.05771,
				"method": "rhf"
			},
			{
				"type": "unocc",
				"energy": 0.07401,
				"method": "rhf"
			}
		],
		"cosmo_sigma_profile": { 
			"-0.025": 0.0,
			"-0.024": 0.0,
			"-0.023": 0.0,
			"-0.022": 0.0,
			"-0.021": 0.0,
			"-0.02": 0.0,
			"-0.019": 0.0,
			"-0.018": 0.0,
			"-0.017": 0.712178953935,
			"-0.016": 1.38956472306,
			"-0.015": 0.782858451072,
			"-0.014": 0.90242636668,
			"-0.013": 0.951739109115,
			"-0.012": 0.843842794724,
			"-0.011": 0.720158513083,
			"-0.01": 0.868352501439,
			"-0.009": 0.476681389475,
			"-0.008": 0.774454753867,
			"-0.007": 4.69755215051,
			"-0.006": 14.8135114765,
			"-0.005": 20.137115005,
			"-0.004": 25.7892687773,
			"-0.003": 26.320169698,
			"-0.002": 23.0551824873,
			"-0.001": 18.0309076333,
			"0.0": 14.4640774408,
			"0.001": 13.2796088007,
			"0.002": 11.7767795332,
			"0.003": 8.02230580152,
			"0.004": 7.22074754891,
			"0.005": 7.16404866702,
			"0.006": 6.05614810706,
			"0.007": 6.3759572175,
			"0.008": 5.86124160922,
			"0.009": 5.90468048619,
			"0.01": 7.22560417771,
			"0.011": 9.06606163669,
			"0.012": 6.02385431571,
			"0.013": 1.2069504234,
			"0.014": 0.791650449375,
			"0.015": 0.0217915525321,
			"0.016": 0.0,
			"0.017": 0.0,
			"0.018": 0.0,
			"0.019": 0.0,
			"0.02": 0.0,
			"0.021": 0.0,
			"0.022": 0.0,
			"0.023": 0.0,
			"0.024": 0.0,
			"0.025": 0.0
		}
	}
}
