{
	 "smiles": "O=C1CC2(CCCC2)C(=O)N1", 
	 "Tm": 379.15, 
	 "num_atms": 22, 
	 "gaussian": { 
		 "optdone": 1, 
		 "sigma_profile": "yes", 
		 "theory": "DFT", 
		 "functional": "B3LYP", 
		 "basiset": "6-31G**", 
		 "properties": { 
			 "R2extent": 1922.8881, 
			 "electric_dipole_moment_norm": 2.15005221797, 
			 "electric_quadrupole_moment_norm": 12.7384070766, 
			 "total_energy": -516.719137314, 
			 "HOMO_LUMO_gap": 0.23537, 
			 "cosmo_polarized_energy": -12.34, 
			 "cosmo_cavitation_energy": 23.95, 
			 "cosmo_dispersion_energy": -17.84, 
			 "cosmo_repulsion_energy": 1.44, 
			 "cosmo_total_nonelectrostatic_energy": 7.56, 
			 "SMD_solvation_energy": 4.86 
		},
		"coords": [
			{
				"x": -1.6382563354,
				"y": 2.2197562458,
				"z": 3.2564707302,
				"element": "O" 
			},
			{
				"x": -1.2239699114,
				"y": 1.6537974496,
				"z": 2.2690468104,
				"element": "C" 
			},
			{
				"x": -0.4662117539,
				"y": 0.3324523826,
				"z": 2.1828867045,
				"element": "C" 
			},
			{
				"x": -0.3468845669,
				"y": -0.0047910353,
				"z": 0.6785824814,
				"element": "C" 
			},
			{
				"x": -1.2920299054,
				"y": -1.163890035,
				"z": 0.2155486591,
				"element": "C" 
			},
			{
				"x": -0.5800477237,
				"y": -1.7889106137,
				"z": -0.9901521346,
				"element": "C" 
			},
			{
				"x": 0.8906271452,
				"y": -1.7902727477,
				"z": -0.5476718211,
				"element": "C" 
			},
			{
				"x": 1.0692044319,
				"y": -0.4285250434,
				"z": 0.1610603754,
				"element": "C" 
			},
			{
				"x": -0.8116376857,
				"y": 1.2881772027,
				"z": -0.0114793954,
				"element": "C" 
			},
			{
				"x": -0.7662000609,
				"y": 1.5478582887,
				"z": -1.1966341734,
				"element": "O" 
			},
			{
				"x": -1.3404833601,
				"y": 2.127185179,
				"z": 0.9638800886,
				"element": "N" 
			},
			{
				"x": 0.5117072359,
				"y": 0.4812237282,
				"z": 2.6543459984,
				"element": "H" 
			},
			{
				"x": -0.9910630864,
				"y": -0.4273837715,
				"z": 2.7684135388,
				"element": "H" 
			},
			{
				"x": -2.3085054377,
				"y": -0.8203574265,
				"z": -0.0023585505,
				"element": "H" 
			},
			{
				"x": -1.3634137115,
				"y": -1.8976992795,
				"z": 1.02803422,
				"element": "H" 
			},
			{
				"x": -0.7087281787,
				"y": -1.1466406922,
				"z": -1.8678883136,
				"element": "H" 
			},
			{
				"x": -0.9615115434,
				"y": -2.7847461563,
				"z": -1.2372973169,
				"element": "H" 
			},
			{
				"x": 1.5918262152,
				"y": -1.9232047738,
				"z": -1.3768078645,
				"element": "H" 
			},
			{
				"x": 1.0628817253,
				"y": -2.6114225019,
				"z": 0.1594509404,
				"element": "H" 
			},
			{
				"x": 1.4294874828,
				"y": 0.3176549425,
				"z": -0.5530916192,
				"element": "H" 
			},
			{
				"x": 1.7935119479,
				"y": -0.4767378141,
				"z": 0.9795436162,
				"element": "H" 
			},
			{
				"x": -1.7647029231,
				"y": 3.0194764719,
				"z": 0.7427170258,
				"element": "H" 
			}
		],
		 "valence_orbital": [ 
			{
				"type": "occ",
				"energy": -0.33175,
				"method": "rhf"
			},
			{
				"type": "occ",
				"energy": -0.32744,
				"method": "rhf"
			},
			{
				"type": "occ",
				"energy": -0.29152,
				"method": "rhf"
			},
			{
				"type": "occ",
				"energy": -0.28168,
				"method": "rhf"
			},
			{
				"type": "occ",
				"energy": -0.25611,
				"method": "rhf"
			},
			{
				"type": "unocc",
				"energy": -0.02074,
				"method": "rhf"
			},
			{
				"type": "unocc",
				"energy": 0.02778,
				"method": "rhf"
			},
			{
				"type": "unocc",
				"energy": 0.07652,
				"method": "rhf"
			},
			{
				"type": "unocc",
				"energy": 0.08351,
				"method": "rhf"
			},
			{
				"type": "unocc",
				"energy": 0.09739,
				"method": "rhf"
			}
		],
		"cosmo_sigma_profile": { 
			"-0.025": 0.0,
			"-0.024": 0.0,
			"-0.023": 0.0,
			"-0.022": 0.0,
			"-0.021": 0.0,
			"-0.02": 0.0,
			"-0.019": 0.0,
			"-0.018": 0.0,
			"-0.017": 0.0317686562029,
			"-0.016": 0.990779725637,
			"-0.015": 1.3120219447,
			"-0.014": 0.887069657061,
			"-0.013": 1.12199037674,
			"-0.012": 0.439701271296,
			"-0.011": 0.836160310921,
			"-0.01": 1.20225663162,
			"-0.009": 0.679278994944,
			"-0.008": 0.746859822269,
			"-0.007": 4.12186685789,
			"-0.006": 8.70818900242,
			"-0.005": 11.6425440859,
			"-0.004": 11.9333499288,
			"-0.003": 20.1836541551,
			"-0.002": 23.4665328658,
			"-0.001": 20.5559354217,
			"0.0": 17.505760863,
			"0.001": 13.1995369187,
			"0.002": 3.6365748075,
			"0.003": 3.19065338238,
			"0.004": 2.11119955227,
			"0.005": 3.16590213618,
			"0.006": 3.08968370599,
			"0.007": 3.43345207156,
			"0.008": 2.28034435499,
			"0.009": 2.96595097572,
			"0.01": 4.20907791143,
			"0.011": 5.57901698056,
			"0.012": 10.4939072903,
			"0.013": 3.38904606719,
			"0.014": 0.0553527742362,
			"0.015": 0.0,
			"0.016": 0.0,
			"0.017": 0.0,
			"0.018": 0.0,
			"0.019": 0.0,
			"0.02": 0.0,
			"0.021": 0.0,
			"0.022": 0.0,
			"0.023": 0.0,
			"0.024": 0.0,
			"0.025": 0.0
		}
	}
}
