{
	 "smiles": "O=C=NC1=CC=C(C=C1)C1=CC=CS1", 
	 "Tm": 338.65, 
	 "num_atms": 21, 
	 "gaussian": { 
		 "optdone": 1, 
		 "sigma_profile": "yes", 
		 "theory": "DFT", 
		 "functional": "B3LYP", 
		 "basiset": "6-31G**", 
		 "properties": { 
			 "R2extent": 4698.4224, 
			 "electric_dipole_moment_norm": 2.67021943855, 
			 "electric_quadrupole_moment_norm": 10.898594614, 
			 "total_energy": -951.542436836, 
			 "HOMO_LUMO_gap": 0.16363, 
			 "cosmo_polarized_energy": -6.79, 
			 "cosmo_cavitation_energy": 28.56, 
			 "cosmo_dispersion_energy": -21.19, 
			 "cosmo_repulsion_energy": 1.6, 
			 "cosmo_total_nonelectrostatic_energy": 8.97, 
			 "SMD_solvation_energy": 7.09 
		},
		"coords": [
			{
				"x": 4.1564798929,
				"y": -5.183925406,
				"z": -0.4479004797,
				"element": "O" 
			},
			{
				"x": 3.6027513806,
				"y": -4.1942014637,
				"z": -0.7696912487,
				"element": "C" 
			},
			{
				"x": 3.1046869867,
				"y": -3.1908874944,
				"z": -1.2260661269,
				"element": "N" 
			},
			{
				"x": 2.2089251775,
				"y": -2.1782561606,
				"z": -0.8770193496,
				"element": "C" 
			},
			{
				"x": 1.5775508703,
				"y": -2.1400215257,
				"z": 0.3757890125,
				"element": "C" 
			},
			{
				"x": 0.6988404083,
				"y": -1.1085508121,
				"z": 0.6805559108,
				"element": "C" 
			},
			{
				"x": 0.408619462,
				"y": -0.0936337945,
				"z": -0.2516889293,
				"element": "C" 
			},
			{
				"x": 1.0506001866,
				"y": -0.1500815009,
				"z": -1.5019689858,
				"element": "C" 
			},
			{
				"x": 1.9410256322,
				"y": -1.1716688142,
				"z": -1.8120690156,
				"element": "C" 
			},
			{
				"x": -0.5375771796,
				"y": 0.9753587146,
				"z": 0.0860810943,
				"element": "C" 
			},
			{
				"x": -1.5871077915,
				"y": 0.9409013359,
				"z": 0.9775162364,
				"element": "C" 
			},
			{
				"x": -2.3071461524,
				"y": 2.1671299918,
				"z": 1.0624675743,
				"element": "C" 
			},
			{
				"x": -1.8054643379,
				"y": 3.1348324795,
				"z": 0.2359256423,
				"element": "C" 
			},
			{
				"x": -0.435218085,
				"y": 2.5612754528,
				"z": -0.6565139956,
				"element": "S" 
			},
			{
				"x": 1.7901227895,
				"y": -2.9116935444,
				"z": 1.1097631893,
				"element": "H" 
			},
			{
				"x": 0.2439970125,
				"y": -1.0757646984,
				"z": 1.6653532799,
				"element": "H" 
			},
			{
				"x": 0.8359261614,
				"y": 0.6067798478,
				"z": -2.2504113252,
				"element": "H" 
			},
			{
				"x": 2.4284277585,
				"y": -1.2078615005,
				"z": -2.780354362,
				"element": "H" 
			},
			{
				"x": -1.8551071159,
				"y": 0.0504392942,
				"z": 1.5346886849,
				"element": "H" 
			},
			{
				"x": -3.1671372539,
				"y": 2.3181025325,
				"z": 1.7050092671,
				"element": "H" 
			},
			{
				"x": -2.1534958029,
				"y": 4.1490270662,
				"z": 0.0978339268,
				"element": "H" 
			}
		],
		 "valence_orbital": [ 
			{
				"type": "occ",
				"energy": -0.3089,
				"method": "rhf"
			},
			{
				"type": "occ",
				"energy": -0.26726,
				"method": "rhf"
			},
			{
				"type": "occ",
				"energy": -0.2645,
				"method": "rhf"
			},
			{
				"type": "occ",
				"energy": -0.25566,
				"method": "rhf"
			},
			{
				"type": "occ",
				"energy": -0.21271,
				"method": "rhf"
			},
			{
				"type": "unocc",
				"energy": -0.04908,
				"method": "rhf"
			},
			{
				"type": "unocc",
				"energy": -0.01739,
				"method": "rhf"
			},
			{
				"type": "unocc",
				"energy": 0.00579,
				"method": "rhf"
			},
			{
				"type": "unocc",
				"energy": 0.0109,
				"method": "rhf"
			},
			{
				"type": "unocc",
				"energy": 0.02835,
				"method": "rhf"
			}
		],
		"cosmo_sigma_profile": { 
			"-0.025": 0.0,
			"-0.024": 0.0,
			"-0.023": 0.0,
			"-0.022": 0.0,
			"-0.021": 0.0,
			"-0.02": 0.0,
			"-0.019": 0.0,
			"-0.018": 0.0,
			"-0.017": 0.0,
			"-0.016": 0.0,
			"-0.015": 0.0,
			"-0.014": 0.0,
			"-0.013": 0.0,
			"-0.012": 0.0,
			"-0.011": 0.0,
			"-0.01": 0.0,
			"-0.009": 0.489435322862,
			"-0.008": 3.93746169296,
			"-0.007": 9.78330916452,
			"-0.006": 13.1191772901,
			"-0.005": 15.9666737287,
			"-0.004": 13.4946079893,
			"-0.003": 15.4314069072,
			"-0.002": 14.7394590845,
			"-0.001": 13.7910091082,
			"0.0": 15.4893951898,
			"0.001": 17.1217022573,
			"0.002": 21.8383643845,
			"0.003": 25.4580870722,
			"0.004": 26.8109868307,
			"0.005": 12.4886803244,
			"0.006": 3.95064226753,
			"0.007": 6.87148336691,
			"0.008": 3.06565555134,
			"0.009": 0.0,
			"0.01": 0.0,
			"0.011": 0.0,
			"0.012": 0.0,
			"0.013": 0.0,
			"0.014": 0.0,
			"0.015": 0.0,
			"0.016": 0.0,
			"0.017": 0.0,
			"0.018": 0.0,
			"0.019": 0.0,
			"0.02": 0.0,
			"0.021": 0.0,
			"0.022": 0.0,
			"0.023": 0.0,
			"0.024": 0.0,
			"0.025": 0.0
		}
	}
}
