{
	 "smiles": "OC(=O)C1=C(OC=N1)C1CCCO1", 
	 "Tm": 399.15, 
	 "num_atms": 22, 
	 "gaussian": { 
		 "optdone": 1, 
		 "sigma_profile": "yes", 
		 "theory": "DFT", 
		 "functional": "B3LYP", 
		 "basiset": "6-31G**", 
		 "properties": { 
			 "R2extent": 2477.7666, 
			 "electric_dipole_moment_norm": 2.13483222994, 
			 "electric_quadrupole_moment_norm": 5.95330293535, 
			 "total_energy": -665.901969848, 
			 "HOMO_LUMO_gap": 0.20816, 
			 "cosmo_polarized_energy": -13.79, 
			 "cosmo_cavitation_energy": 25.43, 
			 "cosmo_dispersion_energy": -19.06, 
			 "cosmo_repulsion_energy": 1.51, 
			 "cosmo_total_nonelectrostatic_energy": 7.87, 
			 "SMD_solvation_energy": 4.62 
		},
		"coords": [
			{
				"x": 1.6390080317,
				"y": 3.2404520874,
				"z": -1.8079353471,
				"element": "O" 
			},
			{
				"x": 1.2089593271,
				"y": 1.9988148183,
				"z": -1.5007348573,
				"element": "C" 
			},
			{
				"x": 1.5190221272,
				"y": 1.0214733604,
				"z": -2.1564532835,
				"element": "O" 
			},
			{
				"x": 0.329199328,
				"y": 1.9943818355,
				"z": -0.3159757366,
				"element": "C" 
			},
			{
				"x": -0.04936908,
				"y": 0.9383533452,
				"z": 0.4768316427,
				"element": "C" 
			},
			{
				"x": -0.8890199483,
				"y": 1.4463077984,
				"z": 1.4307646718,
				"element": "O" 
			},
			{
				"x": -0.9764976066,
				"y": 2.7793277282,
				"z": 1.1596209628,
				"element": "C" 
			},
			{
				"x": -0.275260049,
				"y": 3.1632325073,
				"z": 0.1504565276,
				"element": "N" 
			},
			{
				"x": 0.2350115969,
				"y": -0.5334434162,
				"z": 0.6148197907,
				"element": "C" 
			},
			{
				"x": -0.7198588868,
				"y": -1.4465237391,
				"z": -0.1991116769,
				"element": "C" 
			},
			{
				"x": 0.1097935656,
				"y": -1.7607985402,
				"z": -1.4522691143,
				"element": "C" 
			},
			{
				"x": 1.5320912574,
				"y": -1.7852419526,
				"z": -0.8910009074,
				"element": "C" 
			},
			{
				"x": 1.5536811995,
				"y": -0.8286549036,
				"z": 0.1811997856,
				"element": "O" 
			},
			{
				"x": 2.1856283166,
				"y": 3.1350726377,
				"z": -2.6043347899,
				"element": "H" 
			},
			{
				"x": -1.6121184219,
				"y": 3.3660796447,
				"z": 1.8061599674,
				"element": "H" 
			},
			{
				"x": 0.1455719897,
				"y": -0.7544245408,
				"z": 1.6878602109,
				"element": "H" 
			},
			{
				"x": -0.9179335734,
				"y": -2.3575577559,
				"z": 0.3755549811,
				"element": "H" 
			},
			{
				"x": -1.6792516793,
				"y": -0.9690503368,
				"z": -0.4132145239,
				"element": "H" 
			},
			{
				"x": -0.1762421953,
				"y": -2.705390124,
				"z": -1.9235087747,
				"element": "H" 
			},
			{
				"x": 0.0214175352,
				"y": -0.9556723124,
				"z": -2.1845404132,
				"element": "H" 
			},
			{
				"x": 1.7922162786,
				"y": -2.7782555503,
				"z": -0.4944946327,
				"element": "H" 
			},
			{
				"x": 2.285450887,
				"y": -1.4812825909,
				"z": -1.6207944831,
				"element": "H" 
			}
		],
		 "valence_orbital": [ 
			{
				"type": "occ",
				"energy": -0.31557,
				"method": "rhf"
			},
			{
				"type": "occ",
				"energy": -0.30096,
				"method": "rhf"
			},
			{
				"type": "occ",
				"energy": -0.27883,
				"method": "rhf"
			},
			{
				"type": "occ",
				"energy": -0.26218,
				"method": "rhf"
			},
			{
				"type": "occ",
				"energy": -0.24607,
				"method": "rhf"
			},
			{
				"type": "unocc",
				"energy": -0.03791,
				"method": "rhf"
			},
			{
				"type": "unocc",
				"energy": 0.00228,
				"method": "rhf"
			},
			{
				"type": "unocc",
				"energy": 0.08228,
				"method": "rhf"
			},
			{
				"type": "unocc",
				"energy": 0.0849,
				"method": "rhf"
			},
			{
				"type": "unocc",
				"energy": 0.09384,
				"method": "rhf"
			}
		],
		"cosmo_sigma_profile": { 
			"-0.025": 0.0,
			"-0.024": 0.0,
			"-0.023": 0.0,
			"-0.022": 0.0,
			"-0.021": 0.0,
			"-0.02": 0.0,
			"-0.019": 0.0968281833216,
			"-0.018": 0.858969791476,
			"-0.017": 1.08642961722,
			"-0.016": 0.875580283485,
			"-0.015": 0.368420526817,
			"-0.014": 0.356748535254,
			"-0.013": 0.725854926441,
			"-0.012": 1.49873481897,
			"-0.011": 3.05928855007,
			"-0.01": 2.81833155205,
			"-0.009": 1.90247340314,
			"-0.008": 1.96388598638,
			"-0.007": 2.40389629473,
			"-0.006": 4.02334941886,
			"-0.005": 8.24936190929,
			"-0.004": 15.6144041057,
			"-0.003": 25.1400757799,
			"-0.002": 23.1969587569,
			"-0.001": 20.5765232875,
			"0.0": 14.1019805122,
			"0.001": 7.32771955059,
			"0.002": 8.282798736,
			"0.003": 6.37704448919,
			"0.004": 4.92456847938,
			"0.005": 7.09155966402,
			"0.006": 4.89716046623,
			"0.007": 4.82178050928,
			"0.008": 5.49566448222,
			"0.009": 4.11545448865,
			"0.01": 4.73830522023,
			"0.011": 4.9568274661,
			"0.012": 3.88625586423,
			"0.013": 2.59806857958,
			"0.014": 1.69653875551,
			"0.015": 1.2128993412,
			"0.016": 0.18154536485,
			"0.017": 0.0,
			"0.018": 0.0,
			"0.019": 0.0,
			"0.02": 0.0,
			"0.021": 0.0,
			"0.022": 0.0,
			"0.023": 0.0,
			"0.024": 0.0,
			"0.025": 0.0
		}
	}
}
