{
	 "smiles": "NC1=CC=C2C=CC3=C(C=CC=C3)C2=C1", 
	 "Tm": 416.15, 
	 "num_atms": 26, 
	 "gaussian": { 
		 "optdone": 1, 
		 "sigma_profile": "yes", 
		 "theory": "DFT", 
		 "functional": "B3LYP", 
		 "basiset": "6-31G**", 
		 "properties": { 
			 "R2extent": 3802.0079, 
			 "electric_dipole_moment_norm": 2.12177845686, 
			 "electric_quadrupole_moment_norm": 14.2016073083, 
			 "total_energy": -594.90042243, 
			 "HOMO_LUMO_gap": 0.16071, 
			 "cosmo_polarized_energy": -10.81, 
			 "cosmo_cavitation_energy": 28.95, 
			 "cosmo_dispersion_energy": -21.84, 
			 "cosmo_repulsion_energy": 1.65, 
			 "cosmo_total_nonelectrostatic_energy": 8.76, 
			 "SMD_solvation_energy": 4.26 
		},
		"coords": [
			{
				"x": 3.3929621394,
				"y": 1.7509988289,
				"z": 1.0140820514,
				"element": "N" 
			},
			{
				"x": 2.3262107388,
				"y": 1.1061683302,
				"z": 0.3859008819,
				"element": "C" 
			},
			{
				"x": 1.6727737817,
				"y": 1.7295739935,
				"z": -0.705768253,
				"element": "C" 
			},
			{
				"x": 0.5866113095,
				"y": 1.1236466565,
				"z": -1.2962669666,
				"element": "C" 
			},
			{
				"x": 0.0905297767,
				"y": -0.1197272219,
				"z": -0.8395880835,
				"element": "C" 
			},
			{
				"x": -1.0388039861,
				"y": -0.7397789196,
				"z": -1.466038102,
				"element": "C" 
			},
			{
				"x": -1.518161385,
				"y": -1.9369881234,
				"z": -1.0319408702,
				"element": "C" 
			},
			{
				"x": -0.9056987117,
				"y": -2.6180267634,
				"z": 0.0728817475,
				"element": "C" 
			},
			{
				"x": 0.2219789818,
				"y": -2.0386916006,
				"z": 0.7303470451,
				"element": "C" 
			},
			{
				"x": 0.7892728588,
				"y": -2.7453040752,
				"z": 1.8169148555,
				"element": "C" 
			},
			{
				"x": 0.2788509725,
				"y": -3.9604105458,
				"z": 2.2371263878,
				"element": "C" 
			},
			{
				"x": -0.8315444374,
				"y": -4.5275852159,
				"z": 1.5841137825,
				"element": "C" 
			},
			{
				"x": -1.409451757,
				"y": -3.8622567817,
				"z": 0.521055477,
				"element": "C" 
			},
			{
				"x": 0.736924637,
				"y": -0.7560796423,
				"z": 0.2620791559,
				"element": "C" 
			},
			{
				"x": 1.8510076947,
				"y": -0.1186956759,
				"z": 0.8477920052,
				"element": "C" 
			},
			{
				"x": 4.0056428276,
				"y": 1.1502638111,
				"z": 1.5482115724,
				"element": "H" 
			},
			{
				"x": 3.910271495,
				"y": 2.394352163,
				"z": 0.4310452853,
				"element": "H" 
			},
			{
				"x": 2.0329252783,
				"y": 2.6892670022,
				"z": -1.0680327668,
				"element": "H" 
			},
			{
				"x": 0.0918254548,
				"y": 1.6052552229,
				"z": -2.1360138868,
				"element": "H" 
			},
			{
				"x": -1.507865709,
				"y": -0.2281622773,
				"z": -2.3029441698,
				"element": "H" 
			},
			{
				"x": -2.3753164463,
				"y": -2.3995987209,
				"z": -1.5138207379,
				"element": "H" 
			},
			{
				"x": 1.6440456154,
				"y": -2.3330104,
				"z": 2.3418139078,
				"element": "H" 
			},
			{
				"x": 0.7375523845,
				"y": -4.4772413904,
				"z": 3.0752495505,
				"element": "H" 
			},
			{
				"x": -1.2304236807,
				"y": -5.481825297,
				"z": 1.9160667455,
				"element": "H" 
			},
			{
				"x": -2.2683101085,
				"y": -4.2886766248,
				"z": 0.0086618915,
				"element": "H" 
			},
			{
				"x": 2.3626902752,
				"y": -0.5809667323,
				"z": 1.6858714936,
				"element": "H" 
			}
		],
		 "valence_orbital": [ 
			{
				"type": "occ",
				"energy": -0.28719,
				"method": "rhf"
			},
			{
				"type": "occ",
				"energy": -0.2741,
				"method": "rhf"
			},
			{
				"type": "occ",
				"energy": -0.23469,
				"method": "rhf"
			},
			{
				"type": "occ",
				"energy": -0.21741,
				"method": "rhf"
			},
			{
				"type": "occ",
				"energy": -0.18761,
				"method": "rhf"
			},
			{
				"type": "unocc",
				"energy": -0.0269,
				"method": "rhf"
			},
			{
				"type": "unocc",
				"energy": -0.02563,
				"method": "rhf"
			},
			{
				"type": "unocc",
				"energy": 0.01992,
				"method": "rhf"
			},
			{
				"type": "unocc",
				"energy": 0.04211,
				"method": "rhf"
			},
			{
				"type": "unocc",
				"energy": 0.0769,
				"method": "rhf"
			}
		],
		"cosmo_sigma_profile": { 
			"-0.025": 0.0,
			"-0.024": 0.0,
			"-0.023": 0.0,
			"-0.022": 0.0,
			"-0.021": 0.0,
			"-0.02": 0.0,
			"-0.019": 0.0,
			"-0.018": 0.0,
			"-0.017": 0.0,
			"-0.016": 0.0,
			"-0.015": 0.0,
			"-0.014": 0.0,
			"-0.013": 0.178464863674,
			"-0.012": 2.56542472312,
			"-0.011": 2.96440949417,
			"-0.01": 3.30936342518,
			"-0.009": 3.34635657438,
			"-0.008": 3.47297327717,
			"-0.007": 5.22005810408,
			"-0.006": 9.98657832651,
			"-0.005": 18.6977265081,
			"-0.004": 16.3289217511,
			"-0.003": 17.0737710048,
			"-0.002": 12.1648395695,
			"-0.001": 10.3013878351,
			"0.0": 9.668634615,
			"0.001": 11.5687301181,
			"0.002": 11.6004868938,
			"0.003": 14.378139716,
			"0.004": 25.7461777379,
			"0.005": 32.5086886843,
			"0.006": 14.5707820792,
			"0.007": 0.843766950326,
			"0.008": 1.36174477859,
			"0.009": 0.476241194954,
			"0.01": 0.833494852864,
			"0.011": 0.81575918136,
			"0.012": 0.401433202659,
			"0.013": 0.637545371925,
			"0.014": 0.780603605351,
			"0.015": 0.0521287168315,
			"0.016": 0.0,
			"0.017": 0.0,
			"0.018": 0.0,
			"0.019": 0.0,
			"0.02": 0.0,
			"0.021": 0.0,
			"0.022": 0.0,
			"0.023": 0.0,
			"0.024": 0.0,
			"0.025": 0.0
		}
	}
}
