{
	 "smiles": "OC1=CC(O)=C(C=C1)C(=O)CCl", 
	 "Tm": 382.15, 
	 "num_atms": 19, 
	 "gaussian": { 
		 "optdone": 1, 
		 "sigma_profile": "yes", 
		 "theory": "DFT", 
		 "functional": "B3LYP", 
		 "basiset": "6-31G**", 
		 "properties": { 
			 "R2extent": 3005.0572, 
			 "electric_dipole_moment_norm": 4.41552332685, 
			 "electric_quadrupole_moment_norm": 10.2095794145, 
			 "total_energy": -994.923555083, 
			 "HOMO_LUMO_gap": 0.17725, 
			 "cosmo_polarized_energy": -17.19, 
			 "cosmo_cavitation_energy": 25.23, 
			 "cosmo_dispersion_energy": -18.73, 
			 "cosmo_repulsion_energy": 1.5, 
			 "cosmo_total_nonelectrostatic_energy": 8.01, 
			 "SMD_solvation_energy": 5.4 
		},
		"coords": [
			{
				"x": -0.3069331294,
				"y": -1.9046794114,
				"z": 3.557736269,
				"element": "O" 
			},
			{
				"x": -0.5610327004,
				"y": -1.3341213611,
				"z": 2.3514884029,
				"element": "C" 
			},
			{
				"x": -0.8483023038,
				"y": -2.1935401994,
				"z": 1.2901468003,
				"element": "C" 
			},
			{
				"x": -1.113013865,
				"y": -1.6793056388,
				"z": 0.0198576407,
				"element": "C" 
			},
			{
				"x": -1.4281585775,
				"y": -2.5177987248,
				"z": -1.0053128139,
				"element": "O" 
			},
			{
				"x": -1.0905452957,
				"y": -0.2839737282,
				"z": -0.2141388539,
				"element": "C" 
			},
			{
				"x": -0.8186561337,
				"y": 0.5499597432,
				"z": 0.8862366234,
				"element": "C" 
			},
			{
				"x": -0.5499366959,
				"y": 0.0545741285,
				"z": 2.1507740231,
				"element": "C" 
			},
			{
				"x": -1.346146769,
				"y": 0.3989102914,
				"z": -1.5118587761,
				"element": "C" 
			},
			{
				"x": -1.5522723224,
				"y": 1.6044866217,
				"z": -1.55458947,
				"element": "O" 
			},
			{
				"x": -1.3340285857,
				"y": -0.3633775018,
				"z": -2.8374980294,
				"element": "C" 
			},
			{
				"x": 0.3446426321,
				"y": -0.9317157552,
				"z": -3.2426703371,
				"element": "Cl" 
			},
			{
				"x": -0.1292241764,
				"y": -1.2118727767,
				"z": 4.2076689128,
				"element": "H" 
			},
			{
				"x": -0.8711134075,
				"y": -3.2640816023,
				"z": 1.4737753447,
				"element": "H" 
			},
			{
				"x": -1.3315393958,
				"y": -3.4335650772,
				"z": -0.7136014377,
				"element": "H" 
			},
			{
				"x": -0.8191581531,
				"y": 1.6187771988,
				"z": 0.7022215573,
				"element": "H" 
			},
			{
				"x": -0.3301347545,
				"y": 0.7277190472,
				"z": 2.9754983904,
				"element": "H" 
			},
			{
				"x": -1.9660015594,
				"y": -1.2488011341,
				"z": -2.81993384,
				"element": "H" 
			},
			{
				"x": -1.6325448069,
				"y": 0.3316058801,
				"z": -3.6200004064,
				"element": "H" 
			}
		],
		 "valence_orbital": [ 
			{
				"type": "occ",
				"energy": -0.30378,
				"method": "rhf"
			},
			{
				"type": "occ",
				"energy": -0.2916,
				"method": "rhf"
			},
			{
				"type": "occ",
				"energy": -0.25291,
				"method": "rhf"
			},
			{
				"type": "occ",
				"energy": -0.25,
				"method": "rhf"
			},
			{
				"type": "occ",
				"energy": -0.23467,
				"method": "rhf"
			},
			{
				"type": "unocc",
				"energy": -0.05742,
				"method": "rhf"
			},
			{
				"type": "unocc",
				"energy": -0.00688,
				"method": "rhf"
			},
			{
				"type": "unocc",
				"energy": 0.0139,
				"method": "rhf"
			},
			{
				"type": "unocc",
				"energy": 0.05331,
				"method": "rhf"
			},
			{
				"type": "unocc",
				"energy": 0.05679,
				"method": "rhf"
			}
		],
		"cosmo_sigma_profile": { 
			"-0.025": 0.0,
			"-0.024": 0.0,
			"-0.023": 0.0,
			"-0.022": 0.0,
			"-0.021": 0.0,
			"-0.02": 0.0,
			"-0.019": 0.651064899276,
			"-0.018": 2.12512734313,
			"-0.017": 2.39263447249,
			"-0.016": 2.2205764483,
			"-0.015": 1.80716553264,
			"-0.014": 2.03945277137,
			"-0.013": 1.75678739064,
			"-0.012": 2.45991524935,
			"-0.011": 2.01062797992,
			"-0.01": 2.00298315442,
			"-0.009": 1.90850909762,
			"-0.008": 2.52306571708,
			"-0.007": 5.98616900866,
			"-0.006": 7.92950624237,
			"-0.005": 10.3002698914,
			"-0.004": 8.05558282898,
			"-0.003": 6.33883700333,
			"-0.002": 6.2502830587,
			"-0.001": 8.73508288503,
			"0.0": 10.5406663219,
			"0.001": 13.1648050447,
			"0.002": 18.7981482847,
			"0.003": 21.2863355846,
			"0.004": 14.8094920108,
			"0.005": 11.744188742,
			"0.006": 12.0353243314,
			"0.007": 4.52701749632,
			"0.008": 4.02456805273,
			"0.009": 2.87901766034,
			"0.01": 4.36069282514,
			"0.011": 4.09029656871,
			"0.012": 3.02194757511,
			"0.013": 0.540174854777,
			"0.014": 0.0,
			"0.015": 0.0,
			"0.016": 0.0,
			"0.017": 0.0,
			"0.018": 0.0,
			"0.019": 0.0,
			"0.02": 0.0,
			"0.021": 0.0,
			"0.022": 0.0,
			"0.023": 0.0,
			"0.024": 0.0,
			"0.025": 0.0
		}
	}
}
