{
	 "smiles": "CC12C=CC=CC1NC(C=C2)=C1C(=O)C2=CC=CC=C2C1=O", 
	 "Tm": 476.15, 
	 "num_atms": 37, 
	 "gaussian": { 
		 "optdone": 1, 
		 "sigma_profile": "yes", 
		 "theory": "DFT", 
		 "functional": "B3LYP", 
		 "basiset": "6-31G**", 
		 "properties": { 
			 "R2extent": 7883.9616, 
			 "electric_dipole_moment_norm": 3.29494437434, 
			 "electric_quadrupole_moment_norm": 18.3720062884, 
			 "total_energy": -938.231765003, 
			 "HOMO_LUMO_gap": 0.14436, 
			 "cosmo_polarized_energy": -13.83, 
			 "cosmo_cavitation_energy": 39.83, 
			 "cosmo_dispersion_energy": -28.56, 
			 "cosmo_repulsion_energy": 2.12, 
			 "cosmo_total_nonelectrostatic_energy": 13.39, 
			 "SMD_solvation_energy": 6.52 
		},
		"coords": [
			{
				"x": 0.3485879667,
				"y": 4.4263173569,
				"z": 1.3047224883,
				"element": "C" 
			},
			{
				"x": 0.1732164189,
				"y": 2.8860375582,
				"z": 1.2545396223,
				"element": "C" 
			},
			{
				"x": 0.0316981263,
				"y": 2.3832720305,
				"z": 2.6864080954,
				"element": "C" 
			},
			{
				"x": 1.0993469591,
				"y": 1.987216014,
				"z": 3.3960079304,
				"element": "C" 
			},
			{
				"x": 2.4348619075,
				"y": 1.9764203359,
				"z": 2.7959994968,
				"element": "C" 
			},
			{
				"x": 2.6039042239,
				"y": 2.1330584742,
				"z": 1.4742411856,
				"element": "C" 
			},
			{
				"x": 1.409196769,
				"y": 2.2612780156,
				"z": 0.5516180209,
				"element": "C" 
			},
			{
				"x": 1.1099004919,
				"y": 0.932600951,
				"z": -0.0054022118,
				"element": "N" 
			},
			{
				"x": -0.0617249375,
				"y": 0.6088525656,
				"z": -0.5765279515,
				"element": "C" 
			},
			{
				"x": -1.182462953,
				"y": 1.5316457464,
				"z": -0.3886346323,
				"element": "C" 
			},
			{
				"x": -1.0809925589,
				"y": 2.5573355286,
				"z": 0.4682585615,
				"element": "C" 
			},
			{
				"x": -0.1940000926,
				"y": -0.5915024141,
				"z": -1.2784306974,
				"element": "C" 
			},
			{
				"x": 0.9067225911,
				"y": -1.5308331287,
				"z": -1.4693682898,
				"element": "C" 
			},
			{
				"x": 2.0689038555,
				"y": -1.4272284564,
				"z": -1.0530764922,
				"element": "O" 
			},
			{
				"x": 0.3709308487,
				"y": -2.6685289874,
				"z": -2.2802711267,
				"element": "C" 
			},
			{
				"x": 1.0070752342,
				"y": -3.8164714709,
				"z": -2.7358135732,
				"element": "C" 
			},
			{
				"x": 0.2528878865,
				"y": -4.7279004147,
				"z": -3.4855836271,
				"element": "C" 
			},
			{
				"x": -1.0988727196,
				"y": -4.4854672739,
				"z": -3.7652484107,
				"element": "C" 
			},
			{
				"x": -1.7330158145,
				"y": -3.3250956725,
				"z": -3.3027938824,
				"element": "C" 
			},
			{
				"x": -0.9801736652,
				"y": -2.4260498582,
				"z": -2.5593174643,
				"element": "C" 
			},
			{
				"x": -1.3948709533,
				"y": -1.1162418972,
				"z": -1.9444479335,
				"element": "C" 
			},
			{
				"x": -2.5224560144,
				"y": -0.6343254485,
				"z": -2.0254364286,
				"element": "O" 
			},
			{
				"x": 1.2614361768,
				"y": 4.6921692787,
				"z": 1.8443756013,
				"element": "H" 
			},
			{
				"x": 0.4039051352,
				"y": 4.8427375096,
				"z": 0.2927674814,
				"element": "H" 
			},
			{
				"x": -0.4990795622,
				"y": 4.8907526592,
				"z": 1.8175936499,
				"element": "H" 
			},
			{
				"x": -0.9594069138,
				"y": 2.4125672294,
				"z": 3.132470115,
				"element": "H" 
			},
			{
				"x": 0.9915323012,
				"y": 1.6826383216,
				"z": 4.4333158549,
				"element": "H" 
			},
			{
				"x": 3.2945263151,
				"y": 1.8326397477,
				"z": 3.4453671019,
				"element": "H" 
			},
			{
				"x": 3.5919627726,
				"y": 2.104695379,
				"z": 1.0229986208,
				"element": "H" 
			},
			{
				"x": 1.6702566602,
				"y": 2.9281505019,
				"z": -0.285250064,
				"element": "H" 
			},
			{
				"x": 1.8666500865,
				"y": 0.260241583,
				"z": -0.1496405153,
				"element": "H" 
			},
			{
				"x": -2.098405663,
				"y": 1.2932905387,
				"z": -0.9154761174,
				"element": "H" 
			},
			{
				"x": -1.9471609177,
				"y": 3.1902007664,
				"z": 0.6555013279,
				"element": "H" 
			},
			{
				"x": 2.054895248,
				"y": -3.992062895,
				"z": -2.5124024159,
				"element": "H" 
			},
			{
				"x": 0.7192803809,
				"y": -5.6361586798,
				"z": -3.8566848721,
				"element": "H" 
			},
			{
				"x": -1.6599807244,
				"y": -5.2097098999,
				"z": -4.3491117042,
				"element": "H" 
			},
			{
				"x": -2.7791748656,
				"y": -3.1239415951,
				"z": -3.5120667439,
				"element": "H" 
			}
		],
		 "valence_orbital": [ 
			{
				"type": "occ",
				"energy": -0.25551,
				"method": "rhf"
			},
			{
				"type": "occ",
				"energy": -0.25407,
				"method": "rhf"
			},
			{
				"type": "occ",
				"energy": -0.234,
				"method": "rhf"
			},
			{
				"type": "occ",
				"energy": -0.22872,
				"method": "rhf"
			},
			{
				"type": "occ",
				"energy": -0.21434,
				"method": "rhf"
			},
			{
				"type": "unocc",
				"energy": -0.06998,
				"method": "rhf"
			},
			{
				"type": "unocc",
				"energy": -0.05794,
				"method": "rhf"
			},
			{
				"type": "unocc",
				"energy": -0.04467,
				"method": "rhf"
			},
			{
				"type": "unocc",
				"energy": -0.00726,
				"method": "rhf"
			},
			{
				"type": "unocc",
				"energy": 0.04852,
				"method": "rhf"
			}
		],
		"cosmo_sigma_profile": { 
			"-0.025": 0.0,
			"-0.024": 0.0,
			"-0.023": 0.0,
			"-0.022": 0.0,
			"-0.021": 0.0,
			"-0.02": 0.0,
			"-0.019": 0.0,
			"-0.018": 0.0,
			"-0.017": 0.0,
			"-0.016": 0.0,
			"-0.015": 0.0,
			"-0.014": 0.0,
			"-0.013": 0.0,
			"-0.012": 0.0,
			"-0.011": 0.0,
			"-0.01": 0.0,
			"-0.009": 0.117280855584,
			"-0.008": 0.707854574244,
			"-0.007": 6.42407605399,
			"-0.006": 20.5968498947,
			"-0.005": 28.6557685993,
			"-0.004": 25.9465835514,
			"-0.003": 22.2137762245,
			"-0.002": 22.5868988671,
			"-0.001": 25.0985933009,
			"0.0": 29.0167621735,
			"0.001": 31.1650944746,
			"0.002": 28.2472714634,
			"0.003": 25.5722797509,
			"0.004": 15.0915600781,
			"0.005": 6.44526814123,
			"0.006": 4.06509991544,
			"0.007": 2.86163537925,
			"0.008": 2.67994874887,
			"0.009": 3.6269375094,
			"0.01": 3.3063905348,
			"0.011": 4.62567914297,
			"0.012": 5.62932068513,
			"0.013": 3.64906578934,
			"0.014": 0.349363958358,
			"0.015": 0.0,
			"0.016": 0.0,
			"0.017": 0.0,
			"0.018": 0.0,
			"0.019": 0.0,
			"0.02": 0.0,
			"0.021": 0.0,
			"0.022": 0.0,
			"0.023": 0.0,
			"0.024": 0.0,
			"0.025": 0.0
		}
	}
}
