{
	 "smiles": "ONC(=O)C1=CC=C(Br)S1", 
	 "Tm": 429.15, 
	 "num_atms": 14, 
	 "gaussian": { 
		 "optdone": 1, 
		 "sigma_profile": "yes", 
		 "theory": "DFT", 
		 "functional": "B3LYP", 
		 "basiset": "6-31G**", 
		 "properties": { 
			 "R2extent": 6080.4589, 
			 "electric_dipole_moment_norm": 3.38002153543, 
			 "electric_quadrupole_moment_norm": 10.8966123685, 
			 "total_energy": -3367.66007076, 
			 "HOMO_LUMO_gap": 0.16925, 
			 "cosmo_polarized_energy": -11.83, 
			 "cosmo_cavitation_energy": 23.08, 
			 "cosmo_dispersion_energy": -18.18, 
			 "cosmo_repulsion_energy": 1.43, 
			 "cosmo_total_nonelectrostatic_energy": 6.33, 
			 "SMD_solvation_energy": 4.16 
		},
		"coords": [
			{
				"x": -3.5031011965,
				"y": 0.1736033958,
				"z": -2.9576900609,
				"element": "O" 
			},
			{
				"x": -3.1955586304,
				"y": 0.2044067858,
				"z": -1.5881018627,
				"element": "N" 
			},
			{
				"x": -2.6516077714,
				"y": 1.3963400353,
				"z": -1.1612126208,
				"element": "C" 
			},
			{
				"x": -2.6381380714,
				"y": 2.3724834138,
				"z": -1.9160997395,
				"element": "O" 
			},
			{
				"x": -2.1535613894,
				"y": 1.4270679653,
				"z": 0.2203639669,
				"element": "C" 
			},
			{
				"x": -2.3312615147,
				"y": 0.5360360772,
				"z": 1.2555152783,
				"element": "C" 
			},
			{
				"x": -1.6822968195,
				"y": 0.9338485248,
				"z": 2.4548932261,
				"element": "C" 
			},
			{
				"x": -1.0291877151,
				"y": 2.1308366449,
				"z": 2.3028457682,
				"element": "C" 
			},
			{
				"x": -0.0398933361,
				"y": 3.0369962689,
				"z": 3.6230981994,
				"element": "Br" 
			},
			{
				"x": -1.1940306045,
				"y": 2.7995546182,
				"z": 0.7114522579,
				"element": "S" 
			},
			{
				"x": -3.2845282365,
				"y": 1.0956366896,
				"z": -3.2203065322,
				"element": "H" 
			},
			{
				"x": -2.7332253997,
				"y": -0.656966368,
				"z": -1.3218251806,
				"element": "H" 
			},
			{
				"x": -2.9325742995,
				"y": -0.3625541078,
				"z": 1.1726761304,
				"element": "H" 
			},
			{
				"x": -1.7011350154,
				"y": 0.3756100563,
				"z": 3.3820911695,
				"element": "H" 
			}
		],
		 "valence_orbital": [ 
			{
				"type": "occ",
				"energy": -0.30977,
				"method": "rhf"
			},
			{
				"type": "occ",
				"energy": -0.29345,
				"method": "rhf"
			},
			{
				"type": "occ",
				"energy": -0.28006,
				"method": "rhf"
			},
			{
				"type": "occ",
				"energy": -0.25804,
				"method": "rhf"
			},
			{
				"type": "occ",
				"energy": -0.23891,
				"method": "rhf"
			},
			{
				"type": "unocc",
				"energy": -0.06966,
				"method": "rhf"
			},
			{
				"type": "unocc",
				"energy": -0.01628,
				"method": "rhf"
			},
			{
				"type": "unocc",
				"energy": 0.00398,
				"method": "rhf"
			},
			{
				"type": "unocc",
				"energy": 0.01305,
				"method": "rhf"
			},
			{
				"type": "unocc",
				"energy": 0.06246,
				"method": "rhf"
			}
		],
		"cosmo_sigma_profile": { 
			"-0.025": 0.0,
			"-0.024": 0.0,
			"-0.023": 0.0,
			"-0.022": 0.0,
			"-0.021": 0.0,
			"-0.02": 0.0,
			"-0.019": 0.0,
			"-0.018": 0.0,
			"-0.017": 0.106343879875,
			"-0.016": 1.15380228516,
			"-0.015": 1.27549353698,
			"-0.014": 1.1235713597,
			"-0.013": 1.88580275989,
			"-0.012": 1.34879960363,
			"-0.011": 1.97856247907,
			"-0.01": 2.16925082503,
			"-0.009": 3.35250603555,
			"-0.008": 5.13795721233,
			"-0.007": 5.0252220481,
			"-0.006": 5.98103416343,
			"-0.005": 5.8170239576,
			"-0.004": 5.99902448163,
			"-0.003": 7.69755648384,
			"-0.002": 11.4010940044,
			"-0.001": 12.6440558811,
			"0.0": 19.6953663281,
			"0.001": 26.4581655424,
			"0.002": 21.3239491651,
			"0.003": 15.3175036287,
			"0.004": 4.32932962855,
			"0.005": 3.03544452355,
			"0.006": 2.9395422867,
			"0.007": 3.82827985628,
			"0.008": 3.37017411051,
			"0.009": 3.68710497446,
			"0.01": 4.34718422374,
			"0.011": 5.09868555672,
			"0.012": 3.03571363474,
			"0.013": 0.138603617216,
			"0.014": 0.0,
			"0.015": 0.0,
			"0.016": 0.0,
			"0.017": 0.0,
			"0.018": 0.0,
			"0.019": 0.0,
			"0.02": 0.0,
			"0.021": 0.0,
			"0.022": 0.0,
			"0.023": 0.0,
			"0.024": 0.0,
			"0.025": 0.0
		}
	}
}
