{
	 "smiles": "CSC1=CC=C(CO)C=C1", 
	 "Tm": 315.15, 
	 "num_atms": 20, 
	 "gaussian": { 
		 "optdone": 1, 
		 "sigma_profile": "yes", 
		 "theory": "DFT", 
		 "functional": "B3LYP", 
		 "basiset": "6-31G**", 
		 "properties": { 
			 "R2extent": 2614.5417, 
			 "electric_dipole_moment_norm": 1.16195224515, 
			 "electric_quadrupole_moment_norm": 10.8219743097, 
			 "total_energy": -784.27978004, 
			 "HOMO_LUMO_gap": 0.20117, 
			 "cosmo_polarized_energy": -9.43, 
			 "cosmo_cavitation_energy": 24.83, 
			 "cosmo_dispersion_energy": -18.87, 
			 "cosmo_repulsion_energy": 1.49, 
			 "cosmo_total_nonelectrostatic_energy": 7.44, 
			 "SMD_solvation_energy": 4.26 
		},
		"coords": [
			{
				"x": 1.543143973,
				"y": 2.2362670733,
				"z": 1.0482251832,
				"element": "C" 
			},
			{
				"x": 1.9017153508,
				"y": 1.0769501949,
				"z": -0.3095204692,
				"element": "S" 
			},
			{
				"x": 0.8107931997,
				"y": -0.2963222875,
				"z": 0.0133629259,
				"element": "C" 
			},
			{
				"x": -0.0897128165,
				"y": -0.3625594637,
				"z": 1.0842909175,
				"element": "C" 
			},
			{
				"x": -0.9032105301,
				"y": -1.4848326893,
				"z": 1.2501747626,
				"element": "C" 
			},
			{
				"x": -0.8460858508,
				"y": -2.5597986716,
				"z": 0.3587643896,
				"element": "C" 
			},
			{
				"x": -1.7146216074,
				"y": -3.7845862819,
				"z": 0.5677050516,
				"element": "C" 
			},
			{
				"x": -2.9691585603,
				"y": -3.4980375481,
				"z": 1.1715055926,
				"element": "O" 
			},
			{
				"x": 0.0505755409,
				"y": -2.4824340259,
				"z": -0.71487974,
				"element": "C" 
			},
			{
				"x": 0.8718469843,
				"y": -1.3730172493,
				"z": -0.8870426214,
				"element": "C" 
			},
			{
				"x": 2.2011315194,
				"y": 3.0921023811,
				"z": 0.8841115352,
				"element": "H" 
			},
			{
				"x": 1.7711262117,
				"y": 1.7970497357,
				"z": 2.0222497114,
				"element": "H" 
			},
			{
				"x": 0.5058430055,
				"y": 2.5783831932,
				"z": 1.0220885679,
				"element": "H" 
			},
			{
				"x": -0.1665288076,
				"y": 0.4513150753,
				"z": 1.7963565908,
				"element": "H" 
			},
			{
				"x": -1.6013805043,
				"y": -1.5279191995,
				"z": 2.0809106503,
				"element": "H" 
			},
			{
				"x": -1.8376888663,
				"y": -4.3162310713,
				"z": -0.3895753178,
				"element": "H" 
			},
			{
				"x": -1.2241693735,
				"y": -4.485203785,
				"z": 1.2547225384,
				"element": "H" 
			},
			{
				"x": -3.4158774778,
				"y": -2.8487357018,
				"z": 0.6116609122,
				"element": "H" 
			},
			{
				"x": 0.1069588281,
				"y": -3.3004161738,
				"z": -1.4298404191,
				"element": "H" 
			},
			{
				"x": 1.5584997812,
				"y": -1.3348735048,
				"z": -1.7283707617,
				"element": "H" 
			}
		],
		 "valence_orbital": [ 
			{
				"type": "occ",
				"energy": -0.31728,
				"method": "rhf"
			},
			{
				"type": "occ",
				"energy": -0.28752,
				"method": "rhf"
			},
			{
				"type": "occ",
				"energy": -0.26931,
				"method": "rhf"
			},
			{
				"type": "occ",
				"energy": -0.25363,
				"method": "rhf"
			},
			{
				"type": "occ",
				"energy": -0.20678,
				"method": "rhf"
			},
			{
				"type": "unocc",
				"energy": -0.00561,
				"method": "rhf"
			},
			{
				"type": "unocc",
				"energy": -0.00373,
				"method": "rhf"
			},
			{
				"type": "unocc",
				"energy": 0.03615,
				"method": "rhf"
			},
			{
				"type": "unocc",
				"energy": 0.07497,
				"method": "rhf"
			},
			{
				"type": "unocc",
				"energy": 0.08791,
				"method": "rhf"
			}
		],
		"cosmo_sigma_profile": { 
			"-0.025": 0.0,
			"-0.024": 0.0,
			"-0.023": 0.0,
			"-0.022": 0.0,
			"-0.021": 0.0,
			"-0.02": 0.0,
			"-0.019": 0.0,
			"-0.018": 0.0,
			"-0.017": 0.0,
			"-0.016": 0.0742187201888,
			"-0.015": 0.713642211419,
			"-0.014": 0.910351706747,
			"-0.013": 0.964293321827,
			"-0.012": 0.782378437278,
			"-0.011": 0.965743099902,
			"-0.01": 0.788591603719,
			"-0.009": 0.601012892678,
			"-0.008": 0.466933736796,
			"-0.007": 2.16270238379,
			"-0.006": 10.9094222449,
			"-0.005": 19.5685372062,
			"-0.004": 19.7351124865,
			"-0.003": 17.4911422349,
			"-0.002": 16.4158948838,
			"-0.001": 12.3638691833,
			"0.0": 9.14475827884,
			"0.001": 10.2067275719,
			"0.002": 7.62689952326,
			"0.003": 9.74007898054,
			"0.004": 12.0363029298,
			"0.005": 15.4182078925,
			"0.006": 10.2294815359,
			"0.007": 4.1585846405,
			"0.008": 4.24956179517,
			"0.009": 2.87315471007,
			"0.01": 1.19954949393,
			"0.011": 1.3271713151,
			"0.012": 1.44415446244,
			"0.013": 1.55648602888,
			"0.014": 2.03603970252,
			"0.015": 0.169639582701,
			"0.016": 0.0,
			"0.017": 0.0,
			"0.018": 0.0,
			"0.019": 0.0,
			"0.02": 0.0,
			"0.021": 0.0,
			"0.022": 0.0,
			"0.023": 0.0,
			"0.024": 0.0,
			"0.025": 0.0
		}
	}
}
