{
	 "smiles": "CCOC(=O)C1=NN(C2=CC=C(C=C2)[N+]([O-])=O)C2(C)CC3(N(N=C(N3C3=C(C=CC=C3)N12)C(=O)OCC)C1=CC=C(C=C1)[N+]([O-])=O)C1=CC=CC=C1", 
	 "Tm": 511.15, 
	 "num_atms": 84, 
	 "gaussian": { 
		 "optdone": 1, 
		 "sigma_profile": "yes", 
		 "theory": "DFT", 
		 "functional": "B3LYP", 
		 "basiset": "6-31G**", 
		 "properties": { 
			 "R2extent": 32562.9859, 
			 "electric_dipole_moment_norm": 14.8269546425, 
			 "electric_quadrupole_moment_norm": 53.8110711337, 
			 "total_energy": -2430.65724992, 
			 "HOMO_LUMO_gap": 0.1191, 
			 "cosmo_polarized_energy": -37.22, 
			 "cosmo_cavitation_energy": 85.19, 
			 "cosmo_dispersion_energy": -51.11, 
			 "cosmo_repulsion_energy": 3.78, 
			 "cosmo_total_nonelectrostatic_energy": 37.85, 
			 "SMD_solvation_energy": 19.41 
		},
		"coords": [
			{
				"x": -1.7341626023,
				"y": 5.0125010651,
				"z": 2.5076094476,
				"element": "C" 
			},
			{
				"x": -0.5039451779,
				"y": 5.2124860807,
				"z": 1.6446952772,
				"element": "C" 
			},
			{
				"x": -0.0959740133,
				"y": 3.9066312335,
				"z": 1.1609966465,
				"element": "O" 
			},
			{
				"x": 1.0878555049,
				"y": 3.8577001911,
				"z": 0.5309381927,
				"element": "C" 
			},
			{
				"x": 1.8045442359,
				"y": 4.8089119437,
				"z": 0.3127106864,
				"element": "O" 
			},
			{
				"x": 1.4113781768,
				"y": 2.4671447036,
				"z": 0.0835572104,
				"element": "C" 
			},
			{
				"x": 2.0556700831,
				"y": 2.3129820802,
				"z": -1.0244645174,
				"element": "N" 
			},
			{
				"x": 2.0808822107,
				"y": 0.9660906116,
				"z": -1.2918703543,
				"element": "N" 
			},
			{
				"x": 2.7853053496,
				"y": 0.5154719206,
				"z": -2.4031140646,
				"element": "C" 
			},
			{
				"x": 2.7420040285,
				"y": -0.8321642001,
				"z": -2.8232463398,
				"element": "C" 
			},
			{
				"x": 3.4522627742,
				"y": -1.2445630551,
				"z": -3.942339574,
				"element": "C" 
			},
			{
				"x": 4.2071442827,
				"y": -0.3190217892,
				"z": -4.6598283327,
				"element": "C" 
			},
			{
				"x": 4.2562605531,
				"y": 1.0217249622,
				"z": -4.2692291148,
				"element": "C" 
			},
			{
				"x": 3.5548154772,
				"y": 1.4376767989,
				"z": -3.151049753,
				"element": "C" 
			},
			{
				"x": 4.9544227038,
				"y": -0.7571769402,
				"z": -5.8326195482,
				"element": "N" 
			},
			{
				"x": 5.6042137268,
				"y": 0.0905075211,
				"z": -6.449362409,
				"element": "O" 
			},
			{
				"x": 4.8949208709,
				"y": -1.950647297,
				"z": -6.1397273603,
				"element": "O" 
			},
			{
				"x": 1.3925434304,
				"y": 0.1531621505,
				"z": -0.2416018234,
				"element": "C" 
			},
			{
				"x": 2.3838820297,
				"y": -0.7675969484,
				"z": 0.4900320099,
				"element": "C" 
			},
			{
				"x": 0.1720383747,
				"y": -0.6277693968,
				"z": -0.838630936,
				"element": "C" 
			},
			{
				"x": -1.1227068987,
				"y": -0.5829128302,
				"z": 0.024216502,
				"element": "C" 
			},
			{
				"x": -1.9351635824,
				"y": -1.8223986298,
				"z": -0.2241470022,
				"element": "N" 
			},
			{
				"x": -1.740695494,
				"y": -2.7700790758,
				"z": 0.7578521042,
				"element": "N" 
			},
			{
				"x": -1.0710464253,
				"y": -2.1987336551,
				"z": 1.7007194694,
				"element": "C" 
			},
			{
				"x": -0.7563703714,
				"y": -0.8685486706,
				"z": 1.4396608901,
				"element": "N" 
			},
			{
				"x": -0.3074942071,
				"y": 0.0837278838,
				"z": 2.3775399074,
				"element": "C" 
			},
			{
				"x": 0.6109747769,
				"y": 1.0915918522,
				"z": 2.004032974,
				"element": "C" 
			},
			{
				"x": 1.1469758976,
				"y": 1.9189059467,
				"z": 2.9999654344,
				"element": "C" 
			},
			{
				"x": 0.7436768501,
				"y": 1.8068217912,
				"z": 4.3278905733,
				"element": "C" 
			},
			{
				"x": -0.2080884645,
				"y": 0.8507733503,
				"z": 4.6841680391,
				"element": "C" 
			},
			{
				"x": -0.7270566249,
				"y": 0.0007192779,
				"z": 3.7118522693,
				"element": "C" 
			},
			{
				"x": 0.9595442994,
				"y": 1.2732840177,
				"z": 0.645091963,
				"element": "N" 
			},
			{
				"x": -0.5994345739,
				"y": -3.0165637277,
				"z": 2.8604504305,
				"element": "C" 
			},
			{
				"x": -1.2554981706,
				"y": -3.8862248625,
				"z": 3.3854443654,
				"element": "O" 
			},
			{
				"x": 0.6590021132,
				"y": -2.6814185225,
				"z": 3.2023246848,
				"element": "O" 
			},
			{
				"x": 1.2200277502,
				"y": -3.4014837462,
				"z": 4.3324695649,
				"element": "C" 
			},
			{
				"x": 2.5647993156,
				"y": -2.7777469681,
				"z": 4.6479275627,
				"element": "C" 
			},
			{
				"x": -2.5331475148,
				"y": -2.2227699346,
				"z": -1.4185156903,
				"element": "C" 
			},
			{
				"x": -3.0300101604,
				"y": -3.5423616467,
				"z": -1.529503416,
				"element": "C" 
			},
			{
				"x": -3.6407081187,
				"y": -3.9655467499,
				"z": -2.697727229,
				"element": "C" 
			},
			{
				"x": -3.7679383985,
				"y": -3.082018596,
				"z": -3.7721042119,
				"element": "C" 
			},
			{
				"x": -3.289903184,
				"y": -1.7761419595,
				"z": -3.6828190181,
				"element": "C" 
			},
			{
				"x": -2.6762118601,
				"y": -1.3459541192,
				"z": -2.5145087958,
				"element": "C" 
			},
			{
				"x": -4.4126942695,
				"y": -3.5288253814,
				"z": -5.0012960777,
				"element": "N" 
			},
			{
				"x": -4.5084456091,
				"y": -2.7198066585,
				"z": -5.9279297856,
				"element": "O" 
			},
			{
				"x": -4.8262399789,
				"y": -4.690102979,
				"z": -5.0442752022,
				"element": "O" 
			},
			{
				"x": -2.0021138795,
				"y": 0.6680849636,
				"z": -0.1018886904,
				"element": "C" 
			},
			{
				"x": -3.1713026825,
				"y": 0.7276867202,
				"z": 0.6693161914,
				"element": "C" 
			},
			{
				"x": -4.0443443497,
				"y": 1.807411979,
				"z": 0.5566195418,
				"element": "C" 
			},
			{
				"x": -3.7644607304,
				"y": 2.8446783918,
				"z": -0.3366039942,
				"element": "C" 
			},
			{
				"x": -2.6014632257,
				"y": 2.7961873551,
				"z": -1.1046154782,
				"element": "C" 
			},
			{
				"x": -1.7239342977,
				"y": 1.7165172632,
				"z": -0.9855105156,
				"element": "C" 
			},
			{
				"x": -2.0839961184,
				"y": 5.9807204099,
				"z": 2.8790674639,
				"element": "H" 
			},
			{
				"x": -1.5072040801,
				"y": 4.3730355101,
				"z": 3.3650823449,
				"element": "H" 
			},
			{
				"x": -2.5401257541,
				"y": 4.546762038,
				"z": 1.9345190784,
				"element": "H" 
			},
			{
				"x": -0.703053764,
				"y": 5.8527739927,
				"z": 0.779514636,
				"element": "H" 
			},
			{
				"x": 0.3287149654,
				"y": 5.6553004168,
				"z": 2.1988231314,
				"element": "H" 
			},
			{
				"x": 2.1473974689,
				"y": -1.5638012146,
				"z": -2.2940454548,
				"element": "H" 
			},
			{
				"x": 3.4241227428,
				"y": -2.2754440792,
				"z": -4.2725694953,
				"element": "H" 
			},
			{
				"x": 4.8516479241,
				"y": 1.7190039995,
				"z": -4.845543453,
				"element": "H" 
			},
			{
				"x": 3.5883116264,
				"y": 2.4711317393,
				"z": -2.8334773404,
				"element": "H" 
			},
			{
				"x": 1.8877550012,
				"y": -1.3120349853,
				"z": 1.2958751398,
				"element": "H" 
			},
			{
				"x": 3.1966278539,
				"y": -0.1704369433,
				"z": 0.9111552375,
				"element": "H" 
			},
			{
				"x": 2.8149486918,
				"y": -1.4958437581,
				"z": -0.1988506241,
				"element": "H" 
			},
			{
				"x": 0.4379207869,
				"y": -1.6855551629,
				"z": -0.915734346,
				"element": "H" 
			},
			{
				"x": -0.0281878903,
				"y": -0.2783549541,
				"z": -1.8523419549,
				"element": "H" 
			},
			{
				"x": 1.9036001909,
				"y": 2.6470604471,
				"z": 2.7281682764,
				"element": "H" 
			},
			{
				"x": 1.1777289148,
				"y": 2.4605554607,
				"z": 5.0777010487,
				"element": "H" 
			},
			{
				"x": -0.5497754671,
				"y": 0.7662523172,
				"z": 5.7108175959,
				"element": "H" 
			},
			{
				"x": -1.476858471,
				"y": -0.7364411539,
				"z": 3.980773993,
				"element": "H" 
			},
			{
				"x": 0.5207664715,
				"y": -3.3275471556,
				"z": 5.1703065918,
				"element": "H" 
			},
			{
				"x": 1.3035694922,
				"y": -4.4581574751,
				"z": 4.0611667544,
				"element": "H" 
			},
			{
				"x": 2.453017681,
				"y": -1.7194253498,
				"z": 4.8993319218,
				"element": "H" 
			},
			{
				"x": 3.0158904289,
				"y": -3.2911634743,
				"z": 5.5025004398,
				"element": "H" 
			},
			{
				"x": 3.2482965906,
				"y": -2.8638056318,
				"z": 3.7984151821,
				"element": "H" 
			},
			{
				"x": -2.9258619787,
				"y": -4.2159725122,
				"z": -0.6899560866,
				"element": "H" 
			},
			{
				"x": -4.0225448912,
				"y": -4.9743903739,
				"z": -2.7937482167,
				"element": "H" 
			},
			{
				"x": -3.4061761567,
				"y": -1.1102345064,
				"z": -4.5287405827,
				"element": "H" 
			},
			{
				"x": -2.3339483671,
				"y": -0.3231390343,
				"z": -2.4537057598,
				"element": "H" 
			},
			{
				"x": -3.4055882405,
				"y": -0.0853360621,
				"z": 1.3493823791,
				"element": "H" 
			},
			{
				"x": -4.9487473844,
				"y": 1.8325585552,
				"z": 1.1571128713,
				"element": "H" 
			},
			{
				"x": -4.4518674771,
				"y": 3.6794231062,
				"z": -0.4376186866,
				"element": "H" 
			},
			{
				"x": -2.3727973289,
				"y": 3.5957374653,
				"z": -1.8027865996,
				"element": "H" 
			},
			{
				"x": -0.827473412,
				"y": 1.7066646538,
				"z": -1.5954481891,
				"element": "H" 
			}
		],
		 "valence_orbital": [ 
			{
				"type": "occ",
				"energy": -0.27219,
				"method": "rhf"
			},
			{
				"type": "occ",
				"energy": -0.26515,
				"method": "rhf"
			},
			{
				"type": "occ",
				"energy": -0.25243,
				"method": "rhf"
			},
			{
				"type": "occ",
				"energy": -0.21668,
				"method": "rhf"
			},
			{
				"type": "occ",
				"energy": -0.2026,
				"method": "rhf"
			},
			{
				"type": "unocc",
				"energy": -0.0835,
				"method": "rhf"
			},
			{
				"type": "unocc",
				"energy": -0.08077,
				"method": "rhf"
			},
			{
				"type": "unocc",
				"energy": -0.06257,
				"method": "rhf"
			},
			{
				"type": "unocc",
				"energy": -0.05562,
				"method": "rhf"
			},
			{
				"type": "unocc",
				"energy": -0.04151,
				"method": "rhf"
			}
		],
		"cosmo_sigma_profile": { 
			"-0.025": 0.0,
			"-0.024": 0.0,
			"-0.023": 0.0,
			"-0.022": 0.0,
			"-0.021": 0.0,
			"-0.02": 0.0,
			"-0.019": 0.0,
			"-0.018": 0.0,
			"-0.017": 0.0,
			"-0.016": 0.0,
			"-0.015": 0.0,
			"-0.014": 0.0,
			"-0.013": 0.0,
			"-0.012": 0.03523887632,
			"-0.011": 0.644786648875,
			"-0.01": 1.49302138465,
			"-0.009": 3.15453697218,
			"-0.008": 8.24786757263,
			"-0.007": 17.8772288534,
			"-0.006": 41.9469093434,
			"-0.005": 58.488287154,
			"-0.004": 57.6636778723,
			"-0.003": 48.849447369,
			"-0.002": 51.1333675635,
			"-0.001": 55.514754319,
			"0.0": 56.0755682684,
			"0.001": 56.6909947123,
			"0.002": 50.339498346,
			"0.003": 32.1983573214,
			"0.004": 21.3101151915,
			"0.005": 13.2175053045,
			"0.006": 12.5705898275,
			"0.007": 14.4242626973,
			"0.008": 22.4844928521,
			"0.009": 19.8609049184,
			"0.01": 16.9006769979,
			"0.011": 15.2651624114,
			"0.012": 3.58764269077,
			"0.013": 0.365091216248,
			"0.014": 0.0,
			"0.015": 0.0,
			"0.016": 0.0,
			"0.017": 0.0,
			"0.018": 0.0,
			"0.019": 0.0,
			"0.02": 0.0,
			"0.021": 0.0,
			"0.022": 0.0,
			"0.023": 0.0,
			"0.024": 0.0,
			"0.025": 0.0
		}
	}
}
