{
	 "smiles": "CC1=C(OC=C1)C(=O)CC#N", 
	 "Tm": 367.15, 
	 "num_atms": 18, 
	 "gaussian": { 
		 "optdone": 1, 
		 "sigma_profile": "yes", 
		 "theory": "DFT", 
		 "functional": "B3LYP", 
		 "basiset": "6-31G**", 
		 "properties": { 
			 "R2extent": 1761.5457, 
			 "electric_dipole_moment_norm": 4.62237374625, 
			 "electric_quadrupole_moment_norm": 12.6360679252, 
			 "total_energy": -514.227023533, 
			 "HOMO_LUMO_gap": 0.18222, 
			 "cosmo_polarized_energy": -12.57, 
			 "cosmo_cavitation_energy": 23.81, 
			 "cosmo_dispersion_energy": -16.51, 
			 "cosmo_repulsion_energy": 1.35, 
			 "cosmo_total_nonelectrostatic_energy": 8.65, 
			 "SMD_solvation_energy": 7.18 
		},
		"coords": [
			{
				"x": -0.6932599612,
				"y": -2.8823097346,
				"z": -0.4836112661,
				"element": "C" 
			},
			{
				"x": 0.3813904647,
				"y": -1.8407464664,
				"z": -0.531190917,
				"element": "C" 
			},
			{
				"x": 0.4384522397,
				"y": -0.6546805735,
				"z": 0.1757328617,
				"element": "C" 
			},
			{
				"x": 1.5896217306,
				"y": 0.0329819981,
				"z": -0.1478104925,
				"element": "O" 
			},
			{
				"x": 2.2499154872,
				"y": -0.7156807634,
				"z": -1.0560598677,
				"element": "C" 
			},
			{
				"x": 1.5664909621,
				"y": -1.8660183083,
				"z": -1.3292364233,
				"element": "C" 
			},
			{
				"x": -0.457411679,
				"y": -0.036126146,
				"z": 1.1402775704,
				"element": "C" 
			},
			{
				"x": -1.4761967233,
				"y": -0.5755898202,
				"z": 1.5453241835,
				"element": "O" 
			},
			{
				"x": -0.0615693287,
				"y": 1.3638901127,
				"z": 1.6730203682,
				"element": "C" 
			},
			{
				"x": -0.1520717422,
				"y": 2.4054769461,
				"z": 0.6497892217,
				"element": "C" 
			},
			{
				"x": -0.2379358566,
				"y": 3.22618912,
				"z": -0.1663786367,
				"element": "N" 
			},
			{
				"x": -1.1271252243,
				"y": -3.0334950107,
				"z": -1.4784273807,
				"element": "H" 
			},
			{
				"x": -0.2817946221,
				"y": -3.845850029,
				"z": -0.1618789574,
				"element": "H" 
			},
			{
				"x": -1.4837625096,
				"y": -2.5905714831,
				"z": 0.2070079869,
				"element": "H" 
			},
			{
				"x": 3.1828111868,
				"y": -0.3084331919,
				"z": -1.4160771859,
				"element": "H" 
			},
			{
				"x": 1.8667608984,
				"y": -2.6426282585,
				"z": -2.0185357861,
				"element": "H" 
			},
			{
				"x": -0.746668032,
				"y": 1.5933260261,
				"z": 2.4932469107,
				"element": "H" 
			},
			{
				"x": 0.9631527096,
				"y": 1.3410655823,
				"z": 2.0605078103,
				"element": "H" 
			}
		],
		 "valence_orbital": [ 
			{
				"type": "occ",
				"energy": -0.3354,
				"method": "rhf"
			},
			{
				"type": "occ",
				"energy": -0.32501,
				"method": "rhf"
			},
			{
				"type": "occ",
				"energy": -0.2926,
				"method": "rhf"
			},
			{
				"type": "occ",
				"energy": -0.26858,
				"method": "rhf"
			},
			{
				"type": "occ",
				"energy": -0.25248,
				"method": "rhf"
			},
			{
				"type": "unocc",
				"energy": -0.07026,
				"method": "rhf"
			},
			{
				"type": "unocc",
				"energy": 0.01615,
				"method": "rhf"
			},
			{
				"type": "unocc",
				"energy": 0.03681,
				"method": "rhf"
			},
			{
				"type": "unocc",
				"energy": 0.0389,
				"method": "rhf"
			},
			{
				"type": "unocc",
				"energy": 0.07928,
				"method": "rhf"
			}
		],
		"cosmo_sigma_profile": { 
			"-0.025": 0.0,
			"-0.024": 0.0,
			"-0.023": 0.0,
			"-0.022": 0.0,
			"-0.021": 0.0,
			"-0.02": 0.0,
			"-0.019": 0.0,
			"-0.018": 0.0,
			"-0.017": 0.0,
			"-0.016": 0.0,
			"-0.015": 0.0,
			"-0.014": 0.0,
			"-0.013": 0.0,
			"-0.012": 0.0,
			"-0.011": 0.100595606965,
			"-0.01": 3.45370391145,
			"-0.009": 6.57289405904,
			"-0.008": 6.94526031848,
			"-0.007": 7.71208659451,
			"-0.006": 8.9335224104,
			"-0.005": 10.6911535777,
			"-0.004": 12.053873767,
			"-0.003": 12.6747314393,
			"-0.002": 11.8289954006,
			"-0.001": 15.1072953158,
			"0.0": 16.5083005766,
			"0.001": 14.6369433261,
			"0.002": 10.7115993366,
			"0.003": 7.48065701763,
			"0.004": 5.81919236079,
			"0.005": 4.45021873122,
			"0.006": 4.39959152249,
			"0.007": 4.26550906853,
			"0.008": 5.16208351243,
			"0.009": 5.56925061487,
			"0.01": 5.66893505062,
			"0.011": 5.98782783433,
			"0.012": 3.43628882769,
			"0.013": 1.52323648359,
			"0.014": 0.0443219861227,
			"0.015": 0.0,
			"0.016": 0.0,
			"0.017": 0.0,
			"0.018": 0.0,
			"0.019": 0.0,
			"0.02": 0.0,
			"0.021": 0.0,
			"0.022": 0.0,
			"0.023": 0.0,
			"0.024": 0.0,
			"0.025": 0.0
		}
	}
}
