{
	 "smiles": "COC1=CC=C(CC2C3=CC(OC)=C(OC)C=C3CC[N+]2(C)CCC(=O)OCCCCCOC(=O)CC[N+]2(C)CCC3=CC(OC)=C(OC)C=C3C2CC2=CC=C(OC)C(OC)=C2)C=C1OC", 
	 "Tm": 462.65, 
	 "num_atms": 139, 
	 "gaussian": { 
		 "optdone": 1, 
		 "sigma_profile": "yes", 
		 "theory": "DFT", 
		 "functional": "B3LYP", 
		 "basiset": "6-31G**", 
		 "properties": { 
			 "R2extent": 66608.8252, 
			 "electric_dipole_moment_norm": 18.5405068874, 
			 "electric_quadrupole_moment_norm": 178.992292696, 
			 "total_energy": -3074.65250538, 
			 "HOMO_LUMO_gap": 0.17016, 
			 "cosmo_polarized_energy": -64.81, 
			 "cosmo_cavitation_energy": 126.89, 
			 "cosmo_dispersion_energy": -69.64, 
			 "cosmo_repulsion_energy": 5.14, 
			 "cosmo_total_nonelectrostatic_energy": 62.39, 
			 "SMD_solvation_energy": 26.39 
		},
		"coords": [
			{
				"x": 2.0549453447,
				"y": -9.06018935,
				"z": -5.1053324348,
				"element": "C" 
			},
			{
				"x": 0.8656784146,
				"y": -8.2920689635,
				"z": -5.3601513126,
				"element": "O" 
			},
			{
				"x": 0.6119743517,
				"y": -7.279639892,
				"z": -4.4762939762,
				"element": "C" 
			},
			{
				"x": 0.6429983767,
				"y": -5.9624236228,
				"z": -4.936239935,
				"element": "C" 
			},
			{
				"x": 0.3779439112,
				"y": -4.8964177324,
				"z": -4.0765066306,
				"element": "C" 
			},
			{
				"x": 0.0846802805,
				"y": -5.1272766494,
				"z": -2.7284022658,
				"element": "C" 
			},
			{
				"x": -0.2398711624,
				"y": -3.9643852431,
				"z": -1.800641684,
				"element": "C" 
			},
			{
				"x": 0.6138015353,
				"y": -3.963195709,
				"z": -0.5187718446,
				"element": "C" 
			},
			{
				"x": 2.0715194512,
				"y": -3.5762991475,
				"z": -0.6514176747,
				"element": "C" 
			},
			{
				"x": 2.696731851,
				"y": -3.3098483313,
				"z": -1.8738362567,
				"element": "C" 
			},
			{
				"x": 4.0733572499,
				"y": -3.0764840036,
				"z": -1.9404773533,
				"element": "C" 
			},
			{
				"x": 4.6259881036,
				"y": -2.8630103006,
				"z": -3.1721784248,
				"element": "O" 
			},
			{
				"x": 5.2579720451,
				"y": -1.5875227986,
				"z": -3.376417156,
				"element": "C" 
			},
			{
				"x": 4.8483329379,
				"y": -3.1312594998,
				"z": -0.7608807684,
				"element": "C" 
			},
			{
				"x": 6.19606896,
				"y": -2.9180153014,
				"z": -0.7610974375,
				"element": "O" 
			},
			{
				"x": 6.9907322204,
				"y": -3.9111583609,
				"z": -1.4444357089,
				"element": "C" 
			},
			{
				"x": 4.2120173594,
				"y": -3.3595454024,
				"z": 0.4637402473,
				"element": "C" 
			},
			{
				"x": 2.838664825,
				"y": -3.586769896,
				"z": 0.5265519037,
				"element": "C" 
			},
			{
				"x": 2.0883455697,
				"y": -3.7790148422,
				"z": 1.8184583588,
				"element": "C" 
			},
			{
				"x": 0.8791491282,
				"y": -2.844134935,
				"z": 1.8134400444,
				"element": "C" 
			},
			{
				"x": -0.0958364074,
				"y": -3.1464487253,
				"z": 0.661014325,
				"element": "N" 
			},
			{
				"x": -1.185297696,
				"y": -4.0312990877,
				"z": 1.2136007762,
				"element": "C" 
			},
			{
				"x": -0.7524858071,
				"y": -1.8536905732,
				"z": 0.1946524152,
				"element": "C" 
			},
			{
				"x": 0.1820997715,
				"y": -0.7982642247,
				"z": -0.400173102,
				"element": "C" 
			},
			{
				"x": -0.5571662656,
				"y": 0.0343323751,
				"z": -1.4436484581,
				"element": "C" 
			},
			{
				"x": -1.5143047945,
				"y": -0.3703601378,
				"z": -2.0756835999,
				"element": "O" 
			},
			{
				"x": 0.0256257722,
				"y": 1.2226870504,
				"z": -1.6118627703,
				"element": "O" 
			},
			{
				"x": -0.4565843743,
				"y": 2.0305461683,
				"z": -2.7352696223,
				"element": "C" 
			},
			{
				"x": 0.3898112699,
				"y": 3.2944250305,
				"z": -2.8051812323,
				"element": "C" 
			},
			{
				"x": -0.014087692,
				"y": 4.3954501616,
				"z": -1.8111549792,
				"element": "C" 
			},
			{
				"x": 0.9588712549,
				"y": 5.5863438341,
				"z": -1.8372337825,
				"element": "C" 
			},
			{
				"x": 0.3615112944,
				"y": 6.9503076166,
				"z": -1.507448586,
				"element": "C" 
			},
			{
				"x": -0.307245451,
				"y": 7.1101848091,
				"z": -0.2044942494,
				"element": "O" 
			},
			{
				"x": 0.451983854,
				"y": 7.16093294,
				"z": 0.8891999053,
				"element": "C" 
			},
			{
				"x": 1.6096385231,
				"y": 6.7898404978,
				"z": 0.9545456801,
				"element": "O" 
			},
			{
				"x": -0.267599468,
				"y": 7.8346573935,
				"z": 2.0653503923,
				"element": "C" 
			},
			{
				"x": -0.9575672006,
				"y": 6.9944829,
				"z": 3.1531598401,
				"element": "C" 
			},
			{
				"x": -0.1451532873,
				"y": 5.9094356673,
				"z": 3.8710419839,
				"element": "N" 
			},
			{
				"x": -0.7657358961,
				"y": 5.7001363206,
				"z": 5.2360651049,
				"element": "C" 
			},
			{
				"x": 1.2924143709,
				"y": 6.3823366633,
				"z": 4.0786071653,
				"element": "C" 
			},
			{
				"x": 2.0984234447,
				"y": 5.3652997619,
				"z": 4.8670502931,
				"element": "C" 
			},
			{
				"x": 2.054598424,
				"y": 4.01822579,
				"z": 4.1838252295,
				"element": "C" 
			},
			{
				"x": 3.1040848733,
				"y": 3.1108043697,
				"z": 4.3936768817,
				"element": "C" 
			},
			{
				"x": 3.1757332041,
				"y": 1.9088656858,
				"z": 3.6928100806,
				"element": "C" 
			},
			{
				"x": 4.1442826555,
				"y": 0.9757956589,
				"z": 3.8429854473,
				"element": "O" 
			},
			{
				"x": 5.1776229994,
				"y": 1.2084464452,
				"z": 4.803700644,
				"element": "C" 
			},
			{
				"x": 2.1825915198,
				"y": 1.6352217036,
				"z": 2.7187131198,
				"element": "C" 
			},
			{
				"x": 2.2487228011,
				"y": 0.4961071566,
				"z": 1.9462515692,
				"element": "O" 
			},
			{
				"x": 3.3485126769,
				"y": 0.4756456203,
				"z": 1.0103393539,
				"element": "C" 
			},
			{
				"x": 1.1190461645,
				"y": 2.5082313439,
				"z": 2.5517489009,
				"element": "C" 
			},
			{
				"x": 1.0219963148,
				"y": 3.7007992441,
				"z": 3.2951643987,
				"element": "C" 
			},
			{
				"x": -0.1763303334,
				"y": 4.6027985008,
				"z": 3.0148952151,
				"element": "C" 
			},
			{
				"x": -1.5509801653,
				"y": 3.8819195174,
				"z": 3.1854848949,
				"element": "C" 
			},
			{
				"x": -2.1479686147,
				"y": 3.2360815131,
				"z": 1.9467282361,
				"element": "C" 
			},
			{
				"x": -2.5700988881,
				"y": 1.9056454249,
				"z": 1.9720506187,
				"element": "C" 
			},
			{
				"x": -3.273515205,
				"y": 1.3481867383,
				"z": 0.8971834154,
				"element": "C" 
			},
			{
				"x": -3.5697522259,
				"y": 2.1153115649,
				"z": -0.2342375941,
				"element": "C" 
			},
			{
				"x": -4.2189419687,
				"y": 1.6702835298,
				"z": -1.3353355067,
				"element": "O" 
			},
			{
				"x": -4.7116414154,
				"y": 0.3299728292,
				"z": -1.3554892007,
				"element": "C" 
			},
			{
				"x": -3.1534884812,
				"y": 3.4705388885,
				"z": -0.2663511604,
				"element": "C" 
			},
			{
				"x": -3.3454268198,
				"y": 4.259381671,
				"z": -1.3661198627,
				"element": "O" 
			},
			{
				"x": -4.704337025,
				"y": 4.5585921334,
				"z": -1.7400058483,
				"element": "C" 
			},
			{
				"x": -2.4574359007,
				"y": 4.0045325539,
				"z": 0.8125111126,
				"element": "C" 
			},
			{
				"x": 0.0160306745,
				"y": -6.4512103451,
				"z": -2.2763890568,
				"element": "C" 
			},
			{
				"x": 0.2666377258,
				"y": -7.52754743,
				"z": -3.1291478815,
				"element": "C" 
			},
			{
				"x": 0.2054638738,
				"y": -8.79028381,
				"z": -2.6050865362,
				"element": "O" 
			},
			{
				"x": -0.796639573,
				"y": -9.6583182298,
				"z": -3.168503818,
				"element": "C" 
			},
			{
				"x": 2.9433045614,
				"y": -8.4220570701,
				"z": -5.1771507368,
				"element": "H" 
			},
			{
				"x": 2.0214888831,
				"y": -9.534578383,
				"z": -4.1203955652,
				"element": "H" 
			},
			{
				"x": 2.0923442777,
				"y": -9.8223895039,
				"z": -5.8843377942,
				"element": "H" 
			},
			{
				"x": 0.8865595581,
				"y": -5.7929506097,
				"z": -5.9799111624,
				"element": "H" 
			},
			{
				"x": 0.4031241481,
				"y": -3.8810577149,
				"z": -4.4638724987,
				"element": "H" 
			},
			{
				"x": -1.2993537251,
				"y": -4.0353465129,
				"z": -1.5295232871,
				"element": "H" 
			},
			{
				"x": -0.1334075998,
				"y": -3.0194286189,
				"z": -2.3403655612,
				"element": "H" 
			},
			{
				"x": 0.5880202947,
				"y": -4.9755851668,
				"z": -0.1054124091,
				"element": "H" 
			},
			{
				"x": 2.1531499992,
				"y": -3.3112941425,
				"z": -2.8098781546,
				"element": "H" 
			},
			{
				"x": 4.5206853726,
				"y": -0.77985881,
				"z": -3.2911417282,
				"element": "H" 
			},
			{
				"x": 6.0689944518,
				"y": -1.4213537624,
				"z": -2.6628146009,
				"element": "H" 
			},
			{
				"x": 5.653581288,
				"y": -1.6092253375,
				"z": -4.3921997011,
				"element": "H" 
			},
			{
				"x": 8.0228599858,
				"y": -3.5683773686,
				"z": -1.3702319593,
				"element": "H" 
			},
			{
				"x": 6.8901120022,
				"y": -4.8816163783,
				"z": -0.9468887707,
				"element": "H" 
			},
			{
				"x": 6.6988091571,
				"y": -4.001537981,
				"z": -2.4936840866,
				"element": "H" 
			},
			{
				"x": 4.8246797165,
				"y": -3.373156829,
				"z": 1.3602406458,
				"element": "H" 
			},
			{
				"x": 2.7065434951,
				"y": -3.5204550715,
				"z": 2.6828641501,
				"element": "H" 
			},
			{
				"x": 1.7760199899,
				"y": -4.8229345396,
				"z": 1.9627598347,
				"element": "H" 
			},
			{
				"x": 1.221105816,
				"y": -1.815466736,
				"z": 1.7035337288,
				"element": "H" 
			},
			{
				"x": 0.2948780358,
				"y": -2.9118190462,
				"z": 2.7335099964,
				"element": "H" 
			},
			{
				"x": -0.7297712685,
				"y": -4.9034813319,
				"z": 1.6827692275,
				"element": "H" 
			},
			{
				"x": -1.7542806658,
				"y": -3.4717913694,
				"z": 1.9565736946,
				"element": "H" 
			},
			{
				"x": -1.8476759245,
				"y": -4.3500404913,
				"z": 0.4106707476,
				"element": "H" 
			},
			{
				"x": -1.5072156725,
				"y": -2.1232280576,
				"z": -0.5429835042,
				"element": "H" 
			},
			{
				"x": -1.266074442,
				"y": -1.4519849432,
				"z": 1.0721945837,
				"element": "H" 
			},
			{
				"x": 1.0215230256,
				"y": -1.2638125038,
				"z": -0.9274171443,
				"element": "H" 
			},
			{
				"x": 0.6142186806,
				"y": -0.1452074986,
				"z": 0.3598635626,
				"element": "H" 
			},
			{
				"x": -0.3550428104,
				"y": 1.4249234481,
				"z": -3.6399158693,
				"element": "H" 
			},
			{
				"x": -1.5184577765,
				"y": 2.2426962704,
				"z": -2.5842828849,
				"element": "H" 
			},
			{
				"x": 0.3015266663,
				"y": 3.6887016543,
				"z": -3.8254094486,
				"element": "H" 
			},
			{
				"x": 1.4435951025,
				"y": 3.0167047387,
				"z": -2.6755646409,
				"element": "H" 
			},
			{
				"x": -0.0628319578,
				"y": 3.9759312681,
				"z": -0.799948994,
				"element": "H" 
			},
			{
				"x": -1.030507392,
				"y": 4.7262209452,
				"z": -2.0522090916,
				"element": "H" 
			},
			{
				"x": 1.3479401392,
				"y": 5.713705583,
				"z": -2.8578323702,
				"element": "H" 
			},
			{
				"x": 1.8274304745,
				"y": 5.3968059047,
				"z": -1.2012865818,
				"element": "H" 
			},
			{
				"x": -0.437534572,
				"y": 7.2038183423,
				"z": -2.2062458728,
				"element": "H" 
			},
			{
				"x": 1.1361951375,
				"y": 7.7205635713,
				"z": -1.5544464066,
				"element": "H" 
			},
			{
				"x": 0.47302678,
				"y": 8.4961943234,
				"z": 2.5212227627,
				"element": "H" 
			},
			{
				"x": -1.062317086,
				"y": 8.4694014696,
				"z": 1.6633635299,
				"element": "H" 
			},
			{
				"x": -1.8448935617,
				"y": 6.4980100695,
				"z": 2.7589486263,
				"element": "H" 
			},
			{
				"x": -1.2859156007,
				"y": 7.6856811442,
				"z": 3.9328278387,
				"element": "H" 
			},
			{
				"x": -1.8492499852,
				"y": 5.6732210301,
				"z": 5.1545424636,
				"element": "H" 
			},
			{
				"x": -0.4753494529,
				"y": 6.535370207,
				"z": 5.8738940754,
				"element": "H" 
			},
			{
				"x": -0.4070384045,
				"y": 4.7636958516,
				"z": 5.6583198574,
				"element": "H" 
			},
			{
				"x": 1.7244824161,
				"y": 6.5273664992,
				"z": 3.0873287045,
				"element": "H" 
			},
			{
				"x": 1.2279778096,
				"y": 7.3448275116,
				"z": 4.592544992,
				"element": "H" 
			},
			{
				"x": 1.7762641087,
				"y": 5.3125725387,
				"z": 5.913960164,
				"element": "H" 
			},
			{
				"x": 3.1296544638,
				"y": 5.7326248879,
				"z": 4.8941382528,
				"element": "H" 
			},
			{
				"x": 3.8821692523,
				"y": 3.3728860495,
				"z": 5.1014745344,
				"element": "H" 
			},
			{
				"x": 5.7627944444,
				"y": 2.0995930066,
				"z": 4.5505346558,
				"element": "H" 
			},
			{
				"x": 5.8212528612,
				"y": 0.3301609733,
				"z": 4.7645630806,
				"element": "H" 
			},
			{
				"x": 4.7627763656,
				"y": 1.3118429718,
				"z": 5.812478263,
				"element": "H" 
			},
			{
				"x": 3.2358693692,
				"y": 1.2818629446,
				"z": 0.2771217274,
				"element": "H" 
			},
			{
				"x": 4.3041630679,
				"y": 0.5678397731,
				"z": 1.5292854906,
				"element": "H" 
			},
			{
				"x": 3.3060458999,
				"y": -0.4907530187,
				"z": 0.5069925828,
				"element": "H" 
			},
			{
				"x": 0.3718398067,
				"y": 2.2577846092,
				"z": 1.8063189402,
				"element": "H" 
			},
			{
				"x": -0.0962400442,
				"y": 4.9715843584,
				"z": 1.9904297205,
				"element": "H" 
			},
			{
				"x": -2.2973464613,
				"y": 4.6019017168,
				"z": 3.5339771986,
				"element": "H" 
			},
			{
				"x": -1.4581351044,
				"y": 3.1347806538,
				"z": 3.9780175409,
				"element": "H" 
			},
			{
				"x": -2.3771596616,
				"y": 1.2949421842,
				"z": 2.8502688516,
				"element": "H" 
			},
			{
				"x": -3.6039402184,
				"y": 0.3175545006,
				"z": 0.9529515094,
				"element": "H" 
			},
			{
				"x": -3.8859042824,
				"y": -0.3866838727,
				"z": -1.3152456182,
				"element": "H" 
			},
			{
				"x": -5.4158405683,
				"y": 0.1552590492,
				"z": -0.5337360124,
				"element": "H" 
			},
			{
				"x": -5.232772757,
				"y": 0.2232492277,
				"z": -2.306633347,
				"element": "H" 
			},
			{
				"x": -5.2382047131,
				"y": 3.659701723,
				"z": -2.0521812576,
				"element": "H" 
			},
			{
				"x": -5.2319829295,
				"y": 5.0374245857,
				"z": -0.9073682209,
				"element": "H" 
			},
			{
				"x": -4.6339923542,
				"y": 5.257263124,
				"z": -2.574295223,
				"element": "H" 
			},
			{
				"x": -2.1670506922,
				"y": 5.048429691,
				"z": 0.7288469028,
				"element": "H" 
			},
			{
				"x": -0.2558680984,
				"y": -6.6975064602,
				"z": -1.2529472326,
				"element": "H" 
			},
			{
				"x": -0.6552493942,
				"y": -9.7875367683,
				"z": -4.2440943252,
				"element": "H" 
			},
			{
				"x": -1.7984318427,
				"y": -9.2572037231,
				"z": -2.975554663,
				"element": "H" 
			},
			{
				"x": -0.6837831452,
				"y": -10.6155833081,
				"z": -2.6583755554,
				"element": "H" 
			}
		],
		 "valence_orbital": [ 
			{
				"type": "occ",
				"energy": -0.3791,
				"method": "rhf"
			},
			{
				"type": "occ",
				"energy": -0.37323,
				"method": "rhf"
			},
			{
				"type": "occ",
				"energy": -0.36279,
				"method": "rhf"
			},
			{
				"type": "occ",
				"energy": -0.3627,
				"method": "rhf"
			},
			{
				"type": "occ",
				"energy": -0.34586,
				"method": "rhf"
			},
			{
				"type": "unocc",
				"energy": -0.1757,
				"method": "rhf"
			},
			{
				"type": "unocc",
				"energy": -0.17238,
				"method": "rhf"
			},
			{
				"type": "unocc",
				"energy": -0.16867,
				"method": "rhf"
			},
			{
				"type": "unocc",
				"energy": -0.16329,
				"method": "rhf"
			},
			{
				"type": "unocc",
				"energy": -0.15817,
				"method": "rhf"
			}
		],
		"cosmo_sigma_profile": { 
			"-0.025": 0.0,
			"-0.024": 0.0,
			"-0.023": 0.0,
			"-0.022": 0.0,
			"-0.021": 0.0,
			"-0.02": 0.0,
			"-0.019": 0.0,
			"-0.018": 0.0,
			"-0.017": 0.0,
			"-0.016": 0.0,
			"-0.015": 0.0,
			"-0.014": 0.0,
			"-0.013": 0.018131558649,
			"-0.012": 0.483229760264,
			"-0.011": 1.92289152598,
			"-0.01": 4.90609708148,
			"-0.009": 8.66637799145,
			"-0.008": 17.9934075331,
			"-0.007": 28.5262452321,
			"-0.006": 35.7300121589,
			"-0.005": 61.6807309731,
			"-0.004": 92.8780218471,
			"-0.003": 105.247860802,
			"-0.002": 102.776433246,
			"-0.001": 78.2898868442,
			"0.0": 57.2771902549,
			"0.001": 48.4148758867,
			"0.002": 47.8686960596,
			"0.003": 51.3730038251,
			"0.004": 46.6667828477,
			"0.005": 44.7189314998,
			"0.006": 38.5493032046,
			"0.007": 36.4014844154,
			"0.008": 29.5006673631,
			"0.009": 19.4300866708,
			"0.01": 9.44212067942,
			"0.011": 7.83496398063,
			"0.012": 8.90925355502,
			"0.013": 7.07457909735,
			"0.014": 0.962735266355,
			"0.015": 0.0,
			"0.016": 0.0,
			"0.017": 0.0,
			"0.018": 0.0,
			"0.019": 0.0,
			"0.02": 0.0,
			"0.021": 0.0,
			"0.022": 0.0,
			"0.023": 0.0,
			"0.024": 0.0,
			"0.025": 0.0
		}
	}
}
