{
	 "smiles": "NC1=C(C#N)C(=NN1)N1CCOCC1", 
	 "Tm": 469.15, 
	 "num_atms": 25, 
	 "gaussian": { 
		 "optdone": 1, 
		 "sigma_profile": "yes", 
		 "theory": "DFT", 
		 "functional": "B3LYP", 
		 "basiset": "6-31G**", 
		 "properties": { 
			 "R2extent": 3101.4892, 
			 "electric_dipole_moment_norm": 4.82436663304, 
			 "electric_quadrupole_moment_norm": 18.1959835521, 
			 "total_energy": -660.400367163, 
			 "HOMO_LUMO_gap": 0.20235, 
			 "cosmo_polarized_energy": -21.24, 
			 "cosmo_cavitation_energy": 28.55, 
			 "cosmo_dispersion_energy": -20.95, 
			 "cosmo_repulsion_energy": 1.67, 
			 "cosmo_total_nonelectrostatic_energy": 9.28, 
			 "SMD_solvation_energy": 4.01 
		},
		"coords": [
			{
				"x": 1.5190273015,
				"y": -3.6181238414,
				"z": -1.1406021016,
				"element": "N" 
			},
			{
				"x": 1.1612313954,
				"y": -2.4371304553,
				"z": -0.524104649,
				"element": "C" 
			},
			{
				"x": 0.0556257303,
				"y": -1.606845306,
				"z": -0.7556456473,
				"element": "C" 
			},
			{
				"x": -1.0133503271,
				"y": -1.9517480522,
				"z": -1.6071098385,
				"element": "C" 
			},
			{
				"x": -1.8715914978,
				"y": -2.2911389144,
				"z": -2.3227646988,
				"element": "N" 
			},
			{
				"x": 0.2626173521,
				"y": -0.4801136048,
				"z": 0.1265467381,
				"element": "C" 
			},
			{
				"x": 1.384705628,
				"y": -0.6141710543,
				"z": 0.8280275331,
				"element": "N" 
			},
			{
				"x": 1.8999295366,
				"y": -1.8319924201,
				"z": 0.4227271211,
				"element": "N" 
			},
			{
				"x": -0.5564540215,
				"y": 0.6010138754,
				"z": 0.319132502,
				"element": "N" 
			},
			{
				"x": -1.5645067721,
				"y": 1.0065065728,
				"z": -0.6635370546,
				"element": "C" 
			},
			{
				"x": -1.581554593,
				"y": 2.5298485659,
				"z": -0.7816638178,
				"element": "C" 
			},
			{
				"x": -1.8533541891,
				"y": 3.182628043,
				"z": 0.4533278922,
				"element": "O" 
			},
			{
				"x": -1.3582372314,
				"y": 2.5034172586,
				"z": 1.6069768594,
				"element": "C" 
			},
			{
				"x": -0.1661067631,
				"y": 1.6006446842,
				"z": 1.3118734852,
				"element": "C" 
			},
			{
				"x": 0.783921496,
				"y": -4.003333133,
				"z": -1.7205819822,
				"element": "H" 
			},
			{
				"x": 1.9300969953,
				"y": -4.3187577962,
				"z": -0.5370689657,
				"element": "H" 
			},
			{
				"x": 2.8259391899,
				"y": -2.0853755252,
				"z": 0.7269811004,
				"element": "H" 
			},
			{
				"x": -1.3303464061,
				"y": 0.5814228496,
				"z": -1.6433835716,
				"element": "H" 
			},
			{
				"x": -2.5625122644,
				"y": 0.6435215986,
				"z": -0.3807295713,
				"element": "H" 
			},
			{
				"x": -0.616883596,
				"y": 2.8703404953,
				"z": -1.1897904834,
				"element": "H" 
			},
			{
				"x": -2.36642011,
				"y": 2.8374496899,
				"z": -1.4801767272,
				"element": "H" 
			},
			{
				"x": -1.0700492758,
				"y": 3.2716037661,
				"z": 2.3325468435,
				"element": "H" 
			},
			{
				"x": -2.16266833,
				"y": 1.9012372871,
				"z": 2.0565647637,
				"element": "H" 
			},
			{
				"x": 0.1494298798,
				"y": 1.0875172445,
				"z": 2.2255367585,
				"element": "H" 
			},
			{
				"x": 0.6945108724,
				"y": 2.1960781717,
				"z": 0.9700175118,
				"element": "H" 
			}
		],
		 "valence_orbital": [ 
			{
				"type": "occ",
				"energy": -0.29778,
				"method": "rhf"
			},
			{
				"type": "occ",
				"energy": -0.29031,
				"method": "rhf"
			},
			{
				"type": "occ",
				"energy": -0.24903,
				"method": "rhf"
			},
			{
				"type": "occ",
				"energy": -0.22599,
				"method": "rhf"
			},
			{
				"type": "occ",
				"energy": -0.19787,
				"method": "rhf"
			},
			{
				"type": "unocc",
				"energy": 0.00448,
				"method": "rhf"
			},
			{
				"type": "unocc",
				"energy": 0.02778,
				"method": "rhf"
			},
			{
				"type": "unocc",
				"energy": 0.03915,
				"method": "rhf"
			},
			{
				"type": "unocc",
				"energy": 0.05587,
				"method": "rhf"
			},
			{
				"type": "unocc",
				"energy": 0.08552,
				"method": "rhf"
			}
		],
		"cosmo_sigma_profile": { 
			"-0.025": 0.0,
			"-0.024": 0.0,
			"-0.023": 0.0,
			"-0.022": 0.0,
			"-0.021": 0.0,
			"-0.02": 0.0,
			"-0.019": 0.0,
			"-0.018": 0.0,
			"-0.017": 1.03657914656,
			"-0.016": 2.16464744656,
			"-0.015": 2.47335422266,
			"-0.014": 3.45572644839,
			"-0.013": 3.39755486127,
			"-0.012": 2.63101926339,
			"-0.011": 3.42456804669,
			"-0.01": 3.42141859819,
			"-0.009": 2.12478502296,
			"-0.008": 2.65908391069,
			"-0.007": 2.25378698393,
			"-0.006": 4.73381445152,
			"-0.005": 14.7368874457,
			"-0.004": 24.8291543563,
			"-0.003": 19.7328321721,
			"-0.002": 14.2596781253,
			"-0.001": 11.2059339919,
			"0.0": 9.69089000867,
			"0.001": 9.76706158173,
			"0.002": 13.1109252658,
			"0.003": 9.22418467617,
			"0.004": 7.37057439856,
			"0.005": 7.56840179757,
			"0.006": 5.44604074858,
			"0.007": 5.35020645567,
			"0.008": 5.38535452796,
			"0.009": 4.79297277685,
			"0.01": 6.21037593112,
			"0.011": 7.1620694237,
			"0.012": 6.27016397622,
			"0.013": 5.12475583525,
			"0.014": 3.69611963861,
			"0.015": 0.823387454951,
			"0.016": 0.172759482357,
			"0.017": 0.0,
			"0.018": 0.0,
			"0.019": 0.0,
			"0.02": 0.0,
			"0.021": 0.0,
			"0.022": 0.0,
			"0.023": 0.0,
			"0.024": 0.0,
			"0.025": 0.0
		}
	}
}
