{
	 "smiles": "[O-][N+](=O)C1=CC(=C(CBr)C(=C1)[N+]([O-])=O)[N+]([O-])=O", 
	 "Tm": 339.15, 
	 "num_atms": 21, 
	 "gaussian": { 
		 "optdone": 1, 
		 "sigma_profile": "yes", 
		 "theory": "DFT", 
		 "functional": "B3LYP", 
		 "basiset": "6-31G**", 
		 "properties": { 
			 "R2extent": 5979.5228, 
			 "electric_dipole_moment_norm": 1.31349023217, 
			 "electric_quadrupole_moment_norm": 11.2635473622, 
			 "total_energy": -3455.82789191, 
			 "HOMO_LUMO_gap": 0.15916, 
			 "cosmo_polarized_energy": -14.45, 
			 "cosmo_cavitation_energy": 30.75, 
			 "cosmo_dispersion_energy": -21.69, 
			 "cosmo_repulsion_energy": 1.68, 
			 "cosmo_total_nonelectrostatic_energy": 10.74, 
			 "SMD_solvation_energy": 10.88 
		},
		"coords": [
			{
				"x": -0.5091549709,
				"y": 2.8110439124,
				"z": 1.856806428,
				"element": "O" 
			},
			{
				"x": -0.9764539687,
				"y": 2.6922778184,
				"z": 0.7283760125,
				"element": "N" 
			},
			{
				"x": -1.6282404218,
				"y": 3.5400675762,
				"z": 0.1264997573,
				"element": "O" 
			},
			{
				"x": -0.734084111,
				"y": 1.4129574402,
				"z": 0.0326187211,
				"element": "C" 
			},
			{
				"x": 0.0029955843,
				"y": 0.4262997109,
				"z": 0.668985643,
				"element": "C" 
			},
			{
				"x": 0.2045982217,
				"y": -0.7779129806,
				"z": 0.0042656568,
				"element": "C" 
			},
			{
				"x": -0.2908067443,
				"y": -1.0461684115,
				"z": -1.2901451581,
				"element": "C" 
			},
			{
				"x": 0.0349532759,
				"y": -2.3111866582,
				"z": -2.0340811404,
				"element": "C" 
			},
			{
				"x": 1.7352631169,
				"y": -2.0483800229,
				"z": -3.0322403375,
				"element": "Br" 
			},
			{
				"x": -1.0124678712,
				"y": 0.0152004191,
				"z": -1.878018554,
				"element": "C" 
			},
			{
				"x": -1.2360958409,
				"y": 1.2335601961,
				"z": -1.2470854561,
				"element": "C" 
			},
			{
				"x": -1.595121244,
				"y": -0.0855538726,
				"z": -3.2403403093,
				"element": "N" 
			},
			{
				"x": -2.0985701434,
				"y": -1.1535513661,
				"z": -3.5797725163,
				"element": "O" 
			},
			{
				"x": -1.5710736819,
				"y": 0.9350123022,
				"z": -3.9179070006,
				"element": "O" 
			},
			{
				"x": 0.9967990484,
				"y": -1.7746441413,
				"z": 0.7688030108,
				"element": "N" 
			},
			{
				"x": 0.6669429759,
				"y": -2.9560684959,
				"z": 0.6997287216,
				"element": "O" 
			},
			{
				"x": 1.9065539951,
				"y": -1.3308715395,
				"z": 1.4592096767,
				"element": "O" 
			},
			{
				"x": 0.4154820517,
				"y": 0.5922060825,
				"z": 1.6553297461,
				"element": "H" 
			},
			{
				"x": 0.2100008471,
				"y": -3.1423844295,
				"z": -1.3637530997,
				"element": "H" 
			},
			{
				"x": -0.7129606877,
				"y": -2.547073282,
				"z": -2.7797101304,
				"element": "H" 
			},
			{
				"x": -1.7826594313,
				"y": 2.024269742,
				"z": -1.7436696714,
				"element": "H" 
			}
		],
		 "valence_orbital": [ 
			{
				"type": "occ",
				"energy": -0.32892,
				"method": "rhf"
			},
			{
				"type": "occ",
				"energy": -0.3284,
				"method": "rhf"
			},
			{
				"type": "occ",
				"energy": -0.31634,
				"method": "rhf"
			},
			{
				"type": "occ",
				"energy": -0.3014,
				"method": "rhf"
			},
			{
				"type": "occ",
				"energy": -0.29981,
				"method": "rhf"
			},
			{
				"type": "unocc",
				"energy": -0.14065,
				"method": "rhf"
			},
			{
				"type": "unocc",
				"energy": -0.12867,
				"method": "rhf"
			},
			{
				"type": "unocc",
				"energy": -0.11337,
				"method": "rhf"
			},
			{
				"type": "unocc",
				"energy": -0.05917,
				"method": "rhf"
			},
			{
				"type": "unocc",
				"energy": -0.05396,
				"method": "rhf"
			}
		],
		"cosmo_sigma_profile": { 
			"-0.025": 0.0,
			"-0.024": 0.0,
			"-0.023": 0.0,
			"-0.022": 0.0,
			"-0.021": 0.0,
			"-0.02": 0.0,
			"-0.019": 0.0,
			"-0.018": 0.0,
			"-0.017": 0.0,
			"-0.016": 0.0,
			"-0.015": 0.0,
			"-0.014": 0.0,
			"-0.013": 0.0,
			"-0.012": 0.0307960734993,
			"-0.011": 1.12624097801,
			"-0.01": 3.33526035286,
			"-0.009": 5.03505589433,
			"-0.008": 6.84858933233,
			"-0.007": 11.9648353436,
			"-0.006": 20.1286165146,
			"-0.005": 22.0344983539,
			"-0.004": 15.0905549334,
			"-0.003": 12.7351916318,
			"-0.002": 10.5447808496,
			"-0.001": 9.80682065327,
			"0.0": 10.7397502451,
			"0.001": 8.54905778532,
			"0.002": 13.1206013816,
			"0.003": 13.0002290628,
			"0.004": 18.1540631462,
			"0.005": 18.6126616503,
			"0.006": 24.7988235294,
			"0.007": 14.2550994229,
			"0.008": 9.78929210528,
			"0.009": 2.06250453185,
			"0.01": 0.0,
			"0.011": 0.0,
			"0.012": 0.0,
			"0.013": 0.0,
			"0.014": 0.0,
			"0.015": 0.0,
			"0.016": 0.0,
			"0.017": 0.0,
			"0.018": 0.0,
			"0.019": 0.0,
			"0.02": 0.0,
			"0.021": 0.0,
			"0.022": 0.0,
			"0.023": 0.0,
			"0.024": 0.0,
			"0.025": 0.0
		}
	}
}
