{
	 "smiles": "OC(=O)CC1=CNC2=C1C=C(Br)C=C2", 
	 "Tm": 417.15, 
	 "num_atms": 22, 
	 "gaussian": { 
		 "optdone": 1, 
		 "sigma_profile": "yes", 
		 "theory": "DFT", 
		 "functional": "B3LYP", 
		 "basiset": "6-31G**", 
		 "properties": { 
			 "R2extent": 5380.8704, 
			 "electric_dipole_moment_norm": 7.56313737281, 
			 "electric_quadrupole_moment_norm": 24.2982773472, 
			 "total_energy": -3162.50422923, 
			 "HOMO_LUMO_gap": 0.18965, 
			 "cosmo_polarized_energy": -19.98, 
			 "cosmo_cavitation_energy": 29.16, 
			 "cosmo_dispersion_energy": -21.33, 
			 "cosmo_repulsion_energy": 1.7, 
			 "cosmo_total_nonelectrostatic_energy": 9.53, 
			 "SMD_solvation_energy": 4.73 
		},
		"coords": [
			{
				"x": -3.1543594866,
				"y": 1.350286513,
				"z": 0.7632603764,
				"element": "O" 
			},
			{
				"x": -2.8886766159,
				"y": 0.0548998853,
				"z": 0.480392956,
				"element": "C" 
			},
			{
				"x": -3.6759191479,
				"y": -0.6294657512,
				"z": -0.1237527476,
				"element": "O" 
			},
			{
				"x": -1.557068533,
				"y": -0.4899420255,
				"z": 1.0265989102,
				"element": "C" 
			},
			{
				"x": -0.4878773721,
				"y": 0.5301623846,
				"z": 1.2863704027,
				"element": "C" 
			},
			{
				"x": -0.0903243192,
				"y": 1.0182053886,
				"z": 2.5117895679,
				"element": "C" 
			},
			{
				"x": 0.9302711767,
				"y": 1.9313524936,
				"z": 2.3497305873,
				"element": "N" 
			},
			{
				"x": 1.2200933526,
				"y": 2.0567267974,
				"z": 1.0054348821,
				"element": "C" 
			},
			{
				"x": 0.343047391,
				"y": 1.1877693347,
				"z": 0.3029402346,
				"element": "C" 
			},
			{
				"x": 0.4216196198,
				"y": 1.1148429156,
				"z": -1.0989386019,
				"element": "C" 
			},
			{
				"x": 1.3659722709,
				"y": 1.9026744036,
				"z": -1.7381903344,
				"element": "C" 
			},
			{
				"x": 1.5081834037,
				"y": 1.8291669952,
				"z": -3.64595919,
				"element": "Br" 
			},
			{
				"x": 2.2323322416,
				"y": 2.7636564423,
				"z": -1.0365144861,
				"element": "C" 
			},
			{
				"x": 2.1662876228,
				"y": 2.8494880767,
				"z": 0.3481133852,
				"element": "C" 
			},
			{
				"x": -2.3793751052,
				"y": 1.7338988204,
				"z": 1.2080259006,
				"element": "H" 
			},
			{
				"x": -1.2241199222,
				"y": -1.2559284109,
				"z": 0.3202870864,
				"element": "H" 
			},
			{
				"x": -1.8048519415,
				"y": -1.0194477309,
				"z": 1.9550277197,
				"element": "H" 
			},
			{
				"x": -0.4498007622,
				"y": 0.7639594744,
				"z": 3.499647872,
				"element": "H" 
			},
			{
				"x": 1.3922307188,
				"y": 2.4245907928,
				"z": 3.0964202409,
				"element": "H" 
			},
			{
				"x": -0.2341220747,
				"y": 0.4661553412,
				"z": -1.668903044,
				"element": "H" 
			},
			{
				"x": 2.9517030874,
				"y": 3.3592000877,
				"z": -1.5859705196,
				"element": "H" 
			},
			{
				"x": 2.8320543953,
				"y": 3.5119477713,
				"z": 0.8931888016,
				"element": "H" 
			}
		],
		 "valence_orbital": [ 
			{
				"type": "occ",
				"energy": -0.29802,
				"method": "rhf"
			},
			{
				"type": "occ",
				"energy": -0.28496,
				"method": "rhf"
			},
			{
				"type": "occ",
				"energy": -0.26556,
				"method": "rhf"
			},
			{
				"type": "occ",
				"energy": -0.23534,
				"method": "rhf"
			},
			{
				"type": "occ",
				"energy": -0.22539,
				"method": "rhf"
			},
			{
				"type": "unocc",
				"energy": -0.03574,
				"method": "rhf"
			},
			{
				"type": "unocc",
				"energy": -0.0001,
				"method": "rhf"
			},
			{
				"type": "unocc",
				"energy": 0.00772,
				"method": "rhf"
			},
			{
				"type": "unocc",
				"energy": 0.0166,
				"method": "rhf"
			},
			{
				"type": "unocc",
				"energy": 0.03671,
				"method": "rhf"
			}
		],
		"cosmo_sigma_profile": { 
			"-0.025": 0.0,
			"-0.024": 0.0,
			"-0.023": 0.0,
			"-0.022": 0.0,
			"-0.021": 0.0,
			"-0.02": 0.0,
			"-0.019": 0.0,
			"-0.018": 0.0,
			"-0.017": 0.0361582734179,
			"-0.016": 1.6414835743,
			"-0.015": 1.36329640053,
			"-0.014": 1.95487801589,
			"-0.013": 1.97670316613,
			"-0.012": 1.48994285879,
			"-0.011": 2.20817487519,
			"-0.01": 2.55290293394,
			"-0.009": 4.87191288025,
			"-0.008": 6.56145980271,
			"-0.007": 11.7156624855,
			"-0.006": 13.9464797438,
			"-0.005": 10.7244065018,
			"-0.004": 12.4021603508,
			"-0.003": 11.7383481357,
			"-0.002": 10.995407088,
			"-0.001": 10.2679420776,
			"0.0": 9.80599975532,
			"0.001": 12.3924953691,
			"0.002": 14.6084489867,
			"0.003": 20.1176470975,
			"0.004": 25.402919719,
			"0.005": 17.3114769941,
			"0.006": 3.76519173151,
			"0.007": 1.98448019772,
			"0.008": 1.85762069989,
			"0.009": 3.83926502153,
			"0.01": 4.54078782105,
			"0.011": 4.99146779341,
			"0.012": 5.55506932963,
			"0.013": 3.63263850832,
			"0.014": 0.362350794761,
			"0.015": 0.0,
			"0.016": 0.0,
			"0.017": 0.0,
			"0.018": 0.0,
			"0.019": 0.0,
			"0.02": 0.0,
			"0.021": 0.0,
			"0.022": 0.0,
			"0.023": 0.0,
			"0.024": 0.0,
			"0.025": 0.0
		}
	}
}
