{
	 "smiles": "C1CN(CCN1)C1=NC2=C(O1)C=CC=C2", 
	 "Tm": 348.15, 
	 "num_atms": 28, 
	 "gaussian": { 
		 "optdone": 1, 
		 "sigma_profile": "yes", 
		 "theory": "DFT", 
		 "functional": "B3LYP", 
		 "basiset": "6-31G**", 
		 "properties": { 
			 "R2extent": 3970.5331, 
			 "electric_dipole_moment_norm": 2.00469391928, 
			 "electric_quadrupole_moment_norm": 3.96846928677, 
			 "total_energy": -666.471639038, 
			 "HOMO_LUMO_gap": 0.19511, 
			 "cosmo_polarized_energy": -10.79, 
			 "cosmo_cavitation_energy": 30.17, 
			 "cosmo_dispersion_energy": -22.94, 
			 "cosmo_repulsion_energy": 1.78, 
			 "cosmo_total_nonelectrostatic_energy": 9.02, 
			 "SMD_solvation_energy": 0.22 
		},
		"coords": [
			{
				"x": -0.3808902592,
				"y": 0.1268726506,
				"z": 3.5154828815,
				"element": "C" 
			},
			{
				"x": -0.8327450129,
				"y": 0.5233020258,
				"z": 2.0885366602,
				"element": "C" 
			},
			{
				"x": 0.2808067071,
				"y": 0.3718385872,
				"z": 1.1556610053,
				"element": "N" 
			},
			{
				"x": 1.5056215279,
				"y": 1.1296809014,
				"z": 1.4304243722,
				"element": "C" 
			},
			{
				"x": 1.5489537892,
				"y": 1.4814777424,
				"z": 2.9333784328,
				"element": "C" 
			},
			{
				"x": 1.0403531168,
				"y": 0.4093807589,
				"z": 3.7824055261,
				"element": "N" 
			},
			{
				"x": 0.0763615679,
				"y": -0.2233783291,
				"z": -0.0423013958,
				"element": "C" 
			},
			{
				"x": -1.0060073801,
				"y": -0.8152424411,
				"z": -0.4716893603,
				"element": "N" 
			},
			{
				"x": -0.6488031907,
				"y": -1.2767828967,
				"z": -1.7382569206,
				"element": "C" 
			},
			{
				"x": 0.6789263641,
				"y": -0.9126807413,
				"z": -2.0096936182,
				"element": "C" 
			},
			{
				"x": 1.1504990406,
				"y": -0.2228026619,
				"z": -0.9040816399,
				"element": "O" 
			},
			{
				"x": 1.3472453909,
				"y": -1.2097417288,
				"z": -3.181753246,
				"element": "C" 
			},
			{
				"x": 0.6123409914,
				"y": -1.9257846123,
				"z": -4.1373613936,
				"element": "C" 
			},
			{
				"x": -0.7165571864,
				"y": -2.3051810621,
				"z": -3.8961665199,
				"element": "C" 
			},
			{
				"x": -1.3680909582,
				"y": -1.9896120176,
				"z": -2.6993420785,
				"element": "C" 
			},
			{
				"x": -1.006228276,
				"y": 0.666375567,
				"z": 4.2398614857,
				"element": "H" 
			},
			{
				"x": -0.5516502148,
				"y": -0.9413397598,
				"z": 3.6796822382,
				"element": "H" 
			},
			{
				"x": -1.1884752586,
				"y": 1.5637178331,
				"z": 2.0724477633,
				"element": "H" 
			},
			{
				"x": -1.652351855,
				"y": -0.1047213952,
				"z": 1.7384356496,
				"element": "H" 
			},
			{
				"x": 2.3660845155,
				"y": 0.5063796716,
				"z": 1.1649159333,
				"element": "H" 
			},
			{
				"x": 1.5627592075,
				"y": 2.03970635,
				"z": 0.8130850302,
				"element": "H" 
			},
			{
				"x": 0.9566330813,
				"y": 2.382757127,
				"z": 3.1312508444,
				"element": "H" 
			},
			{
				"x": 2.5795222999,
				"y": 1.7191848619,
				"z": 3.2156328493,
				"element": "H" 
			},
			{
				"x": 1.5845634249,
				"y": -0.4309746154,
				"z": 3.6079718108,
				"element": "H" 
			},
			{
				"x": 2.3752666631,
				"y": -0.9080730076,
				"z": -3.3505877694,
				"element": "H" 
			},
			{
				"x": 1.0827822368,
				"y": -2.1896193963,
				"z": -5.0794669585,
				"element": "H" 
			},
			{
				"x": -1.2534246752,
				"y": -2.8593688923,
				"z": -4.6606762322,
				"element": "H" 
			},
			{
				"x": -2.3958956579,
				"y": -2.2846705194,
				"z": -2.5160953499,
				"element": "H" 
			}
		],
		 "valence_orbital": [ 
			{
				"type": "occ",
				"energy": -0.27721,
				"method": "rhf"
			},
			{
				"type": "occ",
				"energy": -0.27042,
				"method": "rhf"
			},
			{
				"type": "occ",
				"energy": -0.23417,
				"method": "rhf"
			},
			{
				"type": "occ",
				"energy": -0.22991,
				"method": "rhf"
			},
			{
				"type": "occ",
				"energy": -0.1952,
				"method": "rhf"
			},
			{
				"type": "unocc",
				"energy": -9e-05,
				"method": "rhf"
			},
			{
				"type": "unocc",
				"energy": 0.02015,
				"method": "rhf"
			},
			{
				"type": "unocc",
				"energy": 0.06107,
				"method": "rhf"
			},
			{
				"type": "unocc",
				"energy": 0.06926,
				"method": "rhf"
			},
			{
				"type": "unocc",
				"energy": 0.10005,
				"method": "rhf"
			}
		],
		"cosmo_sigma_profile": { 
			"-0.025": 0.0,
			"-0.024": 0.0,
			"-0.023": 0.0,
			"-0.022": 0.0,
			"-0.021": 0.0,
			"-0.02": 0.0,
			"-0.019": 0.0,
			"-0.018": 0.0,
			"-0.017": 0.0,
			"-0.016": 0.0,
			"-0.015": 0.0,
			"-0.014": 0.0,
			"-0.013": 0.0,
			"-0.012": 0.0,
			"-0.011": 0.111754090036,
			"-0.01": 1.07938560634,
			"-0.009": 1.65916418699,
			"-0.008": 1.65845525943,
			"-0.007": 2.37001681302,
			"-0.006": 6.52042126435,
			"-0.005": 22.0555902877,
			"-0.004": 30.7075521644,
			"-0.003": 27.6389500119,
			"-0.002": 21.5016991497,
			"-0.001": 16.3582963004,
			"0.0": 12.719816427,
			"0.001": 13.614326217,
			"0.002": 11.3320023287,
			"0.003": 13.1300617936,
			"0.004": 13.1180768471,
			"0.005": 12.8960204529,
			"0.006": 10.5320608462,
			"0.007": 3.53234352159,
			"0.008": 2.73280251579,
			"0.009": 2.04778447098,
			"0.01": 1.28715873265,
			"0.011": 1.64183705692,
			"0.012": 2.27012733807,
			"0.013": 1.50073546127,
			"0.014": 1.5913760454,
			"0.015": 1.75940384758,
			"0.016": 0.557961492961,
			"0.017": 0.491828837994,
			"0.018": 0.367801775996,
			"0.019": 0.0,
			"0.02": 0.0,
			"0.021": 0.0,
			"0.022": 0.0,
			"0.023": 0.0,
			"0.024": 0.0,
			"0.025": 0.0
		}
	}
}
