{
	 "smiles": "NNC1=C(Cl)C=C(F)C=C1Cl", 
	 "Tm": 383.15, 
	 "num_atms": 16, 
	 "gaussian": { 
		 "optdone": 1, 
		 "sigma_profile": "yes", 
		 "theory": "DFT", 
		 "functional": "B3LYP", 
		 "basiset": "6-31G**", 
		 "properties": { 
			 "R2extent": 2614.1631, 
			 "electric_dipole_moment_norm": 1.10830468735, 
			 "electric_quadrupole_moment_norm": 5.41090703949, 
			 "total_energy": -1361.3287329, 
			 "HOMO_LUMO_gap": 0.18934, 
			 "cosmo_polarized_energy": -7.22, 
			 "cosmo_cavitation_energy": 23.98, 
			 "cosmo_dispersion_energy": -17.92, 
			 "cosmo_repulsion_energy": 1.41, 
			 "cosmo_total_nonelectrostatic_energy": 7.47, 
			 "SMD_solvation_energy": 4.32 
		},
		"coords": [
			{
				"x": -1.634715355,
				"y": 1.8399665295,
				"z": -0.7689673621,
				"element": "N" 
			},
			{
				"x": -1.3480951549,
				"y": 0.6701605375,
				"z": -0.0035968068,
				"element": "N" 
			},
			{
				"x": -0.0243836445,
				"y": 0.3783291179,
				"z": 0.353440469,
				"element": "C" 
			},
			{
				"x": 0.760964898,
				"y": 1.2475351823,
				"z": 1.1428876834,
				"element": "C" 
			},
			{
				"x": 0.0738471942,
				"y": 2.7451007709,
				"z": 1.7524180719,
				"element": "Cl" 
			},
			{
				"x": 2.0709376839,
				"y": 0.9540507951,
				"z": 1.5120340694,
				"element": "C" 
			},
			{
				"x": 2.6134563342,
				"y": -0.2629916248,
				"z": 1.1241448899,
				"element": "C" 
			},
			{
				"x": 3.8754616924,
				"y": -0.5623425209,
				"z": 1.4854922516,
				"element": "F" 
			},
			{
				"x": 1.8868420301,
				"y": -1.1829558244,
				"z": 0.382133822,
				"element": "C" 
			},
			{
				"x": 0.5914351436,
				"y": -0.8447970751,
				"z": 0.0020992592,
				"element": "C" 
			},
			{
				"x": -0.3072719108,
				"y": -2.0137625157,
				"z": -0.9592814606,
				"element": "Cl" 
			},
			{
				"x": -1.7479744871,
				"y": 2.6179644377,
				"z": -0.1268928539,
				"element": "H" 
			},
			{
				"x": -0.85298711,
				"y": 2.0620329402,
				"z": -1.3864571709,
				"element": "H" 
			},
			{
				"x": -1.8010299687,
				"y": -0.119990883,
				"z": -0.4437398194,
				"element": "H" 
			},
			{
				"x": 2.6485165904,
				"y": 1.6451202533,
				"z": 2.113236453,
				"element": "H" 
			},
			{
				"x": 2.3271960642,
				"y": -2.1295201204,
				"z": 0.0948485043,
				"element": "H" 
			}
		],
		 "valence_orbital": [ 
			{
				"type": "occ",
				"energy": -0.32717,
				"method": "rhf"
			},
			{
				"type": "occ",
				"energy": -0.30566,
				"method": "rhf"
			},
			{
				"type": "occ",
				"energy": -0.26942,
				"method": "rhf"
			},
			{
				"type": "occ",
				"energy": -0.26341,
				"method": "rhf"
			},
			{
				"type": "occ",
				"energy": -0.22571,
				"method": "rhf"
			},
			{
				"type": "unocc",
				"energy": -0.03637,
				"method": "rhf"
			},
			{
				"type": "unocc",
				"energy": -0.01945,
				"method": "rhf"
			},
			{
				"type": "unocc",
				"energy": -0.00751,
				"method": "rhf"
			},
			{
				"type": "unocc",
				"energy": 0.04091,
				"method": "rhf"
			},
			{
				"type": "unocc",
				"energy": 0.09094,
				"method": "rhf"
			}
		],
		"cosmo_sigma_profile": { 
			"-0.025": 0.0,
			"-0.024": 0.0,
			"-0.023": 0.0,
			"-0.022": 0.0,
			"-0.021": 0.0,
			"-0.02": 0.0,
			"-0.019": 0.0,
			"-0.018": 0.0,
			"-0.017": 0.0,
			"-0.016": 0.0,
			"-0.015": 0.0,
			"-0.014": 0.0,
			"-0.013": 0.0,
			"-0.012": 0.0264432858405,
			"-0.011": 1.14010678105,
			"-0.01": 1.97735441011,
			"-0.009": 4.55062464534,
			"-0.008": 6.82948029793,
			"-0.007": 6.52229904398,
			"-0.006": 6.39135168071,
			"-0.005": 6.38444762264,
			"-0.004": 7.10466340182,
			"-0.003": 10.0682837757,
			"-0.002": 10.8300133596,
			"-0.001": 15.153541649,
			"0.0": 23.5229988174,
			"0.001": 27.1076932673,
			"0.002": 13.4289927559,
			"0.003": 18.8080018177,
			"0.004": 20.802025592,
			"0.005": 2.66236476616,
			"0.006": 1.75948195891,
			"0.007": 2.03434512381,
			"0.008": 1.62280932177,
			"0.009": 1.80677311527,
			"0.01": 0.71872641008,
			"0.011": 1.5830182129,
			"0.012": 0.880968232922,
			"0.013": 0.469112863195,
			"0.014": 0.693361127674,
			"0.015": 0.503054159989,
			"0.016": 0.72455903422,
			"0.017": 0.2559348371,
			"0.018": 0.0,
			"0.019": 0.0,
			"0.02": 0.0,
			"0.021": 0.0,
			"0.022": 0.0,
			"0.023": 0.0,
			"0.024": 0.0,
			"0.025": 0.0
		}
	}
}
