{
	 "smiles": "CCCCCCCCCCOC1=CC=C(C=NC2=CC=C(C=CC(=O)OCC)C=C2)C=C1", 
	 "Tm": 387.15, 
	 "num_atms": 69, 
	 "gaussian": { 
		 "optdone": 1, 
		 "sigma_profile": "yes", 
		 "theory": "DFT", 
		 "functional": "B3LYP", 
		 "basiset": "6-31G**", 
		 "properties": { 
			 "R2extent": 48404.0189, 
			 "electric_dipole_moment_norm": 6.72086812994, 
			 "electric_quadrupole_moment_norm": 28.7849419459, 
			 "total_energy": -1369.73002274, 
			 "HOMO_LUMO_gap": 0.13763, 
			 "cosmo_polarized_energy": -15.58, 
			 "cosmo_cavitation_energy": 72.66, 
			 "cosmo_dispersion_energy": -50.37, 
			 "cosmo_repulsion_energy": 3.89, 
			 "cosmo_total_nonelectrostatic_energy": 26.17, 
			 "SMD_solvation_energy": 11.29 
		},
		"coords": [
			{
				"x": 4.2540890097,
				"y": 4.0080194737,
				"z": 8.5245944314,
				"element": "C" 
			},
			{
				"x": 3.1397871297,
				"y": 4.9143905859,
				"z": 7.9918162674,
				"element": "C" 
			},
			{
				"x": 2.1330380678,
				"y": 4.1772865821,
				"z": 7.0988208886,
				"element": "C" 
			},
			{
				"x": 1.0174642678,
				"y": 5.0862708123,
				"z": 6.5640948759,
				"element": "C" 
			},
			{
				"x": 0.0314323713,
				"y": 4.4025775913,
				"z": 5.6024257307,
				"element": "C" 
			},
			{
				"x": -0.8402033624,
				"y": 3.3113111293,
				"z": 6.2402656354,
				"element": "C" 
			},
			{
				"x": -1.8573378787,
				"y": 2.7060570362,
				"z": 5.2638861921,
				"element": "C" 
			},
			{
				"x": -2.7313114598,
				"y": 1.6215219574,
				"z": 5.910416396,
				"element": "C" 
			},
			{
				"x": -3.834049764,
				"y": 1.0280008293,
				"z": 5.0166014225,
				"element": "C" 
			},
			{
				"x": -3.3676070778,
				"y": 0.1026572866,
				"z": 3.8981801126,
				"element": "C" 
			},
			{
				"x": -2.7381162997,
				"y": 0.8786482661,
				"z": 2.8733739003,
				"element": "O" 
			},
			{
				"x": -2.2632588648,
				"y": 0.2495118535,
				"z": 1.7671497266,
				"element": "C" 
			},
			{
				"x": -1.673144142,
				"y": 1.0856233748,
				"z": 0.7983459034,
				"element": "C" 
			},
			{
				"x": -1.1597807572,
				"y": 0.548855543,
				"z": -0.3669989586,
				"element": "C" 
			},
			{
				"x": -1.2158616803,
				"y": -0.8406874758,
				"z": -0.6055913314,
				"element": "C" 
			},
			{
				"x": -0.6820280764,
				"y": -1.4323576901,
				"z": -1.8290868216,
				"element": "C" 
			},
			{
				"x": -0.1097837669,
				"y": -0.7398682839,
				"z": -2.7471228455,
				"element": "N" 
			},
			{
				"x": 0.3173668005,
				"y": -1.3530696428,
				"z": -3.929852989,
				"element": "C" 
			},
			{
				"x": 1.517765561,
				"y": -0.8989535639,
				"z": -4.5125965598,
				"element": "C" 
			},
			{
				"x": 1.9939825756,
				"y": -1.4570844213,
				"z": -5.6873253457,
				"element": "C" 
			},
			{
				"x": 1.2772878512,
				"y": -2.4742218245,
				"z": -6.3533042342,
				"element": "C" 
			},
			{
				"x": 1.7224373036,
				"y": -3.0905968215,
				"z": -7.6002478233,
				"element": "C" 
			},
			{
				"x": 2.853131432,
				"y": -2.8281708721,
				"z": -8.2858120724,
				"element": "C" 
			},
			{
				"x": 3.2376827518,
				"y": -3.497303782,
				"z": -9.5408468465,
				"element": "C" 
			},
			{
				"x": 4.2675310763,
				"y": -3.2501983272,
				"z": -10.1439123937,
				"element": "O" 
			},
			{
				"x": 2.3264427141,
				"y": -4.4145370781,
				"z": -9.9608363809,
				"element": "O" 
			},
			{
				"x": 2.6399891089,
				"y": -5.11307582,
				"z": -11.1851707183,
				"element": "C" 
			},
			{
				"x": 3.531872445,
				"y": -6.3189568818,
				"z": -10.9265144863,
				"element": "C" 
			},
			{
				"x": 0.0625618291,
				"y": -2.8979681861,
				"z": -5.783049099,
				"element": "C" 
			},
			{
				"x": -0.4136622051,
				"y": -2.3540986681,
				"z": -4.595627404,
				"element": "C" 
			},
			{
				"x": -1.803890245,
				"y": -1.6608187296,
				"z": 0.3662860922,
				"element": "C" 
			},
			{
				"x": -2.3271555289,
				"y": -1.1333207185,
				"z": 1.5463112022,
				"element": "C" 
			},
			{
				"x": 3.8446585873,
				"y": 3.1871681763,
				"z": 9.1246839014,
				"element": "H" 
			},
			{
				"x": 4.827722356,
				"y": 3.5612976557,
				"z": 7.704341058,
				"element": "H" 
			},
			{
				"x": 4.9554575113,
				"y": 4.563082509,
				"z": 9.1563007272,
				"element": "H" 
			},
			{
				"x": 3.5826202581,
				"y": 5.7460395311,
				"z": 7.426793941,
				"element": "H" 
			},
			{
				"x": 2.6060888224,
				"y": 5.3730457784,
				"z": 8.8355717398,
				"element": "H" 
			},
			{
				"x": 1.6992893108,
				"y": 3.3428887227,
				"z": 7.6660122897,
				"element": "H" 
			},
			{
				"x": 2.6664779113,
				"y": 3.7229367448,
				"z": 6.2509631336,
				"element": "H" 
			},
			{
				"x": 1.4780822845,
				"y": 5.9388722158,
				"z": 6.0465765166,
				"element": "H" 
			},
			{
				"x": 0.4605059009,
				"y": 5.5132191697,
				"z": 7.41078046,
				"element": "H" 
			},
			{
				"x": 0.5886771262,
				"y": 3.9727551879,
				"z": 4.7576745429,
				"element": "H" 
			},
			{
				"x": -0.6267871791,
				"y": 5.168626996,
				"z": 5.170215495,
				"element": "H" 
			},
			{
				"x": -1.3710594168,
				"y": 3.7340057027,
				"z": 7.106150562,
				"element": "H" 
			},
			{
				"x": -0.2040810056,
				"y": 2.5089501482,
				"z": 6.6373200177,
				"element": "H" 
			},
			{
				"x": -2.5055702666,
				"y": 3.5030755197,
				"z": 4.8725531511,
				"element": "H" 
			},
			{
				"x": -1.3335951544,
				"y": 2.2924759082,
				"z": 4.3952855712,
				"element": "H" 
			},
			{
				"x": -3.2125507643,
				"y": 2.0458022878,
				"z": 6.8020306565,
				"element": "H" 
			},
			{
				"x": -2.0915538561,
				"y": 0.8055313533,
				"z": 6.2772472492,
				"element": "H" 
			},
			{
				"x": -4.4398273652,
				"y": 1.8291827794,
				"z": 4.5748027119,
				"element": "H" 
			},
			{
				"x": -4.5137677165,
				"y": 0.4361074372,
				"z": 5.6432204832,
				"element": "H" 
			},
			{
				"x": -2.6600857277,
				"y": -0.6456725737,
				"z": 4.2842412093,
				"element": "H" 
			},
			{
				"x": -4.2253784131,
				"y": -0.4330928237,
				"z": 3.4683027898,
				"element": "H" 
			},
			{
				"x": -1.6375730621,
				"y": 2.1523980693,
				"z": 0.9938381411,
				"element": "H" 
			},
			{
				"x": -0.7037390749,
				"y": 1.1849432755,
				"z": -1.1182859453,
				"element": "H" 
			},
			{
				"x": -0.7865128853,
				"y": -2.5250428623,
				"z": -1.9135362507,
				"element": "H" 
			},
			{
				"x": 2.065197343,
				"y": -0.1085276015,
				"z": -4.0092592476,
				"element": "H" 
			},
			{
				"x": 2.928765427,
				"y": -1.0937860397,
				"z": -6.102636363,
				"element": "H" 
			},
			{
				"x": 1.0581094553,
				"y": -3.8483156236,
				"z": -8.0099692788,
				"element": "H" 
			},
			{
				"x": 3.5792021431,
				"y": -2.0923057045,
				"z": -7.9562717132,
				"element": "H" 
			},
			{
				"x": 3.1169199856,
				"y": -4.4157218614,
				"z": -11.8781831315,
				"element": "H" 
			},
			{
				"x": 1.6680634861,
				"y": -5.4141224544,
				"z": -11.5847394369,
				"element": "H" 
			},
			{
				"x": 4.5054557789,
				"y": -5.9989884734,
				"z": -10.5477323123,
				"element": "H" 
			},
			{
				"x": 3.6901599211,
				"y": -6.8726016856,
				"z": -11.8582892789,
				"element": "H" 
			},
			{
				"x": 3.0725577397,
				"y": -6.9948057999,
				"z": -10.1988629686,
				"element": "H" 
			},
			{
				"x": -0.5183357357,
				"y": -3.6646005707,
				"z": -6.2899106561,
				"element": "H" 
			},
			{
				"x": -1.3702308402,
				"y": -2.6765233889,
				"z": -4.1958221228,
				"element": "H" 
			},
			{
				"x": -1.8545032442,
				"y": -2.7341891342,
				"z": 0.1988151103,
				"element": "H" 
			},
			{
				"x": -2.7744308271,
				"y": -1.7961521055,
				"z": 2.2766047802,
				"element": "H" 
			}
		],
		 "valence_orbital": [ 
			{
				"type": "occ",
				"energy": -0.26213,
				"method": "rhf"
			},
			{
				"type": "occ",
				"energy": -0.25922,
				"method": "rhf"
			},
			{
				"type": "occ",
				"energy": -0.25591,
				"method": "rhf"
			},
			{
				"type": "occ",
				"energy": -0.2337,
				"method": "rhf"
			},
			{
				"type": "occ",
				"energy": -0.20737,
				"method": "rhf"
			},
			{
				"type": "unocc",
				"energy": -0.06974,
				"method": "rhf"
			},
			{
				"type": "unocc",
				"energy": -0.03697,
				"method": "rhf"
			},
			{
				"type": "unocc",
				"energy": -0.01056,
				"method": "rhf"
			},
			{
				"type": "unocc",
				"energy": -0.00464,
				"method": "rhf"
			},
			{
				"type": "unocc",
				"energy": 0.02979,
				"method": "rhf"
			}
		],
		"cosmo_sigma_profile": { 
			"-0.025": 0.0,
			"-0.024": 0.0,
			"-0.023": 0.0,
			"-0.022": 0.0,
			"-0.021": 0.0,
			"-0.02": 0.0,
			"-0.019": 0.0,
			"-0.018": 0.0,
			"-0.017": 0.0,
			"-0.016": 0.0,
			"-0.015": 0.0,
			"-0.014": 0.0,
			"-0.013": 0.0,
			"-0.012": 0.0,
			"-0.011": 0.0,
			"-0.01": 0.0,
			"-0.009": 0.0705826543339,
			"-0.008": 1.87118902878,
			"-0.007": 9.62429966367,
			"-0.006": 19.1222212056,
			"-0.005": 25.9721063969,
			"-0.004": 35.7618850599,
			"-0.003": 37.0075599362,
			"-0.002": 53.6578293376,
			"-0.001": 76.8869224322,
			"0.0": 77.6808606215,
			"0.001": 67.9814453559,
			"0.002": 49.639428382,
			"0.003": 35.8471269318,
			"0.004": 35.7537646401,
			"0.005": 10.7745609694,
			"0.006": 6.44621272877,
			"0.007": 4.73344387095,
			"0.008": 4.26177935725,
			"0.009": 3.74135568602,
			"0.01": 2.11511807149,
			"0.011": 2.84652828962,
			"0.012": 4.31170470924,
			"0.013": 3.29024881838,
			"0.014": 0.460111857507,
			"0.015": 0.0,
			"0.016": 0.0,
			"0.017": 0.0,
			"0.018": 0.0,
			"0.019": 0.0,
			"0.02": 0.0,
			"0.021": 0.0,
			"0.022": 0.0,
			"0.023": 0.0,
			"0.024": 0.0,
			"0.025": 0.0
		}
	}
}
