{
	 "smiles": "ClCC1=CSC(=N1)C1=CC=CO1", 
	 "Tm": 350.15, 
	 "num_atms": 18, 
	 "gaussian": { 
		 "optdone": 1, 
		 "sigma_profile": "yes", 
		 "theory": "DFT", 
		 "functional": "B3LYP", 
		 "basiset": "6-31G**", 
		 "properties": { 
			 "R2extent": 3402.9108, 
			 "electric_dipole_moment_norm": 3.41978053974, 
			 "electric_quadrupole_moment_norm": 12.8568721048, 
			 "total_energy": -1296.78942776, 
			 "HOMO_LUMO_gap": 0.15968, 
			 "cosmo_polarized_energy": -11.37, 
			 "cosmo_cavitation_energy": 26.66, 
			 "cosmo_dispersion_energy": -20.16, 
			 "cosmo_repulsion_energy": 1.57, 
			 "cosmo_total_nonelectrostatic_energy": 8.08, 
			 "SMD_solvation_energy": 3.59 
		},
		"coords": [
			{
				"x": -0.8444368728,
				"y": -1.7198217085,
				"z": -3.0472158497,
				"element": "Cl" 
			},
			{
				"x": -1.7811260442,
				"y": -0.7428088119,
				"z": -1.8102650608,
				"element": "C" 
			},
			{
				"x": -0.8881831785,
				"y": -0.0415980148,
				"z": -0.8433580186,
				"element": "C" 
			},
			{
				"x": -0.4984830264,
				"y": 1.2681382985,
				"z": -0.9389401602,
				"element": "C" 
			},
			{
				"x": 0.5350912095,
				"y": 1.6870320406,
				"z": 0.3836371071,
				"element": "S" 
			},
			{
				"x": 0.3606924265,
				"y": 0.0289386254,
				"z": 0.9847390706,
				"element": "C" 
			},
			{
				"x": -0.4011862635,
				"y": -0.7291350173,
				"z": 0.2437971374,
				"element": "N" 
			},
			{
				"x": 1.0199877466,
				"y": -0.3905917872,
				"z": 2.2009705294,
				"element": "C" 
			},
			{
				"x": 1.8471749162,
				"y": 0.2531100609,
				"z": 3.089113423,
				"element": "C" 
			},
			{
				"x": 2.1770197514,
				"y": -0.7004975507,
				"z": 4.097157397,
				"element": "C" 
			},
			{
				"x": 1.5298568945,
				"y": -1.8512346796,
				"z": 3.7519390028,
				"element": "C" 
			},
			{
				"x": 0.8235416466,
				"y": -1.6811817125,
				"z": 2.6054085843,
				"element": "O" 
			},
			{
				"x": -2.418916567,
				"y": -1.459234159,
				"z": -1.2939485655,
				"element": "H" 
			},
			{
				"x": -2.3883234653,
				"y": -0.0423868954,
				"z": -2.3823875651,
				"element": "H" 
			},
			{
				"x": -0.7486607881,
				"y": 1.9899217071,
				"z": -1.7034315016,
				"element": "H" 
			},
			{
				"x": 2.1796081038,
				"y": 1.2797300667,
				"z": 3.0286741999,
				"element": "H" 
			},
			{
				"x": 2.8096775458,
				"y": -0.5496785112,
				"z": 4.9595458305,
				"element": "H" 
			},
			{
				"x": 1.472565965,
				"y": -2.8331019511,
				"z": 4.1955644396,
				"element": "H" 
			}
		],
		 "valence_orbital": [ 
			{
				"type": "occ",
				"energy": -0.29223,
				"method": "rhf"
			},
			{
				"type": "occ",
				"energy": -0.28945,
				"method": "rhf"
			},
			{
				"type": "occ",
				"energy": -0.28203,
				"method": "rhf"
			},
			{
				"type": "occ",
				"energy": -0.275,
				"method": "rhf"
			},
			{
				"type": "occ",
				"energy": -0.21776,
				"method": "rhf"
			},
			{
				"type": "unocc",
				"energy": -0.05808,
				"method": "rhf"
			},
			{
				"type": "unocc",
				"energy": -0.01249,
				"method": "rhf"
			},
			{
				"type": "unocc",
				"energy": 0.00704,
				"method": "rhf"
			},
			{
				"type": "unocc",
				"energy": 0.03463,
				"method": "rhf"
			},
			{
				"type": "unocc",
				"energy": 0.06459,
				"method": "rhf"
			}
		],
		"cosmo_sigma_profile": { 
			"-0.025": 0.0,
			"-0.024": 0.0,
			"-0.023": 0.0,
			"-0.022": 0.0,
			"-0.021": 0.0,
			"-0.02": 0.0,
			"-0.019": 0.0,
			"-0.018": 0.0,
			"-0.017": 0.0,
			"-0.016": 0.0,
			"-0.015": 0.0,
			"-0.014": 0.0,
			"-0.013": 0.0,
			"-0.012": 0.0,
			"-0.011": 0.0,
			"-0.01": 1.8792966674,
			"-0.009": 5.74695385246,
			"-0.008": 9.24677523863,
			"-0.007": 12.710212139,
			"-0.006": 9.43334936981,
			"-0.005": 10.9618484337,
			"-0.004": 10.1988947713,
			"-0.003": 9.32745306924,
			"-0.002": 10.4319066658,
			"-0.001": 12.1857038422,
			"0.0": 16.9310664118,
			"0.001": 23.2087559925,
			"0.002": 20.6221336571,
			"0.003": 15.1599329051,
			"0.004": 11.7915664708,
			"0.005": 8.34283669502,
			"0.006": 12.5944457073,
			"0.007": 7.95060534432,
			"0.008": 2.36715771828,
			"0.009": 1.42689548339,
			"0.01": 2.16724720689,
			"0.011": 0.983576389735,
			"0.012": 1.37888237742,
			"0.013": 1.29911603741,
			"0.014": 0.877986625494,
			"0.015": 0.233402453993,
			"0.016": 0.0,
			"0.017": 0.0,
			"0.018": 0.0,
			"0.019": 0.0,
			"0.02": 0.0,
			"0.021": 0.0,
			"0.022": 0.0,
			"0.023": 0.0,
			"0.024": 0.0,
			"0.025": 0.0
		}
	}
}
