{
	 "smiles": "OC(=O)C1CC1C1=CC(Br)=CC=C1", 
	 "Tm": 389.15, 
	 "num_atms": 22, 
	 "gaussian": { 
		 "optdone": 1, 
		 "sigma_profile": "yes", 
		 "theory": "DFT", 
		 "functional": "B3LYP", 
		 "basiset": "6-31G**", 
		 "properties": { 
			 "R2extent": 5095.6554, 
			 "electric_dipole_moment_norm": 4.59808902589, 
			 "electric_quadrupole_moment_norm": 18.6314786083, 
			 "total_energy": -3108.32450173, 
			 "HOMO_LUMO_gap": 0.2151, 
			 "cosmo_polarized_energy": -16.21, 
			 "cosmo_cavitation_energy": 28.86, 
			 "cosmo_dispersion_energy": -21.24, 
			 "cosmo_repulsion_energy": 1.69, 
			 "cosmo_total_nonelectrostatic_energy": 9.3, 
			 "SMD_solvation_energy": 4.49 
		},
		"coords": [
			{
				"x": -3.0435260087,
				"y": 3.0599077974,
				"z": -2.4088085856,
				"element": "O" 
			},
			{
				"x": -2.5859343157,
				"y": 2.7838022999,
				"z": -1.1596916825,
				"element": "C" 
			},
			{
				"x": -2.4308875996,
				"y": 3.6753512487,
				"z": -0.3582610791,
				"element": "O" 
			},
			{
				"x": -2.2900689192,
				"y": 1.3480310152,
				"z": -0.8645499659,
				"element": "C" 
			},
			{
				"x": -2.4357345451,
				"y": 0.8938542749,
				"z": 0.5698833154,
				"element": "C" 
			},
			{
				"x": -1.0572817058,
				"y": 1.0739171676,
				"z": 0.011795517,
				"element": "C" 
			},
			{
				"x": -0.14883947,
				"y": -0.068525172,
				"z": -0.2938858206,
				"element": "C" 
			},
			{
				"x": 1.2365078852,
				"y": 0.1416989208,
				"z": -0.2364589193,
				"element": "C" 
			},
			{
				"x": 2.1134137452,
				"y": -0.902640702,
				"z": -0.519749812,
				"element": "C" 
			},
			{
				"x": 3.9972504752,
				"y": -0.5863199703,
				"z": -0.4304668229,
				"element": "Br" 
			},
			{
				"x": 1.6500166966,
				"y": -2.1692691272,
				"z": -0.8668552832,
				"element": "C" 
			},
			{
				"x": 0.2708623024,
				"y": -2.3779262092,
				"z": -0.9250010881,
				"element": "C" 
			},
			{
				"x": -0.6196492475,
				"y": -1.3441453418,
				"z": -0.6415381006,
				"element": "C" 
			},
			{
				"x": -3.1041829502,
				"y": 2.2489933819,
				"z": -2.9324472271,
				"element": "H" 
			},
			{
				"x": -2.4906321248,
				"y": 0.6157078,
				"z": -1.6431732832,
				"element": "H" 
			},
			{
				"x": -2.7859413405,
				"y": 1.6458921601,
				"z": 1.2690132033,
				"element": "H" 
			},
			{
				"x": -2.7982252911,
				"y": -0.1146105278,
				"z": 0.7419931913,
				"element": "H" 
			},
			{
				"x": -0.554585369,
				"y": 1.9836387393,
				"z": 0.3270685311,
				"element": "H" 
			},
			{
				"x": 1.6276327081,
				"y": 1.117592958,
				"z": 0.0300354416,
				"element": "H" 
			},
			{
				"x": 2.3472378596,
				"y": -2.9699189987,
				"z": -1.084058794,
				"element": "H" 
			},
			{
				"x": -0.1088249204,
				"y": -3.3599405412,
				"z": -1.1916451073,
				"element": "H" 
			},
			{
				"x": -1.6873078648,
				"y": -1.5388911738,
				"z": -0.6897976282,
				"element": "H" 
			}
		],
		 "valence_orbital": [ 
			{
				"type": "occ",
				"energy": -0.30737,
				"method": "rhf"
			},
			{
				"type": "occ",
				"energy": -0.28993,
				"method": "rhf"
			},
			{
				"type": "occ",
				"energy": -0.27887,
				"method": "rhf"
			},
			{
				"type": "occ",
				"energy": -0.25784,
				"method": "rhf"
			},
			{
				"type": "occ",
				"energy": -0.24507,
				"method": "rhf"
			},
			{
				"type": "unocc",
				"energy": -0.02997,
				"method": "rhf"
			},
			{
				"type": "unocc",
				"energy": -0.02109,
				"method": "rhf"
			},
			{
				"type": "unocc",
				"energy": 0.00264,
				"method": "rhf"
			},
			{
				"type": "unocc",
				"energy": 0.01164,
				"method": "rhf"
			},
			{
				"type": "unocc",
				"energy": 0.04843,
				"method": "rhf"
			}
		],
		"cosmo_sigma_profile": { 
			"-0.025": 0.0,
			"-0.024": 0.0,
			"-0.023": 0.0,
			"-0.022": 0.0,
			"-0.021": 0.0,
			"-0.02": 0.00616425246598,
			"-0.019": 1.03936496669,
			"-0.018": 1.13936589968,
			"-0.017": 1.15622187274,
			"-0.016": 1.18907290869,
			"-0.015": 1.20637669813,
			"-0.014": 0.831628021515,
			"-0.013": 1.09427762702,
			"-0.012": 0.68212542851,
			"-0.011": 1.09778817778,
			"-0.01": 1.2201404561,
			"-0.009": 1.25940474449,
			"-0.008": 3.30559739353,
			"-0.007": 9.74417028961,
			"-0.006": 11.5334155311,
			"-0.005": 12.0653953959,
			"-0.004": 13.2374717397,
			"-0.003": 12.5361401351,
			"-0.002": 15.5798472107,
			"-0.001": 14.7692041092,
			"0.0": 14.8522125349,
			"0.001": 14.2433219661,
			"0.002": 19.7049125379,
			"0.003": 21.353707353,
			"0.004": 21.5305257399,
			"0.005": 10.8728797844,
			"0.006": 2.06063843867,
			"0.007": 1.54659190555,
			"0.008": 2.36249016874,
			"0.009": 4.07580322998,
			"0.01": 3.79697124051,
			"0.011": 4.34105519408,
			"0.012": 5.25835473418,
			"0.013": 2.45234112554,
			"0.014": 0.316650276977,
			"0.015": 0.0,
			"0.016": 0.0,
			"0.017": 0.0,
			"0.018": 0.0,
			"0.019": 0.0,
			"0.02": 0.0,
			"0.021": 0.0,
			"0.022": 0.0,
			"0.023": 0.0,
			"0.024": 0.0,
			"0.025": 0.0
		}
	}
}
