{
	 "smiles": "OC(=O)CC1=CNC2=C1C=C(O)C=C2", 
	 "Tm": 437.15, 
	 "num_atms": 23, 
	 "gaussian": { 
		 "optdone": 1, 
		 "sigma_profile": "yes", 
		 "theory": "DFT", 
		 "functional": "B3LYP", 
		 "basiset": "6-31G**", 
		 "properties": { 
			 "R2extent": 2957.0443, 
			 "electric_dipole_moment_norm": 4.25020006823, 
			 "electric_quadrupole_moment_norm": 10.7134397469, 
			 "total_energy": -666.923961115, 
			 "HOMO_LUMO_gap": 0.18186, 
			 "cosmo_polarized_energy": -20.1, 
			 "cosmo_cavitation_energy": 27.81, 
			 "cosmo_dispersion_energy": -20.18, 
			 "cosmo_repulsion_energy": 1.6, 
			 "cosmo_total_nonelectrostatic_energy": 9.23, 
			 "SMD_solvation_energy": 5.94 
		},
		"coords": [
			{
				"x": -1.300358616,
				"y": -3.0147846608,
				"z": 0.3433219275,
				"element": "O" 
			},
			{
				"x": -0.3778451562,
				"y": -2.61001602,
				"z": -0.5627604039,
				"element": "C" 
			},
			{
				"x": 0.7689601465,
				"y": -3.0006372873,
				"z": -0.5435381515,
				"element": "O" 
			},
			{
				"x": -0.9536367512,
				"y": -1.6128877593,
				"z": -1.5546177697,
				"element": "C" 
			},
			{
				"x": -0.977602888,
				"y": -0.2147416664,
				"z": -0.9974386681,
				"element": "C" 
			},
			{
				"x": -2.0942807534,
				"y": 0.5342567532,
				"z": -0.717604684,
				"element": "C" 
			},
			{
				"x": -1.723391627,
				"y": 1.7741576529,
				"z": -0.2408561663,
				"element": "N" 
			},
			{
				"x": -0.3413097691,
				"y": 1.8492206313,
				"z": -0.2034112714,
				"element": "C" 
			},
			{
				"x": 0.1637360156,
				"y": 0.60478617,
				"z": -0.66989687,
				"element": "C" 
			},
			{
				"x": 1.5515602732,
				"y": 0.3960365207,
				"z": -0.7323414318,
				"element": "C" 
			},
			{
				"x": 2.3947802774,
				"y": 1.4303791207,
				"z": -0.3407744442,
				"element": "C" 
			},
			{
				"x": 3.7476200832,
				"y": 1.2061094351,
				"z": -0.4122519911,
				"element": "O" 
			},
			{
				"x": 1.8780931319,
				"y": 2.6631526598,
				"z": 0.1159588584,
				"element": "C" 
			},
			{
				"x": 0.5072407434,
				"y": 2.8846466675,
				"z": 0.1919572306,
				"element": "C" 
			},
			{
				"x": -0.8319330299,
				"y": -3.6093274991,
				"z": 0.9533577605,
				"element": "H" 
			},
			{
				"x": -1.9681699659,
				"y": -1.9241081854,
				"z": -1.8205681918,
				"element": "H" 
			},
			{
				"x": -0.3269648227,
				"y": -1.6641859777,
				"z": -2.4505265276,
				"element": "H" 
			},
			{
				"x": -3.138125945,
				"y": 0.2745904584,
				"z": -0.8273100294,
				"element": "H" 
			},
			{
				"x": -2.3576902153,
				"y": 2.5096871142,
				"z": 0.0221053814,
				"element": "H" 
			},
			{
				"x": 1.9712604038,
				"y": -0.5502607391,
				"z": -1.0555686191,
				"element": "H" 
			},
			{
				"x": 4.2122039331,
				"y": 1.9931460144,
				"z": -0.1019554045,
				"element": "H" 
			},
			{
				"x": 2.5659112842,
				"y": 3.4509715172,
				"z": 0.4161402315,
				"element": "H" 
			},
			{
				"x": 0.1196432473,
				"y": 3.8351090801,
				"z": 0.5474792343,
				"element": "H" 
			}
		],
		 "valence_orbital": [ 
			{
				"type": "occ",
				"energy": -0.30136,
				"method": "rhf"
			},
			{
				"type": "occ",
				"energy": -0.27665,
				"method": "rhf"
			},
			{
				"type": "occ",
				"energy": -0.26274,
				"method": "rhf"
			},
			{
				"type": "occ",
				"energy": -0.20599,
				"method": "rhf"
			},
			{
				"type": "occ",
				"energy": -0.19175,
				"method": "rhf"
			},
			{
				"type": "unocc",
				"energy": -0.00989,
				"method": "rhf"
			},
			{
				"type": "unocc",
				"energy": 0.01509,
				"method": "rhf"
			},
			{
				"type": "unocc",
				"energy": 0.04202,
				"method": "rhf"
			},
			{
				"type": "unocc",
				"energy": 0.07197,
				"method": "rhf"
			},
			{
				"type": "unocc",
				"energy": 0.07814,
				"method": "rhf"
			}
		],
		"cosmo_sigma_profile": { 
			"-0.025": 0.0,
			"-0.024": 0.0,
			"-0.023": 0.0,
			"-0.022": 0.0,
			"-0.021": 0.0,
			"-0.02": 0.0,
			"-0.019": 0.00743912719363,
			"-0.018": 0.589790138233,
			"-0.017": 1.69161810839,
			"-0.016": 2.60356964228,
			"-0.015": 3.02354016169,
			"-0.014": 3.43266672908,
			"-0.013": 1.80076076307,
			"-0.012": 3.49612886146,
			"-0.011": 3.15235882425,
			"-0.01": 3.49325166526,
			"-0.009": 2.75536903808,
			"-0.008": 4.61077474,
			"-0.007": 5.90934871791,
			"-0.006": 10.8920071909,
			"-0.005": 9.8708504077,
			"-0.004": 11.5759299208,
			"-0.003": 11.0732800029,
			"-0.002": 9.97362495547,
			"-0.001": 9.0967554895,
			"0.0": 8.95752981657,
			"0.001": 9.02893304012,
			"0.002": 7.75580624836,
			"0.003": 11.7222576861,
			"0.004": 13.2577856038,
			"0.005": 20.4679563474,
			"0.006": 18.8199881949,
			"0.007": 7.2644999745,
			"0.008": 4.47017142853,
			"0.009": 4.44022968096,
			"0.01": 4.29392803588,
			"0.011": 4.87650345115,
			"0.012": 6.0735909364,
			"0.013": 0.61215951014,
			"0.014": 0.0,
			"0.015": 0.0,
			"0.016": 0.0,
			"0.017": 0.0,
			"0.018": 0.0,
			"0.019": 0.0,
			"0.02": 0.0,
			"0.021": 0.0,
			"0.022": 0.0,
			"0.023": 0.0,
			"0.024": 0.0,
			"0.025": 0.0
		}
	}
}
