{
	 "smiles": "CC(Cl)C(=O)C1=CC2=C(C=C1)N(CC2)C(C)=O", 
	 "Tm": 403.15, 
	 "num_atms": 31, 
	 "gaussian": { 
		 "optdone": 1, 
		 "sigma_profile": "yes", 
		 "theory": "DFT", 
		 "functional": "B3LYP", 
		 "basiset": "6-31G**", 
		 "properties": { 
			 "R2extent": 6015.305, 
			 "electric_dipole_moment_norm": 6.04629084398, 
			 "electric_quadrupole_moment_norm": 13.9869316553, 
			 "total_energy": -1169.23970733, 
			 "HOMO_LUMO_gap": 0.15942, 
			 "cosmo_polarized_energy": -15.62, 
			 "cosmo_cavitation_energy": 35.31, 
			 "cosmo_dispersion_energy": -25.54, 
			 "cosmo_repulsion_energy": 1.98, 
			 "cosmo_total_nonelectrostatic_energy": 11.75, 
			 "SMD_solvation_energy": 6.26 
		},
		"coords": [
			{
				"x": 1.1319251173,
				"y": -0.810546476,
				"z": -4.3332430053,
				"element": "C" 
			},
			{
				"x": -0.2084397065,
				"y": -0.1905625518,
				"z": -3.9476301292,
				"element": "C" 
			},
			{
				"x": -1.4817675749,
				"y": -1.4916822194,
				"z": -3.6976291669,
				"element": "Cl" 
			},
			{
				"x": -0.1229243788,
				"y": 0.7898083221,
				"z": -2.759306681,
				"element": "C" 
			},
			{
				"x": -0.2677321918,
				"y": 1.9729260745,
				"z": -3.0376666995,
				"element": "O" 
			},
			{
				"x": 0.2028035259,
				"y": 0.3561698621,
				"z": -1.3736470323,
				"element": "C" 
			},
			{
				"x": 0.3727723108,
				"y": -0.9869088954,
				"z": -0.9777606973,
				"element": "C" 
			},
			{
				"x": 0.6906800157,
				"y": -1.2744389054,
				"z": 0.3379491043,
				"element": "C" 
			},
			{
				"x": 0.8433094134,
				"y": -0.24473516,
				"z": 1.2809175916,
				"element": "C" 
			},
			{
				"x": 0.6875145073,
				"y": 1.0976587877,
				"z": 0.9132273629,
				"element": "C" 
			},
			{
				"x": 0.3666320204,
				"y": 1.3717320491,
				"z": -0.4122847328,
				"element": "C" 
			},
			{
				"x": 1.1431684539,
				"y": -0.7890723674,
				"z": 2.5438188475,
				"element": "N" 
			},
			{
				"x": 1.0476700581,
				"y": -2.2681679093,
				"z": 2.4949062369,
				"element": "C" 
			},
			{
				"x": 0.9533297887,
				"y": -2.6136124596,
				"z": 0.9889353167,
				"element": "C" 
			},
			{
				"x": 1.384538913,
				"y": -0.060923013,
				"z": 3.6982775704,
				"element": "C" 
			},
			{
				"x": 1.6345977015,
				"y": -0.8754754843,
				"z": 4.9566428124,
				"element": "C" 
			},
			{
				"x": 1.4045585782,
				"y": 1.162210957,
				"z": 3.7074688234,
				"element": "O" 
			},
			{
				"x": 1.5401407049,
				"y": -1.4405976208,
				"z": -3.5407696382,
				"element": "H" 
			},
			{
				"x": 1.024648264,
				"y": -1.4113615102,
				"z": -5.2396515608,
				"element": "H" 
			},
			{
				"x": 1.8471538344,
				"y": -0.0052897958,
				"z": -4.5349186898,
				"element": "H" 
			},
			{
				"x": -0.5981560338,
				"y": 0.4072589333,
				"z": -4.7706101105,
				"element": "H" 
			},
			{
				"x": 0.2347210144,
				"y": -1.7964037229,
				"z": -1.6841612927,
				"element": "H" 
			},
			{
				"x": 0.8130693759,
				"y": 1.8825425572,
				"z": 1.6444113312,
				"element": "H" 
			},
			{
				"x": 0.233085119,
				"y": 2.398000681,
				"z": -0.7365031215,
				"element": "H" 
			},
			{
				"x": 1.9175127671,
				"y": -2.7254150334,
				"z": 2.9717596028,
				"element": "H" 
			},
			{
				"x": 0.1533066815,
				"y": -2.5999791391,
				"z": 3.0356017494,
				"element": "H" 
			},
			{
				"x": 0.1630930062,
				"y": -3.3443272646,
				"z": 0.7931659127,
				"element": "H" 
			},
			{
				"x": 1.8918904418,
				"y": -3.0491573731,
				"z": 0.6256091109,
				"element": "H" 
			},
			{
				"x": 2.544712726,
				"y": -1.4788084988,
				"z": 4.8678068039,
				"element": "H" 
			},
			{
				"x": 1.7522125716,
				"y": -0.1761576051,
				"z": 5.7836522126,
				"element": "H" 
			},
			{
				"x": 0.8057729748,
				"y": -1.5573852187,
				"z": 5.1740321681,
				"element": "H" 
			}
		],
		 "valence_orbital": [ 
			{
				"type": "occ",
				"energy": -0.29678,
				"method": "rhf"
			},
			{
				"type": "occ",
				"energy": -0.26057,
				"method": "rhf"
			},
			{
				"type": "occ",
				"energy": -0.25795,
				"method": "rhf"
			},
			{
				"type": "occ",
				"energy": -0.25111,
				"method": "rhf"
			},
			{
				"type": "occ",
				"energy": -0.2223,
				"method": "rhf"
			},
			{
				"type": "unocc",
				"energy": -0.06288,
				"method": "rhf"
			},
			{
				"type": "unocc",
				"energy": -0.01365,
				"method": "rhf"
			},
			{
				"type": "unocc",
				"energy": -0.00032,
				"method": "rhf"
			},
			{
				"type": "unocc",
				"energy": 0.02458,
				"method": "rhf"
			},
			{
				"type": "unocc",
				"energy": 0.06323,
				"method": "rhf"
			}
		],
		"cosmo_sigma_profile": { 
			"-0.025": 0.0,
			"-0.024": 0.0,
			"-0.023": 0.0,
			"-0.022": 0.0,
			"-0.021": 0.0,
			"-0.02": 0.0,
			"-0.019": 0.0,
			"-0.018": 0.0,
			"-0.017": 0.0,
			"-0.016": 0.0,
			"-0.015": 0.0,
			"-0.014": 0.0,
			"-0.013": 0.0,
			"-0.012": 0.0,
			"-0.011": 0.0,
			"-0.01": 0.0,
			"-0.009": 0.0,
			"-0.008": 0.53392787894,
			"-0.007": 6.81972666938,
			"-0.006": 17.6582001087,
			"-0.005": 30.0947423014,
			"-0.004": 28.4912092063,
			"-0.003": 24.6016887162,
			"-0.002": 24.5483121193,
			"-0.001": 21.1457519485,
			"0.0": 14.3387881126,
			"0.001": 13.5375892462,
			"0.002": 18.3416014687,
			"0.003": 20.2633932148,
			"0.004": 15.1090874455,
			"0.005": 9.06487334926,
			"0.006": 8.73234595282,
			"0.007": 3.39492334701,
			"0.008": 3.63065654123,
			"0.009": 2.99948349309,
			"0.01": 3.72083358831,
			"0.011": 6.01193236674,
			"0.012": 5.02419249931,
			"0.013": 2.5853530411,
			"0.014": 1.33641226027,
			"0.015": 0.0406952653147,
			"0.016": 0.0,
			"0.017": 0.0,
			"0.018": 0.0,
			"0.019": 0.0,
			"0.02": 0.0,
			"0.021": 0.0,
			"0.022": 0.0,
			"0.023": 0.0,
			"0.024": 0.0,
			"0.025": 0.0
		}
	}
}
