{
	 "smiles": "C[C@]12CCC3C(CC[C@@H](CC(O)=O)[C@]3(C)CC(O)=O)C1CCC2=O", 
	 "Tm": 497.15, 
	 "num_atms": 52, 
	 "gaussian": { 
		 "optdone": 1, 
		 "sigma_profile": "yes", 
		 "theory": "DFT", 
		 "functional": "B3LYP", 
		 "basiset": "6-31G**", 
		 "properties": { 
			 "R2extent": 8471.2586, 
			 "electric_dipole_moment_norm": 4.79116526432, 
			 "electric_quadrupole_moment_norm": 17.941457302, 
			 "total_energy": -1117.05606057, 
			 "HOMO_LUMO_gap": 0.21748, 
			 "cosmo_polarized_energy": -20.31, 
			 "cosmo_cavitation_energy": 47.07, 
			 "cosmo_dispersion_energy": -31.58, 
			 "cosmo_repulsion_energy": 2.34, 
			 "cosmo_total_nonelectrostatic_energy": 17.83, 
			 "SMD_solvation_energy": 9.17 
		},
		"coords": [
			{
				"x": 2.4529068838,
				"y": 2.4747463831,
				"z": 1.3464427301,
				"element": "C" 
			},
			{
				"x": 0.9374864802,
				"y": 2.7383017153,
				"z": 1.2223348182,
				"element": "C" 
			},
			{
				"x": 0.140350185,
				"y": 1.8879341533,
				"z": 2.2282623898,
				"element": "C" 
			},
			{
				"x": 0.2524533487,
				"y": 0.3811899092,
				"z": 1.9275797613,
				"element": "C" 
			},
			{
				"x": 0.2182350807,
				"y": 0.0412412199,
				"z": 0.4054496015,
				"element": "C" 
			},
			{
				"x": -0.4289004397,
				"y": 1.1935914435,
				"z": -0.4100120319,
				"element": "C" 
			},
			{
				"x": -0.5476585005,
				"y": 0.8650639766,
				"z": -1.9300635388,
				"element": "C" 
			},
			{
				"x": 0.0464996004,
				"y": -0.4983163996,
				"z": -2.2979808553,
				"element": "C" 
			},
			{
				"x": -0.6243007426,
				"y": -1.5810397113,
				"z": -1.4387048346,
				"element": "C" 
			},
			{
				"x": -0.4651098179,
				"y": -3.0101540058,
				"z": -2.0030631662,
				"element": "C" 
			},
			{
				"x": 0.9360327708,
				"y": -3.5291177522,
				"z": -2.2558768288,
				"element": "C" 
			},
			{
				"x": 0.9685682549,
				"y": -4.8847334128,
				"z": -2.1961631329,
				"element": "O" 
			},
			{
				"x": 1.9227859256,
				"y": -2.8781398804,
				"z": -2.52719208,
				"element": "O" 
			},
			{
				"x": -0.3025997045,
				"y": -1.4182801488,
				"z": 0.099881171,
				"element": "C" 
			},
			{
				"x": 0.8121265887,
				"y": -2.3847030114,
				"z": 0.5668011567,
				"element": "C" 
			},
			{
				"x": -1.5808032314,
				"y": -1.8432968467,
				"z": 0.9071404044,
				"element": "C" 
			},
			{
				"x": -2.784895784,
				"y": -0.9312729993,
				"z": 0.8246465031,
				"element": "C" 
			},
			{
				"x": -3.6681964113,
				"y": -1.322793374,
				"z": -0.1308851254,
				"element": "O" 
			},
			{
				"x": -2.9916692737,
				"y": 0.0432453901,
				"z": 1.5183498148,
				"element": "O" 
			},
			{
				"x": 0.3757408408,
				"y": 2.5072067288,
				"z": -0.2150929406,
				"element": "C" 
			},
			{
				"x": -0.4749804005,
				"y": 3.7684450275,
				"z": -0.539817523,
				"element": "C" 
			},
			{
				"x": 0.1727328408,
				"y": 4.9147946685,
				"z": 0.2447216572,
				"element": "C" 
			},
			{
				"x": 0.7131273064,
				"y": 4.238939548,
				"z": 1.5013619033,
				"element": "C" 
			},
			{
				"x": 0.9459214341,
				"y": 4.783494096,
				"z": 2.5601976006,
				"element": "O" 
			},
			{
				"x": 2.7977132238,
				"y": 2.7463224583,
				"z": 2.3488559213,
				"element": "H" 
			},
			{
				"x": 3.0181716899,
				"y": 3.0722257311,
				"z": 0.6221250631,
				"element": "H" 
			},
			{
				"x": 2.6985814404,
				"y": 1.4242898514,
				"z": 1.1669771335,
				"element": "H" 
			},
			{
				"x": -0.9162013985,
				"y": 2.1781890079,
				"z": 2.1884306368,
				"element": "H" 
			},
			{
				"x": 0.4801623235,
				"y": 2.1041242241,
				"z": 3.2463703448,
				"element": "H" 
			},
			{
				"x": 1.1772173751,
				"y": -0.0119444632,
				"z": 2.3633685843,
				"element": "H" 
			},
			{
				"x": -0.5709767403,
				"y": -0.1049869033,
				"z": 2.4531991725,
				"element": "H" 
			},
			{
				"x": 1.2627905582,
				"y": 0.0138153151,
				"z": 0.0680861341,
				"element": "H" 
			},
			{
				"x": -1.4338547999,
				"y": 1.3656297229,
				"z": -0.0108538272,
				"element": "H" 
			},
			{
				"x": -1.603704283,
				"y": 0.87242426,
				"z": -2.2295503681,
				"element": "H" 
			},
			{
				"x": -0.062876423,
				"y": 1.6494447733,
				"z": -2.5229279135,
				"element": "H" 
			},
			{
				"x": -0.1383811562,
				"y": -0.705734989,
				"z": -3.3591819826,
				"element": "H" 
			},
			{
				"x": 1.1326482436,
				"y": -0.5131565563,
				"z": -2.1767715338,
				"element": "H" 
			},
			{
				"x": -1.6995255242,
				"y": -1.3914968177,
				"z": -1.5426963265,
				"element": "H" 
			},
			{
				"x": -0.9591496193,
				"y": -3.0377272579,
				"z": -2.984740328,
				"element": "H" 
			},
			{
				"x": -0.9976099338,
				"y": -3.7464511549,
				"z": -1.3938367963,
				"element": "H" 
			},
			{
				"x": 1.8800091211,
				"y": -5.1404947139,
				"z": -2.4187701507,
				"element": "H" 
			},
			{
				"x": 0.5234392827,
				"y": -3.4348036773,
				"z": 0.4534866616,
				"element": "H" 
			},
			{
				"x": 1.0352512676,
				"y": -2.2281794594,
				"z": 1.626271881,
				"element": "H" 
			},
			{
				"x": 1.7336119892,
				"y": -2.2228104332,
				"z": 0.0024918727,
				"element": "H" 
			},
			{
				"x": -1.3331975857,
				"y": -1.9328195075,
				"z": 1.9669785848,
				"element": "H" 
			},
			{
				"x": -1.8814070402,
				"y": -2.8356546783,
				"z": 0.5580520563,
				"element": "H" 
			},
			{
				"x": -4.394076412,
				"y": -0.6754409733,
				"z": -0.1061543443,
				"element": "H" 
			},
			{
				"x": 1.2288261753,
				"y": 2.4795163189,
				"z": -0.9084622546,
				"element": "H" 
			},
			{
				"x": -1.5006550394,
				"y": 3.6167755894,
				"z": -0.1802687785,
				"element": "H" 
			},
			{
				"x": -0.5393528235,
				"y": 3.9631806193,
				"z": -1.6142938747,
				"element": "H" 
			},
			{
				"x": -0.4865080732,
				"y": 5.7507749724,
				"z": 0.4912126686,
				"element": "H" 
			},
			{
				"x": 1.0352009272,
				"y": 5.3278420234,
				"z": -0.2986156912,
				"element": "H" 
			}
		],
		 "valence_orbital": [ 
			{
				"type": "occ",
				"energy": -0.28688,
				"method": "rhf"
			},
			{
				"type": "occ",
				"energy": -0.28209,
				"method": "rhf"
			},
			{
				"type": "occ",
				"energy": -0.27661,
				"method": "rhf"
			},
			{
				"type": "occ",
				"energy": -0.27164,
				"method": "rhf"
			},
			{
				"type": "occ",
				"energy": -0.2268,
				"method": "rhf"
			},
			{
				"type": "unocc",
				"energy": -0.00932,
				"method": "rhf"
			},
			{
				"type": "unocc",
				"energy": -0.00546,
				"method": "rhf"
			},
			{
				"type": "unocc",
				"energy": 0.00338,
				"method": "rhf"
			},
			{
				"type": "unocc",
				"energy": 0.06129,
				"method": "rhf"
			},
			{
				"type": "unocc",
				"energy": 0.07057,
				"method": "rhf"
			}
		],
		"cosmo_sigma_profile": { 
			"-0.025": 0.0,
			"-0.024": 0.0,
			"-0.023": 0.0,
			"-0.022": 0.0,
			"-0.021": 0.0,
			"-0.02": 0.0,
			"-0.019": 0.0,
			"-0.018": 0.920410498137,
			"-0.017": 1.64575556035,
			"-0.016": 2.16325987166,
			"-0.015": 1.3209019682,
			"-0.014": 1.67048202366,
			"-0.013": 1.09273914182,
			"-0.012": 1.16085268936,
			"-0.011": 1.56602133421,
			"-0.01": 1.5951827712,
			"-0.009": 0.861409478946,
			"-0.008": 1.03309476772,
			"-0.007": 3.18857388054,
			"-0.006": 8.65986966706,
			"-0.005": 15.9882030948,
			"-0.004": 20.8442671157,
			"-0.003": 36.5464301753,
			"-0.002": 55.3581987008,
			"-0.001": 44.6236689301,
			"0.0": 36.7335942452,
			"0.001": 30.3958724196,
			"0.002": 11.4180670357,
			"0.003": 8.71596253895,
			"0.004": 8.38694169371,
			"0.005": 8.27549271945,
			"0.006": 7.46109924798,
			"0.007": 7.05279256097,
			"0.008": 7.6760278127,
			"0.009": 7.46463389971,
			"0.01": 6.3442909276,
			"0.011": 7.81407226159,
			"0.012": 10.6195175904,
			"0.013": 3.41352295709,
			"0.014": 0.443115372961,
			"0.015": 0.0,
			"0.016": 0.0,
			"0.017": 0.0,
			"0.018": 0.0,
			"0.019": 0.0,
			"0.02": 0.0,
			"0.021": 0.0,
			"0.022": 0.0,
			"0.023": 0.0,
			"0.024": 0.0,
			"0.025": 0.0
		}
	}
}
