{
	 "smiles": "ClC1=CC2=C(NC(=O)C2=O)C=C1", 
	 "Tm": 519.15, 
	 "num_atms": 16, 
	 "gaussian": { 
		 "optdone": 1, 
		 "sigma_profile": "yes", 
		 "theory": "DFT", 
		 "functional": "B3LYP", 
		 "basiset": "6-31G**", 
		 "properties": { 
			 "R2extent": 3451.2457, 
			 "electric_dipole_moment_norm": 5.16603813478, 
			 "electric_quadrupole_moment_norm": 21.5278212439, 
			 "total_energy": -972.651296394, 
			 "HOMO_LUMO_gap": 0.13577, 
			 "cosmo_polarized_energy": -15.45, 
			 "cosmo_cavitation_energy": 23.55, 
			 "cosmo_dispersion_energy": -17.55, 
			 "cosmo_repulsion_energy": 1.39, 
			 "cosmo_total_nonelectrostatic_energy": 7.39, 
			 "SMD_solvation_energy": 5.11 
		},
		"coords": [
			{
				"x": 1.4513234802,
				"y": 1.0675957511,
				"z": 2.4264400426,
				"element": "Cl" 
			},
			{
				"x": 0.2830261442,
				"y": 0.9296540576,
				"z": 1.123736886,
				"element": "C" 
			},
			{
				"x": 0.1996633865,
				"y": 1.9367953214,
				"z": 0.1615646671,
				"element": "C" 
			},
			{
				"x": -0.7401636636,
				"y": 1.7861498017,
				"z": -0.8525518221,
				"element": "C" 
			},
			{
				"x": -1.5818288516,
				"y": 0.6581121508,
				"z": -0.911847286,
				"element": "C" 
			},
			{
				"x": -2.4337123547,
				"y": 0.7441740857,
				"z": -2.0213441727,
				"element": "N" 
			},
			{
				"x": -2.22231061,
				"y": 1.9032824522,
				"z": -2.7551144002,
				"element": "C" 
			},
			{
				"x": -2.8025713945,
				"y": 2.2500977343,
				"z": -3.7572837702,
				"element": "O" 
			},
			{
				"x": -1.070375071,
				"y": 2.6554089786,
				"z": -1.9972944892,
				"element": "C" 
			},
			{
				"x": -0.6026455364,
				"y": 3.7184411472,
				"z": -2.3369651204,
				"element": "O" 
			},
			{
				"x": -1.4964646153,
				"y": -0.3433983963,
				"z": 0.0479659071,
				"element": "C" 
			},
			{
				"x": -0.5509587099,
				"y": -0.193125129,
				"z": 1.0692510233,
				"element": "C" 
			},
			{
				"x": 0.8413903518,
				"y": 2.8105027159,
				"z": 0.1951214758,
				"element": "H" 
			},
			{
				"x": -3.1270767861,
				"y": 0.0560282007,
				"z": -2.2763075109,
				"element": "H" 
			},
			{
				"x": -2.1365630254,
				"y": -1.2192115862,
				"z": 0.0181620301,
				"element": "H" 
			},
			{
				"x": -0.4598327443,
				"y": -0.9575072858,
				"z": 1.8333665397,
				"element": "H" 
			}
		],
		 "valence_orbital": [ 
			{
				"type": "occ",
				"energy": -0.31885,
				"method": "rhf"
			},
			{
				"type": "occ",
				"energy": -0.31732,
				"method": "rhf"
			},
			{
				"type": "occ",
				"energy": -0.29248,
				"method": "rhf"
			},
			{
				"type": "occ",
				"energy": -0.25598,
				"method": "rhf"
			},
			{
				"type": "occ",
				"energy": -0.24349,
				"method": "rhf"
			},
			{
				"type": "unocc",
				"energy": -0.10772,
				"method": "rhf"
			},
			{
				"type": "unocc",
				"energy": -0.03573,
				"method": "rhf"
			},
			{
				"type": "unocc",
				"energy": -0.00569,
				"method": "rhf"
			},
			{
				"type": "unocc",
				"energy": 0.01459,
				"method": "rhf"
			},
			{
				"type": "unocc",
				"energy": 0.06736,
				"method": "rhf"
			}
		],
		"cosmo_sigma_profile": { 
			"-0.025": 0.0,
			"-0.024": 0.0,
			"-0.023": 0.0,
			"-0.022": 0.0,
			"-0.021": 0.0,
			"-0.02": 0.0,
			"-0.019": 0.0,
			"-0.018": 0.0,
			"-0.017": 0.68582055383,
			"-0.016": 1.72937180207,
			"-0.015": 1.33961305149,
			"-0.014": 1.45279714022,
			"-0.013": 1.08360291614,
			"-0.012": 0.791575701651,
			"-0.011": 1.24802233901,
			"-0.01": 1.80607237177,
			"-0.009": 2.47551701909,
			"-0.008": 8.09918096115,
			"-0.007": 8.00695393714,
			"-0.006": 7.52118498723,
			"-0.005": 7.16926520076,
			"-0.004": 7.59000773104,
			"-0.003": 8.97387427927,
			"-0.002": 12.5147107064,
			"-0.001": 14.7207978892,
			"0.0": 18.0698936886,
			"0.001": 18.9152489948,
			"0.002": 9.42324135536,
			"0.003": 8.07064111437,
			"0.004": 11.656087809,
			"0.005": 5.24399909047,
			"0.006": 2.94149646866,
			"0.007": 3.47996596878,
			"0.008": 3.58878165224,
			"0.009": 5.16464780925,
			"0.01": 8.86901365872,
			"0.011": 7.68303274992,
			"0.012": 2.34583928109,
			"0.013": 0.024116929291,
			"0.014": 0.0,
			"0.015": 0.0,
			"0.016": 0.0,
			"0.017": 0.0,
			"0.018": 0.0,
			"0.019": 0.0,
			"0.02": 0.0,
			"0.021": 0.0,
			"0.022": 0.0,
			"0.023": 0.0,
			"0.024": 0.0,
			"0.025": 0.0
		}
	}
}
