{
	 "smiles": "NC1=C(OCC(F)(F)F)C=CC=C1", 
	 "Tm": 323.15, 
	 "num_atms": 21, 
	 "gaussian": { 
		 "optdone": 1, 
		 "sigma_profile": "yes", 
		 "theory": "DFT", 
		 "functional": "B3LYP", 
		 "basiset": "6-31G**", 
		 "properties": { 
			 "R2extent": 3821.7248, 
			 "electric_dipole_moment_norm": 2.94219067023, 
			 "electric_quadrupole_moment_norm": 10.1508748687, 
			 "total_energy": -739.163185414, 
			 "HOMO_LUMO_gap": 0.20252, 
			 "cosmo_polarized_energy": -9.51, 
			 "cosmo_cavitation_energy": 26.1, 
			 "cosmo_dispersion_energy": -18.83, 
			 "cosmo_repulsion_energy": 1.45, 
			 "cosmo_total_nonelectrostatic_energy": 8.72, 
			 "SMD_solvation_energy": 5.75 
		},
		"coords": [
			{
				"x": 2.2507034608,
				"y": -0.5606054373,
				"z": -0.4714780837,
				"element": "N" 
			},
			{
				"x": 0.9424269218,
				"y": -0.0895085228,
				"z": -0.4078709074,
				"element": "C" 
			},
			{
				"x": 0.3385379938,
				"y": 0.1356473691,
				"z": 0.8493523845,
				"element": "C" 
			},
			{
				"x": 1.1795404129,
				"y": -0.0871834432,
				"z": 1.9341141246,
				"element": "O" 
			},
			{
				"x": 0.977535683,
				"y": 0.6357321894,
				"z": 3.1267974887,
				"element": "C" 
			},
			{
				"x": 0.3170093601,
				"y": -0.2126980498,
				"z": 4.2059391211,
				"element": "C" 
			},
			{
				"x": 1.0236424512,
				"y": -1.3257576201,
				"z": 4.4620701553,
				"element": "F" 
			},
			{
				"x": 0.2426868153,
				"y": 0.5092393464,
				"z": 5.3472852426,
				"element": "F" 
			},
			{
				"x": -0.9358665801,
				"y": -0.5893855178,
				"z": 3.8770709025,
				"element": "F" 
			},
			{
				"x": -0.989914623,
				"y": 0.5368932025,
				"z": 0.9467055512,
				"element": "C" 
			},
			{
				"x": -1.7416795571,
				"y": 0.7532763172,
				"z": -0.2135398633,
				"element": "C" 
			},
			{
				"x": -1.1564621527,
				"y": 0.5510569147,
				"z": -1.4613201321,
				"element": "C" 
			},
			{
				"x": 0.1695946564,
				"y": 0.1276223878,
				"z": -1.5563042031,
				"element": "C" 
			},
			{
				"x": 2.7561101925,
				"y": -0.3207976378,
				"z": -1.3122620151,
				"element": "H" 
			},
			{
				"x": 2.784456462,
				"y": -0.4162029846,
				"z": 0.3740327083,
				"element": "H" 
			},
			{
				"x": 1.9595572626,
				"y": 0.9273514095,
				"z": 3.5131398597,
				"element": "H" 
			},
			{
				"x": 0.377088994,
				"y": 1.5379130599,
				"z": 2.9718948873,
				"element": "H" 
			},
			{
				"x": -1.4500823192,
				"y": 0.6556847345,
				"z": 1.9201393018,
				"element": "H" 
			},
			{
				"x": -2.7774403371,
				"y": 1.0663579965,
				"z": -0.1309293678,
				"element": "H" 
			},
			{
				"x": -1.7308144661,
				"y": 0.7148190534,
				"z": -2.3683071762,
				"element": "H" 
			},
			{
				"x": 0.6226693691,
				"y": -0.0387547672,
				"z": -2.530529979,
				"element": "H" 
			}
		],
		 "valence_orbital": [ 
			{
				"type": "occ",
				"energy": -0.34278,
				"method": "rhf"
			},
			{
				"type": "occ",
				"energy": -0.32082,
				"method": "rhf"
			},
			{
				"type": "occ",
				"energy": -0.30596,
				"method": "rhf"
			},
			{
				"type": "occ",
				"energy": -0.23482,
				"method": "rhf"
			},
			{
				"type": "occ",
				"energy": -0.19612,
				"method": "rhf"
			},
			{
				"type": "unocc",
				"energy": 0.0064,
				"method": "rhf"
			},
			{
				"type": "unocc",
				"energy": 0.01935,
				"method": "rhf"
			},
			{
				"type": "unocc",
				"energy": 0.07353,
				"method": "rhf"
			},
			{
				"type": "unocc",
				"energy": 0.09382,
				"method": "rhf"
			},
			{
				"type": "unocc",
				"energy": 0.10184,
				"method": "rhf"
			}
		],
		"cosmo_sigma_profile": { 
			"-0.025": 0.0,
			"-0.024": 0.0,
			"-0.023": 0.0,
			"-0.022": 0.0,
			"-0.021": 0.0,
			"-0.02": 0.0,
			"-0.019": 0.0,
			"-0.018": 0.0,
			"-0.017": 0.0,
			"-0.016": 0.0,
			"-0.015": 0.0,
			"-0.014": 0.0,
			"-0.013": 0.192200981329,
			"-0.012": 1.30541534841,
			"-0.011": 1.9030045268,
			"-0.01": 1.50021796648,
			"-0.009": 5.37432865825,
			"-0.008": 7.49549464995,
			"-0.007": 7.01335081538,
			"-0.006": 7.83186940729,
			"-0.005": 11.0788595624,
			"-0.004": 10.4243215744,
			"-0.003": 11.295509784,
			"-0.002": 10.0118856179,
			"-0.001": 9.56881088812,
			"0.0": 11.1573357803,
			"0.001": 12.7147542402,
			"0.002": 27.867678578,
			"0.003": 28.1883523952,
			"0.004": 9.17128742397,
			"0.005": 9.96184727941,
			"0.006": 10.4488101613,
			"0.007": 7.79809279426,
			"0.008": 1.53679417754,
			"0.009": 0.558857397196,
			"0.01": 0.677380883399,
			"0.011": 0.780536425383,
			"0.012": 0.791418228657,
			"0.013": 0.522973791492,
			"0.014": 0.647832351631,
			"0.015": 0.125322211243,
			"0.016": 0.0,
			"0.017": 0.0,
			"0.018": 0.0,
			"0.019": 0.0,
			"0.02": 0.0,
			"0.021": 0.0,
			"0.022": 0.0,
			"0.023": 0.0,
			"0.024": 0.0,
			"0.025": 0.0
		}
	}
}
