{
	 "smiles": "ClS(=O)(=O)C1=C2COC(=O)C2=CC=C1", 
	 "Tm": 398.15, 
	 "num_atms": 19, 
	 "gaussian": { 
		 "optdone": 1, 
		 "sigma_profile": "yes", 
		 "theory": "DFT", 
		 "functional": "B3LYP", 
		 "basiset": "6-31G**", 
		 "properties": { 
			 "R2extent": 4193.9169, 
			 "electric_dipole_moment_norm": 3.240447986, 
			 "electric_quadrupole_moment_norm": 23.7104098995, 
			 "total_energy": -1467.07502592, 
			 "HOMO_LUMO_gap": 0.18425, 
			 "cosmo_polarized_energy": -13.99, 
			 "cosmo_cavitation_energy": 27.3, 
			 "cosmo_dispersion_energy": -20.51, 
			 "cosmo_repulsion_energy": 1.55, 
			 "cosmo_total_nonelectrostatic_energy": 8.35, 
			 "SMD_solvation_energy": 4.31 
		},
		"coords": [
			{
				"x": 0.8482669344,
				"y": -1.2549337976,
				"z": -4.1444675161,
				"element": "Cl" 
			},
			{
				"x": -0.7637932126,
				"y": -0.6194473325,
				"z": -2.9050984051,
				"element": "S" 
			},
			{
				"x": -0.712018822,
				"y": 0.8383465879,
				"z": -2.8941359526,
				"element": "O" 
			},
			{
				"x": -1.9396577174,
				"y": -1.3588601879,
				"z": -3.3414528868,
				"element": "O" 
			},
			{
				"x": -0.2342784914,
				"y": -1.2233912546,
				"z": -1.3101360422,
				"element": "C" 
			},
			{
				"x": 0.6188502642,
				"y": -0.4642552072,
				"z": -0.5107359565,
				"element": "C" 
			},
			{
				"x": 1.2758350485,
				"y": 0.882596371,
				"z": -0.6741686181,
				"element": "C" 
			},
			{
				"x": 2.0427127679,
				"y": 1.0628048432,
				"z": 0.5297487212,
				"element": "O" 
			},
			{
				"x": 1.9028801726,
				"y": -0.0020689359,
				"z": 1.3834175257,
				"element": "C" 
			},
			{
				"x": 2.4462535879,
				"y": -0.0701490717,
				"z": 2.4550516517,
				"element": "O" 
			},
			{
				"x": 0.9954427785,
				"y": -0.9777150182,
				"z": 0.7247812961,
				"element": "C" 
			},
			{
				"x": 0.551939898,
				"y": -2.2127601122,
				"z": 1.1921755554,
				"element": "C" 
			},
			{
				"x": -0.3066136163,
				"y": -2.9558547192,
				"z": 0.3806930061,
				"element": "C" 
			},
			{
				"x": -0.6991534621,
				"y": -2.4670858573,
				"z": -0.8707831672,
				"element": "C" 
			},
			{
				"x": 1.9501238606,
				"y": 0.9288040991,
				"z": -1.535516869,
				"element": "H" 
			},
			{
				"x": 0.5494082731,
				"y": 1.6949478994,
				"z": -0.7635465699,
				"element": "H" 
			},
			{
				"x": 0.8740033556,
				"y": -2.5725131012,
				"z": 2.1642182532,
				"element": "H" 
			},
			{
				"x": -0.6770211333,
				"y": -3.9196838047,
				"z": 0.7137266252,
				"element": "H" 
			},
			{
				"x": -1.3689804862,
				"y": -3.0378814003,
				"z": -1.5045706511,
				"element": "H" 
			}
		],
		 "valence_orbital": [ 
			{
				"type": "occ",
				"energy": -0.32972,
				"method": "rhf"
			},
			{
				"type": "occ",
				"energy": -0.32126,
				"method": "rhf"
			},
			{
				"type": "occ",
				"energy": -0.30893,
				"method": "rhf"
			},
			{
				"type": "occ",
				"energy": -0.29902,
				"method": "rhf"
			},
			{
				"type": "occ",
				"energy": -0.29189,
				"method": "rhf"
			},
			{
				"type": "unocc",
				"energy": -0.10764,
				"method": "rhf"
			},
			{
				"type": "unocc",
				"energy": -0.07811,
				"method": "rhf"
			},
			{
				"type": "unocc",
				"energy": -0.06202,
				"method": "rhf"
			},
			{
				"type": "unocc",
				"energy": 0.01342,
				"method": "rhf"
			},
			{
				"type": "unocc",
				"energy": 0.047,
				"method": "rhf"
			}
		],
		"cosmo_sigma_profile": { 
			"-0.025": 0.0,
			"-0.024": 0.0,
			"-0.023": 0.0,
			"-0.022": 0.0,
			"-0.021": 0.0,
			"-0.02": 0.0,
			"-0.019": 0.0,
			"-0.018": 0.0,
			"-0.017": 0.0,
			"-0.016": 0.0,
			"-0.015": 0.0,
			"-0.014": 0.0,
			"-0.013": 0.0,
			"-0.012": 0.0,
			"-0.011": 0.0,
			"-0.01": 0.112878711017,
			"-0.009": 4.07290760819,
			"-0.008": 11.8612667126,
			"-0.007": 14.0847475963,
			"-0.006": 13.1242945643,
			"-0.005": 10.3228081318,
			"-0.004": 13.0051778543,
			"-0.003": 13.0496834391,
			"-0.002": 16.804723283,
			"-0.001": 17.8000209481,
			"0.0": 14.9764567889,
			"0.001": 10.0210668714,
			"0.002": 12.5947627671,
			"0.003": 15.3579720984,
			"0.004": 6.88060943808,
			"0.005": 4.62404752987,
			"0.006": 6.09014918661,
			"0.007": 8.94822694858,
			"0.008": 11.5984176183,
			"0.009": 5.64205649575,
			"0.01": 3.5996374095,
			"0.011": 6.01110324716,
			"0.012": 2.11188162363,
			"0.013": 0.104866044962,
			"0.014": 0.0,
			"0.015": 0.0,
			"0.016": 0.0,
			"0.017": 0.0,
			"0.018": 0.0,
			"0.019": 0.0,
			"0.02": 0.0,
			"0.021": 0.0,
			"0.022": 0.0,
			"0.023": 0.0,
			"0.024": 0.0,
			"0.025": 0.0
		}
	}
}
