{
	 "smiles": "COC(=O)C1=C(N)C2=C(S1)C1=C(SC2)C=CC(Cl)=C1", 
	 "Tm": 393.15, 
	 "num_atms": 29, 
	 "gaussian": { 
		 "optdone": 1, 
		 "sigma_profile": "yes", 
		 "theory": "DFT", 
		 "functional": "B3LYP", 
		 "basiset": "6-31G**", 
		 "properties": { 
			 "R2extent": 8610.1762, 
			 "electric_dipole_moment_norm": 1.89727022061, 
			 "electric_quadrupole_moment_norm": 14.8142661587, 
			 "total_energy": -1963.19681907, 
			 "HOMO_LUMO_gap": 0.13805, 
			 "cosmo_polarized_energy": -13.01, 
			 "cosmo_cavitation_energy": 37.44, 
			 "cosmo_dispersion_energy": -28.82, 
			 "cosmo_repulsion_energy": 2.12, 
			 "cosmo_total_nonelectrostatic_energy": 10.73, 
			 "SMD_solvation_energy": 6.09 
		},
		"coords": [
			{
				"x": 2.8585733213,
				"y": -4.1041810567,
				"z": 1.6640569175,
				"element": "C" 
			},
			{
				"x": 2.2520233412,
				"y": -2.9940519551,
				"z": 0.9870923117,
				"element": "O" 
			},
			{
				"x": 2.9371072925,
				"y": -1.8275153683,
				"z": 1.0480462732,
				"element": "C" 
			},
			{
				"x": 4.0095843967,
				"y": -1.715222121,
				"z": 1.6385538538,
				"element": "O" 
			},
			{
				"x": 2.2689874,
				"y": -0.746752401,
				"z": 0.3577838333,
				"element": "C" 
			},
			{
				"x": 2.7467645159,
				"y": 0.5633880117,
				"z": 0.2906464314,
				"element": "C" 
			},
			{
				"x": 3.9672944587,
				"y": 0.9525463538,
				"z": 0.7759681059,
				"element": "N" 
			},
			{
				"x": 1.8373017173,
				"y": 1.4294051578,
				"z": -0.4030988724,
				"element": "C" 
			},
			{
				"x": 0.7125559252,
				"y": 0.7728519848,
				"z": -0.8565132071,
				"element": "C" 
			},
			{
				"x": 0.7159148673,
				"y": -0.916277583,
				"z": -0.4336073902,
				"element": "S" 
			},
			{
				"x": -0.3802381039,
				"y": 1.3987441216,
				"z": -1.5983890138,
				"element": "C" 
			},
			{
				"x": -0.5414966478,
				"y": 2.8060942197,
				"z": -1.5695102216,
				"element": "C" 
			},
			{
				"x": 0.5357385181,
				"y": 3.8609963494,
				"z": -0.624612376,
				"element": "S" 
			},
			{
				"x": 2.0864931173,
				"y": 2.8794161461,
				"z": -0.7059430678,
				"element": "C" 
			},
			{
				"x": -1.6179012678,
				"y": 3.3953142001,
				"z": -2.2413482971,
				"element": "C" 
			},
			{
				"x": -2.5374721476,
				"y": 2.6220753544,
				"z": -2.9456233355,
				"element": "C" 
			},
			{
				"x": -2.3602941223,
				"y": 1.2391038823,
				"z": -2.9916281425,
				"element": "C" 
			},
			{
				"x": -3.4917276632,
				"y": 0.2504864587,
				"z": -3.9014102768,
				"element": "Cl" 
			},
			{
				"x": -1.2962594526,
				"y": 0.6304640695,
				"z": -2.3376308799,
				"element": "C" 
			},
			{
				"x": 2.185398955,
				"y": -4.9465426484,
				"z": 1.5054810772,
				"element": "H" 
			},
			{
				"x": 2.9647566283,
				"y": -3.8950039113,
				"z": 2.7316355228,
				"element": "H" 
			},
			{
				"x": 3.8458450449,
				"y": -4.318593094,
				"z": 1.2470592157,
				"element": "H" 
			},
			{
				"x": 4.4206911864,
				"y": 0.2614012501,
				"z": 1.3653651693,
				"element": "H" 
			},
			{
				"x": 4.0894679211,
				"y": 1.9200151216,
				"z": 1.0326375465,
				"element": "H" 
			},
			{
				"x": 2.5514558342,
				"y": 3.0139870725,
				"z": -1.6897011422,
				"element": "H" 
			},
			{
				"x": 2.7447730468,
				"y": 3.3461163962,
				"z": 0.0326847525,
				"element": "H" 
			},
			{
				"x": -1.7335554389,
				"y": 4.4746113219,
				"z": -2.2193530361,
				"element": "H" 
			},
			{
				"x": -3.3683556236,
				"y": 3.0858057664,
				"z": -3.4649887492,
				"element": "H" 
			},
			{
				"x": -1.1715270207,
				"y": -0.4449830998,
				"z": -2.4035530027,
				"element": "H" 
			}
		],
		 "valence_orbital": [ 
			{
				"type": "occ",
				"energy": -0.28162,
				"method": "rhf"
			},
			{
				"type": "occ",
				"energy": -0.27789,
				"method": "rhf"
			},
			{
				"type": "occ",
				"energy": -0.24061,
				"method": "rhf"
			},
			{
				"type": "occ",
				"energy": -0.22255,
				"method": "rhf"
			},
			{
				"type": "occ",
				"energy": -0.20783,
				"method": "rhf"
			},
			{
				"type": "unocc",
				"energy": -0.06978,
				"method": "rhf"
			},
			{
				"type": "unocc",
				"energy": -0.02465,
				"method": "rhf"
			},
			{
				"type": "unocc",
				"energy": -0.0076,
				"method": "rhf"
			},
			{
				"type": "unocc",
				"energy": 0.01543,
				"method": "rhf"
			},
			{
				"type": "unocc",
				"energy": 0.02517,
				"method": "rhf"
			}
		],
		"cosmo_sigma_profile": { 
			"-0.025": 0.0,
			"-0.024": 0.0,
			"-0.023": 0.0,
			"-0.022": 0.0,
			"-0.021": 0.0,
			"-0.02": 0.0,
			"-0.019": 0.0,
			"-0.018": 0.0,
			"-0.017": 0.0,
			"-0.016": 0.0,
			"-0.015": 0.254955883105,
			"-0.014": 1.44959818402,
			"-0.013": 2.03092300789,
			"-0.012": 1.21332494699,
			"-0.011": 1.50723914901,
			"-0.01": 1.74880064192,
			"-0.009": 3.41179202177,
			"-0.008": 4.36753529459,
			"-0.007": 9.39544222625,
			"-0.006": 14.8879043895,
			"-0.005": 16.0279612431,
			"-0.004": 18.6395735479,
			"-0.003": 16.9532790095,
			"-0.002": 17.0549607143,
			"-0.001": 17.3595894398,
			"0.0": 19.1762907739,
			"0.001": 30.3788081205,
			"0.002": 38.0208432008,
			"0.003": 29.0758281804,
			"0.004": 23.9459683083,
			"0.005": 13.9176875463,
			"0.006": 6.58635427245,
			"0.007": 5.04645629572,
			"0.008": 4.03214529222,
			"0.009": 2.38294557659,
			"0.01": 2.55204286528,
			"0.011": 1.95902532055,
			"0.012": 2.47683489449,
			"0.013": 0.541795808883,
			"0.014": 0.0,
			"0.015": 0.0,
			"0.016": 0.0,
			"0.017": 0.0,
			"0.018": 0.0,
			"0.019": 0.0,
			"0.02": 0.0,
			"0.021": 0.0,
			"0.022": 0.0,
			"0.023": 0.0,
			"0.024": 0.0,
			"0.025": 0.0
		}
	}
}
