{
	 "smiles": "COC1=C(CNC2=NC(=CS2)C2=CC=C(C)C=C2)C=CC=C1", 
	 "Tm": 370.15, 
	 "num_atms": 40, 
	 "gaussian": { 
		 "optdone": 1, 
		 "sigma_profile": "yes", 
		 "theory": "DFT", 
		 "functional": "B3LYP", 
		 "basiset": "6-31G**", 
		 "properties": { 
			 "R2extent": 11993.9906, 
			 "electric_dipole_moment_norm": 2.62749339676, 
			 "electric_quadrupole_moment_norm": 19.7917224245, 
			 "total_energy": -1279.67585381, 
			 "HOMO_LUMO_gap": 0.16761, 
			 "cosmo_polarized_energy": -14.11, 
			 "cosmo_cavitation_energy": 45.4, 
			 "cosmo_dispersion_energy": -32.52, 
			 "cosmo_repulsion_energy": 2.45, 
			 "cosmo_total_nonelectrostatic_energy": 15.33, 
			 "SMD_solvation_energy": 6.43 
		},
		"coords": [
			{
				"x": 4.2754024214,
				"y": -0.6952373972,
				"z": 4.5269872878,
				"element": "C" 
			},
			{
				"x": 2.8979879543,
				"y": -0.4507348599,
				"z": 4.2932816737,
				"element": "O" 
			},
			{
				"x": 2.0333078044,
				"y": -1.5130120875,
				"z": 4.3139512301,
				"element": "C" 
			},
			{
				"x": 0.6808923565,
				"y": -1.1868788849,
				"z": 4.0769793208,
				"element": "C" 
			},
			{
				"x": 0.3185681528,
				"y": 0.2704630917,
				"z": 3.8329527102,
				"element": "C" 
			},
			{
				"x": -1.1051133673,
				"y": 0.5681013118,
				"z": 3.8625722268,
				"element": "N" 
			},
			{
				"x": -1.868160372,
				"y": 0.5864955521,
				"z": 2.7286281406,
				"element": "C" 
			},
			{
				"x": -1.4063669722,
				"y": 0.5019346464,
				"z": 1.5162149987,
				"element": "N" 
			},
			{
				"x": -2.4222548891,
				"y": 0.6097189832,
				"z": 0.5741524527,
				"element": "C" 
			},
			{
				"x": -3.6794079885,
				"y": 0.7689707674,
				"z": 1.0900710905,
				"element": "C" 
			},
			{
				"x": -3.6288260176,
				"y": 0.8061755894,
				"z": 2.8363259537,
				"element": "S" 
			},
			{
				"x": -2.072005893,
				"y": 0.5293167103,
				"z": -0.8567685717,
				"element": "C" 
			},
			{
				"x": -3.0115676405,
				"y": 0.7831304589,
				"z": -1.8707113242,
				"element": "C" 
			},
			{
				"x": -2.6587281495,
				"y": 0.6874663159,
				"z": -3.2124880566,
				"element": "C" 
			},
			{
				"x": -1.3553147355,
				"y": 0.3420121895,
				"z": -3.6000990958,
				"element": "C" 
			},
			{
				"x": -0.9718096027,
				"y": 0.2706756969,
				"z": -5.0590609229,
				"element": "C" 
			},
			{
				"x": -0.4208414536,
				"y": 0.0926313713,
				"z": -2.5881052306,
				"element": "C" 
			},
			{
				"x": -0.7670173412,
				"y": 0.1852261957,
				"z": -1.2415267833,
				"element": "C" 
			},
			{
				"x": -0.2575125641,
				"y": -2.2158373871,
				"z": 4.0737403837,
				"element": "C" 
			},
			{
				"x": 0.1166791027,
				"y": -3.5442323115,
				"z": 4.3042580179,
				"element": "C" 
			},
			{
				"x": 1.4529542503,
				"y": -3.8479402993,
				"z": 4.5419596996,
				"element": "C" 
			},
			{
				"x": 2.4181372162,
				"y": -2.8354766503,
				"z": 4.5483080788,
				"element": "C" 
			},
			{
				"x": 4.4473394156,
				"y": -1.1262087804,
				"z": 5.5217386195,
				"element": "H" 
			},
			{
				"x": 4.7011575513,
				"y": -1.3644110177,
				"z": 3.768505445,
				"element": "H" 
			},
			{
				"x": 4.7690202214,
				"y": 0.2759863199,
				"z": 4.4662093068,
				"element": "H" 
			},
			{
				"x": 0.819731075,
				"y": 0.8967691032,
				"z": 4.5787490288,
				"element": "H" 
			},
			{
				"x": 0.6914827955,
				"y": 0.5927797676,
				"z": 2.857084768,
				"element": "H" 
			},
			{
				"x": -1.5859565053,
				"y": 0.4504042964,
				"z": 4.7413669768,
				"element": "H" 
			},
			{
				"x": -4.6252921653,
				"y": 0.8441563309,
				"z": 0.5762160616,
				"element": "H" 
			},
			{
				"x": -4.0279195311,
				"y": 1.0656579182,
				"z": -1.6121654769,
				"element": "H" 
			},
			{
				"x": -3.4075267615,
				"y": 0.8882088479,
				"z": -3.9753866291,
				"element": "H" 
			},
			{
				"x": -0.7594917582,
				"y": 1.2681193952,
				"z": -5.4649945706,
				"element": "H" 
			},
			{
				"x": -0.0754046527,
				"y": -0.3386751294,
				"z": -5.2073845608,
				"element": "H" 
			},
			{
				"x": -1.7764525682,
				"y": -0.1581883172,
				"z": -5.6653767336,
				"element": "H" 
			},
			{
				"x": 0.5966443618,
				"y": -0.1812382794,
				"z": -2.857671992,
				"element": "H" 
			},
			{
				"x": -0.0330934407,
				"y": -0.0128965327,
				"z": -0.4687176799,
				"element": "H" 
			},
			{
				"x": -1.2989008377,
				"y": -1.9756316429,
				"z": 3.88370838,
				"element": "H" 
			},
			{
				"x": -0.6332559374,
				"y": -4.3290357675,
				"z": 4.2941105687,
				"element": "H" 
			},
			{
				"x": 1.7591247745,
				"y": -4.8743008466,
				"z": 4.7229880609,
				"element": "H" 
			},
			{
				"x": 3.4560916912,
				"y": -3.0858646683,
				"z": 4.732997146,
				"element": "H" 
			}
		],
		 "valence_orbital": [ 
			{
				"type": "occ",
				"energy": -0.24643,
				"method": "rhf"
			},
			{
				"type": "occ",
				"energy": -0.23915,
				"method": "rhf"
			},
			{
				"type": "occ",
				"energy": -0.22977,
				"method": "rhf"
			},
			{
				"type": "occ",
				"energy": -0.21777,
				"method": "rhf"
			},
			{
				"type": "occ",
				"energy": -0.18722,
				"method": "rhf"
			},
			{
				"type": "unocc",
				"energy": -0.01961,
				"method": "rhf"
			},
			{
				"type": "unocc",
				"energy": 0.00137,
				"method": "rhf"
			},
			{
				"type": "unocc",
				"energy": 0.00846,
				"method": "rhf"
			},
			{
				"type": "unocc",
				"energy": 0.01218,
				"method": "rhf"
			},
			{
				"type": "unocc",
				"energy": 0.01349,
				"method": "rhf"
			}
		],
		"cosmo_sigma_profile": { 
			"-0.025": 0.0,
			"-0.024": 0.0,
			"-0.023": 0.0,
			"-0.022": 0.0,
			"-0.021": 0.0,
			"-0.02": 0.0,
			"-0.019": 0.0,
			"-0.018": 0.0,
			"-0.017": 0.0,
			"-0.016": 0.0,
			"-0.015": 0.58584086236,
			"-0.014": 1.20158188816,
			"-0.013": 1.42238154619,
			"-0.012": 1.49920701327,
			"-0.011": 0.958519847176,
			"-0.01": 0.86472305326,
			"-0.009": 2.01362061925,
			"-0.008": 3.86604479523,
			"-0.007": 4.13969521003,
			"-0.006": 11.2669012565,
			"-0.005": 23.8708935865,
			"-0.004": 32.6291754512,
			"-0.003": 35.2393697718,
			"-0.002": 27.0140615959,
			"-0.001": 23.8880266875,
			"0.0": 25.3027802249,
			"0.001": 22.0549785699,
			"0.002": 23.4521680823,
			"0.003": 25.1866192323,
			"0.004": 32.3970234493,
			"0.005": 29.1637705375,
			"0.006": 23.0593493071,
			"0.007": 7.20478386632,
			"0.008": 3.16933568428,
			"0.009": 1.70707371014,
			"0.01": 0.747014681194,
			"0.011": 0.17827506562,
			"0.012": 0.0,
			"0.013": 0.0,
			"0.014": 0.0,
			"0.015": 0.0,
			"0.016": 0.0,
			"0.017": 0.0,
			"0.018": 0.0,
			"0.019": 0.0,
			"0.02": 0.0,
			"0.021": 0.0,
			"0.022": 0.0,
			"0.023": 0.0,
			"0.024": 0.0,
			"0.025": 0.0
		}
	}
}
