{
	 "smiles": "OC1=CC2=C(C[C@@H]3C4CCCC[C@]24CCN3CC2CC2)C=C1", 
	 "Tm": 461.15, 
	 "num_atms": 49, 
	 "gaussian": { 
		 "optdone": 1, 
		 "sigma_profile": "yes", 
		 "theory": "DFT", 
		 "functional": "B3LYP", 
		 "basiset": "6-31G**", 
		 "properties": { 
			 "R2extent": 7632.7836, 
			 "electric_dipole_moment_norm": 1.52634191779, 
			 "electric_quadrupole_moment_norm": 8.98487654228, 
			 "total_energy": -908.35980296, 
			 "HOMO_LUMO_gap": 0.19759, 
			 "cosmo_polarized_energy": -10.11, 
			 "cosmo_cavitation_energy": 44.27, 
			 "cosmo_dispersion_energy": -31.28, 
			 "cosmo_repulsion_energy": 2.37, 
			 "cosmo_total_nonelectrostatic_energy": 15.35, 
			 "SMD_solvation_energy": 4.2 
		},
		"coords": [
			{
				"x": -2.7121424799,
				"y": -2.8998188207,
				"z": 3.3049567167,
				"element": "O" 
			},
			{
				"x": -2.1387876385,
				"y": -2.4859019318,
				"z": 2.1319171496,
				"element": "C" 
			},
			{
				"x": -1.6300987539,
				"y": -1.1872090821,
				"z": 2.0902169321,
				"element": "C" 
			},
			{
				"x": -1.0220981647,
				"y": -0.6762087571,
				"z": 0.9359506376,
				"element": "C" 
			},
			{
				"x": -0.941194343,
				"y": -1.4961539953,
				"z": -0.2107812102,
				"element": "C" 
			},
			{
				"x": -0.2909630086,
				"y": -1.0248003411,
				"z": -1.5002780571,
				"element": "C" 
			},
			{
				"x": 0.0389637574,
				"y": 0.4869910661,
				"z": -1.5434380961,
				"element": "C" 
			},
			{
				"x": 0.5835744175,
				"y": 0.9401179099,
				"z": -0.1801777894,
				"element": "C" 
			},
			{
				"x": 1.8925671696,
				"y": 0.2437708075,
				"z": 0.2338371421,
				"element": "C" 
			},
			{
				"x": 2.3931140967,
				"y": 0.7586412034,
				"z": 1.5917484969,
				"element": "C" 
			},
			{
				"x": 1.3106082441,
				"y": 0.6143160279,
				"z": 2.6718210056,
				"element": "C" 
			},
			{
				"x": 0.0061779646,
				"y": 1.2989380325,
				"z": 2.2387022061,
				"element": "C" 
			},
			{
				"x": -0.5364306363,
				"y": 0.7827027478,
				"z": 0.8843694352,
				"element": "C" 
			},
			{
				"x": -1.7217289655,
				"y": 1.6780614792,
				"z": 0.4295304184,
				"element": "C" 
			},
			{
				"x": -2.1922350353,
				"y": 1.3695752076,
				"z": -0.9944046217,
				"element": "C" 
			},
			{
				"x": -1.0691409228,
				"y": 1.3792622084,
				"z": -1.9346119663,
				"element": "N" 
			},
			{
				"x": -1.4841468365,
				"y": 1.2195169881,
				"z": -3.3283437785,
				"element": "C" 
			},
			{
				"x": -2.2811310185,
				"y": 2.394159365,
				"z": -3.8678803942,
				"element": "C" 
			},
			{
				"x": -1.5865517616,
				"y": 3.7005396741,
				"z": -4.1502843858,
				"element": "C" 
			},
			{
				"x": -2.0666811019,
				"y": 2.8421057215,
				"z": -5.2955453456,
				"element": "C" 
			},
			{
				"x": -1.4568905506,
				"y": -2.7966425073,
				"z": -0.1498283212,
				"element": "C" 
			},
			{
				"x": -2.0511393348,
				"y": -3.3030381688,
				"z": 1.0022105795,
				"element": "C" 
			},
			{
				"x": -3.0216296114,
				"y": -3.8083780134,
				"z": 3.1981905605,
				"element": "H" 
			},
			{
				"x": -1.7254715199,
				"y": -0.5876190104,
				"z": 2.9880997343,
				"element": "H" 
			},
			{
				"x": 0.6434975798,
				"y": -1.5833799624,
				"z": -1.6509290715,
				"element": "H" 
			},
			{
				"x": -0.9263241149,
				"y": -1.2922386473,
				"z": -2.3532464737,
				"element": "H" 
			},
			{
				"x": 0.8210919745,
				"y": 0.6358589466,
				"z": -2.299738583,
				"element": "H" 
			},
			{
				"x": 0.7913846054,
				"y": 2.0156656404,
				"z": -0.2673476214,
				"element": "H" 
			},
			{
				"x": 2.6545215524,
				"y": 0.4090012557,
				"z": -0.5393776338,
				"element": "H" 
			},
			{
				"x": 1.7429137798,
				"y": -0.8406883466,
				"z": 0.3010331396,
				"element": "H" 
			},
			{
				"x": 2.6713250575,
				"y": 1.8181529352,
				"z": 1.4980378146,
				"element": "H" 
			},
			{
				"x": 3.3026300005,
				"y": 0.2222889125,
				"z": 1.8880040191,
				"element": "H" 
			},
			{
				"x": 1.1226234675,
				"y": -0.4498995818,
				"z": 2.8621946402,
				"element": "H" 
			},
			{
				"x": 1.6590424712,
				"y": 1.0452471719,
				"z": 3.6182975916,
				"element": "H" 
			},
			{
				"x": -0.7544770942,
				"y": 1.2155285374,
				"z": 3.0228673597,
				"element": "H" 
			},
			{
				"x": 0.1952128366,
				"y": 2.3752600111,
				"z": 2.1237543257,
				"element": "H" 
			},
			{
				"x": -1.3962604236,
				"y": 2.7251120121,
				"z": 0.4725124315,
				"element": "H" 
			},
			{
				"x": -2.563351275,
				"y": 1.5661981217,
				"z": 1.1236422219,
				"element": "H" 
			},
			{
				"x": -2.9035588423,
				"y": 2.1429425207,
				"z": -1.302085968,
				"element": "H" 
			},
			{
				"x": -2.7433374545,
				"y": 0.4107452117,
				"z": -1.0137469043,
				"element": "H" 
			},
			{
				"x": -2.0705455715,
				"y": 0.2935637594,
				"z": -3.4935009869,
				"element": "H" 
			},
			{
				"x": -0.5710915077,
				"y": 1.1169820585,
				"z": -3.9284941315,
				"element": "H" 
			},
			{
				"x": -3.3059489113,
				"y": 2.4640283135,
				"z": -3.5101591586,
				"element": "H" 
			},
			{
				"x": -2.1147701309,
				"y": 4.6260087934,
				"z": -3.941196908,
				"element": "H" 
			},
			{
				"x": -0.5190162617,
				"y": 3.7460533429,
				"z": -3.9554869101,
				"element": "H" 
			},
			{
				"x": -2.9282457439,
				"y": 3.1748994889,
				"z": -5.8668782487,
				"element": "H" 
			},
			{
				"x": -1.3219387656,
				"y": 2.3166987673,
				"z": -5.8877891338,
				"element": "H" 
			},
			{
				"x": -1.3931071386,
				"y": -3.4300011622,
				"z": -1.0320926289,
				"element": "H" 
			},
			{
				"x": -2.4448140554,
				"y": -4.3173559114,
				"z": 1.0211497697,
				"element": "H" 
			}
		],
		 "valence_orbital": [ 
			{
				"type": "occ",
				"energy": -0.27944,
				"method": "rhf"
			},
			{
				"type": "occ",
				"energy": -0.27192,
				"method": "rhf"
			},
			{
				"type": "occ",
				"energy": -0.23703,
				"method": "rhf"
			},
			{
				"type": "occ",
				"energy": -0.21026,
				"method": "rhf"
			},
			{
				"type": "occ",
				"energy": -0.19571,
				"method": "rhf"
			},
			{
				"type": "unocc",
				"energy": 0.00188,
				"method": "rhf"
			},
			{
				"type": "unocc",
				"energy": 0.01887,
				"method": "rhf"
			},
			{
				"type": "unocc",
				"energy": 0.07526,
				"method": "rhf"
			},
			{
				"type": "unocc",
				"energy": 0.08215,
				"method": "rhf"
			},
			{
				"type": "unocc",
				"energy": 0.09351,
				"method": "rhf"
			}
		],
		"cosmo_sigma_profile": { 
			"-0.025": 0.0,
			"-0.024": 0.0,
			"-0.023": 0.0,
			"-0.022": 0.0,
			"-0.021": 0.0,
			"-0.02": 0.0,
			"-0.019": 0.0,
			"-0.018": 0.126023100619,
			"-0.017": 0.719628467973,
			"-0.016": 1.0419308395,
			"-0.015": 1.45528119284,
			"-0.014": 1.02866544913,
			"-0.013": 0.419161216142,
			"-0.012": 0.703631846221,
			"-0.011": 0.76174247596,
			"-0.01": 1.44299920419,
			"-0.009": 1.37147457436,
			"-0.008": 0.96446701033,
			"-0.007": 1.12752911868,
			"-0.006": 2.21711692304,
			"-0.005": 4.89346187892,
			"-0.004": 15.303207035,
			"-0.003": 30.0761671507,
			"-0.002": 48.3038733407,
			"-0.001": 53.4086402815,
			"0.0": 53.1981502895,
			"0.001": 38.1928086907,
			"0.002": 17.3080459196,
			"0.003": 13.1269350152,
			"0.004": 12.3297673601,
			"0.005": 13.2735544482,
			"0.006": 10.4890475979,
			"0.007": 5.22208652278,
			"0.008": 2.86579999561,
			"0.009": 2.1644223302,
			"0.01": 2.00618189505,
			"0.011": 2.6111670523,
			"0.012": 2.76765000061,
			"0.013": 0.59703108509,
			"0.014": 0.723400713436,
			"0.015": 0.0900002300647,
			"0.016": 0.0,
			"0.017": 0.0,
			"0.018": 0.0,
			"0.019": 0.0,
			"0.02": 0.0,
			"0.021": 0.0,
			"0.022": 0.0,
			"0.023": 0.0,
			"0.024": 0.0,
			"0.025": 0.0
		}
	}
}
