{
	 "smiles": "CCCCCC1C(CC(=O)OC)CCC1=O", 
	 "Tm": 263.15, 
	 "num_atms": 38, 
	 "gaussian": { 
		 "optdone": 1, 
		 "sigma_profile": "yes", 
		 "theory": "DFT", 
		 "functional": "B3LYP", 
		 "basiset": "6-31G**", 
		 "properties": { 
			 "R2extent": 4126.4041, 
			 "electric_dipole_moment_norm": 2.09758749281, 
			 "electric_quadrupole_moment_norm": 10.3835641184, 
			 "total_energy": -734.341043259, 
			 "HOMO_LUMO_gap": 0.21314, 
			 "cosmo_polarized_energy": -10.59, 
			 "cosmo_cavitation_energy": 37.76, 
			 "cosmo_dispersion_energy": -25.05, 
			 "cosmo_repulsion_energy": 1.96, 
			 "cosmo_total_nonelectrostatic_energy": 14.68, 
			 "SMD_solvation_energy": 7.13 
		},
		"coords": [
			{
				"x": 0.8658150545,
				"y": -1.6239062137,
				"z": -3.2443665796,
				"element": "C" 
			},
			{
				"x": 1.9263815048,
				"y": -0.5498144764,
				"z": -2.9726184415,
				"element": "C" 
			},
			{
				"x": 2.9272128196,
				"y": -0.9162322447,
				"z": -1.8613632901,
				"element": "C" 
			},
			{
				"x": 2.3089889272,
				"y": -1.2207785171,
				"z": -0.4865257132,
				"element": "C" 
			},
			{
				"x": 1.5716582893,
				"y": -0.0320620948,
				"z": 0.1506645224,
				"element": "C" 
			},
			{
				"x": 0.8955864473,
				"y": -0.3928582441,
				"z": 1.477382013,
				"element": "C" 
			},
			{
				"x": 0.4876501131,
				"y": 0.7454144432,
				"z": 2.450951849,
				"element": "C" 
			},
			{
				"x": -0.166959059,
				"y": 1.9868666244,
				"z": 1.7819323572,
				"element": "C" 
			},
			{
				"x": -1.5195788015,
				"y": 1.7303437777,
				"z": 1.1465901862,
				"element": "C" 
			},
			{
				"x": -2.5731887338,
				"y": 1.6892750188,
				"z": 1.7495581003,
				"element": "O" 
			},
			{
				"x": -1.4161598886,
				"y": 1.5221440861,
				"z": -0.1841164249,
				"element": "O" 
			},
			{
				"x": -2.6325989066,
				"y": 1.1503903386,
				"z": -0.8590427304,
				"element": "C" 
			},
			{
				"x": -0.4445563792,
				"y": 0.0244702393,
				"z": 3.4683141921,
				"element": "C" 
			},
			{
				"x": -1.1774320178,
				"y": -1.073118728,
				"z": 2.667232083,
				"element": "C" 
			},
			{
				"x": -0.3838713303,
				"y": -1.2300974146,
				"z": 1.3662569121,
				"element": "C" 
			},
			{
				"x": -0.7392361062,
				"y": -1.8810464048,
				"z": 0.4038588811,
				"element": "O" 
			},
			{
				"x": 0.2127010064,
				"y": -1.777722632,
				"z": -2.3796133564,
				"element": "H" 
			},
			{
				"x": 0.2333223937,
				"y": -1.3433850248,
				"z": -4.0935841212,
				"element": "H" 
			},
			{
				"x": 1.3320561809,
				"y": -2.5870442263,
				"z": -3.48463307,
				"element": "H" 
			},
			{
				"x": 1.4286793529,
				"y": 0.3974289238,
				"z": -2.7278251112,
				"element": "H" 
			},
			{
				"x": 2.4927164796,
				"y": -0.3576367874,
				"z": -3.8931950518,
				"element": "H" 
			},
			{
				"x": 3.6564111739,
				"y": -0.1001692087,
				"z": -1.7575950307,
				"element": "H" 
			},
			{
				"x": 3.5013298035,
				"y": -1.7958574051,
				"z": -2.1834753941,
				"element": "H" 
			},
			{
				"x": 3.1097187353,
				"y": -1.544956152,
				"z": 0.1932865329,
				"element": "H" 
			},
			{
				"x": 1.6157902097,
				"y": -2.063371977,
				"z": -0.5689634654,
				"element": "H" 
			},
			{
				"x": 2.2880921466,
				"y": 0.7841244443,
				"z": 0.322023845,
				"element": "H" 
			},
			{
				"x": 0.8131106173,
				"y": 0.3557338275,
				"z": -0.535200935,
				"element": "H" 
			},
			{
				"x": 1.5835381048,
				"y": -1.0342001441,
				"z": 2.0571704395,
				"element": "H" 
			},
			{
				"x": 1.3784799595,
				"y": 1.1284146699,
				"z": 2.960330219,
				"element": "H" 
			},
			{
				"x": -0.3272756265,
				"y": 2.7402941656,
				"z": 2.55890272,
				"element": "H" 
			},
			{
				"x": 0.5124274006,
				"y": 2.4021115203,
				"z": 1.0332827807,
				"element": "H" 
			},
			{
				"x": -2.9220311256,
				"y": 0.1364570113,
				"z": -0.5711068022,
				"element": "H" 
			},
			{
				"x": -2.4005497923,
				"y": 1.1866139388,
				"z": -1.9229749271,
				"element": "H" 
			},
			{
				"x": -3.4376976459,
				"y": 1.8444065964,
				"z": -0.6105056586,
				"element": "H" 
			},
			{
				"x": -1.1410136446,
				"y": 0.7169896656,
				"z": 3.9467350801,
				"element": "H" 
			},
			{
				"x": 0.1698399846,
				"y": -0.423831254,
				"z": 4.2564483657,
				"element": "H" 
			},
			{
				"x": -2.2050637415,
				"y": -0.7952031177,
				"z": 2.418179017,
				"element": "H" 
			},
			{
				"x": -1.2249939058,
				"y": -2.0372870242,
				"z": 3.1852060072,
				"element": "H" 
			}
		],
		 "valence_orbital": [ 
			{
				"type": "occ",
				"energy": -0.3074,
				"method": "rhf"
			},
			{
				"type": "occ",
				"energy": -0.30335,
				"method": "rhf"
			},
			{
				"type": "occ",
				"energy": -0.30153,
				"method": "rhf"
			},
			{
				"type": "occ",
				"energy": -0.27256,
				"method": "rhf"
			},
			{
				"type": "occ",
				"energy": -0.23701,
				"method": "rhf"
			},
			{
				"type": "unocc",
				"energy": -0.02387,
				"method": "rhf"
			},
			{
				"type": "unocc",
				"energy": 0.01028,
				"method": "rhf"
			},
			{
				"type": "unocc",
				"energy": 0.07625,
				"method": "rhf"
			},
			{
				"type": "unocc",
				"energy": 0.091,
				"method": "rhf"
			},
			{
				"type": "unocc",
				"energy": 0.10191,
				"method": "rhf"
			}
		],
		"cosmo_sigma_profile": { 
			"-0.025": 0.0,
			"-0.024": 0.0,
			"-0.023": 0.0,
			"-0.022": 0.0,
			"-0.021": 0.0,
			"-0.02": 0.0,
			"-0.019": 0.0,
			"-0.018": 0.0,
			"-0.017": 0.0,
			"-0.016": 0.0,
			"-0.015": 0.0,
			"-0.014": 0.0,
			"-0.013": 0.0,
			"-0.012": 0.0,
			"-0.011": 0.0,
			"-0.01": 0.0,
			"-0.009": 0.0,
			"-0.008": 0.0,
			"-0.007": 0.543909711145,
			"-0.006": 7.00789673352,
			"-0.005": 16.3631842787,
			"-0.004": 25.7116504724,
			"-0.003": 35.1825612613,
			"-0.002": 32.7988217374,
			"-0.001": 33.2184708357,
			"0.0": 36.9635825869,
			"0.001": 33.9382818142,
			"0.002": 18.443989127,
			"0.003": 7.18356568826,
			"0.004": 6.78814115841,
			"0.005": 6.8500479234,
			"0.006": 5.91224971413,
			"0.007": 4.57843344211,
			"0.008": 3.17796615099,
			"0.009": 2.82152435838,
			"0.01": 3.37175441009,
			"0.011": 4.02623896607,
			"0.012": 5.40565082838,
			"0.013": 1.65848263299,
			"0.014": 0.0876435845311,
			"0.015": 0.0,
			"0.016": 0.0,
			"0.017": 0.0,
			"0.018": 0.0,
			"0.019": 0.0,
			"0.02": 0.0,
			"0.021": 0.0,
			"0.022": 0.0,
			"0.023": 0.0,
			"0.024": 0.0,
			"0.025": 0.0
		}
	}
}
