{
	 "smiles": "OC1=CC=C(Cl)C2=C1CCC2", 
	 "Tm": 365.15, 
	 "num_atms": 20, 
	 "gaussian": { 
		 "optdone": 1, 
		 "sigma_profile": "yes", 
		 "theory": "DFT", 
		 "functional": "B3LYP", 
		 "basiset": "6-31G**", 
		 "properties": { 
			 "R2extent": 2872.2822, 
			 "electric_dipole_moment_norm": 2.86082425535, 
			 "electric_quadrupole_moment_norm": 8.91305620312, 
			 "total_energy": -883.806585184, 
			 "HOMO_LUMO_gap": 0.21196, 
			 "cosmo_polarized_energy": -7.95, 
			 "cosmo_cavitation_energy": 24.29, 
			 "cosmo_dispersion_energy": -18.49, 
			 "cosmo_repulsion_energy": 1.49, 
			 "cosmo_total_nonelectrostatic_energy": 7.29, 
			 "SMD_solvation_energy": 3.43 
		},
		"coords": [
			{
				"x": 1.5550250852,
				"y": -0.2602915462,
				"z": -1.4741192131,
				"element": "O" 
			},
			{
				"x": 1.2550256343,
				"y": -0.3772961386,
				"z": -0.1450135541,
				"element": "C" 
			},
			{
				"x": 1.6393273747,
				"y": -1.5550241784,
				"z": 0.5084433703,
				"element": "C" 
			},
			{
				"x": 1.3691800184,
				"y": -1.7274377101,
				"z": 1.8642405185,
				"element": "C" 
			},
			{
				"x": 0.7096030898,
				"y": -0.7244591201,
				"z": 2.5797704962,
				"element": "C" 
			},
			{
				"x": 0.3821099446,
				"y": -0.9517304232,
				"z": 4.2971404713,
				"element": "Cl" 
			},
			{
				"x": 0.3112721202,
				"y": 0.444020039,
				"z": 1.9385878161,
				"element": "C" 
			},
			{
				"x": 0.5851746889,
				"y": 0.614252609,
				"z": 0.5745112936,
				"element": "C" 
			},
			{
				"x": 0.0910402709,
				"y": 1.9637298628,
				"z": 0.0929124024,
				"element": "C" 
			},
			{
				"x": -0.8783975542,
				"y": 2.4005236993,
				"z": 1.2224049735,
				"element": "C" 
			},
			{
				"x": -0.393682646,
				"y": 1.6600561698,
				"z": 2.4940674305,
				"element": "C" 
			},
			{
				"x": 1.2339795197,
				"y": 0.5912476527,
				"z": -1.7970484052,
				"element": "H" 
			},
			{
				"x": 2.1494250308,
				"y": -2.3267663773,
				"z": -0.0582083401,
				"element": "H" 
			},
			{
				"x": 1.6681010343,
				"y": -2.6400767564,
				"z": 2.3681320582,
				"element": "H" 
			},
			{
				"x": -0.4114131234,
				"y": 1.9257540221,
				"z": -0.8827061038,
				"element": "H" 
			},
			{
				"x": 0.926865833,
				"y": 2.6716803896,
				"z": -0.0071242904,
				"element": "H" 
			},
			{
				"x": -1.8907800659,
				"y": 2.0648016289,
				"z": 0.9739968854,
				"element": "H" 
			},
			{
				"x": -0.914742212,
				"y": 3.4856858533,
				"z": 1.3498642328,
				"element": "H" 
			},
			{
				"x": 0.312887152,
				"y": 2.2728864434,
				"z": 3.0707775012,
				"element": "H" 
			},
			{
				"x": -1.2111011956,
				"y": 1.4032438805,
				"z": 3.1742704567,
				"element": "H" 
			}
		],
		 "valence_orbital": [ 
			{
				"type": "occ",
				"energy": -0.34352,
				"method": "rhf"
			},
			{
				"type": "occ",
				"energy": -0.30468,
				"method": "rhf"
			},
			{
				"type": "occ",
				"energy": -0.303,
				"method": "rhf"
			},
			{
				"type": "occ",
				"energy": -0.24407,
				"method": "rhf"
			},
			{
				"type": "occ",
				"energy": -0.21685,
				"method": "rhf"
			},
			{
				"type": "unocc",
				"energy": -0.00489,
				"method": "rhf"
			},
			{
				"type": "unocc",
				"energy": 0.00407,
				"method": "rhf"
			},
			{
				"type": "unocc",
				"energy": 0.03877,
				"method": "rhf"
			},
			{
				"type": "unocc",
				"energy": 0.05822,
				"method": "rhf"
			},
			{
				"type": "unocc",
				"energy": 0.09497,
				"method": "rhf"
			}
		],
		"cosmo_sigma_profile": { 
			"-0.025": 0.0,
			"-0.024": 0.0,
			"-0.023": 0.0,
			"-0.022": 0.0,
			"-0.021": 0.0,
			"-0.02": 0.0,
			"-0.019": 0.0,
			"-0.018": 0.0,
			"-0.017": 0.11536644437,
			"-0.016": 0.845728324204,
			"-0.015": 0.807020903926,
			"-0.014": 0.73523630511,
			"-0.013": 1.26774137709,
			"-0.012": 1.22402272894,
			"-0.011": 0.875849233521,
			"-0.01": 1.02471674025,
			"-0.009": 1.53389271951,
			"-0.008": 1.14310275522,
			"-0.007": 2.06886977831,
			"-0.006": 4.47507229122,
			"-0.005": 5.77143527711,
			"-0.004": 13.6147349077,
			"-0.003": 16.7918212167,
			"-0.002": 20.80737961,
			"-0.001": 16.6550261463,
			"0.0": 17.4764001573,
			"0.001": 11.0122188136,
			"0.002": 12.8396617412,
			"0.003": 15.8723577495,
			"0.004": 19.2895295487,
			"0.005": 15.914238664,
			"0.006": 3.6208110046,
			"0.007": 1.79360208003,
			"0.008": 1.47260815019,
			"0.009": 1.13783049138,
			"0.01": 1.98234078323,
			"0.011": 1.84214448394,
			"0.012": 0.461673603834,
			"0.013": 0.0,
			"0.014": 0.0,
			"0.015": 0.0,
			"0.016": 0.0,
			"0.017": 0.0,
			"0.018": 0.0,
			"0.019": 0.0,
			"0.02": 0.0,
			"0.021": 0.0,
			"0.022": 0.0,
			"0.023": 0.0,
			"0.024": 0.0,
			"0.025": 0.0
		}
	}
}
