{
	 "smiles": "CC(=N/CCC1=NC=CC=C1)C1=C(O)C2=CC=CC=C2N(C2=CC=CC=C2)C1=O", 
	 "Tm": 493.15, 
	 "num_atms": 50, 
	 "gaussian": { 
		 "optdone": 1, 
		 "sigma_profile": "yes", 
		 "theory": "DFT", 
		 "functional": "B3LYP", 
		 "basiset": "6-31G**", 
		 "properties": { 
			 "R2extent": 13388.741, 
			 "electric_dipole_moment_norm": 6.8255130276, 
			 "electric_quadrupole_moment_norm": 20.8615211368, 
			 "total_energy": -1241.91292545, 
			 "HOMO_LUMO_gap": 0.16684, 
			 "cosmo_polarized_energy": -23.67, 
			 "cosmo_cavitation_energy": 53.24, 
			 "cosmo_dispersion_energy": -35.42, 
			 "cosmo_repulsion_energy": 2.67, 
			 "cosmo_total_nonelectrostatic_energy": 20.48, 
			 "SMD_solvation_energy": 5.78 
		},
		"coords": [
			{
				"x": 0.9967071302,
				"y": -0.7514313721,
				"z": 3.1052131224,
				"element": "C" 
			},
			{
				"x": 1.2360034881,
				"y": 0.4739765855,
				"z": 2.2482878154,
				"element": "C" 
			},
			{
				"x": 2.089876549,
				"y": 1.4098160476,
				"z": 2.3903036562,
				"element": "N" 
			},
			{
				"x": 3.0343000323,
				"y": 1.4549138399,
				"z": 3.4946104905,
				"element": "C" 
			},
			{
				"x": 4.4854482316,
				"y": 1.2791867485,
				"z": 2.9869566456,
				"element": "C" 
			},
			{
				"x": 4.8449219892,
				"y": -0.1567500044,
				"z": 2.6747443734,
				"element": "C" 
			},
			{
				"x": 5.5659812538,
				"y": -0.8035894545,
				"z": 3.6091217034,
				"element": "N" 
			},
			{
				"x": 5.8825668125,
				"y": -2.0847064875,
				"z": 3.3845623462,
				"element": "C" 
			},
			{
				"x": 5.4992296526,
				"y": -2.7911457292,
				"z": 2.2447204381,
				"element": "C" 
			},
			{
				"x": 4.742024034,
				"y": -2.1214297875,
				"z": 1.2837096872,
				"element": "C" 
			},
			{
				"x": 4.4165052636,
				"y": -0.7839769434,
				"z": 1.4956994329,
				"element": "C" 
			},
			{
				"x": 0.3216975312,
				"y": 0.5867390552,
				"z": 1.0564773882,
				"element": "C" 
			},
			{
				"x": -0.7256729172,
				"y": 1.4605922143,
				"z": 1.0331862119,
				"element": "C" 
			},
			{
				"x": -0.9553758067,
				"y": 2.2194828441,
				"z": 2.1343030456,
				"element": "O" 
			},
			{
				"x": -1.5819016114,
				"y": 1.5823645957,
				"z": -0.1325380741,
				"element": "C" 
			},
			{
				"x": -2.6279176483,
				"y": 2.5213812471,
				"z": -0.2202536023,
				"element": "C" 
			},
			{
				"x": -3.4362596852,
				"y": 2.6040705256,
				"z": -1.3425314839,
				"element": "C" 
			},
			{
				"x": -3.2021048859,
				"y": 1.7368313226,
				"z": -2.4178008021,
				"element": "C" 
			},
			{
				"x": -2.1692654296,
				"y": 0.812269465,
				"z": -2.3716432412,
				"element": "C" 
			},
			{
				"x": -1.3399980797,
				"y": 0.7226282895,
				"z": -1.235964422,
				"element": "C" 
			},
			{
				"x": -0.2876862647,
				"y": -0.1868034926,
				"z": -1.176832769,
				"element": "N" 
			},
			{
				"x": -0.0264187309,
				"y": -1.0726708161,
				"z": -2.2871503389,
				"element": "C" 
			},
			{
				"x": 0.8657164768,
				"y": -0.6846896962,
				"z": -3.2879717511,
				"element": "C" 
			},
			{
				"x": 1.1119231886,
				"y": -1.540457068,
				"z": -4.3619955975,
				"element": "C" 
			},
			{
				"x": 0.468790151,
				"y": -2.7779622453,
				"z": -4.4342724452,
				"element": "C" 
			},
			{
				"x": -0.4205521443,
				"y": -3.1616394071,
				"z": -3.4284906101,
				"element": "C" 
			},
			{
				"x": -0.6691699678,
				"y": -2.3098476739,
				"z": -2.3515639369,
				"element": "C" 
			},
			{
				"x": 0.59080611,
				"y": -0.291103025,
				"z": -0.0720394124,
				"element": "C" 
			},
			{
				"x": 1.5116285989,
				"y": -1.107517036,
				"z": -0.1002148274,
				"element": "O" 
			},
			{
				"x": -0.0074378958,
				"y": -0.7055794585,
				"z": 3.5436072023,
				"element": "H" 
			},
			{
				"x": 1.0410795509,
				"y": -1.6364968197,
				"z": 2.4634615698,
				"element": "H" 
			},
			{
				"x": 1.7249788961,
				"y": -0.8695306397,
				"z": 3.907835932,
				"element": "H" 
			},
			{
				"x": 2.9506626897,
				"y": 2.4580717985,
				"z": 3.9311055896,
				"element": "H" 
			},
			{
				"x": 2.8441678285,
				"y": 0.7335229188,
				"z": 4.3014406469,
				"element": "H" 
			},
			{
				"x": 5.1705778845,
				"y": 1.6303836606,
				"z": 3.7634370622,
				"element": "H" 
			},
			{
				"x": 4.6113472028,
				"y": 1.9114884987,
				"z": 2.1009900127,
				"element": "H" 
			},
			{
				"x": 6.4727938641,
				"y": -2.5718272432,
				"z": 4.1601483204,
				"element": "H" 
			},
			{
				"x": 5.7826123777,
				"y": -3.8320158562,
				"z": 2.1209630744,
				"element": "H" 
			},
			{
				"x": 4.4002386117,
				"y": -2.6262075573,
				"z": 0.3849243206,
				"element": "H" 
			},
			{
				"x": 3.8128315852,
				"y": -0.2477533775,
				"z": 0.7734212621,
				"element": "H" 
			},
			{
				"x": -1.8094808794,
				"y": 2.6621593135,
				"z": 2.0593329888,
				"element": "H" 
			},
			{
				"x": -2.803615906,
				"y": 3.2232751343,
				"z": 0.5918852438,
				"element": "H" 
			},
			{
				"x": -4.2345940204,
				"y": 3.3372912657,
				"z": -1.3886057116,
				"element": "H" 
			},
			{
				"x": -3.8274628448,
				"y": 1.7891177053,
				"z": -3.3039940764,
				"element": "H" 
			},
			{
				"x": -1.991027477,
				"y": 0.1549062341,
				"z": -3.2129583278,
				"element": "H" 
			},
			{
				"x": 1.363576947,
				"y": 0.2769149912,
				"z": -3.2153733498,
				"element": "H" 
			},
			{
				"x": 1.808094042,
				"y": -1.2411184064,
				"z": -5.1397636692,
				"element": "H" 
			},
			{
				"x": 0.6625312372,
				"y": -3.4428791712,
				"z": -5.2708054976,
				"element": "H" 
			},
			{
				"x": -0.9186440224,
				"y": -4.1252864181,
				"z": -3.4787535927,
				"element": "H" 
			},
			{
				"x": -1.3524329935,
				"y": -2.5982691147,
				"z": -1.5590320435,
				"element": "H" 
			}
		],
		 "valence_orbital": [ 
			{
				"type": "occ",
				"energy": -0.23882,
				"method": "rhf"
			},
			{
				"type": "occ",
				"energy": -0.23303,
				"method": "rhf"
			},
			{
				"type": "occ",
				"energy": -0.23201,
				"method": "rhf"
			},
			{
				"type": "occ",
				"energy": -0.22736,
				"method": "rhf"
			},
			{
				"type": "occ",
				"energy": -0.21978,
				"method": "rhf"
			},
			{
				"type": "unocc",
				"energy": -0.05294,
				"method": "rhf"
			},
			{
				"type": "unocc",
				"energy": -0.01639,
				"method": "rhf"
			},
			{
				"type": "unocc",
				"energy": -0.0151,
				"method": "rhf"
			},
			{
				"type": "unocc",
				"energy": -0.01079,
				"method": "rhf"
			},
			{
				"type": "unocc",
				"energy": -0.00197,
				"method": "rhf"
			}
		],
		"cosmo_sigma_profile": { 
			"-0.025": 0.0,
			"-0.024": 0.0,
			"-0.023": 0.0,
			"-0.022": 0.0,
			"-0.021": 0.0,
			"-0.02": 0.0,
			"-0.019": 0.410606925949,
			"-0.018": 0.902416224379,
			"-0.017": 1.28678797134,
			"-0.016": 0.463086650421,
			"-0.015": 1.06255990962,
			"-0.014": 0.698620522916,
			"-0.013": 0.549914436952,
			"-0.012": 1.56780519562,
			"-0.011": 1.11592331771,
			"-0.01": 1.23921760794,
			"-0.009": 0.775034183627,
			"-0.008": 1.42830687855,
			"-0.007": 6.15843988897,
			"-0.006": 24.1636239829,
			"-0.005": 28.3578854053,
			"-0.004": 34.9379939083,
			"-0.003": 32.6473706075,
			"-0.002": 35.4164397078,
			"-0.001": 39.4989741496,
			"0.0": 36.9485998594,
			"0.001": 26.9511444347,
			"0.002": 28.4487804022,
			"0.003": 33.2866198776,
			"0.004": 26.3000080479,
			"0.005": 10.6913772188,
			"0.006": 7.74758832112,
			"0.007": 6.8576605425,
			"0.008": 5.3572596965,
			"0.009": 7.06048389044,
			"0.01": 5.18647031029,
			"0.011": 4.45240767845,
			"0.012": 4.7661481514,
			"0.013": 3.31263981811,
			"0.014": 1.74227060266,
			"0.015": 1.52441685537,
			"0.016": 1.77754541164,
			"0.017": 0.355645502266,
			"0.018": 0.00711170649032,
			"0.019": 0.0,
			"0.02": 0.0,
			"0.021": 0.0,
			"0.022": 0.0,
			"0.023": 0.0,
			"0.024": 0.0,
			"0.025": 0.0
		}
	}
}
