{
	 "smiles": "CSCCC(NC(=O)C1=CC=C(C=C1)C(F)(F)F)C(=O)NN", 
	 "Tm": 455.15, 
	 "num_atms": 38, 
	 "gaussian": { 
		 "optdone": 1, 
		 "sigma_profile": "yes", 
		 "theory": "DFT", 
		 "functional": "B3LYP", 
		 "basiset": "6-31G**", 
		 "properties": { 
			 "R2extent": 12645.5501, 
			 "electric_dipole_moment_norm": 2.21773747094, 
			 "electric_quadrupole_moment_norm": 28.2844185341, 
			 "total_energy": -1517.44536237, 
			 "HOMO_LUMO_gap": 0.14685, 
			 "cosmo_polarized_energy": -21.25, 
			 "cosmo_cavitation_energy": 44.93, 
			 "cosmo_dispersion_energy": -31.12, 
			 "cosmo_repulsion_energy": 2.33, 
			 "cosmo_total_nonelectrostatic_energy": 16.13, 
			 "SMD_solvation_energy": 9.14 
		},
		"coords": [
			{
				"x": 4.1607360189,
				"y": 3.4790527547,
				"z": 0.0818489413,
				"element": "C" 
			},
			{
				"x": 4.3136037193,
				"y": 2.3014176474,
				"z": 1.4679837266,
				"element": "S" 
			},
			{
				"x": 3.3009001609,
				"y": 0.9198640335,
				"z": 0.8003633804,
				"element": "C" 
			},
			{
				"x": 3.2869170253,
				"y": -0.2242955564,
				"z": 1.8184687887,
				"element": "C" 
			},
			{
				"x": 2.4811848048,
				"y": -1.4914184092,
				"z": 1.4290169374,
				"element": "C" 
			},
			{
				"x": 1.0156045232,
				"y": -1.3546489015,
				"z": 1.5473305496,
				"element": "N" 
			},
			{
				"x": 0.1459482146,
				"y": -0.6510027874,
				"z": 0.7737044603,
				"element": "C" 
			},
			{
				"x": 0.4750563036,
				"y": -0.0382361805,
				"z": -0.248536371,
				"element": "O" 
			},
			{
				"x": -1.2891810919,
				"y": -0.6503419855,
				"z": 1.2289225495,
				"element": "C" 
			},
			{
				"x": -1.8556960113,
				"y": -1.6674031268,
				"z": 2.0103611142,
				"element": "C" 
			},
			{
				"x": -3.1966168392,
				"y": -1.6064550266,
				"z": 2.3828024887,
				"element": "C" 
			},
			{
				"x": -3.9821075046,
				"y": -0.5256140614,
				"z": 1.9761941396,
				"element": "C" 
			},
			{
				"x": -3.4303832302,
				"y": 0.4844396509,
				"z": 1.1825524557,
				"element": "C" 
			},
			{
				"x": -2.0936564248,
				"y": 0.4153716879,
				"z": 0.8041476494,
				"element": "C" 
			},
			{
				"x": -5.4150910186,
				"y": -0.4260421012,
				"z": 2.4316640298,
				"element": "C" 
			},
			{
				"x": -6.181722866,
				"y": 0.2280792124,
				"z": 1.53373375,
				"element": "F" 
			},
			{
				"x": -5.9637291212,
				"y": -1.6441940012,
				"z": 2.6296465378,
				"element": "F" 
			},
			{
				"x": -5.5132298049,
				"y": 0.246616474,
				"z": 3.6008979097,
				"element": "F" 
			},
			{
				"x": 3.042383159,
				"y": -2.1381058162,
				"z": 0.1431533154,
				"element": "C" 
			},
			{
				"x": 4.0875402888,
				"y": -2.779723528,
				"z": 0.2245770459,
				"element": "O" 
			},
			{
				"x": 2.3855121392,
				"y": -1.9373513521,
				"z": -1.0255164759,
				"element": "N" 
			},
			{
				"x": 2.9569124144,
				"y": -2.3794144804,
				"z": -2.2414246505,
				"element": "N" 
			},
			{
				"x": 4.5838911527,
				"y": 3.0648253386,
				"z": -0.8372408022,
				"element": "H" 
			},
			{
				"x": 4.7256918819,
				"y": 4.3717730834,
				"z": 0.3587429698,
				"element": "H" 
			},
			{
				"x": 3.1173128652,
				"y": 3.7588236913,
				"z": -0.0864903897,
				"element": "H" 
			},
			{
				"x": 3.7420032531,
				"y": 0.5855557962,
				"z": -0.144253661,
				"element": "H" 
			},
			{
				"x": 2.2924065543,
				"y": 1.2800369943,
				"z": 0.5910983031,
				"element": "H" 
			},
			{
				"x": 2.8986838496,
				"y": 0.1364652716,
				"z": 2.7781368872,
				"element": "H" 
			},
			{
				"x": 4.3145965617,
				"y": -0.5606413141,
				"z": 1.9928141739,
				"element": "H" 
			},
			{
				"x": 2.733124626,
				"y": -2.2399717521,
				"z": 2.1843492396,
				"element": "H" 
			},
			{
				"x": 0.6403304445,
				"y": -1.7110543694,
				"z": 2.4132003466,
				"element": "H" 
			},
			{
				"x": -1.271833518,
				"y": -2.5362819329,
				"z": 2.3000422718,
				"element": "H" 
			},
			{
				"x": -3.6371475559,
				"y": -2.4030169161,
				"z": 2.9720634473,
				"element": "H" 
			},
			{
				"x": -4.0498809197,
				"y": 1.3121158697,
				"z": 0.8550139558,
				"element": "H" 
			},
			{
				"x": -1.6518674093,
				"y": 1.177537664,
				"z": 0.1722113122,
				"element": "H" 
			},
			{
				"x": 1.6928968843,
				"y": -1.1941425676,
				"z": -1.0948353134,
				"element": "H" 
			},
			{
				"x": 2.6868341511,
				"y": -3.3549255127,
				"z": -2.3696716943,
				"element": "H" 
			},
			{
				"x": 3.9663723195,
				"y": -2.4008934906,
				"z": -2.0882733196,
				"element": "H" 
			}
		],
		 "valence_orbital": [ 
			{
				"type": "occ",
				"energy": -0.28687,
				"method": "rhf"
			},
			{
				"type": "occ",
				"energy": -0.27856,
				"method": "rhf"
			},
			{
				"type": "occ",
				"energy": -0.25293,
				"method": "rhf"
			},
			{
				"type": "occ",
				"energy": -0.24515,
				"method": "rhf"
			},
			{
				"type": "occ",
				"energy": -0.21682,
				"method": "rhf"
			},
			{
				"type": "unocc",
				"energy": -0.06997,
				"method": "rhf"
			},
			{
				"type": "unocc",
				"energy": -0.03681,
				"method": "rhf"
			},
			{
				"type": "unocc",
				"energy": 0.01281,
				"method": "rhf"
			},
			{
				"type": "unocc",
				"energy": 0.02479,
				"method": "rhf"
			},
			{
				"type": "unocc",
				"energy": 0.03767,
				"method": "rhf"
			}
		],
		"cosmo_sigma_profile": { 
			"-0.025": 0.0,
			"-0.024": 0.0,
			"-0.023": 0.0,
			"-0.022": 0.0,
			"-0.021": 0.0,
			"-0.02": 0.0,
			"-0.019": 0.0,
			"-0.018": 0.0,
			"-0.017": 0.0,
			"-0.016": 0.49520765161,
			"-0.015": 1.11918882484,
			"-0.014": 1.66483048781,
			"-0.013": 1.4676017067,
			"-0.012": 2.00920988501,
			"-0.011": 2.61941784757,
			"-0.01": 4.47716009667,
			"-0.009": 4.9546630763,
			"-0.008": 5.8991532926,
			"-0.007": 9.62348925942,
			"-0.006": 12.6553740114,
			"-0.005": 18.6012382226,
			"-0.004": 22.0768759174,
			"-0.003": 27.2305109295,
			"-0.002": 29.1712440671,
			"-0.001": 27.6204990878,
			"0.0": 26.0271768637,
			"0.001": 25.9445919715,
			"0.002": 39.1952736476,
			"0.003": 31.4043019175,
			"0.004": 8.58031195191,
			"0.005": 6.88550048808,
			"0.006": 6.11730756365,
			"0.007": 6.1258432656,
			"0.008": 4.99436038042,
			"0.009": 5.44352864252,
			"0.01": 5.34604479413,
			"0.011": 4.93629283854,
			"0.012": 4.53728240889,
			"0.013": 5.24119483339,
			"0.014": 3.43779328104,
			"0.015": 0.947762011062,
			"0.016": 0.43073742177,
			"0.017": 0.406771645194,
			"0.018": 0.0316686890331,
			"0.019": 0.0,
			"0.02": 0.0,
			"0.021": 0.0,
			"0.022": 0.0,
			"0.023": 0.0,
			"0.024": 0.0,
			"0.025": 0.0
		}
	}
}
