{
	 "smiles": "OC(=O)C1=CNN=C1C1CCCCC1", 
	 "Tm": 543.15, 
	 "num_atms": 28, 
	 "gaussian": { 
		 "optdone": 1, 
		 "sigma_profile": "yes", 
		 "theory": "DFT", 
		 "functional": "B3LYP", 
		 "basiset": "6-31G**", 
		 "properties": { 
			 "R2extent": 3101.8674, 
			 "electric_dipole_moment_norm": 1.04344422946, 
			 "electric_quadrupole_moment_norm": 14.8543761831, 
			 "total_energy": -649.460734659, 
			 "HOMO_LUMO_gap": 0.2326, 
			 "cosmo_polarized_energy": -13.75, 
			 "cosmo_cavitation_energy": 29.48, 
			 "cosmo_dispersion_energy": -21.66, 
			 "cosmo_repulsion_energy": 1.72, 
			 "cosmo_total_nonelectrostatic_energy": 9.55, 
			 "SMD_solvation_energy": 4.73 
		},
		"coords": [
			{
				"x": -0.3714629232,
				"y": -1.426057266,
				"z": -1.6507268549,
				"element": "O" 
			},
			{
				"x": -0.2775724496,
				"y": -2.5168905709,
				"z": -0.8445600215,
				"element": "C" 
			},
			{
				"x": -0.5404122325,
				"y": -3.632586386,
				"z": -1.2575063165,
				"element": "O" 
			},
			{
				"x": 0.1523979619,
				"y": -2.2248814518,
				"z": 0.5250137405,
				"element": "C" 
			},
			{
				"x": 0.2674764646,
				"y": -3.2481386158,
				"z": 1.4579607708,
				"element": "C" 
			},
			{
				"x": 0.672176688,
				"y": -2.6734181375,
				"z": 2.6020149065,
				"element": "N" 
			},
			{
				"x": 0.8375569761,
				"y": -1.3297024609,
				"z": 2.4972299768,
				"element": "N" 
			},
			{
				"x": 0.5257191602,
				"y": -1.0320226702,
				"z": 1.2363143249,
				"element": "C" 
			},
			{
				"x": 0.6287487695,
				"y": 0.4101052575,
				"z": 0.8087667004,
				"element": "C" 
			},
			{
				"x": -0.740461617,
				"y": 1.0163922666,
				"z": 0.3771908255,
				"element": "C" 
			},
			{
				"x": -0.5743762622,
				"y": 2.2085325387,
				"z": -0.5893529185,
				"element": "C" 
			},
			{
				"x": 0.6849609165,
				"y": 3.0195291189,
				"z": -0.2587131703,
				"element": "C" 
			},
			{
				"x": 1.9642737418,
				"y": 2.1690456796,
				"z": -0.4585543179,
				"element": "C" 
			},
			{
				"x": 1.7090595953,
				"y": 0.6552679049,
				"z": -0.2681035401,
				"element": "C" 
			},
			{
				"x": -0.6635072627,
				"y": -1.7688269001,
				"z": -2.5119433757,
				"element": "H" 
			},
			{
				"x": 0.0841050355,
				"y": -4.3067221075,
				"z": 1.3509712471,
				"element": "H" 
			},
			{
				"x": 0.8541279481,
				"y": -3.1188693738,
				"z": 3.4881551663,
				"element": "H" 
			},
			{
				"x": 0.9597988005,
				"y": 0.9333661667,
				"z": 1.7138782055,
				"element": "H" 
			},
			{
				"x": -1.3585574313,
				"y": 0.2502661579,
				"z": -0.0974653228,
				"element": "H" 
			},
			{
				"x": -1.2734220246,
				"y": 1.3378199203,
				"z": 1.2801268945,
				"element": "H" 
			},
			{
				"x": -1.4669466435,
				"y": 2.8436517455,
				"z": -0.5522989112,
				"element": "H" 
			},
			{
				"x": -0.5025458845,
				"y": 1.8389336799,
				"z": -1.6205002099,
				"element": "H" 
			},
			{
				"x": 0.6212940681,
				"y": 3.359319175,
				"z": 0.783578279,
				"element": "H" 
			},
			{
				"x": 0.7351452763,
				"y": 3.9270209303,
				"z": -0.8709258525,
				"element": "H" 
			},
			{
				"x": 2.7378788652,
				"y": 2.5063538623,
				"z": 0.2416190875,
				"element": "H" 
			},
			{
				"x": 2.368688689,
				"y": 2.3352306355,
				"z": -1.4642049802,
				"element": "H" 
			},
			{
				"x": 2.6394910922,
				"y": 0.1522208154,
				"z": 0.0177596935,
				"element": "H" 
			},
			{
				"x": 1.3843646822,
				"y": 0.2021600855,
				"z": -1.2089240268,
				"element": "H" 
			}
		],
		 "valence_orbital": [ 
			{
				"type": "occ",
				"energy": -0.29811,
				"method": "rhf"
			},
			{
				"type": "occ",
				"energy": -0.28908,
				"method": "rhf"
			},
			{
				"type": "occ",
				"energy": -0.26831,
				"method": "rhf"
			},
			{
				"type": "occ",
				"energy": -0.25726,
				"method": "rhf"
			},
			{
				"type": "occ",
				"energy": -0.2557,
				"method": "rhf"
			},
			{
				"type": "unocc",
				"energy": -0.0231,
				"method": "rhf"
			},
			{
				"type": "unocc",
				"energy": 0.01789,
				"method": "rhf"
			},
			{
				"type": "unocc",
				"energy": 0.07146,
				"method": "rhf"
			},
			{
				"type": "unocc",
				"energy": 0.07544,
				"method": "rhf"
			},
			{
				"type": "unocc",
				"energy": 0.09313,
				"method": "rhf"
			}
		],
		"cosmo_sigma_profile": { 
			"-0.025": 0.0,
			"-0.024": 0.0,
			"-0.023": 0.0,
			"-0.022": 0.0,
			"-0.021": 0.0,
			"-0.02": 0.0,
			"-0.019": 0.0,
			"-0.018": 0.470014939042,
			"-0.017": 2.33943683966,
			"-0.016": 2.53608382087,
			"-0.015": 1.9437119705,
			"-0.014": 2.03100209316,
			"-0.013": 2.05371435604,
			"-0.012": 1.29449699968,
			"-0.011": 1.71582862787,
			"-0.01": 3.4180821936,
			"-0.009": 3.0970342536,
			"-0.008": 2.26547914648,
			"-0.007": 2.39730337382,
			"-0.006": 2.34885319358,
			"-0.005": 2.41355810203,
			"-0.004": 2.45188479231,
			"-0.003": 5.73954378505,
			"-0.002": 21.8962333002,
			"-0.001": 32.7642754547,
			"0.0": 34.5233041875,
			"0.001": 34.5747800642,
			"0.002": 20.2860287381,
			"0.003": 9.39631385649,
			"0.004": 6.47071242401,
			"0.005": 4.35272866277,
			"0.006": 2.56838700648,
			"0.007": 2.49067840991,
			"0.008": 2.6413672671,
			"0.009": 2.36982075954,
			"0.01": 2.86561140195,
			"0.011": 3.69234672611,
			"0.012": 6.431641156,
			"0.013": 2.40396486543,
			"0.014": 0.829494297696,
			"0.015": 0.91261869736,
			"0.016": 0.407555415183,
			"0.017": 0.0,
			"0.018": 0.0,
			"0.019": 0.0,
			"0.02": 0.0,
			"0.021": 0.0,
			"0.022": 0.0,
			"0.023": 0.0,
			"0.024": 0.0,
			"0.025": 0.0
		}
	}
}
