{
	 "smiles": "ClC1=NC=C(I)C=C1", 
	 "Tm": 370.15, 
	 "num_atms": 11, 
	 "gaussian": { 
		 "optdone": 1, 
		 "sigma_profile": "no", 
		 "theory": "DFT", 
		 "functional": "B3LYP", 
		 "basiset": "6-31G**", 
		 "properties": { 
			 "R2extent": 1799.4332, 
			 "electric_dipole_moment_norm": 2.37357932456, 
			 "electric_quadrupole_moment_norm": 7.1150007955, 
			 "total_energy": -718.661013876, 
			 "HOMO_LUMO_gap": 0.20122, 
			 "cosmo_polarized_energy": -98884.48, 
			 "cosmo_cavitation_energy": 20.59, 
			 "cosmo_dispersion_energy": -17.06, 
			 "cosmo_repulsion_energy": 1.38, 
			 "cosmo_total_nonelectrostatic_energy": 4.91, 
			 "SMD_solvation_energy": 1.07 
		},
		"coords": [
			{
				"x": -2.6854393513,
				"y": -2.2843612789,
				"z": 1.0927612765,
				"element": "Cl" 
			},
			{
				"x": -1.8686863085,
				"y": -0.837218112,
				"z": 0.5179800944,
				"element": "C" 
			},
			{
				"x": -1.5557320172,
				"y": -0.7994504465,
				"z": -0.7644072009,
				"element": "N" 
			},
			{
				"x": -0.9332278604,
				"y": 0.2912596343,
				"z": -1.2277525269,
				"element": "C" 
			},
			{
				"x": -0.6101625114,
				"y": 1.3736487123,
				"z": -0.4068594731,
				"element": "C" 
			},
			{
				"x": 0.372642542,
				"y": 3.0583826455,
				"z": -1.2149303008,
				"element": "I" 
			},
			{
				"x": -0.9472810971,
				"y": 1.3199613467,
				"z": 0.94807525,
				"element": "C" 
			},
			{
				"x": -1.5946026241,
				"y": 0.1858247242,
				"z": 1.430007665,
				"element": "C" 
			},
			{
				"x": -0.6876293252,
				"y": 0.2957523051,
				"z": -2.2859150894,
				"element": "H" 
			},
			{
				"x": -0.7124679403,
				"y": 2.1412855068,
				"z": 1.6161449563,
				"element": "H" 
			},
			{
				"x": -1.8771135063,
				"y": 0.0954149626,
				"z": 2.472095349,
				"element": "H" 
			}
		],
		 "valence_orbital": [ 
			{
				"type": "occ",
				"energy": -0.3191,
				"method": "rhf"
			},
			{
				"type": "occ",
				"energy": -0.29828,
				"method": "rhf"
			},
			{
				"type": "occ",
				"energy": -0.29259,
				"method": "rhf"
			},
			{
				"type": "occ",
				"energy": -0.28092,
				"method": "rhf"
			},
			{
				"type": "occ",
				"energy": -0.2548,
				"method": "rhf"
			},
			{
				"type": "unocc",
				"energy": -0.05358,
				"method": "rhf"
			},
			{
				"type": "unocc",
				"energy": -0.05196,
				"method": "rhf"
			},
			{
				"type": "unocc",
				"energy": -0.04205,
				"method": "rhf"
			},
			{
				"type": "unocc",
				"energy": 0.02537,
				"method": "rhf"
			},
			{
				"type": "unocc",
				"energy": 0.03587,
				"method": "rhf"
			}
		],
		"cosmo_sigma_profile": { 
			"0.0": 0.0,
			"0.0": 0.0,
			"0.0": 0.0,
			"0.0": 0.0,
			"0.0": 0.0,
			"0.0": 0.0,
			"0.0": 0.0,
			"0.0": 0.0,
			"0.0": 0.0,
			"0.0": 0.0,
			"0.0": 0.0,
			"0.0": 0.0,
			"0.0": 0.0,
			"0.0": 0.0,
			"0.0": 0.0,
			"0.0": 0.0,
			"0.0": 0.0,
			"0.0": 0.0,
			"0.0": 0.0,
			"0.0": 0.0,
			"0.0": 0.0,
			"0.0": 0.0,
			"0.0": 0.0,
			"0.0": 0.0,
			"0.0": 0.0,
			"0.0": 0.0,
			"0.0": 0.0,
			"0.0": 0.0,
			"0.0": 0.0,
			"0.0": 0.0,
			"0.0": 0.0,
			"0.0": 0.0,
			"0.0": 0.0,
			"0.0": 0.0,
			"0.0": 0.0,
			"0.0": 0.0,
			"0.0": 0.0,
			"0.0": 0.0,
			"0.0": 0.0,
			"0.0": 0.0,
			"0.0": 0.0,
			"0.0": 0.0,
			"0.0": 0.0,
			"0.0": 0.0,
			"0.0": 0.0,
			"0.0": 0.0,
			"0.0": 0.0,
			"0.0": 0.0,
			"0.0": 0.0,
			"0.0": 0.0,
			"0.0": 0.0
		}
	}
}
