{
	 "smiles": "CCCCCCCCCCCCCC(O)=O", 
	 "Tm": 327.65, 
	 "num_atms": 44, 
	 "gaussian": { 
		 "optdone": 1, 
		 "sigma_profile": "yes", 
		 "theory": "DFT", 
		 "functional": "B3LYP", 
		 "basiset": "6-31G**", 
		 "properties": { 
			 "R2extent": 5756.4876, 
			 "electric_dipole_moment_norm": 1.49105923424, 
			 "electric_quadrupole_moment_norm": 8.61081169112, 
			 "total_energy": -700.868448619, 
			 "HOMO_LUMO_gap": 0.27749, 
			 "cosmo_polarized_energy": -7.54, 
			 "cosmo_cavitation_energy": 42.9, 
			 "cosmo_dispersion_energy": -28.06, 
			 "cosmo_repulsion_energy": 2.24, 
			 "cosmo_total_nonelectrostatic_energy": 17.08, 
			 "SMD_solvation_energy": 6.28 
		},
		"coords": [
			{
				"x": 1.1448143882,
				"y": 1.7801859374,
				"z": 4.6524197715,
				"element": "C" 
			},
			{
				"x": 0.2404776287,
				"y": 0.931407156,
				"z": 3.7527859885,
				"element": "C" 
			},
			{
				"x": 0.1127503701,
				"y": 1.496652029,
				"z": 2.3306545828,
				"element": "C" 
			},
			{
				"x": -0.8428281698,
				"y": 0.7168086567,
				"z": 1.4104985103,
				"element": "C" 
			},
			{
				"x": -0.3809022711,
				"y": -0.7067821166,
				"z": 1.0648025423,
				"element": "C" 
			},
			{
				"x": -1.2861256799,
				"y": -1.391210355,
				"z": 0.0311172777,
				"element": "C" 
			},
			{
				"x": -0.8716956639,
				"y": -2.8234898317,
				"z": -0.3526704794,
				"element": "C" 
			},
			{
				"x": 0.5414936825,
				"y": -3.0386654176,
				"z": -0.9317068364,
				"element": "C" 
			},
			{
				"x": 0.8501138544,
				"y": -2.4000813181,
				"z": -2.30179478,
				"element": "C" 
			},
			{
				"x": 1.213736349,
				"y": -0.9064512636,
				"z": -2.2767884965,
				"element": "C" 
			},
			{
				"x": 1.7478073747,
				"y": -0.3945014899,
				"z": -3.6224257029,
				"element": "C" 
			},
			{
				"x": 1.9310818215,
				"y": 1.1301478673,
				"z": -3.7124280278,
				"element": "C" 
			},
			{
				"x": 2.9177992993,
				"y": 1.7390549368,
				"z": -2.6922312816,
				"element": "C" 
			},
			{
				"x": 2.3968892913,
				"y": 1.8736541854,
				"z": -1.2763843204,
				"element": "C" 
			},
			{
				"x": 1.2154640376,
				"y": 2.5393576844,
				"z": -1.2299165585,
				"element": "O" 
			},
			{
				"x": 2.953462066,
				"y": 1.4763378704,
				"z": -0.2739081262,
				"element": "O" 
			},
			{
				"x": 2.1590461943,
				"y": 1.8464898664,
				"z": 4.242755734,
				"element": "H" 
			},
			{
				"x": 0.7609133323,
				"y": 2.802448979,
				"z": 4.7496212064,
				"element": "H" 
			},
			{
				"x": 1.2197583932,
				"y": 1.3565319904,
				"z": 5.6593782041,
				"element": "H" 
			},
			{
				"x": 0.6324533573,
				"y": -0.0921413883,
				"z": 3.7108354413,
				"element": "H" 
			},
			{
				"x": -0.7602081579,
				"y": 0.857733501,
				"z": 4.2011391482,
				"element": "H" 
			},
			{
				"x": 1.1119687825,
				"y": 1.5319074553,
				"z": 1.8713637017,
				"element": "H" 
			},
			{
				"x": -0.2354350675,
				"y": 2.5375945374,
				"z": 2.4027249608,
				"element": "H" 
			},
			{
				"x": -1.8423087008,
				"y": 0.6808075829,
				"z": 1.8671036094,
				"element": "H" 
			},
			{
				"x": -0.9669637273,
				"y": 1.2757464726,
				"z": 0.4711530723,
				"element": "H" 
			},
			{
				"x": -0.3442876758,
				"y": -1.3226137407,
				"z": 1.9732868569,
				"element": "H" 
			},
			{
				"x": 0.6485686177,
				"y": -0.6567086721,
				"z": 0.6889942779,
				"element": "H" 
			},
			{
				"x": -1.3465888657,
				"y": -0.7652773756,
				"z": -0.8680828695,
				"element": "H" 
			},
			{
				"x": -2.3099822213,
				"y": -1.4299138555,
				"z": 0.4288108523,
				"element": "H" 
			},
			{
				"x": -1.6043977573,
				"y": -3.2145389866,
				"z": -1.0723149825,
				"element": "H" 
			},
			{
				"x": -0.9635337462,
				"y": -3.4580530856,
				"z": 0.5400085316,
				"element": "H" 
			},
			{
				"x": 0.6786923557,
				"y": -4.123419293,
				"z": -1.0289019855,
				"element": "H" 
			},
			{
				"x": 1.2987091018,
				"y": -2.7127476802,
				"z": -0.2063975052,
				"element": "H" 
			},
			{
				"x": 0.0029549081,
				"y": -2.5627221171,
				"z": -2.9839449382,
				"element": "H" 
			},
			{
				"x": 1.6965724687,
				"y": -2.9435359594,
				"z": -2.7443681785,
				"element": "H" 
			},
			{
				"x": 0.3428316183,
				"y": -0.3064257524,
				"z": -1.9896688474,
				"element": "H" 
			},
			{
				"x": 1.9701698753,
				"y": -0.744008887,
				"z": -1.4995827976,
				"element": "H" 
			},
			{
				"x": 1.0603536551,
				"y": -0.6990643069,
				"z": -4.4234718378,
				"element": "H" 
			},
			{
				"x": 2.7050104699,
				"y": -0.888523088,
				"z": -3.8423524471,
				"element": "H" 
			},
			{
				"x": 0.961961249,
				"y": 1.6305532004,
				"z": -3.6062445843,
				"element": "H" 
			},
			{
				"x": 2.2975085716,
				"y": 1.3768864912,
				"z": -4.7158708938,
				"element": "H" 
			},
			{
				"x": 3.1779679816,
				"y": 2.7540549065,
				"z": -3.0191248456,
				"element": "H" 
			},
			{
				"x": 3.8452198748,
				"y": 1.1626111835,
				"z": -2.6398033145,
				"element": "H" 
			},
			{
				"x": 0.9696067339,
				"y": 2.5916034909,
				"z": -0.2906696326,
				"element": "H" 
			}
		],
		 "valence_orbital": [ 
			{
				"type": "occ",
				"energy": -0.30756,
				"method": "rhf"
			},
			{
				"type": "occ",
				"energy": -0.30219,
				"method": "rhf"
			},
			{
				"type": "occ",
				"energy": -0.29976,
				"method": "rhf"
			},
			{
				"type": "occ",
				"energy": -0.29602,
				"method": "rhf"
			},
			{
				"type": "occ",
				"energy": -0.27012,
				"method": "rhf"
			},
			{
				"type": "unocc",
				"energy": 0.00737,
				"method": "rhf"
			},
			{
				"type": "unocc",
				"energy": 0.05438,
				"method": "rhf"
			},
			{
				"type": "unocc",
				"energy": 0.08725,
				"method": "rhf"
			},
			{
				"type": "unocc",
				"energy": 0.09521,
				"method": "rhf"
			},
			{
				"type": "unocc",
				"energy": 0.10284,
				"method": "rhf"
			}
		],
		"cosmo_sigma_profile": { 
			"-0.025": 0.0,
			"-0.024": 0.0,
			"-0.023": 0.0,
			"-0.022": 0.0,
			"-0.021": 0.0,
			"-0.02": 0.0,
			"-0.019": 0.0,
			"-0.018": 0.0,
			"-0.017": 0.0,
			"-0.016": 0.0,
			"-0.015": 0.0,
			"-0.014": 0.0,
			"-0.013": 0.317521861026,
			"-0.012": 1.033922043,
			"-0.011": 0.620773610205,
			"-0.01": 1.04727340216,
			"-0.009": 1.54354641655,
			"-0.008": 0.599418013648,
			"-0.007": 1.20183027566,
			"-0.006": 4.18919952603,
			"-0.005": 4.97501867966,
			"-0.004": 7.35376687942,
			"-0.003": 13.864892459,
			"-0.002": 43.2603187092,
			"-0.001": 68.0020043323,
			"0.0": 67.6436572202,
			"0.001": 56.5117410796,
			"0.002": 25.0064513387,
			"0.003": 4.68604584131,
			"0.004": 3.57838205897,
			"0.005": 3.59609025309,
			"0.006": 2.27922701003,
			"0.007": 2.72528303454,
			"0.008": 2.90349612913,
			"0.009": 2.55214506135,
			"0.01": 2.13258833675,
			"0.011": 2.2791415505,
			"0.012": 3.18208232762,
			"0.013": 1.55530884414,
			"0.014": 0.0804452611419,
			"0.015": 0.0,
			"0.016": 0.0,
			"0.017": 0.0,
			"0.018": 0.0,
			"0.019": 0.0,
			"0.02": 0.0,
			"0.021": 0.0,
			"0.022": 0.0,
			"0.023": 0.0,
			"0.024": 0.0,
			"0.025": 0.0
		}
	}
}
