{
	 "smiles": "NC1=CC=C(C=C1)C1=NC2=C(N1)C=CC(Br)=C2", 
	 "Tm": 493.15, 
	 "num_atms": 27, 
	 "gaussian": { 
		 "optdone": 1, 
		 "sigma_profile": "yes", 
		 "theory": "DFT", 
		 "functional": "B3LYP", 
		 "basiset": "6-31G**", 
		 "properties": { 
			 "R2extent": 12298.0173, 
			 "electric_dipole_moment_norm": 6.98946764639, 
			 "electric_quadrupole_moment_norm": 29.5871925461, 
			 "total_energy": -3237.09622245, 
			 "HOMO_LUMO_gap": 0.15837, 
			 "cosmo_polarized_energy": -19.25, 
			 "cosmo_cavitation_energy": 33.92, 
			 "cosmo_dispersion_energy": -25.83, 
			 "cosmo_repulsion_energy": 1.97, 
			 "cosmo_total_nonelectrostatic_energy": 10.07, 
			 "SMD_solvation_energy": 2.32 
		},
		"coords": [
			{
				"x": 2.7057570714,
				"y": 5.2888078131,
				"z": 0.9957692834,
				"element": "N" 
			},
			{
				"x": 2.1528983452,
				"y": 4.1797262239,
				"z": 0.3695974861,
				"element": "C" 
			},
			{
				"x": 1.8740017293,
				"y": 4.1952941075,
				"z": -1.0114766086,
				"element": "C" 
			},
			{
				"x": 1.3728201591,
				"y": 3.070514175,
				"z": -1.6464571128,
				"element": "C" 
			},
			{
				"x": 1.1283625763,
				"y": 1.8814819174,
				"z": -0.9352674151,
				"element": "C" 
			},
			{
				"x": 1.4026933134,
				"y": 1.8710563363,
				"z": 0.4419898976,
				"element": "C" 
			},
			{
				"x": 1.9055623875,
				"y": 2.9945073362,
				"z": 1.0860102924,
				"element": "C" 
			},
			{
				"x": 0.5988151318,
				"y": 0.7226871708,
				"z": -1.6512615558,
				"element": "C" 
			},
			{
				"x": 0.2010924831,
				"y": 0.7326870631,
				"z": -2.9103199414,
				"element": "N" 
			},
			{
				"x": -0.2124566039,
				"y": -0.5570683447,
				"z": -3.1782751837,
				"element": "C" 
			},
			{
				"x": -0.0570979687,
				"y": -1.3767485269,
				"z": -2.0322338611,
				"element": "C" 
			},
			{
				"x": 0.4590041629,
				"y": -0.5283906331,
				"z": -1.0708814414,
				"element": "N" 
			},
			{
				"x": -0.3970746778,
				"y": -2.7287682218,
				"z": -2.0279315982,
				"element": "C" 
			},
			{
				"x": -0.9067509449,
				"y": -3.2614988624,
				"z": -3.2107498771,
				"element": "C" 
			},
			{
				"x": -1.0635839122,
				"y": -2.4486685151,
				"z": -4.3476598418,
				"element": "C" 
			},
			{
				"x": -1.7724810746,
				"y": -3.2471105183,
				"z": -5.9411009447,
				"element": "Br" 
			},
			{
				"x": -0.7279702635,
				"y": -1.1011577032,
				"z": -4.3625505748,
				"element": "C" 
			},
			{
				"x": 2.5856031186,
				"y": 5.3429041619,
				"z": 1.9969896164,
				"element": "H" 
			},
			{
				"x": 2.5641144909,
				"y": 6.1761609608,
				"z": 0.5348516804,
				"element": "H" 
			},
			{
				"x": 2.0600913521,
				"y": 5.1008788454,
				"z": -1.5834864299,
				"element": "H" 
			},
			{
				"x": 1.1571180974,
				"y": 3.0873641542,
				"z": -2.7091675798,
				"element": "H" 
			},
			{
				"x": 1.2090974204,
				"y": 0.9840892437,
				"z": 1.040011211,
				"element": "H" 
			},
			{
				"x": 2.1096048793,
				"y": 2.960128978,
				"z": 2.1530853403,
				"element": "H" 
			},
			{
				"x": 0.7451461252,
				"y": -0.7897188597,
				"z": -0.1415026561,
				"element": "H" 
			},
			{
				"x": -0.2755844883,
				"y": -3.3533275034,
				"z": -1.1481581443,
				"element": "H" 
			},
			{
				"x": -1.1860108081,
				"y": -4.3072467401,
				"z": -3.2601166933,
				"element": "H" 
			},
			{
				"x": -0.8551721018,
				"y": -0.4898840585,
				"z": -5.247607348,
				"element": "H" 
			}
		],
		 "valence_orbital": [ 
			{
				"type": "occ",
				"energy": -0.2697,
				"method": "rhf"
			},
			{
				"type": "occ",
				"energy": -0.25945,
				"method": "rhf"
			},
			{
				"type": "occ",
				"energy": -0.24011,
				"method": "rhf"
			},
			{
				"type": "occ",
				"energy": -0.22103,
				"method": "rhf"
			},
			{
				"type": "occ",
				"energy": -0.19681,
				"method": "rhf"
			},
			{
				"type": "unocc",
				"energy": -0.03844,
				"method": "rhf"
			},
			{
				"type": "unocc",
				"energy": -0.00818,
				"method": "rhf"
			},
			{
				"type": "unocc",
				"energy": 0.01031,
				"method": "rhf"
			},
			{
				"type": "unocc",
				"energy": 0.01877,
				"method": "rhf"
			},
			{
				"type": "unocc",
				"energy": 0.02117,
				"method": "rhf"
			}
		],
		"cosmo_sigma_profile": { 
			"-0.025": 0.0,
			"-0.024": 0.0,
			"-0.023": 0.0,
			"-0.022": 0.0,
			"-0.021": 0.0,
			"-0.02": 0.0,
			"-0.019": 0.0,
			"-0.018": 0.0,
			"-0.017": 0.389071870966,
			"-0.016": 1.35494830221,
			"-0.015": 1.33714792239,
			"-0.014": 1.67984238048,
			"-0.013": 2.75561049333,
			"-0.012": 4.13437971039,
			"-0.011": 4.54944763265,
			"-0.01": 3.96061427679,
			"-0.009": 4.85648596909,
			"-0.008": 5.3920830521,
			"-0.007": 8.59653034465,
			"-0.006": 10.125226592,
			"-0.005": 12.2916257399,
			"-0.004": 12.319199036,
			"-0.003": 13.0814644509,
			"-0.002": 11.3230561635,
			"-0.001": 12.4860205473,
			"0.0": 12.121385802,
			"0.001": 18.793291344,
			"0.002": 22.0224584596,
			"0.003": 26.3894297492,
			"0.004": 32.3682257498,
			"0.005": 28.9903862693,
			"0.006": 7.50735880112,
			"0.007": 2.90802453597,
			"0.008": 2.43321939399,
			"0.009": 2.41901174525,
			"0.01": 1.61290207597,
			"0.011": 1.89089435612,
			"0.012": 1.65081567011,
			"0.013": 1.57218563199,
			"0.014": 1.07454509692,
			"0.015": 1.06278956988,
			"0.016": 0.168325696987,
			"0.017": 0.0,
			"0.018": 0.0,
			"0.019": 0.0,
			"0.02": 0.0,
			"0.021": 0.0,
			"0.022": 0.0,
			"0.023": 0.0,
			"0.024": 0.0,
			"0.025": 0.0
		}
	}
}
