{
	 "smiles": "OC(=O)C1=CC(=C(Cl)N=C1)[N+]([O-])=O", 
	 "Tm": 400.15, 
	 "num_atms": 16, 
	 "gaussian": { 
		 "optdone": 1, 
		 "sigma_profile": "yes", 
		 "theory": "DFT", 
		 "functional": "B3LYP", 
		 "basiset": "6-31G**", 
		 "properties": { 
			 "R2extent": 3671.0844, 
			 "electric_dipole_moment_norm": 1.34122354214, 
			 "electric_quadrupole_moment_norm": 18.7025924599, 
			 "total_energy": -1100.91563053, 
			 "HOMO_LUMO_gap": 0.17797, 
			 "cosmo_polarized_energy": -19.06, 
			 "cosmo_cavitation_energy": 24.35, 
			 "cosmo_dispersion_energy": -18.07, 
			 "cosmo_repulsion_energy": 1.43, 
			 "cosmo_total_nonelectrostatic_energy": 7.71, 
			 "SMD_solvation_energy": 6.14 
		},
		"coords": [
			{
				"x": 2.1419778574,
				"y": 0.5172957377,
				"z": -1.3164984918,
				"element": "O" 
			},
			{
				"x": 2.1209391178,
				"y": 1.0282775012,
				"z": -0.0626420087,
				"element": "C" 
			},
			{
				"x": 3.126750498,
				"y": 1.4669565623,
				"z": 0.4395173577,
				"element": "O" 
			},
			{
				"x": 0.8071878278,
				"y": 1.0194196107,
				"z": 0.6640336644,
				"element": "C" 
			},
			{
				"x": -0.2800203942,
				"y": 0.2166034303,
				"z": 0.3288265921,
				"element": "C" 
			},
			{
				"x": -1.4457393956,
				"y": 0.2874806963,
				"z": 1.0875580129,
				"element": "C" 
			},
			{
				"x": -1.4776258494,
				"y": 1.1435354518,
				"z": 2.2042231915,
				"element": "C" 
			},
			{
				"x": -2.8330559847,
				"y": 1.242867566,
				"z": 3.2826631726,
				"element": "Cl" 
			},
			{
				"x": -0.4335611376,
				"y": 1.8944391969,
				"z": 2.5345531528,
				"element": "N" 
			},
			{
				"x": 0.6701940262,
				"y": 1.8433246873,
				"z": 1.7917315379,
				"element": "C" 
			},
			{
				"x": -2.5685823469,
				"y": -0.5630156563,
				"z": 0.6467891294,
				"element": "N" 
			},
			{
				"x": -2.2666913819,
				"y": -1.581935369,
				"z": 0.024614073,
				"element": "O" 
			},
			{
				"x": -3.707642531,
				"y": -0.1904719874,
				"z": 0.8928008784,
				"element": "O" 
			},
			{
				"x": 1.2499804513,
				"y": 0.3446642156,
				"z": -1.6475465133,
				"element": "H" 
			},
			{
				"x": -0.2638884143,
				"y": -0.4974542426,
				"z": -0.4880553218,
				"element": "H" 
			},
			{
				"x": 1.4995776569,
				"y": 2.4763125993,
				"z": 2.0938315729,
				"element": "H" 
			}
		],
		 "valence_orbital": [ 
			{
				"type": "occ",
				"energy": -0.33366,
				"method": "rhf"
			},
			{
				"type": "occ",
				"energy": -0.31685,
				"method": "rhf"
			},
			{
				"type": "occ",
				"energy": -0.31486,
				"method": "rhf"
			},
			{
				"type": "occ",
				"energy": -0.30385,
				"method": "rhf"
			},
			{
				"type": "occ",
				"energy": -0.29842,
				"method": "rhf"
			},
			{
				"type": "unocc",
				"energy": -0.12045,
				"method": "rhf"
			},
			{
				"type": "unocc",
				"energy": -0.09659,
				"method": "rhf"
			},
			{
				"type": "unocc",
				"energy": -0.05718,
				"method": "rhf"
			},
			{
				"type": "unocc",
				"energy": -0.00198,
				"method": "rhf"
			},
			{
				"type": "unocc",
				"energy": 0.00989,
				"method": "rhf"
			}
		],
		"cosmo_sigma_profile": { 
			"-0.025": 0.0,
			"-0.024": 0.0,
			"-0.023": 0.0,
			"-0.022": 0.0,
			"-0.021": 0.59048552848,
			"-0.02": 1.19019007442,
			"-0.019": 1.11766286449,
			"-0.018": 1.61364833756,
			"-0.017": 0.626251629039,
			"-0.016": 1.13451720892,
			"-0.015": 1.06166007167,
			"-0.014": 0.733476087358,
			"-0.013": 1.92292072435,
			"-0.012": 1.09421084777,
			"-0.011": 0.732312732935,
			"-0.01": 2.62355384882,
			"-0.009": 4.84506296748,
			"-0.008": 4.69519434838,
			"-0.007": 5.72275751414,
			"-0.006": 9.93542367618,
			"-0.005": 13.2246079005,
			"-0.004": 12.1656063988,
			"-0.003": 10.3913596107,
			"-0.002": 8.56599030676,
			"-0.001": 7.7595963011,
			"0.0": 7.76071436598,
			"0.001": 10.0532261102,
			"0.002": 10.6173777423,
			"0.003": 10.3207972135,
			"0.004": 8.37275239625,
			"0.005": 6.2238552763,
			"0.006": 12.7933905946,
			"0.007": 13.5288205651,
			"0.008": 7.68078918121,
			"0.009": 7.67656783626,
			"0.01": 5.25922109034,
			"0.011": 5.18426467497,
			"0.012": 1.97147019401,
			"0.013": 0.0103165892241,
			"0.014": 0.0,
			"0.015": 0.0,
			"0.016": 0.0,
			"0.017": 0.0,
			"0.018": 0.0,
			"0.019": 0.0,
			"0.02": 0.0,
			"0.021": 0.0,
			"0.022": 0.0,
			"0.023": 0.0,
			"0.024": 0.0,
			"0.025": 0.0
		}
	}
}
