{
	 "smiles": "CNC(=O)CC1=NOC(CCl)=N1", 
	 "Tm": 363.15, 
	 "num_atms": 20, 
	 "gaussian": { 
		 "optdone": 1, 
		 "sigma_profile": "yes", 
		 "theory": "DFT", 
		 "functional": "B3LYP", 
		 "basiset": "6-31G**", 
		 "properties": { 
			 "R2extent": 4557.7232, 
			 "electric_dipole_moment_norm": 5.54300184106, 
			 "electric_quadrupole_moment_norm": 15.2166587226, 
			 "total_energy": -1008.32152991, 
			 "HOMO_LUMO_gap": 0.19011, 
			 "cosmo_polarized_energy": -17.38, 
			 "cosmo_cavitation_energy": 26.92, 
			 "cosmo_dispersion_energy": -19.43, 
			 "cosmo_repulsion_energy": 1.61, 
			 "cosmo_total_nonelectrostatic_energy": 9.1, 
			 "SMD_solvation_energy": 3.33 
		},
		"coords": [
			{
				"x": 0.6021681321,
				"y": -0.5501991187,
				"z": 1.2952009804,
				"element": "C" 
			},
			{
				"x": 1.64826688,
				"y": -1.0917548801,
				"z": 0.4382552593,
				"element": "N" 
			},
			{
				"x": 2.0322841666,
				"y": -0.6713017587,
				"z": -0.8010528585,
				"element": "C" 
			},
			{
				"x": 2.9332311897,
				"y": -1.2138009567,
				"z": -1.4238569342,
				"element": "O" 
			},
			{
				"x": 1.2791199876,
				"y": 0.5346309314,
				"z": -1.3997469677,
				"element": "C" 
			},
			{
				"x": 0.1000993415,
				"y": 0.1144204802,
				"z": -2.2191658237,
				"element": "C" 
			},
			{
				"x": 0.0700159487,
				"y": 0.2565740962,
				"z": -3.5224443681,
				"element": "N" 
			},
			{
				"x": -1.1888844633,
				"y": -0.2556370129,
				"z": -3.8758873437,
				"element": "O" 
			},
			{
				"x": -1.7730502517,
				"y": -0.6511147863,
				"z": -2.736486404,
				"element": "C" 
			},
			{
				"x": -3.1347711978,
				"y": -1.243632176,
				"z": -2.8041775999,
				"element": "C" 
			},
			{
				"x": -3.0796101648,
				"y": -2.9993055337,
				"z": -3.2629486947,
				"element": "Cl" 
			},
			{
				"x": -1.040573293,
				"y": -0.4492964929,
				"z": -1.6807020778,
				"element": "N" 
			},
			{
				"x": 0.890435641,
				"y": 0.4040375116,
				"z": 1.7559699905,
				"element": "H" 
			},
			{
				"x": 0.4161206189,
				"y": -1.2646943115,
				"z": 2.0998264157,
				"element": "H" 
			},
			{
				"x": -0.3303577375,
				"y": -0.4193115397,
				"z": 0.7412476847,
				"element": "H" 
			},
			{
				"x": 2.1931832445,
				"y": -1.873398924,
				"z": 0.7758567244,
				"element": "H" 
			},
			{
				"x": 1.9888674005,
				"y": 1.0453457207,
				"z": -2.0512840076,
				"element": "H" 
			},
			{
				"x": 0.9431149564,
				"y": 1.2287706595,
				"z": -0.6232718305,
				"element": "H" 
			},
			{
				"x": -3.6052021382,
				"y": -1.1786602408,
				"z": -1.8249114833,
				"element": "H" 
			},
			{
				"x": -3.7413582612,
				"y": -0.7399716676,
				"z": -3.5565206612,
				"element": "H" 
			}
		],
		 "valence_orbital": [ 
			{
				"type": "occ",
				"energy": -0.31808,
				"method": "rhf"
			},
			{
				"type": "occ",
				"energy": -0.31273,
				"method": "rhf"
			},
			{
				"type": "occ",
				"energy": -0.30226,
				"method": "rhf"
			},
			{
				"type": "occ",
				"energy": -0.25345,
				"method": "rhf"
			},
			{
				"type": "occ",
				"energy": -0.25023,
				"method": "rhf"
			},
			{
				"type": "unocc",
				"energy": -0.06012,
				"method": "rhf"
			},
			{
				"type": "unocc",
				"energy": -0.00097,
				"method": "rhf"
			},
			{
				"type": "unocc",
				"energy": 0.02624,
				"method": "rhf"
			},
			{
				"type": "unocc",
				"energy": 0.04372,
				"method": "rhf"
			},
			{
				"type": "unocc",
				"energy": 0.07043,
				"method": "rhf"
			}
		],
		"cosmo_sigma_profile": { 
			"-0.025": 0.0,
			"-0.024": 0.0,
			"-0.023": 0.0,
			"-0.022": 0.0,
			"-0.021": 0.0,
			"-0.02": 0.0,
			"-0.019": 0.0,
			"-0.018": 0.0,
			"-0.017": 0.0,
			"-0.016": 0.0,
			"-0.015": 0.0,
			"-0.014": 0.574741432203,
			"-0.013": 1.35762509952,
			"-0.012": 1.23345906109,
			"-0.011": 1.08096434149,
			"-0.01": 4.94820187595,
			"-0.009": 5.93016738672,
			"-0.008": 6.70380590804,
			"-0.007": 10.821203021,
			"-0.006": 11.3358788743,
			"-0.005": 12.868967538,
			"-0.004": 13.0092702425,
			"-0.003": 13.6980406733,
			"-0.002": 15.8976130383,
			"-0.001": 10.8790163639,
			"0.0": 9.03865199921,
			"0.001": 10.4248343748,
			"0.002": 10.8624143567,
			"0.003": 11.339358017,
			"0.004": 13.1686049327,
			"0.005": 15.3280972236,
			"0.006": 6.80080522517,
			"0.007": 4.4005702033,
			"0.008": 3.72717218387,
			"0.009": 2.5209286085,
			"0.01": 2.79073690879,
			"0.011": 2.738522657,
			"0.012": 3.03156664409,
			"0.013": 4.55514020775,
			"0.014": 4.84915273792,
			"0.015": 0.552406827429,
			"0.016": 0.0,
			"0.017": 0.0,
			"0.018": 0.0,
			"0.019": 0.0,
			"0.02": 0.0,
			"0.021": 0.0,
			"0.022": 0.0,
			"0.023": 0.0,
			"0.024": 0.0,
			"0.025": 0.0
		}
	}
}
