{
	 "smiles": "CC(CSC1=C(N)C=CC=C1)C#N", 
	 "Tm": 339.15, 
	 "num_atms": 25, 
	 "gaussian": { 
		 "optdone": 1, 
		 "sigma_profile": "yes", 
		 "theory": "DFT", 
		 "functional": "B3LYP", 
		 "basiset": "6-31G**", 
		 "properties": { 
			 "R2extent": 3589.4369, 
			 "electric_dipole_moment_norm": 5.46659604233, 
			 "electric_quadrupole_moment_norm": 12.481991543, 
			 "total_energy": -895.977544842, 
			 "HOMO_LUMO_gap": 0.19477, 
			 "cosmo_polarized_energy": -14.88, 
			 "cosmo_cavitation_energy": 30.75, 
			 "cosmo_dispersion_energy": -21.68, 
			 "cosmo_repulsion_energy": 1.71, 
			 "cosmo_total_nonelectrostatic_energy": 10.78, 
			 "SMD_solvation_energy": 6.23 
		},
		"coords": [
			{
				"x": 2.8903849353,
				"y": 1.0614298749,
				"z": -1.9469048864,
				"element": "C" 
			},
			{
				"x": 1.4767654348,
				"y": 0.4410504197,
				"z": -1.9153245427,
				"element": "C" 
			},
			{
				"x": 0.9678614413,
				"y": 0.3006984514,
				"z": -0.4676381019,
				"element": "C" 
			},
			{
				"x": -0.6338669986,
				"y": -0.6214055577,
				"z": -0.394288715,
				"element": "S" 
			},
			{
				"x": -0.7853807164,
				"y": -0.8366008505,
				"z": 1.3778662807,
				"element": "C" 
			},
			{
				"x": -0.0068987068,
				"y": -1.8089111457,
				"z": 2.0528644265,
				"element": "C" 
			},
			{
				"x": 0.9500754192,
				"y": -2.5551765136,
				"z": 1.3704242238,
				"element": "N" 
			},
			{
				"x": -0.1823480782,
				"y": -1.960014526,
				"z": 3.4400786437,
				"element": "C" 
			},
			{
				"x": -1.1083124258,
				"y": -1.1856690062,
				"z": 4.1316457556,
				"element": "C" 
			},
			{
				"x": -1.8866158562,
				"y": -0.2376265922,
				"z": 3.4624310531,
				"element": "C" 
			},
			{
				"x": -1.7155420504,
				"y": -0.0697058564,
				"z": 2.0896521731,
				"element": "C" 
			},
			{
				"x": 0.5568154693,
				"y": 1.2388210156,
				"z": -2.7435919846,
				"element": "C" 
			},
			{
				"x": -0.1421754566,
				"y": 1.8872364458,
				"z": -3.4057868493,
				"element": "N" 
			},
			{
				"x": 3.5846663679,
				"y": 0.4300990576,
				"z": -1.3851643548,
				"element": "H" 
			},
			{
				"x": 2.8872957616,
				"y": 2.0589175453,
				"z": -1.4985348707,
				"element": "H" 
			},
			{
				"x": 3.2537066473,
				"y": 1.1492238261,
				"z": -2.9738863573,
				"element": "H" 
			},
			{
				"x": 1.5217124691,
				"y": -0.5596255615,
				"z": -2.3650178008,
				"element": "H" 
			},
			{
				"x": 1.7083172899,
				"y": -0.2553702169,
				"z": 0.1131582985,
				"element": "H" 
			},
			{
				"x": 0.8306052522,
				"y": 1.2863538964,
				"z": -0.0152479365,
				"element": "H" 
			},
			{
				"x": 1.2182191532,
				"y": -3.4174891359,
				"z": 1.8251653118,
				"element": "H" 
			},
			{
				"x": 0.7391303962,
				"y": -2.6791604876,
				"z": 0.3860615014,
				"element": "H" 
			},
			{
				"x": 0.415711677,
				"y": -2.6975177878,
				"z": 3.9701033182,
				"element": "H" 
			},
			{
				"x": -1.2253644324,
				"y": -1.3286818715,
				"z": 5.2022964326,
				"element": "H" 
			},
			{
				"x": -2.6120825841,
				"y": 0.3632376991,
				"z": 4.0011870328,
				"element": "H" 
			},
			{
				"x": -2.3057804088,
				"y": 0.6621868776,
				"z": 1.5469519483,
				"element": "H" 
			}
		],
		 "valence_orbital": [ 
			{
				"type": "occ",
				"energy": -0.31843,
				"method": "rhf"
			},
			{
				"type": "occ",
				"energy": -0.31403,
				"method": "rhf"
			},
			{
				"type": "occ",
				"energy": -0.25608,
				"method": "rhf"
			},
			{
				"type": "occ",
				"energy": -0.23623,
				"method": "rhf"
			},
			{
				"type": "occ",
				"energy": -0.21246,
				"method": "rhf"
			},
			{
				"type": "unocc",
				"energy": -0.01769,
				"method": "rhf"
			},
			{
				"type": "unocc",
				"energy": 0.00542,
				"method": "rhf"
			},
			{
				"type": "unocc",
				"energy": 0.02912,
				"method": "rhf"
			},
			{
				"type": "unocc",
				"energy": 0.03354,
				"method": "rhf"
			},
			{
				"type": "unocc",
				"energy": 0.04455,
				"method": "rhf"
			}
		],
		"cosmo_sigma_profile": { 
			"-0.025": 0.0,
			"-0.024": 0.0,
			"-0.023": 0.0,
			"-0.022": 0.0,
			"-0.021": 0.0,
			"-0.02": 0.0,
			"-0.019": 0.0,
			"-0.018": 0.0,
			"-0.017": 0.0,
			"-0.016": 0.0,
			"-0.015": 0.0,
			"-0.014": 0.0,
			"-0.013": 0.404160746198,
			"-0.012": 1.59358687032,
			"-0.011": 1.3803336784,
			"-0.01": 2.12808540916,
			"-0.009": 2.94923894682,
			"-0.008": 4.4704781158,
			"-0.007": 6.61121783289,
			"-0.006": 13.6426945783,
			"-0.005": 23.3956391818,
			"-0.004": 19.7288163718,
			"-0.003": 18.8456480676,
			"-0.002": 16.4926386932,
			"-0.001": 16.7744762322,
			"0.0": 12.9374552879,
			"0.001": 10.299616327,
			"0.002": 11.2552428836,
			"0.003": 12.3334658626,
			"0.004": 13.2439485164,
			"0.005": 14.319438025,
			"0.006": 14.0430530669,
			"0.007": 6.03523562631,
			"0.008": 5.30402859621,
			"0.009": 4.98330301467,
			"0.01": 3.99681746508,
			"0.011": 3.59987543717,
			"0.012": 2.72804046023,
			"0.013": 2.00380601442,
			"0.014": 0.306750965209,
			"0.015": 0.0,
			"0.016": 0.0,
			"0.017": 0.0,
			"0.018": 0.0,
			"0.019": 0.0,
			"0.02": 0.0,
			"0.021": 0.0,
			"0.022": 0.0,
			"0.023": 0.0,
			"0.024": 0.0,
			"0.025": 0.0
		}
	}
}
