{
	 "smiles": "OC(=O)C1=CC2=C(C=C1)C=C(Br)C=C2", 
	 "Tm": 567.15, 
	 "num_atms": 21, 
	 "gaussian": { 
		 "optdone": 1, 
		 "sigma_profile": "yes", 
		 "theory": "DFT", 
		 "functional": "B3LYP", 
		 "basiset": "6-31G**", 
		 "properties": { 
			 "R2extent": 5687.519, 
			 "electric_dipole_moment_norm": 3.45965357514, 
			 "electric_quadrupole_moment_norm": 29.829527511, 
			 "total_energy": -3145.26085149, 
			 "HOMO_LUMO_gap": 0.16515, 
			 "cosmo_polarized_energy": -14.66, 
			 "cosmo_cavitation_energy": 28.18, 
			 "cosmo_dispersion_energy": -21.3, 
			 "cosmo_repulsion_energy": 1.64, 
			 "cosmo_total_nonelectrostatic_energy": 8.51, 
			 "SMD_solvation_energy": 4.5 
		},
		"coords": [
			{
				"x": 4.4939146335,
				"y": 1.5788643404,
				"z": 1.3083590709,
				"element": "O" 
			},
			{
				"x": 4.0320411869,
				"y": 0.3093527899,
				"z": 1.1463088889,
				"element": "C" 
			},
			{
				"x": 4.794486055,
				"y": -0.6243962111,
				"z": 1.2333983005,
				"element": "O" 
			},
			{
				"x": 2.5685344665,
				"y": 0.1559750132,
				"z": 0.8580776591,
				"element": "C" 
			},
			{
				"x": 2.1490326724,
				"y": -1.0372711005,
				"z": 0.2998511759,
				"element": "C" 
			},
			{
				"x": 0.7872444386,
				"y": -1.2612126178,
				"z": -0.0129889006,
				"element": "C" 
			},
			{
				"x": -0.171246799,
				"y": -0.2351426274,
				"z": 0.2740169033,
				"element": "C" 
			},
			{
				"x": 0.2786053936,
				"y": 0.9731611548,
				"z": 0.8715955498,
				"element": "C" 
			},
			{
				"x": 1.6104100857,
				"y": 1.1651921534,
				"z": 1.1544953143,
				"element": "C" 
			},
			{
				"x": -1.5390100631,
				"y": -0.4557739343,
				"z": -0.0372932981,
				"element": "C" 
			},
			{
				"x": -1.9249149194,
				"y": -1.6453596834,
				"z": -0.6079414843,
				"element": "C" 
			},
			{
				"x": -3.7628566682,
				"y": -1.9432703929,
				"z": -1.0283767387,
				"element": "Br" 
			},
			{
				"x": -0.9913921935,
				"y": -2.6700601144,
				"z": -0.8973700991,
				"element": "C" 
			},
			{
				"x": 0.3372502988,
				"y": -2.4743576379,
				"z": -0.6027070265,
				"element": "C" 
			},
			{
				"x": 3.8167617534,
				"y": 2.2192704455,
				"z": 1.0505580121,
				"element": "H" 
			},
			{
				"x": 2.8886293154,
				"y": -1.8064232141,
				"z": 0.100392071,
				"element": "H" 
			},
			{
				"x": -0.4488362766,
				"y": 1.7431889281,
				"z": 1.1123055191,
				"element": "H" 
			},
			{
				"x": 1.9140134046,
				"y": 2.0843801316,
				"z": 1.6495949439,
				"element": "H" 
			},
			{
				"x": -2.2701988482,
				"y": 0.3159404423,
				"z": 0.1775948954,
				"element": "H" 
			},
			{
				"x": -1.3335092488,
				"y": -3.5951544586,
				"z": -1.346475657,
				"element": "H" 
			},
			{
				"x": 1.0620413125,
				"y": -3.2538034067,
				"z": -0.8199950999,
				"element": "H" 
			}
		],
		 "valence_orbital": [ 
			{
				"type": "occ",
				"energy": -0.30018,
				"method": "rhf"
			},
			{
				"type": "occ",
				"energy": -0.29783,
				"method": "rhf"
			},
			{
				"type": "occ",
				"energy": -0.27637,
				"method": "rhf"
			},
			{
				"type": "occ",
				"energy": -0.26139,
				"method": "rhf"
			},
			{
				"type": "occ",
				"energy": -0.23794,
				"method": "rhf"
			},
			{
				"type": "unocc",
				"energy": -0.07279,
				"method": "rhf"
			},
			{
				"type": "unocc",
				"energy": -0.0495,
				"method": "rhf"
			},
			{
				"type": "unocc",
				"energy": -0.0036,
				"method": "rhf"
			},
			{
				"type": "unocc",
				"energy": 0.00136,
				"method": "rhf"
			},
			{
				"type": "unocc",
				"energy": 0.02409,
				"method": "rhf"
			}
		],
		"cosmo_sigma_profile": { 
			"-0.025": 0.0,
			"-0.024": 0.0,
			"-0.023": 0.0,
			"-0.022": 0.0,
			"-0.021": 0.0,
			"-0.02": 0.0,
			"-0.019": 0.233883229413,
			"-0.018": 0.892314033169,
			"-0.017": 0.559741394062,
			"-0.016": 1.35955178065,
			"-0.015": 0.801031733597,
			"-0.014": 1.6043302051,
			"-0.013": 0.613017688973,
			"-0.012": 1.02167181994,
			"-0.011": 1.1359649572,
			"-0.01": 1.47974942255,
			"-0.009": 0.722542434989,
			"-0.008": 5.31464025263,
			"-0.007": 12.4187034205,
			"-0.006": 10.5752889114,
			"-0.005": 10.5040293817,
			"-0.004": 10.4117031626,
			"-0.003": 9.82506348847,
			"-0.002": 12.0325069166,
			"-0.001": 12.5840990943,
			"0.0": 13.6161702624,
			"0.001": 26.6879369874,
			"0.002": 33.3995019536,
			"0.003": 16.6109239529,
			"0.004": 13.5247769171,
			"0.005": 5.13530883533,
			"0.006": 2.69750863617,
			"0.007": 2.22894462264,
			"0.008": 2.53899752861,
			"0.009": 2.94875191549,
			"0.01": 5.11565410965,
			"0.011": 5.08844135237,
			"0.012": 5.05016497369,
			"0.013": 1.50447668979,
			"0.014": 0.0,
			"0.015": 0.0,
			"0.016": 0.0,
			"0.017": 0.0,
			"0.018": 0.0,
			"0.019": 0.0,
			"0.02": 0.0,
			"0.021": 0.0,
			"0.022": 0.0,
			"0.023": 0.0,
			"0.024": 0.0,
			"0.025": 0.0
		}
	}
}
