{
	 "smiles": "[O-][N+](=O)C1=C(C=O)C=C(Cl)C=C1", 
	 "Tm": 349.15, 
	 "num_atms": 16, 
	 "gaussian": { 
		 "optdone": 1, 
		 "sigma_profile": "yes", 
		 "theory": "DFT", 
		 "functional": "B3LYP", 
		 "basiset": "6-31G**", 
		 "properties": { 
			 "R2extent": 2953.1683, 
			 "electric_dipole_moment_norm": 4.81576859286, 
			 "electric_quadrupole_moment_norm": 14.2388752618, 
			 "total_energy": -1009.64163448, 
			 "HOMO_LUMO_gap": 0.17196, 
			 "cosmo_polarized_energy": -13.24, 
			 "cosmo_cavitation_energy": 23.98, 
			 "cosmo_dispersion_energy": -17.31, 
			 "cosmo_repulsion_energy": 1.38, 
			 "cosmo_total_nonelectrostatic_energy": 8.04, 
			 "SMD_solvation_energy": 7.23 
		},
		"coords": [
			{
				"x": 0.5054228374,
				"y": -0.4959043561,
				"z": 3.9670742127,
				"element": "O" 
			},
			{
				"x": -0.1764343208,
				"y": -0.6379658969,
				"z": 2.9546147844,
				"element": "N" 
			},
			{
				"x": -1.0937402146,
				"y": -1.4353646418,
				"z": 2.8074222116,
				"element": "O" 
			},
			{
				"x": 0.0863480446,
				"y": 0.2995804446,
				"z": 1.845225788,
				"element": "C" 
			},
			{
				"x": 0.1586140867,
				"y": -0.1307354227,
				"z": 0.5104849922,
				"element": "C" 
			},
			{
				"x": 0.2479461617,
				"y": -1.5593746896,
				"z": 0.0776171856,
				"element": "C" 
			},
			{
				"x": 0.5803225598,
				"y": -2.4782623864,
				"z": 0.7898784224,
				"element": "O" 
			},
			{
				"x": 0.2834767531,
				"y": 0.8405070448,
				"z": -0.4880443431,
				"element": "C" 
			},
			{
				"x": 0.3532676844,
				"y": 2.1934976897,
				"z": -0.1556896863,
				"element": "C" 
			},
			{
				"x": 0.5076306843,
				"y": 3.3852408875,
				"z": -1.4256379226,
				"element": "Cl" 
			},
			{
				"x": 0.3103571448,
				"y": 2.6041592426,
				"z": 1.1759353243,
				"element": "C" 
			},
			{
				"x": 0.1803429221,
				"y": 1.6446524433,
				"z": 2.1803859078,
				"element": "C" 
			},
			{
				"x": 0.032589782,
				"y": -1.7078085955,
				"z": -1.0025081645,
				"element": "H" 
			},
			{
				"x": 0.3494963064,
				"y": 0.5338112292,
				"z": -1.5273650401,
				"element": "H" 
			},
			{
				"x": 0.3716593216,
				"y": 3.6572255374,
				"z": 1.4253927783,
				"element": "H" 
			},
			{
				"x": 0.1386002465,
				"y": 1.9351414699,
				"z": 3.2237135493,
				"element": "H" 
			}
		],
		 "valence_orbital": [ 
			{
				"type": "occ",
				"energy": -0.31542,
				"method": "rhf"
			},
			{
				"type": "occ",
				"energy": -0.31166,
				"method": "rhf"
			},
			{
				"type": "occ",
				"energy": -0.30369,
				"method": "rhf"
			},
			{
				"type": "occ",
				"energy": -0.28139,
				"method": "rhf"
			},
			{
				"type": "occ",
				"energy": -0.27711,
				"method": "rhf"
			},
			{
				"type": "unocc",
				"energy": -0.10515,
				"method": "rhf"
			},
			{
				"type": "unocc",
				"energy": -0.07472,
				"method": "rhf"
			},
			{
				"type": "unocc",
				"energy": -0.042,
				"method": "rhf"
			},
			{
				"type": "unocc",
				"energy": -0.00288,
				"method": "rhf"
			},
			{
				"type": "unocc",
				"energy": 0.00498,
				"method": "rhf"
			}
		],
		"cosmo_sigma_profile": { 
			"-0.025": 0.0,
			"-0.024": 0.0,
			"-0.023": 0.0,
			"-0.022": 0.0,
			"-0.021": 0.0,
			"-0.02": 0.0,
			"-0.019": 0.0,
			"-0.018": 0.0,
			"-0.017": 0.0,
			"-0.016": 0.0,
			"-0.015": 0.0,
			"-0.014": 0.0,
			"-0.013": 0.0,
			"-0.012": 0.0,
			"-0.011": 0.758692694501,
			"-0.01": 3.20599379594,
			"-0.009": 8.41062148906,
			"-0.008": 8.60069225992,
			"-0.007": 8.69873896288,
			"-0.006": 6.5825582116,
			"-0.005": 7.61857259242,
			"-0.004": 7.45018504467,
			"-0.003": 11.6202219158,
			"-0.002": 18.0335043091,
			"-0.001": 20.167358857,
			"0.0": 10.6115836681,
			"0.001": 8.5299800154,
			"0.002": 9.13803739416,
			"0.003": 13.9231874598,
			"0.004": 7.74633940491,
			"0.005": 3.70629751333,
			"0.006": 6.31316331617,
			"0.007": 13.6031052192,
			"0.008": 8.66071948226,
			"0.009": 6.38734698153,
			"0.01": 3.9952854995,
			"0.011": 1.67803814655,
			"0.012": 0.354514012146,
			"0.013": 0.0,
			"0.014": 0.0,
			"0.015": 0.0,
			"0.016": 0.0,
			"0.017": 0.0,
			"0.018": 0.0,
			"0.019": 0.0,
			"0.02": 0.0,
			"0.021": 0.0,
			"0.022": 0.0,
			"0.023": 0.0,
			"0.024": 0.0,
			"0.025": 0.0
		}
	}
}
