{
	 "smiles": "C(NC1=CN=CC=C1)C1=CC=CO1", 
	 "Tm": 320.15, 
	 "num_atms": 23, 
	 "gaussian": { 
		 "optdone": 1, 
		 "sigma_profile": "yes", 
		 "theory": "DFT", 
		 "functional": "B3LYP", 
		 "basiset": "6-31G**", 
		 "properties": { 
			 "R2extent": 3558.9891, 
			 "electric_dipole_moment_norm": 3.5048504961, 
			 "electric_quadrupole_moment_norm": 11.1398556948, 
			 "total_energy": -571.778669689, 
			 "HOMO_LUMO_gap": 0.1931, 
			 "cosmo_polarized_energy": -11.74, 
			 "cosmo_cavitation_energy": 27.43, 
			 "cosmo_dispersion_energy": -19.62, 
			 "cosmo_repulsion_energy": 1.55, 
			 "cosmo_total_nonelectrostatic_energy": 9.36, 
			 "SMD_solvation_energy": 3.19 
		},
		"coords": [
			{
				"x": -1.2755149816,
				"y": -1.4972768762,
				"z": -1.7636993649,
				"element": "C" 
			},
			{
				"x": -1.3828020714,
				"y": -1.7913883867,
				"z": -0.3377514234,
				"element": "N" 
			},
			{
				"x": -0.5498984635,
				"y": -1.2072411062,
				"z": 0.6129919783,
				"element": "C" 
			},
			{
				"x": -0.4374815862,
				"y": -1.7998687124,
				"z": 1.8897692712,
				"element": "C" 
			},
			{
				"x": 0.2764521302,
				"y": -1.2987591337,
				"z": 2.8929842331,
				"element": "N" 
			},
			{
				"x": 0.9389926259,
				"y": -0.1519354034,
				"z": 2.6806003726,
				"element": "C" 
			},
			{
				"x": 0.9055448223,
				"y": 0.5151969149,
				"z": 1.4581639727,
				"element": "C" 
			},
			{
				"x": 0.1594897747,
				"y": -0.0142020176,
				"z": 0.4065311051,
				"element": "C" 
			},
			{
				"x": -0.0175759708,
				"y": -1.9654638184,
				"z": -2.43066311,
				"element": "C" 
			},
			{
				"x": 0.9985860832,
				"y": -1.3395893543,
				"z": -3.0909480383,
				"element": "C" 
			},
			{
				"x": 1.914192811,
				"y": -2.3648456849,
				"z": -3.5029679418,
				"element": "C" 
			},
			{
				"x": 1.3886859988,
				"y": -3.5380190771,
				"z": -3.059122524,
				"element": "C" 
			},
			{
				"x": 0.2103392497,
				"y": -3.3163286549,
				"z": -2.4067883075,
				"element": "O" 
			},
			{
				"x": -1.3752710635,
				"y": -0.4195049738,
				"z": -1.9238450191,
				"element": "H" 
			},
			{
				"x": -2.1446641604,
				"y": -1.9614110682,
				"z": -2.2440961399,
				"element": "H" 
			},
			{
				"x": -1.5904627579,
				"y": -2.7626149803,
				"z": -0.1464142906,
				"element": "H" 
			},
			{
				"x": -0.9685816728,
				"y": -2.7324059965,
				"z": 2.0893207414,
				"element": "H" 
			},
			{
				"x": 1.5161392766,
				"y": 0.2380864372,
				"z": 3.5159439751,
				"element": "H" 
			},
			{
				"x": 1.4623214573,
				"y": 1.4377860778,
				"z": 1.3226160566,
				"element": "H" 
			},
			{
				"x": 0.1364158922,
				"y": 0.4921470085,
				"z": -0.5518251032,
				"element": "H" 
			},
			{
				"x": 1.0873687333,
				"y": -0.2766270817,
				"z": -3.2658570216,
				"element": "H" 
			},
			{
				"x": 2.8375408808,
				"y": -2.2388299807,
				"z": -4.0496842063,
				"element": "H" 
			},
			{
				"x": 1.707582992,
				"y": -4.5671041314,
				"z": -3.1175592155,
				"element": "H" 
			}
		],
		 "valence_orbital": [ 
			{
				"type": "occ",
				"energy": -0.28187,
				"method": "rhf"
			},
			{
				"type": "occ",
				"energy": -0.2685,
				"method": "rhf"
			},
			{
				"type": "occ",
				"energy": -0.24336,
				"method": "rhf"
			},
			{
				"type": "occ",
				"energy": -0.22884,
				"method": "rhf"
			},
			{
				"type": "occ",
				"energy": -0.20476,
				"method": "rhf"
			},
			{
				"type": "unocc",
				"energy": -0.01166,
				"method": "rhf"
			},
			{
				"type": "unocc",
				"energy": 0.00637,
				"method": "rhf"
			},
			{
				"type": "unocc",
				"energy": 0.01155,
				"method": "rhf"
			},
			{
				"type": "unocc",
				"energy": 0.0658,
				"method": "rhf"
			},
			{
				"type": "unocc",
				"energy": 0.08215,
				"method": "rhf"
			}
		],
		"cosmo_sigma_profile": { 
			"-0.025": 0.0,
			"-0.024": 0.0,
			"-0.023": 0.0,
			"-0.022": 0.0,
			"-0.021": 0.0,
			"-0.02": 0.0,
			"-0.019": 0.0,
			"-0.018": 0.0,
			"-0.017": 0.0,
			"-0.016": 0.0,
			"-0.015": 0.0,
			"-0.014": 0.0,
			"-0.013": 0.691644489536,
			"-0.012": 0.927365281882,
			"-0.011": 1.58783844111,
			"-0.01": 1.43958811512,
			"-0.009": 2.21718014036,
			"-0.008": 4.37437991681,
			"-0.007": 8.72201737235,
			"-0.006": 16.673343715,
			"-0.005": 15.2427396242,
			"-0.004": 16.3431150302,
			"-0.003": 14.22469446,
			"-0.002": 12.5619271014,
			"-0.001": 10.2734087189,
			"0.0": 9.44097414433,
			"0.001": 11.0967896363,
			"0.002": 12.4746545774,
			"0.003": 18.6586286024,
			"0.004": 22.3591897817,
			"0.005": 13.6239441542,
			"0.006": 9.13088026698,
			"0.007": 3.30622669979,
			"0.008": 2.82171048522,
			"0.009": 2.67896705546,
			"0.01": 1.76371180827,
			"0.011": 1.22805932438,
			"0.012": 1.15316885808,
			"0.013": 0.837147182601,
			"0.014": 0.921551438612,
			"0.015": 1.02398544503,
			"0.016": 0.908577858189,
			"0.017": 0.673850847655,
			"0.018": 0.0931739264292,
			"0.019": 0.0,
			"0.02": 0.0,
			"0.021": 0.0,
			"0.022": 0.0,
			"0.023": 0.0,
			"0.024": 0.0,
			"0.025": 0.0
		}
	}
}
