{
	 "smiles": "CCOC(=O)C(=NN1N=NC2=C1C=CC=C2)C(=O)OCC", 
	 "Tm": 373.15, 
	 "num_atms": 35, 
	 "gaussian": { 
		 "optdone": 1, 
		 "sigma_profile": "yes", 
		 "theory": "DFT", 
		 "functional": "B3LYP", 
		 "basiset": "6-31G**", 
		 "properties": { 
			 "R2extent": 7757.7664, 
			 "electric_dipole_moment_norm": 2.1560629629, 
			 "electric_quadrupole_moment_norm": 24.9894562488, 
			 "total_energy": -1023.65495855, 
			 "HOMO_LUMO_gap": 0.15558, 
			 "cosmo_polarized_energy": -15.42, 
			 "cosmo_cavitation_energy": 41.68, 
			 "cosmo_dispersion_energy": -28.29, 
			 "cosmo_repulsion_energy": 2.24, 
			 "cosmo_total_nonelectrostatic_energy": 15.63, 
			 "SMD_solvation_energy": 7.11 
		},
		"coords": [
			{
				"x": -0.4793177861,
				"y": 3.3435688949,
				"z": 2.5841945117,
				"element": "C" 
			},
			{
				"x": -0.2146610648,
				"y": 1.8600787567,
				"z": 2.7476303224,
				"element": "C" 
			},
			{
				"x": -0.3013385415,
				"y": 1.2560097884,
				"z": 1.4300278478,
				"element": "O" 
			},
			{
				"x": -0.0788157658,
				"y": -0.0592761805,
				"z": 1.3833766057,
				"element": "C" 
			},
			{
				"x": 0.0849277549,
				"y": -0.7949862694,
				"z": 2.3285206216,
				"element": "O" 
			},
			{
				"x": -0.1046053528,
				"y": -0.5737511869,
				"z": -0.0440533097,
				"element": "C" 
			},
			{
				"x": 0.882050171,
				"y": -0.6868208991,
				"z": -0.859125083,
				"element": "N" 
			},
			{
				"x": 2.115414776,
				"y": -0.2485052762,
				"z": -0.5468064474,
				"element": "N" 
			},
			{
				"x": 2.4910933813,
				"y": 0.4082640696,
				"z": 0.6175575157,
				"element": "N" 
			},
			{
				"x": 3.7429469027,
				"y": 0.6793497465,
				"z": 0.5482757467,
				"element": "N" 
			},
			{
				"x": 4.2459193527,
				"y": 0.2148700987,
				"z": -0.6598956605,
				"element": "C" 
			},
			{
				"x": 3.2037511334,
				"y": -0.3858953034,
				"z": -1.3809035441,
				"element": "C" 
			},
			{
				"x": 3.3829603749,
				"y": -0.9534998319,
				"z": -2.644727587,
				"element": "C" 
			},
			{
				"x": 4.6726844589,
				"y": -0.8888149371,
				"z": -3.1575803416,
				"element": "C" 
			},
			{
				"x": 5.7370304907,
				"y": -0.2867420917,
				"z": -2.4439455684,
				"element": "C" 
			},
			{
				"x": 5.543196472,
				"y": 0.2726485484,
				"z": -1.1891917454,
				"element": "C" 
			},
			{
				"x": -1.4128514417,
				"y": -1.1122524594,
				"z": -0.567933805,
				"element": "C" 
			},
			{
				"x": -1.5632472835,
				"y": -1.6548620261,
				"z": -1.6380088248,
				"element": "O" 
			},
			{
				"x": -2.3840482712,
				"y": -0.888571635,
				"z": 0.3381530779,
				"element": "O" 
			},
			{
				"x": -3.713484199,
				"y": -1.356172306,
				"z": -0.0053679109,
				"element": "C" 
			},
			{
				"x": -4.4586374799,
				"y": -0.329028536,
				"z": -0.8435669795,
				"element": "C" 
			},
			{
				"x": -0.4184164859,
				"y": 3.8381079431,
				"z": 3.5586143209,
				"element": "H" 
			},
			{
				"x": -1.475731018,
				"y": 3.5216767019,
				"z": 2.1695759948,
				"element": "H" 
			},
			{
				"x": 0.2595451773,
				"y": 3.7998151254,
				"z": 1.9197046434,
				"element": "H" 
			},
			{
				"x": 0.7837430137,
				"y": 1.65832451,
				"z": 3.1464130795,
				"element": "H" 
			},
			{
				"x": -0.9460501486,
				"y": 1.3763061528,
				"z": 3.4019183072,
				"element": "H" 
			},
			{
				"x": 2.5609454404,
				"y": -1.4125991364,
				"z": -3.1812806002,
				"element": "H" 
			},
			{
				"x": 4.8727106826,
				"y": -1.3136506955,
				"z": -4.1366619772,
				"element": "H" 
			},
			{
				"x": 6.7245998998,
				"y": -0.266018267,
				"z": -2.8939704684,
				"element": "H" 
			},
			{
				"x": 6.3496965647,
				"y": 0.7361929423,
				"z": -0.6315827464,
				"element": "H" 
			},
			{
				"x": -4.1970900304,
				"y": -1.5188764425,
				"z": 0.9600650931,
				"element": "H" 
			},
			{
				"x": -3.6209280925,
				"y": -2.308318476,
				"z": -0.5328281084,
				"element": "H" 
			},
			{
				"x": -5.4820341706,
				"y": -0.6740943539,
				"z": -1.0239876515,
				"element": "H" 
			},
			{
				"x": -4.5064210761,
				"y": 0.6344845334,
				"z": -0.3280814743,
				"element": "H" 
			},
			{
				"x": -3.9681378388,
				"y": -0.1912615019,
				"z": -1.8101278547,
				"element": "H" 
			}
		],
		 "valence_orbital": [ 
			{
				"type": "occ",
				"energy": -0.29188,
				"method": "rhf"
			},
			{
				"type": "occ",
				"energy": -0.28119,
				"method": "rhf"
			},
			{
				"type": "occ",
				"energy": -0.26521,
				"method": "rhf"
			},
			{
				"type": "occ",
				"energy": -0.26418,
				"method": "rhf"
			},
			{
				"type": "occ",
				"energy": -0.24468,
				"method": "rhf"
			},
			{
				"type": "unocc",
				"energy": -0.0891,
				"method": "rhf"
			},
			{
				"type": "unocc",
				"energy": -0.04487,
				"method": "rhf"
			},
			{
				"type": "unocc",
				"energy": 0.0026,
				"method": "rhf"
			},
			{
				"type": "unocc",
				"energy": 0.00523,
				"method": "rhf"
			},
			{
				"type": "unocc",
				"energy": 0.0251,
				"method": "rhf"
			}
		],
		"cosmo_sigma_profile": { 
			"-0.025": 0.0,
			"-0.024": 0.0,
			"-0.023": 0.0,
			"-0.022": 0.0,
			"-0.021": 0.0,
			"-0.02": 0.0,
			"-0.019": 0.0,
			"-0.018": 0.0,
			"-0.017": 0.0,
			"-0.016": 0.0,
			"-0.015": 0.0,
			"-0.014": 0.0,
			"-0.013": 0.0,
			"-0.012": 0.0,
			"-0.011": 0.0,
			"-0.01": 0.0,
			"-0.009": 0.0,
			"-0.008": 2.03534782302,
			"-0.007": 7.85579503448,
			"-0.006": 15.8916340415,
			"-0.005": 26.3251014996,
			"-0.004": 38.62204203,
			"-0.003": 31.2166081601,
			"-0.002": 28.5893149829,
			"-0.001": 29.6137157953,
			"0.0": 28.1737414042,
			"0.001": 20.7714585767,
			"0.002": 18.380077432,
			"0.003": 16.3393059133,
			"0.004": 9.59222205779,
			"0.005": 9.65351199486,
			"0.006": 8.47880970256,
			"0.007": 7.16769572613,
			"0.008": 5.22917473116,
			"0.009": 5.71959333126,
			"0.01": 8.68634347849,
			"0.011": 8.80636202155,
			"0.012": 2.7643136228,
			"0.013": 2.24133852735,
			"0.014": 0.299735057983,
			"0.015": 0.0,
			"0.016": 0.0,
			"0.017": 0.0,
			"0.018": 0.0,
			"0.019": 0.0,
			"0.02": 0.0,
			"0.021": 0.0,
			"0.022": 0.0,
			"0.023": 0.0,
			"0.024": 0.0,
			"0.025": 0.0
		}
	}
}
