{
	 "smiles": "FC1=CC(=C(C=C1)S(Cl)(=O)=O)C(F)(F)F", 
	 "Tm": 323.15, 
	 "num_atms": 18, 
	 "gaussian": { 
		 "optdone": 1, 
		 "sigma_profile": "yes", 
		 "theory": "DFT", 
		 "functional": "B3LYP", 
		 "basiset": "6-31G**", 
		 "properties": { 
			 "R2extent": 4768.5599, 
			 "electric_dipole_moment_norm": 4.77520365639, 
			 "electric_quadrupole_moment_norm": 12.2628146765, 
			 "total_energy": -1676.6571946, 
			 "HOMO_LUMO_gap": 0.19734, 
			 "cosmo_polarized_energy": -9.23, 
			 "cosmo_cavitation_energy": 27.4, 
			 "cosmo_dispersion_energy": -20.18, 
			 "cosmo_repulsion_energy": 1.44, 
			 "cosmo_total_nonelectrostatic_energy": 8.65, 
			 "SMD_solvation_energy": 5.06 
		},
		"coords": [
			{
				"x": -1.2130231108,
				"y": 2.6173770105,
				"z": -0.8269425806,
				"element": "F" 
			},
			{
				"x": -1.0393451409,
				"y": 1.4703495032,
				"z": -0.1588753396,
				"element": "C" 
			},
			{
				"x": -0.7138653182,
				"y": 0.3251546705,
				"z": -0.879537561,
				"element": "C" 
			},
			{
				"x": -0.5275055072,
				"y": -0.8872676449,
				"z": -0.2170642865,
				"element": "C" 
			},
			{
				"x": -0.6712773546,
				"y": -0.9097296204,
				"z": 1.1861859323,
				"element": "C" 
			},
			{
				"x": -1.0037907358,
				"y": 0.2513054028,
				"z": 1.8900898483,
				"element": "C" 
			},
			{
				"x": -1.1892674848,
				"y": 1.4571282681,
				"z": 1.2202111401,
				"element": "C" 
			},
			{
				"x": -0.4372923795,
				"y": -2.3659626182,
				"z": 2.2304024622,
				"element": "S" 
			},
			{
				"x": -2.3227069348,
				"y": -3.327005023,
				"z": 2.058311525,
				"element": "Cl" 
			},
			{
				"x": 0.5620263062,
				"y": -3.2542269597,
				"z": 1.6607837293,
				"element": "O" 
			},
			{
				"x": -0.3561752199,
				"y": -1.9091134421,
				"z": 3.6125232303,
				"element": "O" 
			},
			{
				"x": -0.1439965812,
				"y": -2.0880267,
				"z": -1.0719847149,
				"element": "C" 
			},
			{
				"x": -0.3555321766,
				"y": -1.8230995416,
				"z": -2.3807191797,
				"element": "F" 
			},
			{
				"x": -0.8721264368,
				"y": -3.1741594525,
				"z": -0.7671531302,
				"element": "F" 
			},
			{
				"x": 1.1563416121,
				"y": -2.3900309802,
				"z": -0.9353631599,
				"element": "F" 
			},
			{
				"x": -0.6118315597,
				"y": 0.3848350749,
				"z": -1.9550813568,
				"element": "H" 
			},
			{
				"x": -1.1072312334,
				"y": 0.2034882448,
				"z": 2.9672348326,
				"element": "H" 
			},
			{
				"x": -1.4431007441,
				"y": 2.3676838076,
				"z": 1.750578609,
				"element": "H" 
			}
		],
		 "valence_orbital": [ 
			{
				"type": "occ",
				"energy": -0.34401,
				"method": "rhf"
			},
			{
				"type": "occ",
				"energy": -0.34128,
				"method": "rhf"
			},
			{
				"type": "occ",
				"energy": -0.32024,
				"method": "rhf"
			},
			{
				"type": "occ",
				"energy": -0.3132,
				"method": "rhf"
			},
			{
				"type": "occ",
				"energy": -0.29755,
				"method": "rhf"
			},
			{
				"type": "unocc",
				"energy": -0.10021,
				"method": "rhf"
			},
			{
				"type": "unocc",
				"energy": -0.06802,
				"method": "rhf"
			},
			{
				"type": "unocc",
				"energy": -0.05598,
				"method": "rhf"
			},
			{
				"type": "unocc",
				"energy": 0.03806,
				"method": "rhf"
			},
			{
				"type": "unocc",
				"energy": 0.06152,
				"method": "rhf"
			}
		],
		"cosmo_sigma_profile": { 
			"-0.025": 0.0,
			"-0.024": 0.0,
			"-0.023": 0.0,
			"-0.022": 0.0,
			"-0.021": 0.0,
			"-0.02": 0.0,
			"-0.019": 0.0,
			"-0.018": 0.0,
			"-0.017": 0.0,
			"-0.016": 0.0,
			"-0.015": 0.0,
			"-0.014": 0.0,
			"-0.013": 0.0,
			"-0.012": 0.0,
			"-0.011": 0.0,
			"-0.01": 1.56821945795,
			"-0.009": 5.2694169898,
			"-0.008": 4.7580466521,
			"-0.007": 5.25323133292,
			"-0.006": 6.22086801935,
			"-0.005": 7.4580222748,
			"-0.004": 9.73207127007,
			"-0.003": 21.9351406189,
			"-0.002": 20.8563021819,
			"-0.001": 16.6458578613,
			"0.0": 13.2003175586,
			"0.001": 16.8292020294,
			"0.002": 34.9949517358,
			"0.003": 27.416661718,
			"0.004": 5.32536962195,
			"0.005": 3.79565139399,
			"0.006": 5.46143206686,
			"0.007": 8.01144842691,
			"0.008": 7.7462554395,
			"0.009": 1.65056138281,
			"0.01": 0.0,
			"0.011": 0.0,
			"0.012": 0.0,
			"0.013": 0.0,
			"0.014": 0.0,
			"0.015": 0.0,
			"0.016": 0.0,
			"0.017": 0.0,
			"0.018": 0.0,
			"0.019": 0.0,
			"0.02": 0.0,
			"0.021": 0.0,
			"0.022": 0.0,
			"0.023": 0.0,
			"0.024": 0.0,
			"0.025": 0.0
		}
	}
}
