{
	 "smiles": "CC1=C(SC2=C1C(=O)NC(C)=N2)C(O)=O", 
	 "Tm": 662.15, 
	 "num_atms": 23, 
	 "gaussian": { 
		 "optdone": 1, 
		 "sigma_profile": "yes", 
		 "theory": "DFT", 
		 "functional": "B3LYP", 
		 "basiset": "6-31G**", 
		 "properties": { 
			 "R2extent": 4480.509, 
			 "electric_dipole_moment_norm": 7.00826016212, 
			 "electric_quadrupole_moment_norm": 11.7590956332, 
			 "total_energy": -1081.17934974, 
			 "HOMO_LUMO_gap": 0.16325, 
			 "cosmo_polarized_energy": -20.54, 
			 "cosmo_cavitation_energy": 29.06, 
			 "cosmo_dispersion_energy": -22.14, 
			 "cosmo_repulsion_energy": 1.67, 
			 "cosmo_total_nonelectrostatic_energy": 8.58, 
			 "SMD_solvation_energy": 4.86 
		},
		"coords": [
			{
				"x": 0.0567817844,
				"y": 2.5571140277,
				"z": 2.0933393328,
				"element": "C" 
			},
			{
				"x": 0.8591548522,
				"y": 1.7842779047,
				"z": 1.0856614122,
				"element": "C" 
			},
			{
				"x": 2.2146591112,
				"y": 1.9145421347,
				"z": 0.8556404406,
				"element": "C" 
			},
			{
				"x": 2.7953587224,
				"y": 0.8398890426,
				"z": -0.424420488,
				"element": "S" 
			},
			{
				"x": 1.2010166399,
				"y": 0.1790014056,
				"z": -0.6341225367,
				"element": "C" 
			},
			{
				"x": 0.2874532481,
				"y": 0.7824467408,
				"z": 0.2302507775,
				"element": "C" 
			},
			{
				"x": -1.0955925109,
				"y": 0.3370303822,
				"z": 0.1686922077,
				"element": "C" 
			},
			{
				"x": -2.0515081275,
				"y": 0.7140878783,
				"z": 0.830054711,
				"element": "O" 
			},
			{
				"x": -1.2697467592,
				"y": -0.6706920403,
				"z": -0.8147618355,
				"element": "N" 
			},
			{
				"x": -0.291164304,
				"y": -1.1868724176,
				"z": -1.6219829511,
				"element": "C" 
			},
			{
				"x": -0.6970768303,
				"y": -2.2499290224,
				"z": -2.6006436936,
				"element": "C" 
			},
			{
				"x": 0.9511478971,
				"y": -0.7868430945,
				"z": -1.5596762434,
				"element": "N" 
			},
			{
				"x": 3.1537345526,
				"y": 2.826886774,
				"z": 1.5495748896,
				"element": "C" 
			},
			{
				"x": 4.4781577309,
				"y": 2.5147629832,
				"z": 1.4655865989,
				"element": "O" 
			},
			{
				"x": 2.8123592565,
				"y": 3.8142941406,
				"z": 2.1603168792,
				"element": "O" 
			},
			{
				"x": -0.6212463782,
				"y": 1.8899551277,
				"z": 2.6296454817,
				"element": "H" 
			},
			{
				"x": 0.7039477008,
				"y": 3.0964890943,
				"z": 2.7818416975,
				"element": "H" 
			},
			{
				"x": -0.5752837684,
				"y": 3.2900920606,
				"z": 1.5788047556,
				"element": "H" 
			},
			{
				"x": -2.2216477067,
				"y": -1.0102926293,
				"z": -0.8933398387,
				"element": "H" 
			},
			{
				"x": -1.1148538685,
				"y": -3.1205894235,
				"z": -2.0826252133,
				"element": "H" 
			},
			{
				"x": -1.4601269593,
				"y": -1.8747833855,
				"z": -3.2919276253,
				"element": "H" 
			},
			{
				"x": 0.1783251264,
				"y": -2.5600584611,
				"z": -3.1699997994,
				"element": "H" 
			},
			{
				"x": 4.6080505906,
				"y": 1.6165907773,
				"z": 1.1274910408,
				"element": "H" 
			}
		],
		 "valence_orbital": [ 
			{
				"type": "occ",
				"energy": -0.30382,
				"method": "rhf"
			},
			{
				"type": "occ",
				"energy": -0.28013,
				"method": "rhf"
			},
			{
				"type": "occ",
				"energy": -0.27282,
				"method": "rhf"
			},
			{
				"type": "occ",
				"energy": -0.27255,
				"method": "rhf"
			},
			{
				"type": "occ",
				"energy": -0.23645,
				"method": "rhf"
			},
			{
				"type": "unocc",
				"energy": -0.0732,
				"method": "rhf"
			},
			{
				"type": "unocc",
				"energy": -0.03316,
				"method": "rhf"
			},
			{
				"type": "unocc",
				"energy": -0.00799,
				"method": "rhf"
			},
			{
				"type": "unocc",
				"energy": -0.00632,
				"method": "rhf"
			},
			{
				"type": "unocc",
				"energy": 0.05477,
				"method": "rhf"
			}
		],
		"cosmo_sigma_profile": { 
			"-0.025": 0.0,
			"-0.024": 0.0,
			"-0.023": 0.0,
			"-0.022": 0.0,
			"-0.021": 0.0,
			"-0.02": 0.0,
			"-0.019": 0.0,
			"-0.018": 0.322492760295,
			"-0.017": 0.934087955753,
			"-0.016": 2.19667368553,
			"-0.015": 1.83995523251,
			"-0.014": 1.70497290377,
			"-0.013": 2.6099061587,
			"-0.012": 2.51039979579,
			"-0.011": 2.08252936304,
			"-0.01": 2.22097495147,
			"-0.009": 1.64047089625,
			"-0.008": 3.24105410945,
			"-0.007": 6.28300708984,
			"-0.006": 6.82098391448,
			"-0.005": 11.1210878581,
			"-0.004": 15.3873049251,
			"-0.003": 17.4705236128,
			"-0.002": 21.3221896004,
			"-0.001": 23.2870295265,
			"0.0": 21.7421029698,
			"0.001": 13.291617415,
			"0.002": 10.5535364422,
			"0.003": 6.32302811361,
			"0.004": 6.02740007939,
			"0.005": 5.03943790829,
			"0.006": 4.66045643222,
			"0.007": 5.26051405064,
			"0.008": 4.86123193318,
			"0.009": 5.89133855306,
			"0.01": 7.94058021624,
			"0.011": 7.38634745527,
			"0.012": 8.6622607656,
			"0.013": 3.87153368394,
			"0.014": 0.0308421808447,
			"0.015": 0.0,
			"0.016": 0.0,
			"0.017": 0.0,
			"0.018": 0.0,
			"0.019": 0.0,
			"0.02": 0.0,
			"0.021": 0.0,
			"0.022": 0.0,
			"0.023": 0.0,
			"0.024": 0.0,
			"0.025": 0.0
		}
	}
}
