{
	 "smiles": "COC1=C(OCC2=CN=CC=C2)C=CC(=C1)C(O)=O", 
	 "Tm": 453.15, 
	 "num_atms": 32, 
	 "gaussian": { 
		 "optdone": 1, 
		 "sigma_profile": "yes", 
		 "theory": "DFT", 
		 "functional": "B3LYP", 
		 "basiset": "6-31G**", 
		 "properties": { 
			 "R2extent": 7628.7001, 
			 "electric_dipole_moment_norm": 0.994040975011, 
			 "electric_quadrupole_moment_norm": 23.6378424931, 
			 "total_energy": -896.953971261, 
			 "HOMO_LUMO_gap": 0.1946, 
			 "cosmo_polarized_energy": -14.82, 
			 "cosmo_cavitation_energy": 37.35, 
			 "cosmo_dispersion_energy": -26.12, 
			 "cosmo_repulsion_energy": 2.01, 
			 "cosmo_total_nonelectrostatic_energy": 13.24, 
			 "SMD_solvation_energy": 6.99 
		},
		"coords": [
			{
				"x": 1.4529923081,
				"y": 0.5241417837,
				"z": 1.6068418631,
				"element": "C" 
			},
			{
				"x": 1.7617517847,
				"y": 0.9106815969,
				"z": 0.2598185589,
				"element": "O" 
			},
			{
				"x": 1.5559730708,
				"y": -0.0700388203,
				"z": -0.6840574759,
				"element": "C" 
			},
			{
				"x": 0.2552520689,
				"y": -0.4731794444,
				"z": -1.0511849171,
				"element": "C" 
			},
			{
				"x": -0.8579461157,
				"y": 0.0548064881,
				"z": -0.4429485574,
				"element": "O" 
			},
			{
				"x": -1.1012480185,
				"y": 1.4549313774,
				"z": -0.6952438785,
				"element": "C" 
			},
			{
				"x": -2.3572874857,
				"y": 1.8623019249,
				"z": 0.0281779441,
				"element": "C" 
			},
			{
				"x": -2.4482155747,
				"y": 3.115516679,
				"z": 0.6436918712,
				"element": "C" 
			},
			{
				"x": -3.5404927762,
				"y": 3.5718775374,
				"z": 1.2672709572,
				"element": "N" 
			},
			{
				"x": -4.6045319055,
				"y": 2.7616975317,
				"z": 1.3081768987,
				"element": "C" 
			},
			{
				"x": -4.6219288806,
				"y": 1.4853962934,
				"z": 0.7410681843,
				"element": "C" 
			},
			{
				"x": -3.480056082,
				"y": 1.0302324906,
				"z": 0.0875176221,
				"element": "C" 
			},
			{
				"x": 0.084270619,
				"y": -1.4675986491,
				"z": -2.0182681392,
				"element": "C" 
			},
			{
				"x": 1.1874987322,
				"y": -2.0467350839,
				"z": -2.6360601133,
				"element": "C" 
			},
			{
				"x": 2.480028998,
				"y": -1.6272127582,
				"z": -2.2959915618,
				"element": "C" 
			},
			{
				"x": 2.6575532345,
				"y": -0.6419996317,
				"z": -1.3147270898,
				"element": "C" 
			},
			{
				"x": 3.6272541095,
				"y": -2.2634309359,
				"z": -2.9915404992,
				"element": "C" 
			},
			{
				"x": 4.8300602453,
				"y": -1.7819012884,
				"z": -2.5864120629,
				"element": "O" 
			},
			{
				"x": 3.5329838354,
				"y": -3.1285834382,
				"z": -3.8404758037,
				"element": "O" 
			},
			{
				"x": 0.3980723047,
				"y": 0.2522952794,
				"z": 1.7120567769,
				"element": "H" 
			},
			{
				"x": 2.0815595124,
				"y": -0.3182327161,
				"z": 1.9201755784,
				"element": "H" 
			},
			{
				"x": 1.6742791744,
				"y": 1.3920949407,
				"z": 2.230601783,
				"element": "H" 
			},
			{
				"x": -1.2141442697,
				"y": 1.595756215,
				"z": -1.7801708464,
				"element": "H" 
			},
			{
				"x": -0.247791044,
				"y": 2.0547668038,
				"z": -0.3638003857,
				"element": "H" 
			},
			{
				"x": -1.5895645712,
				"y": 3.7871411467,
				"z": 0.6326719462,
				"element": "H" 
			},
			{
				"x": -5.4828504564,
				"y": 3.1480942606,
				"z": 1.8224676462,
				"element": "H" 
			},
			{
				"x": -5.511038591,
				"y": 0.8664352449,
				"z": 0.81186984,
				"element": "H" 
			},
			{
				"x": -3.4450151005,
				"y": 0.0419784196,
				"z": -0.3598212788,
				"element": "H" 
			},
			{
				"x": -0.9270913287,
				"y": -1.7676762568,
				"z": -2.2728952636,
				"element": "H" 
			},
			{
				"x": 1.0692143173,
				"y": -2.8150960063,
				"z": -3.3918829512,
				"element": "H" 
			},
			{
				"x": 3.6497244012,
				"y": -0.3128940842,
				"z": -1.0293740255,
				"element": "H" 
			},
			{
				"x": 5.4939334841,
				"y": -2.2659669005,
				"z": -3.1041526204,
				"element": "H" 
			}
		],
		 "valence_orbital": [ 
			{
				"type": "occ",
				"energy": -0.27401,
				"method": "rhf"
			},
			{
				"type": "occ",
				"energy": -0.26385,
				"method": "rhf"
			},
			{
				"type": "occ",
				"energy": -0.25718,
				"method": "rhf"
			},
			{
				"type": "occ",
				"energy": -0.25571,
				"method": "rhf"
			},
			{
				"type": "occ",
				"energy": -0.24387,
				"method": "rhf"
			},
			{
				"type": "unocc",
				"energy": -0.04927,
				"method": "rhf"
			},
			{
				"type": "unocc",
				"energy": -0.02913,
				"method": "rhf"
			},
			{
				"type": "unocc",
				"energy": -0.01673,
				"method": "rhf"
			},
			{
				"type": "unocc",
				"energy": -0.01232,
				"method": "rhf"
			},
			{
				"type": "unocc",
				"energy": 0.05449,
				"method": "rhf"
			}
		],
		"cosmo_sigma_profile": { 
			"-0.025": 0.0,
			"-0.024": 0.0,
			"-0.023": 0.0,
			"-0.022": 0.0,
			"-0.021": 0.0,
			"-0.02": 0.0,
			"-0.019": 0.0,
			"-0.018": 0.924987868784,
			"-0.017": 0.848798794558,
			"-0.016": 0.852607786567,
			"-0.015": 0.802961856449,
			"-0.014": 0.355323230342,
			"-0.013": 0.269072544599,
			"-0.012": 0.867586461943,
			"-0.011": 1.34109128383,
			"-0.01": 0.647985639088,
			"-0.009": 0.659837121572,
			"-0.008": 0.677612589684,
			"-0.007": 6.02110495358,
			"-0.006": 17.607960448,
			"-0.005": 22.5060441033,
			"-0.004": 22.49077945,
			"-0.003": 24.4245926638,
			"-0.002": 24.6648079533,
			"-0.001": 20.3976030635,
			"0.0": 19.2076993626,
			"0.001": 24.5951861183,
			"0.002": 29.8728699904,
			"0.003": 21.544497661,
			"0.004": 8.93609650026,
			"0.005": 7.81314951603,
			"0.006": 6.71388157184,
			"0.007": 5.13140399204,
			"0.008": 4.85639232024,
			"0.009": 4.42462373384,
			"0.01": 4.05023524768,
			"0.011": 5.57091967846,
			"0.012": 5.29481702642,
			"0.013": 1.24677015851,
			"0.014": 0.647277219054,
			"0.015": 0.862296697027,
			"0.016": 1.05819334441,
			"0.017": 0.21494616683,
			"0.018": 0.0,
			"0.019": 0.0,
			"0.02": 0.0,
			"0.021": 0.0,
			"0.022": 0.0,
			"0.023": 0.0,
			"0.024": 0.0,
			"0.025": 0.0
		}
	}
}
