{
	 "smiles": "CCCN(CCC)S(=O)(=O)C1=CC=C(C=C1)C(O)=O", 
	 "Tm": 471.15, 
	 "num_atms": 38, 
	 "gaussian": { 
		 "optdone": 1, 
		 "sigma_profile": "yes", 
		 "theory": "DFT", 
		 "functional": "B3LYP", 
		 "basiset": "6-31G**", 
		 "properties": { 
			 "R2extent": 7352.1169, 
			 "electric_dipole_moment_norm": 4.75857031681, 
			 "electric_quadrupole_moment_norm": 18.3839577975, 
			 "total_energy": -1260.62824325, 
			 "HOMO_LUMO_gap": 0.18118, 
			 "cosmo_polarized_energy": -17.48, 
			 "cosmo_cavitation_energy": 41.48, 
			 "cosmo_dispersion_energy": -28.82, 
			 "cosmo_repulsion_energy": 2.21, 
			 "cosmo_total_nonelectrostatic_energy": 14.87, 
			 "SMD_solvation_energy": 7.02 
		},
		"coords": [
			{
				"x": 0.116604659,
				"y": 4.3374457125,
				"z": -0.0498599368,
				"element": "C" 
			},
			{
				"x": -0.7975960267,
				"y": 3.2319649462,
				"z": 0.489018718,
				"element": "C" 
			},
			{
				"x": -0.1692910457,
				"y": 1.8450584093,
				"z": 0.3168009745,
				"element": "C" 
			},
			{
				"x": -1.0356460791,
				"y": 0.7632445949,
				"z": 0.8302438662,
				"element": "N" 
			},
			{
				"x": -2.1880083695,
				"y": 0.3705425128,
				"z": -0.0187277458,
				"element": "C" 
			},
			{
				"x": -3.5291738032,
				"y": 0.2720060159,
				"z": 0.7201301864,
				"element": "C" 
			},
			{
				"x": -3.9943094948,
				"y": 1.5814868458,
				"z": 1.3605376082,
				"element": "C" 
			},
			{
				"x": -0.2689649468,
				"y": -0.4734078804,
				"z": 1.6810283952,
				"element": "S" 
			},
			{
				"x": -1.3254288954,
				"y": -1.3283648962,
				"z": 2.2261623783,
				"element": "O" 
			},
			{
				"x": 0.7365478683,
				"y": 0.1585798715,
				"z": 2.5378548385,
				"element": "O" 
			},
			{
				"x": 0.6205694067,
				"y": -1.4650995465,
				"z": 0.462930858,
				"element": "C" 
			},
			{
				"x": 1.9162392371,
				"y": -1.095056207,
				"z": 0.0894747843,
				"element": "C" 
			},
			{
				"x": 2.5859556467,
				"y": -1.8394175364,
				"z": -0.8785653726,
				"element": "C" 
			},
			{
				"x": 1.9610396514,
				"y": -2.9482517703,
				"z": -1.4665438599,
				"element": "C" 
			},
			{
				"x": 0.6687613489,
				"y": -3.3181226859,
				"z": -1.0721716929,
				"element": "C" 
			},
			{
				"x": -0.006005754,
				"y": -2.5799930801,
				"z": -0.1037094512,
				"element": "C" 
			},
			{
				"x": 2.6328306449,
				"y": -3.7765074592,
				"z": -2.5074172097,
				"element": "C" 
			},
			{
				"x": 3.8800943159,
				"y": -3.3401865421,
				"z": -2.8065561895,
				"element": "O" 
			},
			{
				"x": 2.1349155095,
				"y": -4.7437323347,
				"z": -3.0468531862,
				"element": "O" 
			},
			{
				"x": -0.3402733767,
				"y": 5.3225883159,
				"z": 0.0828400531,
				"element": "H" 
			},
			{
				"x": 0.3170928465,
				"y": 4.2064122218,
				"z": -1.1194505918,
				"element": "H" 
			},
			{
				"x": 1.0808991852,
				"y": 4.3460609911,
				"z": 0.4703448394,
				"element": "H" 
			},
			{
				"x": -1.0005018759,
				"y": 3.3893386466,
				"z": 1.5538486886,
				"element": "H" 
			},
			{
				"x": -1.7655906504,
				"y": 3.2741442352,
				"z": -0.0239597469,
				"element": "H" 
			},
			{
				"x": 0.7648335589,
				"y": 1.8169700206,
				"z": 0.8805877954,
				"element": "H" 
			},
			{
				"x": 0.0722101209,
				"y": 1.6664172525,
				"z": -0.7429639517,
				"element": "H" 
			},
			{
				"x": -1.9769860781,
				"y": -0.5755266617,
				"z": -0.5361710446,
				"element": "H" 
			},
			{
				"x": -2.2566233546,
				"y": 1.1339841327,
				"z": -0.8004953058,
				"element": "H" 
			},
			{
				"x": -3.4551454999,
				"y": -0.5102028376,
				"z": 1.4794145413,
				"element": "H" 
			},
			{
				"x": -4.2716927323,
				"y": -0.0660290715,
				"z": -0.0155091433,
				"element": "H" 
			},
			{
				"x": -3.2726536749,
				"y": 1.9315972053,
				"z": 2.1039917883,
				"element": "H" 
			},
			{
				"x": -4.1234964847,
				"y": 2.3742046039,
				"z": 0.6138338075,
				"element": "H" 
			},
			{
				"x": -4.9555195739,
				"y": 1.4443189776,
				"z": 1.8656771523,
				"element": "H" 
			},
			{
				"x": 2.3988994199,
				"y": -0.2542159016,
				"z": 0.5745866008,
				"element": "H" 
			},
			{
				"x": 3.5934312707,
				"y": -1.5709931815,
				"z": -1.1744956259,
				"element": "H" 
			},
			{
				"x": 0.2143984124,
				"y": -4.1903106204,
				"z": -1.5295245599,
				"element": "H" 
			},
			{
				"x": -0.9923665456,
				"y": -2.8727995103,
				"z": 0.2376281977,
				"element": "H" 
			},
			{
				"x": 4.2199511596,
				"y": -3.9468477889,
				"z": -3.4848614577,
				"element": "H" 
			}
		],
		 "valence_orbital": [ 
			{
				"type": "occ",
				"energy": -0.30094,
				"method": "rhf"
			},
			{
				"type": "occ",
				"energy": -0.29042,
				"method": "rhf"
			},
			{
				"type": "occ",
				"energy": -0.2838,
				"method": "rhf"
			},
			{
				"type": "occ",
				"energy": -0.28031,
				"method": "rhf"
			},
			{
				"type": "occ",
				"energy": -0.25476,
				"method": "rhf"
			},
			{
				"type": "unocc",
				"energy": -0.07358,
				"method": "rhf"
			},
			{
				"type": "unocc",
				"energy": -0.0309,
				"method": "rhf"
			},
			{
				"type": "unocc",
				"energy": 0.02562,
				"method": "rhf"
			},
			{
				"type": "unocc",
				"energy": 0.05346,
				"method": "rhf"
			},
			{
				"type": "unocc",
				"energy": 0.07074,
				"method": "rhf"
			}
		],
		"cosmo_sigma_profile": { 
			"-0.025": 0.0,
			"-0.024": 0.0,
			"-0.023": 0.0,
			"-0.022": 0.0,
			"-0.021": 0.0,
			"-0.02": 0.0,
			"-0.019": 0.189993127063,
			"-0.018": 0.993911425135,
			"-0.017": 0.918964444775,
			"-0.016": 0.73732389196,
			"-0.015": 0.84740561572,
			"-0.014": 0.928682202715,
			"-0.013": 0.296891948075,
			"-0.012": 0.67329984258,
			"-0.011": 1.13242972605,
			"-0.01": 0.576961940265,
			"-0.009": 0.488966332641,
			"-0.008": 1.81246894433,
			"-0.007": 6.90826218395,
			"-0.006": 10.1693223584,
			"-0.005": 14.0424336215,
			"-0.004": 19.4247871034,
			"-0.003": 37.3630154035,
			"-0.002": 33.2685051811,
			"-0.001": 34.320619408,
			"0.0": 36.9303453735,
			"0.001": 39.9661158975,
			"0.002": 14.2537646224,
			"0.003": 7.2378593361,
			"0.004": 8.19968987958,
			"0.005": 7.15689501325,
			"0.006": 6.04608098185,
			"0.007": 6.55501109082,
			"0.008": 4.91982614993,
			"0.009": 4.98831195843,
			"0.01": 8.49838483344,
			"0.011": 11.7341575489,
			"0.012": 4.62044593802,
			"0.013": 0.0,
			"0.014": 0.0,
			"0.015": 0.0,
			"0.016": 0.0,
			"0.017": 0.0,
			"0.018": 0.0,
			"0.019": 0.0,
			"0.02": 0.0,
			"0.021": 0.0,
			"0.022": 0.0,
			"0.023": 0.0,
			"0.024": 0.0,
			"0.025": 0.0
		}
	}
}
