{
	 "smiles": "COC1=C(C=C(CC(O)=O)C=C1)S(=O)(=O)N1CCOCC1", 
	 "Tm": 390.15, 
	 "num_atms": 38, 
	 "gaussian": { 
		 "optdone": 1, 
		 "sigma_profile": "yes", 
		 "theory": "DFT", 
		 "functional": "B3LYP", 
		 "basiset": "6-31G**", 
		 "properties": { 
			 "R2extent": 7958.3356, 
			 "electric_dipole_moment_norm": 5.46093827103, 
			 "electric_quadrupole_moment_norm": 31.8269719793, 
			 "total_energy": -1409.81580373, 
			 "HOMO_LUMO_gap": 0.19398, 
			 "cosmo_polarized_energy": -24.16, 
			 "cosmo_cavitation_energy": 41.79, 
			 "cosmo_dispersion_energy": -28.94, 
			 "cosmo_repulsion_energy": 2.2, 
			 "cosmo_total_nonelectrostatic_energy": 15.05, 
			 "SMD_solvation_energy": 7.57 
		},
		"coords": [
			{
				"x": 2.4569835827,
				"y": 0.5047718336,
				"z": -1.3286630247,
				"element": "C" 
			},
			{
				"x": 1.2143110896,
				"y": 0.8510392007,
				"z": -0.6957724414,
				"element": "O" 
			},
			{
				"x": 0.8706027417,
				"y": 0.0888644362,
				"z": 0.3863575406,
				"element": "C" 
			},
			{
				"x": -0.2128283684,
				"y": -0.7981220067,
				"z": 0.3092645265,
				"element": "C" 
			},
			{
				"x": -0.6147861397,
				"y": -1.5305473189,
				"z": 1.4294249402,
				"element": "C" 
			},
			{
				"x": 0.0601714815,
				"y": -1.4023032687,
				"z": 2.6496384751,
				"element": "C" 
			},
			{
				"x": -0.3481524444,
				"y": -2.2171538169,
				"z": 3.8571623895,
				"element": "C" 
			},
			{
				"x": 0.5035068324,
				"y": -3.4696035488,
				"z": 4.1250665711,
				"element": "C" 
			},
			{
				"x": 0.9936350914,
				"y": -4.1053105912,
				"z": 3.0355523372,
				"element": "O" 
			},
			{
				"x": 0.7004942939,
				"y": -3.899010554,
				"z": 5.2333017742,
				"element": "O" 
			},
			{
				"x": 1.1454807675,
				"y": -0.5135919482,
				"z": 2.7173645462,
				"element": "C" 
			},
			{
				"x": 1.5436259154,
				"y": 0.2236091627,
				"z": 1.6063327324,
				"element": "C" 
			},
			{
				"x": -1.0839260726,
				"y": -1.0594457347,
				"z": -1.2453797449,
				"element": "S" 
			},
			{
				"x": -0.0876226007,
				"y": -1.3338639987,
				"z": -2.2857640588,
				"element": "O" 
			},
			{
				"x": -2.1530177695,
				"y": -2.0225587231,
				"z": -0.9523328556,
				"element": "O" 
			},
			{
				"x": -1.7742933286,
				"y": 0.4417967425,
				"z": -1.5644776197,
				"element": "N" 
			},
			{
				"x": -1.3949653698,
				"y": 1.1356748372,
				"z": -2.8069637128,
				"element": "C" 
			},
			{
				"x": -1.7412432793,
				"y": 2.6138412069,
				"z": -2.638359582,
				"element": "C" 
			},
			{
				"x": -3.1160569969,
				"y": 2.7931030713,
				"z": -2.3239877389,
				"element": "O" 
			},
			{
				"x": -3.4544786831,
				"y": 2.1355589679,
				"z": -1.1127875966,
				"element": "C" 
			},
			{
				"x": -3.1876370161,
				"y": 0.6317295407,
				"z": -1.1963583884,
				"element": "C" 
			},
			{
				"x": 2.3746352899,
				"y": -0.4760182656,
				"z": -1.806510692,
				"element": "H" 
			},
			{
				"x": 3.2847074675,
				"y": 0.5075574198,
				"z": -0.6103798328,
				"element": "H" 
			},
			{
				"x": 2.6348966408,
				"y": 1.2704407837,
				"z": -2.0851733183,
				"element": "H" 
			},
			{
				"x": -1.46615173,
				"y": -2.197124986,
				"z": 1.3283438359,
				"element": "H" 
			},
			{
				"x": -0.311829738,
				"y": -1.623941161,
				"z": 4.7736523144,
				"element": "H" 
			},
			{
				"x": -1.3829513695,
				"y": -2.5634542074,
				"z": 3.7450333909,
				"element": "H" 
			},
			{
				"x": 0.7795259513,
				"y": -3.6039124936,
				"z": 2.2330836257,
				"element": "H" 
			},
			{
				"x": 1.6778261099,
				"y": -0.3908813543,
				"z": 3.6569470562,
				"element": "H" 
			},
			{
				"x": 2.3679031109,
				"y": 0.9264529966,
				"z": 1.6756153722,
				"element": "H" 
			},
			{
				"x": -1.9381142032,
				"y": 0.7219033206,
				"z": -3.6688105813,
				"element": "H" 
			},
			{
				"x": -0.3258524713,
				"y": 1.0086034589,
				"z": -2.973299141,
				"element": "H" 
			},
			{
				"x": -1.5625645313,
				"y": 3.1519833479,
				"z": -3.5736973584,
				"element": "H" 
			},
			{
				"x": -1.1065316482,
				"y": 3.0465792302,
				"z": -1.8490585433,
				"element": "H" 
			},
			{
				"x": -4.519473284,
				"y": 2.318488705,
				"z": -0.9430517478,
				"element": "H" 
			},
			{
				"x": -2.8823029647,
				"y": 2.5614408736,
				"z": -0.2726930125,
				"element": "H" 
			},
			{
				"x": -3.3820251292,
				"y": 0.1602203747,
				"z": -0.2305878815,
				"element": "H" 
			},
			{
				"x": -3.852501228,
				"y": 0.1715844674,
				"z": -1.9404325557,
				"element": "H" 
			}
		],
		 "valence_orbital": [ 
			{
				"type": "occ",
				"energy": -0.29422,
				"method": "rhf"
			},
			{
				"type": "occ",
				"energy": -0.28318,
				"method": "rhf"
			},
			{
				"type": "occ",
				"energy": -0.27516,
				"method": "rhf"
			},
			{
				"type": "occ",
				"energy": -0.25823,
				"method": "rhf"
			},
			{
				"type": "occ",
				"energy": -0.24847,
				"method": "rhf"
			},
			{
				"type": "unocc",
				"energy": -0.05449,
				"method": "rhf"
			},
			{
				"type": "unocc",
				"energy": -0.03753,
				"method": "rhf"
			},
			{
				"type": "unocc",
				"energy": 0.00871,
				"method": "rhf"
			},
			{
				"type": "unocc",
				"energy": 0.04668,
				"method": "rhf"
			},
			{
				"type": "unocc",
				"energy": 0.06394,
				"method": "rhf"
			}
		],
		"cosmo_sigma_profile": { 
			"-0.025": 0.0,
			"-0.024": 0.0,
			"-0.023": 0.0,
			"-0.022": 0.0,
			"-0.021": 0.0,
			"-0.02": 0.0,
			"-0.019": 0.0,
			"-0.018": 0.0,
			"-0.017": 0.0,
			"-0.016": 0.0,
			"-0.015": 0.497371039881,
			"-0.014": 0.680316623892,
			"-0.013": 1.25594516436,
			"-0.012": 1.31977266493,
			"-0.011": 1.52754633519,
			"-0.01": 1.901579149,
			"-0.009": 3.13353574829,
			"-0.008": 6.04946722892,
			"-0.007": 12.4280678943,
			"-0.006": 20.7126337287,
			"-0.005": 30.3979749001,
			"-0.004": 35.2597644825,
			"-0.003": 33.7130834541,
			"-0.002": 22.5062324181,
			"-0.001": 14.6099058313,
			"0.0": 13.9823731891,
			"0.001": 17.0267325071,
			"0.002": 15.0102850197,
			"0.003": 10.5226738268,
			"0.004": 8.00236098641,
			"0.005": 8.77756422834,
			"0.006": 7.51905546238,
			"0.007": 7.8232924801,
			"0.008": 8.26027304641,
			"0.009": 8.85406570995,
			"0.01": 11.8690357904,
			"0.011": 13.1345198794,
			"0.012": 9.64759421303,
			"0.013": 3.40111800335,
			"0.014": 0.0443064540263,
			"0.015": 0.0,
			"0.016": 0.0,
			"0.017": 0.0,
			"0.018": 0.0,
			"0.019": 0.0,
			"0.02": 0.0,
			"0.021": 0.0,
			"0.022": 0.0,
			"0.023": 0.0,
			"0.024": 0.0,
			"0.025": 0.0
		}
	}
}
