{
	 "smiles": "CN1C(=O)N(CCC(O)=O)C2=C1C=CC=C2", 
	 "Tm": 500.15, 
	 "num_atms": 28, 
	 "gaussian": { 
		 "optdone": 1, 
		 "sigma_profile": "yes", 
		 "theory": "DFT", 
		 "functional": "B3LYP", 
		 "basiset": "6-31G**", 
		 "properties": { 
			 "R2extent": 3639.6461, 
			 "electric_dipole_moment_norm": 3.66510132329, 
			 "electric_quadrupole_moment_norm": 16.9730716917, 
			 "total_energy": -761.631089402, 
			 "HOMO_LUMO_gap": 0.19836, 
			 "cosmo_polarized_energy": -17.28, 
			 "cosmo_cavitation_energy": 32.02, 
			 "cosmo_dispersion_energy": -22.18, 
			 "cosmo_repulsion_energy": 1.72, 
			 "cosmo_total_nonelectrostatic_energy": 11.56, 
			 "SMD_solvation_energy": 6.86 
		},
		"coords": [
			{
				"x": -2.2981317323,
				"y": -2.1036166645,
				"z": 1.6219698357,
				"element": "C" 
			},
			{
				"x": -1.1930900253,
				"y": -1.2169749964,
				"z": 1.3289238787,
				"element": "N" 
			},
			{
				"x": 0.074325423,
				"y": -1.6814551379,
				"z": 0.9794311751,
				"element": "C" 
			},
			{
				"x": 0.4354766737,
				"y": -2.8439336925,
				"z": 0.8692551092,
				"element": "O" 
			},
			{
				"x": 0.8565486552,
				"y": -0.5392288053,
				"z": 0.7873229536,
				"element": "N" 
			},
			{
				"x": 2.2386436027,
				"y": -0.6095181119,
				"z": 0.360613112,
				"element": "C" 
			},
			{
				"x": 2.4395275128,
				"y": -0.4123793571,
				"z": -1.1604918938,
				"element": "C" 
			},
			{
				"x": 1.9373385485,
				"y": -1.5954016488,
				"z": -1.961935916,
				"element": "C" 
			},
			{
				"x": 0.6053022996,
				"y": -1.5177310191,
				"z": -2.1953066989,
				"element": "O" 
			},
			{
				"x": 2.6199649209,
				"y": -2.5191000828,
				"z": -2.3426886318,
				"element": "O" 
			},
			{
				"x": 0.0881385895,
				"y": 0.6055203385,
				"z": 0.9836501221,
				"element": "C" 
			},
			{
				"x": -1.209270625,
				"y": 0.17335088,
				"z": 1.3343867289,
				"element": "C" 
			},
			{
				"x": -2.2211378955,
				"y": 1.0829920979,
				"z": 1.6125431003,
				"element": "C" 
			},
			{
				"x": -1.9090182286,
				"y": 2.447676422,
				"z": 1.5314510022,
				"element": "C" 
			},
			{
				"x": -0.6251811662,
				"y": 2.8764334275,
				"z": 1.1843068879,
				"element": "C" 
			},
			{
				"x": 0.3967084868,
				"y": 1.9575562456,
				"z": 0.9040649243,
				"element": "C" 
			},
			{
				"x": -1.9287481488,
				"y": -3.1250331754,
				"z": 1.5204420624,
				"element": "H" 
			},
			{
				"x": -3.1248114424,
				"y": -1.9453551963,
				"z": 0.9206367893,
				"element": "H" 
			},
			{
				"x": -2.6638394158,
				"y": -1.9505673386,
				"z": 2.6432201719,
				"element": "H" 
			},
			{
				"x": 2.8088985639,
				"y": 0.1550107975,
				"z": 0.898233377,
				"element": "H" 
			},
			{
				"x": 2.6146466419,
				"y": -1.5904262145,
				"z": 0.6616437981,
				"element": "H" 
			},
			{
				"x": 3.5095393101,
				"y": -0.3172256324,
				"z": -1.3603670534,
				"element": "H" 
			},
			{
				"x": 1.9318936736,
				"y": 0.5009215203,
				"z": -1.4844536075,
				"element": "H" 
			},
			{
				"x": 0.3609967778,
				"y": -2.3482707263,
				"z": -2.6379372307,
				"element": "H" 
			},
			{
				"x": -3.2181527643,
				"y": 0.751109671,
				"z": 1.8833549479,
				"element": "H" 
			},
			{
				"x": -2.6810011823,
				"y": 3.1811177032,
				"z": 1.7424353137,
				"element": "H" 
			},
			{
				"x": -0.4108362017,
				"y": 3.9391320341,
				"z": 1.128387483,
				"element": "H" 
			},
			{
				"x": 1.3920691485,
				"y": 2.2964966623,
				"z": 0.6353082589,
				"element": "H" 
			}
		],
		 "valence_orbital": [ 
			{
				"type": "occ",
				"energy": -0.30119,
				"method": "rhf"
			},
			{
				"type": "occ",
				"energy": -0.27152,
				"method": "rhf"
			},
			{
				"type": "occ",
				"energy": -0.27071,
				"method": "rhf"
			},
			{
				"type": "occ",
				"energy": -0.23528,
				"method": "rhf"
			},
			{
				"type": "occ",
				"energy": -0.20543,
				"method": "rhf"
			},
			{
				"type": "unocc",
				"energy": -0.00707,
				"method": "rhf"
			},
			{
				"type": "unocc",
				"energy": 0.00654,
				"method": "rhf"
			},
			{
				"type": "unocc",
				"energy": 0.01099,
				"method": "rhf"
			},
			{
				"type": "unocc",
				"energy": 0.06234,
				"method": "rhf"
			},
			{
				"type": "unocc",
				"energy": 0.08074,
				"method": "rhf"
			}
		],
		"cosmo_sigma_profile": { 
			"-0.025": 0.0,
			"-0.024": 0.0,
			"-0.023": 0.0,
			"-0.022": 0.0,
			"-0.021": 0.0,
			"-0.02": 0.0,
			"-0.019": 0.0,
			"-0.018": 0.734541309244,
			"-0.017": 0.819678963007,
			"-0.016": 0.742503279725,
			"-0.015": 1.12381918252,
			"-0.014": 0.329016766085,
			"-0.013": 0.839958875724,
			"-0.012": 0.420734691473,
			"-0.011": 0.368273239228,
			"-0.01": 0.762554222959,
			"-0.009": 0.625642562441,
			"-0.008": 1.02423543311,
			"-0.007": 7.08820216837,
			"-0.006": 18.1357818233,
			"-0.005": 25.8633184498,
			"-0.004": 25.104429869,
			"-0.003": 22.8155912362,
			"-0.002": 16.0215095489,
			"-0.001": 14.3390947974,
			"0.0": 12.9183072031,
			"0.001": 11.1416824237,
			"0.002": 11.4935188161,
			"0.003": 11.4308869192,
			"0.004": 11.9583287462,
			"0.005": 12.6528575198,
			"0.006": 10.8178478152,
			"0.007": 4.645128775,
			"0.008": 3.95606748534,
			"0.009": 3.33580558752,
			"0.01": 3.81424426756,
			"0.011": 5.12195849452,
			"0.012": 6.39068644161,
			"0.013": 4.9184331481,
			"0.014": 2.18360211237,
			"0.015": 0.0,
			"0.016": 0.0,
			"0.017": 0.0,
			"0.018": 0.0,
			"0.019": 0.0,
			"0.02": 0.0,
			"0.021": 0.0,
			"0.022": 0.0,
			"0.023": 0.0,
			"0.024": 0.0,
			"0.025": 0.0
		}
	}
}
