{
	 "smiles": "ClC(=O)C1=CC=C2OCCCOC2=C1", 
	 "Tm": 304.15, 
	 "num_atms": 23, 
	 "gaussian": { 
		 "optdone": 1, 
		 "sigma_profile": "yes", 
		 "theory": "DFT", 
		 "functional": "B3LYP", 
		 "basiset": "6-31G**", 
		 "properties": { 
			 "R2extent": 4882.2828, 
			 "electric_dipole_moment_norm": 6.27550116963, 
			 "electric_quadrupole_moment_norm": 15.1321277149, 
			 "total_energy": -1072.33944063, 
			 "HOMO_LUMO_gap": 0.16864, 
			 "cosmo_polarized_energy": -8.92, 
			 "cosmo_cavitation_energy": 28.19, 
			 "cosmo_dispersion_energy": -21.39, 
			 "cosmo_repulsion_energy": 1.68, 
			 "cosmo_total_nonelectrostatic_energy": 8.47, 
			 "SMD_solvation_energy": 5.53 
		},
		"coords": [
			{
				"x": 2.9017855659,
				"y": -0.8878714673,
				"z": -4.9970081468,
				"element": "Cl" 
			},
			{
				"x": 2.1735077011,
				"y": -1.7193279133,
				"z": -3.5259639353,
				"element": "C" 
			},
			{
				"x": 2.264335097,
				"y": -2.9079031948,
				"z": -3.4437923388,
				"element": "O" 
			},
			{
				"x": 1.5259512651,
				"y": -0.8161182104,
				"z": -2.5556218744,
				"element": "C" 
			},
			{
				"x": 1.4500608538,
				"y": 0.5776317035,
				"z": -2.6970665638,
				"element": "C" 
			},
			{
				"x": 0.8037986744,
				"y": 1.3318345149,
				"z": -1.727726574,
				"element": "C" 
			},
			{
				"x": 0.2283877539,
				"y": 0.7279324034,
				"z": -0.6027482383,
				"element": "C" 
			},
			{
				"x": -0.3983437378,
				"y": 1.5555471689,
				"z": 0.2822756879,
				"element": "O" 
			},
			{
				"x": -1.5411930361,
				"y": 1.0294209318,
				"z": 0.9828956784,
				"element": "C" 
			},
			{
				"x": -1.1398960534,
				"y": 0.2497486197,
				"z": 2.2334895936,
				"element": "C" 
			},
			{
				"x": 0.0163568107,
				"y": -0.705626988,
				"z": 1.9274243266,
				"element": "C" 
			},
			{
				"x": -0.1544262693,
				"y": -1.3495104778,
				"z": 0.6545629253,
				"element": "O" 
			},
			{
				"x": 0.3429042176,
				"y": -0.6734000147,
				"z": -0.4331337368,
				"element": "C" 
			},
			{
				"x": 0.9780264379,
				"y": -1.4253866055,
				"z": -1.4138988131,
				"element": "C" 
			},
			{
				"x": 1.8768777989,
				"y": 1.0609405737,
				"z": -3.5665150113,
				"element": "H" 
			},
			{
				"x": 0.7080015991,
				"y": 2.407911436,
				"z": -1.8254372083,
				"element": "H" 
			},
			{
				"x": -2.1481965599,
				"y": 1.9014643196,
				"z": 1.2381048652,
				"element": "H" 
			},
			{
				"x": -2.1195413027,
				"y": 0.3964352714,
				"z": 0.3016953378,
				"element": "H" 
			},
			{
				"x": -0.8342302715,
				"y": 0.9309405745,
				"z": 3.0358684062,
				"element": "H" 
			},
			{
				"x": -2.0175092514,
				"y": -0.3026688588,
				"z": 2.5890265781,
				"element": "H" 
			},
			{
				"x": 0.0693117195,
				"y": -1.5118021984,
				"z": 2.6637353939,
				"element": "H" 
			},
			{
				"x": 0.973687836,
				"y": -0.1721903664,
				"z": 1.9385048723,
				"element": "H" 
			},
			{
				"x": 1.0584431512,
				"y": -2.4976012222,
				"z": -1.2777712243,
				"element": "H" 
			}
		],
		 "valence_orbital": [ 
			{
				"type": "occ",
				"energy": -0.31108,
				"method": "rhf"
			},
			{
				"type": "occ",
				"energy": -0.30825,
				"method": "rhf"
			},
			{
				"type": "occ",
				"energy": -0.28545,
				"method": "rhf"
			},
			{
				"type": "occ",
				"energy": -0.25875,
				"method": "rhf"
			},
			{
				"type": "occ",
				"energy": -0.23586,
				"method": "rhf"
			},
			{
				"type": "unocc",
				"energy": -0.06722,
				"method": "rhf"
			},
			{
				"type": "unocc",
				"energy": -0.01515,
				"method": "rhf"
			},
			{
				"type": "unocc",
				"energy": 0.02444,
				"method": "rhf"
			},
			{
				"type": "unocc",
				"energy": 0.03734,
				"method": "rhf"
			},
			{
				"type": "unocc",
				"energy": 0.06314,
				"method": "rhf"
			}
		],
		"cosmo_sigma_profile": { 
			"-0.025": 0.0,
			"-0.024": 0.0,
			"-0.023": 0.0,
			"-0.022": 0.0,
			"-0.021": 0.0,
			"-0.02": 0.0,
			"-0.019": 0.0,
			"-0.018": 0.0,
			"-0.017": 0.0,
			"-0.016": 0.0,
			"-0.015": 0.0,
			"-0.014": 0.0,
			"-0.013": 0.0,
			"-0.012": 0.0,
			"-0.011": 0.0,
			"-0.01": 0.0,
			"-0.009": 0.0,
			"-0.008": 0.209347101172,
			"-0.007": 3.00539689218,
			"-0.006": 11.5804360712,
			"-0.005": 21.6914829395,
			"-0.004": 23.4271158612,
			"-0.003": 18.5146892995,
			"-0.002": 15.773716802,
			"-0.001": 16.3986182379,
			"0.0": 17.2185964698,
			"0.001": 20.3882077047,
			"0.002": 19.3649668723,
			"0.003": 11.6007055523,
			"0.004": 11.6527561396,
			"0.005": 10.0128824404,
			"0.006": 5.39371988988,
			"0.007": 5.61519145913,
			"0.008": 5.21725842386,
			"0.009": 6.88163778869,
			"0.01": 2.50457341656,
			"0.011": 0.47146827408,
			"0.012": 0.0,
			"0.013": 0.0,
			"0.014": 0.0,
			"0.015": 0.0,
			"0.016": 0.0,
			"0.017": 0.0,
			"0.018": 0.0,
			"0.019": 0.0,
			"0.02": 0.0,
			"0.021": 0.0,
			"0.022": 0.0,
			"0.023": 0.0,
			"0.024": 0.0,
			"0.025": 0.0
		}
	}
}
