{
	 "smiles": "OC(=O)C1=CC=C(CN2C=CC=C2)C=C1", 
	 "Tm": 435.15, 
	 "num_atms": 26, 
	 "gaussian": { 
		 "optdone": 1, 
		 "sigma_profile": "yes", 
		 "theory": "DFT", 
		 "functional": "B3LYP", 
		 "basiset": "6-31G**", 
		 "properties": { 
			 "R2extent": 5105.4558, 
			 "electric_dipole_moment_norm": 3.84528116267, 
			 "electric_quadrupole_moment_norm": 29.6845972747, 
			 "total_energy": -669.09905073, 
			 "HOMO_LUMO_gap": 0.16116, 
			 "cosmo_polarized_energy": -17.04, 
			 "cosmo_cavitation_energy": 30.42, 
			 "cosmo_dispersion_energy": -21.9, 
			 "cosmo_repulsion_energy": 1.7, 
			 "cosmo_total_nonelectrostatic_energy": 10.21, 
			 "SMD_solvation_energy": 6.63 
		},
		"coords": [
			{
				"x": 2.794493422,
				"y": 4.4996766737,
				"z": 2.2025940056,
				"element": "O" 
			},
			{
				"x": 2.2389740777,
				"y": 3.4783694598,
				"z": 2.9091315003,
				"element": "C" 
			},
			{
				"x": 2.1223792381,
				"y": 3.5693206591,
				"z": 4.1088972437,
				"element": "O" 
			},
			{
				"x": 1.7996284084,
				"y": 2.2764964653,
				"z": 2.1290863932,
				"element": "C" 
			},
			{
				"x": 1.5433146948,
				"y": 2.3024376798,
				"z": 0.7525445922,
				"element": "C" 
			},
			{
				"x": 1.1226417344,
				"y": 1.1521231626,
				"z": 0.0842247771,
				"element": "C" 
			},
			{
				"x": 0.9520761588,
				"y": -0.045881397,
				"z": 0.7828704955,
				"element": "C" 
			},
			{
				"x": 0.4921584926,
				"y": -1.3246597693,
				"z": 0.0943863815,
				"element": "C" 
			},
			{
				"x": 0.3433308809,
				"y": -1.2282798341,
				"z": -1.3440000703,
				"element": "N" 
			},
			{
				"x": 1.3604004576,
				"y": -1.3780196221,
				"z": -2.2635766416,
				"element": "C" 
			},
			{
				"x": 0.8602824938,
				"y": -1.0824560343,
				"z": -3.5131110672,
				"element": "C" 
			},
			{
				"x": -0.510593528,
				"y": -0.7308412343,
				"z": -3.3484725425,
				"element": "C" 
			},
			{
				"x": -0.7986765049,
				"y": -0.8244514409,
				"z": -2.0041073349,
				"element": "C" 
			},
			{
				"x": 1.1974296423,
				"y": -0.0684034488,
				"z": 2.1641565668,
				"element": "C" 
			},
			{
				"x": 1.6067586566,
				"y": 1.0784931437,
				"z": 2.8324860041,
				"element": "C" 
			},
			{
				"x": 2.967409079,
				"y": 4.2212760532,
				"z": 1.2927590415,
				"element": "H" 
			},
			{
				"x": 1.629062522,
				"y": 3.22743618,
				"z": 0.1867008402,
				"element": "H" 
			},
			{
				"x": 0.9202061214,
				"y": 1.1871823751,
				"z": -0.9809026513,
				"element": "H" 
			},
			{
				"x": 1.2008597209,
				"y": -2.1317024184,
				"z": 0.3131950569,
				"element": "H" 
			},
			{
				"x": -0.4700232324,
				"y": -1.6399625167,
				"z": 0.5144895458,
				"element": "H" 
			},
			{
				"x": 2.3468145687,
				"y": -1.6849483065,
				"z": -1.9469018151,
				"element": "H" 
			},
			{
				"x": 1.4113493852,
				"y": -1.1299185773,
				"z": -4.4419671896,
				"element": "H" 
			},
			{
				"x": -1.2091254185,
				"y": -0.4579154307,
				"z": -4.1270662368,
				"element": "H" 
			},
			{
				"x": -1.7142422062,
				"y": -0.64575329,
				"z": -1.4588024969,
				"element": "H" 
			},
			{
				"x": 1.0633501141,
				"y": -0.9935821699,
				"z": 2.7201593128,
				"element": "H" 
			},
			{
				"x": 1.7870410206,
				"y": 1.0725636379,
				"z": 3.902026289,
				"element": "H" 
			}
		],
		 "valence_orbital": [ 
			{
				"type": "occ",
				"energy": -0.27661,
				"method": "rhf"
			},
			{
				"type": "occ",
				"energy": -0.27321,
				"method": "rhf"
			},
			{
				"type": "occ",
				"energy": -0.26354,
				"method": "rhf"
			},
			{
				"type": "occ",
				"energy": -0.23979,
				"method": "rhf"
			},
			{
				"type": "occ",
				"energy": -0.21422,
				"method": "rhf"
			},
			{
				"type": "unocc",
				"energy": -0.05306,
				"method": "rhf"
			},
			{
				"type": "unocc",
				"energy": -0.02448,
				"method": "rhf"
			},
			{
				"type": "unocc",
				"energy": 0.03068,
				"method": "rhf"
			},
			{
				"type": "unocc",
				"energy": 0.04346,
				"method": "rhf"
			},
			{
				"type": "unocc",
				"energy": 0.06122,
				"method": "rhf"
			}
		],
		"cosmo_sigma_profile": { 
			"-0.025": 0.0,
			"-0.024": 0.0,
			"-0.023": 0.0,
			"-0.022": 0.0,
			"-0.021": 0.0,
			"-0.02": 0.0,
			"-0.019": 0.139883029193,
			"-0.018": 0.838112699519,
			"-0.017": 0.813314218588,
			"-0.016": 1.0096450411,
			"-0.015": 1.20546029565,
			"-0.014": 0.626548413483,
			"-0.013": 1.26850397946,
			"-0.012": 0.955551350411,
			"-0.011": 1.29202262029,
			"-0.01": 1.18913881706,
			"-0.009": 1.00629529054,
			"-0.008": 2.95315107862,
			"-0.007": 14.0790328953,
			"-0.006": 15.2614125093,
			"-0.005": 16.8986733905,
			"-0.004": 15.3739549404,
			"-0.003": 13.3004896337,
			"-0.002": 14.4940486081,
			"-0.001": 13.1107517079,
			"0.0": 15.1428249354,
			"0.001": 15.550397309,
			"0.002": 15.2235754752,
			"0.003": 19.0982793581,
			"0.004": 10.9291710114,
			"0.005": 7.12490894863,
			"0.006": 8.0223006959,
			"0.007": 7.10198608935,
			"0.008": 7.07269385364,
			"0.009": 5.292789532,
			"0.01": 4.76868357752,
			"0.011": 5.21551621424,
			"0.012": 5.08450101969,
			"0.013": 1.79880004322,
			"0.014": 0.127990766605,
			"0.015": 0.0,
			"0.016": 0.0,
			"0.017": 0.0,
			"0.018": 0.0,
			"0.019": 0.0,
			"0.02": 0.0,
			"0.021": 0.0,
			"0.022": 0.0,
			"0.023": 0.0,
			"0.024": 0.0,
			"0.025": 0.0
		}
	}
}
