{
	 "smiles": "NC1=CC=C(C=C1)C(=O)NCCN1CCCC1", 
	 "Tm": 411.15, 
	 "num_atms": 36, 
	 "gaussian": { 
		 "optdone": 1, 
		 "sigma_profile": "yes", 
		 "theory": "DFT", 
		 "functional": "B3LYP", 
		 "basiset": "6-31G**", 
		 "properties": { 
			 "R2extent": 6041.0605, 
			 "electric_dipole_moment_norm": 5.13710986937, 
			 "electric_quadrupole_moment_norm": 27.4633157707, 
			 "total_energy": -746.315536175, 
			 "HOMO_LUMO_gap": 0.18596, 
			 "cosmo_polarized_energy": -18.65, 
			 "cosmo_cavitation_energy": 37.38, 
			 "cosmo_dispersion_energy": -26.28, 
			 "cosmo_repulsion_energy": 2.06, 
			 "cosmo_total_nonelectrostatic_energy": 13.16, 
			 "SMD_solvation_energy": 3.02 
		},
		"coords": [
			{
				"x": -0.3379763147,
				"y": -3.8520113921,
				"z": 4.4169877668,
				"element": "N" 
			},
			{
				"x": 0.2734918606,
				"y": -2.7967424981,
				"z": 3.7521409182,
				"element": "C" 
			},
			{
				"x": 1.629129464,
				"y": -2.8712406602,
				"z": 3.3766725032,
				"element": "C" 
			},
			{
				"x": 2.2517346924,
				"y": -1.792449422,
				"z": 2.766346987,
				"element": "C" 
			},
			{
				"x": 1.5478693974,
				"y": -0.6129738666,
				"z": 2.477425523,
				"element": "C" 
			},
			{
				"x": 0.2024546149,
				"y": -0.5351032153,
				"z": 2.8678262186,
				"element": "C" 
			},
			{
				"x": -0.4273416546,
				"y": -1.603844443,
				"z": 3.4962812448,
				"element": "C" 
			},
			{
				"x": 2.3109411286,
				"y": 0.5209135599,
				"z": 1.8710790083,
				"element": "C" 
			},
			{
				"x": 3.5022986749,
				"y": 0.6898087923,
				"z": 2.1216594476,
				"element": "O" 
			},
			{
				"x": 1.6428495691,
				"y": 1.41447561,
				"z": 1.0515568061,
				"element": "N" 
			},
			{
				"x": 0.5255503564,
				"y": 1.1398254496,
				"z": 0.1489233946,
				"element": "C" 
			},
			{
				"x": -0.581066014,
				"y": 2.2121690203,
				"z": 0.2798841145,
				"element": "C" 
			},
			{
				"x": -1.7478278416,
				"y": 2.1040767931,
				"z": -0.5877552913,
				"element": "N" 
			},
			{
				"x": -1.5265270553,
				"y": 2.2592539229,
				"z": -2.0297840665,
				"element": "C" 
			},
			{
				"x": -1.4614970219,
				"y": 0.8336587441,
				"z": -2.6497745075,
				"element": "C" 
			},
			{
				"x": -2.1326412661,
				"y": -0.0816565733,
				"z": -1.5886347778,
				"element": "C" 
			},
			{
				"x": -2.5628256343,
				"y": 0.891714927,
				"z": -0.4556146182,
				"element": "C" 
			},
			{
				"x": 0.0891595985,
				"y": -4.7593859642,
				"z": 4.2992371624,
				"element": "H" 
			},
			{
				"x": -1.3462933574,
				"y": -3.8832210763,
				"z": 4.3734851411,
				"element": "H" 
			},
			{
				"x": 2.1912877555,
				"y": -3.7789032011,
				"z": 3.5825366752,
				"element": "H" 
			},
			{
				"x": 3.3031615765,
				"y": -1.8421529328,
				"z": 2.5029216324,
				"element": "H" 
			},
			{
				"x": -0.3540861009,
				"y": 0.3837918913,
				"z": 2.7119934338,
				"element": "H" 
			},
			{
				"x": -1.4646721575,
				"y": -1.5148107038,
				"z": 3.8095888567,
				"element": "H" 
			},
			{
				"x": 2.283223202,
				"y": 2.1358948682,
				"z": 0.7401253568,
				"element": "H" 
			},
			{
				"x": 0.1303431197,
				"y": 0.1493136873,
				"z": 0.3785830268,
				"element": "H" 
			},
			{
				"x": 0.891347007,
				"y": 1.1047217077,
				"z": -0.8868164282,
				"element": "H" 
			},
			{
				"x": -0.9281571331,
				"y": 2.2200329416,
				"z": 1.3205878771,
				"element": "H" 
			},
			{
				"x": -0.1294240181,
				"y": 3.1979681527,
				"z": 0.1097839111,
				"element": "H" 
			},
			{
				"x": -0.6310250368,
				"y": 2.8577767597,
				"z": -2.2225141984,
				"element": "H" 
			},
			{
				"x": -2.3776599897,
				"y": 2.8053243233,
				"z": -2.4600392525,
				"element": "H" 
			},
			{
				"x": -1.9750873506,
				"y": 0.795181419,
				"z": -3.6153428879,
				"element": "H" 
			},
			{
				"x": -0.425874498,
				"y": 0.5270873776,
				"z": -2.8271504863,
				"element": "H" 
			},
			{
				"x": -2.988644482,
				"y": -0.6304357416,
				"z": -1.9932552064,
				"element": "H" 
			},
			{
				"x": -1.4228342635,
				"y": -0.8268589897,
				"z": -1.2162806707,
				"element": "H" 
			},
			{
				"x": -3.6201247407,
				"y": 1.1615382938,
				"z": -0.5869510429,
				"element": "H" 
			},
			{
				"x": -2.4619560868,
				"y": 0.4627624388,
				"z": 0.5459864286,
				"element": "H" 
			}
		],
		 "valence_orbital": [ 
			{
				"type": "occ",
				"energy": -0.2531,
				"method": "rhf"
			},
			{
				"type": "occ",
				"energy": -0.25062,
				"method": "rhf"
			},
			{
				"type": "occ",
				"energy": -0.23748,
				"method": "rhf"
			},
			{
				"type": "occ",
				"energy": -0.20716,
				"method": "rhf"
			},
			{
				"type": "occ",
				"energy": -0.20153,
				"method": "rhf"
			},
			{
				"type": "unocc",
				"energy": -0.01557,
				"method": "rhf"
			},
			{
				"type": "unocc",
				"energy": -0.0022,
				"method": "rhf"
			},
			{
				"type": "unocc",
				"energy": 0.05744,
				"method": "rhf"
			},
			{
				"type": "unocc",
				"energy": 0.06794,
				"method": "rhf"
			},
			{
				"type": "unocc",
				"energy": 0.07795,
				"method": "rhf"
			}
		],
		"cosmo_sigma_profile": { 
			"-0.025": 0.0,
			"-0.024": 0.0,
			"-0.023": 0.0,
			"-0.022": 0.0,
			"-0.021": 0.0,
			"-0.02": 0.0,
			"-0.019": 0.0,
			"-0.018": 0.0,
			"-0.017": 0.0,
			"-0.016": 0.0,
			"-0.015": 0.0,
			"-0.014": 0.0,
			"-0.013": 1.61762838573,
			"-0.012": 3.99569463958,
			"-0.011": 3.58514985806,
			"-0.01": 3.80446924374,
			"-0.009": 4.64678387932,
			"-0.008": 4.03548789429,
			"-0.007": 4.05229317211,
			"-0.006": 6.8995785849,
			"-0.005": 11.820440419,
			"-0.004": 22.9876431845,
			"-0.003": 24.79159857,
			"-0.002": 30.524751859,
			"-0.001": 32.3848109478,
			"0.0": 27.1252719008,
			"0.001": 21.188385335,
			"0.002": 12.3034778171,
			"0.003": 10.1054111507,
			"0.004": 12.2664189547,
			"0.005": 14.0686053797,
			"0.006": 8.25938888327,
			"0.007": 3.11983529844,
			"0.008": 4.17868775098,
			"0.009": 2.66129611975,
			"0.01": 2.85240227491,
			"0.011": 2.8799768753,
			"0.012": 2.92663813855,
			"0.013": 3.08781228056,
			"0.014": 6.46385948393,
			"0.015": 2.97310942604,
			"0.016": 0.480447888495,
			"0.017": 0.176109986577,
			"0.018": 0.0,
			"0.019": 0.0,
			"0.02": 0.0,
			"0.021": 0.0,
			"0.022": 0.0,
			"0.023": 0.0,
			"0.024": 0.0,
			"0.025": 0.0
		}
	}
}
