{
	 "smiles": "CCN1C(CCC(O)=O)=NC2=C1C=CC(=C2)S(=O)(=O)N(C)C", 
	 "Tm": 460.15, 
	 "num_atms": 41, 
	 "gaussian": { 
		 "optdone": 1, 
		 "sigma_profile": "yes", 
		 "theory": "DFT", 
		 "functional": "B3LYP", 
		 "basiset": "6-31G**", 
		 "properties": { 
			 "R2extent": 9942.9739, 
			 "electric_dipole_moment_norm": 9.74733443819, 
			 "electric_quadrupole_moment_norm": 24.1022111, 
			 "total_energy": -1408.24579326, 
			 "HOMO_LUMO_gap": 0.20155, 
			 "cosmo_polarized_energy": -27.39, 
			 "cosmo_cavitation_energy": 45.09, 
			 "cosmo_dispersion_energy": -31.24, 
			 "cosmo_repulsion_energy": 2.36, 
			 "cosmo_total_nonelectrostatic_energy": 16.21, 
			 "SMD_solvation_energy": 5.09 
		},
		"coords": [
			{
				"x": 3.4151017303,
				"y": -0.1543608786,
				"z": -1.678256324,
				"element": "C" 
			},
			{
				"x": 2.7382159557,
				"y": -1.1412332135,
				"z": -0.7238177458,
				"element": "C" 
			},
			{
				"x": 1.7994750888,
				"y": -0.5024144576,
				"z": 0.1967190232,
				"element": "N" 
			},
			{
				"x": 2.0579912306,
				"y": 0.0371123315,
				"z": 1.448830073,
				"element": "C" 
			},
			{
				"x": 3.4246173262,
				"y": 0.0952857385,
				"z": 2.0716875975,
				"element": "C" 
			},
			{
				"x": 3.45474458,
				"y": -0.5264435495,
				"z": 3.4767992924,
				"element": "C" 
			},
			{
				"x": 3.2824997685,
				"y": -2.0308040651,
				"z": 3.5517410676,
				"element": "C" 
			},
			{
				"x": 3.4020606015,
				"y": -2.6464718294,
				"z": 2.3432577822,
				"element": "O" 
			},
			{
				"x": 3.0850717023,
				"y": -2.6497681283,
				"z": 4.5707248672,
				"element": "O" 
			},
			{
				"x": 0.985859853,
				"y": 0.5146481198,
				"z": 2.0388260089,
				"element": "N" 
			},
			{
				"x": -0.0475380572,
				"y": 0.2970070904,
				"z": 1.1459531321,
				"element": "C" 
			},
			{
				"x": 0.4428034641,
				"y": -0.3365507472,
				"z": -0.0230699026,
				"element": "C" 
			},
			{
				"x": -0.3887551626,
				"y": -0.6858216194,
				"z": -1.091327234,
				"element": "C" 
			},
			{
				"x": -1.7400405508,
				"y": -0.3796255105,
				"z": -0.9698269239,
				"element": "C" 
			},
			{
				"x": -2.2316925466,
				"y": 0.2541647201,
				"z": 0.1910531067,
				"element": "C" 
			},
			{
				"x": -1.4078835602,
				"y": 0.5971253155,
				"z": 1.262398308,
				"element": "C" 
			},
			{
				"x": -3.9773094808,
				"y": 0.6698639279,
				"z": 0.270749435,
				"element": "S" 
			},
			{
				"x": -4.6839502885,
				"y": -0.2164681122,
				"z": -0.6579590121,
				"element": "O" 
			},
			{
				"x": -4.3467087921,
				"y": 0.7687875788,
				"z": 1.6842959097,
				"element": "O" 
			},
			{
				"x": -4.1410507253,
				"y": 2.2337154571,
				"z": -0.3634382478,
				"element": "N" 
			},
			{
				"x": -3.5866516498,
				"y": 3.3163489131,
				"z": 0.4512329074,
				"element": "C" 
			},
			{
				"x": -3.9148010514,
				"y": 2.3695696656,
				"z": -1.803048194,
				"element": "C" 
			},
			{
				"x": 2.6737780119,
				"y": 0.3853767789,
				"z": -2.2746020237,
				"element": "H" 
			},
			{
				"x": 4.0098088205,
				"y": 0.5822569708,
				"z": -1.1296345653,
				"element": "H" 
			},
			{
				"x": 4.0820039144,
				"y": -0.6892140672,
				"z": -2.3618415595,
				"element": "H" 
			},
			{
				"x": 3.4724897475,
				"y": -1.6888571663,
				"z": -0.1289137614,
				"element": "H" 
			},
			{
				"x": 2.1747634634,
				"y": -1.891483572,
				"z": -1.286808357,
				"element": "H" 
			},
			{
				"x": 4.1702677619,
				"y": -0.3789146725,
				"z": 1.4310502436,
				"element": "H" 
			},
			{
				"x": 3.7073217016,
				"y": 1.1504641205,
				"z": 2.163015533,
				"element": "H" 
			},
			{
				"x": 2.6703890772,
				"y": -0.0869650597,
				"z": 4.0983765305,
				"element": "H" 
			},
			{
				"x": 4.4091479544,
				"y": -0.2991675033,
				"z": 3.9669753022,
				"element": "H" 
			},
			{
				"x": 3.2769405989,
				"y": -3.5948340835,
				"z": 2.5178539103,
				"element": "H" 
			},
			{
				"x": -0.0125548909,
				"y": -1.1819249466,
				"z": -1.9804868232,
				"element": "H" 
			},
			{
				"x": -2.4372256378,
				"y": -0.6530066301,
				"z": -1.7532872247,
				"element": "H" 
			},
			{
				"x": -1.8099374861,
				"y": 1.0499746782,
				"z": 2.1610794458,
				"element": "H" 
			},
			{
				"x": -4.0253145582,
				"y": 4.2576460298,
				"z": 0.1068731263,
				"element": "H" 
			},
			{
				"x": -3.8673975055,
				"y": 3.1640143653,
				"z": 1.4929997501,
				"element": "H" 
			},
			{
				"x": -2.4907575302,
				"y": 3.3924934849,
				"z": 0.3725223921,
				"element": "H" 
			},
			{
				"x": -4.3526493018,
				"y": 3.3186842897,
				"z": -2.1264400014,
				"element": "H" 
			},
			{
				"x": -4.4213925655,
				"y": 1.5586989518,
				"z": -2.325829648,
				"element": "H" 
			},
			{
				"x": -2.8462410113,
				"y": 2.3701912842,
				"z": -2.0703271965,
				"element": "H" 
			}
		],
		 "valence_orbital": [ 
			{
				"type": "occ",
				"energy": -0.28391,
				"method": "rhf"
			},
			{
				"type": "occ",
				"energy": -0.28123,
				"method": "rhf"
			},
			{
				"type": "occ",
				"energy": -0.25766,
				"method": "rhf"
			},
			{
				"type": "occ",
				"energy": -0.23634,
				"method": "rhf"
			},
			{
				"type": "occ",
				"energy": -0.23585,
				"method": "rhf"
			},
			{
				"type": "unocc",
				"energy": -0.0343,
				"method": "rhf"
			},
			{
				"type": "unocc",
				"energy": -0.01246,
				"method": "rhf"
			},
			{
				"type": "unocc",
				"energy": -0.00027,
				"method": "rhf"
			},
			{
				"type": "unocc",
				"energy": 0.0336,
				"method": "rhf"
			},
			{
				"type": "unocc",
				"energy": 0.05876,
				"method": "rhf"
			}
		],
		"cosmo_sigma_profile": { 
			"-0.025": 0.0,
			"-0.024": 0.0,
			"-0.023": 0.0,
			"-0.022": 0.0,
			"-0.021": 0.0,
			"-0.02": 0.0,
			"-0.019": 0.0,
			"-0.018": 0.698346241393,
			"-0.017": 0.959715284061,
			"-0.016": 0.676841739866,
			"-0.015": 0.890485731956,
			"-0.014": 0.961956604655,
			"-0.013": 0.348192069606,
			"-0.012": 0.398665230348,
			"-0.011": 1.36225259253,
			"-0.01": 0.852681206949,
			"-0.009": 0.388238815687,
			"-0.008": 2.93760039822,
			"-0.007": 8.48293341331,
			"-0.006": 21.0374192331,
			"-0.005": 24.6446495064,
			"-0.004": 39.254496117,
			"-0.003": 40.7383378042,
			"-0.002": 36.2043845462,
			"-0.001": 21.2595254135,
			"0.0": 21.7434991552,
			"0.001": 16.5292602907,
			"0.002": 15.9871585856,
			"0.003": 17.4953057514,
			"0.004": 9.78294089765,
			"0.005": 7.65629852553,
			"0.006": 6.87833974272,
			"0.007": 6.78045210484,
			"0.008": 7.21003542557,
			"0.009": 6.7234475164,
			"0.01": 9.95852274205,
			"0.011": 11.8132260902,
			"0.012": 11.5049597279,
			"0.013": 1.78141575412,
			"0.014": 0.968250086608,
			"0.015": 0.50332499157,
			"0.016": 0.669785450544,
			"0.017": 0.0776163554138,
			"0.018": 0.0,
			"0.019": 0.0,
			"0.02": 0.0,
			"0.021": 0.0,
			"0.022": 0.0,
			"0.023": 0.0,
			"0.024": 0.0,
			"0.025": 0.0
		}
	}
}
