{
	 "smiles": "CC(=O)C1=CC=C(C=C1)C1CC1(Cl)Cl", 
	 "Tm": 308.15, 
	 "num_atms": 24, 
	 "gaussian": { 
		 "optdone": 1, 
		 "sigma_profile": "yes", 
		 "theory": "DFT", 
		 "functional": "B3LYP", 
		 "basiset": "6-31G**", 
		 "properties": { 
			 "R2extent": 4921.4913, 
			 "electric_dipole_moment_norm": 2.06265794789, 
			 "electric_quadrupole_moment_norm": 20.0356553312, 
			 "total_energy": -1420.7752123, 
			 "HOMO_LUMO_gap": 0.18875, 
			 "cosmo_polarized_energy": -10.73, 
			 "cosmo_cavitation_energy": 31.64, 
			 "cosmo_dispersion_energy": -22.41, 
			 "cosmo_repulsion_energy": 1.76, 
			 "cosmo_total_nonelectrostatic_energy": 10.99, 
			 "SMD_solvation_energy": 5.09 
		},
		"coords": [
			{
				"x": -1.2777267288,
				"y": 1.5858493912,
				"z": 4.0264925202,
				"element": "C" 
			},
			{
				"x": -1.9057345321,
				"y": 0.5372879906,
				"z": 3.1241662343,
				"element": "C" 
			},
			{
				"x": -2.8849267764,
				"y": -0.0940939225,
				"z": 3.4918958589,
				"element": "O" 
			},
			{
				"x": -1.3027347226,
				"y": 0.2891829083,
				"z": 1.7729522284,
				"element": "C" 
			},
			{
				"x": -1.8895626227,
				"y": -0.6862150457,
				"z": 0.954164286,
				"element": "C" 
			},
			{
				"x": -1.3711580645,
				"y": -0.9584585709,
				"z": -0.3074178053,
				"element": "C" 
			},
			{
				"x": -0.2521201335,
				"y": -0.2631108633,
				"z": -0.7848376589,
				"element": "C" 
			},
			{
				"x": 0.3310894564,
				"y": 0.7178982243,
				"z": 0.0304518458,
				"element": "C" 
			},
			{
				"x": -0.1846235791,
				"y": 0.989582278,
				"z": 1.2944395236,
				"element": "C" 
			},
			{
				"x": 0.3093398102,
				"y": -0.5075768328,
				"z": -2.1511792835,
				"element": "C" 
			},
			{
				"x": 0.1841031409,
				"y": -1.8391150026,
				"z": -2.8785787984,
				"element": "C" 
			},
			{
				"x": 1.5220448868,
				"y": -1.3793505515,
				"z": -2.395052129,
				"element": "C" 
			},
			{
				"x": 2.2800459165,
				"y": -2.235637371,
				"z": -1.0376644714,
				"element": "Cl" 
			},
			{
				"x": 2.7130438862,
				"y": -0.8247060909,
				"z": -3.6006507687,
				"element": "Cl" 
			},
			{
				"x": -1.8428697934,
				"y": 1.6279433416,
				"z": 4.9578519161,
				"element": "H" 
			},
			{
				"x": -1.2880869203,
				"y": 2.5724660819,
				"z": 3.5501089901,
				"element": "H" 
			},
			{
				"x": -0.2326818857,
				"y": 1.3404530985,
				"z": 4.2458793494,
				"element": "H" 
			},
			{
				"x": -2.7570301703,
				"y": -1.2170163309,
				"z": 1.331805236,
				"element": "H" 
			},
			{
				"x": -1.8439521547,
				"y": -1.7105201013,
				"z": -0.9317982001,
				"element": "H" 
			},
			{
				"x": 1.198418759,
				"y": 1.265074198,
				"z": -0.3281409792,
				"element": "H" 
			},
			{
				"x": 0.2905667462,
				"y": 1.7498791258,
				"z": 1.9057562769,
				"element": "H" 
			},
			{
				"x": 0.2943964772,
				"y": 0.367815759,
				"z": -2.7979829027,
				"element": "H" 
			},
			{
				"x": 0.0005321672,
				"y": -1.8284570039,
				"z": -3.9478110895,
				"element": "H" 
			},
			{
				"x": -0.2577731621,
				"y": -2.6744747098,
				"z": -2.344850179,
				"element": "H" 
			}
		],
		 "valence_orbital": [ 
			{
				"type": "occ",
				"energy": -0.30956,
				"method": "rhf"
			},
			{
				"type": "occ",
				"energy": -0.28867,
				"method": "rhf"
			},
			{
				"type": "occ",
				"energy": -0.26687,
				"method": "rhf"
			},
			{
				"type": "occ",
				"energy": -0.25631,
				"method": "rhf"
			},
			{
				"type": "occ",
				"energy": -0.25111,
				"method": "rhf"
			},
			{
				"type": "unocc",
				"energy": -0.06236,
				"method": "rhf"
			},
			{
				"type": "unocc",
				"energy": -0.01746,
				"method": "rhf"
			},
			{
				"type": "unocc",
				"energy": -0.00835,
				"method": "rhf"
			},
			{
				"type": "unocc",
				"energy": 0.01158,
				"method": "rhf"
			},
			{
				"type": "unocc",
				"energy": 0.03358,
				"method": "rhf"
			}
		],
		"cosmo_sigma_profile": { 
			"-0.025": 0.0,
			"-0.024": 0.0,
			"-0.023": 0.0,
			"-0.022": 0.0,
			"-0.021": 0.0,
			"-0.02": 0.0,
			"-0.019": 0.0,
			"-0.018": 0.0,
			"-0.017": 0.0,
			"-0.016": 0.0,
			"-0.015": 0.0,
			"-0.014": 0.0,
			"-0.013": 0.0,
			"-0.012": 0.0,
			"-0.011": 0.0,
			"-0.01": 0.0,
			"-0.009": 0.0,
			"-0.008": 2.04785815837,
			"-0.007": 8.83425567553,
			"-0.006": 19.2666072761,
			"-0.005": 19.3718502523,
			"-0.004": 17.5854738067,
			"-0.003": 17.9266945671,
			"-0.002": 17.4245028218,
			"-0.001": 20.8266430571,
			"0.0": 18.1099704191,
			"0.001": 15.8585156762,
			"0.002": 18.306127657,
			"0.003": 22.7771444387,
			"0.004": 27.6422684322,
			"0.005": 13.1858460088,
			"0.006": 2.35074397549,
			"0.007": 1.01295255234,
			"0.008": 1.30504503896,
			"0.009": 2.02789297178,
			"0.01": 2.14041792229,
			"0.011": 2.76019863041,
			"0.012": 4.24732843529,
			"0.013": 1.3826517835,
			"0.014": 0.164803231039,
			"0.015": 0.0,
			"0.016": 0.0,
			"0.017": 0.0,
			"0.018": 0.0,
			"0.019": 0.0,
			"0.02": 0.0,
			"0.021": 0.0,
			"0.022": 0.0,
			"0.023": 0.0,
			"0.024": 0.0,
			"0.025": 0.0
		}
	}
}
