{
	 "smiles": "CCOC(=O)C1=NC2=C(NCCCC2)S1", 
	 "Tm": 418.15, 
	 "num_atms": 29, 
	 "gaussian": { 
		 "optdone": 1, 
		 "sigma_profile": "yes", 
		 "theory": "DFT", 
		 "functional": "B3LYP", 
		 "basiset": "6-31G**", 
		 "properties": { 
			 "R2extent": 4984.7256, 
			 "electric_dipole_moment_norm": 3.21447319012, 
			 "electric_quadrupole_moment_norm": 19.7209356064, 
			 "total_energy": -1047.65095259, 
			 "HOMO_LUMO_gap": 0.15631, 
			 "cosmo_polarized_energy": -13.59, 
			 "cosmo_cavitation_energy": 33.06, 
			 "cosmo_dispersion_energy": -24.97, 
			 "cosmo_repulsion_energy": 1.95, 
			 "cosmo_total_nonelectrostatic_energy": 10.04, 
			 "SMD_solvation_energy": 3.32 
		},
		"coords": [
			{
				"x": -3.0945042956,
				"y": -2.6333359144,
				"z": 2.8859497504,
				"element": "C" 
			},
			{
				"x": -3.3219457029,
				"y": -1.3336910435,
				"z": 2.1282568529,
				"element": "C" 
			},
			{
				"x": -2.1689619197,
				"y": -0.982406906,
				"z": 1.3271101251,
				"element": "O" 
			},
			{
				"x": -1.193884205,
				"y": -0.3059617827,
				"z": 1.9589375773,
				"element": "C" 
			},
			{
				"x": -1.2216620453,
				"y": 0.0289966954,
				"z": 3.1319166024,
				"element": "O" 
			},
			{
				"x": -0.0609310221,
				"y": 0.0103224779,
				"z": 1.0706389651,
				"element": "C" 
			},
			{
				"x": 0.0861574623,
				"y": -0.3211683842,
				"z": -0.1822304412,
				"element": "N" 
			},
			{
				"x": 1.2826331101,
				"y": 0.0906329414,
				"z": -0.6971944361,
				"element": "C" 
			},
			{
				"x": 2.0891683558,
				"y": 0.7813294271,
				"z": 0.2006495254,
				"element": "C" 
			},
			{
				"x": 3.3500369862,
				"y": 1.3056946854,
				"z": -0.0256336109,
				"element": "N" 
			},
			{
				"x": 3.596225939,
				"y": 2.1375405311,
				"z": -1.2132382425,
				"element": "C" 
			},
			{
				"x": 3.5970823521,
				"y": 1.3614884405,
				"z": -2.5345977586,
				"element": "C" 
			},
			{
				"x": 2.2269921515,
				"y": 0.8321572385,
				"z": -2.9810433094,
				"element": "C" 
			},
			{
				"x": 1.6590375548,
				"y": -0.2959716278,
				"z": -2.1040268116,
				"element": "C" 
			},
			{
				"x": 1.2893796903,
				"y": 0.9165561433,
				"z": 1.7483810655,
				"element": "S" 
			},
			{
				"x": -4.0089492389,
				"y": -2.9180356844,
				"z": 3.4173096196,
				"element": "H" 
			},
			{
				"x": -2.2941091899,
				"y": -2.5142872905,
				"z": 3.6202012868,
				"element": "H" 
			},
			{
				"x": -2.8291465447,
				"y": -3.4421423443,
				"z": 2.1989479079,
				"element": "H" 
			},
			{
				"x": -3.5417457419,
				"y": -0.5113073683,
				"z": 2.8134561842,
				"element": "H" 
			},
			{
				"x": -4.1327976119,
				"y": -1.429766805,
				"z": 1.4023664075,
				"element": "H" 
			},
			{
				"x": 3.7817130131,
				"y": 1.6850850398,
				"z": 0.8061325646,
				"element": "H" 
			},
			{
				"x": 4.5822682038,
				"y": 2.5897614533,
				"z": -1.0672994743,
				"element": "H" 
			},
			{
				"x": 2.8630974972,
				"y": 2.9584394805,
				"z": -1.2739036686,
				"element": "H" 
			},
			{
				"x": 3.9821808072,
				"y": 2.0406288017,
				"z": -3.3056401938,
				"element": "H" 
			},
			{
				"x": 4.3112061597,
				"y": 0.5315696899,
				"z": -2.4559434365,
				"element": "H" 
			},
			{
				"x": 1.5087140711,
				"y": 1.6619747094,
				"z": -3.0224001192,
				"element": "H" 
			},
			{
				"x": 2.3220284171,
				"y": 0.4514155924,
				"z": -4.0049761591,
				"element": "H" 
			},
			{
				"x": 2.3970584777,
				"y": -1.1118078466,
				"z": -2.0681594049,
				"element": "H" 
			},
			{
				"x": 0.7603572687,
				"y": -0.7108103496,
				"z": -2.5692673682,
				"element": "H" 
			}
		],
		 "valence_orbital": [ 
			{
				"type": "occ",
				"energy": -0.29185,
				"method": "rhf"
			},
			{
				"type": "occ",
				"energy": -0.27868,
				"method": "rhf"
			},
			{
				"type": "occ",
				"energy": -0.26621,
				"method": "rhf"
			},
			{
				"type": "occ",
				"energy": -0.2634,
				"method": "rhf"
			},
			{
				"type": "occ",
				"energy": -0.20634,
				"method": "rhf"
			},
			{
				"type": "unocc",
				"energy": -0.05003,
				"method": "rhf"
			},
			{
				"type": "unocc",
				"energy": 0.00824,
				"method": "rhf"
			},
			{
				"type": "unocc",
				"energy": 0.03649,
				"method": "rhf"
			},
			{
				"type": "unocc",
				"energy": 0.08043,
				"method": "rhf"
			},
			{
				"type": "unocc",
				"energy": 0.09597,
				"method": "rhf"
			}
		],
		"cosmo_sigma_profile": { 
			"-0.025": 0.0,
			"-0.024": 0.0,
			"-0.023": 0.0,
			"-0.022": 0.0,
			"-0.021": 0.0,
			"-0.02": 0.0,
			"-0.019": 0.0,
			"-0.018": 0.0,
			"-0.017": 0.0,
			"-0.016": 0.0,
			"-0.015": 0.0,
			"-0.014": 1.46192342187,
			"-0.013": 1.09659430222,
			"-0.012": 1.74180813178,
			"-0.011": 1.57421662815,
			"-0.01": 1.26433893368,
			"-0.009": 0.980523336381,
			"-0.008": 1.312890187,
			"-0.007": 1.95185537772,
			"-0.006": 3.87896544562,
			"-0.005": 8.24170033305,
			"-0.004": 18.5271634289,
			"-0.003": 33.5978762581,
			"-0.002": 36.4972626726,
			"-0.001": 31.4330781415,
			"0.0": 26.9145753625,
			"0.001": 19.4313586687,
			"0.002": 14.79462039,
			"0.003": 11.9615672617,
			"0.004": 6.20162572719,
			"0.005": 4.9362438291,
			"0.006": 4.61644689639,
			"0.007": 4.73247683312,
			"0.008": 3.62171405123,
			"0.009": 3.71370309378,
			"0.01": 3.42298947568,
			"0.011": 5.20699733855,
			"0.012": 4.97651499306,
			"0.013": 0.953325102857,
			"0.014": 1.45527044414,
			"0.015": 1.08013330588,
			"0.016": 0.21494108351,
			"0.017": 0.0,
			"0.018": 0.0,
			"0.019": 0.0,
			"0.02": 0.0,
			"0.021": 0.0,
			"0.022": 0.0,
			"0.023": 0.0,
			"0.024": 0.0,
			"0.025": 0.0
		}
	}
}
