{
	 "smiles": "NC1=C(C=C(Cl)C=C1)C1=NC2=C(N1)C=CC=C2", 
	 "Tm": 510.15, 
	 "num_atms": 27, 
	 "gaussian": { 
		 "optdone": 1, 
		 "sigma_profile": "yes", 
		 "theory": "DFT", 
		 "functional": "B3LYP", 
		 "basiset": "6-31G**", 
		 "properties": { 
			 "R2extent": 5966.9521, 
			 "electric_dipole_moment_norm": 0.987147309169, 
			 "electric_quadrupole_moment_norm": 17.4145310342, 
			 "total_energy": -1125.8906013, 
			 "HOMO_LUMO_gap": 0.14831, 
			 "cosmo_polarized_energy": -13.44, 
			 "cosmo_cavitation_energy": 32.65, 
			 "cosmo_dispersion_energy": -24.82, 
			 "cosmo_repulsion_energy": 1.9, 
			 "cosmo_total_nonelectrostatic_energy": 9.72, 
			 "SMD_solvation_energy": 3.46 
		},
		"coords": [
			{
				"x": 1.6123816192,
				"y": 3.2757468847,
				"z": -0.7268754151,
				"element": "N" 
			},
			{
				"x": 1.9797829667,
				"y": 2.1621644319,
				"z": -0.0295480722,
				"element": "C" 
			},
			{
				"x": 1.1241635637,
				"y": 1.0213940175,
				"z": 0.0705002889,
				"element": "C" 
			},
			{
				"x": 1.5717145021,
				"y": -0.1043026443,
				"z": 0.7869843271,
				"element": "C" 
			},
			{
				"x": 2.8220673253,
				"y": -0.1305358319,
				"z": 1.3816906979,
				"element": "C" 
			},
			{
				"x": 3.3388765537,
				"y": -1.5593016871,
				"z": 2.2725918863,
				"element": "Cl" 
			},
			{
				"x": 3.6709583027,
				"y": 0.9764050167,
				"z": 1.285205608,
				"element": "C" 
			},
			{
				"x": 3.2479631882,
				"y": 2.0980289399,
				"z": 0.5921478912,
				"element": "C" 
			},
			{
				"x": -0.1983497253,
				"y": 1.0186866258,
				"z": -0.550759352,
				"element": "C" 
			},
			{
				"x": -0.793554923,
				"y": 2.066601414,
				"z": -1.1035957644,
				"element": "N" 
			},
			{
				"x": -2.0211256585,
				"y": 1.6185876089,
				"z": -1.5569381028,
				"element": "C" 
			},
			{
				"x": -2.1695745699,
				"y": 0.241451642,
				"z": -1.267329291,
				"element": "C" 
			},
			{
				"x": -0.9972134475,
				"y": -0.1098984454,
				"z": -0.6232046736,
				"element": "N" 
			},
			{
				"x": -3.3119460312,
				"y": -0.4795288909,
				"z": -1.6167724664,
				"element": "C" 
			},
			{
				"x": -4.3203974118,
				"y": 0.223744365,
				"z": -2.2730558219,
				"element": "C" 
			},
			{
				"x": -4.1903924215,
				"y": 1.5957789925,
				"z": -2.5668149515,
				"element": "C" 
			},
			{
				"x": -3.0474654028,
				"y": 2.3075872962,
				"z": -2.2155204662,
				"element": "C" 
			},
			{
				"x": 2.1637456503,
				"y": 4.1118881963,
				"z": -0.626172543,
				"element": "H" 
			},
			{
				"x": 0.6416330217,
				"y": 3.3402602854,
				"z": -1.025081213,
				"element": "H" 
			},
			{
				"x": 0.9288545238,
				"y": -0.9692482959,
				"z": 0.9078685426,
				"element": "H" 
			},
			{
				"x": 4.6489168178,
				"y": 0.9558381012,
				"z": 1.7535377923,
				"element": "H" 
			},
			{
				"x": 3.9064695864,
				"y": 2.9592507402,
				"z": 0.5162269547,
				"element": "H" 
			},
			{
				"x": -0.7386731822,
				"y": -1.0399385499,
				"z": -0.3372990965,
				"element": "H" 
			},
			{
				"x": -3.4161029056,
				"y": -1.536465773,
				"z": -1.3907505384,
				"element": "H" 
			},
			{
				"x": -5.2272184784,
				"y": -0.2981207906,
				"z": -2.5636173423,
				"element": "H" 
			},
			{
				"x": -5.001525928,
				"y": 2.1050545991,
				"z": -3.0785090906,
				"element": "H" 
			},
			{
				"x": -2.9426875359,
				"y": 3.3641717514,
				"z": -2.4399097882,
				"element": "H" 
			}
		],
		 "valence_orbital": [ 
			{
				"type": "occ",
				"energy": -0.28235,
				"method": "rhf"
			},
			{
				"type": "occ",
				"energy": -0.27432,
				"method": "rhf"
			},
			{
				"type": "occ",
				"energy": -0.23079,
				"method": "rhf"
			},
			{
				"type": "occ",
				"energy": -0.2258,
				"method": "rhf"
			},
			{
				"type": "occ",
				"energy": -0.19506,
				"method": "rhf"
			},
			{
				"type": "unocc",
				"energy": -0.04675,
				"method": "rhf"
			},
			{
				"type": "unocc",
				"energy": 0.00119,
				"method": "rhf"
			},
			{
				"type": "unocc",
				"energy": 0.01116,
				"method": "rhf"
			},
			{
				"type": "unocc",
				"energy": 0.02179,
				"method": "rhf"
			},
			{
				"type": "unocc",
				"energy": 0.0305,
				"method": "rhf"
			}
		],
		"cosmo_sigma_profile": { 
			"-0.025": 0.0,
			"-0.024": 0.0,
			"-0.023": 0.0,
			"-0.022": 0.0,
			"-0.021": 0.0,
			"-0.02": 0.0,
			"-0.019": 0.0,
			"-0.018": 0.0100295767443,
			"-0.017": 0.9951479906,
			"-0.016": 1.04240108973,
			"-0.015": 1.65511972846,
			"-0.014": 0.833667743725,
			"-0.013": 2.2777666227,
			"-0.012": 3.30718346007,
			"-0.011": 2.84540703379,
			"-0.01": 2.42797726805,
			"-0.009": 2.60622660407,
			"-0.008": 3.77980682576,
			"-0.007": 6.87714079741,
			"-0.006": 10.2042755569,
			"-0.005": 13.7501442243,
			"-0.004": 12.7553283652,
			"-0.003": 13.1522456158,
			"-0.002": 12.0217532873,
			"-0.001": 13.5861577158,
			"0.0": 12.6908203659,
			"0.001": 18.3507780565,
			"0.002": 23.0738417051,
			"0.003": 28.1136442745,
			"0.004": 31.4255368962,
			"0.005": 24.3605190446,
			"0.006": 13.6741314748,
			"0.007": 3.67007732151,
			"0.008": 2.80329409972,
			"0.009": 1.3524625447,
			"0.01": 1.0334328084,
			"0.011": 0.175152097599,
			"0.012": 0.0,
			"0.013": 0.0,
			"0.014": 0.0,
			"0.015": 0.0,
			"0.016": 0.0,
			"0.017": 0.0,
			"0.018": 0.0,
			"0.019": 0.0,
			"0.02": 0.0,
			"0.021": 0.0,
			"0.022": 0.0,
			"0.023": 0.0,
			"0.024": 0.0,
			"0.025": 0.0
		}
	}
}
