{
	 "smiles": "CC1=NC(N)=C(O)C=C1", 
	 "Tm": 419.15, 
	 "num_atms": 17, 
	 "gaussian": { 
		 "optdone": 1, 
		 "sigma_profile": "yes", 
		 "theory": "DFT", 
		 "functional": "B3LYP", 
		 "basiset": "6-31G**", 
		 "properties": { 
			 "R2extent": 1342.8908, 
			 "electric_dipole_moment_norm": 0.934462802898, 
			 "electric_quadrupole_moment_norm": 9.79545381287, 
			 "total_energy": -418.194404228, 
			 "HOMO_LUMO_gap": 0.19781, 
			 "cosmo_polarized_energy": -9.91, 
			 "cosmo_cavitation_energy": 20.65, 
			 "cosmo_dispersion_energy": -15.69, 
			 "cosmo_repulsion_energy": 1.3, 
			 "cosmo_total_nonelectrostatic_energy": 6.27, 
			 "SMD_solvation_energy": 2.69 
		},
		"coords": [
			{
				"x": 1.9284574887,
				"y": -1.7382704163,
				"z": 0.2744868966,
				"element": "C" 
			},
			{
				"x": 1.0048734812,
				"y": -0.5620259582,
				"z": 0.0773467121,
				"element": "C" 
			},
			{
				"x": 0.792799519,
				"y": -0.1755554574,
				"z": -1.1976756333,
				"element": "N" 
			},
			{
				"x": -0.0009697229,
				"y": 0.8631837292,
				"z": -1.429613077,
				"element": "C" 
			},
			{
				"x": -0.1977654,
				"y": 1.298805069,
				"z": -2.7599476695,
				"element": "N" 
			},
			{
				"x": -0.6137739739,
				"y": 1.6115568904,
				"z": -0.4023664589,
				"element": "C" 
			},
			{
				"x": -1.3701175074,
				"y": 2.7105921444,
				"z": -0.701197551,
				"element": "O" 
			},
			{
				"x": -0.4228053149,
				"y": 1.2004678067,
				"z": 0.9074443598,
				"element": "C" 
			},
			{
				"x": 0.3921972469,
				"y": 0.0891140929,
				"z": 1.149248961,
				"element": "C" 
			},
			{
				"x": 2.9324426856,
				"y": -1.5076706068,
				"z": -0.0986757553,
				"element": "H" 
			},
			{
				"x": 2.0084545112,
				"y": -2.0140596458,
				"z": 1.3292806514,
				"element": "H" 
			},
			{
				"x": 1.5716886266,
				"y": -2.6084622779,
				"z": -0.2865222221,
				"element": "H" 
			},
			{
				"x": 0.3577072136,
				"y": 0.7301767193,
				"z": -3.391284497,
				"element": "H" 
			},
			{
				"x": -1.1746322317,
				"y": 1.2563008633,
				"z": -3.0402414282,
				"element": "H" 
			},
			{
				"x": -1.082786072,
				"y": 3.0133334642,
				"z": -1.5784637785,
				"element": "H" 
			},
			{
				"x": -0.8876885066,
				"y": 1.7558907364,
				"z": 1.7157972965,
				"element": "H" 
			},
			{
				"x": 0.5613179566,
				"y": -0.2533771533,
				"z": 2.1651831936,
				"element": "H" 
			}
		],
		 "valence_orbital": [ 
			{
				"type": "occ",
				"energy": -0.34593,
				"method": "rhf"
			},
			{
				"type": "occ",
				"energy": -0.3059,
				"method": "rhf"
			},
			{
				"type": "occ",
				"energy": -0.25885,
				"method": "rhf"
			},
			{
				"type": "occ",
				"energy": -0.25401,
				"method": "rhf"
			},
			{
				"type": "occ",
				"energy": -0.20781,
				"method": "rhf"
			},
			{
				"type": "unocc",
				"energy": -0.01,
				"method": "rhf"
			},
			{
				"type": "unocc",
				"energy": 0.01428,
				"method": "rhf"
			},
			{
				"type": "unocc",
				"energy": 0.0688,
				"method": "rhf"
			},
			{
				"type": "unocc",
				"energy": 0.10836,
				"method": "rhf"
			},
			{
				"type": "unocc",
				"energy": 0.12702,
				"method": "rhf"
			}
		],
		"cosmo_sigma_profile": { 
			"-0.025": 0.0,
			"-0.024": 0.0,
			"-0.023": 0.0,
			"-0.022": 0.0,
			"-0.021": 0.0,
			"-0.02": 0.0,
			"-0.019": 0.0,
			"-0.018": 0.0,
			"-0.017": 0.0,
			"-0.016": 0.0,
			"-0.015": 0.00532589179321,
			"-0.014": 0.550901884673,
			"-0.013": 1.28868094837,
			"-0.012": 2.62547647499,
			"-0.011": 4.28903990767,
			"-0.01": 2.92436164176,
			"-0.009": 3.64170272879,
			"-0.008": 2.9466408562,
			"-0.007": 2.79011261382,
			"-0.006": 4.73442710465,
			"-0.005": 7.10587917806,
			"-0.004": 11.0527633266,
			"-0.003": 10.2065591893,
			"-0.002": 10.4806925546,
			"-0.001": 9.94596194104,
			"0.0": 12.4390603811,
			"0.001": 11.6707966078,
			"0.002": 10.0397063088,
			"0.003": 12.5930636815,
			"0.004": 11.1169754483,
			"0.005": 6.18652859331,
			"0.006": 3.22147178424,
			"0.007": 3.45504938834,
			"0.008": 3.30319567663,
			"0.009": 3.7428841432,
			"0.01": 2.4469117465,
			"0.011": 3.48224996507,
			"0.012": 2.15261452523,
			"0.013": 1.20019047453,
			"0.014": 0.845216674504,
			"0.015": 0.660922542921,
			"0.016": 0.075776353789,
			"0.017": 0.0,
			"0.018": 0.0,
			"0.019": 0.0,
			"0.02": 0.0,
			"0.021": 0.0,
			"0.022": 0.0,
			"0.023": 0.0,
			"0.024": 0.0,
			"0.025": 0.0
		}
	}
}
