{
	 "smiles": "CCOC(=O)C(=CNC1=C(F)C(F)=C(F)C=C1)C#N", 
	 "Tm": 416.15, 
	 "num_atms": 28, 
	 "gaussian": { 
		 "optdone": 1, 
		 "sigma_profile": "yes", 
		 "theory": "DFT", 
		 "functional": "B3LYP", 
		 "basiset": "6-31G**", 
		 "properties": { 
			 "R2extent": 5998.0242, 
			 "electric_dipole_moment_norm": 5.43688993727, 
			 "electric_quadrupole_moment_norm": 46.1249700626, 
			 "total_energy": -1022.10973023, 
			 "HOMO_LUMO_gap": 0.16175, 
			 "cosmo_polarized_energy": -20.93, 
			 "cosmo_cavitation_energy": 36.04, 
			 "cosmo_dispersion_energy": -23.01, 
			 "cosmo_repulsion_energy": 1.73, 
			 "cosmo_total_nonelectrostatic_energy": 14.77, 
			 "SMD_solvation_energy": 9.96 
		},
		"coords": [
			{
				"x": -4.3175190062,
				"y": 0.3021269503,
				"z": 0.4347017482,
				"element": "C" 
			},
			{
				"x": -3.7595986215,
				"y": -0.9587855128,
				"z": -0.1961144069,
				"element": "C" 
			},
			{
				"x": -2.6053724582,
				"y": -1.3624457099,
				"z": 0.5819331118,
				"element": "O" 
			},
			{
				"x": -2.0026192727,
				"y": -2.502092276,
				"z": 0.1803042773,
				"element": "C" 
			},
			{
				"x": -2.3912851612,
				"y": -3.1853519232,
				"z": -0.7445116764,
				"element": "O" 
			},
			{
				"x": -0.8490575526,
				"y": -2.8567268325,
				"z": 1.0514612085,
				"element": "C" 
			},
			{
				"x": -0.0864075075,
				"y": -2.0358809566,
				"z": 1.842730724,
				"element": "C" 
			},
			{
				"x": 0.024169197,
				"y": -0.6790526021,
				"z": 1.9037763708,
				"element": "N" 
			},
			{
				"x": -0.2340803573,
				"y": 0.3156040585,
				"z": 0.9445618433,
				"element": "C" 
			},
			{
				"x": -0.3982515614,
				"y": 1.6223023855,
				"z": 1.4191752311,
				"element": "C" 
			},
			{
				"x": -0.347884016,
				"y": 1.8473102014,
				"z": 2.7471510624,
				"element": "F" 
			},
			{
				"x": -0.5816020206,
				"y": 2.6955531072,
				"z": 0.5551056238,
				"element": "C" 
			},
			{
				"x": -0.7306686647,
				"y": 3.9305289235,
				"z": 1.044253298,
				"element": "F" 
			},
			{
				"x": -0.6062218635,
				"y": 2.4612234848,
				"z": -0.8189035977,
				"element": "C" 
			},
			{
				"x": -0.7899264702,
				"y": 3.5008889247,
				"z": -1.6456465828,
				"element": "F" 
			},
			{
				"x": -0.4315224444,
				"y": 1.1748332902,
				"z": -1.3155040111,
				"element": "C" 
			},
			{
				"x": -0.2374007398,
				"y": 0.1076005174,
				"z": -0.4404144639,
				"element": "C" 
			},
			{
				"x": -0.54982134,
				"y": -4.2538118225,
				"z": 1.1230387832,
				"element": "C" 
			},
			{
				"x": -0.2843295854,
				"y": -5.3842554306,
				"z": 1.2060644194,
				"element": "N" 
			},
			{
				"x": -4.6098960393,
				"y": 0.1237602881,
				"z": 1.4733556518,
				"element": "H" 
			},
			{
				"x": -5.2020198467,
				"y": 0.6307734707,
				"z": -0.1195679419,
				"element": "H" 
			},
			{
				"x": -3.5813389375,
				"y": 1.1106358574,
				"z": 0.4159373432,
				"element": "H" 
			},
			{
				"x": -3.4465510635,
				"y": -0.7979255808,
				"z": -1.2324421214,
				"element": "H" 
			},
			{
				"x": -4.4837957933,
				"y": -1.7784479817,
				"z": -0.1934516137,
				"element": "H" 
			},
			{
				"x": 0.5756780859,
				"y": -2.531381117,
				"z": 2.5491116797,
				"element": "H" 
			},
			{
				"x": 0.4647999126,
				"y": -0.3257895791,
				"z": 2.7418834189,
				"element": "H" 
			},
			{
				"x": -0.437949789,
				"y": 1.0229561767,
				"z": -2.3888157956,
				"element": "H" 
			},
			{
				"x": -0.0798270829,
				"y": -0.8878503116,
				"z": -0.8365735842,
				"element": "H" 
			}
		],
		 "valence_orbital": [ 
			{
				"type": "occ",
				"energy": -0.31053,
				"method": "rhf"
			},
			{
				"type": "occ",
				"energy": -0.28583,
				"method": "rhf"
			},
			{
				"type": "occ",
				"energy": -0.2831,
				"method": "rhf"
			},
			{
				"type": "occ",
				"energy": -0.27691,
				"method": "rhf"
			},
			{
				"type": "occ",
				"energy": -0.23326,
				"method": "rhf"
			},
			{
				"type": "unocc",
				"energy": -0.07151,
				"method": "rhf"
			},
			{
				"type": "unocc",
				"energy": -0.03478,
				"method": "rhf"
			},
			{
				"type": "unocc",
				"energy": -0.01239,
				"method": "rhf"
			},
			{
				"type": "unocc",
				"energy": 0.01366,
				"method": "rhf"
			},
			{
				"type": "unocc",
				"energy": 0.02551,
				"method": "rhf"
			}
		],
		"cosmo_sigma_profile": { 
			"-0.025": 0.0,
			"-0.024": 0.0,
			"-0.023": 0.0,
			"-0.022": 0.0,
			"-0.021": 0.0,
			"-0.02": 0.0,
			"-0.019": 0.0,
			"-0.018": 0.150410838455,
			"-0.017": 1.1624138093,
			"-0.016": 1.5297181802,
			"-0.015": 0.948462629284,
			"-0.014": 0.962675555822,
			"-0.013": 1.70167635258,
			"-0.012": 1.54294056342,
			"-0.011": 2.38834015231,
			"-0.01": 2.84288684049,
			"-0.009": 2.71727529484,
			"-0.008": 5.41463949224,
			"-0.007": 6.7744645005,
			"-0.006": 7.05070146788,
			"-0.005": 11.0851847743,
			"-0.004": 17.4289845071,
			"-0.003": 26.9796479305,
			"-0.002": 26.893962065,
			"-0.001": 28.5678838546,
			"0.0": 23.8750323063,
			"0.001": 14.6458376765,
			"0.002": 19.8664634878,
			"0.003": 29.0961545219,
			"0.004": 8.55607849087,
			"0.005": 4.54333589143,
			"0.006": 4.60412027474,
			"0.007": 5.1272393499,
			"0.008": 4.96689819734,
			"0.009": 5.90324384697,
			"0.01": 5.29169500782,
			"0.011": 6.90747773132,
			"0.012": 6.89238807746,
			"0.013": 2.64021812979,
			"0.014": 0.707854266925,
			"0.015": 0.0,
			"0.016": 0.0,
			"0.017": 0.0,
			"0.018": 0.0,
			"0.019": 0.0,
			"0.02": 0.0,
			"0.021": 0.0,
			"0.022": 0.0,
			"0.023": 0.0,
			"0.024": 0.0,
			"0.025": 0.0
		}
	}
}
