{
	 "smiles": "OC1=CC=C(C=C1)C(=O)C=CC1=CC=CO1", 
	 "Tm": 436.15, 
	 "num_atms": 26, 
	 "gaussian": { 
		 "optdone": 1, 
		 "sigma_profile": "yes", 
		 "theory": "DFT", 
		 "functional": "B3LYP", 
		 "basiset": "6-31G**", 
		 "properties": { 
			 "R2extent": 5431.4121, 
			 "electric_dipole_moment_norm": 3.584327273, 
			 "electric_quadrupole_moment_norm": 24.6650671084, 
			 "total_energy": -727.038327583, 
			 "HOMO_LUMO_gap": 0.15125, 
			 "cosmo_polarized_energy": -16.43, 
			 "cosmo_cavitation_energy": 31.86, 
			 "cosmo_dispersion_energy": -22.97, 
			 "cosmo_repulsion_energy": 1.78, 
			 "cosmo_total_nonelectrostatic_energy": 10.66, 
			 "SMD_solvation_energy": 7.33 
		},
		"coords": [
			{
				"x": 4.4653247177,
				"y": -0.4327207265,
				"z": -1.9993959893,
				"element": "O" 
			},
			{
				"x": 3.3630231769,
				"y": -0.1595404255,
				"z": -1.2475267197,
				"element": "C" 
			},
			{
				"x": 2.5690063035,
				"y": -1.2414252868,
				"z": -0.8494085939,
				"element": "C" 
			},
			{
				"x": 1.4254224764,
				"y": -1.0151938577,
				"z": -0.0908025974,
				"element": "C" 
			},
			{
				"x": 1.0531139738,
				"y": 0.2853756775,
				"z": 0.2912508547,
				"element": "C" 
			},
			{
				"x": 1.8789331658,
				"y": 1.3544603716,
				"z": -0.0916529242,
				"element": "C" 
			},
			{
				"x": 3.014087908,
				"y": 1.1432130168,
				"z": -0.8631807188,
				"element": "C" 
			},
			{
				"x": -0.1286836829,
				"y": 0.5942242161,
				"z": 1.156366439,
				"element": "C" 
			},
			{
				"x": -0.1270499441,
				"y": 1.5990361163,
				"z": 1.8670878635,
				"element": "O" 
			},
			{
				"x": -1.3267987254,
				"y": -0.2766490806,
				"z": 1.1627897992,
				"element": "C" 
			},
			{
				"x": -1.7498074942,
				"y": -1.0434541454,
				"z": 0.1333726902,
				"element": "C" 
			},
			{
				"x": -2.9770888524,
				"y": -1.7914637544,
				"z": 0.0983452385,
				"element": "C" 
			},
			{
				"x": -3.5410517033,
				"y": -2.5817815732,
				"z": -0.8763323537,
				"element": "C" 
			},
			{
				"x": -4.7707835759,
				"y": -3.0745025534,
				"z": -0.3483199111,
				"element": "C" 
			},
			{
				"x": -4.8740093047,
				"y": -2.5534535756,
				"z": 0.9087492511,
				"element": "C" 
			},
			{
				"x": -3.7988772841,
				"y": -1.7752866033,
				"z": 1.1974835155,
				"element": "O" 
			},
			{
				"x": 4.9328321371,
				"y": 0.3909335973,
				"z": -2.1911899507,
				"element": "H" 
			},
			{
				"x": 2.8690188408,
				"y": -2.2443709936,
				"z": -1.1341296448,
				"element": "H" 
			},
			{
				"x": 0.8343451239,
				"y": -1.8636777565,
				"z": 0.2365748065,
				"element": "H" 
			},
			{
				"x": 1.6082958372,
				"y": 2.3538076961,
				"z": 0.232501495,
				"element": "H" 
			},
			{
				"x": 3.6365711796,
				"y": 1.9833493772,
				"z": -1.1649350238,
				"element": "H" 
			},
			{
				"x": -1.9541650013,
				"y": -0.1557819409,
				"z": 2.0415793383,
				"element": "H" 
			},
			{
				"x": -1.1577340161,
				"y": -1.1102980247,
				"z": -0.7751879727,
				"element": "H" 
			},
			{
				"x": -3.1195259403,
				"y": -2.7801692381,
				"z": -1.8515703877,
				"element": "H" 
			},
			{
				"x": -5.4820486949,
				"y": -3.7259598837,
				"z": -0.8347668653,
				"element": "H" 
			},
			{
				"x": -5.6167506213,
				"y": -2.6368706488,
				"z": 1.6871983616,
				"element": "H" 
			}
		],
		 "valence_orbital": [ 
			{
				"type": "occ",
				"energy": -0.28829,
				"method": "rhf"
			},
			{
				"type": "occ",
				"energy": -0.26024,
				"method": "rhf"
			},
			{
				"type": "occ",
				"energy": -0.24193,
				"method": "rhf"
			},
			{
				"type": "occ",
				"energy": -0.22711,
				"method": "rhf"
			},
			{
				"type": "occ",
				"energy": -0.21807,
				"method": "rhf"
			},
			{
				"type": "unocc",
				"energy": -0.06682,
				"method": "rhf"
			},
			{
				"type": "unocc",
				"energy": -0.01609,
				"method": "rhf"
			},
			{
				"type": "unocc",
				"energy": -0.00884,
				"method": "rhf"
			},
			{
				"type": "unocc",
				"energy": 0.03422,
				"method": "rhf"
			},
			{
				"type": "unocc",
				"energy": 0.06355,
				"method": "rhf"
			}
		],
		"cosmo_sigma_profile": { 
			"-0.025": 0.0,
			"-0.024": 0.0,
			"-0.023": 0.0,
			"-0.022": 0.0,
			"-0.021": 0.0,
			"-0.02": 0.0,
			"-0.019": 0.0182502929068,
			"-0.018": 0.871605461881,
			"-0.017": 1.39295164228,
			"-0.016": 0.940731811672,
			"-0.015": 1.10398002985,
			"-0.014": 1.20760033611,
			"-0.013": 0.554224765018,
			"-0.012": 1.0217912742,
			"-0.011": 1.21123089771,
			"-0.01": 1.34229044042,
			"-0.009": 3.18013188133,
			"-0.008": 5.94072587354,
			"-0.007": 9.79221196893,
			"-0.006": 11.167783264,
			"-0.005": 15.7506284564,
			"-0.004": 14.7855390203,
			"-0.003": 13.7835191927,
			"-0.002": 12.3597169137,
			"-0.001": 14.6029827133,
			"0.0": 16.0361618718,
			"0.001": 20.2595731114,
			"0.002": 25.4944899173,
			"0.003": 24.9149493717,
			"0.004": 20.8524410522,
			"0.005": 6.86025898526,
			"0.006": 4.32461832982,
			"0.007": 3.70832751309,
			"0.008": 3.62602706312,
			"0.009": 3.04551454601,
			"0.01": 2.96634872255,
			"0.011": 3.44298996714,
			"0.012": 3.23777732636,
			"0.013": 4.67002083108,
			"0.014": 1.54967320614,
			"0.015": 0.107385538768,
			"0.016": 0.0,
			"0.017": 0.0,
			"0.018": 0.0,
			"0.019": 0.0,
			"0.02": 0.0,
			"0.021": 0.0,
			"0.022": 0.0,
			"0.023": 0.0,
			"0.024": 0.0,
			"0.025": 0.0
		}
	}
}
