{
	 "smiles": "OC(=O)C(=CC1=CC=CO1)C#N", 
	 "Tm": 501.15, 
	 "num_atms": 17, 
	 "gaussian": { 
		 "optdone": 1, 
		 "sigma_profile": "yes", 
		 "theory": "DFT", 
		 "functional": "B3LYP", 
		 "basiset": "6-31G**", 
		 "properties": { 
			 "R2extent": 2699.2355, 
			 "electric_dipole_moment_norm": 8.38104675145, 
			 "electric_quadrupole_moment_norm": 14.5097182816, 
			 "total_energy": -588.2266045, 
			 "HOMO_LUMO_gap": 0.14554, 
			 "cosmo_polarized_energy": -24.33, 
			 "cosmo_cavitation_energy": 24.16, 
			 "cosmo_dispersion_energy": -16.84, 
			 "cosmo_repulsion_energy": 1.35, 
			 "cosmo_total_nonelectrostatic_energy": 8.66, 
			 "SMD_solvation_energy": 7.72 
		},
		"coords": [
			{
				"x": 2.3355794125,
				"y": 2.6865459518,
				"z": -2.1579104182,
				"element": "O" 
			},
			{
				"x": 1.1390069927,
				"y": 2.0700952015,
				"z": -2.3676940855,
				"element": "C" 
			},
			{
				"x": 0.3305627097,
				"y": 2.5355299297,
				"z": -3.1292834252,
				"element": "O" 
			},
			{
				"x": 0.89217095,
				"y": 0.8165356621,
				"z": -1.573124647,
				"element": "C" 
			},
			{
				"x": 1.450070958,
				"y": 0.639136088,
				"z": -0.3398107115,
				"element": "C" 
			},
			{
				"x": 1.2841822122,
				"y": -0.4295328802,
				"z": 0.5899379717,
				"element": "C" 
			},
			{
				"x": 1.8094391665,
				"y": -0.6034216214,
				"z": 1.855778506,
				"element": "C" 
			},
			{
				"x": 1.3211803776,
				"y": -1.8482032836,
				"z": 2.333511983,
				"element": "C" 
			},
			{
				"x": 0.5342282106,
				"y": -2.350370929,
				"z": 1.3323595486,
				"element": "C" 
			},
			{
				"x": 0.5016863027,
				"y": -1.5085469789,
				"z": 0.2748867002,
				"element": "O" 
			},
			{
				"x": -0.0454094242,
				"y": -0.0918020409,
				"z": -2.1540227791,
				"element": "C" 
			},
			{
				"x": -0.7971957679,
				"y": -0.822662958,
				"z": -2.6578652689,
				"element": "N" 
			},
			{
				"x": 2.9599812502,
				"y": 2.0726209057,
				"z": -1.7471414466,
				"element": "H" 
			},
			{
				"x": 2.0953444357,
				"y": 1.4311847887,
				"z": 0.0325716449,
				"element": "H" 
			},
			{
				"x": 2.4625661798,
				"y": 0.0870906551,
				"z": 2.3707028078,
				"element": "H" 
			},
			{
				"x": 1.5219284914,
				"y": -2.3124801869,
				"z": 3.2876629247,
				"element": "H" 
			},
			{
				"x": -0.0441224574,
				"y": -3.2557183037,
				"z": 1.2289406951,
				"element": "H" 
			}
		],
		 "valence_orbital": [ 
			{
				"type": "occ",
				"energy": -0.3286,
				"method": "rhf"
			},
			{
				"type": "occ",
				"energy": -0.32742,
				"method": "rhf"
			},
			{
				"type": "occ",
				"energy": -0.31097,
				"method": "rhf"
			},
			{
				"type": "occ",
				"energy": -0.28714,
				"method": "rhf"
			},
			{
				"type": "occ",
				"energy": -0.24615,
				"method": "rhf"
			},
			{
				"type": "unocc",
				"energy": -0.10061,
				"method": "rhf"
			},
			{
				"type": "unocc",
				"energy": 0.00188,
				"method": "rhf"
			},
			{
				"type": "unocc",
				"energy": 0.01383,
				"method": "rhf"
			},
			{
				"type": "unocc",
				"energy": 0.02783,
				"method": "rhf"
			},
			{
				"type": "unocc",
				"energy": 0.04258,
				"method": "rhf"
			}
		],
		"cosmo_sigma_profile": { 
			"-0.025": 0.0,
			"-0.024": 0.0,
			"-0.023": 0.0,
			"-0.022": 0.0,
			"-0.021": 0.0,
			"-0.02": 0.457823346069,
			"-0.019": 1.15407404458,
			"-0.018": 1.27277863702,
			"-0.017": 1.03389303377,
			"-0.016": 0.505303872495,
			"-0.015": 0.839036432825,
			"-0.014": 1.57441201741,
			"-0.013": 1.22671657126,
			"-0.012": 1.64210419655,
			"-0.011": 2.86164007427,
			"-0.01": 5.04739204404,
			"-0.009": 5.87819281866,
			"-0.008": 7.84073077113,
			"-0.007": 6.66215918724,
			"-0.006": 8.39018791488,
			"-0.005": 7.73121151638,
			"-0.004": 7.33705883525,
			"-0.003": 8.06532425198,
			"-0.002": 13.8349777605,
			"-0.001": 12.9817778961,
			"0.0": 11.7107042025,
			"0.001": 10.2709447037,
			"0.002": 9.35304255145,
			"0.003": 5.64309445634,
			"0.004": 4.68212815912,
			"0.005": 4.61206454859,
			"0.006": 5.17357875663,
			"0.007": 7.58591643637,
			"0.008": 8.93985002639,
			"0.009": 8.08690383535,
			"0.01": 8.64762918055,
			"0.011": 8.59301416593,
			"0.012": 4.7488252372,
			"0.013": 1.67392062354,
			"0.014": 0.0,
			"0.015": 0.0,
			"0.016": 0.0,
			"0.017": 0.0,
			"0.018": 0.0,
			"0.019": 0.0,
			"0.02": 0.0,
			"0.021": 0.0,
			"0.022": 0.0,
			"0.023": 0.0,
			"0.024": 0.0,
			"0.025": 0.0
		}
	}
}
