{
	 "smiles": "CCOC1=C2C(=O)NC(=O)C2=CC=C1", 
	 "Tm": 423.15, 
	 "num_atms": 23, 
	 "gaussian": { 
		 "optdone": 1, 
		 "sigma_profile": "yes", 
		 "theory": "DFT", 
		 "functional": "B3LYP", 
		 "basiset": "6-31G**", 
		 "properties": { 
			 "R2extent": 3064.6603, 
			 "electric_dipole_moment_norm": 4.43895813226, 
			 "electric_quadrupole_moment_norm": 9.37471363029, 
			 "total_energy": -666.935561221, 
			 "HOMO_LUMO_gap": 0.16526, 
			 "cosmo_polarized_energy": -15.34, 
			 "cosmo_cavitation_energy": 27.92, 
			 "cosmo_dispersion_energy": -20.34, 
			 "cosmo_repulsion_energy": 1.61, 
			 "cosmo_total_nonelectrostatic_energy": 9.2, 
			 "SMD_solvation_energy": 6.51 
		},
		"coords": [
			{
				"x": -3.1749338609,
				"y": -1.1246585672,
				"z": -2.3556195036,
				"element": "C" 
			},
			{
				"x": -2.2837429482,
				"y": 0.0907945883,
				"z": -2.1765179193,
				"element": "C" 
			},
			{
				"x": -1.4581147908,
				"y": -0.1525681714,
				"z": -1.0312934402,
				"element": "O" 
			},
			{
				"x": -0.5644485017,
				"y": 0.7818017911,
				"z": -0.648520368,
				"element": "C" 
			},
			{
				"x": 0.2273689717,
				"y": 0.5117382052,
				"z": 0.4762687152,
				"element": "C" 
			},
			{
				"x": 0.269663989,
				"y": -0.6780944088,
				"z": 1.3775414569,
				"element": "C" 
			},
			{
				"x": -0.3723629053,
				"y": -1.7060910108,
				"z": 1.3577829724,
				"element": "O" 
			},
			{
				"x": 1.2645472937,
				"y": -0.3682405571,
				"z": 2.3260961819,
				"element": "N" 
			},
			{
				"x": 1.8567331212,
				"y": 0.8807682551,
				"z": 2.1291007373,
				"element": "C" 
			},
			{
				"x": 2.7341335743,
				"y": 1.376458222,
				"z": 2.8064367418,
				"element": "O" 
			},
			{
				"x": 1.1714036923,
				"y": 1.4412168025,
				"z": 0.9217683393,
				"element": "C" 
			},
			{
				"x": 1.378665821,
				"y": 2.6595206205,
				"z": 0.2938901034,
				"element": "C" 
			},
			{
				"x": 0.5889028257,
				"y": 2.930364875,
				"z": -0.8289928489,
				"element": "C" 
			},
			{
				"x": -0.3625583721,
				"y": 2.0185617937,
				"z": -1.2959408527,
				"element": "C" 
			},
			{
				"x": -3.8272279355,
				"y": -0.98475777,
				"z": -3.223024991,
				"element": "H" 
			},
			{
				"x": -3.797726703,
				"y": -1.2782403199,
				"z": -1.4705820236,
				"element": "H" 
			},
			{
				"x": -2.5724495394,
				"y": -2.0231368773,
				"z": -2.5121490219,
				"element": "H" 
			},
			{
				"x": -2.880800373,
				"y": 0.9987675292,
				"z": -2.0151932726,
				"element": "H" 
			},
			{
				"x": -1.6513638381,
				"y": 0.2512906478,
				"z": -3.0604031641,
				"element": "H" 
			},
			{
				"x": 1.5201420452,
				"y": -0.995331871,
				"z": 3.0754761606,
				"element": "H" 
			},
			{
				"x": 2.1187062448,
				"y": 3.3608882585,
				"z": 0.6626981377,
				"element": "H" 
			},
			{
				"x": 0.7102883151,
				"y": 3.8706999226,
				"z": -1.3589930247,
				"element": "H" 
			},
			{
				"x": -0.9489261261,
				"y": 2.2755480418,
				"z": -2.1696291159,
				"element": "H" 
			}
		],
		 "valence_orbital": [ 
			{
				"type": "occ",
				"energy": -0.28607,
				"method": "rhf"
			},
			{
				"type": "occ",
				"energy": -0.28559,
				"method": "rhf"
			},
			{
				"type": "occ",
				"energy": -0.27184,
				"method": "rhf"
			},
			{
				"type": "occ",
				"energy": -0.25751,
				"method": "rhf"
			},
			{
				"type": "occ",
				"energy": -0.24215,
				"method": "rhf"
			},
			{
				"type": "unocc",
				"energy": -0.07689,
				"method": "rhf"
			},
			{
				"type": "unocc",
				"energy": -0.02408,
				"method": "rhf"
			},
			{
				"type": "unocc",
				"energy": 0.03362,
				"method": "rhf"
			},
			{
				"type": "unocc",
				"energy": 0.08087,
				"method": "rhf"
			},
			{
				"type": "unocc",
				"energy": 0.08532,
				"method": "rhf"
			}
		],
		"cosmo_sigma_profile": { 
			"-0.025": 0.0,
			"-0.024": 0.0,
			"-0.023": 0.0,
			"-0.022": 0.0,
			"-0.021": 0.0,
			"-0.02": 0.0,
			"-0.019": 0.0,
			"-0.018": 0.0,
			"-0.017": 0.08385234115,
			"-0.016": 1.1616108025,
			"-0.015": 1.31696976888,
			"-0.014": 0.670259212421,
			"-0.013": 1.22820792904,
			"-0.012": 0.426509893444,
			"-0.011": 0.997975368253,
			"-0.01": 0.807228737545,
			"-0.009": 0.565443393562,
			"-0.008": 2.46861068177,
			"-0.007": 7.75795046523,
			"-0.006": 11.0953952684,
			"-0.005": 15.8434681878,
			"-0.004": 20.0770366669,
			"-0.003": 19.1642254284,
			"-0.002": 16.7675021832,
			"-0.001": 18.6383341761,
			"0.0": 19.7132664818,
			"0.001": 15.5950773601,
			"0.002": 12.6303589676,
			"0.003": 8.64773414088,
			"0.004": 3.24282548092,
			"0.005": 3.10532746572,
			"0.006": 3.08749624464,
			"0.007": 3.89108513095,
			"0.008": 3.63838772621,
			"0.009": 3.95502240093,
			"0.01": 5.69319396759,
			"0.011": 9.72019134488,
			"0.012": 7.81562906496,
			"0.013": 2.35934333132,
			"0.014": 0.77989299299,
			"0.015": 0.0,
			"0.016": 0.0,
			"0.017": 0.0,
			"0.018": 0.0,
			"0.019": 0.0,
			"0.02": 0.0,
			"0.021": 0.0,
			"0.022": 0.0,
			"0.023": 0.0,
			"0.024": 0.0,
			"0.025": 0.0
		}
	}
}
