{
	 "smiles": "FC1=C(F)C=C(C=C1)C1=CN=C(N1)C1CCNCC1", 
	 "Tm": 461.15, 
	 "num_atms": 34, 
	 "gaussian": { 
		 "optdone": 1, 
		 "sigma_profile": "yes", 
		 "theory": "DFT", 
		 "functional": "B3LYP", 
		 "basiset": "6-31G**", 
		 "properties": { 
			 "R2extent": 8673.7033, 
			 "electric_dipole_moment_norm": 2.6271073522, 
			 "electric_quadrupole_moment_norm": 19.27143185, 
			 "total_energy": -906.453908399, 
			 "HOMO_LUMO_gap": 0.17732, 
			 "cosmo_polarized_energy": -14.92, 
			 "cosmo_cavitation_energy": 37.16, 
			 "cosmo_dispersion_energy": -26.96, 
			 "cosmo_repulsion_energy": 2.02, 
			 "cosmo_total_nonelectrostatic_energy": 12.22, 
			 "SMD_solvation_energy": 3.14 
		},
		"coords": [
			{
				"x": -5.2074195249,
				"y": -4.2979349251,
				"z": -1.7380087,
				"element": "F" 
			},
			{
				"x": -4.2816483724,
				"y": -3.3565754687,
				"z": -1.4870502765,
				"element": "C" 
			},
			{
				"x": -4.6926892789,
				"y": -2.0541112924,
				"z": -1.1988977916,
				"element": "C" 
			},
			{
				"x": -6.007194405,
				"y": -1.7756477309,
				"z": -1.1886229446,
				"element": "F" 
			},
			{
				"x": -3.7665566134,
				"y": -1.0565319142,
				"z": -0.9477257468,
				"element": "C" 
			},
			{
				"x": -2.3892669549,
				"y": -1.3501325407,
				"z": -0.9607490919,
				"element": "C" 
			},
			{
				"x": -1.9898473577,
				"y": -2.6687472537,
				"z": -1.2433160004,
				"element": "C" 
			},
			{
				"x": -2.9293442894,
				"y": -3.6645964306,
				"z": -1.511257955,
				"element": "C" 
			},
			{
				"x": -1.4205216865,
				"y": -0.2952498642,
				"z": -0.6769699032,
				"element": "C" 
			},
			{
				"x": -1.5117218075,
				"y": 0.8864258281,
				"z": 0.0320638368,
				"element": "C" 
			},
			{
				"x": -0.3137631694,
				"y": 1.5552169227,
				"z": 0.0416880137,
				"element": "N" 
			},
			{
				"x": 0.5267963708,
				"y": 0.8081644979,
				"z": -0.6570531668,
				"element": "C" 
			},
			{
				"x": -0.0993716468,
				"y": -0.3282201001,
				"z": -1.0998505697,
				"element": "N" 
			},
			{
				"x": 1.9766989882,
				"y": 1.0814340829,
				"z": -0.9576592619,
				"element": "C" 
			},
			{
				"x": 2.203351015,
				"y": 2.431256403,
				"z": -1.6864322568,
				"element": "C" 
			},
			{
				"x": 2.0973372658,
				"y": 3.6314237638,
				"z": -0.7393056146,
				"element": "C" 
			},
			{
				"x": 3.0485008239,
				"y": 3.4604204561,
				"z": 0.3666044996,
				"element": "N" 
			},
			{
				"x": 2.7283717552,
				"y": 2.2781506708,
				"z": 1.1756818263,
				"element": "C" 
			},
			{
				"x": 2.8718222427,
				"y": 1.0228623251,
				"z": 0.3093315875,
				"element": "C" 
			},
			{
				"x": -4.1242283904,
				"y": -0.0501995301,
				"z": -0.761197773,
				"element": "H" 
			},
			{
				"x": -0.9377050348,
				"y": -2.9355865529,
				"z": -1.2243270095,
				"element": "H" 
			},
			{
				"x": -2.6279895551,
				"y": -4.6841541048,
				"z": -1.7264570076,
				"element": "H" 
			},
			{
				"x": -2.3737378206,
				"y": 1.271618995,
				"z": 0.5596210873,
				"element": "H" 
			},
			{
				"x": 0.3035074527,
				"y": -1.0172756561,
				"z": -1.7166136157,
				"element": "H" 
			},
			{
				"x": 2.3055433127,
				"y": 0.27914556,
				"z": -1.6327843313,
				"element": "H" 
			},
			{
				"x": 3.2128601498,
				"y": 2.4163219554,
				"z": -2.1146630795,
				"element": "H" 
			},
			{
				"x": 1.4920221206,
				"y": 2.5394563294,
				"z": -2.5128058893,
				"element": "H" 
			},
			{
				"x": 2.3609304656,
				"y": 4.5456339305,
				"z": -1.2839256638,
				"element": "H" 
			},
			{
				"x": 1.0546728838,
				"y": 3.7290806764,
				"z": -0.396974219,
				"element": "H" 
			},
			{
				"x": 3.0263036037,
				"y": 4.2870138601,
				"z": 0.9577668173,
				"element": "H" 
			},
			{
				"x": 3.4376953782,
				"y": 2.2259464334,
				"z": 2.0098624118,
				"element": "H" 
			},
			{
				"x": 1.7110021411,
				"y": 2.3105837421,
				"z": 1.5995431014,
				"element": "H" 
			},
			{
				"x": 2.6381161916,
				"y": 0.1279288544,
				"z": 0.8971892609,
				"element": "H" 
			},
			{
				"x": 3.9157737461,
				"y": 0.9447780773,
				"z": -0.0175045741,
				"element": "H" 
			}
		],
		 "valence_orbital": [ 
			{
				"type": "occ",
				"energy": -0.27608,
				"method": "rhf"
			},
			{
				"type": "occ",
				"energy": -0.26896,
				"method": "rhf"
			},
			{
				"type": "occ",
				"energy": -0.25989,
				"method": "rhf"
			},
			{
				"type": "occ",
				"energy": -0.2091,
				"method": "rhf"
			},
			{
				"type": "occ",
				"energy": -0.20837,
				"method": "rhf"
			},
			{
				"type": "unocc",
				"energy": -0.03105,
				"method": "rhf"
			},
			{
				"type": "unocc",
				"energy": -0.01755,
				"method": "rhf"
			},
			{
				"type": "unocc",
				"energy": 0.03919,
				"method": "rhf"
			},
			{
				"type": "unocc",
				"energy": 0.05459,
				"method": "rhf"
			},
			{
				"type": "unocc",
				"energy": 0.07023,
				"method": "rhf"
			}
		],
		"cosmo_sigma_profile": { 
			"-0.025": 0.0,
			"-0.024": 0.0,
			"-0.023": 0.0,
			"-0.022": 0.0,
			"-0.021": 0.0,
			"-0.02": 0.0,
			"-0.019": 0.0,
			"-0.018": 0.0,
			"-0.017": 0.0,
			"-0.016": 0.332735740695,
			"-0.015": 1.34511593571,
			"-0.014": 1.34619586854,
			"-0.013": 1.57689271304,
			"-0.012": 1.40910629457,
			"-0.011": 2.0438002347,
			"-0.01": 2.16211470696,
			"-0.009": 2.35971118434,
			"-0.008": 5.3027757967,
			"-0.007": 8.26911759279,
			"-0.006": 9.71565682209,
			"-0.005": 9.38430006261,
			"-0.004": 8.8840917409,
			"-0.003": 21.2075568301,
			"-0.002": 26.6236694023,
			"-0.001": 27.7107310182,
			"0.0": 33.6924156974,
			"0.001": 26.2120797899,
			"0.002": 20.7473871891,
			"0.003": 26.5053941562,
			"0.004": 25.6690431739,
			"0.005": 6.8162437038,
			"0.006": 4.09160686875,
			"0.007": 2.95266029497,
			"0.008": 2.5356730242,
			"0.009": 3.03707908057,
			"0.01": 2.63728434008,
			"0.011": 2.17859619803,
			"0.012": 1.46550220831,
			"0.013": 1.73854873462,
			"0.014": 1.07598085016,
			"0.015": 1.08671166938,
			"0.016": 0.577605723745,
			"0.017": 0.251891047803,
			"0.018": 0.837747468007,
			"0.019": 0.108358802701,
			"0.02": 0.0,
			"0.021": 0.0,
			"0.022": 0.0,
			"0.023": 0.0,
			"0.024": 0.0,
			"0.025": 0.0
		}
	}
}
