{
	 "smiles": "CSCC[C@H](NC(=O)OCC1=CC=CC=C1)C(O)=O", 
	 "Tm": 342.15, 
	 "num_atms": 36, 
	 "gaussian": { 
		 "optdone": 1, 
		 "sigma_profile": "yes", 
		 "theory": "DFT", 
		 "functional": "B3LYP", 
		 "basiset": "6-31G**", 
		 "properties": { 
			 "R2extent": 8340.6997, 
			 "electric_dipole_moment_norm": 2.91465925967, 
			 "electric_quadrupole_moment_norm": 16.7044503471, 
			 "total_energy": -1259.49924102, 
			 "HOMO_LUMO_gap": 0.20594, 
			 "cosmo_polarized_energy": -20.18, 
			 "cosmo_cavitation_energy": 41.34, 
			 "cosmo_dispersion_energy": -28.96, 
			 "cosmo_repulsion_energy": 2.23, 
			 "cosmo_total_nonelectrostatic_energy": 14.6, 
			 "SMD_solvation_energy": 7.67 
		},
		"coords": [
			{
				"x": -4.5638699949,
				"y": -1.3847430153,
				"z": -3.5089346119,
				"element": "C" 
			},
			{
				"x": -3.403059461,
				"y": -2.7954561477,
				"z": -3.5378220053,
				"element": "S" 
			},
			{
				"x": -2.1853264409,
				"y": -2.2676235518,
				"z": -2.2680150372,
				"element": "C" 
			},
			{
				"x": -2.6998634778,
				"y": -2.4401873031,
				"z": -0.834707845,
				"element": "C" 
			},
			{
				"x": -1.7391334646,
				"y": -2.0468053375,
				"z": 0.3122517179,
				"element": "C" 
			},
			{
				"x": -1.481874211,
				"y": -0.6177413287,
				"z": 0.4340847955,
				"element": "N" 
			},
			{
				"x": -0.4827937904,
				"y": -0.0050561845,
				"z": -0.2767258058,
				"element": "C" 
			},
			{
				"x": 0.0817090177,
				"y": -0.4860311907,
				"z": -1.2445264573,
				"element": "O" 
			},
			{
				"x": -0.2420186219,
				"y": 1.2233198447,
				"z": 0.2438348115,
				"element": "O" 
			},
			{
				"x": 0.8303597813,
				"y": 1.9842175174,
				"z": -0.3665217206,
				"element": "C" 
			},
			{
				"x": 2.0712471574,
				"y": 1.968932464,
				"z": 0.4930639045,
				"element": "C" 
			},
			{
				"x": 2.711000513,
				"y": 0.7584354565,
				"z": 0.7993720766,
				"element": "C" 
			},
			{
				"x": 3.8644705498,
				"y": 0.7536642724,
				"z": 1.581834196,
				"element": "C" 
			},
			{
				"x": 4.3988787336,
				"y": 1.9539653042,
				"z": 2.0592580762,
				"element": "C" 
			},
			{
				"x": 3.7694656666,
				"y": 3.1610028648,
				"z": 1.7557792714,
				"element": "C" 
			},
			{
				"x": 2.6074856777,
				"y": 3.1650568063,
				"z": 0.9807170621,
				"element": "C" 
			},
			{
				"x": -0.4274280193,
				"y": -2.8473343028,
				"z": 0.3962610405,
				"element": "C" 
			},
			{
				"x": -0.53462878,
				"y": -4.0608136669,
				"z": -0.1881481434,
				"element": "O" 
			},
			{
				"x": 0.5639576831,
				"y": -2.4860388864,
				"z": 0.9861615623,
				"element": "O" 
			},
			{
				"x": -4.0471867793,
				"y": -0.4489875129,
				"z": -3.7394881754,
				"element": "H" 
			},
			{
				"x": -5.3086322612,
				"y": -1.5751916798,
				"z": -4.2849912475,
				"element": "H" 
			},
			{
				"x": -5.0791519289,
				"y": -1.294603583,
				"z": -2.5491929854,
				"element": "H" 
			},
			{
				"x": -1.8804100062,
				"y": -1.2406252253,
				"z": -2.4733576305,
				"element": "H" 
			},
			{
				"x": -1.3095217449,
				"y": -2.8979361907,
				"z": -2.43684235,
				"element": "H" 
			},
			{
				"x": -3.6066596717,
				"y": -1.8423707662,
				"z": -0.6919091496,
				"element": "H" 
			},
			{
				"x": -2.9826920742,
				"y": -3.4866977288,
				"z": -0.6873863756,
				"element": "H" 
			},
			{
				"x": -2.2641642672,
				"y": -2.3227055743,
				"z": 1.2366711327,
				"element": "H" 
			},
			{
				"x": -1.6961906376,
				"y": -0.1802598759,
				"z": 1.318205034,
				"element": "H" 
			},
			{
				"x": 1.0223073173,
				"y": 1.561013044,
				"z": -1.3554264738,
				"element": "H" 
			},
			{
				"x": 0.4443120573,
				"y": 3.0006534487,
				"z": -0.4749869799,
				"element": "H" 
			},
			{
				"x": 2.3016186025,
				"y": -0.1776209752,
				"z": 0.4308344075,
				"element": "H" 
			},
			{
				"x": 4.3499191562,
				"y": -0.189253356,
				"z": 1.8169233033,
				"element": "H" 
			},
			{
				"x": 5.3001694553,
				"y": 1.9463489363,
				"z": 2.665744034,
				"element": "H" 
			},
			{
				"x": 4.1760030007,
				"y": 4.097894439,
				"z": 2.1261213974,
				"element": "H" 
			},
			{
				"x": 2.1134201916,
				"y": 4.1067267236,
				"z": 0.7527761862,
				"element": "H" 
			},
			{
				"x": 0.317181072,
				"y": -4.5069477383,
				"z": -0.0437110154,
				"element": "H" 
			}
		],
		 "valence_orbital": [ 
			{
				"type": "occ",
				"energy": -0.27994,
				"method": "rhf"
			},
			{
				"type": "occ",
				"energy": -0.26811,
				"method": "rhf"
			},
			{
				"type": "occ",
				"energy": -0.24748,
				"method": "rhf"
			},
			{
				"type": "occ",
				"energy": -0.2429,
				"method": "rhf"
			},
			{
				"type": "occ",
				"energy": -0.21322,
				"method": "rhf"
			},
			{
				"type": "unocc",
				"energy": -0.00728,
				"method": "rhf"
			},
			{
				"type": "unocc",
				"energy": -0.00047,
				"method": "rhf"
			},
			{
				"type": "unocc",
				"energy": 0.00223,
				"method": "rhf"
			},
			{
				"type": "unocc",
				"energy": 0.04397,
				"method": "rhf"
			},
			{
				"type": "unocc",
				"energy": 0.04655,
				"method": "rhf"
			}
		],
		"cosmo_sigma_profile": { 
			"-0.025": 0.0,
			"-0.024": 0.0,
			"-0.023": 0.0,
			"-0.022": 0.0,
			"-0.021": 0.0,
			"-0.02": 0.0,
			"-0.019": 0.213847646137,
			"-0.018": 1.03126352641,
			"-0.017": 0.929286138467,
			"-0.016": 0.9541117522,
			"-0.015": 1.11397015786,
			"-0.014": 2.25357962627,
			"-0.013": 1.59033958738,
			"-0.012": 2.25676318548,
			"-0.011": 2.02923758655,
			"-0.01": 2.39172035985,
			"-0.009": 3.84115487046,
			"-0.008": 3.59572510885,
			"-0.007": 5.38043878036,
			"-0.006": 12.5472713795,
			"-0.005": 21.7928734136,
			"-0.004": 26.7060351588,
			"-0.003": 26.8915783255,
			"-0.002": 24.4606651674,
			"-0.001": 21.5804691024,
			"0.0": 18.8763385738,
			"0.001": 17.8763213408,
			"0.002": 16.5658229991,
			"0.003": 18.0177273261,
			"0.004": 20.6441709493,
			"0.005": 21.0773955144,
			"0.006": 15.1744294065,
			"0.007": 8.76928863307,
			"0.008": 6.93393647425,
			"0.009": 6.7205261806,
			"0.01": 5.00477109804,
			"0.011": 6.45429267527,
			"0.012": 3.57726745008,
			"0.013": 0.81906603809,
			"0.014": 0.0,
			"0.015": 0.0,
			"0.016": 0.0,
			"0.017": 0.0,
			"0.018": 0.0,
			"0.019": 0.0,
			"0.02": 0.0,
			"0.021": 0.0,
			"0.022": 0.0,
			"0.023": 0.0,
			"0.024": 0.0,
			"0.025": 0.0
		}
	}
}
