{
	 "smiles": "COC1=CC=C(C=C1)C(=O)C1=CC=C(OC)C(OC)=C1", 
	 "Tm": 352.15, 
	 "num_atms": 36, 
	 "gaussian": { 
		 "optdone": 1, 
		 "sigma_profile": "yes", 
		 "theory": "DFT", 
		 "functional": "B3LYP", 
		 "basiset": "6-31G**", 
		 "properties": { 
			 "R2extent": 9710.0123, 
			 "electric_dipole_moment_norm": 3.79828896478, 
			 "electric_quadrupole_moment_norm": 21.9905512125, 
			 "total_energy": -920.202423058, 
			 "HOMO_LUMO_gap": 0.16575, 
			 "cosmo_polarized_energy": -14.0, 
			 "cosmo_cavitation_energy": 40.03, 
			 "cosmo_dispersion_energy": -28.71, 
			 "cosmo_repulsion_energy": 2.2, 
			 "cosmo_total_nonelectrostatic_energy": 13.53, 
			 "SMD_solvation_energy": 9.58 
		},
		"coords": [
			{
				"x": -5.7594507899,
				"y": -3.6424635526,
				"z": -0.6742310026,
				"element": "C" 
			},
			{
				"x": -5.055208351,
				"y": -3.7117568973,
				"z": 0.5572931745,
				"element": "O" 
			},
			{
				"x": -3.8085195253,
				"y": -3.172415465,
				"z": 0.6231963756,
				"element": "C" 
			},
			{
				"x": -3.1677697148,
				"y": -3.2722692096,
				"z": 1.8714361433,
				"element": "C" 
			},
			{
				"x": -1.8984739156,
				"y": -2.7495439836,
				"z": 2.0419126309,
				"element": "C" 
			},
			{
				"x": -1.2134795151,
				"y": -2.1376821367,
				"z": 0.9733301482,
				"element": "C" 
			},
			{
				"x": -1.8679658119,
				"y": -2.0351518127,
				"z": -0.2610120553,
				"element": "C" 
			},
			{
				"x": -3.1566730624,
				"y": -2.5405298223,
				"z": -0.4433149231,
				"element": "C" 
			},
			{
				"x": 0.1311006697,
				"y": -1.5476649637,
				"z": 1.252472802,
				"element": "C" 
			},
			{
				"x": 0.4162574572,
				"y": -1.1984079497,
				"z": 2.3965441481,
				"element": "O" 
			},
			{
				"x": 1.1370056817,
				"y": -1.3751108966,
				"z": 0.1541112336,
				"element": "C" 
			},
			{
				"x": 1.1943927172,
				"y": -2.1912691226,
				"z": -0.9812658399,
				"element": "C" 
			},
			{
				"x": 2.2052807821,
				"y": -1.9980287082,
				"z": -1.9241555618,
				"element": "C" 
			},
			{
				"x": 3.1672323206,
				"y": -1.0048479824,
				"z": -1.7564841707,
				"element": "C" 
			},
			{
				"x": 4.1615183458,
				"y": -0.9034017017,
				"z": -2.691046792,
				"element": "O" 
			},
			{
				"x": 4.2727366316,
				"y": 0.340646767,
				"z": -3.3898874145,
				"element": "C" 
			},
			{
				"x": 3.1351101229,
				"y": -0.1965220299,
				"z": -0.5914895792,
				"element": "C" 
			},
			{
				"x": 4.1378456082,
				"y": 0.721916181,
				"z": -0.4674318427,
				"element": "O" 
			},
			{
				"x": 4.1803845567,
				"y": 1.5061066313,
				"z": 0.7171890831,
				"element": "C" 
			},
			{
				"x": 2.1255134328,
				"y": -0.392772996,
				"z": 0.3454191224,
				"element": "C" 
			},
			{
				"x": -5.2237504387,
				"y": -4.1668102183,
				"z": -1.4755285339,
				"element": "H" 
			},
			{
				"x": -5.937068253,
				"y": -2.6037145452,
				"z": -0.9798858206,
				"element": "H" 
			},
			{
				"x": -6.7174131162,
				"y": -4.1344342317,
				"z": -0.5004235746,
				"element": "H" 
			},
			{
				"x": -3.6955495856,
				"y": -3.7589292135,
				"z": 2.6850982224,
				"element": "H" 
			},
			{
				"x": -1.4044651105,
				"y": -2.8005595249,
				"z": 3.0063844901,
				"element": "H" 
			},
			{
				"x": -1.3833543051,
				"y": -1.5301422421,
				"z": -1.0895902747,
				"element": "H" 
			},
			{
				"x": -3.6391590127,
				"y": -2.4309828037,
				"z": -1.4071370386,
				"element": "H" 
			},
			{
				"x": 0.4742020677,
				"y": -2.9887320451,
				"z": -1.1227126252,
				"element": "H" 
			},
			{
				"x": 2.276899404,
				"y": -2.6232823629,
				"z": -2.8082962619,
				"element": "H" 
			},
			{
				"x": 3.3359355379,
				"y": 0.5786300337,
				"z": -3.9101463466,
				"element": "H" 
			},
			{
				"x": 5.0653889596,
				"y": 0.1990428917,
				"z": -4.1271351857,
				"element": "H" 
			},
			{
				"x": 4.5365742583,
				"y": 1.1599926713,
				"z": -2.7170363948,
				"element": "H" 
			},
			{
				"x": 4.2822063696,
				"y": 0.8778951541,
				"z": 1.6102882127,
				"element": "H" 
			},
			{
				"x": 5.0596420791,
				"y": 2.1447478541,
				"z": 0.6215130699,
				"element": "H" 
			},
			{
				"x": 3.2855791238,
				"y": 2.1326740685,
				"z": 0.8200597935,
				"element": "H" 
			},
			{
				"x": 2.0824943811,
				"y": 0.1848741654,
				"z": 1.2601625883,
				"element": "H" 
			}
		],
		 "valence_orbital": [ 
			{
				"type": "occ",
				"energy": -0.25726,
				"method": "rhf"
			},
			{
				"type": "occ",
				"energy": -0.24647,
				"method": "rhf"
			},
			{
				"type": "occ",
				"energy": -0.23713,
				"method": "rhf"
			},
			{
				"type": "occ",
				"energy": -0.22482,
				"method": "rhf"
			},
			{
				"type": "occ",
				"energy": -0.21819,
				"method": "rhf"
			},
			{
				"type": "unocc",
				"energy": -0.05244,
				"method": "rhf"
			},
			{
				"type": "unocc",
				"energy": -0.00775,
				"method": "rhf"
			},
			{
				"type": "unocc",
				"energy": 0.00185,
				"method": "rhf"
			},
			{
				"type": "unocc",
				"energy": 0.00686,
				"method": "rhf"
			},
			{
				"type": "unocc",
				"energy": 0.06894,
				"method": "rhf"
			}
		],
		"cosmo_sigma_profile": { 
			"-0.025": 0.0,
			"-0.024": 0.0,
			"-0.023": 0.0,
			"-0.022": 0.0,
			"-0.021": 0.0,
			"-0.02": 0.0,
			"-0.019": 0.0,
			"-0.018": 0.0,
			"-0.017": 0.0,
			"-0.016": 0.0,
			"-0.015": 0.0,
			"-0.014": 0.0,
			"-0.013": 0.0,
			"-0.012": 0.0,
			"-0.011": 0.0,
			"-0.01": 0.0,
			"-0.009": 0.0,
			"-0.008": 0.0,
			"-0.007": 2.65511582589,
			"-0.006": 20.3748852321,
			"-0.005": 33.1462463989,
			"-0.004": 32.9254184364,
			"-0.003": 34.0785439842,
			"-0.002": 24.8817073585,
			"-0.001": 18.3490735205,
			"0.0": 17.3816671641,
			"0.001": 20.1540915226,
			"0.002": 21.4615446618,
			"0.003": 27.3015457482,
			"0.004": 21.5432767958,
			"0.005": 7.80739092957,
			"0.006": 5.99751017449,
			"0.007": 4.20984259522,
			"0.008": 5.10649083731,
			"0.009": 6.1737374007,
			"0.01": 4.79996634539,
			"0.011": 3.95385325442,
			"0.012": 3.93415145456,
			"0.013": 2.78790419481,
			"0.014": 0.0242080805518,
			"0.015": 0.0,
			"0.016": 0.0,
			"0.017": 0.0,
			"0.018": 0.0,
			"0.019": 0.0,
			"0.02": 0.0,
			"0.021": 0.0,
			"0.022": 0.0,
			"0.023": 0.0,
			"0.024": 0.0,
			"0.025": 0.0
		}
	}
}
