{
	 "smiles": "CC=C=CC", 
	 "Tm": 147.15, 
	 "num_atms": 13, 
	 "gaussian": { 
		 "optdone": 1, 
		 "sigma_profile": "yes", 
		 "theory": "DFT", 
		 "functional": "B3LYP", 
		 "basiset": "6-31G**", 
		 "properties": { 
			 "R2extent": 945.4787, 
			 "electric_dipole_moment_norm": 0.191331257248, 
			 "electric_quadrupole_moment_norm": 3.14006377005, 
			 "total_energy": -195.30119131, 
			 "HOMO_LUMO_gap": 0.27395, 
			 "cosmo_polarized_energy": -2.01, 
			 "cosmo_cavitation_energy": 16.75, 
			 "cosmo_dispersion_energy": -12.11, 
			 "cosmo_repulsion_energy": 1.12, 
			 "cosmo_total_nonelectrostatic_energy": 5.75, 
			 "SMD_solvation_energy": 3.71 
		},
		"coords": [
			{
				"x": -3.4282951894,
				"y": -0.4981006491,
				"z": -1.5404152741,
				"element": "C" 
			},
			{
				"x": -2.2772031504,
				"y": -1.3591607498,
				"z": -1.0762401792,
				"element": "C" 
			},
			{
				"x": -1.0237638273,
				"y": -0.9811416092,
				"z": -1.0333914897,
				"element": "C" 
			},
			{
				"x": 0.2292726596,
				"y": -0.6018080263,
				"z": -0.9904451784,
				"element": "C" 
			},
			{
				"x": 0.8980953279,
				"y": 0.0519393112,
				"z": 0.1958276809,
				"element": "C" 
			},
			{
				"x": -4.1750764635,
				"y": -0.3807102134,
				"z": -0.7455482692,
				"element": "H" 
			},
			{
				"x": -3.9406065222,
				"y": -0.9575373006,
				"z": -2.3948053301,
				"element": "H" 
			},
			{
				"x": -3.0853028879,
				"y": 0.495163708,
				"z": -1.8395838757,
				"element": "H" 
			},
			{
				"x": -2.5256199767,
				"y": -2.373316381,
				"z": -0.7570276904,
				"element": "H" 
			},
			{
				"x": 0.8527644897,
				"y": -0.7656935061,
				"z": -1.8716368019,
				"element": "H" 
			},
			{
				"x": 0.199904096,
				"y": 0.174228611,
				"z": 1.0272647886,
				"element": "H" 
			},
			{
				"x": 1.2925187276,
				"y": 1.0398228024,
				"z": -0.0721134421,
				"element": "H" 
			},
			{
				"x": 1.7480127168,
				"y": -0.5474859973,
				"z": 0.5449150613,
				"element": "H" 
			}
		],
		 "valence_orbital": [ 
			{
				"type": "occ",
				"energy": -0.39823,
				"method": "rhf"
			},
			{
				"type": "occ",
				"energy": -0.37171,
				"method": "rhf"
			},
			{
				"type": "occ",
				"energy": -0.36489,
				"method": "rhf"
			},
			{
				"type": "occ",
				"energy": -0.2414,
				"method": "rhf"
			},
			{
				"type": "occ",
				"energy": -0.24129,
				"method": "rhf"
			},
			{
				"type": "unocc",
				"energy": 0.03266,
				"method": "rhf"
			},
			{
				"type": "unocc",
				"energy": 0.03271,
				"method": "rhf"
			},
			{
				"type": "unocc",
				"energy": 0.12881,
				"method": "rhf"
			},
			{
				"type": "unocc",
				"energy": 0.13573,
				"method": "rhf"
			},
			{
				"type": "unocc",
				"energy": 0.15417,
				"method": "rhf"
			}
		],
		"cosmo_sigma_profile": { 
			"-0.025": 0.0,
			"-0.024": 0.0,
			"-0.023": 0.0,
			"-0.022": 0.0,
			"-0.021": 0.0,
			"-0.02": 0.0,
			"-0.019": 0.0,
			"-0.018": 0.0,
			"-0.017": 0.0,
			"-0.016": 0.0,
			"-0.015": 0.0,
			"-0.014": 0.0,
			"-0.013": 0.0,
			"-0.012": 0.0,
			"-0.011": 0.0,
			"-0.01": 0.0,
			"-0.009": 0.0,
			"-0.008": 0.0,
			"-0.007": 0.0,
			"-0.006": 0.821936411545,
			"-0.005": 3.61407927326,
			"-0.004": 9.66625198133,
			"-0.003": 14.8322365991,
			"-0.002": 16.5069692718,
			"-0.001": 18.3139379781,
			"0.0": 19.8751106943,
			"0.001": 12.196156409,
			"0.002": 7.11694904804,
			"0.003": 7.23235518131,
			"0.004": 7.89046875131,
			"0.005": 7.6250293028,
			"0.006": 5.73226728605,
			"0.007": 0.724754881155,
			"0.008": 0.0,
			"0.009": 0.0,
			"0.01": 0.0,
			"0.011": 0.0,
			"0.012": 0.0,
			"0.013": 0.0,
			"0.014": 0.0,
			"0.015": 0.0,
			"0.016": 0.0,
			"0.017": 0.0,
			"0.018": 0.0,
			"0.019": 0.0,
			"0.02": 0.0,
			"0.021": 0.0,
			"0.022": 0.0,
			"0.023": 0.0,
			"0.024": 0.0,
			"0.025": 0.0
		}
	}
}
