{
	 "smiles": "NC1=NC(=CS1)C1=CC=C(OC2=CC=CC=C2)C=C1", 
	 "Tm": 469.15, 
	 "num_atms": 31, 
	 "gaussian": { 
		 "optdone": 1, 
		 "sigma_profile": "yes", 
		 "theory": "DFT", 
		 "functional": "B3LYP", 
		 "basiset": "6-31G**", 
		 "properties": { 
			 "R2extent": 9143.3393, 
			 "electric_dipole_moment_norm": 1.87088449136, 
			 "electric_quadrupole_moment_norm": 21.8636649352, 
			 "total_energy": -1161.73534036, 
			 "HOMO_LUMO_gap": 0.16717, 
			 "cosmo_polarized_energy": -13.6, 
			 "cosmo_cavitation_energy": 37.55, 
			 "cosmo_dispersion_energy": -28.02, 
			 "cosmo_repulsion_energy": 2.1, 
			 "cosmo_total_nonelectrostatic_energy": 11.63, 
			 "SMD_solvation_energy": 5.11 
		},
		"coords": [
			{
				"x": -4.0431802001,
				"y": -4.2317646503,
				"z": -1.6975981611,
				"element": "N" 
			},
			{
				"x": -3.0112876607,
				"y": -3.8358812206,
				"z": -0.8759234058,
				"element": "C" 
			},
			{
				"x": -2.6058116825,
				"y": -2.6083972303,
				"z": -0.7574965061,
				"element": "N" 
			},
			{
				"x": -1.50144942,
				"y": -2.5149118526,
				"z": 0.0815524605,
				"element": "C" 
			},
			{
				"x": -1.0749151306,
				"y": -3.7044345262,
				"z": 0.6083613541,
				"element": "C" 
			},
			{
				"x": -2.0671663176,
				"y": -5.0217275614,
				"z": 0.0377334116,
				"element": "S" 
			},
			{
				"x": -0.911536631,
				"y": -1.1856873648,
				"z": 0.3256842003,
				"element": "C" 
			},
			{
				"x": 0.1417881856,
				"y": -0.99106444,
				"z": 1.2356011205,
				"element": "C" 
			},
			{
				"x": 0.6917619796,
				"y": 0.2682975508,
				"z": 1.4505358321,
				"element": "C" 
			},
			{
				"x": 0.1926011592,
				"y": 1.3678415508,
				"z": 0.7431443706,
				"element": "C" 
			},
			{
				"x": 0.6347558994,
				"y": 2.6583048862,
				"z": 0.9551895915,
				"element": "O" 
			},
			{
				"x": 1.971893166,
				"y": 2.9233334775,
				"z": 1.1784743535,
				"element": "C" 
			},
			{
				"x": 2.9976522783,
				"y": 2.2675851721,
				"z": 0.4901928839,
				"element": "C" 
			},
			{
				"x": 4.3211931477,
				"y": 2.6457842838,
				"z": 0.7191085107,
				"element": "C" 
			},
			{
				"x": 4.624743821,
				"y": 3.672256372,
				"z": 1.6160870765,
				"element": "C" 
			},
			{
				"x": 3.5898457659,
				"y": 4.3254250671,
				"z": 2.289267279,
				"element": "C" 
			},
			{
				"x": 2.262989825,
				"y": 3.9526302722,
				"z": 2.0768024302,
				"element": "C" 
			},
			{
				"x": -0.8580787848,
				"y": 1.2000843778,
				"z": -0.1600849819,
				"element": "C" 
			},
			{
				"x": -1.404316372,
				"y": -0.0638321634,
				"z": -0.3616405196,
				"element": "C" 
			},
			{
				"x": -4.5719818644,
				"y": -5.041572211,
				"z": -1.406477724,
				"element": "H" 
			},
			{
				"x": -4.6178993077,
				"y": -3.4577299261,
				"z": -2.004806447,
				"element": "H" 
			},
			{
				"x": -0.2537584441,
				"y": -3.9001302102,
				"z": 1.2807376833,
				"element": "H" 
			},
			{
				"x": 0.5356595378,
				"y": -1.8308440728,
				"z": 1.8000581929,
				"element": "H" 
			},
			{
				"x": 1.4967117751,
				"y": 0.4016737078,
				"z": 2.1649734417,
				"element": "H" 
			},
			{
				"x": 2.7595603089,
				"y": 1.4781910545,
				"z": -0.2144054918,
				"element": "H" 
			},
			{
				"x": 5.1183002746,
				"y": 2.1373883245,
				"z": 0.1839836201,
				"element": "H" 
			},
			{
				"x": 5.6571427305,
				"y": 3.961668359,
				"z": 1.7865962315,
				"element": "H" 
			},
			{
				"x": 3.8137735595,
				"y": 5.1266078324,
				"z": 2.987783526,
				"element": "H" 
			},
			{
				"x": 1.4443623184,
				"y": 4.4460838671,
				"z": 2.5902407796,
				"element": "H" 
			},
			{
				"x": -1.235843892,
				"y": 2.0671728402,
				"z": -0.6919729702,
				"element": "H" 
			},
			{
				"x": -2.2200100247,
				"y": -0.2013515661,
				"z": -1.0619021426,
				"element": "H" 
			}
		],
		 "valence_orbital": [ 
			{
				"type": "occ",
				"energy": -0.25358,
				"method": "rhf"
			},
			{
				"type": "occ",
				"energy": -0.24972,
				"method": "rhf"
			},
			{
				"type": "occ",
				"energy": -0.24698,
				"method": "rhf"
			},
			{
				"type": "occ",
				"energy": -0.22399,
				"method": "rhf"
			},
			{
				"type": "occ",
				"energy": -0.19421,
				"method": "rhf"
			},
			{
				"type": "unocc",
				"energy": -0.02704,
				"method": "rhf"
			},
			{
				"type": "unocc",
				"energy": -0.00738,
				"method": "rhf"
			},
			{
				"type": "unocc",
				"energy": 0.00339,
				"method": "rhf"
			},
			{
				"type": "unocc",
				"energy": 0.00748,
				"method": "rhf"
			},
			{
				"type": "unocc",
				"energy": 0.01009,
				"method": "rhf"
			}
		],
		"cosmo_sigma_profile": { 
			"-0.025": 0.0,
			"-0.024": 0.0,
			"-0.023": 0.0,
			"-0.022": 0.0,
			"-0.021": 0.0,
			"-0.02": 0.0,
			"-0.019": 0.0,
			"-0.018": 0.0,
			"-0.017": 0.0,
			"-0.016": 0.0,
			"-0.015": 0.29763994767,
			"-0.014": 2.10223652371,
			"-0.013": 2.3718366878,
			"-0.012": 2.45812402431,
			"-0.011": 2.60521212722,
			"-0.01": 3.31693477589,
			"-0.009": 3.09213964319,
			"-0.008": 4.39321414935,
			"-0.007": 4.78223375067,
			"-0.006": 14.0881857424,
			"-0.005": 18.8689156088,
			"-0.004": 19.4834549079,
			"-0.003": 17.8563676755,
			"-0.002": 16.8612674284,
			"-0.001": 15.4656943643,
			"0.0": 16.716963978,
			"0.001": 19.9465770882,
			"0.002": 24.7583689171,
			"0.003": 31.6236540286,
			"0.004": 35.5656931149,
			"0.005": 23.6591838772,
			"0.006": 8.29882017034,
			"0.007": 3.92359379304,
			"0.008": 3.75010972003,
			"0.009": 3.0551146662,
			"0.01": 2.09545462415,
			"0.011": 1.82103327762,
			"0.012": 0.559074573462,
			"0.013": 0.0,
			"0.014": 0.0,
			"0.015": 0.0,
			"0.016": 0.0,
			"0.017": 0.0,
			"0.018": 0.0,
			"0.019": 0.0,
			"0.02": 0.0,
			"0.021": 0.0,
			"0.022": 0.0,
			"0.023": 0.0,
			"0.024": 0.0,
			"0.025": 0.0
		}
	}
}
